{
	 "smiles": "OC(=O)C1=CC=C(C=C1)S(=O)(=O)N1CCOCC1", 
	 "Tm": 561.15, 
	 "num_atms": 31, 
	 "gaussian": { 
		 "optdone": 1, 
		 "sigma_profile": "yes", 
		 "theory": "DFT", 
		 "functional": "B3LYP", 
		 "basiset": "6-31G**", 
		 "properties": { 
			 "R2extent": 6460.3258, 
			 "electric_dipole_moment_norm": 3.36874976957, 
			 "electric_quadrupole_moment_norm": 17.9585310805, 
			 "total_energy": -1255.98319788, 
			 "HOMO_LUMO_gap": 0.17629, 
			 "cosmo_polarized_energy": -18.24, 
			 "cosmo_cavitation_energy": 35.65, 
			 "cosmo_dispersion_energy": -26.1, 
			 "cosmo_repulsion_energy": 1.97, 
			 "cosmo_total_nonelectrostatic_energy": 11.53, 
			 "SMD_solvation_energy": 5.64 
		},
		"coords": [
			{
				"x": 4.2995441036,
				"y": -1.2855168547,
				"z": 2.0721675071,
				"element": "O" 
			},
			{
				"x": 3.2449006451,
				"y": -0.7983482671,
				"z": 2.7688617696,
				"element": "C" 
			},
			{
				"x": 3.1819077583,
				"y": -0.8562305774,
				"z": 3.9800865156,
				"element": "O" 
			},
			{
				"x": 2.1966126742,
				"y": -0.1998035219,
				"z": 1.8947088819,
				"element": "C" 
			},
			{
				"x": 1.0606210031,
				"y": 0.3409610067,
				"z": 2.5154384408,
				"element": "C" 
			},
			{
				"x": 0.0501365068,
				"y": 0.9100402737,
				"z": 1.7496444417,
				"element": "C" 
			},
			{
				"x": 0.1853382059,
				"y": 0.9320459674,
				"z": 0.3580096903,
				"element": "C" 
			},
			{
				"x": 1.3145089127,
				"y": 0.4106383488,
				"z": -0.2744739316,
				"element": "C" 
			},
			{
				"x": 2.3234771059,
				"y": -0.1607478389,
				"z": 0.5008061718,
				"element": "C" 
			},
			{
				"x": -1.1259206303,
				"y": 1.6605234405,
				"z": -0.6367574575,
				"element": "S" 
			},
			{
				"x": -1.7095409566,
				"y": 2.7690428177,
				"z": 0.1256346852,
				"element": "O" 
			},
			{
				"x": -0.5753983901,
				"y": 1.8641083804,
				"z": -1.9822114669,
				"element": "O" 
			},
			{
				"x": -2.2774692114,
				"y": 0.4302621405,
				"z": -0.671634903,
				"element": "N" 
			},
			{
				"x": -3.6796032086,
				"y": 0.7468338844,
				"z": -0.3214259939,
				"element": "C" 
			},
			{
				"x": -4.5956158386,
				"y": 0.4693569909,
				"z": -1.509010526,
				"element": "C" 
			},
			{
				"x": -4.5263795148,
				"y": -0.8866412532,
				"z": -1.9525926623,
				"element": "O" 
			},
			{
				"x": -3.2966146993,
				"y": -1.5432436632,
				"z": -1.6716580346,
				"element": "C" 
			},
			{
				"x": -2.0972806258,
				"y": -0.6004977337,
				"z": -1.7149951583,
				"element": "C" 
			},
			{
				"x": 4.9139405039,
				"y": -1.6447448946,
				"z": 2.7333111946,
				"element": "H" 
			},
			{
				"x": 0.9938245855,
				"y": 0.3079835017,
				"z": 3.5973754349,
				"element": "H" 
			},
			{
				"x": -0.825671758,
				"y": 1.3466892404,
				"z": 2.2168294118,
				"element": "H" 
			},
			{
				"x": 1.4019011562,
				"y": 0.4729426185,
				"z": -1.353290554,
				"element": "H" 
			},
			{
				"x": 3.2095492098,
				"y": -0.5695799057,
				"z": 0.0293654825,
				"element": "H" 
			},
			{
				"x": -3.7461775026,
				"y": 1.7944650413,
				"z": -0.0244164931,
				"element": "H" 
			},
			{
				"x": -3.9814633854,
				"y": 0.1338233531,
				"z": 0.5368435228,
				"element": "H" 
			},
			{
				"x": -4.3392883912,
				"y": 1.148517896,
				"z": -2.3358532527,
				"element": "H" 
			},
			{
				"x": -5.6370783274,
				"y": 0.6605591463,
				"z": -1.2279072694,
				"element": "H" 
			},
			{
				"x": -3.3374266412,
				"y": -2.0380563255,
				"z": -0.6887835212,
				"element": "H" 
			},
			{
				"x": -3.1733285363,
				"y": -2.3216259667,
				"z": -2.4312150622,
				"element": "H" 
			},
			{
				"x": -1.1795357805,
				"y": -1.16613311,
				"z": -1.5158479578,
				"element": "H" 
			},
			{
				"x": -2.0079689727,
				"y": -0.1493241355,
				"z": -2.7102089065,
				"element": "H" 
			}
		],
		 "valence_orbital": [ 
			{
				"type": "occ",
				"energy": -0.29098,
				"method": "rhf"
			},
			{
				"type": "occ",
				"energy": -0.28878,
				"method": "rhf"
			},
			{
				"type": "occ",
				"energy": -0.28099,
				"method": "rhf"
			},
			{
				"type": "occ",
				"energy": -0.26139,
				"method": "rhf"
			},
			{
				"type": "occ",
				"energy": -0.25097,
				"method": "rhf"
			},
			{
				"type": "unocc",
				"energy": -0.07468,
				"method": "rhf"
			},
			{
				"type": "unocc",
				"energy": -0.03035,
				"method": "rhf"
			},
			{
				"type": "unocc",
				"energy": 0.02346,
				"method": "rhf"
			},
			{
				"type": "unocc",
				"energy": 0.05148,
				"method": "rhf"
			},
			{
				"type": "unocc",
				"energy": 0.06778,
				"method": "rhf"
			}
		],
		"cosmo_sigma_profile": { 
			"-0.025": 0.0,
			"-0.024": 0.0,
			"-0.023": 0.0,
			"-0.022": 0.0,
			"-0.021": 0.0,
			"-0.02": 0.0,
			"-0.019": 0.118912831366,
			"-0.018": 1.11373153389,
			"-0.017": 0.775049150735,
			"-0.016": 0.858832235215,
			"-0.015": 0.704074621182,
			"-0.014": 1.05295360522,
			"-0.013": 0.497502372665,
			"-0.012": 0.694651202091,
			"-0.011": 0.73585573753,
			"-0.01": 0.637280553092,
			"-0.009": 0.43735049758,
			"-0.008": 2.43956659919,
			"-0.007": 7.429362842,
			"-0.006": 16.2653388537,
			"-0.005": 27.9035767268,
			"-0.004": 29.0200234479,
			"-0.003": 22.9457261605,
			"-0.002": 19.1213279073,
			"-0.001": 17.2659488434,
			"0.0": 19.0337940576,
			"0.001": 22.5985798034,
			"0.002": 12.2176840405,
			"0.003": 8.59716320794,
			"0.004": 8.05441560253,
			"0.005": 6.64670530339,
			"0.006": 6.45791034244,
			"0.007": 6.48708681227,
			"0.008": 6.74896549559,
			"0.009": 6.51570864712,
			"0.01": 10.1185838093,
			"0.011": 12.5748997646,
			"0.012": 4.93450433135,
			"0.013": 1.52471147569,
			"0.014": 0.233918250978,
			"0.015": 0.0,
			"0.016": 0.0,
			"0.017": 0.0,
			"0.018": 0.0,
			"0.019": 0.0,
			"0.02": 0.0,
			"0.021": 0.0,
			"0.022": 0.0,
			"0.023": 0.0,
			"0.024": 0.0,
			"0.0": 0.0
		}
	}
}
