{
	 "smiles": "O=C1NC(=O)C(CC2=CC=CC=C2)(N1)C1=CC=CC=C1", 
	 "Tm": 483.15, 
	 "num_atms": 34, 
	 "gaussian": { 
		 "optdone": 1, 
		 "sigma_profile": "yes", 
		 "theory": "DFT", 
		 "functional": "B3LYP", 
		 "basiset": "6-31G**", 
		 "properties": { 
			 "R2extent": 5308.6508, 
			 "electric_dipole_moment_norm": 2.86619346695, 
			 "electric_quadrupole_moment_norm": 8.98414179263, 
			 "total_energy": -878.136962953, 
			 "HOMO_LUMO_gap": 0.22032, 
			 "cosmo_polarized_energy": -16.61, 
			 "cosmo_cavitation_energy": 37.49, 
			 "cosmo_dispersion_energy": -25.55, 
			 "cosmo_repulsion_energy": 1.97, 
			 "cosmo_total_nonelectrostatic_energy": 13.91, 
			 "SMD_solvation_energy": 7.61 
		},
		"coords": [
			{
				"x": -2.3546588309,
				"y": 0.4216879319,
				"z": 3.4508337864,
				"element": "O" 
			},
			{
				"x": -1.5834974842,
				"y": -0.2717867728,
				"z": 2.8224791474,
				"element": "C" 
			},
			{
				"x": -1.1139163302,
				"y": -1.5461470437,
				"z": 3.2057722835,
				"element": "N" 
			},
			{
				"x": -0.3464552298,
				"y": -2.1587683127,
				"z": 2.2415299956,
				"element": "C" 
			},
			{
				"x": 0.1181964957,
				"y": -3.2788469631,
				"z": 2.2787177851,
				"element": "O" 
			},
			{
				"x": -0.2292429823,
				"y": -1.138919205,
				"z": 1.0757277955,
				"element": "C" 
			},
			{
				"x": -0.9418004466,
				"y": -1.7521813269,
				"z": -0.1776698424,
				"element": "C" 
			},
			{
				"x": -1.1470926743,
				"y": -0.7630056291,
				"z": -1.3039392672,
				"element": "C" 
			},
			{
				"x": -2.3517809757,
				"y": -0.0509022321,
				"z": -1.4089810139,
				"element": "C" 
			},
			{
				"x": -2.5470048918,
				"y": 0.8837467248,
				"z": -2.4283465725,
				"element": "C" 
			},
			{
				"x": -1.5380589102,
				"y": 1.1178246075,
				"z": -3.3630824541,
				"element": "C" 
			},
			{
				"x": -0.3367676439,
				"y": 0.4108230563,
				"z": -3.2732707625,
				"element": "C" 
			},
			{
				"x": -0.1423530068,
				"y": -0.519777167,
				"z": -2.2526309699,
				"element": "C" 
			},
			{
				"x": -0.9856581209,
				"y": -0.0124860836,
				"z": 1.6131466098,
				"element": "N" 
			},
			{
				"x": 1.2411180922,
				"y": -0.802177474,
				"z": 0.8032746181,
				"element": "C" 
			},
			{
				"x": 2.1400533195,
				"y": -1.8254560909,
				"z": 0.4631920825,
				"element": "C" 
			},
			{
				"x": 3.4761043773,
				"y": -1.53161231,
				"z": 0.1932391425,
				"element": "C" 
			},
			{
				"x": 3.9352401566,
				"y": -0.2138735721,
				"z": 0.2553888232,
				"element": "C" 
			},
			{
				"x": 3.049234897,
				"y": 0.8054881316,
				"z": 0.6013955347,
				"element": "C" 
			},
			{
				"x": 1.7117059164,
				"y": 0.5128902897,
				"z": 0.8773626646,
				"element": "C" 
			},
			{
				"x": -1.387410502,
				"y": -1.9827788077,
				"z": 4.0745575666,
				"element": "H" 
			},
			{
				"x": -0.3502894557,
				"y": -2.6091687989,
				"z": -0.5095781332,
				"element": "H" 
			},
			{
				"x": -1.9126110525,
				"y": -2.1408184706,
				"z": 0.1497147519,
				"element": "H" 
			},
			{
				"x": -3.1508326534,
				"y": -0.2436634286,
				"z": -0.6966848722,
				"element": "H" 
			},
			{
				"x": -3.4891646159,
				"y": 1.4202874038,
				"z": -2.4949694412,
				"element": "H" 
			},
			{
				"x": -1.6883936521,
				"y": 1.840432565,
				"z": -4.1598806099,
				"element": "H" 
			},
			{
				"x": 0.4509956281,
				"y": 0.5823664547,
				"z": -4.0013014842,
				"element": "H" 
			},
			{
				"x": 0.7953593502,
				"y": -1.0636277096,
				"z": -2.1894833644,
				"element": "H" 
			},
			{
				"x": -1.3610738884,
				"y": 0.715881303,
				"z": 1.0230556635,
				"element": "H" 
			},
			{
				"x": 1.7996934087,
				"y": -2.8550241935,
				"z": 0.4442877521,
				"element": "H" 
			},
			{
				"x": 4.1604487835,
				"y": -2.3361274994,
				"z": -0.0605876954,
				"element": "H" 
			},
			{
				"x": 4.9757196981,
				"y": 0.0135718792,
				"z": 0.0422786047,
				"element": "H" 
			},
			{
				"x": 3.3956191991,
				"y": 1.8333162234,
				"z": 0.6611093668,
				"element": "H" 
			},
			{
				"x": 1.0347740253,
				"y": 1.3107325203,
				"z": 1.1616425085,
				"element": "H" 
			}
		],
		 "valence_orbital": [ 
			{
				"type": "occ",
				"energy": -0.26652,
				"method": "rhf"
			},
			{
				"type": "occ",
				"energy": -0.25961,
				"method": "rhf"
			},
			{
				"type": "occ",
				"energy": -0.25489,
				"method": "rhf"
			},
			{
				"type": "occ",
				"energy": -0.25187,
				"method": "rhf"
			},
			{
				"type": "occ",
				"energy": -0.24711,
				"method": "rhf"
			},
			{
				"type": "unocc",
				"energy": -0.02679,
				"method": "rhf"
			},
			{
				"type": "unocc",
				"energy": -0.01399,
				"method": "rhf"
			},
			{
				"type": "unocc",
				"energy": -0.00747,
				"method": "rhf"
			},
			{
				"type": "unocc",
				"energy": -0.00662,
				"method": "rhf"
			},
			{
				"type": "unocc",
				"energy": 0.00404,
				"method": "rhf"
			}
		],
		"cosmo_sigma_profile": { 
			"-0.025": 0.0,
			"-0.024": 0.0,
			"-0.023": 0.0,
			"-0.022": 0.0,
			"-0.021": 0.0,
			"-0.02": 0.0,
			"-0.019": 0.0,
			"-0.018": 0.0,
			"-0.017": 0.528579417033,
			"-0.016": 1.34206652757,
			"-0.015": 1.00575117864,
			"-0.014": 1.01077281665,
			"-0.013": 1.73417202624,
			"-0.012": 1.093599925,
			"-0.011": 1.35228680974,
			"-0.01": 1.55518881234,
			"-0.009": 2.29363542931,
			"-0.008": 2.76744713397,
			"-0.007": 4.01397326566,
			"-0.006": 16.5088101436,
			"-0.005": 25.5856275416,
			"-0.004": 26.6982801487,
			"-0.003": 26.7658847393,
			"-0.002": 20.8194249225,
			"-0.001": 18.380412504,
			"0.0": 16.3515186518,
			"0.001": 16.0506101755,
			"0.002": 16.8077339822,
			"0.003": 16.8552974071,
			"0.004": 18.7142539039,
			"0.005": 19.975075893,
			"0.006": 9.27185278896,
			"0.007": 2.75097059425,
			"0.008": 2.78452384995,
			"0.009": 2.42875544965,
			"0.01": 3.42745375849,
			"0.011": 6.29103780577,
			"0.012": 8.03433519641,
			"0.013": 5.4827761209,
			"0.014": 0.354235735138,
			"0.015": 0.0,
			"0.016": 0.0,
			"0.017": 0.0,
			"0.018": 0.0,
			"0.019": 0.0,
			"0.02": 0.0,
			"0.021": 0.0,
			"0.022": 0.0,
			"0.023": 0.0,
			"0.024": 0.0,
			"0.025": 0.0
		}
	}
}
