{
	 "smiles": "ClC1=NC=NC2=C1C1=C(CCCCC1)S2", 
	 "Tm": 337.65, 
	 "num_atms": 26, 
	 "gaussian": { 
		 "optdone": 1, 
		 "sigma_profile": "yes", 
		 "theory": "DFT", 
		 "functional": "B3LYP", 
		 "basiset": "6-31G**", 
		 "properties": { 
			 "R2extent": 4269.4722, 
			 "electric_dipole_moment_norm": 3.85127495513, 
			 "electric_quadrupole_moment_norm": 4.4119021578, 
			 "total_energy": -1393.68762119, 
			 "HOMO_LUMO_gap": 0.17783, 
			 "cosmo_polarized_energy": -6.61, 
			 "cosmo_cavitation_energy": 30.51, 
			 "cosmo_dispersion_energy": -23.49, 
			 "cosmo_repulsion_energy": 1.76, 
			 "cosmo_total_nonelectrostatic_energy": 8.78, 
			 "SMD_solvation_energy": 0.57 
		},
		"coords": [
			{
				"x": -0.7611115908,
				"y": -2.2367989835,
				"z": 2.9576688644,
				"element": "Cl" 
			},
			{
				"x": 0.7703402824,
				"y": -1.7241977062,
				"z": 2.2481873529,
				"element": "C" 
			},
			{
				"x": 1.8295386173,
				"y": -2.3397041917,
				"z": 2.7316703264,
				"element": "N" 
			},
			{
				"x": 3.0333249032,
				"y": -1.9809394639,
				"z": 2.255975917,
				"element": "C" 
			},
			{
				"x": 3.2728415198,
				"y": -1.0450467632,
				"z": 1.3427033515,
				"element": "N" 
			},
			{
				"x": 2.1811727707,
				"y": -0.4437796914,
				"z": 0.8743535556,
				"element": "C" 
			},
			{
				"x": 0.8372250071,
				"y": -0.7221422595,
				"z": 1.2567789068,
				"element": "C" 
			},
			{
				"x": -0.1235233274,
				"y": 0.0988649665,
				"z": 0.5427548983,
				"element": "C" 
			},
			{
				"x": 0.4955113976,
				"y": 0.9733118831,
				"z": -0.3118598559,
				"element": "C" 
			},
			{
				"x": -0.1058224928,
				"y": 2.0189580926,
				"z": -1.2237155613,
				"element": "C" 
			},
			{
				"x": -1.5160668456,
				"y": 2.5446013563,
				"z": -0.8516947546,
				"element": "C" 
			},
			{
				"x": -1.7681712897,
				"y": 2.6380353413,
				"z": 0.6633462483,
				"element": "C" 
			},
			{
				"x": -2.2565601386,
				"y": 1.3110012098,
				"z": 1.2843503346,
				"element": "C" 
			},
			{
				"x": -1.6329179913,
				"y": 0.0477133464,
				"z": 0.6548389478,
				"element": "C" 
			},
			{
				"x": 2.2527439406,
				"y": 0.8310252414,
				"z": -0.3137208472,
				"element": "S" 
			},
			{
				"x": 3.8910246191,
				"y": -2.507174918,
				"z": 2.6661519736,
				"element": "H" 
			},
			{
				"x": -0.1126034352,
				"y": 1.6404554399,
				"z": -2.2556819889,
				"element": "H" 
			},
			{
				"x": 0.5829978911,
				"y": 2.8732004902,
				"z": -1.2337609907,
				"element": "H" 
			},
			{
				"x": -2.2883781857,
				"y": 1.9217229949,
				"z": -1.3170959307,
				"element": "H" 
			},
			{
				"x": -1.6201106395,
				"y": 3.53464916,
				"z": -1.3089402172,
				"element": "H" 
			},
			{
				"x": -2.5117250668,
				"y": 3.4164170971,
				"z": 0.8684261772,
				"element": "H" 
			},
			{
				"x": -0.8457323888,
				"y": 2.9652431532,
				"z": 1.158143895,
				"element": "H" 
			},
			{
				"x": -3.3447287308,
				"y": 1.2320534914,
				"z": 1.1669393046,
				"element": "H" 
			},
			{
				"x": -2.0622228126,
				"y": 1.3199017004,
				"z": 2.3631686416,
				"element": "H" 
			},
			{
				"x": -2.0444062109,
				"y": -0.0913883381,
				"z": -0.3512996846,
				"element": "H" 
			},
			{
				"x": -1.9427398026,
				"y": -0.8263826489,
				"z": 1.2247111358,
				"element": "H" 
			}
		],
		 "valence_orbital": [ 
			{
				"type": "occ",
				"energy": -0.31154,
				"method": "rhf"
			},
			{
				"type": "occ",
				"energy": -0.30184,
				"method": "rhf"
			},
			{
				"type": "occ",
				"energy": -0.26961,
				"method": "rhf"
			},
			{
				"type": "occ",
				"energy": -0.26775,
				"method": "rhf"
			},
			{
				"type": "occ",
				"energy": -0.23222,
				"method": "rhf"
			},
			{
				"type": "unocc",
				"energy": -0.05439,
				"method": "rhf"
			},
			{
				"type": "unocc",
				"energy": -0.03805,
				"method": "rhf"
			},
			{
				"type": "unocc",
				"energy": 0.00144,
				"method": "rhf"
			},
			{
				"type": "unocc",
				"energy": 0.02084,
				"method": "rhf"
			},
			{
				"type": "unocc",
				"energy": 0.03624,
				"method": "rhf"
			}
		],
		"cosmo_sigma_profile": { 
			"-0.025": 0.0,
			"-0.024": 0.0,
			"-0.023": 0.0,
			"-0.022": 0.0,
			"-0.021": 0.0,
			"-0.02": 0.0,
			"-0.019": 0.0,
			"-0.018": 0.0,
			"-0.017": 0.0,
			"-0.016": 0.0,
			"-0.015": 0.0,
			"-0.014": 0.0,
			"-0.013": 0.0,
			"-0.012": 0.0,
			"-0.011": 0.0,
			"-0.01": 0.0,
			"-0.009": 0.0534099530851,
			"-0.008": 1.74596740567,
			"-0.007": 1.89660350478,
			"-0.006": 1.77823528004,
			"-0.005": 6.68702023158,
			"-0.004": 13.1880943564,
			"-0.003": 25.1764723,
			"-0.002": 36.4913983121,
			"-0.001": 41.5446156509,
			"0.0": 34.1211834385,
			"0.001": 25.4332634088,
			"0.002": 14.8686075714,
			"0.003": 12.4452602429,
			"0.004": 8.56162894428,
			"0.005": 4.82184634059,
			"0.006": 3.65415908726,
			"0.007": 2.49784286936,
			"0.008": 1.95540436707,
			"0.009": 1.86271464519,
			"0.01": 1.8517586016,
			"0.011": 2.25548966573,
			"0.012": 1.36383837592,
			"0.013": 1.80521527056,
			"0.014": 0.5083547482,
			"0.015": 0.0,
			"0.016": 0.0,
			"0.017": 0.0,
			"0.018": 0.0,
			"0.019": 0.0,
			"0.02": 0.0,
			"0.021": 0.0,
			"0.022": 0.0,
			"0.023": 0.0,
			"0.024": 0.0,
			"0.025": 0.0
		}
	}
}
