{
	 "smiles": "CC1=C(C=C(N)C=C1)S(C)(=O)=O", 
	 "Tm": 346.15, 
	 "num_atms": 23, 
	 "gaussian": { 
		 "optdone": 1, 
		 "sigma_profile": "yes", 
		 "theory": "DFT", 
		 "functional": "B3LYP", 
		 "basiset": "6-31G**", 
		 "properties": { 
			 "R2extent": 2540.4391, 
			 "electric_dipole_moment_norm": 5.97197573756, 
			 "electric_quadrupole_moment_norm": 11.7304205854, 
			 "total_energy": -914.811674406, 
			 "HOMO_LUMO_gap": 0.18261, 
			 "cosmo_polarized_energy": -18.3, 
			 "cosmo_cavitation_energy": 27.03, 
			 "cosmo_dispersion_energy": -20.4, 
			 "cosmo_repulsion_energy": 1.57, 
			 "cosmo_total_nonelectrostatic_energy": 8.2, 
			 "SMD_solvation_energy": 4.5 
		},
		"coords": [
			{
				"x": 0.9095391905,
				"y": -1.7311138686,
				"z": 2.3040548845,
				"element": "C" 
			},
			{
				"x": 0.0305217653,
				"y": -1.1588369634,
				"z": 1.2150913022,
				"element": "C" 
			},
			{
				"x": 0.50089105,
				"y": -0.4752211713,
				"z": 0.0758366378,
				"element": "C" 
			},
			{
				"x": -0.351365434,
				"y": 0.0171670937,
				"z": -0.911543551,
				"element": "C" 
			},
			{
				"x": -1.7407116871,
				"y": -0.1470670502,
				"z": -0.800996442,
				"element": "C" 
			},
			{
				"x": -2.5925478172,
				"y": 0.2853628418,
				"z": -1.8131100142,
				"element": "N" 
			},
			{
				"x": -2.2327196205,
				"y": -0.8129740798,
				"z": 0.3324690813,
				"element": "C" 
			},
			{
				"x": -1.3618670999,
				"y": -1.3004796152,
				"z": 1.3016599519,
				"element": "C" 
			},
			{
				"x": 2.2636320976,
				"y": -0.1868317519,
				"z": -0.2302192195,
				"element": "S" 
			},
			{
				"x": 2.7123769527,
				"y": 1.0995645669,
				"z": 0.9601278198,
				"element": "C" 
			},
			{
				"x": 3.0272570022,
				"y": -1.3989738655,
				"z": 0.109065431,
				"element": "O" 
			},
			{
				"x": 2.3941453625,
				"y": 0.4132371342,
				"z": -1.5689924285,
				"element": "O" 
			},
			{
				"x": 1.378939031,
				"y": -0.9474878581,
				"z": 2.9125592169,
				"element": "H" 
			},
			{
				"x": 1.7150199163,
				"y": -2.3418993398,
				"z": 1.8926567437,
				"element": "H" 
			},
			{
				"x": 0.3104820804,
				"y": -2.343989801,
				"z": 2.9825461066,
				"element": "H" 
			},
			{
				"x": 0.0810611676,
				"y": 0.5137299641,
				"z": -1.7741578792,
				"element": "H" 
			},
			{
				"x": -2.224289724,
				"y": 1.0029869091,
				"z": -2.4210994717,
				"element": "H" 
			},
			{
				"x": -3.5486711735,
				"y": 0.4616286904,
				"z": -1.5393649321,
				"element": "H" 
			},
			{
				"x": -3.3037321353,
				"y": -0.9603794561,
				"z": 0.4473556232,
				"element": "H" 
			},
			{
				"x": -1.7764368032,
				"y": -1.8205998921,
				"z": 2.1613847352,
				"element": "H" 
			},
			{
				"x": 2.1143305586,
				"y": 1.9893674607,
				"z": 0.7596495139,
				"element": "H" 
			},
			{
				"x": 2.5549043209,
				"y": 0.7379515552,
				"z": 1.9763352624,
				"element": "H" 
			},
			{
				"x": 3.7714409989,
				"y": 1.3066584968,
				"z": 0.792991628,
				"element": "H" 
			}
		],
		 "valence_orbital": [ 
			{
				"type": "occ",
				"energy": -0.3039,
				"method": "rhf"
			},
			{
				"type": "occ",
				"energy": -0.28804,
				"method": "rhf"
			},
			{
				"type": "occ",
				"energy": -0.28179,
				"method": "rhf"
			},
			{
				"type": "occ",
				"energy": -0.26457,
				"method": "rhf"
			},
			{
				"type": "occ",
				"energy": -0.21264,
				"method": "rhf"
			},
			{
				"type": "unocc",
				"energy": -0.03003,
				"method": "rhf"
			},
			{
				"type": "unocc",
				"energy": 0.00046,
				"method": "rhf"
			},
			{
				"type": "unocc",
				"energy": 0.07041,
				"method": "rhf"
			},
			{
				"type": "unocc",
				"energy": 0.07318,
				"method": "rhf"
			},
			{
				"type": "unocc",
				"energy": 0.07649,
				"method": "rhf"
			}
		],
		"cosmo_sigma_profile": { 
			"-0.025": 0.0,
			"-0.024": 0.0,
			"-0.023": 0.0,
			"-0.022": 0.0,
			"-0.021": 0.0,
			"-0.02": 0.0,
			"-0.019": 0.0,
			"-0.018": 0.0,
			"-0.017": 0.0,
			"-0.016": 0.0,
			"-0.015": 0.0,
			"-0.014": 0.0,
			"-0.013": 1.33088296612,
			"-0.012": 2.92416525838,
			"-0.011": 2.56875047268,
			"-0.01": 3.954045697,
			"-0.009": 4.39163178251,
			"-0.008": 8.74334320788,
			"-0.007": 8.73038627936,
			"-0.006": 12.3287684024,
			"-0.005": 12.7695007863,
			"-0.004": 15.3539308491,
			"-0.003": 12.4474402577,
			"-0.002": 11.1393762206,
			"-0.001": 11.5994220808,
			"0.0": 13.1921222051,
			"0.001": 9.81578554414,
			"0.002": 10.7734931496,
			"0.003": 10.9570868461,
			"0.004": 13.0835218697,
			"0.005": 8.55386017477,
			"0.006": 3.20119015399,
			"0.007": 3.41933221037,
			"0.008": 3.06507099961,
			"0.009": 3.95648105727,
			"0.01": 5.721544733,
			"0.011": 7.50750487157,
			"0.012": 9.2220966815,
			"0.013": 3.06006634704,
			"0.014": 0.247897858409,
			"0.015": 0.0,
			"0.016": 0.0,
			"0.017": 0.0,
			"0.018": 0.0,
			"0.019": 0.0,
			"0.02": 0.0,
			"0.021": 0.0,
			"0.022": 0.0,
			"0.023": 0.0,
			"0.024": 0.0,
			"0.025": 0.0
		}
	}
}
