{
	 "smiles": "COC(=O)C1=CC=C(N1)C=O", 
	 "Tm": 373.15, 
	 "num_atms": 18, 
	 "gaussian": { 
		 "optdone": 1, 
		 "sigma_profile": "yes", 
		 "theory": "DFT", 
		 "functional": "B3LYP", 
		 "basiset": "6-31G**", 
		 "properties": { 
			 "R2extent": 2486.2561, 
			 "electric_dipole_moment_norm": 3.74032382154, 
			 "electric_quadrupole_moment_norm": 12.4582109406, 
			 "total_energy": -551.386111446, 
			 "HOMO_LUMO_gap": 0.17242, 
			 "cosmo_polarized_energy": -10.94, 
			 "cosmo_cavitation_energy": 23.79, 
			 "cosmo_dispersion_energy": -17.18, 
			 "cosmo_repulsion_energy": 1.39, 
			 "cosmo_total_nonelectrostatic_energy": 8.01, 
			 "SMD_solvation_energy": 6.79 
		},
		"coords": [
			{
				"x": 0.4541023305,
				"y": 1.0934854665,
				"z": -3.8411290582,
				"element": "C" 
			},
			{
				"x": 0.0283913156,
				"y": 0.5001387666,
				"z": -2.6028682581,
				"element": "O" 
			},
			{
				"x": -0.0558340764,
				"y": 1.350480211,
				"z": -1.5606936085,
				"element": "C" 
			},
			{
				"x": 0.1998919242,
				"y": 2.540323346,
				"z": -1.619005059,
				"element": "O" 
			},
			{
				"x": -0.4953312748,
				"y": 0.6773436935,
				"z": -0.3338884369,
				"element": "C" 
			},
			{
				"x": -0.8355853677,
				"y": -0.6462738307,
				"z": -0.0445210588,
				"element": "C" 
			},
			{
				"x": -1.1815237432,
				"y": -0.6945634591,
				"z": 1.317231019,
				"element": "C" 
			},
			{
				"x": -1.0452490525,
				"y": 0.6000634996,
				"z": 1.8302834076,
				"element": "C" 
			},
			{
				"x": -0.62884649,
				"y": 1.4090076422,
				"z": 0.8089097093,
				"element": "N" 
			},
			{
				"x": -1.2652668484,
				"y": 1.1373026033,
				"z": 3.1632705819,
				"element": "C" 
			},
			{
				"x": -1.09672917,
				"y": 2.313958457,
				"z": 3.4481822055,
				"element": "O" 
			},
			{
				"x": -0.2437170071,
				"y": 1.8746285062,
				"z": -4.1527366964,
				"element": "H" 
			},
			{
				"x": 0.4677271637,
				"y": 0.2799283277,
				"z": -4.5657731889,
				"element": "H" 
			},
			{
				"x": 1.4498667734,
				"y": 1.5310355626,
				"z": -3.7351261835,
				"element": "H" 
			},
			{
				"x": -0.8258618037,
				"y": -1.4603892617,
				"z": -0.7538124105,
				"element": "H" 
			},
			{
				"x": -1.4968417693,
				"y": -1.5617904548,
				"z": 1.8810825587,
				"element": "H" 
			},
			{
				"x": -0.4476232638,
				"y": 2.4009085852,
				"z": 0.8907081434,
				"element": "H" 
			},
			{
				"x": -1.6017696406,
				"y": 0.3959123389,
				"z": 3.9163863334,
				"element": "H" 
			}
		],
		 "valence_orbital": [ 
			{
				"type": "occ",
				"energy": -0.31164,
				"method": "rhf"
			},
			{
				"type": "occ",
				"energy": -0.28823,
				"method": "rhf"
			},
			{
				"type": "occ",
				"energy": -0.27292,
				"method": "rhf"
			},
			{
				"type": "occ",
				"energy": -0.2623,
				"method": "rhf"
			},
			{
				"type": "occ",
				"energy": -0.24314,
				"method": "rhf"
			},
			{
				"type": "unocc",
				"energy": -0.07072,
				"method": "rhf"
			},
			{
				"type": "unocc",
				"energy": -0.01144,
				"method": "rhf"
			},
			{
				"type": "unocc",
				"energy": 0.09193,
				"method": "rhf"
			},
			{
				"type": "unocc",
				"energy": 0.09207,
				"method": "rhf"
			},
			{
				"type": "unocc",
				"energy": 0.10252,
				"method": "rhf"
			}
		],
		"cosmo_sigma_profile": { 
			"-0.025": 0.0,
			"-0.024": 0.0,
			"-0.023": 0.0,
			"-0.022": 0.0,
			"-0.021": 0.0,
			"-0.02": 0.0,
			"-0.019": 0.0,
			"-0.018": 0.0,
			"-0.017": 0.0,
			"-0.016": 0.0,
			"-0.015": 0.0,
			"-0.014": 0.31967469143,
			"-0.013": 0.809306156105,
			"-0.012": 0.167533786768,
			"-0.011": 0.737142207421,
			"-0.01": 0.708221216031,
			"-0.009": 1.03523063719,
			"-0.008": 3.04706680276,
			"-0.007": 9.48836097809,
			"-0.006": 12.5458233114,
			"-0.005": 13.4742275485,
			"-0.004": 14.7808756046,
			"-0.003": 17.6739893844,
			"-0.002": 14.1487837937,
			"-0.001": 12.1055298294,
			"0.0": 9.94344695518,
			"0.001": 14.0511259345,
			"0.002": 11.0707928588,
			"0.003": 9.43231607142,
			"0.004": 7.71052091891,
			"0.005": 5.58744571988,
			"0.006": 3.72057617679,
			"0.007": 2.49813689353,
			"0.008": 3.49505498567,
			"0.009": 3.59264528372,
			"0.01": 4.28909724538,
			"0.011": 7.42227208264,
			"0.012": 5.30756916215,
			"0.013": 1.18217945538,
			"0.014": 0.0311096443199,
			"0.015": 0.0,
			"0.016": 0.0,
			"0.017": 0.0,
			"0.018": 0.0,
			"0.019": 0.0,
			"0.02": 0.0,
			"0.021": 0.0,
			"0.022": 0.0,
			"0.023": 0.0,
			"0.024": 0.0,
			"0.025": 0.0
		}
	}
}
