{
	 "smiles": "CC1=NC(N)=C(C=C1)C#N", 
	 "Tm": 443.15, 
	 "num_atms": 17, 
	 "gaussian": { 
		 "optdone": 1, 
		 "sigma_profile": "yes", 
		 "theory": "DFT", 
		 "functional": "B3LYP", 
		 "basiset": "6-31G**", 
		 "properties": { 
			 "R2extent": 2530.8942, 
			 "electric_dipole_moment_norm": 3.33246067194, 
			 "electric_quadrupole_moment_norm": 18.380902075, 
			 "total_energy": -435.220591225, 
			 "HOMO_LUMO_gap": 0.17576, 
			 "cosmo_polarized_energy": -11.22, 
			 "cosmo_cavitation_energy": 22.13, 
			 "cosmo_dispersion_energy": -15.99, 
			 "cosmo_repulsion_energy": 1.31, 
			 "cosmo_total_nonelectrostatic_energy": 7.46, 
			 "SMD_solvation_energy": 3.87 
		},
		"coords": [
			{
				"x": -0.903146226,
				"y": 0.2646729051,
				"z": -0.9587962066,
				"element": "C" 
			},
			{
				"x": 0.2722374999,
				"y": -0.1272591269,
				"z": -0.1012960466,
				"element": "C" 
			},
			{
				"x": 1.4786080029,
				"y": -0.0082523016,
				"z": -0.6726928308,
				"element": "N" 
			},
			{
				"x": 2.5712577818,
				"y": -0.3415118465,
				"z": 0.0283411258,
				"element": "C" 
			},
			{
				"x": 3.767665958,
				"y": -0.2339309376,
				"z": -0.6122516178,
				"element": "N" 
			},
			{
				"x": 2.4922719549,
				"y": -0.8101569345,
				"z": 1.3741428505,
				"element": "C" 
			},
			{
				"x": 1.22434374,
				"y": -0.9255687003,
				"z": 1.9525040964,
				"element": "C" 
			},
			{
				"x": 0.0982541852,
				"y": -0.5854520568,
				"z": 1.213325176,
				"element": "C" 
			},
			{
				"x": 3.6851403517,
				"y": -1.1346503133,
				"z": 2.0820438634,
				"element": "C" 
			},
			{
				"x": 4.6946852701,
				"y": -1.3783600694,
				"z": 2.6112860559,
				"element": "N" 
			},
			{
				"x": -1.8498117824,
				"y": 0.159143112,
				"z": -0.4238833461,
				"element": "H" 
			},
			{
				"x": -0.7986893679,
				"y": 1.3025410783,
				"z": -1.2912727172,
				"element": "H" 
			},
			{
				"x": -0.9364557313,
				"y": -0.3565397178,
				"z": -1.8599185258,
				"element": "H" 
			},
			{
				"x": 4.6323693244,
				"y": -0.3114902366,
				"z": -0.1011063694,
				"element": "H" 
			},
			{
				"x": 3.7676978292,
				"y": 0.2264124599,
				"z": -1.5083300337,
				"element": "H" 
			},
			{
				"x": 1.1371227824,
				"y": -1.2790158935,
				"z": 2.9750228885,
				"element": "H" 
			},
			{
				"x": -0.894251573,
				"y": -0.6670814206,
				"z": 1.6412816373,
				"element": "H" 
			}
		],
		 "valence_orbital": [ 
			{
				"type": "occ",
				"energy": -0.33601,
				"method": "rhf"
			},
			{
				"type": "occ",
				"energy": -0.32783,
				"method": "rhf"
			},
			{
				"type": "occ",
				"energy": -0.28147,
				"method": "rhf"
			},
			{
				"type": "occ",
				"energy": -0.27059,
				"method": "rhf"
			},
			{
				"type": "occ",
				"energy": -0.22621,
				"method": "rhf"
			},
			{
				"type": "unocc",
				"energy": -0.05045,
				"method": "rhf"
			},
			{
				"type": "unocc",
				"energy": -0.00872,
				"method": "rhf"
			},
			{
				"type": "unocc",
				"energy": 0.03017,
				"method": "rhf"
			},
			{
				"type": "unocc",
				"energy": 0.07202,
				"method": "rhf"
			},
			{
				"type": "unocc",
				"energy": 0.08314,
				"method": "rhf"
			}
		],
		"cosmo_sigma_profile": { 
			"-0.025": 0.0,
			"-0.024": 0.0,
			"-0.023": 0.0,
			"-0.022": 0.0,
			"-0.021": 0.0,
			"-0.02": 0.0,
			"-0.019": 0.0,
			"-0.018": 0.0,
			"-0.017": 0.0,
			"-0.016": 0.0,
			"-0.015": 0.0,
			"-0.014": 0.833166178155,
			"-0.013": 1.92730357996,
			"-0.012": 2.01658871145,
			"-0.011": 1.90947071727,
			"-0.01": 2.01432266841,
			"-0.009": 2.17387994383,
			"-0.008": 3.69403919588,
			"-0.007": 4.99166439299,
			"-0.006": 7.70629711359,
			"-0.005": 10.4008092151,
			"-0.004": 10.3982560211,
			"-0.003": 10.8820985106,
			"-0.002": 10.7049136679,
			"-0.001": 17.3405507404,
			"0.0": 18.0913071816,
			"0.001": 13.2585592762,
			"0.002": 10.8836632065,
			"0.003": 7.74799580892,
			"0.004": 4.81008757448,
			"0.005": 4.19141425764,
			"0.006": 4.98730636043,
			"0.007": 3.57223208473,
			"0.008": 3.98741059021,
			"0.009": 4.24514982784,
			"0.01": 3.65391661092,
			"0.011": 4.16348871528,
			"0.012": 3.24367269442,
			"0.013": 2.85603490843,
			"0.014": 0.799276078766,
			"0.015": 0.0,
			"0.016": 0.0,
			"0.017": 0.0,
			"0.018": 0.0,
			"0.019": 0.0,
			"0.02": 0.0,
			"0.021": 0.0,
			"0.022": 0.0,
			"0.023": 0.0,
			"0.024": 0.0,
			"0.025": 0.0
		}
	}
}
