{
	 "smiles": "ClCC(=O)NC(=O)NC1CC1", 
	 "Tm": 379.15, 
	 "num_atms": 20, 
	 "gaussian": { 
		 "optdone": 1, 
		 "sigma_profile": "yes", 
		 "theory": "DFT", 
		 "functional": "B3LYP", 
		 "basiset": "6-31G**", 
		 "properties": { 
			 "R2extent": 3064.6061, 
			 "electric_dipole_moment_norm": 3.23023418501, 
			 "electric_quadrupole_moment_norm": 8.54489511229, 
			 "total_energy": -954.199967345, 
			 "HOMO_LUMO_gap": 0.21464, 
			 "cosmo_polarized_energy": -14.35, 
			 "cosmo_cavitation_energy": 26.02, 
			 "cosmo_dispersion_energy": -18.37, 
			 "cosmo_repulsion_energy": 1.51, 
			 "cosmo_total_nonelectrostatic_energy": 9.16, 
			 "SMD_solvation_energy": 5.42 
		},
		"coords": [
			{
				"x": 2.5841161044,
				"y": 2.6538946501,
				"z": 0.2653379432,
				"element": "Cl" 
			},
			{
				"x": 1.6580001374,
				"y": 2.2574495633,
				"z": -1.2509048739,
				"element": "C" 
			},
			{
				"x": 2.3841836828,
				"y": 1.2039993235,
				"z": -2.0812320798,
				"element": "C" 
			},
			{
				"x": 3.060639328,
				"y": 1.5386123525,
				"z": -3.037082416,
				"element": "O" 
			},
			{
				"x": 2.2452318243,
				"y": -0.1386486764,
				"z": -1.7592310528,
				"element": "N" 
			},
			{
				"x": 1.4024267139,
				"y": -0.891906971,
				"z": -0.8940987085,
				"element": "C" 
			},
			{
				"x": 1.1009946003,
				"y": -2.0293143173,
				"z": -1.2077911313,
				"element": "O" 
			},
			{
				"x": 0.9962863413,
				"y": -0.267989043,
				"z": 0.2583314968,
				"element": "N" 
			},
			{
				"x": 0.2230422996,
				"y": -1.0212412531,
				"z": 1.2141969988,
				"element": "C" 
			},
			{
				"x": -0.6609738098,
				"y": -0.2420193366,
				"z": 2.1506581797,
				"element": "C" 
			},
			{
				"x": -1.2713977226,
				"y": -1.0770064009,
				"z": 1.0511067214,
				"element": "C" 
			},
			{
				"x": 0.6616786533,
				"y": 1.9450995652,
				"z": -0.9402975077,
				"element": "H" 
			},
			{
				"x": 1.6254830749,
				"y": 3.1685741906,
				"z": -1.843447566,
				"element": "H" 
			},
			{
				"x": 2.6598275325,
				"y": -0.7371730502,
				"z": -2.4657696226,
				"element": "H" 
			},
			{
				"x": 1.6052456044,
				"y": 0.4489123672,
				"z": 0.6367494034,
				"element": "H" 
			},
			{
				"x": 0.7119711925,
				"y": -1.914973815,
				"z": 1.5963239879,
				"element": "H" 
			},
			{
				"x": -0.7374711687,
				"y": -0.5862364628,
				"z": 3.176941013,
				"element": "H" 
			},
			{
				"x": -0.6857846776,
				"y": 0.8375823413,
				"z": 2.0363512155,
				"element": "H" 
			},
			{
				"x": -1.6947498544,
				"y": -0.5566369568,
				"z": 0.1985275941,
				"element": "H" 
			},
			{
				"x": -1.7707498566,
				"y": -2.0043780704,
				"z": 1.3111304047,
				"element": "H" 
			}
		],
		 "valence_orbital": [ 
			{
				"type": "occ",
				"energy": -0.31223,
				"method": "rhf"
			},
			{
				"type": "occ",
				"energy": -0.30103,
				"method": "rhf"
			},
			{
				"type": "occ",
				"energy": -0.28503,
				"method": "rhf"
			},
			{
				"type": "occ",
				"energy": -0.27455,
				"method": "rhf"
			},
			{
				"type": "occ",
				"energy": -0.265,
				"method": "rhf"
			},
			{
				"type": "unocc",
				"energy": -0.05036,
				"method": "rhf"
			},
			{
				"type": "unocc",
				"energy": 0.01226,
				"method": "rhf"
			},
			{
				"type": "unocc",
				"energy": 0.05181,
				"method": "rhf"
			},
			{
				"type": "unocc",
				"energy": 0.08369,
				"method": "rhf"
			},
			{
				"type": "unocc",
				"energy": 0.0889,
				"method": "rhf"
			}
		],
		"cosmo_sigma_profile": { 
			"-0.025": 0.0,
			"-0.024": 0.0,
			"-0.023": 0.0,
			"-0.022": 0.0,
			"-0.021": 0.0,
			"-0.02": 0.0,
			"-0.019": 0.0,
			"-0.018": 0.0,
			"-0.017": 0.0,
			"-0.016": 0.0,
			"-0.015": 0.430528639899,
			"-0.014": 0.737090507387,
			"-0.013": 0.570776896141,
			"-0.012": 0.561019321919,
			"-0.011": 1.35418981666,
			"-0.01": 0.756901751921,
			"-0.009": 4.90985483302,
			"-0.008": 6.25265665376,
			"-0.007": 7.49256275883,
			"-0.006": 9.27562767021,
			"-0.005": 15.5257678706,
			"-0.004": 16.2204137915,
			"-0.003": 16.1040871602,
			"-0.002": 15.1287586635,
			"-0.001": 15.4373091721,
			"0.0": 15.1112176735,
			"0.001": 11.1498159047,
			"0.002": 10.6386857057,
			"0.003": 8.74670036838,
			"0.004": 10.1243248885,
			"0.005": 6.9469857059,
			"0.006": 2.40300465482,
			"0.007": 2.31875166705,
			"0.008": 2.98165670627,
			"0.009": 3.03086448204,
			"0.01": 4.30291106371,
			"0.011": 6.79522945186,
			"0.012": 7.848667162,
			"0.013": 4.70780855685,
			"0.014": 0.254232821088,
			"0.015": 0.0,
			"0.016": 0.0,
			"0.017": 0.0,
			"0.018": 0.0,
			"0.019": 0.0,
			"0.02": 0.0,
			"0.021": 0.0,
			"0.022": 0.0,
			"0.023": 0.0,
			"0.024": 0.0,
			"0.025": 0.0
		}
	}
}
