{
	 "smiles": "O=CC1=CN(N=C1C1=CC2=C(O1)C=CC=C2)C1=CC=CC=C1", 
	 "Tm": 450.15, 
	 "num_atms": 34, 
	 "gaussian": { 
		 "optdone": 1, 
		 "sigma_profile": "yes", 
		 "theory": "DFT", 
		 "functional": "B3LYP", 
		 "basiset": "6-31G**", 
		 "properties": { 
			 "R2extent": 9220.826, 
			 "electric_dipole_moment_norm": 5.00673012654, 
			 "electric_quadrupole_moment_norm": 25.2184129285, 
			 "total_energy": -953.061926909, 
			 "HOMO_LUMO_gap": 0.15227, 
			 "cosmo_polarized_energy": -16.1, 
			 "cosmo_cavitation_energy": 39.92, 
			 "cosmo_dispersion_energy": -28.73, 
			 "cosmo_repulsion_energy": 2.13, 
			 "cosmo_total_nonelectrostatic_energy": 13.32, 
			 "SMD_solvation_energy": 7.34 
		},
		"coords": [
			{
				"x": -0.5295030623,
				"y": 3.7153496428,
				"z": -1.1855803604,
				"element": "O" 
			},
			{
				"x": 0.1494279215,
				"y": 3.0626038603,
				"z": -1.9529990774,
				"element": "C" 
			},
			{
				"x": 0.5417332088,
				"y": 1.6557180793,
				"z": -1.8240675769,
				"element": "C" 
			},
			{
				"x": 1.2597461568,
				"y": 1.0059523825,
				"z": -2.8191085009,
				"element": "C" 
			},
			{
				"x": 1.4326935256,
				"y": -0.2791451912,
				"z": -2.4317159376,
				"element": "N" 
			},
			{
				"x": 0.8785780106,
				"y": -0.5177268004,
				"z": -1.2140795726,
				"element": "N" 
			},
			{
				"x": 0.3298622677,
				"y": 0.6366257756,
				"z": -0.8298732646,
				"element": "C" 
			},
			{
				"x": -0.3577811245,
				"y": 0.6650882469,
				"z": 0.448143828,
				"element": "C" 
			},
			{
				"x": -0.7189644732,
				"y": -0.3623005748,
				"z": 1.2760668393,
				"element": "C" 
			},
			{
				"x": -1.3547606375,
				"y": 0.2399882254,
				"z": 2.4131970769,
				"element": "C" 
			},
			{
				"x": -1.3214238887,
				"y": 1.6279747294,
				"z": 2.1661767976,
				"element": "C" 
			},
			{
				"x": -0.7133046681,
				"y": 1.8839559068,
				"z": 0.9717965079,
				"element": "O" 
			},
			{
				"x": -1.8437850894,
				"y": 2.5802470175,
				"z": 3.0337002719,
				"element": "C" 
			},
			{
				"x": -2.424175111,
				"y": 2.0969872912,
				"z": 4.2049099862,
				"element": "C" 
			},
			{
				"x": -2.4742275282,
				"y": 0.7158727175,
				"z": 4.483665538,
				"element": "C" 
			},
			{
				"x": -1.9471000029,
				"y": -0.221151223,
				"z": 3.6017885043,
				"element": "C" 
			},
			{
				"x": 2.1195964418,
				"y": -1.3205074189,
				"z": -3.1167204226,
				"element": "C" 
			},
			{
				"x": 2.6275434517,
				"y": -2.3997682292,
				"z": -2.3866813676,
				"element": "C" 
			},
			{
				"x": 3.3092123536,
				"y": -3.4145308727,
				"z": -3.0551067639,
				"element": "C" 
			},
			{
				"x": 3.4927697159,
				"y": -3.3569830531,
				"z": -4.4384731037,
				"element": "C" 
			},
			{
				"x": 2.977004475,
				"y": -2.2778467026,
				"z": -5.1579309723,
				"element": "C" 
			},
			{
				"x": 2.2820945283,
				"y": -1.2608260746,
				"z": -4.5047252235,
				"element": "C" 
			},
			{
				"x": 0.5435298425,
				"y": 3.5239957208,
				"z": -2.8887702211,
				"element": "H" 
			},
			{
				"x": 1.6623270372,
				"y": 1.3897362342,
				"z": -3.7442618936,
				"element": "H" 
			},
			{
				"x": -0.5502389692,
				"y": -1.4107066479,
				"z": 1.0809026156,
				"element": "H" 
			},
			{
				"x": -1.798177044,
				"y": 3.6380090846,
				"z": 2.7996361742,
				"element": "H" 
			},
			{
				"x": -2.8476689334,
				"y": 2.7989473321,
				"z": 4.9169263788,
				"element": "H" 
			},
			{
				"x": -2.9358399861,
				"y": 0.3803850072,
				"z": 5.4077301437,
				"element": "H" 
			},
			{
				"x": -1.9914213367,
				"y": -1.2828648365,
				"z": 3.8255248683,
				"element": "H" 
			},
			{
				"x": 2.4795650615,
				"y": -2.4269780194,
				"z": -1.314304824,
				"element": "H" 
			},
			{
				"x": 3.7041259343,
				"y": -4.2518908477,
				"z": -2.4877453198,
				"element": "H" 
			},
			{
				"x": 4.0280123108,
				"y": -4.1492669292,
				"z": -4.9524982038,
				"element": "H" 
			},
			{
				"x": 3.1010931227,
				"y": -2.2299150896,
				"z": -6.2354968939,
				"element": "H" 
			},
			{
				"x": 1.8523564887,
				"y": -0.4449287433,
				"z": -5.0761260305,
				"element": "H" 
			}
		],
		 "valence_orbital": [ 
			{
				"type": "occ",
				"energy": -0.2698,
				"method": "rhf"
			},
			{
				"type": "occ",
				"energy": -0.25025,
				"method": "rhf"
			},
			{
				"type": "occ",
				"energy": -0.24572,
				"method": "rhf"
			},
			{
				"type": "occ",
				"energy": -0.23092,
				"method": "rhf"
			},
			{
				"type": "occ",
				"energy": -0.20512,
				"method": "rhf"
			},
			{
				"type": "unocc",
				"energy": -0.05285,
				"method": "rhf"
			},
			{
				"type": "unocc",
				"energy": -0.04931,
				"method": "rhf"
			},
			{
				"type": "unocc",
				"energy": -0.02085,
				"method": "rhf"
			},
			{
				"type": "unocc",
				"energy": -0.00152,
				"method": "rhf"
			},
			{
				"type": "unocc",
				"energy": 0.01722,
				"method": "rhf"
			}
		],
		"cosmo_sigma_profile": { 
			"-0.025": 0.0,
			"-0.024": 0.0,
			"-0.023": 0.0,
			"-0.022": 0.0,
			"-0.021": 0.0,
			"-0.02": 0.0,
			"-0.019": 0.0,
			"-0.018": 0.0,
			"-0.017": 0.0,
			"-0.016": 0.0,
			"-0.015": 0.0,
			"-0.014": 0.0,
			"-0.013": 0.0,
			"-0.012": 0.188522094085,
			"-0.011": 2.52100462161,
			"-0.01": 2.97379745738,
			"-0.009": 2.94712697546,
			"-0.008": 3.42365697947,
			"-0.007": 8.40677018594,
			"-0.006": 19.4429806948,
			"-0.005": 23.7023000739,
			"-0.004": 23.1697037258,
			"-0.003": 19.9093455639,
			"-0.002": 19.8314879941,
			"-0.001": 21.0763306694,
			"0.0": 25.3032691709,
			"0.001": 25.8422639452,
			"0.002": 23.4645866254,
			"0.003": 28.4005896501,
			"0.004": 26.72491339,
			"0.005": 15.579994835,
			"0.006": 5.82781157517,
			"0.007": 3.45089706938,
			"0.008": 3.59230753467,
			"0.009": 2.41134154259,
			"0.01": 2.61885364964,
			"0.011": 3.48940128471,
			"0.012": 5.29323767739,
			"0.013": 3.1389913322,
			"0.014": 0.112536028887,
			"0.015": 0.0,
			"0.016": 0.0,
			"0.017": 0.0,
			"0.018": 0.0,
			"0.019": 0.0,
			"0.02": 0.0,
			"0.021": 0.0,
			"0.022": 0.0,
			"0.023": 0.0,
			"0.024": 0.0,
			"0.0": 0.0
		}
	}
}
