{
	 "smiles": "O=C1CCCC2=C1NC=C2", 
	 "Tm": 368.15, 
	 "num_atms": 19, 
	 "gaussian": { 
		 "optdone": 1, 
		 "sigma_profile": "yes", 
		 "theory": "DFT", 
		 "functional": "B3LYP", 
		 "basiset": "6-31G**", 
		 "properties": { 
			 "R2extent": 1646.2842, 
			 "electric_dipole_moment_norm": 2.60138986313, 
			 "electric_quadrupole_moment_norm": 14.9425057373, 
			 "total_energy": -440.259152983, 
			 "HOMO_LUMO_gap": 0.18809, 
			 "cosmo_polarized_energy": -9.78, 
			 "cosmo_cavitation_energy": 21.73, 
			 "cosmo_dispersion_energy": -16.54, 
			 "cosmo_repulsion_energy": 1.35, 
			 "cosmo_total_nonelectrostatic_energy": 6.53, 
			 "SMD_solvation_energy": 3.91 
		},
		"coords": [
			{
				"x": 0.9550902064,
				"y": -1.5087618774,
				"z": 2.6345706685,
				"element": "O" 
			},
			{
				"x": 0.588914249,
				"y": -0.8450431182,
				"z": 1.6676114698,
				"element": "C" 
			},
			{
				"x": -0.8813045578,
				"y": -0.5938996439,
				"z": 1.3286971015,
				"element": "C" 
			},
			{
				"x": -1.1163563809,
				"y": 0.7159701863,
				"z": 0.5506217649,
				"element": "C" 
			},
			{
				"x": -0.2551686863,
				"y": 0.8145973835,
				"z": -0.7263099749,
				"element": "C" 
			},
			{
				"x": 1.1790989814,
				"y": 0.5054766767,
				"z": -0.4028115583,
				"element": "C" 
			},
			{
				"x": 1.5081047592,
				"y": -0.2574959192,
				"z": 0.7146837385,
				"element": "C" 
			},
			{
				"x": 2.8778933395,
				"y": -0.3821023024,
				"z": 0.7637019282,
				"element": "N" 
			},
			{
				"x": 3.424322814,
				"y": 0.2791665275,
				"z": -0.2950911002,
				"element": "C" 
			},
			{
				"x": 2.3969189497,
				"y": 0.8423080667,
				"z": -1.0428092981,
				"element": "C" 
			},
			{
				"x": -1.4526903413,
				"y": -0.6189107372,
				"z": 2.2614287521,
				"element": "H" 
			},
			{
				"x": -1.2224345324,
				"y": -1.4506473885,
				"z": 0.7281560606,
				"element": "H" 
			},
			{
				"x": -2.1777598093,
				"y": 0.8075799515,
				"z": 0.2949460005,
				"element": "H" 
			},
			{
				"x": -0.8735180677,
				"y": 1.5637512378,
				"z": 1.2033965092,
				"element": "H" 
			},
			{
				"x": -0.3513263271,
				"y": 1.8110836931,
				"z": -1.1727178118,
				"element": "H" 
			},
			{
				"x": -0.6310433734,
				"y": 0.1052310503,
				"z": -1.4789841563,
				"element": "H" 
			},
			{
				"x": 3.3584039141,
				"y": -0.8932986389,
				"z": 1.4888589361,
				"element": "H" 
			},
			{
				"x": 4.4938625956,
				"y": 0.3124682282,
				"z": -0.4455199613,
				"element": "H" 
			},
			{
				"x": 2.5235922673,
				"y": 1.4330266243,
				"z": -1.9397290691,
				"element": "H" 
			}
		],
		 "valence_orbital": [ 
			{
				"type": "occ",
				"energy": -0.33525,
				"method": "rhf"
			},
			{
				"type": "occ",
				"energy": -0.3295,
				"method": "rhf"
			},
			{
				"type": "occ",
				"energy": -0.24691,
				"method": "rhf"
			},
			{
				"type": "occ",
				"energy": -0.23497,
				"method": "rhf"
			},
			{
				"type": "occ",
				"energy": -0.22077,
				"method": "rhf"
			},
			{
				"type": "unocc",
				"energy": -0.03268,
				"method": "rhf"
			},
			{
				"type": "unocc",
				"energy": 0.05546,
				"method": "rhf"
			},
			{
				"type": "unocc",
				"energy": 0.08474,
				"method": "rhf"
			},
			{
				"type": "unocc",
				"energy": 0.08934,
				"method": "rhf"
			},
			{
				"type": "unocc",
				"energy": 0.10922,
				"method": "rhf"
			}
		],
		"cosmo_sigma_profile": { 
			"-0.025": 0.0,
			"-0.024": 0.0,
			"-0.023": 0.0,
			"-0.022": 0.0,
			"-0.021": 0.0,
			"-0.02": 0.0,
			"-0.019": 0.0,
			"-0.018": 0.0,
			"-0.017": 0.0,
			"-0.016": 0.127135089392,
			"-0.015": 1.05005166564,
			"-0.014": 1.25900832764,
			"-0.013": 0.814314479433,
			"-0.012": 0.973645775031,
			"-0.011": 0.723205582898,
			"-0.01": 0.729636809146,
			"-0.009": 1.28892034913,
			"-0.008": 3.41402905958,
			"-0.007": 2.45084211066,
			"-0.006": 3.79782747537,
			"-0.005": 6.18176707823,
			"-0.004": 11.985670789,
			"-0.003": 19.2614418617,
			"-0.002": 21.1847410265,
			"-0.001": 21.1178544666,
			"0.0": 14.2908566956,
			"0.001": 7.53650863572,
			"0.002": 7.98881982274,
			"0.003": 6.65106808682,
			"0.004": 7.52806623689,
			"0.005": 7.06037797767,
			"0.006": 5.52575558116,
			"0.007": 2.09970255973,
			"0.008": 1.57832681325,
			"0.009": 1.39431984739,
			"0.01": 1.46846146604,
			"0.011": 1.44757607595,
			"0.012": 2.83075228662,
			"0.013": 4.69241014327,
			"0.014": 2.42697513006,
			"0.015": 0.711034422102,
			"0.016": 0.0,
			"0.017": 0.0,
			"0.018": 0.0,
			"0.019": 0.0,
			"0.02": 0.0,
			"0.021": 0.0,
			"0.022": 0.0,
			"0.023": 0.0,
			"0.024": 0.0,
			"0.025": 0.0
		}
	}
}
