{
	 "smiles": "OC(=O)C1CN(C(=O)C1)C1=CC2=C(C=C1)C1=C(C2)C=CC=C1", 
	 "Tm": 528.15, 
	 "num_atms": 37, 
	 "gaussian": { 
		 "optdone": 1, 
		 "sigma_profile": "yes", 
		 "theory": "DFT", 
		 "functional": "B3LYP", 
		 "basiset": "6-31G**", 
		 "properties": { 
			 "R2extent": 9476.9629, 
			 "electric_dipole_moment_norm": 3.19395648061, 
			 "electric_quadrupole_moment_norm": 18.0497668567, 
			 "total_energy": -975.429485468, 
			 "HOMO_LUMO_gap": 0.16858, 
			 "cosmo_polarized_energy": -18.24, 
			 "cosmo_cavitation_energy": 40.32, 
			 "cosmo_dispersion_energy": -29.37, 
			 "cosmo_repulsion_energy": 2.2, 
			 "cosmo_total_nonelectrostatic_energy": 13.15, 
			 "SMD_solvation_energy": 7.2 
		},
		"coords": [
			{
				"x": -3.4148336824,
				"y": -3.9385374864,
				"z": 3.1270431792,
				"element": "O" 
			},
			{
				"x": -2.4242680399,
				"y": -3.0171288151,
				"z": 3.1180407941,
				"element": "C" 
			},
			{
				"x": -1.2917737082,
				"y": -3.2712596246,
				"z": 3.4620792841,
				"element": "O" 
			},
			{
				"x": -2.9413683756,
				"y": -1.6548553591,
				"z": 2.6677594133,
				"element": "C" 
			},
			{
				"x": -1.789420922,
				"y": -0.6558610858,
				"z": 2.4650335511,
				"element": "C" 
			},
			{
				"x": -1.5365239182,
				"y": -0.6665155297,
				"z": 1.0191724685,
				"element": "N" 
			},
			{
				"x": -2.5737754597,
				"y": -1.2447456874,
				"z": 0.302038656,
				"element": "C" 
			},
			{
				"x": -2.6571111028,
				"y": -1.3643373642,
				"z": -0.9091659595,
				"element": "O" 
			},
			{
				"x": -3.6393870856,
				"y": -1.6985690229,
				"z": 1.2964529017,
				"element": "C" 
			},
			{
				"x": -0.3950116357,
				"y": -0.0252457434,
				"z": 0.4739113606,
				"element": "C" 
			},
			{
				"x": -0.0563620044,
				"y": -0.1623780549,
				"z": -0.8884308221,
				"element": "C" 
			},
			{
				"x": 1.0761490388,
				"y": 0.4810645848,
				"z": -1.3632142331,
				"element": "C" 
			},
			{
				"x": 1.8936591586,
				"y": 1.2623621463,
				"z": -0.5208377091,
				"element": "C" 
			},
			{
				"x": 1.5581485183,
				"y": 1.3967836073,
				"z": 0.8255438301,
				"element": "C" 
			},
			{
				"x": 0.4205545599,
				"y": 0.7569514088,
				"z": 1.3158417022,
				"element": "C" 
			},
			{
				"x": 3.0056709654,
				"y": 1.8047693774,
				"z": -1.3098905069,
				"element": "C" 
			},
			{
				"x": 2.8703890424,
				"y": 1.3550714188,
				"z": -2.6413412146,
				"element": "C" 
			},
			{
				"x": 1.6371826791,
				"y": 0.4832194223,
				"z": -2.7719012313,
				"element": "C" 
			},
			{
				"x": 3.799154585,
				"y": 1.7252137183,
				"z": -3.6072930305,
				"element": "C" 
			},
			{
				"x": 4.869486243,
				"y": 2.5499907371,
				"z": -3.2411853586,
				"element": "C" 
			},
			{
				"x": 5.0041727528,
				"y": 2.9961432476,
				"z": -1.9217392361,
				"element": "C" 
			},
			{
				"x": 4.0747575225,
				"y": 2.627669407,
				"z": -0.9466413252,
				"element": "C" 
			},
			{
				"x": -3.0152660434,
				"y": -4.7679892214,
				"z": 3.4391152572,
				"element": "H" 
			},
			{
				"x": -3.6254043664,
				"y": -1.3169868188,
				"z": 3.4534452091,
				"element": "H" 
			},
			{
				"x": -0.8994433448,
				"y": -0.9728836924,
				"z": 3.0126894165,
				"element": "H" 
			},
			{
				"x": -2.074251529,
				"y": 0.3497521732,
				"z": 2.8006872081,
				"element": "H" 
			},
			{
				"x": -4.0273565593,
				"y": -2.6798765388,
				"z": 1.0212366782,
				"element": "H" 
			},
			{
				"x": -4.47476944,
				"y": -0.9910662911,
				"z": 1.2492944287,
				"element": "H" 
			},
			{
				"x": -0.6865996982,
				"y": -0.7537891642,
				"z": -1.5372469734,
				"element": "H" 
			},
			{
				"x": 2.1674518846,
				"y": 1.9929291122,
				"z": 1.4991144811,
				"element": "H" 
			},
			{
				"x": 0.170476078,
				"y": 0.8769210576,
				"z": 2.3628205271,
				"element": "H" 
			},
			{
				"x": 0.9190780666,
				"y": 0.8897874489,
				"z": -3.4963149426,
				"element": "H" 
			},
			{
				"x": 1.8832229069,
				"y": -0.5301860653,
				"z": -3.1157723292,
				"element": "H" 
			},
			{
				"x": 3.7000329347,
				"y": 1.3817121087,
				"z": -4.6340206487,
				"element": "H" 
			},
			{
				"x": 5.6014870703,
				"y": 2.8459898477,
				"z": -3.9872032903,
				"element": "H" 
			},
			{
				"x": 5.840507445,
				"y": 3.635571832,
				"z": -1.6534249326,
				"element": "H" 
			},
			{
				"x": 4.1858454639,
				"y": 2.9775089096,
				"z": 0.076203397,
				"element": "H" 
			}
		],
		 "valence_orbital": [ 
			{
				"type": "occ",
				"energy": -0.25405,
				"method": "rhf"
			},
			{
				"type": "occ",
				"energy": -0.25204,
				"method": "rhf"
			},
			{
				"type": "occ",
				"energy": -0.24519,
				"method": "rhf"
			},
			{
				"type": "occ",
				"energy": -0.2377,
				"method": "rhf"
			},
			{
				"type": "occ",
				"energy": -0.1982,
				"method": "rhf"
			},
			{
				"type": "unocc",
				"energy": -0.02962,
				"method": "rhf"
			},
			{
				"type": "unocc",
				"energy": -0.00942,
				"method": "rhf"
			},
			{
				"type": "unocc",
				"energy": -0.00643,
				"method": "rhf"
			},
			{
				"type": "unocc",
				"energy": 0.01224,
				"method": "rhf"
			},
			{
				"type": "unocc",
				"energy": 0.01859,
				"method": "rhf"
			}
		],
		"cosmo_sigma_profile": { 
			"-0.025": 0.0,
			"-0.024": 0.0,
			"-0.023": 0.0,
			"-0.022": 0.0,
			"-0.021": 0.0,
			"-0.02": 0.0,
			"-0.019": 0.156836606002,
			"-0.018": 1.12374598856,
			"-0.017": 0.482585520195,
			"-0.016": 1.17543020955,
			"-0.015": 0.757412170983,
			"-0.014": 0.577942552491,
			"-0.013": 0.65844413829,
			"-0.012": 0.621911970736,
			"-0.011": 0.789101620036,
			"-0.01": 1.05718284117,
			"-0.009": 0.565928683287,
			"-0.008": 3.18134360675,
			"-0.007": 9.90119720032,
			"-0.006": 22.5105525108,
			"-0.005": 28.3908553905,
			"-0.004": 24.2623693348,
			"-0.003": 26.7730398063,
			"-0.002": 21.594682741,
			"-0.001": 17.2053236165,
			"0.0": 15.2071435824,
			"0.001": 17.181282539,
			"0.002": 17.6089024642,
			"0.003": 19.2872779135,
			"0.004": 22.7496530425,
			"0.005": 21.233940568,
			"0.006": 14.1646564448,
			"0.007": 5.10100699851,
			"0.008": 4.70204702539,
			"0.009": 3.41290582974,
			"0.01": 4.06159136185,
			"0.011": 6.29386643119,
			"0.012": 4.53304557219,
			"0.013": 3.07067520361,
			"0.014": 1.11114145734,
			"0.015": 0.0154261673246,
			"0.016": 0.0,
			"0.017": 0.0,
			"0.018": 0.0,
			"0.019": 0.0,
			"0.02": 0.0,
			"0.021": 0.0,
			"0.022": 0.0,
			"0.023": 0.0,
			"0.024": 0.0,
			"0.025": 0.0
		}
	}
}
