{
	 "smiles": "COC1=CC2=C(C=C1)C=C(CO)C=C2", 
	 "Tm": 396.15, 
	 "num_atms": 26, 
	 "gaussian": { 
		 "optdone": 1, 
		 "sigma_profile": "yes", 
		 "theory": "DFT", 
		 "functional": "B3LYP", 
		 "basiset": "6-31G**", 
		 "properties": { 
			 "R2extent": 4143.0494, 
			 "electric_dipole_moment_norm": 1.95542669001, 
			 "electric_quadrupole_moment_norm": 13.7653038161, 
			 "total_energy": -614.948290295, 
			 "HOMO_LUMO_gap": 0.17211, 
			 "cosmo_polarized_energy": -10.16, 
			 "cosmo_cavitation_energy": 29.44, 
			 "cosmo_dispersion_energy": -21.76, 
			 "cosmo_repulsion_energy": 1.7, 
			 "cosmo_total_nonelectrostatic_energy": 9.38, 
			 "SMD_solvation_energy": 5.51 
		},
		"coords": [
			{
				"x": -1.5574639224,
				"y": 3.5617698753,
				"z": 1.1338985371,
				"element": "C" 
			},
			{
				"x": -2.2338885152,
				"y": 2.3642709698,
				"z": 0.7868659347,
				"element": "O" 
			},
			{
				"x": -1.5112276088,
				"y": 1.2078483058,
				"z": 0.7515295239,
				"element": "C" 
			},
			{
				"x": -0.1625056101,
				"y": 1.1017567572,
				"z": 1.0299461796,
				"element": "C" 
			},
			{
				"x": 0.4855984085,
				"y": -0.16232534,
				"z": 0.9590467456,
				"element": "C" 
			},
			{
				"x": -0.266291662,
				"y": -1.3248239094,
				"z": 0.5979182078,
				"element": "C" 
			},
			{
				"x": -1.6542085499,
				"y": -1.1731426715,
				"z": 0.3213095582,
				"element": "C" 
			},
			{
				"x": -2.262311224,
				"y": 0.0536837382,
				"z": 0.3935817302,
				"element": "C" 
			},
			{
				"x": 0.3894755085,
				"y": -2.581417178,
				"z": 0.5341272351,
				"element": "C" 
			},
			{
				"x": 1.7375693848,
				"y": -2.707749267,
				"z": 0.8022349844,
				"element": "C" 
			},
			{
				"x": 2.4425936027,
				"y": -4.0438321478,
				"z": 0.704102503,
				"element": "C" 
			},
			{
				"x": 3.3493940383,
				"y": -4.2827460901,
				"z": 1.7756759485,
				"element": "O" 
			},
			{
				"x": 2.4770785145,
				"y": -1.5498088363,
				"z": 1.1660411097,
				"element": "C" 
			},
			{
				"x": 1.8704408388,
				"y": -0.3174091984,
				"z": 1.2418731979,
				"element": "C" 
			},
			{
				"x": -0.7550852437,
				"y": 3.7927394861,
				"z": 0.4212782657,
				"element": "H" 
			},
			{
				"x": -2.3072113666,
				"y": 4.353741179,
				"z": 1.101401054,
				"element": "H" 
			},
			{
				"x": -1.1322772929,
				"y": 3.5065080097,
				"z": 2.1444447454,
				"element": "H" 
			},
			{
				"x": 0.4266636488,
				"y": 1.9690772022,
				"z": 1.3054825713,
				"element": "H" 
			},
			{
				"x": -2.2340856002,
				"y": -2.0506556858,
				"z": 0.046891468,
				"element": "H" 
			},
			{
				"x": -3.3192694188,
				"y": 0.1796731089,
				"z": 0.1827916793,
				"element": "H" 
			},
			{
				"x": -0.1951526136,
				"y": -3.4595592037,
				"z": 0.2653814905,
				"element": "H" 
			},
			{
				"x": 3.0617448876,
				"y": -4.0820324736,
				"z": -0.2004096769,
				"element": "H" 
			},
			{
				"x": 1.6971299929,
				"y": -4.8498554424,
				"z": 0.6156572627,
				"element": "H" 
			},
			{
				"x": 2.8520412926,
				"y": -4.1868524328,
				"z": 2.5989696952,
				"element": "H" 
			},
			{
				"x": 3.5329515669,
				"y": -1.6594199737,
				"z": 1.3950811042,
				"element": "H" 
			},
			{
				"x": 2.4489969434,
				"y": 0.5597612186,
				"z": 1.5214789449,
				"element": "H" 
			}
		],
		 "valence_orbital": [ 
			{
				"type": "occ",
				"energy": -0.2986,
				"method": "rhf"
			},
			{
				"type": "occ",
				"energy": -0.27994,
				"method": "rhf"
			},
			{
				"type": "occ",
				"energy": -0.267,
				"method": "rhf"
			},
			{
				"type": "occ",
				"energy": -0.22747,
				"method": "rhf"
			},
			{
				"type": "occ",
				"energy": -0.20559,
				"method": "rhf"
			},
			{
				"type": "unocc",
				"energy": -0.03348,
				"method": "rhf"
			},
			{
				"type": "unocc",
				"energy": -0.0052,
				"method": "rhf"
			},
			{
				"type": "unocc",
				"energy": 0.03478,
				"method": "rhf"
			},
			{
				"type": "unocc",
				"energy": 0.0856,
				"method": "rhf"
			},
			{
				"type": "unocc",
				"energy": 0.09612,
				"method": "rhf"
			}
		],
		"cosmo_sigma_profile": { 
			"-0.025": 0.0,
			"-0.024": 0.0,
			"-0.023": 0.0,
			"-0.022": 0.0,
			"-0.021": 0.0,
			"-0.02": 0.0,
			"-0.019": 0.0,
			"-0.018": 0.0,
			"-0.017": 0.0,
			"-0.016": 0.113591111856,
			"-0.015": 0.72724247663,
			"-0.014": 0.812102421262,
			"-0.013": 1.17029165683,
			"-0.012": 0.535521491624,
			"-0.011": 1.17269539518,
			"-0.01": 0.468664920774,
			"-0.009": 0.479330474742,
			"-0.008": 0.746019760197,
			"-0.007": 1.25709056072,
			"-0.006": 11.4187239868,
			"-0.005": 23.8653931043,
			"-0.004": 23.6629684062,
			"-0.003": 22.5304044546,
			"-0.002": 16.2930075767,
			"-0.001": 14.1542755811,
			"0.0": 10.71311522,
			"0.001": 11.3233540076,
			"0.002": 11.4478856736,
			"0.003": 15.0191149156,
			"0.004": 23.3560482603,
			"0.005": 20.41011663,
			"0.006": 5.28903978198,
			"0.007": 2.50104626193,
			"0.008": 2.15325734249,
			"0.009": 2.92936451306,
			"0.01": 2.25338935702,
			"0.011": 1.34397820817,
			"0.012": 1.37890453521,
			"0.013": 1.91597550606,
			"0.014": 1.78735876994,
			"0.015": 0.342067759662,
			"0.016": 0.0,
			"0.017": 0.0,
			"0.018": 0.0,
			"0.019": 0.0,
			"0.02": 0.0,
			"0.021": 0.0,
			"0.022": 0.0,
			"0.023": 0.0,
			"0.024": 0.0,
			"0.025": 0.0
		}
	}
}
