{
	 "smiles": "COC(=O)C1CNNC(=O)C1", 
	 "Tm": 393.15, 
	 "num_atms": 21, 
	 "gaussian": { 
		 "optdone": 1, 
		 "sigma_profile": "yes", 
		 "theory": "DFT", 
		 "functional": "B3LYP", 
		 "basiset": "6-31G**", 
		 "properties": { 
			 "R2extent": 1886.781, 
			 "electric_dipole_moment_norm": 2.14015535417, 
			 "electric_quadrupole_moment_norm": 21.5307802875, 
			 "total_energy": -569.815513228, 
			 "HOMO_LUMO_gap": 0.21859, 
			 "cosmo_polarized_energy": -17.89, 
			 "cosmo_cavitation_energy": 24.22, 
			 "cosmo_dispersion_energy": -17.56, 
			 "cosmo_repulsion_energy": 1.44, 
			 "cosmo_total_nonelectrostatic_energy": 8.1, 
			 "SMD_solvation_energy": 5.34 
		},
		"coords": [
			{
				"x": -1.5623755185,
				"y": -1.6063635001,
				"z": -0.2321622054,
				"element": "C" 
			},
			{
				"x": -0.5659637804,
				"y": -0.8340027424,
				"z": 0.4605028446,
				"element": "O" 
			},
			{
				"x": 0.6189276059,
				"y": -0.7208047965,
				"z": -0.1678762406,
				"element": "C" 
			},
			{
				"x": 0.8735385724,
				"y": -1.2456700771,
				"z": -1.2305939795,
				"element": "O" 
			},
			{
				"x": 1.6156820432,
				"y": 0.1492518518,
				"z": 0.5964560551,
				"element": "C" 
			},
			{
				"x": 1.9305292771,
				"y": 1.3844264538,
				"z": -0.258203183,
				"element": "C" 
			},
			{
				"x": 0.7016985106,
				"y": 2.170227339,
				"z": -0.4144858494,
				"element": "N" 
			},
			{
				"x": 0.2336173417,
				"y": 2.6166868113,
				"z": 0.8879034751,
				"element": "N" 
			},
			{
				"x": 0.16631395,
				"y": 1.7622973039,
				"z": 1.971527131,
				"element": "C" 
			},
			{
				"x": -0.5951074276,
				"y": 1.993068526,
				"z": 2.8994061118,
				"element": "O" 
			},
			{
				"x": 1.1625783031,
				"y": 0.6095462954,
				"z": 1.9908920288,
				"element": "C" 
			},
			{
				"x": -2.4439916782,
				"y": -1.5889027742,
				"z": 0.4077057394,
				"element": "H" 
			},
			{
				"x": -1.7807911547,
				"y": -1.1585846524,
				"z": -1.204422425,
				"element": "H" 
			},
			{
				"x": -1.2144460181,
				"y": -2.6309419473,
				"z": -0.3839331422,
				"element": "H" 
			},
			{
				"x": 2.5279760243,
				"y": -0.4519222643,
				"z": 0.6783440287,
				"element": "H" 
			},
			{
				"x": 2.2470044614,
				"y": 1.0819678578,
				"z": -1.2592930861,
				"element": "H" 
			},
			{
				"x": 2.7444269402,
				"y": 1.9523931112,
				"z": 0.2216724462,
				"element": "H" 
			},
			{
				"x": 0.9533102033,
				"y": 3.0311699964,
				"z": -0.8988204088,
				"element": "H" 
			},
			{
				"x": -0.6049201889,
				"y": 3.1816543672,
				"z": 0.8067823341,
				"element": "H" 
			},
			{
				"x": 2.0388114017,
				"y": 0.954424228,
				"z": 2.5537830141,
				"element": "H" 
			},
			{
				"x": 0.7065811315,
				"y": -0.1957213873,
				"z": 2.5678153109,
				"element": "H" 
			}
		],
		 "valence_orbital": [ 
			{
				"type": "occ",
				"energy": -0.3197,
				"method": "rhf"
			},
			{
				"type": "occ",
				"energy": -0.30429,
				"method": "rhf"
			},
			{
				"type": "occ",
				"energy": -0.27311,
				"method": "rhf"
			},
			{
				"type": "occ",
				"energy": -0.24734,
				"method": "rhf"
			},
			{
				"type": "occ",
				"energy": -0.21711,
				"method": "rhf"
			},
			{
				"type": "unocc",
				"energy": 0.00148,
				"method": "rhf"
			},
			{
				"type": "unocc",
				"energy": 0.02486,
				"method": "rhf"
			},
			{
				"type": "unocc",
				"energy": 0.06676,
				"method": "rhf"
			},
			{
				"type": "unocc",
				"energy": 0.09815,
				"method": "rhf"
			},
			{
				"type": "unocc",
				"energy": 0.11236,
				"method": "rhf"
			}
		],
		"cosmo_sigma_profile": { 
			"-0.025": 0.0,
			"-0.024": 0.0,
			"-0.023": 0.0,
			"-0.022": 0.0,
			"-0.021": 0.0,
			"-0.02": 0.0,
			"-0.019": 0.0,
			"-0.018": 0.0,
			"-0.017": 0.0,
			"-0.016": 0.0,
			"-0.015": 0.0434232270885,
			"-0.014": 0.990069645961,
			"-0.013": 2.80456589638,
			"-0.012": 3.2965866812,
			"-0.011": 1.51786203925,
			"-0.01": 2.36131027453,
			"-0.009": 1.67611993183,
			"-0.008": 1.80048683331,
			"-0.007": 6.09157501356,
			"-0.006": 17.6991574359,
			"-0.005": 19.1983635969,
			"-0.004": 19.324919967,
			"-0.003": 16.3672602245,
			"-0.002": 10.6722418782,
			"-0.001": 6.0483163504,
			"0.0": 5.88798700552,
			"0.001": 4.91848567045,
			"0.002": 5.17041458413,
			"0.003": 5.72152043938,
			"0.004": 5.86584637399,
			"0.005": 6.30475650076,
			"0.006": 5.98297086921,
			"0.007": 4.41473786804,
			"0.008": 4.36763673673,
			"0.009": 2.97058346508,
			"0.01": 4.07258639849,
			"0.011": 4.43019508544,
			"0.012": 7.30244172063,
			"0.013": 5.56439397673,
			"0.014": 5.4607085042,
			"0.015": 1.10717726818,
			"0.016": 0.0,
			"0.017": 0.0,
			"0.018": 0.0,
			"0.019": 0.0,
			"0.02": 0.0,
			"0.021": 0.0,
			"0.022": 0.0,
			"0.023": 0.0,
			"0.024": 0.0,
			"0.025": 0.0
		}
	}
}
