{
	 "smiles": "CC1=C(NS(=O)(=O)C2=CC=C(F)C=C2)C=C(C=C1)C(O)=O", 
	 "Tm": 508.15, 
	 "num_atms": 33, 
	 "gaussian": { 
		 "optdone": 1, 
		 "sigma_profile": "yes", 
		 "theory": "DFT", 
		 "functional": "B3LYP", 
		 "basiset": "6-31G**", 
		 "properties": { 
			 "R2extent": 7035.4624, 
			 "electric_dipole_moment_norm": 6.96337240495, 
			 "electric_quadrupole_moment_norm": 20.16867074, 
			 "total_energy": -1394.33649518, 
			 "HOMO_LUMO_gap": 0.19152, 
			 "cosmo_polarized_energy": -23.88, 
			 "cosmo_cavitation_energy": 39.98, 
			 "cosmo_dispersion_energy": -27.13, 
			 "cosmo_repulsion_energy": 2.0, 
			 "cosmo_total_nonelectrostatic_energy": 14.85, 
			 "SMD_solvation_energy": 7.48 
		},
		"coords": [
			{
				"x": -0.9169754419,
				"y": 2.0952689878,
				"z": 2.5879647825,
				"element": "C" 
			},
			{
				"x": 0.0095368073,
				"y": 2.2246195907,
				"z": 1.4035310076,
				"element": "C" 
			},
			{
				"x": 0.950971055,
				"y": 1.2205391158,
				"z": 1.0956081598,
				"element": "C" 
			},
			{
				"x": 1.0780097787,
				"y": 0.0680436771,
				"z": 1.9197786229,
				"element": "N" 
			},
			{
				"x": 0.8534439461,
				"y": -1.5123729312,
				"z": 1.3326615313,
				"element": "S" 
			},
			{
				"x": 1.6698205963,
				"y": -1.634313232,
				"z": 0.1244870748,
				"element": "O" 
			},
			{
				"x": 1.0459703306,
				"y": -2.3565341182,
				"z": 2.5104308858,
				"element": "O" 
			},
			{
				"x": -0.863742792,
				"y": -1.64209539,
				"z": 0.8341812999,
				"element": "C" 
			},
			{
				"x": -1.2434516088,
				"y": -1.2441379945,
				"z": -0.4517440865,
				"element": "C" 
			},
			{
				"x": -2.583864312,
				"y": -1.3193153173,
				"z": -0.8231869104,
				"element": "C" 
			},
			{
				"x": -3.5090912854,
				"y": -1.795704304,
				"z": 0.1017274216,
				"element": "C" 
			},
			{
				"x": -4.8016343332,
				"y": -1.870732707,
				"z": -0.2558174167,
				"element": "F" 
			},
			{
				"x": -3.1429051308,
				"y": -2.2057998169,
				"z": 1.3813415288,
				"element": "C" 
			},
			{
				"x": -1.8023963808,
				"y": -2.126667865,
				"z": 1.7511594399,
				"element": "C" 
			},
			{
				"x": 1.8099681846,
				"y": 1.3625487132,
				"z": 0.0002720616,
				"element": "C" 
			},
			{
				"x": 1.7189199606,
				"y": 2.4809130828,
				"z": -0.832876109,
				"element": "C" 
			},
			{
				"x": 0.8030410259,
				"y": 3.4933576361,
				"z": -0.5229697691,
				"element": "C" 
			},
			{
				"x": -0.0292660455,
				"y": 3.3600100287,
				"z": 0.583022962,
				"element": "C" 
			},
			{
				"x": 2.5981327621,
				"y": 2.6716872604,
				"z": -2.0338912024,
				"element": "C" 
			},
			{
				"x": 3.2260541642,
				"y": 1.5702100591,
				"z": -2.519042373,
				"element": "O" 
			},
			{
				"x": 2.7534369636,
				"y": 3.7433370019,
				"z": -2.5718438715,
				"element": "O" 
			},
			{
				"x": -1.6347364027,
				"y": 2.9181991613,
				"z": 2.6091802277,
				"element": "H" 
			},
			{
				"x": -0.3713532637,
				"y": 2.1202152545,
				"z": 3.5407488432,
				"element": "H" 
			},
			{
				"x": -1.4844107993,
				"y": 1.158005698,
				"z": 2.5589580221,
				"element": "H" 
			},
			{
				"x": 0.6994192709,
				"y": 0.1412176742,
				"z": 2.8576389349,
				"element": "H" 
			},
			{
				"x": -0.4954815772,
				"y": -0.8996003206,
				"z": -1.1561200804,
				"element": "H" 
			},
			{
				"x": -2.9169048879,
				"y": -1.0252020209,
				"z": -1.8121985588,
				"element": "H" 
			},
			{
				"x": -3.8987376329,
				"y": -2.5864397973,
				"z": 2.0592111476,
				"element": "H" 
			},
			{
				"x": -1.4767398701,
				"y": -2.4590554151,
				"z": 2.730785926,
				"element": "H" 
			},
			{
				"x": 2.5567232844,
				"y": 0.5915453825,
				"z": -0.1501417021,
				"element": "H" 
			},
			{
				"x": 0.7630203794,
				"y": 4.3713493802,
				"z": -1.1578640343,
				"element": "H" 
			},
			{
				"x": -0.7409468324,
				"y": 4.1475195623,
				"z": 0.8152981784,
				"element": "H" 
			},
			{
				"x": 2.9080700872,
				"y": 0.7695839635,
				"z": -2.0780919443,
				"element": "H" 
			}
		],
		 "valence_orbital": [ 
			{
				"type": "occ",
				"energy": -0.29484,
				"method": "rhf"
			},
			{
				"type": "occ",
				"energy": -0.28127,
				"method": "rhf"
			},
			{
				"type": "occ",
				"energy": -0.27728,
				"method": "rhf"
			},
			{
				"type": "occ",
				"energy": -0.26949,
				"method": "rhf"
			},
			{
				"type": "occ",
				"energy": -0.25049,
				"method": "rhf"
			},
			{
				"type": "unocc",
				"energy": -0.05897,
				"method": "rhf"
			},
			{
				"type": "unocc",
				"energy": -0.05136,
				"method": "rhf"
			},
			{
				"type": "unocc",
				"energy": -0.04485,
				"method": "rhf"
			},
			{
				"type": "unocc",
				"energy": -0.02931,
				"method": "rhf"
			},
			{
				"type": "unocc",
				"energy": 0.03652,
				"method": "rhf"
			}
		],
		"cosmo_sigma_profile": { 
			"-0.025": 0.0,
			"-0.024": 0.0,
			"-0.023": 0.0,
			"-0.022": 0.0,
			"-0.021": 0.0,
			"-0.02": 0.0,
			"-0.019": 0.0,
			"-0.018": 0.0,
			"-0.017": 0.00954352974247,
			"-0.016": 0.53017302906,
			"-0.015": 1.4473275486,
			"-0.014": 1.99334641833,
			"-0.013": 1.65115314529,
			"-0.012": 3.7856917063,
			"-0.011": 2.94784319416,
			"-0.01": 2.05814977218,
			"-0.009": 2.97268141879,
			"-0.008": 8.54936166384,
			"-0.007": 11.1373668768,
			"-0.006": 15.9526353021,
			"-0.005": 16.5174108487,
			"-0.004": 16.5960686603,
			"-0.003": 19.0096888415,
			"-0.002": 21.579959003,
			"-0.001": 26.8355794996,
			"0.0": 26.0884969377,
			"0.001": 26.9288256454,
			"0.002": 20.6409746917,
			"0.003": 20.7979818368,
			"0.004": 11.8140178174,
			"0.005": 5.48985472463,
			"0.006": 5.72923773295,
			"0.007": 6.60619294093,
			"0.008": 5.36260317546,
			"0.009": 7.85232810635,
			"0.01": 11.7838596677,
			"0.011": 10.894090923,
			"0.012": 5.30534288837,
			"0.013": 1.58399930548,
			"0.014": 0.0452361548903,
			"0.015": 0.0,
			"0.016": 0.0,
			"0.017": 0.0,
			"0.018": 0.0,
			"0.019": 0.0,
			"0.02": 0.0,
			"0.021": 0.0,
			"0.022": 0.0,
			"0.023": 0.0,
			"0.024": 0.0,
			"0.0": 0.0
		}
	}
}
