{
	 "smiles": "ClC1=C(C=C2OCCCOC2=C1)S(Cl)(=O)=O", 
	 "Tm": 366.15, 
	 "num_atms": 24, 
	 "gaussian": { 
		 "optdone": 1, 
		 "sigma_profile": "yes", 
		 "theory": "DFT", 
		 "functional": "B3LYP", 
		 "basiset": "6-31G**", 
		 "properties": { 
			 "R2extent": 9981.1403, 
			 "electric_dipole_moment_norm": 7.97813921726, 
			 "electric_quadrupole_moment_norm": 26.2807719833, 
			 "total_energy": -1967.14506361, 
			 "HOMO_LUMO_gap": 0.1674, 
			 "cosmo_polarized_energy": -12.32, 
			 "cosmo_cavitation_energy": 32.36, 
			 "cosmo_dispersion_energy": -24.65, 
			 "cosmo_repulsion_energy": 1.87, 
			 "cosmo_total_nonelectrostatic_energy": 9.58, 
			 "SMD_solvation_energy": 4.13 
		},
		"coords": [
			{
				"x": 4.2929334236,
				"y": -1.3974926389,
				"z": -3.3008644264,
				"element": "Cl" 
			},
			{
				"x": 2.8451814702,
				"y": -1.3641337809,
				"z": -2.3324032506,
				"element": "C" 
			},
			{
				"x": 1.619026395,
				"y": -1.8965535451,
				"z": -2.7631510868,
				"element": "C" 
			},
			{
				"x": 0.4928588586,
				"y": -1.8127234879,
				"z": -1.9419965476,
				"element": "C" 
			},
			{
				"x": 0.553955858,
				"y": -1.2063826898,
				"z": -0.6881071506,
				"element": "C" 
			},
			{
				"x": -0.6230764936,
				"y": -1.0758199814,
				"z": -0.0066341466,
				"element": "O" 
			},
			{
				"x": -0.6899428026,
				"y": -1.5525835152,
				"z": 1.3445530496,
				"element": "C" 
			},
			{
				"x": 0.0206371752,
				"y": -0.6368566892,
				"z": 2.3324414924,
				"element": "C" 
			},
			{
				"x": 1.5322811626,
				"y": -0.6155183826,
				"z": 2.1507574843,
				"element": "C" 
			},
			{
				"x": 1.9544298132,
				"y": -0.0008132054,
				"z": 0.9220767,
				"element": "O" 
			},
			{
				"x": 1.7880305505,
				"y": -0.6805935263,
				"z": -0.2463079034,
				"element": "C" 
			},
			{
				"x": 2.9113727822,
				"y": -0.7709805939,
				"z": -1.0759142596,
				"element": "C" 
			},
			{
				"x": 1.3808021139,
				"y": -2.7494830633,
				"z": -4.3227109658,
				"element": "S" 
			},
			{
				"x": 1.5206727888,
				"y": -1.1505174084,
				"z": -5.7179567485,
				"element": "Cl" 
			},
			{
				"x": -0.0014491619,
				"y": -3.2097832682,
				"z": -4.3806259152,
				"element": "O" 
			},
			{
				"x": 2.4928782492,
				"y": -3.6476895602,
				"z": -4.5949191715,
				"element": "O" 
			},
			{
				"x": -0.4567927516,
				"y": -2.2066192439,
				"z": -2.2826731907,
				"element": "H" 
			},
			{
				"x": -0.2826962401,
				"y": -2.5727979577,
				"z": 1.3950820652,
				"element": "H" 
			},
			{
				"x": -1.75893278,
				"y": -1.6005206868,
				"z": 1.565143811,
				"element": "H" 
			},
			{
				"x": -0.1982930285,
				"y": -0.9847882447,
				"z": 3.3506207899,
				"element": "H" 
			},
			{
				"x": -0.3754186252,
				"y": 0.3802793384,
				"z": 2.2390874436,
				"element": "H" 
			},
			{
				"x": 1.9454926632,
				"y": -1.6327171452,
				"z": 2.2066257319,
				"element": "H" 
			},
			{
				"x": 2.0048920051,
				"y": -0.0118693812,
				"z": 2.9289419833,
				"element": "H" 
			},
			{
				"x": 3.843956574,
				"y": -0.3486413423,
				"z": -0.7210657879,
				"element": "H" 
			}
		],
		 "valence_orbital": [ 
			{
				"type": "occ",
				"energy": -0.31849,
				"method": "rhf"
			},
			{
				"type": "occ",
				"energy": -0.31017,
				"method": "rhf"
			},
			{
				"type": "occ",
				"energy": -0.30862,
				"method": "rhf"
			},
			{
				"type": "occ",
				"energy": -0.27545,
				"method": "rhf"
			},
			{
				"type": "occ",
				"energy": -0.25303,
				"method": "rhf"
			},
			{
				"type": "unocc",
				"energy": -0.08563,
				"method": "rhf"
			},
			{
				"type": "unocc",
				"energy": -0.0453,
				"method": "rhf"
			},
			{
				"type": "unocc",
				"energy": -0.03766,
				"method": "rhf"
			},
			{
				"type": "unocc",
				"energy": 0.01002,
				"method": "rhf"
			},
			{
				"type": "unocc",
				"energy": 0.05972,
				"method": "rhf"
			}
		],
		"cosmo_sigma_profile": { 
			"-0.025": 0.0,
			"-0.024": 0.0,
			"-0.023": 0.0,
			"-0.022": 0.0,
			"-0.021": 0.0,
			"-0.02": 0.0,
			"-0.019": 0.0,
			"-0.018": 0.0,
			"-0.017": 0.0,
			"-0.016": 0.0,
			"-0.015": 0.0,
			"-0.014": 0.0,
			"-0.013": 0.0,
			"-0.012": 0.0,
			"-0.011": 0.0,
			"-0.01": 0.0,
			"-0.009": 0.771997725,
			"-0.008": 2.29555726771,
			"-0.007": 4.51657160829,
			"-0.006": 16.8263468404,
			"-0.005": 22.9860872317,
			"-0.004": 20.032653241,
			"-0.003": 18.1709149392,
			"-0.002": 19.1916617389,
			"-0.001": 27.4580408262,
			"0.0": 20.1730934131,
			"0.001": 13.9851781385,
			"0.002": 18.2214769631,
			"0.003": 25.5078754441,
			"0.004": 11.6009003294,
			"0.005": 5.91290245707,
			"0.006": 5.44159320317,
			"0.007": 9.54694138103,
			"0.008": 13.2260708425,
			"0.009": 5.67686310735,
			"0.01": 1.29976489988,
			"0.011": 0.0330014303355,
			"0.012": 0.0,
			"0.013": 0.0,
			"0.014": 0.0,
			"0.015": 0.0,
			"0.016": 0.0,
			"0.017": 0.0,
			"0.018": 0.0,
			"0.019": 0.0,
			"0.02": 0.0,
			"0.021": 0.0,
			"0.022": 0.0,
			"0.023": 0.0,
			"0.024": 0.0,
			"0.025": 0.0
		}
	}
}
