{
	 "smiles": "OC(=O)C1=NC(Cl)=CC=C1Cl", 
	 "Tm": 424.15, 
	 "num_atms": 14, 
	 "gaussian": { 
		 "optdone": 1, 
		 "sigma_profile": "yes", 
		 "theory": "DFT", 
		 "functional": "B3LYP", 
		 "basiset": "6-31G**", 
		 "properties": { 
			 "R2extent": 2536.4824, 
			 "electric_dipole_moment_norm": 2.02292315474, 
			 "electric_quadrupole_moment_norm": 14.6481391272, 
			 "total_energy": -1356.02754102, 
			 "HOMO_LUMO_gap": 0.18907, 
			 "cosmo_polarized_energy": -12.67, 
			 "cosmo_cavitation_energy": 23.2, 
			 "cosmo_dispersion_energy": -17.53, 
			 "cosmo_repulsion_energy": 1.43, 
			 "cosmo_total_nonelectrostatic_energy": 7.1, 
			 "SMD_solvation_energy": 3.72 
		},
		"coords": [
			{
				"x": 0.2401160037,
				"y": 1.1607628177,
				"z": -2.4326838502,
				"element": "O" 
			},
			{
				"x": 0.3999819278,
				"y": 0.0001214558,
				"z": -1.7694470643,
				"element": "C" 
			},
			{
				"x": 1.0311855328,
				"y": -0.9355039686,
				"z": -2.2101172903,
				"element": "O" 
			},
			{
				"x": -0.2846769336,
				"y": 0.018662581,
				"z": -0.427867599,
				"element": "C" 
			},
			{
				"x": -0.5389861455,
				"y": 1.2367699966,
				"z": 0.0806823094,
				"element": "N" 
			},
			{
				"x": -1.100008273,
				"y": 1.3403800877,
				"z": 1.2631886459,
				"element": "C" 
			},
			{
				"x": -1.3930727498,
				"y": 2.9621883112,
				"z": 1.8727491095,
				"element": "Cl" 
			},
			{
				"x": -1.4742628446,
				"y": 0.2456093966,
				"z": 2.051671885,
				"element": "C" 
			},
			{
				"x": -1.2297224863,
				"y": -1.0166617999,
				"z": 1.5347617619,
				"element": "C" 
			},
			{
				"x": -0.6219989149,
				"y": -1.1483011751,
				"z": 0.2792540215,
				"element": "C" 
			},
			{
				"x": -0.3668059241,
				"y": -2.7622013241,
				"z": -0.3225733697,
				"element": "Cl" 
			},
			{
				"x": 0.7326271543,
				"y": 1.0552315514,
				"z": -3.2639265381,
				"element": "H" 
			},
			{
				"x": -1.9382415007,
				"y": 0.3840069578,
				"z": 3.020867497,
				"element": "H" 
			},
			{
				"x": -1.503234846,
				"y": -1.9067648882,
				"z": 2.0904404816,
				"element": "H" 
			}
		],
		 "valence_orbital": [ 
			{
				"type": "occ",
				"energy": -0.32483,
				"method": "rhf"
			},
			{
				"type": "occ",
				"energy": -0.31594,
				"method": "rhf"
			},
			{
				"type": "occ",
				"energy": -0.30734,
				"method": "rhf"
			},
			{
				"type": "occ",
				"energy": -0.27471,
				"method": "rhf"
			},
			{
				"type": "occ",
				"energy": -0.26843,
				"method": "rhf"
			},
			{
				"type": "unocc",
				"energy": -0.07936,
				"method": "rhf"
			},
			{
				"type": "unocc",
				"energy": -0.0522,
				"method": "rhf"
			},
			{
				"type": "unocc",
				"energy": 0.01318,
				"method": "rhf"
			},
			{
				"type": "unocc",
				"energy": 0.02103,
				"method": "rhf"
			},
			{
				"type": "unocc",
				"energy": 0.02936,
				"method": "rhf"
			}
		],
		"cosmo_sigma_profile": { 
			"-0.025": 0.0,
			"-0.024": 0.0,
			"-0.023": 0.0,
			"-0.022": 0.0,
			"-0.021": 0.0,
			"-0.02": 0.0,
			"-0.019": 0.563894488082,
			"-0.018": 0.763004746756,
			"-0.017": 1.3432343838,
			"-0.016": 0.729762359235,
			"-0.015": 0.559604102705,
			"-0.014": 0.16088325031,
			"-0.013": 0.618256786578,
			"-0.012": 1.84854974165,
			"-0.011": 0.472268256529,
			"-0.01": 1.94129179738,
			"-0.009": 5.33581108716,
			"-0.008": 4.84249803701,
			"-0.007": 4.37793531797,
			"-0.006": 4.12247205664,
			"-0.005": 5.36038608531,
			"-0.004": 9.27807030021,
			"-0.003": 17.0992729559,
			"-0.002": 20.567419617,
			"-0.001": 13.3258137898,
			"0.0": 10.5529454396,
			"0.001": 11.7100849029,
			"0.002": 12.0644385843,
			"0.003": 17.1041920368,
			"0.004": 11.5009104043,
			"0.005": 5.77753913491,
			"0.006": 3.58178070355,
			"0.007": 3.70416563008,
			"0.008": 3.64545984484,
			"0.009": 4.50748607104,
			"0.01": 4.36876471423,
			"0.011": 6.38875261916,
			"0.012": 1.87530015519,
			"0.013": 0.98209918008,
			"0.014": 0.603796382392,
			"0.015": 0.0193149996197,
			"0.016": 0.0,
			"0.017": 0.0,
			"0.018": 0.0,
			"0.019": 0.0,
			"0.02": 0.0,
			"0.021": 0.0,
			"0.022": 0.0,
			"0.023": 0.0,
			"0.024": 0.0,
			"0.025": 0.0
		}
	}
}
