{
	 "smiles": "[O-][P+](C1C=C(OC(=C1)C1=CC=CC=C1)C1=CC=CC=C1)(C1=CC=CC=C1)C1=CC=CC=C1", 
	 "Tm": 449.15, 
	 "num_atms": 55, 
	 "gaussian": { 
		 "optdone": 1, 
		 "sigma_profile": "yes", 
		 "theory": "DFT", 
		 "functional": "B3LYP", 
		 "basiset": "6-31G**", 
		 "properties": { 
			 "R2extent": 14841.9078, 
			 "electric_dipole_moment_norm": 3.84169535232, 
			 "electric_quadrupole_moment_norm": 15.9665364272, 
			 "total_energy": -1610.74687399, 
			 "HOMO_LUMO_gap": 0.15591, 
			 "cosmo_polarized_energy": -18.55, 
			 "cosmo_cavitation_energy": 59.67, 
			 "cosmo_dispersion_energy": -38.64, 
			 "cosmo_repulsion_energy": 2.88, 
			 "cosmo_total_nonelectrostatic_energy": 23.91, 
			 "SMD_solvation_energy": 10.55 
		},
		"coords": [
			{
				"x": 2.0919388927,
				"y": 0.7718725384,
				"z": -3.1520673239,
				"element": "O" 
			},
			{
				"x": 1.1731368401,
				"y": 0.0027540053,
				"z": -2.2400762821,
				"element": "P" 
			},
			{
				"x": -0.4200568375,
				"y": 0.9743680173,
				"z": -1.9516842542,
				"element": "C" 
			},
			{
				"x": -1.5559318094,
				"y": 0.2411074256,
				"z": -1.3018849319,
				"element": "C" 
			},
			{
				"x": -2.0993777584,
				"y": 0.6286530046,
				"z": -0.1349457409,
				"element": "C" 
			},
			{
				"x": -1.6748182177,
				"y": 1.753659766,
				"z": 0.5411465067,
				"element": "O" 
			},
			{
				"x": -0.7229479114,
				"y": 2.569162771,
				"z": -0.0522058716,
				"element": "C" 
			},
			{
				"x": -0.1182170351,
				"y": 2.2419145422,
				"z": -1.2041194431,
				"element": "C" 
			},
			{
				"x": -0.4743841063,
				"y": 3.7839425033,
				"z": 0.7505100509,
				"element": "C" 
			},
			{
				"x": 0.0864086464,
				"y": 4.9348996771,
				"z": 0.1706793143,
				"element": "C" 
			},
			{
				"x": 0.337995702,
				"y": 6.0670921731,
				"z": 0.940910119,
				"element": "C" 
			},
			{
				"x": 0.024760896,
				"y": 6.0779634077,
				"z": 2.3025545132,
				"element": "C" 
			},
			{
				"x": -0.5444653376,
				"y": 4.9451600376,
				"z": 2.8852860027,
				"element": "C" 
			},
			{
				"x": -0.7948827183,
				"y": 3.807981562,
				"z": 2.1182351388,
				"element": "C" 
			},
			{
				"x": -3.2187035355,
				"y": -0.0390036936,
				"z": 0.5613522079,
				"element": "C" 
			},
			{
				"x": -3.5046633777,
				"y": -1.3972479655,
				"z": 0.3386193787,
				"element": "C" 
			},
			{
				"x": -4.5764672761,
				"y": -2.0115053973,
				"z": 0.9812901373,
				"element": "C" 
			},
			{
				"x": -5.3760359598,
				"y": -1.2861261837,
				"z": 1.8682318807,
				"element": "C" 
			},
			{
				"x": -5.0918141631,
				"y": 0.0591408521,
				"z": 2.1072310741,
				"element": "C" 
			},
			{
				"x": -4.0222185119,
				"y": 0.6791474046,
				"z": 1.4627696456,
				"element": "C" 
			},
			{
				"x": 1.944566684,
				"y": -0.3608823607,
				"z": -0.6236802727,
				"element": "C" 
			},
			{
				"x": 3.3307332646,
				"y": -0.15598707,
				"z": -0.5495555624,
				"element": "C" 
			},
			{
				"x": 4.0173513444,
				"y": -0.4111148189,
				"z": 0.6377000284,
				"element": "C" 
			},
			{
				"x": 3.3260064263,
				"y": -0.8648744965,
				"z": 1.7624727156,
				"element": "C" 
			},
			{
				"x": 1.9444404736,
				"y": -1.0585863993,
				"z": 1.7004647244,
				"element": "C" 
			},
			{
				"x": 1.2531764757,
				"y": -0.8070283883,
				"z": 0.5144833472,
				"element": "C" 
			},
			{
				"x": 0.6443053663,
				"y": -1.5867956072,
				"z": -2.9825794133,
				"element": "C" 
			},
			{
				"x": 0.1908644551,
				"y": -2.6933405134,
				"z": -2.2484171387,
				"element": "C" 
			},
			{
				"x": -0.2274435321,
				"y": -3.8504459253,
				"z": -2.9072109835,
				"element": "C" 
			},
			{
				"x": -0.1941539017,
				"y": -3.9140021326,
				"z": -4.3021704409,
				"element": "C" 
			},
			{
				"x": 0.2676369914,
				"y": -2.8214867449,
				"z": -5.0387417895,
				"element": "C" 
			},
			{
				"x": 0.6874292526,
				"y": -1.6633805325,
				"z": -4.3833514007,
				"element": "C" 
			},
			{
				"x": -0.6734622829,
				"y": 1.2087811355,
				"z": -2.9994318005,
				"element": "H" 
			},
			{
				"x": -1.9821457731,
				"y": -0.6115144297,
				"z": -1.815966835,
				"element": "H" 
			},
			{
				"x": 0.6440891332,
				"y": 2.896800148,
				"z": -1.6078087777,
				"element": "H" 
			},
			{
				"x": 0.3075117806,
				"y": 4.951347979,
				"z": -0.8915954782,
				"element": "H" 
			},
			{
				"x": 0.7689674866,
				"y": 6.9478998394,
				"z": 0.4737187411,
				"element": "H" 
			},
			{
				"x": 0.2172143409,
				"y": 6.9638999405,
				"z": 2.9006633681,
				"element": "H" 
			},
			{
				"x": -0.7935982981,
				"y": 4.9435359135,
				"z": 3.9427030697,
				"element": "H" 
			},
			{
				"x": -1.2302468116,
				"y": 2.9274508308,
				"z": 2.576293757,
				"element": "H" 
			},
			{
				"x": -2.8740142738,
				"y": -1.9798920194,
				"z": -0.3257048295,
				"element": "H" 
			},
			{
				"x": -4.7807343385,
				"y": -3.0626136544,
				"z": 0.79861776,
				"element": "H" 
			},
			{
				"x": -6.2082783763,
				"y": -1.7681290127,
				"z": 2.3728345144,
				"element": "H" 
			},
			{
				"x": -5.7061825017,
				"y": 0.6311521334,
				"z": 2.7966975096,
				"element": "H" 
			},
			{
				"x": -3.8071730264,
				"y": 1.7257243368,
				"z": 1.6448312196,
				"element": "H" 
			},
			{
				"x": 3.8513271042,
				"y": 0.2130170228,
				"z": -1.4277374361,
				"element": "H" 
			},
			{
				"x": 5.0907128481,
				"y": -0.2511636253,
				"z": 0.6855316135,
				"element": "H" 
			},
			{
				"x": 3.8606220389,
				"y": -1.0613975484,
				"z": 2.6875909119,
				"element": "H" 
			},
			{
				"x": 1.401927295,
				"y": -1.4000001213,
				"z": 2.5774308886,
				"element": "H" 
			},
			{
				"x": 0.1776643161,
				"y": -0.9445803052,
				"z": 0.4863024158,
				"element": "H" 
			},
			{
				"x": 0.1866355361,
				"y": -2.6661383591,
				"z": -1.163507209,
				"element": "H" 
			},
			{
				"x": -0.5698243748,
				"y": -4.7055475802,
				"z": -2.331170295,
				"element": "H" 
			},
			{
				"x": -0.5180322177,
				"y": -4.8167843747,
				"z": -4.8123456959,
				"element": "H" 
			},
			{
				"x": 0.3079585885,
				"y": -2.8733779703,
				"z": -6.1230318027,
				"element": "H" 
			},
			{
				"x": 1.0717920848,
				"y": -0.8168817372,
				"z": -4.9442615457,
				"element": "H" 
			}
		],
		 "valence_orbital": [ 
			{
				"type": "occ",
				"energy": -0.25414,
				"method": "rhf"
			},
			{
				"type": "occ",
				"energy": -0.25205,
				"method": "rhf"
			},
			{
				"type": "occ",
				"energy": -0.251,
				"method": "rhf"
			},
			{
				"type": "occ",
				"energy": -0.22924,
				"method": "rhf"
			},
			{
				"type": "occ",
				"energy": -0.19926,
				"method": "rhf"
			},
			{
				"type": "unocc",
				"energy": -0.04335,
				"method": "rhf"
			},
			{
				"type": "unocc",
				"energy": -0.03149,
				"method": "rhf"
			},
			{
				"type": "unocc",
				"energy": -0.02193,
				"method": "rhf"
			},
			{
				"type": "unocc",
				"energy": -0.01523,
				"method": "rhf"
			},
			{
				"type": "unocc",
				"energy": -0.00794,
				"method": "rhf"
			}
		],
		"cosmo_sigma_profile": { 
			"-0.025": 0.0,
			"-0.024": 0.0,
			"-0.023": 0.0,
			"-0.022": 0.0,
			"-0.021": 0.0,
			"-0.02": 0.0,
			"-0.019": 0.0,
			"-0.018": 0.0,
			"-0.017": 0.0,
			"-0.016": 0.0,
			"-0.015": 0.0,
			"-0.014": 0.0,
			"-0.013": 0.0,
			"-0.012": 0.000598702734234,
			"-0.011": 0.00493382226577,
			"-0.01": 0.0647958931004,
			"-0.009": 0.116529090822,
			"-0.008": 0.256915827935,
			"-0.007": 4.5248146603,
			"-0.006": 29.5816371545,
			"-0.005": 42.946347476,
			"-0.004": 51.5819615994,
			"-0.003": 37.5526114939,
			"-0.002": 31.8763821517,
			"-0.001": 29.3007886572,
			"0.0": 29.9737327431,
			"0.001": 35.8355901772,
			"0.002": 40.9605980952,
			"0.003": 42.9734300851,
			"0.004": 46.5447305771,
			"0.005": 30.5239216689,
			"0.006": 5.49788750423,
			"0.007": 1.3388039698,
			"0.008": 1.22297181471,
			"0.009": 1.5492216416,
			"0.01": 0.76139200832,
			"0.011": 1.38457396072,
			"0.012": 1.28384206492,
			"0.013": 1.05565802477,
			"0.014": 1.39994137898,
			"0.015": 2.71877460941,
			"0.016": 4.41412794181,
			"0.017": 0.514596802216,
			"0.018": 0.0,
			"0.019": 0.0,
			"0.02": 0.0,
			"0.021": 0.0,
			"0.022": 0.0,
			"0.023": 0.0,
			"0.024": 0.0,
			"0.025": 0.0
		}
	}
}
