{
	 "smiles": "CC1=CNC(=O)N1C1=CC(N)=CC=C1", 
	 "Tm": 506.15, 
	 "num_atms": 25, 
	 "gaussian": { 
		 "optdone": 1, 
		 "sigma_profile": "yes", 
		 "theory": "DFT", 
		 "functional": "B3LYP", 
		 "basiset": "6-31G**", 
		 "properties": { 
			 "R2extent": 2882.3229, 
			 "electric_dipole_moment_norm": 3.62361981449, 
			 "electric_quadrupole_moment_norm": 20.3354747727, 
			 "total_energy": -627.189277517, 
			 "HOMO_LUMO_gap": 0.18181, 
			 "cosmo_polarized_energy": -19.33, 
			 "cosmo_cavitation_energy": 28.79, 
			 "cosmo_dispersion_energy": -20.83, 
			 "cosmo_repulsion_energy": 1.65, 
			 "cosmo_total_nonelectrostatic_energy": 9.61, 
			 "SMD_solvation_energy": 5.97 
		},
		"coords": [
			{
				"x": -2.3894711425,
				"y": 0.1701192275,
				"z": -1.9290616326,
				"element": "C" 
			},
			{
				"x": -1.9809905695,
				"y": 1.0317087478,
				"z": -0.7811263369,
				"element": "C" 
			},
			{
				"x": -2.577941584,
				"y": 2.1466296477,
				"z": -0.300874466,
				"element": "C" 
			},
			{
				"x": -1.7807975636,
				"y": 2.6555455352,
				"z": 0.7243937105,
				"element": "N" 
			},
			{
				"x": -0.6445238552,
				"y": 1.8851810478,
				"z": 0.9050347791,
				"element": "C" 
			},
			{
				"x": 0.2659704768,
				"y": 2.0604984848,
				"z": 1.701727002,
				"element": "O" 
			},
			{
				"x": -0.7909249022,
				"y": 0.8508165645,
				"z": -0.0404319611,
				"element": "N" 
			},
			{
				"x": 0.1570817152,
				"y": -0.2021648514,
				"z": -0.179695166,
				"element": "C" 
			},
			{
				"x": -0.273611368,
				"y": -1.5311004023,
				"z": -0.1444044334,
				"element": "C" 
			},
			{
				"x": 0.6443968871,
				"y": -2.5818686131,
				"z": -0.2983572742,
				"element": "C" 
			},
			{
				"x": 0.2034579444,
				"y": -3.908508656,
				"z": -0.3298765531,
				"element": "N" 
			},
			{
				"x": 2.004774474,
				"y": -2.2722566148,
				"z": -0.4622492148,
				"element": "C" 
			},
			{
				"x": 2.4240167059,
				"y": -0.9440225951,
				"z": -0.4670275716,
				"element": "C" 
			},
			{
				"x": 1.5136766878,
				"y": 0.1030417783,
				"z": -0.3327680446,
				"element": "C" 
			},
			{
				"x": -1.5795301934,
				"y": 0.0673964729,
				"z": -2.6598031113,
				"element": "H" 
			},
			{
				"x": -3.2461434046,
				"y": 0.62589223,
				"z": -2.43246941,
				"element": "H" 
			},
			{
				"x": -2.6781824217,
				"y": -0.8421689842,
				"z": -1.626719931,
				"element": "H" 
			},
			{
				"x": -3.4875428416,
				"y": 2.6293189158,
				"z": -0.6206979743,
				"element": "H" 
			},
			{
				"x": -1.9441314079,
				"y": 3.4857902574,
				"z": 1.2686629445,
				"element": "H" 
			},
			{
				"x": -1.3228978181,
				"y": -1.7522684495,
				"z": 0.0248120332,
				"element": "H" 
			},
			{
				"x": -0.6720090939,
				"y": -4.0769165005,
				"z": 0.1472279748,
				"element": "H" 
			},
			{
				"x": 0.9023587458,
				"y": -4.5913372855,
				"z": -0.0698674102,
				"element": "H" 
			},
			{
				"x": 2.7276399186,
				"y": -3.0756141938,
				"z": -0.5793242445,
				"element": "H" 
			},
			{
				"x": 3.4808792015,
				"y": -0.7209446326,
				"z": -0.5819609847,
				"element": "H" 
			},
			{
				"x": 1.8382454092,
				"y": 1.1357328691,
				"z": -0.3263427239,
				"element": "H" 
			}
		],
		 "valence_orbital": [ 
			{
				"type": "occ",
				"energy": -0.28947,
				"method": "rhf"
			},
			{
				"type": "occ",
				"energy": -0.24962,
				"method": "rhf"
			},
			{
				"type": "occ",
				"energy": -0.23993,
				"method": "rhf"
			},
			{
				"type": "occ",
				"energy": -0.20378,
				"method": "rhf"
			},
			{
				"type": "occ",
				"energy": -0.18417,
				"method": "rhf"
			},
			{
				"type": "unocc",
				"energy": -0.00236,
				"method": "rhf"
			},
			{
				"type": "unocc",
				"energy": 0.01688,
				"method": "rhf"
			},
			{
				"type": "unocc",
				"energy": 0.04897,
				"method": "rhf"
			},
			{
				"type": "unocc",
				"energy": 0.07794,
				"method": "rhf"
			},
			{
				"type": "unocc",
				"energy": 0.08107,
				"method": "rhf"
			}
		],
		"cosmo_sigma_profile": { 
			"-0.025": 0.0,
			"-0.024": 0.0,
			"-0.023": 0.0,
			"-0.022": 0.0,
			"-0.021": 0.0,
			"-0.02": 0.0,
			"-0.019": 0.0,
			"-0.018": 0.0,
			"-0.017": 0.0,
			"-0.016": 0.564830052924,
			"-0.015": 1.54625086103,
			"-0.014": 0.854011095724,
			"-0.013": 1.38422114485,
			"-0.012": 3.74103096527,
			"-0.011": 3.7816243861,
			"-0.01": 3.6705203854,
			"-0.009": 4.83579207389,
			"-0.008": 5.74699890482,
			"-0.007": 6.80051232166,
			"-0.006": 9.67942081963,
			"-0.005": 14.0062370818,
			"-0.004": 13.1924306598,
			"-0.003": 14.9269343384,
			"-0.002": 12.4441554357,
			"-0.001": 15.0471479339,
			"0.0": 14.1226086795,
			"0.001": 13.9116740945,
			"0.002": 13.7042421361,
			"0.003": 11.9838580385,
			"0.004": 11.0499173558,
			"0.005": 11.9421382725,
			"0.006": 10.4745315175,
			"0.007": 3.39483105653,
			"0.008": 2.19040587308,
			"0.009": 3.02746860731,
			"0.01": 1.79198553513,
			"0.011": 1.98633738529,
			"0.012": 2.6071025319,
			"0.013": 3.22644084175,
			"0.014": 4.82247765842,
			"0.015": 5.8354040661,
			"0.016": 0.222798506249,
			"0.017": 0.0,
			"0.018": 0.0,
			"0.019": 0.0,
			"0.02": 0.0,
			"0.021": 0.0,
			"0.022": 0.0,
			"0.023": 0.0,
			"0.024": 0.0,
			"0.025": 0.0
		}
	}
}
