{
	 "smiles": "COC1=C(C=CC=C1)C(C)(C)C(O)=O", 
	 "Tm": 395.15, 
	 "num_atms": 28, 
	 "gaussian": { 
		 "optdone": 1, 
		 "sigma_profile": "yes", 
		 "theory": "DFT", 
		 "functional": "B3LYP", 
		 "basiset": "6-31G**", 
		 "properties": { 
			 "R2extent": 3407.897, 
			 "electric_dipole_moment_norm": 2.0519770296, 
			 "electric_quadrupole_moment_norm": 11.011615505, 
			 "total_energy": -653.288772903, 
			 "HOMO_LUMO_gap": 0.21625, 
			 "cosmo_polarized_energy": -11.9, 
			 "cosmo_cavitation_energy": 30.17, 
			 "cosmo_dispersion_energy": -20.94, 
			 "cosmo_repulsion_energy": 1.64, 
			 "cosmo_total_nonelectrostatic_energy": 10.87, 
			 "SMD_solvation_energy": 7.1 
		},
		"coords": [
			{
				"x": 0.076403218,
				"y": -1.7562574598,
				"z": 0.027751237,
				"element": "C" 
			},
			{
				"x": -0.3237064516,
				"y": -0.4541346566,
				"z": 0.4222572888,
				"element": "O" 
			},
			{
				"x": -0.1863649522,
				"y": 0.5820656695,
				"z": -0.4611024297,
				"element": "C" 
			},
			{
				"x": -0.6900320856,
				"y": 1.828588097,
				"z": -0.0192711481,
				"element": "C" 
			},
			{
				"x": -0.5720398349,
				"y": 2.9124643326,
				"z": -0.8903771735,
				"element": "C" 
			},
			{
				"x": 0.0183894539,
				"y": 2.7894563974,
				"z": -2.1528782967,
				"element": "C" 
			},
			{
				"x": 0.5038592111,
				"y": 1.554458334,
				"z": -2.5649316661,
				"element": "C" 
			},
			{
				"x": 0.4012884843,
				"y": 0.4453896712,
				"z": -1.7206780779,
				"element": "C" 
			},
			{
				"x": -1.2815191815,
				"y": 1.9596666158,
				"z": 1.3911027402,
				"element": "C" 
			},
			{
				"x": -0.16392866,
				"y": 1.8624687257,
				"z": 2.4522278007,
				"element": "C" 
			},
			{
				"x": -2.0448094924,
				"y": 3.2934345039,
				"z": 1.5907688977,
				"element": "C" 
			},
			{
				"x": -2.3234347104,
				"y": 0.8643642954,
				"z": 1.6680636242,
				"element": "C" 
			},
			{
				"x": -3.1791819705,
				"y": 0.6943819402,
				"z": 0.6298313339,
				"element": "O" 
			},
			{
				"x": -2.4606911647,
				"y": 0.2717172875,
				"z": 2.7156091034,
				"element": "O" 
			},
			{
				"x": -0.1624243649,
				"y": -2.4094559614,
				"z": 0.8682057137,
				"element": "H" 
			},
			{
				"x": 1.1543356883,
				"y": -1.8044580505,
				"z": -0.1723717458,
				"element": "H" 
			},
			{
				"x": -0.469661956,
				"y": -2.0931360876,
				"z": -0.8624179755,
				"element": "H" 
			},
			{
				"x": -0.9507913631,
				"y": 3.8821842103,
				"z": -0.5884517394,
				"element": "H" 
			},
			{
				"x": 0.0908582024,
				"y": 3.6561413364,
				"z": -2.8026265528,
				"element": "H" 
			},
			{
				"x": 0.9634919125,
				"y": 1.4399647788,
				"z": -3.5424408566,
				"element": "H" 
			},
			{
				"x": 0.780112798,
				"y": -0.5149139267,
				"z": -2.0496084831,
				"element": "H" 
			},
			{
				"x": -0.5893530089,
				"y": 1.9223626419,
				"z": 3.4569448573,
				"element": "H" 
			},
			{
				"x": 0.5441308349,
				"y": 2.6850682017,
				"z": 2.3145425216,
				"element": "H" 
			},
			{
				"x": 0.3739620467,
				"y": 0.9171991337,
				"z": 2.368862787,
				"element": "H" 
			},
			{
				"x": -2.5070345135,
				"y": 3.3042563747,
				"z": 2.582248207,
				"element": "H" 
			},
			{
				"x": -1.3582842365,
				"y": 4.1433604547,
				"z": 1.5392380766,
				"element": "H" 
			},
			{
				"x": -2.8292582059,
				"y": 3.4267406643,
				"z": 0.8414791806,
				"element": "H" 
			},
			{
				"x": -3.8243156974,
				"y": 0.0327224761,
				"z": 0.9302227756,
				"element": "H" 
			}
		],
		 "valence_orbital": [ 
			{
				"type": "occ",
				"energy": -0.31739,
				"method": "rhf"
			},
			{
				"type": "occ",
				"energy": -0.30455,
				"method": "rhf"
			},
			{
				"type": "occ",
				"energy": -0.26503,
				"method": "rhf"
			},
			{
				"type": "occ",
				"energy": -0.24334,
				"method": "rhf"
			},
			{
				"type": "occ",
				"energy": -0.21702,
				"method": "rhf"
			},
			{
				"type": "unocc",
				"energy": -0.00077,
				"method": "rhf"
			},
			{
				"type": "unocc",
				"energy": 0.01236,
				"method": "rhf"
			},
			{
				"type": "unocc",
				"energy": 0.02573,
				"method": "rhf"
			},
			{
				"type": "unocc",
				"energy": 0.08291,
				"method": "rhf"
			},
			{
				"type": "unocc",
				"energy": 0.09094,
				"method": "rhf"
			}
		],
		"cosmo_sigma_profile": { 
			"-0.025": 0.0,
			"-0.024": 0.0,
			"-0.023": 0.0,
			"-0.022": 0.0,
			"-0.021": 0.0,
			"-0.02": 0.0,
			"-0.019": 0.0,
			"-0.018": 0.29242729871,
			"-0.017": 1.07364841455,
			"-0.016": 0.596850997515,
			"-0.015": 0.777258281772,
			"-0.014": 0.917598258989,
			"-0.013": 0.854941402547,
			"-0.012": 0.651960269404,
			"-0.011": 0.481972059418,
			"-0.01": 0.678109727519,
			"-0.009": 0.751705778326,
			"-0.008": 0.37350231648,
			"-0.007": 0.882201202959,
			"-0.006": 8.62857667678,
			"-0.005": 18.3874912249,
			"-0.004": 22.0936562462,
			"-0.003": 26.6660156511,
			"-0.002": 21.1911424541,
			"-0.001": 18.8207637631,
			"0.0": 17.0670151618,
			"0.001": 14.9968610897,
			"0.002": 12.6820492082,
			"0.003": 10.8314773928,
			"0.004": 10.4073003161,
			"0.005": 10.8189234445,
			"0.006": 10.5419959544,
			"0.007": 4.83481431281,
			"0.008": 3.94025729865,
			"0.009": 3.79931661445,
			"0.01": 3.44784708152,
			"0.011": 2.92728713512,
			"0.012": 5.4705820453,
			"0.013": 1.20895298332,
			"0.014": 0.0,
			"0.015": 0.0,
			"0.016": 0.0,
			"0.017": 0.0,
			"0.018": 0.0,
			"0.019": 0.0,
			"0.02": 0.0,
			"0.021": 0.0,
			"0.022": 0.0,
			"0.023": 0.0,
			"0.024": 0.0,
			"0.025": 0.0
		}
	}
}
