{
	 "smiles": "OC(=O)C1=C2NC=C(C=O)C2=CC=C1", 
	 "Tm": 581.15, 
	 "num_atms": 21, 
	 "gaussian": { 
		 "optdone": 1, 
		 "sigma_profile": "yes", 
		 "theory": "DFT", 
		 "functional": "B3LYP", 
		 "basiset": "6-31G**", 
		 "properties": { 
			 "R2extent": 2896.1887, 
			 "electric_dipole_moment_norm": 3.71302351326, 
			 "electric_quadrupole_moment_norm": 13.3648811607, 
			 "total_energy": -665.732559391, 
			 "HOMO_LUMO_gap": 0.166, 
			 "cosmo_polarized_energy": -14.65, 
			 "cosmo_cavitation_energy": 26.09, 
			 "cosmo_dispersion_energy": -19.41, 
			 "cosmo_repulsion_energy": 1.5, 
			 "cosmo_total_nonelectrostatic_energy": 8.17, 
			 "SMD_solvation_energy": 6.43 
		},
		"coords": [
			{
				"x": -2.845955109,
				"y": 1.1350011614,
				"z": 3.0381030313,
				"element": "O" 
			},
			{
				"x": -2.5370496712,
				"y": 0.8774130257,
				"z": 1.7484633322,
				"element": "C" 
			},
			{
				"x": -3.3953506281,
				"y": 0.8611229309,
				"z": 0.8738681513,
				"element": "O" 
			},
			{
				"x": -1.1076691905,
				"y": 0.6252287242,
				"z": 1.5099245538,
				"element": "C" 
			},
			{
				"x": -0.6729791596,
				"y": 0.3453213942,
				"z": 0.2015917923,
				"element": "C" 
			},
			{
				"x": -1.3995936956,
				"y": 0.2613789686,
				"z": -0.9676699251,
				"element": "N" 
			},
			{
				"x": -0.5603609454,
				"y": -0.0341381413,
				"z": -2.0042948432,
				"element": "C" 
			},
			{
				"x": 0.7380486108,
				"y": -0.1507100755,
				"z": -1.5365242544,
				"element": "C" 
			},
			{
				"x": 1.9044089576,
				"y": -0.4575201429,
				"z": -2.3454352069,
				"element": "C" 
			},
			{
				"x": 3.0438722591,
				"y": -0.5563157641,
				"z": -1.9134291216,
				"element": "O" 
			},
			{
				"x": 0.684089473,
				"y": 0.0917422475,
				"z": -0.110861385,
				"element": "C" 
			},
			{
				"x": 1.6389703083,
				"y": 0.1181079102,
				"z": 0.9144324102,
				"element": "C" 
			},
			{
				"x": 1.2187676112,
				"y": 0.394674393,
				"z": 2.2154841387,
				"element": "C" 
			},
			{
				"x": -0.1298544766,
				"y": 0.6443237804,
				"z": 2.5119342756,
				"element": "C" 
			},
			{
				"x": -3.8060150465,
				"y": 1.2812524142,
				"z": 3.0595419391,
				"element": "H" 
			},
			{
				"x": -2.4008489625,
				"y": 0.4082168072,
				"z": -0.9825789562,
				"element": "H" 
			},
			{
				"x": -0.9375777534,
				"y": -0.1435615369,
				"z": -3.0118351556,
				"element": "H" 
			},
			{
				"x": 1.6941949154,
				"y": -0.6043878117,
				"z": -3.4289332961,
				"element": "H" 
			},
			{
				"x": 2.6797275593,
				"y": -0.0753740845,
				"z": 0.6805425639,
				"element": "H" 
			},
			{
				"x": 1.9479182843,
				"y": 0.4182326565,
				"z": 3.0192605724,
				"element": "H" 
			},
			{
				"x": -0.4314433408,
				"y": 0.8568911429,
				"z": 3.5314153834,
				"element": "H" 
			}
		],
		 "valence_orbital": [ 
			{
				"type": "occ",
				"energy": -0.29256,
				"method": "rhf"
			},
			{
				"type": "occ",
				"energy": -0.28945,
				"method": "rhf"
			},
			{
				"type": "occ",
				"energy": -0.24515,
				"method": "rhf"
			},
			{
				"type": "occ",
				"energy": -0.24405,
				"method": "rhf"
			},
			{
				"type": "occ",
				"energy": -0.22983,
				"method": "rhf"
			},
			{
				"type": "unocc",
				"energy": -0.06383,
				"method": "rhf"
			},
			{
				"type": "unocc",
				"energy": -0.03447,
				"method": "rhf"
			},
			{
				"type": "unocc",
				"energy": 0.00755,
				"method": "rhf"
			},
			{
				"type": "unocc",
				"energy": 0.04051,
				"method": "rhf"
			},
			{
				"type": "unocc",
				"energy": 0.06971,
				"method": "rhf"
			}
		],
		"cosmo_sigma_profile": { 
			"-0.025": 0.0,
			"-0.024": 0.0,
			"-0.023": 0.0,
			"-0.022": 0.0,
			"-0.021": 0.0,
			"-0.02": 0.0,
			"-0.019": 0.128576131171,
			"-0.018": 0.875634361436,
			"-0.017": 0.983411635333,
			"-0.016": 0.552862759764,
			"-0.015": 1.11737483364,
			"-0.014": 1.67560704441,
			"-0.013": 1.01327884566,
			"-0.012": 1.77406660151,
			"-0.011": 1.67845341765,
			"-0.01": 3.64292182407,
			"-0.009": 3.42948404115,
			"-0.008": 4.13479093403,
			"-0.007": 4.17723130708,
			"-0.006": 10.0010467894,
			"-0.005": 10.0393433517,
			"-0.004": 9.73037407885,
			"-0.003": 10.5859080175,
			"-0.002": 12.7675219719,
			"-0.001": 13.2168873044,
			"0.0": 15.9666872615,
			"0.001": 18.0933457017,
			"0.002": 17.2366637551,
			"0.003": 18.039184799,
			"0.004": 11.6013939052,
			"0.005": 4.82304117756,
			"0.006": 4.56451411019,
			"0.007": 5.36186912428,
			"0.008": 2.98919928651,
			"0.009": 3.7266112092,
			"0.01": 3.25192308573,
			"0.011": 4.87390397588,
			"0.012": 4.70839299706,
			"0.013": 2.31347802061,
			"0.014": 0.897182382458,
			"0.015": 0.00232205252148,
			"0.016": 0.0,
			"0.017": 0.0,
			"0.018": 0.0,
			"0.019": 0.0,
			"0.02": 0.0,
			"0.021": 0.0,
			"0.022": 0.0,
			"0.023": 0.0,
			"0.024": 0.0,
			"0.025": 0.0
		}
	}
}
