{
	 "smiles": "CN1C=NN=C1S(O)(=O)=O", 
	 "Tm": 444.15, 
	 "num_atms": 15, 
	 "gaussian": { 
		 "optdone": 1, 
		 "sigma_profile": "yes", 
		 "theory": "DFT", 
		 "functional": "B3LYP", 
		 "basiset": "6-31G**", 
		 "properties": { 
			 "R2extent": 1522.206, 
			 "electric_dipole_moment_norm": 5.45020227515, 
			 "electric_quadrupole_moment_norm": 13.2622441672, 
			 "total_energy": -905.333709243, 
			 "HOMO_LUMO_gap": 0.25857, 
			 "cosmo_polarized_energy": -17.99, 
			 "cosmo_cavitation_energy": 21.04, 
			 "cosmo_dispersion_energy": -16.37, 
			 "cosmo_repulsion_energy": 1.26, 
			 "cosmo_total_nonelectrostatic_energy": 5.93, 
			 "SMD_solvation_energy": 1.61 
		},
		"coords": [
			{
				"x": 0.752062235,
				"y": 1.8925185753,
				"z": 0.1103127569,
				"element": "C" 
			},
			{
				"x": -0.2817568865,
				"y": 0.9654332847,
				"z": 0.5710141543,
				"element": "N" 
			},
			{
				"x": -1.1753170966,
				"y": 1.1112383342,
				"z": 1.5994813526,
				"element": "C" 
			},
			{
				"x": -1.9657066211,
				"y": 0.0661500097,
				"z": 1.7035531491,
				"element": "N" 
			},
			{
				"x": -1.5926399327,
				"y": -0.806770948,
				"z": 0.7121507473,
				"element": "N" 
			},
			{
				"x": -0.5974339004,
				"y": -0.2537162975,
				"z": 0.0605137783,
				"element": "C" 
			},
			{
				"x": 0.1600852578,
				"y": -1.0604267057,
				"z": -1.3399187108,
				"element": "S" 
			},
			{
				"x": -0.6301868699,
				"y": -2.4623865097,
				"z": -1.2119672008,
				"element": "O" 
			},
			{
				"x": -0.2409054432,
				"y": -0.3570076555,
				"z": -2.5506460355,
				"element": "O" 
			},
			{
				"x": 1.5729469328,
				"y": -1.2733104795,
				"z": -1.0554458542,
				"element": "O" 
			},
			{
				"x": 1.6964470725,
				"y": 1.3562504056,
				"z": 0.0017848992,
				"element": "H" 
			},
			{
				"x": 0.4667607576,
				"y": 2.3247150517,
				"z": -0.8516344505,
				"element": "H" 
			},
			{
				"x": 0.8639157186,
				"y": 2.6848539187,
				"z": 0.8505698112,
				"element": "H" 
			},
			{
				"x": -1.2013525007,
				"y": 1.9851847953,
				"z": 2.2346977013,
				"element": "H" 
			},
			{
				"x": -1.3378187231,
				"y": -2.3500257792,
				"z": -0.5316660983,
				"element": "H" 
			}
		],
		 "valence_orbital": [ 
			{
				"type": "occ",
				"energy": -0.339,
				"method": "rhf"
			},
			{
				"type": "occ",
				"energy": -0.33258,
				"method": "rhf"
			},
			{
				"type": "occ",
				"energy": -0.31196,
				"method": "rhf"
			},
			{
				"type": "occ",
				"energy": -0.30019,
				"method": "rhf"
			},
			{
				"type": "occ",
				"energy": -0.29781,
				"method": "rhf"
			},
			{
				"type": "unocc",
				"energy": -0.03924,
				"method": "rhf"
			},
			{
				"type": "unocc",
				"energy": -0.00189,
				"method": "rhf"
			},
			{
				"type": "unocc",
				"energy": 0.02616,
				"method": "rhf"
			},
			{
				"type": "unocc",
				"energy": 0.03553,
				"method": "rhf"
			},
			{
				"type": "unocc",
				"energy": 0.05468,
				"method": "rhf"
			}
		],
		"cosmo_sigma_profile": { 
			"-0.025": 0.0,
			"-0.024": 0.0,
			"-0.023": 0.0,
			"-0.022": 0.0,
			"-0.021": 0.0,
			"-0.02": 0.0,
			"-0.019": 0.0,
			"-0.018": 0.0,
			"-0.017": 0.0,
			"-0.016": 0.0582036527124,
			"-0.015": 0.341566999788,
			"-0.014": 0.446124975617,
			"-0.013": 0.841416067821,
			"-0.012": 4.09404108904,
			"-0.011": 3.53383298102,
			"-0.01": 3.31959888184,
			"-0.009": 4.04508779699,
			"-0.008": 6.36048400966,
			"-0.007": 10.2574286228,
			"-0.006": 12.4859772523,
			"-0.005": 14.9507467811,
			"-0.004": 10.0642990096,
			"-0.003": 6.23693025173,
			"-0.002": 5.88157136984,
			"-0.001": 4.85652908007,
			"0.0": 4.38868791857,
			"0.001": 4.13380253824,
			"0.002": 4.40933813127,
			"0.003": 4.25709651013,
			"0.004": 5.72716262098,
			"0.005": 6.92922433534,
			"0.006": 7.74827757347,
			"0.007": 6.2430309682,
			"0.008": 11.1642972983,
			"0.009": 14.7872647498,
			"0.01": 5.77553763838,
			"0.011": 1.41842070408,
			"0.012": 1.61122796798,
			"0.013": 1.19397957148,
			"0.014": 1.05255657918,
			"0.015": 0.471964804582,
			"0.016": 0.0,
			"0.017": 0.0,
			"0.018": 0.0,
			"0.019": 0.0,
			"0.02": 0.0,
			"0.021": 0.0,
			"0.022": 0.0,
			"0.023": 0.0,
			"0.024": 0.0,
			"0.025": 0.0
		}
	}
}
