{
	 "smiles": "CCCCCCC#CCCC", 
	 "Tm": 198.45, 
	 "num_atms": 31, 
	 "gaussian": { 
		 "optdone": 1, 
		 "sigma_profile": "yes", 
		 "theory": "DFT", 
		 "functional": "B3LYP", 
		 "basiset": "6-31G**", 
		 "properties": { 
			 "R2extent": 2937.1057, 
			 "electric_dipole_moment_norm": 0.235038316025, 
			 "electric_quadrupole_moment_norm": 3.41952417743, 
			 "total_energy": -431.190429646, 
			 "HOMO_LUMO_gap": 0.29115, 
			 "cosmo_polarized_energy": -2.96, 
			 "cosmo_cavitation_energy": 32.68, 
			 "cosmo_dispersion_energy": -21.81, 
			 "cosmo_repulsion_energy": 1.84, 
			 "cosmo_total_nonelectrostatic_energy": 12.71, 
			 "SMD_solvation_energy": 5.16 
		},
		"coords": [
			{
				"x": 1.4355097758,
				"y": 1.5891488509,
				"z": 3.1264873472,
				"element": "C" 
			},
			{
				"x": 0.8480978113,
				"y": 0.1739289417,
				"z": 3.1448463174,
				"element": "C" 
			},
			{
				"x": -0.6544052968,
				"y": 0.1507942613,
				"z": 2.8341124401,
				"element": "C" 
			},
			{
				"x": -1.3131443926,
				"y": -1.2346303865,
				"z": 2.952657664,
				"element": "C" 
			},
			{
				"x": -0.8168072961,
				"y": -2.3342884217,
				"z": 1.9970365587,
				"element": "C" 
			},
			{
				"x": -1.1334231244,
				"y": -2.1138499792,
				"z": 0.4973832646,
				"element": "C" 
			},
			{
				"x": -0.2778311873,
				"y": -1.1449492009,
				"z": -0.194519908,
				"element": "C" 
			},
			{
				"x": 0.4490330535,
				"y": -0.3758923344,
				"z": -0.7841989363,
				"element": "C" 
			},
			{
				"x": 1.3094561925,
				"y": 0.5616285878,
				"z": -1.5113245132,
				"element": "C" 
			},
			{
				"x": 0.5906543893,
				"y": 1.2979590928,
				"z": -2.6645258294,
				"element": "C" 
			},
			{
				"x": -0.5632071254,
				"y": 2.1866412058,
				"z": -2.1949649668,
				"element": "C" 
			},
			{
				"x": 1.300619869,
				"y": 2.0585045532,
				"z": 2.1450623042,
				"element": "H" 
			},
			{
				"x": 0.947172651,
				"y": 2.2324948908,
				"z": 3.8677860553,
				"element": "H" 
			},
			{
				"x": 2.5082178003,
				"y": 1.5826034988,
				"z": 3.3471177285,
				"element": "H" 
			},
			{
				"x": 1.0237019413,
				"y": -0.2825768298,
				"z": 4.1293507613,
				"element": "H" 
			},
			{
				"x": 1.3838217594,
				"y": -0.4455429506,
				"z": 2.4158379514,
				"element": "H" 
			},
			{
				"x": -1.1687135464,
				"y": 0.8299630622,
				"z": 3.5286726013,
				"element": "H" 
			},
			{
				"x": -0.8178970312,
				"y": 0.5577428426,
				"z": 1.8294079615,
				"element": "H" 
			},
			{
				"x": -1.179247107,
				"y": -1.5979772383,
				"z": 3.9812526379,
				"element": "H" 
			},
			{
				"x": -2.3976919379,
				"y": -1.1222432427,
				"z": 2.8144476578,
				"element": "H" 
			},
			{
				"x": -1.2975774508,
				"y": -3.275233507,
				"z": 2.2927660369,
				"element": "H" 
			},
			{
				"x": 0.2611117127,
				"y": -2.4924623008,
				"z": 2.1149444446,
				"element": "H" 
			},
			{
				"x": -2.1860867521,
				"y": -1.8140857978,
				"z": 0.3940289686,
				"element": "H" 
			},
			{
				"x": -1.047110131,
				"y": -3.0785613421,
				"z": -0.02080082,
				"element": "H" 
			},
			{
				"x": 1.7153420963,
				"y": 1.3037806353,
				"z": -0.8091207758,
				"element": "H" 
			},
			{
				"x": 2.1762482137,
				"y": 0.0207776156,
				"z": -1.9140523747,
				"element": "H" 
			},
			{
				"x": 1.3354231283,
				"y": 1.9032977583,
				"z": -3.1960887486,
				"element": "H" 
			},
			{
				"x": 0.2203147802,
				"y": 0.5548021155,
				"z": -3.3805942986,
				"element": "H" 
			},
			{
				"x": -1.049247653,
				"y": 2.6828361322,
				"z": -3.0411773767,
				"element": "H" 
			},
			{
				"x": -0.208831296,
				"y": 2.9657854242,
				"z": -1.5099652611,
				"element": "H" 
			},
			{
				"x": -1.3192038466,
				"y": 1.5975040628,
				"z": -1.6667648921,
				"element": "H" 
			}
		],
		 "valence_orbital": [ 
			{
				"type": "occ",
				"energy": -0.31393,
				"method": "rhf"
			},
			{
				"type": "occ",
				"energy": -0.31213,
				"method": "rhf"
			},
			{
				"type": "occ",
				"energy": -0.30487,
				"method": "rhf"
			},
			{
				"type": "occ",
				"energy": -0.24105,
				"method": "rhf"
			},
			{
				"type": "occ",
				"energy": -0.23742,
				"method": "rhf"
			},
			{
				"type": "unocc",
				"energy": 0.05373,
				"method": "rhf"
			},
			{
				"type": "unocc",
				"energy": 0.06486,
				"method": "rhf"
			},
			{
				"type": "unocc",
				"energy": 0.08837,
				"method": "rhf"
			},
			{
				"type": "unocc",
				"energy": 0.09909,
				"method": "rhf"
			},
			{
				"type": "unocc",
				"energy": 0.12031,
				"method": "rhf"
			}
		],
		"cosmo_sigma_profile": { 
			"-0.025": 0.0,
			"-0.024": 0.0,
			"-0.023": 0.0,
			"-0.022": 0.0,
			"-0.021": 0.0,
			"-0.02": 0.0,
			"-0.019": 0.0,
			"-0.018": 0.0,
			"-0.017": 0.0,
			"-0.016": 0.0,
			"-0.015": 0.0,
			"-0.014": 0.0,
			"-0.013": 0.0,
			"-0.012": 0.0,
			"-0.011": 0.0,
			"-0.01": 0.0,
			"-0.009": 0.0,
			"-0.008": 0.0,
			"-0.007": 0.0,
			"-0.006": 0.0,
			"-0.005": 1.88037752688,
			"-0.004": 7.97976474661,
			"-0.003": 19.2970911933,
			"-0.002": 38.6799674235,
			"-0.001": 46.6100805514,
			"0.0": 45.8442912738,
			"0.001": 41.2068487806,
			"0.002": 22.4785519402,
			"0.003": 7.91150724317,
			"0.004": 6.87973661831,
			"0.005": 5.46875130131,
			"0.006": 2.69312902417,
			"0.007": 3.79438195503,
			"0.008": 2.02469938512,
			"0.009": 0.0017122425444,
			"0.01": 0.0,
			"0.011": 0.0,
			"0.012": 0.0,
			"0.013": 0.0,
			"0.014": 0.0,
			"0.015": 0.0,
			"0.016": 0.0,
			"0.017": 0.0,
			"0.018": 0.0,
			"0.019": 0.0,
			"0.02": 0.0,
			"0.021": 0.0,
			"0.022": 0.0,
			"0.023": 0.0,
			"0.024": 0.0,
			"0.025": 0.0
		}
	}
}
