{
	 "smiles": "CC(=O)NCCCC1=CC=C(C=C1)C(=O)CCl", 
	 "Tm": 370.15, 
	 "num_atms": 33, 
	 "gaussian": { 
		 "optdone": 1, 
		 "sigma_profile": "yes", 
		 "theory": "DFT", 
		 "functional": "B3LYP", 
		 "basiset": "6-31G**", 
		 "properties": { 
			 "R2extent": 6377.3574, 
			 "electric_dipole_moment_norm": 5.94701395072, 
			 "electric_quadrupole_moment_norm": 14.0359330527, 
			 "total_energy": -1170.44055016, 
			 "HOMO_LUMO_gap": 0.16739, 
			 "cosmo_polarized_energy": -19.19, 
			 "cosmo_cavitation_energy": 38.37, 
			 "cosmo_dispersion_energy": -25.85, 
			 "cosmo_repulsion_energy": 2.05, 
			 "cosmo_total_nonelectrostatic_energy": 14.57, 
			 "SMD_solvation_energy": 6.69 
		},
		"coords": [
			{
				"x": 3.8427152825,
				"y": -1.6135203838,
				"z": -2.3144250264,
				"element": "C" 
			},
			{
				"x": 2.3543887295,
				"y": -1.4947553446,
				"z": -2.0146719017,
				"element": "C" 
			},
			{
				"x": 1.5162938544,
				"y": -1.4683531851,
				"z": -2.907165595,
				"element": "O" 
			},
			{
				"x": 1.9767958958,
				"y": -1.4400526461,
				"z": -0.6950157368,
				"element": "N" 
			},
			{
				"x": 2.8212356916,
				"y": -1.3476191856,
				"z": 0.484884681,
				"element": "C" 
			},
			{
				"x": 2.9683096513,
				"y": 0.0657128101,
				"z": 1.0821906359,
				"element": "C" 
			},
			{
				"x": 1.7341074626,
				"y": 0.5928482513,
				"z": 1.8495171957,
				"element": "C" 
			},
			{
				"x": 0.5064948917,
				"y": 0.8621002729,
				"z": 1.0043605307,
				"element": "C" 
			},
			{
				"x": 0.4706085952,
				"y": 1.9568835471,
				"z": 0.1241013957,
				"element": "C" 
			},
			{
				"x": -0.6454180771,
				"y": 2.2042104161,
				"z": -0.6626453581,
				"element": "C" 
			},
			{
				"x": -1.7684622029,
				"y": 1.3615904369,
				"z": -0.5975081565,
				"element": "C" 
			},
			{
				"x": -1.7448545296,
				"y": 0.2722416673,
				"z": 0.284932896,
				"element": "C" 
			},
			{
				"x": -0.6220758495,
				"y": 0.0333162064,
				"z": 1.0772746218,
				"element": "C" 
			},
			{
				"x": -2.9198167742,
				"y": 1.6676809037,
				"z": -1.4935514671,
				"element": "C" 
			},
			{
				"x": -2.9072803486,
				"y": 2.6222487639,
				"z": -2.2536536223,
				"element": "O" 
			},
			{
				"x": -4.1431406096,
				"y": 0.7452690867,
				"z": -1.5084490253,
				"element": "C" 
			},
			{
				"x": -5.1332019374,
				"y": 0.9141434097,
				"z": 0.0060571525,
				"element": "Cl" 
			},
			{
				"x": 3.9583842801,
				"y": -1.6323277472,
				"z": -3.3975825488,
				"element": "H" 
			},
			{
				"x": 4.2647270152,
				"y": -2.5335161722,
				"z": -1.8954727004,
				"element": "H" 
			},
			{
				"x": 4.4111644594,
				"y": -0.7704183442,
				"z": -1.9077079969,
				"element": "H" 
			},
			{
				"x": 0.9807805111,
				"y": -1.3062232739,
				"z": -0.5766952879,
				"element": "H" 
			},
			{
				"x": 3.8118427546,
				"y": -1.7274830777,
				"z": 0.2246984357,
				"element": "H" 
			},
			{
				"x": 2.4281785101,
				"y": -2.0265218474,
				"z": 1.2542193494,
				"element": "H" 
			},
			{
				"x": 3.2398708142,
				"y": 0.7654476937,
				"z": 0.2825297654,
				"element": "H" 
			},
			{
				"x": 3.8116533693,
				"y": 0.046386019,
				"z": 1.7846071124,
				"element": "H" 
			},
			{
				"x": 1.4802920308,
				"y": -0.1208666592,
				"z": 2.6430420389,
				"element": "H" 
			},
			{
				"x": 2.024018527,
				"y": 1.5231944842,
				"z": 2.3536684659,
				"element": "H" 
			},
			{
				"x": 1.3297798215,
				"y": 2.6198631893,
				"z": 0.059375982,
				"element": "H" 
			},
			{
				"x": -0.6752059903,
				"y": 3.0463598845,
				"z": -1.3456615809,
				"element": "H" 
			},
			{
				"x": -2.6043169948,
				"y": -0.3827168435,
				"z": 0.3776602661,
				"element": "H" 
			},
			{
				"x": -0.6261350876,
				"y": -0.8054923343,
				"z": 1.7691002491,
				"element": "H" 
			},
			{
				"x": -4.7777572688,
				"y": 1.0434543108,
				"z": -2.3405691871,
				"element": "H" 
			},
			{
				"x": -3.8684764775,
				"y": -0.307484309,
				"z": -1.595345583,
				"element": "H" 
			}
		],
		 "valence_orbital": [ 
			{
				"type": "occ",
				"energy": -0.26883,
				"method": "rhf"
			},
			{
				"type": "occ",
				"energy": -0.26288,
				"method": "rhf"
			},
			{
				"type": "occ",
				"energy": -0.25981,
				"method": "rhf"
			},
			{
				"type": "occ",
				"energy": -0.24258,
				"method": "rhf"
			},
			{
				"type": "occ",
				"energy": -0.23998,
				"method": "rhf"
			},
			{
				"type": "unocc",
				"energy": -0.07259,
				"method": "rhf"
			},
			{
				"type": "unocc",
				"energy": -0.02024,
				"method": "rhf"
			},
			{
				"type": "unocc",
				"energy": -0.00059,
				"method": "rhf"
			},
			{
				"type": "unocc",
				"energy": 0.03273,
				"method": "rhf"
			},
			{
				"type": "unocc",
				"energy": 0.04931,
				"method": "rhf"
			}
		],
		"cosmo_sigma_profile": { 
			"-0.025": 0.0,
			"-0.024": 0.0,
			"-0.023": 0.0,
			"-0.022": 0.0,
			"-0.021": 0.0,
			"-0.02": 0.0,
			"-0.019": 0.0,
			"-0.018": 0.0,
			"-0.017": 0.0,
			"-0.016": 0.0,
			"-0.015": 0.0,
			"-0.014": 0.0,
			"-0.013": 0.0,
			"-0.012": 0.0,
			"-0.011": 0.0,
			"-0.01": 0.10791496331,
			"-0.009": 2.94098154886,
			"-0.008": 4.44250655847,
			"-0.007": 6.91411489446,
			"-0.006": 15.3232998093,
			"-0.005": 30.0108290301,
			"-0.004": 32.3603518249,
			"-0.003": 27.5902449152,
			"-0.002": 22.9678633566,
			"-0.001": 26.8012327664,
			"0.0": 18.8359785188,
			"0.001": 16.1366730037,
			"0.002": 16.0338785394,
			"0.003": 19.118932663,
			"0.004": 14.6718442879,
			"0.005": 12.3483987013,
			"0.006": 4.98636798901,
			"0.007": 2.83122385548,
			"0.008": 2.52324666914,
			"0.009": 3.67197045203,
			"0.01": 4.01485544494,
			"0.011": 5.46107018119,
			"0.012": 2.60493285367,
			"0.013": 2.44861661914,
			"0.014": 5.12270582399,
			"0.015": 4.1528588611,
			"0.016": 0.496278886615,
			"0.017": 0.0,
			"0.018": 0.0,
			"0.019": 0.0,
			"0.02": 0.0,
			"0.021": 0.0,
			"0.022": 0.0,
			"0.023": 0.0,
			"0.024": 0.0,
			"0.025": 0.0
		}
	}
}
