{
	 "smiles": "FC(F)(F)C(F)(F)C(F)(F)C(F)(F)C(F)(F)C(F)(F)OC(F)(F)C(F)(F)C(F)(F)C(F)(F)C(F)(F)C(F)(F)F", 
	 "Tm": 183.15, 
	 "num_atms": 39, 
	 "gaussian": { 
		 "optdone": 1, 
		 "sigma_profile": "yes", 
		 "theory": "DFT", 
		 "functional": "B3LYP", 
		 "basiset": "6-31G**", 
		 "properties": { 
			 "R2extent": 16262.0113, 
			 "electric_dipole_moment_norm": 0.216707221846, 
			 "electric_quadrupole_moment_norm": 0.38427072488, 
			 "total_energy": -3128.24881017, 
			 "HOMO_LUMO_gap": 0.36405, 
			 "cosmo_polarized_energy": -1.7, 
			 "cosmo_cavitation_energy": 48.41, 
			 "cosmo_dispersion_energy": -30.75, 
			 "cosmo_repulsion_energy": 1.79, 
			 "cosmo_total_nonelectrostatic_energy": 19.44, 
			 "SMD_solvation_energy": 15.39 
		},
		"coords": [
			{
				"x": 2.7382695375,
				"y": 0.9931676274,
				"z": -0.8747298362,
				"element": "F" 
			},
			{
				"x": 2.1229779251,
				"y": 0.9766900733,
				"z": 0.312555816,
				"element": "C" 
			},
			{
				"x": 1.2658789753,
				"y": 2.004247348,
				"z": 0.3749290305,
				"element": "F" 
			},
			{
				"x": 3.0423325873,
				"y": 1.1121037571,
				"z": 1.2731942174,
				"element": "F" 
			},
			{
				"x": 1.3689355529,
				"y": -0.3733405702,
				"z": 0.4629838658,
				"element": "C" 
			},
			{
				"x": 2.3029732443,
				"y": -1.3481484269,
				"z": 0.5280662378,
				"element": "F" 
			},
			{
				"x": 0.6169441621,
				"y": -0.5521361182,
				"z": -0.6451772978,
				"element": "F" 
			},
			{
				"x": 0.4432520842,
				"y": -0.4490370367,
				"z": 1.7089270576,
				"element": "C" 
			},
			{
				"x": -0.6461337474,
				"y": 0.3248304373,
				"z": 1.4906717168,
				"element": "F" 
			},
			{
				"x": 1.1276173072,
				"y": 0.0522848152,
				"z": 2.7659288591,
				"element": "F" 
			},
			{
				"x": -0.0469051942,
				"y": -1.8570456321,
				"z": 2.1594142169,
				"element": "C" 
			},
			{
				"x": -0.7360827748,
				"y": -1.6622790774,
				"z": 3.3074577647,
				"element": "F" 
			},
			{
				"x": 1.0427253729,
				"y": -2.6087789046,
				"z": 2.4361882876,
				"element": "F" 
			},
			{
				"x": -0.9358617025,
				"y": -2.7160136201,
				"z": 1.2102775177,
				"element": "C" 
			},
			{
				"x": -1.1271380733,
				"y": -3.8811874383,
				"z": 1.8709570446,
				"element": "F" 
			},
			{
				"x": -0.2493309241,
				"y": -2.9660241657,
				"z": 0.0734277266,
				"element": "F" 
			},
			{
				"x": -2.3602161034,
				"y": -2.1970647844,
				"z": 0.8371021992,
				"element": "C" 
			},
			{
				"x": -2.958363978,
				"y": -1.6730722337,
				"z": 1.9249897106,
				"element": "F" 
			},
			{
				"x": -3.0842227176,
				"y": -3.2591516102,
				"z": 0.4363987716,
				"element": "F" 
			},
			{
				"x": -2.2635364023,
				"y": -1.2728588337,
				"z": -0.1904588058,
				"element": "O" 
			},
			{
				"x": -3.3584041162,
				"y": -0.4660207742,
				"z": -0.4673521527,
				"element": "C" 
			},
			{
				"x": -4.5210182291,
				"y": -1.0890596449,
				"z": -0.1892674656,
				"element": "F" 
			},
			{
				"x": -3.3170964679,
				"y": 0.6608950743,
				"z": 0.2653598427,
				"element": "F" 
			},
			{
				"x": -3.3923554287,
				"y": -0.120773307,
				"z": -1.9835054606,
				"element": "C" 
			},
			{
				"x": -3.7009719424,
				"y": -1.2655897718,
				"z": -2.6349286365,
				"element": "F" 
			},
			{
				"x": -4.3944143284,
				"y": 0.7699375053,
				"z": -2.1529190587,
				"element": "F" 
			},
			{
				"x": -2.1244420904,
				"y": 0.4366496339,
				"z": -2.7014759193,
				"element": "C" 
			},
			{
				"x": -1.1624423019,
				"y": -0.5091013681,
				"z": -2.6784696651,
				"element": "F" 
			},
			{
				"x": -2.5119443851,
				"y": 0.6411095382,
				"z": -3.986762654,
				"element": "F" 
			},
			{
				"x": -1.5427045129,
				"y": 1.7688546473,
				"z": -2.1734800471,
				"element": "C" 
			},
			{
				"x": -1.1789893023,
				"y": 1.5862399407,
				"z": -0.8799995177,
				"element": "F" 
			},
			{
				"x": -2.5034517209,
				"y": 2.7160334683,
				"z": -2.2309378381,
				"element": "F" 
			},
			{
				"x": -0.2682287668,
				"y": 2.3129331898,
				"z": -2.8898692219,
				"element": "C" 
			},
			{
				"x": 0.7377728993,
				"y": 1.4284514827,
				"z": -2.712543678,
				"element": "F" 
			},
			{
				"x": 0.0392636395,
				"y": 3.466623142,
				"z": -2.2542059682,
				"element": "F" 
			},
			{
				"x": -0.3581951402,
				"y": 2.6294258691,
				"z": -4.4058492964,
				"element": "C" 
			},
			{
				"x": 0.6818882213,
				"y": 3.3992186683,
				"z": -4.7452879921,
				"element": "F" 
			},
			{
				"x": -0.3037654038,
				"y": 1.5000685406,
				"z": -5.1213118973,
				"element": "F" 
			},
			{
				"x": -1.4916157546,
				"y": 3.2813185594,
				"z": -4.6911974741,
				"element": "F" 
			}
		],
		 "valence_orbital": [ 
			{
				"type": "occ",
				"energy": -0.39481,
				"method": "rhf"
			},
			{
				"type": "occ",
				"energy": -0.38501,
				"method": "rhf"
			},
			{
				"type": "occ",
				"energy": -0.3756,
				"method": "rhf"
			},
			{
				"type": "occ",
				"energy": -0.35879,
				"method": "rhf"
			},
			{
				"type": "occ",
				"energy": -0.35763,
				"method": "rhf"
			},
			{
				"type": "unocc",
				"energy": 0.00642,
				"method": "rhf"
			},
			{
				"type": "unocc",
				"energy": 0.01099,
				"method": "rhf"
			},
			{
				"type": "unocc",
				"energy": 0.01437,
				"method": "rhf"
			},
			{
				"type": "unocc",
				"energy": 0.01936,
				"method": "rhf"
			},
			{
				"type": "unocc",
				"energy": 0.04369,
				"method": "rhf"
			}
		],
		"cosmo_sigma_profile": { 
			"-0.025": 0.0,
			"-0.024": 0.0,
			"-0.023": 0.000450326263057,
			"-0.022": 0.0143684093617,
			"-0.021": 0.0327060577457,
			"-0.02": 0.0174509599602,
			"-0.019": 0.00460490228627,
			"-0.018": 0.00040250038298,
			"-0.017": 0.0,
			"-0.016": 0.0,
			"-0.015": 0.0,
			"-0.014": 0.000136472580188,
			"-0.013": 0.0583743257125,
			"-0.012": 0.0910202489831,
			"-0.011": 0.0207580436972,
			"-0.01": 0.0604608908516,
			"-0.009": 0.0482943301754,
			"-0.008": 0.0,
			"-0.007": 0.0,
			"-0.006": 0.0,
			"-0.005": 0.396336223099,
			"-0.004": 5.11996443369,
			"-0.003": 13.6043873283,
			"-0.002": 24.7094028497,
			"-0.001": 53.6330822916,
			"0.0": 124.288315398,
			"0.001": 158.153027252,
			"0.002": 9.38082696649,
			"0.003": 0.134702355759,
			"0.004": 0.0,
			"0.005": 0.0,
			"0.006": 0.0,
			"0.007": 0.0,
			"0.008": 0.0,
			"0.009": 0.0,
			"0.01": 0.0,
			"0.011": 0.0,
			"0.012": 0.0,
			"0.013": 0.0,
			"0.014": 0.0,
			"0.015": 0.0,
			"0.016": 0.0,
			"0.017": 0.0,
			"0.018": 0.0,
			"0.019": 0.0,
			"0.02": 0.0,
			"0.021": 0.0,
			"0.022": 0.0,
			"0.023": 0.0,
			"0.024": 0.0,
			"0.025": 0.0
		}
	}
}
