{
	 "smiles": "[O-][N+](=O)C1=CC=C(CN2C=CN=C2)C=C1", 
	 "Tm": 313.15, 
	 "num_atms": 24, 
	 "gaussian": { 
		 "optdone": 1, 
		 "sigma_profile": "yes", 
		 "theory": "DFT", 
		 "functional": "B3LYP", 
		 "basiset": "6-31G**", 
		 "properties": { 
			 "R2extent": 5295.8533, 
			 "electric_dipole_moment_norm": 4.04924103135, 
			 "electric_quadrupole_moment_norm": 27.9292672657, 
			 "total_energy": -701.078127242, 
			 "HOMO_LUMO_gap": 0.14015, 
			 "cosmo_polarized_energy": -17.19, 
			 "cosmo_cavitation_energy": 29.42, 
			 "cosmo_dispersion_energy": -21.03, 
			 "cosmo_repulsion_energy": 1.62, 
			 "cosmo_total_nonelectrostatic_energy": 10.01, 
			 "SMD_solvation_energy": 6.25 
		},
		"coords": [
			{
				"x": -3.3173230627,
				"y": 2.5654780552,
				"z": 4.7228543863,
				"element": "O" 
			},
			{
				"x": -3.0898445707,
				"y": 2.8167135719,
				"z": 3.5398985069,
				"element": "N" 
			},
			{
				"x": -3.6519342753,
				"y": 3.6950793808,
				"z": 2.8874204107,
				"element": "O" 
			},
			{
				"x": -2.0685959549,
				"y": 2.0070641721,
				"z": 2.8556874604,
				"element": "C" 
			},
			{
				"x": -1.4151091331,
				"y": 1.0035866873,
				"z": 3.5672937083,
				"element": "C" 
			},
			{
				"x": -0.4549204042,
				"y": 0.2402433164,
				"z": 2.909641262,
				"element": "C" 
			},
			{
				"x": -0.1452203085,
				"y": 0.4782248339,
				"z": 1.5636578077,
				"element": "C" 
			},
			{
				"x": 0.9481686458,
				"y": -0.3402871579,
				"z": 0.8947764622,
				"element": "C" 
			},
			{
				"x": 0.7732061939,
				"y": -0.5206635844,
				"z": -0.5361790823,
				"element": "N" 
			},
			{
				"x": -0.1946594322,
				"y": -1.2835182591,
				"z": -1.1652164072,
				"element": "C" 
			},
			{
				"x": 0.024047115,
				"y": -1.1178146617,
				"z": -2.5099769558,
				"element": "C" 
			},
			{
				"x": 1.0926228569,
				"y": -0.2771737011,
				"z": -2.7312120222,
				"element": "N" 
			},
			{
				"x": 1.5139648511,
				"y": 0.0611905022,
				"z": -1.5331376575,
				"element": "C" 
			},
			{
				"x": -0.8210224527,
				"y": 1.4935202778,
				"z": 0.8740373224,
				"element": "C" 
			},
			{
				"x": -1.7875273423,
				"y": 2.263386232,
				"z": 1.5153096414,
				"element": "C" 
			},
			{
				"x": -1.6696079961,
				"y": 0.8333612393,
				"z": 4.6058119307,
				"element": "H" 
			},
			{
				"x": 0.0573817161,
				"y": -0.5514300428,
				"z": 3.4499349411,
				"element": "H" 
			},
			{
				"x": 1.9169311083,
				"y": 0.1519804308,
				"z": 1.0403267517,
				"element": "H" 
			},
			{
				"x": 1.0219394016,
				"y": -1.321351712,
				"z": 1.376617572,
				"element": "H" 
			},
			{
				"x": -0.9246986152,
				"y": -1.8498861655,
				"z": -0.6072256755,
				"element": "H" 
			},
			{
				"x": -0.5246815997,
				"y": -1.5594394164,
				"z": -3.3303921121,
				"element": "H" 
			},
			{
				"x": 2.3501745527,
				"y": 0.7122121668,
				"z": -1.3121337697,
				"element": "H" 
			},
			{
				"x": -0.5964778148,
				"y": 1.6761413514,
				"z": -0.1717916971,
				"element": "H" 
			},
			{
				"x": -2.322713479,
				"y": 3.0510824828,
				"z": 0.9999972157,
				"element": "H" 
			}
		],
		 "valence_orbital": [ 
			{
				"type": "occ",
				"energy": -0.29017,
				"method": "rhf"
			},
			{
				"type": "occ",
				"energy": -0.28747,
				"method": "rhf"
			},
			{
				"type": "occ",
				"energy": -0.27545,
				"method": "rhf"
			},
			{
				"type": "occ",
				"energy": -0.27087,
				"method": "rhf"
			},
			{
				"type": "occ",
				"energy": -0.23551,
				"method": "rhf"
			},
			{
				"type": "unocc",
				"energy": -0.09536,
				"method": "rhf"
			},
			{
				"type": "unocc",
				"energy": -0.03809,
				"method": "rhf"
			},
			{
				"type": "unocc",
				"energy": -0.01065,
				"method": "rhf"
			},
			{
				"type": "unocc",
				"energy": 0.01574,
				"method": "rhf"
			},
			{
				"type": "unocc",
				"energy": 0.06047,
				"method": "rhf"
			}
		],
		"cosmo_sigma_profile": { 
			"-0.025": 0.0,
			"-0.024": 0.0,
			"-0.023": 0.0,
			"-0.022": 0.0,
			"-0.021": 0.0,
			"-0.02": 0.0,
			"-0.019": 0.0,
			"-0.018": 0.0,
			"-0.017": 0.0,
			"-0.016": 0.0,
			"-0.015": 0.0,
			"-0.014": 0.0,
			"-0.013": 0.0,
			"-0.012": 0.0,
			"-0.011": 0.0,
			"-0.01": 0.554043444403,
			"-0.009": 4.33472051237,
			"-0.008": 11.1342666041,
			"-0.007": 15.4267061103,
			"-0.006": 17.5324104012,
			"-0.005": 15.3602876415,
			"-0.004": 13.6217113209,
			"-0.003": 14.2786001932,
			"-0.002": 12.9738642991,
			"-0.001": 14.5084068479,
			"0.0": 15.1761562909,
			"0.001": 17.5842143584,
			"0.002": 15.8277203752,
			"0.003": 7.06205257579,
			"0.004": 5.90957352129,
			"0.005": 8.08809594556,
			"0.006": 7.97005248079,
			"0.007": 9.32245037199,
			"0.008": 9.38494737316,
			"0.009": 6.42096072627,
			"0.01": 4.67031463195,
			"0.011": 1.13989380138,
			"0.012": 0.852463720245,
			"0.013": 1.55570898858,
			"0.014": 1.18336520654,
			"0.015": 1.57899386855,
			"0.016": 0.884622312335,
			"0.017": 0.98836419921,
			"0.018": 0.986018552512,
			"0.019": 0.0109247872982,
			"0.02": 0.0,
			"0.021": 0.0,
			"0.022": 0.0,
			"0.023": 0.0,
			"0.024": 0.0,
			"0.025": 0.0
		}
	}
}
