{
	 "smiles": "CC(C=CC1=CC=CC=C1)C1=CC=CC=C1", 
	 "Tm": 320.65, 
	 "num_atms": 32, 
	 "gaussian": { 
		 "optdone": 1, 
		 "sigma_profile": "yes", 
		 "theory": "DFT", 
		 "functional": "B3LYP", 
		 "basiset": "6-31G**", 
		 "properties": { 
			 "R2extent": 5165.3484, 
			 "electric_dipole_moment_norm": 0.384565391059, 
			 "electric_quadrupole_moment_norm": 5.41274932082, 
			 "total_energy": -619.340241055, 
			 "HOMO_LUMO_gap": 0.187, 
			 "cosmo_polarized_energy": -6.31, 
			 "cosmo_cavitation_energy": 35.16, 
			 "cosmo_dispersion_energy": -24.71, 
			 "cosmo_repulsion_energy": 1.94, 
			 "cosmo_total_nonelectrostatic_energy": 12.38, 
			 "SMD_solvation_energy": 5.88 
		},
		"coords": [
			{
				"x": 2.4921323657,
				"y": -2.5173617461,
				"z": -1.8597828658,
				"element": "C" 
			},
			{
				"x": 1.932047516,
				"y": -1.957802017,
				"z": -0.5307183739,
				"element": "C" 
			},
			{
				"x": 0.4510059132,
				"y": -1.6608388157,
				"z": -0.6707784068,
				"element": "C" 
			},
			{
				"x": -0.1923048182,
				"y": -0.5520947273,
				"z": -0.2773052193,
				"element": "C" 
			},
			{
				"x": -1.6329436075,
				"y": -0.2718018283,
				"z": -0.3950379919,
				"element": "C" 
			},
			{
				"x": -2.5405023576,
				"y": -1.1175119626,
				"z": -1.0611465076,
				"element": "C" 
			},
			{
				"x": -3.893740317,
				"y": -0.8002018287,
				"z": -1.1341805868,
				"element": "C" 
			},
			{
				"x": -4.3800244001,
				"y": 0.3719826865,
				"z": -0.5469684265,
				"element": "C" 
			},
			{
				"x": -3.4945841373,
				"y": 1.2246351716,
				"z": 0.1127252775,
				"element": "C" 
			},
			{
				"x": -2.1392632169,
				"y": 0.9052864357,
				"z": 0.1846667994,
				"element": "C" 
			},
			{
				"x": 2.7688993405,
				"y": -0.7996945681,
				"z": -0.0065979565,
				"element": "C" 
			},
			{
				"x": 2.9813760206,
				"y": 0.3557615568,
				"z": -0.7748024651,
				"element": "C" 
			},
			{
				"x": 3.7692498042,
				"y": 1.401392081,
				"z": -0.2936796058,
				"element": "C" 
			},
			{
				"x": 4.3617242866,
				"y": 1.313012122,
				"z": 0.9683295869,
				"element": "C" 
			},
			{
				"x": 4.1564661914,
				"y": 0.1721149669,
				"z": 1.7441113597,
				"element": "C" 
			},
			{
				"x": 3.3662768577,
				"y": -0.8718607952,
				"z": 1.2579095619,
				"element": "C" 
			},
			{
				"x": 2.4353755308,
				"y": -1.773797638,
				"z": -2.6605281018,
				"element": "H" 
			},
			{
				"x": 3.5388733455,
				"y": -2.81398702,
				"z": -1.7444440354,
				"element": "H" 
			},
			{
				"x": 1.9208158628,
				"y": -3.3954343387,
				"z": -2.1800268355,
				"element": "H" 
			},
			{
				"x": 2.0168243546,
				"y": -2.7724680245,
				"z": 0.2054876217,
				"element": "H" 
			},
			{
				"x": -0.114124156,
				"y": -2.4746601076,
				"z": -1.1259895191,
				"element": "H" 
			},
			{
				"x": 0.3879675878,
				"y": 0.2409096272,
				"z": 0.1903970139,
				"element": "H" 
			},
			{
				"x": -2.1848088244,
				"y": -2.0285798093,
				"z": -1.5327889914,
				"element": "H" 
			},
			{
				"x": -4.5739944961,
				"y": -1.4686773997,
				"z": -1.6549005678,
				"element": "H" 
			},
			{
				"x": -5.4364691789,
				"y": 0.6169522324,
				"z": -0.6071807277,
				"element": "H" 
			},
			{
				"x": -3.8578495699,
				"y": 2.1399948087,
				"z": 0.5716684008,
				"element": "H" 
			},
			{
				"x": -1.4550195599,
				"y": 1.574255996,
				"z": 0.7008213532,
				"element": "H" 
			},
			{
				"x": 2.5207149201,
				"y": 0.4408646634,
				"z": -1.755000551,
				"element": "H" 
			},
			{
				"x": 3.9211157697,
				"y": 2.2866176948,
				"z": -0.9052381991,
				"element": "H" 
			},
			{
				"x": 4.9767278792,
				"y": 2.1266427614,
				"z": 1.3421985962,
				"element": "H" 
			},
			{
				"x": 4.6110982951,
				"y": 0.0916246332,
				"z": 2.7276546414,
				"element": "H" 
			},
			{
				"x": 3.2121367984,
				"y": -1.7582748111,
				"z": 1.8688257221,
				"element": "H" 
			}
		],
		 "valence_orbital": [ 
			{
				"type": "occ",
				"energy": -0.28734,
				"method": "rhf"
			},
			{
				"type": "occ",
				"energy": -0.24724,
				"method": "rhf"
			},
			{
				"type": "occ",
				"energy": -0.24585,
				"method": "rhf"
			},
			{
				"type": "occ",
				"energy": -0.24088,
				"method": "rhf"
			},
			{
				"type": "occ",
				"energy": -0.21275,
				"method": "rhf"
			},
			{
				"type": "unocc",
				"energy": -0.02575,
				"method": "rhf"
			},
			{
				"type": "unocc",
				"energy": -5e-05,
				"method": "rhf"
			},
			{
				"type": "unocc",
				"energy": 0.00255,
				"method": "rhf"
			},
			{
				"type": "unocc",
				"energy": 0.00509,
				"method": "rhf"
			},
			{
				"type": "unocc",
				"energy": 0.064,
				"method": "rhf"
			}
		],
		"cosmo_sigma_profile": { 
			"-0.025": 0.0,
			"-0.024": 0.0,
			"-0.023": 0.0,
			"-0.022": 0.0,
			"-0.021": 0.0,
			"-0.02": 0.0,
			"-0.019": 0.0,
			"-0.018": 0.0,
			"-0.017": 0.0,
			"-0.016": 0.0,
			"-0.015": 0.0,
			"-0.014": 0.0,
			"-0.013": 0.0,
			"-0.012": 0.0,
			"-0.011": 0.0,
			"-0.01": 0.0,
			"-0.009": 0.0,
			"-0.008": 0.0,
			"-0.007": 0.210967544974,
			"-0.006": 6.3004601142,
			"-0.005": 22.8442542803,
			"-0.004": 28.8498956175,
			"-0.003": 31.9835041711,
			"-0.002": 23.9276046698,
			"-0.001": 23.2595745662,
			"0.0": 19.8994722972,
			"0.001": 22.8056704094,
			"0.002": 17.0384710547,
			"0.003": 19.9050492671,
			"0.004": 19.957164318,
			"0.005": 21.4801572046,
			"0.006": 18.2848980808,
			"0.007": 2.83759093194,
			"0.008": 0.0,
			"0.009": 0.0,
			"0.01": 0.0,
			"0.011": 0.0,
			"0.012": 0.0,
			"0.013": 0.0,
			"0.014": 0.0,
			"0.015": 0.0,
			"0.016": 0.0,
			"0.017": 0.0,
			"0.018": 0.0,
			"0.019": 0.0,
			"0.02": 0.0,
			"0.021": 0.0,
			"0.022": 0.0,
			"0.023": 0.0,
			"0.024": 0.0,
			"0.025": 0.0
		}
	}
}
