{
	 "smiles": "CCCCCCCCCCCl", 
	 "Tm": 242.05, 
	 "num_atms": 32, 
	 "gaussian": { 
		 "optdone": 1, 
		 "sigma_profile": "yes", 
		 "theory": "DFT", 
		 "functional": "B3LYP", 
		 "basiset": "6-31G**", 
		 "properties": { 
			 "R2extent": 3816.3922, 
			 "electric_dipole_moment_norm": 2.59916803805, 
			 "electric_quadrupole_moment_norm": 12.3287035486, 
			 "total_energy": -853.945488474, 
			 "HOMO_LUMO_gap": 0.31122, 
			 "cosmo_polarized_energy": -4.05, 
			 "cosmo_cavitation_energy": 33.89, 
			 "cosmo_dispersion_energy": -23.17, 
			 "cosmo_repulsion_energy": 1.94, 
			 "cosmo_total_nonelectrostatic_energy": 12.66, 
			 "SMD_solvation_energy": 4.4 
		},
		"coords": [
			{
				"x": -0.1644150718,
				"y": -0.498489036,
				"z": 3.9436948319,
				"element": "C" 
			},
			{
				"x": -1.0206018058,
				"y": -0.5645568908,
				"z": 2.6745269696,
				"element": "C" 
			},
			{
				"x": -1.7070221328,
				"y": 0.7686410235,
				"z": 2.3460024062,
				"element": "C" 
			},
			{
				"x": -2.6550429121,
				"y": 0.7248770972,
				"z": 1.1343112587,
				"element": "C" 
			},
			{
				"x": -2.0071252821,
				"y": 0.3951525194,
				"z": -0.2226861784,
				"element": "C" 
			},
			{
				"x": -0.9921781791,
				"y": 1.4400483321,
				"z": -0.7116018473,
				"element": "C" 
			},
			{
				"x": -0.4356406338,
				"y": 1.1593919419,
				"z": -2.1213464725,
				"element": "C" 
			},
			{
				"x": 0.5308839007,
				"y": -0.0404905113,
				"z": -2.2483053864,
				"element": "C" 
			},
			{
				"x": 2.0314552501,
				"y": 0.2854341914,
				"z": -2.1045516621,
				"element": "C" 
			},
			{
				"x": 2.434646767,
				"y": 0.7792670825,
				"z": -0.720810839,
				"element": "C" 
			},
			{
				"x": 4.2378935195,
				"y": 1.019395635,
				"z": -0.6015648871,
				"element": "Cl" 
			},
			{
				"x": 0.6279994751,
				"y": 0.2529071416,
				"z": 3.8490737351,
				"element": "H" 
			},
			{
				"x": 0.3141479073,
				"y": -1.4601256253,
				"z": 4.1560410232,
				"element": "H" 
			},
			{
				"x": -0.7704327627,
				"y": -0.2284202524,
				"z": 4.8160693787,
				"element": "H" 
			},
			{
				"x": -0.3910997404,
				"y": -0.8795471844,
				"z": 1.8320355167,
				"element": "H" 
			},
			{
				"x": -1.7854909382,
				"y": -1.3453632073,
				"z": 2.787962931,
				"element": "H" 
			},
			{
				"x": -2.2855978124,
				"y": 1.0898755832,
				"z": 3.2228898044,
				"element": "H" 
			},
			{
				"x": -0.9417077078,
				"y": 1.5427875971,
				"z": 2.198519812,
				"element": "H" 
			},
			{
				"x": -3.1654534651,
				"y": 1.6943519806,
				"z": 1.0526020388,
				"element": "H" 
			},
			{
				"x": -3.4427199225,
				"y": -0.014608659,
				"z": 1.3333480255,
				"element": "H" 
			},
			{
				"x": -2.8046001618,
				"y": 0.3081464663,
				"z": -0.9734028623,
				"element": "H" 
			},
			{
				"x": -1.5360656788,
				"y": -0.594791857,
				"z": -0.1750457933,
				"element": "H" 
			},
			{
				"x": -1.4829625197,
				"y": 2.4229752288,
				"z": -0.7208159977,
				"element": "H" 
			},
			{
				"x": -0.1697447853,
				"y": 1.5248877009,
				"z": 0.0090098605,
				"element": "H" 
			},
			{
				"x": 0.0673659225,
				"y": 2.0598314403,
				"z": -2.4992665501,
				"element": "H" 
			},
			{
				"x": -1.2900421273,
				"y": 0.9967372765,
				"z": -2.7912171588,
				"element": "H" 
			},
			{
				"x": 0.2566042934,
				"y": -0.8255442258,
				"z": -1.5314866432,
				"element": "H" 
			},
			{
				"x": 0.4046672754,
				"y": -0.4923764302,
				"z": -3.2392238267,
				"element": "H" 
			},
			{
				"x": 2.6137335069,
				"y": -0.6144419889,
				"z": -2.3325523138,
				"element": "H" 
			},
			{
				"x": 2.3167203335,
				"y": 1.0395655576,
				"z": -2.8478629634,
				"element": "H" 
			},
			{
				"x": 2.173774227,
				"y": 0.061828735,
				"z": 0.0601425492,
				"element": "H" 
			},
			{
				"x": 1.9942512612,
				"y": 1.7459533375,
				"z": -0.4763887594,
				"element": "H" 
			}
		],
		 "valence_orbital": [ 
			{
				"type": "occ",
				"energy": -0.31338,
				"method": "rhf"
			},
			{
				"type": "occ",
				"energy": -0.30991,
				"method": "rhf"
			},
			{
				"type": "occ",
				"energy": -0.30812,
				"method": "rhf"
			},
			{
				"type": "occ",
				"energy": -0.28931,
				"method": "rhf"
			},
			{
				"type": "occ",
				"energy": -0.288,
				"method": "rhf"
			},
			{
				"type": "unocc",
				"energy": 0.02322,
				"method": "rhf"
			},
			{
				"type": "unocc",
				"energy": 0.0697,
				"method": "rhf"
			},
			{
				"type": "unocc",
				"energy": 0.09468,
				"method": "rhf"
			},
			{
				"type": "unocc",
				"energy": 0.09556,
				"method": "rhf"
			},
			{
				"type": "unocc",
				"energy": 0.09974,
				"method": "rhf"
			}
		],
		"cosmo_sigma_profile": { 
			"-0.025": 0.0,
			"-0.024": 0.0,
			"-0.023": 0.0,
			"-0.022": 0.0,
			"-0.021": 0.0,
			"-0.02": 0.0,
			"-0.019": 0.0,
			"-0.018": 0.0,
			"-0.017": 0.0,
			"-0.016": 0.0,
			"-0.015": 0.0,
			"-0.014": 0.0,
			"-0.013": 0.0,
			"-0.012": 0.0,
			"-0.011": 0.0,
			"-0.01": 0.0,
			"-0.009": 0.0,
			"-0.008": 0.0,
			"-0.007": 0.0404459163896,
			"-0.006": 2.50791852941,
			"-0.005": 4.02487721277,
			"-0.004": 7.87615671354,
			"-0.003": 19.8232908601,
			"-0.002": 39.2699598275,
			"-0.001": 48.1260675464,
			"0.0": 48.2596021754,
			"0.001": 43.2033753779,
			"0.002": 18.3955758918,
			"0.003": 4.16331248836,
			"0.004": 4.65134810967,
			"0.005": 4.69626147304,
			"0.006": 6.48996188969,
			"0.007": 10.2916086052,
			"0.008": 0.892291197833,
			"0.009": 0.0,
			"0.01": 0.0,
			"0.011": 0.0,
			"0.012": 0.0,
			"0.013": 0.0,
			"0.014": 0.0,
			"0.015": 0.0,
			"0.016": 0.0,
			"0.017": 0.0,
			"0.018": 0.0,
			"0.019": 0.0,
			"0.02": 0.0,
			"0.021": 0.0,
			"0.022": 0.0,
			"0.023": 0.0,
			"0.024": 0.0,
			"0.025": 0.0
		}
	}
}
