{
	 "smiles": "O=C(N1CCNCC1)C1=CNC(=O)N1", 
	 "Tm": 543.15, 
	 "num_atms": 26, 
	 "gaussian": { 
		 "optdone": 1, 
		 "sigma_profile": "yes", 
		 "theory": "DFT", 
		 "functional": "B3LYP", 
		 "basiset": "6-31G**", 
		 "properties": { 
			 "R2extent": 3702.4709, 
			 "electric_dipole_moment_norm": 1.91334045324, 
			 "electric_quadrupole_moment_norm": 22.3632259419, 
			 "total_energy": -681.548661478, 
			 "HOMO_LUMO_gap": 0.18249, 
			 "cosmo_polarized_energy": -22.79, 
			 "cosmo_cavitation_energy": 28.74, 
			 "cosmo_dispersion_energy": -21.22, 
			 "cosmo_repulsion_energy": 1.68, 
			 "cosmo_total_nonelectrostatic_energy": 9.2, 
			 "SMD_solvation_energy": 3.01 
		},
		"coords": [
			{
				"x": -1.5459319503,
				"y": 1.0464798622,
				"z": -1.4016361004,
				"element": "O" 
			},
			{
				"x": -1.1648269663,
				"y": 0.8901263633,
				"z": -0.2409802764,
				"element": "C" 
			},
			{
				"x": -1.0967080026,
				"y": 1.9357359117,
				"z": 0.6637920536,
				"element": "N" 
			},
			{
				"x": -0.1047761993,
				"y": 2.0292027198,
				"z": 1.7430888921,
				"element": "C" 
			},
			{
				"x": 1.0353033514,
				"y": 2.9920671118,
				"z": 1.3495205509,
				"element": "C" 
			},
			{
				"x": 0.580641163,
				"y": 4.3022035716,
				"z": 0.8876058648,
				"element": "N" 
			},
			{
				"x": -0.4327564182,
				"y": 4.1749966277,
				"z": -0.1649815432,
				"element": "C" 
			},
			{
				"x": -1.5936619235,
				"y": 3.2443375044,
				"z": 0.2190564458,
				"element": "C" 
			},
			{
				"x": -0.8329605693,
				"y": -0.4722083027,
				"z": 0.2306353834,
				"element": "C" 
			},
			{
				"x": -0.4653979494,
				"y": -1.5067003437,
				"z": -0.5706226831,
				"element": "C" 
			},
			{
				"x": -0.2907997773,
				"y": -2.6223009433,
				"z": 0.2266373442,
				"element": "N" 
			},
			{
				"x": -0.5847974563,
				"y": -2.3417242227,
				"z": 1.5651133114,
				"element": "C" 
			},
			{
				"x": -0.5843782505,
				"y": -3.1069666505,
				"z": 2.5142610481,
				"element": "O" 
			},
			{
				"x": -0.8741511786,
				"y": -0.979608936,
				"z": 1.5426319213,
				"element": "N" 
			},
			{
				"x": 0.3051045022,
				"y": 1.0434936518,
				"z": 1.9651954867,
				"element": "H" 
			},
			{
				"x": -0.605255735,
				"y": 2.401650059,
				"z": 2.6494859331,
				"element": "H" 
			},
			{
				"x": 1.6156499774,
				"y": 2.5300526836,
				"z": 0.5397310466,
				"element": "H" 
			},
			{
				"x": 1.7121477567,
				"y": 3.1261530306,
				"z": 2.2010015903,
				"element": "H" 
			},
			{
				"x": 0.1881770447,
				"y": 4.8192923994,
				"z": 1.6728472241,
				"element": "H" 
			},
			{
				"x": 0.0544778435,
				"y": 3.7755992122,
				"z": -1.062980653,
				"element": "H" 
			},
			{
				"x": -0.8139706283,
				"y": 5.1714070724,
				"z": -0.4138305358,
				"element": "H" 
			},
			{
				"x": -2.2648116409,
				"y": 3.0791348875,
				"z": -0.6241930343,
				"element": "H" 
			},
			{
				"x": -2.1633361141,
				"y": 3.6856586127,
				"z": 1.0498479069,
				"element": "H" 
			},
			{
				"x": -0.3110004334,
				"y": -1.5066749016,
				"z": -1.6372707493,
				"element": "H" 
			},
			{
				"x": -0.0361397668,
				"y": -3.5487145672,
				"z": -0.0756556926,
				"element": "H" 
			},
			{
				"x": -1.3113406787,
				"y": -0.533892414,
				"z": 2.3329992646,
				"element": "H" 
			}
		],
		 "valence_orbital": [ 
			{
				"type": "occ",
				"energy": -0.27186,
				"method": "rhf"
			},
			{
				"type": "occ",
				"energy": -0.26786,
				"method": "rhf"
			},
			{
				"type": "occ",
				"energy": -0.25462,
				"method": "rhf"
			},
			{
				"type": "occ",
				"energy": -0.21659,
				"method": "rhf"
			},
			{
				"type": "occ",
				"energy": -0.20721,
				"method": "rhf"
			},
			{
				"type": "unocc",
				"energy": -0.02472,
				"method": "rhf"
			},
			{
				"type": "unocc",
				"energy": 0.05749,
				"method": "rhf"
			},
			{
				"type": "unocc",
				"energy": 0.06291,
				"method": "rhf"
			},
			{
				"type": "unocc",
				"energy": 0.07699,
				"method": "rhf"
			},
			{
				"type": "unocc",
				"energy": 0.09023,
				"method": "rhf"
			}
		],
		"cosmo_sigma_profile": { 
			"-0.025": 0.0,
			"-0.024": 0.0,
			"-0.023": 0.0,
			"-0.022": 0.0,
			"-0.021": 0.0,
			"-0.02": 0.0,
			"-0.019": 0.0,
			"-0.018": 0.0,
			"-0.017": 0.362838002142,
			"-0.016": 1.93686595788,
			"-0.015": 1.86890762918,
			"-0.014": 2.87166744652,
			"-0.013": 1.48392457003,
			"-0.012": 0.932958706929,
			"-0.011": 2.13997165977,
			"-0.01": 3.8039642456,
			"-0.009": 6.40787459704,
			"-0.008": 5.49998269326,
			"-0.007": 6.20902499166,
			"-0.006": 5.04011776397,
			"-0.005": 11.9569170676,
			"-0.004": 24.5744410052,
			"-0.003": 21.0639184813,
			"-0.002": 15.9726508521,
			"-0.001": 14.7926117406,
			"0.0": 14.4430575842,
			"0.001": 13.2218242633,
			"0.002": 8.83516785395,
			"0.003": 5.88509329088,
			"0.004": 3.85216499594,
			"0.005": 5.01133453841,
			"0.006": 2.97640658997,
			"0.007": 3.13273598584,
			"0.008": 4.54963075107,
			"0.009": 2.66370927051,
			"0.01": 2.9345781977,
			"0.011": 4.19636096807,
			"0.012": 3.86021067327,
			"0.013": 6.87554115374,
			"0.014": 12.2601779317,
			"0.015": 2.61398131989,
			"0.016": 0.748496460027,
			"0.017": 0.513538930687,
			"0.018": 0.408987444883,
			"0.019": 0.0396181652646,
			"0.02": 0.0,
			"0.021": 0.0,
			"0.022": 0.0,
			"0.023": 0.0,
			"0.024": 0.0,
			"0.025": 0.0
		}
	}
}
