{
	 "smiles": "NC1=NC(=O)NC=C1F", 
	 "Tm": 569.15, 
	 "num_atms": 13, 
	 "gaussian": { 
		 "optdone": 1, 
		 "sigma_profile": "yes", 
		 "theory": "DFT", 
		 "functional": "B3LYP", 
		 "basiset": "6-31G**", 
		 "properties": { 
			 "R2extent": 1464.7707, 
			 "electric_dipole_moment_norm": 5.13641316387, 
			 "electric_quadrupole_moment_norm": 28.222442991, 
			 "total_energy": -494.15531625, 
			 "HOMO_LUMO_gap": 0.18746, 
			 "cosmo_polarized_energy": -21.29, 
			 "cosmo_cavitation_energy": 18.21, 
			 "cosmo_dispersion_energy": -13.91, 
			 "cosmo_repulsion_energy": 1.14, 
			 "cosmo_total_nonelectrostatic_energy": 5.44, 
			 "SMD_solvation_energy": 3.35 
		},
		"coords": [
			{
				"x": 0.1638371819,
				"y": 0.3477997502,
				"z": 2.902730333,
				"element": "N" 
			},
			{
				"x": 0.706719861,
				"y": 0.3175857848,
				"z": 1.6628462,
				"element": "C" 
			},
			{
				"x": 1.9837222415,
				"y": 0.03388769,
				"z": 1.5202540474,
				"element": "N" 
			},
			{
				"x": 2.559699493,
				"y": -0.0160963233,
				"z": 0.2691960678,
				"element": "C" 
			},
			{
				"x": 3.7301796603,
				"y": -0.2706503676,
				"z": 0.0408702294,
				"element": "O" 
			},
			{
				"x": 1.6959023877,
				"y": 0.2570059859,
				"z": -0.8333068243,
				"element": "N" 
			},
			{
				"x": 0.3729453835,
				"y": 0.5562451583,
				"z": -0.7019787022,
				"element": "C" 
			},
			{
				"x": -0.1531245388,
				"y": 0.5934725979,
				"z": 0.5421031201,
				"element": "C" 
			},
			{
				"x": -1.4582262241,
				"y": 0.8842873952,
				"z": 0.7678032811,
				"element": "F" 
			},
			{
				"x": -0.7950677865,
				"y": 0.6187748509,
				"z": 3.0385557329,
				"element": "H" 
			},
			{
				"x": 0.7711687736,
				"y": 0.1986841371,
				"z": 3.6926755064,
				"element": "H" 
			},
			{
				"x": 2.1345010914,
				"y": 0.2172946232,
				"z": -1.7428579173,
				"element": "H" 
			},
			{
				"x": -0.2099575245,
				"y": 0.7533087176,
				"z": -1.5939910742,
				"element": "H" 
			}
		],
		 "valence_orbital": [ 
			{
				"type": "occ",
				"energy": -0.34298,
				"method": "rhf"
			},
			{
				"type": "occ",
				"energy": -0.27192,
				"method": "rhf"
			},
			{
				"type": "occ",
				"energy": -0.2579,
				"method": "rhf"
			},
			{
				"type": "occ",
				"energy": -0.25011,
				"method": "rhf"
			},
			{
				"type": "occ",
				"energy": -0.2263,
				"method": "rhf"
			},
			{
				"type": "unocc",
				"energy": -0.03884,
				"method": "rhf"
			},
			{
				"type": "unocc",
				"energy": 0.02486,
				"method": "rhf"
			},
			{
				"type": "unocc",
				"energy": 0.05606,
				"method": "rhf"
			},
			{
				"type": "unocc",
				"energy": 0.07703,
				"method": "rhf"
			},
			{
				"type": "unocc",
				"energy": 0.12471,
				"method": "rhf"
			}
		],
		"cosmo_sigma_profile": { 
			"-0.025": 0.0,
			"-0.024": 0.0,
			"-0.023": 0.0,
			"-0.022": 0.0,
			"-0.021": 0.0,
			"-0.02": 0.0,
			"-0.019": 0.0,
			"-0.018": 0.0,
			"-0.017": 0.0937861829386,
			"-0.016": 1.3673808597,
			"-0.015": 1.68906313555,
			"-0.014": 3.58331721848,
			"-0.013": 3.30034382837,
			"-0.012": 3.19397003063,
			"-0.011": 5.2769985841,
			"-0.01": 4.76432550211,
			"-0.009": 4.23530784996,
			"-0.008": 3.58302018664,
			"-0.007": 3.08744285667,
			"-0.006": 3.93891354676,
			"-0.005": 3.69216234752,
			"-0.004": 2.92582411591,
			"-0.003": 7.05632558028,
			"-0.002": 9.41263425894,
			"-0.001": 11.7959187759,
			"0.0": 10.2333897412,
			"0.001": 6.98174272799,
			"0.002": 6.56947437242,
			"0.003": 8.28586361782,
			"0.004": 6.73878365082,
			"0.005": 2.05791155169,
			"0.006": 1.68510456011,
			"0.007": 2.069321155,
			"0.008": 1.5871706161,
			"0.009": 1.82742595222,
			"0.01": 1.19966800447,
			"0.011": 2.17389348744,
			"0.012": 2.63754868277,
			"0.013": 3.44959840251,
			"0.014": 6.78286701719,
			"0.015": 4.45955553747,
			"0.016": 3.01700886854,
			"0.017": 1.05461417872,
			"0.018": 0.0,
			"0.019": 0.0,
			"0.02": 0.0,
			"0.021": 0.0,
			"0.022": 0.0,
			"0.023": 0.0,
			"0.024": 0.0,
			"0.025": 0.0
		}
	}
}
