{
	 "smiles": "OC(=O)C1=CN=C(C=C1)C#N", 
	 "Tm": 464.65, 
	 "num_atms": 15, 
	 "gaussian": { 
		 "optdone": 1, 
		 "sigma_profile": "yes", 
		 "theory": "DFT", 
		 "functional": "B3LYP", 
		 "basiset": "6-31G**", 
		 "properties": { 
			 "R2extent": 2573.1249, 
			 "electric_dipole_moment_norm": 4.66298090281, 
			 "electric_quadrupole_moment_norm": 20.0486702025, 
			 "total_energy": -529.078611962, 
			 "HOMO_LUMO_gap": 0.18872, 
			 "cosmo_polarized_energy": -20.8, 
			 "cosmo_cavitation_energy": 21.81, 
			 "cosmo_dispersion_energy": -15.53, 
			 "cosmo_repulsion_energy": 1.24, 
			 "cosmo_total_nonelectrostatic_energy": 7.53, 
			 "SMD_solvation_energy": 5.06 
		},
		"coords": [
			{
				"x": 2.9873834356,
				"y": -2.0137113422,
				"z": 1.7345861368,
				"element": "O" 
			},
			{
				"x": 2.8590259808,
				"y": -2.0349867028,
				"z": 0.3835056011,
				"element": "C" 
			},
			{
				"x": 3.7001011253,
				"y": -2.5600393282,
				"z": -0.3040271868,
				"element": "O" 
			},
			{
				"x": 1.6403603634,
				"y": -1.3750605367,
				"z": -0.1928432981,
				"element": "C" 
			},
			{
				"x": 1.2356967601,
				"y": -1.7549180598,
				"z": -1.4845076423,
				"element": "C" 
			},
			{
				"x": 0.1809975865,
				"y": -1.2406187493,
				"z": -2.1122959724,
				"element": "N" 
			},
			{
				"x": -0.5154905995,
				"y": -0.2880390859,
				"z": -1.4663840806,
				"element": "C" 
			},
			{
				"x": -0.1899925501,
				"y": 0.1850320186,
				"z": -0.1883087318,
				"element": "C" 
			},
			{
				"x": 0.9093986809,
				"y": -0.3751905403,
				"z": 0.4554615982,
				"element": "C" 
			},
			{
				"x": -1.6559773136,
				"y": 0.2646655608,
				"z": -2.1571787971,
				"element": "C" 
			},
			{
				"x": -2.5817454619,
				"y": 0.7309926194,
				"z": -2.6820078019,
				"element": "N" 
			},
			{
				"x": 2.1669742705,
				"y": -1.7241355203,
				"z": 2.156997031,
				"element": "H" 
			},
			{
				"x": 1.8051665954,
				"y": -2.513720521,
				"z": -2.0139729597,
				"element": "H" 
			},
			{
				"x": -0.779855517,
				"y": 0.9689236899,
				"z": 0.2730339654,
				"element": "H" 
			},
			{
				"x": 1.2007566436,
				"y": -0.0046935021,
				"z": 1.4349421384,
				"element": "H" 
			}
		],
		 "valence_orbital": [ 
			{
				"type": "occ",
				"energy": -0.34196,
				"method": "rhf"
			},
			{
				"type": "occ",
				"energy": -0.33433,
				"method": "rhf"
			},
			{
				"type": "occ",
				"energy": -0.31065,
				"method": "rhf"
			},
			{
				"type": "occ",
				"energy": -0.29894,
				"method": "rhf"
			},
			{
				"type": "occ",
				"energy": -0.29139,
				"method": "rhf"
			},
			{
				"type": "unocc",
				"energy": -0.10267,
				"method": "rhf"
			},
			{
				"type": "unocc",
				"energy": -0.06735,
				"method": "rhf"
			},
			{
				"type": "unocc",
				"energy": -0.0068,
				"method": "rhf"
			},
			{
				"type": "unocc",
				"energy": 0.01486,
				"method": "rhf"
			},
			{
				"type": "unocc",
				"energy": 0.03638,
				"method": "rhf"
			}
		],
		"cosmo_sigma_profile": { 
			"-0.025": 0.0,
			"-0.024": 0.0,
			"-0.023": 0.0,
			"-0.022": 0.0,
			"-0.021": 0.0,
			"-0.02": 0.478031586329,
			"-0.019": 1.31783664237,
			"-0.018": 1.26795441725,
			"-0.017": 1.0145519083,
			"-0.016": 1.4154412307,
			"-0.015": 0.918536564342,
			"-0.014": 0.857026471958,
			"-0.013": 1.29129277868,
			"-0.012": 1.37176536409,
			"-0.011": 1.73548038494,
			"-0.01": 3.45083780082,
			"-0.009": 5.92447404506,
			"-0.008": 6.01687576644,
			"-0.007": 5.91508572634,
			"-0.006": 5.43950636614,
			"-0.005": 7.46028724414,
			"-0.004": 9.7516993617,
			"-0.003": 15.0076452218,
			"-0.002": 12.9032024255,
			"-0.001": 8.22060895872,
			"0.0": 5.45651134736,
			"0.001": 6.77546582549,
			"0.002": 5.81301933988,
			"0.003": 5.83446078706,
			"0.004": 5.18748455189,
			"0.005": 6.44373194313,
			"0.006": 7.07981015262,
			"0.007": 7.103411418,
			"0.008": 7.18440293038,
			"0.009": 7.32519024935,
			"0.01": 9.37000653638,
			"0.011": 7.81777334091,
			"0.012": 3.53577193395,
			"0.013": 0.788816741894,
			"0.014": 0.0,
			"0.015": 0.0,
			"0.016": 0.0,
			"0.017": 0.0,
			"0.018": 0.0,
			"0.019": 0.0,
			"0.02": 0.0,
			"0.021": 0.0,
			"0.022": 0.0,
			"0.023": 0.0,
			"0.024": 0.0,
			"0.025": 0.0
		}
	}
}
