{
	 "smiles": "C1C=CC2C3CC(C=C3)C12", 
	 "Tm": 306.75, 
	 "num_atms": 22, 
	 "gaussian": { 
		 "optdone": 1, 
		 "sigma_profile": "yes", 
		 "theory": "DFT", 
		 "functional": "B3LYP", 
		 "basiset": "6-31G**", 
		 "properties": { 
			 "R2extent": 1289.693, 
			 "electric_dipole_moment_norm": 0.240645403031, 
			 "electric_quadrupole_moment_norm": 2.28326429701, 
			 "total_energy": -388.240536225, 
			 "HOMO_LUMO_gap": 0.2443, 
			 "cosmo_polarized_energy": -1.93, 
			 "cosmo_cavitation_energy": 22.2, 
			 "cosmo_dispersion_energy": -17.17, 
			 "cosmo_repulsion_energy": 1.39, 
			 "cosmo_total_nonelectrostatic_energy": 6.42, 
			 "SMD_solvation_energy": 2.93 
		},
		"coords": [
			{
				"x": 1.3075037993,
				"y": -1.1932045906,
				"z": -0.3501365682,
				"element": "C" 
			},
			{
				"x": 2.4211325393,
				"y": -0.3016597026,
				"z": 0.1467774002,
				"element": "C" 
			},
			{
				"x": 2.04098915,
				"y": 0.4743664825,
				"z": 1.1655579556,
				"element": "C" 
			},
			{
				"x": 0.5976449677,
				"y": 0.2734951367,
				"z": 1.5512808555,
				"element": "C" 
			},
			{
				"x": -0.3614212373,
				"y": 1.4893539429,
				"z": 1.2423728437,
				"element": "C" 
			},
			{
				"x": -0.5329555993,
				"y": 1.3426525386,
				"z": -0.2871585874,
				"element": "C" 
			},
			{
				"x": -1.0896934325,
				"y": -0.0985121548,
				"z": -0.1858447872,
				"element": "C" 
			},
			{
				"x": -2.1773995943,
				"y": 0.1107047616,
				"z": 0.861980507,
				"element": "C" 
			},
			{
				"x": -1.7447345003,
				"y": 1.0532236916,
				"z": 1.7106842244,
				"element": "C" 
			},
			{
				"x": 0.0885822441,
				"y": -0.8315094136,
				"z": 0.5477968977,
				"element": "C" 
			},
			{
				"x": 1.0991337121,
				"y": -1.0233756846,
				"z": -1.4164530987,
				"element": "H" 
			},
			{
				"x": 1.574369826,
				"y": -2.2549998398,
				"z": -0.2621928474,
				"element": "H" 
			},
			{
				"x": 3.4146777311,
				"y": -0.3085181191,
				"z": -0.2943608543,
				"element": "H" 
			},
			{
				"x": 2.6826021508,
				"y": 1.1902677657,
				"z": 1.6730831098,
				"element": "H" 
			},
			{
				"x": 0.5011493936,
				"y": -0.0176233343,
				"z": 2.6038255739,
				"element": "H" 
			},
			{
				"x": -0.0016160673,
				"y": 2.4507989025,
				"z": 1.6168161548,
				"element": "H" 
			},
			{
				"x": -1.2613784007,
				"y": 2.046587886,
				"z": -0.6986309942,
				"element": "H" 
			},
			{
				"x": 0.4073536005,
				"y": 1.4190841801,
				"z": -0.8410754881,
				"element": "H" 
			},
			{
				"x": -1.4020916493,
				"y": -0.5805542817,
				"z": -1.1157783742,
				"element": "H" 
			},
			{
				"x": -3.0774035162,
				"y": -0.4892909503,
				"z": 0.9482905118,
				"element": "H" 
			},
			{
				"x": -2.2195685226,
				"y": 1.3794548645,
				"z": 2.6302142027,
				"element": "H" 
			},
			{
				"x": -0.2817765947,
				"y": -1.7190420815,
				"z": 1.0666513627,
				"element": "H" 
			}
		],
		 "valence_orbital": [ 
			{
				"type": "occ",
				"energy": -0.31987,
				"method": "rhf"
			},
			{
				"type": "occ",
				"energy": -0.31109,
				"method": "rhf"
			},
			{
				"type": "occ",
				"energy": -0.30075,
				"method": "rhf"
			},
			{
				"type": "occ",
				"energy": -0.24156,
				"method": "rhf"
			},
			{
				"type": "occ",
				"energy": -0.22431,
				"method": "rhf"
			},
			{
				"type": "unocc",
				"energy": 0.01999,
				"method": "rhf"
			},
			{
				"type": "unocc",
				"energy": 0.03139,
				"method": "rhf"
			},
			{
				"type": "unocc",
				"energy": 0.10259,
				"method": "rhf"
			},
			{
				"type": "unocc",
				"energy": 0.11476,
				"method": "rhf"
			},
			{
				"type": "unocc",
				"energy": 0.13537,
				"method": "rhf"
			}
		],
		"cosmo_sigma_profile": { 
			"-0.025": 0.0,
			"-0.024": 0.0,
			"-0.023": 0.0,
			"-0.022": 0.0,
			"-0.021": 0.0,
			"-0.02": 0.0,
			"-0.019": 0.0,
			"-0.018": 0.0,
			"-0.017": 0.0,
			"-0.016": 0.0,
			"-0.015": 0.0,
			"-0.014": 0.0,
			"-0.013": 0.0,
			"-0.012": 0.0,
			"-0.011": 0.0,
			"-0.01": 0.0,
			"-0.009": 0.0,
			"-0.008": 0.0,
			"-0.007": 0.0,
			"-0.006": 0.0833332851307,
			"-0.005": 4.11797251123,
			"-0.004": 7.73799110953,
			"-0.003": 14.1452985539,
			"-0.002": 22.8678891675,
			"-0.001": 29.0186023488,
			"0.0": 32.265410319,
			"0.001": 22.7511011856,
			"0.002": 14.0977109896,
			"0.003": 8.2694064011,
			"0.004": 6.67444776989,
			"0.005": 5.52539463603,
			"0.006": 3.68585705443,
			"0.007": 2.22174917716,
			"0.008": 0.303467661046,
			"0.009": 0.0,
			"0.01": 0.0,
			"0.011": 0.0,
			"0.012": 0.0,
			"0.013": 0.0,
			"0.014": 0.0,
			"0.015": 0.0,
			"0.016": 0.0,
			"0.017": 0.0,
			"0.018": 0.0,
			"0.019": 0.0,
			"0.02": 0.0,
			"0.021": 0.0,
			"0.022": 0.0,
			"0.023": 0.0,
			"0.024": 0.0,
			"0.025": 0.0
		}
	}
}
