{
	 "smiles": "FC1=C2OCC(=O)C2=CC(Br)=C1", 
	 "Tm": 376.15, 
	 "num_atms": 16, 
	 "gaussian": { 
		 "optdone": 1, 
		 "sigma_profile": "yes", 
		 "theory": "DFT", 
		 "functional": "B3LYP", 
		 "basiset": "6-31G**", 
		 "properties": { 
			 "R2extent": 3439.5461, 
			 "electric_dipole_moment_norm": 1.29939153837, 
			 "electric_quadrupole_moment_norm": 8.7358833274, 
			 "total_energy": -3128.92594342, 
			 "HOMO_LUMO_gap": 0.16276, 
			 "cosmo_polarized_energy": -8.34, 
			 "cosmo_cavitation_energy": 23.98, 
			 "cosmo_dispersion_energy": -18.14, 
			 "cosmo_repulsion_energy": 1.42, 
			 "cosmo_total_nonelectrostatic_energy": 7.26, 
			 "SMD_solvation_energy": 4.39 
		},
		"coords": [
			{
				"x": -1.8381911018,
				"y": -1.8700623425,
				"z": 2.0043877278,
				"element": "F" 
			},
			{
				"x": -1.1487716634,
				"y": -1.3470145132,
				"z": 0.9793438496,
				"element": "C" 
			},
			{
				"x": -1.6670707845,
				"y": -0.2692339709,
				"z": 0.2568627479,
				"element": "C" 
			},
			{
				"x": -2.8574431796,
				"y": 0.3334410108,
				"z": 0.4981892663,
				"element": "O" 
			},
			{
				"x": -3.0045162097,
				"y": 1.3930995311,
				"z": -0.4721357418,
				"element": "C" 
			},
			{
				"x": -1.7408831471,
				"y": 1.3697490889,
				"z": -1.3536913132,
				"element": "C" 
			},
			{
				"x": -1.5061460344,
				"y": 2.1174702363,
				"z": -2.2810472443,
				"element": "O" 
			},
			{
				"x": -0.9363771918,
				"y": 0.2629586605,
				"z": -0.8070383093,
				"element": "C" 
			},
			{
				"x": 0.3102727221,
				"y": -0.245946432,
				"z": -1.1841623188,
				"element": "C" 
			},
			{
				"x": 0.8053187363,
				"y": -1.3165954006,
				"z": -0.4523349821,
				"element": "C" 
			},
			{
				"x": 2.4995601437,
				"y": -2.0733229711,
				"z": -0.8989174823,
				"element": "Br" 
			},
			{
				"x": 0.0862147555,
				"y": -1.8684083258,
				"z": 0.6232773584,
				"element": "C" 
			},
			{
				"x": -3.1057613963,
				"y": 2.3467141227,
				"z": 0.0549592086,
				"element": "H" 
			},
			{
				"x": -3.9070683028,
				"y": 1.2112446581,
				"z": -1.0635700422,
				"element": "H" 
			},
			{
				"x": 0.8567680998,
				"y": 0.1858547944,
				"z": -2.0141764321,
				"element": "H" 
			},
			{
				"x": 0.483194554,
				"y": -2.7042481467,
				"z": 1.1870537076,
				"element": "H" 
			}
		],
		 "valence_orbital": [ 
			{
				"type": "occ",
				"energy": -0.30489,
				"method": "rhf"
			},
			{
				"type": "occ",
				"energy": -0.29997,
				"method": "rhf"
			},
			{
				"type": "occ",
				"energy": -0.28031,
				"method": "rhf"
			},
			{
				"type": "occ",
				"energy": -0.26722,
				"method": "rhf"
			},
			{
				"type": "occ",
				"energy": -0.24156,
				"method": "rhf"
			},
			{
				"type": "unocc",
				"energy": -0.0788,
				"method": "rhf"
			},
			{
				"type": "unocc",
				"energy": -0.02172,
				"method": "rhf"
			},
			{
				"type": "unocc",
				"energy": -0.00805,
				"method": "rhf"
			},
			{
				"type": "unocc",
				"energy": 0.02415,
				"method": "rhf"
			},
			{
				"type": "unocc",
				"energy": 0.06872,
				"method": "rhf"
			}
		],
		"cosmo_sigma_profile": { 
			"-0.025": 0.0,
			"-0.024": 0.0,
			"-0.023": 0.0,
			"-0.022": 0.0,
			"-0.021": 0.0,
			"-0.02": 0.0,
			"-0.019": 0.0,
			"-0.018": 0.0,
			"-0.017": 0.0,
			"-0.016": 0.0,
			"-0.015": 0.0,
			"-0.014": 0.0,
			"-0.013": 0.0,
			"-0.012": 0.0,
			"-0.011": 0.0,
			"-0.01": 0.406837956428,
			"-0.009": 6.38116956179,
			"-0.008": 8.60664435715,
			"-0.007": 7.82117092498,
			"-0.006": 7.92930371257,
			"-0.005": 7.15044837721,
			"-0.004": 7.81430059799,
			"-0.003": 10.8032234804,
			"-0.002": 15.8412553967,
			"-0.001": 17.7961943696,
			"0.0": 17.981414553,
			"0.001": 14.8255612618,
			"0.002": 12.4949328316,
			"0.003": 18.8790070272,
			"0.004": 16.9864536407,
			"0.005": 4.74164648074,
			"0.006": 1.59628563387,
			"0.007": 2.68102044574,
			"0.008": 3.66864336643,
			"0.009": 2.26148867109,
			"0.01": 3.00323674327,
			"0.011": 4.66326955522,
			"0.012": 2.64073661835,
			"0.013": 0.0423161319611,
			"0.014": 0.0,
			"0.015": 0.0,
			"0.016": 0.0,
			"0.017": 0.0,
			"0.018": 0.0,
			"0.019": 0.0,
			"0.02": 0.0,
			"0.021": 0.0,
			"0.022": 0.0,
			"0.023": 0.0,
			"0.024": 0.0,
			"0.025": 0.0
		}
	}
}
