{
	 "smiles": "CCC1CC(N)(CC(C)(C)N1O)C(O)=O", 
	 "Tm": 503.15, 
	 "num_atms": 35, 
	 "gaussian": { 
		 "optdone": 1, 
		 "sigma_profile": "yes", 
		 "theory": "DFT", 
		 "functional": "B3LYP", 
		 "basiset": "6-31G**", 
		 "properties": { 
			 "R2extent": 3419.7562, 
			 "electric_dipole_moment_norm": 4.34198259094, 
			 "electric_quadrupole_moment_norm": 11.7455521948, 
			 "total_energy": -728.266796761, 
			 "HOMO_LUMO_gap": 0.23833, 
			 "cosmo_polarized_energy": -14.99, 
			 "cosmo_cavitation_energy": 33.34, 
			 "cosmo_dispersion_energy": -23.35, 
			 "cosmo_repulsion_energy": 1.81, 
			 "cosmo_total_nonelectrostatic_energy": 11.8, 
			 "SMD_solvation_energy": 6.03 
		},
		"coords": [
			{
				"x": -3.1457204265,
				"y": 0.5771920085,
				"z": 0.0321419442,
				"element": "C" 
			},
			{
				"x": -2.2364121403,
				"y": -0.1717927393,
				"z": 1.0112057965,
				"element": "C" 
			},
			{
				"x": -0.7714290194,
				"y": -0.2471129694,
				"z": 0.5574158567,
				"element": "C" 
			},
			{
				"x": 0.1345893989,
				"y": -0.8637580481,
				"z": 1.6411919947,
				"element": "C" 
			},
			{
				"x": 1.6141449057,
				"y": -0.9732974349,
				"z": 1.2230160001,
				"element": "C" 
			},
			{
				"x": 2.4001979565,
				"y": -1.8855368687,
				"z": 2.0936950299,
				"element": "N" 
			},
			{
				"x": 1.7322123317,
				"y": -1.5336328959,
				"z": -0.2234510887,
				"element": "C" 
			},
			{
				"x": 0.7268192258,
				"y": -0.9859548821,
				"z": -1.2741125758,
				"element": "C" 
			},
			{
				"x": 1.0647831534,
				"y": 0.4371239086,
				"z": -1.7631846661,
				"element": "C" 
			},
			{
				"x": 0.7509497493,
				"y": -1.9124560454,
				"z": -2.50277432,
				"element": "C" 
			},
			{
				"x": -0.6622985156,
				"y": -0.9685207049,
				"z": -0.7299276227,
				"element": "N" 
			},
			{
				"x": -1.0294926916,
				"y": -2.3523520938,
				"z": -0.4393566984,
				"element": "O" 
			},
			{
				"x": 2.3357993193,
				"y": 0.398410592,
				"z": 1.3391192385,
				"element": "C" 
			},
			{
				"x": 3.6498843848,
				"y": 0.2858012996,
				"z": 1.5822834751,
				"element": "O" 
			},
			{
				"x": 1.7919622616,
				"y": 1.4746707799,
				"z": 1.2149100903,
				"element": "O" 
			},
			{
				"x": -2.8249992868,
				"y": 1.6182353956,
				"z": -0.0866040579,
				"element": "H" 
			},
			{
				"x": -4.1821129709,
				"y": 0.5859979896,
				"z": 0.3851206379,
				"element": "H" 
			},
			{
				"x": -3.123389497,
				"y": 0.1136726417,
				"z": -0.9582234599,
				"element": "H" 
			},
			{
				"x": -2.6081380492,
				"y": -1.1905683587,
				"z": 1.1699851136,
				"element": "H" 
			},
			{
				"x": -2.2607171593,
				"y": 0.3259144009,
				"z": 1.9887116712,
				"element": "H" 
			},
			{
				"x": -0.4241263469,
				"y": 0.7694504534,
				"z": 0.3586467247,
				"element": "H" 
			},
			{
				"x": -0.2299739426,
				"y": -1.8734957385,
				"z": 1.8600152633,
				"element": "H" 
			},
			{
				"x": 0.0566351533,
				"y": -0.2727577891,
				"z": 2.5609944648,
				"element": "H" 
			},
			{
				"x": 2.1336062751,
				"y": -1.7542673547,
				"z": 3.0686034003,
				"element": "H" 
			},
			{
				"x": 2.2013769762,
				"y": -2.8551092336,
				"z": 1.8611338176,
				"element": "H" 
			},
			{
				"x": 1.5473139349,
				"y": -2.6121630725,
				"z": -0.147478083,
				"element": "H" 
			},
			{
				"x": 2.7599290535,
				"y": -1.4115392726,
				"z": -0.5835001131,
				"element": "H" 
			},
			{
				"x": 2.0255650616,
				"y": 0.4191982448,
				"z": -2.2879679736,
				"element": "H" 
			},
			{
				"x": 0.2979683144,
				"y": 0.7691914829,
				"z": -2.4692918225,
				"element": "H" 
			},
			{
				"x": 1.1427121736,
				"y": 1.1703660977,
				"z": -0.9620809599,
				"element": "H" 
			},
			{
				"x": 0.0327547845,
				"y": -1.5610336877,
				"z": -3.2506677491,
				"element": "H" 
			},
			{
				"x": 0.5003944129,
				"y": -2.940314873,
				"z": -2.2348971645,
				"element": "H" 
			},
			{
				"x": 1.7460543522,
				"y": -1.9051166231,
				"z": -2.9586249749,
				"element": "H" 
			},
			{
				"x": -1.7710277168,
				"y": -2.492634709,
				"z": -1.0418925526,
				"element": "H" 
			},
			{
				"x": 3.7796845836,
				"y": -0.6741099004,
				"z": 1.7791453634,
				"element": "H" 
			}
		],
		 "valence_orbital": [ 
			{
				"type": "occ",
				"energy": -0.29988,
				"method": "rhf"
			},
			{
				"type": "occ",
				"energy": -0.28666,
				"method": "rhf"
			},
			{
				"type": "occ",
				"energy": -0.28056,
				"method": "rhf"
			},
			{
				"type": "occ",
				"energy": -0.25407,
				"method": "rhf"
			},
			{
				"type": "occ",
				"energy": -0.22567,
				"method": "rhf"
			},
			{
				"type": "unocc",
				"energy": 0.01266,
				"method": "rhf"
			},
			{
				"type": "unocc",
				"energy": 0.05471,
				"method": "rhf"
			},
			{
				"type": "unocc",
				"energy": 0.07087,
				"method": "rhf"
			},
			{
				"type": "unocc",
				"energy": 0.08957,
				"method": "rhf"
			},
			{
				"type": "unocc",
				"energy": 0.1041,
				"method": "rhf"
			}
		],
		"cosmo_sigma_profile": { 
			"-0.025": 0.0,
			"-0.024": 0.0,
			"-0.023": 0.0,
			"-0.022": 0.0,
			"-0.021": 0.0,
			"-0.02": 0.0,
			"-0.019": 0.0,
			"-0.018": 0.0,
			"-0.017": 0.0,
			"-0.016": 0.0185247104581,
			"-0.015": 0.571447818326,
			"-0.014": 0.853727501692,
			"-0.013": 0.65068689368,
			"-0.012": 1.54811649827,
			"-0.011": 3.39082562422,
			"-0.01": 4.33537557485,
			"-0.009": 4.42694935371,
			"-0.008": 3.44836353986,
			"-0.007": 5.43721390901,
			"-0.006": 5.01274663454,
			"-0.005": 5.6590748879,
			"-0.004": 11.0255466413,
			"-0.003": 20.5225665296,
			"-0.002": 28.1268640658,
			"-0.001": 30.3680753348,
			"0.0": 29.7606253276,
			"0.001": 29.2004534767,
			"0.002": 15.2331253945,
			"0.003": 6.92849376987,
			"0.004": 6.05829312543,
			"0.005": 5.52651374315,
			"0.006": 5.29456278967,
			"0.007": 4.47218948152,
			"0.008": 5.50770288558,
			"0.009": 4.47822113019,
			"0.01": 5.22289367977,
			"0.011": 6.17417113117,
			"0.012": 4.1262308286,
			"0.013": 2.20326532169,
			"0.014": 0.608330467544,
			"0.015": 0.0,
			"0.016": 0.0,
			"0.017": 0.0,
			"0.018": 0.0,
			"0.019": 0.0,
			"0.02": 0.0,
			"0.021": 0.0,
			"0.022": 0.0,
			"0.023": 0.0,
			"0.024": 0.0,
			"0.025": 0.0
		}
	}
}
