{
	 "smiles": "CC(C(O)=O)C1=CC=C(S1)C(=O)C1=CC=CC=C1", 
	 "Tm": 369.15, 
	 "num_atms": 30, 
	 "gaussian": { 
		 "optdone": 1, 
		 "sigma_profile": "yes", 
		 "theory": "DFT", 
		 "functional": "B3LYP", 
		 "basiset": "6-31G**", 
		 "properties": { 
			 "R2extent": 6787.644, 
			 "electric_dipole_moment_norm": 4.78567316686, 
			 "electric_quadrupole_moment_norm": 13.8172538643, 
			 "total_energy": -1164.58959819, 
			 "HOMO_LUMO_gap": 0.16835, 
			 "cosmo_polarized_energy": -16.86, 
			 "cosmo_cavitation_energy": 36.62, 
			 "cosmo_dispersion_energy": -26.12, 
			 "cosmo_repulsion_energy": 1.99, 
			 "cosmo_total_nonelectrostatic_energy": 12.48, 
			 "SMD_solvation_energy": 7.53 
		},
		"coords": [
			{
				"x": -3.6288584454,
				"y": -0.2318470631,
				"z": -2.2748897992,
				"element": "C" 
			},
			{
				"x": -3.4046193623,
				"y": -0.5045009536,
				"z": -0.7797409012,
				"element": "C" 
			},
			{
				"x": -3.7336709222,
				"y": -1.9623084947,
				"z": -0.4467078702,
				"element": "C" 
			},
			{
				"x": -4.0518050911,
				"y": -2.1133750984,
				"z": 0.8588324959,
				"element": "O" 
			},
			{
				"x": -3.7055361072,
				"y": -2.8835563264,
				"z": -1.2304974723,
				"element": "O" 
			},
			{
				"x": -2.003364081,
				"y": -0.180227964,
				"z": -0.3113032956,
				"element": "C" 
			},
			{
				"x": -1.6522372988,
				"y": 0.6687561199,
				"z": 0.7133154462,
				"element": "C" 
			},
			{
				"x": -0.249506538,
				"y": 0.7717341952,
				"z": 0.89664932,
				"element": "C" 
			},
			{
				"x": 0.470268633,
				"y": -0.000524735,
				"z": 0.0075328702,
				"element": "C" 
			},
			{
				"x": -0.5980298859,
				"y": -0.8906735831,
				"z": -1.0534312125,
				"element": "S" 
			},
			{
				"x": 1.9180731637,
				"y": -0.2572099026,
				"z": -0.1137154325,
				"element": "C" 
			},
			{
				"x": 2.3163062121,
				"y": -1.2294416992,
				"z": -0.7518530656,
				"element": "O" 
			},
			{
				"x": 2.8986769395,
				"y": 0.6571917767,
				"z": 0.5589796164,
				"element": "C" 
			},
			{
				"x": 4.1145292847,
				"y": 0.0997866656,
				"z": 0.9857194891,
				"element": "C" 
			},
			{
				"x": 5.0830936731,
				"y": 0.8978334723,
				"z": 1.5874079126,
				"element": "C" 
			},
			{
				"x": 4.8601612669,
				"y": 2.2690072319,
				"z": 1.7467219243,
				"element": "C" 
			},
			{
				"x": 3.6665661527,
				"y": 2.8371082461,
				"z": 1.2988828158,
				"element": "C" 
			},
			{
				"x": 2.6865168203,
				"y": 2.0358485782,
				"z": 0.7113770574,
				"element": "C" 
			},
			{
				"x": -4.6754324127,
				"y": -0.4024052025,
				"z": -2.5423879126,
				"element": "H" 
			},
			{
				"x": -3.3696086841,
				"y": 0.8028849566,
				"z": -2.5124383674,
				"element": "H" 
			},
			{
				"x": -3.0172653751,
				"y": -0.8993660541,
				"z": -2.885822769,
				"element": "H" 
			},
			{
				"x": -4.079339185,
				"y": 0.1162799313,
				"z": -0.1800967732,
				"element": "H" 
			},
			{
				"x": -4.2037087731,
				"y": -3.064134813,
				"z": 0.994693077,
				"element": "H" 
			},
			{
				"x": -2.3823993072,
				"y": 1.1970638788,
				"z": 1.3168119894,
				"element": "H" 
			},
			{
				"x": 0.213349729,
				"y": 1.3704311186,
				"z": 1.6711194092,
				"element": "H" 
			},
			{
				"x": 4.2778237604,
				"y": -0.9619017749,
				"z": 0.8333810139,
				"element": "H" 
			},
			{
				"x": 6.0148277225,
				"y": 0.4550188367,
				"z": 1.9271969951,
				"element": "H" 
			},
			{
				"x": 5.6188920509,
				"y": 2.8932519177,
				"z": 2.2100760111,
				"element": "H" 
			},
			{
				"x": 3.5000579131,
				"y": 3.9056371851,
				"z": 1.4000699965,
				"element": "H" 
			},
			{
				"x": 1.7731381472,
				"y": 2.4875395539,
				"z": 0.3397174312,
				"element": "H" 
			}
		],
		 "valence_orbital": [ 
			{
				"type": "occ",
				"energy": -0.26351,
				"method": "rhf"
			},
			{
				"type": "occ",
				"energy": -0.26198,
				"method": "rhf"
			},
			{
				"type": "occ",
				"energy": -0.26086,
				"method": "rhf"
			},
			{
				"type": "occ",
				"energy": -0.24914,
				"method": "rhf"
			},
			{
				"type": "occ",
				"energy": -0.23974,
				"method": "rhf"
			},
			{
				"type": "unocc",
				"energy": -0.07139,
				"method": "rhf"
			},
			{
				"type": "unocc",
				"energy": -0.02123,
				"method": "rhf"
			},
			{
				"type": "unocc",
				"energy": -0.01043,
				"method": "rhf"
			},
			{
				"type": "unocc",
				"energy": 0.00057,
				"method": "rhf"
			},
			{
				"type": "unocc",
				"energy": 0.03155,
				"method": "rhf"
			}
		],
		"cosmo_sigma_profile": { 
			"-0.025": 0.0,
			"-0.024": 0.0,
			"-0.023": 0.0,
			"-0.022": 0.0,
			"-0.021": 0.0,
			"-0.02": 0.0,
			"-0.019": 0.180909593541,
			"-0.018": 0.957378426161,
			"-0.017": 0.909948769473,
			"-0.016": 0.638729839204,
			"-0.015": 1.38341752438,
			"-0.014": 0.502031566897,
			"-0.013": 0.133659310181,
			"-0.012": 0.513136737764,
			"-0.011": 1.17169060108,
			"-0.01": 0.905610886516,
			"-0.009": 0.452164241316,
			"-0.008": 2.17591649718,
			"-0.007": 9.31897113503,
			"-0.006": 17.8182629494,
			"-0.005": 19.6304263384,
			"-0.004": 22.5408800057,
			"-0.003": 18.8375741835,
			"-0.002": 21.9887702965,
			"-0.001": 20.9441491576,
			"0.0": 21.5167668187,
			"0.001": 19.4636057567,
			"0.002": 24.4713906436,
			"0.003": 23.6177304226,
			"0.004": 19.6722299554,
			"0.005": 6.02554598765,
			"0.006": 4.44443330021,
			"0.007": 5.53780489725,
			"0.008": 4.80700985223,
			"0.009": 4.33261812835,
			"0.01": 4.87506681016,
			"0.011": 7.04164666958,
			"0.012": 6.60733173518,
			"0.013": 0.766589636525,
			"0.014": 0.0,
			"0.015": 0.0,
			"0.016": 0.0,
			"0.017": 0.0,
			"0.018": 0.0,
			"0.019": 0.0,
			"0.02": 0.0,
			"0.021": 0.0,
			"0.022": 0.0,
			"0.023": 0.0,
			"0.024": 0.0,
			"0.025": 0.0
		}
	}
}
