{
	 "smiles": "NC1=CC=C(Br)C=C1", 
	 "Tm": 337.85, 
	 "num_atms": 14, 
	 "gaussian": { 
		 "optdone": 1, 
		 "sigma_profile": "yes", 
		 "theory": "DFT", 
		 "functional": "B3LYP", 
		 "basiset": "6-31G**", 
		 "properties": { 
			 "R2extent": 2332.5681, 
			 "electric_dipole_moment_norm": 3.57516500738, 
			 "electric_quadrupole_moment_norm": 6.83800633665, 
			 "total_energy": -2858.41263207, 
			 "HOMO_LUMO_gap": 0.19617, 
			 "cosmo_polarized_energy": -8.69, 
			 "cosmo_cavitation_energy": 20.16, 
			 "cosmo_dispersion_energy": -15.63, 
			 "cosmo_repulsion_energy": 1.3, 
			 "cosmo_total_nonelectrostatic_energy": 5.83, 
			 "SMD_solvation_energy": 2.3 
		},
		"coords": [
			{
				"x": 2.4757353606,
				"y": 0.3181158804,
				"z": -0.588115563,
				"element": "N" 
			},
			{
				"x": 1.1714019457,
				"y": 0.0227148432,
				"z": -0.1921697798,
				"element": "C" 
			},
			{
				"x": 0.8997589976,
				"y": -0.4306237909,
				"z": 1.1106138734,
				"element": "C" 
			},
			{
				"x": -0.3931402546,
				"y": -0.7805138456,
				"z": 1.4911753261,
				"element": "C" 
			},
			{
				"x": -1.43513904,
				"y": -0.6808084922,
				"z": 0.5712373819,
				"element": "C" 
			},
			{
				"x": -3.2143566121,
				"y": -1.1565772784,
				"z": 1.0934616894,
				"element": "Br" 
			},
			{
				"x": -1.1899170267,
				"y": -0.2341844843,
				"z": -0.7258268861,
				"element": "C" 
			},
			{
				"x": 0.1042656155,
				"y": 0.1148332494,
				"z": -1.1028245434,
				"element": "C" 
			},
			{
				"x": 3.1090460574,
				"y": 0.5664699295,
				"z": 0.1591516896,
				"element": "H" 
			},
			{
				"x": 2.5571709437,
				"y": 0.9449207647,
				"z": -1.3765646677,
				"element": "H" 
			},
			{
				"x": 1.7101409969,
				"y": -0.5140357236,
				"z": 1.8304229302,
				"element": "H" 
			},
			{
				"x": -0.5881693991,
				"y": -1.1267930057,
				"z": 2.5000217314,
				"element": "H" 
			},
			{
				"x": -2.0035705244,
				"y": -0.1563144475,
				"z": -1.4383021755,
				"element": "H" 
			},
			{
				"x": 0.2914729393,
				"y": 0.4586964012,
				"z": -2.1169810066,
				"element": "H" 
			}
		],
		 "valence_orbital": [ 
			{
				"type": "occ",
				"energy": -0.33665,
				"method": "rhf"
			},
			{
				"type": "occ",
				"energy": -0.27767,
				"method": "rhf"
			},
			{
				"type": "occ",
				"energy": -0.27733,
				"method": "rhf"
			},
			{
				"type": "occ",
				"energy": -0.25714,
				"method": "rhf"
			},
			{
				"type": "occ",
				"energy": -0.20373,
				"method": "rhf"
			},
			{
				"type": "unocc",
				"energy": -0.00756,
				"method": "rhf"
			},
			{
				"type": "unocc",
				"energy": 0.00772,
				"method": "rhf"
			},
			{
				"type": "unocc",
				"energy": 0.01613,
				"method": "rhf"
			},
			{
				"type": "unocc",
				"energy": 0.07716,
				"method": "rhf"
			},
			{
				"type": "unocc",
				"energy": 0.1151,
				"method": "rhf"
			}
		],
		"cosmo_sigma_profile": { 
			"-0.025": 0.0,
			"-0.024": 0.0,
			"-0.023": 0.0,
			"-0.022": 0.0,
			"-0.021": 0.0,
			"-0.02": 0.0,
			"-0.019": 0.0,
			"-0.018": 0.0,
			"-0.017": 0.0,
			"-0.016": 0.0,
			"-0.015": 0.0,
			"-0.014": 0.0,
			"-0.013": 0.647212205383,
			"-0.012": 2.97904193285,
			"-0.011": 2.92096440942,
			"-0.01": 2.72450848017,
			"-0.009": 3.92856989723,
			"-0.008": 2.78712303169,
			"-0.007": 4.43272848798,
			"-0.006": 8.56613910753,
			"-0.005": 8.74445185146,
			"-0.004": 7.94097157907,
			"-0.003": 6.81861318332,
			"-0.002": 9.00098339579,
			"-0.001": 6.95165623192,
			"0.0": 7.58732762635,
			"0.001": 9.32440715983,
			"0.002": 10.0884595368,
			"0.003": 14.0319194011,
			"0.004": 18.1743025831,
			"0.005": 25.1527080907,
			"0.006": 5.52444201321,
			"0.007": 0.637754014543,
			"0.008": 0.932503806825,
			"0.009": 0.917878459536,
			"0.01": 0.792791458523,
			"0.011": 0.67616650011,
			"0.012": 0.426927824106,
			"0.013": 0.670129361495,
			"0.014": 0.610896721926,
			"0.015": 0.0,
			"0.016": 0.0,
			"0.017": 0.0,
			"0.018": 0.0,
			"0.019": 0.0,
			"0.02": 0.0,
			"0.021": 0.0,
			"0.022": 0.0,
			"0.023": 0.0,
			"0.024": 0.0,
			"0.025": 0.0
		}
	}
}
