{
	 "smiles": "COC(=O)CCC1=CC=C(OC)C(O)=C1", 
	 "Tm": 351.15, 
	 "num_atms": 29, 
	 "gaussian": { 
		 "optdone": 1, 
		 "sigma_profile": "yes", 
		 "theory": "DFT", 
		 "functional": "B3LYP", 
		 "basiset": "6-31G**", 
		 "properties": { 
			 "R2extent": 4142.6862, 
			 "electric_dipole_moment_norm": 1.76659866127, 
			 "electric_quadrupole_moment_norm": 18.3952157911, 
			 "total_energy": -728.49330909, 
			 "HOMO_LUMO_gap": 0.21287, 
			 "cosmo_polarized_energy": -15.37, 
			 "cosmo_cavitation_energy": 33.06, 
			 "cosmo_dispersion_energy": -22.85, 
			 "cosmo_repulsion_energy": 1.84, 
			 "cosmo_total_nonelectrostatic_energy": 12.04, 
			 "SMD_solvation_energy": 8.05 
		},
		"coords": [
			{
				"x": -2.0551904892,
				"y": -1.8120248158,
				"z": -3.4374250513,
				"element": "C" 
			},
			{
				"x": -0.70850062,
				"y": -2.0603532081,
				"z": -3.0019673079,
				"element": "O" 
			},
			{
				"x": -0.5961265401,
				"y": -2.6748215946,
				"z": -1.7994112343,
				"element": "C" 
			},
			{
				"x": -1.5509253166,
				"y": -3.0101465855,
				"z": -1.1340335194,
				"element": "O" 
			},
			{
				"x": 0.8556195425,
				"y": -2.9169722538,
				"z": -1.4313205981,
				"element": "C" 
			},
			{
				"x": 1.7800100725,
				"y": -1.6903648632,
				"z": -1.5994197888,
				"element": "C" 
			},
			{
				"x": 1.407414552,
				"y": -0.5228786903,
				"z": -0.7090466384,
				"element": "C" 
			},
			{
				"x": 0.6618551168,
				"y": 0.5541030059,
				"z": -1.1978247938,
				"element": "C" 
			},
			{
				"x": 0.2976663268,
				"y": 1.603913671,
				"z": -0.3518253435,
				"element": "C" 
			},
			{
				"x": 0.6733186383,
				"y": 1.6137362374,
				"z": 0.9894908124,
				"element": "C" 
			},
			{
				"x": 0.349743576,
				"y": 2.7002620149,
				"z": 1.7639281498,
				"element": "O" 
			},
			{
				"x": -0.5242620366,
				"y": 2.4474145196,
				"z": 2.8672638985,
				"element": "C" 
			},
			{
				"x": 1.4401323223,
				"y": 0.5405268095,
				"z": 1.4876888111,
				"element": "C" 
			},
			{
				"x": 1.8271069215,
				"y": 0.5892781657,
				"z": 2.7999067726,
				"element": "O" 
			},
			{
				"x": 1.7892655091,
				"y": -0.510838957,
				"z": 0.6400091533,
				"element": "C" 
			},
			{
				"x": -1.9666782493,
				"y": -1.325319518,
				"z": -4.4088223982,
				"element": "H" 
			},
			{
				"x": -2.5743774413,
				"y": -1.1627948325,
				"z": -2.7281466283,
				"element": "H" 
			},
			{
				"x": -2.6100569529,
				"y": -2.7492884057,
				"z": -3.5270398837,
				"element": "H" 
			},
			{
				"x": 0.8604075012,
				"y": -3.2764304347,
				"z": -0.3996458462,
				"element": "H" 
			},
			{
				"x": 1.2231484779,
				"y": -3.7320387937,
				"z": -2.068586203,
				"element": "H" 
			},
			{
				"x": 2.8048033847,
				"y": -2.0123144628,
				"z": -1.379274886,
				"element": "H" 
			},
			{
				"x": 1.7634182207,
				"y": -1.3769717699,
				"z": -2.6468382264,
				"element": "H" 
			},
			{
				"x": 0.3592028359,
				"y": 0.5690898567,
				"z": -2.2403286918,
				"element": "H" 
			},
			{
				"x": -0.2786914233,
				"y": 2.4470946733,
				"z": -0.719584715,
				"element": "H" 
			},
			{
				"x": -0.7166283444,
				"y": 3.4182759568,
				"z": 3.3288134844,
				"element": "H" 
			},
			{
				"x": -1.4740115897,
				"y": 2.0172930465,
				"z": 2.5232805391,
				"element": "H" 
			},
			{
				"x": -0.0656280184,
				"y": 1.778356112,
				"z": 3.6009461349,
				"element": "H" 
			},
			{
				"x": 2.3391178182,
				"y": -0.204307804,
				"z": 3.0025514449,
				"element": "H" 
			},
			{
				"x": 2.3852462054,
				"y": -1.3314770796,
				"z": 1.0392625532,
				"element": "H" 
			}
		],
		 "valence_orbital": [ 
			{
				"type": "occ",
				"energy": -0.2997,
				"method": "rhf"
			},
			{
				"type": "occ",
				"energy": -0.27217,
				"method": "rhf"
			},
			{
				"type": "occ",
				"energy": -0.26628,
				"method": "rhf"
			},
			{
				"type": "occ",
				"energy": -0.2363,
				"method": "rhf"
			},
			{
				"type": "occ",
				"energy": -0.21215,
				"method": "rhf"
			},
			{
				"type": "unocc",
				"energy": 0.00072,
				"method": "rhf"
			},
			{
				"type": "unocc",
				"energy": 0.01074,
				"method": "rhf"
			},
			{
				"type": "unocc",
				"energy": 0.01698,
				"method": "rhf"
			},
			{
				"type": "unocc",
				"energy": 0.06548,
				"method": "rhf"
			},
			{
				"type": "unocc",
				"energy": 0.08621,
				"method": "rhf"
			}
		],
		"cosmo_sigma_profile": { 
			"-0.025": 0.0,
			"-0.024": 0.0,
			"-0.023": 0.0,
			"-0.022": 0.0,
			"-0.021": 0.0,
			"-0.02": 0.0,
			"-0.019": 0.0,
			"-0.018": 0.319270034424,
			"-0.017": 1.20198301289,
			"-0.016": 1.38635686489,
			"-0.015": 0.630401121171,
			"-0.014": 0.947207993464,
			"-0.013": 1.18278230481,
			"-0.012": 1.02651911646,
			"-0.011": 0.53089356119,
			"-0.01": 1.04076613179,
			"-0.009": 1.26430844854,
			"-0.008": 1.0844565882,
			"-0.007": 2.39091213873,
			"-0.006": 9.33094468202,
			"-0.005": 18.4078220809,
			"-0.004": 26.7036140223,
			"-0.003": 30.1627217652,
			"-0.002": 24.9347003244,
			"-0.001": 18.4938193716,
			"0.0": 14.056589496,
			"0.001": 12.3376183107,
			"0.002": 12.4216341559,
			"0.003": 12.1801390361,
			"0.004": 15.1542432198,
			"0.005": 13.5363473268,
			"0.006": 7.76997064757,
			"0.007": 5.01075823286,
			"0.008": 3.76173302173,
			"0.009": 4.41879443618,
			"0.01": 5.65947792537,
			"0.011": 4.599059514,
			"0.012": 6.78873797294,
			"0.013": 1.66099485241,
			"0.014": 0.0501138427827,
			"0.015": 0.0,
			"0.016": 0.0,
			"0.017": 0.0,
			"0.018": 0.0,
			"0.019": 0.0,
			"0.02": 0.0,
			"0.021": 0.0,
			"0.022": 0.0,
			"0.023": 0.0,
			"0.024": 0.0,
			"0.025": 0.0
		}
	}
}
