{
	 "smiles": "CC1=CC(C)=C(C(C)=C1)N(=O)=O", 
	 "Tm": 317.15, 
	 "num_atms": 23, 
	 "gaussian": { 
		 "optdone": 1, 
		 "sigma_profile": "yes", 
		 "theory": "DFT", 
		 "functional": "B3LYP", 
		 "basiset": "6-31G**", 
		 "properties": { 
			 "R2extent": 2316.3565, 
			 "electric_dipole_moment_norm": 4.32662630926, 
			 "electric_quadrupole_moment_norm": 7.55411358202, 
			 "total_energy": -554.703053747, 
			 "HOMO_LUMO_gap": 0.17871, 
			 "cosmo_polarized_energy": -7.64, 
			 "cosmo_cavitation_energy": 26.37, 
			 "cosmo_dispersion_energy": -19.09, 
			 "cosmo_repulsion_energy": 1.51, 
			 "cosmo_total_nonelectrostatic_energy": 8.79, 
			 "SMD_solvation_energy": 6.73 
		},
		"coords": [
			{
				"x": -1.1093227231,
				"y": -3.8941540132,
				"z": 0.3595235481,
				"element": "C" 
			},
			{
				"x": -0.9338648774,
				"y": -2.3953242797,
				"z": 0.3873770291,
				"element": "C" 
			},
			{
				"x": -1.4617115859,
				"y": -1.592801867,
				"z": -0.6280678982,
				"element": "C" 
			},
			{
				"x": -1.3079687488,
				"y": -0.2035508932,
				"z": -0.6406701278,
				"element": "C" 
			},
			{
				"x": -1.9243738402,
				"y": 0.5929025233,
				"z": -1.7670530894,
				"element": "C" 
			},
			{
				"x": -0.5609293343,
				"y": 0.3659601909,
				"z": 0.4083611011,
				"element": "C" 
			},
			{
				"x": 0.0036608546,
				"y": -0.3966149064,
				"z": 1.4487987497,
				"element": "C" 
			},
			{
				"x": 0.8006503811,
				"y": 0.1919458292,
				"z": 2.5896374356,
				"element": "C" 
			},
			{
				"x": -0.2185719459,
				"y": -1.7762589245,
				"z": 1.4164111577,
				"element": "C" 
			},
			{
				"x": -0.3649694597,
				"y": 1.8224060072,
				"z": 0.4204118789,
				"element": "N" 
			},
			{
				"x": 0.7488838552,
				"y": 2.2518188327,
				"z": 0.7253917704,
				"element": "O" 
			},
			{
				"x": -1.3244212029,
				"y": 2.5365795908,
				"z": 0.1247128059,
				"element": "O" 
			},
			{
				"x": -1.1215712839,
				"y": -4.3143748191,
				"z": 1.369302433,
				"element": "H" 
			},
			{
				"x": -2.0389477407,
				"y": -4.1793774633,
				"z": -0.1412958159,
				"element": "H" 
			},
			{
				"x": -0.2855259968,
				"y": -4.3739613641,
				"z": -0.1834854077,
				"element": "H" 
			},
			{
				"x": -2.0190000173,
				"y": -2.0575840538,
				"z": -1.4374540736,
				"element": "H" 
			},
			{
				"x": -2.2031207727,
				"y": -0.0779876503,
				"z": -2.583640018,
				"element": "H" 
			},
			{
				"x": -2.8187550051,
				"y": 1.1233163253,
				"z": -1.4295420337,
				"element": "H" 
			},
			{
				"x": -1.2435829574,
				"y": 1.3518247985,
				"z": -2.1612616922,
				"element": "H" 
			},
			{
				"x": 0.3425900044,
				"y": 1.0984682297,
				"z": 2.9936679797,
				"element": "H" 
			},
			{
				"x": 1.8060556536,
				"y": 0.4709827988,
				"z": 2.2633032672,
				"element": "H" 
			},
			{
				"x": 0.8859212905,
				"y": -0.5404829678,
				"z": 3.3964138374,
				"element": "H" 
			},
			{
				"x": 0.1861754528,
				"y": -2.3831319239,
				"z": 2.2223571626,
				"element": "H" 
			}
		],
		 "valence_orbital": [ 
			{
				"type": "occ",
				"energy": -0.30228,
				"method": "rhf"
			},
			{
				"type": "occ",
				"energy": -0.2964,
				"method": "rhf"
			},
			{
				"type": "occ",
				"energy": -0.29082,
				"method": "rhf"
			},
			{
				"type": "occ",
				"energy": -0.25472,
				"method": "rhf"
			},
			{
				"type": "occ",
				"energy": -0.25359,
				"method": "rhf"
			},
			{
				"type": "unocc",
				"energy": -0.07488,
				"method": "rhf"
			},
			{
				"type": "unocc",
				"energy": -0.01459,
				"method": "rhf"
			},
			{
				"type": "unocc",
				"energy": -0.00375,
				"method": "rhf"
			},
			{
				"type": "unocc",
				"energy": 0.08846,
				"method": "rhf"
			},
			{
				"type": "unocc",
				"energy": 0.11212,
				"method": "rhf"
			}
		],
		"cosmo_sigma_profile": { 
			"-0.025": 0.0,
			"-0.024": 0.0,
			"-0.023": 0.0,
			"-0.022": 0.0,
			"-0.021": 0.0,
			"-0.02": 0.0,
			"-0.019": 0.0,
			"-0.018": 0.0,
			"-0.017": 0.0,
			"-0.016": 0.0,
			"-0.015": 0.0,
			"-0.014": 0.0,
			"-0.013": 0.0,
			"-0.012": 0.0,
			"-0.011": 0.0,
			"-0.01": 0.0,
			"-0.009": 0.0,
			"-0.008": 0.12333967385,
			"-0.007": 1.26474966763,
			"-0.006": 7.21895302533,
			"-0.005": 16.3417909253,
			"-0.004": 19.9739071587,
			"-0.003": 19.0796706705,
			"-0.002": 19.1760974373,
			"-0.001": 26.2094225656,
			"0.0": 25.5668367796,
			"0.001": 10.8791958684,
			"0.002": 12.0788899098,
			"0.003": 13.5357182682,
			"0.004": 6.79881487021,
			"0.005": 2.93362028855,
			"0.006": 4.37513625204,
			"0.007": 5.31454900442,
			"0.008": 8.18518706132,
			"0.009": 4.8848000849,
			"0.01": 3.60585292958,
			"0.011": 0.652691013758,
			"0.012": 0.0,
			"0.013": 0.0,
			"0.014": 0.0,
			"0.015": 0.0,
			"0.016": 0.0,
			"0.017": 0.0,
			"0.018": 0.0,
			"0.019": 0.0,
			"0.02": 0.0,
			"0.021": 0.0,
			"0.022": 0.0,
			"0.023": 0.0,
			"0.024": 0.0,
			"0.025": 0.0
		}
	}
}
