{
	 "smiles": "CCCCC(CC)COP(=O)(OC1=CC=CC=C1)OC1=CC=CC=C1", 
	 "Tm": 219.15, 
	 "num_atms": 52, 
	 "gaussian": { 
		 "optdone": 1, 
		 "sigma_profile": "yes", 
		 "theory": "DFT", 
		 "functional": "B3LYP", 
		 "basiset": "6-31G**", 
		 "properties": { 
			 "R2extent": 10954.8658, 
			 "electric_dipole_moment_norm": 3.38687932469, 
			 "electric_quadrupole_moment_norm": 6.22454297921, 
			 "total_energy": -1420.74369941, 
			 "HOMO_LUMO_gap": 0.2307, 
			 "cosmo_polarized_energy": -12.22, 
			 "cosmo_cavitation_energy": 55.55, 
			 "cosmo_dispersion_energy": -35.76, 
			 "cosmo_repulsion_energy": 2.79, 
			 "cosmo_total_nonelectrostatic_energy": 22.58, 
			 "SMD_solvation_energy": 10.33 
		},
		"coords": [
			{
				"x": 2.0248062474,
				"y": -4.7605732198,
				"z": -2.4158543153,
				"element": "C" 
			},
			{
				"x": 2.0667534379,
				"y": -3.4885888511,
				"z": -1.5603341636,
				"element": "C" 
			},
			{
				"x": 2.3216977211,
				"y": -2.1949183721,
				"z": -2.3530984022,
				"element": "C" 
			},
			{
				"x": 1.2664567295,
				"y": -1.8397842659,
				"z": -3.4169413128,
				"element": "C" 
			},
			{
				"x": -0.1772596796,
				"y": -1.5756271776,
				"z": -2.9349054879,
				"element": "C" 
			},
			{
				"x": -1.0957090029,
				"y": -1.2878423341,
				"z": -4.1466707953,
				"element": "C" 
			},
			{
				"x": -2.5977403588,
				"y": -1.4224147448,
				"z": -3.8683723555,
				"element": "C" 
			},
			{
				"x": -0.2683358471,
				"y": -0.417392237,
				"z": -1.9380669422,
				"element": "C" 
			},
			{
				"x": 0.1104373574,
				"y": -0.8887750803,
				"z": -0.6141481575,
				"element": "O" 
			},
			{
				"x": 0.3557155055,
				"y": 0.1005137067,
				"z": 0.6111837369,
				"element": "P" 
			},
			{
				"x": 0.6147071019,
				"y": -0.5958171926,
				"z": 1.8860701042,
				"element": "O" 
			},
			{
				"x": -0.8753838106,
				"y": 1.1639757297,
				"z": 0.5940304491,
				"element": "O" 
			},
			{
				"x": -2.1740907894,
				"y": 0.8960938547,
				"z": 1.039619974,
				"element": "C" 
			},
			{
				"x": -3.1919300269,
				"y": 1.5849153553,
				"z": 0.3790898448,
				"element": "C" 
			},
			{
				"x": -4.5136593217,
				"y": 1.4032684895,
				"z": 0.7847871575,
				"element": "C" 
			},
			{
				"x": -4.8139311578,
				"y": 0.5383302244,
				"z": 1.839439957,
				"element": "C" 
			},
			{
				"x": -3.781667234,
				"y": -0.1386950925,
				"z": 2.4905149346,
				"element": "C" 
			},
			{
				"x": -2.4510781812,
				"y": 0.0359118734,
				"z": 2.1030590667,
				"element": "C" 
			},
			{
				"x": 1.5210057028,
				"y": 1.0541450553,
				"z": 0.0235249055,
				"element": "O" 
			},
			{
				"x": 2.1018426123,
				"y": 2.1054868418,
				"z": 0.7448974485,
				"element": "C" 
			},
			{
				"x": 2.2347465875,
				"y": 3.3229981066,
				"z": 0.0811981883,
				"element": "C" 
			},
			{
				"x": 2.8632202515,
				"y": 4.385021426,
				"z": 0.7317875482,
				"element": "C" 
			},
			{
				"x": 3.347291078,
				"y": 4.2269309714,
				"z": 2.0321665489,
				"element": "C" 
			},
			{
				"x": 3.2045885052,
				"y": 2.9981820266,
				"z": 2.6794680176,
				"element": "C" 
			},
			{
				"x": 2.5856708717,
				"y": 1.9223039391,
				"z": 2.0400175679,
				"element": "C" 
			},
			{
				"x": 1.9140539297,
				"y": -5.6517815293,
				"z": -1.7892510563,
				"element": "H" 
			},
			{
				"x": 2.9461288809,
				"y": -4.8781183562,
				"z": -2.9990652296,
				"element": "H" 
			},
			{
				"x": 1.1875461115,
				"y": -4.7552765978,
				"z": -3.1224241742,
				"element": "H" 
			},
			{
				"x": 2.8636072686,
				"y": -3.5895538183,
				"z": -0.8127308879,
				"element": "H" 
			},
			{
				"x": 1.1366718485,
				"y": -3.393302002,
				"z": -0.9887063298,
				"element": "H" 
			},
			{
				"x": 3.2898187539,
				"y": -2.2823189598,
				"z": -2.8661357997,
				"element": "H" 
			},
			{
				"x": 2.42751594,
				"y": -1.3638118356,
				"z": -1.647763287,
				"element": "H" 
			},
			{
				"x": 1.2267722,
				"y": -2.6416731554,
				"z": -4.1650743238,
				"element": "H" 
			},
			{
				"x": 1.609217401,
				"y": -0.9472989177,
				"z": -3.96087545,
				"element": "H" 
			},
			{
				"x": -0.5610272621,
				"y": -2.4692035876,
				"z": -2.4246714085,
				"element": "H" 
			},
			{
				"x": -0.8767756602,
				"y": -0.2832990838,
				"z": -4.5369732729,
				"element": "H" 
			},
			{
				"x": -0.8245462019,
				"y": -1.9816225152,
				"z": -4.9513128371,
				"element": "H" 
			},
			{
				"x": -2.8446252545,
				"y": -2.4350397389,
				"z": -3.5308595559,
				"element": "H" 
			},
			{
				"x": -3.1800503164,
				"y": -1.222865231,
				"z": -4.773755069,
				"element": "H" 
			},
			{
				"x": -2.9472317536,
				"y": -0.7262838925,
				"z": -3.0986521589,
				"element": "H" 
			},
			{
				"x": -1.288390969,
				"y": -0.0303822515,
				"z": -1.8679721867,
				"element": "H" 
			},
			{
				"x": 0.397776603,
				"y": 0.4020965502,
				"z": -2.2300503657,
				"element": "H" 
			},
			{
				"x": -2.9347300581,
				"y": 2.2561849256,
				"z": -0.4337069876,
				"element": "H" 
			},
			{
				"x": -5.3078751601,
				"y": 1.9396741869,
				"z": 0.2737966001,
				"element": "H" 
			},
			{
				"x": -5.8436334801,
				"y": 0.3962475377,
				"z": 2.1528599265,
				"element": "H" 
			},
			{
				"x": -4.006269347,
				"y": -0.808844961,
				"z": 3.3152068082,
				"element": "H" 
			},
			{
				"x": -1.6428435115,
				"y": -0.4779529742,
				"z": 2.6098421022,
				"element": "H" 
			},
			{
				"x": 1.8494948648,
				"y": 3.4227051335,
				"z": -0.9279490632,
				"element": "H" 
			},
			{
				"x": 2.9710555082,
				"y": 5.336937993,
				"z": 0.2202232357,
				"element": "H" 
			},
			{
				"x": 3.8341359562,
				"y": 5.0558157559,
				"z": 2.5369062989,
				"element": "H" 
			},
			{
				"x": 3.5816305488,
				"y": 2.8679011526,
				"z": 3.6895885679,
				"element": "H" 
			},
			{
				"x": 2.4702188596,
				"y": 0.9615171396,
				"z": 2.527942387,
				"element": "H" 
			}
		],
		 "valence_orbital": [ 
			{
				"type": "occ",
				"energy": -0.29076,
				"method": "rhf"
			},
			{
				"type": "occ",
				"energy": -0.25626,
				"method": "rhf"
			},
			{
				"type": "occ",
				"energy": -0.25557,
				"method": "rhf"
			},
			{
				"type": "occ",
				"energy": -0.24389,
				"method": "rhf"
			},
			{
				"type": "occ",
				"energy": -0.23911,
				"method": "rhf"
			},
			{
				"type": "unocc",
				"energy": -0.00841,
				"method": "rhf"
			},
			{
				"type": "unocc",
				"energy": -0.00704,
				"method": "rhf"
			},
			{
				"type": "unocc",
				"energy": -0.00344,
				"method": "rhf"
			},
			{
				"type": "unocc",
				"energy": 0.00261,
				"method": "rhf"
			},
			{
				"type": "unocc",
				"energy": 0.05804,
				"method": "rhf"
			}
		],
		"cosmo_sigma_profile": { 
			"-0.025": 0.0,
			"-0.024": 0.0,
			"-0.023": 0.0,
			"-0.022": 0.0,
			"-0.021": 0.0,
			"-0.02": 0.0,
			"-0.019": 0.0,
			"-0.018": 0.0,
			"-0.017": 0.0,
			"-0.016": 0.0,
			"-0.015": 0.0,
			"-0.014": 0.0,
			"-0.013": 0.0,
			"-0.012": 0.0,
			"-0.011": 0.0,
			"-0.01": 0.0,
			"-0.009": 0.0,
			"-0.008": 0.0,
			"-0.007": 2.69238785906,
			"-0.006": 15.3758329698,
			"-0.005": 23.6934986839,
			"-0.004": 27.8625971641,
			"-0.003": 33.1507490685,
			"-0.002": 47.296802261,
			"-0.001": 49.9836228349,
			"0.0": 54.8915369274,
			"0.001": 52.9003887362,
			"0.002": 36.9720416677,
			"0.003": 26.0281241631,
			"0.004": 27.4981508986,
			"0.005": 17.7208918061,
			"0.006": 4.02528003852,
			"0.007": 2.56005368332,
			"0.008": 1.8325976156,
			"0.009": 1.38800018709,
			"0.01": 1.77414828369,
			"0.011": 1.53614924286,
			"0.012": 2.49189733953,
			"0.013": 2.83909116209,
			"0.014": 0.860819982994,
			"0.015": 0.0,
			"0.016": 0.0,
			"0.017": 0.0,
			"0.018": 0.0,
			"0.019": 0.0,
			"0.02": 0.0,
			"0.021": 0.0,
			"0.022": 0.0,
			"0.023": 0.0,
			"0.024": 0.0,
			"0.025": 0.0
		}
	}
}
