{
	 "smiles": "ONC(=O)C1=CC=CC=C1", 
	 "Tm": 401.15, 
	 "num_atms": 17, 
	 "gaussian": { 
		 "optdone": 1, 
		 "sigma_profile": "yes", 
		 "theory": "DFT", 
		 "functional": "B3LYP", 
		 "basiset": "6-31G**", 
		 "properties": { 
			 "R2extent": 2123.0744, 
			 "electric_dipole_moment_norm": 3.03662906691, 
			 "electric_quadrupole_moment_norm": 16.1960782481, 
			 "total_energy": -476.108645099, 
			 "HOMO_LUMO_gap": 0.20628, 
			 "cosmo_polarized_energy": -13.02, 
			 "cosmo_cavitation_energy": 21.49, 
			 "cosmo_dispersion_energy": -15.95, 
			 "cosmo_repulsion_energy": 1.3, 
			 "cosmo_total_nonelectrostatic_energy": 6.84, 
			 "SMD_solvation_energy": 5.32 
		},
		"coords": [
			{
				"x": 2.1535569128,
				"y": -0.1829075968,
				"z": -3.6830534727,
				"element": "O" 
			},
			{
				"x": 1.7276096957,
				"y": 1.0146515149,
				"z": -3.0566575101,
				"element": "N" 
			},
			{
				"x": 1.3952082199,
				"y": 0.9611838939,
				"z": -1.6995116696,
				"element": "C" 
			},
			{
				"x": 1.6326164692,
				"y": 1.9491305419,
				"z": -1.0159545224,
				"element": "O" 
			},
			{
				"x": 0.6923240707,
				"y": -0.2387355195,
				"z": -1.1521777734,
				"element": "C" 
			},
			{
				"x": -0.0142048031,
				"y": -1.1674695031,
				"z": -1.9298559354,
				"element": "C" 
			},
			{
				"x": -0.6904284698,
				"y": -2.2227148661,
				"z": -1.3196770694,
				"element": "C" 
			},
			{
				"x": -0.6590956325,
				"y": -2.3681112071,
				"z": 0.0688366223,
				"element": "C" 
			},
			{
				"x": 0.0395394603,
				"y": -1.4444922191,
				"z": 0.8500960957,
				"element": "C" 
			},
			{
				"x": 0.7026092361,
				"y": -0.3810703281,
				"z": 0.2435052774,
				"element": "C" 
			},
			{
				"x": 1.5762512074,
				"y": -0.2553850764,
				"z": -4.4574117912,
				"element": "H" 
			},
			{
				"x": 2.4111188798,
				"y": 1.7513567822,
				"z": -3.2168730699,
				"element": "H" 
			},
			{
				"x": -0.0471809061,
				"y": -1.0639458056,
				"z": -3.006855754,
				"element": "H" 
			},
			{
				"x": -1.2425983277,
				"y": -2.9322558789,
				"z": -1.9289721692,
				"element": "H" 
			},
			{
				"x": -1.1810808436,
				"y": -3.1961039613,
				"z": 0.5401120812,
				"element": "H" 
			},
			{
				"x": 0.0618619997,
				"y": -1.550473939,
				"z": 1.9307039985,
				"element": "H" 
			},
			{
				"x": 1.2336928312,
				"y": 0.358843168,
				"z": 0.8324466622,
				"element": "H" 
			}
		],
		 "valence_orbital": [ 
			{
				"type": "occ",
				"energy": -0.32454,
				"method": "rhf"
			},
			{
				"type": "occ",
				"energy": -0.27341,
				"method": "rhf"
			},
			{
				"type": "occ",
				"energy": -0.26074,
				"method": "rhf"
			},
			{
				"type": "occ",
				"energy": -0.25756,
				"method": "rhf"
			},
			{
				"type": "occ",
				"energy": -0.25114,
				"method": "rhf"
			},
			{
				"type": "unocc",
				"energy": -0.04486,
				"method": "rhf"
			},
			{
				"type": "unocc",
				"energy": -0.00643,
				"method": "rhf"
			},
			{
				"type": "unocc",
				"energy": 0.0361,
				"method": "rhf"
			},
			{
				"type": "unocc",
				"energy": 0.05951,
				"method": "rhf"
			},
			{
				"type": "unocc",
				"energy": 0.09571,
				"method": "rhf"
			}
		],
		"cosmo_sigma_profile": { 
			"-0.025": 0.0,
			"-0.024": 0.0,
			"-0.023": 0.0,
			"-0.022": 0.0,
			"-0.021": 0.0,
			"-0.02": 0.0,
			"-0.019": 0.0,
			"-0.018": 0.205659110879,
			"-0.017": 0.947651629607,
			"-0.016": 1.24657822484,
			"-0.015": 0.866402950923,
			"-0.014": 1.7099183196,
			"-0.013": 2.06861836303,
			"-0.012": 1.72488948551,
			"-0.011": 1.76759282512,
			"-0.01": 2.43181380726,
			"-0.009": 1.5263450634,
			"-0.008": 1.79716480086,
			"-0.007": 3.10435596264,
			"-0.006": 8.50746078177,
			"-0.005": 12.7037829411,
			"-0.004": 11.5162100735,
			"-0.003": 9.10769657346,
			"-0.002": 8.11427824653,
			"-0.001": 9.37120711364,
			"0.0": 9.85045058956,
			"0.001": 9.90576986572,
			"0.002": 10.0726461212,
			"0.003": 11.246807486,
			"0.004": 16.6781750293,
			"0.005": 7.2746066758,
			"0.006": 3.2242357592,
			"0.007": 3.62580387644,
			"0.008": 3.54002335905,
			"0.009": 2.99127162443,
			"0.01": 3.30006970656,
			"0.011": 3.07861282126,
			"0.012": 4.51185879077,
			"0.013": 3.25093367229,
			"0.014": 0.0320825787367,
			"0.015": 0.0,
			"0.016": 0.0,
			"0.017": 0.0,
			"0.018": 0.0,
			"0.019": 0.0,
			"0.02": 0.0,
			"0.021": 0.0,
			"0.022": 0.0,
			"0.023": 0.0,
			"0.024": 0.0,
			"0.025": 0.0
		}
	}
}
