{
	 "smiles": "CN(C(=O)OC(C)(C)C)C1=CC=C(O)C=C1", 
	 "Tm": 407.15, 
	 "num_atms": 33, 
	 "gaussian": { 
		 "optdone": 1, 
		 "sigma_profile": "yes", 
		 "theory": "DFT", 
		 "functional": "B3LYP", 
		 "basiset": "6-31G**", 
		 "properties": { 
			 "R2extent": 4393.3713, 
			 "electric_dipole_moment_norm": 2.80870861073, 
			 "electric_quadrupole_moment_norm": 13.2366315092, 
			 "total_energy": -747.973950916, 
			 "HOMO_LUMO_gap": 0.21331, 
			 "cosmo_polarized_energy": -13.4, 
			 "cosmo_cavitation_energy": 35.89, 
			 "cosmo_dispersion_energy": -24.02, 
			 "cosmo_repulsion_energy": 1.91, 
			 "cosmo_total_nonelectrostatic_energy": 13.77, 
			 "SMD_solvation_energy": 8.08 
		},
		"coords": [
			{
				"x": 0.6294296336,
				"y": -2.2728831437,
				"z": -2.1263065766,
				"element": "C" 
			},
			{
				"x": 0.3102282498,
				"y": -1.3058743944,
				"z": -1.0798991769,
				"element": "N" 
			},
			{
				"x": 0.8604176903,
				"y": -0.0440889694,
				"z": -1.1486217774,
				"element": "C" 
			},
			{
				"x": 1.6146433723,
				"y": 0.3206931827,
				"z": -2.0394391684,
				"element": "O" 
			},
			{
				"x": 0.4495291797,
				"y": 0.7086998878,
				"z": -0.1027658377,
				"element": "O" 
			},
			{
				"x": 0.9015076539,
				"y": 2.0988886093,
				"z": 0.0487827179,
				"element": "C" 
			},
			{
				"x": 0.1977229939,
				"y": 2.5349293405,
				"z": 1.336952996,
				"element": "C" 
			},
			{
				"x": 2.4239755405,
				"y": 2.1432541965,
				"z": 0.2203562575,
				"element": "C" 
			},
			{
				"x": 0.4271845185,
				"y": 2.9412295563,
				"z": -1.1406643566,
				"element": "C" 
			},
			{
				"x": -0.5881035524,
				"y": -1.7134592012,
				"z": -0.0396070492,
				"element": "C" 
			},
			{
				"x": -1.9572650626,
				"y": -1.4348295559,
				"z": -0.1309850291,
				"element": "C" 
			},
			{
				"x": -2.8385461249,
				"y": -1.866559664,
				"z": 0.8545192448,
				"element": "C" 
			},
			{
				"x": -2.3558346648,
				"y": -2.596182551,
				"z": 1.9477176234,
				"element": "C" 
			},
			{
				"x": -3.2644922486,
				"y": -2.9986285093,
				"z": 2.8847198414,
				"element": "O" 
			},
			{
				"x": -0.990339051,
				"y": -2.8847124968,
				"z": 2.0446805817,
				"element": "C" 
			},
			{
				"x": -0.1147257299,
				"y": -2.4428224921,
				"z": 1.0533985116,
				"element": "C" 
			},
			{
				"x": -0.2783148276,
				"y": -2.5824967888,
				"z": -2.6572628091,
				"element": "H" 
			},
			{
				"x": 1.3172322805,
				"y": -1.8010127225,
				"z": -2.8268445909,
				"element": "H" 
			},
			{
				"x": 1.0993566417,
				"y": -3.1659191635,
				"z": -1.6986409695,
				"element": "H" 
			},
			{
				"x": -0.8878249286,
				"y": 2.4565454046,
				"z": 1.2285830053,
				"element": "H" 
			},
			{
				"x": 0.5046788891,
				"y": 1.9042345162,
				"z": 2.1762094627,
				"element": "H" 
			},
			{
				"x": 0.450544739,
				"y": 3.5734731296,
				"z": 1.5708828366,
				"element": "H" 
			},
			{
				"x": 2.7300951623,
				"y": 1.5006384671,
				"z": 1.0521209184,
				"element": "H" 
			},
			{
				"x": 2.9284745943,
				"y": 1.8121916169,
				"z": -0.6874926427,
				"element": "H" 
			},
			{
				"x": 2.7386965718,
				"y": 3.1668507169,
				"z": 0.4489003506,
				"element": "H" 
			},
			{
				"x": 0.6679391227,
				"y": 3.994796349,
				"z": -0.9645209115,
				"element": "H" 
			},
			{
				"x": 0.9083039561,
				"y": 2.6179228424,
				"z": -2.0638793177,
				"element": "H" 
			},
			{
				"x": -0.6581654001,
				"y": 2.8563913631,
				"z": -1.2561957219,
				"element": "H" 
			},
			{
				"x": -2.3259424127,
				"y": -0.8685160372,
				"z": -0.9808333724,
				"element": "H" 
			},
			{
				"x": -3.9002508993,
				"y": -1.6513775516,
				"z": 0.7957161612,
				"element": "H" 
			},
			{
				"x": -2.8067814423,
				"y": -3.4850708766,
				"z": 3.5824695141,
				"element": "H" 
			},
			{
				"x": -0.6114369885,
				"y": -3.4494802678,
				"z": 2.8940232737,
				"element": "H" 
			},
			{
				"x": 0.9467625434,
				"y": -2.6587247931,
				"z": 1.1297260107,
				"element": "H" 
			}
		],
		 "valence_orbital": [ 
			{
				"type": "occ",
				"energy": -0.28093,
				"method": "rhf"
			},
			{
				"type": "occ",
				"energy": -0.26009,
				"method": "rhf"
			},
			{
				"type": "occ",
				"energy": -0.25709,
				"method": "rhf"
			},
			{
				"type": "occ",
				"energy": -0.23889,
				"method": "rhf"
			},
			{
				"type": "occ",
				"energy": -0.22104,
				"method": "rhf"
			},
			{
				"type": "unocc",
				"energy": -0.00773,
				"method": "rhf"
			},
			{
				"type": "unocc",
				"energy": 0.00531,
				"method": "rhf"
			},
			{
				"type": "unocc",
				"energy": 0.06149,
				"method": "rhf"
			},
			{
				"type": "unocc",
				"energy": 0.0669,
				"method": "rhf"
			},
			{
				"type": "unocc",
				"energy": 0.08935,
				"method": "rhf"
			}
		],
		"cosmo_sigma_profile": { 
			"-0.025": 0.0,
			"-0.024": 0.0,
			"-0.023": 0.0,
			"-0.022": 0.0,
			"-0.021": 0.0,
			"-0.02": 0.0,
			"-0.019": 0.0,
			"-0.018": 0.455100958864,
			"-0.017": 1.18477083798,
			"-0.016": 1.18826138947,
			"-0.015": 1.11352646001,
			"-0.014": 0.585408994572,
			"-0.013": 1.05327061185,
			"-0.012": 1.03131802293,
			"-0.011": 0.769014372217,
			"-0.01": 1.65761385219,
			"-0.009": 1.23581442667,
			"-0.008": 0.458852017615,
			"-0.007": 2.28652117001,
			"-0.006": 6.7943580421,
			"-0.005": 9.35526240516,
			"-0.004": 23.3710104963,
			"-0.003": 28.5862508023,
			"-0.002": 27.6644005337,
			"-0.001": 29.9465563074,
			"0.0": 31.0343710656,
			"0.001": 26.7562088393,
			"0.002": 13.8082617192,
			"0.003": 12.1855427793,
			"0.004": 14.2014079681,
			"0.005": 11.6021177675,
			"0.006": 6.22956800715,
			"0.007": 4.73010072883,
			"0.008": 5.64761172157,
			"0.009": 3.35014485244,
			"0.01": 3.93666357042,
			"0.011": 3.25083712129,
			"0.012": 2.4395136202,
			"0.013": 2.82752188871,
			"0.014": 1.06399172402,
			"0.015": 0.0,
			"0.016": 0.0,
			"0.017": 0.0,
			"0.018": 0.0,
			"0.019": 0.0,
			"0.02": 0.0,
			"0.021": 0.0,
			"0.022": 0.0,
			"0.023": 0.0,
			"0.024": 0.0,
			"0.025": 0.0
		}
	}
}
