{
	 "smiles": "COC(=O)[C@@H]1C(C(C#N)=C(C(SC)SC)[C@@]1(O)C1=CC=CC=C1)C1=CC=CC=C1", 
	 "Tm": 437.15, 
	 "num_atms": 52, 
	 "gaussian": { 
		 "optdone": 1, 
		 "sigma_profile": "yes", 
		 "theory": "DFT", 
		 "functional": "B3LYP", 
		 "basiset": "6-31G**", 
		 "properties": { 
			 "R2extent": 12023.655, 
			 "electric_dipole_moment_norm": 2.96610657597, 
			 "electric_quadrupole_moment_norm": 29.0392153508, 
			 "total_energy": -1967.06835182, 
			 "HOMO_LUMO_gap": 0.17156, 
			 "cosmo_polarized_energy": -20.71, 
			 "cosmo_cavitation_energy": 56.19, 
			 "cosmo_dispersion_energy": -35.7, 
			 "cosmo_repulsion_energy": 2.66, 
			 "cosmo_total_nonelectrostatic_energy": 23.16, 
			 "SMD_solvation_energy": 11.97 
		},
		"coords": [
			{
				"x": 3.7018982673,
				"y": -2.5518594781,
				"z": -2.1277333929,
				"element": "C" 
			},
			{
				"x": 2.9998345751,
				"y": -1.4295851026,
				"z": -1.5683595876,
				"element": "O" 
			},
			{
				"x": 1.7196051391,
				"y": -1.6703709772,
				"z": -1.2057170261,
				"element": "C" 
			},
			{
				"x": 1.1637416065,
				"y": -2.7303814287,
				"z": -1.3757905501,
				"element": "O" 
			},
			{
				"x": 1.0950356859,
				"y": -0.3940304688,
				"z": -0.6639654675,
				"element": "C" 
			},
			{
				"x": 1.9729958854,
				"y": 0.4858829624,
				"z": 0.2794351538,
				"element": "C" 
			},
			{
				"x": 0.8875198039,
				"y": 1.2401741714,
				"z": 1.0499765336,
				"element": "C" 
			},
			{
				"x": 1.2832544475,
				"y": 2.359915229,
				"z": 1.8375910204,
				"element": "C" 
			},
			{
				"x": 1.7076471466,
				"y": 3.2545391425,
				"z": 2.4504316364,
				"element": "N" 
			},
			{
				"x": -0.3512335715,
				"y": 0.7268851666,
				"z": 0.8970820116,
				"element": "C" 
			},
			{
				"x": -1.6732277545,
				"y": 1.1514475822,
				"z": 1.4880757544,
				"element": "C" 
			},
			{
				"x": -1.9750154677,
				"y": 2.9458889377,
				"z": 1.8265302529,
				"element": "S" 
			},
			{
				"x": -1.4586178097,
				"y": 3.2405382878,
				"z": 3.5552804942,
				"element": "C" 
			},
			{
				"x": -2.1125244269,
				"y": -0.0065992659,
				"z": 2.8722571646,
				"element": "S" 
			},
			{
				"x": -3.9348985967,
				"y": 0.1009230707,
				"z": 2.8085719815,
				"element": "C" 
			},
			{
				"x": -0.2990450375,
				"y": -0.5453056987,
				"z": 0.011295094,
				"element": "C" 
			},
			{
				"x": -0.2853998347,
				"y": -1.6968852372,
				"z": 0.8508846857,
				"element": "O" 
			},
			{
				"x": -1.4227050657,
				"y": -0.6286546664,
				"z": -1.0276412162,
				"element": "C" 
			},
			{
				"x": -2.0640186429,
				"y": -1.8466913596,
				"z": -1.277035447,
				"element": "C" 
			},
			{
				"x": -3.0681248734,
				"y": -1.931319087,
				"z": -2.2436458865,
				"element": "C" 
			},
			{
				"x": -3.44338574,
				"y": -0.8030100835,
				"z": -2.9740411546,
				"element": "C" 
			},
			{
				"x": -2.802848391,
				"y": 0.4151446737,
				"z": -2.7375506739,
				"element": "C" 
			},
			{
				"x": -1.7986260014,
				"y": 0.5001859203,
				"z": -1.7727121312,
				"element": "C" 
			},
			{
				"x": 2.9864639061,
				"y": -0.1899810893,
				"z": 1.1997301931,
				"element": "C" 
			},
			{
				"x": 2.6511297136,
				"y": -1.275263166,
				"z": 2.0219313268,
				"element": "C" 
			},
			{
				"x": 3.6081339497,
				"y": -1.8424609556,
				"z": 2.8644361445,
				"element": "C" 
			},
			{
				"x": 4.9063143007,
				"y": -1.330311046,
				"z": 2.9093482185,
				"element": "C" 
			},
			{
				"x": 5.2458863845,
				"y": -0.2462473102,
				"z": 2.0993622889,
				"element": "C" 
			},
			{
				"x": 4.2915627883,
				"y": 0.3161810818,
				"z": 1.2510049471,
				"element": "C" 
			},
			{
				"x": 4.7016575348,
				"y": -2.1860852508,
				"z": -2.3607409912,
				"element": "H" 
			},
			{
				"x": 3.2008242569,
				"y": -2.9083469829,
				"z": -3.0312176792,
				"element": "H" 
			},
			{
				"x": 3.7522469312,
				"y": -3.3693290154,
				"z": -1.4045875812,
				"element": "H" 
			},
			{
				"x": 0.9249573717,
				"y": 0.2219544717,
				"z": -1.5554056053,
				"element": "H" 
			},
			{
				"x": 2.5348810074,
				"y": 1.1998783235,
				"z": -0.3311719621,
				"element": "H" 
			},
			{
				"x": -2.4229651282,
				"y": 0.9577090461,
				"z": 0.7152664334,
				"element": "H" 
			},
			{
				"x": -2.0108788652,
				"y": 4.1290017796,
				"z": 3.8701100777,
				"element": "H" 
			},
			{
				"x": -0.387783509,
				"y": 3.4240876373,
				"z": 3.6339184266,
				"element": "H" 
			},
			{
				"x": -1.7518481137,
				"y": 2.3970877798,
				"z": 4.1838940169,
				"element": "H" 
			},
			{
				"x": -4.3123371382,
				"y": -0.4786238379,
				"z": 3.6535692188,
				"element": "H" 
			},
			{
				"x": -4.2500563086,
				"y": 1.1412269972,
				"z": 2.9105208887,
				"element": "H" 
			},
			{
				"x": -4.3206456479,
				"y": -0.3205193869,
				"z": 1.8776516949,
				"element": "H" 
			},
			{
				"x": -1.0302953114,
				"y": -1.6156134425,
				"z": 1.4724575391,
				"element": "H" 
			},
			{
				"x": -1.7481204696,
				"y": -2.7243409834,
				"z": -0.7261265379,
				"element": "H" 
			},
			{
				"x": -3.5528657354,
				"y": -2.8855445347,
				"z": -2.4300976751,
				"element": "H" 
			},
			{
				"x": -4.2255635067,
				"y": -0.8715359322,
				"z": -3.7245900779,
				"element": "H" 
			},
			{
				"x": -3.0843850869,
				"y": 1.2999867633,
				"z": -3.3012333772,
				"element": "H" 
			},
			{
				"x": -1.3066937573,
				"y": 1.4547791563,
				"z": -1.5975938393,
				"element": "H" 
			},
			{
				"x": 1.6449040321,
				"y": -1.6792787417,
				"z": 1.9879801861,
				"element": "H" 
			},
			{
				"x": 3.3350649487,
				"y": -2.6871150243,
				"z": 3.4909953991,
				"element": "H" 
			},
			{
				"x": 5.6466791228,
				"y": -1.7723005487,
				"z": 3.5701450039,
				"element": "H" 
			},
			{
				"x": 6.2519929961,
				"y": 0.1626581081,
				"z": 2.125435187,
				"element": "H" 
			},
			{
				"x": 4.5643779897,
				"y": 1.1584138134,
				"z": 0.6200888857,
				"element": "H" 
			}
		],
		 "valence_orbital": [ 
			{
				"type": "occ",
				"energy": -0.25272,
				"method": "rhf"
			},
			{
				"type": "occ",
				"energy": -0.2484,
				"method": "rhf"
			},
			{
				"type": "occ",
				"energy": -0.24488,
				"method": "rhf"
			},
			{
				"type": "occ",
				"energy": -0.23951,
				"method": "rhf"
			},
			{
				"type": "occ",
				"energy": -0.23179,
				"method": "rhf"
			},
			{
				"type": "unocc",
				"energy": -0.06023,
				"method": "rhf"
			},
			{
				"type": "unocc",
				"energy": -0.01741,
				"method": "rhf"
			},
			{
				"type": "unocc",
				"energy": -0.00852,
				"method": "rhf"
			},
			{
				"type": "unocc",
				"energy": -0.00216,
				"method": "rhf"
			},
			{
				"type": "unocc",
				"energy": 0.00117,
				"method": "rhf"
			}
		],
		"cosmo_sigma_profile": { 
			"-0.025": 0.0,
			"-0.024": 0.0,
			"-0.023": 0.0,
			"-0.022": 0.0,
			"-0.021": 0.0,
			"-0.02": 0.0,
			"-0.019": 0.0,
			"-0.018": 0.0,
			"-0.017": 0.0,
			"-0.016": 0.0,
			"-0.015": 0.0,
			"-0.014": 0.0,
			"-0.013": 0.0,
			"-0.012": 0.0,
			"-0.011": 0.0,
			"-0.01": 0.0,
			"-0.009": 0.106817335901,
			"-0.008": 3.50402385034,
			"-0.007": 12.2117741106,
			"-0.006": 27.5212579124,
			"-0.005": 39.1800290491,
			"-0.004": 40.5423096087,
			"-0.003": 43.8908577393,
			"-0.002": 37.6739775605,
			"-0.001": 34.8024336895,
			"0.0": 28.0259226667,
			"0.001": 23.9525193937,
			"0.002": 22.8359697497,
			"0.003": 24.6961751623,
			"0.004": 24.7346428863,
			"0.005": 26.8988823121,
			"0.006": 18.6404300668,
			"0.007": 9.29311547471,
			"0.008": 7.62208783073,
			"0.009": 6.05036156058,
			"0.01": 5.32583706408,
			"0.011": 5.68195522916,
			"0.012": 5.05226249422,
			"0.013": 1.47674824358,
			"0.014": 0.654978530786,
			"0.015": 0.393147277254,
			"0.016": 0.0,
			"0.017": 0.0,
			"0.018": 0.0,
			"0.019": 0.0,
			"0.02": 0.0,
			"0.021": 0.0,
			"0.022": 0.0,
			"0.023": 0.0,
			"0.024": 0.0,
			"0.025": 0.0
		}
	}
}
