{
	 "smiles": "COCCOC1=C(CO)C=C2OCOC2=C1", 
	 "Tm": 330.15, 
	 "num_atms": 30, 
	 "gaussian": { 
		 "optdone": 1, 
		 "sigma_profile": "yes", 
		 "theory": "DFT", 
		 "functional": "B3LYP", 
		 "basiset": "6-31G**", 
		 "properties": { 
			 "R2extent": 5225.9749, 
			 "electric_dipole_moment_norm": 1.20046326058, 
			 "electric_quadrupole_moment_norm": 14.201694425, 
			 "total_energy": -803.655320609, 
			 "HOMO_LUMO_gap": 0.19487, 
			 "cosmo_polarized_energy": -13.49, 
			 "cosmo_cavitation_energy": 33.32, 
			 "cosmo_dispersion_energy": -24.27, 
			 "cosmo_repulsion_energy": 1.91, 
			 "cosmo_total_nonelectrostatic_energy": 10.96, 
			 "SMD_solvation_energy": 6.98 
		},
		"coords": [
			{
				"x": 1.9959929651,
				"y": 0.9717101717,
				"z": -3.3237072813,
				"element": "C" 
			},
			{
				"x": 1.8188608466,
				"y": 2.3544368636,
				"z": -3.0645968547,
				"element": "O" 
			},
			{
				"x": 2.2911455039,
				"y": 2.79478108,
				"z": -1.8086364026,
				"element": "C" 
			},
			{
				"x": 1.3519223025,
				"y": 2.5149890457,
				"z": -0.6413444637,
				"element": "C" 
			},
			{
				"x": 1.4651157396,
				"y": 1.1459568013,
				"z": -0.2636407899,
				"element": "O" 
			},
			{
				"x": 0.734038556,
				"y": 0.6933487494,
				"z": 0.810177329,
				"element": "C" 
			},
			{
				"x": 0.9837393226,
				"y": -0.6410453122,
				"z": 1.1803596768,
				"element": "C" 
			},
			{
				"x": 2.0033611111,
				"y": -1.4384902846,
				"z": 0.4005377602,
				"element": "C" 
			},
			{
				"x": 2.143085069,
				"y": -2.7252026816,
				"z": 0.9855261178,
				"element": "O" 
			},
			{
				"x": 0.2905354551,
				"y": -1.2136784921,
				"z": 2.2588792589,
				"element": "C" 
			},
			{
				"x": -0.6282162677,
				"y": -0.4250649817,
				"z": 2.9241098885,
				"element": "C" 
			},
			{
				"x": -1.4007412147,
				"y": -0.7393219736,
				"z": 4.0268634573,
				"element": "O" 
			},
			{
				"x": -2.2955346348,
				"y": 0.3628653053,
				"z": 4.1789149252,
				"element": "C" 
			},
			{
				"x": -1.7967322018,
				"y": 1.4541176232,
				"z": 3.3916162935,
				"element": "O" 
			},
			{
				"x": -0.8652850614,
				"y": 0.8892095232,
				"z": 2.5514805005,
				"element": "C" 
			},
			{
				"x": -0.2023059343,
				"y": 1.4903933129,
				"z": 1.4957992021,
				"element": "C" 
			},
			{
				"x": 1.7256656551,
				"y": 0.8121272165,
				"z": -4.3707647783,
				"element": "H" 
			},
			{
				"x": 3.0443315931,
				"y": 0.6676046991,
				"z": -3.1786232111,
				"element": "H" 
			},
			{
				"x": 1.3628947846,
				"y": 0.3425731278,
				"z": -2.6869360907,
				"element": "H" 
			},
			{
				"x": 2.3985306917,
				"y": 3.8822686375,
				"z": -1.8942874718,
				"element": "H" 
			},
			{
				"x": 3.2831421497,
				"y": 2.3715136,
				"z": -1.5826588851,
				"element": "H" 
			},
			{
				"x": 1.6229498609,
				"y": 3.1601598532,
				"z": 0.2079718203,
				"element": "H" 
			},
			{
				"x": 0.3216549221,
				"y": 2.7502906079,
				"z": -0.9413606409,
				"element": "H" 
			},
			{
				"x": 2.9608879151,
				"y": -0.8934225933,
				"z": 0.3928569592,
				"element": "H" 
			},
			{
				"x": 1.6823623039,
				"y": -1.5126816073,
				"z": -0.6519176336,
				"element": "H" 
			},
			{
				"x": 2.7870444594,
				"y": -3.2179330764,
				"z": 0.4642187155,
				"element": "H" 
			},
			{
				"x": 0.4894332999,
				"y": -2.237638277,
				"z": 2.546680921,
				"element": "H" 
			},
			{
				"x": -2.3330964036,
				"y": 0.6628045615,
				"z": 5.2301204191,
				"element": "H" 
			},
			{
				"x": -3.296676298,
				"y": 0.0826404206,
				"z": 3.816033434,
				"element": "H" 
			},
			{
				"x": -0.4081064907,
				"y": 2.5170880795,
				"z": 1.2254278249,
				"element": "H" 
			}
		],
		 "valence_orbital": [ 
			{
				"type": "occ",
				"energy": -0.28039,
				"method": "rhf"
			},
			{
				"type": "occ",
				"energy": -0.2693,
				"method": "rhf"
			},
			{
				"type": "occ",
				"energy": -0.25518,
				"method": "rhf"
			},
			{
				"type": "occ",
				"energy": -0.23612,
				"method": "rhf"
			},
			{
				"type": "occ",
				"energy": -0.18705,
				"method": "rhf"
			},
			{
				"type": "unocc",
				"energy": 0.00782,
				"method": "rhf"
			},
			{
				"type": "unocc",
				"energy": 0.02436,
				"method": "rhf"
			},
			{
				"type": "unocc",
				"energy": 0.07358,
				"method": "rhf"
			},
			{
				"type": "unocc",
				"energy": 0.08637,
				"method": "rhf"
			},
			{
				"type": "unocc",
				"energy": 0.10176,
				"method": "rhf"
			}
		],
		"cosmo_sigma_profile": { 
			"-0.025": 0.0,
			"-0.024": 0.0,
			"-0.023": 0.0,
			"-0.022": 0.0,
			"-0.021": 0.0,
			"-0.02": 0.0,
			"-0.019": 0.0,
			"-0.018": 0.0,
			"-0.017": 0.0,
			"-0.016": 0.776843037026,
			"-0.015": 1.12542580833,
			"-0.014": 1.16246830943,
			"-0.013": 1.01917095978,
			"-0.012": 0.505504731384,
			"-0.011": 0.78473797337,
			"-0.01": 0.855875455408,
			"-0.009": 0.547360064119,
			"-0.008": 2.9289405927,
			"-0.007": 7.85425662231,
			"-0.006": 15.5326300018,
			"-0.005": 19.0559489264,
			"-0.004": 22.8586173209,
			"-0.003": 22.0026456197,
			"-0.002": 19.7513213253,
			"-0.001": 17.2173830883,
			"0.0": 13.8601985087,
			"0.001": 13.5132914042,
			"0.002": 13.6141212668,
			"0.003": 20.1262549851,
			"0.004": 18.3104537191,
			"0.005": 11.3503639229,
			"0.006": 6.42262385528,
			"0.007": 5.14695882747,
			"0.008": 6.56594055139,
			"0.009": 6.12083250459,
			"0.01": 5.07177065405,
			"0.011": 3.26602023991,
			"0.012": 2.52720755488,
			"0.013": 2.33329080204,
			"0.014": 0.33616088115,
			"0.015": 0.0,
			"0.016": 0.0,
			"0.017": 0.0,
			"0.018": 0.0,
			"0.019": 0.0,
			"0.02": 0.0,
			"0.021": 0.0,
			"0.022": 0.0,
			"0.023": 0.0,
			"0.024": 0.0,
			"0.025": 0.0
		}
	}
}
