{
	 "smiles": "OCCN1CCN(CCCN2C3=CC=CC=C3SC3=CC=C(Cl)C=C23)CC1", 
	 "Tm": 367.15, 
	 "num_atms": 53, 
	 "gaussian": { 
		 "optdone": 1, 
		 "sigma_profile": "yes", 
		 "theory": "DFT", 
		 "functional": "B3LYP", 
		 "basiset": "6-31G**", 
		 "properties": { 
			 "R2extent": 10536.3704, 
			 "electric_dipole_moment_norm": 4.65583816085, 
			 "electric_quadrupole_moment_norm": 15.5701856042, 
			 "total_energy": -1913.71844399, 
			 "HOMO_LUMO_gap": 0.15714, 
			 "cosmo_polarized_energy": -14.33, 
			 "cosmo_cavitation_energy": 53.42, 
			 "cosmo_dispersion_energy": -34.55, 
			 "cosmo_repulsion_energy": 2.54, 
			 "cosmo_total_nonelectrostatic_energy": 21.41, 
			 "SMD_solvation_energy": 6.11 
		},
		"coords": [
			{
				"x": 3.1535021323,
				"y": -0.1673137728,
				"z": -3.7127066534,
				"element": "O" 
			},
			{
				"x": 2.8021482139,
				"y": -0.5538993494,
				"z": -2.3991880635,
				"element": "C" 
			},
			{
				"x": 1.3364913087,
				"y": -0.2124679237,
				"z": -2.1091951694,
				"element": "C" 
			},
			{
				"x": 1.0895479974,
				"y": 1.2037513835,
				"z": -2.4321976671,
				"element": "N" 
			},
			{
				"x": 1.5037470132,
				"y": 2.1332096703,
				"z": -1.3828333954,
				"element": "C" 
			},
			{
				"x": 0.6086660644,
				"y": 2.0696223132,
				"z": -0.1193098763,
				"element": "C" 
			},
			{
				"x": -0.7698878144,
				"y": 1.6971041672,
				"z": -0.472738032,
				"element": "N" 
			},
			{
				"x": -1.734555047,
				"y": 2.0555539543,
				"z": 0.560212087,
				"element": "C" 
			},
			{
				"x": -1.5666811112,
				"y": 1.3038623727,
				"z": 1.8885911524,
				"element": "C" 
			},
			{
				"x": -1.9229054341,
				"y": -0.203658963,
				"z": 1.9875217148,
				"element": "C" 
			},
			{
				"x": -1.1258059144,
				"y": -1.2158848887,
				"z": 1.2759391666,
				"element": "N" 
			},
			{
				"x": -1.5822513557,
				"y": -1.7056374118,
				"z": 0.0253223661,
				"element": "C" 
			},
			{
				"x": -2.5362648613,
				"y": -1.002141169,
				"z": -0.7292733213,
				"element": "C" 
			},
			{
				"x": -3.0035253548,
				"y": -1.4793995958,
				"z": -1.9542645125,
				"element": "C" 
			},
			{
				"x": -2.5022719501,
				"y": -2.661697974,
				"z": -2.4910202113,
				"element": "C" 
			},
			{
				"x": -1.5469214462,
				"y": -3.371414944,
				"z": -1.7651661862,
				"element": "C" 
			},
			{
				"x": -1.1153801557,
				"y": -2.9227992094,
				"z": -0.5150783728,
				"element": "C" 
			},
			{
				"x": -0.069716623,
				"y": -4.0067148358,
				"z": 0.4256927488,
				"element": "S" 
			},
			{
				"x": 0.751553242,
				"y": -2.8129363102,
				"z": 1.4483826971,
				"element": "C" 
			},
			{
				"x": 1.9950442902,
				"y": -3.1578170547,
				"z": 1.9758596475,
				"element": "C" 
			},
			{
				"x": 2.6163994282,
				"y": -2.3823240153,
				"z": 2.9552793045,
				"element": "C" 
			},
			{
				"x": 1.9539148363,
				"y": -1.2400889976,
				"z": 3.3812701103,
				"element": "C" 
			},
			{
				"x": 2.6716443329,
				"y": -0.2338325166,
				"z": 4.6346570143,
				"element": "Cl" 
			},
			{
				"x": 0.7326397301,
				"y": -0.8463824325,
				"z": 2.8343182327,
				"element": "C" 
			},
			{
				"x": 0.1038774217,
				"y": -1.6162239785,
				"z": 1.8372697612,
				"element": "C" 
			},
			{
				"x": -1.1296282793,
				"y": 2.2190875685,
				"z": -1.7880623868,
				"element": "C" 
			},
			{
				"x": -0.2749923088,
				"y": 1.5350223096,
				"z": -2.8810158425,
				"element": "C" 
			},
			{
				"x": 2.6767800249,
				"y": 0.6714927747,
				"z": -3.8387051389,
				"element": "H" 
			},
			{
				"x": 2.9508740252,
				"y": -1.6359966378,
				"z": -2.3088239196,
				"element": "H" 
			},
			{
				"x": 3.4613397335,
				"y": -0.0777220119,
				"z": -1.6514816496,
				"element": "H" 
			},
			{
				"x": 0.7081961161,
				"y": -0.8164628748,
				"z": -2.7698526067,
				"element": "H" 
			},
			{
				"x": 1.0714761391,
				"y": -0.4794259385,
				"z": -1.0754756808,
				"element": "H" 
			},
			{
				"x": 1.4767705544,
				"y": 3.1446371002,
				"z": -1.8052361479,
				"element": "H" 
			},
			{
				"x": 2.5444898762,
				"y": 1.9435136018,
				"z": -1.1048492932,
				"element": "H" 
			},
			{
				"x": 0.646849708,
				"y": 3.0559220104,
				"z": 0.3846403632,
				"element": "H" 
			},
			{
				"x": 1.0050512542,
				"y": 1.3351819427,
				"z": 0.5898317545,
				"element": "H" 
			},
			{
				"x": -1.6844823721,
				"y": 3.1395634643,
				"z": 0.792699047,
				"element": "H" 
			},
			{
				"x": -2.7430741254,
				"y": 1.885232131,
				"z": 0.1634742002,
				"element": "H" 
			},
			{
				"x": -2.2306501768,
				"y": 1.7946341757,
				"z": 2.6130352922,
				"element": "H" 
			},
			{
				"x": -0.555299394,
				"y": 1.4837645905,
				"z": 2.2596237193,
				"element": "H" 
			},
			{
				"x": -2.9643487667,
				"y": -0.3486047478,
				"z": 1.6903225405,
				"element": "H" 
			},
			{
				"x": -1.8786018843,
				"y": -0.4693794543,
				"z": 3.0501357941,
				"element": "H" 
			},
			{
				"x": -2.9229237429,
				"y": -0.0631160102,
				"z": -0.3661853576,
				"element": "H" 
			},
			{
				"x": -3.7543382064,
				"y": -0.9064185027,
				"z": -2.4905746596,
				"element": "H" 
			},
			{
				"x": -2.846572726,
				"y": -3.0314799222,
				"z": -3.4513965933,
				"element": "H" 
			},
			{
				"x": -1.1435614423,
				"y": -4.302541156,
				"z": -2.1524707543,
				"element": "H" 
			},
			{
				"x": 2.4713430642,
				"y": -4.0721495616,
				"z": 1.6346375309,
				"element": "H" 
			},
			{
				"x": 3.57381321,
				"y": -2.6659504582,
				"z": 3.3750599087,
				"element": "H" 
			},
			{
				"x": 0.2832052803,
				"y": 0.0595702239,
				"z": 3.2077884835,
				"element": "H" 
			},
			{
				"x": -2.1876343681,
				"y": 2.0068269213,
				"z": -1.9758025322,
				"element": "H" 
			},
			{
				"x": -1.0199688643,
				"y": 3.3206386567,
				"z": -1.8408016768,
				"element": "H" 
			},
			{
				"x": -0.2253623278,
				"y": 2.2002581456,
				"z": -3.755237421,
				"element": "H" 
			},
			{
				"x": -0.7649589439,
				"y": 0.6119331406,
				"z": -3.1999215155,
				"element": "H" 
			}
		],
		 "valence_orbital": [ 
			{
				"type": "occ",
				"energy": -0.24565,
				"method": "rhf"
			},
			{
				"type": "occ",
				"energy": -0.23009,
				"method": "rhf"
			},
			{
				"type": "occ",
				"energy": -0.2185,
				"method": "rhf"
			},
			{
				"type": "occ",
				"energy": -0.21296,
				"method": "rhf"
			},
			{
				"type": "occ",
				"energy": -0.18531,
				"method": "rhf"
			},
			{
				"type": "unocc",
				"energy": -0.02817,
				"method": "rhf"
			},
			{
				"type": "unocc",
				"energy": -0.01826,
				"method": "rhf"
			},
			{
				"type": "unocc",
				"energy": -0.00917,
				"method": "rhf"
			},
			{
				"type": "unocc",
				"energy": 0.01302,
				"method": "rhf"
			},
			{
				"type": "unocc",
				"energy": 0.02236,
				"method": "rhf"
			}
		],
		"cosmo_sigma_profile": { 
			"-0.025": 0.0,
			"-0.024": 0.0,
			"-0.023": 0.0,
			"-0.022": 0.0,
			"-0.021": 0.0,
			"-0.02": 0.0,
			"-0.019": 0.0,
			"-0.018": 0.0,
			"-0.017": 0.0,
			"-0.016": 0.0,
			"-0.015": 0.0,
			"-0.014": 0.0,
			"-0.013": 0.0,
			"-0.012": 0.0,
			"-0.011": 0.0,
			"-0.01": 0.0,
			"-0.009": 0.0,
			"-0.008": 1.1128202693,
			"-0.007": 7.80270146441,
			"-0.006": 14.252677363,
			"-0.005": 19.8072565199,
			"-0.004": 33.8021538929,
			"-0.003": 39.8160144827,
			"-0.002": 51.9623367731,
			"-0.001": 53.8228666248,
			"0.0": 34.8875418298,
			"0.001": 27.1639146976,
			"0.002": 32.877786553,
			"0.003": 35.1677703639,
			"0.004": 26.6993156733,
			"0.005": 18.4332728841,
			"0.006": 6.48962859203,
			"0.007": 4.08583509479,
			"0.008": 3.46459584936,
			"0.009": 1.49583232575,
			"0.01": 1.81743568491,
			"0.011": 1.44157556584,
			"0.012": 1.39385752166,
			"0.013": 1.56080068779,
			"0.014": 1.99505194677,
			"0.015": 2.59842008679,
			"0.016": 0.502345026689,
			"0.017": 0.0,
			"0.018": 0.0,
			"0.019": 0.0,
			"0.02": 0.0,
			"0.021": 0.0,
			"0.022": 0.0,
			"0.023": 0.0,
			"0.024": 0.0,
			"0.025": 0.0
		}
	}
}
