{
	 "smiles": "CCN(CC)S(=O)(=O)C1=CN=C(NN)C=C1", 
	 "Tm": 408.15, 
	 "num_atms": 32, 
	 "gaussian": { 
		 "optdone": 1, 
		 "sigma_profile": "yes", 
		 "theory": "DFT", 
		 "functional": "B3LYP", 
		 "basiset": "6-31G**", 
		 "properties": { 
			 "R2extent": 4879.2658, 
			 "electric_dipole_moment_norm": 4.97016802734, 
			 "electric_quadrupole_moment_norm": 12.1393793021, 
			 "total_energy": -1120.14331212, 
			 "HOMO_LUMO_gap": 0.19256, 
			 "cosmo_polarized_energy": -18.57, 
			 "cosmo_cavitation_energy": 36.18, 
			 "cosmo_dispersion_energy": -25.3, 
			 "cosmo_repulsion_energy": 1.95, 
			 "cosmo_total_nonelectrostatic_energy": 12.83, 
			 "SMD_solvation_energy": 4.68 
		},
		"coords": [
			{
				"x": -3.2503374947,
				"y": 1.8879863533,
				"z": 0.576984363,
				"element": "C" 
			},
			{
				"x": -3.13525672,
				"y": 0.4929015061,
				"z": -0.031795902,
				"element": "C" 
			},
			{
				"x": -1.722249372,
				"y": 0.1015602569,
				"z": -0.2830700337,
				"element": "N" 
			},
			{
				"x": -1.3875688905,
				"y": -0.2693428115,
				"z": -1.6727261401,
				"element": "C" 
			},
			{
				"x": -1.3641170259,
				"y": 0.9522826812,
				"z": -2.5904276642,
				"element": "C" 
			},
			{
				"x": -1.055238311,
				"y": -0.923577742,
				"z": 0.8965438277,
				"element": "S" 
			},
			{
				"x": -1.6661693815,
				"y": -0.5112303108,
				"z": 2.1660267431,
				"element": "O" 
			},
			{
				"x": -1.1042887461,
				"y": -2.3336211595,
				"z": 0.4803139924,
				"element": "O" 
			},
			{
				"x": 0.6554692719,
				"y": -0.4320320327,
				"z": 0.8826552892,
				"element": "C" 
			},
			{
				"x": 1.6504047319,
				"y": -1.3498879318,
				"z": 0.559718978,
				"element": "C" 
			},
			{
				"x": 2.9562323837,
				"y": -1.0564563853,
				"z": 0.5819811874,
				"element": "N" 
			},
			{
				"x": 3.3128420976,
				"y": 0.1856234345,
				"z": 0.9480836157,
				"element": "C" 
			},
			{
				"x": 4.6553558228,
				"y": 0.4587058309,
				"z": 0.9900701568,
				"element": "N" 
			},
			{
				"x": 5.6294351408,
				"y": -0.4271093319,
				"z": 0.4942713246,
				"element": "N" 
			},
			{
				"x": 2.3704071736,
				"y": 1.1888441873,
				"z": 1.29669352,
				"element": "C" 
			},
			{
				"x": 1.0313046351,
				"y": 0.8682894797,
				"z": 1.265998064,
				"element": "C" 
			},
			{
				"x": -4.3037626447,
				"y": 2.1605115901,
				"z": 0.7058886006,
				"element": "H" 
			},
			{
				"x": -2.7762779016,
				"y": 2.6372941348,
				"z": -0.0646856948,
				"element": "H" 
			},
			{
				"x": -2.7697524268,
				"y": 1.9114818164,
				"z": 1.5579634936,
				"element": "H" 
			},
			{
				"x": -3.6512306114,
				"y": 0.4519752908,
				"z": -0.9964340527,
				"element": "H" 
			},
			{
				"x": -3.6258240711,
				"y": -0.2380601068,
				"z": 0.6178776674,
				"element": "H" 
			},
			{
				"x": -0.3965301372,
				"y": -0.7312424383,
				"z": -1.6675343887,
				"element": "H" 
			},
			{
				"x": -2.0861949325,
				"y": -1.0297211585,
				"z": -2.0498183891,
				"element": "H" 
			},
			{
				"x": -1.0952295453,
				"y": 0.6491410317,
				"z": -3.6075654118,
				"element": "H" 
			},
			{
				"x": -2.3397040791,
				"y": 1.4457970488,
				"z": -2.6401740975,
				"element": "H" 
			},
			{
				"x": -0.6306380817,
				"y": 1.6839073832,
				"z": -2.2393782918,
				"element": "H" 
			},
			{
				"x": 1.3781575711,
				"y": -2.3618969253,
				"z": 0.2721426556,
				"element": "H" 
			},
			{
				"x": 4.9524032908,
				"y": 1.422016031,
				"z": 1.0230041165,
				"element": "H" 
			},
			{
				"x": 5.7222135619,
				"y": -1.1879272673,
				"z": 1.1662729563,
				"element": "H" 
			},
			{
				"x": 5.2572452967,
				"y": -0.8618681378,
				"z": -0.3509523608,
				"element": "H" 
			},
			{
				"x": 2.7049508183,
				"y": 2.1796197826,
				"z": 1.5892314678,
				"element": "H" 
			},
			{
				"x": 0.2756485767,
				"y": 1.6005359003,
				"z": 1.5301404072,
				"element": "H" 
			}
		],
		 "valence_orbital": [ 
			{
				"type": "occ",
				"energy": -0.29226,
				"method": "rhf"
			},
			{
				"type": "occ",
				"energy": -0.28508,
				"method": "rhf"
			},
			{
				"type": "occ",
				"energy": -0.26943,
				"method": "rhf"
			},
			{
				"type": "occ",
				"energy": -0.24811,
				"method": "rhf"
			},
			{
				"type": "occ",
				"energy": -0.22749,
				"method": "rhf"
			},
			{
				"type": "unocc",
				"energy": -0.03493,
				"method": "rhf"
			},
			{
				"type": "unocc",
				"energy": -0.0266,
				"method": "rhf"
			},
			{
				"type": "unocc",
				"energy": 0.0634,
				"method": "rhf"
			},
			{
				"type": "unocc",
				"energy": 0.07424,
				"method": "rhf"
			},
			{
				"type": "unocc",
				"energy": 0.08203,
				"method": "rhf"
			}
		],
		"cosmo_sigma_profile": { 
			"-0.025": 0.0,
			"-0.024": 0.0,
			"-0.023": 0.0,
			"-0.022": 0.0,
			"-0.021": 0.0,
			"-0.02": 0.0,
			"-0.019": 0.0,
			"-0.018": 0.0,
			"-0.017": 0.0,
			"-0.016": 0.0,
			"-0.015": 0.350712263835,
			"-0.014": 1.37074045679,
			"-0.013": 1.20792637134,
			"-0.012": 1.7364457963,
			"-0.011": 2.2929517729,
			"-0.01": 3.34721043082,
			"-0.009": 3.57901112785,
			"-0.008": 4.42023075304,
			"-0.007": 6.77104376824,
			"-0.006": 7.88388283826,
			"-0.005": 13.3852950098,
			"-0.004": 20.3826692587,
			"-0.003": 27.2814260749,
			"-0.002": 29.7530632239,
			"-0.001": 23.9942062681,
			"0.0": 26.7339358436,
			"0.001": 26.6613960759,
			"0.002": 14.5972026242,
			"0.003": 8.66953874202,
			"0.004": 8.18447831746,
			"0.005": 6.32364916877,
			"0.006": 4.2416131887,
			"0.007": 4.51048797807,
			"0.008": 4.67779569834,
			"0.009": 5.10776635171,
			"0.01": 6.74419884909,
			"0.011": 9.96891727687,
			"0.012": 6.86457116206,
			"0.013": 1.2138205096,
			"0.014": 0.743350659676,
			"0.015": 0.573183642279,
			"0.016": 0.649126147587,
			"0.017": 0.171463889293,
			"0.018": 0.0,
			"0.019": 0.0,
			"0.02": 0.0,
			"0.021": 0.0,
			"0.022": 0.0,
			"0.023": 0.0,
			"0.024": 0.0,
			"0.025": 0.0
		}
	}
}
