{
	 "smiles": "C1CN2C=C(N=C2S1)C1=CC=CC=C1", 
	 "Tm": 421.15, 
	 "num_atms": 24, 
	 "gaussian": { 
		 "optdone": 1, 
		 "sigma_profile": "yes", 
		 "theory": "DFT", 
		 "functional": "B3LYP", 
		 "basiset": "6-31G**", 
		 "properties": { 
			 "R2extent": 4198.7905, 
			 "electric_dipole_moment_norm": 4.98167414229, 
			 "electric_quadrupole_moment_norm": 17.9060744651, 
			 "total_energy": -932.882887233, 
			 "HOMO_LUMO_gap": 0.17974, 
			 "cosmo_polarized_energy": -14.21, 
			 "cosmo_cavitation_energy": 29.03, 
			 "cosmo_dispersion_energy": -22.41, 
			 "cosmo_repulsion_energy": 1.69, 
			 "cosmo_total_nonelectrostatic_energy": 8.3, 
			 "SMD_solvation_energy": 2.65 
		},
		"coords": [
			{
				"x": 1.6630407115,
				"y": 3.4673258832,
				"z": 1.6245931325,
				"element": "C" 
			},
			{
				"x": 0.1828913688,
				"y": 3.21543937,
				"z": 1.2694472863,
				"element": "C" 
			},
			{
				"x": 0.0734173156,
				"y": 1.7702393521,
				"z": 1.1720967908,
				"element": "N" 
			},
			{
				"x": -0.9637952542,
				"y": 0.8605708607,
				"z": 1.0949509575,
				"element": "C" 
			},
			{
				"x": -0.3697029671,
				"y": -0.3505166824,
				"z": 0.7873018655,
				"element": "C" 
			},
			{
				"x": 1.0088554453,
				"y": -0.1904921821,
				"z": 0.6564226846,
				"element": "N" 
			},
			{
				"x": 1.2161676129,
				"y": 1.0787427536,
				"z": 0.8808578156,
				"element": "C" 
			},
			{
				"x": 2.6499540934,
				"y": 2.1155293604,
				"z": 0.8218989787,
				"element": "S" 
			},
			{
				"x": -0.996858379,
				"y": -1.6678188666,
				"z": 0.6189474489,
				"element": "C" 
			},
			{
				"x": -0.2011166484,
				"y": -2.7886437531,
				"z": 0.3288735518,
				"element": "C" 
			},
			{
				"x": -0.7791445588,
				"y": -4.0457047132,
				"z": 0.1627465935,
				"element": "C" 
			},
			{
				"x": -2.1605474791,
				"y": -4.2110751709,
				"z": 0.2829217623,
				"element": "C" 
			},
			{
				"x": -2.9611256598,
				"y": -3.1029153194,
				"z": 0.571195907,
				"element": "C" 
			},
			{
				"x": -2.3862935131,
				"y": -1.8450803053,
				"z": 0.7371702785,
				"element": "C" 
			},
			{
				"x": 2.0141270883,
				"y": 4.4317464898,
				"z": 1.2560712023,
				"element": "H" 
			},
			{
				"x": 1.8175541012,
				"y": 3.4152690534,
				"z": 2.7049003711,
				"element": "H" 
			},
			{
				"x": -0.4800245607,
				"y": 3.6100476659,
				"z": 2.0450652253,
				"element": "H" 
			},
			{
				"x": -0.0810504254,
				"y": 3.6817930787,
				"z": 0.311395983,
				"element": "H" 
			},
			{
				"x": -1.9860697806,
				"y": 1.1407020831,
				"z": 1.2936798181,
				"element": "H" 
			},
			{
				"x": 0.8708313577,
				"y": -2.6522877436,
				"z": 0.2377220137,
				"element": "H" 
			},
			{
				"x": -0.1470064171,
				"y": -4.9007018185,
				"z": -0.0612369333,
				"element": "H" 
			},
			{
				"x": -2.6095854533,
				"y": -5.1916613196,
				"z": 0.1535730322,
				"element": "H" 
			},
			{
				"x": -4.0373513199,
				"y": -3.2184401138,
				"z": 0.6666816778,
				"element": "H" 
			},
			{
				"x": -3.025066678,
				"y": -0.9945679625,
				"z": 0.9594225564,
				"element": "H" 
			}
		],
		 "valence_orbital": [ 
			{
				"type": "occ",
				"energy": -0.28165,
				"method": "rhf"
			},
			{
				"type": "occ",
				"energy": -0.27141,
				"method": "rhf"
			},
			{
				"type": "occ",
				"energy": -0.24062,
				"method": "rhf"
			},
			{
				"type": "occ",
				"energy": -0.23647,
				"method": "rhf"
			},
			{
				"type": "occ",
				"energy": -0.19274,
				"method": "rhf"
			},
			{
				"type": "unocc",
				"energy": -0.013,
				"method": "rhf"
			},
			{
				"type": "unocc",
				"energy": 0.00317,
				"method": "rhf"
			},
			{
				"type": "unocc",
				"energy": 0.01039,
				"method": "rhf"
			},
			{
				"type": "unocc",
				"energy": 0.03335,
				"method": "rhf"
			},
			{
				"type": "unocc",
				"energy": 0.07007,
				"method": "rhf"
			}
		],
		"cosmo_sigma_profile": { 
			"-0.025": 0.0,
			"-0.024": 0.0,
			"-0.023": 0.0,
			"-0.022": 0.0,
			"-0.021": 0.0,
			"-0.02": 0.0,
			"-0.019": 0.0,
			"-0.018": 0.0,
			"-0.017": 0.0,
			"-0.016": 0.0,
			"-0.015": 0.0,
			"-0.014": 0.0,
			"-0.013": 0.0,
			"-0.012": 0.0,
			"-0.011": 0.0,
			"-0.01": 0.000733718550161,
			"-0.009": 1.33776844618,
			"-0.008": 6.33997293949,
			"-0.007": 14.133954032,
			"-0.006": 16.979565672,
			"-0.005": 19.1491787506,
			"-0.004": 17.667573298,
			"-0.003": 16.5566500394,
			"-0.002": 9.40811183315,
			"-0.001": 11.7939566081,
			"0.0": 10.6990241744,
			"0.001": 11.2755289776,
			"0.002": 13.3686552192,
			"0.003": 15.2572986933,
			"0.004": 19.13430876,
			"0.005": 18.6495478294,
			"0.006": 15.3178692049,
			"0.007": 6.40625079334,
			"0.008": 3.433322976,
			"0.009": 1.79376354445,
			"0.01": 1.36592193394,
			"0.011": 1.20099604781,
			"0.012": 0.838440994626,
			"0.013": 1.4043651905,
			"0.014": 0.980738657238,
			"0.015": 0.383450543847,
			"0.016": 0.0,
			"0.017": 0.0,
			"0.018": 0.0,
			"0.019": 0.0,
			"0.02": 0.0,
			"0.021": 0.0,
			"0.022": 0.0,
			"0.023": 0.0,
			"0.024": 0.0,
			"0.025": 0.0
		}
	}
}
