{
	 "smiles": "CC(C)(C)OCC1CO1", 
	 "Tm": 203.15, 
	 "num_atms": 23, 
	 "gaussian": { 
		 "optdone": 1, 
		 "sigma_profile": "yes", 
		 "theory": "DFT", 
		 "functional": "B3LYP", 
		 "basiset": "6-31G**", 
		 "properties": { 
			 "R2extent": 1810.2133, 
			 "electric_dipole_moment_norm": 1.88832022973, 
			 "electric_quadrupole_moment_norm": 7.91744444818, 
			 "total_energy": -425.581272381, 
			 "HOMO_LUMO_gap": 0.32613, 
			 "cosmo_polarized_energy": -6.63, 
			 "cosmo_cavitation_energy": 24.93, 
			 "cosmo_dispersion_energy": -17.65, 
			 "cosmo_repulsion_energy": 1.47, 
			 "cosmo_total_nonelectrostatic_energy": 8.75, 
			 "SMD_solvation_energy": 4.47 
		},
		"coords": [
			{
				"x": -1.0517965903,
				"y": 1.4212479733,
				"z": -2.1354781997,
				"element": "C" 
			},
			{
				"x": -0.3684476773,
				"y": 0.1473945635,
				"z": -1.6112477851,
				"element": "C" 
			},
			{
				"x": -1.1647456919,
				"y": -1.1076005373,
				"z": -2.0009619724,
				"element": "C" 
			},
			{
				"x": 1.064004849,
				"y": 0.0571822324,
				"z": -2.1483630723,
				"element": "C" 
			},
			{
				"x": -0.1834393876,
				"y": 0.2221190393,
				"z": -0.1807470611,
				"element": "O" 
			},
			{
				"x": -1.33203705,
				"y": 0.1882859702,
				"z": 0.6464202325,
				"element": "C" 
			},
			{
				"x": -0.8862557979,
				"y": 0.5728370989,
				"z": 2.037979299,
				"element": "C" 
			},
			{
				"x": -0.5527976663,
				"y": -0.4416809554,
				"z": 3.0449557392,
				"element": "C" 
			},
			{
				"x": -1.8065091109,
				"y": 0.2552268317,
				"z": 3.0873668703,
				"element": "O" 
			},
			{
				"x": -2.084046892,
				"y": 1.5103624332,
				"z": -1.783230067,
				"element": "H" 
			},
			{
				"x": -0.4987157597,
				"y": 2.3075644951,
				"z": -1.8102499772,
				"element": "H" 
			},
			{
				"x": -1.0811269837,
				"y": 1.415888978,
				"z": -3.2297922916,
				"element": "H" 
			},
			{
				"x": -2.2021745554,
				"y": -1.0579013355,
				"z": -1.6556747845,
				"element": "H" 
			},
			{
				"x": -1.186658076,
				"y": -1.2211493894,
				"z": -3.0894008463,
				"element": "H" 
			},
			{
				"x": -0.7007253908,
				"y": -2.001829384,
				"z": -1.5729912146,
				"element": "H" 
			},
			{
				"x": 1.0691203116,
				"y": 0.0132110687,
				"z": -3.2417101514,
				"element": "H" 
			},
			{
				"x": 1.6413709133,
				"y": 0.930539632,
				"z": -1.8313601692,
				"element": "H" 
			},
			{
				"x": 1.5588943735,
				"y": -0.8373699238,
				"z": -1.7593382007,
				"element": "H" 
			},
			{
				"x": -1.7931351904,
				"y": -0.8098499311,
				"z": 0.6821118064,
				"element": "H" 
			},
			{
				"x": -2.1041800498,
				"y": 0.8963470462,
				"z": 0.3101484326,
				"element": "H" 
			},
			{
				"x": -0.4178951743,
				"y": 1.5555616337,
				"z": 2.115852505,
				"element": "H" 
			},
			{
				"x": -0.612694721,
				"y": -1.4976395841,
				"z": 2.780461021,
				"element": "H" 
			},
			{
				"x": 0.1440913178,
				"y": -0.2003479554,
				"z": 3.8472498871,
				"element": "H" 
			}
		],
		 "valence_orbital": [ 
			{
				"type": "occ",
				"energy": -0.34387,
				"method": "rhf"
			},
			{
				"type": "occ",
				"energy": -0.30726,
				"method": "rhf"
			},
			{
				"type": "occ",
				"energy": -0.29732,
				"method": "rhf"
			},
			{
				"type": "occ",
				"energy": -0.2651,
				"method": "rhf"
			},
			{
				"type": "occ",
				"energy": -0.25266,
				"method": "rhf"
			},
			{
				"type": "unocc",
				"energy": 0.07347,
				"method": "rhf"
			},
			{
				"type": "unocc",
				"energy": 0.097,
				"method": "rhf"
			},
			{
				"type": "unocc",
				"energy": 0.10955,
				"method": "rhf"
			},
			{
				"type": "unocc",
				"energy": 0.11471,
				"method": "rhf"
			},
			{
				"type": "unocc",
				"energy": 0.12476,
				"method": "rhf"
			}
		],
		"cosmo_sigma_profile": { 
			"-0.025": 0.0,
			"-0.024": 0.0,
			"-0.023": 0.0,
			"-0.022": 0.0,
			"-0.021": 0.0,
			"-0.02": 0.0,
			"-0.019": 0.0,
			"-0.018": 0.0,
			"-0.017": 0.0,
			"-0.016": 0.0,
			"-0.015": 0.0,
			"-0.014": 0.0,
			"-0.013": 0.0,
			"-0.012": 0.0,
			"-0.011": 0.0,
			"-0.01": 0.0,
			"-0.009": 0.0,
			"-0.008": 0.0,
			"-0.007": 0.461722144854,
			"-0.006": 5.65644130717,
			"-0.005": 8.53101502145,
			"-0.004": 16.5515556896,
			"-0.003": 30.0388754762,
			"-0.002": 24.5833896172,
			"-0.001": 21.2602954852,
			"0.0": 22.3053063254,
			"0.001": 21.9846835239,
			"0.002": 7.37541247793,
			"0.003": 2.69318320106,
			"0.004": 4.20634811215,
			"0.005": 2.89615541658,
			"0.006": 3.04702079325,
			"0.007": 3.30619593548,
			"0.008": 2.5742185607,
			"0.009": 2.52597668027,
			"0.01": 3.96791529638,
			"0.011": 4.12470039034,
			"0.012": 4.0852577092,
			"0.013": 0.966357498705,
			"0.014": 0.0,
			"0.015": 0.0,
			"0.016": 0.0,
			"0.017": 0.0,
			"0.018": 0.0,
			"0.019": 0.0,
			"0.02": 0.0,
			"0.021": 0.0,
			"0.022": 0.0,
			"0.023": 0.0,
			"0.024": 0.0,
			"0.025": 0.0
		}
	}
}
