{
	 "smiles": "CCC(=O)C1=CC=C(Cl)C=C1", 
	 "Tm": 309.25, 
	 "num_atms": 20, 
	 "gaussian": { 
		 "optdone": 1, 
		 "sigma_profile": "yes", 
		 "theory": "DFT", 
		 "functional": "B3LYP", 
		 "basiset": "6-31G**", 
		 "properties": { 
			 "R2extent": 3875.8662, 
			 "electric_dipole_moment_norm": 2.17088060243, 
			 "electric_quadrupole_moment_norm": 8.04883599721, 
			 "total_energy": -883.80768924, 
			 "HOMO_LUMO_gap": 0.19114, 
			 "cosmo_polarized_energy": -7.7, 
			 "cosmo_cavitation_energy": 25.73, 
			 "cosmo_dispersion_energy": -19.0, 
			 "cosmo_repulsion_energy": 1.53, 
			 "cosmo_total_nonelectrostatic_energy": 8.25, 
			 "SMD_solvation_energy": 4.64 
		},
		"coords": [
			{
				"x": 3.0414549047,
				"y": 0.1000648864,
				"z": -0.8078912836,
				"element": "C" 
			},
			{
				"x": 2.0532414462,
				"y": 0.5855672882,
				"z": 0.2506409702,
				"element": "C" 
			},
			{
				"x": 0.6162030164,
				"y": 0.1644745544,
				"z": -0.0371186463,
				"element": "C" 
			},
			{
				"x": 0.3421607472,
				"y": -0.4940983147,
				"z": -1.0293736073,
				"element": "O" 
			},
			{
				"x": -0.4653812169,
				"y": 0.5723566568,
				"z": 0.9214060564,
				"element": "C" 
			},
			{
				"x": -0.2215402067,
				"y": 1.3272656199,
				"z": 2.0782977062,
				"element": "C" 
			},
			{
				"x": -1.2634469994,
				"y": 1.6788644166,
				"z": 2.9348119286,
				"element": "C" 
			},
			{
				"x": -2.5607996429,
				"y": 1.2690580314,
				"z": 2.6270947413,
				"element": "C" 
			},
			{
				"x": -3.8776271693,
				"y": 1.7075289924,
				"z": 3.7002066924,
				"element": "Cl" 
			},
			{
				"x": -2.8314875047,
				"y": 0.5166257399,
				"z": 1.4815509592,
				"element": "C" 
			},
			{
				"x": -1.7812292945,
				"y": 0.1741877366,
				"z": 0.6376012468,
				"element": "C" 
			},
			{
				"x": 2.7809957436,
				"y": 0.4916950761,
				"z": -1.794393749,
				"element": "H" 
			},
			{
				"x": 4.0567936356,
				"y": 0.4241926678,
				"z": -0.5618091028,
				"element": "H" 
			},
			{
				"x": 3.0324949838,
				"y": -0.9904138958,
				"z": -0.8798609672,
				"element": "H" 
			},
			{
				"x": 2.0807567425,
				"y": 1.6806550363,
				"z": 0.336549473,
				"element": "H" 
			},
			{
				"x": 2.3302588222,
				"y": 0.2083528284,
				"z": 1.244778788,
				"element": "H" 
			},
			{
				"x": 0.784596439,
				"y": 1.6496963196,
				"z": 2.3244729627,
				"element": "H" 
			},
			{
				"x": -1.0757225821,
				"y": 2.2623049355,
				"z": 3.8291791267,
				"element": "H" 
			},
			{
				"x": -3.847809037,
				"y": 0.2088414415,
				"z": 1.2619499284,
				"element": "H" 
			},
			{
				"x": -1.9569128278,
				"y": -0.4092200173,
				"z": -0.2599932237,
				"element": "H" 
			}
		],
		 "valence_orbital": [ 
			{
				"type": "occ",
				"energy": -0.33551,
				"method": "rhf"
			},
			{
				"type": "occ",
				"energy": -0.3207,
				"method": "rhf"
			},
			{
				"type": "occ",
				"energy": -0.27411,
				"method": "rhf"
			},
			{
				"type": "occ",
				"energy": -0.25643,
				"method": "rhf"
			},
			{
				"type": "occ",
				"energy": -0.25425,
				"method": "rhf"
			},
			{
				"type": "unocc",
				"energy": -0.06311,
				"method": "rhf"
			},
			{
				"type": "unocc",
				"energy": -0.02304,
				"method": "rhf"
			},
			{
				"type": "unocc",
				"energy": 0.02277,
				"method": "rhf"
			},
			{
				"type": "unocc",
				"energy": 0.02917,
				"method": "rhf"
			},
			{
				"type": "unocc",
				"energy": 0.09136,
				"method": "rhf"
			}
		],
		"cosmo_sigma_profile": { 
			"-0.025": 0.0,
			"-0.024": 0.0,
			"-0.023": 0.0,
			"-0.022": 0.0,
			"-0.021": 0.0,
			"-0.02": 0.0,
			"-0.019": 0.0,
			"-0.018": 0.0,
			"-0.017": 0.0,
			"-0.016": 0.0,
			"-0.015": 0.0,
			"-0.014": 0.0,
			"-0.013": 0.0,
			"-0.012": 0.0,
			"-0.011": 0.0,
			"-0.01": 0.0,
			"-0.009": 0.0,
			"-0.008": 1.78782271734,
			"-0.007": 6.74068426212,
			"-0.006": 12.0525863023,
			"-0.005": 12.9733127613,
			"-0.004": 10.9615923811,
			"-0.003": 14.2679870254,
			"-0.002": 18.6407317759,
			"-0.001": 18.231365127,
			"0.0": 17.2493907439,
			"0.001": 23.8325422389,
			"0.002": 22.7928369031,
			"0.003": 15.5008083243,
			"0.004": 11.2495794058,
			"0.005": 4.62045485133,
			"0.006": 1.63651567848,
			"0.007": 1.93727598055,
			"0.008": 1.48230577901,
			"0.009": 1.70639912964,
			"0.01": 2.25303578328,
			"0.011": 2.88833529397,
			"0.012": 3.35222802609,
			"0.013": 0.91557503609,
			"0.014": 0.0,
			"0.015": 0.0,
			"0.016": 0.0,
			"0.017": 0.0,
			"0.018": 0.0,
			"0.019": 0.0,
			"0.02": 0.0,
			"0.021": 0.0,
			"0.022": 0.0,
			"0.023": 0.0,
			"0.024": 0.0,
			"0.025": 0.0
		}
	}
}
