{
	 "smiles": "O=NN1NC(=O)CC1C1=CC=C(C=C1)C1CC(=O)NN1N=O", 
	 "Tm": 423.15, 
	 "num_atms": 34, 
	 "gaussian": { 
		 "optdone": 1, 
		 "sigma_profile": "yes", 
		 "theory": "DFT", 
		 "functional": "B3LYP", 
		 "basiset": "6-31G**", 
		 "properties": { 
			 "R2extent": 9577.3552, 
			 "electric_dipole_moment_norm": 2.8018513326, 
			 "electric_quadrupole_moment_norm": 23.0859093932, 
			 "total_energy": -1093.69939211, 
			 "HOMO_LUMO_gap": 0.17791, 
			 "cosmo_polarized_energy": -27.24, 
			 "cosmo_cavitation_energy": 39.94, 
			 "cosmo_dispersion_energy": -27.67, 
			 "cosmo_repulsion_energy": 2.13, 
			 "cosmo_total_nonelectrostatic_energy": 14.4, 
			 "SMD_solvation_energy": 8.83 
		},
		"coords": [
			{
				"x": -2.1539907451,
				"y": 5.3496064035,
				"z": -0.9217866666,
				"element": "O" 
			},
			{
				"x": -1.4911886133,
				"y": 4.5294159757,
				"z": -0.2795577356,
				"element": "N" 
			},
			{
				"x": -1.0986638537,
				"y": 3.4811431521,
				"z": -0.9982769904,
				"element": "N" 
			},
			{
				"x": -1.2438375027,
				"y": 3.4618512495,
				"z": -2.3882364125,
				"element": "N" 
			},
			{
				"x": -0.0987604855,
				"y": 2.9621255118,
				"z": -2.9989685977,
				"element": "C" 
			},
			{
				"x": 0.1259755948,
				"y": 2.9829898092,
				"z": -4.1874286836,
				"element": "O" 
			},
			{
				"x": 0.7769686604,
				"y": 2.3740708746,
				"z": -1.8866441534,
				"element": "C" 
			},
			{
				"x": -0.0258349808,
				"y": 2.5628074267,
				"z": -0.5686965329,
				"element": "C" 
			},
			{
				"x": -0.5597876801,
				"y": 1.27077955,
				"z": 0.0250274733,
				"element": "C" 
			},
			{
				"x": 0.108603328,
				"y": 0.684631852,
				"z": 1.1031638225,
				"element": "C" 
			},
			{
				"x": -0.333645691,
				"y": -0.5222096335,
				"z": 1.646902442,
				"element": "C" 
			},
			{
				"x": -1.4606812407,
				"y": -1.1649593979,
				"z": 1.1227703313,
				"element": "C" 
			},
			{
				"x": -2.127012276,
				"y": -0.5767993631,
				"z": 0.038246796,
				"element": "C" 
			},
			{
				"x": -1.6858484174,
				"y": 0.6266880077,
				"z": -0.5041637375,
				"element": "C" 
			},
			{
				"x": -1.9704488909,
				"y": -2.4903993869,
				"z": 1.6606056953,
				"element": "C" 
			},
			{
				"x": -1.6128118533,
				"y": -2.8292025864,
				"z": 3.1199868395,
				"element": "C" 
			},
			{
				"x": -0.3598174887,
				"y": -3.7014204231,
				"z": 3.0114478313,
				"element": "C" 
			},
			{
				"x": 0.5111369585,
				"y": -3.8817203343,
				"z": 3.8340628977,
				"element": "O" 
			},
			{
				"x": -0.3822353331,
				"y": -4.2604965107,
				"z": 1.7399024549,
				"element": "N" 
			},
			{
				"x": -1.3481716994,
				"y": -3.6437640831,
				"z": 0.9324962884,
				"element": "N" 
			},
			{
				"x": -2.0512919486,
				"y": -4.4728918725,
				"z": 0.123281061,
				"element": "N" 
			},
			{
				"x": -3.0457060193,
				"y": -3.9568626063,
				"z": -0.3671937634,
				"element": "O" 
			},
			{
				"x": -1.7890497371,
				"y": 4.2474167162,
				"z": -2.7340696409,
				"element": "H" 
			},
			{
				"x": 1.7229292961,
				"y": 2.9239961317,
				"z": -1.8779376228,
				"element": "H" 
			},
			{
				"x": 0.9994064789,
				"y": 1.3264260178,
				"z": -2.0959393584,
				"element": "H" 
			},
			{
				"x": 0.5581321551,
				"y": 3.0925307634,
				"z": 0.1866201657,
				"element": "H" 
			},
			{
				"x": 0.9784753663,
				"y": 1.1756998207,
				"z": 1.5322760436,
				"element": "H" 
			},
			{
				"x": 0.2065734346,
				"y": -0.9459281188,
				"z": 2.4884131334,
				"element": "H" 
			},
			{
				"x": -2.9930600931,
				"y": -1.0767284953,
				"z": -0.3858368623,
				"element": "H" 
			},
			{
				"x": -2.2264381542,
				"y": 1.0717232384,
				"z": -1.3340400655,
				"element": "H" 
			},
			{
				"x": -3.0394910684,
				"y": -2.571682091,
				"z": 1.4550623343,
				"element": "H" 
			},
			{
				"x": -2.4091372283,
				"y": -3.4153798507,
				"z": 3.5912170728,
				"element": "H" 
			},
			{
				"x": -1.4181996332,
				"y": -1.959305026,
				"z": 3.7462920859,
				"element": "H" 
			},
			{
				"x": 0.4839093612,
				"y": -4.5282527212,
				"z": 1.2881020546,
				"element": "H" 
			}
		],
		 "valence_orbital": [ 
			{
				"type": "occ",
				"energy": -0.27572,
				"method": "rhf"
			},
			{
				"type": "occ",
				"energy": -0.26898,
				"method": "rhf"
			},
			{
				"type": "occ",
				"energy": -0.25754,
				"method": "rhf"
			},
			{
				"type": "occ",
				"energy": -0.24818,
				"method": "rhf"
			},
			{
				"type": "occ",
				"energy": -0.24458,
				"method": "rhf"
			},
			{
				"type": "unocc",
				"energy": -0.06667,
				"method": "rhf"
			},
			{
				"type": "unocc",
				"energy": -0.05643,
				"method": "rhf"
			},
			{
				"type": "unocc",
				"energy": -0.04254,
				"method": "rhf"
			},
			{
				"type": "unocc",
				"energy": -0.0333,
				"method": "rhf"
			},
			{
				"type": "unocc",
				"energy": -0.0123,
				"method": "rhf"
			}
		],
		"cosmo_sigma_profile": { 
			"-0.025": 0.0,
			"-0.024": 0.0,
			"-0.023": 0.0,
			"-0.022": 0.0,
			"-0.021": 0.0,
			"-0.02": 0.0,
			"-0.019": 0.0,
			"-0.018": 0.0,
			"-0.017": 1.02955950036,
			"-0.016": 1.38259093772,
			"-0.015": 1.69685442537,
			"-0.014": 2.07286925948,
			"-0.013": 1.42900370064,
			"-0.012": 1.54111292708,
			"-0.011": 1.50913178148,
			"-0.01": 2.0243591327,
			"-0.009": 9.29304771582,
			"-0.008": 18.0649243479,
			"-0.007": 16.0671578409,
			"-0.006": 19.1897594658,
			"-0.005": 21.8144404227,
			"-0.004": 20.7904426022,
			"-0.003": 13.4009740881,
			"-0.002": 14.1406087255,
			"-0.001": 13.1202681685,
			"0.0": 14.4877114202,
			"0.001": 14.5164012395,
			"0.002": 16.7869481043,
			"0.003": 15.3957014087,
			"0.004": 15.4569888562,
			"0.005": 7.87058657081,
			"0.006": 8.69639526262,
			"0.007": 8.81404959629,
			"0.008": 12.2683120532,
			"0.009": 11.3243469662,
			"0.01": 9.24630020952,
			"0.011": 11.6752541219,
			"0.012": 11.6708394328,
			"0.013": 1.85050302556,
			"0.014": 0.0,
			"0.015": 0.0,
			"0.016": 0.0,
			"0.017": 0.0,
			"0.018": 0.0,
			"0.019": 0.0,
			"0.02": 0.0,
			"0.021": 0.0,
			"0.022": 0.0,
			"0.023": 0.0,
			"0.024": 0.0,
			"0.025": 0.0
		}
	}
}
