{
	 "smiles": "ClC1=CC=CC2=C1NC=C2", 
	 "Tm": 331.15, 
	 "num_atms": 16, 
	 "gaussian": { 
		 "optdone": 1, 
		 "sigma_profile": "yes", 
		 "theory": "DFT", 
		 "functional": "B3LYP", 
		 "basiset": "6-31G**", 
		 "properties": { 
			 "R2extent": 2061.8564, 
			 "electric_dipole_moment_norm": 1.71009173438, 
			 "electric_quadrupole_moment_norm": 8.48456753759, 
			 "total_energy": -823.414962036, 
			 "HOMO_LUMO_gap": 0.19243, 
			 "cosmo_polarized_energy": -6.92, 
			 "cosmo_cavitation_energy": 21.54, 
			 "cosmo_dispersion_energy": -16.5, 
			 "cosmo_repulsion_energy": 1.32, 
			 "cosmo_total_nonelectrostatic_energy": 6.36, 
			 "SMD_solvation_energy": 3.35 
		},
		"coords": [
			{
				"x": -0.1446099791,
				"y": -2.4171562642,
				"z": -2.8327369481,
				"element": "Cl" 
			},
			{
				"x": -0.7854096151,
				"y": -1.5187259685,
				"z": -1.4607788707,
				"element": "C" 
			},
			{
				"x": -1.7006020546,
				"y": -2.0860074481,
				"z": -0.5875560507,
				"element": "C" 
			},
			{
				"x": -2.1929162091,
				"y": -1.3365887918,
				"z": 0.5012348831,
				"element": "C" 
			},
			{
				"x": -1.7836902659,
				"y": -0.0296035493,
				"z": 0.7291201166,
				"element": "C" 
			},
			{
				"x": -0.8558300853,
				"y": 0.5589318782,
				"z": -0.148313709,
				"element": "C" 
			},
			{
				"x": -0.3634727215,
				"y": -0.2043155363,
				"z": -1.2453312499,
				"element": "C" 
			},
			{
				"x": 0.5184412161,
				"y": 0.5836064894,
				"z": -1.9452693601,
				"element": "N" 
			},
			{
				"x": 0.6020110899,
				"y": 1.819288637,
				"z": -1.3299746926,
				"element": "C" 
			},
			{
				"x": -0.2185127592,
				"y": 1.844833702,
				"z": -0.233448145,
				"element": "C" 
			},
			{
				"x": -2.0324117585,
				"y": -3.1056677848,
				"z": -0.7488001641,
				"element": "H" 
			},
			{
				"x": -2.908875241,
				"y": -1.8039248234,
				"z": 1.1705250839,
				"element": "H" 
			},
			{
				"x": -2.1741826111,
				"y": 0.5312415725,
				"z": 1.573033057,
				"element": "H" 
			},
			{
				"x": 1.0162111923,
				"y": 0.2938720727,
				"z": -2.7714509534,
				"element": "H" 
			},
			{
				"x": 1.2483589169,
				"y": 2.5863729168,
				"z": -1.731589131,
				"element": "H" 
			},
			{
				"x": -0.3554091147,
				"y": 2.6805428978,
				"z": 0.4376361338,
				"element": "H" 
			}
		],
		 "valence_orbital": [ 
			{
				"type": "occ",
				"energy": -0.32463,
				"method": "rhf"
			},
			{
				"type": "occ",
				"energy": -0.31566,
				"method": "rhf"
			},
			{
				"type": "occ",
				"energy": -0.27097,
				"method": "rhf"
			},
			{
				"type": "occ",
				"energy": -0.22747,
				"method": "rhf"
			},
			{
				"type": "occ",
				"energy": -0.20866,
				"method": "rhf"
			},
			{
				"type": "unocc",
				"energy": -0.01623,
				"method": "rhf"
			},
			{
				"type": "unocc",
				"energy": 0.02034,
				"method": "rhf"
			},
			{
				"type": "unocc",
				"energy": 0.03205,
				"method": "rhf"
			},
			{
				"type": "unocc",
				"energy": 0.06552,
				"method": "rhf"
			},
			{
				"type": "unocc",
				"energy": 0.08374,
				"method": "rhf"
			}
		],
		"cosmo_sigma_profile": { 
			"-0.025": 0.0,
			"-0.024": 0.0,
			"-0.023": 0.0,
			"-0.022": 0.0,
			"-0.021": 0.0,
			"-0.02": 0.0,
			"-0.019": 0.0,
			"-0.018": 0.0,
			"-0.017": 0.0,
			"-0.016": 0.176628771256,
			"-0.015": 1.1620457768,
			"-0.014": 0.750273171605,
			"-0.013": 1.06886572726,
			"-0.012": 1.02018596654,
			"-0.011": 0.940792651666,
			"-0.01": 0.766249007088,
			"-0.009": 1.66789881146,
			"-0.008": 3.66412362016,
			"-0.007": 3.30914815803,
			"-0.006": 7.09504887841,
			"-0.005": 10.7353741728,
			"-0.004": 9.45653254433,
			"-0.003": 11.2240259927,
			"-0.002": 9.60112251332,
			"-0.001": 9.38994622011,
			"0.0": 10.1243347595,
			"0.001": 10.7406293113,
			"0.002": 14.3911740072,
			"0.003": 17.9322186359,
			"0.004": 19.5450713875,
			"0.005": 20.4239782045,
			"0.006": 9.3986806039,
			"0.007": 0.954604101605,
			"0.008": 0.0,
			"0.009": 0.0,
			"0.01": 0.0,
			"0.011": 0.0,
			"0.012": 0.0,
			"0.013": 0.0,
			"0.014": 0.0,
			"0.015": 0.0,
			"0.016": 0.0,
			"0.017": 0.0,
			"0.018": 0.0,
			"0.019": 0.0,
			"0.02": 0.0,
			"0.021": 0.0,
			"0.022": 0.0,
			"0.023": 0.0,
			"0.024": 0.0,
			"0.025": 0.0
		}
	}
}
