{
	 "smiles": "CC(C)C1=NC=C(N1C)[N+]([O-])=O", 
	 "Tm": 333.65, 
	 "num_atms": 23, 
	 "gaussian": { 
		 "optdone": 1, 
		 "sigma_profile": "yes", 
		 "theory": "DFT", 
		 "functional": "B3LYP", 
		 "basiset": "6-31G**", 
		 "properties": { 
			 "R2extent": 2488.4616, 
			 "electric_dipole_moment_norm": 4.89225667458, 
			 "electric_quadrupole_moment_norm": 14.4642408456, 
			 "total_energy": -587.979564619, 
			 "HOMO_LUMO_gap": 0.17069, 
			 "cosmo_polarized_energy": -11.75, 
			 "cosmo_cavitation_energy": 26.5, 
			 "cosmo_dispersion_energy": -18.96, 
			 "cosmo_repulsion_energy": 1.51, 
			 "cosmo_total_nonelectrostatic_energy": 9.06, 
			 "SMD_solvation_energy": 5.61 
		},
		"coords": [
			{
				"x": 2.5797435899,
				"y": -0.0109205747,
				"z": -0.9671771618,
				"element": "C" 
			},
			{
				"x": 1.1179885027,
				"y": -0.3138517288,
				"z": -1.3647127221,
				"element": "C" 
			},
			{
				"x": 0.713885499,
				"y": 0.4666645382,
				"z": -2.6248589901,
				"element": "C" 
			},
			{
				"x": 0.1824651968,
				"y": -0.0005186857,
				"z": -0.2239790929,
				"element": "C" 
			},
			{
				"x": -0.4635790136,
				"y": 1.1593193318,
				"z": -0.0977181091,
				"element": "N" 
			},
			{
				"x": -1.1611367938,
				"y": 1.0813854183,
				"z": 1.061237805,
				"element": "C" 
			},
			{
				"x": -0.9398388868,
				"y": -0.1434223469,
				"z": 1.656009103,
				"element": "C" 
			},
			{
				"x": -0.0700382139,
				"y": -0.8424715732,
				"z": 0.8263255098,
				"element": "N" 
			},
			{
				"x": 0.4644778693,
				"y": -2.1896304316,
				"z": 1.0317739658,
				"element": "C" 
			},
			{
				"x": -1.4795312427,
				"y": -0.6347714311,
				"z": 2.8730414072,
				"element": "N" 
			},
			{
				"x": -2.2383444469,
				"y": 0.1194159509,
				"z": 3.487471661,
				"element": "O" 
			},
			{
				"x": -1.161827638,
				"y": -1.7743698414,
				"z": 3.2447044593,
				"element": "O" 
			},
			{
				"x": 2.6970487803,
				"y": 1.052754665,
				"z": -0.7381102825,
				"element": "H" 
			},
			{
				"x": 3.2561249232,
				"y": -0.2606762692,
				"z": -1.7907615088,
				"element": "H" 
			},
			{
				"x": 2.893289933,
				"y": -0.5814273413,
				"z": -0.0869816797,
				"element": "H" 
			},
			{
				"x": 1.0408539907,
				"y": -1.3847154665,
				"z": -1.5929062763,
				"element": "H" 
			},
			{
				"x": -0.3037526575,
				"y": 0.2173697025,
				"z": -2.9377124122,
				"element": "H" 
			},
			{
				"x": 1.396953779,
				"y": 0.2269536171,
				"z": -3.4455463441,
				"element": "H" 
			},
			{
				"x": 0.748852513,
				"y": 1.5425567643,
				"z": -2.4394971707,
				"element": "H" 
			},
			{
				"x": -1.7890706081,
				"y": 1.8788264079,
				"z": 1.430081367,
				"element": "H" 
			},
			{
				"x": 1.0357062377,
				"y": -2.2325518412,
				"z": 1.9595345693,
				"element": "H" 
			},
			{
				"x": -0.3481505259,
				"y": -2.913209461,
				"z": 1.0979433048,
				"element": "H" 
			},
			{
				"x": 1.1108792129,
				"y": -2.4351094036,
				"z": 0.1912385982,
				"element": "H" 
			}
		],
		 "valence_orbital": [ 
			{
				"type": "occ",
				"energy": -0.30482,
				"method": "rhf"
			},
			{
				"type": "occ",
				"energy": -0.29676,
				"method": "rhf"
			},
			{
				"type": "occ",
				"energy": -0.29243,
				"method": "rhf"
			},
			{
				"type": "occ",
				"energy": -0.28104,
				"method": "rhf"
			},
			{
				"type": "occ",
				"energy": -0.25242,
				"method": "rhf"
			},
			{
				"type": "unocc",
				"energy": -0.08173,
				"method": "rhf"
			},
			{
				"type": "unocc",
				"energy": 0.0162,
				"method": "rhf"
			},
			{
				"type": "unocc",
				"energy": 0.05954,
				"method": "rhf"
			},
			{
				"type": "unocc",
				"energy": 0.06919,
				"method": "rhf"
			},
			{
				"type": "unocc",
				"energy": 0.10386,
				"method": "rhf"
			}
		],
		"cosmo_sigma_profile": { 
			"-0.025": 0.0,
			"-0.024": 0.0,
			"-0.023": 0.0,
			"-0.022": 0.0,
			"-0.021": 0.0,
			"-0.02": 0.0,
			"-0.019": 0.0,
			"-0.018": 0.0,
			"-0.017": 0.0,
			"-0.016": 0.0,
			"-0.015": 0.0,
			"-0.014": 0.0,
			"-0.013": 0.0,
			"-0.012": 0.0,
			"-0.011": 0.0,
			"-0.01": 0.0,
			"-0.009": 0.782812237006,
			"-0.008": 3.43922998866,
			"-0.007": 4.41652050084,
			"-0.006": 11.1294905932,
			"-0.005": 13.4110990909,
			"-0.004": 20.9072595055,
			"-0.003": 24.0318435703,
			"-0.002": 19.8413053616,
			"-0.001": 19.4744547099,
			"0.0": 19.9181709176,
			"0.001": 14.2789486394,
			"0.002": 5.38107006239,
			"0.003": 5.17575160403,
			"0.004": 3.95822056431,
			"0.005": 4.29364262359,
			"0.006": 4.66651422206,
			"0.007": 6.26495087528,
			"0.008": 9.27590539605,
			"0.009": 6.96776520231,
			"0.01": 5.81359605708,
			"0.011": 2.15819324571,
			"0.012": 0.875704816689,
			"0.013": 1.25731492696,
			"0.014": 0.757482930962,
			"0.015": 0.607341691034,
			"0.016": 0.0287503847894,
			"0.017": 0.0,
			"0.018": 0.0,
			"0.019": 0.0,
			"0.02": 0.0,
			"0.021": 0.0,
			"0.022": 0.0,
			"0.023": 0.0,
			"0.024": 0.0,
			"0.025": 0.0
		}
	}
}
