{
	 "smiles": "OC(=O)CCN1C(=O)C2=CC=CC=C2C1=O", 
	 "Tm": 425.15, 
	 "num_atms": 25, 
	 "gaussian": { 
		 "optdone": 1, 
		 "sigma_profile": "yes", 
		 "theory": "DFT", 
		 "functional": "B3LYP", 
		 "basiset": "6-31G**", 
		 "properties": { 
			 "R2extent": 4139.5865, 
			 "electric_dipole_moment_norm": 3.87786172523, 
			 "electric_quadrupole_moment_norm": 11.7181703222, 
			 "total_energy": -780.290400034, 
			 "HOMO_LUMO_gap": 0.1838, 
			 "cosmo_polarized_energy": -16.23, 
			 "cosmo_cavitation_energy": 30.53, 
			 "cosmo_dispersion_energy": -21.18, 
			 "cosmo_repulsion_energy": 1.64, 
			 "cosmo_total_nonelectrostatic_energy": 11.0, 
			 "SMD_solvation_energy": 7.36 
		},
		"coords": [
			{
				"x": -1.9377122062,
				"y": 1.2895710675,
				"z": -0.2381389839,
				"element": "O" 
			},
			{
				"x": -2.2122616719,
				"y": 2.1476170597,
				"z": -1.2531431704,
				"element": "C" 
			},
			{
				"x": -2.642079531,
				"y": 3.2632362337,
				"z": -1.0665886842,
				"element": "O" 
			},
			{
				"x": -1.8970501477,
				"y": 1.5416054941,
				"z": -2.6035774072,
				"element": "C" 
			},
			{
				"x": -0.3888341901,
				"y": 1.5652599529,
				"z": -2.9369789642,
				"element": "C" 
			},
			{
				"x": 0.4075554629,
				"y": 0.6846550358,
				"z": -2.1003290633,
				"element": "N" 
			},
			{
				"x": 0.4541267751,
				"y": -0.7082031127,
				"z": -2.2652836763,
				"element": "C" 
			},
			{
				"x": -0.1322231375,
				"y": -1.327567995,
				"z": -3.1320172932,
				"element": "O" 
			},
			{
				"x": 1.349889689,
				"y": -1.2115734747,
				"z": -1.1822164281,
				"element": "C" 
			},
			{
				"x": 1.7567497976,
				"y": -2.5038701995,
				"z": -0.8844541117,
				"element": "C" 
			},
			{
				"x": 2.6148888553,
				"y": -2.6731878665,
				"z": 0.210518987,
				"element": "C" 
			},
			{
				"x": 3.0425258508,
				"y": -1.5769103017,
				"z": 0.970571588,
				"element": "C" 
			},
			{
				"x": 2.6260011174,
				"y": -0.275106592,
				"z": 0.6608546337,
				"element": "C" 
			},
			{
				"x": 1.775715141,
				"y": -0.1183408303,
				"z": -0.4238657311,
				"element": "C" 
			},
			{
				"x": 1.1666233486,
				"y": 1.1177328253,
				"z": -0.9985515118,
				"element": "C" 
			},
			{
				"x": 1.2796322142,
				"y": 2.2711713254,
				"z": -0.6356000335,
				"element": "O" 
			},
			{
				"x": -2.1174123702,
				"y": 1.7788403622,
				"z": 0.58277101,
				"element": "H" 
			},
			{
				"x": -2.2531991161,
				"y": 0.5086079216,
				"z": -2.6460456033,
				"element": "H" 
			},
			{
				"x": -2.4266744186,
				"y": 2.1316386533,
				"z": -3.3548735046,
				"element": "H" 
			},
			{
				"x": -0.2586978436,
				"y": 1.249609251,
				"z": -3.97538802,
				"element": "H" 
			},
			{
				"x": 0.0159757041,
				"y": 2.5729112092,
				"z": -2.8173161062,
				"element": "H" 
			},
			{
				"x": 1.4194589287,
				"y": -3.3457031308,
				"z": -1.4804466004,
				"element": "H" 
			},
			{
				"x": 2.9551539424,
				"y": -3.6696686077,
				"z": 0.4759114467,
				"element": "H" 
			},
			{
				"x": 3.7078473689,
				"y": -1.7407737179,
				"z": 1.8130035347,
				"element": "H" 
			},
			{
				"x": 2.9516004368,
				"y": 0.581549437,
				"z": 1.2420836934,
				"element": "H" 
			}
		],
		 "valence_orbital": [ 
			{
				"type": "occ",
				"energy": -0.28764,
				"method": "rhf"
			},
			{
				"type": "occ",
				"energy": -0.28021,
				"method": "rhf"
			},
			{
				"type": "occ",
				"energy": -0.27607,
				"method": "rhf"
			},
			{
				"type": "occ",
				"energy": -0.27061,
				"method": "rhf"
			},
			{
				"type": "occ",
				"energy": -0.26774,
				"method": "rhf"
			},
			{
				"type": "unocc",
				"energy": -0.08394,
				"method": "rhf"
			},
			{
				"type": "unocc",
				"energy": -0.04322,
				"method": "rhf"
			},
			{
				"type": "unocc",
				"energy": 0.00483,
				"method": "rhf"
			},
			{
				"type": "unocc",
				"energy": 0.02604,
				"method": "rhf"
			},
			{
				"type": "unocc",
				"energy": 0.06869,
				"method": "rhf"
			}
		],
		"cosmo_sigma_profile": { 
			"-0.025": 0.0,
			"-0.024": 0.0,
			"-0.023": 0.0,
			"-0.022": 0.0,
			"-0.021": 0.0,
			"-0.02": 0.0,
			"-0.019": 0.00699797207214,
			"-0.018": 0.72009897379,
			"-0.017": 0.854403672167,
			"-0.016": 0.743356191237,
			"-0.015": 1.22592178249,
			"-0.014": 0.630937433955,
			"-0.013": 0.381903480317,
			"-0.012": 0.343366054731,
			"-0.011": 1.16454302953,
			"-0.01": 0.748529870685,
			"-0.009": 0.423187580889,
			"-0.008": 2.33238220127,
			"-0.007": 12.6701382375,
			"-0.006": 18.5920416454,
			"-0.005": 18.9324246649,
			"-0.004": 17.3180864393,
			"-0.003": 17.7999242261,
			"-0.002": 13.6441437239,
			"-0.001": 16.3093631667,
			"0.0": 15.189823327,
			"0.001": 18.3702854735,
			"0.002": 19.7812625832,
			"0.003": 7.93678469341,
			"0.004": 5.74731285012,
			"0.005": 5.22073438693,
			"0.006": 4.26556385097,
			"0.007": 4.99497214616,
			"0.008": 5.11345045925,
			"0.009": 4.74073833118,
			"0.01": 7.2342184297,
			"0.011": 13.4090548882,
			"0.012": 6.37757714175,
			"0.013": 0.68543070662,
			"0.014": 0.0,
			"0.015": 0.0,
			"0.016": 0.0,
			"0.017": 0.0,
			"0.018": 0.0,
			"0.019": 0.0,
			"0.02": 0.0,
			"0.021": 0.0,
			"0.022": 0.0,
			"0.023": 0.0,
			"0.024": 0.0,
			"0.025": 0.0
		}
	}
}
