{
	 "smiles": "CC1=CC=C(O1)C1=NC(N)=NN=C1", 
	 "Tm": 548.15, 
	 "num_atms": 21, 
	 "gaussian": { 
		 "optdone": 1, 
		 "sigma_profile": "yes", 
		 "theory": "DFT", 
		 "functional": "B3LYP", 
		 "basiset": "6-31G**", 
		 "properties": { 
			 "R2extent": 3108.1895, 
			 "electric_dipole_moment_norm": 4.31679445538, 
			 "electric_quadrupole_moment_norm": 15.1865386339, 
			 "total_energy": -603.8620682, 
			 "HOMO_LUMO_gap": 0.15305, 
			 "cosmo_polarized_energy": -13.8, 
			 "cosmo_cavitation_energy": 26.35, 
			 "cosmo_dispersion_energy": -19.62, 
			 "cosmo_repulsion_energy": 1.57, 
			 "cosmo_total_nonelectrostatic_energy": 8.3, 
			 "SMD_solvation_energy": 2.12 
		},
		"coords": [
			{
				"x": -2.1342823121,
				"y": 4.0011537118,
				"z": -0.4008448462,
				"element": "C" 
			},
			{
				"x": -2.120194257,
				"y": 2.6928554978,
				"z": 0.3065934494,
				"element": "C" 
			},
			{
				"x": -2.9432055295,
				"y": 2.1147676181,
				"z": 1.2372798563,
				"element": "C" 
			},
			{
				"x": -2.3953442074,
				"y": 0.8334857526,
				"z": 1.5312294881,
				"element": "C" 
			},
			{
				"x": -1.2685435983,
				"y": 0.7072584013,
				"z": 0.7606894469,
				"element": "C" 
			},
			{
				"x": -1.096080855,
				"y": 1.8444512098,
				"z": 0.0087156379,
				"element": "O" 
			},
			{
				"x": -0.2952307435,
				"y": -0.3547550672,
				"z": 0.6156980466,
				"element": "C" 
			},
			{
				"x": -0.4651015365,
				"y": -1.4540065706,
				"z": 1.3581574318,
				"element": "N" 
			},
			{
				"x": 0.468653801,
				"y": -2.4047817517,
				"z": 1.1825911193,
				"element": "C" 
			},
			{
				"x": 0.3189237088,
				"y": -3.5675872579,
				"z": 1.8766658136,
				"element": "N" 
			},
			{
				"x": 1.5462613768,
				"y": -2.3394059312,
				"z": 0.364033779,
				"element": "N" 
			},
			{
				"x": 1.6947747802,
				"y": -1.2404115025,
				"z": -0.3647658858,
				"element": "N" 
			},
			{
				"x": 0.8028192015,
				"y": -0.2582293604,
				"z": -0.2649409749,
				"element": "C" 
			},
			{
				"x": -1.2262802838,
				"y": 4.5775515631,
				"z": -0.1902675192,
				"element": "H" 
			},
			{
				"x": -2.9971206951,
				"y": 4.5885016638,
				"z": -0.0797570432,
				"element": "H" 
			},
			{
				"x": -2.1931886575,
				"y": 3.8659800287,
				"z": -1.4867981855,
				"element": "H" 
			},
			{
				"x": -3.8342996694,
				"y": 2.558528164,
				"z": 1.6576848342,
				"element": "H" 
			},
			{
				"x": -2.7692491015,
				"y": 0.0880339595,
				"z": 2.2166546386,
				"element": "H" 
			},
			{
				"x": -0.3255715556,
				"y": -3.5708667848,
				"z": 2.6503843988,
				"element": "H" 
			},
			{
				"x": 1.1093867286,
				"y": -4.192218725,
				"z": 1.8966511859,
				"element": "H" 
			},
			{
				"x": 0.9684734051,
				"y": 0.6169953808,
				"z": -0.8823546716,
				"element": "H" 
			}
		],
		 "valence_orbital": [ 
			{
				"type": "occ",
				"energy": -0.3098,
				"method": "rhf"
			},
			{
				"type": "occ",
				"energy": -0.28864,
				"method": "rhf"
			},
			{
				"type": "occ",
				"energy": -0.24089,
				"method": "rhf"
			},
			{
				"type": "occ",
				"energy": -0.22031,
				"method": "rhf"
			},
			{
				"type": "occ",
				"energy": -0.21884,
				"method": "rhf"
			},
			{
				"type": "unocc",
				"energy": -0.06579,
				"method": "rhf"
			},
			{
				"type": "unocc",
				"energy": -0.01611,
				"method": "rhf"
			},
			{
				"type": "unocc",
				"energy": 0.03196,
				"method": "rhf"
			},
			{
				"type": "unocc",
				"energy": 0.0736,
				"method": "rhf"
			},
			{
				"type": "unocc",
				"energy": 0.09149,
				"method": "rhf"
			}
		],
		"cosmo_sigma_profile": { 
			"-0.025": 0.0,
			"-0.024": 0.0,
			"-0.023": 0.0,
			"-0.022": 0.0,
			"-0.021": 0.0,
			"-0.02": 0.0,
			"-0.019": 0.0,
			"-0.018": 0.0,
			"-0.017": 0.0,
			"-0.016": 0.0,
			"-0.015": 0.00180097789801,
			"-0.014": 1.32953463536,
			"-0.013": 2.70429405759,
			"-0.012": 1.25608790594,
			"-0.011": 2.23647156511,
			"-0.01": 2.40494713945,
			"-0.009": 2.05128105768,
			"-0.008": 2.14139461019,
			"-0.007": 5.75173658374,
			"-0.006": 9.64133994988,
			"-0.005": 12.1672392497,
			"-0.004": 12.5566573053,
			"-0.003": 13.3041195838,
			"-0.002": 18.8701589656,
			"-0.001": 19.7437226712,
			"0.0": 16.0626392321,
			"0.001": 14.6910494974,
			"0.002": 13.6498592278,
			"0.003": 14.0542093901,
			"0.004": 10.7387369024,
			"0.005": 5.23786690201,
			"0.006": 4.60168915913,
			"0.007": 3.57679747394,
			"0.008": 3.74310650449,
			"0.009": 2.98013892997,
			"0.01": 3.72310539143,
			"0.011": 1.78990738341,
			"0.012": 1.98535228432,
			"0.013": 3.19375021881,
			"0.014": 2.2209755331,
			"0.015": 2.22796971548,
			"0.016": 0.556735610561,
			"0.017": 0.0,
			"0.018": 0.0,
			"0.019": 0.0,
			"0.02": 0.0,
			"0.021": 0.0,
			"0.022": 0.0,
			"0.023": 0.0,
			"0.024": 0.0,
			"0.025": 0.0
		}
	}
}
