{
	 "smiles": "CC(C)S(=O)(=O)C1=CN=C(N=C1N)C1=CC=CC=N1", 
	 "Tm": 421.15, 
	 "num_atms": 33, 
	 "gaussian": { 
		 "optdone": 1, 
		 "sigma_profile": "yes", 
		 "theory": "DFT", 
		 "functional": "B3LYP", 
		 "basiset": "6-31G**", 
		 "properties": { 
			 "R2extent": 8405.3301, 
			 "electric_dipole_moment_norm": 5.08326619114, 
			 "electric_quadrupole_moment_norm": 24.9878313761, 
			 "total_energy": -1233.31380532, 
			 "HOMO_LUMO_gap": 0.17361, 
			 "cosmo_polarized_energy": -21.46, 
			 "cosmo_cavitation_energy": 37.83, 
			 "cosmo_dispersion_energy": -27.65, 
			 "cosmo_repulsion_energy": 2.07, 
			 "cosmo_total_nonelectrostatic_energy": 12.25, 
			 "SMD_solvation_energy": 2.26 
		},
		"coords": [
			{
				"x": 3.2980261684,
				"y": -1.6442458128,
				"z": 0.1797174702,
				"element": "C" 
			},
			{
				"x": 4.1159945545,
				"y": -0.3570962766,
				"z": 0.0875398106,
				"element": "C" 
			},
			{
				"x": 5.6228330437,
				"y": -0.6045298268,
				"z": -0.0319299036,
				"element": "C" 
			},
			{
				"x": 3.5964037762,
				"y": 0.6584527034,
				"z": -1.3587417404,
				"element": "S" 
			},
			{
				"x": 4.4064283122,
				"y": 1.8870689414,
				"z": -1.3402807817,
				"element": "O" 
			},
			{
				"x": 3.6039059195,
				"y": -0.218334164,
				"z": -2.5559814512,
				"element": "O" 
			},
			{
				"x": 1.8994703535,
				"y": 1.1207269717,
				"z": -1.032498277,
				"element": "C" 
			},
			{
				"x": 1.6479628494,
				"y": 2.2612809894,
				"z": -0.2722462817,
				"element": "C" 
			},
			{
				"x": 0.4240122889,
				"y": 2.6867623271,
				"z": 0.0391748775,
				"element": "N" 
			},
			{
				"x": -0.5869062846,
				"y": 1.9460527446,
				"z": -0.4494175339,
				"element": "C" 
			},
			{
				"x": -0.4688295063,
				"y": 0.8659541954,
				"z": -1.2293308327,
				"element": "N" 
			},
			{
				"x": 0.764933723,
				"y": 0.4313596322,
				"z": -1.5452688258,
				"element": "C" 
			},
			{
				"x": 0.8475502222,
				"y": -0.6658496571,
				"z": -2.331215184,
				"element": "N" 
			},
			{
				"x": -1.9827794567,
				"y": 2.3641787584,
				"z": -0.1079785518,
				"element": "C" 
			},
			{
				"x": -3.0770124868,
				"y": 1.6679021568,
				"z": -0.643027928,
				"element": "C" 
			},
			{
				"x": -4.3631096769,
				"y": 2.0819707997,
				"z": -0.3069382538,
				"element": "C" 
			},
			{
				"x": -4.5156880393,
				"y": 3.1708648609,
				"z": 0.5494457604,
				"element": "C" 
			},
			{
				"x": -3.3623033571,
				"y": 3.796447157,
				"z": 1.0316815931,
				"element": "C" 
			},
			{
				"x": -2.1240264617,
				"y": 3.4131302614,
				"z": 0.718193266,
				"element": "N" 
			},
			{
				"x": 3.4697391618,
				"y": -2.273888828,
				"z": -0.6973019776,
				"element": "H" 
			},
			{
				"x": 3.6077875266,
				"y": -2.2018418652,
				"z": 1.0691400854,
				"element": "H" 
			},
			{
				"x": 2.2255831415,
				"y": -1.4498053507,
				"z": 0.2633932193,
				"element": "H" 
			},
			{
				"x": 3.907722213,
				"y": 0.297052804,
				"z": 0.9419355494,
				"element": "H" 
			},
			{
				"x": 5.8468226073,
				"y": -1.2059470565,
				"z": -0.9177900335,
				"element": "H" 
			},
			{
				"x": 6.1754108503,
				"y": 0.3347303608,
				"z": -0.0972964324,
				"element": "H" 
			},
			{
				"x": 5.9653057249,
				"y": -1.1526928537,
				"z": 0.8511857292,
				"element": "H" 
			},
			{
				"x": 2.4841435335,
				"y": 2.8576708162,
				"z": 0.0878011674,
				"element": "H" 
			},
			{
				"x": -0.0157353333,
				"y": -0.9845281469,
				"z": -2.7438248553,
				"element": "H" 
			},
			{
				"x": 1.7355008059,
				"y": -0.875186739,
				"z": -2.7724909958,
				"element": "H" 
			},
			{
				"x": -2.9010604505,
				"y": 0.8279917368,
				"z": -1.3032360374,
				"element": "H" 
			},
			{
				"x": -5.2296544686,
				"y": 1.5636241289,
				"z": -0.7073378032,
				"element": "H" 
			},
			{
				"x": -5.4981128874,
				"y": 3.5302651523,
				"z": 0.8395085144,
				"element": "H" 
			},
			{
				"x": -3.441618367,
				"y": 4.649259079,
				"z": 1.704216638,
				"element": "H" 
			}
		],
		 "valence_orbital": [ 
			{
				"type": "occ",
				"energy": -0.28209,
				"method": "rhf"
			},
			{
				"type": "occ",
				"energy": -0.26485,
				"method": "rhf"
			},
			{
				"type": "occ",
				"energy": -0.26086,
				"method": "rhf"
			},
			{
				"type": "occ",
				"energy": -0.24762,
				"method": "rhf"
			},
			{
				"type": "occ",
				"energy": -0.24459,
				"method": "rhf"
			},
			{
				"type": "unocc",
				"energy": -0.07098,
				"method": "rhf"
			},
			{
				"type": "unocc",
				"energy": -0.03189,
				"method": "rhf"
			},
			{
				"type": "unocc",
				"energy": -0.01573,
				"method": "rhf"
			},
			{
				"type": "unocc",
				"energy": 0.00751,
				"method": "rhf"
			},
			{
				"type": "unocc",
				"energy": 0.05728,
				"method": "rhf"
			}
		],
		"cosmo_sigma_profile": { 
			"-0.025": 0.0,
			"-0.024": 0.0,
			"-0.023": 0.0,
			"-0.022": 0.0,
			"-0.021": 0.0,
			"-0.02": 0.0,
			"-0.019": 0.0,
			"-0.018": 0.0,
			"-0.017": 0.0,
			"-0.016": 0.0,
			"-0.015": 0.2139127203,
			"-0.014": 1.17862477119,
			"-0.013": 0.957486428376,
			"-0.012": 1.20372951178,
			"-0.011": 1.47931223955,
			"-0.01": 1.96848860414,
			"-0.009": 1.75874589111,
			"-0.008": 4.36366667069,
			"-0.007": 11.3505267429,
			"-0.006": 14.6874842696,
			"-0.005": 21.890588989,
			"-0.004": 21.8002029082,
			"-0.003": 25.8186870132,
			"-0.002": 25.1041396731,
			"-0.001": 29.8748078128,
			"0.0": 20.9209413051,
			"0.001": 22.1940427979,
			"0.002": 21.5125066841,
			"0.003": 10.8229649081,
			"0.004": 7.15614938312,
			"0.005": 6.53141162419,
			"0.006": 6.25726980763,
			"0.007": 5.33292155976,
			"0.008": 5.50342293755,
			"0.009": 4.14269728689,
			"0.01": 6.49256237064,
			"0.011": 7.66518726122,
			"0.012": 4.59937636629,
			"0.013": 1.59670556478,
			"0.014": 1.55260632708,
			"0.015": 0.927108681787,
			"0.016": 0.864947701906,
			"0.017": 0.883760990912,
			"0.018": 0.51785496349,
			"0.019": 1.19757258846,
			"0.02": 0.773886251551,
			"0.021": 0.423170955522,
			"0.022": 0.000449152091936,
			"0.023": 0.0,
			"0.024": 0.0,
			"0.025": 0.0
		}
	}
}
