{
	 "smiles": "CC(=CC1=CC=C(Br)O1)[N+]([O-])=O", 
	 "Tm": 363.15, 
	 "num_atms": 18, 
	 "gaussian": { 
		 "optdone": 1, 
		 "sigma_profile": "yes", 
		 "theory": "DFT", 
		 "functional": "B3LYP", 
		 "basiset": "6-31G**", 
		 "properties": { 
			 "R2extent": 7267.2838, 
			 "electric_dipole_moment_norm": 5.41039270386, 
			 "electric_quadrupole_moment_norm": 13.6442363949, 
			 "total_energy": -3122.04542073, 
			 "HOMO_LUMO_gap": 0.1371, 
			 "cosmo_polarized_energy": -10.08, 
			 "cosmo_cavitation_energy": 25.95, 
			 "cosmo_dispersion_energy": -19.5, 
			 "cosmo_repulsion_energy": 1.56, 
			 "cosmo_total_nonelectrostatic_energy": 8.02, 
			 "SMD_solvation_energy": 6.35 
		},
		"coords": [
			{
				"x": -0.7283159173,
				"y": -0.9235853508,
				"z": -1.4084275684,
				"element": "C" 
			},
			{
				"x": -1.7960425887,
				"y": -1.2057008409,
				"z": -0.4011041938,
				"element": "C" 
			},
			{
				"x": -2.2703430607,
				"y": -0.3780374356,
				"z": 0.5552863436,
				"element": "C" 
			},
			{
				"x": -1.8747565398,
				"y": 0.9771001903,
				"z": 0.7898023543,
				"element": "C" 
			},
			{
				"x": -1.0810658236,
				"y": 1.9184059838,
				"z": 0.1654580644,
				"element": "C" 
			},
			{
				"x": -1.1419618311,
				"y": 3.1065760651,
				"z": 0.9430703912,
				"element": "C" 
			},
			{
				"x": -1.9712839361,
				"y": 2.8138100749,
				"z": 1.9905163222,
				"element": "C" 
			},
			{
				"x": -2.5448752305,
				"y": 3.8463392159,
				"z": 3.4322346684,
				"element": "Br" 
			},
			{
				"x": -2.427855095,
				"y": 1.548708667,
				"z": 1.9239438168,
				"element": "O" 
			},
			{
				"x": -2.4117932254,
				"y": -2.5443505932,
				"z": -0.4573576444,
				"element": "N" 
			},
			{
				"x": -2.0262879027,
				"y": -3.3049984658,
				"z": -1.3492393444,
				"element": "O" 
			},
			{
				"x": -3.2752675712,
				"y": -2.8372796059,
				"z": 0.3730558667,
				"element": "O" 
			},
			{
				"x": -1.1062982129,
				"y": -0.3044551187,
				"z": -2.2320128226,
				"element": "H" 
			},
			{
				"x": 0.101386174,
				"y": -0.3868032272,
				"z": -0.9375792725,
				"element": "H" 
			},
			{
				"x": -0.3573048414,
				"y": -1.853762999,
				"z": -1.8353080509,
				"element": "H" 
			},
			{
				"x": -3.0324799681,
				"y": -0.7703109462,
				"z": 1.2203483596,
				"element": "H" 
			},
			{
				"x": -0.5336804811,
				"y": 1.7844325347,
				"z": -0.7542878413,
				"element": "H" 
			},
			{
				"x": -0.6494739484,
				"y": 4.0487118516,
				"z": 0.7587005512,
				"element": "H" 
			}
		],
		 "valence_orbital": [ 
			{
				"type": "occ",
				"energy": -0.306,
				"method": "rhf"
			},
			{
				"type": "occ",
				"energy": -0.30327,
				"method": "rhf"
			},
			{
				"type": "occ",
				"energy": -0.30021,
				"method": "rhf"
			},
			{
				"type": "occ",
				"energy": -0.28159,
				"method": "rhf"
			},
			{
				"type": "occ",
				"energy": -0.23435,
				"method": "rhf"
			},
			{
				"type": "unocc",
				"energy": -0.09725,
				"method": "rhf"
			},
			{
				"type": "unocc",
				"energy": -0.02192,
				"method": "rhf"
			},
			{
				"type": "unocc",
				"energy": -0.00883,
				"method": "rhf"
			},
			{
				"type": "unocc",
				"energy": 0.01918,
				"method": "rhf"
			},
			{
				"type": "unocc",
				"energy": 0.07262,
				"method": "rhf"
			}
		],
		"cosmo_sigma_profile": { 
			"-0.025": 0.0,
			"-0.024": 0.0,
			"-0.023": 0.0,
			"-0.022": 0.0,
			"-0.021": 0.0,
			"-0.02": 0.0,
			"-0.019": 0.0,
			"-0.018": 0.0,
			"-0.017": 0.0,
			"-0.016": 0.0,
			"-0.015": 0.0,
			"-0.014": 0.0,
			"-0.013": 0.0,
			"-0.012": 0.0,
			"-0.011": 0.0,
			"-0.01": 0.0584531398912,
			"-0.009": 2.16790811538,
			"-0.008": 4.06655561446,
			"-0.007": 6.58705906424,
			"-0.006": 9.68434415125,
			"-0.005": 12.0472090437,
			"-0.004": 13.8701006643,
			"-0.003": 13.3249868944,
			"-0.002": 18.3465062484,
			"-0.001": 25.5356663265,
			"0.0": 20.3992247036,
			"0.001": 17.2368149302,
			"0.002": 21.0458884041,
			"0.003": 10.22299257,
			"0.004": 3.73230480256,
			"0.005": 4.12345438936,
			"0.006": 3.58275132179,
			"0.007": 4.56305485207,
			"0.008": 8.6629257889,
			"0.009": 6.32302132233,
			"0.01": 4.22293325507,
			"0.011": 2.22659254951,
			"0.012": 0.0355042731054,
			"0.013": 0.0,
			"0.014": 0.0,
			"0.015": 0.0,
			"0.016": 0.0,
			"0.017": 0.0,
			"0.018": 0.0,
			"0.019": 0.0,
			"0.02": 0.0,
			"0.021": 0.0,
			"0.022": 0.0,
			"0.023": 0.0,
			"0.024": 0.0,
			"0.025": 0.0
		}
	}
}
