{
	 "smiles": "OC(=O)C1=C(O)C(Cl)=C(Cl)C=C1", 
	 "Tm": 486.15, 
	 "num_atms": 16, 
	 "gaussian": { 
		 "optdone": 1, 
		 "sigma_profile": "yes", 
		 "theory": "DFT", 
		 "functional": "B3LYP", 
		 "basiset": "6-31G**", 
		 "properties": { 
			 "R2extent": 3005.4075, 
			 "electric_dipole_moment_norm": 3.96023624548, 
			 "electric_quadrupole_moment_norm": 17.6617085889, 
			 "total_energy": -1415.2184552, 
			 "HOMO_LUMO_gap": 0.19866, 
			 "cosmo_polarized_energy": -12.81, 
			 "cosmo_cavitation_energy": 24.06, 
			 "cosmo_dispersion_energy": -18.68, 
			 "cosmo_repulsion_energy": 1.47, 
			 "cosmo_total_nonelectrostatic_energy": 6.86, 
			 "SMD_solvation_energy": 5.12 
		},
		"coords": [
			{
				"x": -3.0203344331,
				"y": 1.763186053,
				"z": 1.0978894269,
				"element": "O" 
			},
			{
				"x": -1.9966554078,
				"y": 1.1337544287,
				"z": 1.7005905966,
				"element": "C" 
			},
			{
				"x": -2.043957003,
				"y": 0.8658532981,
				"z": 2.8806216772,
				"element": "O" 
			},
			{
				"x": -0.7891927207,
				"y": 0.7699330974,
				"z": 0.8681761259,
				"element": "C" 
			},
			{
				"x": -0.6389006509,
				"y": 1.0367100582,
				"z": -0.5043543287,
				"element": "C" 
			},
			{
				"x": -1.6449378092,
				"y": 1.6734825274,
				"z": -1.1675158983,
				"element": "O" 
			},
			{
				"x": 0.5330919475,
				"y": 0.6501258874,
				"z": -1.1767672192,
				"element": "C" 
			},
			{
				"x": 0.6523069334,
				"y": 1.0144857127,
				"z": -2.8865714944,
				"element": "Cl" 
			},
			{
				"x": 1.5580620792,
				"y": -0.0027277163,
				"z": -0.4851302763,
				"element": "C" 
			},
			{
				"x": 3.0163133777,
				"y": -0.4885012807,
				"z": -1.3025343266,
				"element": "Cl" 
			},
			{
				"x": 1.4157944835,
				"y": -0.2710468131,
				"z": 0.8781566861,
				"element": "C" 
			},
			{
				"x": 0.254418636,
				"y": 0.1149357611,
				"z": 1.5327665925,
				"element": "C" 
			},
			{
				"x": -2.8312956903,
				"y": 1.9060030562,
				"z": 0.1539445335,
				"element": "H" 
			},
			{
				"x": -1.4077123002,
				"y": 1.7913141845,
				"z": -2.101422815,
				"element": "H" 
			},
			{
				"x": 2.2146661752,
				"y": -0.7773113403,
				"z": 1.4066950689,
				"element": "H" 
			},
			{
				"x": 0.1191323826,
				"y": -0.0814969142,
				"z": 2.5903556509,
				"element": "H" 
			}
		],
		 "valence_orbital": [ 
			{
				"type": "occ",
				"energy": -0.33511,
				"method": "rhf"
			},
			{
				"type": "occ",
				"energy": -0.31162,
				"method": "rhf"
			},
			{
				"type": "occ",
				"energy": -0.27699,
				"method": "rhf"
			},
			{
				"type": "occ",
				"energy": -0.27291,
				"method": "rhf"
			},
			{
				"type": "occ",
				"energy": -0.26498,
				"method": "rhf"
			},
			{
				"type": "unocc",
				"energy": -0.06632,
				"method": "rhf"
			},
			{
				"type": "unocc",
				"energy": -0.03312,
				"method": "rhf"
			},
			{
				"type": "unocc",
				"energy": -0.02536,
				"method": "rhf"
			},
			{
				"type": "unocc",
				"energy": 0.03825,
				"method": "rhf"
			},
			{
				"type": "unocc",
				"energy": 0.0384,
				"method": "rhf"
			}
		],
		"cosmo_sigma_profile": { 
			"-0.025": 0.0,
			"-0.024": 0.0,
			"-0.023": 0.0,
			"-0.022": 0.0,
			"-0.021": 0.0,
			"-0.02": 0.0,
			"-0.019": 0.0,
			"-0.018": 0.0,
			"-0.017": 0.458838667874,
			"-0.016": 1.0995999724,
			"-0.015": 0.493511512585,
			"-0.014": 0.380286010091,
			"-0.013": 1.14389934618,
			"-0.012": 0.978694598983,
			"-0.011": 1.33179107481,
			"-0.01": 1.58417734848,
			"-0.009": 1.67187064274,
			"-0.008": 3.61933105889,
			"-0.007": 5.98607462225,
			"-0.006": 8.02695355698,
			"-0.005": 7.36469056024,
			"-0.004": 9.55475967251,
			"-0.003": 12.2077078486,
			"-0.002": 16.8382519569,
			"-0.001": 21.2140222185,
			"0.0": 20.2516368599,
			"0.001": 17.5253392194,
			"0.002": 15.0184076974,
			"0.003": 16.9978787843,
			"0.004": 6.19330470192,
			"0.005": 2.12803060472,
			"0.006": 1.88654282459,
			"0.007": 2.55199436286,
			"0.008": 2.68165757679,
			"0.009": 3.3825266193,
			"0.01": 3.98418151486,
			"0.011": 5.85056581771,
			"0.012": 4.24594685962,
			"0.013": 1.70305486864,
			"0.014": 0.0965757090279,
			"0.015": 0.0,
			"0.016": 0.0,
			"0.017": 0.0,
			"0.018": 0.0,
			"0.019": 0.0,
			"0.02": 0.0,
			"0.021": 0.0,
			"0.022": 0.0,
			"0.023": 0.0,
			"0.024": 0.0,
			"0.025": 0.0
		}
	}
}
