{
	 "smiles": "N1C2=CC=CC=C2N=C1C1=CC=NC=C1", 
	 "Tm": 491.65, 
	 "num_atms": 24, 
	 "gaussian": { 
		 "optdone": 1, 
		 "sigma_profile": "no", 
		 "theory": "DFT", 
		 "functional": "B3LYP", 
		 "basiset": "6-31G**", 
		 "properties": { 
			 "R2extent": 3840.8605, 
			 "electric_dipole_moment_norm": 3.47785498979, 
			 "electric_quadrupole_moment_norm": 10.4974510768, 
			 "total_energy": -626.968657228, 
			 "HOMO_LUMO_gap": 0.16243, 
			 "cosmo_polarized_energy": -27.42, 
			 "cosmo_cavitation_energy": 28.47, 
			 "cosmo_dispersion_energy": -21.5, 
			 "cosmo_repulsion_energy": 1.63, 
			 "cosmo_total_nonelectrostatic_energy": 8.6, 
			 "SMD_solvation_energy": 1.33 
		},
		"coords": [
			{
				"x": 0.3062911178,
				"y": -0.5035495078,
				"z": 0.8523964392,
				"element": "N" 
			},
			{
				"x": -0.8144681608,
				"y": -1.3045385629,
				"z": 0.9549381611,
				"element": "C" 
			},
			{
				"x": -1.1824104807,
				"y": -2.3158761462,
				"z": 1.8452433233,
				"element": "C" 
			},
			{
				"x": -2.4205854171,
				"y": -2.9148292264,
				"z": 1.6309896736,
				"element": "C" 
			},
			{
				"x": -3.260001998,
				"y": -2.5189744135,
				"z": 0.567815118,
				"element": "C" 
			},
			{
				"x": -2.8874551886,
				"y": -1.5118962124,
				"z": -0.314200935,
				"element": "C" 
			},
			{
				"x": -1.643891136,
				"y": -0.892750692,
				"z": -0.1191879935,
				"element": "C" 
			},
			{
				"x": -1.0354847278,
				"y": 0.1191592349,
				"z": -0.8355248378,
				"element": "N" 
			},
			{
				"x": 0.1197195197,
				"y": 0.3294645731,
				"z": -0.2368647413,
				"element": "C" 
			},
			{
				"x": 1.1028448839,
				"y": 1.3276062393,
				"z": -0.665509847,
				"element": "C" 
			},
			{
				"x": 0.8277025439,
				"y": 2.1296260141,
				"z": -1.7834483242,
				"element": "C" 
			},
			{
				"x": 1.7684679624,
				"y": 3.0740785589,
				"z": -2.1815615486,
				"element": "C" 
			},
			{
				"x": 2.9410023419,
				"y": 3.2759759072,
				"z": -1.5613089971,
				"element": "N" 
			},
			{
				"x": 3.1967962154,
				"y": 2.5077662242,
				"z": -0.4961419512,
				"element": "C" 
			},
			{
				"x": 2.3264541877,
				"y": 1.5325240858,
				"z": -0.0116442945,
				"element": "C" 
			},
			{
				"x": 1.1090014756,
				"y": -0.5252268816,
				"z": 1.4604005162,
				"element": "H" 
			},
			{
				"x": -0.5401823215,
				"y": -2.6240225384,
				"z": 2.6647233229,
				"element": "H" 
			},
			{
				"x": -2.748394162,
				"y": -3.7061227512,
				"z": 2.2985240398,
				"element": "H" 
			},
			{
				"x": -4.217314659,
				"y": -3.0153637637,
				"z": 0.4402698966,
				"element": "H" 
			},
			{
				"x": -3.5285675484,
				"y": -1.2033519272,
				"z": -1.1333370785,
				"element": "H" 
			},
			{
				"x": -0.1075780988,
				"y": 2.0013476602,
				"z": -2.3157694435,
				"element": "H" 
			},
			{
				"x": 1.5715113923,
				"y": 3.7047092444,
				"z": -3.0465564256,
				"element": "H" 
			},
			{
				"x": 4.1501515813,
				"y": 2.6778850462,
				"z": 0.0013197779,
				"element": "H" 
			},
			{
				"x": 2.6168906769,
				"y": 0.9544598351,
				"z": 0.8609361493,
				"element": "H" 
			}
		],
		 "valence_orbital": [ 
			{
				"type": "occ",
				"energy": -0.27962,
				"method": "rhf"
			},
			{
				"type": "occ",
				"energy": -0.26781,
				"method": "rhf"
			},
			{
				"type": "occ",
				"energy": -0.25825,
				"method": "rhf"
			},
			{
				"type": "occ",
				"energy": -0.23369,
				"method": "rhf"
			},
			{
				"type": "occ",
				"energy": -0.22359,
				"method": "rhf"
			},
			{
				"type": "unocc",
				"energy": -0.06116,
				"method": "rhf"
			},
			{
				"type": "unocc",
				"energy": -0.01547,
				"method": "rhf"
			},
			{
				"type": "unocc",
				"energy": 0.00226,
				"method": "rhf"
			},
			{
				"type": "unocc",
				"energy": 0.01866,
				"method": "rhf"
			},
			{
				"type": "unocc",
				"energy": 0.05316,
				"method": "rhf"
			}
		],
		"cosmo_sigma_profile": { 
			"0.0": 0.0,
			"0.0": 0.0,
			"0.0": 0.0,
			"0.0": 0.0,
			"0.0": 0.0,
			"0.0": 0.0,
			"0.0": 0.0,
			"0.0": 0.0,
			"0.0": 0.0,
			"0.0": 0.0,
			"0.0": 0.0,
			"0.0": 0.0,
			"0.0": 0.0,
			"0.0": 0.0,
			"0.0": 0.0,
			"0.0": 0.0,
			"0.0": 0.0,
			"0.0": 0.0,
			"0.0": 0.0,
			"0.0": 0.0,
			"0.0": 0.0,
			"0.0": 0.0,
			"0.0": 0.0,
			"0.0": 0.0,
			"0.0": 0.0,
			"0.0": 0.0,
			"0.0": 0.0,
			"0.0": 0.0,
			"0.0": 0.0,
			"0.0": 0.0,
			"0.0": 0.0,
			"0.0": 0.0,
			"0.0": 0.0,
			"0.0": 0.0,
			"0.0": 0.0,
			"0.0": 0.0,
			"0.0": 0.0,
			"0.0": 0.0,
			"0.0": 0.0,
			"0.0": 0.0,
			"0.0": 0.0,
			"0.0": 0.0,
			"0.0": 0.0,
			"0.0": 0.0,
			"0.0": 0.0,
			"0.0": 0.0,
			"0.0": 0.0,
			"0.0": 0.0,
			"0.0": 0.0,
			"0.0": 0.0,
			"0.0": 0.0
		}
	}
}
