{
	 "smiles": "CN1C(S)=NN=C1C(F)F", 
	 "Tm": 445.15, 
	 "num_atms": 15, 
	 "gaussian": { 
		 "optdone": 1, 
		 "sigma_profile": "yes", 
		 "theory": "DFT", 
		 "functional": "B3LYP", 
		 "basiset": "6-31G**", 
		 "properties": { 
			 "R2extent": 2067.8473, 
			 "electric_dipole_moment_norm": 3.33114744195, 
			 "electric_quadrupole_moment_norm": 9.11561105522, 
			 "total_energy": -917.521769478, 
			 "HOMO_LUMO_gap": 0.23411, 
			 "cosmo_polarized_energy": -12.69, 
			 "cosmo_cavitation_energy": 21.87, 
			 "cosmo_dispersion_energy": -16.33, 
			 "cosmo_repulsion_energy": 1.25, 
			 "cosmo_total_nonelectrostatic_energy": 6.79, 
			 "SMD_solvation_energy": 2.29 
		},
		"coords": [
			{
				"x": 0.1923507482,
				"y": 1.1650806064,
				"z": 0.7172419064,
				"element": "C" 
			},
			{
				"x": -0.1206927052,
				"y": -0.2486826629,
				"z": 0.8979644871,
				"element": "N" 
			},
			{
				"x": 0.5190152394,
				"y": -1.1564412544,
				"z": 1.6966858967,
				"element": "C" 
			},
			{
				"x": 1.9095194559,
				"y": -0.7235178787,
				"z": 2.6928047065,
				"element": "S" 
			},
			{
				"x": -0.0374897521,
				"y": -2.348334155,
				"z": 1.6114202398,
				"element": "N" 
			},
			{
				"x": -1.0840206442,
				"y": -2.2337760835,
				"z": 0.725945138,
				"element": "N" 
			},
			{
				"x": -1.1207831859,
				"y": -0.9903296601,
				"z": 0.3138709332,
				"element": "C" 
			},
			{
				"x": -2.1159340215,
				"y": -0.4628469893,
				"z": -0.6565579164,
				"element": "C" 
			},
			{
				"x": -2.8303527617,
				"y": 0.5690026248,
				"z": -0.0998944689,
				"element": "F" 
			},
			{
				"x": -1.4837591561,
				"y": 0.0594153759,
				"z": -1.7577261854,
				"element": "F" 
			},
			{
				"x": 0.1119542854,
				"y": 1.6926254919,
				"z": 1.6714904958,
				"element": "H" 
			},
			{
				"x": -0.5149441873,
				"y": 1.5940114839,
				"z": 0.010940727,
				"element": "H" 
			},
			{
				"x": 1.2062176107,
				"y": 1.2780473516,
				"z": 0.3239548114,
				"element": "H" 
			},
			{
				"x": 2.0335985229,
				"y": -1.9737520693,
				"z": 3.176646221,
				"element": "H" 
			},
			{
				"x": -2.8023794483,
				"y": -1.2529021811,
				"z": -0.9712869923,
				"element": "H" 
			}
		],
		 "valence_orbital": [ 
			{
				"type": "occ",
				"energy": -0.32693,
				"method": "rhf"
			},
			{
				"type": "occ",
				"energy": -0.32206,
				"method": "rhf"
			},
			{
				"type": "occ",
				"energy": -0.30454,
				"method": "rhf"
			},
			{
				"type": "occ",
				"energy": -0.2697,
				"method": "rhf"
			},
			{
				"type": "occ",
				"energy": -0.24543,
				"method": "rhf"
			},
			{
				"type": "unocc",
				"energy": -0.01132,
				"method": "rhf"
			},
			{
				"type": "unocc",
				"energy": -0.00475,
				"method": "rhf"
			},
			{
				"type": "unocc",
				"energy": 0.02554,
				"method": "rhf"
			},
			{
				"type": "unocc",
				"energy": 0.04828,
				"method": "rhf"
			},
			{
				"type": "unocc",
				"energy": 0.098,
				"method": "rhf"
			}
		],
		"cosmo_sigma_profile": { 
			"-0.025": 0.0,
			"-0.024": 0.0,
			"-0.023": 0.0,
			"-0.022": 0.0,
			"-0.021": 0.0,
			"-0.02": 0.0,
			"-0.019": 0.0,
			"-0.018": 0.0,
			"-0.017": 0.0,
			"-0.016": 0.0,
			"-0.015": 0.0,
			"-0.014": 0.0,
			"-0.013": 0.320571199822,
			"-0.012": 1.75154172597,
			"-0.011": 1.70770927739,
			"-0.01": 3.31103889833,
			"-0.009": 3.984416134,
			"-0.008": 3.61436104009,
			"-0.007": 9.52156668661,
			"-0.006": 11.269422385,
			"-0.005": 11.9067413512,
			"-0.004": 10.0422893412,
			"-0.003": 10.0629082834,
			"-0.002": 10.1509192334,
			"-0.001": 9.1148280194,
			"0.0": 9.26955650386,
			"0.001": 10.5359185171,
			"0.002": 9.92137108414,
			"0.003": 15.3040880598,
			"0.004": 16.507690666,
			"0.005": 4.64216377768,
			"0.006": 3.24222943158,
			"0.007": 1.48579841952,
			"0.008": 1.60801714658,
			"0.009": 2.09255422136,
			"0.01": 2.39403164557,
			"0.011": 2.19101731935,
			"0.012": 3.92765515507,
			"0.013": 2.52786621432,
			"0.014": 2.38964771396,
			"0.015": 2.16091783952,
			"0.016": 0.633381289855,
			"0.017": 0.0,
			"0.018": 0.0,
			"0.019": 0.0,
			"0.02": 0.0,
			"0.021": 0.0,
			"0.022": 0.0,
			"0.023": 0.0,
			"0.024": 0.0,
			"0.025": 0.0
		}
	}
}
