{
	 "smiles": "CN1CC(=O)NC1=N", 
	 "Tm": 528.15, 
	 "num_atms": 15, 
	 "gaussian": { 
		 "optdone": 1, 
		 "sigma_profile": "yes", 
		 "theory": "DFT", 
		 "functional": "B3LYP", 
		 "basiset": "6-31G**", 
		 "properties": { 
			 "R2extent": 1140.7892, 
			 "electric_dipole_moment_norm": 0.961489729534, 
			 "electric_quadrupole_moment_norm": 13.6458312678, 
			 "total_energy": -396.13162576, 
			 "HOMO_LUMO_gap": 0.22332, 
			 "cosmo_polarized_energy": -14.66, 
			 "cosmo_cavitation_energy": 18.76, 
			 "cosmo_dispersion_energy": -14.17, 
			 "cosmo_repulsion_energy": 1.2, 
			 "cosmo_total_nonelectrostatic_energy": 5.79, 
			 "SMD_solvation_energy": 3.03 
		},
		"coords": [
			{
				"x": 0.6340652454,
				"y": -0.6850772454,
				"z": 2.109595655,
				"element": "C" 
			},
			{
				"x": 0.5740621388,
				"y": -0.9133227737,
				"z": 0.6833378095,
				"element": "N" 
			},
			{
				"x": 1.7220011787,
				"y": -1.3053569509,
				"z": -0.105636771,
				"element": "C" 
			},
			{
				"x": 1.2175833501,
				"y": -1.1908087554,
				"z": -1.5461305463,
				"element": "C" 
			},
			{
				"x": 1.8055576704,
				"y": -1.4759309668,
				"z": -2.567622691,
				"element": "O" 
			},
			{
				"x": -0.0594403537,
				"y": -0.6807705269,
				"z": -1.435158064,
				"element": "N" 
			},
			{
				"x": -0.4691847895,
				"y": -0.4637474975,
				"z": -0.1001944312,
				"element": "C" 
			},
			{
				"x": -1.5563072683,
				"y": 0.0322764977,
				"z": 0.3499921523,
				"element": "N" 
			},
			{
				"x": 0.9358514423,
				"y": -1.5995161744,
				"z": 2.6329771264,
				"element": "H" 
			},
			{
				"x": -0.3608869127,
				"y": -0.3910557322,
				"z": 2.4446275089,
				"element": "H" 
			},
			{
				"x": 1.3456801589,
				"y": 0.1134348354,
				"z": 2.3642300753,
				"element": "H" 
			},
			{
				"x": 2.0543407572,
				"y": -2.3316110139,
				"z": 0.0984323817,
				"element": "H" 
			},
			{
				"x": 2.5878522444,
				"y": -0.6398640548,
				"z": 0.0337215575,
				"element": "H" 
			},
			{
				"x": -0.6453398821,
				"y": -0.5012634847,
				"z": -2.2369555451,
				"element": "H" 
			},
			{
				"x": -2.1955349801,
				"y": 0.2845138435,
				"z": -0.4005162181,
				"element": "H" 
			}
		],
		 "valence_orbital": [ 
			{
				"type": "occ",
				"energy": -0.36747,
				"method": "rhf"
			},
			{
				"type": "occ",
				"energy": -0.28876,
				"method": "rhf"
			},
			{
				"type": "occ",
				"energy": -0.27126,
				"method": "rhf"
			},
			{
				"type": "occ",
				"energy": -0.25897,
				"method": "rhf"
			},
			{
				"type": "occ",
				"energy": -0.22687,
				"method": "rhf"
			},
			{
				"type": "unocc",
				"energy": -0.00355,
				"method": "rhf"
			},
			{
				"type": "unocc",
				"energy": 0.06869,
				"method": "rhf"
			},
			{
				"type": "unocc",
				"energy": 0.06972,
				"method": "rhf"
			},
			{
				"type": "unocc",
				"energy": 0.09513,
				"method": "rhf"
			},
			{
				"type": "unocc",
				"energy": 0.11209,
				"method": "rhf"
			}
		],
		"cosmo_sigma_profile": { 
			"-0.025": 0.0,
			"-0.024": 0.0,
			"-0.023": 0.0,
			"-0.022": 0.0,
			"-0.021": 0.0,
			"-0.02": 0.0,
			"-0.019": 0.0,
			"-0.018": 0.0,
			"-0.017": 0.208993866501,
			"-0.016": 1.75693743836,
			"-0.015": 1.55428003801,
			"-0.014": 1.15577364916,
			"-0.013": 1.43252741456,
			"-0.012": 1.71499034107,
			"-0.011": 1.65285415646,
			"-0.01": 1.74042835394,
			"-0.009": 1.65113740251,
			"-0.008": 1.69373479287,
			"-0.007": 5.81874741049,
			"-0.006": 7.81139505905,
			"-0.005": 11.673067337,
			"-0.004": 13.3551944085,
			"-0.003": 12.2185501298,
			"-0.002": 12.0323235517,
			"-0.001": 9.19206054419,
			"0.0": 6.49920798628,
			"0.001": 4.86650637452,
			"0.002": 3.48536141071,
			"0.003": 3.76680038481,
			"0.004": 3.66523157509,
			"0.005": 3.74357179018,
			"0.006": 2.86896443161,
			"0.007": 2.53921310303,
			"0.008": 3.28846143203,
			"0.009": 2.66112424636,
			"0.01": 2.59854655664,
			"0.011": 4.40298601046,
			"0.012": 7.18629510525,
			"0.013": 4.71382982749,
			"0.014": 1.53478113768,
			"0.015": 1.39740562691,
			"0.016": 1.20408010635,
			"0.017": 0.962661061773,
			"0.018": 0.0226227136622,
			"0.019": 0.0,
			"0.02": 0.0,
			"0.021": 0.0,
			"0.022": 0.0,
			"0.023": 0.0,
			"0.024": 0.0,
			"0.025": 0.0
		}
	}
}
