{
	 "smiles": "ClCC(=O)N1N=C2C=CC=CN2C1=O", 
	 "Tm": 438.15, 
	 "num_atms": 20, 
	 "gaussian": { 
		 "optdone": 1, 
		 "sigma_profile": "yes", 
		 "theory": "DFT", 
		 "functional": "B3LYP", 
		 "basiset": "6-31G**", 
		 "properties": { 
			 "R2extent": 3994.4459, 
			 "electric_dipole_moment_norm": 7.9191496469, 
			 "electric_quadrupole_moment_norm": 14.8981107326, 
			 "total_energy": -1083.345434, 
			 "HOMO_LUMO_gap": 0.14619, 
			 "cosmo_polarized_energy": -18.05, 
			 "cosmo_cavitation_energy": 27.33, 
			 "cosmo_dispersion_energy": -20.37, 
			 "cosmo_repulsion_energy": 1.59, 
			 "cosmo_total_nonelectrostatic_energy": 8.55, 
			 "SMD_solvation_energy": 5.71 
		},
		"coords": [
			{
				"x": -3.4119090058,
				"y": -1.5371148825,
				"z": 0.4301282362,
				"element": "Cl" 
			},
			{
				"x": -1.7106366383,
				"y": -0.9979119983,
				"z": 0.3302920275,
				"element": "C" 
			},
			{
				"x": -1.5276198791,
				"y": 0.1086348845,
				"z": -0.7090367301,
				"element": "C" 
			},
			{
				"x": -2.3946411584,
				"y": 0.584971155,
				"z": -1.3953619512,
				"element": "O" 
			},
			{
				"x": -0.1827393793,
				"y": 0.5417834887,
				"z": -0.794048375,
				"element": "N" 
			},
			{
				"x": 0.7976087781,
				"y": -0.0354929145,
				"z": 0.0200260098,
				"element": "N" 
			},
			{
				"x": 1.9003878195,
				"y": 0.5881473919,
				"z": -0.3134164569,
				"element": "C" 
			},
			{
				"x": 3.234540859,
				"y": 0.4325930813,
				"z": 0.1759937817,
				"element": "C" 
			},
			{
				"x": 4.2166392331,
				"y": 1.2215740879,
				"z": -0.3503355248,
				"element": "C" 
			},
			{
				"x": 3.9387127954,
				"y": 2.1939539428,
				"z": -1.3747053611,
				"element": "C" 
			},
			{
				"x": 2.6700872097,
				"y": 2.3394854008,
				"z": -1.8377013519,
				"element": "C" 
			},
			{
				"x": 1.6837201494,
				"y": 1.5427366328,
				"z": -1.304753687,
				"element": "N" 
			},
			{
				"x": 0.3102674903,
				"y": 1.5422627417,
				"z": -1.6510076286,
				"element": "C" 
			},
			{
				"x": -0.2264293414,
				"y": 2.2443314479,
				"z": -2.4755846935,
				"element": "O" 
			},
			{
				"x": -1.3968115255,
				"y": -0.6429724812,
				"z": 1.3130799256,
				"element": "H" 
			},
			{
				"x": -1.0851082208,
				"y": -1.855244527,
				"z": 0.0772150935,
				"element": "H" 
			},
			{
				"x": 3.4229889757,
				"y": -0.3046113402,
				"z": 0.94694067,
				"element": "H" 
			},
			{
				"x": 5.2356900679,
				"y": 1.1179158831,
				"z": 0.0086149156,
				"element": "H" 
			},
			{
				"x": 4.7332582505,
				"y": 2.8094045638,
				"z": -1.7781199869,
				"element": "H" 
			},
			{
				"x": 2.3411935198,
				"y": 3.0334534417,
				"z": -2.601718913,
				"element": "H" 
			}
		],
		 "valence_orbital": [ 
			{
				"type": "occ",
				"energy": -0.30351,
				"method": "rhf"
			},
			{
				"type": "occ",
				"energy": -0.30094,
				"method": "rhf"
			},
			{
				"type": "occ",
				"energy": -0.29642,
				"method": "rhf"
			},
			{
				"type": "occ",
				"energy": -0.27213,
				"method": "rhf"
			},
			{
				"type": "occ",
				"energy": -0.22609,
				"method": "rhf"
			},
			{
				"type": "unocc",
				"energy": -0.0799,
				"method": "rhf"
			},
			{
				"type": "unocc",
				"energy": -0.02332,
				"method": "rhf"
			},
			{
				"type": "unocc",
				"energy": -0.01505,
				"method": "rhf"
			},
			{
				"type": "unocc",
				"energy": 0.02769,
				"method": "rhf"
			},
			{
				"type": "unocc",
				"energy": 0.05763,
				"method": "rhf"
			}
		],
		"cosmo_sigma_profile": { 
			"-0.025": 0.0,
			"-0.024": 0.0,
			"-0.023": 0.0,
			"-0.022": 0.0,
			"-0.021": 0.0,
			"-0.02": 0.0,
			"-0.019": 0.0,
			"-0.018": 0.0,
			"-0.017": 0.0,
			"-0.016": 0.0,
			"-0.015": 0.0,
			"-0.014": 0.0,
			"-0.013": 0.0,
			"-0.012": 0.0,
			"-0.011": 0.0,
			"-0.01": 2.115623066,
			"-0.009": 6.31910857216,
			"-0.008": 11.4405761107,
			"-0.007": 12.7006088406,
			"-0.006": 15.0959847975,
			"-0.005": 14.4760446637,
			"-0.004": 14.3385447765,
			"-0.003": 11.5376722575,
			"-0.002": 11.5794393314,
			"-0.001": 12.6580282484,
			"0.0": 15.4207301736,
			"0.001": 14.475154128,
			"0.002": 11.6042851034,
			"0.003": 6.33381599619,
			"0.004": 8.28047425393,
			"0.005": 10.4395996842,
			"0.006": 7.27379856478,
			"0.007": 4.38730710965,
			"0.008": 4.096214115,
			"0.009": 5.3655458148,
			"0.01": 7.0348626739,
			"0.011": 8.90196843884,
			"0.012": 3.37189618395,
			"0.013": 1.79178690677,
			"0.014": 1.36832413205,
			"0.015": 0.227465928411,
			"0.016": 0.0,
			"0.017": 0.0,
			"0.018": 0.0,
			"0.019": 0.0,
			"0.02": 0.0,
			"0.021": 0.0,
			"0.022": 0.0,
			"0.023": 0.0,
			"0.024": 0.0,
			"0.025": 0.0
		}
	}
}
