{
	 "smiles": "COC(=O)C1=C(SC)N=C(NC1=O)C1=CC=CC=C1", 
	 "Tm": 557.15, 
	 "num_atms": 31, 
	 "gaussian": { 
		 "optdone": 1, 
		 "sigma_profile": "yes", 
		 "theory": "DFT", 
		 "functional": "B3LYP", 
		 "basiset": "6-31G**", 
		 "properties": { 
			 "R2extent": 6836.9201, 
			 "electric_dipole_moment_norm": 5.69353293747, 
			 "electric_quadrupole_moment_norm": 13.7376244129, 
			 "total_energy": -1236.00289935, 
			 "HOMO_LUMO_gap": 0.14509, 
			 "cosmo_polarized_energy": -20.08, 
			 "cosmo_cavitation_energy": 37.28, 
			 "cosmo_dispersion_energy": -27.36, 
			 "cosmo_repulsion_energy": 2.05, 
			 "cosmo_total_nonelectrostatic_energy": 11.96, 
			 "SMD_solvation_energy": 8.05 
		},
		"coords": [
			{
				"x": -2.8048427602,
				"y": 4.2396910239,
				"z": 2.0726993356,
				"element": "C" 
			},
			{
				"x": -1.6972606151,
				"y": 3.5142101903,
				"z": 1.5209158118,
				"element": "O" 
			},
			{
				"x": -1.8201179158,
				"y": 2.1765535869,
				"z": 1.5563837683,
				"element": "C" 
			},
			{
				"x": -2.8016924048,
				"y": 1.6190947922,
				"z": 2.0291080377,
				"element": "O" 
			},
			{
				"x": -0.6750025548,
				"y": 1.4411502727,
				"z": 0.9871171266,
				"element": "C" 
			},
			{
				"x": -0.6682428944,
				"y": 0.037517717,
				"z": 1.0029130524,
				"element": "C" 
			},
			{
				"x": -2.0110365282,
				"y": -0.8986184893,
				"z": 1.6798614688,
				"element": "S" 
			},
			{
				"x": -1.4068545355,
				"y": -2.6077894081,
				"z": 1.4298068942,
				"element": "C" 
			},
			{
				"x": 0.3619241841,
				"y": -0.7150992774,
				"z": 0.5166781462,
				"element": "N" 
			},
			{
				"x": 1.3973765929,
				"y": -0.105961008,
				"z": -0.0101124404,
				"element": "C" 
			},
			{
				"x": 1.456110146,
				"y": 1.2426610143,
				"z": -0.0942056957,
				"element": "N" 
			},
			{
				"x": 0.4561172735,
				"y": 2.1376727977,
				"z": 0.3843114283,
				"element": "C" 
			},
			{
				"x": 0.6504640242,
				"y": 3.3323425271,
				"z": 0.2299228032,
				"element": "O" 
			},
			{
				"x": 2.5312455079,
				"y": -0.9059302937,
				"z": -0.5298520914,
				"element": "C" 
			},
			{
				"x": 2.3166194057,
				"y": -2.2529541729,
				"z": -0.8620954159,
				"element": "C" 
			},
			{
				"x": 3.3591769539,
				"y": -3.02783849,
				"z": -1.3620026705,
				"element": "C" 
			},
			{
				"x": 4.6307848065,
				"y": -2.4728195581,
				"z": -1.5282600687,
				"element": "C" 
			},
			{
				"x": 4.8564900394,
				"y": -1.1381441083,
				"z": -1.1868456609,
				"element": "C" 
			},
			{
				"x": 3.8139576689,
				"y": -0.3575150959,
				"z": -0.6908098434,
				"element": "C" 
			},
			{
				"x": -3.7274059074,
				"y": 4.0095614398,
				"z": 1.5332530317,
				"element": "H" 
			},
			{
				"x": -2.5454381571,
				"y": 5.29202185,
				"z": 1.9582265695,
				"element": "H" 
			},
			{
				"x": -2.9458036429,
				"y": 3.9902971138,
				"z": 3.1277805845,
				"element": "H" 
			},
			{
				"x": -1.3073571138,
				"y": -2.8492164675,
				"z": 0.3711462437,
				"element": "H" 
			},
			{
				"x": -2.1837097614,
				"y": -3.2342395245,
				"z": 1.876270865,
				"element": "H" 
			},
			{
				"x": -0.4573159389,
				"y": -2.7783342396,
				"z": 1.936503016,
				"element": "H" 
			},
			{
				"x": 2.2235902127,
				"y": 1.7093785014,
				"z": -0.5613587883,
				"element": "H" 
			},
			{
				"x": 1.3255660533,
				"y": -2.6693560704,
				"z": -0.7255069993,
				"element": "H" 
			},
			{
				"x": 3.1801401013,
				"y": -4.066228796,
				"z": -1.6241219474,
				"element": "H" 
			},
			{
				"x": 5.4435074605,
				"y": -3.0790831277,
				"z": -1.9171020015,
				"element": "H" 
			},
			{
				"x": 5.8459505925,
				"y": -0.7054980412,
				"z": -1.2981853911,
				"element": "H" 
			},
			{
				"x": 4.0209597071,
				"y": 0.6676733413,
				"z": -0.3970391694,
				"element": "H" 
			}
		],
		 "valence_orbital": [ 
			{
				"type": "occ",
				"energy": -0.27647,
				"method": "rhf"
			},
			{
				"type": "occ",
				"energy": -0.25984,
				"method": "rhf"
			},
			{
				"type": "occ",
				"energy": -0.25403,
				"method": "rhf"
			},
			{
				"type": "occ",
				"energy": -0.25009,
				"method": "rhf"
			},
			{
				"type": "occ",
				"energy": -0.226,
				"method": "rhf"
			},
			{
				"type": "unocc",
				"energy": -0.08091,
				"method": "rhf"
			},
			{
				"type": "unocc",
				"energy": -0.028,
				"method": "rhf"
			},
			{
				"type": "unocc",
				"energy": -0.0215,
				"method": "rhf"
			},
			{
				"type": "unocc",
				"energy": 0.00684,
				"method": "rhf"
			},
			{
				"type": "unocc",
				"energy": 0.04622,
				"method": "rhf"
			}
		],
		"cosmo_sigma_profile": { 
			"-0.025": 0.0,
			"-0.024": 0.0,
			"-0.023": 0.0,
			"-0.022": 0.0,
			"-0.021": 0.0,
			"-0.02": 0.0,
			"-0.019": 0.0,
			"-0.018": 0.0,
			"-0.017": 0.0483684160743,
			"-0.016": 1.07224283875,
			"-0.015": 0.909923812227,
			"-0.014": 1.0209377682,
			"-0.013": 1.21193964866,
			"-0.012": 1.1201142914,
			"-0.011": 1.2716434413,
			"-0.01": 1.19601665732,
			"-0.009": 1.34736954697,
			"-0.008": 1.57705479725,
			"-0.007": 7.01385526872,
			"-0.006": 16.1581728073,
			"-0.005": 23.654563597,
			"-0.004": 26.9081130236,
			"-0.003": 26.39935553,
			"-0.002": 26.5532437927,
			"-0.001": 23.3381944016,
			"0.0": 20.1879120893,
			"0.001": 17.8958625074,
			"0.002": 17.7045238954,
			"0.003": 19.6707960856,
			"0.004": 12.5754941737,
			"0.005": 6.51953241504,
			"0.006": 5.43324138055,
			"0.007": 4.27613749962,
			"0.008": 4.20988866261,
			"0.009": 4.53156050205,
			"0.01": 4.02948188934,
			"0.011": 4.80016698917,
			"0.012": 7.09350206645,
			"0.013": 5.88974407241,
			"0.014": 1.82883070198,
			"0.015": 1.87282519492,
			"0.016": 0.875679465591,
			"0.017": 0.0,
			"0.018": 0.0,
			"0.019": 0.0,
			"0.02": 0.0,
			"0.021": 0.0,
			"0.022": 0.0,
			"0.023": 0.0,
			"0.024": 0.0,
			"0.025": 0.0
		}
	}
}
