{
	 "smiles": "NNC(=O)C1=CC=CC=C1O", 
	 "Tm": 421.15, 
	 "num_atms": 19, 
	 "gaussian": { 
		 "optdone": 1, 
		 "sigma_profile": "yes", 
		 "theory": "DFT", 
		 "functional": "B3LYP", 
		 "basiset": "6-31G**", 
		 "properties": { 
			 "R2extent": 2033.1029, 
			 "electric_dipole_moment_norm": 4.83938964023, 
			 "electric_quadrupole_moment_norm": 10.7838952239, 
			 "total_energy": -531.488042718, 
			 "HOMO_LUMO_gap": 0.20318, 
			 "cosmo_polarized_energy": -17.79, 
			 "cosmo_cavitation_energy": 23.02, 
			 "cosmo_dispersion_energy": -17.12, 
			 "cosmo_repulsion_energy": 1.39, 
			 "cosmo_total_nonelectrostatic_energy": 7.3, 
			 "SMD_solvation_energy": 5.38 
		},
		"coords": [
			{
				"x": -1.7483769829,
				"y": -3.2388801546,
				"z": -0.4708597611,
				"element": "N" 
			},
			{
				"x": -2.5252527624,
				"y": -2.2183799583,
				"z": -1.0473697435,
				"element": "N" 
			},
			{
				"x": -2.1373001297,
				"y": -0.9431426115,
				"z": -1.3663878348,
				"element": "C" 
			},
			{
				"x": -2.8158427571,
				"y": -0.2516783203,
				"z": -2.1198285047,
				"element": "O" 
			},
			{
				"x": -0.8354237114,
				"y": -0.4217455701,
				"z": -0.8091787185,
				"element": "C" 
			},
			{
				"x": -0.0260600611,
				"y": 0.3001026447,
				"z": -1.698652909,
				"element": "C" 
			},
			{
				"x": 1.1682890985,
				"y": 0.8875641282,
				"z": -1.2913599223,
				"element": "C" 
			},
			{
				"x": 1.5582100305,
				"y": 0.7872424396,
				"z": 0.0454277292,
				"element": "C" 
			},
			{
				"x": 0.755658955,
				"y": 0.1055089025,
				"z": 0.9571843993,
				"element": "C" 
			},
			{
				"x": -0.4375298878,
				"y": -0.4935095809,
				"z": 0.5383127318,
				"element": "C" 
			},
			{
				"x": -1.2521365663,
				"y": -1.1422221246,
				"z": 1.4327482215,
				"element": "O" 
			},
			{
				"x": -0.8514211323,
				"y": -3.2992708647,
				"z": -0.9486727615,
				"element": "H" 
			},
			{
				"x": -1.5762011187,
				"y": -2.9952685845,
				"z": 0.5012579773,
				"element": "H" 
			},
			{
				"x": -3.3715438132,
				"y": -2.5270597855,
				"z": -1.5080417197,
				"element": "H" 
			},
			{
				"x": -0.3688107781,
				"y": 0.3946800109,
				"z": -2.7237683557,
				"element": "H" 
			},
			{
				"x": 1.782282594,
				"y": 1.4279120771,
				"z": -2.0045230538,
				"element": "H" 
			},
			{
				"x": 2.4823467146,
				"y": 1.245429952,
				"z": 0.3852776539,
				"element": "H" 
			},
			{
				"x": 1.0478378559,
				"y": 0.0410320728,
				"z": 2.0036356457,
				"element": "H" 
			},
			{
				"x": -0.8994255477,
				"y": -1.0222146727,
				"z": 2.3242989259,
				"element": "H" 
			}
		],
		 "valence_orbital": [ 
			{
				"type": "occ",
				"energy": -0.27843,
				"method": "rhf"
			},
			{
				"type": "occ",
				"energy": -0.26695,
				"method": "rhf"
			},
			{
				"type": "occ",
				"energy": -0.24834,
				"method": "rhf"
			},
			{
				"type": "occ",
				"energy": -0.24102,
				"method": "rhf"
			},
			{
				"type": "occ",
				"energy": -0.23313,
				"method": "rhf"
			},
			{
				"type": "unocc",
				"energy": -0.02995,
				"method": "rhf"
			},
			{
				"type": "unocc",
				"energy": -0.00266,
				"method": "rhf"
			},
			{
				"type": "unocc",
				"energy": 0.04585,
				"method": "rhf"
			},
			{
				"type": "unocc",
				"energy": 0.05374,
				"method": "rhf"
			},
			{
				"type": "unocc",
				"energy": 0.08616,
				"method": "rhf"
			}
		],
		"cosmo_sigma_profile": { 
			"-0.025": 0.0,
			"-0.024": 0.0,
			"-0.023": 0.0,
			"-0.022": 0.0,
			"-0.021": 0.0,
			"-0.02": 0.0,
			"-0.019": 0.203496552006,
			"-0.018": 0.887435786888,
			"-0.017": 1.1054710236,
			"-0.016": 1.27936309964,
			"-0.015": 1.02230403809,
			"-0.014": 0.766734270664,
			"-0.013": 1.86856213398,
			"-0.012": 2.05239817384,
			"-0.011": 3.31802292994,
			"-0.01": 3.1993765953,
			"-0.009": 2.65649298766,
			"-0.008": 3.67934020335,
			"-0.007": 6.16581445166,
			"-0.006": 9.60916400455,
			"-0.005": 9.97009220515,
			"-0.004": 12.0968171214,
			"-0.003": 10.6548837164,
			"-0.002": 9.378897515,
			"-0.001": 7.66204081994,
			"0.0": 9.58713172116,
			"0.001": 8.55299032221,
			"0.002": 10.0092198771,
			"0.003": 11.4177779438,
			"0.004": 13.1730172408,
			"0.005": 9.25620021876,
			"0.006": 4.7701460053,
			"0.007": 3.08226373379,
			"0.008": 3.15431470082,
			"0.009": 2.09831140684,
			"0.01": 2.76387757801,
			"0.011": 2.563612051,
			"0.012": 2.31526014319,
			"0.013": 4.81344393921,
			"0.014": 5.44330812875,
			"0.015": 1.54741677343,
			"0.016": 0.40538669532,
			"0.017": 0.141650651597,
			"0.018": 0.0,
			"0.019": 0.0,
			"0.02": 0.0,
			"0.021": 0.0,
			"0.022": 0.0,
			"0.023": 0.0,
			"0.024": 0.0,
			"0.025": 0.0
		}
	}
}
