{
	 "smiles": "COC1=C(Br)C=C(C=C1Br)C(O)=O", 
	 "Tm": 498.15, 
	 "num_atms": 19, 
	 "gaussian": { 
		 "optdone": 1, 
		 "sigma_profile": "yes", 
		 "theory": "DFT", 
		 "functional": "B3LYP", 
		 "basiset": "6-31G**", 
		 "properties": { 
			 "R2extent": 4782.2552, 
			 "electric_dipole_moment_norm": 4.39992928693, 
			 "electric_quadrupole_moment_norm": 12.9026915928, 
			 "total_energy": -5676.93095641, 
			 "HOMO_LUMO_gap": 0.19625, 
			 "cosmo_polarized_energy": -14.92, 
			 "cosmo_cavitation_energy": 28.44, 
			 "cosmo_dispersion_energy": -21.28, 
			 "cosmo_repulsion_energy": 1.68, 
			 "cosmo_total_nonelectrostatic_energy": 8.84, 
			 "SMD_solvation_energy": 4.77 
		},
		"coords": [
			{
				"x": -1.8464768936,
				"y": 2.5317055112,
				"z": -0.6578824748,
				"element": "C" 
			},
			{
				"x": -1.0036764503,
				"y": 1.9117885422,
				"z": 0.3283975263,
				"element": "O" 
			},
			{
				"x": -0.470709908,
				"y": 0.7135417996,
				"z": -0.0212841423,
				"element": "C" 
			},
			{
				"x": 0.7856744008,
				"y": 0.6278013969,
				"z": -0.6501786582,
				"element": "C" 
			},
			{
				"x": 1.7164959007,
				"y": 2.2302959947,
				"z": -1.0817949196,
				"element": "Br" 
			},
			{
				"x": 1.3674143977,
				"y": -0.5974695415,
				"z": -0.947028481,
				"element": "C" 
			},
			{
				"x": 0.6921646013,
				"y": -1.7836072773,
				"z": -0.6380976418,
				"element": "C" 
			},
			{
				"x": -0.5510591983,
				"y": -1.7251394134,
				"z": 0.0018498546,
				"element": "C" 
			},
			{
				"x": -1.1194557848,
				"y": -0.4902565321,
				"z": 0.3005344323,
				"element": "C" 
			},
			{
				"x": -2.8004395255,
				"y": -0.4332083524,
				"z": 1.1918659279,
				"element": "Br" 
			},
			{
				"x": 1.3772036634,
				"y": -3.0756822258,
				"z": -0.9793870676,
				"element": "C" 
			},
			{
				"x": 0.5956624688,
				"y": -4.1840702491,
				"z": -1.0509773187,
				"element": "O" 
			},
			{
				"x": 2.5643125394,
				"y": -3.1540911009,
				"z": -1.1855838523,
				"element": "O" 
			},
			{
				"x": -2.71508623,
				"y": 1.9023531647,
				"z": -0.8780036684,
				"element": "H" 
			},
			{
				"x": -2.1788528248,
				"y": 3.4714064732,
				"z": -0.2158198376,
				"element": "H" 
			},
			{
				"x": -1.2859656932,
				"y": 2.7360779522,
				"z": -1.5757895167,
				"element": "H" 
			},
			{
				"x": 2.3423972191,
				"y": -0.6542468975,
				"z": -1.4153033551,
				"element": "H" 
			},
			{
				"x": -1.0747284914,
				"y": -2.623250737,
				"z": 0.3121941653,
				"element": "H" 
			},
			{
				"x": -0.3408741913,
				"y": -3.9433485077,
				"z": -1.0390109721,
				"element": "H" 
			}
		],
		 "valence_orbital": [ 
			{
				"type": "occ",
				"energy": -0.30431,
				"method": "rhf"
			},
			{
				"type": "occ",
				"energy": -0.2969,
				"method": "rhf"
			},
			{
				"type": "occ",
				"energy": -0.28574,
				"method": "rhf"
			},
			{
				"type": "occ",
				"energy": -0.26556,
				"method": "rhf"
			},
			{
				"type": "occ",
				"energy": -0.26354,
				"method": "rhf"
			},
			{
				"type": "unocc",
				"energy": -0.06729,
				"method": "rhf"
			},
			{
				"type": "unocc",
				"energy": -0.04549,
				"method": "rhf"
			},
			{
				"type": "unocc",
				"energy": -0.02973,
				"method": "rhf"
			},
			{
				"type": "unocc",
				"energy": 0.01082,
				"method": "rhf"
			},
			{
				"type": "unocc",
				"energy": 0.031,
				"method": "rhf"
			}
		],
		"cosmo_sigma_profile": { 
			"-0.025": 0.0,
			"-0.024": 0.0,
			"-0.023": 0.0,
			"-0.022": 0.0,
			"-0.021": 0.0,
			"-0.02": 0.219285684958,
			"-0.019": 1.07801169743,
			"-0.018": 0.914816823718,
			"-0.017": 0.570903872924,
			"-0.016": 1.19207828451,
			"-0.015": 1.25413917299,
			"-0.014": 1.22450086212,
			"-0.013": 0.892464826263,
			"-0.012": 1.36550241387,
			"-0.011": 1.18166516366,
			"-0.01": 1.16122298702,
			"-0.009": 1.62531903738,
			"-0.008": 1.74431295393,
			"-0.007": 3.41968924972,
			"-0.006": 6.00530107111,
			"-0.005": 13.6247115094,
			"-0.004": 18.6220666318,
			"-0.003": 17.7039555361,
			"-0.002": 13.8108727331,
			"-0.001": 21.1996042426,
			"0.0": 24.3886675142,
			"0.001": 14.2655496913,
			"0.002": 15.8151599604,
			"0.003": 17.7069347275,
			"0.004": 13.6040079642,
			"0.005": 5.9416649823,
			"0.006": 4.92533020363,
			"0.007": 3.60242239364,
			"0.008": 4.82802670047,
			"0.009": 5.38119249876,
			"0.01": 6.39178862885,
			"0.011": 5.467804955,
			"0.012": 2.72587138102,
			"0.013": 0.600733534167,
			"0.014": 0.0,
			"0.015": 0.0,
			"0.016": 0.0,
			"0.017": 0.0,
			"0.018": 0.0,
			"0.019": 0.0,
			"0.02": 0.0,
			"0.021": 0.0,
			"0.022": 0.0,
			"0.023": 0.0,
			"0.024": 0.0,
			"0.025": 0.0
		}
	}
}
