{
	 "smiles": "OC(=O)C1=CC=C(CS(=O)(=O)C2=CC=CC=C2)C=C1", 
	 "Tm": 571.15, 
	 "num_atms": 31, 
	 "gaussian": { 
		 "optdone": 1, 
		 "sigma_profile": "yes", 
		 "theory": "DFT", 
		 "functional": "B3LYP", 
		 "basiset": "6-31G**", 
		 "properties": { 
			 "R2extent": 6522.7732, 
			 "electric_dipole_moment_norm": 3.26682805945, 
			 "electric_quadrupole_moment_norm": 29.0322976023, 
			 "total_energy": -1239.76376993, 
			 "HOMO_LUMO_gap": 0.19825, 
			 "cosmo_polarized_energy": -20.11, 
			 "cosmo_cavitation_energy": 37.38, 
			 "cosmo_dispersion_energy": -26.01, 
			 "cosmo_repulsion_energy": 1.97, 
			 "cosmo_total_nonelectrostatic_energy": 13.33, 
			 "SMD_solvation_energy": 6.69 
		},
		"coords": [
			{
				"x": 0.780001223,
				"y": -2.8414177478,
				"z": 4.6971303073,
				"element": "O" 
			},
			{
				"x": 0.5555532974,
				"y": -1.5539855894,
				"z": 4.3348109621,
				"element": "C" 
			},
			{
				"x": 0.7140987575,
				"y": -0.6283697373,
				"z": 5.1063452331,
				"element": "O" 
			},
			{
				"x": 0.1072091873,
				"y": -1.415462219,
				"z": 2.923547826,
				"element": "C" 
			},
			{
				"x": -0.0514217486,
				"y": -2.5201015432,
				"z": 2.0745396461,
				"element": "C" 
			},
			{
				"x": -0.4788474604,
				"y": -2.3354736418,
				"z": 0.7631683448,
				"element": "C" 
			},
			{
				"x": -0.7528825532,
				"y": -1.0474159109,
				"z": 0.2774318905,
				"element": "C" 
			},
			{
				"x": -1.2127205771,
				"y": -0.8474974036,
				"z": -1.1373810862,
				"element": "C" 
			},
			{
				"x": 0.0967509083,
				"y": -1.0514819104,
				"z": -2.4209749238,
				"element": "S" 
			},
			{
				"x": -0.5563393128,
				"y": -0.7534383143,
				"z": -3.7064197372,
				"element": "O" 
			},
			{
				"x": 0.7570899427,
				"y": -2.3458159788,
				"z": -2.183624017,
				"element": "O" 
			},
			{
				"x": 1.2856596652,
				"y": 0.2544857703,
				"z": -2.0819926667,
				"element": "C" 
			},
			{
				"x": 2.3615264783,
				"y": -0.0039592807,
				"z": -1.2300663315,
				"element": "C" 
			},
			{
				"x": 3.2764487215,
				"y": 1.0177329493,
				"z": -0.9733895087,
				"element": "C" 
			},
			{
				"x": 3.1108437069,
				"y": 2.2721005462,
				"z": -1.5656513834,
				"element": "C" 
			},
			{
				"x": 2.0346571931,
				"y": 2.5129449218,
				"z": -2.4239107923,
				"element": "C" 
			},
			{
				"x": 1.1125788615,
				"y": 1.5003806694,
				"z": -2.6893857572,
				"element": "C" 
			},
			{
				"x": -0.5859535128,
				"y": 0.0527307293,
				"z": 1.1317485056,
				"element": "C" 
			},
			{
				"x": -0.1625654892,
				"y": -0.1275230196,
				"z": 2.4442806474,
				"element": "C" 
			},
			{
				"x": 1.0643628471,
				"y": -2.8092617693,
				"z": 5.6252715821,
				"element": "H" 
			},
			{
				"x": 0.1581253474,
				"y": -3.5166797981,
				"z": 2.4457067187,
				"element": "H" 
			},
			{
				"x": -0.5879707356,
				"y": -3.1894210338,
				"z": 0.1027453859,
				"element": "H" 
			},
			{
				"x": -1.6373094625,
				"y": 0.1445777077,
				"z": -1.306893818,
				"element": "H" 
			},
			{
				"x": -1.9478414753,
				"y": -1.5964429991,
				"z": -1.4486706821,
				"element": "H" 
			},
			{
				"x": 2.4806965439,
				"y": -0.9904071241,
				"z": -0.796149496,
				"element": "H" 
			},
			{
				"x": 4.1201934298,
				"y": 0.8323556298,
				"z": -0.315784692,
				"element": "H" 
			},
			{
				"x": 3.8273364486,
				"y": 3.0629564946,
				"z": -1.3637076395,
				"element": "H" 
			},
			{
				"x": 1.9182787253,
				"y": 3.4851079382,
				"z": -2.8932455723,
				"element": "H" 
			},
			{
				"x": 0.2842894699,
				"y": 1.6565263447,
				"z": -3.3724104595,
				"element": "H" 
			},
			{
				"x": -0.7947032511,
				"y": 1.0541394339,
				"z": 0.7654862639,
				"element": "H" 
			},
			{
				"x": -0.0355451763,
				"y": 0.7152158861,
				"z": 3.11514525,
				"element": "H" 
			}
		],
		 "valence_orbital": [ 
			{
				"type": "occ",
				"energy": -0.28283,
				"method": "rhf"
			},
			{
				"type": "occ",
				"energy": -0.27939,
				"method": "rhf"
			},
			{
				"type": "occ",
				"energy": -0.2747,
				"method": "rhf"
			},
			{
				"type": "occ",
				"energy": -0.26828,
				"method": "rhf"
			},
			{
				"type": "occ",
				"energy": -0.26008,
				"method": "rhf"
			},
			{
				"type": "unocc",
				"energy": -0.06183,
				"method": "rhf"
			},
			{
				"type": "unocc",
				"energy": -0.04345,
				"method": "rhf"
			},
			{
				"type": "unocc",
				"energy": -0.02494,
				"method": "rhf"
			},
			{
				"type": "unocc",
				"energy": -0.01879,
				"method": "rhf"
			},
			{
				"type": "unocc",
				"energy": 0.03433,
				"method": "rhf"
			}
		],
		"cosmo_sigma_profile": { 
			"-0.025": 0.0,
			"-0.024": 0.0,
			"-0.023": 0.0,
			"-0.022": 0.0,
			"-0.021": 0.0,
			"-0.02": 0.0,
			"-0.019": 0.0938158241937,
			"-0.018": 1.02804720399,
			"-0.017": 0.712394934863,
			"-0.016": 0.932582565642,
			"-0.015": 0.602464650013,
			"-0.014": 0.373898312001,
			"-0.013": 0.936670082663,
			"-0.012": 0.681338850538,
			"-0.011": 0.584830908207,
			"-0.01": 0.712020568698,
			"-0.009": 4.39623005961,
			"-0.008": 6.86364456807,
			"-0.007": 15.3042323461,
			"-0.006": 21.6149766167,
			"-0.005": 21.4993762254,
			"-0.004": 16.1194788673,
			"-0.003": 15.2900525696,
			"-0.002": 16.4400692233,
			"-0.001": 15.6770862634,
			"0.0": 19.7900847481,
			"0.001": 23.0529333616,
			"0.002": 28.1315094724,
			"0.003": 24.824868004,
			"0.004": 7.4258353873,
			"0.005": 5.94788832557,
			"0.006": 5.0136186775,
			"0.007": 5.03394746783,
			"0.008": 5.33069713949,
			"0.009": 5.35963027064,
			"0.01": 7.02622835235,
			"0.011": 12.1849771069,
			"0.012": 9.81962134511,
			"0.013": 0.271628081839,
			"0.014": 0.0,
			"0.015": 0.0,
			"0.016": 0.0,
			"0.017": 0.0,
			"0.018": 0.0,
			"0.019": 0.0,
			"0.02": 0.0,
			"0.021": 0.0,
			"0.022": 0.0,
			"0.023": 0.0,
			"0.024": 0.0,
			"0.025": 0.0
		}
	}
}
