{
	 "smiles": "CCCCOCCOCCCC", 
	 "Tm": 204.05, 
	 "num_atms": 34, 
	 "gaussian": { 
		 "optdone": 1, 
		 "sigma_profile": "yes", 
		 "theory": "DFT", 
		 "functional": "B3LYP", 
		 "basiset": "6-31G**", 
		 "properties": { 
			 "R2extent": 4727.4381, 
			 "electric_dipole_moment_norm": 1.54721981308, 
			 "electric_quadrupole_moment_norm": 4.2277555724, 
			 "total_energy": -544.766370437, 
			 "HOMO_LUMO_gap": 0.32789, 
			 "cosmo_polarized_energy": -5.48, 
			 "cosmo_cavitation_energy": 35.03, 
			 "cosmo_dispersion_energy": -24.77, 
			 "cosmo_repulsion_energy": 2.08, 
			 "cosmo_total_nonelectrostatic_energy": 12.34, 
			 "SMD_solvation_energy": 5.68 
		},
		"coords": [
			{
				"x": 1.91421053,
				"y": -1.7437022017,
				"z": 4.6179350836,
				"element": "C" 
			},
			{
				"x": 2.6634842301,
				"y": -1.9461285225,
				"z": 3.2956492836,
				"element": "C" 
			},
			{
				"x": 2.3645733024,
				"y": -0.8802244443,
				"z": 2.2292788429,
				"element": "C" 
			},
			{
				"x": 0.9327491091,
				"y": -0.9129544863,
				"z": 1.6843308004,
				"element": "C" 
			},
			{
				"x": 0.592036632,
				"y": -2.1823233475,
				"z": 1.1176728957,
				"element": "O" 
			},
			{
				"x": 0.9671795453,
				"y": -2.3688067559,
				"z": -0.2359000784,
				"element": "C" 
			},
			{
				"x": -0.0999083669,
				"y": -1.9116945396,
				"z": -1.2216511031,
				"element": "C" 
			},
			{
				"x": -0.1286511242,
				"y": -0.496472922,
				"z": -1.274284386,
				"element": "O" 
			},
			{
				"x": -1.1543234975,
				"y": 0.0146634751,
				"z": -2.1087748077,
				"element": "C" 
			},
			{
				"x": -1.0831146897,
				"y": 1.5362381803,
				"z": -2.0999773157,
				"element": "C" 
			},
			{
				"x": -2.1546854016,
				"y": 2.1889662095,
				"z": -2.9818243276,
				"element": "C" 
			},
			{
				"x": -2.0842193158,
				"y": 3.7193655949,
				"z": -2.972418038,
				"element": "C" 
			},
			{
				"x": 2.136994245,
				"y": -0.7630791552,
				"z": 5.0554746375,
				"element": "H" 
			},
			{
				"x": 2.1988450882,
				"y": -2.5056728295,
				"z": 5.3511359835,
				"element": "H" 
			},
			{
				"x": 0.8293162171,
				"y": -1.8098228639,
				"z": 4.4859650743,
				"element": "H" 
			},
			{
				"x": 2.4160488329,
				"y": -2.930456811,
				"z": 2.8816143865,
				"element": "H" 
			},
			{
				"x": 3.7429105076,
				"y": -1.9528222093,
				"z": 3.4930751884,
				"element": "H" 
			},
			{
				"x": 2.5483062639,
				"y": 0.1235988393,
				"z": 2.6388747472,
				"element": "H" 
			},
			{
				"x": 3.0672674013,
				"y": -0.9988813299,
				"z": 1.393827237,
				"element": "H" 
			},
			{
				"x": 0.7798122624,
				"y": -0.1147298043,
				"z": 0.9500078674,
				"element": "H" 
			},
			{
				"x": 0.2129864703,
				"y": -0.7565234739,
				"z": 2.4953539221,
				"element": "H" 
			},
			{
				"x": 1.9154688786,
				"y": -1.8644909083,
				"z": -0.4715013469,
				"element": "H" 
			},
			{
				"x": 1.1205462826,
				"y": -3.4461930534,
				"z": -0.3728359119,
				"element": "H" 
			},
			{
				"x": -1.0771078029,
				"y": -2.310239135,
				"z": -0.9042083518,
				"element": "H" 
			},
			{
				"x": 0.1241206034,
				"y": -2.3285964312,
				"z": -2.2202870054,
				"element": "H" 
			},
			{
				"x": -1.0335996996,
				"y": -0.3692829328,
				"z": -3.1372277285,
				"element": "H" 
			},
			{
				"x": -2.1416150111,
				"y": -0.3271417307,
				"z": -1.7526431562,
				"element": "H" 
			},
			{
				"x": -0.0836443593,
				"y": 1.8413689299,
				"z": -2.4348697303,
				"element": "H" 
			},
			{
				"x": -1.1859702892,
				"y": 1.8847835408,
				"z": -1.0644796527,
				"element": "H" 
			},
			{
				"x": -2.0503183892,
				"y": 1.8253732262,
				"z": -4.0131687013,
				"element": "H" 
			},
			{
				"x": -3.1498604995,
				"y": 1.8675773866,
				"z": -2.6456457539,
				"element": "H" 
			},
			{
				"x": -1.113152128,
				"y": 4.0730464497,
				"z": -3.3368053096,
				"element": "H" 
			},
			{
				"x": -2.8589522714,
				"y": 4.1586277383,
				"z": -3.6091091638,
				"element": "H" 
			},
			{
				"x": -2.2207335565,
				"y": 4.1155303177,
				"z": -1.9598840813,
				"element": "H" 
			}
		],
		 "valence_orbital": [ 
			{
				"type": "occ",
				"energy": -0.32138,
				"method": "rhf"
			},
			{
				"type": "occ",
				"energy": -0.31426,
				"method": "rhf"
			},
			{
				"type": "occ",
				"energy": -0.28923,
				"method": "rhf"
			},
			{
				"type": "occ",
				"energy": -0.25498,
				"method": "rhf"
			},
			{
				"type": "occ",
				"energy": -0.23922,
				"method": "rhf"
			},
			{
				"type": "unocc",
				"energy": 0.08867,
				"method": "rhf"
			},
			{
				"type": "unocc",
				"energy": 0.091,
				"method": "rhf"
			},
			{
				"type": "unocc",
				"energy": 0.09845,
				"method": "rhf"
			},
			{
				"type": "unocc",
				"energy": 0.12042,
				"method": "rhf"
			},
			{
				"type": "unocc",
				"energy": 0.12639,
				"method": "rhf"
			}
		],
		"cosmo_sigma_profile": { 
			"-0.025": 0.0,
			"-0.024": 0.0,
			"-0.023": 0.0,
			"-0.022": 0.0,
			"-0.021": 0.0,
			"-0.02": 0.0,
			"-0.019": 0.0,
			"-0.018": 0.0,
			"-0.017": 0.0,
			"-0.016": 0.0,
			"-0.015": 0.0,
			"-0.014": 0.0,
			"-0.013": 0.0,
			"-0.012": 0.0,
			"-0.011": 0.0,
			"-0.01": 0.0,
			"-0.009": 0.0,
			"-0.008": 0.0,
			"-0.007": 0.0,
			"-0.006": 0.0,
			"-0.005": 1.76691595743,
			"-0.004": 9.90345489189,
			"-0.003": 32.563561979,
			"-0.002": 50.0674310118,
			"-0.001": 48.2416387764,
			"0.0": 40.2428026414,
			"0.001": 36.4126768134,
			"0.002": 17.3273676085,
			"0.003": 5.40811515245,
			"0.004": 3.31628897431,
			"0.005": 3.9661831391,
			"0.006": 3.43155199389,
			"0.007": 4.60065576545,
			"0.008": 3.12275140011,
			"0.009": 2.22260125819,
			"0.01": 1.83240998502,
			"0.011": 1.0955653663,
			"0.012": 1.6264358474,
			"0.013": 1.02483197438,
			"0.014": 0.974844319749,
			"0.015": 0.0763079648938,
			"0.016": 0.0,
			"0.017": 0.0,
			"0.018": 0.0,
			"0.019": 0.0,
			"0.02": 0.0,
			"0.021": 0.0,
			"0.022": 0.0,
			"0.023": 0.0,
			"0.024": 0.0,
			"0.025": 0.0
		}
	}
}
