{
	 "smiles": "CC1=NN(C(C)=C1)C1=CC=C(Cl)N=N1", 
	 "Tm": 386.15, 
	 "num_atms": 23, 
	 "gaussian": { 
		 "optdone": 1, 
		 "sigma_profile": "yes", 
		 "theory": "DFT", 
		 "functional": "B3LYP", 
		 "basiset": "6-31G**", 
		 "properties": { 
			 "R2extent": 4591.4123, 
			 "electric_dipole_moment_norm": 5.87174756525, 
			 "electric_quadrupole_moment_norm": 16.743667626, 
			 "total_energy": -1027.51903574, 
			 "HOMO_LUMO_gap": 0.16957, 
			 "cosmo_polarized_energy": -18.0, 
			 "cosmo_cavitation_energy": 29.56, 
			 "cosmo_dispersion_energy": -21.68, 
			 "cosmo_repulsion_energy": 1.72, 
			 "cosmo_total_nonelectrostatic_energy": 9.61, 
			 "SMD_solvation_energy": 2.36 
		},
		"coords": [
			{
				"x": -3.1650915048,
				"y": -1.5301231373,
				"z": 1.3007616697,
				"element": "C" 
			},
			{
				"x": -1.9295003517,
				"y": -1.0892062534,
				"z": 0.5780260636,
				"element": "C" 
			},
			{
				"x": -1.1463849687,
				"y": -0.1547066965,
				"z": 1.0981625683,
				"element": "N" 
			},
			{
				"x": -0.1205344096,
				"y": -0.0130247754,
				"z": 0.2040460744,
				"element": "N" 
			},
			{
				"x": -0.2608943426,
				"y": -0.8461670605,
				"z": -0.8902781085,
				"element": "C" 
			},
			{
				"x": 0.6701304904,
				"y": -0.8762293468,
				"z": -2.0626820179,
				"element": "C" 
			},
			{
				"x": -1.4222388194,
				"y": -1.550532064,
				"z": -0.6685404461,
				"element": "C" 
			},
			{
				"x": 0.8751903448,
				"y": 0.9548926017,
				"z": 0.4508206643,
				"element": "C" 
			},
			{
				"x": 2.2359793374,
				"y": 0.649271743,
				"z": 0.2757739925,
				"element": "C" 
			},
			{
				"x": 3.1478407556,
				"y": 1.6501803595,
				"z": 0.5401561214,
				"element": "C" 
			},
			{
				"x": 2.6190022813,
				"y": 2.8692889676,
				"z": 0.9831571147,
				"element": "C" 
			},
			{
				"x": 3.7010153192,
				"y": 4.1939201709,
				"z": 1.3484116095,
				"element": "Cl" 
			},
			{
				"x": 1.3271606523,
				"y": 3.1023456856,
				"z": 1.1560024938,
				"element": "N" 
			},
			{
				"x": 0.4437898718,
				"y": 2.1452705583,
				"z": 0.8756952385,
				"element": "N" 
			},
			{
				"x": -3.2722439761,
				"y": -0.9648828913,
				"z": 2.2287431408,
				"element": "H" 
			},
			{
				"x": -3.1256288783,
				"y": -2.5975463333,
				"z": 1.5451795613,
				"element": "H" 
			},
			{
				"x": -4.0602239267,
				"y": -1.3677065441,
				"z": 0.6901503072,
				"element": "H" 
			},
			{
				"x": 0.977990068,
				"y": 0.1287103681,
				"z": -2.3688495424,
				"element": "H" 
			},
			{
				"x": 0.163835604,
				"y": -1.3432034483,
				"z": -2.9104361059,
				"element": "H" 
			},
			{
				"x": 1.5792766411,
				"y": -1.4576398398,
				"z": -1.8674647241,
				"element": "H" 
			},
			{
				"x": -1.8557378396,
				"y": -2.2909659149,
				"z": -1.3258564861,
				"element": "H" 
			},
			{
				"x": 2.5533783757,
				"y": -0.3413370887,
				"z": -0.0272966738,
				"element": "H" 
			},
			{
				"x": 4.2168892758,
				"y": 1.5045909395,
				"z": 0.4385174849,
				"element": "H" 
			}
		],
		 "valence_orbital": [ 
			{
				"type": "occ",
				"energy": -0.29434,
				"method": "rhf"
			},
			{
				"type": "occ",
				"energy": -0.2857,
				"method": "rhf"
			},
			{
				"type": "occ",
				"energy": -0.25436,
				"method": "rhf"
			},
			{
				"type": "occ",
				"energy": -0.24413,
				"method": "rhf"
			},
			{
				"type": "occ",
				"energy": -0.23951,
				"method": "rhf"
			},
			{
				"type": "unocc",
				"energy": -0.06994,
				"method": "rhf"
			},
			{
				"type": "unocc",
				"energy": -0.05008,
				"method": "rhf"
			},
			{
				"type": "unocc",
				"energy": 0.01754,
				"method": "rhf"
			},
			{
				"type": "unocc",
				"energy": 0.02062,
				"method": "rhf"
			},
			{
				"type": "unocc",
				"energy": 0.06337,
				"method": "rhf"
			}
		],
		"cosmo_sigma_profile": { 
			"-0.025": 0.0,
			"-0.024": 0.0,
			"-0.023": 0.0,
			"-0.022": 0.0,
			"-0.021": 0.0,
			"-0.02": 0.0,
			"-0.019": 0.0,
			"-0.018": 0.0,
			"-0.017": 0.0,
			"-0.016": 0.0,
			"-0.015": 0.0,
			"-0.014": 0.0,
			"-0.013": 0.0,
			"-0.012": 0.0,
			"-0.011": 0.230616500983,
			"-0.01": 4.38913739004,
			"-0.009": 5.61813606304,
			"-0.008": 4.06036986609,
			"-0.007": 4.62070769297,
			"-0.006": 9.22757860454,
			"-0.005": 15.3104191651,
			"-0.004": 19.6477607366,
			"-0.003": 24.0531112073,
			"-0.002": 25.7723047466,
			"-0.001": 20.959237657,
			"0.0": 15.2271643685,
			"0.001": 10.7471582121,
			"0.002": 11.8471482693,
			"0.003": 15.3253025257,
			"0.004": 12.304116248,
			"0.005": 6.85794774566,
			"0.006": 3.88508529698,
			"0.007": 2.86455493715,
			"0.008": 3.01270956761,
			"0.009": 3.33268677144,
			"0.01": 3.24608317933,
			"0.011": 3.29712920467,
			"0.012": 3.16442025382,
			"0.013": 3.19014048491,
			"0.014": 2.70751965296,
			"0.015": 1.63436091944,
			"0.016": 2.1285955828,
			"0.017": 0.520702087479,
			"0.018": 0.0,
			"0.019": 0.0,
			"0.02": 0.0,
			"0.021": 0.0,
			"0.022": 0.0,
			"0.023": 0.0,
			"0.024": 0.0,
			"0.025": 0.0
		}
	}
}
