{
	 "smiles": "IC1=CNC(=O)NC1=O", 
	 "Tm": 548.15, 
	 "num_atms": 12, 
	 "gaussian": { 
		 "optdone": 1, 
		 "sigma_profile": "no", 
		 "theory": "DFT", 
		 "functional": "B3LYP", 
		 "basiset": "6-31G**", 
		 "properties": { 
			 "R2extent": 1664.0425, 
			 "electric_dipole_moment_norm": 3.90802938193, 
			 "electric_quadrupole_moment_norm": 11.229554415, 
			 "total_energy": -425.595325985, 
			 "HOMO_LUMO_gap": 0.18672, 
			 "cosmo_polarized_energy": -95312.07, 
			 "cosmo_cavitation_energy": 20.29, 
			 "cosmo_dispersion_energy": -16.79, 
			 "cosmo_repulsion_energy": 1.35, 
			 "cosmo_total_nonelectrostatic_energy": 4.85, 
			 "SMD_solvation_energy": 4.64 
		},
		"coords": [
			{
				"x": 2.0722813931,
				"y": -2.2792084754,
				"z": 1.6659293391,
				"element": "I" 
			},
			{
				"x": 1.6729953456,
				"y": -0.5272912193,
				"z": 0.595112901,
				"element": "C" 
			},
			{
				"x": 1.9980064434,
				"y": -0.4015382895,
				"z": -0.7125643787,
				"element": "C" 
			},
			{
				"x": 1.7357847856,
				"y": 0.7496128236,
				"z": -1.4159583822,
				"element": "N" 
			},
			{
				"x": 1.1236222485,
				"y": 1.8751909842,
				"z": -0.8658037853,
				"element": "C" 
			},
			{
				"x": 0.8999546686,
				"y": 2.8851167331,
				"z": -1.5039191935,
				"element": "O" 
			},
			{
				"x": 0.8069780934,
				"y": 1.7071277172,
				"z": 0.4729163225,
				"element": "N" 
			},
			{
				"x": 1.0207228874,
				"y": 0.5864970093,
				"z": 1.3019187287,
				"element": "C" 
			},
			{
				"x": 0.6774713869,
				"y": 0.607258647,
				"z": 2.4678848804,
				"element": "O" 
			},
			{
				"x": 2.4788939387,
				"y": -1.1936662802,
				"z": -1.2741005539,
				"element": "H" 
			},
			{
				"x": 1.9838318718,
				"y": 0.8298133502,
				"z": -2.391820458,
				"element": "H" 
			},
			{
				"x": 0.359556937,
				"y": 2.500487,
				"z": 0.9170045799,
				"element": "H" 
			}
		],
		 "valence_orbital": [ 
			{
				"type": "occ",
				"energy": -0.30503,
				"method": "rhf"
			},
			{
				"type": "occ",
				"energy": -0.2964,
				"method": "rhf"
			},
			{
				"type": "occ",
				"energy": -0.28109,
				"method": "rhf"
			},
			{
				"type": "occ",
				"energy": -0.27431,
				"method": "rhf"
			},
			{
				"type": "occ",
				"energy": -0.24405,
				"method": "rhf"
			},
			{
				"type": "unocc",
				"energy": -0.05733,
				"method": "rhf"
			},
			{
				"type": "unocc",
				"energy": -0.05072,
				"method": "rhf"
			},
			{
				"type": "unocc",
				"energy": -0.00177,
				"method": "rhf"
			},
			{
				"type": "unocc",
				"energy": 0.03751,
				"method": "rhf"
			},
			{
				"type": "unocc",
				"energy": 0.04551,
				"method": "rhf"
			}
		],
		"cosmo_sigma_profile": { 
			"0.0": 0.0,
			"0.0": 0.0,
			"0.0": 0.0,
			"0.0": 0.0,
			"0.0": 0.0,
			"0.0": 0.0,
			"0.0": 0.0,
			"0.0": 0.0,
			"0.0": 0.0,
			"0.0": 0.0,
			"0.0": 0.0,
			"0.0": 0.0,
			"0.0": 0.0,
			"0.0": 0.0,
			"0.0": 0.0,
			"0.0": 0.0,
			"0.0": 0.0,
			"0.0": 0.0,
			"0.0": 0.0,
			"0.0": 0.0,
			"0.0": 0.0,
			"0.0": 0.0,
			"0.0": 0.0,
			"0.0": 0.0,
			"0.0": 0.0,
			"0.0": 0.0,
			"0.0": 0.0,
			"0.0": 0.0,
			"0.0": 0.0,
			"0.0": 0.0,
			"0.0": 0.0,
			"0.0": 0.0,
			"0.0": 0.0,
			"0.0": 0.0,
			"0.0": 0.0,
			"0.0": 0.0,
			"0.0": 0.0,
			"0.0": 0.0,
			"0.0": 0.0,
			"0.0": 0.0,
			"0.0": 0.0,
			"0.0": 0.0,
			"0.0": 0.0,
			"0.0": 0.0,
			"0.0": 0.0,
			"0.0": 0.0,
			"0.0": 0.0,
			"0.0": 0.0,
			"0.0": 0.0,
			"0.0": 0.0,
			"0.0": 0.0
		}
	}
}
