{
	 "smiles": "CC(C)(C)OC(=O)N1OC1C1=CC=C(C=C1)C#N", 
	 "Tm": 333.15, 
	 "num_atms": 32, 
	 "gaussian": { 
		 "optdone": 1, 
		 "sigma_profile": "yes", 
		 "theory": "DFT", 
		 "functional": "B3LYP", 
		 "basiset": "6-31G**", 
		 "properties": { 
			 "R2extent": 5964.4685, 
			 "electric_dipole_moment_norm": 2.68985610396, 
			 "electric_quadrupole_moment_norm": 31.8651274859, 
			 "total_energy": -838.908781203, 
			 "HOMO_LUMO_gap": 0.19239, 
			 "cosmo_polarized_energy": -15.53, 
			 "cosmo_cavitation_energy": 37.4, 
			 "cosmo_dispersion_energy": -24.27, 
			 "cosmo_repulsion_energy": 1.88, 
			 "cosmo_total_nonelectrostatic_energy": 15.0, 
			 "SMD_solvation_energy": 6.49 
		},
		"coords": [
			{
				"x": 0.6385940706,
				"y": -2.6437413001,
				"z": -3.5304605612,
				"element": "C" 
			},
			{
				"x": 0.0466449102,
				"y": -2.1062248799,
				"z": -2.2251649155,
				"element": "C" 
			},
			{
				"x": 0.8487522315,
				"y": -2.5402927575,
				"z": -0.9957988658,
				"element": "C" 
			},
			{
				"x": -1.4273773474,
				"y": -2.4885885076,
				"z": -2.0880025269,
				"element": "C" 
			},
			{
				"x": -0.0161434688,
				"y": -0.6223073076,
				"z": -2.2884142641,
				"element": "O" 
			},
			{
				"x": 1.0885043598,
				"y": 0.1004505076,
				"z": -2.432486232,
				"element": "C" 
			},
			{
				"x": 2.2422373521,
				"y": -0.2662991557,
				"z": -2.4694472891,
				"element": "O" 
			},
			{
				"x": 0.7860931154,
				"y": 1.4753330311,
				"z": -2.7082596726,
				"element": "N" 
			},
			{
				"x": -0.3929534366,
				"y": 2.0227193759,
				"z": -1.9981498586,
				"element": "O" 
			},
			{
				"x": 0.9076839698,
				"y": 2.4393321371,
				"z": -1.6435478781,
				"element": "C" 
			},
			{
				"x": 1.4040591928,
				"y": 2.0872837199,
				"z": -0.2795197036,
				"element": "C" 
			},
			{
				"x": 2.6317329933,
				"y": 2.599773149,
				"z": 0.1567890583,
				"element": "C" 
			},
			{
				"x": 3.1159215335,
				"y": 2.2859819757,
				"z": 1.4220325405,
				"element": "C" 
			},
			{
				"x": 2.3608344634,
				"y": 1.4593264628,
				"z": 2.2709590609,
				"element": "C" 
			},
			{
				"x": 1.1226617339,
				"y": 0.9532875001,
				"z": 1.8391332504,
				"element": "C" 
			},
			{
				"x": 0.6495651934,
				"y": 1.2672926544,
				"z": 0.5697566786,
				"element": "C" 
			},
			{
				"x": 2.849141287,
				"y": 1.1386090738,
				"z": 3.5810177479,
				"element": "C" 
			},
			{
				"x": 3.2438695425,
				"y": 0.8780820071,
				"z": 4.6436818627,
				"element": "N" 
			},
			{
				"x": 0.5796175471,
				"y": -3.73665799,
				"z": -3.531569163,
				"element": "H" 
			},
			{
				"x": 1.6835812931,
				"y": -2.3517457357,
				"z": -3.6414891671,
				"element": "H" 
			},
			{
				"x": 0.0709734633,
				"y": -2.2718820818,
				"z": -4.3888116215,
				"element": "H" 
			},
			{
				"x": 0.7918416196,
				"y": -3.628545751,
				"z": -0.8932360301,
				"element": "H" 
			},
			{
				"x": 1.8963312516,
				"y": -2.2511490172,
				"z": -1.0837945766,
				"element": "H" 
			},
			{
				"x": 0.4322396734,
				"y": -2.0928290383,
				"z": -0.088283458,
				"element": "H" 
			},
			{
				"x": -1.525906682,
				"y": -3.5767481014,
				"z": -2.0353141477,
				"element": "H" 
			},
			{
				"x": -1.8570727297,
				"y": -2.0574285413,
				"z": -1.1793565329,
				"element": "H" 
			},
			{
				"x": -2.0020722448,
				"y": -2.1279569508,
				"z": -2.9454338392,
				"element": "H" 
			},
			{
				"x": 1.1965002758,
				"y": 3.431432022,
				"z": -1.9963870371,
				"element": "H" 
			},
			{
				"x": 3.213340415,
				"y": 3.2430996351,
				"z": -0.4974538463,
				"element": "H" 
			},
			{
				"x": 4.069138238,
				"y": 2.6768148327,
				"z": 1.7608778375,
				"element": "H" 
			},
			{
				"x": 0.5397249545,
				"y": 0.3254708656,
				"z": 2.504520934,
				"element": "H" 
			},
			{
				"x": -0.3078587713,
				"y": 0.8919081658,
				"z": 0.2263122163,
				"element": "H" 
			}
		],
		 "valence_orbital": [ 
			{
				"type": "occ",
				"energy": -0.3137,
				"method": "rhf"
			},
			{
				"type": "occ",
				"energy": -0.30187,
				"method": "rhf"
			},
			{
				"type": "occ",
				"energy": -0.28683,
				"method": "rhf"
			},
			{
				"type": "occ",
				"energy": -0.2776,
				"method": "rhf"
			},
			{
				"type": "occ",
				"energy": -0.2621,
				"method": "rhf"
			},
			{
				"type": "unocc",
				"energy": -0.06971,
				"method": "rhf"
			},
			{
				"type": "unocc",
				"energy": -0.03707,
				"method": "rhf"
			},
			{
				"type": "unocc",
				"energy": 0.00193,
				"method": "rhf"
			},
			{
				"type": "unocc",
				"energy": 0.02716,
				"method": "rhf"
			},
			{
				"type": "unocc",
				"energy": 0.02959,
				"method": "rhf"
			}
		],
		"cosmo_sigma_profile": { 
			"-0.025": 0.0,
			"-0.024": 0.0,
			"-0.023": 0.0,
			"-0.022": 0.0,
			"-0.021": 0.0,
			"-0.02": 0.0,
			"-0.019": 0.0,
			"-0.018": 0.0,
			"-0.017": 0.0,
			"-0.016": 0.0,
			"-0.015": 0.0,
			"-0.014": 0.0,
			"-0.013": 0.0,
			"-0.012": 0.0,
			"-0.011": 0.13617679815,
			"-0.01": 2.10457101204,
			"-0.009": 4.95118592845,
			"-0.008": 8.69086689274,
			"-0.007": 10.4871699641,
			"-0.006": 8.23261690972,
			"-0.005": 13.2844137556,
			"-0.004": 22.4732708909,
			"-0.003": 23.6566087446,
			"-0.002": 30.1127298506,
			"-0.001": 30.7641886937,
			"0.0": 35.221490535,
			"0.001": 23.4613248908,
			"0.002": 9.39758835188,
			"0.003": 7.91525884331,
			"0.004": 7.94228475587,
			"0.005": 7.14118471898,
			"0.006": 7.22457195794,
			"0.007": 9.15351312774,
			"0.008": 10.108019421,
			"0.009": 8.38895089665,
			"0.01": 7.04046173136,
			"0.011": 5.71796660143,
			"0.012": 2.94719506624,
			"0.013": 0.986865541247,
			"0.014": 0.0,
			"0.015": 0.0,
			"0.016": 0.0,
			"0.017": 0.0,
			"0.018": 0.0,
			"0.019": 0.0,
			"0.02": 0.0,
			"0.021": 0.0,
			"0.022": 0.0,
			"0.023": 0.0,
			"0.024": 0.0,
			"0.025": 0.0
		}
	}
}
