{
	 "smiles": "COC(=O)C1=CC=C(Cl)N=C1", 
	 "Tm": 359.15, 
	 "num_atms": 17, 
	 "gaussian": { 
		 "optdone": 1, 
		 "sigma_profile": "yes", 
		 "theory": "DFT", 
		 "functional": "B3LYP", 
		 "basiset": "6-31G**", 
		 "properties": { 
			 "R2extent": 4309.9335, 
			 "electric_dipole_moment_norm": 4.24496725429, 
			 "electric_quadrupole_moment_norm": 9.0492537405, 
			 "total_energy": -935.757068532, 
			 "HOMO_LUMO_gap": 0.20305, 
			 "cosmo_polarized_energy": -9.14, 
			 "cosmo_cavitation_energy": 24.0, 
			 "cosmo_dispersion_energy": -17.92, 
			 "cosmo_repulsion_energy": 1.44, 
			 "cosmo_total_nonelectrostatic_energy": 7.53, 
			 "SMD_solvation_energy": 4.16 
		},
		"coords": [
			{
				"x": 2.1532907002,
				"y": -0.42462608,
				"z": -0.5533452957,
				"element": "C" 
			},
			{
				"x": 0.7957873012,
				"y": -0.8646973578,
				"z": -0.3765111781,
				"element": "O" 
			},
			{
				"x": 0.1518727706,
				"y": -0.3316867106,
				"z": 0.6848809191,
				"element": "C" 
			},
			{
				"x": 0.6602216787,
				"y": 0.4634969371,
				"z": 1.4495586784,
				"element": "O" 
			},
			{
				"x": -1.2447214855,
				"y": -0.8329882703,
				"z": 0.8026337307,
				"element": "C" 
			},
			{
				"x": -1.8142987454,
				"y": -1.7515213209,
				"z": -0.0897899641,
				"element": "C" 
			},
			{
				"x": -3.1279231475,
				"y": -2.158108423,
				"z": 0.1064020036,
				"element": "C" 
			},
			{
				"x": -3.810947038,
				"y": -1.6159847476,
				"z": 1.2007228219,
				"element": "C" 
			},
			{
				"x": -5.4753542351,
				"y": -2.1098898011,
				"z": 1.4773567986,
				"element": "Cl" 
			},
			{
				"x": -3.3003162532,
				"y": -0.748641665,
				"z": 2.0585108696,
				"element": "N" 
			},
			{
				"x": -2.0343754713,
				"y": -0.3649646642,
				"z": 1.8587637747,
				"element": "C" 
			},
			{
				"x": 2.5167504778,
				"y": -0.9433861857,
				"z": -1.4399794596,
				"element": "H" 
			},
			{
				"x": 2.7568017247,
				"y": -0.6843099027,
				"z": 0.3196914678,
				"element": "H" 
			},
			{
				"x": 2.1890992441,
				"y": 0.6577678238,
				"z": -0.698236843,
				"element": "H" 
			},
			{
				"x": -1.2326193874,
				"y": -2.1358829309,
				"z": -0.91997143,
				"element": "H" 
			},
			{
				"x": -3.6135153309,
				"y": -2.8655155529,
				"z": -0.5547143437,
				"element": "H" 
			},
			{
				"x": -1.6174528029,
				"y": 0.3475388519,
				"z": 2.5648274499,
				"element": "H" 
			}
		],
		 "valence_orbital": [ 
			{
				"type": "occ",
				"energy": -0.31589,
				"method": "rhf"
			},
			{
				"type": "occ",
				"energy": -0.3088,
				"method": "rhf"
			},
			{
				"type": "occ",
				"energy": -0.29347,
				"method": "rhf"
			},
			{
				"type": "occ",
				"energy": -0.27896,
				"method": "rhf"
			},
			{
				"type": "occ",
				"energy": -0.26952,
				"method": "rhf"
			},
			{
				"type": "unocc",
				"energy": -0.06647,
				"method": "rhf"
			},
			{
				"type": "unocc",
				"energy": -0.04341,
				"method": "rhf"
			},
			{
				"type": "unocc",
				"energy": 0.02803,
				"method": "rhf"
			},
			{
				"type": "unocc",
				"energy": 0.03471,
				"method": "rhf"
			},
			{
				"type": "unocc",
				"energy": 0.09656,
				"method": "rhf"
			}
		],
		"cosmo_sigma_profile": { 
			"-0.025": 0.0,
			"-0.024": 0.0,
			"-0.023": 0.0,
			"-0.022": 0.0,
			"-0.021": 0.0,
			"-0.02": 0.0,
			"-0.019": 0.0,
			"-0.018": 0.0,
			"-0.017": 0.0,
			"-0.016": 0.0,
			"-0.015": 0.0,
			"-0.014": 0.0,
			"-0.013": 0.0,
			"-0.012": 0.0,
			"-0.011": 0.0,
			"-0.01": 0.0,
			"-0.009": 1.31824108399,
			"-0.008": 3.64005743602,
			"-0.007": 6.65510429422,
			"-0.006": 9.27484931871,
			"-0.005": 11.5951768123,
			"-0.004": 14.0246703925,
			"-0.003": 16.0076939062,
			"-0.002": 20.358187751,
			"-0.001": 23.3060065963,
			"0.0": 14.7944040117,
			"0.001": 10.4911130944,
			"0.002": 9.66424195836,
			"0.003": 11.3672638275,
			"0.004": 12.1929067305,
			"0.005": 6.93262733427,
			"0.006": 2.8213293374,
			"0.007": 3.09041463494,
			"0.008": 2.84071370529,
			"0.009": 2.28760662806,
			"0.01": 3.52445796214,
			"0.011": 4.96831820312,
			"0.012": 2.96343971065,
			"0.013": 0.611633275779,
			"0.014": 0.486877103482,
			"0.015": 0.0,
			"0.016": 0.0,
			"0.017": 0.0,
			"0.018": 0.0,
			"0.019": 0.0,
			"0.02": 0.0,
			"0.021": 0.0,
			"0.022": 0.0,
			"0.023": 0.0,
			"0.024": 0.0,
			"0.025": 0.0
		}
	}
}
