{
	 "smiles": "CC1=CC(NC2=NC(=O)CS2)=CC=C1", 
	 "Tm": 434.15, 
	 "num_atms": 24, 
	 "gaussian": { 
		 "optdone": 1, 
		 "sigma_profile": "yes", 
		 "theory": "DFT", 
		 "functional": "B3LYP", 
		 "basiset": "6-31G**", 
		 "properties": { 
			 "R2extent": 4310.6512, 
			 "electric_dipole_moment_norm": 5.80511817192, 
			 "electric_quadrupole_moment_norm": 25.0586665725, 
			 "total_energy": -970.020581372, 
			 "HOMO_LUMO_gap": 0.19445, 
			 "cosmo_polarized_energy": -15.93, 
			 "cosmo_cavitation_energy": 29.78, 
			 "cosmo_dispersion_energy": -22.24, 
			 "cosmo_repulsion_energy": 1.72, 
			 "cosmo_total_nonelectrostatic_energy": 9.26, 
			 "SMD_solvation_energy": 3.94 
		},
		"coords": [
			{
				"x": 0.0339877816,
				"y": 1.7605745173,
				"z": -2.9429656717,
				"element": "C" 
			},
			{
				"x": 0.7778768149,
				"y": 0.6671932268,
				"z": -2.2130105146,
				"element": "C" 
			},
			{
				"x": 0.3967779047,
				"y": 0.2977680815,
				"z": -0.9166635481,
				"element": "C" 
			},
			{
				"x": 1.1056331411,
				"y": -0.6851359046,
				"z": -0.2174020353,
				"element": "C" 
			},
			{
				"x": 0.728295563,
				"y": -1.0893409634,
				"z": 1.0901128142,
				"element": "N" 
			},
			{
				"x": 0.3970737548,
				"y": -0.3438803735,
				"z": 2.1693250477,
				"element": "C" 
			},
			{
				"x": 0.1061801859,
				"y": -0.9199480885,
				"z": 3.2990847798,
				"element": "N" 
			},
			{
				"x": -0.1677360521,
				"y": -0.0094046536,
				"z": 4.3111616361,
				"element": "C" 
			},
			{
				"x": -0.4612899471,
				"y": -0.2901980146,
				"z": 5.4533821073,
				"element": "O" 
			},
			{
				"x": -0.0590682186,
				"y": 1.4717706127,
				"z": 3.8549876069,
				"element": "C" 
			},
			{
				"x": 0.3923829593,
				"y": 1.4511616398,
				"z": 2.0895185797,
				"element": "S" 
			},
			{
				"x": 2.1812078947,
				"y": -1.3420937725,
				"z": -0.8280901295,
				"element": "C" 
			},
			{
				"x": 2.5449612178,
				"y": -0.9971740707,
				"z": -2.1269901877,
				"element": "C" 
			},
			{
				"x": 1.8565479677,
				"y": 0.0050140877,
				"z": -2.8120094114,
				"element": "C" 
			},
			{
				"x": 0.4554705953,
				"y": 2.7456683251,
				"z": -2.7077581535,
				"element": "H" 
			},
			{
				"x": 0.0941130529,
				"y": 1.6295517236,
				"z": -4.0271023785,
				"element": "H" 
			},
			{
				"x": -1.0227336788,
				"y": 1.7845443138,
				"z": -2.6607658951,
				"element": "H" 
			},
			{
				"x": -0.4698604507,
				"y": 0.7633332091,
				"z": -0.4596545023,
				"element": "H" 
			},
			{
				"x": 0.8167489452,
				"y": -2.0730909088,
				"z": 1.3150052489,
				"element": "H" 
			},
			{
				"x": 0.7068059259,
				"y": 1.9817305,
				"z": 4.4431178801,
				"element": "H" 
			},
			{
				"x": -1.0152981406,
				"y": 1.9772531385,
				"z": 4.0032776177,
				"element": "H" 
			},
			{
				"x": 2.7270678905,
				"y": -2.1070077101,
				"z": -0.2832584862,
				"element": "H" 
			},
			{
				"x": 3.3754365882,
				"y": -1.5084959437,
				"z": -2.6046500004,
				"element": "H" 
			},
			{
				"x": 2.1531183046,
				"y": 0.2696070282,
				"z": -3.8232524043,
				"element": "H" 
			}
		],
		 "valence_orbital": [ 
			{
				"type": "occ",
				"energy": -0.28385,
				"method": "rhf"
			},
			{
				"type": "occ",
				"energy": -0.2611,
				"method": "rhf"
			},
			{
				"type": "occ",
				"energy": -0.25234,
				"method": "rhf"
			},
			{
				"type": "occ",
				"energy": -0.24768,
				"method": "rhf"
			},
			{
				"type": "occ",
				"energy": -0.23629,
				"method": "rhf"
			},
			{
				"type": "unocc",
				"energy": -0.04184,
				"method": "rhf"
			},
			{
				"type": "unocc",
				"energy": -0.02269,
				"method": "rhf"
			},
			{
				"type": "unocc",
				"energy": -0.00359,
				"method": "rhf"
			},
			{
				"type": "unocc",
				"energy": 0.01289,
				"method": "rhf"
			},
			{
				"type": "unocc",
				"energy": 0.05618,
				"method": "rhf"
			}
		],
		"cosmo_sigma_profile": { 
			"-0.025": 0.0,
			"-0.024": 0.0,
			"-0.023": 0.0,
			"-0.022": 0.0,
			"-0.021": 0.0,
			"-0.02": 0.0,
			"-0.019": 0.0,
			"-0.018": 0.0,
			"-0.017": 0.0,
			"-0.016": 0.484120081372,
			"-0.015": 1.13641343038,
			"-0.014": 0.943399692308,
			"-0.013": 0.724359005603,
			"-0.012": 1.2429686265,
			"-0.011": 1.12855656008,
			"-0.01": 0.911878549407,
			"-0.009": 1.99740243382,
			"-0.008": 4.99566755095,
			"-0.007": 7.07523052357,
			"-0.006": 11.1214496149,
			"-0.005": 17.2121296159,
			"-0.004": 21.3559307826,
			"-0.003": 15.4882925054,
			"-0.002": 17.2871280527,
			"-0.001": 21.1846339241,
			"0.0": 18.4973309611,
			"0.001": 14.730020989,
			"0.002": 13.396089928,
			"0.003": 13.5657950993,
			"0.004": 13.9382803666,
			"0.005": 9.70254645809,
			"0.006": 3.70169779615,
			"0.007": 1.41609249492,
			"0.008": 1.47863599791,
			"0.009": 2.01215262501,
			"0.01": 2.95756131776,
			"0.011": 3.44972251963,
			"0.012": 5.84051520915,
			"0.013": 6.53487959685,
			"0.014": 3.62741752353,
			"0.015": 0.416832558316,
			"0.016": 0.0,
			"0.017": 0.0,
			"0.018": 0.0,
			"0.019": 0.0,
			"0.02": 0.0,
			"0.021": 0.0,
			"0.022": 0.0,
			"0.023": 0.0,
			"0.024": 0.0,
			"0.0": 0.0
		}
	}
}
