{
	 "smiles": "CC1=CC(C2=NC(=NO2)C(O)=O)=C(F)C=C1", 
	 "Tm": 381.15, 
	 "num_atms": 23, 
	 "gaussian": { 
		 "optdone": 1, 
		 "sigma_profile": "yes", 
		 "theory": "DFT", 
		 "functional": "B3LYP", 
		 "basiset": "6-31G**", 
		 "properties": { 
			 "R2extent": 5983.8821, 
			 "electric_dipole_moment_norm": 8.56617153751, 
			 "electric_quadrupole_moment_norm": 23.0354991745, 
			 "total_energy": -820.261251688, 
			 "HOMO_LUMO_gap": 0.17885, 
			 "cosmo_polarized_energy": -14.54, 
			 "cosmo_cavitation_energy": 29.63, 
			 "cosmo_dispersion_energy": -21.65, 
			 "cosmo_repulsion_energy": 1.66, 
			 "cosmo_total_nonelectrostatic_energy": 9.64, 
			 "SMD_solvation_energy": 5.7 
		},
		"coords": [
			{
				"x": -1.8272988101,
				"y": -2.3373582792,
				"z": 1.4588550685,
				"element": "C" 
			},
			{
				"x": -0.3290139252,
				"y": -2.3931723582,
				"z": 1.2760125474,
				"element": "C" 
			},
			{
				"x": 0.3818041219,
				"y": -1.2986296045,
				"z": 0.7909757517,
				"element": "C" 
			},
			{
				"x": 1.779456001,
				"y": -1.3359953003,
				"z": 0.6146159084,
				"element": "C" 
			},
			{
				"x": 2.4504833832,
				"y": -0.1483862041,
				"z": 0.1019467136,
				"element": "C" 
			},
			{
				"x": 1.8959321798,
				"y": 0.9922075961,
				"z": -0.2303367586,
				"element": "N" 
			},
			{
				"x": 2.9714134084,
				"y": 1.7388143651,
				"z": -0.639429644,
				"element": "C" 
			},
			{
				"x": 4.1288536237,
				"y": 1.1290215014,
				"z": -0.5766666836,
				"element": "N" 
			},
			{
				"x": 3.7866221254,
				"y": -0.1319090092,
				"z": -0.0821237512,
				"element": "O" 
			},
			{
				"x": 2.7981092824,
				"y": 3.1521600073,
				"z": -1.1195275534,
				"element": "C" 
			},
			{
				"x": 1.5114581204,
				"y": 3.5515310514,
				"z": -1.0906108429,
				"element": "O" 
			},
			{
				"x": 3.701413918,
				"y": 3.8549496132,
				"z": -1.4898444295,
				"element": "O" 
			},
			{
				"x": 2.452922375,
				"y": -2.5196605685,
				"z": 0.9434771797,
				"element": "C" 
			},
			{
				"x": 3.7832709113,
				"y": -2.6036980838,
				"z": 0.7928230325,
				"element": "F" 
			},
			{
				"x": 1.7689704028,
				"y": -3.6277026825,
				"z": 1.4298479724,
				"element": "C" 
			},
			{
				"x": 0.3892799731,
				"y": -3.5597999243,
				"z": 1.5929502973,
				"element": "C" 
			},
			{
				"x": -2.3298814649,
				"y": -3.0989439296,
				"z": 0.8522843664,
				"element": "H" 
			},
			{
				"x": -2.2281578615,
				"y": -1.3625752402,
				"z": 1.170182708,
				"element": "H" 
			},
			{
				"x": -2.1069642608,
				"y": -2.5186898142,
				"z": 2.5025739866,
				"element": "H" 
			},
			{
				"x": -0.1366175301,
				"y": -0.3805758941,
				"z": 0.5353732509,
				"element": "H" 
			},
			{
				"x": 0.9653525257,
				"y": 2.817069193,
				"z": -0.75652736,
				"element": "H" 
			},
			{
				"x": 2.3305583001,
				"y": -4.5231993575,
				"z": 1.671708797,
				"element": "H" 
			},
			{
				"x": -0.1412667994,
				"y": -4.4285570772,
				"z": 1.9735394431,
				"element": "H" 
			}
		],
		 "valence_orbital": [ 
			{
				"type": "occ",
				"energy": -0.32841,
				"method": "rhf"
			},
			{
				"type": "occ",
				"energy": -0.31988,
				"method": "rhf"
			},
			{
				"type": "occ",
				"energy": -0.28553,
				"method": "rhf"
			},
			{
				"type": "occ",
				"energy": -0.27835,
				"method": "rhf"
			},
			{
				"type": "occ",
				"energy": -0.26343,
				"method": "rhf"
			},
			{
				"type": "unocc",
				"energy": -0.08458,
				"method": "rhf"
			},
			{
				"type": "unocc",
				"energy": -0.05485,
				"method": "rhf"
			},
			{
				"type": "unocc",
				"energy": -0.02569,
				"method": "rhf"
			},
			{
				"type": "unocc",
				"energy": 0.01963,
				"method": "rhf"
			},
			{
				"type": "unocc",
				"energy": 0.06626,
				"method": "rhf"
			}
		],
		"cosmo_sigma_profile": { 
			"-0.025": 0.0,
			"-0.024": 0.0,
			"-0.023": 0.0,
			"-0.022": 0.0,
			"-0.021": 0.0,
			"-0.02": 0.0,
			"-0.019": 0.0,
			"-0.018": 0.0,
			"-0.017": 0.0,
			"-0.016": 0.22029488536,
			"-0.015": 0.351560561803,
			"-0.014": 0.630378077021,
			"-0.013": 0.510370243206,
			"-0.012": 1.23242888833,
			"-0.011": 0.525884126192,
			"-0.01": 0.658785827041,
			"-0.009": 1.30378652055,
			"-0.008": 4.30926736389,
			"-0.007": 8.17014265333,
			"-0.006": 12.0437097602,
			"-0.005": 15.9071707423,
			"-0.004": 17.6174083024,
			"-0.003": 15.5750872808,
			"-0.002": 18.2962404472,
			"-0.001": 21.5119125566,
			"0.0": 20.8416093966,
			"0.001": 17.0236331691,
			"0.002": 15.1683166162,
			"0.003": 12.7781344793,
			"0.004": 9.29333146588,
			"0.005": 7.82787375887,
			"0.006": 6.27917787562,
			"0.007": 4.12473239322,
			"0.008": 6.19131315479,
			"0.009": 7.43016419444,
			"0.01": 7.24486424489,
			"0.011": 5.15858010568,
			"0.012": 0.651147579221,
			"0.013": 0.0,
			"0.014": 0.0,
			"0.015": 0.0,
			"0.016": 0.0,
			"0.017": 0.0,
			"0.018": 0.0,
			"0.019": 0.0,
			"0.02": 0.0,
			"0.021": 0.0,
			"0.022": 0.0,
			"0.023": 0.0,
			"0.024": 0.0,
			"0.025": 0.0
		}
	}
}
