{
	 "smiles": "CC1=CC(C=CC(O)=O)=C(C)N1C1=CC2=C(OCO2)C=C1", 
	 "Tm": 468.15, 
	 "num_atms": 36, 
	 "gaussian": { 
		 "optdone": 1, 
		 "sigma_profile": "yes", 
		 "theory": "DFT", 
		 "functional": "B3LYP", 
		 "basiset": "6-31G**", 
		 "properties": { 
			 "R2extent": 9045.9153, 
			 "electric_dipole_moment_norm": 10.1447571213, 
			 "electric_quadrupole_moment_norm": 41.5138783434, 
			 "total_energy": -974.357064052, 
			 "HOMO_LUMO_gap": 0.16602, 
			 "cosmo_polarized_energy": -18.32, 
			 "cosmo_cavitation_energy": 40.37, 
			 "cosmo_dispersion_energy": -28.1, 
			 "cosmo_repulsion_energy": 2.17, 
			 "cosmo_total_nonelectrostatic_energy": 14.44, 
			 "SMD_solvation_energy": 8.92 
		},
		"coords": [
			{
				"x": 2.5743910091,
				"y": -0.6574853058,
				"z": 2.2548213237,
				"element": "C" 
			},
			{
				"x": 1.2114388224,
				"y": -1.1237581413,
				"z": 1.8573924575,
				"element": "C" 
			},
			{
				"x": 0.480501,
				"y": -2.2026856581,
				"z": 2.2891298205,
				"element": "C" 
			},
			{
				"x": -0.7918638501,
				"y": -2.1889020397,
				"z": 1.614392575,
				"element": "C" 
			},
			{
				"x": -1.9299409005,
				"y": -3.0861653577,
				"z": 1.768435914,
				"element": "C" 
			},
			{
				"x": -1.9997997911,
				"y": -4.3885872717,
				"z": 2.125504364,
				"element": "C" 
			},
			{
				"x": -0.9311441998,
				"y": -5.3902896657,
				"z": 2.3724625298,
				"element": "C" 
			},
			{
				"x": 0.3187712911,
				"y": -5.1451455117,
				"z": 1.8950612872,
				"element": "O" 
			},
			{
				"x": -1.1580554235,
				"y": -6.4360652437,
				"z": 2.9425124488,
				"element": "O" 
			},
			{
				"x": -0.7913916316,
				"y": -1.0677378982,
				"z": 0.7836577034,
				"element": "C" 
			},
			{
				"x": -1.8268295304,
				"y": -0.562762808,
				"z": -0.1685890774,
				"element": "C" 
			},
			{
				"x": 0.4304848499,
				"y": -0.4372646554,
				"z": 0.9296437383,
				"element": "N" 
			},
			{
				"x": 0.8362952364,
				"y": 0.7455948921,
				"z": 0.2300738777,
				"element": "C" 
			},
			{
				"x": 0.5151000283,
				"y": 2.0057315068,
				"z": 0.7783323344,
				"element": "C" 
			},
			{
				"x": 0.932602808,
				"y": 3.1125299107,
				"z": 0.0678173635,
				"element": "C" 
			},
			{
				"x": 1.6378206936,
				"y": 3.0002665788,
				"z": -1.1308198244,
				"element": "C" 
			},
			{
				"x": 1.9143536975,
				"y": 4.2486994786,
				"z": -1.6223261221,
				"element": "O" 
			},
			{
				"x": 1.426614611,
				"y": 5.1791307677,
				"z": -0.646035457,
				"element": "C" 
			},
			{
				"x": 0.7417980864,
				"y": 4.4347841601,
				"z": 0.3713043537,
				"element": "O" 
			},
			{
				"x": 1.9585471462,
				"y": 1.7733404384,
				"z": -1.6771842263,
				"element": "C" 
			},
			{
				"x": 1.5411058208,
				"y": 0.6318380421,
				"z": -0.9689374813,
				"element": "C" 
			},
			{
				"x": 2.9919813554,
				"y": -1.346189275,
				"z": 2.9925121386,
				"element": "H" 
			},
			{
				"x": 2.555454287,
				"y": 0.3443383945,
				"z": 2.6999303073,
				"element": "H" 
			},
			{
				"x": 3.2626198415,
				"y": -0.6178237637,
				"z": 1.4024714962,
				"element": "H" 
			},
			{
				"x": 0.7971534584,
				"y": -2.8960227057,
				"z": 3.0548037016,
				"element": "H" 
			},
			{
				"x": -2.8946683286,
				"y": -2.61596897,
				"z": 1.5791501694,
				"element": "H" 
			},
			{
				"x": -2.9838502779,
				"y": -4.8255512069,
				"z": 2.2627563154,
				"element": "H" 
			},
			{
				"x": 0.3478771247,
				"y": -4.2868141427,
				"z": 1.4427375633,
				"element": "H" 
			},
			{
				"x": -2.75279108,
				"y": -1.1298516646,
				"z": -0.0559071823,
				"element": "H" 
			},
			{
				"x": -2.0537279462,
				"y": 0.4959637845,
				"z": -0.0020321545,
				"element": "H" 
			},
			{
				"x": -1.5073210297,
				"y": -0.6624461633,
				"z": -1.2132556034,
				"element": "H" 
			},
			{
				"x": -0.0303911622,
				"y": 2.09086011,
				"z": 1.7106735103,
				"element": "H" 
			},
			{
				"x": 0.7274616705,
				"y": 5.8747249542,
				"z": -1.1219835447,
				"element": "H" 
			},
			{
				"x": 2.2718339878,
				"y": 5.7181159137,
				"z": -0.1990233971,
				"element": "H" 
			},
			{
				"x": 2.5054421265,
				"y": 1.6963235932,
				"z": -2.6096185451,
				"element": "H" 
			},
			{
				"x": 1.7671261992,
				"y": -0.3566250768,
				"z": -1.3541646783,
				"element": "H" 
			}
		],
		 "valence_orbital": [ 
			{
				"type": "occ",
				"energy": -0.272,
				"method": "rhf"
			},
			{
				"type": "occ",
				"energy": -0.24835,
				"method": "rhf"
			},
			{
				"type": "occ",
				"energy": -0.23746,
				"method": "rhf"
			},
			{
				"type": "occ",
				"energy": -0.23017,
				"method": "rhf"
			},
			{
				"type": "occ",
				"energy": -0.20598,
				"method": "rhf"
			},
			{
				"type": "unocc",
				"energy": -0.03996,
				"method": "rhf"
			},
			{
				"type": "unocc",
				"energy": -0.02711,
				"method": "rhf"
			},
			{
				"type": "unocc",
				"energy": -0.01719,
				"method": "rhf"
			},
			{
				"type": "unocc",
				"energy": 0.02003,
				"method": "rhf"
			},
			{
				"type": "unocc",
				"energy": 0.07336,
				"method": "rhf"
			}
		],
		"cosmo_sigma_profile": { 
			"-0.025": 0.0,
			"-0.024": 0.0,
			"-0.023": 0.0,
			"-0.022": 0.0,
			"-0.021": 0.0,
			"-0.02": 0.0,
			"-0.019": 0.0,
			"-0.018": 0.0,
			"-0.017": 0.0,
			"-0.016": 0.0,
			"-0.015": 0.0,
			"-0.014": 0.0,
			"-0.013": 0.0,
			"-0.012": 0.0175002302012,
			"-0.011": 0.263700306091,
			"-0.01": 0.537284058015,
			"-0.009": 0.950543376978,
			"-0.008": 6.98839980237,
			"-0.007": 15.2179284439,
			"-0.006": 16.2353083228,
			"-0.005": 19.6611022734,
			"-0.004": 24.7976562389,
			"-0.003": 26.9606185394,
			"-0.002": 27.0280297204,
			"-0.001": 31.9999967453,
			"0.0": 24.4302476748,
			"0.001": 21.8824621478,
			"0.002": 23.4186167734,
			"0.003": 18.4483633191,
			"0.004": 10.9134861617,
			"0.005": 7.84963646896,
			"0.006": 5.94272132976,
			"0.007": 6.05991114395,
			"0.008": 4.54269493932,
			"0.009": 5.61047926875,
			"0.01": 3.85686972041,
			"0.011": 4.94579144109,
			"0.012": 5.43069217791,
			"0.013": 5.65294164015,
			"0.014": 2.29949187747,
			"0.015": 0.0711849496023,
			"0.016": 0.0,
			"0.017": 0.0,
			"0.018": 0.0,
			"0.019": 0.0,
			"0.02": 0.0,
			"0.021": 0.0,
			"0.022": 0.0,
			"0.023": 0.0,
			"0.024": 0.0,
			"0.025": 0.0
		}
	}
}
