{
	 "smiles": "CC(C)C1CCC(C)CC1", 
	 "Tm": 185.05, 
	 "num_atms": 30, 
	 "gaussian": { 
		 "optdone": 1, 
		 "sigma_profile": "yes", 
		 "theory": "DFT", 
		 "functional": "B3LYP", 
		 "basiset": "6-31G**", 
		 "properties": { 
			 "R2extent": 2034.5066, 
			 "electric_dipole_moment_norm": 0.0942466975549, 
			 "electric_quadrupole_moment_norm": 0.847947138683, 
			 "total_energy": -393.14498874, 
			 "HOMO_LUMO_gap": 0.3588, 
			 "cosmo_polarized_energy": -0.71, 
			 "cosmo_cavitation_energy": 28.29, 
			 "cosmo_dispersion_energy": -20.47, 
			 "cosmo_repulsion_energy": 1.65, 
			 "cosmo_total_nonelectrostatic_energy": 9.47, 
			 "SMD_solvation_energy": 4.2 
		},
		"coords": [
			{
				"x": 2.4400766346,
				"y": 0.6993530753,
				"z": -2.008832379,
				"element": "C" 
			},
			{
				"x": 2.1023400359,
				"y": 0.8987633599,
				"z": -0.5218464071,
				"element": "C" 
			},
			{
				"x": 3.2298972434,
				"y": 0.3402452605,
				"z": 0.3614107048,
				"element": "C" 
			},
			{
				"x": 0.7151624852,
				"y": 0.3331278492,
				"z": -0.1143634966,
				"element": "C" 
			},
			{
				"x": -0.4498043581,
				"y": 1.2243676016,
				"z": -0.621638729,
				"element": "C" 
			},
			{
				"x": -1.7978482711,
				"y": 0.471739841,
				"z": -0.7070352725,
				"element": "C" 
			},
			{
				"x": -1.909128875,
				"y": -0.617132119,
				"z": 0.3718046679,
				"element": "C" 
			},
			{
				"x": -3.3052865705,
				"y": -1.2457633667,
				"z": 0.4290580214,
				"element": "C" 
			},
			{
				"x": -0.8102079659,
				"y": -1.6891360526,
				"z": 0.1487142334,
				"element": "C" 
			},
			{
				"x": 0.4620063724,
				"y": -1.127365423,
				"z": -0.5287693408,
				"element": "C" 
			},
			{
				"x": 2.5889961402,
				"y": -0.359887848,
				"z": -2.2460886213,
				"element": "H" 
			},
			{
				"x": 1.6536239636,
				"y": 1.0803365852,
				"z": -2.668462093,
				"element": "H" 
			},
			{
				"x": 3.366235234,
				"y": 1.2248864867,
				"z": -2.2655518217,
				"element": "H" 
			},
			{
				"x": 2.0564677671,
				"y": 1.9831364569,
				"z": -0.3383685997,
				"element": "H" 
			},
			{
				"x": 3.3435815153,
				"y": -0.742425214,
				"z": 0.2333723828,
				"element": "H" 
			},
			{
				"x": 3.0371567168,
				"y": 0.5313298034,
				"z": 1.4229230662,
				"element": "H" 
			},
			{
				"x": 4.191523884,
				"y": 0.800231617,
				"z": 0.108437034,
				"element": "H" 
			},
			{
				"x": 0.6896241337,
				"y": 0.3588824423,
				"z": 0.985404149,
				"element": "H" 
			},
			{
				"x": -0.2053972922,
				"y": 1.6348352942,
				"z": -1.6089853124,
				"element": "H" 
			},
			{
				"x": -0.547701685,
				"y": 2.0877863757,
				"z": 0.0485228748,
				"element": "H" 
			},
			{
				"x": -2.6297244518,
				"y": 1.1815319608,
				"z": -0.6225112222,
				"element": "H" 
			},
			{
				"x": -1.9042419078,
				"y": -0.0017902775,
				"z": -1.6930960369,
				"element": "H" 
			},
			{
				"x": -1.7232203885,
				"y": -0.1338961935,
				"z": 1.3424231536,
				"element": "H" 
			},
			{
				"x": -3.3566923104,
				"y": -2.0340361827,
				"z": 1.1888207078,
				"element": "H" 
			},
			{
				"x": -3.5698741579,
				"y": -1.69824424,
				"z": -0.5346412649,
				"element": "H" 
			},
			{
				"x": -4.0715681215,
				"y": -0.5000296815,
				"z": 0.6687096211,
				"element": "H" 
			},
			{
				"x": -0.5516046856,
				"y": -2.1416053769,
				"z": 1.1143639984,
				"element": "H" 
			},
			{
				"x": -1.2162813072,
				"y": -2.5015371418,
				"z": -0.4683897254,
				"element": "H" 
			},
			{
				"x": 0.3494872894,
				"y": -1.175728801,
				"z": -1.6192144869,
				"element": "H" 
			},
			{
				"x": 1.3207029328,
				"y": -1.7628760917,
				"z": -0.2844698059,
				"element": "H" 
			}
		],
		 "valence_orbital": [ 
			{
				"type": "occ",
				"energy": -0.32119,
				"method": "rhf"
			},
			{
				"type": "occ",
				"energy": -0.31681,
				"method": "rhf"
			},
			{
				"type": "occ",
				"energy": -0.28652,
				"method": "rhf"
			},
			{
				"type": "occ",
				"energy": -0.2857,
				"method": "rhf"
			},
			{
				"type": "occ",
				"energy": -0.28225,
				"method": "rhf"
			},
			{
				"type": "unocc",
				"energy": 0.07655,
				"method": "rhf"
			},
			{
				"type": "unocc",
				"energy": 0.0989,
				"method": "rhf"
			},
			{
				"type": "unocc",
				"energy": 0.10214,
				"method": "rhf"
			},
			{
				"type": "unocc",
				"energy": 0.11832,
				"method": "rhf"
			},
			{
				"type": "unocc",
				"energy": 0.13466,
				"method": "rhf"
			}
		],
		"cosmo_sigma_profile": { 
			"-0.025": 0.0,
			"-0.024": 0.0,
			"-0.023": 0.0,
			"-0.022": 0.0,
			"-0.021": 0.0,
			"-0.02": 0.0,
			"-0.019": 0.0,
			"-0.018": 0.0,
			"-0.017": 0.0,
			"-0.016": 0.0,
			"-0.015": 0.0,
			"-0.014": 0.0,
			"-0.013": 0.0,
			"-0.012": 0.0,
			"-0.011": 0.0,
			"-0.01": 0.0,
			"-0.009": 0.0,
			"-0.008": 0.0,
			"-0.007": 0.0,
			"-0.006": 0.0,
			"-0.005": 0.0,
			"-0.004": 0.0,
			"-0.003": 3.52006722544,
			"-0.002": 24.6417989246,
			"-0.001": 49.9007246979,
			"0.0": 61.0523244433,
			"0.001": 43.5873257746,
			"0.002": 30.7609673258,
			"0.003": 2.15222990122,
			"0.004": 0.0,
			"0.005": 0.0,
			"0.006": 0.0,
			"0.007": 0.0,
			"0.008": 0.0,
			"0.009": 0.0,
			"0.01": 0.0,
			"0.011": 0.0,
			"0.012": 0.0,
			"0.013": 0.0,
			"0.014": 0.0,
			"0.015": 0.0,
			"0.016": 0.0,
			"0.017": 0.0,
			"0.018": 0.0,
			"0.019": 0.0,
			"0.02": 0.0,
			"0.021": 0.0,
			"0.022": 0.0,
			"0.023": 0.0,
			"0.024": 0.0,
			"0.025": 0.0
		}
	}
}
