{
	 "smiles": "CC1=CC(C)=C(Br)C(C)=C1[N+]([O-])=O", 
	 "Tm": 338.15, 
	 "num_atms": 23, 
	 "gaussian": { 
		 "optdone": 1, 
		 "sigma_profile": "yes", 
		 "theory": "DFT", 
		 "functional": "B3LYP", 
		 "basiset": "6-31G**", 
		 "properties": { 
			 "R2extent": 4368.1617, 
			 "electric_dipole_moment_norm": 3.25298787732, 
			 "electric_quadrupole_moment_norm": 9.17715425772, 
			 "total_energy": -3125.49954946, 
			 "HOMO_LUMO_gap": 0.17206, 
			 "cosmo_polarized_energy": -6.96, 
			 "cosmo_cavitation_energy": 29.0, 
			 "cosmo_dispersion_energy": -20.73, 
			 "cosmo_repulsion_energy": 1.62, 
			 "cosmo_total_nonelectrostatic_energy": 9.88, 
			 "SMD_solvation_energy": 6.6 
		},
		"coords": [
			{
				"x": -0.081358037,
				"y": 0.3645280651,
				"z": -2.6891543572,
				"element": "C" 
			},
			{
				"x": 0.0118290078,
				"y": 0.9014290102,
				"z": -1.2826751642,
				"element": "C" 
			},
			{
				"x": 0.7559807857,
				"y": 2.040253636,
				"z": -0.9747075166,
				"element": "C" 
			},
			{
				"x": 0.8541029078,
				"y": 2.5533854028,
				"z": 0.3247051741,
				"element": "C" 
			},
			{
				"x": 1.6753211847,
				"y": 3.7886661655,
				"z": 0.5895679435,
				"element": "C" 
			},
			{
				"x": 0.1659164897,
				"y": 1.8749937299,
				"z": 1.3397892135,
				"element": "C" 
			},
			{
				"x": 0.2762581867,
				"y": 2.5474734854,
				"z": 3.1324863279,
				"element": "Br" 
			},
			{
				"x": -0.6030331702,
				"y": 0.7230999595,
				"z": 1.1073309959,
				"element": "C" 
			},
			{
				"x": -1.3364875329,
				"y": 0.0072952405,
				"z": 2.2129189766,
				"element": "C" 
			},
			{
				"x": -0.6455823189,
				"y": 0.2810382116,
				"z": -0.2173568788,
				"element": "C" 
			},
			{
				"x": -1.4396032673,
				"y": -0.9287244587,
				"z": -0.5271159042,
				"element": "N" 
			},
			{
				"x": -0.8606510065,
				"y": -2.0102337607,
				"z": -0.4694835712,
				"element": "O" 
			},
			{
				"x": -2.6186679484,
				"y": -0.7644308807,
				"z": -0.8287641352,
				"element": "O" 
			},
			{
				"x": 0.2990799011,
				"y": -0.6609909041,
				"z": -2.7453794099,
				"element": "H" 
			},
			{
				"x": 0.4973503473,
				"y": 0.9824928517,
				"z": -3.3786474449,
				"element": "H" 
			},
			{
				"x": -1.1203055762,
				"y": 0.3448253121,
				"z": -3.0352559637,
				"element": "H" 
			},
			{
				"x": 1.2821023686,
				"y": 2.551599451,
				"z": -1.7761694725,
				"element": "H" 
			},
			{
				"x": 2.1256212088,
				"y": 4.157879419,
				"z": -0.3347567091,
				"element": "H" 
			},
			{
				"x": 2.476911075,
				"y": 3.5859677328,
				"z": 1.3074762616,
				"element": "H" 
			},
			{
				"x": 1.06246106,
				"y": 4.5882033188,
				"z": 1.0187232338,
				"element": "H" 
			},
			{
				"x": -1.8812690985,
				"y": -0.8646222244,
				"z": 1.850716789,
				"element": "H" 
			},
			{
				"x": -0.6359016546,
				"y": -0.3239967281,
				"z": 2.9854405214,
				"element": "H" 
			},
			{
				"x": -2.0510749128,
				"y": 0.6801679647,
				"z": 2.69661109,
				"element": "H" 
			}
		],
		 "valence_orbital": [ 
			{
				"type": "occ",
				"energy": -0.30755,
				"method": "rhf"
			},
			{
				"type": "occ",
				"energy": -0.30477,
				"method": "rhf"
			},
			{
				"type": "occ",
				"energy": -0.29395,
				"method": "rhf"
			},
			{
				"type": "occ",
				"energy": -0.25966,
				"method": "rhf"
			},
			{
				"type": "occ",
				"energy": -0.24788,
				"method": "rhf"
			},
			{
				"type": "unocc",
				"energy": -0.07582,
				"method": "rhf"
			},
			{
				"type": "unocc",
				"energy": -0.02902,
				"method": "rhf"
			},
			{
				"type": "unocc",
				"energy": -0.02418,
				"method": "rhf"
			},
			{
				"type": "unocc",
				"energy": -0.0004,
				"method": "rhf"
			},
			{
				"type": "unocc",
				"energy": 0.09636,
				"method": "rhf"
			}
		],
		"cosmo_sigma_profile": { 
			"-0.025": 0.0,
			"-0.024": 0.0,
			"-0.023": 0.0,
			"-0.022": 0.0,
			"-0.021": 0.0,
			"-0.02": 0.0,
			"-0.019": 0.0,
			"-0.018": 0.0,
			"-0.017": 0.0,
			"-0.016": 0.0,
			"-0.015": 0.0,
			"-0.014": 0.0,
			"-0.013": 0.0,
			"-0.012": 0.0,
			"-0.011": 0.0,
			"-0.01": 0.0,
			"-0.009": 0.0,
			"-0.008": 0.0,
			"-0.007": 2.07853185366,
			"-0.006": 6.81541671802,
			"-0.005": 13.8363109549,
			"-0.004": 20.1823074498,
			"-0.003": 22.4997860002,
			"-0.002": 25.9880477733,
			"-0.001": 30.5133041445,
			"0.0": 19.2521036631,
			"0.001": 19.3658825069,
			"0.002": 18.9816997128,
			"0.003": 13.5808969777,
			"0.004": 8.66548585699,
			"0.005": 4.57250232654,
			"0.006": 5.21329650698,
			"0.007": 10.1488664453,
			"0.008": 7.17601471055,
			"0.009": 3.57783565266,
			"0.01": 0.397342839862,
			"0.011": 0.0,
			"0.012": 0.0,
			"0.013": 0.0,
			"0.014": 0.0,
			"0.015": 0.0,
			"0.016": 0.0,
			"0.017": 0.0,
			"0.018": 0.0,
			"0.019": 0.0,
			"0.02": 0.0,
			"0.021": 0.0,
			"0.022": 0.0,
			"0.023": 0.0,
			"0.024": 0.0,
			"0.025": 0.0
		}
	}
}
