{
	 "smiles": "COC1=C(C=CC=C1)C1=NNC(N)=C1", 
	 "Tm": 368.15, 
	 "num_atms": 25, 
	 "gaussian": { 
		 "optdone": 1, 
		 "sigma_profile": "yes", 
		 "theory": "DFT", 
		 "functional": "B3LYP", 
		 "basiset": "6-31G**", 
		 "properties": { 
			 "R2extent": 3203.1811, 
			 "electric_dipole_moment_norm": 3.00780180697, 
			 "electric_quadrupole_moment_norm": 12.0348908391, 
			 "total_energy": -627.136809431, 
			 "HOMO_LUMO_gap": 0.19059, 
			 "cosmo_polarized_energy": -16.01, 
			 "cosmo_cavitation_energy": 28.84, 
			 "cosmo_dispersion_energy": -21.13, 
			 "cosmo_repulsion_energy": 1.68, 
			 "cosmo_total_nonelectrostatic_energy": 9.39, 
			 "SMD_solvation_energy": 4.62 
		},
		"coords": [
			{
				"x": 0.5932267026,
				"y": 2.6876340915,
				"z": -2.0422682275,
				"element": "C" 
			},
			{
				"x": 1.4550413778,
				"y": 2.1320015576,
				"z": -1.0488500828,
				"element": "O" 
			},
			{
				"x": 1.8650027023,
				"y": 0.8366810167,
				"z": -1.3205533128,
				"element": "C" 
			},
			{
				"x": 1.1493094026,
				"y": -0.2704765315,
				"z": -0.8238461277,
				"element": "C" 
			},
			{
				"x": 1.640886918,
				"y": -1.5530420947,
				"z": -1.1305650964,
				"element": "C" 
			},
			{
				"x": 2.7889423993,
				"y": -1.7302533282,
				"z": -1.8959841617,
				"element": "C" 
			},
			{
				"x": 3.4914365618,
				"y": -0.6193075508,
				"z": -2.3703173455,
				"element": "C" 
			},
			{
				"x": 3.0237474033,
				"y": 0.6605090729,
				"z": -2.0810829869,
				"element": "C" 
			},
			{
				"x": -0.0682327458,
				"y": -0.1398614786,
				"z": -0.0013372219,
				"element": "C" 
			},
			{
				"x": -0.8694388257,
				"y": -1.2002772237,
				"z": 0.1554877206,
				"element": "N" 
			},
			{
				"x": -1.8470510406,
				"y": -0.7645560889,
				"z": 0.988810336,
				"element": "N" 
			},
			{
				"x": -1.6898133925,
				"y": 0.5337545395,
				"z": 1.3676488407,
				"element": "C" 
			},
			{
				"x": -2.6354615277,
				"y": 1.1686690103,
				"z": 2.1821661662,
				"element": "N" 
			},
			{
				"x": -0.5398743082,
				"y": 0.9795841263,
				"z": 0.7430315032,
				"element": "C" 
			},
			{
				"x": 1.0772080725,
				"y": 2.695902643,
				"z": -3.027490293,
				"element": "H" 
			},
			{
				"x": -0.3491458873,
				"y": 2.130165783,
				"z": -2.1106957744,
				"element": "H" 
			},
			{
				"x": 0.3835025059,
				"y": 3.7152871234,
				"z": -1.7362650919,
				"element": "H" 
			},
			{
				"x": 1.0960892175,
				"y": -2.4089332616,
				"z": -0.7472245844,
				"element": "H" 
			},
			{
				"x": 3.1430011032,
				"y": -2.7341426244,
				"z": -2.1119095219,
				"element": "H" 
			},
			{
				"x": 4.3968228334,
				"y": -0.7477113183,
				"z": -2.9565453467,
				"element": "H" 
			},
			{
				"x": 3.5493112522,
				"y": 1.5451027477,
				"z": -2.4281731607,
				"element": "H" 
			},
			{
				"x": -2.6350847918,
				"y": -1.3628471032,
				"z": 1.1804605018,
				"element": "H" 
			},
			{
				"x": -2.7802018762,
				"y": 0.6971169027,
				"z": 3.0696807899,
				"element": "H" 
			},
			{
				"x": -2.3826241356,
				"y": 2.1332826283,
				"z": 2.357379248,
				"element": "H" 
			},
			{
				"x": -0.0748999209,
				"y": 1.9471173607,
				"z": 0.8319432299,
				"element": "H" 
			}
		],
		 "valence_orbital": [ 
			{
				"type": "occ",
				"energy": -0.27358,
				"method": "rhf"
			},
			{
				"type": "occ",
				"energy": -0.26213,
				"method": "rhf"
			},
			{
				"type": "occ",
				"energy": -0.23288,
				"method": "rhf"
			},
			{
				"type": "occ",
				"energy": -0.21749,
				"method": "rhf"
			},
			{
				"type": "occ",
				"energy": -0.20162,
				"method": "rhf"
			},
			{
				"type": "unocc",
				"energy": -0.01103,
				"method": "rhf"
			},
			{
				"type": "unocc",
				"energy": 0.01243,
				"method": "rhf"
			},
			{
				"type": "unocc",
				"energy": 0.04519,
				"method": "rhf"
			},
			{
				"type": "unocc",
				"energy": 0.06834,
				"method": "rhf"
			},
			{
				"type": "unocc",
				"energy": 0.09658,
				"method": "rhf"
			}
		],
		"cosmo_sigma_profile": { 
			"-0.025": 0.0,
			"-0.024": 0.0,
			"-0.023": 0.0,
			"-0.022": 0.0,
			"-0.021": 0.0,
			"-0.02": 0.0,
			"-0.019": 0.0,
			"-0.018": 0.0,
			"-0.017": 0.0118599692277,
			"-0.016": 1.0839646688,
			"-0.015": 1.31889507249,
			"-0.014": 1.0191568805,
			"-0.013": 3.12724641123,
			"-0.012": 4.57410847364,
			"-0.011": 3.96214062719,
			"-0.01": 3.93571783613,
			"-0.009": 3.18218229901,
			"-0.008": 1.93623838816,
			"-0.007": 3.01119308062,
			"-0.006": 6.71946063967,
			"-0.005": 12.2171207458,
			"-0.004": 15.5344103817,
			"-0.003": 19.9874623803,
			"-0.002": 14.4504261326,
			"-0.001": 13.3487690993,
			"0.0": 10.8574851156,
			"0.001": 9.71455271396,
			"0.002": 11.6142767535,
			"0.003": 14.4460717473,
			"0.004": 17.9303654081,
			"0.005": 19.4168548899,
			"0.006": 11.2898037578,
			"0.007": 4.16482074077,
			"0.008": 4.03312029004,
			"0.009": 3.47442458952,
			"0.01": 3.08637466348,
			"0.011": 2.39338591439,
			"0.012": 2.73462475492,
			"0.013": 1.94052660857,
			"0.014": 1.29434500575,
			"0.015": 1.1585982023,
			"0.016": 0.204978476717,
			"0.017": 0.0,
			"0.018": 0.0,
			"0.019": 0.0,
			"0.02": 0.0,
			"0.021": 0.0,
			"0.022": 0.0,
			"0.023": 0.0,
			"0.024": 0.0,
			"0.025": 0.0
		}
	}
}
