{
	 "smiles": "[O-][N+](=O)C1=CC(=CC(=C1)C(=O)NCCC1=CC=CC=C1)[N+]([O-])=O", 
	 "Tm": 477.15, 
	 "num_atms": 36, 
	 "gaussian": { 
		 "optdone": 1, 
		 "sigma_profile": "yes", 
		 "theory": "DFT", 
		 "functional": "B3LYP", 
		 "basiset": "6-31G**", 
		 "properties": { 
			 "R2extent": 7869.1958, 
			 "electric_dipole_moment_norm": 5.40543279581, 
			 "electric_quadrupole_moment_norm": 11.5423016076, 
			 "total_energy": -1119.6163271, 
			 "HOMO_LUMO_gap": 0.14195, 
			 "cosmo_polarized_energy": -19.5, 
			 "cosmo_cavitation_energy": 41.97, 
			 "cosmo_dispersion_energy": -26.89, 
			 "cosmo_repulsion_energy": 2.05, 
			 "cosmo_total_nonelectrostatic_energy": 17.13, 
			 "SMD_solvation_energy": 10.98 
		},
		"coords": [
			{
				"x": 1.2715742562,
				"y": 0.8631285902,
				"z": -4.7285684903,
				"element": "O" 
			},
			{
				"x": 1.1760425382,
				"y": 1.1742587076,
				"z": -3.5437311616,
				"element": "N" 
			},
			{
				"x": 0.6661933194,
				"y": 2.2084153913,
				"z": -3.120375577,
				"element": "O" 
			},
			{
				"x": 1.7118963799,
				"y": 0.2238746425,
				"z": -2.5482404678,
				"element": "C" 
			},
			{
				"x": 2.2706576938,
				"y": -0.9668474157,
				"z": -3.0021907774,
				"element": "C" 
			},
			{
				"x": 2.7536235278,
				"y": -1.8417545588,
				"z": -2.0376421769,
				"element": "C" 
			},
			{
				"x": 2.6774497643,
				"y": -1.5686168108,
				"z": -0.6720675642,
				"element": "C" 
			},
			{
				"x": 2.1063995013,
				"y": -0.3653934659,
				"z": -0.2488459538,
				"element": "C" 
			},
			{
				"x": 1.6400463035,
				"y": 0.5508149751,
				"z": -1.1987298368,
				"element": "C" 
			},
			{
				"x": 2.0861353192,
				"y": 0.0574274431,
				"z": 1.199817662,
				"element": "C" 
			},
			{
				"x": 2.4485566533,
				"y": 1.1871050789,
				"z": 1.5042721502,
				"element": "O" 
			},
			{
				"x": 1.7247314312,
				"y": -0.8706368476,
				"z": 2.1456156035,
				"element": "N" 
			},
			{
				"x": 0.7874160698,
				"y": -1.9840396003,
				"z": 2.0030555118,
				"element": "C" 
			},
			{
				"x": -0.6916936359,
				"y": -1.5938615762,
				"z": 2.2381472414,
				"element": "C" 
			},
			{
				"x": -1.2472517375,
				"y": -0.6691290772,
				"z": 1.1769363783,
				"element": "C" 
			},
			{
				"x": -1.753556615,
				"y": -1.1902419182,
				"z": -0.0231411396,
				"element": "C" 
			},
			{
				"x": -2.2146253993,
				"y": -0.3458622011,
				"z": -1.0333893805,
				"element": "C" 
			},
			{
				"x": -2.1776642794,
				"y": 1.0399661304,
				"z": -0.8597165636,
				"element": "C" 
			},
			{
				"x": -1.6875148147,
				"y": 1.5714266295,
				"z": 0.334628836,
				"element": "C" 
			},
			{
				"x": -1.2279671416,
				"y": 0.7224416894,
				"z": 1.3441243139,
				"element": "C" 
			},
			{
				"x": 3.3639336141,
				"y": -3.1120494197,
				"z": -2.4760243808,
				"element": "N" 
			},
			{
				"x": 3.4212195146,
				"y": -3.325473546,
				"z": -3.6839403399,
				"element": "O" 
			},
			{
				"x": 3.7703984721,
				"y": -3.873944551,
				"z": -1.6005857187,
				"element": "O" 
			},
			{
				"x": 2.3282062456,
				"y": -1.1989712099,
				"z": -4.0566620294,
				"element": "H" 
			},
			{
				"x": 3.0812266042,
				"y": -2.2858453068,
				"z": 0.0316897957,
				"element": "H" 
			},
			{
				"x": 1.2177045259,
				"y": 1.497291807,
				"z": -0.8882166739,
				"element": "H" 
			},
			{
				"x": 1.7804235377,
				"y": -0.4674059811,
				"z": 3.075110242,
				"element": "H" 
			},
			{
				"x": 1.0784833884,
				"y": -2.7596716205,
				"z": 2.7199523631,
				"element": "H" 
			},
			{
				"x": 0.8956295068,
				"y": -2.4137636847,
				"z": 1.0059180423,
				"element": "H" 
			},
			{
				"x": -0.7832344405,
				"y": -1.1343627774,
				"z": 3.2298236555,
				"element": "H" 
			},
			{
				"x": -1.2734969883,
				"y": -2.5232479377,
				"z": 2.2685144293,
				"element": "H" 
			},
			{
				"x": -1.7899976605,
				"y": -2.2682781046,
				"z": -0.1652991596,
				"element": "H" 
			},
			{
				"x": -2.6064745455,
				"y": -0.7688413893,
				"z": -1.9541198911,
				"element": "H" 
			},
			{
				"x": -2.5302828195,
				"y": 1.6995507506,
				"z": -1.6466955078,
				"element": "H" 
			},
			{
				"x": -1.6621459034,
				"y": 2.6471548907,
				"z": 0.4821891365,
				"element": "H" 
			},
			{
				"x": -0.8462421863,
				"y": 1.1469822742,
				"z": 2.2689874292,
				"element": "H" 
			}
		],
		 "valence_orbital": [ 
			{
				"type": "occ",
				"energy": -0.30631,
				"method": "rhf"
			},
			{
				"type": "occ",
				"energy": -0.28283,
				"method": "rhf"
			},
			{
				"type": "occ",
				"energy": -0.26755,
				"method": "rhf"
			},
			{
				"type": "occ",
				"energy": -0.26339,
				"method": "rhf"
			},
			{
				"type": "occ",
				"energy": -0.25461,
				"method": "rhf"
			},
			{
				"type": "unocc",
				"energy": -0.11266,
				"method": "rhf"
			},
			{
				"type": "unocc",
				"energy": -0.10386,
				"method": "rhf"
			},
			{
				"type": "unocc",
				"energy": -0.05488,
				"method": "rhf"
			},
			{
				"type": "unocc",
				"energy": -0.01785,
				"method": "rhf"
			},
			{
				"type": "unocc",
				"energy": -0.01522,
				"method": "rhf"
			}
		],
		"cosmo_sigma_profile": { 
			"-0.025": 0.0,
			"-0.024": 0.0,
			"-0.023": 0.0,
			"-0.022": 0.0,
			"-0.021": 0.0,
			"-0.02": 0.0,
			"-0.019": 0.0,
			"-0.018": 0.0,
			"-0.017": 0.0,
			"-0.016": 0.0,
			"-0.015": 0.0,
			"-0.014": 0.42692801314,
			"-0.013": 1.30358626611,
			"-0.012": 0.65047396354,
			"-0.011": 1.50112348301,
			"-0.01": 0.983127378647,
			"-0.009": 1.40776764305,
			"-0.008": 5.17064054679,
			"-0.007": 8.03683481432,
			"-0.006": 16.4501147129,
			"-0.005": 32.2365070159,
			"-0.004": 35.0579772058,
			"-0.003": 33.8600266298,
			"-0.002": 22.1264815853,
			"-0.001": 18.4320025022,
			"0.0": 17.4408494434,
			"0.001": 17.7585986197,
			"0.002": 16.5906988896,
			"0.003": 14.2511794686,
			"0.004": 12.5068550641,
			"0.005": 13.648835782,
			"0.006": 18.2059494667,
			"0.007": 17.0199954903,
			"0.008": 10.2135286942,
			"0.009": 6.93125300301,
			"0.01": 2.16540772729,
			"0.011": 1.86983952868,
			"0.012": 3.04117116134,
			"0.013": 4.83680230154,
			"0.014": 0.763273132077,
			"0.015": 0.0,
			"0.016": 0.0,
			"0.017": 0.0,
			"0.018": 0.0,
			"0.019": 0.0,
			"0.02": 0.0,
			"0.021": 0.0,
			"0.022": 0.0,
			"0.023": 0.0,
			"0.024": 0.0,
			"0.025": 0.0
		}
	}
}
