{
	 "smiles": "CN1C=NC(=N1)C1=CC=C(N)C=C1", 
	 "Tm": 412.15, 
	 "num_atms": 23, 
	 "gaussian": { 
		 "optdone": 1, 
		 "sigma_profile": "yes", 
		 "theory": "DFT", 
		 "functional": "B3LYP", 
		 "basiset": "6-31G**", 
		 "properties": { 
			 "R2extent": 3535.418, 
			 "electric_dipole_moment_norm": 1.82236546554, 
			 "electric_quadrupole_moment_norm": 28.1078363977, 
			 "total_energy": -567.989879788, 
			 "HOMO_LUMO_gap": 0.17974, 
			 "cosmo_polarized_energy": -16.58, 
			 "cosmo_cavitation_energy": 27.35, 
			 "cosmo_dispersion_energy": -20.43, 
			 "cosmo_repulsion_energy": 1.61, 
			 "cosmo_total_nonelectrostatic_energy": 8.53, 
			 "SMD_solvation_energy": 2.86 
		},
		"coords": [
			{
				"x": -3.5357887476,
				"y": 1.9616485467,
				"z": -2.0572093623,
				"element": "C" 
			},
			{
				"x": -2.5445968861,
				"y": 0.9405297061,
				"z": -1.7873365255,
				"element": "N" 
			},
			{
				"x": -2.6679806392,
				"y": -0.405502205,
				"z": -1.7859759451,
				"element": "C" 
			},
			{
				"x": -1.5176374462,
				"y": -0.9771584783,
				"z": -1.4867306466,
				"element": "N" 
			},
			{
				"x": -0.6792726352,
				"y": 0.0940919082,
				"z": -1.3031674287,
				"element": "C" 
			},
			{
				"x": -1.2673432223,
				"y": 1.2798672783,
				"z": -1.4775298999,
				"element": "N" 
			},
			{
				"x": 0.7353790557,
				"y": -0.0508929075,
				"z": -0.9473193377,
				"element": "C" 
			},
			{
				"x": 1.2976182245,
				"y": -1.324824004,
				"z": -0.7765674352,
				"element": "C" 
			},
			{
				"x": 2.6377690235,
				"y": -1.4757250337,
				"z": -0.4422264377,
				"element": "C" 
			},
			{
				"x": 3.4643103958,
				"y": -0.3518451516,
				"z": -0.2660439012,
				"element": "C" 
			},
			{
				"x": 4.7960062433,
				"y": -0.4977087224,
				"z": 0.1236341569,
				"element": "N" 
			},
			{
				"x": 2.900713815,
				"y": 0.9262705281,
				"z": -0.4363968486,
				"element": "C" 
			},
			{
				"x": 1.56076763,
				"y": 1.0709583088,
				"z": -0.7706649684,
				"element": "C" 
			},
			{
				"x": -4.4879369266,
				"y": 1.4774533109,
				"z": -2.2823544861,
				"element": "H" 
			},
			{
				"x": -3.6556920327,
				"y": 2.6095624252,
				"z": -1.1849897725,
				"element": "H" 
			},
			{
				"x": -3.2270179356,
				"y": 2.5694760163,
				"z": -2.9117102773,
				"element": "H" 
			},
			{
				"x": -3.5992776309,
				"y": -0.9104890818,
				"z": -2.0054315069,
				"element": "H" 
			},
			{
				"x": 0.6668845138,
				"y": -2.1969638372,
				"z": -0.9131029183,
				"element": "H" 
			},
			{
				"x": 3.0545075257,
				"y": -2.4716128462,
				"z": -0.3109480218,
				"element": "H" 
			},
			{
				"x": 5.2174320577,
				"y": -1.3869706477,
				"z": -0.1068756278,
				"element": "H" 
			},
			{
				"x": 5.4004492296,
				"y": 0.2786642842,
				"z": -0.1074338744,
				"element": "H" 
			},
			{
				"x": 3.5234917394,
				"y": 1.8073565328,
				"z": -0.3001398803,
				"element": "H" 
			},
			{
				"x": 1.1390146484,
				"y": 2.0623140697,
				"z": -0.9014790545,
				"element": "H" 
			}
		],
		 "valence_orbital": [ 
			{
				"type": "occ",
				"energy": -0.27712,
				"method": "rhf"
			},
			{
				"type": "occ",
				"energy": -0.2637,
				"method": "rhf"
			},
			{
				"type": "occ",
				"energy": -0.2556,
				"method": "rhf"
			},
			{
				"type": "occ",
				"energy": -0.23848,
				"method": "rhf"
			},
			{
				"type": "occ",
				"energy": -0.18663,
				"method": "rhf"
			},
			{
				"type": "unocc",
				"energy": -0.00689,
				"method": "rhf"
			},
			{
				"type": "unocc",
				"energy": 0.01104,
				"method": "rhf"
			},
			{
				"type": "unocc",
				"energy": 0.02852,
				"method": "rhf"
			},
			{
				"type": "unocc",
				"energy": 0.08175,
				"method": "rhf"
			},
			{
				"type": "unocc",
				"energy": 0.09474,
				"method": "rhf"
			}
		],
		"cosmo_sigma_profile": { 
			"-0.025": 0.0,
			"-0.024": 0.0,
			"-0.023": 0.0,
			"-0.022": 0.0,
			"-0.021": 0.0,
			"-0.02": 0.0,
			"-0.019": 0.0,
			"-0.018": 0.0,
			"-0.017": 0.0,
			"-0.016": 0.0,
			"-0.015": 0.0,
			"-0.014": 0.0,
			"-0.013": 0.481147474525,
			"-0.012": 2.7505947326,
			"-0.011": 3.35491129665,
			"-0.01": 5.09562554163,
			"-0.009": 6.36648573724,
			"-0.008": 5.7997699258,
			"-0.007": 8.33149684507,
			"-0.006": 11.2722100445,
			"-0.005": 13.3426729609,
			"-0.004": 15.1476425514,
			"-0.003": 17.6354607223,
			"-0.002": 8.11392238638,
			"-0.001": 9.22480479502,
			"0.0": 9.05477191363,
			"0.001": 9.22604082748,
			"0.002": 8.83869665919,
			"0.003": 12.2558552836,
			"0.004": 13.8454171018,
			"0.005": 16.4028892664,
			"0.006": 14.7352772039,
			"0.007": 5.95113667614,
			"0.008": 4.20227994573,
			"0.009": 2.50128502156,
			"0.01": 2.85611378704,
			"0.011": 3.80545557378,
			"0.012": 2.45396377398,
			"0.013": 2.39658647345,
			"0.014": 1.95840081283,
			"0.015": 0.879427216165,
			"0.016": 0.0336130083637,
			"0.017": 0.0,
			"0.018": 0.0,
			"0.019": 0.0,
			"0.02": 0.0,
			"0.021": 0.0,
			"0.022": 0.0,
			"0.023": 0.0,
			"0.024": 0.0,
			"0.025": 0.0
		}
	}
}
