{
	 "smiles": "OC(=O)CCC1=CC=C(Br)C=C1", 
	 "Tm": 408.15, 
	 "num_atms": 21, 
	 "gaussian": { 
		 "optdone": 1, 
		 "sigma_profile": "yes", 
		 "theory": "DFT", 
		 "functional": "B3LYP", 
		 "basiset": "6-31G**", 
		 "properties": { 
			 "R2extent": 5126.4421, 
			 "electric_dipole_moment_norm": 2.85985155908, 
			 "electric_quadrupole_moment_norm": 5.67579417086, 
			 "total_energy": -3070.25782581, 
			 "HOMO_LUMO_gap": 0.22278, 
			 "cosmo_polarized_energy": -10.06, 
			 "cosmo_cavitation_energy": 27.6, 
			 "cosmo_dispersion_energy": -20.31, 
			 "cosmo_repulsion_energy": 1.65, 
			 "cosmo_total_nonelectrostatic_energy": 8.93, 
			 "SMD_solvation_energy": 4.44 
		},
		"coords": [
			{
				"x": 1.498012908,
				"y": 2.2407810371,
				"z": -3.466208419,
				"element": "O" 
			},
			{
				"x": 0.7620744788,
				"y": 1.1218955515,
				"z": -3.2736273847,
				"element": "C" 
			},
			{
				"x": 0.9882182078,
				"y": 0.0855588857,
				"z": -3.861707531,
				"element": "O" 
			},
			{
				"x": -0.3666222094,
				"y": 1.3605230185,
				"z": -2.2918333207,
				"element": "C" 
			},
			{
				"x": -0.9658026832,
				"y": 0.0616253353,
				"z": -1.72251493,
				"element": "C" 
			},
			{
				"x": -0.0871552143,
				"y": -0.613794542,
				"z": -0.688221675,
				"element": "C" 
			},
			{
				"x": -0.2188458755,
				"y": -0.298650015,
				"z": 0.6709369661,
				"element": "C" 
			},
			{
				"x": 0.5927706377,
				"y": -0.892815095,
				"z": 1.637679854,
				"element": "C" 
			},
			{
				"x": 1.5518766739,
				"y": -1.8200801153,
				"z": 1.2362688994,
				"element": "C" 
			},
			{
				"x": 2.6691600045,
				"y": -2.6476831483,
				"z": 2.5512425711,
				"element": "Br" 
			},
			{
				"x": 1.7063449845,
				"y": -2.1566876682,
				"z": -0.1069002889,
				"element": "C" 
			},
			{
				"x": 0.886582329,
				"y": -1.5514263706,
				"z": -1.0601146021,
				"element": "C" 
			},
			{
				"x": 2.1712832158,
				"y": 2.0126888096,
				"z": -4.1295571194,
				"element": "H" 
			},
			{
				"x": -0.0098697207,
				"y": 2.0241016963,
				"z": -1.4979540578,
				"element": "H" 
			},
			{
				"x": -1.1356812936,
				"y": 1.9232637398,
				"z": -2.838197323,
				"element": "H" 
			},
			{
				"x": -1.1594004669,
				"y": -0.6222739089,
				"z": -2.5541828745,
				"element": "H" 
			},
			{
				"x": -1.9333745303,
				"y": 0.3040646522,
				"z": -1.2702563819,
				"element": "H" 
			},
			{
				"x": -0.9729538742,
				"y": 0.4189305969,
				"z": 0.9860279018,
				"element": "H" 
			},
			{
				"x": 0.4781423981,
				"y": -0.6434879638,
				"z": 2.686525388,
				"element": "H" 
			},
			{
				"x": 2.4543869767,
				"y": -2.8827445657,
				"z": -0.404850559,
				"element": "H" 
			},
			{
				"x": 1.0093530532,
				"y": -1.8018899301,
				"z": -2.1089551133,
				"element": "H" 
			}
		],
		 "valence_orbital": [ 
			{
				"type": "occ",
				"energy": -0.30407,
				"method": "rhf"
			},
			{
				"type": "occ",
				"energy": -0.28384,
				"method": "rhf"
			},
			{
				"type": "occ",
				"energy": -0.28232,
				"method": "rhf"
			},
			{
				"type": "occ",
				"energy": -0.25925,
				"method": "rhf"
			},
			{
				"type": "occ",
				"energy": -0.23533,
				"method": "rhf"
			},
			{
				"type": "unocc",
				"energy": -0.01255,
				"method": "rhf"
			},
			{
				"type": "unocc",
				"energy": -0.011,
				"method": "rhf"
			},
			{
				"type": "unocc",
				"energy": 0.00272,
				"method": "rhf"
			},
			{
				"type": "unocc",
				"energy": 0.01148,
				"method": "rhf"
			},
			{
				"type": "unocc",
				"energy": 0.07443,
				"method": "rhf"
			}
		],
		"cosmo_sigma_profile": { 
			"-0.025": 0.0,
			"-0.024": 0.0,
			"-0.023": 0.0,
			"-0.022": 0.0,
			"-0.021": 0.0,
			"-0.02": 0.0,
			"-0.019": 0.0,
			"-0.018": 0.671235855338,
			"-0.017": 0.921796564736,
			"-0.016": 0.622867732972,
			"-0.015": 0.786916963032,
			"-0.014": 1.20247430144,
			"-0.013": 0.773907519046,
			"-0.012": 0.160552747448,
			"-0.011": 0.603718966571,
			"-0.01": 1.33868076389,
			"-0.009": 0.405370537084,
			"-0.008": 0.335452864264,
			"-0.007": 4.5932826357,
			"-0.006": 10.1272792065,
			"-0.005": 14.4812771273,
			"-0.004": 18.3158030376,
			"-0.003": 17.2483642114,
			"-0.002": 17.4501820209,
			"-0.001": 13.473605465,
			"0.0": 13.4376835994,
			"0.001": 12.4488532663,
			"0.002": 17.1524530501,
			"0.003": 19.8156599793,
			"0.004": 23.3163741021,
			"0.005": 13.5609382644,
			"0.006": 2.68690651817,
			"0.007": 2.02734818869,
			"0.008": 3.23394877809,
			"0.009": 3.17181637412,
			"0.01": 2.53211871118,
			"0.011": 2.89931626841,
			"0.012": 2.51488482817,
			"0.013": 0.09636756554,
			"0.014": 0.0,
			"0.015": 0.0,
			"0.016": 0.0,
			"0.017": 0.0,
			"0.018": 0.0,
			"0.019": 0.0,
			"0.02": 0.0,
			"0.021": 0.0,
			"0.022": 0.0,
			"0.023": 0.0,
			"0.024": 0.0,
			"0.025": 0.0
		}
	}
}
