{
	 "smiles": "OC(=O)C1CCCN(C1)C(=O)CC1=CC=C(F)C=C1", 
	 "Tm": 396.15, 
	 "num_atms": 35, 
	 "gaussian": { 
		 "optdone": 1, 
		 "sigma_profile": "yes", 
		 "theory": "DFT", 
		 "functional": "B3LYP", 
		 "basiset": "6-31G**", 
		 "properties": { 
			 "R2extent": 6377.8967, 
			 "electric_dipole_moment_norm": 4.33615258265, 
			 "electric_quadrupole_moment_norm": 18.7902582212, 
			 "total_energy": -923.42221501, 
			 "HOMO_LUMO_gap": 0.2218, 
			 "cosmo_polarized_energy": -19.55, 
			 "cosmo_cavitation_energy": 38.08, 
			 "cosmo_dispersion_energy": -25.69, 
			 "cosmo_repulsion_energy": 1.95, 
			 "cosmo_total_nonelectrostatic_energy": 14.34, 
			 "SMD_solvation_energy": 6.98 
		},
		"coords": [
			{
				"x": 2.6949601463,
				"y": 2.731468436,
				"z": 0.8753273457,
				"element": "O" 
			},
			{
				"x": 2.384939026,
				"y": 2.3343016221,
				"z": -0.3884642807,
				"element": "C" 
			},
			{
				"x": 2.9376678369,
				"y": 2.8383974426,
				"z": -1.3345001082,
				"element": "O" 
			},
			{
				"x": 1.2977228324,
				"y": 1.2681530835,
				"z": -0.484236082,
				"element": "C" 
			},
			{
				"x": 1.1841689785,
				"y": 0.6786066071,
				"z": -1.8972768379,
				"element": "C" 
			},
			{
				"x": 0.0304514123,
				"y": -0.3335828458,
				"z": -1.9824891289,
				"element": "C" 
			},
			{
				"x": -1.2877642083,
				"y": 0.254112036,
				"z": -1.4487520955,
				"element": "C" 
			},
			{
				"x": -1.0997020138,
				"y": 0.8163037745,
				"z": -0.1076379989,
				"element": "N" 
			},
			{
				"x": -0.0713642005,
				"y": 1.8516560771,
				"z": -0.0537240995,
				"element": "C" 
			},
			{
				"x": -1.4338205852,
				"y": 0.1944382651,
				"z": 1.0738365626,
				"element": "C" 
			},
			{
				"x": -0.9320194316,
				"y": 0.5344402165,
				"z": 2.1455153021,
				"element": "O" 
			},
			{
				"x": -2.4681491303,
				"y": -0.9332374952,
				"z": 1.0420990025,
				"element": "C" 
			},
			{
				"x": -1.8324967224,
				"y": -2.3053243304,
				"z": 0.873069516,
				"element": "C" 
			},
			{
				"x": -2.2924648222,
				"y": -3.199116102,
				"z": -0.101777017,
				"element": "C" 
			},
			{
				"x": -1.7249140032,
				"y": -4.4667730731,
				"z": -0.2463944552,
				"element": "C" 
			},
			{
				"x": -0.6849559497,
				"y": -4.8300654972,
				"z": 0.5995451803,
				"element": "C" 
			},
			{
				"x": -0.1279284238,
				"y": -6.0519329214,
				"z": 0.4677437125,
				"element": "F" 
			},
			{
				"x": -0.2018894453,
				"y": -3.9688012231,
				"z": 1.5796779341,
				"element": "C" 
			},
			{
				"x": -0.7811878485,
				"y": -2.7081175132,
				"z": 1.7115311492,
				"element": "C" 
			},
			{
				"x": 2.1898144733,
				"y": 2.220124939,
				"z": 1.5249511444,
				"element": "H" 
			},
			{
				"x": 1.5427896155,
				"y": 0.4692383661,
				"z": 0.2311315708,
				"element": "H" 
			},
			{
				"x": 2.128970642,
				"y": 0.2083148894,
				"z": -2.1865981087,
				"element": "H" 
			},
			{
				"x": 1.0242603996,
				"y": 1.5026747567,
				"z": -2.6027330478,
				"element": "H" 
			},
			{
				"x": 0.2734065202,
				"y": -1.2293067028,
				"z": -1.3976066862,
				"element": "H" 
			},
			{
				"x": -0.112447618,
				"y": -0.6569049059,
				"z": -3.0199803616,
				"element": "H" 
			},
			{
				"x": -1.6348661359,
				"y": 1.0604247077,
				"z": -2.1091503105,
				"element": "H" 
			},
			{
				"x": -2.0654292586,
				"y": -0.5082823406,
				"z": -1.4285269702,
				"element": "H" 
			},
			{
				"x": -0.3522907673,
				"y": 2.6602467783,
				"z": -0.7402387321,
				"element": "H" 
			},
			{
				"x": -0.0506220908,
				"y": 2.2459079545,
				"z": 0.9615209739,
				"element": "H" 
			},
			{
				"x": -2.9689844386,
				"y": -0.8739182996,
				"z": 2.0132722202,
				"element": "H" 
			},
			{
				"x": -3.2283798291,
				"y": -0.7718732797,
				"z": 0.2733977695,
				"element": "H" 
			},
			{
				"x": -3.112469907,
				"y": -2.9099381318,
				"z": -0.7544717354,
				"element": "H" 
			},
			{
				"x": -2.0766543345,
				"y": -5.1662875624,
				"z": -0.9969546256,
				"element": "H" 
			},
			{
				"x": 0.6095723195,
				"y": -4.2916039279,
				"z": 2.2231373181,
				"element": "H" 
			},
			{
				"x": -0.4189230377,
				"y": -2.0218438002,
				"z": 2.47105598,
				"element": "H" 
			}
		],
		 "valence_orbital": [ 
			{
				"type": "occ",
				"energy": -0.27706,
				"method": "rhf"
			},
			{
				"type": "occ",
				"energy": -0.26944,
				"method": "rhf"
			},
			{
				"type": "occ",
				"energy": -0.26547,
				"method": "rhf"
			},
			{
				"type": "occ",
				"energy": -0.24879,
				"method": "rhf"
			},
			{
				"type": "occ",
				"energy": -0.24441,
				"method": "rhf"
			},
			{
				"type": "unocc",
				"energy": -0.02261,
				"method": "rhf"
			},
			{
				"type": "unocc",
				"energy": -0.01279,
				"method": "rhf"
			},
			{
				"type": "unocc",
				"energy": 0.00332,
				"method": "rhf"
			},
			{
				"type": "unocc",
				"energy": 0.01595,
				"method": "rhf"
			},
			{
				"type": "unocc",
				"energy": 0.05258,
				"method": "rhf"
			}
		],
		"cosmo_sigma_profile": { 
			"-0.025": 0.0,
			"-0.024": 0.0,
			"-0.023": 0.0,
			"-0.022": 0.0,
			"-0.021": 0.0,
			"-0.02": 0.0,
			"-0.019": 0.0,
			"-0.018": 0.382368304732,
			"-0.017": 0.873962215921,
			"-0.016": 0.719268139347,
			"-0.015": 0.481803135355,
			"-0.014": 0.627068411179,
			"-0.013": 1.71410762473,
			"-0.012": 1.3583978735,
			"-0.011": 1.86698691836,
			"-0.01": 1.07362187736,
			"-0.009": 1.15370848964,
			"-0.008": 2.59789317651,
			"-0.007": 8.40051800461,
			"-0.006": 15.482442765,
			"-0.005": 21.5003089727,
			"-0.004": 25.8009111731,
			"-0.003": 27.293580095,
			"-0.002": 24.1122979402,
			"-0.001": 20.874367073,
			"0.0": 19.7649511223,
			"0.001": 18.688569573,
			"0.002": 17.0118903419,
			"0.003": 17.0123076919,
			"0.004": 20.1479455446,
			"0.005": 8.43064711193,
			"0.006": 3.11283667141,
			"0.007": 4.81558287132,
			"0.008": 3.6189989735,
			"0.009": 4.06240245691,
			"0.01": 6.20546685168,
			"0.011": 6.88765957572,
			"0.012": 6.61236772478,
			"0.013": 4.50648342557,
			"0.014": 2.50020148089,
			"0.015": 0.433043203489,
			"0.016": 0.0,
			"0.017": 0.0,
			"0.018": 0.0,
			"0.019": 0.0,
			"0.02": 0.0,
			"0.021": 0.0,
			"0.022": 0.0,
			"0.023": 0.0,
			"0.024": 0.0,
			"0.025": 0.0
		}
	}
}
