{
	 "smiles": "SC1CCCCC1", 
	 "Tm": 243.15, 
	 "num_atms": 19, 
	 "gaussian": { 
		 "optdone": 1, 
		 "sigma_profile": "yes", 
		 "theory": "DFT", 
		 "functional": "B3LYP", 
		 "basiset": "6-31G**", 
		 "properties": { 
			 "R2extent": 1130.455, 
			 "electric_dipole_moment_norm": 1.77774354168, 
			 "electric_quadrupole_moment_norm": 4.2643875164, 
			 "total_energy": -634.064583785, 
			 "HOMO_LUMO_gap": 0.25628, 
			 "cosmo_polarized_energy": -3.93, 
			 "cosmo_cavitation_energy": 20.74, 
			 "cosmo_dispersion_energy": -16.36, 
			 "cosmo_repulsion_energy": 1.33, 
			 "cosmo_total_nonelectrostatic_energy": 5.71, 
			 "SMD_solvation_energy": 2.3 
		},
		"coords": [
			{
				"x": -0.3614852851,
				"y": -2.0360163347,
				"z": 0.5246334832,
				"element": "S" 
			},
			{
				"x": -0.0813965191,
				"y": -0.2059305388,
				"z": 0.3063032682,
				"element": "C" 
			},
			{
				"x": 1.2966760903,
				"y": 0.1138678124,
				"z": -0.2881084883,
				"element": "C" 
			},
			{
				"x": 1.4933858826,
				"y": -0.4319294718,
				"z": -1.7182143923,
				"element": "C" 
			},
			{
				"x": 0.1947496883,
				"y": -0.3665712979,
				"z": -2.560671862,
				"element": "C" 
			},
			{
				"x": -0.7714848998,
				"y": 0.6948674666,
				"z": -2.0190933961,
				"element": "C" 
			},
			{
				"x": -1.2267896535,
				"y": 0.3609593741,
				"z": -0.583221697,
				"element": "C" 
			},
			{
				"x": 0.7065995476,
				"y": -2.2755769243,
				"z": 1.313984063,
				"element": "H" 
			},
			{
				"x": -0.1532996886,
				"y": 0.2273071231,
				"z": 1.3070266755,
				"element": "H" 
			},
			{
				"x": 1.3909825391,
				"y": 1.2089039677,
				"z": -0.2946835507,
				"element": "H" 
			},
			{
				"x": 2.0913729598,
				"y": -0.2507390293,
				"z": 0.3727673451,
				"element": "H" 
			},
			{
				"x": 2.2891124353,
				"y": 0.1474180631,
				"z": -2.2010600957,
				"element": "H" 
			},
			{
				"x": 1.8456318958,
				"y": -1.4669484726,
				"z": -1.6732785132,
				"element": "H" 
			},
			{
				"x": 0.4338512698,
				"y": -0.1652292785,
				"z": -3.610776682,
				"element": "H" 
			},
			{
				"x": -0.3068557663,
				"y": -1.3411114029,
				"z": -2.5370858985,
				"element": "H" 
			},
			{
				"x": -0.2802060617,
				"y": 1.6767745731,
				"z": -2.0356473257,
				"element": "H" 
			},
			{
				"x": -1.6505982362,
				"y": 0.7843308142,
				"z": -2.6670507666,
				"element": "H" 
			},
			{
				"x": -1.6296274656,
				"y": 1.2613778577,
				"z": -0.1057716431,
				"element": "H" 
			},
			{
				"x": -2.0559187326,
				"y": -0.3550543013,
				"z": -0.6198505238,
				"element": "H" 
			}
		],
		 "valence_orbital": [ 
			{
				"type": "occ",
				"energy": -0.32502,
				"method": "rhf"
			},
			{
				"type": "occ",
				"energy": -0.30633,
				"method": "rhf"
			},
			{
				"type": "occ",
				"energy": -0.30486,
				"method": "rhf"
			},
			{
				"type": "occ",
				"energy": -0.29585,
				"method": "rhf"
			},
			{
				"type": "occ",
				"energy": -0.22992,
				"method": "rhf"
			},
			{
				"type": "unocc",
				"energy": 0.02636,
				"method": "rhf"
			},
			{
				"type": "unocc",
				"energy": 0.0706,
				"method": "rhf"
			},
			{
				"type": "unocc",
				"energy": 0.08717,
				"method": "rhf"
			},
			{
				"type": "unocc",
				"energy": 0.11394,
				"method": "rhf"
			},
			{
				"type": "unocc",
				"energy": 0.13417,
				"method": "rhf"
			}
		],
		"cosmo_sigma_profile": { 
			"-0.025": 0.0,
			"-0.024": 0.0,
			"-0.023": 0.0,
			"-0.022": 0.0,
			"-0.021": 0.0,
			"-0.02": 0.0,
			"-0.019": 0.0,
			"-0.018": 0.0,
			"-0.017": 0.0,
			"-0.016": 0.0,
			"-0.015": 0.0,
			"-0.014": 0.0,
			"-0.013": 0.0,
			"-0.012": 0.0,
			"-0.011": 0.0,
			"-0.01": 0.0,
			"-0.009": 0.0546410693372,
			"-0.008": 1.80170115092,
			"-0.007": 1.99991708763,
			"-0.006": 2.00591052207,
			"-0.005": 2.36837049696,
			"-0.004": 6.16674886687,
			"-0.003": 15.8610199409,
			"-0.002": 24.9126717703,
			"-0.001": 26.9397149438,
			"0.0": 26.1737844339,
			"0.001": 20.2238057017,
			"0.002": 7.68338864591,
			"0.003": 3.23049205036,
			"0.004": 3.51169189216,
			"0.005": 2.74842302136,
			"0.006": 4.01462213289,
			"0.007": 4.05892102574,
			"0.008": 2.20414914085,
			"0.009": 2.24965394657,
			"0.01": 2.09036466354,
			"0.011": 1.20331723986,
			"0.012": 0.40020114035,
			"0.013": 0.0,
			"0.014": 0.0,
			"0.015": 0.0,
			"0.016": 0.0,
			"0.017": 0.0,
			"0.018": 0.0,
			"0.019": 0.0,
			"0.02": 0.0,
			"0.021": 0.0,
			"0.022": 0.0,
			"0.023": 0.0,
			"0.024": 0.0,
			"0.025": 0.0
		}
	}
}
