{
	 "smiles": "CC(C)C1(C)N=C(NC1=O)C1=NC=CC=C1C(O)=O", 
	 "Tm": 444.15, 
	 "num_atms": 34, 
	 "gaussian": { 
		 "optdone": 1, 
		 "sigma_profile": "yes", 
		 "theory": "DFT", 
		 "functional": "B3LYP", 
		 "basiset": "6-31G**", 
		 "properties": { 
			 "R2extent": 5884.1738, 
			 "electric_dipole_moment_norm": 7.17279218157, 
			 "electric_quadrupole_moment_norm": 27.9310734377, 
			 "total_energy": -894.367471415, 
			 "HOMO_LUMO_gap": 0.15685, 
			 "cosmo_polarized_energy": -24.52, 
			 "cosmo_cavitation_energy": 37.05, 
			 "cosmo_dispersion_energy": -26.04, 
			 "cosmo_repulsion_energy": 2.01, 
			 "cosmo_total_nonelectrostatic_energy": 13.03, 
			 "SMD_solvation_energy": 4.89 
		},
		"coords": [
			{
				"x": -2.2251251097,
				"y": -0.675951856,
				"z": -3.5889241018,
				"element": "C" 
			},
			{
				"x": -1.6629454297,
				"y": -0.1176290328,
				"z": -2.2724945481,
				"element": "C" 
			},
			{
				"x": -2.2340885284,
				"y": 1.2777727947,
				"z": -1.9770339493,
				"element": "C" 
			},
			{
				"x": -0.096535467,
				"y": -0.1330078848,
				"z": -2.2203905581,
				"element": "C" 
			},
			{
				"x": 0.5686073767,
				"y": 0.6658682346,
				"z": -3.3550091394,
				"element": "C" 
			},
			{
				"x": 0.344194722,
				"y": 0.4091850338,
				"z": -0.9207248485,
				"element": "N" 
			},
			{
				"x": 0.9770263966,
				"y": -0.5303862483,
				"z": -0.3142579973,
				"element": "C" 
			},
			{
				"x": 1.0781011261,
				"y": -1.7285664368,
				"z": -1.0192846994,
				"element": "N" 
			},
			{
				"x": 0.4364247378,
				"y": -1.5850763215,
				"z": -2.2413484394,
				"element": "C" 
			},
			{
				"x": 0.355645381,
				"y": -2.4327623499,
				"z": -3.1099774948,
				"element": "O" 
			},
			{
				"x": 1.5900200232,
				"y": -0.3248245996,
				"z": 1.0352577809,
				"element": "C" 
			},
			{
				"x": 2.0572819066,
				"y": 0.919451042,
				"z": 1.2216525229,
				"element": "N" 
			},
			{
				"x": 2.5801948187,
				"y": 1.2552671675,
				"z": 2.3998776554,
				"element": "C" 
			},
			{
				"x": 2.6587426111,
				"y": 0.3806896257,
				"z": 3.4844160124,
				"element": "C" 
			},
			{
				"x": 2.1661703609,
				"y": -0.9053393945,
				"z": 3.3095654145,
				"element": "C" 
			},
			{
				"x": 1.6288016708,
				"y": -1.2918056853,
				"z": 2.0707963563,
				"element": "C" 
			},
			{
				"x": 1.1745881568,
				"y": -2.7212913518,
				"z": 1.9485270456,
				"element": "C" 
			},
			{
				"x": 0.4033125147,
				"y": -3.1693636901,
				"z": 2.9665350781,
				"element": "O" 
			},
			{
				"x": 1.4982142248,
				"y": -3.4838721407,
				"z": 1.0656698745,
				"element": "O" 
			},
			{
				"x": -3.3124797413,
				"y": -0.7809857939,
				"z": -3.5093224521,
				"element": "H" 
			},
			{
				"x": -1.7980819142,
				"y": -1.6505548797,
				"z": -3.8334233926,
				"element": "H" 
			},
			{
				"x": -2.024691117,
				"y": 0.0037550487,
				"z": -4.4244890116,
				"element": "H" 
			},
			{
				"x": -1.9872418929,
				"y": -0.7831439288,
				"z": -1.4592727851,
				"element": "H" 
			},
			{
				"x": -1.8320402756,
				"y": 1.6837177346,
				"z": -1.0467103129,
				"element": "H" 
			},
			{
				"x": -2.005854108,
				"y": 1.9831031787,
				"z": -2.7837348086,
				"element": "H" 
			},
			{
				"x": -3.324992475,
				"y": 1.2214280172,
				"z": -1.8953734361,
				"element": "H" 
			},
			{
				"x": 1.6531758805,
				"y": 0.6868876114,
				"z": -3.2151890747,
				"element": "H" 
			},
			{
				"x": 0.2109726852,
				"y": 1.6977267112,
				"z": -3.3618790982,
				"element": "H" 
			},
			{
				"x": 0.3566088765,
				"y": 0.198458048,
				"z": -4.3196359777,
				"element": "H" 
			},
			{
				"x": 1.4857342054,
				"y": -2.5860281293,
				"z": -0.6619672678,
				"element": "H" 
			},
			{
				"x": 2.9583050998,
				"y": 2.2726909609,
				"z": 2.4799693793,
				"element": "H" 
			},
			{
				"x": 3.095544531,
				"y": 0.6948608474,
				"z": 4.4263732173,
				"element": "H" 
			},
			{
				"x": 2.2208048648,
				"y": -1.626700611,
				"z": 4.1204766402,
				"element": "H" 
			},
			{
				"x": 0.1271038879,
				"y": -2.4304717214,
				"z": 3.5279264164,
				"element": "H" 
			}
		],
		 "valence_orbital": [ 
			{
				"type": "occ",
				"energy": -0.29216,
				"method": "rhf"
			},
			{
				"type": "occ",
				"energy": -0.2905,
				"method": "rhf"
			},
			{
				"type": "occ",
				"energy": -0.2796,
				"method": "rhf"
			},
			{
				"type": "occ",
				"energy": -0.24077,
				"method": "rhf"
			},
			{
				"type": "occ",
				"energy": -0.23397,
				"method": "rhf"
			},
			{
				"type": "unocc",
				"energy": -0.07712,
				"method": "rhf"
			},
			{
				"type": "unocc",
				"energy": -0.06816,
				"method": "rhf"
			},
			{
				"type": "unocc",
				"energy": -0.00859,
				"method": "rhf"
			},
			{
				"type": "unocc",
				"energy": 0.00562,
				"method": "rhf"
			},
			{
				"type": "unocc",
				"energy": 0.04715,
				"method": "rhf"
			}
		],
		"cosmo_sigma_profile": { 
			"-0.025": 0.0,
			"-0.024": 0.0,
			"-0.023": 0.0,
			"-0.022": 0.0,
			"-0.021": 0.0,
			"-0.02": 0.1067317828,
			"-0.019": 1.02430174954,
			"-0.018": 0.949722522519,
			"-0.017": 1.36331903642,
			"-0.016": 0.764564564557,
			"-0.015": 1.39102541402,
			"-0.014": 0.772291504805,
			"-0.013": 0.740491605059,
			"-0.012": 1.55937300655,
			"-0.011": 1.05259646184,
			"-0.01": 1.81043099892,
			"-0.009": 4.54355031254,
			"-0.008": 8.69576081271,
			"-0.007": 10.8582549964,
			"-0.006": 8.08854501649,
			"-0.005": 8.81699571463,
			"-0.004": 16.1385728779,
			"-0.003": 22.7946636935,
			"-0.002": 30.1330464824,
			"-0.001": 32.2207908987,
			"0.0": 30.4014059934,
			"0.001": 23.246845916,
			"0.002": 12.6273037104,
			"0.003": 7.16610788062,
			"0.004": 5.99663377521,
			"0.005": 6.24193140677,
			"0.006": 7.31779077075,
			"0.007": 5.50778212249,
			"0.008": 6.19558949856,
			"0.009": 7.53570804379,
			"0.01": 5.78722126857,
			"0.011": 5.97880269773,
			"0.012": 5.78032573314,
			"0.013": 4.12338336033,
			"0.014": 0.940877447398,
			"0.015": 1.19411089372,
			"0.016": 1.09067442185,
			"0.017": 0.964174269402,
			"0.018": 1.21487571559,
			"0.019": 0.391786116075,
			"0.02": 0.0,
			"0.021": 0.0,
			"0.022": 0.0,
			"0.023": 0.0,
			"0.024": 0.0,
			"0.025": 0.0
		}
	}
}
