{
	 "smiles": "CCC#CC(O)=O", 
	 "Tm": 323.15, 
	 "num_atms": 13, 
	 "gaussian": { 
		 "optdone": 1, 
		 "sigma_profile": "yes", 
		 "theory": "DFT", 
		 "functional": "B3LYP", 
		 "basiset": "6-31G**", 
		 "properties": { 
			 "R2extent": 1423.6283, 
			 "electric_dipole_moment_norm": 2.54929302357, 
			 "electric_quadrupole_moment_norm": 12.5230872707, 
			 "total_energy": -344.542629749, 
			 "HOMO_LUMO_gap": 0.23117, 
			 "cosmo_polarized_energy": -9.5, 
			 "cosmo_cavitation_energy": 18.61, 
			 "cosmo_dispersion_energy": -13.37, 
			 "cosmo_repulsion_energy": 1.2, 
			 "cosmo_total_nonelectrostatic_energy": 6.44, 
			 "SMD_solvation_energy": 5.21 
		},
		"coords": [
			{
				"x": -1.6547432313,
				"y": -0.9408594811,
				"z": 0.7073524004,
				"element": "C" 
			},
			{
				"x": -1.4691126448,
				"y": 0.4286081201,
				"z": 0.0278205732,
				"element": "C" 
			},
			{
				"x": -0.1205387955,
				"y": 0.6439050126,
				"z": -0.489721475,
				"element": "C" 
			},
			{
				"x": 1.0039254147,
				"y": 0.80083073,
				"z": -0.911333199,
				"element": "C" 
			},
			{
				"x": 2.3179501782,
				"y": 1.0682169876,
				"z": -1.4415104474,
				"element": "C" 
			},
			{
				"x": 3.1644863507,
				"y": 0.0294315375,
				"z": -1.243018019,
				"element": "O" 
			},
			{
				"x": 2.6455717772,
				"y": 2.0940942805,
				"z": -2.0016057604,
				"element": "O" 
			},
			{
				"x": -2.6805345531,
				"y": -1.0431609061,
				"z": 1.0732751784,
				"element": "H" 
			},
			{
				"x": -1.4561055406,
				"y": -1.7546301169,
				"z": 0.0048712841,
				"element": "H" 
			},
			{
				"x": -0.9733156987,
				"y": -1.0508402531,
				"z": 1.555125881,
				"element": "H" 
			},
			{
				"x": -2.1825073844,
				"y": 0.537973887,
				"z": -0.7995703611,
				"element": "H" 
			},
			{
				"x": -1.7049576603,
				"y": 1.2347078862,
				"z": 0.734933296,
				"element": "H" 
			},
			{
				"x": 4.012881788,
				"y": 0.304222316,
				"z": -1.6309193512,
				"element": "H" 
			}
		],
		 "valence_orbital": [ 
			{
				"type": "occ",
				"energy": -0.37659,
				"method": "rhf"
			},
			{
				"type": "occ",
				"energy": -0.32214,
				"method": "rhf"
			},
			{
				"type": "occ",
				"energy": -0.29919,
				"method": "rhf"
			},
			{
				"type": "occ",
				"energy": -0.28092,
				"method": "rhf"
			},
			{
				"type": "occ",
				"energy": -0.26763,
				"method": "rhf"
			},
			{
				"type": "unocc",
				"energy": -0.03646,
				"method": "rhf"
			},
			{
				"type": "unocc",
				"energy": 0.03094,
				"method": "rhf"
			},
			{
				"type": "unocc",
				"energy": 0.08436,
				"method": "rhf"
			},
			{
				"type": "unocc",
				"energy": 0.10233,
				"method": "rhf"
			},
			{
				"type": "unocc",
				"energy": 0.11255,
				"method": "rhf"
			}
		],
		"cosmo_sigma_profile": { 
			"-0.025": 0.0,
			"-0.024": 0.0,
			"-0.023": 0.0,
			"-0.022": 0.0,
			"-0.021": 0.0,
			"-0.02": 0.0,
			"-0.019": 0.326852011788,
			"-0.018": 0.935658087936,
			"-0.017": 0.795274325958,
			"-0.016": 0.853698085897,
			"-0.015": 0.959449271918,
			"-0.014": 0.568418745728,
			"-0.013": 0.129962863243,
			"-0.012": 1.03898153415,
			"-0.011": 0.974200174823,
			"-0.01": 0.38907482174,
			"-0.009": 0.533332584922,
			"-0.008": 1.12406249524,
			"-0.007": 2.54739739658,
			"-0.006": 5.26994263226,
			"-0.005": 6.98125176377,
			"-0.004": 12.704909435,
			"-0.003": 17.2224459202,
			"-0.002": 12.6623709956,
			"-0.001": 10.2219767677,
			"0.0": 12.2469700789,
			"0.001": 6.22088472893,
			"0.002": 5.95955602129,
			"0.003": 7.4170263687,
			"0.004": 8.91087596034,
			"0.005": 5.768305507,
			"0.006": 3.15339536947,
			"0.007": 3.70570560618,
			"0.008": 3.53593671399,
			"0.009": 3.44193127655,
			"0.01": 3.51719949466,
			"0.011": 5.62524626578,
			"0.012": 2.27852748012,
			"0.013": 0.120086019611,
			"0.014": 0.0,
			"0.015": 0.0,
			"0.016": 0.0,
			"0.017": 0.0,
			"0.018": 0.0,
			"0.019": 0.0,
			"0.02": 0.0,
			"0.021": 0.0,
			"0.022": 0.0,
			"0.023": 0.0,
			"0.024": 0.0,
			"0.025": 0.0
		}
	}
}
