{
	 "smiles": "C1CN(C(N1C1=CC=CC=C1)C1=CC=CO1)C1=CC=CC=C1", 
	 "Tm": 403.15, 
	 "num_atms": 40, 
	 "gaussian": { 
		 "optdone": 1, 
		 "sigma_profile": "yes", 
		 "theory": "DFT", 
		 "functional": "B3LYP", 
		 "basiset": "6-31G**", 
		 "properties": { 
			 "R2extent": 7119.4871, 
			 "electric_dipole_moment_norm": 1.2283442677, 
			 "electric_quadrupole_moment_norm": 8.84899952707, 
			 "total_energy": -919.548742601, 
			 "HOMO_LUMO_gap": 0.18421, 
			 "cosmo_polarized_energy": -10.68, 
			 "cosmo_cavitation_energy": 42.26, 
			 "cosmo_dispersion_energy": -29.06, 
			 "cosmo_repulsion_energy": 2.21, 
			 "cosmo_total_nonelectrostatic_energy": 15.41, 
			 "SMD_solvation_energy": 5.84 
		},
		"coords": [
			{
				"x": 0.1960521468,
				"y": -2.3497408406,
				"z": -1.0120222364,
				"element": "C" 
			},
			{
				"x": -0.0339164803,
				"y": -2.4479428693,
				"z": 0.5068470417,
				"element": "C" 
			},
			{
				"x": -0.1045378265,
				"y": -1.03911844,
				"z": 0.9493783051,
				"element": "N" 
			},
			{
				"x": 0.9101785601,
				"y": -0.355602067,
				"z": 0.1387816418,
				"element": "C" 
			},
			{
				"x": 0.9398795729,
				"y": -1.1022406927,
				"z": -1.1301754006,
				"element": "N" 
			},
			{
				"x": 1.3111362613,
				"y": -0.5460729637,
				"z": -2.3445313544,
				"element": "C" 
			},
			{
				"x": 1.0399652788,
				"y": -1.2161566265,
				"z": -3.5577014811,
				"element": "C" 
			},
			{
				"x": 1.4010101348,
				"y": -0.6487559543,
				"z": -4.7775087098,
				"element": "C" 
			},
			{
				"x": 2.0393811538,
				"y": 0.5911039023,
				"z": -4.8353149096,
				"element": "C" 
			},
			{
				"x": 2.3215582435,
				"y": 1.2534040831,
				"z": -3.6392509722,
				"element": "C" 
			},
			{
				"x": 1.9717590526,
				"y": 0.7009745589,
				"z": -2.4096193623,
				"element": "C" 
			},
			{
				"x": 2.2419691351,
				"y": -0.3145493906,
				"z": 0.8379049445,
				"element": "C" 
			},
			{
				"x": 2.9375221746,
				"y": 0.7050130645,
				"z": 1.4197319366,
				"element": "C" 
			},
			{
				"x": 4.131638016,
				"y": 0.1271359187,
				"z": 1.9647744535,
				"element": "C" 
			},
			{
				"x": 4.0733213447,
				"y": -1.1998883879,
				"z": 1.6722352661,
				"element": "C" 
			},
			{
				"x": 2.9299670939,
				"y": -1.4868613344,
				"z": 0.9838545101,
				"element": "O" 
			},
			{
				"x": -1.420455443,
				"y": -0.47950819,
				"z": 0.9814575105,
				"element": "C" 
			},
			{
				"x": -1.9063035553,
				"y": 0.4503249995,
				"z": 0.0487584743,
				"element": "C" 
			},
			{
				"x": -3.2012153152,
				"y": 0.9605175127,
				"z": 0.1702257623,
				"element": "C" 
			},
			{
				"x": -4.0392050328,
				"y": 0.5396578314,
				"z": 1.20196333,
				"element": "C" 
			},
			{
				"x": -3.5661632084,
				"y": -0.3973704043,
				"z": 2.1245750021,
				"element": "C" 
			},
			{
				"x": -2.2690659986,
				"y": -0.8930705816,
				"z": 2.0224361616,
				"element": "C" 
			},
			{
				"x": -0.7594813856,
				"y": -2.3031771735,
				"z": -1.5573777245,
				"element": "H" 
			},
			{
				"x": 0.7684493756,
				"y": -3.2015371347,
				"z": -1.398839274,
				"element": "H" 
			},
			{
				"x": 0.8153020847,
				"y": -2.9366513032,
				"z": 0.9920702706,
				"element": "H" 
			},
			{
				"x": -0.9494313855,
				"y": -2.9794261915,
				"z": 0.7675424285,
				"element": "H" 
			},
			{
				"x": 0.6157288643,
				"y": 0.6864203097,
				"z": -0.0184373992,
				"element": "H" 
			},
			{
				"x": 0.5439918837,
				"y": -2.1800953754,
				"z": -3.5461003358,
				"element": "H" 
			},
			{
				"x": 1.1756908738,
				"y": -1.1875765029,
				"z": -5.6941846872,
				"element": "H" 
			},
			{
				"x": 2.3179528462,
				"y": 1.0271656395,
				"z": -5.7894269189,
				"element": "H" 
			},
			{
				"x": 2.8304777963,
				"y": 2.2136430324,
				"z": -3.6567155033,
				"element": "H" 
			},
			{
				"x": 2.2415863213,
				"y": 1.2209928291,
				"z": -1.4978084302,
				"element": "H" 
			},
			{
				"x": 2.6342099067,
				"y": 1.7417415298,
				"z": 1.4617311045,
				"element": "H" 
			},
			{
				"x": 4.9240581649,
				"y": 0.6354600253,
				"z": 2.4949718152,
				"element": "H" 
			},
			{
				"x": 4.7297654638,
				"y": -2.0350463749,
				"z": 1.8608789541,
				"element": "H" 
			},
			{
				"x": -1.2923727581,
				"y": 0.76611375,
				"z": -0.7884842941,
				"element": "H" 
			},
			{
				"x": -3.5576102368,
				"y": 1.6802988376,
				"z": -0.5615148153,
				"element": "H" 
			},
			{
				"x": -5.046144848,
				"y": 0.9365713003,
				"z": 1.2884299245,
				"element": "H" 
			},
			{
				"x": -4.2030708432,
				"y": -0.7296002298,
				"z": 2.9397384519,
				"element": "H" 
			},
			{
				"x": -1.8860774331,
				"y": -1.5924500959,
				"z": 2.7597265193,
				"element": "H" 
			}
		],
		 "valence_orbital": [ 
			{
				"type": "occ",
				"energy": -0.24918,
				"method": "rhf"
			},
			{
				"type": "occ",
				"energy": -0.23906,
				"method": "rhf"
			},
			{
				"type": "occ",
				"energy": -0.22778,
				"method": "rhf"
			},
			{
				"type": "occ",
				"energy": -0.2094,
				"method": "rhf"
			},
			{
				"type": "occ",
				"energy": -0.18635,
				"method": "rhf"
			},
			{
				"type": "unocc",
				"energy": -0.00214,
				"method": "rhf"
			},
			{
				"type": "unocc",
				"energy": -0.00019,
				"method": "rhf"
			},
			{
				"type": "unocc",
				"energy": 0.00947,
				"method": "rhf"
			},
			{
				"type": "unocc",
				"energy": 0.01563,
				"method": "rhf"
			},
			{
				"type": "unocc",
				"energy": 0.0249,
				"method": "rhf"
			}
		],
		"cosmo_sigma_profile": { 
			"-0.025": 0.0,
			"-0.024": 0.0,
			"-0.023": 0.0,
			"-0.022": 0.0,
			"-0.021": 0.0,
			"-0.02": 0.0,
			"-0.019": 0.0,
			"-0.018": 0.0,
			"-0.017": 0.0,
			"-0.016": 0.0,
			"-0.015": 0.0,
			"-0.014": 0.0,
			"-0.013": 0.0,
			"-0.012": 0.0,
			"-0.011": 0.0,
			"-0.01": 0.0,
			"-0.009": 0.808577781155,
			"-0.008": 2.09017771413,
			"-0.007": 6.12585637764,
			"-0.006": 12.2393524927,
			"-0.005": 27.6628091505,
			"-0.004": 35.3274445732,
			"-0.003": 38.1166277693,
			"-0.002": 28.2834944542,
			"-0.001": 20.8270125087,
			"0.0": 18.848784108,
			"0.001": 18.3071619045,
			"0.002": 17.9557527186,
			"0.003": 22.6312551041,
			"0.004": 23.4699976707,
			"0.005": 24.6304635411,
			"0.006": 21.4863678645,
			"0.007": 11.636678495,
			"0.008": 4.28794473059,
			"0.009": 1.16742561487,
			"0.01": 0.628336170105,
			"0.011": 0.636059199243,
			"0.012": 0.295238986292,
			"0.013": 0.0,
			"0.014": 0.0,
			"0.015": 0.0,
			"0.016": 0.0,
			"0.017": 0.0,
			"0.018": 0.0,
			"0.019": 0.0,
			"0.02": 0.0,
			"0.021": 0.0,
			"0.022": 0.0,
			"0.023": 0.0,
			"0.024": 0.0,
			"0.025": 0.0
		}
	}
}
