{
	 "smiles": "NCC1OC(OC2C(N)CC(N)C(O)C2OC2OC(CO)C(O)C2O)C(N)C(O)C1O", 
	 "Tm": 467.15, 
	 "num_atms": 65, 
	 "gaussian": { 
		 "optdone": 1, 
		 "sigma_profile": "yes", 
		 "theory": "DFT", 
		 "functional": "B3LYP", 
		 "basiset": "6-31G**", 
		 "properties": { 
			 "R2extent": 11664.3431, 
			 "electric_dipole_moment_norm": 3.51845515248, 
			 "electric_quadrupole_moment_norm": 37.9410046831, 
			 "total_energy": -1639.460207, 
			 "HOMO_LUMO_gap": 0.2627, 
			 "cosmo_polarized_energy": -39.56, 
			 "cosmo_cavitation_energy": 57.3, 
			 "cosmo_dispersion_energy": -37.54, 
			 "cosmo_repulsion_energy": 2.82, 
			 "cosmo_total_nonelectrostatic_energy": 22.58, 
			 "SMD_solvation_energy": 4.37 
		},
		"coords": [
			{
				"x": -1.1305799578,
				"y": -4.2049410712,
				"z": 0.3435625187,
				"element": "N" 
			},
			{
				"x": -2.5083752553,
				"y": -3.7176002919,
				"z": 0.2710632225,
				"element": "C" 
			},
			{
				"x": -2.5336406566,
				"y": -2.2277089502,
				"z": -0.0346288854,
				"element": "C" 
			},
			{
				"x": -1.9796300713,
				"y": -2.0751542958,
				"z": -1.3640877748,
				"element": "O" 
			},
			{
				"x": -1.8210235511,
				"y": -0.7438375926,
				"z": -1.7899975977,
				"element": "C" 
			},
			{
				"x": -0.8482350522,
				"y": -0.0388417385,
				"z": -1.0332444304,
				"element": "O" 
			},
			{
				"x": 0.5021912633,
				"y": -0.4486981527,
				"z": -1.3180173751,
				"element": "C" 
			},
			{
				"x": 1.0813562978,
				"y": 0.4047813646,
				"z": -2.4828971877,
				"element": "C" 
			},
			{
				"x": 0.7342449955,
				"y": 1.8134118092,
				"z": -2.2418254206,
				"element": "N" 
			},
			{
				"x": 2.6302492631,
				"y": 0.3029241698,
				"z": -2.5634621835,
				"element": "C" 
			},
			{
				"x": 3.2238167853,
				"y": -0.9083056441,
				"z": -1.8369627018,
				"element": "C" 
			},
			{
				"x": 2.7721634132,
				"y": -2.1474396514,
				"z": -2.492104867,
				"element": "N" 
			},
			{
				"x": 2.7826572818,
				"y": -0.9289234203,
				"z": -0.3553991322,
				"element": "C" 
			},
			{
				"x": 3.8064213974,
				"y": -0.3044268783,
				"z": 0.4103514747,
				"element": "O" 
			},
			{
				"x": 1.4220566484,
				"y": -0.2406800418,
				"z": -0.1124388849,
				"element": "C" 
			},
			{
				"x": 0.9250161655,
				"y": -0.7783297832,
				"z": 1.1176983258,
				"element": "O" 
			},
			{
				"x": 0.6844434461,
				"y": 0.073582771,
				"z": 2.1959841319,
				"element": "C" 
			},
			{
				"x": -0.5296002199,
				"y": 0.7987286767,
				"z": 2.0217931114,
				"element": "O" 
			},
			{
				"x": -0.3911258115,
				"y": 2.1671835052,
				"z": 2.4297874861,
				"element": "C" 
			},
			{
				"x": -0.4535857375,
				"y": 3.0366350679,
				"z": 1.15951296,
				"element": "C" 
			},
			{
				"x": -1.4827678337,
				"y": 2.5566746837,
				"z": 0.3117539785,
				"element": "O" 
			},
			{
				"x": 0.9344404054,
				"y": 2.2394259607,
				"z": 3.205416696,
				"element": "C" 
			},
			{
				"x": 0.8062176404,
				"y": 1.8117409022,
				"z": 4.5595309085,
				"element": "O" 
			},
			{
				"x": 1.7599723434,
				"y": 1.1439375957,
				"z": 2.5169890864,
				"element": "C" 
			},
			{
				"x": 2.8449392847,
				"y": 0.6424503169,
				"z": 3.2622875583,
				"element": "O" 
			},
			{
				"x": -3.1749352341,
				"y": 0.0111731967,
				"z": -1.7800574594,
				"element": "C" 
			},
			{
				"x": -3.1348287331,
				"y": 1.4279745043,
				"z": -2.1323425284,
				"element": "N" 
			},
			{
				"x": -3.9594694414,
				"y": -0.1846582354,
				"z": -0.4706661604,
				"element": "C" 
			},
			{
				"x": -3.4112677098,
				"y": 0.5361411525,
				"z": 0.6304229767,
				"element": "O" 
			},
			{
				"x": -3.9603168328,
				"y": -1.6534278328,
				"z": -0.0203470346,
				"element": "C" 
			},
			{
				"x": -4.5599796071,
				"y": -1.772075998,
				"z": 1.2580335256,
				"element": "O" 
			},
			{
				"x": -0.6839018496,
				"y": -4.0428206688,
				"z": -0.5556444403,
				"element": "H" 
			},
			{
				"x": -1.1282513952,
				"y": -5.2103344426,
				"z": 0.4943762632,
				"element": "H" 
			},
			{
				"x": -2.9953369231,
				"y": -3.860099274,
				"z": 1.2409532555,
				"element": "H" 
			},
			{
				"x": -3.1324700665,
				"y": -4.2280677526,
				"z": -0.4862429871,
				"element": "H" 
			},
			{
				"x": -1.9003655045,
				"y": -1.6904434854,
				"z": 0.6797349242,
				"element": "H" 
			},
			{
				"x": -1.4750459969,
				"y": -0.8316209328,
				"z": -2.8299128712,
				"element": "H" 
			},
			{
				"x": 0.5001822931,
				"y": -1.5032794,
				"z": -1.6008119906,
				"element": "H" 
			},
			{
				"x": 0.650186459,
				"y": 0.0133563515,
				"z": -3.4191199059,
				"element": "H" 
			},
			{
				"x": 1.0319502452,
				"y": 2.3854584126,
				"z": -3.0276152787,
				"element": "H" 
			},
			{
				"x": -0.2716704796,
				"y": 1.9124997904,
				"z": -2.1464160765,
				"element": "H" 
			},
			{
				"x": 2.9584978747,
				"y": 0.3088870208,
				"z": -3.6107073317,
				"element": "H" 
			},
			{
				"x": 3.044414985,
				"y": 1.2038257767,
				"z": -2.0982555452,
				"element": "H" 
			},
			{
				"x": 4.3198602786,
				"y": -0.8019958615,
				"z": -1.8230496456,
				"element": "H" 
			},
			{
				"x": 3.0644911034,
				"y": -2.1445005374,
				"z": -3.4669779936,
				"element": "H" 
			},
			{
				"x": 3.2223400831,
				"y": -2.9513170351,
				"z": -2.0596634033,
				"element": "H" 
			},
			{
				"x": 2.6544772244,
				"y": -1.9777718814,
				"z": -0.0464354554,
				"element": "H" 
			},
			{
				"x": 3.5948764974,
				"y": -0.4002018845,
				"z": 1.3522736643,
				"element": "H" 
			},
			{
				"x": 1.586062139,
				"y": 0.8359471497,
				"z": -0.0319191814,
				"element": "H" 
			},
			{
				"x": 0.5748941493,
				"y": -0.6059604932,
				"z": 3.0502014383,
				"element": "H" 
			},
			{
				"x": -1.244596597,
				"y": 2.4071361465,
				"z": 3.0775994594,
				"element": "H" 
			},
			{
				"x": -0.6823277755,
				"y": 4.0771873367,
				"z": 1.4153292339,
				"element": "H" 
			},
			{
				"x": 0.5121175714,
				"y": 3.0223486086,
				"z": 0.6309394221,
				"element": "H" 
			},
			{
				"x": -1.3377375811,
				"y": 1.590541206,
				"z": 0.2564372842,
				"element": "H" 
			},
			{
				"x": 1.407992245,
				"y": 3.2294654461,
				"z": 3.1469791219,
				"element": "H" 
			},
			{
				"x": 0.2675495323,
				"y": 2.4465957578,
				"z": 5.0470521517,
				"element": "H" 
			},
			{
				"x": 2.1898645739,
				"y": 1.5456173352,
				"z": 1.5989369255,
				"element": "H" 
			},
			{
				"x": 2.5276491396,
				"y": 0.5279597288,
				"z": 4.1713138391,
				"element": "H" 
			},
			{
				"x": -3.7694789121,
				"y": -0.4964545645,
				"z": -2.5510631344,
				"element": "H" 
			},
			{
				"x": -2.8413900186,
				"y": 1.5590229607,
				"z": -3.0957597008,
				"element": "H" 
			},
			{
				"x": -2.4906330693,
				"y": 1.9467491632,
				"z": -1.5400113335,
				"element": "H" 
			},
			{
				"x": -4.9944083701,
				"y": 0.1412813003,
				"z": -0.6477891814,
				"element": "H" 
			},
			{
				"x": -3.4636934009,
				"y": 1.4888269122,
				"z": 0.4713778241,
				"element": "H" 
			},
			{
				"x": -4.5730324532,
				"y": -2.2361212368,
				"z": -0.720085278,
				"element": "H" 
			},
			{
				"x": -4.2200909272,
				"y": -1.0153330522,
				"z": 1.7622675901,
				"element": "H" 
			}
		],
		 "valence_orbital": [ 
			{
				"type": "occ",
				"energy": -0.24421,
				"method": "rhf"
			},
			{
				"type": "occ",
				"energy": -0.23961,
				"method": "rhf"
			},
			{
				"type": "occ",
				"energy": -0.22938,
				"method": "rhf"
			},
			{
				"type": "occ",
				"energy": -0.22623,
				"method": "rhf"
			},
			{
				"type": "occ",
				"energy": -0.21472,
				"method": "rhf"
			},
			{
				"type": "unocc",
				"energy": 0.04798,
				"method": "rhf"
			},
			{
				"type": "unocc",
				"energy": 0.05677,
				"method": "rhf"
			},
			{
				"type": "unocc",
				"energy": 0.06987,
				"method": "rhf"
			},
			{
				"type": "unocc",
				"energy": 0.07612,
				"method": "rhf"
			},
			{
				"type": "unocc",
				"energy": 0.08843,
				"method": "rhf"
			}
		],
		"cosmo_sigma_profile": { 
			"-0.025": 0.0,
			"-0.024": 0.0,
			"-0.023": 0.0,
			"-0.022": 0.0,
			"-0.021": 0.0,
			"-0.02": 0.0,
			"-0.019": 0.0,
			"-0.018": 0.0,
			"-0.017": 0.44351541608,
			"-0.016": 1.16935181189,
			"-0.015": 1.2749206832,
			"-0.014": 1.11141282092,
			"-0.013": 1.49960301133,
			"-0.012": 1.6742037686,
			"-0.011": 2.93924518516,
			"-0.01": 6.88523023445,
			"-0.009": 10.0126869342,
			"-0.008": 14.1064558794,
			"-0.007": 18.5502252691,
			"-0.006": 28.8478617143,
			"-0.005": 32.1673674966,
			"-0.004": 27.1486399245,
			"-0.003": 29.4208397698,
			"-0.002": 34.5116669034,
			"-0.001": 25.1080409926,
			"0.0": 21.9626253008,
			"0.001": 18.8451692216,
			"0.002": 17.8870921808,
			"0.003": 16.1053889925,
			"0.004": 15.204129818,
			"0.005": 16.004533455,
			"0.006": 15.5380120848,
			"0.007": 14.8119282516,
			"0.008": 13.3443562515,
			"0.009": 9.93990503289,
			"0.01": 9.76212709085,
			"0.011": 8.30772459697,
			"0.012": 7.84387548494,
			"0.013": 7.20637161357,
			"0.014": 4.61079093309,
			"0.015": 1.46882835292,
			"0.016": 1.10225430295,
			"0.017": 1.04078477497,
			"0.018": 1.12572569147,
			"0.019": 0.393276791353,
			"0.02": 0.115845554887,
			"0.021": 0.0,
			"0.022": 0.0,
			"0.023": 0.0,
			"0.024": 0.0,
			"0.025": 0.0
		}
	}
}
