{
	 "smiles": "CC(=O)OC1=C(NC2=CC=CC=C12)C1=NC=CC=C1", 
	 "Tm": 403.15, 
	 "num_atms": 31, 
	 "gaussian": { 
		 "optdone": 1, 
		 "sigma_profile": "yes", 
		 "theory": "DFT", 
		 "functional": "B3LYP", 
		 "basiset": "6-31G**", 
		 "properties": { 
			 "R2extent": 5646.6263, 
			 "electric_dipole_moment_norm": 3.51514085209, 
			 "electric_quadrupole_moment_norm": 16.7022511402, 
			 "total_energy": -838.790561597, 
			 "HOMO_LUMO_gap": 0.14955, 
			 "cosmo_polarized_energy": -17.67, 
			 "cosmo_cavitation_energy": 36.01, 
			 "cosmo_dispersion_energy": -25.27, 
			 "cosmo_repulsion_energy": 1.92, 
			 "cosmo_total_nonelectrostatic_energy": 12.66, 
			 "SMD_solvation_energy": 6.34 
		},
		"coords": [
			{
				"x": -0.6517109994,
				"y": -0.5767791709,
				"z": 4.3278900629,
				"element": "C" 
			},
			{
				"x": -0.1046573109,
				"y": -0.2550885494,
				"z": 2.9625445914,
				"element": "C" 
			},
			{
				"x": 0.8786839066,
				"y": -0.7227283591,
				"z": 2.4525242439,
				"element": "O" 
			},
			{
				"x": -0.91235429,
				"y": 0.6857234053,
				"z": 2.3557296255,
				"element": "O" 
			},
			{
				"x": -0.6863958712,
				"y": 0.9604824067,
				"z": 1.0255224756,
				"element": "C" 
			},
			{
				"x": -1.1334040573,
				"y": 0.2207766746,
				"z": -0.0544111169,
				"element": "C" 
			},
			{
				"x": -0.7957059134,
				"y": 0.9289097485,
				"z": -1.2097987051,
				"element": "N" 
			},
			{
				"x": -0.1069382468,
				"y": 2.074753676,
				"z": -0.8723407248,
				"element": "C" 
			},
			{
				"x": 0.4590921044,
				"y": 3.0656054514,
				"z": -1.682399386,
				"element": "C" 
			},
			{
				"x": 1.0787233888,
				"y": 4.1353721815,
				"z": -1.0475802331,
				"element": "C" 
			},
			{
				"x": 1.1351798121,
				"y": 4.2242405469,
				"z": 0.3610178849,
				"element": "C" 
			},
			{
				"x": 0.5798883293,
				"y": 3.2387665259,
				"z": 1.1636038873,
				"element": "C" 
			},
			{
				"x": -0.0424510844,
				"y": 2.1403028123,
				"z": 0.5450942496,
				"element": "C" 
			},
			{
				"x": -1.8828831273,
				"y": -1.0310311511,
				"z": -0.1038473394,
				"element": "C" 
			},
			{
				"x": -1.9520265224,
				"y": -1.7485450957,
				"z": 1.0380065371,
				"element": "N" 
			},
			{
				"x": -2.6217562249,
				"y": -2.9018437165,
				"z": 1.0174573332,
				"element": "C" 
			},
			{
				"x": -3.2538541604,
				"y": -3.4208060321,
				"z": -0.1142621091,
				"element": "C" 
			},
			{
				"x": -3.1964262941,
				"y": -2.6738969472,
				"z": -1.290301725,
				"element": "C" 
			},
			{
				"x": -2.511642916,
				"y": -1.4637721579,
				"z": -1.2880410669,
				"element": "C" 
			},
			{
				"x": -1.5744488243,
				"y": -1.1515547957,
				"z": 4.2023168978,
				"element": "H" 
			},
			{
				"x": 0.0764986072,
				"y": -1.1660949582,
				"z": 4.8843863648,
				"element": "H" 
			},
			{
				"x": -0.9016898824,
				"y": 0.3377823336,
				"z": 4.8716761725,
				"element": "H" 
			},
			{
				"x": -0.7897164427,
				"y": 0.5226196583,
				"z": -2.1313560928,
				"element": "H" 
			},
			{
				"x": 0.4130179541,
				"y": 3.0037312803,
				"z": -2.765996557,
				"element": "H" 
			},
			{
				"x": 1.5265994719,
				"y": 4.9218561701,
				"z": -1.6478287152,
				"element": "H" 
			},
			{
				"x": 1.624671588,
				"y": 5.0789016116,
				"z": 0.8182730585,
				"element": "H" 
			},
			{
				"x": 0.6248828347,
				"y": 3.3039081829,
				"z": 2.2461877563,
				"element": "H" 
			},
			{
				"x": -2.6529222163,
				"y": -3.4485580764,
				"z": 1.958701065,
				"element": "H" 
			},
			{
				"x": -3.7759320172,
				"y": -4.3707762027,
				"z": -0.0687444511,
				"element": "H" 
			},
			{
				"x": -3.6854254178,
				"y": -3.0231585943,
				"z": -2.1952165598,
				"element": "H" 
			},
			{
				"x": -2.4907961778,
				"y": -0.8513988586,
				"z": -2.1838074242,
				"element": "H" 
			}
		],
		 "valence_orbital": [ 
			{
				"type": "occ",
				"energy": -0.26927,
				"method": "rhf"
			},
			{
				"type": "occ",
				"energy": -0.26178,
				"method": "rhf"
			},
			{
				"type": "occ",
				"energy": -0.2577,
				"method": "rhf"
			},
			{
				"type": "occ",
				"energy": -0.21982,
				"method": "rhf"
			},
			{
				"type": "occ",
				"energy": -0.19808,
				"method": "rhf"
			},
			{
				"type": "unocc",
				"energy": -0.04853,
				"method": "rhf"
			},
			{
				"type": "unocc",
				"energy": -0.02493,
				"method": "rhf"
			},
			{
				"type": "unocc",
				"energy": 0.01049,
				"method": "rhf"
			},
			{
				"type": "unocc",
				"energy": 0.02205,
				"method": "rhf"
			},
			{
				"type": "unocc",
				"energy": 0.02797,
				"method": "rhf"
			}
		],
		"cosmo_sigma_profile": { 
			"-0.025": 0.0,
			"-0.024": 0.0,
			"-0.023": 0.0,
			"-0.022": 0.0,
			"-0.021": 0.0,
			"-0.02": 0.0,
			"-0.019": 0.0,
			"-0.018": 0.0,
			"-0.017": 0.0320946807268,
			"-0.016": 0.780684814981,
			"-0.015": 1.26881883451,
			"-0.014": 1.54242103967,
			"-0.013": 0.765625777932,
			"-0.012": 1.52039716497,
			"-0.011": 2.04016762849,
			"-0.01": 1.07247998614,
			"-0.009": 1.65426408948,
			"-0.008": 2.13916815865,
			"-0.007": 7.75950985459,
			"-0.006": 17.1816492868,
			"-0.005": 21.1231258128,
			"-0.004": 21.2914197199,
			"-0.003": 21.1437459253,
			"-0.002": 20.2709104598,
			"-0.001": 16.9325566399,
			"0.0": 13.8650009838,
			"0.001": 18.0183973706,
			"0.002": 24.2701326873,
			"0.003": 24.4766082509,
			"0.004": 15.3069014367,
			"0.005": 13.4700372338,
			"0.006": 13.248508174,
			"0.007": 4.43116806812,
			"0.008": 4.65153574783,
			"0.009": 4.03202732062,
			"0.01": 4.30895165697,
			"0.011": 5.4002514589,
			"0.012": 4.44943197342,
			"0.013": 0.588623916377,
			"0.014": 0.0,
			"0.015": 0.0,
			"0.016": 0.0,
			"0.017": 0.0,
			"0.018": 0.0,
			"0.019": 0.0,
			"0.02": 0.0,
			"0.021": 0.0,
			"0.022": 0.0,
			"0.023": 0.0,
			"0.024": 0.0,
			"0.025": 0.0
		}
	}
}
