{
	 "smiles": "CC(=O)NC1=CC=C(Cl)C=C1[N+]([O-])=O", 
	 "Tm": 371.15, 
	 "num_atms": 21, 
	 "gaussian": { 
		 "optdone": 1, 
		 "sigma_profile": "yes", 
		 "theory": "DFT", 
		 "functional": "B3LYP", 
		 "basiset": "6-31G**", 
		 "properties": { 
			 "R2extent": 5165.3334, 
			 "electric_dipole_moment_norm": 4.40837780709, 
			 "electric_quadrupole_moment_norm": 12.7515174689, 
			 "total_energy": -1104.33870009, 
			 "HOMO_LUMO_gap": 0.1476, 
			 "cosmo_polarized_energy": -15.45, 
			 "cosmo_cavitation_energy": 27.89, 
			 "cosmo_dispersion_energy": -20.1, 
			 "cosmo_repulsion_energy": 1.58, 
			 "cosmo_total_nonelectrostatic_energy": 9.37, 
			 "SMD_solvation_energy": 7.62 
		},
		"coords": [
			{
				"x": -0.7013285788,
				"y": -2.3262151332,
				"z": -1.340107726,
				"element": "C" 
			},
			{
				"x": -0.9301099512,
				"y": -2.0464123171,
				"z": 0.1293896677,
				"element": "C" 
			},
			{
				"x": -2.0036617173,
				"y": -2.2371672381,
				"z": 0.6718576842,
				"element": "O" 
			},
			{
				"x": 0.1419021636,
				"y": -1.612869636,
				"z": 0.9136543699,
				"element": "N" 
			},
			{
				"x": 1.4782175804,
				"y": -1.3201708342,
				"z": 0.6135065123,
				"element": "C" 
			},
			{
				"x": 2.4647932385,
				"y": -1.8626271514,
				"z": 1.4592994055,
				"element": "C" 
			},
			{
				"x": 3.8202121747,
				"y": -1.643623918,
				"z": 1.2570812783,
				"element": "C" 
			},
			{
				"x": 4.2358561948,
				"y": -0.885998611,
				"z": 0.158632898,
				"element": "C" 
			},
			{
				"x": 5.9424778132,
				"y": -0.6320256675,
				"z": -0.1315659383,
				"element": "Cl" 
			},
			{
				"x": 3.3000207643,
				"y": -0.3273808949,
				"z": -0.6988217697,
				"element": "C" 
			},
			{
				"x": 1.9369490284,
				"y": -0.5160324294,
				"z": -0.4517144047,
				"element": "C" 
			},
			{
				"x": 1.0288619371,
				"y": 0.2483967026,
				"z": -1.3269011014,
				"element": "N" 
			},
			{
				"x": 1.4406377251,
				"y": 0.5378928517,
				"z": -2.449119984,
				"element": "O" 
			},
			{
				"x": -0.0641844086,
				"y": 0.5803201033,
				"z": -0.8740739114,
				"element": "O" 
			},
			{
				"x": 0.3487227989,
				"y": -2.456955987,
				"z": -1.6100858494,
				"element": "H" 
			},
			{
				"x": -1.2554994304,
				"y": -3.2331529635,
				"z": -1.5880920846,
				"element": "H" 
			},
			{
				"x": -1.1184433155,
				"y": -1.5055577996,
				"z": -1.929852152,
				"element": "H" 
			},
			{
				"x": -0.1013397828,
				"y": -1.6244066542,
				"z": 1.8970830121,
				"element": "H" 
			},
			{
				"x": 2.1414298133,
				"y": -2.4919343682,
				"z": 2.2829394978,
				"element": "H" 
			},
			{
				"x": 4.5525640516,
				"y": -2.0763543642,
				"z": 1.9293840662,
				"element": "H" 
			},
			{
				"x": 3.5973219006,
				"y": 0.2766763101,
				"z": -1.5458934704,
				"element": "H" 
			}
		],
		 "valence_orbital": [ 
			{
				"type": "occ",
				"energy": -0.31491,
				"method": "rhf"
			},
			{
				"type": "occ",
				"energy": -0.30486,
				"method": "rhf"
			},
			{
				"type": "occ",
				"energy": -0.295,
				"method": "rhf"
			},
			{
				"type": "occ",
				"energy": -0.26684,
				"method": "rhf"
			},
			{
				"type": "occ",
				"energy": -0.25156,
				"method": "rhf"
			},
			{
				"type": "unocc",
				"energy": -0.10396,
				"method": "rhf"
			},
			{
				"type": "unocc",
				"energy": -0.05093,
				"method": "rhf"
			},
			{
				"type": "unocc",
				"energy": -0.02763,
				"method": "rhf"
			},
			{
				"type": "unocc",
				"energy": 0.00651,
				"method": "rhf"
			},
			{
				"type": "unocc",
				"energy": 0.01537,
				"method": "rhf"
			}
		],
		"cosmo_sigma_profile": { 
			"-0.025": 0.0,
			"-0.024": 0.0,
			"-0.023": 0.0,
			"-0.022": 0.0,
			"-0.021": 0.0,
			"-0.02": 0.0,
			"-0.019": 0.0,
			"-0.018": 0.0,
			"-0.017": 0.0,
			"-0.016": 0.116228110802,
			"-0.015": 1.07938423349,
			"-0.014": 1.05963471268,
			"-0.013": 1.06868657792,
			"-0.012": 1.41007812065,
			"-0.011": 1.21637599776,
			"-0.01": 1.32062676478,
			"-0.009": 3.83066710834,
			"-0.008": 6.68684194178,
			"-0.007": 7.64199707286,
			"-0.006": 11.1600108296,
			"-0.005": 12.1984915994,
			"-0.004": 12.2637032737,
			"-0.003": 14.8800450929,
			"-0.002": 20.0462949604,
			"-0.001": 19.2346447233,
			"0.0": 19.7178844539,
			"0.001": 11.4059219871,
			"0.002": 9.02290978977,
			"0.003": 10.7001206688,
			"0.004": 12.4325569605,
			"0.005": 5.72640270797,
			"0.006": 6.25425637142,
			"0.007": 10.2591589093,
			"0.008": 5.81706925626,
			"0.009": 4.54378727299,
			"0.01": 2.29815518403,
			"0.011": 2.07077325402,
			"0.012": 4.20660123789,
			"0.013": 4.55903887833,
			"0.014": 1.1711576463,
			"0.015": 0.0,
			"0.016": 0.0,
			"0.017": 0.0,
			"0.018": 0.0,
			"0.019": 0.0,
			"0.02": 0.0,
			"0.021": 0.0,
			"0.022": 0.0,
			"0.023": 0.0,
			"0.024": 0.0,
			"0.025": 0.0
		}
	}
}
