{
	 "smiles": "CC1=NC(=NO1)C1=CC(=CC=C1)N=C=O", 
	 "Tm": 346.15, 
	 "num_atms": 22, 
	 "gaussian": { 
		 "optdone": 1, 
		 "sigma_profile": "yes", 
		 "theory": "DFT", 
		 "functional": "B3LYP", 
		 "basiset": "6-31G**", 
		 "properties": { 
			 "R2extent": 4976.1403, 
			 "electric_dipole_moment_norm": 1.74892791161, 
			 "electric_quadrupole_moment_norm": 22.7642140664, 
			 "total_energy": -699.957205, 
			 "HOMO_LUMO_gap": 0.18617, 
			 "cosmo_polarized_energy": -9.12, 
			 "cosmo_cavitation_energy": 29.01, 
			 "cosmo_dispersion_energy": -20.99, 
			 "cosmo_repulsion_energy": 1.64, 
			 "cosmo_total_nonelectrostatic_energy": 9.67, 
			 "SMD_solvation_energy": 6.01 
		},
		"coords": [
			{
				"x": -0.1331599634,
				"y": 2.8656295434,
				"z": -4.3312571836,
				"element": "C" 
			},
			{
				"x": -0.1845289317,
				"y": 1.7811735882,
				"z": -3.3145339482,
				"element": "C" 
			},
			{
				"x": -0.824146602,
				"y": 1.7570269051,
				"z": -2.1831433084,
				"element": "N" 
			},
			{
				"x": -0.4993398424,
				"y": 0.5101992406,
				"z": -1.6808119336,
				"element": "C" 
			},
			{
				"x": 0.2940991874,
				"y": -0.1946393437,
				"z": -2.4561222068,
				"element": "N" 
			},
			{
				"x": 0.509131842,
				"y": 0.6525765667,
				"z": -3.5537243335,
				"element": "O" 
			},
			{
				"x": -0.9989153557,
				"y": 0.0149360515,
				"z": -0.3901259015,
				"element": "C" 
			},
			{
				"x": -1.8426797775,
				"y": 0.8306632066,
				"z": 0.3703998465,
				"element": "C" 
			},
			{
				"x": -2.32747203,
				"y": 0.3741279884,
				"z": 1.6023318368,
				"element": "C" 
			},
			{
				"x": -1.9687408796,
				"y": -0.895107279,
				"z": 2.0715187639,
				"element": "C" 
			},
			{
				"x": -1.1265485287,
				"y": -1.7018303408,
				"z": 1.3061465732,
				"element": "C" 
			},
			{
				"x": -0.6388913811,
				"y": -1.25798564,
				"z": 0.0802142793,
				"element": "C" 
			},
			{
				"x": -3.1729250763,
				"y": 1.1564017978,
				"z": 2.3947294634,
				"element": "N" 
			},
			{
				"x": -3.7067265209,
				"y": 2.2423345974,
				"z": 2.3873738427,
				"element": "C" 
			},
			{
				"x": -4.2822956014,
				"y": 3.2632819736,
				"z": 2.5075640853,
				"element": "O" 
			},
			{
				"x": -0.5125006371,
				"y": 2.5090309584,
				"z": -5.2937284838,
				"element": "H" 
			},
			{
				"x": -0.7407483774,
				"y": 3.7042084142,
				"z": -3.9914966492,
				"element": "H" 
			},
			{
				"x": 0.8969583481,
				"y": 3.2018899431,
				"z": -4.4834873229,
				"element": "H" 
			},
			{
				"x": -2.114407711,
				"y": 1.8122629166,
				"z": -0.0021244477,
				"element": "H" 
			},
			{
				"x": -2.3538254673,
				"y": -1.2318954885,
				"z": 3.027866995,
				"element": "H" 
			},
			{
				"x": -0.8500104489,
				"y": -2.6856255459,
				"z": 1.6725578381,
				"element": "H" 
			},
			{
				"x": 0.0159737548,
				"y": -1.8826600536,
				"z": -0.5170478048,
				"element": "H" 
			}
		],
		 "valence_orbital": [ 
			{
				"type": "occ",
				"energy": -0.31079,
				"method": "rhf"
			},
			{
				"type": "occ",
				"energy": -0.3013,
				"method": "rhf"
			},
			{
				"type": "occ",
				"energy": -0.29774,
				"method": "rhf"
			},
			{
				"type": "occ",
				"energy": -0.25803,
				"method": "rhf"
			},
			{
				"type": "occ",
				"energy": -0.23919,
				"method": "rhf"
			},
			{
				"type": "unocc",
				"energy": -0.05302,
				"method": "rhf"
			},
			{
				"type": "unocc",
				"energy": -0.02688,
				"method": "rhf"
			},
			{
				"type": "unocc",
				"energy": -0.00989,
				"method": "rhf"
			},
			{
				"type": "unocc",
				"energy": 0.01011,
				"method": "rhf"
			},
			{
				"type": "unocc",
				"energy": 0.05252,
				"method": "rhf"
			}
		],
		"cosmo_sigma_profile": { 
			"-0.025": 0.0,
			"-0.024": 0.0,
			"-0.023": 0.0,
			"-0.022": 0.0,
			"-0.021": 0.0,
			"-0.02": 0.0,
			"-0.019": 0.0,
			"-0.018": 0.0,
			"-0.017": 0.0,
			"-0.016": 0.0,
			"-0.015": 0.0,
			"-0.014": 0.0,
			"-0.013": 0.0,
			"-0.012": 0.0,
			"-0.011": 0.0,
			"-0.01": 0.0,
			"-0.009": 0.329166646071,
			"-0.008": 2.78311811021,
			"-0.007": 11.4506533645,
			"-0.006": 13.2722983711,
			"-0.005": 16.6179052659,
			"-0.004": 15.8467789692,
			"-0.003": 20.7674204697,
			"-0.002": 16.9033681977,
			"-0.001": 13.7518724294,
			"0.0": 17.0235621134,
			"0.001": 20.987057817,
			"0.002": 19.8771647098,
			"0.003": 16.2449012593,
			"0.004": 9.20741454454,
			"0.005": 6.38143885827,
			"0.006": 9.00054813467,
			"0.007": 11.7639010842,
			"0.008": 4.4040627217,
			"0.009": 2.50978667897,
			"0.01": 2.24161306062,
			"0.011": 2.24576577071,
			"0.012": 1.40336459896,
			"0.013": 0.145057212876,
			"0.014": 0.0,
			"0.015": 0.0,
			"0.016": 0.0,
			"0.017": 0.0,
			"0.018": 0.0,
			"0.019": 0.0,
			"0.02": 0.0,
			"0.021": 0.0,
			"0.022": 0.0,
			"0.023": 0.0,
			"0.024": 0.0,
			"0.025": 0.0
		}
	}
}
