{
	 "smiles": "COC1=CC=C(C=C1)C1=NC(CO)=NO1", 
	 "Tm": 415.15, 
	 "num_atms": 25, 
	 "gaussian": { 
		 "optdone": 1, 
		 "sigma_profile": "yes", 
		 "theory": "DFT", 
		 "functional": "B3LYP", 
		 "basiset": "6-31G**", 
		 "properties": { 
			 "R2extent": 5297.535, 
			 "electric_dipole_moment_norm": 5.06867459204, 
			 "electric_quadrupole_moment_norm": 15.5315120075, 
			 "total_energy": -722.208798559, 
			 "HOMO_LUMO_gap": 0.17712, 
			 "cosmo_polarized_energy": -12.09, 
			 "cosmo_cavitation_energy": 30.03, 
			 "cosmo_dispersion_energy": -22.52, 
			 "cosmo_repulsion_energy": 1.76, 
			 "cosmo_total_nonelectrostatic_energy": 9.26, 
			 "SMD_solvation_energy": 4.24 
		},
		"coords": [
			{
				"x": -3.8730977298,
				"y": -2.4593871621,
				"z": -1.5909085428,
				"element": "C" 
			},
			{
				"x": -3.3511986019,
				"y": -1.1459028614,
				"z": -1.4351141624,
				"element": "O" 
			},
			{
				"x": -2.1780288453,
				"y": -0.9861260956,
				"z": -0.7713457615,
				"element": "C" 
			},
			{
				"x": -1.4278485234,
				"y": -2.033346761,
				"z": -0.2162957096,
				"element": "C" 
			},
			{
				"x": -0.2349662441,
				"y": -1.7510688516,
				"z": 0.4449248993,
				"element": "C" 
			},
			{
				"x": 0.225182459,
				"y": -0.4328548667,
				"z": 0.5624936382,
				"element": "C" 
			},
			{
				"x": -0.5349134313,
				"y": 0.6117434474,
				"z": 0.0016876672,
				"element": "C" 
			},
			{
				"x": -1.7208147527,
				"y": 0.3392362633,
				"z": -0.656384533,
				"element": "C" 
			},
			{
				"x": 1.4690362883,
				"y": -0.12150206,
				"z": 1.2504898438,
				"element": "C" 
			},
			{
				"x": 2.0202146991,
				"y": 1.0524399075,
				"z": 1.4347414374,
				"element": "N" 
			},
			{
				"x": 3.1623226176,
				"y": 0.7343087995,
				"z": 2.1253026322,
				"element": "C" 
			},
			{
				"x": 4.1403505655,
				"y": 1.7567985034,
				"z": 2.6285000115,
				"element": "C" 
			},
			{
				"x": 5.3048191316,
				"y": 1.1879962768,
				"z": 3.1817568433,
				"element": "O" 
			},
			{
				"x": 3.3287520961,
				"y": -0.5413933945,
				"z": 2.368882558,
				"element": "N" 
			},
			{
				"x": 2.1912174394,
				"y": -1.128669596,
				"z": 1.7851290408,
				"element": "O" 
			},
			{
				"x": -4.8050248683,
				"y": -2.3467569686,
				"z": -2.1460291469,
				"element": "H" 
			},
			{
				"x": -4.0835799888,
				"y": -2.9264255173,
				"z": -0.6209130433,
				"element": "H" 
			},
			{
				"x": -3.1878299846,
				"y": -3.0997536076,
				"z": -2.1597880922,
				"element": "H" 
			},
			{
				"x": -1.7613756539,
				"y": -3.0608490307,
				"z": -0.2937056383,
				"element": "H" 
			},
			{
				"x": 0.3445943904,
				"y": -2.5618800462,
				"z": 0.873418075,
				"element": "H" 
			},
			{
				"x": -0.1759761544,
				"y": 1.6311321593,
				"z": 0.0936325529,
				"element": "H" 
			},
			{
				"x": -2.3186167276,
				"y": 1.1313470856,
				"z": -1.0943386501,
				"element": "H" 
			},
			{
				"x": 4.4441352504,
				"y": 2.3984347368,
				"z": 1.7938983487,
				"element": "H" 
			},
			{
				"x": 3.6079586128,
				"y": 2.405147863,
				"z": 3.3453936708,
				"element": "H" 
			},
			{
				"x": 5.0484879558,
				"y": 0.3794317767,
				"z": 3.6464720611,
				"element": "H" 
			}
		],
		 "valence_orbital": [ 
			{
				"type": "occ",
				"energy": -0.29719,
				"method": "rhf"
			},
			{
				"type": "occ",
				"energy": -0.2924,
				"method": "rhf"
			},
			{
				"type": "occ",
				"energy": -0.27134,
				"method": "rhf"
			},
			{
				"type": "occ",
				"energy": -0.26947,
				"method": "rhf"
			},
			{
				"type": "occ",
				"energy": -0.23021,
				"method": "rhf"
			},
			{
				"type": "unocc",
				"energy": -0.05309,
				"method": "rhf"
			},
			{
				"type": "unocc",
				"energy": -0.01748,
				"method": "rhf"
			},
			{
				"type": "unocc",
				"energy": 0.01995,
				"method": "rhf"
			},
			{
				"type": "unocc",
				"energy": 0.06356,
				"method": "rhf"
			},
			{
				"type": "unocc",
				"energy": 0.06616,
				"method": "rhf"
			}
		],
		"cosmo_sigma_profile": { 
			"-0.025": 0.0,
			"-0.024": 0.0,
			"-0.023": 0.0,
			"-0.022": 0.0,
			"-0.021": 0.0,
			"-0.02": 0.0,
			"-0.019": 0.0,
			"-0.018": 0.0,
			"-0.017": 0.0,
			"-0.016": 0.0,
			"-0.015": 0.0,
			"-0.014": 0.462080966087,
			"-0.013": 0.578515548468,
			"-0.012": 0.831155627576,
			"-0.011": 0.864408381468,
			"-0.01": 0.776324788113,
			"-0.009": 0.928845858209,
			"-0.008": 0.694391353972,
			"-0.007": 7.82702295359,
			"-0.006": 20.1736809608,
			"-0.005": 21.4770430982,
			"-0.004": 18.7076245356,
			"-0.003": 17.4664529959,
			"-0.002": 16.3502347747,
			"-0.001": 13.7972784222,
			"0.0": 13.8721477852,
			"0.001": 15.3207924559,
			"0.002": 17.1533724269,
			"0.003": 18.6057268326,
			"0.004": 10.3751262483,
			"0.005": 5.68397966504,
			"0.006": 7.56098804834,
			"0.007": 7.00112489458,
			"0.008": 5.13409352862,
			"0.009": 4.8644808442,
			"0.01": 4.06274017004,
			"0.011": 3.69311377787,
			"0.012": 2.44626142392,
			"0.013": 2.89591510813,
			"0.014": 0.367085662483,
			"0.015": 0.0,
			"0.016": 0.0,
			"0.017": 0.0,
			"0.018": 0.0,
			"0.019": 0.0,
			"0.02": 0.0,
			"0.021": 0.0,
			"0.022": 0.0,
			"0.023": 0.0,
			"0.024": 0.0,
			"0.025": 0.0
		}
	}
}
