{
	 "smiles": "CCOC(=O)C1=C(NN=C1)C(F)F", 
	 "Tm": 338.15, 
	 "num_atms": 21, 
	 "gaussian": { 
		 "optdone": 1, 
		 "sigma_profile": "yes", 
		 "theory": "DFT", 
		 "functional": "B3LYP", 
		 "basiset": "6-31G**", 
		 "properties": { 
			 "R2extent": 2960.0229, 
			 "electric_dipole_moment_norm": 2.63468390893, 
			 "electric_quadrupole_moment_norm": 7.94489114085, 
			 "total_energy": -731.184347486, 
			 "HOMO_LUMO_gap": 0.23132, 
			 "cosmo_polarized_energy": -11.66, 
			 "cosmo_cavitation_energy": 26.79, 
			 "cosmo_dispersion_energy": -18.75, 
			 "cosmo_repulsion_energy": 1.47, 
			 "cosmo_total_nonelectrostatic_energy": 9.51, 
			 "SMD_solvation_energy": 5.75 
		},
		"coords": [
			{
				"x": -3.0687183969,
				"y": -2.3784932838,
				"z": 0.8131911357,
				"element": "C" 
			},
			{
				"x": -2.1859579594,
				"y": -2.0466681859,
				"z": -0.3801999457,
				"element": "C" 
			},
			{
				"x": -1.5900327316,
				"y": -0.7320026325,
				"z": -0.2478759795,
				"element": "O" 
			},
			{
				"x": -0.4304649305,
				"y": -0.6620615866,
				"z": 0.4560972145,
				"element": "C" 
			},
			{
				"x": 0.1111927984,
				"y": -1.6187782431,
				"z": 0.9734825673,
				"element": "O" 
			},
			{
				"x": 0.0857758851,
				"y": 0.7107942889,
				"z": 0.5139440312,
				"element": "C" 
			},
			{
				"x": -0.4217035386,
				"y": 1.8804702847,
				"z": -0.0449491387,
				"element": "C" 
			},
			{
				"x": 0.4348889266,
				"y": 2.862461007,
				"z": 0.3141842457,
				"element": "N" 
			},
			{
				"x": 1.4640125738,
				"y": 2.4323219192,
				"z": 1.0770118204,
				"element": "N" 
			},
			{
				"x": 1.2574178299,
				"y": 1.1260694436,
				"z": 1.1963508632,
				"element": "C" 
			},
			{
				"x": -1.5980185303,
				"y": 2.161011695,
				"z": -0.9251022567,
				"element": "C" 
			},
			{
				"x": -1.8562915174,
				"y": 3.5111186648,
				"z": -0.8828188099,
				"element": "F" 
			},
			{
				"x": -1.3133794974,
				"y": 1.8434054698,
				"z": -2.222049662,
				"element": "F" 
			},
			{
				"x": -3.8429041485,
				"y": -1.6177351341,
				"z": 0.9515515943,
				"element": "H" 
			},
			{
				"x": -2.4711980359,
				"y": -2.4469056297,
				"z": 1.7253768175,
				"element": "H" 
			},
			{
				"x": -3.5614653173,
				"y": -3.3431172165,
				"z": 0.6524545573,
				"element": "H" 
			},
			{
				"x": -1.3861098701,
				"y": -2.7813746793,
				"z": -0.495688694,
				"element": "H" 
			},
			{
				"x": -2.7635291049,
				"y": -1.9894381595,
				"z": -1.3057918079,
				"element": "H" 
			},
			{
				"x": 0.3405680689,
				"y": 3.8434606139,
				"z": 0.0950746484,
				"element": "H" 
			},
			{
				"x": 1.9375298738,
				"y": 0.5068382811,
				"z": 1.7636216255,
				"element": "H" 
			},
			{
				"x": -2.4943123778,
				"y": 1.615323083,
				"z": -0.6246648266,
				"element": "H" 
			}
		],
		 "valence_orbital": [ 
			{
				"type": "occ",
				"energy": -0.30785,
				"method": "rhf"
			},
			{
				"type": "occ",
				"energy": -0.3051,
				"method": "rhf"
			},
			{
				"type": "occ",
				"energy": -0.28207,
				"method": "rhf"
			},
			{
				"type": "occ",
				"energy": -0.28037,
				"method": "rhf"
			},
			{
				"type": "occ",
				"energy": -0.27128,
				"method": "rhf"
			},
			{
				"type": "unocc",
				"energy": -0.03996,
				"method": "rhf"
			},
			{
				"type": "unocc",
				"energy": 0.00315,
				"method": "rhf"
			},
			{
				"type": "unocc",
				"energy": 0.07083,
				"method": "rhf"
			},
			{
				"type": "unocc",
				"energy": 0.09077,
				"method": "rhf"
			},
			{
				"type": "unocc",
				"energy": 0.10401,
				"method": "rhf"
			}
		],
		"cosmo_sigma_profile": { 
			"-0.025": 0.0,
			"-0.024": 0.0,
			"-0.023": 0.0,
			"-0.022": 0.0,
			"-0.021": 0.0,
			"-0.02": 0.0,
			"-0.019": 0.0,
			"-0.018": 0.249605539598,
			"-0.017": 1.0006392352,
			"-0.016": 0.952529660509,
			"-0.015": 0.494223603148,
			"-0.014": 0.481719227639,
			"-0.013": 1.48995321391,
			"-0.012": 1.30920731486,
			"-0.011": 0.336258634645,
			"-0.01": 1.31873688842,
			"-0.009": 2.98820538652,
			"-0.008": 4.40351339893,
			"-0.007": 3.73032207979,
			"-0.006": 5.50867647148,
			"-0.005": 9.73729991429,
			"-0.004": 13.9648078574,
			"-0.003": 17.2017655347,
			"-0.002": 17.9185422422,
			"-0.001": 18.77109581,
			"0.0": 19.8348905387,
			"0.001": 15.7897031063,
			"0.002": 10.9227506986,
			"0.003": 13.0053526429,
			"0.004": 20.245888112,
			"0.005": 6.9337376555,
			"0.006": 2.669939326,
			"0.007": 2.15415954959,
			"0.008": 3.12090601166,
			"0.009": 2.60950607641,
			"0.01": 2.28781015401,
			"0.011": 4.63685436751,
			"0.012": 4.92675363209,
			"0.013": 1.11404884107,
			"0.014": 0.934044889329,
			"0.015": 0.251824443107,
			"0.016": 0.0,
			"0.017": 0.0,
			"0.018": 0.0,
			"0.019": 0.0,
			"0.02": 0.0,
			"0.021": 0.0,
			"0.022": 0.0,
			"0.023": 0.0,
			"0.024": 0.0,
			"0.025": 0.0
		}
	}
}
