{
	 "smiles": "CC1=CC(C(=O)CCl)=C(C)N1C1=CC2=C(OCCO2)C=C1", 
	 "Tm": 374.15, 
	 "num_atms": 37, 
	 "gaussian": { 
		 "optdone": 1, 
		 "sigma_profile": "yes", 
		 "theory": "DFT", 
		 "functional": "B3LYP", 
		 "basiset": "6-31G**", 
		 "properties": { 
			 "R2extent": 9164.9035, 
			 "electric_dipole_moment_norm": 8.22503473549, 
			 "electric_quadrupole_moment_norm": 14.3606995373, 
			 "total_energy": -1359.94406713, 
			 "HOMO_LUMO_gap": 0.16698, 
			 "cosmo_polarized_energy": -16.18, 
			 "cosmo_cavitation_energy": 41.79, 
			 "cosmo_dispersion_energy": -29.24, 
			 "cosmo_repulsion_energy": 2.26, 
			 "cosmo_total_nonelectrostatic_energy": 14.81, 
			 "SMD_solvation_energy": 7.81 
		},
		"coords": [
			{
				"x": -2.0879019219,
				"y": 1.831316767,
				"z": 0.2800218019,
				"element": "C" 
			},
			{
				"x": -2.0861845148,
				"y": 0.3411740414,
				"z": 0.3944638857,
				"element": "C" 
			},
			{
				"x": -2.9756012361,
				"y": -0.5093083827,
				"z": 0.9873596249,
				"element": "C" 
			},
			{
				"x": -2.5048553931,
				"y": -1.8521199923,
				"z": 0.8123433061,
				"element": "C" 
			},
			{
				"x": -3.263773665,
				"y": -2.9962937508,
				"z": 1.3157462042,
				"element": "C" 
			},
			{
				"x": -4.354463555,
				"y": -2.8562568712,
				"z": 1.8590211303,
				"element": "O" 
			},
			{
				"x": -2.7352134083,
				"y": -4.4277700773,
				"z": 1.1620802406,
				"element": "C" 
			},
			{
				"x": -1.4613225898,
				"y": -4.8037811643,
				"z": 2.4094893178,
				"element": "Cl" 
			},
			{
				"x": -1.3057679069,
				"y": -1.7831927965,
				"z": 0.0929196073,
				"element": "C" 
			},
			{
				"x": -0.3644755121,
				"y": -2.8386949659,
				"z": -0.4028578936,
				"element": "C" 
			},
			{
				"x": -1.0649604577,
				"y": -0.4467625151,
				"z": -0.1551951693,
				"element": "N" 
			},
			{
				"x": 0.0561383317,
				"y": 0.0839203959,
				"z": -0.8736457217,
				"element": "C" 
			},
			{
				"x": 1.1867608981,
				"y": 0.5079553276,
				"z": -0.1721754912,
				"element": "C" 
			},
			{
				"x": 2.2747658504,
				"y": 1.0431535278,
				"z": -0.861273482,
				"element": "C" 
			},
			{
				"x": 2.2252311109,
				"y": 1.1657666086,
				"z": -2.2626174022,
				"element": "C" 
			},
			{
				"x": 3.2632637087,
				"y": 1.7026089042,
				"z": -2.9779815218,
				"element": "O" 
			},
			{
				"x": 4.2068403672,
				"y": 2.4237552592,
				"z": -2.1821463272,
				"element": "C" 
			},
			{
				"x": 4.5451690532,
				"y": 1.6350048073,
				"z": -0.9281711375,
				"element": "C" 
			},
			{
				"x": 3.3699770114,
				"y": 1.4390338816,
				"z": -0.1385108847,
				"element": "O" 
			},
			{
				"x": 1.0962120381,
				"y": 0.7273179185,
				"z": -2.9559564321,
				"element": "C" 
			},
			{
				"x": 0.0129624621,
				"y": 0.1853041877,
				"z": -2.2683613477,
				"element": "C" 
			},
			{
				"x": -2.9898428034,
				"y": 2.2263909322,
				"z": 0.7529520024,
				"element": "H" 
			},
			{
				"x": -2.0787098608,
				"y": 2.1665193851,
				"z": -0.7639407389,
				"element": "H" 
			},
			{
				"x": -1.2215095962,
				"y": 2.2888540743,
				"z": 0.7721532341,
				"element": "H" 
			},
			{
				"x": -3.8835402173,
				"y": -0.2385755482,
				"z": 1.5054214412,
				"element": "H" 
			},
			{
				"x": -3.5614429706,
				"y": -5.1110884538,
				"z": 1.3490254488,
				"element": "H" 
			},
			{
				"x": -2.2857968921,
				"y": -4.6220907435,
				"z": 0.1879247076,
				"element": "H" 
			},
			{
				"x": -0.1499129755,
				"y": -3.5738242019,
				"z": 0.376145973,
				"element": "H" 
			},
			{
				"x": 0.583628552,
				"y": -2.3957228706,
				"z": -0.7141732201,
				"element": "H" 
			},
			{
				"x": -0.770335646,
				"y": -3.374834598,
				"z": -1.2704864831,
				"element": "H" 
			},
			{
				"x": 1.2386394794,
				"y": 0.4183279161,
				"z": 0.9074684425,
				"element": "H" 
			},
			{
				"x": 5.0892912712,
				"y": 2.5731345397,
				"z": -2.8088498018,
				"element": "H" 
			},
			{
				"x": 3.7910165082,
				"y": 3.4028281645,
				"z": -1.9089708561,
				"element": "H" 
			},
			{
				"x": 4.976496065,
				"y": 0.6625107029,
				"z": -1.2009260489,
				"element": "H" 
			},
			{
				"x": 5.254592145,
				"y": 2.1756184866,
				"z": -0.2971923595,
				"element": "H" 
			},
			{
				"x": 1.0849131002,
				"y": 0.8293179532,
				"z": -4.0360414192,
				"element": "H" 
			},
			{
				"x": -0.8688868303,
				"y": -0.1497968492,
				"z": -2.8037626295,
				"element": "H" 
			}
		],
		 "valence_orbital": [ 
			{
				"type": "occ",
				"energy": -0.25509,
				"method": "rhf"
			},
			{
				"type": "occ",
				"energy": -0.24026,
				"method": "rhf"
			},
			{
				"type": "occ",
				"energy": -0.23613,
				"method": "rhf"
			},
			{
				"type": "occ",
				"energy": -0.22923,
				"method": "rhf"
			},
			{
				"type": "occ",
				"energy": -0.20507,
				"method": "rhf"
			},
			{
				"type": "unocc",
				"energy": -0.03809,
				"method": "rhf"
			},
			{
				"type": "unocc",
				"energy": -0.01996,
				"method": "rhf"
			},
			{
				"type": "unocc",
				"energy": -0.00928,
				"method": "rhf"
			},
			{
				"type": "unocc",
				"energy": 0.02934,
				"method": "rhf"
			},
			{
				"type": "unocc",
				"energy": 0.05232,
				"method": "rhf"
			}
		],
		"cosmo_sigma_profile": { 
			"-0.025": 0.0,
			"-0.024": 0.0,
			"-0.023": 0.0,
			"-0.022": 0.0,
			"-0.021": 0.0,
			"-0.02": 0.0,
			"-0.019": 0.0,
			"-0.018": 0.0,
			"-0.017": 0.0,
			"-0.016": 0.0,
			"-0.015": 0.0,
			"-0.014": 0.0,
			"-0.013": 0.0,
			"-0.012": 0.0,
			"-0.011": 0.0,
			"-0.01": 0.0,
			"-0.009": 0.0,
			"-0.008": 3.16807042105,
			"-0.007": 15.5699879488,
			"-0.006": 22.4899844756,
			"-0.005": 23.9860464526,
			"-0.004": 26.0660554112,
			"-0.003": 24.0566657598,
			"-0.002": 27.3461769864,
			"-0.001": 28.0723532169,
			"0.0": 24.0102381041,
			"0.001": 18.7963679758,
			"0.002": 21.2337894995,
			"0.003": 21.3193638721,
			"0.004": 18.7997016133,
			"0.005": 16.3313664811,
			"0.006": 14.2568559563,
			"0.007": 5.57766197308,
			"0.008": 3.80799795189,
			"0.009": 4.25184745713,
			"0.01": 4.57837769999,
			"0.011": 2.70690180436,
			"0.012": 4.40071527379,
			"0.013": 3.00455100397,
			"0.014": 0.321788697995,
			"0.015": 0.0,
			"0.016": 0.0,
			"0.017": 0.0,
			"0.018": 0.0,
			"0.019": 0.0,
			"0.02": 0.0,
			"0.021": 0.0,
			"0.022": 0.0,
			"0.023": 0.0,
			"0.024": 0.0,
			"0.025": 0.0
		}
	}
}
