{
	 "smiles": "NC1=NN=C(N1)C1CCC1", 
	 "Tm": 427.15, 
	 "num_atms": 20, 
	 "gaussian": { 
		 "optdone": 1, 
		 "sigma_profile": "yes", 
		 "theory": "DFT", 
		 "functional": "B3LYP", 
		 "basiset": "6-31G**", 
		 "properties": { 
			 "R2extent": 2085.8207, 
			 "electric_dipole_moment_norm": 5.03879085297, 
			 "electric_quadrupole_moment_norm": 13.7460452182, 
			 "total_energy": -453.628235025, 
			 "HOMO_LUMO_gap": 0.24611, 
			 "cosmo_polarized_energy": -21.31, 
			 "cosmo_cavitation_energy": 23.16, 
			 "cosmo_dispersion_energy": -17.32, 
			 "cosmo_repulsion_energy": 1.44, 
			 "cosmo_total_nonelectrostatic_energy": 7.28, 
			 "SMD_solvation_energy": 1.48 
		},
		"coords": [
			{
				"x": -1.2542105418,
				"y": 3.1015740179,
				"z": 3.115373961,
				"element": "N" 
			},
			{
				"x": -0.6724817914,
				"y": 2.2090369092,
				"z": 2.2190511885,
				"element": "C" 
			},
			{
				"x": -0.2189493018,
				"y": 1.010671485,
				"z": 2.4927903078,
				"element": "N" 
			},
			{
				"x": 0.3697141581,
				"y": 0.5231831812,
				"z": 1.3300979742,
				"element": "N" 
			},
			{
				"x": 0.2403670982,
				"y": 1.4288973538,
				"z": 0.3938831982,
				"element": "C" 
			},
			{
				"x": -0.4239140223,
				"y": 2.5283423926,
				"z": 0.9087125131,
				"element": "N" 
			},
			{
				"x": 0.6704369973,
				"y": 1.3226193073,
				"z": -1.0319532393,
				"element": "C" 
			},
			{
				"x": 1.3931906545,
				"y": -0.0169888043,
				"z": -1.3593247413,
				"element": "C" 
			},
			{
				"x": 0.0732781472,
				"y": -0.5588593864,
				"z": -1.9704268813,
				"element": "C" 
			},
			{
				"x": -0.4709984533,
				"y": 0.8925396876,
				"z": -2.0200115094,
				"element": "C" 
			},
			{
				"x": -1.3033470493,
				"y": 2.669171005,
				"z": 4.0316470992,
				"element": "H" 
			},
			{
				"x": -2.1786400623,
				"y": 3.4138742951,
				"z": 2.834567321,
				"element": "H" 
			},
			{
				"x": -0.5736893884,
				"y": 3.420869413,
				"z": 0.4636420787,
				"element": "H" 
			},
			{
				"x": 1.2054155544,
				"y": 2.2357919945,
				"z": -1.3211195188,
				"element": "H" 
			},
			{
				"x": 2.1743261823,
				"y": 0.128727909,
				"z": -2.1107732737,
				"element": "H" 
			},
			{
				"x": 1.8026177848,
				"y": -0.5537360595,
				"z": -0.502650782,
				"element": "H" 
			},
			{
				"x": -0.474199882,
				"y": -1.1756447262,
				"z": -1.2533048042,
				"element": "H" 
			},
			{
				"x": 0.1400454877,
				"y": -1.0968992904,
				"z": -2.9200503301,
				"element": "H" 
			},
			{
				"x": -1.5010007055,
				"y": 1.0615980394,
				"z": -1.6917575216,
				"element": "H" 
			},
			{
				"x": -0.3357608663,
				"y": 1.3545312762,
				"z": -3.00289304,
				"element": "H" 
			}
		],
		 "valence_orbital": [ 
			{
				"type": "occ",
				"energy": -0.30526,
				"method": "rhf"
			},
			{
				"type": "occ",
				"energy": -0.29137,
				"method": "rhf"
			},
			{
				"type": "occ",
				"energy": -0.28837,
				"method": "rhf"
			},
			{
				"type": "occ",
				"energy": -0.24174,
				"method": "rhf"
			},
			{
				"type": "occ",
				"energy": -0.2164,
				"method": "rhf"
			},
			{
				"type": "unocc",
				"energy": 0.02971,
				"method": "rhf"
			},
			{
				"type": "unocc",
				"energy": 0.06056,
				"method": "rhf"
			},
			{
				"type": "unocc",
				"energy": 0.06743,
				"method": "rhf"
			},
			{
				"type": "unocc",
				"energy": 0.08747,
				"method": "rhf"
			},
			{
				"type": "unocc",
				"energy": 0.09634,
				"method": "rhf"
			}
		],
		"cosmo_sigma_profile": { 
			"-0.025": 0.0,
			"-0.024": 0.0,
			"-0.023": 0.0,
			"-0.022": 0.0,
			"-0.021": 0.0,
			"-0.02": 0.0,
			"-0.019": 0.0,
			"-0.018": 0.0,
			"-0.017": 0.714474406542,
			"-0.016": 1.58567938204,
			"-0.015": 1.16549567385,
			"-0.014": 1.93886445632,
			"-0.013": 4.30907935149,
			"-0.012": 3.83582821836,
			"-0.011": 3.95194110865,
			"-0.01": 3.60001085383,
			"-0.009": 3.02190750195,
			"-0.008": 2.22143503124,
			"-0.007": 2.33377757164,
			"-0.006": 3.2068602158,
			"-0.005": 3.62992722622,
			"-0.004": 7.35429419763,
			"-0.003": 14.474260024,
			"-0.002": 18.580813684,
			"-0.001": 16.5600403781,
			"0.0": 17.0230870133,
			"0.001": 17.4877246687,
			"0.002": 9.57444872059,
			"0.003": 3.94579082523,
			"0.004": 2.65122630337,
			"0.005": 3.57206973299,
			"0.006": 3.5206528176,
			"0.007": 2.40072145837,
			"0.008": 2.2786592574,
			"0.009": 1.8596326926,
			"0.01": 3.44693782801,
			"0.011": 2.96662989169,
			"0.012": 2.44417902815,
			"0.013": 2.87448972604,
			"0.014": 3.18022351516,
			"0.015": 3.37738165336,
			"0.016": 3.38186692992,
			"0.017": 2.20231605144,
			"0.018": 0.97258735347,
			"0.019": 0.0,
			"0.02": 0.0,
			"0.021": 0.0,
			"0.022": 0.0,
			"0.023": 0.0,
			"0.024": 0.0,
			"0.025": 0.0
		}
	}
}
