{
	 "smiles": "OC1=CC(O)=C(Cl)C=C1Cl", 
	 "Tm": 387.15, 
	 "num_atms": 14, 
	 "gaussian": { 
		 "optdone": 1, 
		 "sigma_profile": "yes", 
		 "theory": "DFT", 
		 "functional": "B3LYP", 
		 "basiset": "6-31G**", 
		 "properties": { 
			 "R2extent": 2177.7859, 
			 "electric_dipole_moment_norm": 4.38139109188, 
			 "electric_quadrupole_moment_norm": 12.3904088726, 
			 "total_energy": -1301.86451108, 
			 "HOMO_LUMO_gap": 0.2009, 
			 "cosmo_polarized_energy": -16.46, 
			 "cosmo_cavitation_energy": 22.26, 
			 "cosmo_dispersion_energy": -17.05, 
			 "cosmo_repulsion_energy": 1.39, 
			 "cosmo_total_nonelectrostatic_energy": 6.6, 
			 "SMD_solvation_energy": 4.12 
		},
		"coords": [
			{
				"x": -2.3860222729,
				"y": 0.7680218727,
				"z": -0.7350728535,
				"element": "O" 
			},
			{
				"x": -1.1614624344,
				"y": 0.3203484598,
				"z": -0.3563932375,
				"element": "C" 
			},
			{
				"x": -0.6488240538,
				"y": -0.9137343038,
				"z": -0.7685680171,
				"element": "C" 
			},
			{
				"x": 0.6165353477,
				"y": -1.3490854689,
				"z": -0.3623933162,
				"element": "C" 
			},
			{
				"x": 1.1390087793,
				"y": -2.5417638112,
				"z": -0.7469776231,
				"element": "O" 
			},
			{
				"x": 1.3806966363,
				"y": -0.523842122,
				"z": 0.47622134,
				"element": "C" 
			},
			{
				"x": 2.9661328948,
				"y": -1.041419815,
				"z": 1.0003013677,
				"element": "Cl" 
			},
			{
				"x": 0.8777484443,
				"y": 0.7061315393,
				"z": 0.8910758704,
				"element": "C" 
			},
			{
				"x": -0.3829082953,
				"y": 1.1320836844,
				"z": 0.4821655729,
				"element": "C" 
			},
			{
				"x": -0.9972912416,
				"y": 2.6800511942,
				"z": 1.0136816677,
				"element": "Cl" 
			},
			{
				"x": -2.806231271,
				"y": 0.1123532506,
				"z": -1.3061887862,
				"element": "H" 
			},
			{
				"x": -1.2475071591,
				"y": -1.5490327183,
				"z": -1.4194652045,
				"element": "H" 
			},
			{
				"x": 0.5090901764,
				"y": -3.0004449627,
				"z": -1.3174760749,
				"element": "H" 
			},
			{
				"x": 1.4734344491,
				"y": 1.3382332009,
				"z": 1.5386892945,
				"element": "H" 
			}
		],
		 "valence_orbital": [ 
			{
				"type": "occ",
				"energy": -0.31556,
				"method": "rhf"
			},
			{
				"type": "occ",
				"energy": -0.30835,
				"method": "rhf"
			},
			{
				"type": "occ",
				"energy": -0.30182,
				"method": "rhf"
			},
			{
				"type": "occ",
				"energy": -0.25353,
				"method": "rhf"
			},
			{
				"type": "occ",
				"energy": -0.22087,
				"method": "rhf"
			},
			{
				"type": "unocc",
				"energy": -0.01997,
				"method": "rhf"
			},
			{
				"type": "unocc",
				"energy": -0.00197,
				"method": "rhf"
			},
			{
				"type": "unocc",
				"energy": 0.01131,
				"method": "rhf"
			},
			{
				"type": "unocc",
				"energy": 0.03767,
				"method": "rhf"
			},
			{
				"type": "unocc",
				"energy": 0.05474,
				"method": "rhf"
			}
		],
		"cosmo_sigma_profile": { 
			"-0.025": 0.0,
			"-0.024": 0.0,
			"-0.023": 0.0,
			"-0.022": 0.0,
			"-0.021": 0.0,
			"-0.02": 0.0,
			"-0.019": 1.53940334541,
			"-0.018": 2.39423316609,
			"-0.017": 2.2925655153,
			"-0.016": 2.68953579461,
			"-0.015": 1.99065530174,
			"-0.014": 1.40982418356,
			"-0.013": 1.88702647387,
			"-0.012": 1.73096095081,
			"-0.011": 2.39727282187,
			"-0.01": 3.61644774634,
			"-0.009": 2.48417040248,
			"-0.008": 2.06423428301,
			"-0.007": 2.75768267131,
			"-0.006": 4.13280827786,
			"-0.005": 3.4023728292,
			"-0.004": 3.00085612706,
			"-0.003": 3.89028630269,
			"-0.002": 6.29891137036,
			"-0.001": 7.29460499812,
			"0.0": 9.6525169767,
			"0.001": 18.3604213137,
			"0.002": 26.1842939287,
			"0.003": 16.6259275747,
			"0.004": 15.8565498108,
			"0.005": 15.4371491376,
			"0.006": 4.85929200957,
			"0.007": 4.23621649322,
			"0.008": 3.29456352706,
			"0.009": 4.38531444661,
			"0.01": 4.27187988741,
			"0.011": 2.17985609917,
			"0.012": 0.0,
			"0.013": 0.0,
			"0.014": 0.0,
			"0.015": 0.0,
			"0.016": 0.0,
			"0.017": 0.0,
			"0.018": 0.0,
			"0.019": 0.0,
			"0.02": 0.0,
			"0.021": 0.0,
			"0.022": 0.0,
			"0.023": 0.0,
			"0.024": 0.0,
			"0.025": 0.0
		}
	}
}
