{
	 "smiles": "ClS(=O)(=O)N1CCOC1=O", 
	 "Tm": 368.15, 
	 "num_atms": 14, 
	 "gaussian": { 
		 "optdone": 1, 
		 "sigma_profile": "yes", 
		 "theory": "DFT", 
		 "functional": "B3LYP", 
		 "basiset": "6-31G**", 
		 "properties": { 
			 "R2extent": 2133.0583, 
			 "electric_dipole_moment_norm": 5.8682468779, 
			 "electric_quadrupole_moment_norm": 12.5897558082, 
			 "total_energy": -1330.67666739, 
			 "HOMO_LUMO_gap": 0.21609, 
			 "cosmo_polarized_energy": -15.2, 
			 "cosmo_cavitation_energy": 21.75, 
			 "cosmo_dispersion_energy": -16.85, 
			 "cosmo_repulsion_energy": 1.33, 
			 "cosmo_total_nonelectrostatic_energy": 6.23, 
			 "SMD_solvation_energy": 3.29 
		},
		"coords": [
			{
				"x": 0.3894598302,
				"y": -0.8049506035,
				"z": -3.1507323379,
				"element": "Cl" 
			},
			{
				"x": 0.2281682805,
				"y": -1.1247113425,
				"z": -1.068923058,
				"element": "S" 
			},
			{
				"x": -0.7272595198,
				"y": -2.1894532,
				"z": -0.8711721521,
				"element": "O" 
			},
			{
				"x": 1.5864493024,
				"y": -1.148921144,
				"z": -0.5565661836,
				"element": "O" 
			},
			{
				"x": -0.4241237836,
				"y": 0.324588852,
				"z": -0.5296028797,
				"element": "N" 
			},
			{
				"x": 0.4366341221,
				"y": 1.4952936137,
				"z": -0.3066835435,
				"element": "C" 
			},
			{
				"x": -0.6372880756,
				"y": 2.5075640403,
				"z": 0.1140937711,
				"element": "C" 
			},
			{
				"x": -1.8438947522,
				"y": 2.0547589656,
				"z": -0.5327643952,
				"element": "O" 
			},
			{
				"x": -1.7501351044,
				"y": 0.7430757145,
				"z": -0.861444886,
				"element": "C" 
			},
			{
				"x": -2.6242495844,
				"y": 0.0841094947,
				"z": -1.3406656599,
				"element": "O" 
			},
			{
				"x": 1.1742411395,
				"y": 1.2982496459,
				"z": 0.4705990845,
				"element": "H" 
			},
			{
				"x": 0.9463271446,
				"y": 1.790444088,
				"z": -1.2313323584,
				"element": "H" 
			},
			{
				"x": -0.7986074059,
				"y": 2.5022211477,
				"z": 1.1964156385,
				"element": "H" 
			},
			{
				"x": -0.4302215936,
				"y": 3.5230307277,
				"z": -0.2245210398,
				"element": "H" 
			}
		],
		 "valence_orbital": [ 
			{
				"type": "occ",
				"energy": -0.35271,
				"method": "rhf"
			},
			{
				"type": "occ",
				"energy": -0.33318,
				"method": "rhf"
			},
			{
				"type": "occ",
				"energy": -0.32914,
				"method": "rhf"
			},
			{
				"type": "occ",
				"energy": -0.32283,
				"method": "rhf"
			},
			{
				"type": "occ",
				"energy": -0.31248,
				"method": "rhf"
			},
			{
				"type": "unocc",
				"energy": -0.09639,
				"method": "rhf"
			},
			{
				"type": "unocc",
				"energy": -0.00028,
				"method": "rhf"
			},
			{
				"type": "unocc",
				"energy": 0.03046,
				"method": "rhf"
			},
			{
				"type": "unocc",
				"energy": 0.05116,
				"method": "rhf"
			},
			{
				"type": "unocc",
				"energy": 0.05632,
				"method": "rhf"
			}
		],
		"cosmo_sigma_profile": { 
			"-0.025": 0.0,
			"-0.024": 0.0,
			"-0.023": 0.0,
			"-0.022": 0.0,
			"-0.021": 0.0,
			"-0.02": 0.0,
			"-0.019": 0.0,
			"-0.018": 0.0,
			"-0.017": 0.0,
			"-0.016": 0.0,
			"-0.015": 0.0,
			"-0.014": 0.0,
			"-0.013": 0.0,
			"-0.012": 0.0,
			"-0.011": 0.0,
			"-0.01": 0.643524419889,
			"-0.009": 10.3642088376,
			"-0.008": 15.7313733893,
			"-0.007": 10.6311480842,
			"-0.006": 8.60021507368,
			"-0.005": 6.36684131846,
			"-0.004": 6.22791139975,
			"-0.003": 7.6764680938,
			"-0.002": 6.67565638025,
			"-0.001": 6.62956847947,
			"0.0": 8.26897378147,
			"0.001": 11.6034646336,
			"0.002": 14.878042583,
			"0.003": 8.82854711267,
			"0.004": 3.92869917927,
			"0.005": 5.71249580979,
			"0.006": 9.02527607631,
			"0.007": 14.7563134299,
			"0.008": 8.04460185282,
			"0.009": 3.92409765405,
			"0.01": 6.44293414817,
			"0.011": 1.57125464158,
			"0.012": 0.0,
			"0.013": 0.0,
			"0.014": 0.0,
			"0.015": 0.0,
			"0.016": 0.0,
			"0.017": 0.0,
			"0.018": 0.0,
			"0.019": 0.0,
			"0.02": 0.0,
			"0.021": 0.0,
			"0.022": 0.0,
			"0.023": 0.0,
			"0.024": 0.0,
			"0.025": 0.0
		}
	}
}
