{
	 "smiles": "OC(=O)COC1=CC(=CC=C1)N1CCCC1=O", 
	 "Tm": 443.15, 
	 "num_atms": 30, 
	 "gaussian": { 
		 "optdone": 1, 
		 "sigma_profile": "yes", 
		 "theory": "DFT", 
		 "functional": "B3LYP", 
		 "basiset": "6-31G**", 
		 "properties": { 
			 "R2extent": 5114.478, 
			 "electric_dipole_moment_norm": 3.01620723758, 
			 "electric_quadrupole_moment_norm": 14.9325392908, 
			 "total_energy": -820.777792599, 
			 "HOMO_LUMO_gap": 0.19911, 
			 "cosmo_polarized_energy": -18.53, 
			 "cosmo_cavitation_energy": 33.63, 
			 "cosmo_dispersion_energy": -24.15, 
			 "cosmo_repulsion_energy": 1.89, 
			 "cosmo_total_nonelectrostatic_energy": 11.37, 
			 "SMD_solvation_energy": 7.05 
		},
		"coords": [
			{
				"x": -3.2151701136,
				"y": 0.7105710848,
				"z": -3.7601152807,
				"element": "O" 
			},
			{
				"x": -3.1481134914,
				"y": 0.1721167784,
				"z": -2.5195484865,
				"element": "C" 
			},
			{
				"x": -3.3445808672,
				"y": -0.9935199126,
				"z": -2.280039545,
				"element": "O" 
			},
			{
				"x": -2.8130978846,
				"y": 1.2586556904,
				"z": -1.5033340731,
				"element": "C" 
			},
			{
				"x": -2.768638126,
				"y": 0.7769965898,
				"z": -0.1837040632,
				"element": "O" 
			},
			{
				"x": -1.6493251808,
				"y": 0.1151323008,
				"z": 0.2563864084,
				"element": "C" 
			},
			{
				"x": -0.5483044185,
				"y": -0.168346823,
				"z": -0.549887717,
				"element": "C" 
			},
			{
				"x": 0.5650727246,
				"y": -0.8264751674,
				"z": 0.0046019498,
				"element": "C" 
			},
			{
				"x": 0.5521092522,
				"y": -1.1949248422,
				"z": 1.3586297362,
				"element": "C" 
			},
			{
				"x": -0.5685735791,
				"y": -0.9071267629,
				"z": 2.1407785465,
				"element": "C" 
			},
			{
				"x": -1.6717414378,
				"y": -0.2550851629,
				"z": 1.6069366917,
				"element": "C" 
			},
			{
				"x": 1.693014366,
				"y": -1.1374548889,
				"z": -0.7942926114,
				"element": "N" 
			},
			{
				"x": 2.7740716634,
				"y": -1.9905784825,
				"z": -0.2834723961,
				"element": "C" 
			},
			{
				"x": 3.6151997798,
				"y": -2.3148016583,
				"z": -1.5302936189,
				"element": "C" 
			},
			{
				"x": 3.3750879096,
				"y": -1.1102860154,
				"z": -2.444713803,
				"element": "C" 
			},
			{
				"x": 1.9952005214,
				"y": -0.5982686883,
				"z": -2.0391062871,
				"element": "C" 
			},
			{
				"x": 1.3034640732,
				"y": 0.1652403062,
				"z": -2.6945480257,
				"element": "O" 
			},
			{
				"x": -3.4289933832,
				"y": -0.0188268215,
				"z": -4.3657224146,
				"element": "H" 
			},
			{
				"x": -3.612492952,
				"y": 2.0057861865,
				"z": -1.5330698715,
				"element": "H" 
			},
			{
				"x": -1.884589224,
				"y": 1.7604826204,
				"z": -1.8040852007,
				"element": "H" 
			},
			{
				"x": -0.5151636931,
				"y": 0.1013497232,
				"z": -1.5929729591,
				"element": "H" 
			},
			{
				"x": 1.4008131826,
				"y": -1.6920556344,
				"z": 1.8109311575,
				"element": "H" 
			},
			{
				"x": -0.5717221983,
				"y": -1.1958759812,
				"z": 3.1878305498,
				"element": "H" 
			},
			{
				"x": -2.5463550639,
				"y": -0.0220537657,
				"z": 2.2039078347,
				"element": "H" 
			},
			{
				"x": 2.3599288675,
				"y": -2.8871561986,
				"z": 0.1861250398,
				"element": "H" 
			},
			{
				"x": 3.3610782643,
				"y": -1.4537378493,
				"z": 0.4750600812,
				"element": "H" 
			},
			{
				"x": 4.6663414754,
				"y": -2.478663728,
				"z": -1.2818372122,
				"element": "H" 
			},
			{
				"x": 3.2362697166,
				"y": -3.2266558326,
				"z": -2.0024429464,
				"element": "H" 
			},
			{
				"x": 3.3936464926,
				"y": -1.3334489139,
				"z": -3.5133015998,
				"element": "H" 
			},
			{
				"x": 4.0983633242,
				"y": -0.304688151,
				"z": -2.2649998836,
				"element": "H" 
			}
		],
		 "valence_orbital": [ 
			{
				"type": "occ",
				"energy": -0.28639,
				"method": "rhf"
			},
			{
				"type": "occ",
				"energy": -0.27762,
				"method": "rhf"
			},
			{
				"type": "occ",
				"energy": -0.24986,
				"method": "rhf"
			},
			{
				"type": "occ",
				"energy": -0.22728,
				"method": "rhf"
			},
			{
				"type": "occ",
				"energy": -0.20951,
				"method": "rhf"
			},
			{
				"type": "unocc",
				"energy": -0.0104,
				"method": "rhf"
			},
			{
				"type": "unocc",
				"energy": 0.00863,
				"method": "rhf"
			},
			{
				"type": "unocc",
				"energy": 0.01276,
				"method": "rhf"
			},
			{
				"type": "unocc",
				"energy": 0.04575,
				"method": "rhf"
			},
			{
				"type": "unocc",
				"energy": 0.07426,
				"method": "rhf"
			}
		],
		"cosmo_sigma_profile": { 
			"-0.025": 0.0,
			"-0.024": 0.0,
			"-0.023": 0.0,
			"-0.022": 0.0,
			"-0.021": 0.0,
			"-0.02": 0.0,
			"-0.019": 0.214461083425,
			"-0.018": 1.01355563426,
			"-0.017": 0.90730427695,
			"-0.016": 1.02983534568,
			"-0.015": 0.733464734165,
			"-0.014": 0.597215509107,
			"-0.013": 0.675042579963,
			"-0.012": 0.906558129434,
			"-0.011": 0.557764160775,
			"-0.01": 0.558052962995,
			"-0.009": 1.70078068141,
			"-0.008": 4.28359832651,
			"-0.007": 5.45413113638,
			"-0.006": 15.2510358572,
			"-0.005": 25.6867711894,
			"-0.004": 30.3552642559,
			"-0.003": 22.2113471871,
			"-0.002": 17.8717094365,
			"-0.001": 15.0256124112,
			"0.0": 11.2174377635,
			"0.001": 10.9307282208,
			"0.002": 10.5809853858,
			"0.003": 10.8252265666,
			"0.004": 12.7601755656,
			"0.005": 16.0379256205,
			"0.006": 8.60463957395,
			"0.007": 6.09304991687,
			"0.008": 5.96868094607,
			"0.009": 6.65987154878,
			"0.01": 5.82555705367,
			"0.011": 7.36770548089,
			"0.012": 4.29114544051,
			"0.013": 2.95330490034,
			"0.014": 1.43404542391,
			"0.015": 0.0707052536131,
			"0.016": 0.0,
			"0.017": 0.0,
			"0.018": 0.0,
			"0.019": 0.0,
			"0.02": 0.0,
			"0.021": 0.0,
			"0.022": 0.0,
			"0.023": 0.0,
			"0.024": 0.0,
			"0.025": 0.0
		}
	}
}
