{
	 "smiles": "NC(=S)C1=CC=CN=C1", 
	 "Tm": 461.15, 
	 "num_atms": 15, 
	 "gaussian": { 
		 "optdone": 1, 
		 "sigma_profile": "yes", 
		 "theory": "DFT", 
		 "functional": "B3LYP", 
		 "basiset": "6-31G**", 
		 "properties": { 
			 "R2extent": 2251.5144, 
			 "electric_dipole_moment_norm": 2.91051276067, 
			 "electric_quadrupole_moment_norm": 23.8859753326, 
			 "total_energy": -739.94508972, 
			 "HOMO_LUMO_gap": 0.14542, 
			 "cosmo_polarized_energy": -15.38, 
			 "cosmo_cavitation_energy": 20.96, 
			 "cosmo_dispersion_energy": -16.13, 
			 "cosmo_repulsion_energy": 1.27, 
			 "cosmo_total_nonelectrostatic_energy": 6.1, 
			 "SMD_solvation_energy": 1.39 
		},
		"coords": [
			{
				"x": -1.1422044397,
				"y": 2.8457453418,
				"z": -1.3475987269,
				"element": "N" 
			},
			{
				"x": -1.2687926648,
				"y": 1.5969418049,
				"z": -1.8505811673,
				"element": "C" 
			},
			{
				"x": -1.283879865,
				"y": 1.3085078082,
				"z": -3.4932796511,
				"element": "S" 
			},
			{
				"x": -1.3600013383,
				"y": 0.5137447506,
				"z": -0.8336871576,
				"element": "C" 
			},
			{
				"x": -2.0556165868,
				"y": -0.6740350596,
				"z": -1.1013404958,
				"element": "C" 
			},
			{
				"x": -2.1183339307,
				"y": -1.6544867471,
				"z": -0.1188536931,
				"element": "C" 
			},
			{
				"x": -1.4747346146,
				"y": -1.4253441455,
				"z": 1.1003701073,
				"element": "C" 
			},
			{
				"x": -0.783266314,
				"y": -0.3121476753,
				"z": 1.3709849359,
				"element": "N" 
			},
			{
				"x": -0.7342744449,
				"y": 0.6255250169,
				"z": 0.4203374816,
				"element": "C" 
			},
			{
				"x": -1.0862626488,
				"y": 3.6171490904,
				"z": -1.9966087168,
				"element": "H" 
			},
			{
				"x": -1.3235114267,
				"y": 3.0458311876,
				"z": -0.3751511024,
				"element": "H" 
			},
			{
				"x": -2.5301541794,
				"y": -0.8017679366,
				"z": -2.0685075698,
				"element": "H" 
			},
			{
				"x": -2.6565309396,
				"y": -2.5814657424,
				"z": -0.2887533641,
				"element": "H" 
			},
			{
				"x": -1.5120525664,
				"y": -2.1706637596,
				"z": 1.8926899193,
				"element": "H" 
			},
			{
				"x": -0.1296840402,
				"y": 1.5004660657,
				"z": 0.6547792008,
				"element": "H" 
			}
		],
		 "valence_orbital": [ 
			{
				"type": "occ",
				"energy": -0.29937,
				"method": "rhf"
			},
			{
				"type": "occ",
				"energy": -0.27826,
				"method": "rhf"
			},
			{
				"type": "occ",
				"energy": -0.26842,
				"method": "rhf"
			},
			{
				"type": "occ",
				"energy": -0.23717,
				"method": "rhf"
			},
			{
				"type": "occ",
				"energy": -0.2154,
				"method": "rhf"
			},
			{
				"type": "unocc",
				"energy": -0.06998,
				"method": "rhf"
			},
			{
				"type": "unocc",
				"energy": -0.03575,
				"method": "rhf"
			},
			{
				"type": "unocc",
				"energy": 0.00842,
				"method": "rhf"
			},
			{
				"type": "unocc",
				"energy": 0.06703,
				"method": "rhf"
			},
			{
				"type": "unocc",
				"energy": 0.08579,
				"method": "rhf"
			}
		],
		"cosmo_sigma_profile": { 
			"-0.025": 0.0,
			"-0.024": 0.0,
			"-0.023": 0.0,
			"-0.022": 0.0,
			"-0.021": 0.0,
			"-0.02": 0.0,
			"-0.019": 0.0,
			"-0.018": 0.0,
			"-0.017": 0.0,
			"-0.016": 0.553688076904,
			"-0.015": 2.36773605587,
			"-0.014": 2.64102837885,
			"-0.013": 3.53457770182,
			"-0.012": 1.96913140105,
			"-0.011": 2.30695819092,
			"-0.01": 2.13079106368,
			"-0.009": 1.69273356075,
			"-0.008": 2.83744075777,
			"-0.007": 7.55604796326,
			"-0.006": 9.30269448538,
			"-0.005": 7.9066348497,
			"-0.004": 7.33075655228,
			"-0.003": 6.97412378332,
			"-0.002": 8.14686371807,
			"-0.001": 9.75005366695,
			"0.0": 12.1993492741,
			"0.001": 14.4941470713,
			"0.002": 10.0034301005,
			"0.003": 6.55012499231,
			"0.004": 5.82747781002,
			"0.005": 4.97633916253,
			"0.006": 5.84064992754,
			"0.007": 6.59170730702,
			"0.008": 7.03733080748,
			"0.009": 7.10798752016,
			"0.01": 4.91975648215,
			"0.011": 3.5120042016,
			"0.012": 1.36777892409,
			"0.013": 1.4697570351,
			"0.014": 0.668880242855,
			"0.015": 0.851395967162,
			"0.016": 0.461047186639,
			"0.017": 0.00972283484087,
			"0.018": 0.0,
			"0.019": 0.0,
			"0.02": 0.0,
			"0.021": 0.0,
			"0.022": 0.0,
			"0.023": 0.0,
			"0.024": 0.0,
			"0.025": 0.0
		}
	}
}
