{
	 "smiles": "ClC1=C2C=CC=CC2=C(C=C1)S(Cl)(=O)=O", 
	 "Tm": 364.15, 
	 "num_atms": 21, 
	 "gaussian": { 
		 "optdone": 1, 
		 "sigma_profile": "yes", 
		 "theory": "DFT", 
		 "functional": "B3LYP", 
		 "basiset": "6-31G**", 
		 "properties": { 
			 "R2extent": 5185.7157, 
			 "electric_dipole_moment_norm": 4.25835318756, 
			 "electric_quadrupole_moment_norm": 17.1641195073, 
			 "total_energy": -1853.63767457, 
			 "HOMO_LUMO_gap": 0.15151, 
			 "cosmo_polarized_energy": -8.17, 
			 "cosmo_cavitation_energy": 29.87, 
			 "cosmo_dispersion_energy": -22.77, 
			 "cosmo_repulsion_energy": 1.71, 
			 "cosmo_total_nonelectrostatic_energy": 8.81, 
			 "SMD_solvation_energy": 3.35 
		},
		"coords": [
			{
				"x": 2.6366654177,
				"y": 0.8535381202,
				"z": -0.704528965,
				"element": "Cl" 
			},
			{
				"x": 1.1225253267,
				"y": 0.6072625726,
				"z": 0.1433215433,
				"element": "C" 
			},
			{
				"x": -0.1149058762,
				"y": 0.7352216783,
				"z": -0.5577229377,
				"element": "C" 
			},
			{
				"x": -0.181731495,
				"y": 1.0547913694,
				"z": -1.9391757664,
				"element": "C" 
			},
			{
				"x": -1.39371957,
				"y": 1.1651781733,
				"z": -2.5800364861,
				"element": "C" 
			},
			{
				"x": -2.5940643128,
				"y": 0.9647230619,
				"z": -1.8648603786,
				"element": "C" 
			},
			{
				"x": -2.5715774014,
				"y": 0.658165244,
				"z": -0.5226773745,
				"element": "C" 
			},
			{
				"x": -1.3397696051,
				"y": 0.5301504108,
				"z": 0.1740861341,
				"element": "C" 
			},
			{
				"x": -1.2278314192,
				"y": 0.2030263301,
				"z": 1.5628189088,
				"element": "C" 
			},
			{
				"x": -0.0106297051,
				"y": 0.0780331287,
				"z": 2.1978497002,
				"element": "C" 
			},
			{
				"x": 1.181775484,
				"y": 0.2912340346,
				"z": 1.4812737796,
				"element": "C" 
			},
			{
				"x": -2.6580667695,
				"y": -0.0738872688,
				"z": 2.6085104541,
				"element": "S" 
			},
			{
				"x": -3.3537926576,
				"y": -1.96408533,
				"z": 1.892197308,
				"element": "Cl" 
			},
			{
				"x": -2.2095801161,
				"y": -0.3014914973,
				"z": 3.9765960072,
				"element": "O" 
			},
			{
				"x": -3.7163617025,
				"y": 0.8839024931,
				"z": 2.3075451972,
				"element": "O" 
			},
			{
				"x": 0.7415983114,
				"y": 1.2106626858,
				"z": -2.483534735,
				"element": "H" 
			},
			{
				"x": -1.4270352221,
				"y": 1.4088347655,
				"z": -3.6373370087,
				"element": "H" 
			},
			{
				"x": -3.5478944417,
				"y": 1.0563656205,
				"z": -2.3751088464,
				"element": "H" 
			},
			{
				"x": -3.5030269595,
				"y": 0.5250771601,
				"z": 0.0102478103,
				"element": "H" 
			},
			{
				"x": 0.0267821344,
				"y": -0.180366577,
				"z": 3.2492384741,
				"element": "H" 
			},
			{
				"x": 2.1392405794,
				"y": 0.2030638245,
				"z": 1.9805971813,
				"element": "H" 
			}
		],
		 "valence_orbital": [ 
			{
				"type": "occ",
				"energy": -0.33023,
				"method": "rhf"
			},
			{
				"type": "occ",
				"energy": -0.31602,
				"method": "rhf"
			},
			{
				"type": "occ",
				"energy": -0.30094,
				"method": "rhf"
			},
			{
				"type": "occ",
				"energy": -0.28053,
				"method": "rhf"
			},
			{
				"type": "occ",
				"energy": -0.25101,
				"method": "rhf"
			},
			{
				"type": "unocc",
				"energy": -0.0995,
				"method": "rhf"
			},
			{
				"type": "unocc",
				"energy": -0.06942,
				"method": "rhf"
			},
			{
				"type": "unocc",
				"energy": -0.046,
				"method": "rhf"
			},
			{
				"type": "unocc",
				"energy": -0.00978,
				"method": "rhf"
			},
			{
				"type": "unocc",
				"energy": 0.00927,
				"method": "rhf"
			}
		],
		"cosmo_sigma_profile": { 
			"-0.025": 0.0,
			"-0.024": 0.0,
			"-0.023": 0.0,
			"-0.022": 0.0,
			"-0.021": 0.0,
			"-0.02": 0.0,
			"-0.019": 0.0,
			"-0.018": 0.0,
			"-0.017": 0.0,
			"-0.016": 0.0,
			"-0.015": 0.0,
			"-0.014": 0.0,
			"-0.013": 0.0,
			"-0.012": 0.0,
			"-0.011": 0.0,
			"-0.01": 0.00634582696283,
			"-0.009": 2.19206231471,
			"-0.008": 4.27006910072,
			"-0.007": 7.92275757587,
			"-0.006": 11.4041622558,
			"-0.005": 11.098011434,
			"-0.004": 11.2970158407,
			"-0.003": 12.8034528592,
			"-0.002": 17.4259437503,
			"-0.001": 26.7384602846,
			"0.0": 29.1983850577,
			"0.001": 24.0919255659,
			"0.002": 25.8420439614,
			"0.003": 26.8400767575,
			"0.004": 10.3328171091,
			"0.005": 3.68217477531,
			"0.006": 2.84272598399,
			"0.007": 6.31193845886,
			"0.008": 8.71737817928,
			"0.009": 3.29309916906,
			"0.01": 0.0,
			"0.011": 0.0,
			"0.012": 0.0,
			"0.013": 0.0,
			"0.014": 0.0,
			"0.015": 0.0,
			"0.016": 0.0,
			"0.017": 0.0,
			"0.018": 0.0,
			"0.019": 0.0,
			"0.02": 0.0,
			"0.021": 0.0,
			"0.022": 0.0,
			"0.023": 0.0,
			"0.024": 0.0,
			"0.025": 0.0
		}
	}
}
