{
	 "smiles": "NC1=CC=C(C=C1)C(=O)N1CCCC2=C1C=CC=C2", 
	 "Tm": 484.15, 
	 "num_atms": 35, 
	 "gaussian": { 
		 "optdone": 1, 
		 "sigma_profile": "yes", 
		 "theory": "DFT", 
		 "functional": "B3LYP", 
		 "basiset": "6-31G**", 
		 "properties": { 
			 "R2extent": 6382.7776, 
			 "electric_dipole_moment_norm": 5.44978828029, 
			 "electric_quadrupole_moment_norm": 21.7927764195, 
			 "total_energy": -804.096600219, 
			 "HOMO_LUMO_gap": 0.17696, 
			 "cosmo_polarized_energy": -17.29, 
			 "cosmo_cavitation_energy": 37.07, 
			 "cosmo_dispersion_energy": -26.92, 
			 "cosmo_repulsion_energy": 2.06, 
			 "cosmo_total_nonelectrostatic_energy": 12.21, 
			 "SMD_solvation_energy": 5.84 
		},
		"coords": [
			{
				"x": -0.6654816264,
				"y": 3.993035021,
				"z": -4.4695127223,
				"element": "N" 
			},
			{
				"x": -0.7805930098,
				"y": 2.9945002679,
				"z": -3.5115845894,
				"element": "C" 
			},
			{
				"x": 0.2834967846,
				"y": 2.1071412046,
				"z": -3.2647949643,
				"element": "C" 
			},
			{
				"x": 0.1485707673,
				"y": 1.0838191212,
				"z": -2.3339493998,
				"element": "C" 
			},
			{
				"x": -1.0476524835,
				"y": 0.9024398553,
				"z": -1.6223453633,
				"element": "C" 
			},
			{
				"x": -2.1173603388,
				"y": 1.7688044031,
				"z": -1.8976898674,
				"element": "C" 
			},
			{
				"x": -1.9871409232,
				"y": 2.8060035849,
				"z": -2.8093395832,
				"element": "C" 
			},
			{
				"x": -1.3013296647,
				"y": -0.2508685779,
				"z": -0.7008079564,
				"element": "C" 
			},
			{
				"x": -2.4070169877,
				"y": -0.780687432,
				"z": -0.6745556847,
				"element": "O" 
			},
			{
				"x": -0.2298317401,
				"y": -0.7192457573,
				"z": 0.0731186298,
				"element": "N" 
			},
			{
				"x": 0.7959642463,
				"y": 0.1999833538,
				"z": 0.5899163756,
				"element": "C" 
			},
			{
				"x": 0.7129269365,
				"y": 0.2834070797,
				"z": 2.1155468298,
				"element": "C" 
			},
			{
				"x": 0.9978912168,
				"y": -1.0918900171,
				"z": 2.7195047658,
				"element": "C" 
			},
			{
				"x": 0.2986564437,
				"y": -2.2070031356,
				"z": 1.9650008212,
				"element": "C" 
			},
			{
				"x": -0.3003691097,
				"y": -1.9991254703,
				"z": 0.7066610687,
				"element": "C" 
			},
			{
				"x": -0.9080601843,
				"y": -3.0812560557,
				"z": 0.044068907,
				"element": "C" 
			},
			{
				"x": -0.9335487268,
				"y": -4.3432248341,
				"z": 0.6232623643,
				"element": "C" 
			},
			{
				"x": -0.3455455024,
				"y": -4.5583197042,
				"z": 1.872986682,
				"element": "C" 
			},
			{
				"x": 0.2632012558,
				"y": -3.4921969724,
				"z": 2.5243540545,
				"element": "C" 
			},
			{
				"x": -1.3110740585,
				"y": 4.7652149392,
				"z": -4.3890308386,
				"element": "H" 
			},
			{
				"x": 0.2727718599,
				"y": 4.2856094286,
				"z": -4.7009164835,
				"element": "H" 
			},
			{
				"x": 1.2122773375,
				"y": 2.2177392811,
				"z": -3.8190150522,
				"element": "H" 
			},
			{
				"x": 0.9788409119,
				"y": 0.401810971,
				"z": -2.1764426943,
				"element": "H" 
			},
			{
				"x": -3.0587247385,
				"y": 1.6075113563,
				"z": -1.3826412516,
				"element": "H" 
			},
			{
				"x": -2.825215964,
				"y": 3.4723056566,
				"z": -2.998626315,
				"element": "H" 
			},
			{
				"x": 0.639266109,
				"y": 1.1798860728,
				"z": 0.1442280575,
				"element": "H" 
			},
			{
				"x": 1.792809471,
				"y": -0.1518035227,
				"z": 0.288602065,
				"element": "H" 
			},
			{
				"x": -0.2905867732,
				"y": 0.6265800597,
				"z": 2.3935168475,
				"element": "H" 
			},
			{
				"x": 1.4275351996,
				"y": 1.0263194412,
				"z": 2.4871549634,
				"element": "H" 
			},
			{
				"x": 2.0819763763,
				"y": -1.275422831,
				"z": 2.7043813757,
				"element": "H" 
			},
			{
				"x": 0.703066366,
				"y": -1.1187767568,
				"z": 3.77502151,
				"element": "H" 
			},
			{
				"x": -1.3727504685,
				"y": -2.9199960273,
				"z": -0.9192954477,
				"element": "H" 
			},
			{
				"x": -1.4118244163,
				"y": -5.1621861768,
				"z": 0.0937471953,
				"element": "H" 
			},
			{
				"x": -0.3640746004,
				"y": -5.5427831227,
				"z": 2.3310680121,
				"element": "H" 
			},
			{
				"x": 0.7252300347,
				"y": -3.6451247039,
				"z": 3.4974076885,
				"element": "H" 
			}
		],
		 "valence_orbital": [ 
			{
				"type": "occ",
				"energy": -0.2545,
				"method": "rhf"
			},
			{
				"type": "occ",
				"energy": -0.24468,
				"method": "rhf"
			},
			{
				"type": "occ",
				"energy": -0.22921,
				"method": "rhf"
			},
			{
				"type": "occ",
				"energy": -0.20919,
				"method": "rhf"
			},
			{
				"type": "occ",
				"energy": -0.20147,
				"method": "rhf"
			},
			{
				"type": "unocc",
				"energy": -0.02451,
				"method": "rhf"
			},
			{
				"type": "unocc",
				"energy": -0.00286,
				"method": "rhf"
			},
			{
				"type": "unocc",
				"energy": 0.00901,
				"method": "rhf"
			},
			{
				"type": "unocc",
				"energy": 0.01798,
				"method": "rhf"
			},
			{
				"type": "unocc",
				"energy": 0.06261,
				"method": "rhf"
			}
		],
		"cosmo_sigma_profile": { 
			"-0.025": 0.0,
			"-0.024": 0.0,
			"-0.023": 0.0,
			"-0.022": 0.0,
			"-0.021": 0.0,
			"-0.02": 0.0,
			"-0.019": 0.0,
			"-0.018": 0.0,
			"-0.017": 0.0,
			"-0.016": 0.0,
			"-0.015": 0.0,
			"-0.014": 0.0,
			"-0.013": 1.39501634386,
			"-0.012": 2.76090212719,
			"-0.011": 3.288952258,
			"-0.01": 2.9663246717,
			"-0.009": 2.99789530401,
			"-0.008": 3.32234515284,
			"-0.007": 3.50488450756,
			"-0.006": 5.83175407463,
			"-0.005": 15.0375914796,
			"-0.004": 29.7290940097,
			"-0.003": 36.3523559057,
			"-0.002": 28.1238444549,
			"-0.001": 22.7093870281,
			"0.0": 18.0199959906,
			"0.001": 14.4429813603,
			"0.002": 12.4375891111,
			"0.003": 14.8471466205,
			"0.004": 15.8678128102,
			"0.005": 19.3766796523,
			"0.006": 13.1767127601,
			"0.007": 5.72295639207,
			"0.008": 3.07518484399,
			"0.009": 2.86960656833,
			"0.01": 2.32545848884,
			"0.011": 2.3948472161,
			"0.012": 2.9371903941,
			"0.013": 4.29522760876,
			"0.014": 3.65285026902,
			"0.015": 0.324990061908,
			"0.016": 0.0,
			"0.017": 0.0,
			"0.018": 0.0,
			"0.019": 0.0,
			"0.02": 0.0,
			"0.021": 0.0,
			"0.022": 0.0,
			"0.023": 0.0,
			"0.024": 0.0,
			"0.025": 0.0
		}
	}
}
