{
	 "smiles": "CC(C)C(N1CCN(C)CC1)C(O)=O", 
	 "Tm": 469.15, 
	 "num_atms": 34, 
	 "gaussian": { 
		 "optdone": 1, 
		 "sigma_profile": "yes", 
		 "theory": "DFT", 
		 "functional": "B3LYP", 
		 "basiset": "6-31G**", 
		 "properties": { 
			 "R2extent": 3548.7604, 
			 "electric_dipole_moment_norm": 4.94277499893, 
			 "electric_quadrupole_moment_norm": 17.5434885932, 
			 "total_energy": -653.064072697, 
			 "HOMO_LUMO_gap": 0.21901, 
			 "cosmo_polarized_energy": -13.07, 
			 "cosmo_cavitation_energy": 32.23, 
			 "cosmo_dispersion_energy": -22.98, 
			 "cosmo_repulsion_energy": 1.77, 
			 "cosmo_total_nonelectrostatic_energy": 11.02, 
			 "SMD_solvation_energy": 3.19 
		},
		"coords": [
			{
				"x": -2.5442051932,
				"y": 0.7357003832,
				"z": 0.373121141,
				"element": "C" 
			},
			{
				"x": -1.347816482,
				"y": -0.1787979695,
				"z": 0.0603981192,
				"element": "C" 
			},
			{
				"x": -1.7451812262,
				"y": -1.6600083734,
				"z": 0.1727996272,
				"element": "C" 
			},
			{
				"x": -0.0926177344,
				"y": 0.1252975401,
				"z": 0.9318128342,
				"element": "C" 
			},
			{
				"x": 0.5090246293,
				"y": 1.4676111553,
				"z": 0.7186161884,
				"element": "N" 
			},
			{
				"x": 1.8933703876,
				"y": 1.5394435402,
				"z": 1.2561308093,
				"element": "C" 
			},
			{
				"x": 2.9357914137,
				"y": 0.9086780048,
				"z": 0.3144268908,
				"element": "C" 
			},
			{
				"x": 2.9067863063,
				"y": 1.4578969303,
				"z": -1.0449472448,
				"element": "N" 
			},
			{
				"x": 3.5567201971,
				"y": 2.7571253538,
				"z": -1.1776386207,
				"element": "C" 
			},
			{
				"x": 1.5418159137,
				"y": 1.4136679028,
				"z": -1.5785445491,
				"element": "C" 
			},
			{
				"x": 0.4984096902,
				"y": 2.0483261579,
				"z": -0.640596758,
				"element": "C" 
			},
			{
				"x": -0.4798906942,
				"y": 0.0365155322,
				"z": 2.4275949717,
				"element": "C" 
			},
			{
				"x": -0.6962586468,
				"y": 1.2347778343,
				"z": 2.996322414,
				"element": "O" 
			},
			{
				"x": -0.6177684669,
				"y": -1.0076272219,
				"z": 3.0225185174,
				"element": "O" 
			},
			{
				"x": -3.3584284981,
				"y": 0.5438637622,
				"z": -0.3329457929,
				"element": "H" 
			},
			{
				"x": -2.2887222233,
				"y": 1.7978736583,
				"z": 0.3070165221,
				"element": "H" 
			},
			{
				"x": -2.9305135177,
				"y": 0.5511771018,
				"z": 1.3807393513,
				"element": "H" 
			},
			{
				"x": -1.0510124191,
				"y": -0.0126357977,
				"z": -0.9822753255,
				"element": "H" 
			},
			{
				"x": -0.9227254681,
				"y": -2.3166172818,
				"z": -0.1301031956,
				"element": "H" 
			},
			{
				"x": -2.5985556278,
				"y": -1.8670612548,
				"z": -0.4812705584,
				"element": "H" 
			},
			{
				"x": -2.0191746814,
				"y": -1.923736459,
				"z": 1.1968087728,
				"element": "H" 
			},
			{
				"x": 0.6262706079,
				"y": -0.6855650335,
				"z": 0.7546757082,
				"element": "H" 
			},
			{
				"x": 1.9215243465,
				"y": 1.0571284664,
				"z": 2.2384006211,
				"element": "H" 
			},
			{
				"x": 2.1284473912,
				"y": 2.5989821806,
				"z": 1.4163827155,
				"element": "H" 
			},
			{
				"x": 3.9407660371,
				"y": 1.0393899771,
				"z": 0.7312688743,
				"element": "H" 
			},
			{
				"x": 2.7614942505,
				"y": -0.1734220828,
				"z": 0.2449403742,
				"element": "H" 
			},
			{
				"x": 4.5956638969,
				"y": 2.6734280527,
				"z": -0.8418490263,
				"element": "H" 
			},
			{
				"x": 3.0921560682,
				"y": 3.5864595137,
				"z": -0.6145105655,
				"element": "H" 
			},
			{
				"x": 3.571106059,
				"y": 3.0445259013,
				"z": -2.2342786019,
				"element": "H" 
			},
			{
				"x": 1.2805911958,
				"y": 0.3607132475,
				"z": -1.7549181347,
				"element": "H" 
			},
			{
				"x": 1.5248917787,
				"y": 1.914788926,
				"z": -2.5533521378,
				"element": "H" 
			},
			{
				"x": 0.7149624497,
				"y": 3.1175878713,
				"z": -0.5223735806,
				"element": "H" 
			},
			{
				"x": -0.5028164888,
				"y": 1.9834759488,
				"z": -1.0695084077,
				"element": "H" 
			},
			{
				"x": -0.4502052515,
				"y": 1.8792365317,
				"z": 2.2875380469,
				"element": "H" 
			}
		],
		 "valence_orbital": [ 
			{
				"type": "occ",
				"energy": -0.33196,
				"method": "rhf"
			},
			{
				"type": "occ",
				"energy": -0.29835,
				"method": "rhf"
			},
			{
				"type": "occ",
				"energy": -0.27079,
				"method": "rhf"
			},
			{
				"type": "occ",
				"energy": -0.24937,
				"method": "rhf"
			},
			{
				"type": "occ",
				"energy": -0.20195,
				"method": "rhf"
			},
			{
				"type": "unocc",
				"energy": 0.01706,
				"method": "rhf"
			},
			{
				"type": "unocc",
				"energy": 0.05832,
				"method": "rhf"
			},
			{
				"type": "unocc",
				"energy": 0.08027,
				"method": "rhf"
			},
			{
				"type": "unocc",
				"energy": 0.09564,
				"method": "rhf"
			},
			{
				"type": "unocc",
				"energy": 0.10552,
				"method": "rhf"
			}
		],
		"cosmo_sigma_profile": { 
			"-0.025": 0.0,
			"-0.024": 0.0,
			"-0.023": 0.0,
			"-0.022": 0.0,
			"-0.021": 0.0,
			"-0.02": 0.0,
			"-0.019": 0.0,
			"-0.018": 0.0,
			"-0.017": 0.0,
			"-0.016": 0.0,
			"-0.015": 0.0,
			"-0.014": 0.0,
			"-0.013": 0.0,
			"-0.012": 0.0,
			"-0.011": 0.0,
			"-0.01": 0.21039354153,
			"-0.009": 0.776561754871,
			"-0.008": 0.411576798213,
			"-0.007": 0.532050756297,
			"-0.006": 2.85293628775,
			"-0.005": 12.8595337808,
			"-0.004": 30.5272162258,
			"-0.003": 41.521045227,
			"-0.002": 35.0689059147,
			"-0.001": 28.6771337907,
			"0.0": 24.5013029192,
			"0.001": 17.3917619909,
			"0.002": 7.00770542572,
			"0.003": 4.49686273797,
			"0.004": 2.72145857361,
			"0.005": 2.86221022794,
			"0.006": 3.19337968199,
			"0.007": 3.23079940967,
			"0.008": 3.69094926633,
			"0.009": 3.17149160302,
			"0.01": 5.12537449464,
			"0.011": 5.80555171256,
			"0.012": 5.34587146163,
			"0.013": 4.81558497498,
			"0.014": 0.975506749946,
			"0.015": 0.189787004862,
			"0.016": 0.492742011035,
			"0.017": 0.253677106261,
			"0.018": 0.0,
			"0.019": 0.0,
			"0.02": 0.0,
			"0.021": 0.0,
			"0.022": 0.0,
			"0.023": 0.0,
			"0.024": 0.0,
			"0.025": 0.0
		}
	}
}
