{
	 "smiles": "CC1=NN(C(=O)C1)C1=CC=C(C=C1)[N+]([O-])=O", 
	 "Tm": 495.15, 
	 "num_atms": 25, 
	 "gaussian": { 
		 "optdone": 1, 
		 "sigma_profile": "yes", 
		 "theory": "DFT", 
		 "functional": "B3LYP", 
		 "basiset": "6-31G**", 
		 "properties": { 
			 "R2extent": 4811.2687, 
			 "electric_dipole_moment_norm": 8.57371169564, 
			 "electric_quadrupole_moment_norm": 10.9406352658, 
			 "total_energy": -776.304542215, 
			 "HOMO_LUMO_gap": 0.15522, 
			 "cosmo_polarized_energy": -14.84, 
			 "cosmo_cavitation_energy": 30.36, 
			 "cosmo_dispersion_energy": -22.44, 
			 "cosmo_repulsion_energy": 1.74, 
			 "cosmo_total_nonelectrostatic_energy": 9.65, 
			 "SMD_solvation_energy": 7.58 
		},
		"coords": [
			{
				"x": 3.2857043539,
				"y": -1.3937764279,
				"z": 3.4268152417,
				"element": "C" 
			},
			{
				"x": 2.6826273073,
				"y": -1.1186400177,
				"z": 2.0899869489,
				"element": "C" 
			},
			{
				"x": 1.5480849679,
				"y": -0.5221076228,
				"z": 1.9703682386,
				"element": "N" 
			},
			{
				"x": 1.2442065226,
				"y": -0.4064129733,
				"z": 0.6049539937,
				"element": "N" 
			},
			{
				"x": 2.2382830495,
				"y": -0.9594352822,
				"z": -0.2132556417,
				"element": "C" 
			},
			{
				"x": 2.2521554715,
				"y": -1.0071966876,
				"z": -1.4273227721,
				"element": "O" 
			},
			{
				"x": 3.2860437614,
				"y": -1.4818547982,
				"z": 0.764682355,
				"element": "C" 
			},
			{
				"x": 0.0387488711,
				"y": 0.2187957278,
				"z": 0.2312202477,
				"element": "C" 
			},
			{
				"x": -0.8198390047,
				"y": 0.7063488608,
				"z": 1.2340851449,
				"element": "C" 
			},
			{
				"x": -2.0118853624,
				"y": 1.3253669578,
				"z": 0.8866061883,
				"element": "C" 
			},
			{
				"x": -2.3457805138,
				"y": 1.4571242096,
				"z": -0.4609333592,
				"element": "C" 
			},
			{
				"x": -1.5060382062,
				"y": 0.9794347671,
				"z": -1.4655662627,
				"element": "C" 
			},
			{
				"x": -0.3107589831,
				"y": 0.3584737824,
				"z": -1.1255212812,
				"element": "C" 
			},
			{
				"x": -3.6038660625,
				"y": 2.1105408069,
				"z": -0.826519153,
				"element": "N" 
			},
			{
				"x": -3.8708840034,
				"y": 2.211662839,
				"z": -2.0251621821,
				"element": "O" 
			},
			{
				"x": -4.3226844637,
				"y": 2.5217818053,
				"z": 0.0863476561,
				"element": "O" 
			},
			{
				"x": 2.6320305902,
				"y": -1.0217067848,
				"z": 4.2179284772,
				"element": "H" 
			},
			{
				"x": 4.266316084,
				"y": -0.9121216817,
				"z": 3.5189363881,
				"element": "H" 
			},
			{
				"x": 3.4420005896,
				"y": -2.4694485717,
				"z": 3.5702738675,
				"element": "H" 
			},
			{
				"x": 3.4313565427,
				"y": -2.5603421554,
				"z": 0.6345991148,
				"element": "H" 
			},
			{
				"x": 4.255382534,
				"y": -1.0037217672,
				"z": 0.5831917997,
				"element": "H" 
			},
			{
				"x": -0.5401839509,
				"y": 0.5929767159,
				"z": 2.2725797248,
				"element": "H" 
			},
			{
				"x": -2.6871350637,
				"y": 1.7077239433,
				"z": 1.6417110175,
				"element": "H" 
			},
			{
				"x": -1.7967841033,
				"y": 1.0987208917,
				"z": -2.5017368508,
				"element": "H" 
			},
			{
				"x": 0.3511990721,
				"y": -0.017286537,
				"z": -1.892368902,
				"element": "H" 
			}
		],
		 "valence_orbital": [ 
			{
				"type": "occ",
				"energy": -0.29762,
				"method": "rhf"
			},
			{
				"type": "occ",
				"energy": -0.28064,
				"method": "rhf"
			},
			{
				"type": "occ",
				"energy": -0.2763,
				"method": "rhf"
			},
			{
				"type": "occ",
				"energy": -0.27306,
				"method": "rhf"
			},
			{
				"type": "occ",
				"energy": -0.23663,
				"method": "rhf"
			},
			{
				"type": "unocc",
				"energy": -0.08141,
				"method": "rhf"
			},
			{
				"type": "unocc",
				"energy": -0.04849,
				"method": "rhf"
			},
			{
				"type": "unocc",
				"energy": -0.02036,
				"method": "rhf"
			},
			{
				"type": "unocc",
				"energy": -0.00996,
				"method": "rhf"
			},
			{
				"type": "unocc",
				"energy": 0.0451,
				"method": "rhf"
			}
		],
		"cosmo_sigma_profile": { 
			"-0.025": 0.0,
			"-0.024": 0.0,
			"-0.023": 0.0,
			"-0.022": 0.0,
			"-0.021": 0.0,
			"-0.02": 0.0,
			"-0.019": 0.0,
			"-0.018": 0.0,
			"-0.017": 0.0,
			"-0.016": 0.0,
			"-0.015": 0.0,
			"-0.014": 0.0,
			"-0.013": 0.0,
			"-0.012": 0.0,
			"-0.011": 0.0,
			"-0.01": 0.142013414884,
			"-0.009": 4.4132872164,
			"-0.008": 7.43512406542,
			"-0.007": 9.83126998521,
			"-0.006": 16.746687666,
			"-0.005": 17.2012491829,
			"-0.004": 15.2714248152,
			"-0.003": 14.9832917786,
			"-0.002": 18.2227616197,
			"-0.001": 19.0098526949,
			"0.0": 18.5874878511,
			"0.001": 22.1814947368,
			"0.002": 14.1588601599,
			"0.003": 6.58738970539,
			"0.004": 6.17975622388,
			"0.005": 6.77211748496,
			"0.006": 4.70836029105,
			"0.007": 9.43144555774,
			"0.008": 12.4587434967,
			"0.009": 6.4414454433,
			"0.01": 6.62031272373,
			"0.011": 3.93029808039,
			"0.012": 1.99684169922,
			"0.013": 0.347842259566,
			"0.014": 0.0,
			"0.015": 0.0,
			"0.016": 0.0,
			"0.017": 0.0,
			"0.018": 0.0,
			"0.019": 0.0,
			"0.02": 0.0,
			"0.021": 0.0,
			"0.022": 0.0,
			"0.023": 0.0,
			"0.024": 0.0,
			"0.025": 0.0
		}
	}
}
