{
	 "smiles": "NC(=O)CN1C=C(NC(=O)OCC(F)(F)F)C=N1", 
	 "Tm": 424.15, 
	 "num_atms": 27, 
	 "gaussian": { 
		 "optdone": 1, 
		 "sigma_profile": "yes", 
		 "theory": "DFT", 
		 "functional": "B3LYP", 
		 "basiset": "6-31G**", 
		 "properties": { 
			 "R2extent": 7317.9261, 
			 "electric_dipole_moment_norm": 0.732994918127, 
			 "electric_quadrupole_moment_norm": 29.3639756717, 
			 "total_energy": -1054.48558386, 
			 "HOMO_LUMO_gap": 0.222, 
			 "cosmo_polarized_energy": -20.7, 
			 "cosmo_cavitation_energy": 34.32, 
			 "cosmo_dispersion_energy": -23.91, 
			 "cosmo_repulsion_energy": 1.82, 
			 "cosmo_total_nonelectrostatic_energy": 12.23, 
			 "SMD_solvation_energy": 8.7 
		},
		"coords": [
			{
				"x": -1.864198984,
				"y": -3.3069650535,
				"z": -0.379366823,
				"element": "N" 
			},
			{
				"x": -0.6818549184,
				"y": -3.8480962508,
				"z": 0.0012537102,
				"element": "C" 
			},
			{
				"x": -0.3227330768,
				"y": -4.9900512077,
				"z": -0.2444859572,
				"element": "O" 
			},
			{
				"x": 0.2212620641,
				"y": -2.9323569168,
				"z": 0.8535447179,
				"element": "C" 
			},
			{
				"x": 0.1478408549,
				"y": -1.5104283213,
				"z": 0.5576366869,
				"element": "N" 
			},
			{
				"x": 1.0908230177,
				"y": -0.739103805,
				"z": -0.0480577312,
				"element": "C" 
			},
			{
				"x": 0.5573052876,
				"y": 0.5373411104,
				"z": -0.1420862514,
				"element": "C" 
			},
			{
				"x": 1.2355485382,
				"y": 1.6585019001,
				"z": -0.6532699876,
				"element": "N" 
			},
			{
				"x": 0.7255154536,
				"y": 2.8310455928,
				"z": -1.1347860172,
				"element": "C" 
			},
			{
				"x": 1.4031889823,
				"y": 3.7722375846,
				"z": -1.4947832164,
				"element": "O" 
			},
			{
				"x": -0.6411008765,
				"y": 2.7921008242,
				"z": -1.1743925287,
				"element": "O" 
			},
			{
				"x": -1.2956198882,
				"y": 4.0180190903,
				"z": -1.4723359699,
				"element": "C" 
			},
			{
				"x": -1.9294013948,
				"y": 4.552492209,
				"z": -0.1998395142,
				"element": "C" 
			},
			{
				"x": -2.6134461259,
				"y": 5.6816593083,
				"z": -0.470272851,
				"element": "F" 
			},
			{
				"x": -1.0022256879,
				"y": 4.8296814154,
				"z": 0.7342882098,
				"element": "F" 
			},
			{
				"x": -2.7922737686,
				"y": 3.6610182546,
				"z": 0.3346864076,
				"element": "F" 
			},
			{
				"x": -0.7336352096,
				"y": 0.4321289876,
				"z": 0.4277224412,
				"element": "C" 
			},
			{
				"x": -0.971714442,
				"y": -0.813561697,
				"z": 0.8428590521,
				"element": "N" 
			},
			{
				"x": -2.5153420911,
				"y": -3.8940038791,
				"z": -0.8778712528,
				"element": "H" 
			},
			{
				"x": -2.13288593,
				"y": -2.3817627938,
				"z": -0.0670615344,
				"element": "H" 
			},
			{
				"x": 1.2468898085,
				"y": -3.2686377668,
				"z": 0.7032184841,
				"element": "H" 
			},
			{
				"x": -0.0388765234,
				"y": -3.0829763507,
				"z": 1.9067215156,
				"element": "H" 
			},
			{
				"x": 2.049115833,
				"y": -1.1362810086,
				"z": -0.3487650675,
				"element": "H" 
			},
			{
				"x": 2.2447760708,
				"y": 1.6442715255,
				"z": -0.6532840539,
				"element": "H" 
			},
			{
				"x": -2.0821495688,
				"y": 3.8152261591,
				"z": -2.2019854405,
				"element": "H" 
			},
			{
				"x": -0.586953049,
				"y": 4.7500371682,
				"z": -1.8636332191,
				"element": "H" 
			},
			{
				"x": -1.4819543755,
				"y": 1.2008639211,
				"z": 0.5388461905,
				"element": "H" 
			}
		],
		 "valence_orbital": [ 
			{
				"type": "occ",
				"energy": -0.29822,
				"method": "rhf"
			},
			{
				"type": "occ",
				"energy": -0.27746,
				"method": "rhf"
			},
			{
				"type": "occ",
				"energy": -0.27133,
				"method": "rhf"
			},
			{
				"type": "occ",
				"energy": -0.25549,
				"method": "rhf"
			},
			{
				"type": "occ",
				"energy": -0.22863,
				"method": "rhf"
			},
			{
				"type": "unocc",
				"energy": -0.00663,
				"method": "rhf"
			},
			{
				"type": "unocc",
				"energy": 0.01589,
				"method": "rhf"
			},
			{
				"type": "unocc",
				"energy": 0.02278,
				"method": "rhf"
			},
			{
				"type": "unocc",
				"energy": 0.0617,
				"method": "rhf"
			},
			{
				"type": "unocc",
				"energy": 0.07819,
				"method": "rhf"
			}
		],
		"cosmo_sigma_profile": { 
			"-0.025": 0.0,
			"-0.024": 0.0,
			"-0.023": 0.0,
			"-0.022": 0.0,
			"-0.021": 0.0,
			"-0.02": 0.0,
			"-0.019": 0.0,
			"-0.018": 0.0,
			"-0.017": 0.0,
			"-0.016": 0.738005739927,
			"-0.015": 0.950601121391,
			"-0.014": 2.23564118104,
			"-0.013": 2.61794926533,
			"-0.012": 1.7842992042,
			"-0.011": 2.68978166226,
			"-0.01": 7.0921351916,
			"-0.009": 9.27325086053,
			"-0.008": 11.1861170841,
			"-0.007": 9.70146189402,
			"-0.006": 9.66564135195,
			"-0.005": 9.44558825216,
			"-0.004": 9.62427470988,
			"-0.003": 12.3176705074,
			"-0.002": 15.282702831,
			"-0.001": 14.1882419851,
			"0.0": 17.3650956903,
			"0.001": 18.7198756526,
			"0.002": 36.8995313181,
			"0.003": 26.8777216389,
			"0.004": 7.44407120539,
			"0.005": 5.72693557775,
			"0.006": 3.84537409912,
			"0.007": 3.74038937888,
			"0.008": 3.8959402643,
			"0.009": 2.35249993758,
			"0.01": 4.71736876311,
			"0.011": 4.65151483097,
			"0.012": 7.45922137948,
			"0.013": 6.40272716301,
			"0.014": 4.45075167794,
			"0.015": 0.494465672647,
			"0.016": 0.0,
			"0.017": 0.0,
			"0.018": 0.0,
			"0.019": 0.0,
			"0.02": 0.0,
			"0.021": 0.0,
			"0.022": 0.0,
			"0.023": 0.0,
			"0.024": 0.0,
			"0.025": 0.0
		}
	}
}
