{
	 "smiles": "OC(=O)CC(O)(C1=NC2=C(O1)C=CC=C2)C(F)(F)F", 
	 "Tm": 468.15, 
	 "num_atms": 27, 
	 "gaussian": { 
		 "optdone": 1, 
		 "sigma_profile": "yes", 
		 "theory": "DFT", 
		 "functional": "B3LYP", 
		 "basiset": "6-31G**", 
		 "properties": { 
			 "R2extent": 5735.9506, 
			 "electric_dipole_moment_norm": 2.44100757885, 
			 "electric_quadrupole_moment_norm": 16.3779508886, 
			 "total_energy": -1079.1653998, 
			 "HOMO_LUMO_gap": 0.20662, 
			 "cosmo_polarized_energy": -14.44, 
			 "cosmo_cavitation_energy": 33.06, 
			 "cosmo_dispersion_energy": -23.24, 
			 "cosmo_repulsion_energy": 1.74, 
			 "cosmo_total_nonelectrostatic_energy": 11.56, 
			 "SMD_solvation_energy": 6.29 
		},
		"coords": [
			{
				"x": 2.4658015064,
				"y": -0.8452842163,
				"z": 2.6968432318,
				"element": "O" 
			},
			{
				"x": 2.5495359123,
				"y": 0.1579421769,
				"z": 1.794015779,
				"element": "C" 
			},
			{
				"x": 2.700870981,
				"y": 1.315355581,
				"z": 2.1090817069,
				"element": "O" 
			},
			{
				"x": 2.5092161785,
				"y": -0.3978324687,
				"z": 0.3859213154,
				"element": "C" 
			},
			{
				"x": 1.9506488707,
				"y": 0.514847658,
				"z": -0.7150463552,
				"element": "C" 
			},
			{
				"x": 2.0132906673,
				"y": -0.2822733696,
				"z": -1.8895469692,
				"element": "O" 
			},
			{
				"x": 0.516934071,
				"y": 0.8951382356,
				"z": -0.4295521965,
				"element": "C" 
			},
			{
				"x": -0.2042774067,
				"y": 0.5691373405,
				"z": 0.5892138158,
				"element": "N" 
			},
			{
				"x": -1.462813766,
				"y": 1.1097211121,
				"z": 0.3078379506,
				"element": "C" 
			},
			{
				"x": -1.4052259207,
				"y": 1.7541942085,
				"z": -0.9348452839,
				"element": "C" 
			},
			{
				"x": -0.1225724485,
				"y": 1.6122874164,
				"z": -1.4129949605,
				"element": "O" 
			},
			{
				"x": -2.4818945119,
				"y": 2.4009987881,
				"z": -1.5226053521,
				"element": "C" 
			},
			{
				"x": -3.670225694,
				"y": 2.3772213535,
				"z": -0.7887458588,
				"element": "C" 
			},
			{
				"x": -3.7556807235,
				"y": 1.7367117802,
				"z": 0.4620794495,
				"element": "C" 
			},
			{
				"x": -2.6576288903,
				"y": 1.0937368388,
				"z": 1.0316580931,
				"element": "C" 
			},
			{
				"x": 2.8044932651,
				"y": 1.7968758879,
				"z": -0.9656167894,
				"element": "C" 
			},
			{
				"x": 2.6231905049,
				"y": 2.2024234282,
				"z": -2.2520081563,
				"element": "F" 
			},
			{
				"x": 2.4609055731,
				"y": 2.8220120315,
				"z": -0.1811021151,
				"element": "F" 
			},
			{
				"x": 4.1157117006,
				"y": 1.5504797333,
				"z": -0.8096603852,
				"element": "F" 
			},
			{
				"x": 2.5423737375,
				"y": -0.4264381685,
				"z": 3.5707736581,
				"element": "H" 
			},
			{
				"x": 3.5313283955,
				"y": -0.6637791327,
				"z": 0.0991335327,
				"element": "H" 
			},
			{
				"x": 1.9199291199,
				"y": -1.3152466162,
				"z": 0.3759636066,
				"element": "H" 
			},
			{
				"x": 1.7667739148,
				"y": 0.2790126371,
				"z": -2.6389516399,
				"element": "H" 
			},
			{
				"x": -2.4044363791,
				"y": 2.8928987567,
				"z": -2.4855162833,
				"element": "H" 
			},
			{
				"x": -4.5502826991,
				"y": 2.8667694908,
				"z": -1.1942056813,
				"element": "H" 
			},
			{
				"x": -4.7019887558,
				"y": 1.7467951906,
				"z": 0.9940461609,
				"element": "H" 
			},
			{
				"x": -2.7177772031,
				"y": 0.6001943266,
				"z": 1.9955297263,
				"element": "H" 
			}
		],
		 "valence_orbital": [ 
			{
				"type": "occ",
				"energy": -0.31509,
				"method": "rhf"
			},
			{
				"type": "occ",
				"energy": -0.3007,
				"method": "rhf"
			},
			{
				"type": "occ",
				"energy": -0.27842,
				"method": "rhf"
			},
			{
				"type": "occ",
				"energy": -0.25602,
				"method": "rhf"
			},
			{
				"type": "occ",
				"energy": -0.24775,
				"method": "rhf"
			},
			{
				"type": "unocc",
				"energy": -0.04113,
				"method": "rhf"
			},
			{
				"type": "unocc",
				"energy": -0.00363,
				"method": "rhf"
			},
			{
				"type": "unocc",
				"energy": 0.00749,
				"method": "rhf"
			},
			{
				"type": "unocc",
				"energy": 0.02318,
				"method": "rhf"
			},
			{
				"type": "unocc",
				"energy": 0.07256,
				"method": "rhf"
			}
		],
		"cosmo_sigma_profile": { 
			"-0.025": 0.0,
			"-0.024": 0.0,
			"-0.023": 0.0,
			"-0.022": 0.0,
			"-0.021": 0.0,
			"-0.02": 0.0,
			"-0.019": 0.175411368574,
			"-0.018": 0.985370022094,
			"-0.017": 0.756011144516,
			"-0.016": 1.32843646256,
			"-0.015": 1.48022053488,
			"-0.014": 0.843842518541,
			"-0.013": 1.48146233057,
			"-0.012": 1.71091434974,
			"-0.011": 1.2849685252,
			"-0.01": 1.29053091807,
			"-0.009": 2.38092330028,
			"-0.008": 4.5172856839,
			"-0.007": 9.52100175118,
			"-0.006": 12.3992547297,
			"-0.005": 14.4470472128,
			"-0.004": 12.7204613277,
			"-0.003": 11.5292886493,
			"-0.002": 13.5860723858,
			"-0.001": 14.4738659026,
			"0.0": 19.4255246871,
			"0.001": 25.0882282327,
			"0.002": 35.4907301305,
			"0.003": 19.5405378852,
			"0.004": 14.5717759803,
			"0.005": 6.71142756414,
			"0.006": 7.11433533518,
			"0.007": 6.71747992042,
			"0.008": 5.63151618835,
			"0.009": 5.82435532709,
			"0.01": 6.0355691444,
			"0.011": 4.44490213672,
			"0.012": 0.819273454777,
			"0.013": 0.0,
			"0.014": 0.0,
			"0.015": 0.0,
			"0.016": 0.0,
			"0.017": 0.0,
			"0.018": 0.0,
			"0.019": 0.0,
			"0.02": 0.0,
			"0.021": 0.0,
			"0.022": 0.0,
			"0.023": 0.0,
			"0.024": 0.0,
			"0.025": 0.0
		}
	}
}
