{
	 "smiles": "NCCOCC(O)=O", 
	 "Tm": 451.15, 
	 "num_atms": 17, 
	 "gaussian": { 
		 "optdone": 1, 
		 "sigma_profile": "yes", 
		 "theory": "DFT", 
		 "functional": "B3LYP", 
		 "basiset": "6-31G**", 
		 "properties": { 
			 "R2extent": 2660.8111, 
			 "electric_dipole_moment_norm": 0.977903200731, 
			 "electric_quadrupole_moment_norm": 16.6036153322, 
			 "total_energy": -438.262010768, 
			 "HOMO_LUMO_gap": 0.23563, 
			 "cosmo_polarized_energy": -13.79, 
			 "cosmo_cavitation_energy": 20.88, 
			 "cosmo_dispersion_energy": -15.28, 
			 "cosmo_repulsion_energy": 1.33, 
			 "cosmo_total_nonelectrostatic_energy": 6.93, 
			 "SMD_solvation_energy": 3.73 
		},
		"coords": [
			{
				"x": -0.4354991948,
				"y": 1.2968318243,
				"z": 1.335987962,
				"element": "N" 
			},
			{
				"x": -1.1433761579,
				"y": 0.8801638209,
				"z": 0.1274282845,
				"element": "C" 
			},
			{
				"x": -1.0944969417,
				"y": -0.6143921521,
				"z": -0.1863778363,
				"element": "C" 
			},
			{
				"x": -1.6790205681,
				"y": -1.3040226091,
				"z": 0.916965715,
				"element": "O" 
			},
			{
				"x": -1.6111216691,
				"y": -2.7006063631,
				"z": 0.8360713764,
				"element": "C" 
			},
			{
				"x": -2.5934338957,
				"y": -3.3740908385,
				"z": -0.1215178609,
				"element": "C" 
			},
			{
				"x": -3.5375814414,
				"y": -2.5373097814,
				"z": -0.5994246498,
				"element": "O" 
			},
			{
				"x": -2.5412600748,
				"y": -4.5515160538,
				"z": -0.3984166707,
				"element": "O" 
			},
			{
				"x": -0.7719781791,
				"y": 0.7349744974,
				"z": 2.1148221742,
				"element": "H" 
			},
			{
				"x": 0.5565818025,
				"y": 1.086185952,
				"z": 1.2443584244,
				"element": "H" 
			},
			{
				"x": -0.7392652994,
				"y": 1.4295025141,
				"z": -0.7314611121,
				"element": "H" 
			},
			{
				"x": -2.1945490006,
				"y": 1.175285531,
				"z": 0.2268230761,
				"element": "H" 
			},
			{
				"x": -0.0501429262,
				"y": -0.9464920689,
				"z": -0.3200576279,
				"element": "H" 
			},
			{
				"x": -1.6436100936,
				"y": -0.8331994986,
				"z": -1.1138274428,
				"element": "H" 
			},
			{
				"x": -1.8330191102,
				"y": -3.096033468,
				"z": 1.8341987728,
				"element": "H" 
			},
			{
				"x": -0.6078762874,
				"y": -3.0604269295,
				"z": 0.5612821168,
				"element": "H" 
			},
			{
				"x": -4.1062509625,
				"y": -3.0780543766,
				"z": -1.1741547017,
				"element": "H" 
			}
		],
		 "valence_orbital": [ 
			{
				"type": "occ",
				"energy": -0.33741,
				"method": "rhf"
			},
			{
				"type": "occ",
				"energy": -0.32388,
				"method": "rhf"
			},
			{
				"type": "occ",
				"energy": -0.29815,
				"method": "rhf"
			},
			{
				"type": "occ",
				"energy": -0.26209,
				"method": "rhf"
			},
			{
				"type": "occ",
				"energy": -0.234,
				"method": "rhf"
			},
			{
				"type": "unocc",
				"energy": 0.00163,
				"method": "rhf"
			},
			{
				"type": "unocc",
				"energy": 0.06298,
				"method": "rhf"
			},
			{
				"type": "unocc",
				"energy": 0.08907,
				"method": "rhf"
			},
			{
				"type": "unocc",
				"energy": 0.10775,
				"method": "rhf"
			},
			{
				"type": "unocc",
				"energy": 0.1251,
				"method": "rhf"
			}
		],
		"cosmo_sigma_profile": { 
			"-0.025": 0.0,
			"-0.024": 0.0,
			"-0.023": 0.0,
			"-0.022": 0.0,
			"-0.021": 0.0,
			"-0.02": 0.0,
			"-0.019": 0.141591196719,
			"-0.018": 0.91374598343,
			"-0.017": 1.20235643237,
			"-0.016": 0.77382085109,
			"-0.015": 0.805272886388,
			"-0.014": 0.250028788135,
			"-0.013": 0.190410565294,
			"-0.012": 1.33324765902,
			"-0.011": 1.25913183226,
			"-0.01": 0.673723096616,
			"-0.009": 1.6453234775,
			"-0.008": 5.25914957551,
			"-0.007": 6.48740658874,
			"-0.006": 10.1310435733,
			"-0.005": 9.29082664,
			"-0.004": 16.0519139534,
			"-0.003": 16.3402614987,
			"-0.002": 12.2974799266,
			"-0.001": 7.6416846593,
			"0.0": 6.45630885425,
			"0.001": 7.29412280249,
			"0.002": 3.89762278617,
			"0.003": 4.97948423719,
			"0.004": 5.32836929486,
			"0.005": 3.27688535228,
			"0.006": 3.70609789294,
			"0.007": 4.21866489763,
			"0.008": 4.26570254253,
			"0.009": 4.08501383142,
			"0.01": 5.0925501856,
			"0.011": 6.07371321131,
			"0.012": 5.52613310831,
			"0.013": 1.39692616246,
			"0.014": 0.313761612144,
			"0.015": 0.50950244824,
			"0.016": 0.9798269532,
			"0.017": 0.482513078173,
			"0.018": 0.844233664527,
			"0.019": 0.589368643104,
			"0.02": 0.376825564905,
			"0.021": 0.0,
			"0.022": 0.0,
			"0.023": 0.0,
			"0.024": 0.0,
			"0.025": 0.0
		}
	}
}
