{
	 "smiles": "OC(=O)CC1=CN(N=C1)C1=CC=CC=C1", 
	 "Tm": 381.15, 
	 "num_atms": 25, 
	 "gaussian": { 
		 "optdone": 1, 
		 "sigma_profile": "yes", 
		 "theory": "DFT", 
		 "functional": "B3LYP", 
		 "basiset": "6-31G**", 
		 "properties": { 
			 "R2extent": 4458.8477, 
			 "electric_dipole_moment_norm": 5.24701362777, 
			 "electric_quadrupole_moment_norm": 22.9518462392, 
			 "total_energy": -685.13547414, 
			 "HOMO_LUMO_gap": 0.19833, 
			 "cosmo_polarized_energy": -16.89, 
			 "cosmo_cavitation_energy": 29.99, 
			 "cosmo_dispersion_energy": -21.75, 
			 "cosmo_repulsion_energy": 1.7, 
			 "cosmo_total_nonelectrostatic_energy": 9.93, 
			 "SMD_solvation_energy": 5.91 
		},
		"coords": [
			{
				"x": -2.7013359345,
				"y": 1.9022889467,
				"z": -2.639386688,
				"element": "O" 
			},
			{
				"x": -3.5735192273,
				"y": 1.9221373176,
				"z": -1.6081712912,
				"element": "C" 
			},
			{
				"x": -4.749580807,
				"y": 2.1184315373,
				"z": -1.7857449967,
				"element": "O" 
			},
			{
				"x": -2.9889529629,
				"y": 1.6871606727,
				"z": -0.2019263311,
				"element": "C" 
			},
			{
				"x": -1.5170657104,
				"y": 1.4070806168,
				"z": -0.121610293,
				"element": "C" 
			},
			{
				"x": -0.8819320132,
				"y": 0.1756446664,
				"z": -0.0912842502,
				"element": "C" 
			},
			{
				"x": 0.4604758846,
				"y": 0.410431098,
				"z": -0.0236339192,
				"element": "N" 
			},
			{
				"x": 0.7406227133,
				"y": 1.7380648812,
				"z": -0.0180751609,
				"element": "N" 
			},
			{
				"x": -0.4430451768,
				"y": 2.3372326506,
				"z": -0.0750162325,
				"element": "C" 
			},
			{
				"x": 1.5164646184,
				"y": -0.5430553486,
				"z": 0.019930953,
				"element": "C" 
			},
			{
				"x": 2.7964846827,
				"y": -0.1649451859,
				"z": -0.3982471991,
				"element": "C" 
			},
			{
				"x": 3.8300932506,
				"y": -1.0984528149,
				"z": -0.3641983938,
				"element": "C" 
			},
			{
				"x": 3.5959655225,
				"y": -2.4039144852,
				"z": 0.0738859534,
				"element": "C" 
			},
			{
				"x": 2.3163023891,
				"y": -2.7699567572,
				"z": 0.4931684772,
				"element": "C" 
			},
			{
				"x": 1.2747933977,
				"y": -1.8426384688,
				"z": 0.4770656682,
				"element": "C" 
			},
			{
				"x": -1.8097665469,
				"y": 1.7236638782,
				"z": -2.2962224042,
				"element": "H" 
			},
			{
				"x": -3.2456644852,
				"y": 2.5778119698,
				"z": 0.381870394,
				"element": "H" 
			},
			{
				"x": -3.5711714164,
				"y": 0.8694721167,
				"z": 0.2341120324,
				"element": "H" 
			},
			{
				"x": -1.2862225583,
				"y": -0.8243206199,
				"z": -0.131469521,
				"element": "H" 
			},
			{
				"x": -0.4965403639,
				"y": 3.4187170892,
				"z": -0.0700544299,
				"element": "H" 
			},
			{
				"x": 2.9610873663,
				"y": 0.85018871,
				"z": -0.7377020035,
				"element": "H" 
			},
			{
				"x": 4.8231839429,
				"y": -0.8029839357,
				"z": -0.6891845331,
				"element": "H" 
			},
			{
				"x": 4.4046817608,
				"y": -3.1278323974,
				"z": 0.0934419971,
				"element": "H" 
			},
			{
				"x": 2.1250768728,
				"y": -3.7779157529,
				"z": 0.8487347043,
				"element": "H" 
			},
			{
				"x": 0.2923648013,
				"y": -2.1261103845,
				"z": 0.8392174678,
				"element": "H" 
			}
		],
		 "valence_orbital": [ 
			{
				"type": "occ",
				"energy": -0.30421,
				"method": "rhf"
			},
			{
				"type": "occ",
				"energy": -0.28039,
				"method": "rhf"
			},
			{
				"type": "occ",
				"energy": -0.26862,
				"method": "rhf"
			},
			{
				"type": "occ",
				"energy": -0.2587,
				"method": "rhf"
			},
			{
				"type": "occ",
				"energy": -0.23836,
				"method": "rhf"
			},
			{
				"type": "unocc",
				"energy": -0.04003,
				"method": "rhf"
			},
			{
				"type": "unocc",
				"energy": -0.01963,
				"method": "rhf"
			},
			{
				"type": "unocc",
				"energy": 0.0131,
				"method": "rhf"
			},
			{
				"type": "unocc",
				"energy": 0.02333,
				"method": "rhf"
			},
			{
				"type": "unocc",
				"energy": 0.03706,
				"method": "rhf"
			}
		],
		"cosmo_sigma_profile": { 
			"-0.025": 0.0,
			"-0.024": 0.0,
			"-0.023": 0.0,
			"-0.022": 0.0,
			"-0.021": 0.0,
			"-0.02": 0.0,
			"-0.019": 0.0,
			"-0.018": 0.0,
			"-0.017": 0.0,
			"-0.016": 0.0,
			"-0.015": 0.0609316886353,
			"-0.014": 0.304736041276,
			"-0.013": 0.220468375419,
			"-0.012": 1.08306424783,
			"-0.011": 0.798351633885,
			"-0.01": 2.73316886874,
			"-0.009": 4.00227018054,
			"-0.008": 7.14515894181,
			"-0.007": 14.9664513264,
			"-0.006": 17.5318736587,
			"-0.005": 18.5338562262,
			"-0.004": 16.3170065899,
			"-0.003": 13.123782881,
			"-0.002": 12.3425275337,
			"-0.001": 10.7316704984,
			"0.0": 13.4162421874,
			"0.001": 12.5438500608,
			"0.002": 14.4423293682,
			"0.003": 14.7092162867,
			"0.004": 14.7031649364,
			"0.005": 10.8085969795,
			"0.006": 4.17807641058,
			"0.007": 4.54449176071,
			"0.008": 4.11862971963,
			"0.009": 3.76847355127,
			"0.01": 6.06887318328,
			"0.011": 5.91528117065,
			"0.012": 7.14017322187,
			"0.013": 3.76226043159,
			"0.014": 0.519006146121,
			"0.015": 0.0,
			"0.016": 0.0,
			"0.017": 0.0,
			"0.018": 0.0,
			"0.019": 0.0,
			"0.02": 0.0,
			"0.021": 0.0,
			"0.022": 0.0,
			"0.023": 0.0,
			"0.024": 0.0,
			"0.025": 0.0
		}
	}
}
