{
	 "smiles": "[O-][N+](=O)C1=C(C=CC=C1)C1=CC=C(S1)C=O", 
	 "Tm": 386.15, 
	 "num_atms": 23, 
	 "gaussian": { 
		 "optdone": 1, 
		 "sigma_profile": "yes", 
		 "theory": "DFT", 
		 "functional": "B3LYP", 
		 "basiset": "6-31G**", 
		 "properties": { 
			 "R2extent": 5041.4866, 
			 "electric_dipole_moment_norm": 4.57999015392, 
			 "electric_quadrupole_moment_norm": 29.8863752837, 
			 "total_energy": -1101.87172773, 
			 "HOMO_LUMO_gap": 0.14893, 
			 "cosmo_polarized_energy": -14.54, 
			 "cosmo_cavitation_energy": 30.66, 
			 "cosmo_dispersion_energy": -22.04, 
			 "cosmo_repulsion_energy": 1.66, 
			 "cosmo_total_nonelectrostatic_energy": 10.28, 
			 "SMD_solvation_energy": 8.15 
		},
		"coords": [
			{
				"x": 1.479387056,
				"y": 2.2024851352,
				"z": -1.2710218198,
				"element": "O" 
			},
			{
				"x": 1.927271202,
				"y": 1.36312192,
				"z": -0.4957421589,
				"element": "N" 
			},
			{
				"x": 3.0594642837,
				"y": 0.8816220896,
				"z": -0.548028147,
				"element": "O" 
			},
			{
				"x": 1.0654191844,
				"y": 0.9216264209,
				"z": 0.6186965584,
				"element": "C" 
			},
			{
				"x": -0.3257180295,
				"y": 0.7607354112,
				"z": 0.4622251192,
				"element": "C" 
			},
			{
				"x": -1.0527407294,
				"y": 0.4399757577,
				"z": 1.6228401357,
				"element": "C" 
			},
			{
				"x": -0.4304827683,
				"y": 0.2858579773,
				"z": 2.8598135283,
				"element": "C" 
			},
			{
				"x": 0.9538838847,
				"y": 0.4212026204,
				"z": 2.9721819007,
				"element": "C" 
			},
			{
				"x": 1.705076635,
				"y": 0.7314552506,
				"z": 1.8420653285,
				"element": "C" 
			},
			{
				"x": -1.0279559409,
				"y": 0.836759514,
				"z": -0.8315700963,
				"element": "C" 
			},
			{
				"x": -0.6921676844,
				"y": 0.2251148021,
				"z": -2.0234707744,
				"element": "C" 
			},
			{
				"x": -1.6357860566,
				"y": 0.4629690403,
				"z": -3.0486047166,
				"element": "C" 
			},
			{
				"x": -2.6914055921,
				"y": 1.2535276678,
				"z": -2.6395667529,
				"element": "C" 
			},
			{
				"x": -2.5246082903,
				"y": 1.7182828492,
				"z": -0.9687977853,
				"element": "S" 
			},
			{
				"x": -3.8335466017,
				"y": 1.6953228758,
				"z": -3.4297825725,
				"element": "C" 
			},
			{
				"x": -4.7425710704,
				"y": 2.3895895819,
				"z": -3.0076388408,
				"element": "O" 
			},
			{
				"x": -2.1229802061,
				"y": 0.2839093781,
				"z": 1.5350336202,
				"element": "H" 
			},
			{
				"x": -1.0284944963,
				"y": 0.0422875544,
				"z": 3.7324749523,
				"element": "H" 
			},
			{
				"x": 1.4467500298,
				"y": 0.2898159653,
				"z": 3.9298664877,
				"element": "H" 
			},
			{
				"x": 2.7809001429,
				"y": 0.8495047423,
				"z": 1.8899007551,
				"element": "H" 
			},
			{
				"x": 0.1968261108,
				"y": -0.3820095698,
				"z": -2.1483647277,
				"element": "H" 
			},
			{
				"x": -1.553850398,
				"y": 0.0667597819,
				"z": -4.0551380412,
				"element": "H" 
			},
			{
				"x": -3.8149706653,
				"y": 1.3396832335,
				"z": -4.4826719528,
				"element": "H" 
			}
		],
		 "valence_orbital": [ 
			{
				"type": "occ",
				"energy": -0.29389,
				"method": "rhf"
			},
			{
				"type": "occ",
				"energy": -0.28148,
				"method": "rhf"
			},
			{
				"type": "occ",
				"energy": -0.27242,
				"method": "rhf"
			},
			{
				"type": "occ",
				"energy": -0.26147,
				"method": "rhf"
			},
			{
				"type": "occ",
				"energy": -0.24495,
				"method": "rhf"
			},
			{
				"type": "unocc",
				"energy": -0.09602,
				"method": "rhf"
			},
			{
				"type": "unocc",
				"energy": -0.07659,
				"method": "rhf"
			},
			{
				"type": "unocc",
				"energy": -0.03903,
				"method": "rhf"
			},
			{
				"type": "unocc",
				"energy": -0.02135,
				"method": "rhf"
			},
			{
				"type": "unocc",
				"energy": 0.01873,
				"method": "rhf"
			}
		],
		"cosmo_sigma_profile": { 
			"-0.025": 0.0,
			"-0.024": 0.0,
			"-0.023": 0.0,
			"-0.022": 0.0,
			"-0.021": 0.0,
			"-0.02": 0.0,
			"-0.019": 0.0,
			"-0.018": 0.0,
			"-0.017": 0.0,
			"-0.016": 0.0,
			"-0.015": 0.0,
			"-0.014": 0.0,
			"-0.013": 0.0,
			"-0.012": 0.0,
			"-0.011": 0.000901637718677,
			"-0.01": 0.195205294949,
			"-0.009": 2.94470493977,
			"-0.008": 10.9675094108,
			"-0.007": 16.82992818,
			"-0.006": 16.5111971029,
			"-0.005": 13.3468033739,
			"-0.004": 12.2657655194,
			"-0.003": 13.0639846949,
			"-0.002": 13.8485832833,
			"-0.001": 15.688536418,
			"0.0": 20.4267023693,
			"0.001": 26.0552877537,
			"0.002": 22.7666833051,
			"0.003": 8.35598540991,
			"0.004": 5.26543236177,
			"0.005": 5.71027519373,
			"0.006": 5.86305478905,
			"0.007": 11.1197469743,
			"0.008": 9.8482623135,
			"0.009": 6.22638215255,
			"0.01": 3.73209860434,
			"0.011": 4.41006767388,
			"0.012": 3.04191470436,
			"0.013": 0.922227611965,
			"0.014": 0.0,
			"0.015": 0.0,
			"0.016": 0.0,
			"0.017": 0.0,
			"0.018": 0.0,
			"0.019": 0.0,
			"0.02": 0.0,
			"0.021": 0.0,
			"0.022": 0.0,
			"0.023": 0.0,
			"0.024": 0.0,
			"0.025": 0.0
		}
	}
}
