{
	 "smiles": "CC(C)=NO", 
	 "Tm": 334.65, 
	 "num_atms": 12, 
	 "gaussian": { 
		 "optdone": 1, 
		 "sigma_profile": "yes", 
		 "theory": "DFT", 
		 "functional": "B3LYP", 
		 "basiset": "6-31G**", 
		 "properties": { 
			 "R2extent": 617.7363, 
			 "electric_dipole_moment_norm": 0.671146489226, 
			 "electric_quadrupole_moment_norm": 3.39188146904, 
			 "total_energy": -248.461092229, 
			 "HOMO_LUMO_gap": 0.25728, 
			 "cosmo_polarized_energy": -6.57, 
			 "cosmo_cavitation_energy": 15.4, 
			 "cosmo_dispersion_energy": -11.44, 
			 "cosmo_repulsion_energy": 1.04, 
			 "cosmo_total_nonelectrostatic_energy": 5.0, 
			 "SMD_solvation_energy": 3.2 
		},
		"coords": [
			{
				"x": 0.7622770666,
				"y": 1.1587622142,
				"z": 1.5263918116,
				"element": "C" 
			},
			{
				"x": 0.4600334852,
				"y": -0.0127862009,
				"z": 0.6282650086,
				"element": "C" 
			},
			{
				"x": 0.5647875512,
				"y": 0.1438951336,
				"z": -0.8633449235,
				"element": "C" 
			},
			{
				"x": 0.1092451513,
				"y": -1.168875958,
				"z": 1.0580994054,
				"element": "N" 
			},
			{
				"x": 0.0471132468,
				"y": -1.1889470314,
				"z": 2.4700281867,
				"element": "O" 
			},
			{
				"x": -0.1070305825,
				"y": 1.3965588197,
				"z": 2.1485840522,
				"element": "H" 
			},
			{
				"x": 1.5765290505,
				"y": 0.9109076949,
				"z": 2.2155482866,
				"element": "H" 
			},
			{
				"x": 1.0402908782,
				"y": 2.042821993,
				"z": 0.9484544593,
				"element": "H" 
			},
			{
				"x": -0.1120102363,
				"y": 0.9307015179,
				"z": -1.2191123686,
				"element": "H" 
			},
			{
				"x": 1.5804368417,
				"y": 0.4423848577,
				"z": -1.1515269193,
				"element": "H" 
			},
			{
				"x": 0.3146355501,
				"y": -0.7925664335,
				"z": -1.3654722473,
				"element": "H" 
			},
			{
				"x": -0.2227080027,
				"y": -2.0999566072,
				"z": 2.6433852483,
				"element": "H" 
			}
		],
		 "valence_orbital": [ 
			{
				"type": "occ",
				"energy": -0.38856,
				"method": "rhf"
			},
			{
				"type": "occ",
				"energy": -0.36794,
				"method": "rhf"
			},
			{
				"type": "occ",
				"energy": -0.36264,
				"method": "rhf"
			},
			{
				"type": "occ",
				"energy": -0.26411,
				"method": "rhf"
			},
			{
				"type": "occ",
				"energy": -0.23898,
				"method": "rhf"
			},
			{
				"type": "unocc",
				"energy": 0.0183,
				"method": "rhf"
			},
			{
				"type": "unocc",
				"energy": 0.08359,
				"method": "rhf"
			},
			{
				"type": "unocc",
				"energy": 0.10623,
				"method": "rhf"
			},
			{
				"type": "unocc",
				"energy": 0.14177,
				"method": "rhf"
			},
			{
				"type": "unocc",
				"energy": 0.15807,
				"method": "rhf"
			}
		],
		"cosmo_sigma_profile": { 
			"-0.025": 0.0,
			"-0.024": 0.0,
			"-0.023": 0.0,
			"-0.022": 0.0,
			"-0.021": 0.0,
			"-0.02": 0.0,
			"-0.019": 0.0,
			"-0.018": 0.0,
			"-0.017": 0.364460051001,
			"-0.016": 0.950435782951,
			"-0.015": 0.830721252367,
			"-0.014": 0.623721581016,
			"-0.013": 1.07175754457,
			"-0.012": 0.732727051433,
			"-0.011": 0.493046990947,
			"-0.01": 0.677988503835,
			"-0.009": 0.431809967111,
			"-0.008": 0.348653711026,
			"-0.007": 0.800174009531,
			"-0.006": 0.902549998143,
			"-0.005": 5.30790323579,
			"-0.004": 12.6354857683,
			"-0.003": 13.114309553,
			"-0.002": 13.5183058623,
			"-0.001": 14.6866370942,
			"0.0": 12.6482060044,
			"0.001": 4.17896544768,
			"0.002": 3.09434763717,
			"0.003": 3.28991784447,
			"0.004": 3.41313977351,
			"0.005": 2.96348119808,
			"0.006": 3.71140319274,
			"0.007": 4.13969248614,
			"0.008": 3.00685754007,
			"0.009": 3.35761510535,
			"0.01": 4.386002804,
			"0.011": 1.61850706306,
			"0.012": 1.26702529198,
			"0.013": 0.634379745908,
			"0.014": 0.626656819633,
			"0.015": 0.319093907385,
			"0.016": 0.0,
			"0.017": 0.0,
			"0.018": 0.0,
			"0.019": 0.0,
			"0.02": 0.0,
			"0.021": 0.0,
			"0.022": 0.0,
			"0.023": 0.0,
			"0.024": 0.0,
			"0.025": 0.0
		}
	}
}
