{
	 "smiles": "[O-][N+](=O)C1=C(C=CC(Cl)=C1)C1=CC=C(O1)C=O", 
	 "Tm": 366.15, 
	 "num_atms": 23, 
	 "gaussian": { 
		 "optdone": 1, 
		 "sigma_profile": "yes", 
		 "theory": "DFT", 
		 "functional": "B3LYP", 
		 "basiset": "6-31G**", 
		 "properties": { 
			 "R2extent": 6145.4789, 
			 "electric_dipole_moment_norm": 5.63307004927, 
			 "electric_quadrupole_moment_norm": 11.3330917242, 
			 "total_energy": -1238.48448038, 
			 "HOMO_LUMO_gap": 0.14034, 
			 "cosmo_polarized_energy": -14.13, 
			 "cosmo_cavitation_energy": 31.95, 
			 "cosmo_dispersion_energy": -22.44, 
			 "cosmo_repulsion_energy": 1.73, 
			 "cosmo_total_nonelectrostatic_energy": 11.24, 
			 "SMD_solvation_energy": 8.89 
		},
		"coords": [
			{
				"x": -1.5828030357,
				"y": -1.8896446308,
				"z": -0.087249113,
				"element": "O" 
			},
			{
				"x": -0.5272234989,
				"y": -2.5097307908,
				"z": -0.0067643874,
				"element": "N" 
			},
			{
				"x": -0.1901117483,
				"y": -3.4414553683,
				"z": -0.7342924799,
				"element": "O" 
			},
			{
				"x": 0.3916666543,
				"y": -2.1518493336,
				"z": 1.0938049959,
				"element": "C" 
			},
			{
				"x": 0.5166614038,
				"y": -0.8278279913,
				"z": 1.5560953419,
				"element": "C" 
			},
			{
				"x": 1.3216500451,
				"y": -0.6318174236,
				"z": 2.6921157748,
				"element": "C" 
			},
			{
				"x": 1.9645849662,
				"y": -1.6859173387,
				"z": 3.3326108279,
				"element": "C" 
			},
			{
				"x": 1.8401490152,
				"y": -2.9771068943,
				"z": 2.8170355391,
				"element": "C" 
			},
			{
				"x": 2.6672639266,
				"y": -4.3078680247,
				"z": 3.5917000453,
				"element": "Cl" 
			},
			{
				"x": 1.0601208529,
				"y": -3.2174700971,
				"z": 1.6899177871,
				"element": "C" 
			},
			{
				"x": -0.0788374437,
				"y": 0.3428190877,
				"z": 0.9138141636,
				"element": "C" 
			},
			{
				"x": -0.6135787171,
				"y": 1.4988935853,
				"z": 1.4399915408,
				"element": "C" 
			},
			{
				"x": -0.9926588648,
				"y": 2.3044801756,
				"z": 0.337252352,
				"element": "C" 
			},
			{
				"x": -0.6587829892,
				"y": 1.5980629092,
				"z": -0.7931567877,
				"element": "C" 
			},
			{
				"x": -0.0932068283,
				"y": 0.4004363466,
				"z": -0.4416699016,
				"element": "O" 
			},
			{
				"x": -0.7900746665,
				"y": 1.8901751942,
				"z": -2.2154218754,
				"element": "C" 
			},
			{
				"x": -1.2630496429,
				"y": 2.9300732916,
				"z": -2.6398950193,
				"element": "O" 
			},
			{
				"x": 1.4659038433,
				"y": 0.3796514827,
				"z": 3.0568250221,
				"element": "H" 
			},
			{
				"x": 2.5776633856,
				"y": -1.506741784,
				"z": 4.2085428911,
				"element": "H" 
			},
			{
				"x": 0.9464735799,
				"y": -4.2129935073,
				"z": 1.280603285,
				"element": "H" 
			},
			{
				"x": -0.7455595656,
				"y": 1.7184536149,
				"z": 2.4895879941,
				"element": "H" 
			},
			{
				"x": -1.4595491078,
				"y": 3.2781686003,
				"z": 0.3503323571,
				"element": "H" 
			},
			{
				"x": -0.4233015641,
				"y": 1.0855088964,
				"z": -2.8849803535,
				"element": "H" 
			}
		],
		 "valence_orbital": [ 
			{
				"type": "occ",
				"energy": -0.30779,
				"method": "rhf"
			},
			{
				"type": "occ",
				"energy": -0.29598,
				"method": "rhf"
			},
			{
				"type": "occ",
				"energy": -0.28963,
				"method": "rhf"
			},
			{
				"type": "occ",
				"energy": -0.26347,
				"method": "rhf"
			},
			{
				"type": "occ",
				"energy": -0.24364,
				"method": "rhf"
			},
			{
				"type": "unocc",
				"energy": -0.1033,
				"method": "rhf"
			},
			{
				"type": "unocc",
				"energy": -0.07625,
				"method": "rhf"
			},
			{
				"type": "unocc",
				"energy": -0.04723,
				"method": "rhf"
			},
			{
				"type": "unocc",
				"energy": -0.03133,
				"method": "rhf"
			},
			{
				"type": "unocc",
				"energy": 0.00455,
				"method": "rhf"
			}
		],
		"cosmo_sigma_profile": { 
			"-0.025": 0.0,
			"-0.024": 0.0,
			"-0.023": 0.0,
			"-0.022": 0.0,
			"-0.021": 0.0,
			"-0.02": 0.0,
			"-0.019": 0.0,
			"-0.018": 0.0,
			"-0.017": 0.0,
			"-0.016": 0.0,
			"-0.015": 0.0,
			"-0.014": 0.0,
			"-0.013": 0.0,
			"-0.012": 0.0,
			"-0.011": 0.0,
			"-0.01": 0.0358621591589,
			"-0.009": 5.47811268952,
			"-0.008": 10.9762815658,
			"-0.007": 13.0639937794,
			"-0.006": 11.1187388907,
			"-0.005": 12.193510718,
			"-0.004": 12.4561415925,
			"-0.003": 14.4884363364,
			"-0.002": 21.3908303658,
			"-0.001": 28.1641493618,
			"0.0": 23.251067458,
			"0.001": 17.7436894291,
			"0.002": 16.6614988502,
			"0.003": 15.0139380483,
			"0.004": 11.6086138947,
			"0.005": 5.14181330852,
			"0.006": 6.96010463396,
			"0.007": 11.3779196419,
			"0.008": 6.98535956424,
			"0.009": 4.88428403743,
			"0.01": 3.41236435071,
			"0.011": 4.42376435563,
			"0.012": 3.09543207371,
			"0.013": 0.760924463575,
			"0.014": 0.0,
			"0.015": 0.0,
			"0.016": 0.0,
			"0.017": 0.0,
			"0.018": 0.0,
			"0.019": 0.0,
			"0.02": 0.0,
			"0.021": 0.0,
			"0.022": 0.0,
			"0.023": 0.0,
			"0.024": 0.0,
			"0.0": 0.0
		}
	}
}
