{
	 "smiles": "OCC1=C(N=C(S1)C1=CC=CC=C1)C1=CC=CC=C1", 
	 "Tm": 398.15, 
	 "num_atms": 32, 
	 "gaussian": { 
		 "optdone": 1, 
		 "sigma_profile": "yes", 
		 "theory": "DFT", 
		 "functional": "B3LYP", 
		 "basiset": "6-31G**", 
		 "properties": { 
			 "R2extent": 7420.9437, 
			 "electric_dipole_moment_norm": 1.88173017726, 
			 "electric_quadrupole_moment_norm": 10.7780433085, 
			 "total_energy": -1145.69766052, 
			 "HOMO_LUMO_gap": 0.15487, 
			 "cosmo_polarized_energy": -11.13, 
			 "cosmo_cavitation_energy": 37.34, 
			 "cosmo_dispersion_energy": -27.51, 
			 "cosmo_repulsion_energy": 2.05, 
			 "cosmo_total_nonelectrostatic_energy": 11.87, 
			 "SMD_solvation_energy": 4.84 
		},
		"coords": [
			{
				"x": 0.7225381396,
				"y": 3.6791282727,
				"z": 3.2599593164,
				"element": "O" 
			},
			{
				"x": 1.7797649668,
				"y": 2.972715495,
				"z": 2.6057164849,
				"element": "C" 
			},
			{
				"x": 1.3530576296,
				"y": 1.6862049377,
				"z": 1.9574259632,
				"element": "C" 
			},
			{
				"x": 0.7385349058,
				"y": 1.4568481072,
				"z": 0.7388888609,
				"element": "C" 
			},
			{
				"x": 0.5329143066,
				"y": 0.1278924712,
				"z": 0.434564841,
				"element": "N" 
			},
			{
				"x": 0.9397479132,
				"y": -0.6800288296,
				"z": 1.3755646013,
				"element": "C" 
			},
			{
				"x": 1.645795369,
				"y": 0.1602527127,
				"z": 2.7543021501,
				"element": "S" 
			},
			{
				"x": 0.8208832686,
				"y": -2.143339862,
				"z": 1.3121379858,
				"element": "C" 
			},
			{
				"x": 1.3416895996,
				"y": -2.9783167177,
				"z": 2.3138130042,
				"element": "C" 
			},
			{
				"x": 1.2108596323,
				"y": -4.362094747,
				"z": 2.219830659,
				"element": "C" 
			},
			{
				"x": 0.5598057918,
				"y": -4.9331417162,
				"z": 1.124367378,
				"element": "C" 
			},
			{
				"x": 0.0394384899,
				"y": -4.1093784012,
				"z": 0.1224089384,
				"element": "C" 
			},
			{
				"x": 0.1662981624,
				"y": -2.7263624708,
				"z": 0.2123872548,
				"element": "C" 
			},
			{
				"x": 0.3327109912,
				"y": 2.4725915049,
				"z": -0.2564738167,
				"element": "C" 
			},
			{
				"x": 0.3310713029,
				"y": 2.1288996106,
				"z": -1.6202686907,
				"element": "C" 
			},
			{
				"x": -0.0330002293,
				"y": 3.0630178157,
				"z": -2.5862601814,
				"element": "C" 
			},
			{
				"x": -0.4094175271,
				"y": 4.3550351636,
				"z": -2.2093472432,
				"element": "C" 
			},
			{
				"x": -0.4275404964,
				"y": 4.7000606509,
				"z": -0.8575120394,
				"element": "C" 
			},
			{
				"x": -0.064912594,
				"y": 3.7685478145,
				"z": 0.1163824556,
				"element": "C" 
			},
			{
				"x": 0.2498848372,
				"y": 3.0495541383,
				"z": 3.8207320865,
				"element": "H" 
			},
			{
				"x": 2.1536596839,
				"y": 3.6566626325,
				"z": 1.8382379684,
				"element": "H" 
			},
			{
				"x": 2.6044868239,
				"y": 2.7796868036,
				"z": 3.3062700198,
				"element": "H" 
			},
			{
				"x": 1.8556370314,
				"y": -2.548931689,
				"z": 3.1696281603,
				"element": "H" 
			},
			{
				"x": 1.6195750718,
				"y": -4.9946883171,
				"z": 3.0022375872,
				"element": "H" 
			},
			{
				"x": 0.4585632408,
				"y": -6.0120537175,
				"z": 1.0521770121,
				"element": "H" 
			},
			{
				"x": -0.4691254082,
				"y": -4.5469848676,
				"z": -0.7317936333,
				"element": "H" 
			},
			{
				"x": -0.2355757825,
				"y": -2.0760283083,
				"z": -0.5564006225,
				"element": "H" 
			},
			{
				"x": 0.6185388779,
				"y": 1.1229528001,
				"z": -1.9061140548,
				"element": "H" 
			},
			{
				"x": -0.0233138781,
				"y": 2.7829294447,
				"z": -3.6359619795,
				"element": "H" 
			},
			{
				"x": -0.6949100977,
				"y": 5.0829113302,
				"z": -2.9635837717,
				"element": "H" 
			},
			{
				"x": -0.7373521101,
				"y": 5.6961904744,
				"z": -0.5540873975,
				"element": "H" 
			},
			{
				"x": -0.120407913,
				"y": 4.0349674636,
				"z": 1.1669707029,
				"element": "H" 
			}
		],
		 "valence_orbital": [ 
			{
				"type": "occ",
				"energy": -0.27024,
				"method": "rhf"
			},
			{
				"type": "occ",
				"energy": -0.25853,
				"method": "rhf"
			},
			{
				"type": "occ",
				"energy": -0.24683,
				"method": "rhf"
			},
			{
				"type": "occ",
				"energy": -0.2447,
				"method": "rhf"
			},
			{
				"type": "occ",
				"energy": -0.21302,
				"method": "rhf"
			},
			{
				"type": "unocc",
				"energy": -0.05815,
				"method": "rhf"
			},
			{
				"type": "unocc",
				"energy": -0.02297,
				"method": "rhf"
			},
			{
				"type": "unocc",
				"energy": -0.00706,
				"method": "rhf"
			},
			{
				"type": "unocc",
				"energy": 0.00225,
				"method": "rhf"
			},
			{
				"type": "unocc",
				"energy": 0.01194,
				"method": "rhf"
			}
		],
		"cosmo_sigma_profile": { 
			"-0.025": 0.0,
			"-0.024": 0.0,
			"-0.023": 0.0,
			"-0.022": 0.0,
			"-0.021": 0.0,
			"-0.02": 0.0,
			"-0.019": 0.0,
			"-0.018": 0.0,
			"-0.017": 0.0,
			"-0.016": 0.144337085062,
			"-0.015": 0.894951056417,
			"-0.014": 0.916806678437,
			"-0.013": 1.04742682429,
			"-0.012": 1.1564423272,
			"-0.011": 0.965602850722,
			"-0.01": 0.921664226647,
			"-0.009": 0.942031912854,
			"-0.008": 0.807429917568,
			"-0.007": 3.50749419946,
			"-0.006": 15.6839302682,
			"-0.005": 21.8830517574,
			"-0.004": 24.734082208,
			"-0.003": 22.21238458,
			"-0.002": 17.868047383,
			"-0.001": 19.3249222583,
			"0.0": 21.3003046089,
			"0.001": 26.4028399607,
			"0.002": 28.6233365614,
			"0.003": 25.8583812234,
			"0.004": 24.1376858658,
			"0.005": 20.6692826816,
			"0.006": 8.19160690231,
			"0.007": 2.80387792835,
			"0.008": 2.70354776151,
			"0.009": 2.23560039967,
			"0.01": 1.73692097739,
			"0.011": 0.666162860191,
			"0.012": 1.4524525744,
			"0.013": 1.32402208582,
			"0.014": 0.560667747129,
			"0.015": 0.0,
			"0.016": 0.0,
			"0.017": 0.0,
			"0.018": 0.0,
			"0.019": 0.0,
			"0.02": 0.0,
			"0.021": 0.0,
			"0.022": 0.0,
			"0.023": 0.0,
			"0.024": 0.0,
			"0.025": 0.0
		}
	}
}
