{
	 "smiles": "CC1=CC=C(OCCCC(=O)NC2=CC=C(CN)C=C2)C=C1", 
	 "Tm": 371.15, 
	 "num_atms": 44, 
	 "gaussian": { 
		 "optdone": 1, 
		 "sigma_profile": "yes", 
		 "theory": "DFT", 
		 "functional": "B3LYP", 
		 "basiset": "6-31G**", 
		 "properties": { 
			 "R2extent": 9415.622, 
			 "electric_dipole_moment_norm": 0.960371912334, 
			 "electric_quadrupole_moment_norm": 15.675428398, 
			 "total_energy": -959.143222753, 
			 "HOMO_LUMO_gap": 0.19454, 
			 "cosmo_polarized_energy": -16.85, 
			 "cosmo_cavitation_energy": 47.36, 
			 "cosmo_dispersion_energy": -31.88, 
			 "cosmo_repulsion_energy": 2.48, 
			 "cosmo_total_nonelectrostatic_energy": 17.97, 
			 "SMD_solvation_energy": 6.83 
		},
		"coords": [
			{
				"x": -3.4089949711,
				"y": -4.9814373215,
				"z": -0.3961876493,
				"element": "C" 
			},
			{
				"x": -2.9858922336,
				"y": -3.6285841687,
				"z": 0.127070486,
				"element": "C" 
			},
			{
				"x": -3.7998305279,
				"y": -2.5028380536,
				"z": -0.0108864549,
				"element": "C" 
			},
			{
				"x": -3.4157351523,
				"y": -1.2459102614,
				"z": 0.4703790936,
				"element": "C" 
			},
			{
				"x": -2.1818944659,
				"y": -1.1019826249,
				"z": 1.1105271931,
				"element": "C" 
			},
			{
				"x": -1.6954693878,
				"y": 0.0744571884,
				"z": 1.6150454054,
				"element": "O" 
			},
			{
				"x": -2.5281965786,
				"y": 1.2365401536,
				"z": 1.5674522218,
				"element": "C" 
			},
			{
				"x": -1.7932666877,
				"y": 2.3784727988,
				"z": 2.257205959,
				"element": "C" 
			},
			{
				"x": -0.4420238315,
				"y": 2.720906502,
				"z": 1.616232918,
				"element": "C" 
			},
			{
				"x": -0.6069902302,
				"y": 3.2674120204,
				"z": 0.2019490905,
				"element": "C" 
			},
			{
				"x": -1.5549555617,
				"y": 3.9846919553,
				"z": -0.0985519665,
				"element": "O" 
			},
			{
				"x": 0.3753183527,
				"y": 3.009353227,
				"z": -0.7322544081,
				"element": "N" 
			},
			{
				"x": 1.5002811822,
				"y": 2.1423780737,
				"z": -0.6966454397,
				"element": "C" 
			},
			{
				"x": 1.3865928507,
				"y": 0.7960753308,
				"z": -0.3217733169,
				"element": "C" 
			},
			{
				"x": 2.5116732548,
				"y": -0.02632797,
				"z": -0.3357584159,
				"element": "C" 
			},
			{
				"x": 3.7631046275,
				"y": 0.4490304175,
				"z": -0.7509456962,
				"element": "C" 
			},
			{
				"x": 4.9904097686,
				"y": -0.4449858341,
				"z": -0.7163524429,
				"element": "C" 
			},
			{
				"x": 5.7263262115,
				"y": -0.464728056,
				"z": 0.5591525991,
				"element": "N" 
			},
			{
				"x": 3.8537621111,
				"y": 1.7873808177,
				"z": -1.1560334492,
				"element": "C" 
			},
			{
				"x": 2.7436463022,
				"y": 2.6287575016,
				"z": -1.1212851595,
				"element": "C" 
			},
			{
				"x": -1.3498779333,
				"y": -2.2221092202,
				"z": 1.2610237259,
				"element": "C" 
			},
			{
				"x": -1.7503719909,
				"y": -3.4597665191,
				"z": 0.7751739768,
				"element": "C" 
			},
			{
				"x": -2.7037966505,
				"y": -5.3628533262,
				"z": -1.1442384444,
				"element": "H" 
			},
			{
				"x": -4.395784432,
				"y": -4.9354586718,
				"z": -0.8655195025,
				"element": "H" 
			},
			{
				"x": -3.4580976881,
				"y": -5.7267054365,
				"z": 0.4065860931,
				"element": "H" 
			},
			{
				"x": -4.7624174714,
				"y": -2.5986366685,
				"z": -0.5074951067,
				"element": "H" 
			},
			{
				"x": -4.0786560884,
				"y": -0.3995499946,
				"z": 0.3361243407,
				"element": "H" 
			},
			{
				"x": -3.4791546188,
				"y": 1.0332239113,
				"z": 2.0784922931,
				"element": "H" 
			},
			{
				"x": -2.7522037784,
				"y": 1.4995753844,
				"z": 0.5251759095,
				"element": "H" 
			},
			{
				"x": -2.43967742,
				"y": 3.2602530264,
				"z": 2.2176917288,
				"element": "H" 
			},
			{
				"x": -1.636522591,
				"y": 2.1207853707,
				"z": 3.3102016288,
				"element": "H" 
			},
			{
				"x": 0.2329156171,
				"y": 1.8670646431,
				"z": 1.6560632364,
				"element": "H" 
			},
			{
				"x": 0.0342381929,
				"y": 3.5249643962,
				"z": 2.1930538364,
				"element": "H" 
			},
			{
				"x": 0.2402460432,
				"y": 3.5519534646,
				"z": -1.5774031081,
				"element": "H" 
			},
			{
				"x": 0.4204084981,
				"y": 0.3930755608,
				"z": -0.0364663529,
				"element": "H" 
			},
			{
				"x": 2.404823457,
				"y": -1.0691391231,
				"z": -0.0448544261,
				"element": "H" 
			},
			{
				"x": 5.6930945937,
				"y": -0.1357930889,
				"z": -1.4985295595,
				"element": "H" 
			},
			{
				"x": 4.7006707431,
				"y": -1.4768647787,
				"z": -0.945602129,
				"element": "H" 
			},
			{
				"x": 6.0065131656,
				"y": 0.4847407482,
				"z": 0.7984254249,
				"element": "H" 
			},
			{
				"x": 5.0969854266,
				"y": -0.7582111186,
				"z": 1.3041344044,
				"element": "H" 
			},
			{
				"x": 4.8083947502,
				"y": 2.1803217261,
				"z": -1.4990323737,
				"element": "H" 
			},
			{
				"x": 2.8335118785,
				"y": 3.6688093994,
				"z": -1.4230221173,
				"element": "H" 
			},
			{
				"x": -0.3989156717,
				"y": -2.0971849859,
				"z": 1.7697411149,
				"element": "H" 
			},
			{
				"x": -1.0919910643,
				"y": -4.3160563955,
				"z": 0.903334839,
				"element": "H" 
			}
		],
		 "valence_orbital": [ 
			{
				"type": "occ",
				"energy": -0.25128,
				"method": "rhf"
			},
			{
				"type": "occ",
				"energy": -0.24768,
				"method": "rhf"
			},
			{
				"type": "occ",
				"energy": -0.24587,
				"method": "rhf"
			},
			{
				"type": "occ",
				"energy": -0.22356,
				"method": "rhf"
			},
			{
				"type": "occ",
				"energy": -0.21184,
				"method": "rhf"
			},
			{
				"type": "unocc",
				"energy": -0.0173,
				"method": "rhf"
			},
			{
				"type": "unocc",
				"energy": -0.0128,
				"method": "rhf"
			},
			{
				"type": "unocc",
				"energy": 0.00024,
				"method": "rhf"
			},
			{
				"type": "unocc",
				"energy": 0.01563,
				"method": "rhf"
			},
			{
				"type": "unocc",
				"energy": 0.0274,
				"method": "rhf"
			}
		],
		"cosmo_sigma_profile": { 
			"-0.025": 0.0,
			"-0.024": 0.0,
			"-0.023": 0.0,
			"-0.022": 0.0,
			"-0.021": 0.0,
			"-0.02": 0.0,
			"-0.019": 0.0,
			"-0.018": 0.0,
			"-0.017": 0.0,
			"-0.016": 0.0,
			"-0.015": 0.0,
			"-0.014": 0.514885010647,
			"-0.013": 0.870817474373,
			"-0.012": 1.11570781247,
			"-0.011": 0.663320061303,
			"-0.01": 1.26815506727,
			"-0.009": 3.37810330782,
			"-0.008": 3.70575691181,
			"-0.007": 4.45623423656,
			"-0.006": 11.9254194783,
			"-0.005": 27.3937396053,
			"-0.004": 35.7478739078,
			"-0.003": 39.5729808523,
			"-0.002": 36.6110668818,
			"-0.001": 32.8257085501,
			"0.0": 29.8091240233,
			"0.001": 24.5308012425,
			"0.002": 18.9758799104,
			"0.003": 18.4556420739,
			"0.004": 18.9550587389,
			"0.005": 19.2174136601,
			"0.006": 12.1522307483,
			"0.007": 5.1568715186,
			"0.008": 2.65871865824,
			"0.009": 3.13317726373,
			"0.01": 2.38210996172,
			"0.011": 2.0716803512,
			"0.012": 2.54213870998,
			"0.013": 4.07820945606,
			"0.014": 5.31865584606,
			"0.015": 0.464684662165,
			"0.016": 0.990363478848,
			"0.017": 0.757287263684,
			"0.018": 0.187865176617,
			"0.019": 1.00115594738,
			"0.02": 0.214784121459,
			"0.021": 0.0,
			"0.022": 0.0,
			"0.023": 0.0,
			"0.024": 0.0,
			"0.025": 0.0
		}
	}
}
