{
	 "smiles": "C=CCCC=C", 
	 "Tm": 132.15, 
	 "num_atms": 16, 
	 "gaussian": { 
		 "optdone": 1, 
		 "sigma_profile": "yes", 
		 "theory": "DFT", 
		 "functional": "B3LYP", 
		 "basiset": "6-31G**", 
		 "properties": { 
			 "R2extent": 826.2601, 
			 "electric_dipole_moment_norm": 0.450698591078, 
			 "electric_quadrupole_moment_norm": 3.23483500507, 
			 "total_energy": -234.620896229, 
			 "HOMO_LUMO_gap": 0.27233, 
			 "cosmo_polarized_energy": -2.88, 
			 "cosmo_cavitation_energy": 19.38, 
			 "cosmo_dispersion_energy": -13.39, 
			 "cosmo_repulsion_energy": 1.18, 
			 "cosmo_total_nonelectrostatic_energy": 7.16, 
			 "SMD_solvation_energy": 4.58 
		},
		"coords": [
			{
				"x": -0.0219340186,
				"y": 0.9078520884,
				"z": -1.5806201489,
				"element": "C" 
			},
			{
				"x": 0.4289973627,
				"y": -0.2059923931,
				"z": -1.0038732966,
				"element": "C" 
			},
			{
				"x": -0.4296979523,
				"y": -1.3262231068,
				"z": -0.4835839027,
				"element": "C" 
			},
			{
				"x": -0.1767674091,
				"y": -1.6616182182,
				"z": 1.0064018018,
				"element": "C" 
			},
			{
				"x": -0.548627231,
				"y": -0.5479728053,
				"z": 1.9468830696,
				"element": "C" 
			},
			{
				"x": 0.2673712114,
				"y": 0.0134200822,
				"z": 2.8388538472,
				"element": "C" 
			},
			{
				"x": 0.6525057037,
				"y": 1.6784221584,
				"z": -1.9424701992,
				"element": "H" 
			},
			{
				"x": -1.0860151377,
				"y": 1.090714592,
				"z": -1.7132583283,
				"element": "H" 
			},
			{
				"x": 1.5055918431,
				"y": -0.3428041603,
				"z": -0.8879886106,
				"element": "H" 
			},
			{
				"x": -0.2351976703,
				"y": -2.2350850194,
				"z": -1.0711317432,
				"element": "H" 
			},
			{
				"x": -1.4886004686,
				"y": -1.0797446296,
				"z": -0.6324855405,
				"element": "H" 
			},
			{
				"x": 0.8771700228,
				"y": -1.9308543032,
				"z": 1.1510679338,
				"element": "H" 
			},
			{
				"x": -0.7645469291,
				"y": -2.5571761949,
				"z": 1.2545283454,
				"element": "H" 
			},
			{
				"x": -1.5770483207,
				"y": -0.1901749236,
				"z": 1.8724722995,
				"element": "H" 
			},
			{
				"x": 1.3016453866,
				"y": -0.3061517722,
				"z": 2.94587088,
				"element": "H" 
			},
			{
				"x": -0.065146393,
				"y": 0.8117886056,
				"z": 3.4958335926,
				"element": "H" 
			}
		],
		 "valence_orbital": [ 
			{
				"type": "occ",
				"energy": -0.35577,
				"method": "rhf"
			},
			{
				"type": "occ",
				"energy": -0.33321,
				"method": "rhf"
			},
			{
				"type": "occ",
				"energy": -0.32929,
				"method": "rhf"
			},
			{
				"type": "occ",
				"energy": -0.25187,
				"method": "rhf"
			},
			{
				"type": "occ",
				"energy": -0.2486,
				"method": "rhf"
			},
			{
				"type": "unocc",
				"energy": 0.02373,
				"method": "rhf"
			},
			{
				"type": "unocc",
				"energy": 0.02557,
				"method": "rhf"
			},
			{
				"type": "unocc",
				"energy": 0.11241,
				"method": "rhf"
			},
			{
				"type": "unocc",
				"energy": 0.11373,
				"method": "rhf"
			},
			{
				"type": "unocc",
				"energy": 0.12979,
				"method": "rhf"
			}
		],
		"cosmo_sigma_profile": { 
			"-0.025": 0.0,
			"-0.024": 0.0,
			"-0.023": 0.0,
			"-0.022": 0.0,
			"-0.021": 0.0,
			"-0.02": 0.0,
			"-0.019": 0.0,
			"-0.018": 0.0,
			"-0.017": 0.0,
			"-0.016": 0.0,
			"-0.015": 0.0,
			"-0.014": 0.0,
			"-0.013": 0.0,
			"-0.012": 0.0,
			"-0.011": 0.0,
			"-0.01": 0.0,
			"-0.009": 0.0,
			"-0.008": 0.0,
			"-0.007": 0.0,
			"-0.006": 0.0,
			"-0.005": 2.61063446424,
			"-0.004": 13.4879012534,
			"-0.003": 23.026135367,
			"-0.002": 23.2940394009,
			"-0.001": 20.7448339543,
			"0.0": 15.8023983766,
			"0.001": 10.651390069,
			"0.002": 7.37481179396,
			"0.003": 8.46489504932,
			"0.004": 6.71949601873,
			"0.005": 5.83076007652,
			"0.006": 5.08006725244,
			"0.007": 5.10523391736,
			"0.008": 2.22796231205,
			"0.009": 1.46850603457,
			"0.01": 0.120669687564,
			"0.011": 0.0,
			"0.012": 0.0,
			"0.013": 0.0,
			"0.014": 0.0,
			"0.015": 0.0,
			"0.016": 0.0,
			"0.017": 0.0,
			"0.018": 0.0,
			"0.019": 0.0,
			"0.02": 0.0,
			"0.021": 0.0,
			"0.022": 0.0,
			"0.023": 0.0,
			"0.024": 0.0,
			"0.025": 0.0
		}
	}
}
