{
	 "smiles": "C1OC1C1=CC=CC=C1", 
	 "Tm": 236.85, 
	 "num_atms": 17, 
	 "gaussian": { 
		 "optdone": 1, 
		 "sigma_profile": "yes", 
		 "theory": "DFT", 
		 "functional": "B3LYP", 
		 "basiset": "6-31G**", 
		 "properties": { 
			 "R2extent": 1456.7952, 
			 "electric_dipole_moment_norm": 1.79316055611, 
			 "electric_quadrupole_moment_norm": 7.78782003773, 
			 "total_energy": -384.850326687, 
			 "HOMO_LUMO_gap": 0.23119, 
			 "cosmo_polarized_energy": -6.15, 
			 "cosmo_cavitation_energy": 20.63, 
			 "cosmo_dispersion_energy": -15.34, 
			 "cosmo_repulsion_energy": 1.25, 
			 "cosmo_total_nonelectrostatic_energy": 6.55, 
			 "SMD_solvation_energy": 3.58 
		},
		"coords": [
			{
				"x": -1.5063649843,
				"y": 0.1830827923,
				"z": -1.1165536577,
				"element": "C" 
			},
			{
				"x": -0.9492442864,
				"y": -0.8885072855,
				"z": -1.8808900605,
				"element": "O" 
			},
			{
				"x": -0.8222514105,
				"y": -0.9479964762,
				"z": -0.4544175981,
				"element": "C" 
			},
			{
				"x": 0.5480202864,
				"y": -0.8178982817,
				"z": 0.1225134397,
				"element": "C" 
			},
			{
				"x": 0.776254604,
				"y": -1.1584641532,
				"z": 1.4613720797,
				"element": "C" 
			},
			{
				"x": 2.0458800115,
				"y": -1.0129178731,
				"z": 2.0212678707,
				"element": "C" 
			},
			{
				"x": 3.1024222608,
				"y": -0.5339203994,
				"z": 1.2442402605,
				"element": "C" 
			},
			{
				"x": 2.8825902149,
				"y": -0.2048168088,
				"z": -0.0956222055,
				"element": "C" 
			},
			{
				"x": 1.6132080114,
				"y": -0.3464150787,
				"z": -0.6550758067,
				"element": "C" 
			},
			{
				"x": -2.5953356496,
				"y": 0.2392499305,
				"z": -1.1088014363,
				"element": "H" 
			},
			{
				"x": -0.9848128546,
				"y": 1.136728491,
				"z": -1.1963917251,
				"element": "H" 
			},
			{
				"x": -1.4549609275,
				"y": -1.7014775066,
				"z": 0.0190823068,
				"element": "H" 
			},
			{
				"x": -0.0430440802,
				"y": -1.5385942582,
				"z": 2.0673212634,
				"element": "H" 
			},
			{
				"x": 2.2108629786,
				"y": -1.2789170442,
				"z": 3.0615375015,
				"element": "H" 
			},
			{
				"x": 4.0923349469,
				"y": -0.4248914075,
				"z": 1.6778736929,
				"element": "H" 
			},
			{
				"x": 3.7038862337,
				"y": 0.1566080356,
				"z": -0.7081699308,
				"element": "H" 
			},
			{
				"x": 1.4358546448,
				"y": -0.1149526763,
				"z": -1.7006859944,
				"element": "H" 
			}
		],
		 "valence_orbital": [ 
			{
				"type": "occ",
				"energy": -0.34116,
				"method": "rhf"
			},
			{
				"type": "occ",
				"energy": -0.32011,
				"method": "rhf"
			},
			{
				"type": "occ",
				"energy": -0.27487,
				"method": "rhf"
			},
			{
				"type": "occ",
				"energy": -0.25088,
				"method": "rhf"
			},
			{
				"type": "occ",
				"energy": -0.23892,
				"method": "rhf"
			},
			{
				"type": "unocc",
				"energy": -0.00773,
				"method": "rhf"
			},
			{
				"type": "unocc",
				"energy": -0.00228,
				"method": "rhf"
			},
			{
				"type": "unocc",
				"energy": 0.0964,
				"method": "rhf"
			},
			{
				"type": "unocc",
				"energy": 0.10752,
				"method": "rhf"
			},
			{
				"type": "unocc",
				"energy": 0.11574,
				"method": "rhf"
			}
		],
		"cosmo_sigma_profile": { 
			"-0.025": 0.0,
			"-0.024": 0.0,
			"-0.023": 0.0,
			"-0.022": 0.0,
			"-0.021": 0.0,
			"-0.02": 0.0,
			"-0.019": 0.0,
			"-0.018": 0.0,
			"-0.017": 0.0,
			"-0.016": 0.0,
			"-0.015": 0.0,
			"-0.014": 0.0,
			"-0.013": 0.0,
			"-0.012": 0.0,
			"-0.011": 0.0,
			"-0.01": 0.0,
			"-0.009": 0.0,
			"-0.008": 0.0,
			"-0.007": 2.28683972391,
			"-0.006": 11.5484341871,
			"-0.005": 15.7980518182,
			"-0.004": 16.4750797535,
			"-0.003": 16.6318848244,
			"-0.002": 12.5673203542,
			"-0.001": 11.1825117161,
			"0.0": 9.62229754733,
			"0.001": 8.55782006402,
			"0.002": 8.873473342,
			"0.003": 9.35542777625,
			"0.004": 10.7614219285,
			"0.005": 10.549893771,
			"0.006": 8.97328448343,
			"0.007": 1.4818441684,
			"0.008": 1.25608125717,
			"0.009": 2.17581574539,
			"0.01": 1.6739326566,
			"0.011": 3.19925203668,
			"0.012": 1.51518562794,
			"0.013": 0.149709244007,
			"0.014": 0.0,
			"0.015": 0.0,
			"0.016": 0.0,
			"0.017": 0.0,
			"0.018": 0.0,
			"0.019": 0.0,
			"0.02": 0.0,
			"0.021": 0.0,
			"0.022": 0.0,
			"0.023": 0.0,
			"0.024": 0.0,
			"0.025": 0.0
		}
	}
}
