{
	 "smiles": "[O-][N+](=O)C1=CC=C2C(NC(=C2OC(=O)C2=CC=CC=C2)C2=CC=CC=C2)=C1", 
	 "Tm": 502.15, 
	 "num_atms": 41, 
	 "gaussian": { 
		 "optdone": 1, 
		 "sigma_profile": "yes", 
		 "theory": "DFT", 
		 "functional": "B3LYP", 
		 "basiset": "6-31G**", 
		 "properties": { 
			 "R2extent": 12317.0031, 
			 "electric_dipole_moment_norm": 8.54448636607, 
			 "electric_quadrupole_moment_norm": 29.0602186354, 
			 "total_energy": -1218.99462006, 
			 "HOMO_LUMO_gap": 0.13413, 
			 "cosmo_polarized_energy": -19.51, 
			 "cosmo_cavitation_energy": 47.53, 
			 "cosmo_dispersion_energy": -33.09, 
			 "cosmo_repulsion_energy": 2.46, 
			 "cosmo_total_nonelectrostatic_energy": 16.9, 
			 "SMD_solvation_energy": 10.43 
		},
		"coords": [
			{
				"x": 5.3140977356,
				"y": -3.1393754958,
				"z": -1.8913654538,
				"element": "O" 
			},
			{
				"x": 4.1462578417,
				"y": -3.4077460337,
				"z": -2.1785934579,
				"element": "N" 
			},
			{
				"x": 3.8024181732,
				"y": -4.3846909934,
				"z": -2.8495530419,
				"element": "O" 
			},
			{
				"x": 3.0974133428,
				"y": -2.5099321028,
				"z": -1.6908343607,
				"element": "C" 
			},
			{
				"x": 3.4676408579,
				"y": -1.3818371073,
				"z": -0.9319081624,
				"element": "C" 
			},
			{
				"x": 2.4961383309,
				"y": -0.5149821987,
				"z": -0.4641535956,
				"element": "C" 
			},
			{
				"x": 1.1431645357,
				"y": -0.7795720957,
				"z": -0.7567543308,
				"element": "C" 
			},
			{
				"x": 0.811718135,
				"y": -1.9414303,
				"z": -1.5133939722,
				"element": "C" 
			},
			{
				"x": -0.560926765,
				"y": -1.9973691399,
				"z": -1.6243971378,
				"element": "N" 
			},
			{
				"x": -1.133779486,
				"y": -0.8954135451,
				"z": -1.0058343694,
				"element": "C" 
			},
			{
				"x": -0.10219478,
				"y": -0.1441602384,
				"z": -0.4636014504,
				"element": "C" 
			},
			{
				"x": -0.3368433408,
				"y": 0.9368827449,
				"z": 0.366184283,
				"element": "O" 
			},
			{
				"x": 0.3312385686,
				"y": 2.1185029417,
				"z": 0.1490782907,
				"element": "C" 
			},
			{
				"x": 1.135123806,
				"y": 2.2727450923,
				"z": -0.7424137274,
				"element": "O" 
			},
			{
				"x": -0.0631986124,
				"y": 3.1549639613,
				"z": 1.1388602085,
				"element": "C" 
			},
			{
				"x": 0.5300645387,
				"y": 4.4205493116,
				"z": 1.0196993406,
				"element": "C" 
			},
			{
				"x": 0.1981097093,
				"y": 5.4330268446,
				"z": 1.9154675147,
				"element": "C" 
			},
			{
				"x": -0.7264439903,
				"y": 5.1878154368,
				"z": 2.9347843086,
				"element": "C" 
			},
			{
				"x": -1.3188153558,
				"y": 3.9283910481,
				"z": 3.0567773607,
				"element": "C" 
			},
			{
				"x": -0.9906881824,
				"y": 2.9105990337,
				"z": 2.1628356617,
				"element": "C" 
			},
			{
				"x": -2.5866114538,
				"y": -0.7186415948,
				"z": -0.9605408471,
				"element": "C" 
			},
			{
				"x": -3.1627070577,
				"y": 0.5603407512,
				"z": -0.8489925001,
				"element": "C" 
			},
			{
				"x": -4.5467907,
				"y": 0.7124077956,
				"z": -0.8232617492,
				"element": "C" 
			},
			{
				"x": -5.3842990475,
				"y": -0.4019158224,
				"z": -0.9128205259,
				"element": "C" 
			},
			{
				"x": -4.8249062287,
				"y": -1.6763179892,
				"z": -1.0215363507,
				"element": "C" 
			},
			{
				"x": -3.4410185417,
				"y": -1.8346639278,
				"z": -1.041547486,
				"element": "C" 
			},
			{
				"x": 1.7772895596,
				"y": -2.8175433053,
				"z": -1.9992385657,
				"element": "C" 
			},
			{
				"x": 4.5182565875,
				"y": -1.2123950306,
				"z": -0.7359578966,
				"element": "H" 
			},
			{
				"x": 2.7752551002,
				"y": 0.3668210261,
				"z": 0.0988785071,
				"element": "H" 
			},
			{
				"x": -1.0630851502,
				"y": -2.612477427,
				"z": -2.2446406123,
				"element": "H" 
			},
			{
				"x": 1.2450214944,
				"y": 4.5861376337,
				"z": 0.2209226072,
				"element": "H" 
			},
			{
				"x": 0.6585611414,
				"y": 6.4118769042,
				"z": 1.8213242973,
				"element": "H" 
			},
			{
				"x": -0.9845541897,
				"y": 5.9778894836,
				"z": 3.6342035472,
				"element": "H" 
			},
			{
				"x": -2.035806025,
				"y": 3.7388623575,
				"z": 3.8499718721,
				"element": "H" 
			},
			{
				"x": -1.4454019413,
				"y": 1.9310261276,
				"z": 2.2525242564,
				"element": "H" 
			},
			{
				"x": -2.5234125629,
				"y": 1.4329713816,
				"z": -0.7937859494,
				"element": "H" 
			},
			{
				"x": -4.9731850461,
				"y": 1.7079312501,
				"z": -0.7415908939,
				"element": "H" 
			},
			{
				"x": -6.4629527374,
				"y": -0.2782789264,
				"z": -0.8953138177,
				"element": "H" 
			},
			{
				"x": -5.4661658777,
				"y": -2.5508670424,
				"z": -1.0804184774,
				"element": "H" 
			},
			{
				"x": -3.0209858938,
				"y": -2.835604116,
				"z": -1.0860697457,
				"element": "H" 
			},
			{
				"x": 1.5444035075,
				"y": -3.7008266935,
				"z": -2.5806935777,
				"element": "H" 
			}
		],
		 "valence_orbital": [ 
			{
				"type": "occ",
				"energy": -0.2706,
				"method": "rhf"
			},
			{
				"type": "occ",
				"energy": -0.26834,
				"method": "rhf"
			},
			{
				"type": "occ",
				"energy": -0.26794,
				"method": "rhf"
			},
			{
				"type": "occ",
				"energy": -0.2396,
				"method": "rhf"
			},
			{
				"type": "occ",
				"energy": -0.21465,
				"method": "rhf"
			},
			{
				"type": "unocc",
				"energy": -0.08052,
				"method": "rhf"
			},
			{
				"type": "unocc",
				"energy": -0.06071,
				"method": "rhf"
			},
			{
				"type": "unocc",
				"energy": -0.03878,
				"method": "rhf"
			},
			{
				"type": "unocc",
				"energy": -0.01922,
				"method": "rhf"
			},
			{
				"type": "unocc",
				"energy": -0.01718,
				"method": "rhf"
			}
		],
		"cosmo_sigma_profile": { 
			"-0.025": 0.0,
			"-0.024": 0.0,
			"-0.023": 0.0,
			"-0.022": 0.0,
			"-0.021": 0.0,
			"-0.02": 0.0,
			"-0.019": 0.0,
			"-0.018": 0.0,
			"-0.017": 0.12365817371,
			"-0.016": 1.34090168124,
			"-0.015": 1.19716792064,
			"-0.014": 1.45075327033,
			"-0.013": 1.32510546831,
			"-0.012": 1.45410151817,
			"-0.011": 1.70804266565,
			"-0.01": 1.30995811087,
			"-0.009": 2.02230754611,
			"-0.008": 3.05344745957,
			"-0.007": 6.75844878381,
			"-0.006": 22.5679088358,
			"-0.005": 29.5428631042,
			"-0.004": 27.2334707792,
			"-0.003": 21.4968056852,
			"-0.002": 23.5628717978,
			"-0.001": 22.2802694562,
			"0.0": 29.66800239,
			"0.001": 37.9805274766,
			"0.002": 33.8900048574,
			"0.003": 31.063539931,
			"0.004": 27.2311628225,
			"0.005": 11.0676626461,
			"0.006": 5.63882694945,
			"0.007": 5.96181198102,
			"0.008": 12.1855890879,
			"0.009": 7.06831423822,
			"0.01": 7.44901365368,
			"0.011": 5.43376014118,
			"0.012": 0.520823711202,
			"0.013": 0.0,
			"0.014": 0.0,
			"0.015": 0.0,
			"0.016": 0.0,
			"0.017": 0.0,
			"0.018": 0.0,
			"0.019": 0.0,
			"0.02": 0.0,
			"0.021": 0.0,
			"0.022": 0.0,
			"0.023": 0.0,
			"0.024": 0.0,
			"0.025": 0.0
		}
	}
}
