{
	 "smiles": "CC(C)(C)OC(=O)N1C[C@@H]([C@H](C1)C(F)(F)F)C(O)=O", 
	 "Tm": 391.15, 
	 "num_atms": 35, 
	 "gaussian": { 
		 "optdone": 1, 
		 "sigma_profile": "yes", 
		 "theory": "DFT", 
		 "functional": "B3LYP", 
		 "basiset": "6-31G**", 
		 "properties": { 
			 "R2extent": 6765.3507, 
			 "electric_dipole_moment_norm": 1.58691123255, 
			 "electric_quadrupole_moment_norm": 22.9450366075, 
			 "total_energy": -1084.03666517, 
			 "HOMO_LUMO_gap": 0.24387, 
			 "cosmo_polarized_energy": -16.83, 
			 "cosmo_cavitation_energy": 38.06, 
			 "cosmo_dispersion_energy": -25.99, 
			 "cosmo_repulsion_energy": 1.96, 
			 "cosmo_total_nonelectrostatic_energy": 14.03, 
			 "SMD_solvation_energy": 8.76 
		},
		"coords": [
			{
				"x": -0.0650398977,
				"y": -3.4403285113,
				"z": 2.5475931179,
				"element": "C" 
			},
			{
				"x": -1.3690866097,
				"y": -2.6418381503,
				"z": 2.4517858313,
				"element": "C" 
			},
			{
				"x": -1.608486992,
				"y": -1.8333598421,
				"z": 3.7292770733,
				"element": "C" 
			},
			{
				"x": -2.5753756786,
				"y": -3.5323380375,
				"z": 2.1364325648,
				"element": "C" 
			},
			{
				"x": -1.2413834068,
				"y": -1.5889421796,
				"z": 1.4280455971,
				"element": "O" 
			},
			{
				"x": -1.0117288267,
				"y": -1.9055189728,
				"z": 0.1332961135,
				"element": "C" 
			},
			{
				"x": -0.9012172081,
				"y": -3.02928244,
				"z": -0.3358073785,
				"element": "O" 
			},
			{
				"x": -0.897352521,
				"y": -0.7712154748,
				"z": -0.6247932746,
				"element": "N" 
			},
			{
				"x": -1.1402715272,
				"y": 0.5977995337,
				"z": -0.1925716365,
				"element": "C" 
			},
			{
				"x": -0.3543181209,
				"y": 1.4333252947,
				"z": -1.2188788825,
				"element": "C" 
			},
			{
				"x": -0.2956503725,
				"y": 0.544811549,
				"z": -2.5067502016,
				"element": "C" 
			},
			{
				"x": -0.756770044,
				"y": -0.8717536071,
				"z": -2.0680130327,
				"element": "C" 
			},
			{
				"x": 1.0924226212,
				"y": 0.5020485771,
				"z": -3.1136275418,
				"element": "C" 
			},
			{
				"x": 1.5172138347,
				"y": 1.7609160622,
				"z": -3.4667679901,
				"element": "F" 
			},
			{
				"x": 1.125459617,
				"y": -0.2419822332,
				"z": -4.2312456777,
				"element": "F" 
			},
			{
				"x": 2.0128077449,
				"y": 0.0159601031,
				"z": -2.26233861,
				"element": "F" 
			},
			{
				"x": -0.9736503604,
				"y": 2.816479167,
				"z": -1.4382599939,
				"element": "C" 
			},
			{
				"x": -0.3649746101,
				"y": 3.5974269139,
				"z": -2.3574629057,
				"element": "O" 
			},
			{
				"x": -1.9398218632,
				"y": 3.2155159073,
				"z": -0.8353979949,
				"element": "O" 
			},
			{
				"x": 0.1186010115,
				"y": -4.0005173825,
				"z": 1.6305349634,
				"element": "H" 
			},
			{
				"x": 0.7797433255,
				"y": -2.7683478085,
				"z": 2.729730832,
				"element": "H" 
			},
			{
				"x": -0.1260865645,
				"y": -4.142459724,
				"z": 3.3854068533,
				"element": "H" 
			},
			{
				"x": -2.5135276302,
				"y": -1.2258020002,
				"z": 3.638605414,
				"element": "H" 
			},
			{
				"x": -1.727650512,
				"y": -2.5074507588,
				"z": 4.5826012819,
				"element": "H" 
			},
			{
				"x": -0.7641394377,
				"y": -1.1673794473,
				"z": 3.9300704326,
				"element": "H" 
			},
			{
				"x": -2.4179637483,
				"y": -4.0914064851,
				"z": 1.2138768488,
				"element": "H" 
			},
			{
				"x": -3.4800178745,
				"y": -2.9244389468,
				"z": 2.034858459,
				"element": "H" 
			},
			{
				"x": -2.73275233,
				"y": -4.2399292431,
				"z": 2.9568884162,
				"element": "H" 
			},
			{
				"x": -2.2029275649,
				"y": 0.8680601407,
				"z": -0.2278747073,
				"element": "H" 
			},
			{
				"x": -0.7904551208,
				"y": 0.7472947751,
				"z": 0.828389685,
				"element": "H" 
			},
			{
				"x": 0.6689580086,
				"y": 1.580028235,
				"z": -0.8528836117,
				"element": "H" 
			},
			{
				"x": -0.9557592577,
				"y": 0.9351811162,
				"z": -3.2867396936,
				"element": "H" 
			},
			{
				"x": -1.7070652109,
				"y": -1.1265974416,
				"z": -2.5546399653,
				"element": "H" 
			},
			{
				"x": -0.042549038,
				"y": -1.6579245894,
				"z": -2.3203226653,
				"element": "H" 
			},
			{
				"x": 0.395316165,
				"y": 3.142465901,
				"z": -2.7535177202,
				"element": "H" 
			}
		],
		 "valence_orbital": [ 
			{
				"type": "occ",
				"energy": -0.32538,
				"method": "rhf"
			},
			{
				"type": "occ",
				"energy": -0.29289,
				"method": "rhf"
			},
			{
				"type": "occ",
				"energy": -0.2846,
				"method": "rhf"
			},
			{
				"type": "occ",
				"energy": -0.26845,
				"method": "rhf"
			},
			{
				"type": "occ",
				"energy": -0.24847,
				"method": "rhf"
			},
			{
				"type": "unocc",
				"energy": -0.0046,
				"method": "rhf"
			},
			{
				"type": "unocc",
				"energy": 0.03811,
				"method": "rhf"
			},
			{
				"type": "unocc",
				"energy": 0.06673,
				"method": "rhf"
			},
			{
				"type": "unocc",
				"energy": 0.07147,
				"method": "rhf"
			},
			{
				"type": "unocc",
				"energy": 0.08218,
				"method": "rhf"
			}
		],
		"cosmo_sigma_profile": { 
			"-0.025": 0.0,
			"-0.024": 0.0,
			"-0.023": 0.0,
			"-0.022": 0.0,
			"-0.021": 0.0,
			"-0.02": 0.0,
			"-0.019": 0.0,
			"-0.018": 0.0,
			"-0.017": 0.0,
			"-0.016": 0.0,
			"-0.015": 0.0,
			"-0.014": 0.178636236911,
			"-0.013": 0.427165154598,
			"-0.012": 1.01332025425,
			"-0.011": 2.36934091776,
			"-0.01": 4.10380371608,
			"-0.009": 7.71472702496,
			"-0.008": 6.21148424392,
			"-0.007": 6.65061925224,
			"-0.006": 8.55397250353,
			"-0.005": 9.98326029567,
			"-0.004": 20.1798653676,
			"-0.003": 24.1799663379,
			"-0.002": 23.0877517736,
			"-0.001": 24.9698592138,
			"0.0": 34.0845991196,
			"0.001": 31.6664321216,
			"0.002": 28.7544837512,
			"0.003": 9.91130922376,
			"0.004": 6.51128888431,
			"0.005": 5.91050654591,
			"0.006": 5.37484131092,
			"0.007": 3.97512352649,
			"0.008": 4.5074718291,
			"0.009": 4.85793218968,
			"0.01": 6.65809635878,
			"0.011": 6.83581882102,
			"0.012": 5.05204423045,
			"0.013": 3.78503134672,
			"0.014": 0.915762992508,
			"0.015": 0.0,
			"0.016": 0.0,
			"0.017": 0.0,
			"0.018": 0.0,
			"0.019": 0.0,
			"0.02": 0.0,
			"0.021": 0.0,
			"0.022": 0.0,
			"0.023": 0.0,
			"0.024": 0.0,
			"0.025": 0.0
		}
	}
}
