{
	 "smiles": "CC1=C(N)N(N=C1)C1=CC=CC=C1", 
	 "Tm": 353.15, 
	 "num_atms": 24, 
	 "gaussian": { 
		 "optdone": 1, 
		 "sigma_profile": "yes", 
		 "theory": "DFT", 
		 "functional": "B3LYP", 
		 "basiset": "6-31G**", 
		 "properties": { 
			 "R2extent": 2747.2775, 
			 "electric_dipole_moment_norm": 3.15095278448, 
			 "electric_quadrupole_moment_norm": 8.53435015569, 
			 "total_energy": -551.930352499, 
			 "HOMO_LUMO_gap": 0.18757, 
			 "cosmo_polarized_energy": -11.83, 
			 "cosmo_cavitation_energy": 27.35, 
			 "cosmo_dispersion_energy": -20.29, 
			 "cosmo_repulsion_energy": 1.6, 
			 "cosmo_total_nonelectrostatic_energy": 8.67, 
			 "SMD_solvation_energy": 4.17 
		},
		"coords": [
			{
				"x": 1.9086793171,
				"y": 2.9143381431,
				"z": -0.6373952591,
				"element": "C" 
			},
			{
				"x": 1.5118485554,
				"y": 1.4957193482,
				"z": -0.3592859366,
				"element": "C" 
			},
			{
				"x": 0.270769919,
				"y": 1.034512099,
				"z": 0.0560590536,
				"element": "C" 
			},
			{
				"x": -0.8917881862,
				"y": 1.754271614,
				"z": 0.3403679702,
				"element": "N" 
			},
			{
				"x": 0.3661087293,
				"y": -0.3298398125,
				"z": 0.1926629447,
				"element": "N" 
			},
			{
				"x": 1.6187876671,
				"y": -0.7812183105,
				"z": -0.146612077,
				"element": "N" 
			},
			{
				"x": 2.2894972394,
				"y": 0.3168579509,
				"z": -0.4599396413,
				"element": "C" 
			},
			{
				"x": -0.6353138448,
				"y": -1.2681037613,
				"z": 0.5510211807,
				"element": "C" 
			},
			{
				"x": -1.6252000405,
				"y": -0.9473647151,
				"z": 1.4900504352,
				"element": "C" 
			},
			{
				"x": -2.597660666,
				"y": -1.8944315807,
				"z": 1.8167860029,
				"element": "C" 
			},
			{
				"x": -2.5797889747,
				"y": -3.1612576371,
				"z": 1.2336243217,
				"element": "C" 
			},
			{
				"x": -1.5747424891,
				"y": -3.4811233172,
				"z": 0.31641021,
				"element": "C" 
			},
			{
				"x": -0.6072458443,
				"y": -2.5423919815,
				"z": -0.0317403451,
				"element": "C" 
			},
			{
				"x": 2.0418035448,
				"y": 3.5033072294,
				"z": 0.2792659468,
				"element": "H" 
			},
			{
				"x": 2.8548644984,
				"y": 2.9490161869,
				"z": -1.1851283405,
				"element": "H" 
			},
			{
				"x": 1.1654912768,
				"y": 3.4386819204,
				"z": -1.2535742861,
				"element": "H" 
			},
			{
				"x": -1.7432069764,
				"y": 1.2862349068,
				"z": 0.0479401139,
				"element": "H" 
			},
			{
				"x": -0.8527345171,
				"y": 2.6884622756,
				"z": -0.0497324859,
				"element": "H" 
			},
			{
				"x": 3.3284090014,
				"y": 0.2389188253,
				"z": -0.7572567744,
				"element": "H" 
			},
			{
				"x": -1.6180051411,
				"y": 0.0215437148,
				"z": 1.9760670499,
				"element": "H" 
			},
			{
				"x": -3.3616079653,
				"y": -1.6402179507,
				"z": 2.5460117882,
				"element": "H" 
			},
			{
				"x": -3.3357561696,
				"y": -3.8953155074,
				"z": 1.4957516144,
				"element": "H" 
			},
			{
				"x": -1.5465498686,
				"y": -4.4675260471,
				"z": -0.1376366945,
				"element": "H" 
			},
			{
				"x": 0.1812409349,
				"y": -2.7753735934,
				"z": -0.7369167918,
				"element": "H" 
			}
		],
		 "valence_orbital": [ 
			{
				"type": "occ",
				"energy": -0.27746,
				"method": "rhf"
			},
			{
				"type": "occ",
				"energy": -0.27448,
				"method": "rhf"
			},
			{
				"type": "occ",
				"energy": -0.25264,
				"method": "rhf"
			},
			{
				"type": "occ",
				"energy": -0.21641,
				"method": "rhf"
			},
			{
				"type": "occ",
				"energy": -0.19965,
				"method": "rhf"
			},
			{
				"type": "unocc",
				"energy": -0.01208,
				"method": "rhf"
			},
			{
				"type": "unocc",
				"energy": -0.00468,
				"method": "rhf"
			},
			{
				"type": "unocc",
				"energy": 0.04965,
				"method": "rhf"
			},
			{
				"type": "unocc",
				"energy": 0.06894,
				"method": "rhf"
			},
			{
				"type": "unocc",
				"energy": 0.08478,
				"method": "rhf"
			}
		],
		"cosmo_sigma_profile": { 
			"-0.025": 0.0,
			"-0.024": 0.0,
			"-0.023": 0.0,
			"-0.022": 0.0,
			"-0.021": 0.0,
			"-0.02": 0.0,
			"-0.019": 0.0,
			"-0.018": 0.0,
			"-0.017": 0.0,
			"-0.016": 0.0,
			"-0.015": 0.0,
			"-0.014": 0.0,
			"-0.013": 0.465984039402,
			"-0.012": 2.14400561572,
			"-0.011": 2.46330934376,
			"-0.01": 3.08852951345,
			"-0.009": 3.11024534436,
			"-0.008": 2.31302854514,
			"-0.007": 2.53612378376,
			"-0.006": 9.70351385091,
			"-0.005": 13.3310232629,
			"-0.004": 17.7093186276,
			"-0.003": 18.7342242988,
			"-0.002": 15.0071621747,
			"-0.001": 14.3063106716,
			"0.0": 16.6194394756,
			"0.001": 13.5208414167,
			"0.002": 12.1080708374,
			"0.003": 14.5954739758,
			"0.004": 15.085833929,
			"0.005": 16.2155429336,
			"0.006": 6.98847834838,
			"0.007": 3.0439680633,
			"0.008": 2.94466047102,
			"0.009": 2.56982660004,
			"0.01": 1.76584101996,
			"0.011": 1.86271879322,
			"0.012": 2.06637459597,
			"0.013": 1.42506204646,
			"0.014": 1.01822583612,
			"0.015": 0.772160697054,
			"0.016": 0.501154893239,
			"0.017": 0.0,
			"0.018": 0.0,
			"0.019": 0.0,
			"0.02": 0.0,
			"0.021": 0.0,
			"0.022": 0.0,
			"0.023": 0.0,
			"0.024": 0.0,
			"0.025": 0.0
		}
	}
}
