{
	 "smiles": "OC(=O)CSC1=C(SC=C1)[N+]([O-])=O", 
	 "Tm": 470.15, 
	 "num_atms": 18, 
	 "gaussian": { 
		 "optdone": 1, 
		 "sigma_profile": "yes", 
		 "theory": "DFT", 
		 "functional": "B3LYP", 
		 "basiset": "6-31G**", 
		 "properties": { 
			 "R2extent": 3451.2751, 
			 "electric_dipole_moment_norm": 4.19755297286, 
			 "electric_quadrupole_moment_norm": 21.0566392751, 
			 "total_energy": -1383.54710649, 
			 "HOMO_LUMO_gap": 0.12911, 
			 "cosmo_polarized_energy": -15.54, 
			 "cosmo_cavitation_energy": 25.99, 
			 "cosmo_dispersion_energy": -19.85, 
			 "cosmo_repulsion_energy": 1.47, 
			 "cosmo_total_nonelectrostatic_energy": 7.61, 
			 "SMD_solvation_energy": 7.07 
		},
		"coords": [
			{
				"x": -1.6661491983,
				"y": 0.1196508856,
				"z": -2.2128582404,
				"element": "O" 
			},
			{
				"x": -1.9070249958,
				"y": -0.4329023299,
				"z": -1.0091503509,
				"element": "C" 
			},
			{
				"x": -2.3847296512,
				"y": -1.5338216665,
				"z": -0.8951415126,
				"element": "O" 
			},
			{
				"x": -1.5204511139,
				"y": 0.436775826,
				"z": 0.189516058,
				"element": "C" 
			},
			{
				"x": 0.1609670982,
				"y": 0.0731840861,
				"z": 0.8552691529,
				"element": "S" 
			},
			{
				"x": 1.3125107727,
				"y": -0.0922627109,
				"z": -0.4785487387,
				"element": "C" 
			},
			{
				"x": 1.6497590337,
				"y": 0.7164885519,
				"z": -1.5636555314,
				"element": "C" 
			},
			{
				"x": 3.0554657626,
				"y": 0.1595075805,
				"z": -2.4323326823,
				"element": "S" 
			},
			{
				"x": 3.2018732607,
				"y": -1.1704311445,
				"z": -1.3502358173,
				"element": "C" 
			},
			{
				"x": 2.2347554462,
				"y": -1.181346979,
				"z": -0.3811548981,
				"element": "C" 
			},
			{
				"x": 1.0766771283,
				"y": 1.934532615,
				"z": -2.0060646066,
				"element": "N" 
			},
			{
				"x": -0.0221137798,
				"y": 2.2835439535,
				"z": -1.5235938298,
				"element": "O" 
			},
			{
				"x": 1.6901935281,
				"y": 2.587960697,
				"z": -2.8502462654,
				"element": "O" 
			},
			{
				"x": -1.2670001602,
				"y": 1.0040873923,
				"z": -2.0981145576,
				"element": "H" 
			},
			{
				"x": -2.1594903928,
				"y": 0.150561416,
				"z": 1.027096151,
				"element": "H" 
			},
			{
				"x": -1.6167665656,
				"y": 1.5025904173,
				"z": -0.0094597031,
				"element": "H" 
			},
			{
				"x": 3.9865617026,
				"y": -1.9001026974,
				"z": -1.500076581,
				"element": "H" 
			},
			{
				"x": 2.1491621243,
				"y": -1.9465158929,
				"z": 0.3802519533,
				"element": "H" 
			}
		],
		 "valence_orbital": [ 
			{
				"type": "occ",
				"energy": -0.31476,
				"method": "rhf"
			},
			{
				"type": "occ",
				"energy": -0.31132,
				"method": "rhf"
			},
			{
				"type": "occ",
				"energy": -0.28838,
				"method": "rhf"
			},
			{
				"type": "occ",
				"energy": -0.28019,
				"method": "rhf"
			},
			{
				"type": "occ",
				"energy": -0.25327,
				"method": "rhf"
			},
			{
				"type": "unocc",
				"energy": -0.12416,
				"method": "rhf"
			},
			{
				"type": "unocc",
				"energy": -0.03842,
				"method": "rhf"
			},
			{
				"type": "unocc",
				"energy": -0.01971,
				"method": "rhf"
			},
			{
				"type": "unocc",
				"energy": -0.017,
				"method": "rhf"
			},
			{
				"type": "unocc",
				"energy": 0.0137,
				"method": "rhf"
			}
		],
		"cosmo_sigma_profile": { 
			"-0.025": 0.0,
			"-0.024": 0.0,
			"-0.023": 0.0,
			"-0.022": 0.0,
			"-0.021": 0.0,
			"-0.02": 0.0,
			"-0.019": 0.0,
			"-0.018": 0.0,
			"-0.017": 0.0,
			"-0.016": 0.0,
			"-0.015": 0.0,
			"-0.014": 0.0002499529867,
			"-0.013": 0.211608047188,
			"-0.012": 0.824975632974,
			"-0.011": 3.45311193295,
			"-0.01": 5.16088134009,
			"-0.009": 7.68765565173,
			"-0.008": 7.30236024185,
			"-0.007": 9.82775835744,
			"-0.006": 9.61579654377,
			"-0.005": 10.3675705051,
			"-0.004": 8.55566898297,
			"-0.003": 10.2307743267,
			"-0.002": 16.7067683496,
			"-0.001": 17.269686279,
			"0.0": 15.11436795,
			"0.001": 13.4013667199,
			"0.002": 8.57017847297,
			"0.003": 7.90168813448,
			"0.004": 7.93635318844,
			"0.005": 7.58491424987,
			"0.006": 7.64181449989,
			"0.007": 7.69955038775,
			"0.008": 7.24803243093,
			"0.009": 6.6813054923,
			"0.01": 5.3385385518,
			"0.011": 5.4143721254,
			"0.012": 4.56215823864,
			"0.013": 0.760137440357,
			"0.014": 0.0,
			"0.015": 0.0,
			"0.016": 0.0,
			"0.017": 0.0,
			"0.018": 0.0,
			"0.019": 0.0,
			"0.02": 0.0,
			"0.021": 0.0,
			"0.022": 0.0,
			"0.023": 0.0,
			"0.024": 0.0,
			"0.025": 0.0
		}
	}
}
