{
	 "smiles": "CC1=CC(=NN1C1=CC=C(F)C=C1)C(O)=O", 
	 "Tm": 426.15, 
	 "num_atms": 25, 
	 "gaussian": { 
		 "optdone": 1, 
		 "sigma_profile": "yes", 
		 "theory": "DFT", 
		 "functional": "B3LYP", 
		 "basiset": "6-31G**", 
		 "properties": { 
			 "R2extent": 5050.4952, 
			 "electric_dipole_moment_norm": 6.25308095022, 
			 "electric_quadrupole_moment_norm": 17.8014147455, 
			 "total_energy": -784.37881921, 
			 "HOMO_LUMO_gap": 0.20253, 
			 "cosmo_polarized_energy": -14.5, 
			 "cosmo_cavitation_energy": 30.73, 
			 "cosmo_dispersion_energy": -21.94, 
			 "cosmo_repulsion_energy": 1.68, 
			 "cosmo_total_nonelectrostatic_energy": 10.47, 
			 "SMD_solvation_energy": 6.55 
		},
		"coords": [
			{
				"x": 2.5570776263,
				"y": 0.4646729024,
				"z": -2.1030429865,
				"element": "C" 
			},
			{
				"x": 1.6625115905,
				"y": -0.0188770027,
				"z": -1.0052636929,
				"element": "C" 
			},
			{
				"x": 1.9857535027,
				"y": -0.5628013151,
				"z": 0.2223952955,
				"element": "C" 
			},
			{
				"x": 0.7516575228,
				"y": -0.7820372718,
				"z": 0.8665886697,
				"element": "C" 
			},
			{
				"x": -0.2757505718,
				"y": -0.4047616351,
				"z": 0.1041083047,
				"element": "N" 
			},
			{
				"x": 0.2828214365,
				"y": 0.051065665,
				"z": -1.0398248855,
				"element": "N" 
			},
			{
				"x": -0.5631879328,
				"y": 0.5813711167,
				"z": -2.0575033064,
				"element": "C" 
			},
			{
				"x": -1.6072585983,
				"y": 1.4387662747,
				"z": -1.691671767,
				"element": "C" 
			},
			{
				"x": -2.4565177269,
				"y": 1.9555026569,
				"z": -2.6658898052,
				"element": "C" 
			},
			{
				"x": -2.2400399709,
				"y": 1.6137508054,
				"z": -3.9975426884,
				"element": "C" 
			},
			{
				"x": -3.0540275851,
				"y": 2.1200935805,
				"z": -4.9426846221,
				"element": "F" 
			},
			{
				"x": -1.2112531066,
				"y": 0.7606734358,
				"z": -4.3799686075,
				"element": "C" 
			},
			{
				"x": -0.3739079343,
				"y": 0.232472478,
				"z": -3.3981990781,
				"element": "C" 
			},
			{
				"x": 0.4996152787,
				"y": -1.3533079141,
				"z": 2.2143181512,
				"element": "C" 
			},
			{
				"x": -0.8083777039,
				"y": -1.4550124403,
				"z": 2.5412791333,
				"element": "O" 
			},
			{
				"x": 1.3810075165,
				"y": -1.7009844101,
				"z": 2.9656519853,
				"element": "O" 
			},
			{
				"x": 3.5518466566,
				"y": 0.658243869,
				"z": -1.695743928,
				"element": "H" 
			},
			{
				"x": 2.669139135,
				"y": -0.2728384387,
				"z": -2.905874163,
				"element": "H" 
			},
			{
				"x": 2.1846756592,
				"y": 1.3897946778,
				"z": -2.5524355078,
				"element": "H" 
			},
			{
				"x": 2.9705080429,
				"y": -0.7656799641,
				"z": 0.6139562365,
				"element": "H" 
			},
			{
				"x": -1.7464046714,
				"y": 1.6875820513,
				"z": -0.6461908512,
				"element": "H" 
			},
			{
				"x": -3.2725956993,
				"y": 2.6215245571,
				"z": -2.4087453254,
				"element": "H" 
			},
			{
				"x": -1.0863928388,
				"y": 0.5049026922,
				"z": -5.4261454709,
				"element": "H" 
			},
			{
				"x": 0.4075102302,
				"y": -0.465600491,
				"z": -3.6749436837,
				"element": "H" 
			},
			{
				"x": -1.3326098579,
				"y": -1.1275158797,
				"z": 1.7886725934,
				"element": "H" 
			}
		],
		 "valence_orbital": [ 
			{
				"type": "occ",
				"energy": -0.29305,
				"method": "rhf"
			},
			{
				"type": "occ",
				"energy": -0.28474,
				"method": "rhf"
			},
			{
				"type": "occ",
				"energy": -0.26611,
				"method": "rhf"
			},
			{
				"type": "occ",
				"energy": -0.26255,
				"method": "rhf"
			},
			{
				"type": "occ",
				"energy": -0.24825,
				"method": "rhf"
			},
			{
				"type": "unocc",
				"energy": -0.04572,
				"method": "rhf"
			},
			{
				"type": "unocc",
				"energy": -0.03524,
				"method": "rhf"
			},
			{
				"type": "unocc",
				"energy": -0.01432,
				"method": "rhf"
			},
			{
				"type": "unocc",
				"energy": 0.01979,
				"method": "rhf"
			},
			{
				"type": "unocc",
				"energy": 0.06373,
				"method": "rhf"
			}
		],
		"cosmo_sigma_profile": { 
			"-0.025": 0.0,
			"-0.024": 0.0,
			"-0.023": 0.0,
			"-0.022": 0.0,
			"-0.021": 0.0,
			"-0.02": 0.0,
			"-0.019": 0.0,
			"-0.018": 0.0,
			"-0.017": 0.0,
			"-0.016": 0.0,
			"-0.015": 0.124585618177,
			"-0.014": 0.442781372291,
			"-0.013": 0.650709063728,
			"-0.012": 0.25119691008,
			"-0.011": 1.00781592995,
			"-0.01": 0.754970132704,
			"-0.009": 0.613230529245,
			"-0.008": 6.50856904514,
			"-0.007": 10.2326621507,
			"-0.006": 13.7261947986,
			"-0.005": 16.0234838277,
			"-0.004": 14.9562954756,
			"-0.003": 16.0947037541,
			"-0.002": 18.682265782,
			"-0.001": 18.1171277142,
			"0.0": 19.9655337338,
			"0.001": 19.494989721,
			"0.002": 23.2057263053,
			"0.003": 16.0831308361,
			"0.004": 13.9051765698,
			"0.005": 4.07597074104,
			"0.006": 3.70558339512,
			"0.007": 4.00044188138,
			"0.008": 3.27320328313,
			"0.009": 2.96876456171,
			"0.01": 5.43402589462,
			"0.011": 5.09708415172,
			"0.012": 5.42102373156,
			"0.013": 1.81371677013,
			"0.014": 0.0649026153831,
			"0.015": 0.0,
			"0.016": 0.0,
			"0.017": 0.0,
			"0.018": 0.0,
			"0.019": 0.0,
			"0.02": 0.0,
			"0.021": 0.0,
			"0.022": 0.0,
			"0.023": 0.0,
			"0.024": 0.0,
			"0.025": 0.0
		}
	}
}
