{
	 "smiles": "CC1=CC=C(OCCCCBr)C=C1", 
	 "Tm": 313.15, 
	 "num_atms": 28, 
	 "gaussian": { 
		 "optdone": 1, 
		 "sigma_profile": "yes", 
		 "theory": "DFT", 
		 "functional": "B3LYP", 
		 "basiset": "6-31G**", 
		 "properties": { 
			 "R2extent": 8292.7396, 
			 "electric_dipole_moment_norm": 2.77537777789, 
			 "electric_quadrupole_moment_norm": 19.8458097406, 
			 "total_energy": -3074.84900873, 
			 "HOMO_LUMO_gap": 0.21342, 
			 "cosmo_polarized_energy": -8.33, 
			 "cosmo_cavitation_energy": 33.15, 
			 "cosmo_dispersion_energy": -24.12, 
			 "cosmo_repulsion_energy": 1.96, 
			 "cosmo_total_nonelectrostatic_energy": 10.99, 
			 "SMD_solvation_energy": 4.26 
		},
		"coords": [
			{
				"x": 3.4379296056,
				"y": 2.4653811363,
				"z": -3.3370517661,
				"element": "C" 
			},
			{
				"x": 2.6636235967,
				"y": 1.5649262715,
				"z": -2.4029634528,
				"element": "C" 
			},
			{
				"x": 3.3281370966,
				"y": 0.6541535147,
				"z": -1.5633970787,
				"element": "C" 
			},
			{
				"x": 2.6297340866,
				"y": -0.1796899596,
				"z": -0.700811701,
				"element": "C" 
			},
			{
				"x": 1.2286718564,
				"y": -0.1269008479,
				"z": -0.6510888125,
				"element": "C" 
			},
			{
				"x": 0.6316580249,
				"y": -0.9868552221,
				"z": 0.2316291112,
				"element": "O" 
			},
			{
				"x": -0.7884824106,
				"y": -1.0015588576,
				"z": 0.317124487,
				"element": "C" 
			},
			{
				"x": -1.1836171171,
				"y": -2.0432460997,
				"z": 1.359792171,
				"element": "C" 
			},
			{
				"x": -0.7004584011,
				"y": -3.4762114168,
				"z": 1.0646681552,
				"element": "C" 
			},
			{
				"x": -1.3481045846,
				"y": -4.0745817233,
				"z": -0.1767250074,
				"element": "C" 
			},
			{
				"x": -0.781905024,
				"y": -5.9541254553,
				"z": -0.4545285453,
				"element": "Br" 
			},
			{
				"x": 0.5456983945,
				"y": 0.7709447044,
				"z": -1.475471995,
				"element": "C" 
			},
			{
				"x": 1.2699744177,
				"y": 1.602271544,
				"z": -2.3381747404,
				"element": "C" 
			},
			{
				"x": 2.7687545942,
				"y": 3.1091745856,
				"z": -3.9149303111,
				"element": "H" 
			},
			{
				"x": 4.0378744377,
				"y": 1.8864401803,
				"z": -4.0491846143,
				"element": "H" 
			},
			{
				"x": 4.1307635477,
				"y": 3.1145034677,
				"z": -2.7885204014,
				"element": "H" 
			},
			{
				"x": 4.4140264644,
				"y": 0.5981091419,
				"z": -1.5878885543,
				"element": "H" 
			},
			{
				"x": 3.1454216634,
				"y": -0.8826842716,
				"z": -0.0543974343,
				"element": "H" 
			},
			{
				"x": -1.2225799053,
				"y": -1.2333464876,
				"z": -0.6666463332,
				"element": "H" 
			},
			{
				"x": -1.162032754,
				"y": -0.0116712638,
				"z": 0.6159497486,
				"element": "H" 
			},
			{
				"x": -2.2768594368,
				"y": -2.0233306154,
				"z": 1.4599085152,
				"element": "H" 
			},
			{
				"x": -0.7738134292,
				"y": -1.7326616063,
				"z": 2.327514042,
				"element": "H" 
			},
			{
				"x": -0.929800342,
				"y": -4.111501696,
				"z": 1.9262978235,
				"element": "H" 
			},
			{
				"x": 0.3865234173,
				"y": -3.4751088475,
				"z": 0.9456076922,
				"element": "H" 
			},
			{
				"x": -1.0643287202,
				"y": -3.5610620988,
				"z": -1.0947431093,
				"element": "H" 
			},
			{
				"x": -2.4358778735,
				"y": -4.1126552762,
				"z": -0.1028369598,
				"element": "H" 
			},
			{
				"x": -0.5358057511,
				"y": 0.8370324444,
				"z": -1.4586703339,
				"element": "H" 
			},
			{
				"x": 0.7247745457,
				"y": 2.2957547548,
				"z": -2.9739605953,
				"element": "H" 
			}
		],
		 "valence_orbital": [ 
			{
				"type": "occ",
				"energy": -0.30879,
				"method": "rhf"
			},
			{
				"type": "occ",
				"energy": -0.26843,
				"method": "rhf"
			},
			{
				"type": "occ",
				"energy": -0.26784,
				"method": "rhf"
			},
			{
				"type": "occ",
				"energy": -0.24803,
				"method": "rhf"
			},
			{
				"type": "occ",
				"energy": -0.21298,
				"method": "rhf"
			},
			{
				"type": "unocc",
				"energy": 0.00044,
				"method": "rhf"
			},
			{
				"type": "unocc",
				"energy": 0.00168,
				"method": "rhf"
			},
			{
				"type": "unocc",
				"energy": 0.01517,
				"method": "rhf"
			},
			{
				"type": "unocc",
				"energy": 0.08555,
				"method": "rhf"
			},
			{
				"type": "unocc",
				"energy": 0.09283,
				"method": "rhf"
			}
		],
		"cosmo_sigma_profile": { 
			"-0.025": 0.0,
			"-0.024": 0.0,
			"-0.023": 0.0,
			"-0.022": 0.0,
			"-0.021": 0.0,
			"-0.02": 0.0,
			"-0.019": 0.0,
			"-0.018": 0.0,
			"-0.017": 0.0,
			"-0.016": 0.0,
			"-0.015": 0.0,
			"-0.014": 0.0,
			"-0.013": 0.0,
			"-0.012": 0.0,
			"-0.011": 0.0,
			"-0.01": 0.0,
			"-0.009": 0.0,
			"-0.008": 0.0,
			"-0.007": 2.32699954722,
			"-0.006": 8.14778744786,
			"-0.005": 20.0176179172,
			"-0.004": 28.3046563039,
			"-0.003": 30.3283592001,
			"-0.002": 25.3874749147,
			"-0.001": 23.2198694116,
			"0.0": 19.2552564817,
			"0.001": 15.9787238811,
			"0.002": 12.9367364011,
			"0.003": 12.1896201977,
			"0.004": 15.1078145638,
			"0.005": 16.9518405039,
			"0.006": 21.5615042383,
			"0.007": 10.0290433123,
			"0.008": 0.945826943883,
			"0.009": 0.808480828297,
			"0.01": 0.401697418212,
			"0.011": 0.0,
			"0.012": 0.0,
			"0.013": 0.0,
			"0.014": 0.0,
			"0.015": 0.0,
			"0.016": 0.0,
			"0.017": 0.0,
			"0.018": 0.0,
			"0.019": 0.0,
			"0.02": 0.0,
			"0.021": 0.0,
			"0.022": 0.0,
			"0.023": 0.0,
			"0.024": 0.0,
			"0.025": 0.0
		}
	}
}
