{
	 "smiles": "NC1=CC(NC(=O)C2=C(I)C=CC=C2)=C(F)C=C1", 
	 "Tm": 421.15, 
	 "num_atms": 28, 
	 "gaussian": { 
		 "optdone": 1, 
		 "sigma_profile": "yes", 
		 "theory": "DFT", 
		 "functional": "B3LYP", 
		 "basiset": "6-31G**", 
		 "properties": { 
			 "R2extent": 5015.2876, 
			 "electric_dipole_moment_norm": 5.36963004871, 
			 "electric_quadrupole_moment_norm": 19.5771510872, 
			 "total_energy": -797.361183889, 
			 "HOMO_LUMO_gap": 0.1694, 
			 "cosmo_polarized_energy": -17.6, 
			 "cosmo_cavitation_energy": 35.88, 
			 "cosmo_dispersion_energy": -25.45, 
			 "cosmo_repulsion_energy": 1.95, 
			 "cosmo_total_nonelectrostatic_energy": 12.38, 
			 "SMD_solvation_energy": 6.22 
		},
		"coords": [
			{
				"x": -2.0240932608,
				"y": -2.8766079232,
				"z": -1.076635828,
				"element": "N" 
			},
			{
				"x": -1.1208319806,
				"y": -1.8679027482,
				"z": -1.4230418214,
				"element": "C" 
			},
			{
				"x": -1.5222337724,
				"y": -0.5231378128,
				"z": -1.434405766,
				"element": "C" 
			},
			{
				"x": -0.6486098808,
				"y": 0.4923663408,
				"z": -1.8321744342,
				"element": "C" 
			},
			{
				"x": -1.0961287617,
				"y": 1.8399650239,
				"z": -1.8852603187,
				"element": "N" 
			},
			{
				"x": -0.5587878465,
				"y": 2.942930813,
				"z": -1.2621427478,
				"element": "C" 
			},
			{
				"x": -0.8931275317,
				"y": 4.0759886301,
				"z": -1.5726360852,
				"element": "O" 
			},
			{
				"x": 0.4525385124,
				"y": 2.7034401337,
				"z": -0.1630172015,
				"element": "C" 
			},
			{
				"x": 0.112667388,
				"y": 2.2956653151,
				"z": 1.1334971048,
				"element": "C" 
			},
			{
				"x": -1.9053985325,
				"y": 1.9202129912,
				"z": 1.6994118211,
				"element": "I" 
			},
			{
				"x": 1.0845423362,
				"y": 2.1802582479,
				"z": 2.1313052316,
				"element": "C" 
			},
			{
				"x": 2.4139441876,
				"y": 2.482354083,
				"z": 1.8384701254,
				"element": "C" 
			},
			{
				"x": 2.7675044675,
				"y": 2.9144644101,
				"z": 0.5596340701,
				"element": "C" 
			},
			{
				"x": 1.7914847176,
				"y": 3.0313386394,
				"z": -0.425322474,
				"element": "C" 
			},
			{
				"x": 0.6430210774,
				"y": 0.1443046932,
				"z": -2.2398423518,
				"element": "C" 
			},
			{
				"x": 1.4871710647,
				"y": 1.1082872043,
				"z": -2.674029092,
				"element": "F" 
			},
			{
				"x": 1.0698705091,
				"y": -1.1759475214,
				"z": -2.2183190154,
				"element": "C" 
			},
			{
				"x": 0.1930140996,
				"y": -2.1794565064,
				"z": -1.8147569066,
				"element": "C" 
			},
			{
				"x": -2.7844221463,
				"y": -2.580235913,
				"z": -0.479845381,
				"element": "H" 
			},
			{
				"x": -1.5993804399,
				"y": -3.7293013922,
				"z": -0.7382844063,
				"element": "H" 
			},
			{
				"x": -2.5235869752,
				"y": -0.2474811588,
				"z": -1.1183165557,
				"element": "H" 
			},
			{
				"x": -1.8179294551,
				"y": 2.0760806015,
				"z": -2.5563609656,
				"element": "H" 
			},
			{
				"x": 0.8030107151,
				"y": 1.8667983457,
				"z": 3.1301695892,
				"element": "H" 
			},
			{
				"x": 3.1662007649,
				"y": 2.3896031559,
				"z": 2.6162906979,
				"element": "H" 
			},
			{
				"x": 3.7988179944,
				"y": 3.1650247224,
				"z": 0.3310666592,
				"element": "H" 
			},
			{
				"x": 2.0554263462,
				"y": 3.3707029862,
				"z": -1.4207948131,
				"element": "H" 
			},
			{
				"x": 2.0812481362,
				"y": -1.4076029917,
				"z": -2.5345526907,
				"element": "H" 
			},
			{
				"x": 0.5258682666,
				"y": -3.2137123696,
				"z": -1.8096064443,
				"element": "H" 
			}
		],
		 "valence_orbital": [ 
			{
				"type": "occ",
				"energy": -0.26584,
				"method": "rhf"
			},
			{
				"type": "occ",
				"energy": -0.24961,
				"method": "rhf"
			},
			{
				"type": "occ",
				"energy": -0.24514,
				"method": "rhf"
			},
			{
				"type": "occ",
				"energy": -0.23922,
				"method": "rhf"
			},
			{
				"type": "occ",
				"energy": -0.20933,
				"method": "rhf"
			},
			{
				"type": "unocc",
				"energy": -0.03993,
				"method": "rhf"
			},
			{
				"type": "unocc",
				"energy": -0.02896,
				"method": "rhf"
			},
			{
				"type": "unocc",
				"energy": -0.01691,
				"method": "rhf"
			},
			{
				"type": "unocc",
				"energy": -0.01131,
				"method": "rhf"
			},
			{
				"type": "unocc",
				"energy": 0.00865,
				"method": "rhf"
			}
		],
		"cosmo_sigma_profile": { 
			"-0.025": 0.0,
			"-0.024": 0.0,
			"-0.023": 0.0,
			"-0.022": 0.0,
			"-0.021": 0.0,
			"-0.02": 0.0,
			"-0.019": 0.0,
			"-0.018": 0.0,
			"-0.017": 0.0,
			"-0.016": 0.0,
			"-0.015": 0.403771566595,
			"-0.014": 1.02793657281,
			"-0.013": 1.1959149995,
			"-0.012": 4.1592427309,
			"-0.011": 3.75534311268,
			"-0.01": 4.11891810823,
			"-0.009": 4.02717341912,
			"-0.008": 4.56375631188,
			"-0.007": 11.4989957435,
			"-0.006": 16.2738406205,
			"-0.005": 17.5882510984,
			"-0.004": 15.9208614518,
			"-0.003": 13.4108574422,
			"-0.002": 13.220159579,
			"-0.001": 12.5299931363,
			"0.0": 15.735224308,
			"0.001": 20.2499909951,
			"0.002": 25.0721397566,
			"0.003": 35.4687744919,
			"0.004": 33.1847958838,
			"0.005": 11.0972174754,
			"0.006": 2.7798494882,
			"0.007": 2.25856616814,
			"0.008": 2.30257435348,
			"0.009": 2.28688855509,
			"0.01": 1.8124561001,
			"0.011": 3.00825642705,
			"0.012": 4.08825899923,
			"0.013": 6.16004245366,
			"0.014": 2.05251947078,
			"0.015": 0.144634101159,
			"0.016": 0.0,
			"0.017": 0.0,
			"0.018": 0.0,
			"0.019": 0.0,
			"0.02": 0.0,
			"0.021": 0.0,
			"0.022": 0.0,
			"0.023": 0.0,
			"0.024": 0.0,
			"0.025": 0.0
		}
	}
}
