{
	 "smiles": "CCCCC(C)=C", 
	 "Tm": 170.15, 
	 "num_atms": 21, 
	 "gaussian": { 
		 "optdone": 1, 
		 "sigma_profile": "yes", 
		 "theory": "DFT", 
		 "functional": "B3LYP", 
		 "basiset": "6-31G**", 
		 "properties": { 
			 "R2extent": 1353.0122, 
			 "electric_dipole_moment_norm": 0.559632566958, 
			 "electric_quadrupole_moment_norm": 1.3869638748, 
			 "total_energy": -275.180245332, 
			 "HOMO_LUMO_gap": 0.26771, 
			 "cosmo_polarized_energy": -1.68, 
			 "cosmo_cavitation_energy": 22.79, 
			 "cosmo_dispersion_energy": -16.12, 
			 "cosmo_repulsion_energy": 1.38, 
			 "cosmo_total_nonelectrostatic_energy": 8.05, 
			 "SMD_solvation_energy": 4.49 
		},
		"coords": [
			{
				"x": -3.085190206,
				"y": -0.2554017483,
				"z": 1.013440937,
				"element": "C" 
			},
			{
				"x": -2.7134998742,
				"y": 0.3050497481,
				"z": -0.3646716858,
				"element": "C" 
			},
			{
				"x": -1.4018465756,
				"y": 1.1070335483,
				"z": -0.3960738647,
				"element": "C" 
			},
			{
				"x": -0.1414252515,
				"y": 0.2629360028,
				"z": -0.1127308577,
				"element": "C" 
			},
			{
				"x": 1.1558715408,
				"y": 1.035292061,
				"z": -0.2361253421,
				"element": "C" 
			},
			{
				"x": 1.4127153497,
				"y": 2.1047012966,
				"z": 0.7985099554,
				"element": "C" 
			},
			{
				"x": 2.0329905534,
				"y": 0.7780952677,
				"z": -1.2123389229,
				"element": "C" 
			},
			{
				"x": -4.0525113583,
				"y": -0.7675931481,
				"z": 0.9818313623,
				"element": "H" 
			},
			{
				"x": -3.1585831834,
				"y": 0.5458814728,
				"z": 1.7582509158,
				"element": "H" 
			},
			{
				"x": -2.3458713648,
				"y": -0.976976405,
				"z": 1.3760039207,
				"element": "H" 
			},
			{
				"x": -2.6503453773,
				"y": -0.5181760297,
				"z": -1.0896224427,
				"element": "H" 
			},
			{
				"x": -3.5259834411,
				"y": 0.9543587581,
				"z": -0.7151641425,
				"element": "H" 
			},
			{
				"x": -1.2900843263,
				"y": 1.5731078373,
				"z": -1.3832074044,
				"element": "H" 
			},
			{
				"x": -1.4698247834,
				"y": 1.9304776047,
				"z": 0.3273646534,
				"element": "H" 
			},
			{
				"x": -0.12338668,
				"y": -0.5873763211,
				"z": -0.8055928626,
				"element": "H" 
			},
			{
				"x": -0.2095784481,
				"y": -0.1589406003,
				"z": 0.8999685748,
				"element": "H" 
			},
			{
				"x": 1.3866297553,
				"y": 1.6833191673,
				"z": 1.8120816717,
				"element": "H" 
			},
			{
				"x": 2.3860738406,
				"y": 2.5805319199,
				"z": 0.6523679543,
				"element": "H" 
			},
			{
				"x": 0.6466874128,
				"y": 2.8891652172,
				"z": 0.7680854761,
				"element": "H" 
			},
			{
				"x": 2.9636149195,
				"y": 1.3316572605,
				"z": -1.3055407116,
				"element": "H" 
			},
			{
				"x": 1.8514474978,
				"y": 0.0032570902,
				"z": -1.9525371844,
				"element": "H" 
			}
		],
		 "valence_orbital": [ 
			{
				"type": "occ",
				"energy": -0.34345,
				"method": "rhf"
			},
			{
				"type": "occ",
				"energy": -0.32392,
				"method": "rhf"
			},
			{
				"type": "occ",
				"energy": -0.32015,
				"method": "rhf"
			},
			{
				"type": "occ",
				"energy": -0.31381,
				"method": "rhf"
			},
			{
				"type": "occ",
				"energy": -0.23769,
				"method": "rhf"
			},
			{
				"type": "unocc",
				"energy": 0.03002,
				"method": "rhf"
			},
			{
				"type": "unocc",
				"energy": 0.08886,
				"method": "rhf"
			},
			{
				"type": "unocc",
				"energy": 0.11128,
				"method": "rhf"
			},
			{
				"type": "unocc",
				"energy": 0.12331,
				"method": "rhf"
			},
			{
				"type": "unocc",
				"energy": 0.12823,
				"method": "rhf"
			}
		],
		"cosmo_sigma_profile": { 
			"-0.025": 0.0,
			"-0.024": 0.0,
			"-0.023": 0.0,
			"-0.022": 0.0,
			"-0.021": 0.0,
			"-0.02": 0.0,
			"-0.019": 0.0,
			"-0.018": 0.0,
			"-0.017": 0.0,
			"-0.016": 0.0,
			"-0.015": 0.0,
			"-0.014": 0.0,
			"-0.013": 0.0,
			"-0.012": 0.0,
			"-0.011": 0.0,
			"-0.01": 0.0,
			"-0.009": 0.0,
			"-0.008": 0.0,
			"-0.007": 0.0,
			"-0.006": 0.0,
			"-0.005": 0.0,
			"-0.004": 3.4054345892,
			"-0.003": 15.4499259665,
			"-0.002": 29.3711091228,
			"-0.001": 30.7651175252,
			"0.0": 35.8664975512,
			"0.001": 29.1378150441,
			"0.002": 12.6509178466,
			"0.003": 4.73904500236,
			"0.004": 4.32431701689,
			"0.005": 3.91391244208,
			"0.006": 2.66109205284,
			"0.007": 2.96722857715,
			"0.008": 0.948765752008,
			"0.009": 0.0,
			"0.01": 0.0,
			"0.011": 0.0,
			"0.012": 0.0,
			"0.013": 0.0,
			"0.014": 0.0,
			"0.015": 0.0,
			"0.016": 0.0,
			"0.017": 0.0,
			"0.018": 0.0,
			"0.019": 0.0,
			"0.02": 0.0,
			"0.021": 0.0,
			"0.022": 0.0,
			"0.023": 0.0,
			"0.024": 0.0,
			"0.025": 0.0
		}
	}
}
