{
	 "smiles": "NC1=C(C=C(Cl)C=C1Br)C(O)=O", 
	 "Tm": 506.15, 
	 "num_atms": 17, 
	 "gaussian": { 
		 "optdone": 1, 
		 "sigma_profile": "yes", 
		 "theory": "DFT", 
		 "functional": "B3LYP", 
		 "basiset": "6-31G**", 
		 "properties": { 
			 "R2extent": 4411.8596, 
			 "electric_dipole_moment_norm": 1.59604635271, 
			 "electric_quadrupole_moment_norm": 7.27368385345, 
			 "total_energy": -3506.58322692, 
			 "HOMO_LUMO_gap": 0.15436, 
			 "cosmo_polarized_energy": -8.56, 
			 "cosmo_cavitation_energy": 25.49, 
			 "cosmo_dispersion_energy": -19.9, 
			 "cosmo_repulsion_energy": 1.58, 
			 "cosmo_total_nonelectrostatic_energy": 7.18, 
			 "SMD_solvation_energy": 3.98 
		},
		"coords": [
			{
				"x": -0.0615295801,
				"y": 2.883471778,
				"z": 0.9126509712,
				"element": "N" 
			},
			{
				"x": 0.35601969,
				"y": 1.7376645443,
				"z": 0.3297595992,
				"element": "C" 
			},
			{
				"x": -0.5570121461,
				"y": 0.8008255445,
				"z": -0.2482019114,
				"element": "C" 
			},
			{
				"x": -0.0889569985,
				"y": -0.3825549245,
				"z": -0.8465828565,
				"element": "C" 
			},
			{
				"x": 1.2641801617,
				"y": -0.6620216883,
				"z": -0.88711101,
				"element": "C" 
			},
			{
				"x": 1.8448856887,
				"y": -2.1414314408,
				"z": -1.6354107282,
				"element": "Cl" 
			},
			{
				"x": 2.1864757137,
				"y": 0.2327927228,
				"z": -0.3312733745,
				"element": "C" 
			},
			{
				"x": 1.7341127758,
				"y": 1.3979876943,
				"z": 0.2586251697,
				"element": "C" 
			},
			{
				"x": 3.0239586912,
				"y": 2.5983465377,
				"z": 1.0083518749,
				"element": "Br" 
			},
			{
				"x": -2.0029707594,
				"y": 1.0775939015,
				"z": -0.2170199406,
				"element": "C" 
			},
			{
				"x": -2.7538832026,
				"y": 0.1120459528,
				"z": -0.7971332038,
				"element": "O" 
			},
			{
				"x": -2.5337158646,
				"y": 2.0692822848,
				"z": 0.2728526501,
				"element": "O" 
			},
			{
				"x": 0.6140883801,
				"y": 3.5170132391,
				"z": 1.306611136,
				"element": "H" 
			},
			{
				"x": -1.055504054,
				"y": 3.0727290727,
				"z": 0.9326996335,
				"element": "H" 
			},
			{
				"x": -0.8039440109,
				"y": -1.0723218132,
				"z": -1.2755020487,
				"element": "H" 
			},
			{
				"x": 3.2472596859,
				"y": 0.0158759943,
				"z": -0.3620233439,
				"element": "H" 
			},
			{
				"x": -3.674564171,
				"y": 0.4089006,
				"z": -0.7124926171,
				"element": "H" 
			}
		],
		 "valence_orbital": [ 
			{
				"type": "occ",
				"energy": -0.3062,
				"method": "rhf"
			},
			{
				"type": "occ",
				"energy": -0.30473,
				"method": "rhf"
			},
			{
				"type": "occ",
				"energy": -0.29169,
				"method": "rhf"
			},
			{
				"type": "occ",
				"energy": -0.2658,
				"method": "rhf"
			},
			{
				"type": "occ",
				"energy": -0.21587,
				"method": "rhf"
			},
			{
				"type": "unocc",
				"energy": -0.06151,
				"method": "rhf"
			},
			{
				"type": "unocc",
				"energy": -0.0132,
				"method": "rhf"
			},
			{
				"type": "unocc",
				"energy": -0.00847,
				"method": "rhf"
			},
			{
				"type": "unocc",
				"energy": 0.03948,
				"method": "rhf"
			},
			{
				"type": "unocc",
				"energy": 0.03995,
				"method": "rhf"
			}
		],
		"cosmo_sigma_profile": { 
			"-0.025": 0.0,
			"-0.024": 0.0,
			"-0.023": 0.0,
			"-0.022": 0.0,
			"-0.021": 0.0,
			"-0.02": 0.0,
			"-0.019": 0.169258603548,
			"-0.018": 0.796784762045,
			"-0.017": 1.07860516294,
			"-0.016": 0.558731657602,
			"-0.015": 0.76533407878,
			"-0.014": 0.450937782527,
			"-0.013": 1.1163557616,
			"-0.012": 1.47758957031,
			"-0.011": 1.63592000473,
			"-0.01": 1.77031206113,
			"-0.009": 2.58650059086,
			"-0.008": 3.91445837749,
			"-0.007": 4.37832987963,
			"-0.006": 4.73318449141,
			"-0.005": 5.46464176288,
			"-0.004": 7.6010275184,
			"-0.003": 9.02774797804,
			"-0.002": 12.1320971905,
			"-0.001": 15.9662759429,
			"0.0": 22.2994527273,
			"0.001": 30.4884888292,
			"0.002": 23.4140841461,
			"0.003": 15.8496010756,
			"0.004": 19.5632314427,
			"0.005": 9.29943456429,
			"0.006": 3.65305922243,
			"0.007": 2.07980759457,
			"0.008": 1.75790680772,
			"0.009": 1.62093014944,
			"0.01": 1.56662926908,
			"0.011": 2.20677383583,
			"0.012": 0.773387846349,
			"0.013": 0.0,
			"0.014": 0.0,
			"0.015": 0.0,
			"0.016": 0.0,
			"0.017": 0.0,
			"0.018": 0.0,
			"0.019": 0.0,
			"0.02": 0.0,
			"0.021": 0.0,
			"0.022": 0.0,
			"0.023": 0.0,
			"0.024": 0.0,
			"0.025": 0.0
		}
	}
}
