{
	 "smiles": "COC1=C(OC)C=C(CCN2C(S)=NC3=C(C=CC=C3)C2=O)C=C1", 
	 "Tm": 497.15, 
	 "num_atms": 42, 
	 "gaussian": { 
		 "optdone": 1, 
		 "sigma_profile": "yes", 
		 "theory": "DFT", 
		 "functional": "B3LYP", 
		 "basiset": "6-31G**", 
		 "properties": { 
			 "R2extent": 10115.9662, 
			 "electric_dipole_moment_norm": 2.77165643073, 
			 "electric_quadrupole_moment_norm": 19.787289913, 
			 "total_energy": -1430.123966, 
			 "HOMO_LUMO_gap": 0.16785, 
			 "cosmo_polarized_energy": -16.08, 
			 "cosmo_cavitation_energy": 46.72, 
			 "cosmo_dispersion_energy": -31.82, 
			 "cosmo_repulsion_energy": 2.39, 
			 "cosmo_total_nonelectrostatic_energy": 17.28, 
			 "SMD_solvation_energy": 7.8 
		},
		"coords": [
			{
				"x": 1.5529420937,
				"y": -0.5882085118,
				"z": 4.3865187434,
				"element": "C" 
			},
			{
				"x": 1.5128846597,
				"y": -1.6007980029,
				"z": 3.3790130088,
				"element": "O" 
			},
			{
				"x": 0.6247043463,
				"y": -1.3912007169,
				"z": 2.3524053859,
				"element": "C" 
			},
			{
				"x": -0.7734860921,
				"y": -1.4532462871,
				"z": 2.5558603492,
				"element": "C" 
			},
			{
				"x": -1.1822335315,
				"y": -1.6901904275,
				"z": 3.838329033,
				"element": "O" 
			},
			{
				"x": -2.5737337429,
				"y": -1.7977925624,
				"z": 4.0897254644,
				"element": "C" 
			},
			{
				"x": -1.6325447352,
				"y": -1.2919212899,
				"z": 1.4672674781,
				"element": "C" 
			},
			{
				"x": -1.1333588725,
				"y": -1.080729491,
				"z": 0.1708234956,
				"element": "C" 
			},
			{
				"x": -2.0863425146,
				"y": -0.8834083466,
				"z": -0.9868523323,
				"element": "C" 
			},
			{
				"x": -2.5470974428,
				"y": 0.5724323327,
				"z": -1.2153274991,
				"element": "C" 
			},
			{
				"x": -1.4582074031,
				"y": 1.4865028173,
				"z": -1.6109311531,
				"element": "N" 
			},
			{
				"x": -0.8960566763,
				"y": 2.4291561798,
				"z": -0.7691150655,
				"element": "C" 
			},
			{
				"x": -1.5604661566,
				"y": 2.5499129577,
				"z": 0.8900386535,
				"element": "S" 
			},
			{
				"x": 0.0558534177,
				"y": 3.2438580115,
				"z": -1.0906735403,
				"element": "N" 
			},
			{
				"x": 0.5612886216,
				"y": 3.1835677624,
				"z": -2.3766246776,
				"element": "C" 
			},
			{
				"x": 0.0545164398,
				"y": 2.2806806641,
				"z": -3.3355474833,
				"element": "C" 
			},
			{
				"x": 0.5819763061,
				"y": 2.2500632337,
				"z": -4.6374261392,
				"element": "C" 
			},
			{
				"x": 1.6109527213,
				"y": 3.1107988645,
				"z": -4.9843681952,
				"element": "C" 
			},
			{
				"x": 2.1220049975,
				"y": 4.0122224067,
				"z": -4.0310566697,
				"element": "C" 
			},
			{
				"x": 1.6081069386,
				"y": 4.0529979801,
				"z": -2.7446600775,
				"element": "C" 
			},
			{
				"x": -1.0288589163,
				"y": 1.3747047958,
				"z": -2.9599238448,
				"element": "C" 
			},
			{
				"x": -1.5613150869,
				"y": 0.560029862,
				"z": -3.7057111544,
				"element": "O" 
			},
			{
				"x": 0.2490898485,
				"y": -1.0452032171,
				"z": -0.0202556775,
				"element": "C" 
			},
			{
				"x": 1.1152377656,
				"y": -1.1915876034,
				"z": 1.066759839,
				"element": "C" 
			},
			{
				"x": 2.3370169053,
				"y": -0.886656665,
				"z": 5.0857995199,
				"element": "H" 
			},
			{
				"x": 1.8099462333,
				"y": 0.3867927761,
				"z": 3.9518350106,
				"element": "H" 
			},
			{
				"x": 0.5999620708,
				"y": -0.5106740235,
				"z": 4.9181116604,
				"element": "H" 
			},
			{
				"x": -3.1041440956,
				"y": -0.8672745188,
				"z": 3.8485035822,
				"element": "H" 
			},
			{
				"x": -3.0235691421,
				"y": -2.6232991162,
				"z": 3.5233978623,
				"element": "H" 
			},
			{
				"x": -2.6718751839,
				"y": -2.0003868946,
				"z": 5.1573706452,
				"element": "H" 
			},
			{
				"x": -2.7063077545,
				"y": -1.3414224263,
				"z": 1.6139607175,
				"element": "H" 
			},
			{
				"x": -2.9971833965,
				"y": -1.4736274607,
				"z": -0.8275412596,
				"element": "H" 
			},
			{
				"x": -1.639964338,
				"y": -1.2399120817,
				"z": -1.918504315,
				"element": "H" 
			},
			{
				"x": -3.2735521917,
				"y": 0.5871361525,
				"z": -2.0306019213,
				"element": "H" 
			},
			{
				"x": -3.0263295383,
				"y": 0.976277429,
				"z": -0.3219615114,
				"element": "H" 
			},
			{
				"x": -0.7916027768,
				"y": 3.619528703,
				"z": 1.1628141749,
				"element": "H" 
			},
			{
				"x": 0.1635818535,
				"y": 1.5426083737,
				"z": -5.3455620536,
				"element": "H" 
			},
			{
				"x": 2.023906923,
				"y": 3.0917541677,
				"z": -5.988168661,
				"element": "H" 
			},
			{
				"x": 2.9289992708,
				"y": 4.6849905573,
				"z": -4.3076152994,
				"element": "H" 
			},
			{
				"x": 1.9892223931,
				"y": 4.742654947,
				"z": -1.9989269481,
				"element": "H" 
			},
			{
				"x": 0.6559387772,
				"y": -0.9044527226,
				"z": -1.0174594037,
				"element": "H" 
			},
			{
				"x": 2.1922970051,
				"y": -1.1682786086,
				"z": 0.9342802587,
				"element": "H" 
			}
		],
		 "valence_orbital": [ 
			{
				"type": "occ",
				"energy": -0.26618,
				"method": "rhf"
			},
			{
				"type": "occ",
				"energy": -0.26002,
				"method": "rhf"
			},
			{
				"type": "occ",
				"energy": -0.2359,
				"method": "rhf"
			},
			{
				"type": "occ",
				"energy": -0.22269,
				"method": "rhf"
			},
			{
				"type": "occ",
				"energy": -0.21093,
				"method": "rhf"
			},
			{
				"type": "unocc",
				"energy": -0.04308,
				"method": "rhf"
			},
			{
				"type": "unocc",
				"energy": -0.03336,
				"method": "rhf"
			},
			{
				"type": "unocc",
				"energy": 0.00085,
				"method": "rhf"
			},
			{
				"type": "unocc",
				"energy": 0.0048,
				"method": "rhf"
			},
			{
				"type": "unocc",
				"energy": 0.01376,
				"method": "rhf"
			}
		],
		"cosmo_sigma_profile": { 
			"-0.025": 0.0,
			"-0.024": 0.0,
			"-0.023": 0.0,
			"-0.022": 0.0,
			"-0.021": 0.0,
			"-0.02": 0.0,
			"-0.019": 0.0,
			"-0.018": 0.0,
			"-0.017": 0.0,
			"-0.016": 0.0,
			"-0.015": 0.0,
			"-0.014": 0.0,
			"-0.013": 0.0,
			"-0.012": 0.482132830435,
			"-0.011": 1.38079591527,
			"-0.01": 1.15264309786,
			"-0.009": 1.11537911837,
			"-0.008": 0.883463898261,
			"-0.007": 3.36955974997,
			"-0.006": 18.5556759406,
			"-0.005": 35.9495711315,
			"-0.004": 38.7729204679,
			"-0.003": 38.911463519,
			"-0.002": 28.8944247619,
			"-0.001": 23.2315523238,
			"0.0": 20.1266873625,
			"0.001": 23.2851904489,
			"0.002": 26.7372670779,
			"0.003": 29.4139918326,
			"0.004": 22.0968652654,
			"0.005": 14.899012686,
			"0.006": 11.0937907779,
			"0.007": 7.38393577699,
			"0.008": 4.43157609473,
			"0.009": 4.66869909919,
			"0.01": 4.68402764188,
			"0.011": 5.76350959467,
			"0.012": 5.08424579852,
			"0.013": 1.95435445709,
			"0.014": 0.0,
			"0.015": 0.0,
			"0.016": 0.0,
			"0.017": 0.0,
			"0.018": 0.0,
			"0.019": 0.0,
			"0.02": 0.0,
			"0.021": 0.0,
			"0.022": 0.0,
			"0.023": 0.0,
			"0.024": 0.0,
			"0.025": 0.0
		}
	}
}
