{
	 "smiles": "CC1(NC(=O)N(CC(O)=O)C1=O)C1=CC=C(Br)C=C1", 
	 "Tm": 521.15, 
	 "num_atms": 30, 
	 "gaussian": { 
		 "optdone": 1, 
		 "sigma_profile": "yes", 
		 "theory": "DFT", 
		 "functional": "B3LYP", 
		 "basiset": "6-31G**", 
		 "properties": { 
			 "R2extent": 9477.3541, 
			 "electric_dipole_moment_norm": 3.40458698523, 
			 "electric_quadrupole_moment_norm": 18.2219177602, 
			 "total_energy": -3445.76608705, 
			 "HOMO_LUMO_gap": 0.21348, 
			 "cosmo_polarized_energy": -20.78, 
			 "cosmo_cavitation_energy": 37.56, 
			 "cosmo_dispersion_energy": -26.17, 
			 "cosmo_repulsion_energy": 2.03, 
			 "cosmo_total_nonelectrostatic_energy": 13.42, 
			 "SMD_solvation_energy": 7.87 
		},
		"coords": [
			{
				"x": 0.9815341343,
				"y": -0.1226221558,
				"z": -2.2927466584,
				"element": "C" 
			},
			{
				"x": 0.5240706348,
				"y": 0.5481241048,
				"z": -0.9796996805,
				"element": "C" 
			},
			{
				"x": 0.1773854212,
				"y": 1.952779667,
				"z": -1.1943360924,
				"element": "N" 
			},
			{
				"x": -1.1696094984,
				"y": 2.2031415411,
				"z": -1.1054618201,
				"element": "C" 
			},
			{
				"x": -1.7683864186,
				"y": 3.2297361799,
				"z": -1.3495817718,
				"element": "O" 
			},
			{
				"x": -1.7597789756,
				"y": 1.0042344277,
				"z": -0.642957764,
				"element": "N" 
			},
			{
				"x": -3.1850798739,
				"y": 0.8510556256,
				"z": -0.4763358554,
				"element": "C" 
			},
			{
				"x": -3.9189169755,
				"y": 0.2614373637,
				"z": -1.6765402083,
				"element": "C" 
			},
			{
				"x": -3.1414089588,
				"y": 0.1527510826,
				"z": -2.7745462347,
				"element": "O" 
			},
			{
				"x": -5.0839002449,
				"y": -0.0554112252,
				"z": -1.6425719439,
				"element": "O" 
			},
			{
				"x": -0.855692247,
				"y": -0.0339768323,
				"z": -0.579424402,
				"element": "C" 
			},
			{
				"x": -1.1067494298,
				"y": -1.1858338989,
				"z": -0.2897511527,
				"element": "O" 
			},
			{
				"x": 1.5471728451,
				"y": 0.3485799732,
				"z": 0.1432150965,
				"element": "C" 
			},
			{
				"x": 2.1856528085,
				"y": 1.4341783448,
				"z": 0.7507326976,
				"element": "C" 
			},
			{
				"x": 3.1403384124,
				"y": 1.2390783775,
				"z": 1.7505559942,
				"element": "C" 
			},
			{
				"x": 3.4502951282,
				"y": -0.0573044064,
				"z": 2.151335115,
				"element": "C" 
			},
			{
				"x": 4.7569403911,
				"y": -0.3357222388,
				"z": 3.5172628599,
				"element": "Br" 
			},
			{
				"x": 2.8153366515,
				"y": -1.1557088118,
				"z": 1.5730169099,
				"element": "C" 
			},
			{
				"x": 1.8693946502,
				"y": -0.9479966398,
				"z": 0.5712658588,
				"element": "C" 
			},
			{
				"x": 0.2270036198,
				"y": 0.0169242424,
				"z": -3.0724967508,
				"element": "H" 
			},
			{
				"x": 1.1311274756,
				"y": -1.1933336396,
				"z": -2.141831022,
				"element": "H" 
			},
			{
				"x": 1.9275229207,
				"y": 0.3150508382,
				"z": -2.6260925661,
				"element": "H" 
			},
			{
				"x": 0.7460582499,
				"y": 2.5782257722,
				"z": -1.7459108076,
				"element": "H" 
			},
			{
				"x": -3.3893238313,
				"y": 0.2058366994,
				"z": 0.3808137562,
				"element": "H" 
			},
			{
				"x": -3.6094392857,
				"y": 1.8400103052,
				"z": -0.2836124759,
				"element": "H" 
			},
			{
				"x": -3.7082667338,
				"y": -0.2198385848,
				"z": -3.4710168052,
				"element": "H" 
			},
			{
				"x": 1.9310236862,
				"y": 2.4458063927,
				"z": 0.4545563737,
				"element": "H" 
			},
			{
				"x": 3.6321237278,
				"y": 2.0871235115,
				"z": 2.2132549762,
				"element": "H" 
			},
			{
				"x": 3.0536697663,
				"y": -2.1603590579,
				"z": 1.9030170283,
				"element": "H" 
			},
			{
				"x": 1.3549019498,
				"y": -1.8013669583,
				"z": 0.1436873455,
				"element": "H" 
			}
		],
		 "valence_orbital": [ 
			{
				"type": "occ",
				"energy": -0.28535,
				"method": "rhf"
			},
			{
				"type": "occ",
				"energy": -0.27767,
				"method": "rhf"
			},
			{
				"type": "occ",
				"energy": -0.27282,
				"method": "rhf"
			},
			{
				"type": "occ",
				"energy": -0.2699,
				"method": "rhf"
			},
			{
				"type": "occ",
				"energy": -0.24641,
				"method": "rhf"
			},
			{
				"type": "unocc",
				"energy": -0.03293,
				"method": "rhf"
			},
			{
				"type": "unocc",
				"energy": -0.02194,
				"method": "rhf"
			},
			{
				"type": "unocc",
				"energy": -0.01094,
				"method": "rhf"
			},
			{
				"type": "unocc",
				"energy": -0.00297,
				"method": "rhf"
			},
			{
				"type": "unocc",
				"energy": 0.00331,
				"method": "rhf"
			}
		],
		"cosmo_sigma_profile": { 
			"-0.025": 0.0,
			"-0.024": 0.0,
			"-0.023": 0.0,
			"-0.022": 0.0,
			"-0.021": 0.0,
			"-0.02": 0.0,
			"-0.019": 0.552657694229,
			"-0.018": 1.06710319766,
			"-0.017": 0.838260362239,
			"-0.016": 0.856178721126,
			"-0.015": 2.27929585264,
			"-0.014": 1.55340866424,
			"-0.013": 2.40903144549,
			"-0.012": 2.24794195977,
			"-0.011": 1.76024400822,
			"-0.01": 1.49136032377,
			"-0.009": 3.33168459765,
			"-0.008": 5.6252719122,
			"-0.007": 10.2523760093,
			"-0.006": 13.4968955874,
			"-0.005": 18.5965915038,
			"-0.004": 19.4230843012,
			"-0.003": 19.689811207,
			"-0.002": 17.2368403803,
			"-0.001": 20.3048561053,
			"0.0": 16.2596769872,
			"0.001": 18.6963320119,
			"0.002": 20.7670179725,
			"0.003": 27.6477462545,
			"0.004": 20.577167736,
			"0.005": 10.2437880428,
			"0.006": 4.5080674931,
			"0.007": 3.9274673648,
			"0.008": 3.56565674754,
			"0.009": 4.96780115925,
			"0.01": 6.93083747458,
			"0.011": 11.0461765625,
			"0.012": 8.53033451318,
			"0.013": 1.60227861863,
			"0.014": 0.00893593902756,
			"0.015": 0.0,
			"0.016": 0.0,
			"0.017": 0.0,
			"0.018": 0.0,
			"0.019": 0.0,
			"0.02": 0.0,
			"0.021": 0.0,
			"0.022": 0.0,
			"0.023": 0.0,
			"0.024": 0.0,
			"0.025": 0.0
		}
	}
}
