{
	 "smiles": "FC1=CC(=CC=C1)C(=O)C1=CC(F)=CC=C1", 
	 "Tm": 332.15, 
	 "num_atms": 24, 
	 "gaussian": { 
		 "optdone": 1, 
		 "sigma_profile": "yes", 
		 "theory": "DFT", 
		 "functional": "B3LYP", 
		 "basiset": "6-31G**", 
		 "properties": { 
			 "R2extent": 4359.923, 
			 "electric_dipole_moment_norm": 2.7337251398, 
			 "electric_quadrupole_moment_norm": 11.2739687276, 
			 "total_energy": -775.096800105, 
			 "HOMO_LUMO_gap": 0.17673, 
			 "cosmo_polarized_energy": -8.4, 
			 "cosmo_cavitation_energy": 30.04, 
			 "cosmo_dispersion_energy": -21.38, 
			 "cosmo_repulsion_energy": 1.6, 
			 "cosmo_total_nonelectrostatic_energy": 10.26, 
			 "SMD_solvation_energy": 6.56 
		},
		"coords": [
			{
				"x": 1.4846996353,
				"y": 3.0568976956,
				"z": -2.4109543549,
				"element": "F" 
			},
			{
				"x": 0.3120040582,
				"y": 2.6470274571,
				"z": -1.8844767729,
				"element": "C" 
			},
			{
				"x": 0.3321222954,
				"y": 1.7055842961,
				"z": -0.8626690497,
				"element": "C" 
			},
			{
				"x": -0.8846904025,
				"y": 1.2874971113,
				"z": -0.3035517506,
				"element": "C" 
			},
			{
				"x": -2.0884419251,
				"y": 1.8340545966,
				"z": -0.7766006388,
				"element": "C" 
			},
			{
				"x": -2.0792819486,
				"y": 2.7623078886,
				"z": -1.8143011271,
				"element": "C" 
			},
			{
				"x": -0.8718862377,
				"y": 3.1803102449,
				"z": -2.3802980596,
				"element": "C" 
			},
			{
				"x": -0.9581430847,
				"y": 0.3327809104,
				"z": 0.8539193493,
				"element": "C" 
			},
			{
				"x": -1.8929816209,
				"y": 0.40798283,
				"z": 1.641910393,
				"element": "O" 
			},
			{
				"x": 0.1025116747,
				"y": -0.7119552432,
				"z": 1.0547645952,
				"element": "C" 
			},
			{
				"x": 0.2991371767,
				"y": -1.1799877938,
				"z": 2.3629956773,
				"element": "C" 
			},
			{
				"x": 1.2326240596,
				"y": -2.1789273331,
				"z": 2.5862198996,
				"element": "C" 
			},
			{
				"x": 1.4368353986,
				"y": -2.6160360865,
				"z": 3.8450555941,
				"element": "F" 
			},
			{
				"x": 1.9658498971,
				"y": -2.7541842212,
				"z": 1.5507084776,
				"element": "C" 
			},
			{
				"x": 1.7468471659,
				"y": -2.30390031,
				"z": 0.2493128756,
				"element": "C" 
			},
			{
				"x": 0.8263460864,
				"y": -1.2846223637,
				"z": -0.0028152467,
				"element": "C" 
			},
			{
				"x": 1.2847449666,
				"y": 1.3352339667,
				"z": -0.5031209159,
				"element": "H" 
			},
			{
				"x": -3.0166335266,
				"y": 1.5191047777,
				"z": -0.3133197232,
				"element": "H" 
			},
			{
				"x": -3.0138956652,
				"y": 3.1717511528,
				"z": -2.1852588106,
				"element": "H" 
			},
			{
				"x": -0.8358882991,
				"y": 3.9079404869,
				"z": -3.1838791601,
				"element": "H" 
			},
			{
				"x": -0.2776579263,
				"y": -0.7660008896,
				"z": 3.181783038,
				"element": "H" 
			},
			{
				"x": 2.6818549165,
				"y": -3.537885551,
				"z": 1.7735744461,
				"element": "H" 
			},
			{
				"x": 2.2960785547,
				"y": -2.7522738257,
				"z": -0.5728439572,
				"element": "H" 
			},
			{
				"x": 0.652944751,
				"y": -0.956599797,
				"z": -1.0212547785,
				"element": "H" 
			}
		],
		 "valence_orbital": [ 
			{
				"type": "occ",
				"energy": -0.27469,
				"method": "rhf"
			},
			{
				"type": "occ",
				"energy": -0.27299,
				"method": "rhf"
			},
			{
				"type": "occ",
				"energy": -0.26154,
				"method": "rhf"
			},
			{
				"type": "occ",
				"energy": -0.25729,
				"method": "rhf"
			},
			{
				"type": "occ",
				"energy": -0.25175,
				"method": "rhf"
			},
			{
				"type": "unocc",
				"energy": -0.07502,
				"method": "rhf"
			},
			{
				"type": "unocc",
				"energy": -0.02639,
				"method": "rhf"
			},
			{
				"type": "unocc",
				"energy": -0.0162,
				"method": "rhf"
			},
			{
				"type": "unocc",
				"energy": -0.00791,
				"method": "rhf"
			},
			{
				"type": "unocc",
				"energy": 0.04879,
				"method": "rhf"
			}
		],
		"cosmo_sigma_profile": { 
			"-0.025": 0.0,
			"-0.024": 0.0,
			"-0.023": 0.0,
			"-0.022": 0.0,
			"-0.021": 0.0,
			"-0.02": 0.0,
			"-0.019": 0.0,
			"-0.018": 0.0,
			"-0.017": 0.0,
			"-0.016": 0.0,
			"-0.015": 0.0,
			"-0.014": 0.0,
			"-0.013": 0.0,
			"-0.012": 0.0,
			"-0.011": 0.0,
			"-0.01": 0.0,
			"-0.009": 0.00859748753665,
			"-0.008": 2.73614913349,
			"-0.007": 9.91065276971,
			"-0.006": 13.8108934696,
			"-0.005": 16.9428132629,
			"-0.004": 15.3783159997,
			"-0.003": 13.3605167091,
			"-0.002": 14.0954647789,
			"-0.001": 16.6489178487,
			"0.0": 24.9433983883,
			"0.001": 23.4356780189,
			"0.002": 26.411201013,
			"0.003": 21.9343990795,
			"0.004": 22.3160130971,
			"0.005": 5.27539290585,
			"0.006": 1.41239398555,
			"0.007": 1.84783476257,
			"0.008": 2.15148680433,
			"0.009": 1.14172792603,
			"0.01": 2.87073066442,
			"0.011": 3.40689265021,
			"0.012": 2.61307542937,
			"0.013": 0.0339818693537,
			"0.014": 0.0,
			"0.015": 0.0,
			"0.016": 0.0,
			"0.017": 0.0,
			"0.018": 0.0,
			"0.019": 0.0,
			"0.02": 0.0,
			"0.021": 0.0,
			"0.022": 0.0,
			"0.023": 0.0,
			"0.024": 0.0,
			"0.025": 0.0
		}
	}
}
