{
	 "smiles": "OC1=NC=C(F)C(O)=N1", 
	 "Tm": 555.15, 
	 "num_atms": 12, 
	 "gaussian": { 
		 "optdone": 1, 
		 "sigma_profile": "yes", 
		 "theory": "DFT", 
		 "functional": "B3LYP", 
		 "basiset": "6-31G**", 
		 "properties": { 
			 "R2extent": 1175.1947, 
			 "electric_dipole_moment_norm": 2.34733726592, 
			 "electric_quadrupole_moment_norm": 4.26643636423, 
			 "total_energy": -514.012770405, 
			 "HOMO_LUMO_gap": 0.20896, 
			 "cosmo_polarized_energy": -13.12, 
			 "cosmo_cavitation_energy": 17.51, 
			 "cosmo_dispersion_energy": -13.44, 
			 "cosmo_repulsion_energy": 1.09, 
			 "cosmo_total_nonelectrostatic_energy": 5.15, 
			 "SMD_solvation_energy": 1.6 
		},
		"coords": [
			{
				"x": -0.1580744181,
				"y": 0.9861305826,
				"z": 3.0482263034,
				"element": "O" 
			},
			{
				"x": -0.1114744727,
				"y": 0.4286194572,
				"z": 1.8280135124,
				"element": "C" 
			},
			{
				"x": 0.9915732892,
				"y": 0.6762691325,
				"z": 1.1218381359,
				"element": "N" 
			},
			{
				"x": 1.0269730101,
				"y": 0.1147201931,
				"z": -0.0947831685,
				"element": "C" 
			},
			{
				"x": -0.011034731,
				"y": -0.6604128247,
				"z": -0.566784945,
				"element": "C" 
			},
			{
				"x": -0.0036671818,
				"y": -1.241754639,
				"z": -1.7938322763,
				"element": "F" 
			},
			{
				"x": -1.1252292128,
				"y": -0.8555710554,
				"z": 0.2616615701,
				"element": "C" 
			},
			{
				"x": -2.1737478645,
				"y": -1.5975738906,
				"z": -0.1293336954,
				"element": "O" 
			},
			{
				"x": -1.1738181247,
				"y": -0.3069220724,
				"z": 1.4658791058,
				"element": "N" 
			},
			{
				"x": -1.0052927331,
				"y": 0.7236729266,
				"z": 3.4390675153,
				"element": "H" 
			},
			{
				"x": 1.9074765469,
				"y": 0.2880097027,
				"z": -0.7095692786,
				"element": "H" 
			},
			{
				"x": -1.9929841077,
				"y": -1.9278875125,
				"z": -1.0227827793,
				"element": "H" 
			}
		],
		 "valence_orbital": [ 
			{
				"type": "occ",
				"energy": -0.35181,
				"method": "rhf"
			},
			{
				"type": "occ",
				"energy": -0.33963,
				"method": "rhf"
			},
			{
				"type": "occ",
				"energy": -0.30501,
				"method": "rhf"
			},
			{
				"type": "occ",
				"energy": -0.26851,
				"method": "rhf"
			},
			{
				"type": "occ",
				"energy": -0.24997,
				"method": "rhf"
			},
			{
				"type": "unocc",
				"energy": -0.04101,
				"method": "rhf"
			},
			{
				"type": "unocc",
				"energy": -0.00675,
				"method": "rhf"
			},
			{
				"type": "unocc",
				"energy": 0.05311,
				"method": "rhf"
			},
			{
				"type": "unocc",
				"energy": 0.08408,
				"method": "rhf"
			},
			{
				"type": "unocc",
				"energy": 0.10623,
				"method": "rhf"
			}
		],
		"cosmo_sigma_profile": { 
			"-0.025": 0.0,
			"-0.024": 0.0,
			"-0.023": 0.0,
			"-0.022": 0.0,
			"-0.021": 0.0,
			"-0.02": 0.0,
			"-0.019": 0.0273789078812,
			"-0.018": 1.2474702285,
			"-0.017": 1.86827725524,
			"-0.016": 1.39335344832,
			"-0.015": 1.25578539801,
			"-0.014": 1.56814128951,
			"-0.013": 1.45374196983,
			"-0.012": 2.16889477534,
			"-0.011": 1.60767127134,
			"-0.01": 1.53145602415,
			"-0.009": 3.37509002719,
			"-0.008": 3.79347699045,
			"-0.007": 3.5619254436,
			"-0.006": 3.37959992728,
			"-0.005": 4.0588670965,
			"-0.004": 7.89431116085,
			"-0.003": 9.16158267847,
			"-0.002": 11.437070902,
			"-0.001": 8.35557183445,
			"0.0": 5.94649407738,
			"0.001": 5.95052913408,
			"0.002": 7.76832935752,
			"0.003": 9.48268793241,
			"0.004": 4.31441960787,
			"0.005": 3.32954664795,
			"0.006": 5.17185496705,
			"0.007": 4.02406237564,
			"0.008": 4.58926821593,
			"0.009": 6.25118587977,
			"0.01": 5.19607977018,
			"0.011": 4.31185492381,
			"0.012": 2.23896680299,
			"0.013": 1.23621041218,
			"0.014": 1.03128785357,
			"0.015": 0.93711385138,
			"0.016": 0.0428928483657,
			"0.017": 0.0,
			"0.018": 0.0,
			"0.019": 0.0,
			"0.02": 0.0,
			"0.021": 0.0,
			"0.022": 0.0,
			"0.023": 0.0,
			"0.024": 0.0,
			"0.025": 0.0
		}
	}
}
