{
	 "smiles": "ClCC1=NN=NN1CC1CC1", 
	 "Tm": 304.15, 
	 "num_atms": 20, 
	 "gaussian": { 
		 "optdone": 1, 
		 "sigma_profile": "yes", 
		 "theory": "DFT", 
		 "functional": "B3LYP", 
		 "basiset": "6-31G**", 
		 "properties": { 
			 "R2extent": 2728.4427, 
			 "electric_dipole_moment_norm": 5.45403614583, 
			 "electric_quadrupole_moment_norm": 14.0599303053, 
			 "total_energy": -913.178095505, 
			 "HOMO_LUMO_gap": 0.2432, 
			 "cosmo_polarized_energy": -13.77, 
			 "cosmo_cavitation_energy": 25.33, 
			 "cosmo_dispersion_energy": -18.17, 
			 "cosmo_repulsion_energy": 1.47, 
			 "cosmo_total_nonelectrostatic_energy": 8.63, 
			 "SMD_solvation_energy": 1.43 
		},
		"coords": [
			{
				"x": 2.0852236383,
				"y": -2.5591462829,
				"z": 1.8493157408,
				"element": "Cl" 
			},
			{
				"x": 1.0799212147,
				"y": -2.5217733454,
				"z": 0.3262608806,
				"element": "C" 
			},
			{
				"x": 1.5952499506,
				"y": -1.559696737,
				"z": -0.6800538227,
				"element": "C" 
			},
			{
				"x": 2.0340225279,
				"y": -1.9089312344,
				"z": -1.8780083058,
				"element": "N" 
			},
			{
				"x": 2.376166975,
				"y": -0.7556658096,
				"z": -2.5032783654,
				"element": "N" 
			},
			{
				"x": 2.1703695495,
				"y": 0.265256811,
				"z": -1.7350147217,
				"element": "N" 
			},
			{
				"x": 1.672153873,
				"y": -0.2125723295,
				"z": -0.5710219434,
				"element": "N" 
			},
			{
				"x": 1.3233560072,
				"y": 0.7170913062,
				"z": 0.510248301,
				"element": "C" 
			},
			{
				"x": -0.1647337249,
				"y": 0.9695501939,
				"z": 0.6247744904,
				"element": "C" 
			},
			{
				"x": -1.024669525,
				"y": 0.1771449685,
				"z": 1.5854667656,
				"element": "C" 
			},
			{
				"x": -0.6933075117,
				"y": 1.6184596606,
				"z": 1.8797750812,
				"element": "C" 
			},
			{
				"x": 0.0650323894,
				"y": -2.2819383318,
				"z": 0.6418226187,
				"element": "H" 
			},
			{
				"x": 1.1140726684,
				"y": -3.5204886316,
				"z": -0.1047807684,
				"element": "H" 
			},
			{
				"x": 1.8573946821,
				"y": 1.638880443,
				"z": 0.2676155822,
				"element": "H" 
			},
			{
				"x": 1.7287774574,
				"y": 0.3196452796,
				"z": 1.4451945623,
				"element": "H" 
			},
			{
				"x": -0.6292169416,
				"y": 1.2756704958,
				"z": -0.3096826346,
				"element": "H" 
			},
			{
				"x": -0.5449184031,
				"y": -0.5765000128,
				"z": 2.2042661842,
				"element": "H" 
			},
			{
				"x": -2.037103392,
				"y": -0.0698145189,
				"z": 1.2813566601,
				"element": "H" 
			},
			{
				"x": -1.4734048952,
				"y": 2.3654020307,
				"z": 1.775323308,
				"element": "H" 
			},
			{
				"x": 0.00841346,
				"y": 1.8196260449,
				"z": 2.684620387,
				"element": "H" 
			}
		],
		 "valence_orbital": [ 
			{
				"type": "occ",
				"energy": -0.31376,
				"method": "rhf"
			},
			{
				"type": "occ",
				"energy": -0.30827,
				"method": "rhf"
			},
			{
				"type": "occ",
				"energy": -0.29906,
				"method": "rhf"
			},
			{
				"type": "occ",
				"energy": -0.29722,
				"method": "rhf"
			},
			{
				"type": "occ",
				"energy": -0.28545,
				"method": "rhf"
			},
			{
				"type": "unocc",
				"energy": -0.04225,
				"method": "rhf"
			},
			{
				"type": "unocc",
				"energy": 0.00059,
				"method": "rhf"
			},
			{
				"type": "unocc",
				"energy": 0.03519,
				"method": "rhf"
			},
			{
				"type": "unocc",
				"energy": 0.07859,
				"method": "rhf"
			},
			{
				"type": "unocc",
				"energy": 0.08592,
				"method": "rhf"
			}
		],
		"cosmo_sigma_profile": { 
			"-0.025": 0.0,
			"-0.024": 0.0,
			"-0.023": 0.0,
			"-0.022": 0.0,
			"-0.021": 0.0,
			"-0.02": 0.0,
			"-0.019": 0.0,
			"-0.018": 0.0,
			"-0.017": 0.0,
			"-0.016": 0.0,
			"-0.015": 0.0,
			"-0.014": 0.0,
			"-0.013": 0.0,
			"-0.012": 0.0,
			"-0.011": 0.0,
			"-0.01": 0.613304504492,
			"-0.009": 1.99289974846,
			"-0.008": 4.82802261739,
			"-0.007": 8.62398354005,
			"-0.006": 10.9771440376,
			"-0.005": 17.7053245842,
			"-0.004": 21.9675507424,
			"-0.003": 16.029321016,
			"-0.002": 14.6610104179,
			"-0.001": 12.6784849049,
			"0.0": 13.0436133216,
			"0.001": 9.57746030674,
			"0.002": 9.93623095101,
			"0.003": 8.97700539279,
			"0.004": 8.68587742374,
			"0.005": 10.2679512067,
			"0.006": 3.13765459706,
			"0.007": 4.3123110476,
			"0.008": 5.37233427544,
			"0.009": 4.23111966055,
			"0.01": 4.37199096682,
			"0.011": 4.78069169967,
			"0.012": 2.61730634961,
			"0.013": 2.31504925194,
			"0.014": 1.56919708155,
			"0.015": 0.211160624818,
			"0.016": 0.0,
			"0.017": 0.0,
			"0.018": 0.0,
			"0.019": 0.0,
			"0.02": 0.0,
			"0.021": 0.0,
			"0.022": 0.0,
			"0.023": 0.0,
			"0.024": 0.0,
			"0.025": 0.0
		}
	}
}
