{
	 "smiles": "COC1=CC=C(F)C(=C1)C#N", 
	 "Tm": 356.15, 
	 "num_atms": 17, 
	 "gaussian": { 
		 "optdone": 1, 
		 "sigma_profile": "yes", 
		 "theory": "DFT", 
		 "functional": "B3LYP", 
		 "basiset": "6-31G**", 
		 "properties": { 
			 "R2extent": 2250.4474, 
			 "electric_dipole_moment_norm": 4.98589494675, 
			 "electric_quadrupole_moment_norm": 17.1139300168, 
			 "total_energy": -538.242970234, 
			 "HOMO_LUMO_gap": 0.18151, 
			 "cosmo_polarized_energy": -9.84, 
			 "cosmo_cavitation_energy": 23.06, 
			 "cosmo_dispersion_energy": -16.3, 
			 "cosmo_repulsion_energy": 1.29, 
			 "cosmo_total_nonelectrostatic_energy": 8.05, 
			 "SMD_solvation_energy": 6.69 
		},
		"coords": [
			{
				"x": -0.9792787488,
				"y": -2.1662124235,
				"z": 0.6277817873,
				"element": "C" 
			},
			{
				"x": -0.0246985092,
				"y": -2.0572875303,
				"z": -0.4196863822,
				"element": "O" 
			},
			{
				"x": 0.6207792309,
				"y": -0.8703779072,
				"z": -0.5834317321,
				"element": "C" 
			},
			{
				"x": 1.5527029233,
				"y": -0.8247246117,
				"z": -1.6355196176,
				"element": "C" 
			},
			{
				"x": 2.2705106743,
				"y": 0.3347702815,
				"z": -1.8960708803,
				"element": "C" 
			},
			{
				"x": 2.0614627642,
				"y": 1.4597238466,
				"z": -1.1049704707,
				"element": "C" 
			},
			{
				"x": 2.7528994928,
				"y": 2.5843434375,
				"z": -1.3521694997,
				"element": "F" 
			},
			{
				"x": 1.141334343,
				"y": 1.4401529444,
				"z": -0.0537205852,
				"element": "C" 
			},
			{
				"x": 0.4145437336,
				"y": 0.2606822257,
				"z": 0.2074457523,
				"element": "C" 
			},
			{
				"x": 0.9391402383,
				"y": 2.6066230878,
				"z": 0.7497676595,
				"element": "C" 
			},
			{
				"x": 0.7603726517,
				"y": 3.5441546416,
				"z": 1.4142814816,
				"element": "N" 
			},
			{
				"x": -0.5189831285,
				"y": -2.0030905137,
				"z": 1.6104729533,
				"element": "H" 
			},
			{
				"x": -1.8061729039,
				"y": -1.4572859827,
				"z": 0.4942336231,
				"element": "H" 
			},
			{
				"x": -1.3660983768,
				"y": -3.1844257268,
				"z": 0.5759553731,
				"element": "H" 
			},
			{
				"x": 1.6960198736,
				"y": -1.7161038351,
				"z": -2.2366299434,
				"element": "H" 
			},
			{
				"x": 2.9918767462,
				"y": 0.3830304573,
				"z": -2.704100958,
				"element": "H" 
			},
			{
				"x": -0.2940110046,
				"y": 0.2622276087,
				"z": 1.0251614389,
				"element": "H" 
			}
		],
		 "valence_orbital": [ 
			{
				"type": "occ",
				"energy": -0.35139,
				"method": "rhf"
			},
			{
				"type": "occ",
				"energy": -0.33357,
				"method": "rhf"
			},
			{
				"type": "occ",
				"energy": -0.32524,
				"method": "rhf"
			},
			{
				"type": "occ",
				"energy": -0.27734,
				"method": "rhf"
			},
			{
				"type": "occ",
				"energy": -0.23895,
				"method": "rhf"
			},
			{
				"type": "unocc",
				"energy": -0.05744,
				"method": "rhf"
			},
			{
				"type": "unocc",
				"energy": -0.01155,
				"method": "rhf"
			},
			{
				"type": "unocc",
				"energy": 0.03122,
				"method": "rhf"
			},
			{
				"type": "unocc",
				"energy": 0.07282,
				"method": "rhf"
			},
			{
				"type": "unocc",
				"energy": 0.07636,
				"method": "rhf"
			}
		],
		"cosmo_sigma_profile": { 
			"-0.025": 0.0,
			"-0.024": 0.0,
			"-0.023": 0.0,
			"-0.022": 0.0,
			"-0.021": 0.0,
			"-0.02": 0.0,
			"-0.019": 0.0,
			"-0.018": 0.0,
			"-0.017": 0.0,
			"-0.016": 0.0,
			"-0.015": 0.0,
			"-0.014": 0.0,
			"-0.013": 0.0,
			"-0.012": 0.0,
			"-0.011": 0.0,
			"-0.01": 0.0,
			"-0.009": 1.25525178617,
			"-0.008": 5.47995079812,
			"-0.007": 7.68394089042,
			"-0.006": 12.8746572013,
			"-0.005": 11.822783586,
			"-0.004": 11.9672203631,
			"-0.003": 12.0815829825,
			"-0.002": 12.2987132162,
			"-0.001": 15.4968225851,
			"0.0": 14.7720090216,
			"0.001": 17.2069213969,
			"0.002": 11.8262843936,
			"0.003": 13.6837539796,
			"0.004": 6.50908999341,
			"0.005": 4.24699579393,
			"0.006": 3.87354211202,
			"0.007": 4.40986637493,
			"0.008": 4.65399377367,
			"0.009": 4.61498902964,
			"0.01": 3.70563685182,
			"0.011": 2.46289542513,
			"0.012": 2.37774948738,
			"0.013": 0.918929314428,
			"0.014": 0.0,
			"0.015": 0.0,
			"0.016": 0.0,
			"0.017": 0.0,
			"0.018": 0.0,
			"0.019": 0.0,
			"0.02": 0.0,
			"0.021": 0.0,
			"0.022": 0.0,
			"0.023": 0.0,
			"0.024": 0.0,
			"0.025": 0.0
		}
	}
}
