{
	 "smiles": "COC(=O)C1=C(Cl)C(=C(SC)S1)S(=O)(=O)C(C)C", 
	 "Tm": 415.15, 
	 "num_atms": 31, 
	 "gaussian": { 
		 "optdone": 1, 
		 "sigma_profile": "yes", 
		 "theory": "DFT", 
		 "functional": "B3LYP", 
		 "basiset": "6-31G**", 
		 "properties": { 
			 "R2extent": 6924.8364, 
			 "electric_dipole_moment_norm": 2.71158802365, 
			 "electric_quadrupole_moment_norm": 22.5870758453, 
			 "total_energy": -2344.47000244, 
			 "HOMO_LUMO_gap": 0.15958, 
			 "cosmo_polarized_energy": -15.37, 
			 "cosmo_cavitation_energy": 40.05, 
			 "cosmo_dispersion_energy": -28.64, 
			 "cosmo_repulsion_energy": 2.1, 
			 "cosmo_total_nonelectrostatic_energy": 13.5, 
			 "SMD_solvation_energy": 7.66 
		},
		"coords": [
			{
				"x": 2.975545722,
				"y": -4.7650160037,
				"z": -1.7400424568,
				"element": "C" 
			},
			{
				"x": 2.3176635432,
				"y": -3.5582984161,
				"z": -1.3108856256,
				"element": "O" 
			},
			{
				"x": 1.2135892264,
				"y": -3.2362905124,
				"z": -1.9997568308,
				"element": "C" 
			},
			{
				"x": 0.7718816513,
				"y": -3.8873729362,
				"z": -2.9296031066,
				"element": "O" 
			},
			{
				"x": 0.5524914202,
				"y": -2.0000827127,
				"z": -1.5306865064,
				"element": "C" 
			},
			{
				"x": 0.8257932203,
				"y": -1.0819592766,
				"z": -0.5361938318,
				"element": "C" 
			},
			{
				"x": 2.2062040603,
				"y": -1.1935667092,
				"z": 0.5105160595,
				"element": "Cl" 
			},
			{
				"x": -0.1261448476,
				"y": -0.0068832471,
				"z": -0.471353959,
				"element": "C" 
			},
			{
				"x": -1.1243311003,
				"y": -0.1333026194,
				"z": -1.4301005509,
				"element": "C" 
			},
			{
				"x": -2.4825164753,
				"y": 0.8898703202,
				"z": -1.9309079145,
				"element": "S" 
			},
			{
				"x": -3.6658101608,
				"y": 0.7208095131,
				"z": -0.5386448038,
				"element": "C" 
			},
			{
				"x": -0.8973614946,
				"y": -1.5633336211,
				"z": -2.3830060845,
				"element": "S" 
			},
			{
				"x": -0.0276989799,
				"y": 1.3332707457,
				"z": 0.7530861228,
				"element": "S" 
			},
			{
				"x": 0.2499220419,
				"y": 0.7193059166,
				"z": 2.0589127604,
				"element": "O" 
			},
			{
				"x": -1.217569832,
				"y": 2.1855006343,
				"z": 0.5905464758,
				"element": "O" 
			},
			{
				"x": 1.436769754,
				"y": 2.3206790552,
				"z": 0.2327389036,
				"element": "C" 
			},
			{
				"x": 1.1952695227,
				"y": 2.957246231,
				"z": -1.135082385,
				"element": "C" 
			},
			{
				"x": 1.7113624454,
				"y": 3.3428567171,
				"z": 1.3408790658,
				"element": "C" 
			},
			{
				"x": 3.2980800558,
				"y": -4.6753921976,
				"z": -2.7799961445,
				"element": "H" 
			},
			{
				"x": 3.8331524084,
				"y": -4.8769412159,
				"z": -1.0778844574,
				"element": "H" 
			},
			{
				"x": 2.3019536032,
				"y": -5.6202280874,
				"z": -1.649298886,
				"element": "H" 
			},
			{
				"x": -3.903048315,
				"y": -0.3301793912,
				"z": -0.3659358204,
				"element": "H" 
			},
			{
				"x": -4.5662521919,
				"y": 1.2446583874,
				"z": -0.8687424547,
				"element": "H" 
			},
			{
				"x": -3.2586621036,
				"y": 1.1971122615,
				"z": 0.3513085926,
				"element": "H" 
			},
			{
				"x": 2.2498962397,
				"y": 1.5895856294,
				"z": 0.1891503259,
				"element": "H" 
			},
			{
				"x": 2.084252654,
				"y": 3.5258971622,
				"z": -1.4258331849,
				"element": "H" 
			},
			{
				"x": 0.3413746638,
				"y": 3.6381548245,
				"z": -1.0996574908,
				"element": "H" 
			},
			{
				"x": 1.0080294755,
				"y": 2.2091700371,
				"z": -1.9102791906,
				"element": "H" 
			},
			{
				"x": 2.6147769694,
				"y": 3.9056671783,
				"z": 1.0868394486,
				"element": "H" 
			},
			{
				"x": 1.8643066184,
				"y": 2.8529373373,
				"z": 2.3046815943,
				"element": "H" 
			},
			{
				"x": 0.8806802051,
				"y": 4.0483249956,
				"z": 1.4324323359,
				"element": "H" 
			}
		],
		 "valence_orbital": [ 
			{
				"type": "occ",
				"energy": -0.29789,
				"method": "rhf"
			},
			{
				"type": "occ",
				"energy": -0.28571,
				"method": "rhf"
			},
			{
				"type": "occ",
				"energy": -0.28061,
				"method": "rhf"
			},
			{
				"type": "occ",
				"energy": -0.26642,
				"method": "rhf"
			},
			{
				"type": "occ",
				"energy": -0.24021,
				"method": "rhf"
			},
			{
				"type": "unocc",
				"energy": -0.08063,
				"method": "rhf"
			},
			{
				"type": "unocc",
				"energy": -0.02928,
				"method": "rhf"
			},
			{
				"type": "unocc",
				"energy": -0.00798,
				"method": "rhf"
			},
			{
				"type": "unocc",
				"energy": 0.00982,
				"method": "rhf"
			},
			{
				"type": "unocc",
				"energy": 0.04172,
				"method": "rhf"
			}
		],
		"cosmo_sigma_profile": { 
			"-0.025": 0.0,
			"-0.024": 0.0,
			"-0.023": 0.0,
			"-0.022": 0.0,
			"-0.021": 0.0,
			"-0.02": 0.0,
			"-0.019": 0.0,
			"-0.018": 0.0,
			"-0.017": 0.0,
			"-0.016": 0.0,
			"-0.015": 0.0,
			"-0.014": 0.0,
			"-0.013": 0.0,
			"-0.012": 0.0,
			"-0.011": 0.0,
			"-0.01": 0.0,
			"-0.009": 0.000344796796797,
			"-0.008": 0.716869279738,
			"-0.007": 5.81309200057,
			"-0.006": 15.7544607596,
			"-0.005": 23.4850780227,
			"-0.004": 33.083775437,
			"-0.003": 36.4268547462,
			"-0.002": 37.6218531591,
			"-0.001": 34.8209980553,
			"0.0": 23.7039010843,
			"0.001": 16.7014979714,
			"0.002": 11.9490959441,
			"0.003": 14.0583041781,
			"0.004": 10.2005100844,
			"0.005": 9.04059867256,
			"0.006": 9.12250907853,
			"0.007": 6.70236104218,
			"0.008": 5.30040798624,
			"0.009": 5.96276741637,
			"0.01": 9.06203388082,
			"0.011": 11.5838991136,
			"0.012": 2.62979374614,
			"0.013": 0.0,
			"0.014": 0.0,
			"0.015": 0.0,
			"0.016": 0.0,
			"0.017": 0.0,
			"0.018": 0.0,
			"0.019": 0.0,
			"0.02": 0.0,
			"0.021": 0.0,
			"0.022": 0.0,
			"0.023": 0.0,
			"0.024": 0.0,
			"0.025": 0.0
		}
	}
}
