{
	 "smiles": "COC1=C(NC(C)=O)C=CC(N)=C1", 
	 "Tm": 395.15, 
	 "num_atms": 25, 
	 "gaussian": { 
		 "optdone": 1, 
		 "sigma_profile": "yes", 
		 "theory": "DFT", 
		 "functional": "B3LYP", 
		 "basiset": "6-31G**", 
		 "properties": { 
			 "R2extent": 2650.077, 
			 "electric_dipole_moment_norm": 5.22728002981, 
			 "electric_quadrupole_moment_norm": 10.8688426481, 
			 "total_energy": -610.142710371, 
			 "HOMO_LUMO_gap": 0.19833, 
			 "cosmo_polarized_energy": -16.03, 
			 "cosmo_cavitation_energy": 28.66, 
			 "cosmo_dispersion_energy": -20.2, 
			 "cosmo_repulsion_energy": 1.63, 
			 "cosmo_total_nonelectrostatic_energy": 10.09, 
			 "SMD_solvation_energy": 6.96 
		},
		"coords": [
			{
				"x": -2.2954935651,
				"y": 1.7914679986,
				"z": 0.4218408292,
				"element": "C" 
			},
			{
				"x": -1.9402755902,
				"y": 0.6581346505,
				"z": -0.3762068272,
				"element": "O" 
			},
			{
				"x": -0.5975746748,
				"y": 0.5434306763,
				"z": -0.6645189792,
				"element": "C" 
			},
			{
				"x": 0.3284419079,
				"y": 0.1013817991,
				"z": 0.3010747106,
				"element": "C" 
			},
			{
				"x": -0.0635710071,
				"y": -0.1911132479,
				"z": 1.6371438065,
				"element": "N" 
			},
			{
				"x": -0.8520407867,
				"y": -1.2328228535,
				"z": 2.0967822039,
				"element": "C" 
			},
			{
				"x": -1.42565508,
				"y": -2.1709091949,
				"z": 1.0534944751,
				"element": "C" 
			},
			{
				"x": -1.0573046267,
				"y": -1.3607170403,
				"z": 3.2957604042,
				"element": "O" 
			},
			{
				"x": 1.6696123921,
				"y": -0.0146996523,
				"z": -0.0856307473,
				"element": "C" 
			},
			{
				"x": 2.0889112775,
				"y": 0.2834543866,
				"z": -1.3771279887,
				"element": "C" 
			},
			{
				"x": 1.1568991564,
				"y": 0.6945561065,
				"z": -2.3466350256,
				"element": "C" 
			},
			{
				"x": 1.566599159,
				"y": 1.0323716069,
				"z": -3.6350785355,
				"element": "N" 
			},
			{
				"x": -0.189442754,
				"y": 0.8184231362,
				"z": -1.9680591178,
				"element": "C" 
			},
			{
				"x": -1.8174304401,
				"y": 1.7566323481,
				"z": 1.406251483,
				"element": "H" 
			},
			{
				"x": -2.0218394583,
				"y": 2.7253034717,
				"z": -0.0853708976,
				"element": "H" 
			},
			{
				"x": -3.3793852177,
				"y": 1.7508724784,
				"z": 0.5455481093,
				"element": "H" 
			},
			{
				"x": 0.3629072934,
				"y": 0.3350541377,
				"z": 2.3903067144,
				"element": "H" 
			},
			{
				"x": -0.6486221554,
				"y": -2.5360873495,
				"z": 0.3749512218,
				"element": "H" 
			},
			{
				"x": -1.8894620643,
				"y": -3.0089503662,
				"z": 1.5732140765,
				"element": "H" 
			},
			{
				"x": -2.1730221981,
				"y": -1.6493436315,
				"z": 0.4490078995,
				"element": "H" 
			},
			{
				"x": 2.391807344,
				"y": -0.3573976085,
				"z": 0.6502650552,
				"element": "H" 
			},
			{
				"x": 3.1381035568,
				"y": 0.1871786052,
				"z": -1.6431286769,
				"element": "H" 
			},
			{
				"x": 0.8507107492,
				"y": 0.9813051773,
				"z": -4.3462307988,
				"element": "H" 
			},
			{
				"x": 2.4347074185,
				"y": 0.613116026,
				"z": -3.9376638047,
				"element": "H" 
			},
			{
				"x": -0.9415806364,
				"y": 1.1413583392,
				"z": -2.6818895899,
				"element": "H" 
			}
		],
		 "valence_orbital": [ 
			{
				"type": "occ",
				"energy": -0.27892,
				"method": "rhf"
			},
			{
				"type": "occ",
				"energy": -0.25274,
				"method": "rhf"
			},
			{
				"type": "occ",
				"energy": -0.24609,
				"method": "rhf"
			},
			{
				"type": "occ",
				"energy": -0.23793,
				"method": "rhf"
			},
			{
				"type": "occ",
				"energy": -0.20449,
				"method": "rhf"
			},
			{
				"type": "unocc",
				"energy": -0.00616,
				"method": "rhf"
			},
			{
				"type": "unocc",
				"energy": 0.00317,
				"method": "rhf"
			},
			{
				"type": "unocc",
				"energy": 0.0427,
				"method": "rhf"
			},
			{
				"type": "unocc",
				"energy": 0.0733,
				"method": "rhf"
			},
			{
				"type": "unocc",
				"energy": 0.09291,
				"method": "rhf"
			}
		],
		"cosmo_sigma_profile": { 
			"-0.025": 0.0,
			"-0.024": 0.0,
			"-0.023": 0.0,
			"-0.022": 0.0,
			"-0.021": 0.0,
			"-0.02": 0.0,
			"-0.019": 0.0,
			"-0.018": 0.0,
			"-0.017": 0.0,
			"-0.016": 0.0,
			"-0.015": 0.0,
			"-0.014": 0.0979313592939,
			"-0.013": 1.48276184369,
			"-0.012": 3.53798031328,
			"-0.011": 3.82237056782,
			"-0.01": 4.20580729961,
			"-0.009": 4.62611874188,
			"-0.008": 3.73874482009,
			"-0.007": 3.69245365164,
			"-0.006": 7.99106942568,
			"-0.005": 11.8555860375,
			"-0.004": 17.625413715,
			"-0.003": 19.379313564,
			"-0.002": 19.6626809816,
			"-0.001": 17.5694435308,
			"0.0": 16.9426803732,
			"0.001": 12.6121760546,
			"0.002": 9.73885097482,
			"0.003": 9.22219259449,
			"0.004": 9.93246757798,
			"0.005": 12.4595416356,
			"0.006": 6.32748942619,
			"0.007": 3.02091699695,
			"0.008": 2.57760186334,
			"0.009": 3.0402210107,
			"0.01": 2.67575060823,
			"0.011": 3.06291843564,
			"0.012": 2.7084643671,
			"0.013": 4.00247443154,
			"0.014": 6.47649370121,
			"0.015": 1.91251505509,
			"0.016": 0.0670164873597,
			"0.017": 0.0,
			"0.018": 0.0,
			"0.019": 0.0,
			"0.02": 0.0,
			"0.021": 0.0,
			"0.022": 0.0,
			"0.023": 0.0,
			"0.024": 0.0,
			"0.025": 0.0
		}
	}
}
