{
	 "smiles": "OC(=O)C1=C(CN2C(=O)CC3=C2C=CC=C3)C=CO1", 
	 "Tm": 477.15, 
	 "num_atms": 30, 
	 "gaussian": { 
		 "optdone": 1, 
		 "sigma_profile": "yes", 
		 "theory": "DFT", 
		 "functional": "B3LYP", 
		 "basiset": "6-31G**", 
		 "properties": { 
			 "R2extent": 5811.9811, 
			 "electric_dipole_moment_norm": 1.7414128, 
			 "electric_quadrupole_moment_norm": 9.97379335358, 
			 "total_energy": -895.781707679, 
			 "HOMO_LUMO_gap": 0.15979, 
			 "cosmo_polarized_energy": -14.55, 
			 "cosmo_cavitation_energy": 34.48, 
			 "cosmo_dispersion_energy": -24.59, 
			 "cosmo_repulsion_energy": 1.87, 
			 "cosmo_total_nonelectrostatic_energy": 11.75, 
			 "SMD_solvation_energy": 8.03 
		},
		"coords": [
			{
				"x": -4.1750162891,
				"y": -2.1902676028,
				"z": 2.9161618993,
				"element": "O" 
			},
			{
				"x": -3.3545231594,
				"y": -2.1074407208,
				"z": 1.8476552854,
				"element": "C" 
			},
			{
				"x": -2.5527481663,
				"y": -2.9853379369,
				"z": 1.5632773831,
				"element": "O" 
			},
			{
				"x": -3.5253785939,
				"y": -0.877148128,
				"z": 1.082697706,
				"element": "C" 
			},
			{
				"x": -2.9243214394,
				"y": -0.4391111436,
				"z": -0.0770250415,
				"element": "C" 
			},
			{
				"x": -1.8857066309,
				"y": -1.139152527,
				"z": -0.9146624519,
				"element": "C" 
			},
			{
				"x": -0.6037567359,
				"y": -0.4427777391,
				"z": -0.9323780049,
				"element": "N" 
			},
			{
				"x": -0.3186575868,
				"y": 0.5427771231,
				"z": -1.8642876813,
				"element": "C" 
			},
			{
				"x": -1.0920129597,
				"y": 0.9333814104,
				"z": -2.7245549938,
				"element": "O" 
			},
			{
				"x": 1.1133490148,
				"y": 1.0206007597,
				"z": -1.5932007385,
				"element": "C" 
			},
			{
				"x": 1.5323880351,
				"y": 0.2091256663,
				"z": -0.3947014379,
				"element": "C" 
			},
			{
				"x": 0.4692670252,
				"y": -0.6408204329,
				"z": -0.0403409369,
				"element": "C" 
			},
			{
				"x": 0.5519098058,
				"y": -1.5166118074,
				"z": 1.037426137,
				"element": "C" 
			},
			{
				"x": 1.7496258167,
				"y": -1.529440212,
				"z": 1.7650790329,
				"element": "C" 
			},
			{
				"x": 2.8164569796,
				"y": -0.6955795408,
				"z": 1.4262132441,
				"element": "C" 
			},
			{
				"x": 2.7094106897,
				"y": 0.1829980743,
				"z": 0.3379823051,
				"element": "C" 
			},
			{
				"x": -3.5004632318,
				"y": 0.8388761242,
				"z": -0.3565255417,
				"element": "C" 
			},
			{
				"x": -4.3977840821,
				"y": 1.0782665815,
				"z": 0.6427342023,
				"element": "C" 
			},
			{
				"x": -4.4319452193,
				"y": 0.0511800155,
				"z": 1.5238035167,
				"element": "O" 
			},
			{
				"x": -3.9675515288,
				"y": -3.0393348525,
				"z": 3.3406467061,
				"element": "H" 
			},
			{
				"x": -2.2296008974,
				"y": -1.1714260791,
				"z": -1.9529028726,
				"element": "H" 
			},
			{
				"x": -1.7353107678,
				"y": -2.157702898,
				"z": -0.5568398794,
				"element": "H" 
			},
			{
				"x": 1.7272437513,
				"y": 0.8439591621,
				"z": -2.4840831725,
				"element": "H" 
			},
			{
				"x": 1.1079953108,
				"y": 2.1024631904,
				"z": -1.4192199927,
				"element": "H" 
			},
			{
				"x": -0.2768300797,
				"y": -2.1614240873,
				"z": 1.3114390376,
				"element": "H" 
			},
			{
				"x": 1.842951641,
				"y": -2.2037107551,
				"z": 2.6115681029,
				"element": "H" 
			},
			{
				"x": 3.7328451695,
				"y": -0.7249165232,
				"z": 2.007643717,
				"element": "H" 
			},
			{
				"x": 3.5387854767,
				"y": 0.8338009679,
				"z": 0.0738259891,
				"element": "H" 
			},
			{
				"x": -3.260502609,
				"y": 1.4716220748,
				"z": -1.1986143405,
				"element": "H" 
			},
			{
				"x": -5.0645187389,
				"y": 1.9001518363,
				"z": 0.8557828218,
				"element": "H" 
			}
		],
		 "valence_orbital": [ 
			{
				"type": "occ",
				"energy": -0.28832,
				"method": "rhf"
			},
			{
				"type": "occ",
				"energy": -0.25891,
				"method": "rhf"
			},
			{
				"type": "occ",
				"energy": -0.24958,
				"method": "rhf"
			},
			{
				"type": "occ",
				"energy": -0.24804,
				"method": "rhf"
			},
			{
				"type": "occ",
				"energy": -0.21219,
				"method": "rhf"
			},
			{
				"type": "unocc",
				"energy": -0.0524,
				"method": "rhf"
			},
			{
				"type": "unocc",
				"energy": -0.01141,
				"method": "rhf"
			},
			{
				"type": "unocc",
				"energy": -0.00015,
				"method": "rhf"
			},
			{
				"type": "unocc",
				"energy": 0.03026,
				"method": "rhf"
			},
			{
				"type": "unocc",
				"energy": 0.03594,
				"method": "rhf"
			}
		],
		"cosmo_sigma_profile": { 
			"-0.025": 0.0,
			"-0.024": 0.0,
			"-0.023": 0.0,
			"-0.022": 0.0,
			"-0.021": 0.0,
			"-0.02": 0.0,
			"-0.019": 0.21861791691,
			"-0.018": 1.04767668239,
			"-0.017": 0.701410863327,
			"-0.016": 0.987256623729,
			"-0.015": 0.716726081287,
			"-0.014": 0.383533312742,
			"-0.013": 0.769673497081,
			"-0.012": 0.850311424259,
			"-0.011": 1.10938216673,
			"-0.01": 2.56659631645,
			"-0.009": 1.68931311975,
			"-0.008": 2.77588269166,
			"-0.007": 7.42045359058,
			"-0.006": 12.2653767033,
			"-0.005": 18.0261790517,
			"-0.004": 20.3695079375,
			"-0.003": 22.9727894767,
			"-0.002": 20.3062504029,
			"-0.001": 21.3107672955,
			"0.0": 22.0479046318,
			"0.001": 18.8743163581,
			"0.002": 18.2448529614,
			"0.003": 13.886842499,
			"0.004": 12.5900335713,
			"0.005": 12.5803938707,
			"0.006": 9.4970394086,
			"0.007": 5.61496635118,
			"0.008": 4.94820435781,
			"0.009": 3.76578385255,
			"0.01": 5.40348716298,
			"0.011": 4.01540889655,
			"0.012": 4.22226674442,
			"0.013": 3.46534488579,
			"0.014": 1.19979461338,
			"0.015": 0.0178485158861,
			"0.016": 0.0,
			"0.017": 0.0,
			"0.018": 0.0,
			"0.019": 0.0,
			"0.02": 0.0,
			"0.021": 0.0,
			"0.022": 0.0,
			"0.023": 0.0,
			"0.024": 0.0,
			"0.025": 0.0
		}
	}
}
