{
	 "smiles": "CC1=CC=C(C=C1)N1C(=S)ON=C1C1=CN=CC=C1", 
	 "Tm": 432.5, 
	 "num_atms": 30, 
	 "gaussian": { 
		 "optdone": 1, 
		 "sigma_profile": "yes", 
		 "theory": "DFT", 
		 "functional": "B3LYP", 
		 "basiset": "6-31G**", 
		 "properties": { 
			 "R2extent": 5796.2752, 
			 "electric_dipole_moment_norm": 7.78732275946, 
			 "electric_quadrupole_moment_norm": 15.5053952852, 
			 "total_energy": -1177.74097206, 
			 "HOMO_LUMO_gap": 0.15696, 
			 "cosmo_polarized_energy": -16.95, 
			 "cosmo_cavitation_energy": 36.83, 
			 "cosmo_dispersion_energy": -25.79, 
			 "cosmo_repulsion_energy": 1.95, 
			 "cosmo_total_nonelectrostatic_energy": 13.0, 
			 "SMD_solvation_energy": 4.12 
		},
		"coords": [
			{
				"x": 4.431926015,
				"y": 3.4929784218,
				"z": 0.3854869966,
				"element": "C" 
			},
			{
				"x": 3.3944189314,
				"y": 2.4472115597,
				"z": 0.0545954116,
				"element": "C" 
			},
			{
				"x": 2.6888098859,
				"y": 2.494079883,
				"z": -1.1568032623,
				"element": "C" 
			},
			{
				"x": 1.7503838208,
				"y": 1.5186877033,
				"z": -1.48547119,
				"element": "C" 
			},
			{
				"x": 1.5074553295,
				"y": 0.4745844275,
				"z": -0.5911341039,
				"element": "C" 
			},
			{
				"x": 2.2014001118,
				"y": 0.4001622004,
				"z": 0.6167779477,
				"element": "C" 
			},
			{
				"x": 3.131628974,
				"y": 1.3886111688,
				"z": 0.9341636131,
				"element": "C" 
			},
			{
				"x": 0.5375424453,
				"y": -0.5305672005,
				"z": -0.9179818017,
				"element": "N" 
			},
			{
				"x": 0.6903860086,
				"y": -1.4792038916,
				"z": -1.9194404487,
				"element": "C" 
			},
			{
				"x": 1.8816899941,
				"y": -1.6686061355,
				"z": -3.0362094357,
				"element": "S" 
			},
			{
				"x": -0.3907386293,
				"y": -2.2906929976,
				"z": -1.804798293,
				"element": "O" 
			},
			{
				"x": -1.2287642311,
				"y": -1.8688697821,
				"z": -0.747888257,
				"element": "N" 
			},
			{
				"x": -0.6399013748,
				"y": -0.8264328346,
				"z": -0.2429912493,
				"element": "C" 
			},
			{
				"x": -1.209038693,
				"y": -0.0920563904,
				"z": 0.8967667631,
				"element": "C" 
			},
			{
				"x": -1.9152193737,
				"y": -0.811163571,
				"z": 1.8774150293,
				"element": "C" 
			},
			{
				"x": -2.5088353444,
				"y": -0.2417843833,
				"z": 2.9273432038,
				"element": "N" 
			},
			{
				"x": -2.4181241631,
				"y": 1.0897426388,
				"z": 3.0422515607,
				"element": "C" 
			},
			{
				"x": -1.7409183069,
				"y": 1.8984335437,
				"z": 2.128070617,
				"element": "C" 
			},
			{
				"x": -1.1249687161,
				"y": 1.299940291,
				"z": 1.0330390073,
				"element": "C" 
			},
			{
				"x": 4.1544664908,
				"y": 4.4729942303,
				"z": -0.0139923313,
				"element": "H" 
			},
			{
				"x": 4.5719224447,
				"y": 3.5918281644,
				"z": 1.4655821798,
				"element": "H" 
			},
			{
				"x": 5.4042740092,
				"y": 3.2289629091,
				"z": -0.0480986955,
				"element": "H" 
			},
			{
				"x": 2.8769408638,
				"y": 3.3052477663,
				"z": -1.8548579207,
				"element": "H" 
			},
			{
				"x": 1.2150557511,
				"y": 1.5567520076,
				"z": -2.4277629381,
				"element": "H" 
			},
			{
				"x": 2.0142853999,
				"y": -0.422303625,
				"z": 1.2996518559,
				"element": "H" 
			},
			{
				"x": 3.6665219781,
				"y": 1.3303955147,
				"z": 1.8780744672,
				"element": "H" 
			},
			{
				"x": -1.9917769686,
				"y": -1.8926274254,
				"z": 1.7956953721,
				"element": "H" 
			},
			{
				"x": -2.9114410249,
				"y": 1.530331696,
				"z": 3.9065115014,
				"element": "H" 
			},
			{
				"x": -1.7031180804,
				"y": 2.973722547,
				"z": 2.2681995962,
				"element": "H" 
			},
			{
				"x": -0.6002635477,
				"y": 1.9001415636,
				"z": 0.2983048047,
				"element": "H" 
			}
		],
		 "valence_orbital": [ 
			{
				"type": "occ",
				"energy": -0.27776,
				"method": "rhf"
			},
			{
				"type": "occ",
				"energy": -0.27474,
				"method": "rhf"
			},
			{
				"type": "occ",
				"energy": -0.26511,
				"method": "rhf"
			},
			{
				"type": "occ",
				"energy": -0.22694,
				"method": "rhf"
			},
			{
				"type": "occ",
				"energy": -0.22257,
				"method": "rhf"
			},
			{
				"type": "unocc",
				"energy": -0.06561,
				"method": "rhf"
			},
			{
				"type": "unocc",
				"energy": -0.04518,
				"method": "rhf"
			},
			{
				"type": "unocc",
				"energy": -0.03686,
				"method": "rhf"
			},
			{
				"type": "unocc",
				"energy": -0.02603,
				"method": "rhf"
			},
			{
				"type": "unocc",
				"energy": -0.01982,
				"method": "rhf"
			}
		],
		"cosmo_sigma_profile": { 
			"-0.025": 0.0,
			"-0.024": 0.0,
			"-0.023": 0.0,
			"-0.022": 0.0,
			"-0.021": 0.0,
			"-0.02": 0.0,
			"-0.019": 0.0,
			"-0.018": 0.0,
			"-0.017": 0.0,
			"-0.016": 0.0,
			"-0.015": 0.0,
			"-0.014": 0.0,
			"-0.013": 0.0,
			"-0.012": 0.0,
			"-0.011": 0.0,
			"-0.01": 0.0183792122562,
			"-0.009": 0.609001901042,
			"-0.008": 6.26923964226,
			"-0.007": 15.9632448581,
			"-0.006": 21.36292688,
			"-0.005": 21.0558477588,
			"-0.004": 23.0807972615,
			"-0.003": 18.9241787015,
			"-0.002": 17.8123727293,
			"-0.001": 24.8683391895,
			"0.0": 25.7432761402,
			"0.001": 21.1343373353,
			"0.002": 14.5680529227,
			"0.003": 13.6698937594,
			"0.004": 11.9118199422,
			"0.005": 11.0191733201,
			"0.006": 11.1889701992,
			"0.007": 13.8192514936,
			"0.008": 9.53817323454,
			"0.009": 6.38065688961,
			"0.01": 3.81309638322,
			"0.011": 2.2986883853,
			"0.012": 1.43322897981,
			"0.013": 0.700141588697,
			"0.014": 0.957928015359,
			"0.015": 0.652319060226,
			"0.016": 0.351254780152,
			"0.017": 0.0,
			"0.018": 0.0,
			"0.019": 0.0,
			"0.02": 0.0,
			"0.021": 0.0,
			"0.022": 0.0,
			"0.023": 0.0,
			"0.024": 0.0,
			"0.025": 0.0
		}
	}
}
