{
	 "smiles": "CCC#CC(C)C", 
	 "Tm": 156.15, 
	 "num_atms": 19, 
	 "gaussian": { 
		 "optdone": 1, 
		 "sigma_profile": "yes", 
		 "theory": "DFT", 
		 "functional": "B3LYP", 
		 "basiset": "6-31G**", 
		 "properties": { 
			 "R2extent": 1400.3983, 
			 "electric_dipole_moment_norm": 0.0979639729697, 
			 "electric_quadrupole_moment_norm": 4.02893843835, 
			 "total_energy": -273.931322286, 
			 "HOMO_LUMO_gap": 0.29946, 
			 "cosmo_polarized_energy": -3.05, 
			 "cosmo_cavitation_energy": 22.27, 
			 "cosmo_dispersion_energy": -15.78, 
			 "cosmo_repulsion_energy": 1.41, 
			 "cosmo_total_nonelectrostatic_energy": 7.9, 
			 "SMD_solvation_energy": 4.46 
		},
		"coords": [
			{
				"x": 2.1386877745,
				"y": -1.0302297284,
				"z": -2.2280433018,
				"element": "C" 
			},
			{
				"x": 1.8635023281,
				"y": -1.6618110515,
				"z": -0.850469533,
				"element": "C" 
			},
			{
				"x": 0.5484513177,
				"y": -1.3127525152,
				"z": -0.3075085616,
				"element": "C" 
			},
			{
				"x": -0.5433980247,
				"y": -1.0171926396,
				"z": 0.1245378041,
				"element": "C" 
			},
			{
				"x": -1.8629470472,
				"y": -0.6443026218,
				"z": 0.6533672264,
				"element": "C" 
			},
			{
				"x": -1.7332209886,
				"y": 0.1167584625,
				"z": 1.9888427436,
				"element": "C" 
			},
			{
				"x": -2.6657614265,
				"y": 0.172330586,
				"z": -0.3802079896,
				"element": "C" 
			},
			{
				"x": 3.1302301198,
				"y": -1.319023623,
				"z": -2.5910679322,
				"element": "H" 
			},
			{
				"x": 2.0976062992,
				"y": 0.06126304,
				"z": -2.1706989332,
				"element": "H" 
			},
			{
				"x": 1.395323587,
				"y": -1.3565590669,
				"z": -2.9610115993,
				"element": "H" 
			},
			{
				"x": 2.6438171383,
				"y": -1.3495154443,
				"z": -0.1434558179,
				"element": "H" 
			},
			{
				"x": 1.9476844428,
				"y": -2.75426759,
				"z": -0.9265134969,
				"element": "H" 
			},
			{
				"x": -2.4201584108,
				"y": -1.5720813203,
				"z": 0.8507380972,
				"element": "H" 
			},
			{
				"x": -2.7241934293,
				"y": 0.3489419265,
				"z": 2.3935309655,
				"element": "H" 
			},
			{
				"x": -1.1926057394,
				"y": 1.05775827,
				"z": 1.8443889357,
				"element": "H" 
			},
			{
				"x": -1.1881064412,
				"y": -0.47589438,
				"z": 2.7288047016,
				"element": "H" 
			},
			{
				"x": -2.7806323735,
				"y": -0.381012868,
				"z": -1.3164522348,
				"element": "H" 
			},
			{
				"x": -2.1566360301,
				"y": 1.1151840393,
				"z": -0.6047968551,
				"element": "H" 
			},
			{
				"x": -3.662843096,
				"y": 0.4050065245,
				"z": 0.0088157812,
				"element": "H" 
			}
		],
		 "valence_orbital": [ 
			{
				"type": "occ",
				"energy": -0.35641,
				"method": "rhf"
			},
			{
				"type": "occ",
				"energy": -0.344,
				"method": "rhf"
			},
			{
				"type": "occ",
				"energy": -0.3436,
				"method": "rhf"
			},
			{
				"type": "occ",
				"energy": -0.2397,
				"method": "rhf"
			},
			{
				"type": "occ",
				"energy": -0.23838,
				"method": "rhf"
			},
			{
				"type": "unocc",
				"energy": 0.06108,
				"method": "rhf"
			},
			{
				"type": "unocc",
				"energy": 0.06583,
				"method": "rhf"
			},
			{
				"type": "unocc",
				"energy": 0.10318,
				"method": "rhf"
			},
			{
				"type": "unocc",
				"energy": 0.11792,
				"method": "rhf"
			},
			{
				"type": "unocc",
				"energy": 0.14543,
				"method": "rhf"
			}
		],
		"cosmo_sigma_profile": { 
			"-0.025": 0.0,
			"-0.024": 0.0,
			"-0.023": 0.0,
			"-0.022": 0.0,
			"-0.021": 0.0,
			"-0.02": 0.0,
			"-0.019": 0.0,
			"-0.018": 0.0,
			"-0.017": 0.0,
			"-0.016": 0.0,
			"-0.015": 0.0,
			"-0.014": 0.0,
			"-0.013": 0.0,
			"-0.012": 0.0,
			"-0.011": 0.0,
			"-0.01": 0.0,
			"-0.009": 0.0,
			"-0.008": 0.0,
			"-0.007": 0.0,
			"-0.006": 0.0,
			"-0.005": 2.12921946747,
			"-0.004": 8.623246029,
			"-0.003": 23.4247692182,
			"-0.002": 27.3394142461,
			"-0.001": 30.1383832987,
			"0.0": 22.850950029,
			"0.001": 23.9311169759,
			"0.002": 6.87492046299,
			"0.003": 5.19662885606,
			"0.004": 3.89391846637,
			"0.005": 3.49778973985,
			"0.006": 3.91280626751,
			"0.007": 6.39170888503,
			"0.008": 5.69365514752,
			"0.009": 0.0377409854004,
			"0.01": 0.0,
			"0.011": 0.0,
			"0.012": 0.0,
			"0.013": 0.0,
			"0.014": 0.0,
			"0.015": 0.0,
			"0.016": 0.0,
			"0.017": 0.0,
			"0.018": 0.0,
			"0.019": 0.0,
			"0.02": 0.0,
			"0.021": 0.0,
			"0.022": 0.0,
			"0.023": 0.0,
			"0.024": 0.0,
			"0.025": 0.0
		}
	}
}
