{
	 "smiles": "CC1=CC2=C(CCCN2)C(C)=C1", 
	 "Tm": 308.15, 
	 "num_atms": 27, 
	 "gaussian": { 
		 "optdone": 1, 
		 "sigma_profile": "yes", 
		 "theory": "DFT", 
		 "functional": "B3LYP", 
		 "basiset": "6-31G**", 
		 "properties": { 
			 "R2extent": 2633.0809, 
			 "electric_dipole_moment_norm": 1.40114599168, 
			 "electric_quadrupole_moment_norm": 8.63003178094, 
			 "total_energy": -482.98733145, 
			 "HOMO_LUMO_gap": 0.19675, 
			 "cosmo_polarized_energy": -6.01, 
			 "cosmo_cavitation_energy": 27.78, 
			 "cosmo_dispersion_energy": -20.83, 
			 "cosmo_repulsion_energy": 1.66, 
			 "cosmo_total_nonelectrostatic_energy": 8.61, 
			 "SMD_solvation_energy": 3.18 
		},
		"coords": [
			{
				"x": 0.9064196146,
				"y": 1.1415997466,
				"z": -3.3771963432,
				"element": "C" 
			},
			{
				"x": 0.6694233643,
				"y": 0.967241586,
				"z": -1.8947392735,
				"element": "C" 
			},
			{
				"x": 0.4286068761,
				"y": 2.0675996531,
				"z": -1.0767457108,
				"element": "C" 
			},
			{
				"x": 0.2392201845,
				"y": 1.9214730238,
				"z": 0.3086726683,
				"element": "C" 
			},
			{
				"x": 0.2829012272,
				"y": 0.6377058928,
				"z": 0.8935038787,
				"element": "C" 
			},
			{
				"x": 0.0823319187,
				"y": 0.4754817202,
				"z": 2.3908531914,
				"element": "C" 
			},
			{
				"x": -0.5279765027,
				"y": 1.7228622745,
				"z": 3.0466011049,
				"element": "C" 
			},
			{
				"x": 0.1538776767,
				"y": 2.9864896201,
				"z": 2.5236572677,
				"element": "C" 
			},
			{
				"x": -0.0353692005,
				"y": 3.0540902354,
				"z": 1.082124979,
				"element": "N" 
			},
			{
				"x": 0.5286075949,
				"y": -0.4759353442,
				"z": 0.0668788462,
				"element": "C" 
			},
			{
				"x": 0.5952539386,
				"y": -1.8660138287,
				"z": 0.6582273688,
				"element": "C" 
			},
			{
				"x": 0.7170841463,
				"y": -0.3035848268,
				"z": -1.3073070822,
				"element": "C" 
			},
			{
				"x": 1.9786947197,
				"y": 1.1545181217,
				"z": -3.6108882515,
				"element": "H" 
			},
			{
				"x": 0.4808936967,
				"y": 2.0803018146,
				"z": -3.7446420408,
				"element": "H" 
			},
			{
				"x": 0.4624283241,
				"y": 0.3218848928,
				"z": -3.9512778733,
				"element": "H" 
			},
			{
				"x": 0.3810059817,
				"y": 3.0647848952,
				"z": -1.5113730663,
				"element": "H" 
			},
			{
				"x": -0.5573186787,
				"y": -0.3911981251,
				"z": 2.5958613664,
				"element": "H" 
			},
			{
				"x": 1.0466600898,
				"y": 0.2477940218,
				"z": 2.8703001644,
				"element": "H" 
			},
			{
				"x": -0.4338131045,
				"y": 1.6662879903,
				"z": 4.1363709079,
				"element": "H" 
			},
			{
				"x": -1.5965757563,
				"y": 1.7845401425,
				"z": 2.8106181211,
				"element": "H" 
			},
			{
				"x": 1.2219473641,
				"y": 2.9709488183,
				"z": 2.8067617208,
				"element": "H" 
			},
			{
				"x": -0.2899584791,
				"y": 3.8814626869,
				"z": 2.9729140823,
				"element": "H" 
			},
			{
				"x": 0.2635849982,
				"y": 3.9204847207,
				"z": 0.6558029776,
				"element": "H" 
			},
			{
				"x": 0.8401831155,
				"y": -2.6053845818,
				"z": -0.1087400646,
				"element": "H" 
			},
			{
				"x": 1.3546455191,
				"y": -1.9383729024,
				"z": 1.4462904792,
				"element": "H" 
			},
			{
				"x": -0.3583040643,
				"y": -2.1633468228,
				"z": 1.1125327608,
				"element": "H" 
			},
			{
				"x": 0.9041454351,
				"y": -1.1748154255,
				"z": -1.9307621793,
				"element": "H" 
			}
		],
		 "valence_orbital": [ 
			{
				"type": "occ",
				"energy": -0.31644,
				"method": "rhf"
			},
			{
				"type": "occ",
				"energy": -0.30949,
				"method": "rhf"
			},
			{
				"type": "occ",
				"energy": -0.27234,
				"method": "rhf"
			},
			{
				"type": "occ",
				"energy": -0.21687,
				"method": "rhf"
			},
			{
				"type": "occ",
				"energy": -0.18145,
				"method": "rhf"
			},
			{
				"type": "unocc",
				"energy": 0.0153,
				"method": "rhf"
			},
			{
				"type": "unocc",
				"energy": 0.02958,
				"method": "rhf"
			},
			{
				"type": "unocc",
				"energy": 0.08641,
				"method": "rhf"
			},
			{
				"type": "unocc",
				"energy": 0.10519,
				"method": "rhf"
			},
			{
				"type": "unocc",
				"energy": 0.1162,
				"method": "rhf"
			}
		],
		"cosmo_sigma_profile": { 
			"-0.025": 0.0,
			"-0.024": 0.0,
			"-0.023": 0.0,
			"-0.022": 0.0,
			"-0.021": 0.0,
			"-0.02": 0.0,
			"-0.019": 0.0,
			"-0.018": 0.0,
			"-0.017": 0.0,
			"-0.016": 0.0,
			"-0.015": 0.0,
			"-0.014": 0.0,
			"-0.013": 0.0,
			"-0.012": 0.397988231992,
			"-0.011": 1.45776146106,
			"-0.01": 1.01544642731,
			"-0.009": 1.45616453343,
			"-0.008": 1.74643529691,
			"-0.007": 0.732524991348,
			"-0.006": 1.48622295242,
			"-0.005": 2.66571470228,
			"-0.004": 11.3327992612,
			"-0.003": 27.1130451172,
			"-0.002": 31.5908605588,
			"-0.001": 32.978682801,
			"0.0": 28.9242240038,
			"0.001": 20.9014251999,
			"0.002": 8.430024559,
			"0.003": 7.09511663957,
			"0.004": 6.23667572517,
			"0.005": 6.13196339453,
			"0.006": 5.88628699459,
			"0.007": 7.86915804384,
			"0.008": 7.00099500648,
			"0.009": 1.94251773503,
			"0.01": 0.684527326191,
			"0.011": 0.628718917325,
			"0.012": 0.646458174285,
			"0.013": 0.348652073018,
			"0.014": 0.0689178863274,
			"0.015": 0.0,
			"0.016": 0.0,
			"0.017": 0.0,
			"0.018": 0.0,
			"0.019": 0.0,
			"0.02": 0.0,
			"0.021": 0.0,
			"0.022": 0.0,
			"0.023": 0.0,
			"0.024": 0.0,
			"0.025": 0.0
		}
	}
}
