{
	 "smiles": "ClC1=CC=C(C=CC#N)C=C1", 
	 "Tm": 319.15, 
	 "num_atms": 17, 
	 "gaussian": { 
		 "optdone": 1, 
		 "sigma_profile": "yes", 
		 "theory": "DFT", 
		 "functional": "B3LYP", 
		 "basiset": "6-31G**", 
		 "properties": { 
			 "R2extent": 2744.7594, 
			 "electric_dipole_moment_norm": 3.95321675728, 
			 "electric_quadrupole_moment_norm": 14.2712917362, 
			 "total_energy": -861.485858368, 
			 "HOMO_LUMO_gap": 0.16276, 
			 "cosmo_polarized_energy": -9.49, 
			 "cosmo_cavitation_energy": 24.41, 
			 "cosmo_dispersion_energy": -17.48, 
			 "cosmo_repulsion_energy": 1.39, 
			 "cosmo_total_nonelectrostatic_energy": 8.32, 
			 "SMD_solvation_energy": 5.28 
		},
		"coords": [
			{
				"x": -0.8347631607,
				"y": -0.572992937,
				"z": -3.7252049698,
				"element": "Cl" 
			},
			{
				"x": -0.2861556278,
				"y": -0.2281401617,
				"z": -2.0967752335,
				"element": "C" 
			},
			{
				"x": -0.5340708908,
				"y": 1.0280660464,
				"z": -1.5386236474,
				"element": "C" 
			},
			{
				"x": -0.0998653066,
				"y": 1.3040855203,
				"z": -0.2468729164,
				"element": "C" 
			},
			{
				"x": 0.5881989385,
				"y": 0.3321970085,
				"z": 0.5084936148,
				"element": "C" 
			},
			{
				"x": 1.0803947443,
				"y": 0.5330788315,
				"z": 1.8703499266,
				"element": "C" 
			},
			{
				"x": 1.014450859,
				"y": 1.6028358972,
				"z": 2.6966954029,
				"element": "C" 
			},
			{
				"x": 0.4121409988,
				"y": 2.8616276373,
				"z": 2.4146606779,
				"element": "C" 
			},
			{
				"x": -0.0703046436,
				"y": 3.9046233892,
				"z": 2.220616561,
				"element": "N" 
			},
			{
				"x": 0.8209623183,
				"y": -0.923813464,
				"z": -0.0861710437,
				"element": "C" 
			},
			{
				"x": 0.3916428932,
				"y": -1.2120163222,
				"z": -1.3771974261,
				"element": "C" 
			},
			{
				"x": -1.0623832999,
				"y": 1.7811988289,
				"z": -2.1123893293,
				"element": "H" 
			},
			{
				"x": -0.3007341774,
				"y": 2.2832367273,
				"z": 0.1698901209,
				"element": "H" 
			},
			{
				"x": 1.5884055045,
				"y": -0.3342847796,
				"z": 2.2874870315,
				"element": "H" 
			},
			{
				"x": 1.4580270759,
				"y": 1.5246228263,
				"z": 3.6852960493,
				"element": "H" 
			},
			{
				"x": 1.349343487,
				"y": -1.6887631825,
				"z": 0.4765271159,
				"element": "H" 
			},
			{
				"x": 0.5778102874,
				"y": -2.183061866,
				"z": -1.8218819346,
				"element": "H" 
			}
		],
		 "valence_orbital": [ 
			{
				"type": "occ",
				"energy": -0.33137,
				"method": "rhf"
			},
			{
				"type": "occ",
				"energy": -0.32231,
				"method": "rhf"
			},
			{
				"type": "occ",
				"energy": -0.30148,
				"method": "rhf"
			},
			{
				"type": "occ",
				"energy": -0.27854,
				"method": "rhf"
			},
			{
				"type": "occ",
				"energy": -0.24427,
				"method": "rhf"
			},
			{
				"type": "unocc",
				"energy": -0.08151,
				"method": "rhf"
			},
			{
				"type": "unocc",
				"energy": -0.02689,
				"method": "rhf"
			},
			{
				"type": "unocc",
				"energy": 0.00745,
				"method": "rhf"
			},
			{
				"type": "unocc",
				"energy": 0.01711,
				"method": "rhf"
			},
			{
				"type": "unocc",
				"energy": 0.02504,
				"method": "rhf"
			}
		],
		"cosmo_sigma_profile": { 
			"-0.025": 0.0,
			"-0.024": 0.0,
			"-0.023": 0.0,
			"-0.022": 0.0,
			"-0.021": 0.0,
			"-0.02": 0.0,
			"-0.019": 0.0,
			"-0.018": 0.0,
			"-0.017": 0.0,
			"-0.016": 0.0,
			"-0.015": 0.0,
			"-0.014": 0.0,
			"-0.013": 0.0,
			"-0.012": 0.0,
			"-0.011": 0.0,
			"-0.01": 0.205230363421,
			"-0.009": 3.66609760882,
			"-0.008": 8.66901715133,
			"-0.007": 10.108088269,
			"-0.006": 9.65394822004,
			"-0.005": 8.61633223906,
			"-0.004": 6.82198628419,
			"-0.003": 8.91110117007,
			"-0.002": 13.7321558005,
			"-0.001": 15.3958134298,
			"0.0": 17.7775439303,
			"0.001": 23.1939432574,
			"0.002": 23.8460626423,
			"0.003": 12.92384233,
			"0.004": 12.2466414233,
			"0.005": 4.67769234614,
			"0.006": 2.06581699215,
			"0.007": 2.48059261167,
			"0.008": 2.63479850692,
			"0.009": 3.14007983501,
			"0.01": 2.65453129938,
			"0.011": 2.70533921213,
			"0.012": 2.40598792703,
			"0.013": 1.66083857474,
			"0.014": 0.085784569441,
			"0.015": 0.0,
			"0.016": 0.0,
			"0.017": 0.0,
			"0.018": 0.0,
			"0.019": 0.0,
			"0.02": 0.0,
			"0.021": 0.0,
			"0.022": 0.0,
			"0.023": 0.0,
			"0.024": 0.0,
			"0.025": 0.0
		}
	}
}
