{
	 "smiles": "CP(F)(=O)OC1CCCCC1", 
	 "Tm": 243.15, 
	 "num_atms": 25, 
	 "gaussian": { 
		 "optdone": 1, 
		 "sigma_profile": "yes", 
		 "theory": "DFT", 
		 "functional": "B3LYP", 
		 "basiset": "6-31G**", 
		 "properties": { 
			 "R2extent": 2662.9153, 
			 "electric_dipole_moment_norm": 3.07455788041, 
			 "electric_quadrupole_moment_norm": 16.8175684886, 
			 "total_energy": -866.9309658, 
			 "HOMO_LUMO_gap": 0.3509, 
			 "cosmo_polarized_energy": -9.81, 
			 "cosmo_cavitation_energy": 27.92, 
			 "cosmo_dispersion_energy": -20.24, 
			 "cosmo_repulsion_energy": 1.61, 
			 "cosmo_total_nonelectrostatic_energy": 9.29, 
			 "SMD_solvation_energy": 5.81 
		},
		"coords": [
			{
				"x": 2.0949277382,
				"y": 3.2398895967,
				"z": -0.5155051934,
				"element": "C" 
			},
			{
				"x": 1.2423812288,
				"y": 2.0264081664,
				"z": -1.5406953019,
				"element": "P" 
			},
			{
				"x": -0.2655304953,
				"y": 2.5625977647,
				"z": -1.494000159,
				"element": "F" 
			},
			{
				"x": 1.7222625611,
				"y": 1.8141909883,
				"z": -2.9229191045,
				"element": "O" 
			},
			{
				"x": 1.1883138106,
				"y": 0.7400931298,
				"z": -0.5833507244,
				"element": "O" 
			},
			{
				"x": 0.920160386,
				"y": -0.5945184484,
				"z": -1.1418346317,
				"element": "C" 
			},
			{
				"x": -0.5923592328,
				"y": -0.8241843338,
				"z": -1.2273138502,
				"element": "C" 
			},
			{
				"x": -1.2530413313,
				"y": -0.8838340325,
				"z": 0.1585915706,
				"element": "C" 
			},
			{
				"x": -0.5687852051,
				"y": -1.9209325672,
				"z": 1.0631953839,
				"element": "C" 
			},
			{
				"x": 0.9413316441,
				"y": -1.6570431257,
				"z": 1.1727902261,
				"element": "C" 
			},
			{
				"x": 1.6033419696,
				"y": -1.5982501473,
				"z": -0.2130137059,
				"element": "C" 
			},
			{
				"x": 1.6417842369,
				"y": 3.2876048622,
				"z": 0.476828293,
				"element": "H" 
			},
			{
				"x": 3.1449028667,
				"y": 2.9548717838,
				"z": -0.4236657249,
				"element": "H" 
			},
			{
				"x": 2.0316278694,
				"y": 4.2195081367,
				"z": -0.9942310844,
				"element": "H" 
			},
			{
				"x": 1.3697877105,
				"y": -0.6224557436,
				"z": -2.1388404703,
				"element": "H" 
			},
			{
				"x": -1.0515403792,
				"y": -0.0460958003,
				"z": -1.8460303777,
				"element": "H" 
			},
			{
				"x": -0.7472441574,
				"y": -1.7760750632,
				"z": -1.7536967567,
				"element": "H" 
			},
			{
				"x": -1.1921908224,
				"y": 0.1064724971,
				"z": 0.6263968222,
				"element": "H" 
			},
			{
				"x": -2.3188784691,
				"y": -1.1144825111,
				"z": 0.0492022112,
				"element": "H" 
			},
			{
				"x": -0.7322793388,
				"y": -2.9269591014,
				"z": 0.6499912644,
				"element": "H" 
			},
			{
				"x": -1.026921727,
				"y": -1.9159540651,
				"z": 2.0592316952,
				"element": "H" 
			},
			{
				"x": 1.1079818095,
				"y": -0.7034096255,
				"z": 1.6886211003,
				"element": "H" 
			},
			{
				"x": 1.4233726494,
				"y": -2.4323813568,
				"z": 1.7793992647,
				"element": "H" 
			},
			{
				"x": 1.5425403987,
				"y": -2.5831340789,
				"z": -0.6953509131,
				"element": "H" 
			},
			{
				"x": 2.6666542789,
				"y": -1.3485269249,
				"z": -0.1308998335,
				"element": "H" 
			}
		],
		 "valence_orbital": [ 
			{
				"type": "occ",
				"energy": -0.32254,
				"method": "rhf"
			},
			{
				"type": "occ",
				"energy": -0.30474,
				"method": "rhf"
			},
			{
				"type": "occ",
				"energy": -0.30391,
				"method": "rhf"
			},
			{
				"type": "occ",
				"energy": -0.29308,
				"method": "rhf"
			},
			{
				"type": "occ",
				"energy": -0.29023,
				"method": "rhf"
			},
			{
				"type": "unocc",
				"energy": 0.06067,
				"method": "rhf"
			},
			{
				"type": "unocc",
				"energy": 0.07836,
				"method": "rhf"
			},
			{
				"type": "unocc",
				"energy": 0.09288,
				"method": "rhf"
			},
			{
				"type": "unocc",
				"energy": 0.09458,
				"method": "rhf"
			},
			{
				"type": "unocc",
				"energy": 0.10839,
				"method": "rhf"
			}
		],
		"cosmo_sigma_profile": { 
			"-0.025": 0.0,
			"-0.024": 0.0,
			"-0.023": 0.0,
			"-0.022": 0.0,
			"-0.021": 0.0,
			"-0.02": 0.0,
			"-0.019": 0.0,
			"-0.018": 0.0,
			"-0.017": 0.0,
			"-0.016": 0.0,
			"-0.015": 0.0,
			"-0.014": 0.0,
			"-0.013": 0.0,
			"-0.012": 0.0,
			"-0.011": 0.0,
			"-0.01": 0.0,
			"-0.009": 0.168525384957,
			"-0.008": 3.93732247175,
			"-0.007": 6.52688898514,
			"-0.006": 4.39354409399,
			"-0.005": 7.09205916897,
			"-0.004": 13.3249937984,
			"-0.003": 24.9551296155,
			"-0.002": 29.2014860385,
			"-0.001": 28.5554421851,
			"0.0": 28.0161300687,
			"0.001": 18.0028989184,
			"0.002": 7.72209054167,
			"0.003": 5.54357654208,
			"0.004": 9.9459037267,
			"0.005": 6.54622403115,
			"0.006": 2.67744675382,
			"0.007": 1.74069411304,
			"0.008": 1.33418259767,
			"0.009": 1.16929817634,
			"0.01": 0.78400732993,
			"0.011": 0.76765922828,
			"0.012": 1.56969725543,
			"0.013": 2.86102463586,
			"0.014": 6.83191105144,
			"0.015": 1.1525366242,
			"0.016": 0.0,
			"0.017": 0.0,
			"0.018": 0.0,
			"0.019": 0.0,
			"0.02": 0.0,
			"0.021": 0.0,
			"0.022": 0.0,
			"0.023": 0.0,
			"0.024": 0.0,
			"0.025": 0.0
		}
	}
}
