{
	 "smiles": "CC(C)(C)C1=CC(N)=C(S1)C(N)=O", 
	 "Tm": 420.15, 
	 "num_atms": 27, 
	 "gaussian": { 
		 "optdone": 1, 
		 "sigma_profile": "yes", 
		 "theory": "DFT", 
		 "functional": "B3LYP", 
		 "basiset": "6-31G**", 
		 "properties": { 
			 "R2extent": 3729.9885, 
			 "electric_dipole_moment_norm": 2.87534166318, 
			 "electric_quadrupole_moment_norm": 14.1110709299, 
			 "total_energy": -934.340884329, 
			 "HOMO_LUMO_gap": 0.16587, 
			 "cosmo_polarized_energy": -13.56, 
			 "cosmo_cavitation_energy": 30.32, 
			 "cosmo_dispersion_energy": -22.43, 
			 "cosmo_repulsion_energy": 1.74, 
			 "cosmo_total_nonelectrostatic_energy": 9.63, 
			 "SMD_solvation_energy": 5.58 
		},
		"coords": [
			{
				"x": 1.7346237147,
				"y": -2.1916700868,
				"z": -2.4465950328,
				"element": "C" 
			},
			{
				"x": 1.1353131995,
				"y": -1.9501132602,
				"z": -1.0407529601,
				"element": "C" 
			},
			{
				"x": 0.0523966095,
				"y": -3.0131153413,
				"z": -0.7717409895,
				"element": "C" 
			},
			{
				"x": 2.2502757363,
				"y": -2.0924696608,
				"z": 0.0227029329,
				"element": "C" 
			},
			{
				"x": 0.5289529401,
				"y": -0.5551609539,
				"z": -0.9689106986,
				"element": "C" 
			},
			{
				"x": -0.7629639801,
				"y": -0.1960345325,
				"z": -0.6972330947,
				"element": "C" 
			},
			{
				"x": -0.9989139524,
				"y": 1.2203566188,
				"z": -0.7036099845,
				"element": "C" 
			},
			{
				"x": -2.21119751,
				"y": 1.786943143,
				"z": -0.4116351971,
				"element": "N" 
			},
			{
				"x": 0.1548955845,
				"y": 1.945867258,
				"z": -0.9881568235,
				"element": "C" 
			},
			{
				"x": 1.5190979109,
				"y": 0.862960395,
				"z": -1.2508734618,
				"element": "S" 
			},
			{
				"x": 0.2047976539,
				"y": 3.3982374024,
				"z": -1.1005921908,
				"element": "C" 
			},
			{
				"x": 1.4243124799,
				"y": 3.9823993549,
				"z": -1.3642135018,
				"element": "N" 
			},
			{
				"x": -0.8164605532,
				"y": 4.0955700707,
				"z": -1.0002218555,
				"element": "O" 
			},
			{
				"x": 2.5325848937,
				"y": -1.4774298951,
				"z": -2.6712283883,
				"element": "H" 
			},
			{
				"x": 2.1579063272,
				"y": -3.2002693076,
				"z": -2.5082380555,
				"element": "H" 
			},
			{
				"x": 0.9684543856,
				"y": -2.0930618334,
				"z": -3.2218652707,
				"element": "H" 
			},
			{
				"x": -0.7525197574,
				"y": -2.9627373921,
				"z": -1.5118403506,
				"element": "H" 
			},
			{
				"x": -0.3865663384,
				"y": -2.8966632009,
				"z": 0.2241750207,
				"element": "H" 
			},
			{
				"x": 0.4953006069,
				"y": -4.012552968,
				"z": -0.8268682574,
				"element": "H" 
			},
			{
				"x": 3.0593379655,
				"y": -1.3754015281,
				"z": -0.14616159,
				"element": "H" 
			},
			{
				"x": 1.8557817925,
				"y": -1.9225548941,
				"z": 1.029328897,
				"element": "H" 
			},
			{
				"x": 2.6793795549,
				"y": -3.0999005291,
				"z": -0.0127027979,
				"element": "H" 
			},
			{
				"x": -1.5482788361,
				"y": -0.9118849228,
				"z": -0.4850581443,
				"element": "H" 
			},
			{
				"x": -3.0366940094,
				"y": 1.2295947727,
				"z": -0.5672479211,
				"element": "H" 
			},
			{
				"x": -2.2614774505,
				"y": 2.7791042276,
				"z": -0.625256691,
				"element": "H" 
			},
			{
				"x": 2.2816038041,
				"y": 3.4996273311,
				"z": -1.1408462318,
				"element": "H" 
			},
			{
				"x": 1.437757228,
				"y": 4.9888597328,
				"z": -1.286057361,
				"element": "H" 
			}
		],
		 "valence_orbital": [ 
			{
				"type": "occ",
				"energy": -0.30348,
				"method": "rhf"
			},
			{
				"type": "occ",
				"energy": -0.26186,
				"method": "rhf"
			},
			{
				"type": "occ",
				"energy": -0.24593,
				"method": "rhf"
			},
			{
				"type": "occ",
				"energy": -0.23687,
				"method": "rhf"
			},
			{
				"type": "occ",
				"energy": -0.19392,
				"method": "rhf"
			},
			{
				"type": "unocc",
				"energy": -0.02805,
				"method": "rhf"
			},
			{
				"type": "unocc",
				"energy": 0.02091,
				"method": "rhf"
			},
			{
				"type": "unocc",
				"energy": 0.05057,
				"method": "rhf"
			},
			{
				"type": "unocc",
				"energy": 0.07324,
				"method": "rhf"
			},
			{
				"type": "unocc",
				"energy": 0.09043,
				"method": "rhf"
			}
		],
		"cosmo_sigma_profile": { 
			"-0.025": 0.0,
			"-0.024": 0.0,
			"-0.023": 0.0,
			"-0.022": 0.0,
			"-0.021": 0.0,
			"-0.02": 0.0,
			"-0.019": 0.0,
			"-0.018": 0.0,
			"-0.017": 0.0,
			"-0.016": 0.0,
			"-0.015": 0.0,
			"-0.014": 0.369276121627,
			"-0.013": 2.86966088588,
			"-0.012": 3.59085815972,
			"-0.011": 3.05113378294,
			"-0.01": 3.79943950984,
			"-0.009": 3.89668421919,
			"-0.008": 4.49780449378,
			"-0.007": 3.82928959858,
			"-0.006": 5.08387472899,
			"-0.005": 3.71229349254,
			"-0.004": 9.51196317201,
			"-0.003": 25.4387445115,
			"-0.002": 22.3857645425,
			"-0.001": 20.5203891463,
			"0.0": 23.4565240869,
			"0.001": 22.799687439,
			"0.002": 11.3885418209,
			"0.003": 12.429082365,
			"0.004": 15.227718511,
			"0.005": 12.1537603848,
			"0.006": 6.61936718079,
			"0.007": 3.42659753836,
			"0.008": 3.16639234913,
			"0.009": 2.58314787713,
			"0.01": 2.3831405213,
			"0.011": 2.39454370705,
			"0.012": 2.38271032611,
			"0.013": 2.3158056227,
			"0.014": 2.60043464069,
			"0.015": 1.14502583258,
			"0.016": 0.0,
			"0.017": 0.0,
			"0.018": 0.0,
			"0.019": 0.0,
			"0.02": 0.0,
			"0.021": 0.0,
			"0.022": 0.0,
			"0.023": 0.0,
			"0.024": 0.0,
			"0.025": 0.0
		}
	}
}
