{
	 "smiles": "FC(F)(F)CNC(=O)CCl", 
	 "Tm": 325.15, 
	 "num_atms": 15, 
	 "gaussian": { 
		 "optdone": 1, 
		 "sigma_profile": "yes", 
		 "theory": "DFT", 
		 "functional": "B3LYP", 
		 "basiset": "6-31G**", 
		 "properties": { 
			 "R2extent": 2413.3143, 
			 "electric_dipole_moment_norm": 1.73786448263, 
			 "electric_quadrupole_moment_norm": 6.0322833521, 
			 "total_energy": -1045.1513376, 
			 "HOMO_LUMO_gap": 0.27732, 
			 "cosmo_polarized_energy": -9.97, 
			 "cosmo_cavitation_energy": 22.66, 
			 "cosmo_dispersion_energy": -15.99, 
			 "cosmo_repulsion_energy": 1.28, 
			 "cosmo_total_nonelectrostatic_energy": 7.95, 
			 "SMD_solvation_energy": 5.09 
		},
		"coords": [
			{
				"x": 2.0573131975,
				"y": 0.0343647926,
				"z": -2.0480446147,
				"element": "F" 
			},
			{
				"x": 2.2900983593,
				"y": -1.1274634874,
				"z": -1.4139353713,
				"element": "C" 
			},
			{
				"x": 3.6208705074,
				"y": -1.3376179978,
				"z": -1.3911848112,
				"element": "F" 
			},
			{
				"x": 1.7276698176,
				"y": -2.1142699595,
				"z": -2.1521198674,
				"element": "F" 
			},
			{
				"x": 1.7310966974,
				"y": -1.129070809,
				"z": -0.0000466774,
				"element": "C" 
			},
			{
				"x": 0.2975530381,
				"y": -0.9629710649,
				"z": 0.0074670615,
				"element": "N" 
			},
			{
				"x": -0.2787036531,
				"y": 0.182625353,
				"z": 0.4609387913,
				"element": "C" 
			},
			{
				"x": 0.3333793236,
				"y": 1.1173505039,
				"z": 0.95643638,
				"element": "O" 
			},
			{
				"x": -1.7998801888,
				"y": 0.3040214508,
				"z": 0.3637112566,
				"element": "C" 
			},
			{
				"x": -2.6876434628,
				"y": -1.1094386291,
				"z": -0.3479288424,
				"element": "Cl" 
			},
			{
				"x": 2.0248716651,
				"y": -2.0710479859,
				"z": 0.4738569158,
				"element": "H" 
			},
			{
				"x": 2.1680710855,
				"y": -0.2965824001,
				"z": 0.5544470647,
				"element": "H" 
			},
			{
				"x": -0.2845363299,
				"y": -1.6665229249,
				"z": -0.4257776095,
				"element": "H" 
			},
			{
				"x": -2.0333450921,
				"y": 1.1744630298,
				"z": -0.2498855642,
				"element": "H" 
			},
			{
				"x": -2.1949149648,
				"y": 0.4637601284,
				"z": 1.367065888,
				"element": "H" 
			}
		],
		 "valence_orbital": [ 
			{
				"type": "occ",
				"energy": -0.38208,
				"method": "rhf"
			},
			{
				"type": "occ",
				"energy": -0.33456,
				"method": "rhf"
			},
			{
				"type": "occ",
				"energy": -0.31994,
				"method": "rhf"
			},
			{
				"type": "occ",
				"energy": -0.28199,
				"method": "rhf"
			},
			{
				"type": "occ",
				"energy": -0.27466,
				"method": "rhf"
			},
			{
				"type": "unocc",
				"energy": 0.00266,
				"method": "rhf"
			},
			{
				"type": "unocc",
				"energy": 0.0056,
				"method": "rhf"
			},
			{
				"type": "unocc",
				"energy": 0.08319,
				"method": "rhf"
			},
			{
				"type": "unocc",
				"energy": 0.09943,
				"method": "rhf"
			},
			{
				"type": "unocc",
				"energy": 0.11478,
				"method": "rhf"
			}
		],
		"cosmo_sigma_profile": { 
			"-0.025": 0.0,
			"-0.024": 0.0,
			"-0.023": 0.0,
			"-0.022": 0.0,
			"-0.021": 0.0,
			"-0.02": 0.0,
			"-0.019": 0.0,
			"-0.018": 0.0,
			"-0.017": 0.0,
			"-0.016": 0.0,
			"-0.015": 0.0,
			"-0.014": 0.0,
			"-0.013": 0.172888166458,
			"-0.012": 0.748622853928,
			"-0.011": 0.641918843568,
			"-0.01": 1.86913629815,
			"-0.009": 6.35734414868,
			"-0.008": 8.185508845,
			"-0.007": 9.32179213868,
			"-0.006": 8.10637774034,
			"-0.005": 9.48970162453,
			"-0.004": 6.82024449356,
			"-0.003": 6.86413884046,
			"-0.002": 8.09345009962,
			"-0.001": 9.06184404079,
			"0.0": 9.46575915512,
			"0.001": 12.0166073659,
			"0.002": 24.348121937,
			"0.003": 28.94952391,
			"0.004": 6.05246204445,
			"0.005": 8.52294301147,
			"0.006": 2.85214584377,
			"0.007": 1.35282299198,
			"0.008": 1.02139068694,
			"0.009": 0.956935798315,
			"0.01": 1.45904625997,
			"0.011": 1.99505689451,
			"0.012": 4.12006930926,
			"0.013": 3.26810408226,
			"0.014": 0.302921073374,
			"0.015": 0.0,
			"0.016": 0.0,
			"0.017": 0.0,
			"0.018": 0.0,
			"0.019": 0.0,
			"0.02": 0.0,
			"0.021": 0.0,
			"0.022": 0.0,
			"0.023": 0.0,
			"0.024": 0.0,
			"0.025": 0.0
		}
	}
}
