{
	 "smiles": "COC(=O)C1=CN=C(C=C1)C1=CC=CS1", 
	 "Tm": 391.15, 
	 "num_atms": 24, 
	 "gaussian": { 
		 "optdone": 1, 
		 "sigma_profile": "yes", 
		 "theory": "DFT", 
		 "functional": "B3LYP", 
		 "basiset": "6-31G**", 
		 "properties": { 
			 "R2extent": 5214.9619, 
			 "electric_dipole_moment_norm": 1.11513311313, 
			 "electric_quadrupole_moment_norm": 15.4421156018, 
			 "total_energy": -1027.97950798, 
			 "HOMO_LUMO_gap": 0.15358, 
			 "cosmo_polarized_energy": -9.52, 
			 "cosmo_cavitation_energy": 30.69, 
			 "cosmo_dispersion_energy": -23.19, 
			 "cosmo_repulsion_energy": 1.74, 
			 "cosmo_total_nonelectrostatic_energy": 9.24, 
			 "SMD_solvation_energy": 5.73 
		},
		"coords": [
			{
				"x": -2.5078051738,
				"y": 4.2662524735,
				"z": -2.4196133157,
				"element": "C" 
			},
			{
				"x": -2.1513876619,
				"y": 3.0579525775,
				"z": -1.7297570756,
				"element": "O" 
			},
			{
				"x": -0.942018017,
				"y": 2.5458815631,
				"z": -2.0525223173,
				"element": "C" 
			},
			{
				"x": -0.1955365443,
				"y": 3.0572184442,
				"z": -2.8655164108,
				"element": "O" 
			},
			{
				"x": -0.6368095762,
				"y": 1.3003063164,
				"z": -1.3045644133,
				"element": "C" 
			},
			{
				"x": -1.511618435,
				"y": 0.7258214751,
				"z": -0.3699425329,
				"element": "C" 
			},
			{
				"x": -1.2451258912,
				"y": -0.3901034457,
				"z": 0.3040607729,
				"element": "N" 
			},
			{
				"x": -0.0663665882,
				"y": -1.0113364585,
				"z": 0.0809906959,
				"element": "C" 
			},
			{
				"x": 0.8750160707,
				"y": -0.5087798513,
				"z": -0.8387723757,
				"element": "C" 
			},
			{
				"x": 0.5841501173,
				"y": 0.6542267592,
				"z": -1.5336182129,
				"element": "C" 
			},
			{
				"x": 0.1618766233,
				"y": -2.2325237221,
				"z": 0.8551602167,
				"element": "C" 
			},
			{
				"x": -0.6959901176,
				"y": -2.7987345093,
				"z": 1.7728077728,
				"element": "C" 
			},
			{
				"x": -0.1883847669,
				"y": -3.9886363319,
				"z": 2.3615036469,
				"element": "C" 
			},
			{
				"x": 1.0535394015,
				"y": -4.3247307166,
				"z": 1.8907449495,
				"element": "C" 
			},
			{
				"x": 1.6247240417,
				"y": -3.1882606368,
				"z": 0.7161888462,
				"element": "S" 
			},
			{
				"x": -3.495252793,
				"y": 4.5372492322,
				"z": -2.0467263458,
				"element": "H" 
			},
			{
				"x": -2.5370514827,
				"y": 4.0986055053,
				"z": -3.4992274808,
				"element": "H" 
			},
			{
				"x": -1.7854950526,
				"y": 5.0583323066,
				"z": -2.2065289971,
				"element": "H" 
			},
			{
				"x": -2.4687368222,
				"y": 1.1977808303,
				"z": -0.1646898046,
				"element": "H" 
			},
			{
				"x": 1.8161269145,
				"y": -1.0238506824,
				"z": -1.0027363568,
				"element": "H" 
			},
			{
				"x": 1.2780713341,
				"y": 1.0787250169,
				"z": -2.2518148039,
				"element": "H" 
			},
			{
				"x": -1.6560247504,
				"y": -2.3521705867,
				"z": 1.9980529206,
				"element": "H" 
			},
			{
				"x": -0.7214502205,
				"y": -4.5719380695,
				"z": 3.1034742311,
				"element": "H" 
			},
			{
				"x": 1.6691493905,
				"y": -5.1712874896,
				"z": 2.1620463906,
				"element": "H" 
			}
		],
		 "valence_orbital": [ 
			{
				"type": "occ",
				"energy": -0.28705,
				"method": "rhf"
			},
			{
				"type": "occ",
				"energy": -0.28247,
				"method": "rhf"
			},
			{
				"type": "occ",
				"energy": -0.26047,
				"method": "rhf"
			},
			{
				"type": "occ",
				"energy": -0.25778,
				"method": "rhf"
			},
			{
				"type": "occ",
				"energy": -0.2235,
				"method": "rhf"
			},
			{
				"type": "unocc",
				"energy": -0.06992,
				"method": "rhf"
			},
			{
				"type": "unocc",
				"energy": -0.02673,
				"method": "rhf"
			},
			{
				"type": "unocc",
				"energy": -0.00761,
				"method": "rhf"
			},
			{
				"type": "unocc",
				"energy": 0.02391,
				"method": "rhf"
			},
			{
				"type": "unocc",
				"energy": 0.04662,
				"method": "rhf"
			}
		],
		"cosmo_sigma_profile": { 
			"-0.025": 0.0,
			"-0.024": 0.0,
			"-0.023": 0.0,
			"-0.022": 0.0,
			"-0.021": 0.0,
			"-0.02": 0.0,
			"-0.019": 0.0,
			"-0.018": 0.0,
			"-0.017": 0.0,
			"-0.016": 0.0,
			"-0.015": 0.0,
			"-0.014": 0.0,
			"-0.013": 0.0,
			"-0.012": 0.0,
			"-0.011": 0.0,
			"-0.01": 0.0,
			"-0.009": 1.54042914077,
			"-0.008": 3.10753394502,
			"-0.007": 7.65385548512,
			"-0.006": 15.1953715123,
			"-0.005": 15.0219577653,
			"-0.004": 19.6901177153,
			"-0.003": 18.4163404239,
			"-0.002": 16.5164006409,
			"-0.001": 19.2563466287,
			"0.0": 23.6095277675,
			"0.001": 22.8315812794,
			"0.002": 17.1558667101,
			"0.003": 19.4135011847,
			"0.004": 18.6464865048,
			"0.005": 6.94326414024,
			"0.006": 3.85095327599,
			"0.007": 3.25510995671,
			"0.008": 2.83188174577,
			"0.009": 2.59855772441,
			"0.01": 2.68649328682,
			"0.011": 4.78084003406,
			"0.012": 4.02062907908,
			"0.013": 0.0900412870191,
			"0.014": 0.0,
			"0.015": 0.0,
			"0.016": 0.0,
			"0.017": 0.0,
			"0.018": 0.0,
			"0.019": 0.0,
			"0.02": 0.0,
			"0.021": 0.0,
			"0.022": 0.0,
			"0.023": 0.0,
			"0.024": 0.0,
			"0.025": 0.0
		}
	}
}
