{
	 "smiles": "O=C1N=NNC2=CC=CC=C12", 
	 "Tm": 496.15, 
	 "num_atms": 16, 
	 "gaussian": { 
		 "optdone": 1, 
		 "sigma_profile": "yes", 
		 "theory": "DFT", 
		 "functional": "B3LYP", 
		 "basiset": "6-31G**", 
		 "properties": { 
			 "R2extent": 1765.3553, 
			 "electric_dipole_moment_norm": 7.02410197677, 
			 "electric_quadrupole_moment_norm": 13.8765884666, 
			 "total_energy": -509.180200104, 
			 "HOMO_LUMO_gap": 0.15969, 
			 "cosmo_polarized_energy": -20.36, 
			 "cosmo_cavitation_energy": 20.83, 
			 "cosmo_dispersion_energy": -15.86, 
			 "cosmo_repulsion_energy": 1.25, 
			 "cosmo_total_nonelectrostatic_energy": 6.22, 
			 "SMD_solvation_energy": 2.89 
		},
		"coords": [
			{
				"x": 1.9030082971,
				"y": 1.1703610135,
				"z": 2.5669242489,
				"element": "O" 
			},
			{
				"x": 1.1883711621,
				"y": 1.4428266472,
				"z": 1.6179217983,
				"element": "C" 
			},
			{
				"x": 0.5441360976,
				"y": 2.7283152775,
				"z": 1.5827651723,
				"element": "N" 
			},
			{
				"x": -0.2117325502,
				"y": 3.0736728454,
				"z": 0.624442094,
				"element": "N" 
			},
			{
				"x": -0.4383173515,
				"y": 2.231672332,
				"z": -0.4093247928,
				"element": "N" 
			},
			{
				"x": 0.093355147,
				"y": 0.9655557456,
				"z": -0.5419284958,
				"element": "C" 
			},
			{
				"x": -0.1839642128,
				"y": 0.1399385013,
				"z": -1.64478163,
				"element": "C" 
			},
			{
				"x": 0.3956971908,
				"y": -1.119404537,
				"z": -1.6941376225,
				"element": "C" 
			},
			{
				"x": 1.2447469352,
				"y": -1.5679434066,
				"z": -0.6653453757,
				"element": "C" 
			},
			{
				"x": 1.5132397406,
				"y": -0.7468806893,
				"z": 0.4195073024,
				"element": "C" 
			},
			{
				"x": 0.9386549501,
				"y": 0.5310338677,
				"z": 0.491856207,
				"element": "C" 
			},
			{
				"x": -1.0562788352,
				"y": 2.6229792008,
				"z": -1.1061230098,
				"element": "H" 
			},
			{
				"x": -0.839320382,
				"y": 0.4860773646,
				"z": -2.4389303787,
				"element": "H" 
			},
			{
				"x": 0.1888120245,
				"y": -1.766423066,
				"z": -2.5413418325,
				"element": "H" 
			},
			{
				"x": 1.6870401834,
				"y": -2.5571759965,
				"z": -0.7254856775,
				"element": "H" 
			},
			{
				"x": 2.1623516033,
				"y": -1.0580051002,
				"z": 1.2310819924,
				"element": "H" 
			}
		],
		 "valence_orbital": [ 
			{
				"type": "occ",
				"energy": -0.32062,
				"method": "rhf"
			},
			{
				"type": "occ",
				"energy": -0.28835,
				"method": "rhf"
			},
			{
				"type": "occ",
				"energy": -0.28072,
				"method": "rhf"
			},
			{
				"type": "occ",
				"energy": -0.2476,
				"method": "rhf"
			},
			{
				"type": "occ",
				"energy": -0.23762,
				"method": "rhf"
			},
			{
				"type": "unocc",
				"energy": -0.07793,
				"method": "rhf"
			},
			{
				"type": "unocc",
				"energy": -0.05015,
				"method": "rhf"
			},
			{
				"type": "unocc",
				"energy": -0.00962,
				"method": "rhf"
			},
			{
				"type": "unocc",
				"energy": 0.05754,
				"method": "rhf"
			},
			{
				"type": "unocc",
				"energy": 0.06342,
				"method": "rhf"
			}
		],
		"cosmo_sigma_profile": { 
			"-0.025": 0.0,
			"-0.024": 0.0,
			"-0.023": 0.0,
			"-0.022": 0.0,
			"-0.021": 0.0,
			"-0.02": 0.0,
			"-0.019": 0.0200648016872,
			"-0.018": 1.26120547482,
			"-0.017": 1.73574459938,
			"-0.016": 1.08158706046,
			"-0.015": 1.6047103446,
			"-0.014": 1.4645956054,
			"-0.013": 1.07830434723,
			"-0.012": 0.899559412322,
			"-0.011": 1.18170656149,
			"-0.01": 1.42551420026,
			"-0.009": 1.71812002463,
			"-0.008": 3.27227857283,
			"-0.007": 8.54969594817,
			"-0.006": 11.1094528309,
			"-0.005": 9.64364548581,
			"-0.004": 9.20145940914,
			"-0.003": 9.45456500038,
			"-0.002": 9.39571829104,
			"-0.001": 8.6689845191,
			"0.0": 11.9411607784,
			"0.001": 12.3582079739,
			"0.002": 12.6768462295,
			"0.003": 5.54574036941,
			"0.004": 2.9967649308,
			"0.005": 3.14424470039,
			"0.006": 2.27209509295,
			"0.007": 2.62698055612,
			"0.008": 3.43439365678,
			"0.009": 3.74630211709,
			"0.01": 4.41900459569,
			"0.011": 4.94752046488,
			"0.012": 6.00605862687,
			"0.013": 4.55045101559,
			"0.014": 3.55321148807,
			"0.015": 1.19056427337,
			"0.016": 0.0789778416109,
			"0.017": 0.0,
			"0.018": 0.0,
			"0.019": 0.0,
			"0.02": 0.0,
			"0.021": 0.0,
			"0.022": 0.0,
			"0.023": 0.0,
			"0.024": 0.0,
			"0.025": 0.0
		}
	}
}
