{
	 "smiles": "O=CC1=CC=C(OP(=S)(OC2=CC=C(C=O)C=C2)OC2=CC=C(C=O)C=C2)C=C1", 
	 "Tm": 390.15, 
	 "num_atms": 44, 
	 "gaussian": { 
		 "optdone": 1, 
		 "sigma_profile": "yes", 
		 "theory": "DFT", 
		 "functional": "B3LYP", 
		 "basiset": "6-31G**", 
		 "properties": { 
			 "R2extent": 16562.2757, 
			 "electric_dipole_moment_norm": 3.80440488382, 
			 "electric_quadrupole_moment_norm": 32.6330393771, 
			 "total_energy": -2000.18955774, 
			 "HOMO_LUMO_gap": 0.18432, 
			 "cosmo_polarized_energy": -24.17, 
			 "cosmo_cavitation_energy": 55.66, 
			 "cosmo_dispersion_energy": -36.26, 
			 "cosmo_repulsion_energy": 2.68, 
			 "cosmo_total_nonelectrostatic_energy": 22.07, 
			 "SMD_solvation_energy": 12.32 
		},
		"coords": [
			{
				"x": -3.3740955664,
				"y": -4.8332920942,
				"z": -5.3744239998,
				"element": "O" 
			},
			{
				"x": -3.3290280048,
				"y": -3.6220621991,
				"z": -5.276910922,
				"element": "C" 
			},
			{
				"x": -2.851448086,
				"y": -2.895358139,
				"z": -4.0791016816,
				"element": "C" 
			},
			{
				"x": -2.8228492934,
				"y": -1.4945215509,
				"z": -4.0700895817,
				"element": "C" 
			},
			{
				"x": -2.3736250974,
				"y": -0.8047890089,
				"z": -2.9482130345,
				"element": "C" 
			},
			{
				"x": -1.9492267721,
				"y": -1.5306688532,
				"z": -1.8352085235,
				"element": "C" 
			},
			{
				"x": -1.4496941748,
				"y": -0.7896831793,
				"z": -0.7705776446,
				"element": "O" 
			},
			{
				"x": -1.7221492437,
				"y": -1.094385322,
				"z": 0.8163266075,
				"element": "P" 
			},
			{
				"x": -3.4814704389,
				"y": -1.6605056515,
				"z": 1.3259167294,
				"element": "S" 
			},
			{
				"x": -1.1028754022,
				"y": 0.2771051098,
				"z": 1.4263861702,
				"element": "O" 
			},
			{
				"x": -1.6922098316,
				"y": 1.5319030992,
				"z": 1.2496782679,
				"element": "C" 
			},
			{
				"x": -2.6877131412,
				"y": 1.950734057,
				"z": 2.1358273718,
				"element": "C" 
			},
			{
				"x": -3.2150715656,
				"y": 3.2283517047,
				"z": 1.9918536209,
				"element": "C" 
			},
			{
				"x": -2.7478997152,
				"y": 4.0776405521,
				"z": 0.9768006706,
				"element": "C" 
			},
			{
				"x": -3.308737419,
				"y": 5.4408158913,
				"z": 0.830067471,
				"element": "C" 
			},
			{
				"x": -4.1761815483,
				"y": 5.9082581931,
				"z": 1.5419423634,
				"element": "O" 
			},
			{
				"x": -1.7455818984,
				"y": 3.6352949332,
				"z": 0.1036006831,
				"element": "C" 
			},
			{
				"x": -1.2104454077,
				"y": 2.3560128671,
				"z": 0.2336172215,
				"element": "C" 
			},
			{
				"x": -0.5544859556,
				"y": -2.1317941571,
				"z": 1.250230402,
				"element": "O" 
			},
			{
				"x": 0.8177959919,
				"y": -1.8815941673,
				"z": 1.1275389995,
				"element": "C" 
			},
			{
				"x": 1.4713115098,
				"y": -2.2132205726,
				"z": -0.0578711602,
				"element": "C" 
			},
			{
				"x": 2.8505357327,
				"y": -2.0290055267,
				"z": -0.1330790875,
				"element": "C" 
			},
			{
				"x": 3.5607426919,
				"y": -1.5221638892,
				"z": 0.9621049857,
				"element": "C" 
			},
			{
				"x": 5.0266179165,
				"y": -1.3308109538,
				"z": 0.8708070593,
				"element": "C" 
			},
			{
				"x": 5.7200441912,
				"y": -0.8934860313,
				"z": 1.7685504704,
				"element": "O" 
			},
			{
				"x": 2.8794223967,
				"y": -1.1986583959,
				"z": 2.1464454078,
				"element": "C" 
			},
			{
				"x": 1.5051274385,
				"y": -1.3772433932,
				"z": 2.2345041757,
				"element": "C" 
			},
			{
				"x": -1.9679158031,
				"y": -2.9303358221,
				"z": -1.8212652287,
				"element": "C" 
			},
			{
				"x": -2.4234687475,
				"y": -3.6051536417,
				"z": -2.9471979091,
				"element": "C" 
			},
			{
				"x": -3.6553880892,
				"y": -2.9677710642,
				"z": -6.1157931842,
				"element": "H" 
			},
			{
				"x": -3.1581291334,
				"y": -0.9434284222,
				"z": -4.9453104066,
				"element": "H" 
			},
			{
				"x": -2.3470428075,
				"y": 0.2786609263,
				"z": -2.9147747098,
				"element": "H" 
			},
			{
				"x": -3.0298900038,
				"y": 1.277288442,
				"z": 2.9131620213,
				"element": "H" 
			},
			{
				"x": -3.9903652997,
				"y": 3.5935766364,
				"z": 2.6574920119,
				"element": "H" 
			},
			{
				"x": -2.8709813717,
				"y": 6.0341586249,
				"z": -0.0035005225,
				"element": "H" 
			},
			{
				"x": -1.3824246863,
				"y": 4.2976932877,
				"z": -0.6784644491,
				"element": "H" 
			},
			{
				"x": -0.4306486123,
				"y": 1.9916306316,
				"z": -0.4252063821,
				"element": "H" 
			},
			{
				"x": 0.9086754511,
				"y": -2.6124357118,
				"z": -0.8939631588,
				"element": "H" 
			},
			{
				"x": 3.3805689703,
				"y": -2.2834067261,
				"z": -1.047681897,
				"element": "H" 
			},
			{
				"x": 5.4717815746,
				"y": -1.6217752927,
				"z": -0.1066298953,
				"element": "H" 
			},
			{
				"x": 3.4505632683,
				"y": -0.8102492974,
				"z": 2.9834590967,
				"element": "H" 
			},
			{
				"x": 0.9553891388,
				"y": -1.1374852161,
				"z": 3.1375191645,
				"element": "H" 
			},
			{
				"x": -1.6384245071,
				"y": -3.4750431733,
				"z": -0.9434144256,
				"element": "H" 
			},
			{
				"x": -2.4554086487,
				"y": -4.6895975034,
				"z": -2.9732531679,
				"element": "H" 
			}
		],
		 "valence_orbital": [ 
			{
				"type": "occ",
				"energy": -0.26741,
				"method": "rhf"
			},
			{
				"type": "occ",
				"energy": -0.26697,
				"method": "rhf"
			},
			{
				"type": "occ",
				"energy": -0.26581,
				"method": "rhf"
			},
			{
				"type": "occ",
				"energy": -0.26504,
				"method": "rhf"
			},
			{
				"type": "occ",
				"energy": -0.26328,
				"method": "rhf"
			},
			{
				"type": "unocc",
				"energy": -0.07896,
				"method": "rhf"
			},
			{
				"type": "unocc",
				"energy": -0.07508,
				"method": "rhf"
			},
			{
				"type": "unocc",
				"energy": -0.07456,
				"method": "rhf"
			},
			{
				"type": "unocc",
				"energy": -0.03616,
				"method": "rhf"
			},
			{
				"type": "unocc",
				"energy": -0.03499,
				"method": "rhf"
			}
		],
		"cosmo_sigma_profile": { 
			"-0.025": 0.0,
			"-0.024": 0.0,
			"-0.023": 0.0,
			"-0.022": 0.0,
			"-0.021": 0.0,
			"-0.02": 0.0,
			"-0.019": 0.0,
			"-0.018": 0.0,
			"-0.017": 0.0,
			"-0.016": 0.0,
			"-0.015": 0.0,
			"-0.014": 0.0329159356941,
			"-0.013": 0.129316430453,
			"-0.012": 0.106155740833,
			"-0.011": 0.0351966972133,
			"-0.01": 0.0637990935395,
			"-0.009": 1.30815939566,
			"-0.008": 13.3033205006,
			"-0.007": 25.9615339194,
			"-0.006": 32.5086574424,
			"-0.005": 27.5858573745,
			"-0.004": 25.175458415,
			"-0.003": 26.4701191749,
			"-0.002": 26.2093306641,
			"-0.001": 26.9542961023,
			"0.0": 39.4902973008,
			"0.001": 48.2650144534,
			"0.002": 45.9906288073,
			"0.003": 17.3084214315,
			"0.004": 13.9533107501,
			"0.005": 11.1065164891,
			"0.006": 13.844043398,
			"0.007": 11.2309039304,
			"0.008": 7.06839655024,
			"0.009": 5.95994427101,
			"0.01": 8.3536198088,
			"0.011": 12.6931019543,
			"0.012": 7.28717844994,
			"0.013": 1.49667113062,
			"0.014": 0.0,
			"0.015": 0.0,
			"0.016": 0.0,
			"0.017": 0.0,
			"0.018": 0.0,
			"0.019": 0.0,
			"0.02": 0.0,
			"0.021": 0.0,
			"0.022": 0.0,
			"0.023": 0.0,
			"0.024": 0.0,
			"0.025": 0.0
		}
	}
}
