{
	 "smiles": "CNS(=O)(=O)C1=CC(CN)=CC=C1", 
	 "Tm": 403.15, 
	 "num_atms": 25, 
	 "gaussian": { 
		 "optdone": 1, 
		 "sigma_profile": "yes", 
		 "theory": "DFT", 
		 "functional": "B3LYP", 
		 "basiset": "6-31G**", 
		 "properties": { 
			 "R2extent": 3605.2844, 
			 "electric_dipole_moment_norm": 5.23052900288, 
			 "electric_quadrupole_moment_norm": 17.7272109016, 
			 "total_energy": -970.145848403, 
			 "HOMO_LUMO_gap": 0.20069, 
			 "cosmo_polarized_energy": -19.42, 
			 "cosmo_cavitation_energy": 29.89, 
			 "cosmo_dispersion_energy": -21.67, 
			 "cosmo_repulsion_energy": 1.7, 
			 "cosmo_total_nonelectrostatic_energy": 9.92, 
			 "SMD_solvation_energy": 2.57 
		},
		"coords": [
			{
				"x": 3.166678295,
				"y": 1.9395567338,
				"z": 0.1044263079,
				"element": "C" 
			},
			{
				"x": 3.3144752336,
				"y": 0.8287321244,
				"z": -0.8364044603,
				"element": "N" 
			},
			{
				"x": 2.7065239239,
				"y": -0.6819367164,
				"z": -0.4253409858,
				"element": "S" 
			},
			{
				"x": 3.1929501414,
				"y": -0.9673008452,
				"z": 0.9250427597,
				"element": "O" 
			},
			{
				"x": 3.0011838494,
				"y": -1.5385185329,
				"z": -1.5750104763,
				"element": "O" 
			},
			{
				"x": 0.9162814337,
				"y": -0.5161620462,
				"z": -0.3226348332,
				"element": "C" 
			},
			{
				"x": 0.1497335759,
				"y": -0.7093102939,
				"z": -1.4735125574,
				"element": "C" 
			},
			{
				"x": -1.2411519321,
				"y": -0.556406729,
				"z": -1.4247885683,
				"element": "C" 
			},
			{
				"x": -2.0934810853,
				"y": -0.8422248096,
				"z": -2.6516061293,
				"element": "C" 
			},
			{
				"x": -2.4908929079,
				"y": -2.2456290065,
				"z": -2.8307786902,
				"element": "N" 
			},
			{
				"x": -1.8303572617,
				"y": -0.1957182816,
				"z": -0.2040191232,
				"element": "C" 
			},
			{
				"x": -1.0600183835,
				"y": -0.0107321725,
				"z": 0.9449070637,
				"element": "C" 
			},
			{
				"x": 0.3250836554,
				"y": -0.1737968299,
				"z": 0.8959422008,
				"element": "C" 
			},
			{
				"x": 2.1290479727,
				"y": 2.2804306739,
				"z": 0.2273297246,
				"element": "H" 
			},
			{
				"x": 3.7727840837,
				"y": 2.7737827808,
				"z": -0.2571962241,
				"element": "H" 
			},
			{
				"x": 3.5584905696,
				"y": 1.6259820877,
				"z": 1.0731917506,
				"element": "H" 
			},
			{
				"x": 3.1034890121,
				"y": 1.0425521214,
				"z": -1.8062898786,
				"element": "H" 
			},
			{
				"x": 0.6409827065,
				"y": -1.0004032799,
				"z": -2.3978744713,
				"element": "H" 
			},
			{
				"x": -1.554056757,
				"y": -0.5328713125,
				"z": -3.5538335979,
				"element": "H" 
			},
			{
				"x": -3.0071626961,
				"y": -0.2385469863,
				"z": -2.6089299147,
				"element": "H" 
			},
			{
				"x": -2.9868598962,
				"y": -2.5682760241,
				"z": -2.0023201858,
				"element": "H" 
			},
			{
				"x": -1.6597669244,
				"y": -2.8293603589,
				"z": -2.9014361204,
				"element": "H" 
			},
			{
				"x": -2.9087457352,
				"y": -0.0627347104,
				"z": -0.1538817801,
				"element": "H" 
			},
			{
				"x": -1.5383645074,
				"y": 0.2573540698,
				"z": 1.8823521308,
				"element": "H" 
			},
			{
				"x": 0.938953634,
				"y": -0.0630616561,
				"z": 1.782766059,
				"element": "H" 
			}
		],
		 "valence_orbital": [ 
			{
				"type": "occ",
				"energy": -0.3023,
				"method": "rhf"
			},
			{
				"type": "occ",
				"energy": -0.2889,
				"method": "rhf"
			},
			{
				"type": "occ",
				"energy": -0.2749,
				"method": "rhf"
			},
			{
				"type": "occ",
				"energy": -0.26459,
				"method": "rhf"
			},
			{
				"type": "occ",
				"energy": -0.24177,
				"method": "rhf"
			},
			{
				"type": "unocc",
				"energy": -0.04108,
				"method": "rhf"
			},
			{
				"type": "unocc",
				"energy": -0.02641,
				"method": "rhf"
			},
			{
				"type": "unocc",
				"energy": 0.05824,
				"method": "rhf"
			},
			{
				"type": "unocc",
				"energy": 0.07601,
				"method": "rhf"
			},
			{
				"type": "unocc",
				"energy": 0.08023,
				"method": "rhf"
			}
		],
		"cosmo_sigma_profile": { 
			"-0.025": 0.0,
			"-0.024": 0.0,
			"-0.023": 0.0,
			"-0.022": 0.0,
			"-0.021": 0.0,
			"-0.02": 0.0,
			"-0.019": 0.0,
			"-0.018": 0.0,
			"-0.017": 0.0,
			"-0.016": 0.0,
			"-0.015": 0.705048848472,
			"-0.014": 1.21421645829,
			"-0.013": 1.07069851834,
			"-0.012": 1.05269645349,
			"-0.011": 1.37776091258,
			"-0.01": 2.36916988509,
			"-0.009": 3.74995519845,
			"-0.008": 4.31822827642,
			"-0.007": 8.65786518551,
			"-0.006": 17.7450688138,
			"-0.005": 18.3184474205,
			"-0.004": 20.5522326844,
			"-0.003": 18.4660426906,
			"-0.002": 18.3536375215,
			"-0.001": 12.7185354874,
			"0.0": 10.0450335962,
			"0.001": 10.3055784655,
			"0.002": 12.1114750837,
			"0.003": 13.4464992777,
			"0.004": 7.00685452042,
			"0.005": 4.33145716054,
			"0.006": 4.13757487998,
			"0.007": 5.47486389069,
			"0.008": 5.25427668947,
			"0.009": 4.4393785818,
			"0.01": 7.58432324888,
			"0.011": 10.5491527151,
			"0.012": 6.05051660922,
			"0.013": 0.376843107047,
			"0.014": 0.200577945442,
			"0.015": 1.01778351234,
			"0.016": 0.928373812685,
			"0.017": 0.497424815111,
			"0.018": 0.747362050422,
			"0.019": 0.453924278211,
			"0.02": 0.176644925789,
			"0.021": 0.0,
			"0.022": 0.0,
			"0.023": 0.0,
			"0.024": 0.0,
			"0.025": 0.0
		}
	}
}
