{
	 "smiles": "ClC1=CC=C(OCC(=O)NC2=NC3=CC=C(Br)C=C3S2)C=C1", 
	 "Tm": 509.15, 
	 "num_atms": 32, 
	 "gaussian": { 
		 "optdone": 1, 
		 "sigma_profile": "yes", 
		 "theory": "DFT", 
		 "functional": "B3LYP", 
		 "basiset": "6-31G**", 
		 "properties": { 
			 "R2extent": 16328.6484, 
			 "electric_dipole_moment_norm": 2.03528800173, 
			 "electric_quadrupole_moment_norm": 13.625955055, 
			 "total_energy": -4267.35927718, 
			 "HOMO_LUMO_gap": 0.17155, 
			 "cosmo_polarized_energy": -13.41, 
			 "cosmo_cavitation_energy": 43.17, 
			 "cosmo_dispersion_energy": -32.0, 
			 "cosmo_repulsion_energy": 2.38, 
			 "cosmo_total_nonelectrostatic_energy": 13.55, 
			 "SMD_solvation_energy": 4.51 
		},
		"coords": [
			{
				"x": -3.35937114,
				"y": 5.5652501291,
				"z": 1.6457042925,
				"element": "Cl" 
			},
			{
				"x": -2.7725141746,
				"y": 4.1770928706,
				"z": 0.7397396066,
				"element": "C" 
			},
			{
				"x": -1.3987432109,
				"y": 4.0086784344,
				"z": 0.5507217093,
				"element": "C" 
			},
			{
				"x": -0.9376836075,
				"y": 2.9117713416,
				"z": -0.1679103444,
				"element": "C" 
			},
			{
				"x": -1.8444339654,
				"y": 1.9836865604,
				"z": -0.6940557766,
				"element": "C" 
			},
			{
				"x": -1.2720793413,
				"y": 0.9431449103,
				"z": -1.3952727609,
				"element": "O" 
			},
			{
				"x": -2.1093485667,
				"y": 0.0435281075,
				"z": -2.1042248724,
				"element": "C" 
			},
			{
				"x": -2.8302986506,
				"y": -0.9686048302,
				"z": -1.2102186286,
				"element": "C" 
			},
			{
				"x": -4.0493653056,
				"y": -1.0247350883,
				"z": -1.1736527238,
				"element": "O" 
			},
			{
				"x": -2.0904153179,
				"y": -1.8427188034,
				"z": -0.4265703822,
				"element": "N" 
			},
			{
				"x": -0.7558004667,
				"y": -2.2275124549,
				"z": -0.3692896475,
				"element": "C" 
			},
			{
				"x": -0.4595036674,
				"y": -3.3847110854,
				"z": 0.1374832897,
				"element": "N" 
			},
			{
				"x": 0.9077140919,
				"y": -3.5888755618,
				"z": 0.1396972599,
				"element": "C" 
			},
			{
				"x": 1.5555638483,
				"y": -4.7391838187,
				"z": 0.6111467674,
				"element": "C" 
			},
			{
				"x": 2.9407543408,
				"y": -4.8208204107,
				"z": 0.5351319178,
				"element": "C" 
			},
			{
				"x": 3.6784530262,
				"y": -3.7590901216,
				"z": -0.0098770262,
				"element": "C" 
			},
			{
				"x": 5.5815571208,
				"y": -3.9044157212,
				"z": -0.1003084987,
				"element": "Br" 
			},
			{
				"x": 3.0691351011,
				"y": -2.6019841754,
				"z": -0.4866880618,
				"element": "C" 
			},
			{
				"x": 1.6785559043,
				"y": -2.5340271562,
				"z": -0.40144103,
				"element": "C" 
			},
			{
				"x": 0.6193689264,
				"y": -1.216800485,
				"z": -0.8818182044,
				"element": "S" 
			},
			{
				"x": -3.21827342,
				"y": 2.1499766246,
				"z": -0.4971942183,
				"element": "C" 
			},
			{
				"x": -3.6785391128,
				"y": 3.2570396408,
				"z": 0.2224973121,
				"element": "C" 
			},
			{
				"x": -0.7001883737,
				"y": 4.7307044154,
				"z": 0.9586108688,
				"element": "H" 
			},
			{
				"x": 0.1234970926,
				"y": 2.761318317,
				"z": -0.3349329803,
				"element": "H" 
			},
			{
				"x": -2.8852965453,
				"y": 0.5669922795,
				"z": -2.6699672097,
				"element": "H" 
			},
			{
				"x": -1.4486187412,
				"y": -0.4780929335,
				"z": -2.8039996429,
				"element": "H" 
			},
			{
				"x": -2.687409908,
				"y": -2.4968042351,
				"z": 0.0721109216,
				"element": "H" 
			},
			{
				"x": 0.9685593994,
				"y": -5.5511415739,
				"z": 1.0267060351,
				"element": "H" 
			},
			{
				"x": 3.4584687363,
				"y": -5.7024754406,
				"z": 0.8941458352,
				"element": "H" 
			},
			{
				"x": 3.6603227215,
				"y": -1.7945877001,
				"z": -0.9019182474,
				"element": "H" 
			},
			{
				"x": -3.9360907968,
				"y": 1.4294415365,
				"z": -0.8706605228,
				"element": "H" 
			},
			{
				"x": -4.7424759972,
				"y": 3.3927564285,
				"z": 0.3817049629,
				"element": "H" 
			}
		],
		 "valence_orbital": [ 
			{
				"type": "occ",
				"energy": -0.28558,
				"method": "rhf"
			},
			{
				"type": "occ",
				"energy": -0.26985,
				"method": "rhf"
			},
			{
				"type": "occ",
				"energy": -0.2554,
				"method": "rhf"
			},
			{
				"type": "occ",
				"energy": -0.2338,
				"method": "rhf"
			},
			{
				"type": "occ",
				"energy": -0.2312,
				"method": "rhf"
			},
			{
				"type": "unocc",
				"energy": -0.05965,
				"method": "rhf"
			},
			{
				"type": "unocc",
				"energy": -0.02589,
				"method": "rhf"
			},
			{
				"type": "unocc",
				"energy": -0.02167,
				"method": "rhf"
			},
			{
				"type": "unocc",
				"energy": -0.01962,
				"method": "rhf"
			},
			{
				"type": "unocc",
				"energy": -0.01099,
				"method": "rhf"
			}
		],
		"cosmo_sigma_profile": { 
			"-0.025": 0.0,
			"-0.024": 0.0,
			"-0.023": 0.0,
			"-0.022": 0.0,
			"-0.021": 0.0,
			"-0.02": 0.0,
			"-0.019": 0.0,
			"-0.018": 0.0,
			"-0.017": 0.0,
			"-0.016": 0.110484206626,
			"-0.015": 0.650165303546,
			"-0.014": 0.666996346695,
			"-0.013": 0.712665439102,
			"-0.012": 0.833875512127,
			"-0.011": 0.731301958881,
			"-0.01": 2.2037249788,
			"-0.009": 3.860367316,
			"-0.008": 7.9506774917,
			"-0.007": 15.4812623677,
			"-0.006": 16.5315214385,
			"-0.005": 18.4473690809,
			"-0.004": 15.4218844161,
			"-0.003": 17.290596244,
			"-0.002": 19.8453736282,
			"-0.001": 24.5788649988,
			"0.0": 25.4187708468,
			"0.001": 33.8317193251,
			"0.002": 44.5065951751,
			"0.003": 39.1323948539,
			"0.004": 28.3334275392,
			"0.005": 15.737237075,
			"0.006": 4.3270140049,
			"0.007": 2.53798720281,
			"0.008": 2.29026805092,
			"0.009": 2.60026381277,
			"0.01": 2.8024760622,
			"0.011": 5.12805766803,
			"0.012": 2.75308798271,
			"0.013": 0.471979211909,
			"0.014": 0.0,
			"0.015": 0.0,
			"0.016": 0.0,
			"0.017": 0.0,
			"0.018": 0.0,
			"0.019": 0.0,
			"0.02": 0.0,
			"0.021": 0.0,
			"0.022": 0.0,
			"0.023": 0.0,
			"0.024": 0.0,
			"0.025": 0.0
		}
	}
}
