{
	 "smiles": "CC1CCCC=C1", 
	 "Tm": 149.15, 
	 "num_atms": 19, 
	 "gaussian": { 
		 "optdone": 1, 
		 "sigma_profile": "yes", 
		 "theory": "DFT", 
		 "functional": "B3LYP", 
		 "basiset": "6-31G**", 
		 "properties": { 
			 "R2extent": 1507.5283, 
			 "electric_dipole_moment_norm": 0.208102042277, 
			 "electric_quadrupole_moment_norm": 1.2974164713, 
			 "total_energy": -273.973720046, 
			 "HOMO_LUMO_gap": 0.2667, 
			 "cosmo_polarized_energy": -1.29, 
			 "cosmo_cavitation_energy": 19.79, 
			 "cosmo_dispersion_energy": -15.02, 
			 "cosmo_repulsion_energy": 1.27, 
			 "cosmo_total_nonelectrostatic_energy": 6.04, 
			 "SMD_solvation_energy": 2.99 
		},
		"coords": [
			{
				"x": -2.3665779505,
				"y": 1.867374913,
				"z": -0.6220101154,
				"element": "C" 
			},
			{
				"x": -2.2108793148,
				"y": 0.7968286973,
				"z": -1.7214164532,
				"element": "C" 
			},
			{
				"x": -0.7909608395,
				"y": 0.7692373657,
				"z": -2.3286700713,
				"element": "C" 
			},
			{
				"x": 0.1891289321,
				"y": -0.0390527735,
				"z": -1.4664141723,
				"element": "C" 
			},
			{
				"x": -0.276407836,
				"y": -1.4965813864,
				"z": -1.3317565031,
				"element": "C" 
			},
			{
				"x": -1.7546902792,
				"y": -1.589381222,
				"z": -1.04449088,
				"element": "C" 
			},
			{
				"x": -2.6055671249,
				"y": -0.5710941542,
				"z": -1.2086908572,
				"element": "C" 
			},
			{
				"x": -1.6616758926,
				"y": 1.6991644455,
				"z": 0.1988546759,
				"element": "H" 
			},
			{
				"x": -2.1881038291,
				"y": 2.8706100348,
				"z": -1.0251197597,
				"element": "H" 
			},
			{
				"x": -3.3755084378,
				"y": 1.8514259613,
				"z": -0.195442277,
				"element": "H" 
			},
			{
				"x": -2.9146904744,
				"y": 1.0640219799,
				"z": -2.5240392623,
				"element": "H" 
			},
			{
				"x": -0.4257245269,
				"y": 1.7938116997,
				"z": -2.4692575945,
				"element": "H" 
			},
			{
				"x": -0.8394646383,
				"y": 0.3138486548,
				"z": -3.3266928649,
				"element": "H" 
			},
			{
				"x": 0.257037657,
				"y": 0.410569461,
				"z": -0.4676135376,
				"element": "H" 
			},
			{
				"x": 1.1971547172,
				"y": 0.0003168698,
				"z": -1.8949659668,
				"element": "H" 
			},
			{
				"x": 0.2880944825,
				"y": -2.0048730985,
				"z": -0.5388515533,
				"element": "H" 
			},
			{
				"x": -0.0485874519,
				"y": -2.0526118341,
				"z": -2.2547611386,
				"element": "H" 
			},
			{
				"x": -2.1304063064,
				"y": -2.5469791234,
				"z": -0.6863637305,
				"element": "H" 
			},
			{
				"x": -3.6573708864,
				"y": -0.7090364908,
				"z": -0.9586979379,
				"element": "H" 
			}
		],
		 "valence_orbital": [ 
			{
				"type": "occ",
				"energy": -0.35057,
				"method": "rhf"
			},
			{
				"type": "occ",
				"energy": -0.31512,
				"method": "rhf"
			},
			{
				"type": "occ",
				"energy": -0.30608,
				"method": "rhf"
			},
			{
				"type": "occ",
				"energy": -0.29504,
				"method": "rhf"
			},
			{
				"type": "occ",
				"energy": -0.23455,
				"method": "rhf"
			},
			{
				"type": "unocc",
				"energy": 0.03215,
				"method": "rhf"
			},
			{
				"type": "unocc",
				"energy": 0.08591,
				"method": "rhf"
			},
			{
				"type": "unocc",
				"energy": 0.12164,
				"method": "rhf"
			},
			{
				"type": "unocc",
				"energy": 0.13147,
				"method": "rhf"
			},
			{
				"type": "unocc",
				"energy": 0.13934,
				"method": "rhf"
			}
		],
		"cosmo_sigma_profile": { 
			"-0.025": 0.0,
			"-0.024": 0.0,
			"-0.023": 0.0,
			"-0.022": 0.0,
			"-0.021": 0.0,
			"-0.02": 0.0,
			"-0.019": 0.0,
			"-0.018": 0.0,
			"-0.017": 0.0,
			"-0.016": 0.0,
			"-0.015": 0.0,
			"-0.014": 0.0,
			"-0.013": 0.0,
			"-0.012": 0.0,
			"-0.011": 0.0,
			"-0.01": 0.0,
			"-0.009": 0.0,
			"-0.008": 0.0,
			"-0.007": 0.0,
			"-0.006": 0.0,
			"-0.005": 0.0,
			"-0.004": 2.22494662956,
			"-0.003": 10.3514508008,
			"-0.002": 26.2733687558,
			"-0.001": 31.4048756836,
			"0.0": 31.1097230456,
			"0.001": 24.7189173436,
			"0.002": 11.1895078181,
			"0.003": 3.66201205363,
			"0.004": 3.57918095865,
			"0.005": 3.04475334921,
			"0.006": 2.44943737983,
			"0.007": 1.96331820622,
			"0.008": 0.997721781358,
			"0.009": 0.0,
			"0.01": 0.0,
			"0.011": 0.0,
			"0.012": 0.0,
			"0.013": 0.0,
			"0.014": 0.0,
			"0.015": 0.0,
			"0.016": 0.0,
			"0.017": 0.0,
			"0.018": 0.0,
			"0.019": 0.0,
			"0.02": 0.0,
			"0.021": 0.0,
			"0.022": 0.0,
			"0.023": 0.0,
			"0.024": 0.0,
			"0.025": 0.0
		}
	}
}
