{
	 "smiles": "OC(=O)C1=C(N=C(S1)C1CC1)C(F)(F)F", 
	 "Tm": 420.15, 
	 "num_atms": 21, 
	 "gaussian": { 
		 "optdone": 1, 
		 "sigma_profile": "yes", 
		 "theory": "DFT", 
		 "functional": "B3LYP", 
		 "basiset": "6-31G**", 
		 "properties": { 
			 "R2extent": 4482.4343, 
			 "electric_dipole_moment_norm": 4.81630416814, 
			 "electric_quadrupole_moment_norm": 11.3634927654, 
			 "total_energy": -1211.35283272, 
			 "HOMO_LUMO_gap": 0.17895, 
			 "cosmo_polarized_energy": -11.88, 
			 "cosmo_cavitation_energy": 28.98, 
			 "cosmo_dispersion_energy": -20.95, 
			 "cosmo_repulsion_energy": 1.56, 
			 "cosmo_total_nonelectrostatic_energy": 9.6, 
			 "SMD_solvation_energy": 5.58 
		},
		"coords": [
			{
				"x": -2.9744262158,
				"y": 2.5008920454,
				"z": -0.0939919642,
				"element": "O" 
			},
			{
				"x": -1.6383048334,
				"y": 2.6569678929,
				"z": 0.095127315,
				"element": "C" 
			},
			{
				"x": -1.1664857286,
				"y": 3.5374504719,
				"z": 0.7804966692,
				"element": "O" 
			},
			{
				"x": -0.8708835637,
				"y": 1.6328995533,
				"z": -0.6311059477,
				"element": "C" 
			},
			{
				"x": 0.4967870897,
				"y": 1.4524732645,
				"z": -0.6907963904,
				"element": "C" 
			},
			{
				"x": 0.9339552071,
				"y": 0.4098819268,
				"z": -1.4498353741,
				"element": "N" 
			},
			{
				"x": -0.0670294921,
				"y": -0.2412916987,
				"z": -1.9945356213,
				"element": "C" 
			},
			{
				"x": -1.6421647169,
				"y": 0.402903049,
				"z": -1.5979240112,
				"element": "S" 
			},
			{
				"x": 0.091268935,
				"y": -1.415440427,
				"z": -2.8679774207,
				"element": "C" 
			},
			{
				"x": 1.3037027046,
				"y": -1.4857226773,
				"z": -3.7882735083,
				"element": "C" 
			},
			{
				"x": 1.2372326424,
				"y": -2.3820530218,
				"z": -2.5953342587,
				"element": "C" 
			},
			{
				"x": 1.5376217758,
				"y": 2.3077210392,
				"z": 0.0095491933,
				"element": "C" 
			},
			{
				"x": 1.4721480927,
				"y": 3.5889191013,
				"z": -0.3968928582,
				"element": "F" 
			},
			{
				"x": 2.7755657049,
				"y": 1.858954152,
				"z": -0.2572210933,
				"element": "F" 
			},
			{
				"x": 1.3738448093,
				"y": 2.2821124141,
				"z": 1.3450142737,
				"element": "F" 
			},
			{
				"x": -3.4044349033,
				"y": 3.2090261816,
				"z": 0.4132761512,
				"element": "H" 
			},
			{
				"x": -0.835784586,
				"y": -1.8408959969,
				"z": -3.23920743,
				"element": "H" 
			},
			{
				"x": 1.1456753744,
				"y": -1.9086573347,
				"z": -4.7754147852,
				"element": "H" 
			},
			{
				"x": 1.9828723448,
				"y": -0.6408730433,
				"z": -3.7457185541,
				"element": "H" 
			},
			{
				"x": 1.0321525458,
				"y": -3.4381810646,
				"z": -2.739737443,
				"element": "H" 
			},
			{
				"x": 1.8715868133,
				"y": -2.1412858275,
				"z": -1.748896942,
				"element": "H" 
			}
		],
		 "valence_orbital": [ 
			{
				"type": "occ",
				"energy": -0.32687,
				"method": "rhf"
			},
			{
				"type": "occ",
				"energy": -0.3054,
				"method": "rhf"
			},
			{
				"type": "occ",
				"energy": -0.2954,
				"method": "rhf"
			},
			{
				"type": "occ",
				"energy": -0.2895,
				"method": "rhf"
			},
			{
				"type": "occ",
				"energy": -0.25572,
				"method": "rhf"
			},
			{
				"type": "unocc",
				"energy": -0.07677,
				"method": "rhf"
			},
			{
				"type": "unocc",
				"energy": -0.00523,
				"method": "rhf"
			},
			{
				"type": "unocc",
				"energy": -0.00467,
				"method": "rhf"
			},
			{
				"type": "unocc",
				"energy": 0.06626,
				"method": "rhf"
			},
			{
				"type": "unocc",
				"energy": 0.06706,
				"method": "rhf"
			}
		],
		"cosmo_sigma_profile": { 
			"-0.025": 0.0,
			"-0.024": 0.0,
			"-0.023": 0.0,
			"-0.022": 0.0,
			"-0.021": 0.0,
			"-0.02": 0.0,
			"-0.019": 0.451075561808,
			"-0.018": 1.08546044213,
			"-0.017": 1.06979574038,
			"-0.016": 0.774065561804,
			"-0.015": 0.381484878355,
			"-0.014": 0.825482753476,
			"-0.013": 0.846575986143,
			"-0.012": 0.814903152691,
			"-0.011": 0.871282193783,
			"-0.01": 0.349887101232,
			"-0.009": 1.04166103093,
			"-0.008": 3.0508277358,
			"-0.007": 3.44695166543,
			"-0.006": 8.27853894616,
			"-0.005": 10.1885243446,
			"-0.004": 9.728121644,
			"-0.003": 15.603699265,
			"-0.002": 21.7096966744,
			"-0.001": 21.6727812914,
			"0.0": 20.4961074696,
			"0.001": 21.3650125661,
			"0.002": 27.5819184273,
			"0.003": 23.2491875882,
			"0.004": 8.38023311653,
			"0.005": 6.22665631226,
			"0.006": 4.93009857181,
			"0.007": 3.8585567448,
			"0.008": 3.11513224683,
			"0.009": 3.87819516325,
			"0.01": 4.53843282222,
			"0.011": 4.09295263687,
			"0.012": 0.249713433847,
			"0.013": 0.0,
			"0.014": 0.0,
			"0.015": 0.0,
			"0.016": 0.0,
			"0.017": 0.0,
			"0.018": 0.0,
			"0.019": 0.0,
			"0.02": 0.0,
			"0.021": 0.0,
			"0.022": 0.0,
			"0.023": 0.0,
			"0.024": 0.0,
			"0.025": 0.0
		}
	}
}
