{
	 "smiles": "OC(=O)C1=NN(C(=N1)C1=CC=CC=C1)C1=CC=CC=C1", 
	 "Tm": 452.15, 
	 "num_atms": 31, 
	 "gaussian": { 
		 "optdone": 1, 
		 "sigma_profile": "yes", 
		 "theory": "DFT", 
		 "functional": "B3LYP", 
		 "basiset": "6-31G**", 
		 "properties": { 
			 "R2extent": 5921.7594, 
			 "electric_dipole_moment_norm": 8.51283630643, 
			 "electric_quadrupole_moment_norm": 26.7603659166, 
			 "total_energy": -892.931169213, 
			 "HOMO_LUMO_gap": 0.1886, 
			 "cosmo_polarized_energy": -16.99, 
			 "cosmo_cavitation_energy": 36.57, 
			 "cosmo_dispersion_energy": -25.8, 
			 "cosmo_repulsion_energy": 1.99, 
			 "cosmo_total_nonelectrostatic_energy": 12.76, 
			 "SMD_solvation_energy": 5.51 
		},
		"coords": [
			{
				"x": 1.1025532386,
				"y": -4.5977072331,
				"z": -0.2681422671,
				"element": "O" 
			},
			{
				"x": -0.0965537718,
				"y": -4.034942092,
				"z": -0.0048779389,
				"element": "C" 
			},
			{
				"x": -1.0682743137,
				"y": -4.6770304922,
				"z": 0.3055030832,
				"element": "O" 
			},
			{
				"x": -0.0693702384,
				"y": -2.5465666526,
				"z": -0.1438290896,
				"element": "C" 
			},
			{
				"x": -1.1162242704,
				"y": -1.7622350183,
				"z": 0.0528445436,
				"element": "N" 
			},
			{
				"x": -0.6087961564,
				"y": -0.525883998,
				"z": -0.1911527928,
				"element": "N" 
			},
			{
				"x": 0.7179031058,
				"y": -0.6189143224,
				"z": -0.5403517465,
				"element": "C" 
			},
			{
				"x": 1.0736000647,
				"y": -1.8979551316,
				"z": -0.5016856335,
				"element": "N" 
			},
			{
				"x": 1.6138280426,
				"y": 0.4767833257,
				"z": -0.9438195062,
				"element": "C" 
			},
			{
				"x": 1.167686686,
				"y": 1.5752747934,
				"z": -1.6962745525,
				"element": "C" 
			},
			{
				"x": 2.0683449376,
				"y": 2.5610031245,
				"z": -2.0958646603,
				"element": "C" 
			},
			{
				"x": 3.4185863853,
				"y": 2.4626818751,
				"z": -1.753578259,
				"element": "C" 
			},
			{
				"x": 3.870013202,
				"y": 1.3660456011,
				"z": -1.0156916631,
				"element": "C" 
			},
			{
				"x": 2.9757623007,
				"y": 0.3758865513,
				"z": -0.6157778608,
				"element": "C" 
			},
			{
				"x": -1.4506089867,
				"y": 0.6148392824,
				"z": 0.0111939766,
				"element": "C" 
			},
			{
				"x": -2.7364717684,
				"y": 0.6032900801,
				"z": -0.5340619473,
				"element": "C" 
			},
			{
				"x": -3.5759756006,
				"y": 1.6955196303,
				"z": -0.3197272091,
				"element": "C" 
			},
			{
				"x": -3.1329593762,
				"y": 2.7890930858,
				"z": 0.4276372301,
				"element": "C" 
			},
			{
				"x": -1.848134015,
				"y": 2.7847144336,
				"z": 0.974521598,
				"element": "C" 
			},
			{
				"x": -1.0024407142,
				"y": 1.6935070293,
				"z": 0.7772538533,
				"element": "C" 
			},
			{
				"x": 1.7231102985,
				"y": -3.8831793227,
				"z": -0.5041110467,
				"element": "H" 
			},
			{
				"x": 0.1246226966,
				"y": 1.6517675004,
				"z": -1.9825725003,
				"element": "H" 
			},
			{
				"x": 1.7147410829,
				"y": 3.4032549931,
				"z": -2.6829271984,
				"element": "H" 
			},
			{
				"x": 4.1165993591,
				"y": 3.2337845175,
				"z": -2.0659150863,
				"element": "H" 
			},
			{
				"x": 4.9198843011,
				"y": 1.2808790734,
				"z": -0.7518189436,
				"element": "H" 
			},
			{
				"x": 3.3183663069,
				"y": -0.4839553039,
				"z": -0.0501883342,
				"element": "H" 
			},
			{
				"x": -3.0657388521,
				"y": -0.2594166544,
				"z": -1.1019909759,
				"element": "H" 
			},
			{
				"x": -4.5774064965,
				"y": 1.690197347,
				"z": -0.7388226759,
				"element": "H" 
			},
			{
				"x": -3.7894770657,
				"y": 3.6384254699,
				"z": 0.5901153639,
				"element": "H" 
			},
			{
				"x": -1.5045974015,
				"y": 3.6256019241,
				"z": 1.5690647809,
				"element": "H" 
			},
			{
				"x": -0.0111729807,
				"y": 1.6742365831,
				"z": 1.2160474583,
				"element": "H" 
			}
		],
		 "valence_orbital": [ 
			{
				"type": "occ",
				"energy": -0.27847,
				"method": "rhf"
			},
			{
				"type": "occ",
				"energy": -0.27145,
				"method": "rhf"
			},
			{
				"type": "occ",
				"energy": -0.26853,
				"method": "rhf"
			},
			{
				"type": "occ",
				"energy": -0.26485,
				"method": "rhf"
			},
			{
				"type": "occ",
				"energy": -0.24822,
				"method": "rhf"
			},
			{
				"type": "unocc",
				"energy": -0.05962,
				"method": "rhf"
			},
			{
				"type": "unocc",
				"energy": -0.03596,
				"method": "rhf"
			},
			{
				"type": "unocc",
				"energy": -0.02966,
				"method": "rhf"
			},
			{
				"type": "unocc",
				"energy": -0.02036,
				"method": "rhf"
			},
			{
				"type": "unocc",
				"energy": -0.01617,
				"method": "rhf"
			}
		],
		"cosmo_sigma_profile": { 
			"-0.025": 0.0,
			"-0.024": 0.0,
			"-0.023": 0.0,
			"-0.022": 0.0,
			"-0.021": 0.0,
			"-0.02": 0.0,
			"-0.019": 0.0,
			"-0.018": 0.0,
			"-0.017": 0.0,
			"-0.016": 0.0,
			"-0.015": 0.102693324071,
			"-0.014": 0.399187666445,
			"-0.013": 0.40041728887,
			"-0.012": 0.641240239352,
			"-0.011": 0.732992529734,
			"-0.01": 0.759891176574,
			"-0.009": 0.641585108698,
			"-0.008": 0.60075388714,
			"-0.007": 9.38522779194,
			"-0.006": 24.2548902851,
			"-0.005": 27.53553492,
			"-0.004": 25.5148382686,
			"-0.003": 21.4600364364,
			"-0.002": 18.982710954,
			"-0.001": 16.5125543025,
			"0.0": 16.4672345147,
			"0.001": 17.4826958793,
			"0.002": 21.5942809578,
			"0.003": 25.3780214276,
			"0.004": 21.7576393524,
			"0.005": 4.90961465594,
			"0.006": 4.81500329107,
			"0.007": 4.36429943132,
			"0.008": 4.46587998899,
			"0.009": 5.25634603327,
			"0.01": 6.49646452387,
			"0.011": 7.1494350333,
			"0.012": 5.66444467917,
			"0.013": 1.11023612596,
			"0.014": 0.0,
			"0.015": 0.0,
			"0.016": 0.0,
			"0.017": 0.0,
			"0.018": 0.0,
			"0.019": 0.0,
			"0.02": 0.0,
			"0.021": 0.0,
			"0.022": 0.0,
			"0.023": 0.0,
			"0.024": 0.0,
			"0.025": 0.0
		}
	}
}
