{
	 "smiles": "NS(=O)(=O)C1=CC2=C(NCC2)C=C1", 
	 "Tm": 437.15, 
	 "num_atms": 23, 
	 "gaussian": { 
		 "optdone": 1, 
		 "sigma_profile": "yes", 
		 "theory": "DFT", 
		 "functional": "B3LYP", 
		 "basiset": "6-31G**", 
		 "properties": { 
			 "R2extent": 4166.5666, 
			 "electric_dipole_moment_norm": 5.26382523266, 
			 "electric_quadrupole_moment_norm": 17.7958025461, 
			 "total_energy": -968.951566391, 
			 "HOMO_LUMO_gap": 0.19264, 
			 "cosmo_polarized_energy": -18.77, 
			 "cosmo_cavitation_energy": 27.61, 
			 "cosmo_dispersion_energy": -21.3, 
			 "cosmo_repulsion_energy": 1.65, 
			 "cosmo_total_nonelectrostatic_energy": 7.97, 
			 "SMD_solvation_energy": 2.73 
		},
		"coords": [
			{
				"x": 4.3425932589,
				"y": 0.254363037,
				"z": 2.2218950109,
				"element": "N" 
			},
			{
				"x": 2.9207367018,
				"y": 1.181314568,
				"z": 2.3600913424,
				"element": "S" 
			},
			{
				"x": 3.2454620677,
				"y": 2.6025988659,
				"z": 2.180175096,
				"element": "O" 
			},
			{
				"x": 2.2821587743,
				"y": 0.6933406182,
				"z": 3.5874777097,
				"element": "O" 
			},
			{
				"x": 1.9651201568,
				"y": 0.6591604319,
				"z": 0.9541014355,
				"element": "C" 
			},
			{
				"x": 1.351648338,
				"y": -0.6066602435,
				"z": 0.9750018741,
				"element": "C" 
			},
			{
				"x": 0.594654433,
				"y": -0.9856159805,
				"z": -0.1150231512,
				"element": "C" 
			},
			{
				"x": 0.4481927576,
				"y": -0.1190727984,
				"z": -1.2207398726,
				"element": "C" 
			},
			{
				"x": -0.3262433862,
				"y": -0.7188682837,
				"z": -2.203607847,
				"element": "N" 
			},
			{
				"x": -1.0510600619,
				"y": -1.8577213262,
				"z": -1.6098321083,
				"element": "C" 
			},
			{
				"x": -0.1536194599,
				"y": -2.2685858061,
				"z": -0.415147545,
				"element": "C" 
			},
			{
				"x": 1.0543263836,
				"y": 1.1398110658,
				"z": -1.2378953576,
				"element": "C" 
			},
			{
				"x": 1.81741401,
				"y": 1.5228992413,
				"z": -0.1326672661,
				"element": "C" 
			},
			{
				"x": 5.0635921273,
				"y": 0.7956360056,
				"z": 1.7498083683,
				"element": "H" 
			},
			{
				"x": 4.6407997352,
				"y": 0.0117464928,
				"z": 3.1644521018,
				"element": "H" 
			},
			{
				"x": 1.4635466778,
				"y": -1.2509523205,
				"z": 1.8411122693,
				"element": "H" 
			},
			{
				"x": -0.8367834235,
				"y": -0.118379792,
				"z": -2.8369514515,
				"element": "H" 
			},
			{
				"x": -2.0465175579,
				"y": -1.5521969941,
				"z": -1.2534675533,
				"element": "H" 
			},
			{
				"x": -1.1816192892,
				"y": -2.6610617052,
				"z": -2.3399717579,
				"element": "H" 
			},
			{
				"x": 0.5475398388,
				"y": -3.0584286921,
				"z": -0.7142710844,
				"element": "H" 
			},
			{
				"x": -0.7358343286,
				"y": -2.6481470108,
				"z": 0.4287845897,
				"element": "H" 
			},
			{
				"x": 0.9307993322,
				"y": 1.8121669487,
				"z": -2.0814545943,
				"element": "H" 
			},
			{
				"x": 2.2870929142,
				"y": 2.4996536778,
				"z": -0.0981702083,
				"element": "H" 
			}
		],
		 "valence_orbital": [ 
			{
				"type": "occ",
				"energy": -0.30197,
				"method": "rhf"
			},
			{
				"type": "occ",
				"energy": -0.29138,
				"method": "rhf"
			},
			{
				"type": "occ",
				"energy": -0.27569,
				"method": "rhf"
			},
			{
				"type": "occ",
				"energy": -0.25758,
				"method": "rhf"
			},
			{
				"type": "occ",
				"energy": -0.20978,
				"method": "rhf"
			},
			{
				"type": "unocc",
				"energy": -0.01714,
				"method": "rhf"
			},
			{
				"type": "unocc",
				"energy": -0.01148,
				"method": "rhf"
			},
			{
				"type": "unocc",
				"energy": 0.06558,
				"method": "rhf"
			},
			{
				"type": "unocc",
				"energy": 0.07534,
				"method": "rhf"
			},
			{
				"type": "unocc",
				"energy": 0.09641,
				"method": "rhf"
			}
		],
		"cosmo_sigma_profile": { 
			"-0.025": 0.0,
			"-0.024": 0.0,
			"-0.023": 0.0,
			"-0.022": 0.0,
			"-0.021": 0.0,
			"-0.02": 0.0,
			"-0.019": 0.0,
			"-0.018": 0.0,
			"-0.017": 0.0,
			"-0.016": 0.0,
			"-0.015": 0.294720638687,
			"-0.014": 2.65622496768,
			"-0.013": 3.5206152594,
			"-0.012": 4.54411170857,
			"-0.011": 3.8270632677,
			"-0.01": 3.68896015136,
			"-0.009": 2.80099650647,
			"-0.008": 2.4532654748,
			"-0.007": 4.65141538457,
			"-0.006": 7.09951153145,
			"-0.005": 13.1669208636,
			"-0.004": 19.1905916549,
			"-0.003": 18.007392029,
			"-0.002": 17.071956522,
			"-0.001": 12.1538519987,
			"0.0": 8.56252957761,
			"0.001": 7.94986503056,
			"0.002": 9.65672927425,
			"0.003": 12.3035552397,
			"0.004": 13.7477223559,
			"0.005": 6.55710658844,
			"0.006": 5.05110368149,
			"0.007": 4.81773789968,
			"0.008": 4.58256196786,
			"0.009": 4.33576954709,
			"0.01": 5.29010699429,
			"0.011": 11.4042914471,
			"0.012": 8.49664568232,
			"0.013": 0.81980965477,
			"0.014": 0.0,
			"0.015": 0.0,
			"0.016": 0.0,
			"0.017": 0.0,
			"0.018": 0.0,
			"0.019": 0.0,
			"0.02": 0.0,
			"0.021": 0.0,
			"0.022": 0.0,
			"0.023": 0.0,
			"0.024": 0.0,
			"0.025": 0.0
		}
	}
}
