{
	 "smiles": "CCCCCCCCCCCCCCCCOC(C)=O", 
	 "Tm": 254.65, 
	 "num_atms": 56, 
	 "gaussian": { 
		 "optdone": 1, 
		 "sigma_profile": "yes", 
		 "theory": "DFT", 
		 "functional": "B3LYP", 
		 "basiset": "6-31G**", 
		 "properties": { 
			 "R2extent": 9512.1156, 
			 "electric_dipole_moment_norm": 2.06243681843, 
			 "electric_quadrupole_moment_norm": 15.3736128974, 
			 "total_energy": -858.122296518, 
			 "HOMO_LUMO_gap": 0.2821, 
			 "cosmo_polarized_energy": -6.96, 
			 "cosmo_cavitation_energy": 55.45, 
			 "cosmo_dispersion_energy": -33.77, 
			 "cosmo_repulsion_energy": 2.71, 
			 "cosmo_total_nonelectrostatic_energy": 24.39, 
			 "SMD_solvation_energy": 8.63 
		},
		"coords": [
			{
				"x": -2.3665912123,
				"y": 4.1896421204,
				"z": -0.2582166822,
				"element": "C" 
			},
			{
				"x": -1.9470672752,
				"y": 2.7766863883,
				"z": -0.676193505,
				"element": "C" 
			},
			{
				"x": -2.93160728,
				"y": 1.6910174722,
				"z": -0.2225296543,
				"element": "C" 
			},
			{
				"x": -2.5154755438,
				"y": 0.2757923466,
				"z": -0.6476364055,
				"element": "C" 
			},
			{
				"x": -3.5073815805,
				"y": -0.8286381829,
				"z": -0.2339386423,
				"element": "C" 
			},
			{
				"x": -3.5932430554,
				"y": -1.1506424607,
				"z": 1.276180666,
				"element": "C" 
			},
			{
				"x": -2.6712900337,
				"y": -2.2834318464,
				"z": 1.7698517759,
				"element": "C" 
			},
			{
				"x": -1.1535604509,
				"y": -2.0340531948,
				"z": 1.7201040021,
				"element": "C" 
			},
			{
				"x": -0.6651333067,
				"y": -0.9110798407,
				"z": 2.6479033821,
				"element": "C" 
			},
			{
				"x": 0.8644935544,
				"y": -0.7719897944,
				"z": 2.7307860999,
				"element": "C" 
			},
			{
				"x": 1.5407039505,
				"y": -0.3059057429,
				"z": 1.433306415,
				"element": "C" 
			},
			{
				"x": 3.059332283,
				"y": -0.1308360742,
				"z": 1.5796754884,
				"element": "C" 
			},
			{
				"x": 3.7876540062,
				"y": 0.2749845476,
				"z": 0.2871766056,
				"element": "C" 
			},
			{
				"x": 3.4486908489,
				"y": 1.6878992502,
				"z": -0.2120472758,
				"element": "C" 
			},
			{
				"x": 4.2417547368,
				"y": 2.1286389201,
				"z": -1.4539974166,
				"element": "C" 
			},
			{
				"x": 3.9048279629,
				"y": 1.3703218456,
				"z": -2.7308371503,
				"element": "C" 
			},
			{
				"x": 2.5169754715,
				"y": 1.6303007217,
				"z": -3.045810773,
				"element": "O" 
			},
			{
				"x": 2.0115174009,
				"y": 0.9561664684,
				"z": -4.1039778578,
				"element": "C" 
			},
			{
				"x": 0.5612553423,
				"y": 1.3168858117,
				"z": -4.32811726,
				"element": "C" 
			},
			{
				"x": 2.6543703391,
				"y": 0.1754697254,
				"z": -4.7715966153,
				"element": "O" 
			},
			{
				"x": -2.4458509254,
				"y": 4.27296487,
				"z": 0.8318030756,
				"element": "H" 
			},
			{
				"x": -3.3430826223,
				"y": 4.4539657224,
				"z": -0.6800355506,
				"element": "H" 
			},
			{
				"x": -1.6442234433,
				"y": 4.939632278,
				"z": -0.5968747012,
				"element": "H" 
			},
			{
				"x": -1.841898137,
				"y": 2.7352215411,
				"z": -1.7693726854,
				"element": "H" 
			},
			{
				"x": -0.9509227731,
				"y": 2.5553047401,
				"z": -0.2685543476,
				"element": "H" 
			},
			{
				"x": -3.0372023729,
				"y": 1.7407230212,
				"z": 0.8698874851,
				"element": "H" 
			},
			{
				"x": -3.9282564324,
				"y": 1.9118223853,
				"z": -0.6317419166,
				"element": "H" 
			},
			{
				"x": -2.4147054228,
				"y": 0.2579559039,
				"z": -1.7421463872,
				"element": "H" 
			},
			{
				"x": -1.5160987453,
				"y": 0.0589852351,
				"z": -0.2503023976,
				"element": "H" 
			},
			{
				"x": -3.2639317481,
				"y": -1.751695329,
				"z": -0.7774596249,
				"element": "H" 
			},
			{
				"x": -4.5026356726,
				"y": -0.5309863711,
				"z": -0.5906412656,
				"element": "H" 
			},
			{
				"x": -3.422394889,
				"y": -0.241908158,
				"z": 1.8666001215,
				"element": "H" 
			},
			{
				"x": -4.6220889666,
				"y": -1.4545854848,
				"z": 1.5061224231,
				"element": "H" 
			},
			{
				"x": -2.9469218635,
				"y": -2.5228820432,
				"z": 2.8066036864,
				"element": "H" 
			},
			{
				"x": -2.8956666853,
				"y": -3.1857151271,
				"z": 1.1842682631,
				"element": "H" 
			},
			{
				"x": -0.8444942361,
				"y": -1.8357483146,
				"z": 0.6868826785,
				"element": "H" 
			},
			{
				"x": -0.6460909358,
				"y": -2.9657212376,
				"z": 2.007570997,
				"element": "H" 
			},
			{
				"x": -1.0555902183,
				"y": -1.1002453857,
				"z": 3.6575429154,
				"element": "H" 
			},
			{
				"x": -1.094577831,
				"y": 0.0503314876,
				"z": 2.3350140003,
				"element": "H" 
			},
			{
				"x": 1.2987608263,
				"y": -1.7338073876,
				"z": 3.0400312369,
				"element": "H" 
			},
			{
				"x": 1.1109972336,
				"y": -0.0593957686,
				"z": 3.5298389644,
				"element": "H" 
			},
			{
				"x": 1.3440135469,
				"y": -1.026089766,
				"z": 0.6277743881,
				"element": "H" 
			},
			{
				"x": 1.082845972,
				"y": 0.6406885439,
				"z": 1.1154407816,
				"element": "H" 
			},
			{
				"x": 3.4871305313,
				"y": -1.0753360087,
				"z": 1.9423175156,
				"element": "H" 
			},
			{
				"x": 3.2661231867,
				"y": 0.6140012996,
				"z": 2.3618160509,
				"element": "H" 
			},
			{
				"x": 4.8714315122,
				"y": 0.213415773,
				"z": 0.4580589928,
				"element": "H" 
			},
			{
				"x": 3.561441856,
				"y": -0.4648216675,
				"z": -0.4927670541,
				"element": "H" 
			},
			{
				"x": 3.6466337298,
				"y": 2.4033808748,
				"z": 0.5972007947,
				"element": "H" 
			},
			{
				"x": 2.3791558172,
				"y": 1.765638812,
				"z": -0.4367587324,
				"element": "H" 
			},
			{
				"x": 4.0747017807,
				"y": 3.1974831675,
				"z": -1.6341408304,
				"element": "H" 
			},
			{
				"x": 5.3183067138,
				"y": 2.0071427568,
				"z": -1.2726199419,
				"element": "H" 
			},
			{
				"x": 4.0478489005,
				"y": 0.2905064566,
				"z": -2.6299762989,
				"element": "H" 
			},
			{
				"x": 4.5247792931,
				"y": 1.7041145,
				"z": -3.5695761879,
				"element": "H" 
			},
			{
				"x": -0.0204931734,
				"y": 1.1280239875,
				"z": -3.4211378966,
				"element": "H" 
			},
			{
				"x": 0.1656134941,
				"y": 0.7298540514,
				"z": -5.1563328553,
				"element": "H" 
			},
			{
				"x": 0.4731165418,
				"y": 2.3838521608,
				"z": -4.5548208935,
				"element": "H" 
			}
		],
		 "valence_orbital": [ 
			{
				"type": "occ",
				"energy": -0.3015,
				"method": "rhf"
			},
			{
				"type": "occ",
				"energy": -0.29965,
				"method": "rhf"
			},
			{
				"type": "occ",
				"energy": -0.29861,
				"method": "rhf"
			},
			{
				"type": "occ",
				"energy": -0.2931,
				"method": "rhf"
			},
			{
				"type": "occ",
				"energy": -0.26545,
				"method": "rhf"
			},
			{
				"type": "unocc",
				"energy": 0.01665,
				"method": "rhf"
			},
			{
				"type": "unocc",
				"energy": 0.05993,
				"method": "rhf"
			},
			{
				"type": "unocc",
				"energy": 0.08298,
				"method": "rhf"
			},
			{
				"type": "unocc",
				"energy": 0.08762,
				"method": "rhf"
			},
			{
				"type": "unocc",
				"energy": 0.09073,
				"method": "rhf"
			}
		],
		"cosmo_sigma_profile": { 
			"-0.025": 0.0,
			"-0.024": 0.0,
			"-0.023": 0.0,
			"-0.022": 0.0,
			"-0.021": 0.0,
			"-0.02": 0.0,
			"-0.019": 0.0,
			"-0.018": 0.0,
			"-0.017": 0.0,
			"-0.016": 0.0,
			"-0.015": 0.0,
			"-0.014": 0.0,
			"-0.013": 0.0,
			"-0.012": 0.0,
			"-0.011": 0.0,
			"-0.01": 0.0,
			"-0.009": 0.0,
			"-0.008": 0.0,
			"-0.007": 0.343244109653,
			"-0.006": 2.37744482214,
			"-0.005": 6.12950450544,
			"-0.004": 13.0083982321,
			"-0.003": 22.7722751187,
			"-0.002": 58.7674089128,
			"-0.001": 93.2857457783,
			"0.0": 95.0704735558,
			"0.001": 72.1305712439,
			"0.002": 30.1171857688,
			"0.003": 4.41648495103,
			"0.004": 2.82509741361,
			"0.005": 3.2100995497,
			"0.006": 2.31740695616,
			"0.007": 2.92463633861,
			"0.008": 1.84358840078,
			"0.009": 2.0132694292,
			"0.01": 1.87560743527,
			"0.011": 2.37285493388,
			"0.012": 5.19982686381,
			"0.013": 2.15412689297,
			"0.014": 0.139962418421,
			"0.015": 0.0,
			"0.016": 0.0,
			"0.017": 0.0,
			"0.018": 0.0,
			"0.019": 0.0,
			"0.02": 0.0,
			"0.021": 0.0,
			"0.022": 0.0,
			"0.023": 0.0,
			"0.024": 0.0,
			"0.025": 0.0
		}
	}
}
