{
	 "smiles": "OC(=O)C1CN(C2CCCCCC2)C(=O)C1", 
	 "Tm": 439.15, 
	 "num_atms": 35, 
	 "gaussian": { 
		 "optdone": 1, 
		 "sigma_profile": "yes", 
		 "theory": "DFT", 
		 "functional": "B3LYP", 
		 "basiset": "6-31G**", 
		 "properties": { 
			 "R2extent": 5120.5383, 
			 "electric_dipole_moment_norm": 5.07233900089, 
			 "electric_quadrupole_moment_norm": 23.4576245338, 
			 "total_energy": -749.182620264, 
			 "HOMO_LUMO_gap": 0.25527, 
			 "cosmo_polarized_energy": -17.63, 
			 "cosmo_cavitation_energy": 34.69, 
			 "cosmo_dispersion_energy": -24.5, 
			 "cosmo_repulsion_energy": 1.91, 
			 "cosmo_total_nonelectrostatic_energy": 12.11, 
			 "SMD_solvation_energy": 6.39 
		},
		"coords": [
			{
				"x": 0.7905128921,
				"y": -3.6632914573,
				"z": -1.9874455655,
				"element": "O" 
			},
			{
				"x": 0.8699195498,
				"y": -3.1255498504,
				"z": -3.230824037,
				"element": "C" 
			},
			{
				"x": 1.1118094537,
				"y": -3.8173523478,
				"z": -4.1883428001,
				"element": "O" 
			},
			{
				"x": 0.6504693533,
				"y": -1.6129830503,
				"z": -3.3206551125,
				"element": "C" 
			},
			{
				"x": -0.5799882093,
				"y": -1.1501663702,
				"z": -2.5006650134,
				"element": "C" 
			},
			{
				"x": -0.014023733,
				"y": -0.9003648043,
				"z": -1.1707651446,
				"element": "N" 
			},
			{
				"x": -0.8228537488,
				"y": -0.5210639021,
				"z": 0.0018785867,
				"element": "C" 
			},
			{
				"x": -1.8993690449,
				"y": -1.5802391303,
				"z": 0.2991290631,
				"element": "C" 
			},
			{
				"x": -2.4313818253,
				"y": -1.5509898657,
				"z": 1.7658545951,
				"element": "C" 
			},
			{
				"x": -2.1246077709,
				"y": -0.281582679,
				"z": 2.5830265072,
				"element": "C" 
			},
			{
				"x": -2.7614226087,
				"y": 1.0220430112,
				"z": 2.0678337652,
				"element": "C" 
			},
			{
				"x": -2.7342320716,
				"y": 1.1957149161,
				"z": 0.5406921672,
				"element": "C" 
			},
			{
				"x": -1.3893263629,
				"y": 0.9220692938,
				"z": -0.1550783445,
				"element": "C" 
			},
			{
				"x": 1.3243557047,
				"y": -0.5316233224,
				"z": -1.2420796453,
				"element": "C" 
			},
			{
				"x": 1.9770734821,
				"y": -0.0698900116,
				"z": -0.3237789146,
				"element": "O" 
			},
			{
				"x": 1.8079512605,
				"y": -0.8236234265,
				"z": -2.6625089349,
				"element": "C" 
			},
			{
				"x": 0.5858348138,
				"y": -2.9673271425,
				"z": -1.3370795577,
				"element": "H" 
			},
			{
				"x": 0.5400296003,
				"y": -1.3846167671,
				"z": -4.3807437671,
				"element": "H" 
			},
			{
				"x": -1.3680327554,
				"y": -1.9068699029,
				"z": -2.4566840153,
				"element": "H" 
			},
			{
				"x": -1.0138253427,
				"y": -0.2396710108,
				"z": -2.9372760136,
				"element": "H" 
			},
			{
				"x": -0.0918656615,
				"y": -0.523052086,
				"z": 0.8133865702,
				"element": "H" 
			},
			{
				"x": -1.4752749992,
				"y": -2.5711708976,
				"z": 0.0989287879,
				"element": "H" 
			},
			{
				"x": -2.7315695385,
				"y": -1.4636220545,
				"z": -0.4046259795,
				"element": "H" 
			},
			{
				"x": -3.5139685903,
				"y": -1.7264548333,
				"z": 1.756374126,
				"element": "H" 
			},
			{
				"x": -1.9975401514,
				"y": -2.3984647714,
				"z": 2.3085572231,
				"element": "H" 
			},
			{
				"x": -2.4538958199,
				"y": -0.4522042562,
				"z": 3.6151421173,
				"element": "H" 
			},
			{
				"x": -1.0379272146,
				"y": -0.1524492183,
				"z": 2.6479989537,
				"element": "H" 
			},
			{
				"x": -2.2538492921,
				"y": 1.8690439513,
				"z": 2.5470262715,
				"element": "H" 
			},
			{
				"x": -3.8085710376,
				"y": 1.0740949323,
				"z": 2.3931516286,
				"element": "H" 
			},
			{
				"x": -3.0442722717,
				"y": 2.2189358665,
				"z": 0.2954759768,
				"element": "H" 
			},
			{
				"x": -3.4988161527,
				"y": 0.547423002,
				"z": 0.0954906047,
				"element": "H" 
			},
			{
				"x": -1.5328629994,
				"y": 1.1246837977,
				"z": -1.223822222,
				"element": "H" 
			},
			{
				"x": -0.6256202497,
				"y": 1.6300808153,
				"z": 0.1864627269,
				"element": "H" 
			},
			{
				"x": 1.9695665162,
				"y": 0.1340262629,
				"z": -3.1704394622,
				"element": "H" 
			},
			{
				"x": 2.7663748259,
				"y": -1.3475926906,
				"z": -2.6470951414,
				"element": "H" 
			}
		],
		 "valence_orbital": [ 
			{
				"type": "occ",
				"energy": -0.31756,
				"method": "rhf"
			},
			{
				"type": "occ",
				"energy": -0.31407,
				"method": "rhf"
			},
			{
				"type": "occ",
				"energy": -0.27109,
				"method": "rhf"
			},
			{
				"type": "occ",
				"energy": -0.2683,
				"method": "rhf"
			},
			{
				"type": "occ",
				"energy": -0.25549,
				"method": "rhf"
			},
			{
				"type": "unocc",
				"energy": -0.00022,
				"method": "rhf"
			},
			{
				"type": "unocc",
				"energy": 0.01199,
				"method": "rhf"
			},
			{
				"type": "unocc",
				"energy": 0.05066,
				"method": "rhf"
			},
			{
				"type": "unocc",
				"energy": 0.07301,
				"method": "rhf"
			},
			{
				"type": "unocc",
				"energy": 0.08083,
				"method": "rhf"
			}
		],
		"cosmo_sigma_profile": { 
			"-0.025": 0.0,
			"-0.024": 0.0,
			"-0.023": 0.0,
			"-0.022": 0.0,
			"-0.021": 0.0,
			"-0.02": 0.0,
			"-0.019": 0.0,
			"-0.018": 0.0,
			"-0.017": 0.0,
			"-0.016": 0.0,
			"-0.015": 0.0,
			"-0.014": 0.0,
			"-0.013": 0.0,
			"-0.012": 0.0,
			"-0.011": 0.332833022835,
			"-0.01": 0.653049052268,
			"-0.009": 1.18128847247,
			"-0.008": 2.29107172926,
			"-0.007": 14.8915335761,
			"-0.006": 19.7562430393,
			"-0.005": 14.781220049,
			"-0.004": 16.6280075995,
			"-0.003": 21.8053317926,
			"-0.002": 30.7671755986,
			"-0.001": 32.8803553274,
			"0.0": 31.4247663648,
			"0.001": 20.0117306942,
			"0.002": 4.79867641426,
			"0.003": 2.90549914259,
			"0.004": 3.53144761931,
			"0.005": 3.56428778882,
			"0.006": 2.81603430922,
			"0.007": 4.53252184325,
			"0.008": 3.84295918139,
			"0.009": 4.0668455069,
			"0.01": 5.85351501512,
			"0.011": 7.44532471361,
			"0.012": 8.72418831875,
			"0.013": 7.19129006358,
			"0.014": 1.90707672045,
			"0.015": 0.0501624063709,
			"0.016": 0.0,
			"0.017": 0.0,
			"0.018": 0.0,
			"0.019": 0.0,
			"0.02": 0.0,
			"0.021": 0.0,
			"0.022": 0.0,
			"0.023": 0.0,
			"0.024": 0.0,
			"0.025": 0.0
		}
	}
}
