{
	 "smiles": "CC1=CC(COC2=CC(=CC=C2)C(O)=O)=CC=C1", 
	 "Tm": 398.15, 
	 "num_atms": 32, 
	 "gaussian": { 
		 "optdone": 1, 
		 "sigma_profile": "yes", 
		 "theory": "DFT", 
		 "functional": "B3LYP", 
		 "basiset": "6-31G**", 
		 "properties": { 
			 "R2extent": 5571.6552, 
			 "electric_dipole_moment_norm": 2.85097840399, 
			 "electric_quadrupole_moment_norm": 14.8691271365, 
			 "total_energy": -805.72415992, 
			 "HOMO_LUMO_gap": 0.18191, 
			 "cosmo_polarized_energy": -12.05, 
			 "cosmo_cavitation_energy": 36.54, 
			 "cosmo_dispersion_energy": -25.27, 
			 "cosmo_repulsion_energy": 1.98, 
			 "cosmo_total_nonelectrostatic_energy": 13.25, 
			 "SMD_solvation_energy": 7.59 
		},
		"coords": [
			{
				"x": 1.1577514851,
				"y": -0.8519907056,
				"z": -4.0498435407,
				"element": "C" 
			},
			{
				"x": 1.6357422279,
				"y": -0.6962957794,
				"z": -2.6249519648,
				"element": "C" 
			},
			{
				"x": 1.0663142761,
				"y": 0.262403455,
				"z": -1.7773204043,
				"element": "C" 
			},
			{
				"x": 1.5156508532,
				"y": 0.4388155449,
				"z": -0.4644661659,
				"element": "C" 
			},
			{
				"x": 0.9177212655,
				"y": 1.5333791852,
				"z": 0.3983493523,
				"element": "C" 
			},
			{
				"x": 0.9055113803,
				"y": 1.2373180541,
				"z": 1.7950115068,
				"element": "O" 
			},
			{
				"x": -0.0550433182,
				"y": 0.4009443396,
				"z": 2.2943565122,
				"element": "C" 
			},
			{
				"x": -0.9897550145,
				"y": -0.2933414521,
				"z": 1.5224481045,
				"element": "C" 
			},
			{
				"x": -1.9383661653,
				"y": -1.1076238964,
				"z": 2.1617438019,
				"element": "C" 
			},
			{
				"x": -1.9525926816,
				"y": -1.237062313,
				"z": 3.5536656692,
				"element": "C" 
			},
			{
				"x": -1.0083433214,
				"y": -0.5448925829,
				"z": 4.3119453909,
				"element": "C" 
			},
			{
				"x": -0.0659024268,
				"y": 0.2695156218,
				"z": 3.6917981986,
				"element": "C" 
			},
			{
				"x": -2.9562745601,
				"y": -1.8643054416,
				"z": 1.3851515003,
				"element": "C" 
			},
			{
				"x": -2.871684359,
				"y": -1.6576384443,
				"z": 0.0451212578,
				"element": "O" 
			},
			{
				"x": -3.7956951694,
				"y": -2.5999543858,
				"z": 1.866673048,
				"element": "O" 
			},
			{
				"x": 2.5526488302,
				"y": -0.3663832737,
				"z": 0.017917054,
				"element": "C" 
			},
			{
				"x": 3.1211668685,
				"y": -1.333499585,
				"z": -0.8102131076,
				"element": "C" 
			},
			{
				"x": 2.6689390793,
				"y": -1.4962861178,
				"z": -2.1201450914,
				"element": "C" 
			},
			{
				"x": 1.2289823828,
				"y": -1.89141991,
				"z": -4.3844206657,
				"element": "H" 
			},
			{
				"x": 0.1179065808,
				"y": -0.5306653779,
				"z": -4.1614690009,
				"element": "H" 
			},
			{
				"x": 1.7614737871,
				"y": -0.2476160962,
				"z": -4.7386153532,
				"element": "H" 
			},
			{
				"x": 0.2514132859,
				"y": 0.8810513558,
				"z": -2.1501407127,
				"element": "H" 
			},
			{
				"x": -0.0919486087,
				"y": 1.791580684,
				"z": 0.0528287089,
				"element": "H" 
			},
			{
				"x": 1.5283141337,
				"y": 2.4403589636,
				"z": 0.3297326268,
				"element": "H" 
			},
			{
				"x": -0.9861711944,
				"y": -0.2354912462,
				"z": 0.4429355155,
				"element": "H" 
			},
			{
				"x": -2.6974598121,
				"y": -1.8756581777,
				"z": 4.0142019356,
				"element": "H" 
			},
			{
				"x": -1.0071747867,
				"y": -0.6363630644,
				"z": 5.3939990233,
				"element": "H" 
			},
			{
				"x": 0.6719024075,
				"y": 0.8200257066,
				"z": 4.2666282656,
				"element": "H" 
			},
			{
				"x": -3.5744958192,
				"y": -2.2019293773,
				"z": -0.3457765515,
				"element": "H" 
			},
			{
				"x": 2.8970667544,
				"y": -0.2406342333,
				"z": 1.0394636881,
				"element": "H" 
			},
			{
				"x": 3.9190710453,
				"y": -1.966631931,
				"z": -0.4321431397,
				"element": "H" 
			},
			{
				"x": 3.1169305937,
				"y": -2.2560095189,
				"z": -2.7559654619,
				"element": "H" 
			}
		],
		 "valence_orbital": [ 
			{
				"type": "occ",
				"energy": -0.27236,
				"method": "rhf"
			},
			{
				"type": "occ",
				"energy": -0.25951,
				"method": "rhf"
			},
			{
				"type": "occ",
				"energy": -0.24917,
				"method": "rhf"
			},
			{
				"type": "occ",
				"energy": -0.241,
				"method": "rhf"
			},
			{
				"type": "occ",
				"energy": -0.22635,
				"method": "rhf"
			},
			{
				"type": "unocc",
				"energy": -0.04444,
				"method": "rhf"
			},
			{
				"type": "unocc",
				"energy": -0.00699,
				"method": "rhf"
			},
			{
				"type": "unocc",
				"energy": -0.00394,
				"method": "rhf"
			},
			{
				"type": "unocc",
				"energy": 0.0051,
				"method": "rhf"
			},
			{
				"type": "unocc",
				"energy": 0.0645,
				"method": "rhf"
			}
		],
		"cosmo_sigma_profile": { 
			"-0.025": 0.0,
			"-0.024": 0.0,
			"-0.023": 0.0,
			"-0.022": 0.0,
			"-0.021": 0.0,
			"-0.02": 0.0,
			"-0.019": 0.0,
			"-0.018": 0.553451540678,
			"-0.017": 1.02345355953,
			"-0.016": 0.877378952026,
			"-0.015": 0.901915296016,
			"-0.014": 0.263716916734,
			"-0.013": 0.739761547087,
			"-0.012": 0.890011418673,
			"-0.011": 0.770943041011,
			"-0.01": 0.914140905901,
			"-0.009": 0.300013193145,
			"-0.008": 0.55476333815,
			"-0.007": 4.36325318245,
			"-0.006": 13.3606244213,
			"-0.005": 18.7882137007,
			"-0.004": 25.1094506976,
			"-0.003": 22.9610691606,
			"-0.002": 21.5021620274,
			"-0.001": 20.4052758305,
			"0.0": 24.2328951564,
			"0.001": 23.1032541649,
			"0.002": 21.8695488337,
			"0.003": 24.9451256575,
			"0.004": 20.071994355,
			"0.005": 10.9284799561,
			"0.006": 10.7029536762,
			"0.007": 4.09502924801,
			"0.008": 3.8865463865,
			"0.009": 2.39863756976,
			"0.01": 2.56663067592,
			"0.011": 3.53562199794,
			"0.012": 4.29454980777,
			"0.013": 0.0831518349177,
			"0.014": 0.0,
			"0.015": 0.0,
			"0.016": 0.0,
			"0.017": 0.0,
			"0.018": 0.0,
			"0.019": 0.0,
			"0.02": 0.0,
			"0.021": 0.0,
			"0.022": 0.0,
			"0.023": 0.0,
			"0.024": 0.0,
			"0.025": 0.0
		}
	}
}
