{
	 "smiles": "OC(=O)C=CC1=CSC=N1", 
	 "Tm": 448.15, 
	 "num_atms": 15, 
	 "gaussian": { 
		 "optdone": 1, 
		 "sigma_profile": "yes", 
		 "theory": "DFT", 
		 "functional": "B3LYP", 
		 "basiset": "6-31G**", 
		 "properties": { 
			 "R2extent": 2724.8009, 
			 "electric_dipole_moment_norm": 2.61496210489, 
			 "electric_quadrupole_moment_norm": 12.9200315522, 
			 "total_energy": -835.02241492, 
			 "HOMO_LUMO_gap": 0.16886, 
			 "cosmo_polarized_energy": -12.47, 
			 "cosmo_cavitation_energy": 22.44, 
			 "cosmo_dispersion_energy": -17.09, 
			 "cosmo_repulsion_energy": 1.34, 
			 "cosmo_total_nonelectrostatic_energy": 6.69, 
			 "SMD_solvation_energy": 4.14 
		},
		"coords": [
			{
				"x": -1.092869597,
				"y": 1.984757128,
				"z": -1.4178909754,
				"element": "O" 
			},
			{
				"x": -0.5014893954,
				"y": 1.0634003549,
				"z": -2.223988813,
				"element": "C" 
			},
			{
				"x": -0.5981455736,
				"y": 1.1059878677,
				"z": -3.4359320324,
				"element": "O" 
			},
			{
				"x": 0.2534650906,
				"y": 0.0311366659,
				"z": -1.4944287744,
				"element": "C" 
			},
			{
				"x": 0.3605161585,
				"y": -0.0147555545,
				"z": -0.1540312559,
				"element": "C" 
			},
			{
				"x": 1.0920438452,
				"y": -1.0091839611,
				"z": 0.6227086388,
				"element": "C" 
			},
			{
				"x": 1.8107267817,
				"y": -2.0860726257,
				"z": 0.1505336311,
				"element": "C" 
			},
			{
				"x": 2.4993669719,
				"y": -2.975285566,
				"z": 1.4553663165,
				"element": "S" 
			},
			{
				"x": 1.769837912,
				"y": -1.8315539365,
				"z": 2.5642491561,
				"element": "C" 
			},
			{
				"x": 1.0838441659,
				"y": -0.8854375407,
				"z": 2.0046693886,
				"element": "N" 
			},
			{
				"x": -1.5499919781,
				"y": 2.5980003567,
				"z": -2.0159362698,
				"element": "H" 
			},
			{
				"x": 0.7233442285,
				"y": -0.7009217632,
				"z": -2.1434460898,
				"element": "H" 
			},
			{
				"x": -0.1322559915,
				"y": 0.7462017338,
				"z": 0.443847636,
				"element": "H" 
			},
			{
				"x": 1.9655280216,
				"y": -2.3926632596,
				"z": -0.8737116371,
				"element": "H" 
			},
			{
				"x": 1.9046793598,
				"y": -1.9398098996,
				"z": 3.6337910807,
				"element": "H" 
			}
		],
		 "valence_orbital": [ 
			{
				"type": "occ",
				"energy": -0.31281,
				"method": "rhf"
			},
			{
				"type": "occ",
				"energy": -0.29879,
				"method": "rhf"
			},
			{
				"type": "occ",
				"energy": -0.29042,
				"method": "rhf"
			},
			{
				"type": "occ",
				"energy": -0.27264,
				"method": "rhf"
			},
			{
				"type": "occ",
				"energy": -0.24262,
				"method": "rhf"
			},
			{
				"type": "unocc",
				"energy": -0.07376,
				"method": "rhf"
			},
			{
				"type": "unocc",
				"energy": -0.02789,
				"method": "rhf"
			},
			{
				"type": "unocc",
				"energy": 0.00305,
				"method": "rhf"
			},
			{
				"type": "unocc",
				"energy": 0.05158,
				"method": "rhf"
			},
			{
				"type": "unocc",
				"energy": 0.0716,
				"method": "rhf"
			}
		],
		"cosmo_sigma_profile": { 
			"-0.025": 0.0,
			"-0.024": 0.0,
			"-0.023": 0.0,
			"-0.022": 0.0,
			"-0.021": 0.0,
			"-0.02": 0.0,
			"-0.019": 0.0,
			"-0.018": 0.508695304542,
			"-0.017": 1.10755343547,
			"-0.016": 0.816835007361,
			"-0.015": 0.803549819183,
			"-0.014": 0.261949085301,
			"-0.013": 0.493007093534,
			"-0.012": 0.651549632454,
			"-0.011": 1.2672460322,
			"-0.01": 6.75460510911,
			"-0.009": 4.74217875962,
			"-0.008": 5.22288968657,
			"-0.007": 5.21822650388,
			"-0.006": 5.39777381415,
			"-0.005": 6.32844979895,
			"-0.004": 6.4624986304,
			"-0.003": 6.8678696857,
			"-0.002": 10.1748592387,
			"-0.001": 14.3398851912,
			"0.0": 19.9124671483,
			"0.001": 23.5865361681,
			"0.002": 16.1759258212,
			"0.003": 6.20764730633,
			"0.004": 4.64229299504,
			"0.005": 3.63331315169,
			"0.006": 4.31897503121,
			"0.007": 3.23053356742,
			"0.008": 3.96875590475,
			"0.009": 3.17530418731,
			"0.01": 2.65780538699,
			"0.011": 3.80027790352,
			"0.012": 6.17729134636,
			"0.013": 2.99264865643,
			"0.014": 0.79327212297,
			"0.015": 0.190230504105,
			"0.016": 0.0,
			"0.017": 0.0,
			"0.018": 0.0,
			"0.019": 0.0,
			"0.02": 0.0,
			"0.021": 0.0,
			"0.022": 0.0,
			"0.023": 0.0,
			"0.024": 0.0,
			"0.025": 0.0
		}
	}
}
