{
	 "smiles": "COC1=C(OC)C=C2C(CCN=C2C2=CC(Cl)=CC=C2[N+]([O-])=O)=C1", 
	 "Tm": 443.15, 
	 "num_atms": 39, 
	 "gaussian": { 
		 "optdone": 1, 
		 "sigma_profile": "yes", 
		 "theory": "DFT", 
		 "functional": "B3LYP", 
		 "basiset": "6-31G**", 
		 "properties": { 
			 "R2extent": 9433.7377, 
			 "electric_dipole_moment_norm": 2.38587135655, 
			 "electric_quadrupole_moment_norm": 17.9655337074, 
			 "total_energy": -1527.2996179, 
			 "HOMO_LUMO_gap": 0.13479, 
			 "cosmo_polarized_energy": -13.54, 
			 "cosmo_cavitation_energy": 44.76, 
			 "cosmo_dispersion_energy": -30.49, 
			 "cosmo_repulsion_energy": 2.33, 
			 "cosmo_total_nonelectrostatic_energy": 16.6, 
			 "SMD_solvation_energy": 7.68 
		},
		"coords": [
			{
				"x": -3.3731788325,
				"y": 2.4909901817,
				"z": -2.287019838,
				"element": "C" 
			},
			{
				"x": -2.8976623731,
				"y": 2.6629801101,
				"z": -0.944569172,
				"element": "O" 
			},
			{
				"x": -2.1927052147,
				"y": 1.6076554749,
				"z": -0.4231339179,
				"element": "C" 
			},
			{
				"x": -0.9486998432,
				"y": 1.2079739684,
				"z": -0.9491187906,
				"element": "C" 
			},
			{
				"x": -0.4011003937,
				"y": 1.8304535575,
				"z": -2.0493036623,
				"element": "O" 
			},
			{
				"x": 0.137837928,
				"y": 3.1320008553,
				"z": -1.7755781084,
				"element": "C" 
			},
			{
				"x": -0.2647564148,
				"y": 0.1461227342,
				"z": -0.362659639,
				"element": "C" 
			},
			{
				"x": -0.7834246619,
				"y": -0.5122965413,
				"z": 0.7598236624,
				"element": "C" 
			},
			{
				"x": -2.0216393686,
				"y": -0.1048869183,
				"z": 1.2934228166,
				"element": "C" 
			},
			{
				"x": -2.5221682871,
				"y": -0.8426892734,
				"z": 2.5101668247,
				"element": "C" 
			},
			{
				"x": -2.1225885907,
				"y": -2.3189297511,
				"z": 2.4147187951,
				"element": "C" 
			},
			{
				"x": -0.6968476228,
				"y": -2.5236382793,
				"z": 2.1507874987,
				"element": "N" 
			},
			{
				"x": -0.1032023903,
				"y": -1.660148099,
				"z": 1.4106882138,
				"element": "C" 
			},
			{
				"x": 1.3460392928,
				"y": -1.935229398,
				"z": 1.121908139,
				"element": "C" 
			},
			{
				"x": 1.6771045329,
				"y": -3.2062725057,
				"z": 0.6370810355,
				"element": "C" 
			},
			{
				"x": 2.9937141108,
				"y": -3.5220098751,
				"z": 0.3086354542,
				"element": "C" 
			},
			{
				"x": 3.3654902442,
				"y": -5.1243649043,
				"z": -0.2902563868,
				"element": "Cl" 
			},
			{
				"x": 4.0203572843,
				"y": -2.5847621683,
				"z": 0.4380047559,
				"element": "C" 
			},
			{
				"x": 3.709807571,
				"y": -1.3199184364,
				"z": 0.9226072281,
				"element": "C" 
			},
			{
				"x": 2.3946792072,
				"y": -1.0121145693,
				"z": 1.271678132,
				"element": "C" 
			},
			{
				"x": 2.1655238682,
				"y": 0.313498933,
				"z": 1.8665352472,
				"element": "N" 
			},
			{
				"x": 1.2394759046,
				"y": 0.4298720947,
				"z": 2.6662047686,
				"element": "O" 
			},
			{
				"x": 2.9344527842,
				"y": 1.2198914812,
				"z": 1.542831871,
				"element": "O" 
			},
			{
				"x": -2.7102224627,
				"y": 0.9476498825,
				"z": 0.6952884849,
				"element": "C" 
			},
			{
				"x": -3.8952296372,
				"y": 3.4148913151,
				"z": -2.5427884238,
				"element": "H" 
			},
			{
				"x": -2.5489164641,
				"y": 2.3220836039,
				"z": -2.9850948268,
				"element": "H" 
			},
			{
				"x": -4.0770984414,
				"y": 1.6512012249,
				"z": -2.3404028782,
				"element": "H" 
			},
			{
				"x": 0.5427396152,
				"y": 3.5004560871,
				"z": -2.7201964018,
				"element": "H" 
			},
			{
				"x": 0.942563529,
				"y": 3.0684315215,
				"z": -1.0331096104,
				"element": "H" 
			},
			{
				"x": -0.6386638002,
				"y": 3.814535607,
				"z": -1.4147336978,
				"element": "H" 
			},
			{
				"x": 0.681239517,
				"y": -0.1472668193,
				"z": -0.8059432927,
				"element": "H" 
			},
			{
				"x": -2.0674519806,
				"y": -0.4082200126,
				"z": 3.4121022861,
				"element": "H" 
			},
			{
				"x": -3.6072511657,
				"y": -0.7419951831,
				"z": 2.6167809093,
				"element": "H" 
			},
			{
				"x": -2.3714870413,
				"y": -2.8476463705,
				"z": 3.3399319065,
				"element": "H" 
			},
			{
				"x": -2.6868757739,
				"y": -2.8125999392,
				"z": 1.6076895222,
				"element": "H" 
			},
			{
				"x": 0.8886908581,
				"y": -3.9403236999,
				"z": 0.5252866139,
				"element": "H" 
			},
			{
				"x": 5.0388217502,
				"y": -2.843912471,
				"z": 0.1735240279,
				"element": "H" 
			},
			{
				"x": 4.4755966191,
				"y": -0.5650294479,
				"z": 1.0515052498,
				"element": "H" 
			},
			{
				"x": -3.6683638564,
				"y": 1.2795660297,
				"z": 1.084605203,
				"element": "H" 
			}
		],
		 "valence_orbital": [ 
			{
				"type": "occ",
				"energy": -0.27157,
				"method": "rhf"
			},
			{
				"type": "occ",
				"energy": -0.26702,
				"method": "rhf"
			},
			{
				"type": "occ",
				"energy": -0.25267,
				"method": "rhf"
			},
			{
				"type": "occ",
				"energy": -0.24769,
				"method": "rhf"
			},
			{
				"type": "occ",
				"energy": -0.22639,
				"method": "rhf"
			},
			{
				"type": "unocc",
				"energy": -0.0916,
				"method": "rhf"
			},
			{
				"type": "unocc",
				"energy": -0.05395,
				"method": "rhf"
			},
			{
				"type": "unocc",
				"energy": -0.03247,
				"method": "rhf"
			},
			{
				"type": "unocc",
				"energy": -0.01347,
				"method": "rhf"
			},
			{
				"type": "unocc",
				"energy": -0.00742,
				"method": "rhf"
			}
		],
		"cosmo_sigma_profile": { 
			"-0.025": 0.0,
			"-0.024": 0.0,
			"-0.023": 0.0,
			"-0.022": 0.0,
			"-0.021": 0.0,
			"-0.02": 0.0,
			"-0.019": 0.0,
			"-0.018": 0.0,
			"-0.017": 0.0,
			"-0.016": 0.0,
			"-0.015": 0.0,
			"-0.014": 0.0,
			"-0.013": 0.0,
			"-0.012": 0.0,
			"-0.011": 0.0,
			"-0.01": 0.00340735344728,
			"-0.009": 1.80864320666,
			"-0.008": 4.41739361631,
			"-0.007": 6.63159338128,
			"-0.006": 11.1494464083,
			"-0.005": 20.396049503,
			"-0.004": 31.1488039566,
			"-0.003": 41.4275088184,
			"-0.002": 39.6083864423,
			"-0.001": 34.2118640142,
			"0.0": 32.6737135417,
			"0.001": 19.4571780825,
			"0.002": 20.9398320242,
			"0.003": 24.2801280045,
			"0.004": 16.3541268226,
			"0.005": 7.94906880936,
			"0.006": 8.92389753555,
			"0.007": 11.668261252,
			"0.008": 8.57390143964,
			"0.009": 6.46745525446,
			"0.01": 4.4982672815,
			"0.011": 3.11858822565,
			"0.012": 0.989811181391,
			"0.013": 0.875974087885,
			"0.014": 0.670155244425,
			"0.015": 0.699820847321,
			"0.016": 0.218802316708,
			"0.017": 0.0,
			"0.018": 0.0,
			"0.019": 0.0,
			"0.02": 0.0,
			"0.021": 0.0,
			"0.022": 0.0,
			"0.023": 0.0,
			"0.024": 0.0,
			"0.025": 0.0
		}
	}
}
