{
	 "smiles": "OC(=O)C(=O)C1=CC=CS1", 
	 "Tm": 365.15, 
	 "num_atms": 14, 
	 "gaussian": { 
		 "optdone": 1, 
		 "sigma_profile": "yes", 
		 "theory": "DFT", 
		 "functional": "B3LYP", 
		 "basiset": "6-31G**", 
		 "properties": { 
			 "R2extent": 2263.7087, 
			 "electric_dipole_moment_norm": 3.79565629371, 
			 "electric_quadrupole_moment_norm": 13.2196095302, 
			 "total_energy": -854.898014437, 
			 "HOMO_LUMO_gap": 0.1616, 
			 "cosmo_polarized_energy": -9.71, 
			 "cosmo_cavitation_energy": 20.81, 
			 "cosmo_dispersion_energy": -16.2, 
			 "cosmo_repulsion_energy": 1.25, 
			 "cosmo_total_nonelectrostatic_energy": 5.86, 
			 "SMD_solvation_energy": 5.62 
		},
		"coords": [
			{
				"x": 2.1116523623,
				"y": 1.1574182241,
				"z": -2.7854812249,
				"element": "O" 
			},
			{
				"x": 1.753683965,
				"y": 0.0059103101,
				"z": -2.2157392416,
				"element": "C" 
			},
			{
				"x": 1.656988496,
				"y": -1.0410865666,
				"z": -2.8116873105,
				"element": "O" 
			},
			{
				"x": 1.4837627844,
				"y": 0.2062897196,
				"z": -0.6983767895,
				"element": "C" 
			},
			{
				"x": 1.6340242458,
				"y": 1.3513754233,
				"z": -0.2658656307,
				"element": "O" 
			},
			{
				"x": 1.0818073631,
				"y": -0.9135022222,
				"z": 0.1216021072,
				"element": "C" 
			},
			{
				"x": 0.8735080588,
				"y": -2.2428467309,
				"z": -0.2150993322,
				"element": "C" 
			},
			{
				"x": 0.4817419875,
				"y": -3.0313599603,
				"z": 0.8917953339,
				"element": "C" 
			},
			{
				"x": 0.3959324991,
				"y": -2.2989689291,
				"z": 2.0545099247,
				"element": "C" 
			},
			{
				"x": 0.7887963202,
				"y": -0.6388449461,
				"z": 1.8283994964,
				"element": "S" 
			},
			{
				"x": 2.1024489545,
				"y": 1.8226042075,
				"z": -2.0629030479,
				"element": "H" 
			},
			{
				"x": 1.0059937837,
				"y": -2.6027858558,
				"z": -1.2265326709,
				"element": "H" 
			},
			{
				"x": 0.2715407901,
				"y": -4.0927896414,
				"z": 0.836684095,
				"element": "H" 
			},
			{
				"x": 0.1195183896,
				"y": -2.6564130322,
				"z": 3.0377942911,
				"element": "H" 
			}
		],
		 "valence_orbital": [ 
			{
				"type": "occ",
				"energy": -0.33608,
				"method": "rhf"
			},
			{
				"type": "occ",
				"energy": -0.32772,
				"method": "rhf"
			},
			{
				"type": "occ",
				"energy": -0.27876,
				"method": "rhf"
			},
			{
				"type": "occ",
				"energy": -0.26778,
				"method": "rhf"
			},
			{
				"type": "occ",
				"energy": -0.2665,
				"method": "rhf"
			},
			{
				"type": "unocc",
				"energy": -0.1049,
				"method": "rhf"
			},
			{
				"type": "unocc",
				"energy": -0.02391,
				"method": "rhf"
			},
			{
				"type": "unocc",
				"energy": 0.01232,
				"method": "rhf"
			},
			{
				"type": "unocc",
				"energy": 0.03211,
				"method": "rhf"
			},
			{
				"type": "unocc",
				"energy": 0.07764,
				"method": "rhf"
			}
		],
		"cosmo_sigma_profile": { 
			"-0.025": 0.0,
			"-0.024": 0.0,
			"-0.023": 0.0,
			"-0.022": 0.0,
			"-0.021": 0.0,
			"-0.02": 0.0,
			"-0.019": 0.0,
			"-0.018": 0.0,
			"-0.017": 0.0,
			"-0.016": 0.0,
			"-0.015": 0.283036930646,
			"-0.014": 0.548159592202,
			"-0.013": 0.473123866956,
			"-0.012": 0.555557684124,
			"-0.011": 0.714205362216,
			"-0.01": 2.46367952627,
			"-0.009": 3.37197691618,
			"-0.008": 6.98045930552,
			"-0.007": 8.3217773945,
			"-0.006": 7.65488619119,
			"-0.005": 8.70913899393,
			"-0.004": 7.36284871218,
			"-0.003": 7.70961281779,
			"-0.002": 8.87858474316,
			"-0.001": 9.49984012504,
			"0.0": 14.625113576,
			"0.001": 19.923095523,
			"0.002": 16.4793033237,
			"0.003": 6.86005643575,
			"0.004": 4.29577058728,
			"0.005": 3.8620634707,
			"0.006": 4.55219115166,
			"0.007": 4.57604704136,
			"0.008": 6.64999269097,
			"0.009": 7.00550699109,
			"0.01": 4.84328801212,
			"0.011": 2.47349661604,
			"0.012": 0.72438176236,
			"0.013": 0.0,
			"0.014": 0.0,
			"0.015": 0.0,
			"0.016": 0.0,
			"0.017": 0.0,
			"0.018": 0.0,
			"0.019": 0.0,
			"0.02": 0.0,
			"0.021": 0.0,
			"0.022": 0.0,
			"0.023": 0.0,
			"0.024": 0.0,
			"0.025": 0.0
		}
	}
}
