{
	 "smiles": "[O-][N+](=NC1=C(C#N)N(N=C1)C1=CC=CC=C1)C1=C(C#N)N(N=C1)C1=CC=CC=C1", 
	 "Tm": 538.15, 
	 "num_atms": 41, 
	 "gaussian": { 
		 "optdone": 1, 
		 "sigma_profile": "yes", 
		 "theory": "DFT", 
		 "functional": "B3LYP", 
		 "basiset": "6-31G**", 
		 "properties": { 
			 "R2extent": 12386.4823, 
			 "electric_dipole_moment_norm": 7.85822283853, 
			 "electric_quadrupole_moment_norm": 32.0493632026, 
			 "total_energy": -1282.3865563, 
			 "HOMO_LUMO_gap": 0.13333, 
			 "cosmo_polarized_energy": -22.11, 
			 "cosmo_cavitation_energy": 50.02, 
			 "cosmo_dispersion_energy": -32.38, 
			 "cosmo_repulsion_energy": 2.42, 
			 "cosmo_total_nonelectrostatic_energy": 20.05, 
			 "SMD_solvation_energy": 9.31 
		},
		"coords": [
			{
				"x": -3.6392631645,
				"y": -2.8954201022,
				"z": -0.4983473992,
				"element": "O" 
			},
			{
				"x": -2.5563878115,
				"y": -2.3098988872,
				"z": -0.2851856215,
				"element": "N" 
			},
			{
				"x": -1.4352917078,
				"y": -2.8353786065,
				"z": -0.627192749,
				"element": "N" 
			},
			{
				"x": -0.2441466516,
				"y": -2.2978015549,
				"z": -0.1610866145,
				"element": "C" 
			},
			{
				"x": 0.9464731339,
				"y": -2.376824529,
				"z": -0.8956432358,
				"element": "C" 
			},
			{
				"x": 1.1463379842,
				"y": -2.9113477974,
				"z": -2.1903666152,
				"element": "C" 
			},
			{
				"x": 1.2915030079,
				"y": -3.3603821757,
				"z": -3.2543571575,
				"element": "N" 
			},
			{
				"x": 1.9408586151,
				"y": -1.8689811774,
				"z": -0.0918294421,
				"element": "N" 
			},
			{
				"x": 1.4620152144,
				"y": -1.5080377617,
				"z": 1.1157646814,
				"element": "N" 
			},
			{
				"x": 0.1580660825,
				"y": -1.757655178,
				"z": 1.0892703068,
				"element": "C" 
			},
			{
				"x": 3.3313015383,
				"y": -1.7083412223,
				"z": -0.3757038542,
				"element": "C" 
			},
			{
				"x": 4.2528300958,
				"y": -1.9343017004,
				"z": 0.6514912843,
				"element": "C" 
			},
			{
				"x": 5.6117690097,
				"y": -1.7715604357,
				"z": 0.3935428644,
				"element": "C" 
			},
			{
				"x": 6.0497600726,
				"y": -1.3964176802,
				"z": -0.8790847071,
				"element": "C" 
			},
			{
				"x": 5.1195035569,
				"y": -1.1697252194,
				"z": -1.894044065,
				"element": "C" 
			},
			{
				"x": 3.7538796105,
				"y": -1.3132036486,
				"z": -1.6476063791,
				"element": "C" 
			},
			{
				"x": -2.7162492658,
				"y": -1.0111563229,
				"z": 0.3364900685,
				"element": "C" 
			},
			{
				"x": -2.1778753804,
				"y": 0.2210002278,
				"z": -0.034002327,
				"element": "C" 
			},
			{
				"x": -1.3077944394,
				"y": 0.5564075594,
				"z": -1.1001103386,
				"element": "C" 
			},
			{
				"x": -0.5930421965,
				"y": 0.8077911815,
				"z": -1.9830779798,
				"element": "N" 
			},
			{
				"x": -2.7410197885,
				"y": 1.1387139098,
				"z": 0.8214554599,
				"element": "N" 
			},
			{
				"x": -3.6023581309,
				"y": 0.5594632204,
				"z": 1.6831166784,
				"element": "N" 
			},
			{
				"x": -3.6050453505,
				"y": -0.7361404868,
				"z": 1.3873031963,
				"element": "C" 
			},
			{
				"x": -2.5451261326,
				"y": 2.5559137225,
				"z": 0.8615125329,
				"element": "C" 
			},
			{
				"x": -1.2689625294,
				"y": 3.0968785961,
				"z": 0.6894984489,
				"element": "C" 
			},
			{
				"x": -1.110940169,
				"y": 4.4822728143,
				"z": 0.7298754155,
				"element": "C" 
			},
			{
				"x": -2.2092506841,
				"y": 5.3116785342,
				"z": 0.9601130292,
				"element": "C" 
			},
			{
				"x": -3.4762987919,
				"y": 4.754391976,
				"z": 1.1506238197,
				"element": "C" 
			},
			{
				"x": -3.6533219376,
				"y": 3.3738829717,
				"z": 1.098361687,
				"element": "C" 
			},
			{
				"x": -0.4426067641,
				"y": -1.5664588652,
				"z": 1.9665738455,
				"element": "H" 
			},
			{
				"x": 3.895017775,
				"y": -2.2288689927,
				"z": 1.6308360833,
				"element": "H" 
			},
			{
				"x": 6.3303202867,
				"y": -1.9476760253,
				"z": 1.1882071907,
				"element": "H" 
			},
			{
				"x": 7.1107094318,
				"y": -1.2782757284,
				"z": -1.0769782137,
				"element": "H" 
			},
			{
				"x": 5.4508285598,
				"y": -0.8665719177,
				"z": -2.882256839,
				"element": "H" 
			},
			{
				"x": 3.0329703858,
				"y": -1.1076270471,
				"z": -2.4299410316,
				"element": "H" 
			},
			{
				"x": -4.2295840931,
				"y": -1.4336129791,
				"z": 1.925780089,
				"element": "H" 
			},
			{
				"x": -0.4100148534,
				"y": 2.4526003899,
				"z": 0.5414455042,
				"element": "H" 
			},
			{
				"x": -0.1221149814,
				"y": 4.9084317117,
				"z": 0.5939143238,
				"element": "H" 
			},
			{
				"x": -2.0783409858,
				"y": 6.3887530234,
				"z": 0.9954668911,
				"element": "H" 
			},
			{
				"x": -4.3329931965,
				"y": 5.3956307742,
				"z": 1.3328210663,
				"element": "H" 
			},
			{
				"x": -4.6284153543,
				"y": 2.9231554289,
				"z": 1.2402501027,
				"element": "H" 
			}
		],
		 "valence_orbital": [ 
			{
				"type": "occ",
				"energy": -0.28083,
				"method": "rhf"
			},
			{
				"type": "occ",
				"energy": -0.26798,
				"method": "rhf"
			},
			{
				"type": "occ",
				"energy": -0.26559,
				"method": "rhf"
			},
			{
				"type": "occ",
				"energy": -0.25898,
				"method": "rhf"
			},
			{
				"type": "occ",
				"energy": -0.23477,
				"method": "rhf"
			},
			{
				"type": "unocc",
				"energy": -0.10144,
				"method": "rhf"
			},
			{
				"type": "unocc",
				"energy": -0.07299,
				"method": "rhf"
			},
			{
				"type": "unocc",
				"energy": -0.04812,
				"method": "rhf"
			},
			{
				"type": "unocc",
				"energy": -0.03352,
				"method": "rhf"
			},
			{
				"type": "unocc",
				"energy": -0.02635,
				"method": "rhf"
			}
		],
		"cosmo_sigma_profile": { 
			"-0.025": 0.0,
			"-0.024": 0.0,
			"-0.023": 0.0,
			"-0.022": 0.0,
			"-0.021": 0.0,
			"-0.02": 0.0,
			"-0.019": 0.0,
			"-0.018": 0.0,
			"-0.017": 0.0,
			"-0.016": 0.0,
			"-0.015": 0.0,
			"-0.014": 0.0,
			"-0.013": 0.0,
			"-0.012": 0.0,
			"-0.011": 0.96964557128,
			"-0.01": 3.46461449077,
			"-0.009": 6.11914979418,
			"-0.008": 8.01791432644,
			"-0.007": 19.2540245748,
			"-0.006": 26.771679561,
			"-0.005": 31.1203721102,
			"-0.004": 27.1638054946,
			"-0.003": 25.5838663497,
			"-0.002": 24.212286139,
			"-0.001": 24.1349941288,
			"0.0": 25.9047569381,
			"0.001": 24.966718692,
			"0.002": 29.4012544183,
			"0.003": 33.6805090172,
			"0.004": 21.5793843586,
			"0.005": 10.6298264447,
			"0.006": 9.39874070721,
			"0.007": 9.66885136289,
			"0.008": 11.4225139558,
			"0.009": 12.8960260035,
			"0.01": 10.0231951251,
			"0.011": 8.40277901616,
			"0.012": 2.0094943036,
			"0.013": 0.0,
			"0.014": 0.0,
			"0.015": 0.0,
			"0.016": 0.0,
			"0.017": 0.0,
			"0.018": 0.0,
			"0.019": 0.0,
			"0.02": 0.0,
			"0.021": 0.0,
			"0.022": 0.0,
			"0.023": 0.0,
			"0.024": 0.0,
			"0.025": 0.0
		}
	}
}
