{
	 "smiles": "BrC1=C2CCNC(=O)C2=CC=C1", 
	 "Tm": 383.15, 
	 "num_atms": 20, 
	 "gaussian": { 
		 "optdone": 1, 
		 "sigma_profile": "yes", 
		 "theory": "DFT", 
		 "functional": "B3LYP", 
		 "basiset": "6-31G**", 
		 "properties": { 
			 "R2extent": 3503.6207, 
			 "electric_dipole_moment_norm": 2.36109086865, 
			 "electric_quadrupole_moment_norm": 16.7376546911, 
			 "total_energy": -3049.18539871, 
			 "HOMO_LUMO_gap": 0.19985, 
			 "cosmo_polarized_energy": -10.96, 
			 "cosmo_cavitation_energy": 25.26, 
			 "cosmo_dispersion_energy": -19.51, 
			 "cosmo_repulsion_energy": 1.54, 
			 "cosmo_total_nonelectrostatic_energy": 7.29, 
			 "SMD_solvation_energy": 2.74 
		},
		"coords": [
			{
				"x": -1.8040167138,
				"y": -3.2199341708,
				"z": -0.0534256855,
				"element": "Br" 
			},
			{
				"x": -1.7393492485,
				"y": -1.3836740061,
				"z": -0.6106827327,
				"element": "C" 
			},
			{
				"x": -0.5600929911,
				"y": -0.6413160031,
				"z": -0.4777725095,
				"element": "C" 
			},
			{
				"x": 0.7266262868,
				"y": -1.1987050881,
				"z": 0.0847008189,
				"element": "C" 
			},
			{
				"x": 1.5635883264,
				"y": -0.0983978422,
				"z": 0.7367396238,
				"element": "C" 
			},
			{
				"x": 1.7029808818,
				"y": 1.0292525018,
				"z": -0.1780229736,
				"element": "N" 
			},
			{
				"x": 0.6443326648,
				"y": 1.5572524319,
				"z": -0.8704450323,
				"element": "C" 
			},
			{
				"x": 0.7025454513,
				"y": 2.6541069512,
				"z": -1.4171165617,
				"element": "O" 
			},
			{
				"x": -0.5818112858,
				"y": 0.6916912264,
				"z": -0.9373016944,
				"element": "C" 
			},
			{
				"x": -1.7368988381,
				"y": 1.2486802599,
				"z": -1.492412664,
				"element": "C" 
			},
			{
				"x": -2.8970514692,
				"y": 0.488000515,
				"z": -1.595454271,
				"element": "C" 
			},
			{
				"x": -2.9005961628,
				"y": -0.8358701024,
				"z": -1.1548659677,
				"element": "C" 
			},
			{
				"x": 1.3025670744,
				"y": -1.6640496404,
				"z": -0.7270339841,
				"element": "H" 
			},
			{
				"x": 0.5182058055,
				"y": -1.984267189,
				"z": 0.8147879118,
				"element": "H" 
			},
			{
				"x": 1.0949646565,
				"y": 0.2134215748,
				"z": 1.6830074165,
				"element": "H" 
			},
			{
				"x": 2.561201255,
				"y": -0.4778217311,
				"z": 0.975028241,
				"element": "H" 
			},
			{
				"x": 2.4675724976,
				"y": 1.6782508565,
				"z": -0.0456195719,
				"element": "H" 
			},
			{
				"x": -1.6913332822,
				"y": 2.2758303444,
				"z": -1.8369866075,
				"element": "H" 
			},
			{
				"x": -3.7999617526,
				"y": 0.9144380358,
				"z": -2.0215208215,
				"element": "H" 
			},
			{
				"x": -3.7948731561,
				"y": -1.4436889245,
				"z": -1.2325029347,
				"element": "H" 
			}
		],
		 "valence_orbital": [ 
			{
				"type": "occ",
				"energy": -0.29362,
				"method": "rhf"
			},
			{
				"type": "occ",
				"energy": -0.26401,
				"method": "rhf"
			},
			{
				"type": "occ",
				"energy": -0.25736,
				"method": "rhf"
			},
			{
				"type": "occ",
				"energy": -0.25088,
				"method": "rhf"
			},
			{
				"type": "occ",
				"energy": -0.24568,
				"method": "rhf"
			},
			{
				"type": "unocc",
				"energy": -0.04583,
				"method": "rhf"
			},
			{
				"type": "unocc",
				"energy": -0.01898,
				"method": "rhf"
			},
			{
				"type": "unocc",
				"energy": 0.00158,
				"method": "rhf"
			},
			{
				"type": "unocc",
				"energy": 0.05541,
				"method": "rhf"
			},
			{
				"type": "unocc",
				"energy": 0.08075,
				"method": "rhf"
			}
		],
		"cosmo_sigma_profile": { 
			"-0.025": 0.0,
			"-0.024": 0.0,
			"-0.023": 0.0,
			"-0.022": 0.0,
			"-0.021": 0.0,
			"-0.02": 0.0,
			"-0.019": 0.0,
			"-0.018": 0.0,
			"-0.017": 0.0,
			"-0.016": 0.0,
			"-0.015": 0.0,
			"-0.014": 0.598826241239,
			"-0.013": 1.2371574106,
			"-0.012": 0.825478009182,
			"-0.011": 1.07772145099,
			"-0.01": 1.33906292321,
			"-0.009": 1.22967651364,
			"-0.008": 1.28311094244,
			"-0.007": 4.64596255638,
			"-0.006": 8.24011957449,
			"-0.005": 15.0976012871,
			"-0.004": 19.8012000453,
			"-0.003": 17.2346508299,
			"-0.002": 14.6225740503,
			"-0.001": 11.8204859656,
			"0.0": 13.0946552587,
			"0.001": 15.3569399618,
			"0.002": 20.2925960885,
			"0.003": 18.2244629611,
			"0.004": 13.1450130175,
			"0.005": 5.77652648568,
			"0.006": 1.71895637599,
			"0.007": 1.4757395222,
			"0.008": 1.47830786179,
			"0.009": 1.20456237237,
			"0.01": 1.12251992666,
			"0.011": 1.75644695932,
			"0.012": 1.74641761921,
			"0.013": 4.34910677904,
			"0.014": 4.28738360492,
			"0.015": 0.388277027867,
			"0.016": 0.0,
			"0.017": 0.0,
			"0.018": 0.0,
			"0.019": 0.0,
			"0.02": 0.0,
			"0.021": 0.0,
			"0.022": 0.0,
			"0.023": 0.0,
			"0.024": 0.0,
			"0.025": 0.0
		}
	}
}
