{
	 "smiles": "NC1=CC=C(OC2CCOCC2)C=C1", 
	 "Tm": 345.15, 
	 "num_atms": 29, 
	 "gaussian": { 
		 "optdone": 1, 
		 "sigma_profile": "yes", 
		 "theory": "DFT", 
		 "functional": "B3LYP", 
		 "basiset": "6-31G**", 
		 "properties": { 
			 "R2extent": 3603.4319, 
			 "electric_dipole_moment_norm": 1.83277350483, 
			 "electric_quadrupole_moment_norm": 14.5607326677, 
			 "total_energy": -633.385093754, 
			 "HOMO_LUMO_gap": 0.19413, 
			 "cosmo_polarized_energy": -12.26, 
			 "cosmo_cavitation_energy": 29.8, 
			 "cosmo_dispersion_energy": -21.96, 
			 "cosmo_repulsion_energy": 1.73, 
			 "cosmo_total_nonelectrostatic_energy": 9.58, 
			 "SMD_solvation_energy": 4.5 
		},
		"coords": [
			{
				"x": 0.4756592351,
				"y": 3.7810520646,
				"z": 0.1020721646,
				"element": "N" 
			},
			{
				"x": -0.3320694823,
				"y": 2.642555519,
				"z": -0.0043941862,
				"element": "C" 
			},
			{
				"x": -1.337565327,
				"y": 2.3812412162,
				"z": 0.9415652313,
				"element": "C" 
			},
			{
				"x": -2.1789820652,
				"y": 1.2794812141,
				"z": 0.8033266642,
				"element": "C" 
			},
			{
				"x": -2.030973424,
				"y": 0.398265249,
				"z": -0.2731233209,
				"element": "C" 
			},
			{
				"x": -2.9204761025,
				"y": -0.6438771286,
				"z": -0.4530372472,
				"element": "O" 
			},
			{
				"x": -2.6802233752,
				"y": -1.9685546092,
				"z": 0.0742165625,
				"element": "C" 
			},
			{
				"x": -1.4637480244,
				"y": -2.693116603,
				"z": -0.5381227095,
				"element": "C" 
			},
			{
				"x": -0.1491547691,
				"y": -2.4461844555,
				"z": 0.212507011,
				"element": "C" 
			},
			{
				"x": -0.2886437537,
				"y": -2.7241559471,
				"z": 1.6013309653,
				"element": "O" 
			},
			{
				"x": -1.2341627264,
				"y": -1.8495123031,
				"z": 2.206799308,
				"element": "C" 
			},
			{
				"x": -2.6346293382,
				"y": -2.0493728446,
				"z": 1.6140405402,
				"element": "C" 
			},
			{
				"x": -1.0526999347,
				"y": 0.6709811445,
				"z": -1.2353411746,
				"element": "C" 
			},
			{
				"x": -0.2095309531,
				"y": 1.7717988183,
				"z": -1.1002715398,
				"element": "C" 
			},
			{
				"x": 0.5852819082,
				"y": 4.134631329,
				"z": 1.0429383619,
				"element": "H" 
			},
			{
				"x": 1.3667491526,
				"y": 3.7124637028,
				"z": -0.3707038363,
				"element": "H" 
			},
			{
				"x": -1.4691647485,
				"y": 3.0568755804,
				"z": 1.7834102444,
				"element": "H" 
			},
			{
				"x": -2.9669455908,
				"y": 1.1014535547,
				"z": 1.5281991342,
				"element": "H" 
			},
			{
				"x": -3.583079257,
				"y": -2.4878940965,
				"z": -0.261831137,
				"element": "H" 
			},
			{
				"x": -1.6741750476,
				"y": -3.7692338234,
				"z": -0.4962504925,
				"element": "H" 
			},
			{
				"x": -1.3680820219,
				"y": -2.4257506455,
				"z": -1.5961352971,
				"element": "H" 
			},
			{
				"x": 0.1996633751,
				"y": -1.4131912253,
				"z": 0.0679458873,
				"element": "H" 
			},
			{
				"x": 0.6310780308,
				"y": -3.1194529125,
				"z": -0.1566283865,
				"element": "H" 
			},
			{
				"x": -1.2353770617,
				"y": -2.0929784669,
				"z": 3.2740564726,
				"element": "H" 
			},
			{
				"x": -0.9053320051,
				"y": -0.8055692882,
				"z": 2.0986920566,
				"element": "H" 
			},
			{
				"x": -2.9750064119,
				"y": -3.0540283672,
				"z": 1.8948384364,
				"element": "H" 
			},
			{
				"x": -3.3479296895,
				"y": -1.3373315886,
				"z": 2.0432168228,
				"element": "H" 
			},
			{
				"x": -0.9632447915,
				"y": 0.0189714647,
				"z": -2.0984316481,
				"element": "H" 
			},
			{
				"x": 0.5434641997,
				"y": 1.969533448,
				"z": -1.8594848875,
				"element": "H" 
			}
		],
		 "valence_orbital": [ 
			{
				"type": "occ",
				"energy": -0.28065,
				"method": "rhf"
			},
			{
				"type": "occ",
				"energy": -0.25692,
				"method": "rhf"
			},
			{
				"type": "occ",
				"energy": -0.24792,
				"method": "rhf"
			},
			{
				"type": "occ",
				"energy": -0.24174,
				"method": "rhf"
			},
			{
				"type": "occ",
				"energy": -0.19464,
				"method": "rhf"
			},
			{
				"type": "unocc",
				"energy": -0.00051,
				"method": "rhf"
			},
			{
				"type": "unocc",
				"energy": 0.02014,
				"method": "rhf"
			},
			{
				"type": "unocc",
				"energy": 0.07827,
				"method": "rhf"
			},
			{
				"type": "unocc",
				"energy": 0.08313,
				"method": "rhf"
			},
			{
				"type": "unocc",
				"energy": 0.08957,
				"method": "rhf"
			}
		],
		"cosmo_sigma_profile": { 
			"-0.025": 0.0,
			"-0.024": 0.0,
			"-0.023": 0.0,
			"-0.022": 0.0,
			"-0.021": 0.0,
			"-0.02": 0.0,
			"-0.019": 0.0,
			"-0.018": 0.0,
			"-0.017": 0.0,
			"-0.016": 0.0,
			"-0.015": 0.0,
			"-0.014": 0.0,
			"-0.013": 0.102638907236,
			"-0.012": 2.02342596692,
			"-0.011": 2.59831171023,
			"-0.01": 2.97538020715,
			"-0.009": 3.55745287686,
			"-0.008": 2.38434879719,
			"-0.007": 2.9719739164,
			"-0.006": 5.60017009423,
			"-0.005": 11.1812305073,
			"-0.004": 25.9994309263,
			"-0.003": 24.7725642635,
			"-0.002": 22.6695829274,
			"-0.001": 24.092650669,
			"0.0": 16.5095828185,
			"0.001": 10.0479032665,
			"0.002": 7.79910676113,
			"0.003": 9.18856889097,
			"0.004": 9.29982606195,
			"0.005": 11.4535357361,
			"0.006": 10.1636131611,
			"0.007": 5.661721413,
			"0.008": 3.48396051728,
			"0.009": 3.28834742829,
			"0.01": 2.81515458913,
			"0.011": 2.55982245896,
			"0.012": 3.20950551956,
			"0.013": 4.24499070111,
			"0.014": 1.86822069948,
			"0.015": 0.425132895914,
			"0.016": 0.0523883583821,
			"0.017": 0.0,
			"0.018": 0.0,
			"0.019": 0.0,
			"0.02": 0.0,
			"0.021": 0.0,
			"0.022": 0.0,
			"0.023": 0.0,
			"0.024": 0.0,
			"0.025": 0.0
		}
	}
}
