{
	 "smiles": "COC(=O)C1=CC2=C(O1)C(Br)=CC=C2", 
	 "Tm": 350.15, 
	 "num_atms": 21, 
	 "gaussian": { 
		 "optdone": 1, 
		 "sigma_profile": "yes", 
		 "theory": "DFT", 
		 "functional": "B3LYP", 
		 "basiset": "6-31G**", 
		 "properties": { 
			 "R2extent": 4741.7496, 
			 "electric_dipole_moment_norm": 3.99069451349, 
			 "electric_quadrupole_moment_norm": 11.8743070185, 
			 "total_energy": -3182.35022564, 
			 "HOMO_LUMO_gap": 0.17118, 
			 "cosmo_polarized_energy": -10.36, 
			 "cosmo_cavitation_energy": 28.88, 
			 "cosmo_dispersion_energy": -21.55, 
			 "cosmo_repulsion_energy": 1.7, 
			 "cosmo_total_nonelectrostatic_energy": 9.03, 
			 "SMD_solvation_energy": 5.79 
		},
		"coords": [
			{
				"x": 3.7240238182,
				"y": -3.1023293617,
				"z": 2.8391635124,
				"element": "C" 
			},
			{
				"x": 3.211850867,
				"y": -2.4371763223,
				"z": 1.6727402559,
				"element": "O" 
			},
			{
				"x": 2.2926100339,
				"y": -1.4765370447,
				"z": 1.9235022473,
				"element": "C" 
			},
			{
				"x": 1.9029044812,
				"y": -1.1677831026,
				"z": 3.0284785542,
				"element": "O" 
			},
			{
				"x": 1.8389511193,
				"y": -0.8636224665,
				"z": 0.6632394377,
				"element": "C" 
			},
			{
				"x": 2.1737232904,
				"y": -1.0928400536,
				"z": -0.6390795892,
				"element": "C" 
			},
			{
				"x": 1.3930906168,
				"y": -0.1766055645,
				"z": -1.4227688443,
				"element": "C" 
			},
			{
				"x": 0.6303862286,
				"y": 0.5480639666,
				"z": -0.4816165855,
				"element": "C" 
			},
			{
				"x": 0.8992019448,
				"y": 0.1332695877,
				"z": 0.7825156889,
				"element": "O" 
			},
			{
				"x": -0.2650753438,
				"y": 1.5466285803,
				"z": -0.8578150984,
				"element": "C" 
			},
			{
				"x": -1.2707645625,
				"y": 2.4957572814,
				"z": 0.4414418969,
				"element": "Br" 
			},
			{
				"x": -0.3908189966,
				"y": 1.8172054836,
				"z": -2.2159242926,
				"element": "C" 
			},
			{
				"x": 0.3634951158,
				"y": 1.1027084058,
				"z": -3.1680209478,
				"element": "C" 
			},
			{
				"x": 1.2559234462,
				"y": 0.1072963968,
				"z": -2.7918845771,
				"element": "C" 
			},
			{
				"x": 4.2141137792,
				"y": -2.3877543301,
				"z": 3.5051954783,
				"element": "H" 
			},
			{
				"x": 4.4407544428,
				"y": -3.8342845704,
				"z": 2.4678481252,
				"element": "H" 
			},
			{
				"x": 2.9168861545,
				"y": -3.5971018458,
				"z": 3.3851792581,
				"element": "H" 
			},
			{
				"x": 2.8878158685,
				"y": -1.8247711487,
				"z": -0.985612338,
				"element": "H" 
			},
			{
				"x": -1.0800876071,
				"y": 2.5891734858,
				"z": -2.5388195358,
				"element": "H" 
			},
			{
				"x": 0.2357995658,
				"y": 1.3446369617,
				"z": -4.2185348937,
				"element": "H" 
			},
			{
				"x": 1.8318157368,
				"y": -0.4368343387,
				"z": -3.5335277524,
				"element": "H" 
			}
		],
		 "valence_orbital": [ 
			{
				"type": "occ",
				"energy": -0.28976,
				"method": "rhf"
			},
			{
				"type": "occ",
				"energy": -0.28853,
				"method": "rhf"
			},
			{
				"type": "occ",
				"energy": -0.28307,
				"method": "rhf"
			},
			{
				"type": "occ",
				"energy": -0.25088,
				"method": "rhf"
			},
			{
				"type": "occ",
				"energy": -0.2352,
				"method": "rhf"
			},
			{
				"type": "unocc",
				"energy": -0.06402,
				"method": "rhf"
			},
			{
				"type": "unocc",
				"energy": -0.00793,
				"method": "rhf"
			},
			{
				"type": "unocc",
				"energy": 0.00408,
				"method": "rhf"
			},
			{
				"type": "unocc",
				"energy": 0.00878,
				"method": "rhf"
			},
			{
				"type": "unocc",
				"energy": 0.09367,
				"method": "rhf"
			}
		],
		"cosmo_sigma_profile": { 
			"-0.025": 0.0,
			"-0.024": 0.0,
			"-0.023": 0.0,
			"-0.022": 0.0,
			"-0.021": 0.0,
			"-0.02": 0.0,
			"-0.019": 0.0,
			"-0.018": 0.0,
			"-0.017": 0.0,
			"-0.016": 0.0,
			"-0.015": 0.0,
			"-0.014": 0.0,
			"-0.013": 0.0,
			"-0.012": 0.0,
			"-0.011": 0.0,
			"-0.01": 0.00573859707527,
			"-0.009": 0.789831943916,
			"-0.008": 2.37168674158,
			"-0.007": 9.13768400777,
			"-0.006": 14.1165569982,
			"-0.005": 16.1192817361,
			"-0.004": 18.1122476249,
			"-0.003": 16.6058538051,
			"-0.002": 14.4526833379,
			"-0.001": 17.2069543232,
			"0.0": 20.2229691489,
			"0.001": 23.0149902874,
			"0.002": 20.7805170882,
			"0.003": 17.6863987008,
			"0.004": 16.0258247476,
			"0.005": 5.49005405627,
			"0.006": 4.64796752512,
			"0.007": 3.26261381441,
			"0.008": 1.53759867096,
			"0.009": 2.7796591554,
			"0.01": 2.99642437004,
			"0.011": 4.97517297895,
			"0.012": 3.28385104742,
			"0.013": 0.191714551763,
			"0.014": 0.0,
			"0.015": 0.0,
			"0.016": 0.0,
			"0.017": 0.0,
			"0.018": 0.0,
			"0.019": 0.0,
			"0.02": 0.0,
			"0.021": 0.0,
			"0.022": 0.0,
			"0.023": 0.0,
			"0.024": 0.0,
			"0.025": 0.0
		}
	}
}
