{
	 "smiles": "OC1CCNCC1", 
	 "Tm": 361.15, 
	 "num_atms": 18, 
	 "gaussian": { 
		 "optdone": 1, 
		 "sigma_profile": "yes", 
		 "theory": "DFT", 
		 "functional": "B3LYP", 
		 "basiset": "6-31G**", 
		 "properties": { 
			 "R2extent": 944.2483, 
			 "electric_dipole_moment_norm": 1.63393552198, 
			 "electric_quadrupole_moment_norm": 7.11303158646, 
			 "total_energy": -327.117840014, 
			 "HOMO_LUMO_gap": 0.28381, 
			 "cosmo_polarized_energy": -8.89, 
			 "cosmo_cavitation_energy": 18.99, 
			 "cosmo_dispersion_energy": -14.69, 
			 "cosmo_repulsion_energy": 1.25, 
			 "cosmo_total_nonelectrostatic_energy": 5.55, 
			 "SMD_solvation_energy": 0.19 
		},
		"coords": [
			{
				"x": 0.0865433474,
				"y": 1.9274999029,
				"z": 1.9199022973,
				"element": "O" 
			},
			{
				"x": -0.3329986989,
				"y": 1.0328109421,
				"z": 0.893757065,
				"element": "C" 
			},
			{
				"x": 0.5305110471,
				"y": -0.2207626373,
				"z": 0.979697352,
				"element": "C" 
			},
			{
				"x": 0.2044572976,
				"y": -1.1824678595,
				"z": -0.1957273796,
				"element": "C" 
			},
			{
				"x": -1.1668479296,
				"y": -1.0629745498,
				"z": -0.7212990997,
				"element": "N" 
			},
			{
				"x": -2.1281946332,
				"y": -0.7011451667,
				"z": 0.3214794104,
				"element": "C" 
			},
			{
				"x": -1.8229395486,
				"y": 0.6544238972,
				"z": 1.0233410295,
				"element": "C" 
			},
			{
				"x": -0.4928671043,
				"y": 2.7004341144,
				"z": 1.8929062121,
				"element": "H" 
			},
			{
				"x": -0.1659888797,
				"y": 1.4999691455,
				"z": -0.0928046792,
				"element": "H" 
			},
			{
				"x": 0.3331981226,
				"y": -0.7034929157,
				"z": 1.9448816407,
				"element": "H" 
			},
			{
				"x": 1.5897772181,
				"y": 0.0558309046,
				"z": 0.9776107908,
				"element": "H" 
			},
			{
				"x": 0.8921724701,
				"y": -1.0085570835,
				"z": -1.0302574958,
				"element": "H" 
			},
			{
				"x": 0.3674414592,
				"y": -2.2180827866,
				"z": 0.1300058427,
				"element": "H" 
			},
			{
				"x": -1.1876510521,
				"y": -0.3560362197,
				"z": -1.4513894651,
				"element": "H" 
			},
			{
				"x": -3.1329266913,
				"y": -0.6948345864,
				"z": -0.1135369396,
				"element": "H" 
			},
			{
				"x": -2.1193655948,
				"y": -1.5088585291,
				"z": 1.0635647512,
				"element": "H" 
			},
			{
				"x": -2.0560470851,
				"y": 0.5872473638,
				"z": 2.0930561221,
				"element": "H" 
			},
			{
				"x": -2.4468737446,
				"y": 1.4572960639,
				"z": 0.608112545,
				"element": "H" 
			}
		],
		 "valence_orbital": [ 
			{
				"type": "occ",
				"energy": -0.34307,
				"method": "rhf"
			},
			{
				"type": "occ",
				"energy": -0.32273,
				"method": "rhf"
			},
			{
				"type": "occ",
				"energy": -0.30256,
				"method": "rhf"
			},
			{
				"type": "occ",
				"energy": -0.26318,
				"method": "rhf"
			},
			{
				"type": "occ",
				"energy": -0.21451,
				"method": "rhf"
			},
			{
				"type": "unocc",
				"energy": 0.0693,
				"method": "rhf"
			},
			{
				"type": "unocc",
				"energy": 0.07965,
				"method": "rhf"
			},
			{
				"type": "unocc",
				"energy": 0.10739,
				"method": "rhf"
			},
			{
				"type": "unocc",
				"energy": 0.1306,
				"method": "rhf"
			},
			{
				"type": "unocc",
				"energy": 0.13409,
				"method": "rhf"
			}
		],
		"cosmo_sigma_profile": { 
			"-0.025": 0.0,
			"-0.024": 0.0,
			"-0.023": 0.0,
			"-0.022": 0.0,
			"-0.021": 0.0,
			"-0.02": 0.0,
			"-0.019": 0.0,
			"-0.018": 0.0,
			"-0.017": 0.0,
			"-0.016": 0.0194144816731,
			"-0.015": 0.659109654321,
			"-0.014": 0.786264946819,
			"-0.013": 1.26294505741,
			"-0.012": 0.847204835209,
			"-0.011": 0.385490189727,
			"-0.01": 0.960717346504,
			"-0.009": 2.30499867915,
			"-0.008": 2.30650794755,
			"-0.007": 2.96309767698,
			"-0.006": 3.39703055128,
			"-0.005": 3.29974254581,
			"-0.004": 5.6639347208,
			"-0.003": 16.8585000961,
			"-0.002": 26.6824406828,
			"-0.001": 18.5512449771,
			"0.0": 15.1406824469,
			"0.001": 8.63721259922,
			"0.002": 3.63575296269,
			"0.003": 3.08832285231,
			"0.004": 2.78885755985,
			"0.005": 2.40526884475,
			"0.006": 1.94906097616,
			"0.007": 2.33634780361,
			"0.008": 2.08630845966,
			"0.009": 1.86321905432,
			"0.01": 1.87292318075,
			"0.011": 2.44711562229,
			"0.012": 1.41323357826,
			"0.013": 2.31019619071,
			"0.014": 2.58543528415,
			"0.015": 1.91285825774,
			"0.016": 0.764455537314,
			"0.017": 0.447751670872,
			"0.018": 0.625392558656,
			"0.019": 0.255223118495,
			"0.02": 0.0,
			"0.021": 0.0,
			"0.022": 0.0,
			"0.023": 0.0,
			"0.024": 0.0,
			"0.025": 0.0
		}
	}
}
