{
	 "smiles": "CC1=C2NC(=O)C3=CC=CN=C3N(C3CC3)C2=NC=C1", 
	 "Tm": 538.15, 
	 "num_atms": 34, 
	 "gaussian": { 
		 "optdone": 1, 
		 "sigma_profile": "yes", 
		 "theory": "DFT", 
		 "functional": "B3LYP", 
		 "basiset": "6-31G**", 
		 "properties": { 
			 "R2extent": 5171.3411, 
			 "electric_dipole_moment_norm": 2.32886996417, 
			 "electric_quadrupole_moment_norm": 13.4699851065, 
			 "total_energy": -874.249626864, 
			 "HOMO_LUMO_gap": 0.16427, 
			 "cosmo_polarized_energy": -14.76, 
			 "cosmo_cavitation_energy": 36.89, 
			 "cosmo_dispersion_energy": -26.0, 
			 "cosmo_repulsion_energy": 1.99, 
			 "cosmo_total_nonelectrostatic_energy": 12.88, 
			 "SMD_solvation_energy": 4.16 
		},
		"coords": [
			{
				"x": 1.9752703137,
				"y": -1.6543751484,
				"z": -2.2780584142,
				"element": "C" 
			},
			{
				"x": 0.8442523745,
				"y": -0.6747138972,
				"z": -2.0870411078,
				"element": "C" 
			},
			{
				"x": 0.3938686029,
				"y": -0.3254592991,
				"z": -0.8013166332,
				"element": "C" 
			},
			{
				"x": 1.0570858914,
				"y": -0.8417765813,
				"z": 0.3294608802,
				"element": "N" 
			},
			{
				"x": 0.5321809882,
				"y": -1.3934752767,
				"z": 1.4814185383,
				"element": "C" 
			},
			{
				"x": 1.2512573434,
				"y": -2.0771870812,
				"z": 2.202624137,
				"element": "O" 
			},
			{
				"x": -0.8974612139,
				"y": -1.1431110733,
				"z": 1.8251180568,
				"element": "C" 
			},
			{
				"x": -1.4846133599,
				"y": -2.0540988796,
				"z": 2.7096167079,
				"element": "C" 
			},
			{
				"x": -2.762358484,
				"y": -1.8249551489,
				"z": 3.2048936506,
				"element": "C" 
			},
			{
				"x": -3.3962500861,
				"y": -0.6450506595,
				"z": 2.8184165104,
				"element": "C" 
			},
			{
				"x": -2.8623100778,
				"y": 0.2425019183,
				"z": 1.976750349,
				"element": "N" 
			},
			{
				"x": -1.6470288505,
				"y": 0.0029404658,
				"z": 1.467546171,
				"element": "C" 
			},
			{
				"x": -1.1371237438,
				"y": 0.9945289012,
				"z": 0.5996498516,
				"element": "N" 
			},
			{
				"x": -1.7765113896,
				"y": 2.2957121278,
				"z": 0.6599061905,
				"element": "C" 
			},
			{
				"x": -0.88732524,
				"y": 3.4986263204,
				"z": 0.51350218,
				"element": "C" 
			},
			{
				"x": -1.4793230717,
				"y": 3.1510800844,
				"z": 1.859065431,
				"element": "C" 
			},
			{
				"x": -0.6648842434,
				"y": 0.5964164286,
				"z": -0.6817808609,
				"element": "C" 
			},
			{
				"x": -1.2438463365,
				"y": 1.1667805444,
				"z": -1.7374520338,
				"element": "N" 
			},
			{
				"x": -0.7965558026,
				"y": 0.8542345445,
				"z": -2.9572984806,
				"element": "C" 
			},
			{
				"x": 0.2267470156,
				"y": -0.0594363128,
				"z": -3.1804073677,
				"element": "C" 
			},
			{
				"x": 1.7961782486,
				"y": -2.5872639446,
				"z": -1.732339785,
				"element": "H" 
			},
			{
				"x": 2.9325028739,
				"y": -1.2487722025,
				"z": -1.9237597504,
				"element": "H" 
			},
			{
				"x": 2.1015373481,
				"y": -1.897319214,
				"z": -3.3353353032,
				"element": "H" 
			},
			{
				"x": 2.0195644263,
				"y": -1.1285515754,
				"z": 0.2018421721,
				"element": "H" 
			},
			{
				"x": -0.8984723194,
				"y": -2.914797591,
				"z": 3.0135196181,
				"element": "H" 
			},
			{
				"x": -3.2415309811,
				"y": -2.5186395675,
				"z": 3.8870600339,
				"element": "H" 
			},
			{
				"x": -4.3856364258,
				"y": -0.3974832096,
				"z": 3.200267345,
				"element": "H" 
			},
			{
				"x": -2.7740225443,
				"y": 2.3512018959,
				"z": 0.2364219743,
				"element": "H" 
			},
			{
				"x": 0.1749735063,
				"y": 3.3241138392,
				"z": 0.3743447148,
				"element": "H" 
			},
			{
				"x": -1.2807223818,
				"y": 4.3487348918,
				"z": -0.0347066562,
				"element": "H" 
			},
			{
				"x": -0.8094282472,
				"y": 2.7460376606,
				"z": 2.6109055364,
				"element": "H" 
			},
			{
				"x": -2.2881741357,
				"y": 3.7572650848,
				"z": 2.2543767177,
				"element": "H" 
			},
			{
				"x": -1.2833891803,
				"y": 1.3574153934,
				"z": -3.7902372864,
				"element": "H" 
			},
			{
				"x": 0.5468491825,
				"y": -0.2921234385,
				"z": -4.1913730874,
				"element": "H" 
			}
		],
		 "valence_orbital": [ 
			{
				"type": "occ",
				"energy": -0.27013,
				"method": "rhf"
			},
			{
				"type": "occ",
				"energy": -0.26363,
				"method": "rhf"
			},
			{
				"type": "occ",
				"energy": -0.25364,
				"method": "rhf"
			},
			{
				"type": "occ",
				"energy": -0.24024,
				"method": "rhf"
			},
			{
				"type": "occ",
				"energy": -0.21322,
				"method": "rhf"
			},
			{
				"type": "unocc",
				"energy": -0.04895,
				"method": "rhf"
			},
			{
				"type": "unocc",
				"energy": -0.02635,
				"method": "rhf"
			},
			{
				"type": "unocc",
				"energy": -0.01715,
				"method": "rhf"
			},
			{
				"type": "unocc",
				"energy": -0.00459,
				"method": "rhf"
			},
			{
				"type": "unocc",
				"energy": 0.05115,
				"method": "rhf"
			}
		],
		"cosmo_sigma_profile": { 
			"-0.025": 0.0,
			"-0.024": 0.0,
			"-0.023": 0.0,
			"-0.022": 0.0,
			"-0.021": 0.0,
			"-0.02": 0.0,
			"-0.019": 0.0,
			"-0.018": 0.0,
			"-0.017": 0.0,
			"-0.016": 0.0,
			"-0.015": 0.0,
			"-0.014": 0.187880470435,
			"-0.013": 0.879906076075,
			"-0.012": 1.19950632484,
			"-0.011": 1.33625185625,
			"-0.01": 0.814031625967,
			"-0.009": 1.30490827542,
			"-0.008": 1.63465226056,
			"-0.007": 7.45725500377,
			"-0.006": 14.6719847025,
			"-0.005": 21.3436099063,
			"-0.004": 23.8637770171,
			"-0.003": 23.0917210231,
			"-0.002": 24.5231420136,
			"-0.001": 27.4600291469,
			"0.0": 24.3931859721,
			"0.001": 24.9116038821,
			"0.002": 23.9046556762,
			"0.003": 15.963467817,
			"0.004": 10.4758314209,
			"0.005": 7.40388524727,
			"0.006": 4.47950072711,
			"0.007": 4.76380293157,
			"0.008": 4.39802771999,
			"0.009": 3.67246415494,
			"0.01": 3.57489134123,
			"0.011": 3.64509744778,
			"0.012": 5.71656762016,
			"0.013": 6.32959665682,
			"0.014": 0.833652818725,
			"0.015": 0.0137252084915,
			"0.016": 0.0,
			"0.017": 0.0,
			"0.018": 0.0,
			"0.019": 0.0,
			"0.02": 0.0,
			"0.021": 0.0,
			"0.022": 0.0,
			"0.023": 0.0,
			"0.024": 0.0,
			"0.025": 0.0
		}
	}
}
