{
	 "smiles": "BrC1=CC=C(S1)C1=C(C=O)N2C=CC=CC2=N1", 
	 "Tm": 460.15, 
	 "num_atms": 24, 
	 "gaussian": { 
		 "optdone": 1, 
		 "sigma_profile": "yes", 
		 "theory": "DFT", 
		 "functional": "B3LYP", 
		 "basiset": "6-31G**", 
		 "properties": { 
			 "R2extent": 8342.866, 
			 "electric_dipole_moment_norm": 2.23932741911, 
			 "electric_quadrupole_moment_norm": 26.1477924598, 
			 "total_energy": -3615.79333871, 
			 "HOMO_LUMO_gap": 0.14769, 
			 "cosmo_polarized_energy": -11.17, 
			 "cosmo_cavitation_energy": 33.0, 
			 "cosmo_dispersion_energy": -25.26, 
			 "cosmo_repulsion_energy": 1.87, 
			 "cosmo_total_nonelectrostatic_energy": 9.61, 
			 "SMD_solvation_energy": 3.73 
		},
		"coords": [
			{
				"x": -4.3658716516,
				"y": -3.5314188592,
				"z": 0.7191762418,
				"element": "Br" 
			},
			{
				"x": -3.1431552996,
				"y": -2.1637546646,
				"z": 0.2896737308,
				"element": "C" 
			},
			{
				"x": -3.4468374109,
				"y": -0.9331798094,
				"z": -0.2287433781,
				"element": "C" 
			},
			{
				"x": -2.2800554932,
				"y": -0.1479039262,
				"z": -0.4385401234,
				"element": "C" 
			},
			{
				"x": -1.1119780567,
				"y": -0.7821390817,
				"z": -0.0721922808,
				"element": "C" 
			},
			{
				"x": -1.4398354011,
				"y": -2.3988776814,
				"z": 0.5247963844,
				"element": "S" 
			},
			{
				"x": 0.2710526727,
				"y": -0.3450848551,
				"z": -0.136251072,
				"element": "C" 
			},
			{
				"x": 0.7883695135,
				"y": 0.9694020791,
				"z": -0.2255623357,
				"element": "C" 
			},
			{
				"x": 0.1636538294,
				"y": 2.2636400314,
				"z": -0.1562755441,
				"element": "C" 
			},
			{
				"x": 0.7534554747,
				"y": 3.3393580386,
				"z": -0.2498171807,
				"element": "O" 
			},
			{
				"x": 2.1747111617,
				"y": 0.7924218937,
				"z": -0.28301276,
				"element": "N" 
			},
			{
				"x": 3.1896054028,
				"y": 1.7092235234,
				"z": -0.3843102465,
				"element": "C" 
			},
			{
				"x": 4.4842042902,
				"y": 1.2574222956,
				"z": -0.4044497649,
				"element": "C" 
			},
			{
				"x": 4.7650705104,
				"y": -0.1303108258,
				"z": -0.3234123815,
				"element": "C" 
			},
			{
				"x": 3.7399966961,
				"y": -1.0447938974,
				"z": -0.220482791,
				"element": "C" 
			},
			{
				"x": 2.4095730677,
				"y": -0.581226881,
				"z": -0.1981566673,
				"element": "C" 
			},
			{
				"x": 1.2622094355,
				"y": -1.2673641002,
				"z": -0.110018143,
				"element": "N" 
			},
			{
				"x": -4.4542591196,
				"y": -0.610345492,
				"z": -0.4582583528,
				"element": "H" 
			},
			{
				"x": -2.3088846906,
				"y": 0.8404158019,
				"z": -0.8803279584,
				"element": "H" 
			},
			{
				"x": -0.9285583512,
				"y": 2.2360593603,
				"z": 0.0168420187,
				"element": "H" 
			},
			{
				"x": 2.8776478131,
				"y": 2.7426978713,
				"z": -0.4393396069,
				"element": "H" 
			},
			{
				"x": 5.2874234772,
				"y": 1.9803518125,
				"z": -0.4854851351,
				"element": "H" 
			},
			{
				"x": 5.795374477,
				"y": -0.4703507436,
				"z": -0.3433517918,
				"element": "H" 
			},
			{
				"x": 3.9114876526,
				"y": -2.1124418901,
				"z": -0.1547008616,
				"element": "H" 
			}
		],
		 "valence_orbital": [ 
			{
				"type": "occ",
				"energy": -0.27735,
				"method": "rhf"
			},
			{
				"type": "occ",
				"energy": -0.26672,
				"method": "rhf"
			},
			{
				"type": "occ",
				"energy": -0.25714,
				"method": "rhf"
			},
			{
				"type": "occ",
				"energy": -0.23433,
				"method": "rhf"
			},
			{
				"type": "occ",
				"energy": -0.22117,
				"method": "rhf"
			},
			{
				"type": "unocc",
				"energy": -0.07348,
				"method": "rhf"
			},
			{
				"type": "unocc",
				"energy": -0.05529,
				"method": "rhf"
			},
			{
				"type": "unocc",
				"energy": -0.015,
				"method": "rhf"
			},
			{
				"type": "unocc",
				"energy": -0.00479,
				"method": "rhf"
			},
			{
				"type": "unocc",
				"energy": 0.00953,
				"method": "rhf"
			}
		],
		"cosmo_sigma_profile": { 
			"-0.025": 0.0,
			"-0.024": 0.0,
			"-0.023": 0.0,
			"-0.022": 0.0,
			"-0.021": 0.0,
			"-0.02": 0.0,
			"-0.019": 0.0,
			"-0.018": 0.0,
			"-0.017": 0.0,
			"-0.016": 0.0,
			"-0.015": 0.0,
			"-0.014": 0.0,
			"-0.013": 0.0,
			"-0.012": 0.0,
			"-0.011": 0.0,
			"-0.01": 0.248552969716,
			"-0.009": 2.00564178457,
			"-0.008": 7.83744289832,
			"-0.007": 12.7508402129,
			"-0.006": 14.3020679578,
			"-0.005": 13.083921406,
			"-0.004": 10.3957433571,
			"-0.003": 15.1709038674,
			"-0.002": 20.4460374551,
			"-0.001": 23.7758106271,
			"0.0": 25.503590866,
			"0.001": 31.2936813753,
			"0.002": 33.8497774913,
			"0.003": 24.7513420976,
			"0.004": 8.65653981897,
			"0.005": 4.11496051663,
			"0.006": 3.20811622871,
			"0.007": 2.45225408843,
			"0.008": 2.91668676937,
			"0.009": 3.69954765561,
			"0.01": 2.03067095765,
			"0.011": 3.621131691,
			"0.012": 3.37992757159,
			"0.013": 2.91308904317,
			"0.014": 0.867803907705,
			"0.015": 0.0,
			"0.016": 0.0,
			"0.017": 0.0,
			"0.018": 0.0,
			"0.019": 0.0,
			"0.02": 0.0,
			"0.021": 0.0,
			"0.022": 0.0,
			"0.023": 0.0,
			"0.024": 0.0,
			"0.025": 0.0
		}
	}
}
