{
	 "smiles": "OC(=O)CCC1=CC=CC=C1Br", 
	 "Tm": 370.15, 
	 "num_atms": 21, 
	 "gaussian": { 
		 "optdone": 1, 
		 "sigma_profile": "yes", 
		 "theory": "DFT", 
		 "functional": "B3LYP", 
		 "basiset": "6-31G**", 
		 "properties": { 
			 "R2extent": 3999.409, 
			 "electric_dipole_moment_norm": 3.102838349, 
			 "electric_quadrupole_moment_norm": 10.3178428584, 
			 "total_energy": -3070.25519652, 
			 "HOMO_LUMO_gap": 0.22647, 
			 "cosmo_polarized_energy": -10.49, 
			 "cosmo_cavitation_energy": 27.51, 
			 "cosmo_dispersion_energy": -20.0, 
			 "cosmo_repulsion_energy": 1.61, 
			 "cosmo_total_nonelectrostatic_energy": 9.11, 
			 "SMD_solvation_energy": 4.74 
		},
		"coords": [
			{
				"x": 2.2666875618,
				"y": -2.5666106739,
				"z": 2.1629097378,
				"element": "O" 
			},
			{
				"x": 2.5033183626,
				"y": -2.3442747203,
				"z": 0.8433100751,
				"element": "C" 
			},
			{
				"x": 3.3902600262,
				"y": -2.9082702403,
				"z": 0.243046809,
				"element": "O" 
			},
			{
				"x": 1.5537548363,
				"y": -1.3184830635,
				"z": 0.2628326494,
				"element": "C" 
			},
			{
				"x": 0.0655878676,
				"y": -1.6149313183,
				"z": 0.5610623045,
				"element": "C" 
			},
			{
				"x": -0.8539166292,
				"y": -0.5490181333,
				"z": 0.0091956908,
				"element": "C" 
			},
			{
				"x": -1.2986645486,
				"y": 0.4878712888,
				"z": 0.8447669949,
				"element": "C" 
			},
			{
				"x": -2.1301281201,
				"y": 1.5053862316,
				"z": 0.3810565348,
				"element": "C" 
			},
			{
				"x": -2.544935481,
				"y": 1.5072313045,
				"z": -0.9508254032,
				"element": "C" 
			},
			{
				"x": -2.1237859635,
				"y": 0.4915089915,
				"z": -1.8078771227,
				"element": "C" 
			},
			{
				"x": -1.2891183239,
				"y": -0.5154600319,
				"z": -1.3238339262,
				"element": "C" 
			},
			{
				"x": -0.750064398,
				"y": -1.8827825466,
				"z": -2.5602822205,
				"element": "Br" 
			},
			{
				"x": 2.9238085579,
				"y": -3.2254256176,
				"z": 2.443987582,
				"element": "H" 
			},
			{
				"x": 1.8179128756,
				"y": -0.3422764993,
				"z": 0.6884586673,
				"element": "H" 
			},
			{
				"x": 1.7379912988,
				"y": -1.2777368064,
				"z": -0.8118648711,
				"element": "H" 
			},
			{
				"x": -0.1964330918,
				"y": -2.5897167817,
				"z": 0.1382297217,
				"element": "H" 
			},
			{
				"x": -0.0714653891,
				"y": -1.6830504554,
				"z": 1.643399228,
				"element": "H" 
			},
			{
				"x": -0.981560136,
				"y": 0.4843740799,
				"z": 1.8846534834,
				"element": "H" 
			},
			{
				"x": -2.455699165,
				"y": 2.2895138401,
				"z": 1.0578843902,
				"element": "H" 
			},
			{
				"x": -3.1955562133,
				"y": 2.2912128096,
				"z": -1.3264101561,
				"element": "H" 
			},
			{
				"x": -2.4387939273,
				"y": 0.4751383424,
				"z": -2.8450001688,
				"element": "H" 
			}
		],
		 "valence_orbital": [ 
			{
				"type": "occ",
				"energy": -0.31407,
				"method": "rhf"
			},
			{
				"type": "occ",
				"energy": -0.28887,
				"method": "rhf"
			},
			{
				"type": "occ",
				"energy": -0.27527,
				"method": "rhf"
			},
			{
				"type": "occ",
				"energy": -0.25795,
				"method": "rhf"
			},
			{
				"type": "occ",
				"energy": -0.24413,
				"method": "rhf"
			},
			{
				"type": "unocc",
				"energy": -0.01766,
				"method": "rhf"
			},
			{
				"type": "unocc",
				"energy": -0.01672,
				"method": "rhf"
			},
			{
				"type": "unocc",
				"energy": 0.00381,
				"method": "rhf"
			},
			{
				"type": "unocc",
				"energy": 0.01096,
				"method": "rhf"
			},
			{
				"type": "unocc",
				"energy": 0.07547,
				"method": "rhf"
			}
		],
		"cosmo_sigma_profile": { 
			"-0.025": 0.0,
			"-0.024": 0.0,
			"-0.023": 0.0,
			"-0.022": 0.0,
			"-0.021": 0.0,
			"-0.02": 0.0,
			"-0.019": 0.0,
			"-0.018": 0.569664956402,
			"-0.017": 0.967651926839,
			"-0.016": 0.912889705624,
			"-0.015": 0.693308449391,
			"-0.014": 1.03665497412,
			"-0.013": 0.512869736619,
			"-0.012": 0.200383646361,
			"-0.011": 0.861310511045,
			"-0.01": 1.16863088599,
			"-0.009": 0.462188855743,
			"-0.008": 0.356211872383,
			"-0.007": 3.08979472725,
			"-0.006": 13.6328855635,
			"-0.005": 15.1799788959,
			"-0.004": 16.5470583633,
			"-0.003": 14.7851062294,
			"-0.002": 18.1552794763,
			"-0.001": 15.4863605476,
			"0.0": 14.9923526329,
			"0.001": 13.9681045965,
			"0.002": 17.9583769059,
			"0.003": 18.726096042,
			"0.004": 19.3744894438,
			"0.005": 10.6729404119,
			"0.006": 1.99957829207,
			"0.007": 2.94675510323,
			"0.008": 2.39643122742,
			"0.009": 2.24424884708,
			"0.01": 2.08994985723,
			"0.011": 4.1540185996,
			"0.012": 4.40769313438,
			"0.013": 1.11619824715,
			"0.014": 0.00067862223273,
			"0.015": 0.0,
			"0.016": 0.0,
			"0.017": 0.0,
			"0.018": 0.0,
			"0.019": 0.0,
			"0.02": 0.0,
			"0.021": 0.0,
			"0.022": 0.0,
			"0.023": 0.0,
			"0.024": 0.0,
			"0.025": 0.0
		}
	}
}
