{
	 "smiles": "CNC(=O)CCl", 
	 "Tm": 319.15, 
	 "num_atms": 12, 
	 "gaussian": { 
		 "optdone": 1, 
		 "sigma_profile": "yes", 
		 "theory": "DFT", 
		 "functional": "B3LYP", 
		 "basiset": "6-31G**", 
		 "properties": { 
			 "R2extent": 1176.0168, 
			 "electric_dipole_moment_norm": 1.9708648939, 
			 "electric_quadrupole_moment_norm": 6.93081862986, 
			 "total_energy": -708.119245759, 
			 "HOMO_LUMO_gap": 0.27276, 
			 "cosmo_polarized_energy": -9.16, 
			 "cosmo_cavitation_energy": 17.3, 
			 "cosmo_dispersion_energy": -13.26, 
			 "cosmo_repulsion_energy": 1.17, 
			 "cosmo_total_nonelectrostatic_energy": 5.22, 
			 "SMD_solvation_energy": 3.38 
		},
		"coords": [
			{
				"x": -0.2727027564,
				"y": 1.4315960291,
				"z": 0.4002956873,
				"element": "C" 
			},
			{
				"x": -0.6723320069,
				"y": 0.0523448654,
				"z": 0.1825833427,
				"element": "N" 
			},
			{
				"x": 0.2313310474,
				"y": -0.943337121,
				"z": 0.0348804806,
				"element": "C" 
			},
			{
				"x": 1.4483871342,
				"y": -0.804253638,
				"z": 0.0661229099,
				"element": "O" 
			},
			{
				"x": -0.2947811586,
				"y": -2.363594349,
				"z": -0.190132393,
				"element": "C" 
			},
			{
				"x": -2.1009335286,
				"y": -2.5772497259,
				"z": -0.2375833029,
				"element": "Cl" 
			},
			{
				"x": 0.8172985409,
				"y": 1.4602977095,
				"z": 0.4142797111,
				"element": "H" 
			},
			{
				"x": -0.6388827112,
				"y": 2.0790531836,
				"z": -0.4037124779,
				"element": "H" 
			},
			{
				"x": -0.6543370784,
				"y": 1.8056072097,
				"z": 1.3564112242,
				"element": "H" 
			},
			{
				"x": -1.6533436545,
				"y": -0.1828063083,
				"z": 0.1384561645,
				"element": "H" 
			},
			{
				"x": 0.0808539959,
				"y": -2.9996465405,
				"z": 0.6113682616,
				"element": "H" 
			},
			{
				"x": 0.0946421763,
				"y": -2.7271113145,
				"z": -1.1410696081,
				"element": "H" 
			}
		],
		 "valence_orbital": [ 
			{
				"type": "occ",
				"energy": -0.37399,
				"method": "rhf"
			},
			{
				"type": "occ",
				"energy": -0.32553,
				"method": "rhf"
			},
			{
				"type": "occ",
				"energy": -0.31161,
				"method": "rhf"
			},
			{
				"type": "occ",
				"energy": -0.26128,
				"method": "rhf"
			},
			{
				"type": "occ",
				"energy": -0.25953,
				"method": "rhf"
			},
			{
				"type": "unocc",
				"energy": 0.01323,
				"method": "rhf"
			},
			{
				"type": "unocc",
				"energy": 0.02033,
				"method": "rhf"
			},
			{
				"type": "unocc",
				"energy": 0.09358,
				"method": "rhf"
			},
			{
				"type": "unocc",
				"energy": 0.10606,
				"method": "rhf"
			},
			{
				"type": "unocc",
				"energy": 0.13004,
				"method": "rhf"
			}
		],
		"cosmo_sigma_profile": { 
			"-0.025": 0.0,
			"-0.024": 0.0,
			"-0.023": 0.0,
			"-0.022": 0.0,
			"-0.021": 0.0,
			"-0.02": 0.0,
			"-0.019": 0.0,
			"-0.018": 0.0,
			"-0.017": 0.0,
			"-0.016": 0.0,
			"-0.015": 0.0,
			"-0.014": 0.00427949258441,
			"-0.013": 0.429704887458,
			"-0.012": 0.46086376989,
			"-0.011": 0.961837411221,
			"-0.01": 1.21023612409,
			"-0.009": 3.14393567712,
			"-0.008": 4.4432986438,
			"-0.007": 4.78367809517,
			"-0.006": 5.56343449105,
			"-0.005": 10.7737800477,
			"-0.004": 11.0049811544,
			"-0.003": 10.9574412738,
			"-0.002": 13.1919185065,
			"-0.001": 8.41301452666,
			"0.0": 6.75983931923,
			"0.001": 8.74317302953,
			"0.002": 6.68258516906,
			"0.003": 5.20557632769,
			"0.004": 6.22083313076,
			"0.005": 7.73725207593,
			"0.006": 5.03070716854,
			"0.007": 1.62461085798,
			"0.008": 1.25308727706,
			"0.009": 0.924659777262,
			"0.01": 1.56597539976,
			"0.011": 1.60000778392,
			"0.012": 1.8757944951,
			"0.013": 5.25287847832,
			"0.014": 3.01022479299,
			"0.015": 0.100661626417,
			"0.016": 0.0,
			"0.017": 0.0,
			"0.018": 0.0,
			"0.019": 0.0,
			"0.02": 0.0,
			"0.021": 0.0,
			"0.022": 0.0,
			"0.023": 0.0,
			"0.024": 0.0,
			"0.025": 0.0
		}
	}
}
