{
	 "smiles": "NC(=S)C1CC1", 
	 "Tm": 386.15, 
	 "num_atms": 13, 
	 "gaussian": { 
		 "optdone": 1, 
		 "sigma_profile": "yes", 
		 "theory": "DFT", 
		 "functional": "B3LYP", 
		 "basiset": "6-31G**", 
		 "properties": { 
			 "R2extent": 927.4193, 
			 "electric_dipole_moment_norm": 5.03609011238, 
			 "electric_quadrupole_moment_norm": 11.1118709334, 
			 "total_energy": -609.558772306, 
			 "HOMO_LUMO_gap": 0.17366, 
			 "cosmo_polarized_energy": -15.79, 
			 "cosmo_cavitation_energy": 17.84, 
			 "cosmo_dispersion_energy": -13.8, 
			 "cosmo_repulsion_energy": 1.14, 
			 "cosmo_total_nonelectrostatic_energy": 5.19, 
			 "SMD_solvation_energy": 1.89 
		},
		"coords": [
			{
				"x": -1.4142572285,
				"y": -0.1561775765,
				"z": -1.5573844315,
				"element": "N" 
			},
			{
				"x": -0.3117601906,
				"y": -0.7518990242,
				"z": -1.0527893414,
				"element": "C" 
			},
			{
				"x": 0.6575503633,
				"y": -1.7311167439,
				"z": -1.9926445932,
				"element": "S" 
			},
			{
				"x": 0.0002111868,
				"y": -0.4963746791,
				"z": 0.3805142404,
				"element": "C" 
			},
			{
				"x": -0.278611134,
				"y": 0.8521994385,
				"z": 1.0314113285,
				"element": "C" 
			},
			{
				"x": -1.0997457414,
				"y": -0.3364979041,
				"z": 1.4218554192,
				"element": "C" 
			},
			{
				"x": -1.6441501042,
				"y": -0.3145125448,
				"z": -2.526858299,
				"element": "H" 
			},
			{
				"x": -2.0148080837,
				"y": 0.4422052122,
				"z": -1.0106552113,
				"element": "H" 
			},
			{
				"x": 0.897260312,
				"y": -1.0108640077,
				"z": 0.7009509281,
				"element": "H" 
			},
			{
				"x": -0.7310339306,
				"y": 1.6264568933,
				"z": 0.4180840564,
				"element": "H" 
			},
			{
				"x": 0.4672292661,
				"y": 1.2242084598,
				"z": 1.7264250283,
				"element": "H" 
			},
			{
				"x": -2.1303106211,
				"y": -0.39914108,
				"z": 1.0837520119,
				"element": "H" 
			},
			{
				"x": -0.9278740942,
				"y": -0.7956864436,
				"z": 2.3900388636,
				"element": "H" 
			}
		],
		 "valence_orbital": [ 
			{
				"type": "occ",
				"energy": -0.3648,
				"method": "rhf"
			},
			{
				"type": "occ",
				"energy": -0.31999,
				"method": "rhf"
			},
			{
				"type": "occ",
				"energy": -0.30396,
				"method": "rhf"
			},
			{
				"type": "occ",
				"energy": -0.22504,
				"method": "rhf"
			},
			{
				"type": "occ",
				"energy": -0.20241,
				"method": "rhf"
			},
			{
				"type": "unocc",
				"energy": -0.02875,
				"method": "rhf"
			},
			{
				"type": "unocc",
				"energy": 0.05012,
				"method": "rhf"
			},
			{
				"type": "unocc",
				"energy": 0.0744,
				"method": "rhf"
			},
			{
				"type": "unocc",
				"energy": 0.10592,
				"method": "rhf"
			},
			{
				"type": "unocc",
				"energy": 0.13061,
				"method": "rhf"
			}
		],
		"cosmo_sigma_profile": { 
			"-0.025": 0.0,
			"-0.024": 0.0,
			"-0.023": 0.0,
			"-0.022": 0.0,
			"-0.021": 0.0,
			"-0.02": 0.0,
			"-0.019": 0.0,
			"-0.018": 0.0,
			"-0.017": 0.0,
			"-0.016": 0.123644214833,
			"-0.015": 1.66897052453,
			"-0.014": 2.51462791016,
			"-0.013": 2.98251333035,
			"-0.012": 2.8540263272,
			"-0.011": 2.1277980071,
			"-0.01": 2.26649998274,
			"-0.009": 1.94516262581,
			"-0.008": 1.80338385342,
			"-0.007": 3.04689787725,
			"-0.006": 7.90011948186,
			"-0.005": 9.85639678736,
			"-0.004": 7.97442812007,
			"-0.003": 8.20673696456,
			"-0.002": 8.05942107217,
			"-0.001": 7.04497766892,
			"0.0": 6.85616424367,
			"0.001": 7.28335095647,
			"0.002": 8.03633731269,
			"0.003": 8.13330735519,
			"0.004": 4.57504977162,
			"0.005": 3.1230135708,
			"0.006": 4.64661583207,
			"0.007": 3.2141622227,
			"0.008": 4.32380178369,
			"0.009": 6.53815317115,
			"0.01": 6.30321681671,
			"0.011": 4.93333542489,
			"0.012": 3.91165379282,
			"0.013": 1.3458055622,
			"0.014": 0.0,
			"0.015": 0.0,
			"0.016": 0.0,
			"0.017": 0.0,
			"0.018": 0.0,
			"0.019": 0.0,
			"0.02": 0.0,
			"0.021": 0.0,
			"0.022": 0.0,
			"0.023": 0.0,
			"0.024": 0.0,
			"0.025": 0.0
		}
	}
}
