{
	 "smiles": "OC(=O)C(=C/C1=CC=C(Br)C=C1)C1=CC=CS1", 
	 "Tm": 473.15, 
	 "num_atms": 26, 
	 "gaussian": { 
		 "optdone": 1, 
		 "sigma_profile": "yes", 
		 "theory": "DFT", 
		 "functional": "B3LYP", 
		 "basiset": "6-31G**", 
		 "properties": { 
			 "R2extent": 10110.3662, 
			 "electric_dipole_moment_norm": 2.47531024722, 
			 "electric_quadrupole_moment_norm": 8.89833839096, 
			 "total_energy": -3620.82753377, 
			 "HOMO_LUMO_gap": 0.13879, 
			 "cosmo_polarized_energy": -11.22, 
			 "cosmo_cavitation_energy": 35.01, 
			 "cosmo_dispersion_energy": -26.24, 
			 "cosmo_repulsion_energy": 1.99, 
			 "cosmo_total_nonelectrostatic_energy": 10.76, 
			 "SMD_solvation_energy": 5.81 
		},
		"coords": [
			{
				"x": 2.1043839996,
				"y": 1.8516830543,
				"z": 1.1195221588,
				"element": "O" 
			},
			{
				"x": 1.7683964483,
				"y": 0.8012461839,
				"z": 0.3328892586,
				"element": "C" 
			},
			{
				"x": 1.9762550595,
				"y": 0.8319045767,
				"z": -0.8671333213,
				"element": "O" 
			},
			{
				"x": 1.1623660459,
				"y": -0.3135491105,
				"z": 1.1144795704,
				"element": "C" 
			},
			{
				"x": 0.3571545666,
				"y": -1.2906697168,
				"z": 0.5976788554,
				"element": "C" 
			},
			{
				"x": -0.2719675795,
				"y": -1.6056547453,
				"z": -0.6870736593,
				"element": "C" 
			},
			{
				"x": -1.2397627583,
				"y": -2.6363278516,
				"z": -0.6447197067,
				"element": "C" 
			},
			{
				"x": -1.9373236491,
				"y": -3.0429564801,
				"z": -1.7755663398,
				"element": "C" 
			},
			{
				"x": -1.6652777693,
				"y": -2.4198860762,
				"z": -2.9927256677,
				"element": "C" 
			},
			{
				"x": -2.6073867369,
				"y": -2.9653001799,
				"z": -4.5597485383,
				"element": "Br" 
			},
			{
				"x": -0.7074817563,
				"y": -1.4101270426,
				"z": -3.0791076459,
				"element": "C" 
			},
			{
				"x": -0.0161942582,
				"y": -1.0081032032,
				"z": -1.9398689753,
				"element": "C" 
			},
			{
				"x": 1.4012045186,
				"y": -0.3465796312,
				"z": 2.5742514323,
				"element": "C" 
			},
			{
				"x": 0.4745761143,
				"y": -0.5972996706,
				"z": 3.5619020154,
				"element": "C" 
			},
			{
				"x": 1.0317571801,
				"y": -0.6611178245,
				"z": 4.8712891463,
				"element": "C" 
			},
			{
				"x": 2.3852480038,
				"y": -0.4615422885,
				"z": 4.8771363484,
				"element": "C" 
			},
			{
				"x": 2.9982566102,
				"y": -0.1840492765,
				"z": 3.2824440765,
				"element": "S" 
			},
			{
				"x": 2.5079514562,
				"y": 2.5051521491,
				"z": 0.5240021159,
				"element": "H" 
			},
			{
				"x": 0.0599322655,
				"y": -2.0108352808,
				"z": 1.3572600351,
				"element": "H" 
			},
			{
				"x": -1.4545681451,
				"y": -3.1236022796,
				"z": 0.3026182798,
				"element": "H" 
			},
			{
				"x": -2.6783013437,
				"y": -3.8317063872,
				"z": -1.7154983398,
				"element": "H" 
			},
			{
				"x": -0.4963871316,
				"y": -0.9431392062,
				"z": -4.034495675,
				"element": "H" 
			},
			{
				"x": 0.7406344439,
				"y": -0.2414114935,
				"z": -2.0176947625,
				"element": "H" 
			},
			{
				"x": -0.5833488008,
				"y": -0.7056211768,
				"z": 3.3503965744,
				"element": "H" 
			},
			{
				"x": 0.4482642712,
				"y": -0.8332218207,
				"z": 5.7685019404,
				"element": "H" 
			},
			{
				"x": 3.0576189449,
				"y": -0.4433852214,
				"z": 5.723860824,
				"element": "H" 
			}
		],
		 "valence_orbital": [ 
			{
				"type": "occ",
				"energy": -0.28138,
				"method": "rhf"
			},
			{
				"type": "occ",
				"energy": -0.26693,
				"method": "rhf"
			},
			{
				"type": "occ",
				"energy": -0.25286,
				"method": "rhf"
			},
			{
				"type": "occ",
				"energy": -0.25021,
				"method": "rhf"
			},
			{
				"type": "occ",
				"energy": -0.21737,
				"method": "rhf"
			},
			{
				"type": "unocc",
				"energy": -0.07858,
				"method": "rhf"
			},
			{
				"type": "unocc",
				"energy": -0.01734,
				"method": "rhf"
			},
			{
				"type": "unocc",
				"energy": -0.01559,
				"method": "rhf"
			},
			{
				"type": "unocc",
				"energy": 0.00295,
				"method": "rhf"
			},
			{
				"type": "unocc",
				"energy": 0.00526,
				"method": "rhf"
			}
		],
		"cosmo_sigma_profile": { 
			"-0.025": 0.0,
			"-0.024": 0.0,
			"-0.023": 0.0,
			"-0.022": 0.0,
			"-0.021": 0.0,
			"-0.02": 0.0,
			"-0.019": 0.0110766798073,
			"-0.018": 0.79045722791,
			"-0.017": 1.04154540163,
			"-0.016": 0.769245931923,
			"-0.015": 0.751927378727,
			"-0.014": 0.340488331041,
			"-0.013": 1.01189290849,
			"-0.012": 1.09899950088,
			"-0.011": 0.649138288887,
			"-0.01": 0.39642453794,
			"-0.009": 0.97437265194,
			"-0.008": 4.68422988816,
			"-0.007": 11.9799085054,
			"-0.006": 13.2453257168,
			"-0.005": 13.78664284,
			"-0.004": 15.8120995865,
			"-0.003": 16.100347199,
			"-0.002": 15.0702796173,
			"-0.001": 15.7727487662,
			"0.0": 20.8473283824,
			"0.001": 26.9563092896,
			"0.002": 33.75783223,
			"0.003": 30.7615117153,
			"0.004": 25.8103590522,
			"0.005": 13.4531929955,
			"0.006": 5.85584781668,
			"0.007": 3.49460581895,
			"0.008": 3.36453034114,
			"0.009": 3.53169268496,
			"0.01": 2.85381071559,
			"0.011": 2.02530302005,
			"0.012": 0.45319901999,
			"0.013": 0.0,
			"0.014": 0.0,
			"0.015": 0.0,
			"0.016": 0.0,
			"0.017": 0.0,
			"0.018": 0.0,
			"0.019": 0.0,
			"0.02": 0.0,
			"0.021": 0.0,
			"0.022": 0.0,
			"0.023": 0.0,
			"0.024": 0.0,
			"0.025": 0.0
		}
	}
}
