{
	 "smiles": "CSC1=C(F)C=CC(=C1)C(O)=O", 
	 "Tm": 463.15, 
	 "num_atms": 19, 
	 "gaussian": { 
		 "optdone": 1, 
		 "sigma_profile": "yes", 
		 "theory": "DFT", 
		 "functional": "B3LYP", 
		 "basiset": "6-31G**", 
		 "properties": { 
			 "R2extent": 3142.0122, 
			 "electric_dipole_moment_norm": 2.59695057519, 
			 "electric_quadrupole_moment_norm": 11.8350172028, 
			 "total_energy": -957.557577716, 
			 "HOMO_LUMO_gap": 0.1748, 
			 "cosmo_polarized_energy": -10.06, 
			 "cosmo_cavitation_energy": 25.69, 
			 "cosmo_dispersion_energy": -19.18, 
			 "cosmo_repulsion_energy": 1.47, 
			 "cosmo_total_nonelectrostatic_energy": 7.97, 
			 "SMD_solvation_energy": 6.2 
		},
		"coords": [
			{
				"x": 1.2061046847,
				"y": -0.5195363595,
				"z": -2.6783616453,
				"element": "C" 
			},
			{
				"x": -0.0646450236,
				"y": -0.9785550424,
				"z": -1.4388204529,
				"element": "S" 
			},
			{
				"x": 0.1172964244,
				"y": 0.313772694,
				"z": -0.2222410509,
				"element": "C" 
			},
			{
				"x": 1.3273222335,
				"y": 0.5585798961,
				"z": 0.4438081995,
				"element": "C" 
			},
			{
				"x": 2.4156074552,
				"y": -0.1644604768,
				"z": 0.118799052,
				"element": "F" 
			},
			{
				"x": 1.4565145288,
				"y": 1.527082977,
				"z": 1.4328910801,
				"element": "C" 
			},
			{
				"x": 0.3396878157,
				"y": 2.2701584698,
				"z": 1.8041726001,
				"element": "C" 
			},
			{
				"x": -0.8903807831,
				"y": 2.0405197649,
				"z": 1.1727743679,
				"element": "C" 
			},
			{
				"x": -0.989704375,
				"y": 1.0745688708,
				"z": 0.1627423568,
				"element": "C" 
			},
			{
				"x": -2.1167803112,
				"y": 2.8027673854,
				"z": 1.5233011041,
				"element": "C" 
			},
			{
				"x": -1.9099348024,
				"y": 3.7137889782,
				"z": 2.5077683031,
				"element": "O" 
			},
			{
				"x": -3.2036888442,
				"y": 2.6499774219,
				"z": 1.0024523891,
				"element": "O" 
			},
			{
				"x": 2.2043119733,
				"y": -0.5509700978,
				"z": -2.2424590117,
				"element": "H" 
			},
			{
				"x": 1.131470191,
				"y": -1.2670190615,
				"z": -3.471257388,
				"element": "H" 
			},
			{
				"x": 1.0006114508,
				"y": 0.4679421206,
				"z": -3.0959149745,
				"element": "H" 
			},
			{
				"x": 2.4228985153,
				"y": 1.6724862713,
				"z": 1.9032748927,
				"element": "H" 
			},
			{
				"x": 0.4175060053,
				"y": 3.0247642941,
				"z": 2.5777743053,
				"element": "H" 
			},
			{
				"x": -1.9467050599,
				"y": 0.9241251047,
				"z": -0.324492307,
				"element": "H" 
			},
			{
				"x": -2.7680920785,
				"y": 4.1451067893,
				"z": 2.6519881798,
				"element": "H" 
			}
		],
		 "valence_orbital": [ 
			{
				"type": "occ",
				"energy": -0.32332,
				"method": "rhf"
			},
			{
				"type": "occ",
				"energy": -0.28236,
				"method": "rhf"
			},
			{
				"type": "occ",
				"energy": -0.2809,
				"method": "rhf"
			},
			{
				"type": "occ",
				"energy": -0.26443,
				"method": "rhf"
			},
			{
				"type": "occ",
				"energy": -0.22866,
				"method": "rhf"
			},
			{
				"type": "unocc",
				"energy": -0.05386,
				"method": "rhf"
			},
			{
				"type": "unocc",
				"energy": -0.0297,
				"method": "rhf"
			},
			{
				"type": "unocc",
				"energy": 0.02924,
				"method": "rhf"
			},
			{
				"type": "unocc",
				"energy": 0.04952,
				"method": "rhf"
			},
			{
				"type": "unocc",
				"energy": 0.07216,
				"method": "rhf"
			}
		],
		"cosmo_sigma_profile": { 
			"-0.025": 0.0,
			"-0.024": 0.0,
			"-0.023": 0.0,
			"-0.022": 0.0,
			"-0.021": 0.0,
			"-0.02": 0.0,
			"-0.019": 0.096317375515,
			"-0.018": 0.823767265314,
			"-0.017": 1.15673825189,
			"-0.016": 0.695053476464,
			"-0.015": 0.497670503061,
			"-0.014": 0.815465153031,
			"-0.013": 0.764220545536,
			"-0.012": 0.551845055832,
			"-0.011": 0.784734668312,
			"-0.01": 0.412834564899,
			"-0.009": 0.72698790677,
			"-0.008": 2.76707756244,
			"-0.007": 5.51008302212,
			"-0.006": 8.27101475612,
			"-0.005": 8.79361486139,
			"-0.004": 10.2812407261,
			"-0.003": 13.568261228,
			"-0.002": 19.8534370188,
			"-0.001": 18.6064688591,
			"0.0": 21.1814778607,
			"0.001": 21.1680720856,
			"0.002": 15.0738783295,
			"0.003": 10.5776022368,
			"0.004": 9.92704210182,
			"0.005": 7.39832445947,
			"0.006": 5.17255585791,
			"0.007": 5.94137724563,
			"0.008": 3.71041014976,
			"0.009": 3.04238348562,
			"0.01": 2.28313498074,
			"0.011": 3.78109968793,
			"0.012": 3.37816527487,
			"0.013": 0.0428313111274,
			"0.014": 0.0,
			"0.015": 0.0,
			"0.016": 0.0,
			"0.017": 0.0,
			"0.018": 0.0,
			"0.019": 0.0,
			"0.02": 0.0,
			"0.021": 0.0,
			"0.022": 0.0,
			"0.023": 0.0,
			"0.024": 0.0,
			"0.025": 0.0
		}
	}
}
