{
	 "smiles": "ClCC=CC1=CC=CC=C1", 
	 "Tm": 254.15, 
	 "num_atms": 19, 
	 "gaussian": { 
		 "optdone": 1, 
		 "sigma_profile": "yes", 
		 "theory": "DFT", 
		 "functional": "B3LYP", 
		 "basiset": "6-31G**", 
		 "properties": { 
			 "R2extent": 2995.7191, 
			 "electric_dipole_moment_norm": 2.7384134476, 
			 "electric_quadrupole_moment_norm": 13.0636190663, 
			 "total_energy": -808.565322657, 
			 "HOMO_LUMO_gap": 0.18054, 
			 "cosmo_polarized_energy": -7.04, 
			 "cosmo_cavitation_energy": 24.82, 
			 "cosmo_dispersion_energy": -18.34, 
			 "cosmo_repulsion_energy": 1.5, 
			 "cosmo_total_nonelectrostatic_energy": 7.99, 
			 "SMD_solvation_energy": 3.95 
		},
		"coords": [
			{
				"x": -2.4316039898,
				"y": 3.9273138662,
				"z": -0.9607883813,
				"element": "Cl" 
			},
			{
				"x": -2.8332037481,
				"y": 2.2643379666,
				"z": -0.2729296093,
				"element": "C" 
			},
			{
				"x": -1.9005991153,
				"y": 1.2221110533,
				"z": -0.7770384258,
				"element": "C" 
			},
			{
				"x": -1.0531152321,
				"y": 0.5554388411,
				"z": 0.0234032404,
				"element": "C" 
			},
			{
				"x": -0.1116984647,
				"y": -0.5075481439,
				"z": -0.3521310267,
				"element": "C" 
			},
			{
				"x": 0.0537250869,
				"y": -0.9616344975,
				"z": -1.6745933344,
				"element": "C" 
			},
			{
				"x": 0.9627816134,
				"y": -1.9719545818,
				"z": -1.9722287821,
				"element": "C" 
			},
			{
				"x": 1.7295975609,
				"y": -2.5557418301,
				"z": -0.9586933006,
				"element": "C" 
			},
			{
				"x": 1.5785344963,
				"y": -2.1173030932,
				"z": 0.3570571714,
				"element": "C" 
			},
			{
				"x": 0.6678618636,
				"y": -1.1046408824,
				"z": 0.6543408448,
				"element": "C" 
			},
			{
				"x": -3.865301463,
				"y": 2.0870289333,
				"z": -0.581324283,
				"element": "H" 
			},
			{
				"x": -2.7893647022,
				"y": 2.3688077911,
				"z": 0.8116908442,
				"element": "H" 
			},
			{
				"x": -1.9446759806,
				"y": 1.0204020052,
				"z": -1.8445933148,
				"element": "H" 
			},
			{
				"x": -1.0498800406,
				"y": 0.8125622056,
				"z": 1.0831874352,
				"element": "H" 
			},
			{
				"x": -0.5295880702,
				"y": -0.5201510786,
				"z": -2.4766533005,
				"element": "H" 
			},
			{
				"x": 1.0760299674,
				"y": -2.306572495,
				"z": -2.999480419,
				"element": "H" 
			},
			{
				"x": 2.4381076178,
				"y": -3.3440692746,
				"z": -1.1953940961,
				"element": "H" 
			},
			{
				"x": 2.1694126028,
				"y": -2.5624420167,
				"z": 1.1523847827,
				"element": "H" 
			},
			{
				"x": 0.5548799975,
				"y": -0.7660447684,
				"z": 1.6812839549,
				"element": "H" 
			}
		],
		 "valence_orbital": [ 
			{
				"type": "occ",
				"energy": -0.30597,
				"method": "rhf"
			},
			{
				"type": "occ",
				"energy": -0.29231,
				"method": "rhf"
			},
			{
				"type": "occ",
				"energy": -0.2899,
				"method": "rhf"
			},
			{
				"type": "occ",
				"energy": -0.25714,
				"method": "rhf"
			},
			{
				"type": "occ",
				"energy": -0.22931,
				"method": "rhf"
			},
			{
				"type": "unocc",
				"energy": -0.04877,
				"method": "rhf"
			},
			{
				"type": "unocc",
				"energy": -0.00637,
				"method": "rhf"
			},
			{
				"type": "unocc",
				"energy": 0.02405,
				"method": "rhf"
			},
			{
				"type": "unocc",
				"energy": 0.06271,
				"method": "rhf"
			},
			{
				"type": "unocc",
				"energy": 0.08905,
				"method": "rhf"
			}
		],
		"cosmo_sigma_profile": { 
			"-0.025": 0.0,
			"-0.024": 0.0,
			"-0.023": 0.0,
			"-0.022": 0.0,
			"-0.021": 0.0,
			"-0.02": 0.0,
			"-0.019": 0.0,
			"-0.018": 0.0,
			"-0.017": 0.0,
			"-0.016": 0.0,
			"-0.015": 0.0,
			"-0.014": 0.0,
			"-0.013": 0.0,
			"-0.012": 0.0,
			"-0.011": 0.0,
			"-0.01": 0.0,
			"-0.009": 0.0,
			"-0.008": 1.52299220719,
			"-0.007": 7.39969595068,
			"-0.006": 15.9470526548,
			"-0.005": 17.2714420161,
			"-0.004": 17.195494724,
			"-0.003": 14.1052345496,
			"-0.002": 10.9029902321,
			"-0.001": 9.8062339983,
			"0.0": 9.84361945892,
			"0.001": 11.5070638165,
			"0.002": 11.8845007936,
			"0.003": 15.3756510482,
			"0.004": 18.1213201692,
			"0.005": 17.0148355964,
			"0.006": 11.6287079044,
			"0.007": 10.0296764405,
			"0.008": 0.886694040495,
			"0.009": 0.0,
			"0.01": 0.0,
			"0.011": 0.0,
			"0.012": 0.0,
			"0.013": 0.0,
			"0.014": 0.0,
			"0.015": 0.0,
			"0.016": 0.0,
			"0.017": 0.0,
			"0.018": 0.0,
			"0.019": 0.0,
			"0.02": 0.0,
			"0.021": 0.0,
			"0.022": 0.0,
			"0.023": 0.0,
			"0.024": 0.0,
			"0.025": 0.0
		}
	}
}
