{
	 "smiles": "CCC(C(N)=O)C1=CC=CC=C1", 
	 "Tm": 359.15, 
	 "num_atms": 25, 
	 "gaussian": { 
		 "optdone": 1, 
		 "sigma_profile": "yes", 
		 "theory": "DFT", 
		 "functional": "B3LYP", 
		 "basiset": "6-31G**", 
		 "properties": { 
			 "R2extent": 2592.3459, 
			 "electric_dipole_moment_norm": 3.51360608208, 
			 "electric_quadrupole_moment_norm": 6.61234657365, 
			 "total_energy": -518.90097469, 
			 "HOMO_LUMO_gap": 0.22015, 
			 "cosmo_polarized_energy": -11.57, 
			 "cosmo_cavitation_energy": 27.61, 
			 "cosmo_dispersion_energy": -19.71, 
			 "cosmo_repulsion_energy": 1.6, 
			 "cosmo_total_nonelectrostatic_energy": 9.5, 
			 "SMD_solvation_energy": 5.32 
		},
		"coords": [
			{
				"x": 0.1193813425,
				"y": -4.0208201784,
				"z": -0.158410158,
				"element": "C" 
			},
			{
				"x": -0.4986994988,
				"y": -2.79484148,
				"z": 0.5214006559,
				"element": "C" 
			},
			{
				"x": 0.3264246678,
				"y": -1.4919307102,
				"z": 0.3364900858,
				"element": "C" 
			},
			{
				"x": 0.2843667748,
				"y": -1.0655296442,
				"z": -1.1478650418,
				"element": "C" 
			},
			{
				"x": -0.6746467149,
				"y": -0.1522094086,
				"z": -1.4859527018,
				"element": "N" 
			},
			{
				"x": 1.0223822153,
				"y": -1.5766113742,
				"z": -1.9800889941,
				"element": "O" 
			},
			{
				"x": -0.0540154709,
				"y": -0.3783416961,
				"z": 1.3021702832,
				"element": "C" 
			},
			{
				"x": 0.9345117038,
				"y": 0.511246016,
				"z": 1.7518923154,
				"element": "C" 
			},
			{
				"x": 0.6228594903,
				"y": 1.5603094897,
				"z": 2.6159029363,
				"element": "C" 
			},
			{
				"x": -0.6919817402,
				"y": 1.7450363918,
				"z": 3.0494851372,
				"element": "C" 
			},
			{
				"x": -1.6865954312,
				"y": 0.8696529112,
				"z": 2.6132862298,
				"element": "C" 
			},
			{
				"x": -1.3705238795,
				"y": -0.182550217,
				"z": 1.7495362008,
				"element": "C" 
			},
			{
				"x": -0.5175627916,
				"y": -4.8998322073,
				"z": -0.0148472684,
				"element": "H" 
			},
			{
				"x": 1.103688597,
				"y": -4.2477541691,
				"z": 0.2659544589,
				"element": "H" 
			},
			{
				"x": 0.2545661701,
				"y": -3.8587148637,
				"z": -1.2300337218,
				"element": "H" 
			},
			{
				"x": -0.5952907081,
				"y": -2.9800645195,
				"z": 1.59786128,
				"element": "H" 
			},
			{
				"x": -1.5157311757,
				"y": -2.6390872241,
				"z": 0.14043848,
				"element": "H" 
			},
			{
				"x": 1.3790873193,
				"y": -1.7418860424,
				"z": 0.5077013219,
				"element": "H" 
			},
			{
				"x": -1.1336316931,
				"y": 0.4044718076,
				"z": -0.781929192,
				"element": "H" 
			},
			{
				"x": -0.6796276998,
				"y": 0.1723327261,
				"z": -2.4414475913,
				"element": "H" 
			},
			{
				"x": 1.9608172458,
				"y": 0.374236592,
				"z": 1.4197477937,
				"element": "H" 
			},
			{
				"x": 1.40739597,
				"y": 2.2318672189,
				"z": 2.9532636167,
				"element": "H" 
			},
			{
				"x": -0.9370179752,
				"y": 2.5600576934,
				"z": 3.7242457877,
				"element": "H" 
			},
			{
				"x": -2.7116569438,
				"y": 0.9986729087,
				"z": 2.9496394362,
				"element": "H" 
			},
			{
				"x": -2.1567997738,
				"y": -0.8614100206,
				"z": 1.4329586497,
				"element": "H" 
			}
		],
		 "valence_orbital": [ 
			{
				"type": "occ",
				"energy": -0.32366,
				"method": "rhf"
			},
			{
				"type": "occ",
				"energy": -0.26683,
				"method": "rhf"
			},
			{
				"type": "occ",
				"energy": -0.25934,
				"method": "rhf"
			},
			{
				"type": "occ",
				"energy": -0.25655,
				"method": "rhf"
			},
			{
				"type": "occ",
				"energy": -0.23185,
				"method": "rhf"
			},
			{
				"type": "unocc",
				"energy": -0.0117,
				"method": "rhf"
			},
			{
				"type": "unocc",
				"energy": -0.01004,
				"method": "rhf"
			},
			{
				"type": "unocc",
				"energy": 0.03284,
				"method": "rhf"
			},
			{
				"type": "unocc",
				"energy": 0.08516,
				"method": "rhf"
			},
			{
				"type": "unocc",
				"energy": 0.09572,
				"method": "rhf"
			}
		],
		"cosmo_sigma_profile": { 
			"-0.025": 0.0,
			"-0.024": 0.0,
			"-0.023": 0.0,
			"-0.022": 0.0,
			"-0.021": 0.0,
			"-0.02": 0.0,
			"-0.019": 0.0,
			"-0.018": 0.0,
			"-0.017": 0.0,
			"-0.016": 0.0,
			"-0.015": 0.0,
			"-0.014": 0.510552588348,
			"-0.013": 0.920244919835,
			"-0.012": 1.71832183118,
			"-0.011": 1.62233005359,
			"-0.01": 2.10857132335,
			"-0.009": 1.77691339915,
			"-0.008": 1.6670606271,
			"-0.007": 1.91086629114,
			"-0.006": 6.10490348729,
			"-0.005": 14.9915129741,
			"-0.004": 16.9843130617,
			"-0.003": 20.9580357996,
			"-0.002": 19.5773143397,
			"-0.001": 21.0578641496,
			"0.0": 19.8844383886,
			"0.001": 16.4598720919,
			"0.002": 14.2463166461,
			"0.003": 8.93698967247,
			"0.004": 10.639631252,
			"0.005": 9.87536294752,
			"0.006": 5.85693466729,
			"0.007": 2.30823854992,
			"0.008": 2.23211856559,
			"0.009": 1.13878783643,
			"0.01": 0.824412837317,
			"0.011": 1.2630613527,
			"0.012": 2.08228899499,
			"0.013": 2.69740931181,
			"0.014": 5.10518183966,
			"0.015": 1.70692788948,
			"0.016": 0.0240018644905,
			"0.017": 0.0,
			"0.018": 0.0,
			"0.019": 0.0,
			"0.02": 0.0,
			"0.021": 0.0,
			"0.022": 0.0,
			"0.023": 0.0,
			"0.024": 0.0,
			"0.025": 0.0
		}
	}
}
