{
	 "smiles": "CCOC(=O)C1=C(NC2=CC=C(OC)C=C2)SC2=C1N=C(N)C(C#N)=C2C1=CC=C(Cl)C=C1", 
	 "Tm": 495.15, 
	 "num_atms": 52, 
	 "gaussian": { 
		 "optdone": 1, 
		 "sigma_profile": "yes", 
		 "theory": "DFT", 
		 "functional": "B3LYP", 
		 "basiset": "6-31G**", 
		 "properties": { 
			 "R2extent": 22419.422, 
			 "electric_dipole_moment_norm": 5.17465721763, 
			 "electric_quadrupole_moment_norm": 25.1254121244, 
			 "total_energy": -2229.06190554, 
			 "HOMO_LUMO_gap": 0.13273, 
			 "cosmo_polarized_energy": -26.84, 
			 "cosmo_cavitation_energy": 61.14, 
			 "cosmo_dispersion_energy": -41.17, 
			 "cosmo_repulsion_energy": 3.09, 
			 "cosmo_total_nonelectrostatic_energy": 23.05, 
			 "SMD_solvation_energy": 10.55 
		},
		"coords": [
			{
				"x": -0.2015018314,
				"y": -5.0055244523,
				"z": -0.2170617966,
				"element": "C" 
			},
			{
				"x": -0.6527532936,
				"y": -4.0600609767,
				"z": 0.8866237594,
				"element": "C" 
			},
			{
				"x": -0.6432470539,
				"y": -2.6855431579,
				"z": 0.4376976973,
				"element": "O" 
			},
			{
				"x": 0.5445980482,
				"y": -2.0483866671,
				"z": 0.4887953858,
				"element": "C" 
			},
			{
				"x": 1.5551981715,
				"y": -2.5342084799,
				"z": 0.9613430265,
				"element": "O" 
			},
			{
				"x": 0.469077724,
				"y": -0.6803167728,
				"z": -0.0819332874,
				"element": "C" 
			},
			{
				"x": 1.231198808,
				"y": 0.3738378272,
				"z": 0.3979733364,
				"element": "C" 
			},
			{
				"x": 2.0097228842,
				"y": 0.4806159939,
				"z": 1.5144797252,
				"element": "N" 
			},
			{
				"x": 1.8423706084,
				"y": -0.1443482267,
				"z": 2.7770524496,
				"element": "C" 
			},
			{
				"x": 0.5915382056,
				"y": -0.5265226577,
				"z": 3.2646140939,
				"element": "C" 
			},
			{
				"x": 0.4659830871,
				"y": -1.0836956159,
				"z": 4.5386595264,
				"element": "C" 
			},
			{
				"x": 1.5952468653,
				"y": -1.2443238583,
				"z": 5.3495127017,
				"element": "C" 
			},
			{
				"x": 1.5830053813,
				"y": -1.7685371911,
				"z": 6.6100862333,
				"element": "O" 
			},
			{
				"x": 0.3399474159,
				"y": -2.1882076657,
				"z": 7.1484816629,
				"element": "C" 
			},
			{
				"x": 2.850030136,
				"y": -0.8465862443,
				"z": 4.8652022152,
				"element": "C" 
			},
			{
				"x": 2.9717663161,
				"y": -0.3113351909,
				"z": 3.5913511717,
				"element": "C" 
			},
			{
				"x": 1.1031224449,
				"y": 1.8303368133,
				"z": -0.6015224935,
				"element": "S" 
			},
			{
				"x": 0.0617372578,
				"y": 0.98814538,
				"z": -1.7433235071,
				"element": "C" 
			},
			{
				"x": -0.2249328811,
				"y": -0.3333881267,
				"z": -1.3030492408,
				"element": "C" 
			},
			{
				"x": -1.012462276,
				"y": -1.1658697003,
				"z": -1.9981768177,
				"element": "N" 
			},
			{
				"x": -1.5676044415,
				"y": -0.7122857367,
				"z": -3.1238239688,
				"element": "C" 
			},
			{
				"x": -2.4011608961,
				"y": -1.5700892052,
				"z": -3.7817996338,
				"element": "N" 
			},
			{
				"x": -1.340481382,
				"y": 0.6093676997,
				"z": -3.6304883864,
				"element": "C" 
			},
			{
				"x": -1.951195323,
				"y": 0.9649062721,
				"z": -4.8657655533,
				"element": "C" 
			},
			{
				"x": -2.4896356707,
				"y": 1.1583172354,
				"z": -5.8823920809,
				"element": "N" 
			},
			{
				"x": -0.4893244866,
				"y": 1.4865268189,
				"z": -2.9213288225,
				"element": "C" 
			},
			{
				"x": -0.2075689963,
				"y": 2.8637586027,
				"z": -3.4064075307,
				"element": "C" 
			},
			{
				"x": -1.2537862646,
				"y": 3.7530916749,
				"z": -3.6959946094,
				"element": "C" 
			},
			{
				"x": -0.9909516677,
				"y": 5.0468415813,
				"z": -4.1408694534,
				"element": "C" 
			},
			{
				"x": 0.3323046339,
				"y": 5.4549921576,
				"z": -4.3049286873,
				"element": "C" 
			},
			{
				"x": 0.6713354397,
				"y": 7.0835836949,
				"z": -4.8658151929,
				"element": "Cl" 
			},
			{
				"x": 1.3910456037,
				"y": 4.5896349958,
				"z": -4.0319920642,
				"element": "C" 
			},
			{
				"x": 1.115280483,
				"y": 3.2999773739,
				"z": -3.5819171297,
				"element": "C" 
			},
			{
				"x": 0.8471626222,
				"y": -4.8291309879,
				"z": -0.4678821968,
				"element": "H" 
			},
			{
				"x": -0.8078403195,
				"y": -4.8645074329,
				"z": -1.1163109546,
				"element": "H" 
			},
			{
				"x": -0.306327739,
				"y": -6.0441951642,
				"z": 0.1143095311,
				"element": "H" 
			},
			{
				"x": -1.692811555,
				"y": -4.2425603441,
				"z": 1.1679133026,
				"element": "H" 
			},
			{
				"x": -0.0149104477,
				"y": -4.1499561197,
				"z": 1.7693669681,
				"element": "H" 
			},
			{
				"x": 2.703453221,
				"y": 1.2150139778,
				"z": 1.4948352443,
				"element": "H" 
			},
			{
				"x": -0.2950469935,
				"y": -0.3902360984,
				"z": 2.6544522413,
				"element": "H" 
			},
			{
				"x": -0.5178376256,
				"y": -1.3740102432,
				"z": 4.8872804936,
				"element": "H" 
			},
			{
				"x": 0.557267053,
				"y": -2.5726736856,
				"z": 8.1461628803,
				"element": "H" 
			},
			{
				"x": -0.3692180526,
				"y": -1.3541138432,
				"z": 7.2308515248,
				"element": "H" 
			},
			{
				"x": -0.1143397522,
				"y": -2.985765968,
				"z": 6.5461465596,
				"element": "H" 
			},
			{
				"x": 3.7184927378,
				"y": -0.9781818645,
				"z": 5.5018010815,
				"element": "H" 
			},
			{
				"x": 3.9513395714,
				"y": -0.0270916628,
				"z": 3.2165275193,
				"element": "H" 
			},
			{
				"x": -2.6808652498,
				"y": -1.3746810216,
				"z": -4.7302045914,
				"element": "H" 
			},
			{
				"x": -2.3889796881,
				"y": -2.5286601122,
				"z": -3.4712756603,
				"element": "H" 
			},
			{
				"x": -2.2831138532,
				"y": 3.4366658227,
				"z": -3.5646786769,
				"element": "H" 
			},
			{
				"x": -1.8031501647,
				"y": 5.7313457921,
				"z": -4.3578469898,
				"element": "H" 
			},
			{
				"x": 2.4142212729,
				"y": 4.9181057725,
				"z": -4.1759702209,
				"element": "H" 
			},
			{
				"x": 1.9376019127,
				"y": 2.6197289877,
				"z": -3.3847607846,
				"element": "H" 
			}
		],
		 "valence_orbital": [ 
			{
				"type": "occ",
				"energy": -0.25986,
				"method": "rhf"
			},
			{
				"type": "occ",
				"energy": -0.25138,
				"method": "rhf"
			},
			{
				"type": "occ",
				"energy": -0.23666,
				"method": "rhf"
			},
			{
				"type": "occ",
				"energy": -0.22155,
				"method": "rhf"
			},
			{
				"type": "occ",
				"energy": -0.19706,
				"method": "rhf"
			},
			{
				"type": "unocc",
				"energy": -0.06433,
				"method": "rhf"
			},
			{
				"type": "unocc",
				"energy": -0.03614,
				"method": "rhf"
			},
			{
				"type": "unocc",
				"energy": -0.0272,
				"method": "rhf"
			},
			{
				"type": "unocc",
				"energy": -0.01715,
				"method": "rhf"
			},
			{
				"type": "unocc",
				"energy": -0.00958,
				"method": "rhf"
			}
		],
		"cosmo_sigma_profile": { 
			"-0.025": 0.0,
			"-0.024": 0.0,
			"-0.023": 0.0,
			"-0.022": 0.0,
			"-0.021": 0.0,
			"-0.02": 0.0,
			"-0.019": 0.0,
			"-0.018": 0.0,
			"-0.017": 0.0123421663635,
			"-0.016": 1.0901860777,
			"-0.015": 0.975299478501,
			"-0.014": 1.82171585576,
			"-0.013": 3.30671609837,
			"-0.012": 2.48908661531,
			"-0.011": 3.40309158216,
			"-0.01": 3.82416126436,
			"-0.009": 3.17389386764,
			"-0.008": 5.19244748226,
			"-0.007": 12.016792052,
			"-0.006": 22.5612186605,
			"-0.005": 30.8859958401,
			"-0.004": 31.8657010644,
			"-0.003": 35.3495372263,
			"-0.002": 31.8254061243,
			"-0.001": 40.4579897247,
			"0.0": 48.9238240027,
			"0.001": 40.5961191966,
			"0.002": 34.3343471291,
			"0.003": 29.9078202763,
			"0.004": 29.0646963801,
			"0.005": 17.2740235113,
			"0.006": 9.82591464953,
			"0.007": 8.13380481855,
			"0.008": 8.70680266706,
			"0.009": 8.76496093094,
			"0.01": 8.00947821032,
			"0.011": 7.79430005619,
			"0.012": 6.95253524611,
			"0.013": 3.8908503503,
			"0.014": 0.896804675206,
			"0.015": 0.470566825018,
			"0.016": 0.0,
			"0.017": 0.0,
			"0.018": 0.0,
			"0.019": 0.0,
			"0.02": 0.0,
			"0.021": 0.0,
			"0.022": 0.0,
			"0.023": 0.0,
			"0.024": 0.0,
			"0.025": 0.0
		}
	}
}
