{
	 "smiles": "CC1=CC=C(C=C1)C(N)=S", 
	 "Tm": 439.15, 
	 "num_atms": 19, 
	 "gaussian": { 
		 "optdone": 1, 
		 "sigma_profile": "yes", 
		 "theory": "DFT", 
		 "functional": "B3LYP", 
		 "basiset": "6-31G**", 
		 "properties": { 
			 "R2extent": 3095.4028, 
			 "electric_dipole_moment_norm": 4.84554430585, 
			 "electric_quadrupole_moment_norm": 20.0259014152, 
			 "total_energy": -763.232154914, 
			 "HOMO_LUMO_gap": 0.14717, 
			 "cosmo_polarized_energy": -14.76, 
			 "cosmo_cavitation_energy": 24.31, 
			 "cosmo_dispersion_energy": -18.43, 
			 "cosmo_repulsion_energy": 1.45, 
			 "cosmo_total_nonelectrostatic_energy": 7.34, 
			 "SMD_solvation_energy": 3.36 
		},
		"coords": [
			{
				"x": 1.2463984729,
				"y": 1.6044856738,
				"z": -2.397327657,
				"element": "C" 
			},
			{
				"x": 0.6956241232,
				"y": 1.5419601252,
				"z": -0.9934784094,
				"element": "C" 
			},
			{
				"x": -0.2426202605,
				"y": 0.5611911119,
				"z": -0.6333911429,
				"element": "C" 
			},
			{
				"x": -0.7759961999,
				"y": 0.5076548478,
				"z": 0.6482541947,
				"element": "C" 
			},
			{
				"x": -0.3737751571,
				"y": 1.4282576199,
				"z": 1.6299248407,
				"element": "C" 
			},
			{
				"x": 0.5625487851,
				"y": 2.4132204584,
				"z": 1.273980613,
				"element": "C" 
			},
			{
				"x": 1.082836548,
				"y": 2.4681114598,
				"z": -0.0180888148,
				"element": "C" 
			},
			{
				"x": -0.9362432948,
				"y": 1.355131452,
				"z": 3.0055108652,
				"element": "C" 
			},
			{
				"x": -0.123615767,
				"y": 1.8198740293,
				"z": 3.9840029808,
				"element": "N" 
			},
			{
				"x": -2.4658052561,
				"y": 0.780783004,
				"z": 3.3513317454,
				"element": "S" 
			},
			{
				"x": 2.0965895748,
				"y": 2.2885637644,
				"z": -2.46546272,
				"element": "H" 
			},
			{
				"x": 1.5760826068,
				"y": 0.6179294254,
				"z": -2.7401127298,
				"element": "H" 
			},
			{
				"x": 0.4835853088,
				"y": 1.9515093065,
				"z": -3.1048762828,
				"element": "H" 
			},
			{
				"x": -0.5594431212,
				"y": -0.1707747295,
				"z": -1.3722640516,
				"element": "H" 
			},
			{
				"x": -1.5073615143,
				"y": -0.2478204039,
				"z": 0.913927343,
				"element": "H" 
			},
			{
				"x": 0.8563900418,
				"y": 3.1719985894,
				"z": 1.9936863025,
				"element": "H" 
			},
			{
				"x": 1.7943623701,
				"y": 3.2490349974,
				"z": -0.2738993768,
				"element": "H" 
			},
			{
				"x": 0.8627230846,
				"y": 1.9585025673,
				"z": 3.8214183707,
				"element": "H" 
			},
			{
				"x": -0.4518803451,
				"y": 1.7650867008,
				"z": 4.9370639289,
				"element": "H" 
			}
		],
		 "valence_orbital": [ 
			{
				"type": "occ",
				"energy": -0.34057,
				"method": "rhf"
			},
			{
				"type": "occ",
				"energy": -0.26049,
				"method": "rhf"
			},
			{
				"type": "occ",
				"energy": -0.25594,
				"method": "rhf"
			},
			{
				"type": "occ",
				"energy": -0.22514,
				"method": "rhf"
			},
			{
				"type": "occ",
				"energy": -0.20384,
				"method": "rhf"
			},
			{
				"type": "unocc",
				"energy": -0.05667,
				"method": "rhf"
			},
			{
				"type": "unocc",
				"energy": -0.01128,
				"method": "rhf"
			},
			{
				"type": "unocc",
				"energy": 0.02311,
				"method": "rhf"
			},
			{
				"type": "unocc",
				"energy": 0.07387,
				"method": "rhf"
			},
			{
				"type": "unocc",
				"energy": 0.09376,
				"method": "rhf"
			}
		],
		"cosmo_sigma_profile": { 
			"-0.025": 0.0,
			"-0.024": 0.0,
			"-0.023": 0.0,
			"-0.022": 0.0,
			"-0.021": 0.0,
			"-0.02": 0.0,
			"-0.019": 0.0,
			"-0.018": 0.0,
			"-0.017": 0.0,
			"-0.016": 0.0884111726545,
			"-0.015": 1.33522842392,
			"-0.014": 2.63540896855,
			"-0.013": 2.10989262894,
			"-0.012": 2.57978089134,
			"-0.011": 2.69910836942,
			"-0.01": 1.90652649905,
			"-0.009": 2.21221740864,
			"-0.008": 2.024812088,
			"-0.007": 2.46587330259,
			"-0.006": 5.59913595045,
			"-0.005": 11.5215396465,
			"-0.004": 15.8018533559,
			"-0.003": 12.7470803516,
			"-0.002": 13.4372453408,
			"-0.001": 14.3150085469,
			"0.0": 14.8202303046,
			"0.001": 10.7250993013,
			"0.002": 9.66985345139,
			"0.003": 11.0493804413,
			"0.004": 16.1626565079,
			"0.005": 7.95061376677,
			"0.006": 3.93777750524,
			"0.007": 4.45228957717,
			"0.008": 5.84094751653,
			"0.009": 7.05569105832,
			"0.01": 4.55927600911,
			"0.011": 3.95401626207,
			"0.012": 2.25078199538,
			"0.013": 0.0930425476028,
			"0.014": 0.0,
			"0.015": 0.0,
			"0.016": 0.0,
			"0.017": 0.0,
			"0.018": 0.0,
			"0.019": 0.0,
			"0.02": 0.0,
			"0.021": 0.0,
			"0.022": 0.0,
			"0.023": 0.0,
			"0.024": 0.0,
			"0.025": 0.0
		}
	}
}
