{
	 "smiles": "CC1NC2CCC1OC(=O)CCCCCCCC1CCC(OC(=O)CCCCCCC2)C(C)N1", 
	 "Tm": 394.15, 
	 "num_atms": 84, 
	 "gaussian": { 
		 "optdone": 1, 
		 "sigma_profile": "yes", 
		 "theory": "DFT", 
		 "functional": "B3LYP", 
		 "basiset": "6-31G**", 
		 "properties": { 
			 "R2extent": 20559.9831, 
			 "electric_dipole_moment_norm": 4.56481346169, 
			 "electric_quadrupole_moment_norm": 39.2417293806, 
			 "total_energy": -1507.56631563, 
			 "HOMO_LUMO_gap": 0.22446, 
			 "cosmo_polarized_energy": -20.18, 
			 "cosmo_cavitation_energy": 76.04, 
			 "cosmo_dispersion_energy": -45.1, 
			 "cosmo_repulsion_energy": 3.36, 
			 "cosmo_total_nonelectrostatic_energy": 34.3, 
			 "SMD_solvation_energy": 8.03 
		},
		"coords": [
			{
				"x": 1.7223706755,
				"y": 5.0677216278,
				"z": -1.7528614548,
				"element": "C" 
			},
			{
				"x": 2.2000548383,
				"y": 3.609170695,
				"z": -1.6902665931,
				"element": "C" 
			},
			{
				"x": 1.2987716,
				"y": 2.6539444772,
				"z": -2.3651236392,
				"element": "N" 
			},
			{
				"x": 0.263562676,
				"y": 2.0582575999,
				"z": -1.5097064017,
				"element": "C" 
			},
			{
				"x": 0.9562387569,
				"y": 1.1407312779,
				"z": -0.4716229899,
				"element": "C" 
			},
			{
				"x": 2.3878879078,
				"y": 1.6162025575,
				"z": -0.1494597991,
				"element": "C" 
			},
			{
				"x": 2.5134863164,
				"y": 3.1331230513,
				"z": -0.2545725391,
				"element": "C" 
			},
			{
				"x": 1.5891681863,
				"y": 3.7785571072,
				"z": 0.6783186615,
				"element": "O" 
			},
			{
				"x": 2.0178907111,
				"y": 3.9017624003,
				"z": 1.9562521689,
				"element": "C" 
			},
			{
				"x": 3.0848612125,
				"y": 3.4796859329,
				"z": 2.3539196968,
				"element": "O" 
			},
			{
				"x": 1.0131057059,
				"y": 4.6097878797,
				"z": 2.8469708108,
				"element": "C" 
			},
			{
				"x": 0.3781490009,
				"y": 3.6331083841,
				"z": 3.8622372286,
				"element": "C" 
			},
			{
				"x": -0.7438375295,
				"y": 2.7796718059,
				"z": 3.254612325,
				"element": "C" 
			},
			{
				"x": -1.1459382708,
				"y": 1.5719416962,
				"z": 4.1116883901,
				"element": "C" 
			},
			{
				"x": -2.4024782562,
				"y": 0.8656773064,
				"z": 3.577233734,
				"element": "C" 
			},
			{
				"x": -2.6611776711,
				"y": -0.5416874509,
				"z": 4.1463038065,
				"element": "C" 
			},
			{
				"x": -1.61290005,
				"y": -1.6138711964,
				"z": 3.7837367828,
				"element": "C" 
			},
			{
				"x": -1.3216953535,
				"y": -1.7780293581,
				"z": 2.2799054508,
				"element": "C" 
			},
			{
				"x": -2.5672085283,
				"y": -2.1558278102,
				"z": 1.4620527288,
				"element": "C" 
			},
			{
				"x": -2.1753779285,
				"y": -2.5671795359,
				"z": 0.0378780166,
				"element": "C" 
			},
			{
				"x": -1.1506237724,
				"y": -3.7312125252,
				"z": 0.020906884,
				"element": "C" 
			},
			{
				"x": -1.7708407102,
				"y": -4.9337519449,
				"z": -0.4810910484,
				"element": "O" 
			},
			{
				"x": -1.6161364996,
				"y": -5.4205023778,
				"z": -1.7455878534,
				"element": "C" 
			},
			{
				"x": -2.2632641486,
				"y": -6.3918803195,
				"z": -2.0615671555,
				"element": "O" 
			},
			{
				"x": -0.6613254375,
				"y": -4.7325165783,
				"z": -2.713689484,
				"element": "C" 
			},
			{
				"x": -1.2824408094,
				"y": -3.4933121442,
				"z": -3.3919511721,
				"element": "C" 
			},
			{
				"x": -0.3073674717,
				"y": -2.7977879131,
				"z": -4.3518467923,
				"element": "C" 
			},
			{
				"x": -0.8915215846,
				"y": -1.5630361217,
				"z": -5.0638667635,
				"element": "C" 
			},
			{
				"x": -1.3574682941,
				"y": -0.4142646833,
				"z": -4.1494316056,
				"element": "C" 
			},
			{
				"x": -0.2496717254,
				"y": 0.2199625612,
				"z": -3.2955909911,
				"element": "C" 
			},
			{
				"x": -0.7817086638,
				"y": 1.3268064915,
				"z": -2.3719771949,
				"element": "C" 
			},
			{
				"x": -0.631298356,
				"y": -4.0409366029,
				"z": 1.4365517559,
				"element": "C" 
			},
			{
				"x": 0.5688342027,
				"y": -4.9848520705,
				"z": 1.4125238899,
				"element": "C" 
			},
			{
				"x": -0.2406539973,
				"y": -2.7565506076,
				"z": 2.0209310366,
				"element": "N" 
			},
			{
				"x": 2.4334596175,
				"y": 5.7405745575,
				"z": -1.2608760616,
				"element": "H" 
			},
			{
				"x": 0.7517338134,
				"y": 5.1921278861,
				"z": -1.2665286009,
				"element": "H" 
			},
			{
				"x": 1.6332553891,
				"y": 5.3864024435,
				"z": -2.7974731286,
				"element": "H" 
			},
			{
				"x": 3.1628593765,
				"y": 3.5549562779,
				"z": -2.2198884221,
				"element": "H" 
			},
			{
				"x": 0.8688408756,
				"y": 3.1084647695,
				"z": -3.1663617642,
				"element": "H" 
			},
			{
				"x": -0.2849194679,
				"y": 2.8336742874,
				"z": -0.9454526845,
				"element": "H" 
			},
			{
				"x": 0.347557332,
				"y": 1.1200700854,
				"z": 0.4390471435,
				"element": "H" 
			},
			{
				"x": 1.0060267163,
				"y": 0.1096953261,
				"z": -0.834694119,
				"element": "H" 
			},
			{
				"x": 2.7055245001,
				"y": 1.2859385564,
				"z": 0.8427561522,
				"element": "H" 
			},
			{
				"x": 3.0902532108,
				"y": 1.1889332662,
				"z": -0.8736530177,
				"element": "H" 
			},
			{
				"x": 3.5175955605,
				"y": 3.4558330754,
				"z": 0.0294960659,
				"element": "H" 
			},
			{
				"x": 1.5739213888,
				"y": 5.3815899668,
				"z": 3.3839718769,
				"element": "H" 
			},
			{
				"x": 0.2445372175,
				"y": 5.0997678497,
				"z": 2.242395314,
				"element": "H" 
			},
			{
				"x": 1.1734059725,
				"y": 2.9940060262,
				"z": 4.2646645752,
				"element": "H" 
			},
			{
				"x": -0.0176362531,
				"y": 4.2058568006,
				"z": 4.709381442,
				"element": "H" 
			},
			{
				"x": -0.434326325,
				"y": 2.4172422145,
				"z": 2.265200642,
				"element": "H" 
			},
			{
				"x": -1.6207818293,
				"y": 3.4180646665,
				"z": 3.0764787874,
				"element": "H" 
			},
			{
				"x": -0.2991281103,
				"y": 0.8741670058,
				"z": 4.1444666994,
				"element": "H" 
			},
			{
				"x": -1.318791296,
				"y": 1.8859364805,
				"z": 5.1506575278,
				"element": "H" 
			},
			{
				"x": -3.276483812,
				"y": 1.4953395192,
				"z": 3.7896996165,
				"element": "H" 
			},
			{
				"x": -2.3426374897,
				"y": 0.8110110307,
				"z": 2.4824030874,
				"element": "H" 
			},
			{
				"x": -2.7305405991,
				"y": -0.4822388108,
				"z": 5.2406872286,
				"element": "H" 
			},
			{
				"x": -3.6481758731,
				"y": -0.8777533665,
				"z": 3.8047936674,
				"element": "H" 
			},
			{
				"x": -0.664136289,
				"y": -1.3828981329,
				"z": 4.2880970052,
				"element": "H" 
			},
			{
				"x": -1.9433411344,
				"y": -2.5813599348,
				"z": 4.186507431,
				"element": "H" 
			},
			{
				"x": -0.9668753004,
				"y": -0.8077885049,
				"z": 1.8993619157,
				"element": "H" 
			},
			{
				"x": -3.1077441455,
				"y": -2.9741732664,
				"z": 1.9538257589,
				"element": "H" 
			},
			{
				"x": -3.2572998337,
				"y": -1.3071029397,
				"z": 1.4255968215,
				"element": "H" 
			},
			{
				"x": -3.0602899662,
				"y": -2.8725335309,
				"z": -0.5284150742,
				"element": "H" 
			},
			{
				"x": -1.7462288253,
				"y": -1.6981772713,
				"z": -0.4751449534,
				"element": "H" 
			},
			{
				"x": -0.2900508969,
				"y": -3.4614611561,
				"z": -0.5953284432,
				"element": "H" 
			},
			{
				"x": 0.2780202123,
				"y": -4.457682679,
				"z": -2.2217028128,
				"element": "H" 
			},
			{
				"x": -0.4254052854,
				"y": -5.4846075186,
				"z": -3.4705214149,
				"element": "H" 
			},
			{
				"x": -2.1836640878,
				"y": -3.8046361781,
				"z": -3.9352191473,
				"element": "H" 
			},
			{
				"x": -1.6147948571,
				"y": -2.7828531183,
				"z": -2.6287885669,
				"element": "H" 
			},
			{
				"x": 0.0185915032,
				"y": -3.5180848323,
				"z": -5.1137368342,
				"element": "H" 
			},
			{
				"x": 0.5995812655,
				"y": -2.5156203524,
				"z": -3.8006690246,
				"element": "H" 
			},
			{
				"x": -0.1364071207,
				"y": -1.176903686,
				"z": -5.7615962783,
				"element": "H" 
			},
			{
				"x": -1.7405042264,
				"y": -1.8826395638,
				"z": -5.6830830553,
				"element": "H" 
			},
			{
				"x": -2.1649697279,
				"y": -0.7670043678,
				"z": -3.4932187426,
				"element": "H" 
			},
			{
				"x": -1.8117096242,
				"y": 0.3630529985,
				"z": -4.7788484609,
				"element": "H" 
			},
			{
				"x": 0.2361618176,
				"y": -0.5552665841,
				"z": -2.6914279069,
				"element": "H" 
			},
			{
				"x": 0.5349700872,
				"y": 0.627234014,
				"z": -3.944339663,
				"element": "H" 
			},
			{
				"x": -1.3103784343,
				"y": 2.0758066781,
				"z": -2.9806845703,
				"element": "H" 
			},
			{
				"x": -1.5409527824,
				"y": 0.9060638212,
				"z": -1.6979280688,
				"element": "H" 
			},
			{
				"x": -1.448376381,
				"y": -4.5479962805,
				"z": 1.9803000128,
				"element": "H" 
			},
			{
				"x": 1.4143064462,
				"y": -4.5182957721,
				"z": 0.8950382762,
				"element": "H" 
			},
			{
				"x": 0.8901542761,
				"y": -5.2327858728,
				"z": 2.4304726022,
				"element": "H" 
			},
			{
				"x": 0.3107275444,
				"y": -5.9193092107,
				"z": 0.9077140306,
				"element": "H" 
			},
			{
				"x": 0.3177191193,
				"y": -2.9034502846,
				"z": 2.8554572459,
				"element": "H" 
			}
		],
		 "valence_orbital": [ 
			{
				"type": "occ",
				"energy": -0.27732,
				"method": "rhf"
			},
			{
				"type": "occ",
				"energy": -0.26703,
				"method": "rhf"
			},
			{
				"type": "occ",
				"energy": -0.25306,
				"method": "rhf"
			},
			{
				"type": "occ",
				"energy": -0.21563,
				"method": "rhf"
			},
			{
				"type": "occ",
				"energy": -0.21506,
				"method": "rhf"
			},
			{
				"type": "unocc",
				"energy": 0.0094,
				"method": "rhf"
			},
			{
				"type": "unocc",
				"energy": 0.01832,
				"method": "rhf"
			},
			{
				"type": "unocc",
				"energy": 0.03873,
				"method": "rhf"
			},
			{
				"type": "unocc",
				"energy": 0.05935,
				"method": "rhf"
			},
			{
				"type": "unocc",
				"energy": 0.07338,
				"method": "rhf"
			}
		],
		"cosmo_sigma_profile": { 
			"-0.025": 0.0,
			"-0.024": 0.0,
			"-0.023": 0.0,
			"-0.022": 0.0,
			"-0.021": 0.0,
			"-0.02": 0.0,
			"-0.019": 0.0,
			"-0.018": 0.0,
			"-0.017": 0.0,
			"-0.016": 0.0,
			"-0.015": 0.0,
			"-0.014": 0.0,
			"-0.013": 0.0,
			"-0.012": 0.0,
			"-0.011": 0.0,
			"-0.01": 0.00927003787657,
			"-0.009": 1.39844409084,
			"-0.008": 2.40499340649,
			"-0.007": 2.94584879874,
			"-0.006": 6.26204401403,
			"-0.005": 12.8726355857,
			"-0.004": 25.7482440187,
			"-0.003": 61.1096729207,
			"-0.002": 111.690685056,
			"-0.001": 109.537632715,
			"0.0": 90.9890426991,
			"0.001": 55.8581673552,
			"0.002": 22.2836176072,
			"0.003": 9.31267402677,
			"0.004": 7.26088373713,
			"0.005": 8.09082761724,
			"0.006": 5.02173283151,
			"0.007": 5.23795315157,
			"0.008": 4.66809143004,
			"0.009": 4.99663602442,
			"0.01": 4.56326028604,
			"0.011": 6.33714470682,
			"0.012": 10.8509620406,
			"0.013": 9.08025474387,
			"0.014": 2.45736670987,
			"0.015": 1.27901881809,
			"0.016": 0.411949973921,
			"0.017": 0.115679354777,
			"0.018": 0.0,
			"0.019": 0.0,
			"0.02": 0.0,
			"0.021": 0.0,
			"0.022": 0.0,
			"0.023": 0.0,
			"0.024": 0.0,
			"0.025": 0.0
		}
	}
}
