{
	 "smiles": "CN1C(C)=CC2=C1C(=O)NC=C2", 
	 "Tm": 498.15, 
	 "num_atms": 22, 
	 "gaussian": { 
		 "optdone": 1, 
		 "sigma_profile": "yes", 
		 "theory": "DFT", 
		 "functional": "B3LYP", 
		 "basiset": "6-31G**", 
		 "properties": { 
			 "R2extent": 2008.4342, 
			 "electric_dipole_moment_norm": 2.15944597061, 
			 "electric_quadrupole_moment_norm": 16.0398746978, 
			 "total_energy": -533.734352715, 
			 "HOMO_LUMO_gap": 0.18446, 
			 "cosmo_polarized_energy": -12.74, 
			 "cosmo_cavitation_energy": 25.11, 
			 "cosmo_dispersion_energy": -18.73, 
			 "cosmo_repulsion_energy": 1.47, 
			 "cosmo_total_nonelectrostatic_energy": 7.85, 
			 "SMD_solvation_energy": 5.03 
		},
		"coords": [
			{
				"x": 1.2777351084,
				"y": -1.5783878708,
				"z": 0.4755251832,
				"element": "C" 
			},
			{
				"x": 0.2737386335,
				"y": -0.7878871671,
				"z": -0.2274712551,
				"element": "N" 
			},
			{
				"x": -0.4799313961,
				"y": -1.1844843114,
				"z": -1.3132036804,
				"element": "C" 
			},
			{
				"x": -0.3544083796,
				"y": -2.5401270562,
				"z": -1.9336430959,
				"element": "C" 
			},
			{
				"x": -1.3160603961,
				"y": -0.1437740014,
				"z": -1.683208947,
				"element": "C" 
			},
			{
				"x": -1.0739464394,
				"y": 0.9393001776,
				"z": -0.7958815016,
				"element": "C" 
			},
			{
				"x": -0.0798815635,
				"y": 0.5069851959,
				"z": 0.0977284976,
				"element": "C" 
			},
			{
				"x": 0.4563500335,
				"y": 1.3101250587,
				"z": 1.1640576883,
				"element": "C" 
			},
			{
				"x": 1.3262270273,
				"y": 1.0017452904,
				"z": 1.9856847896,
				"element": "O" 
			},
			{
				"x": -0.1437844886,
				"y": 2.5790623238,
				"z": 1.1925548579,
				"element": "N" 
			},
			{
				"x": -1.1219638589,
				"y": 3.0423780729,
				"z": 0.3344537682,
				"element": "C" 
			},
			{
				"x": -1.6102897832,
				"y": 2.2611329373,
				"z": -0.664579499,
				"element": "C" 
			},
			{
				"x": 2.2498137064,
				"y": -1.0828453213,
				"z": 0.4376959029,
				"element": "H" 
			},
			{
				"x": 1.0052323808,
				"y": -1.6955186335,
				"z": 1.5262078202,
				"element": "H" 
			},
			{
				"x": 1.3501414848,
				"y": -2.5594297144,
				"z": 0.0060986221,
				"element": "H" 
			},
			{
				"x": -1.0493078065,
				"y": -2.6189449978,
				"z": -2.7725288531,
				"element": "H" 
			},
			{
				"x": -0.5935540637,
				"y": -3.3451732623,
				"z": -1.2282767272,
				"element": "H" 
			},
			{
				"x": 0.6543674605,
				"y": -2.7300666677,
				"z": -2.3198091719,
				"element": "H" 
			},
			{
				"x": -2.0194638585,
				"y": -0.1722383032,
				"z": -2.5039272185,
				"element": "H" 
			},
			{
				"x": 0.2056548683,
				"y": 3.1770946198,
				"z": 1.9294821324,
				"element": "H" 
			},
			{
				"x": -1.4608509153,
				"y": 4.0553767935,
				"z": 0.5176230261,
				"element": "H" 
			},
			{
				"x": -2.377517754,
				"y": 2.6362768371,
				"z": -1.3309823389,
				"element": "H" 
			}
		],
		 "valence_orbital": [ 
			{
				"type": "occ",
				"energy": -0.32632,
				"method": "rhf"
			},
			{
				"type": "occ",
				"energy": -0.26455,
				"method": "rhf"
			},
			{
				"type": "occ",
				"energy": -0.24017,
				"method": "rhf"
			},
			{
				"type": "occ",
				"energy": -0.21681,
				"method": "rhf"
			},
			{
				"type": "occ",
				"energy": -0.19016,
				"method": "rhf"
			},
			{
				"type": "unocc",
				"energy": -0.0057,
				"method": "rhf"
			},
			{
				"type": "unocc",
				"energy": 0.01745,
				"method": "rhf"
			},
			{
				"type": "unocc",
				"energy": 0.0752,
				"method": "rhf"
			},
			{
				"type": "unocc",
				"energy": 0.08387,
				"method": "rhf"
			},
			{
				"type": "unocc",
				"energy": 0.09261,
				"method": "rhf"
			}
		],
		"cosmo_sigma_profile": { 
			"-0.025": 0.0,
			"-0.024": 0.0,
			"-0.023": 0.0,
			"-0.022": 0.0,
			"-0.021": 0.0,
			"-0.02": 0.0,
			"-0.019": 0.0,
			"-0.018": 0.0,
			"-0.017": 0.0,
			"-0.016": 0.0291253723576,
			"-0.015": 0.994103412979,
			"-0.014": 1.4133960877,
			"-0.013": 0.846076852095,
			"-0.012": 1.15414220998,
			"-0.011": 1.07401518977,
			"-0.01": 1.19539342991,
			"-0.009": 1.20384591784,
			"-0.008": 2.6653875292,
			"-0.007": 3.16292466221,
			"-0.006": 6.54360335748,
			"-0.005": 18.1633338699,
			"-0.004": 18.5312633897,
			"-0.003": 17.4795814538,
			"-0.002": 17.795020062,
			"-0.001": 13.8598897367,
			"0.0": 9.96801863737,
			"0.001": 10.9976974271,
			"0.002": 13.2417333008,
			"0.003": 10.50166205,
			"0.004": 10.3632347916,
			"0.005": 10.5409139151,
			"0.006": 7.67704060241,
			"0.007": 3.43347341567,
			"0.008": 1.36266367505,
			"0.009": 1.19453451575,
			"0.01": 1.65047279797,
			"0.011": 0.929211546296,
			"0.012": 1.46664872679,
			"0.013": 1.68981595025,
			"0.014": 3.27177399685,
			"0.015": 4.5875781406,
			"0.016": 0.510269853699,
			"0.017": 0.0,
			"0.018": 0.0,
			"0.019": 0.0,
			"0.02": 0.0,
			"0.021": 0.0,
			"0.022": 0.0,
			"0.023": 0.0,
			"0.024": 0.0,
			"0.025": 0.0
		}
	}
}
