{
	 "smiles": "FC1=CC=C(C=C1)C1=NC2=C(S1)C(=O)CCC2", 
	 "Tm": 416.15, 
	 "num_atms": 27, 
	 "gaussian": { 
		 "optdone": 1, 
		 "sigma_profile": "yes", 
		 "theory": "DFT", 
		 "functional": "B3LYP", 
		 "basiset": "6-31G**", 
		 "properties": { 
			 "R2extent": 6716.3341, 
			 "electric_dipole_moment_norm": 2.64355526139, 
			 "electric_quadrupole_moment_norm": 18.7843949014, 
			 "total_energy": -1129.42383165, 
			 "HOMO_LUMO_gap": 0.14988, 
			 "cosmo_polarized_energy": -10.31, 
			 "cosmo_cavitation_energy": 32.83, 
			 "cosmo_dispersion_energy": -24.72, 
			 "cosmo_repulsion_energy": 1.83, 
			 "cosmo_total_nonelectrostatic_energy": 9.94, 
			 "SMD_solvation_energy": 4.34 
		},
		"coords": [
			{
				"x": -4.9457201285,
				"y": 1.7451814557,
				"z": -1.5526367836,
				"element": "F" 
			},
			{
				"x": -3.6859967808,
				"y": 1.2773836836,
				"z": -1.4754050813,
				"element": "C" 
			},
			{
				"x": -3.4007091626,
				"y": 0.0202421159,
				"z": -1.9993128191,
				"element": "C" 
			},
			{
				"x": -2.0969375182,
				"y": -0.457980825,
				"z": -1.9164808537,
				"element": "C" 
			},
			{
				"x": -1.0836393374,
				"y": 0.3095129278,
				"z": -1.3163836664,
				"element": "C" 
			},
			{
				"x": -1.4090226025,
				"y": 1.5769626515,
				"z": -0.7970009718,
				"element": "C" 
			},
			{
				"x": -2.7082352487,
				"y": 2.0650310753,
				"z": -0.8741280875,
				"element": "C" 
			},
			{
				"x": 0.2999665599,
				"y": -0.1651880631,
				"z": -1.2146775887,
				"element": "C" 
			},
			{
				"x": 1.2607496123,
				"y": 0.5405298144,
				"z": -0.6527490963,
				"element": "N" 
			},
			{
				"x": 2.449725244,
				"y": -0.1269062645,
				"z": -0.6832381975,
				"element": "C" 
			},
			{
				"x": 2.4237242255,
				"y": -1.371536737,
				"z": -1.280934589,
				"element": "C" 
			},
			{
				"x": 0.8127570553,
				"y": -1.7331632365,
				"z": -1.8316548841,
				"element": "S" 
			},
			{
				"x": 3.5803694735,
				"y": -2.2499086452,
				"z": -1.4534926343,
				"element": "C" 
			},
			{
				"x": 3.5135394194,
				"y": -3.3520572449,
				"z": -1.9797339698,
				"element": "O" 
			},
			{
				"x": 4.8964089121,
				"y": -1.6488194677,
				"z": -0.9554269692,
				"element": "C" 
			},
			{
				"x": 4.7173018043,
				"y": -0.6687679084,
				"z": 0.2167408998,
				"element": "C" 
			},
			{
				"x": 3.7132659664,
				"y": 0.4506103354,
				"z": -0.1106194834,
				"element": "C" 
			},
			{
				"x": -4.1915115112,
				"y": -0.5615413005,
				"z": -2.4595151925,
				"element": "H" 
			},
			{
				"x": -1.8716562813,
				"y": -1.4389009433,
				"z": -2.3245233761,
				"element": "H" 
			},
			{
				"x": -0.6244052779,
				"y": 2.1649938459,
				"z": -0.335039999,
				"element": "H" 
			},
			{
				"x": -2.9739777868,
				"y": 3.0392391356,
				"z": -0.478564035,
				"element": "H" 
			},
			{
				"x": 5.3518112368,
				"y": -1.128852566,
				"z": -1.8114324661,
				"element": "H" 
			},
			{
				"x": 5.5629878448,
				"y": -2.4768166076,
				"z": -0.6988279299,
				"element": "H" 
			},
			{
				"x": 5.6847710146,
				"y": -0.2353902523,
				"z": 0.4902866946,
				"element": "H" 
			},
			{
				"x": 4.3588487862,
				"y": -1.2216122193,
				"z": 1.0938697055,
				"element": "H" 
			},
			{
				"x": 4.1490713519,
				"y": 1.1505045444,
				"z": -0.8386910026,
				"element": "H" 
			},
			{
				"x": 3.4719131289,
				"y": 1.0422506959,
				"z": 0.7781723769,
				"element": "H" 
			}
		],
		 "valence_orbital": [ 
			{
				"type": "occ",
				"energy": -0.28856,
				"method": "rhf"
			},
			{
				"type": "occ",
				"energy": -0.28092,
				"method": "rhf"
			},
			{
				"type": "occ",
				"energy": -0.27361,
				"method": "rhf"
			},
			{
				"type": "occ",
				"energy": -0.24601,
				"method": "rhf"
			},
			{
				"type": "occ",
				"energy": -0.22923,
				"method": "rhf"
			},
			{
				"type": "unocc",
				"energy": -0.07935,
				"method": "rhf"
			},
			{
				"type": "unocc",
				"energy": -0.02491,
				"method": "rhf"
			},
			{
				"type": "unocc",
				"energy": -0.01917,
				"method": "rhf"
			},
			{
				"type": "unocc",
				"energy": 0.01545,
				"method": "rhf"
			},
			{
				"type": "unocc",
				"energy": 0.03842,
				"method": "rhf"
			}
		],
		"cosmo_sigma_profile": { 
			"-0.025": 0.0,
			"-0.024": 0.0,
			"-0.023": 0.0,
			"-0.022": 0.0,
			"-0.021": 0.0,
			"-0.02": 0.0,
			"-0.019": 0.0,
			"-0.018": 0.0,
			"-0.017": 0.0,
			"-0.016": 0.0,
			"-0.015": 0.0,
			"-0.014": 0.0,
			"-0.013": 0.0,
			"-0.012": 0.0,
			"-0.011": 0.0,
			"-0.01": 0.0,
			"-0.009": 0.0226202627332,
			"-0.008": 3.14033956584,
			"-0.007": 6.10146830544,
			"-0.006": 10.4717792103,
			"-0.005": 17.6418885896,
			"-0.004": 21.4060160821,
			"-0.003": 23.2120532284,
			"-0.002": 23.9843502304,
			"-0.001": 23.1951091842,
			"0.0": 26.0404448995,
			"0.001": 24.4982926404,
			"0.002": 26.6639817269,
			"0.003": 16.7001013149,
			"0.004": 12.5008067475,
			"0.005": 3.632826212,
			"0.006": 4.1023700756,
			"0.007": 2.44598689439,
			"0.008": 2.29857584371,
			"0.009": 2.59923441408,
			"0.01": 3.39345812261,
			"0.011": 3.29953248373,
			"0.012": 4.811826382,
			"0.013": 2.3450612564,
			"0.014": 0.421836495363,
			"0.015": 0.0,
			"0.016": 0.0,
			"0.017": 0.0,
			"0.018": 0.0,
			"0.019": 0.0,
			"0.02": 0.0,
			"0.021": 0.0,
			"0.022": 0.0,
			"0.023": 0.0,
			"0.024": 0.0,
			"0.025": 0.0
		}
	}
}
