{
	 "smiles": "CC1=CC=C(C)C(CC(O)=O)=C1", 
	 "Tm": 403.15, 
	 "num_atms": 24, 
	 "gaussian": { 
		 "optdone": 1, 
		 "sigma_profile": "yes", 
		 "theory": "DFT", 
		 "functional": "B3LYP", 
		 "basiset": "6-31G**", 
		 "properties": { 
			 "R2extent": 2516.8053, 
			 "electric_dipole_moment_norm": 1.29804858923, 
			 "electric_quadrupole_moment_norm": 8.30504431174, 
			 "total_energy": -538.776126322, 
			 "HOMO_LUMO_gap": 0.22737, 
			 "cosmo_polarized_energy": -10.48, 
			 "cosmo_cavitation_energy": 27.34, 
			 "cosmo_dispersion_energy": -19.63, 
			 "cosmo_repulsion_energy": 1.58, 
			 "cosmo_total_nonelectrostatic_energy": 9.29, 
			 "SMD_solvation_energy": 5.85 
		},
		"coords": [
			{
				"x": -1.6156231956,
				"y": 2.3622773697,
				"z": 2.7745055606,
				"element": "C" 
			},
			{
				"x": -1.6495872009,
				"y": 1.3714947169,
				"z": 1.6345158786,
				"element": "C" 
			},
			{
				"x": -2.8405846446,
				"y": 0.7537220476,
				"z": 1.2420826527,
				"element": "C" 
			},
			{
				"x": -2.8497837134,
				"y": -0.1792437625,
				"z": 0.2060484852,
				"element": "C" 
			},
			{
				"x": -1.6814127829,
				"y": -0.5344677368,
				"z": -0.476961824,
				"element": "C" 
			},
			{
				"x": -1.7336819828,
				"y": -1.5525845838,
				"z": -1.5916291041,
				"element": "C" 
			},
			{
				"x": -0.4752904541,
				"y": 0.0852889379,
				"z": -0.0909693642,
				"element": "C" 
			},
			{
				"x": 0.8339830548,
				"y": -0.2198033972,
				"z": -0.7844586213,
				"element": "C" 
			},
			{
				"x": 1.4824278503,
				"y": -1.5318106805,
				"z": -0.3690315202,
				"element": "C" 
			},
			{
				"x": 2.7960079817,
				"y": -1.5473145691,
				"z": -0.7091813733,
				"element": "O" 
			},
			{
				"x": 0.9412738005,
				"y": -2.4723048781,
				"z": 0.1671958305,
				"element": "O" 
			},
			{
				"x": -0.4817584183,
				"y": 1.023227856,
				"z": 0.9462814146,
				"element": "C" 
			},
			{
				"x": -0.8242702211,
				"y": 3.105768073,
				"z": 2.6371716982,
				"element": "H" 
			},
			{
				"x": -1.4266820775,
				"y": 1.8607702178,
				"z": 3.7321759733,
				"element": "H" 
			},
			{
				"x": -2.56676311,
				"y": 2.8949515551,
				"z": 2.8700540038,
				"element": "H" 
			},
			{
				"x": -3.7704318567,
				"y": 1.0059174631,
				"z": 1.7464069164,
				"element": "H" 
			},
			{
				"x": -3.7892878036,
				"y": -0.643299283,
				"z": -0.0841124123,
				"element": "H" 
			},
			{
				"x": -1.1225135117,
				"y": -2.4280803507,
				"z": -1.351527433,
				"element": "H" 
			},
			{
				"x": -1.3633153292,
				"y": -1.1418830539,
				"z": -2.5397991294,
				"element": "H" 
			},
			{
				"x": -2.759329098,
				"y": -1.8904303632,
				"z": -1.7620705785,
				"element": "H" 
			},
			{
				"x": 1.5618634585,
				"y": 0.5788214066,
				"z": -0.6135879338,
				"element": "H" 
			},
			{
				"x": 0.7069664251,
				"y": -0.2769962563,
				"z": -1.873997621,
				"element": "H" 
			},
			{
				"x": 3.1306773907,
				"y": -2.4208176571,
				"z": -0.4444759194,
				"element": "H" 
			},
			{
				"x": 0.4560154389,
				"y": 1.4998969286,
				"z": 1.2266644206,
				"element": "H" 
			}
		],
		 "valence_orbital": [ 
			{
				"type": "occ",
				"energy": -0.32914,
				"method": "rhf"
			},
			{
				"type": "occ",
				"energy": -0.31875,
				"method": "rhf"
			},
			{
				"type": "occ",
				"energy": -0.27693,
				"method": "rhf"
			},
			{
				"type": "occ",
				"energy": -0.24001,
				"method": "rhf"
			},
			{
				"type": "occ",
				"energy": -0.22603,
				"method": "rhf"
			},
			{
				"type": "unocc",
				"energy": 0.00134,
				"method": "rhf"
			},
			{
				"type": "unocc",
				"energy": 0.00349,
				"method": "rhf"
			},
			{
				"type": "unocc",
				"energy": 0.01438,
				"method": "rhf"
			},
			{
				"type": "unocc",
				"energy": 0.07836,
				"method": "rhf"
			},
			{
				"type": "unocc",
				"energy": 0.09584,
				"method": "rhf"
			}
		],
		"cosmo_sigma_profile": { 
			"-0.025": 0.0,
			"-0.024": 0.0,
			"-0.023": 0.0,
			"-0.022": 0.0,
			"-0.021": 0.0,
			"-0.02": 0.0,
			"-0.019": 0.0,
			"-0.018": 0.60105401912,
			"-0.017": 0.884753174733,
			"-0.016": 1.06308478597,
			"-0.015": 0.576409975375,
			"-0.014": 0.814615339593,
			"-0.013": 0.722717539401,
			"-0.012": 0.0921988861967,
			"-0.011": 1.02890209882,
			"-0.01": 1.01144697471,
			"-0.009": 0.319862614544,
			"-0.008": 0.6896428364,
			"-0.007": 3.24128906727,
			"-0.006": 6.69877151493,
			"-0.005": 11.8018454309,
			"-0.004": 19.5370304188,
			"-0.003": 19.7583336018,
			"-0.002": 19.9651804564,
			"-0.001": 20.044604278,
			"0.0": 22.2433698622,
			"0.001": 15.5870827324,
			"0.002": 9.22023789409,
			"0.003": 8.33740033929,
			"0.004": 8.64845778441,
			"0.005": 8.84767306593,
			"0.006": 9.18721459481,
			"0.007": 6.25060077689,
			"0.008": 3.4496660748,
			"0.009": 4.1266917852,
			"0.01": 3.07478531926,
			"0.011": 3.48677603607,
			"0.012": 3.9602052146,
			"0.013": 0.159976635083,
			"0.014": 0.0,
			"0.015": 0.0,
			"0.016": 0.0,
			"0.017": 0.0,
			"0.018": 0.0,
			"0.019": 0.0,
			"0.02": 0.0,
			"0.021": 0.0,
			"0.022": 0.0,
			"0.023": 0.0,
			"0.024": 0.0,
			"0.025": 0.0
		}
	}
}
