{
	 "smiles": "OC(=O)C1=CC(=C(Cl)C=C1)S(=O)(=O)NC1=C(Cl)C=CC=C1", 
	 "Tm": 487.15, 
	 "num_atms": 30, 
	 "gaussian": { 
		 "optdone": 1, 
		 "sigma_profile": "yes", 
		 "theory": "DFT", 
		 "functional": "B3LYP", 
		 "basiset": "6-31G**", 
		 "properties": { 
			 "R2extent": 7922.7873, 
			 "electric_dipole_moment_norm": 7.30860837096, 
			 "electric_quadrupole_moment_norm": 12.9862747684, 
			 "total_energy": -2174.94984102, 
			 "HOMO_LUMO_gap": 0.16477, 
			 "cosmo_polarized_energy": -24.76, 
			 "cosmo_cavitation_energy": 39.79, 
			 "cosmo_dispersion_energy": -28.06, 
			 "cosmo_repulsion_energy": 2.09, 
			 "cosmo_total_nonelectrostatic_energy": 13.82, 
			 "SMD_solvation_energy": 6.65 
		},
		"coords": [
			{
				"x": -1.6685922368,
				"y": -0.6457205933,
				"z": -4.8297510637,
				"element": "O" 
			},
			{
				"x": -0.5060870722,
				"y": -0.6964123817,
				"z": -4.1279832271,
				"element": "C" 
			},
			{
				"x": 0.4672117864,
				"y": -1.231268276,
				"z": -4.5996136766,
				"element": "O" 
			},
			{
				"x": -0.5096469004,
				"y": -0.0589634134,
				"z": -2.7678010415,
				"element": "C" 
			},
			{
				"x": 0.4951321173,
				"y": -0.4424705902,
				"z": -1.8739613434,
				"element": "C" 
			},
			{
				"x": 0.5643412781,
				"y": 0.102168198,
				"z": -0.591148964,
				"element": "C" 
			},
			{
				"x": -0.3751635314,
				"y": 1.074854697,
				"z": -0.2040567318,
				"element": "C" 
			},
			{
				"x": -0.3796426331,
				"y": 1.819919859,
				"z": 1.3703663383,
				"element": "Cl" 
			},
			{
				"x": -1.3607775868,
				"y": 1.4839545237,
				"z": -1.1057470113,
				"element": "C" 
			},
			{
				"x": -1.4300537019,
				"y": 0.9197381575,
				"z": -2.3755689607,
				"element": "C" 
			},
			{
				"x": 1.9326019942,
				"y": -0.5047562939,
				"z": 0.4488583597,
				"element": "S" 
			},
			{
				"x": 2.7213733416,
				"y": -1.3737056529,
				"z": -0.4192381624,
				"element": "O" 
			},
			{
				"x": 2.5162819662,
				"y": 0.6230304585,
				"z": 1.1640290915,
				"element": "O" 
			},
			{
				"x": 1.2710140087,
				"y": -1.564290827,
				"z": 1.5824080251,
				"element": "N" 
			},
			{
				"x": 0.6216140941,
				"y": -1.2303132003,
				"z": 2.7930616031,
				"element": "C" 
			},
			{
				"x": -0.6125910242,
				"y": -1.8159512866,
				"z": 3.1247982083,
				"element": "C" 
			},
			{
				"x": -1.3909216342,
				"y": -2.9214397025,
				"z": 1.9928230493,
				"element": "Cl" 
			},
			{
				"x": -1.2346332387,
				"y": -1.5556759358,
				"z": 4.3437320854,
				"element": "C" 
			},
			{
				"x": -0.6367598665,
				"y": -0.6789264665,
				"z": 5.2470614492,
				"element": "C" 
			},
			{
				"x": 0.5882920141,
				"y": -0.0872678892,
				"z": 4.9321665617,
				"element": "C" 
			},
			{
				"x": 1.2225441204,
				"y": -0.3723972769,
				"z": 3.7267862159,
				"element": "C" 
			},
			{
				"x": -2.3982284423,
				"y": -0.3567991375,
				"z": -4.2648274941,
				"element": "H" 
			},
			{
				"x": 1.2357464667,
				"y": -1.1679021926,
				"z": -2.1900385422,
				"element": "H" 
			},
			{
				"x": -2.0648460393,
				"y": 2.2505479613,
				"z": -0.8029423949,
				"element": "H" 
			},
			{
				"x": -2.1889647129,
				"y": 1.284889203,
				"z": -3.0625920323,
				"element": "H" 
			},
			{
				"x": 0.964570259,
				"y": -2.4230780448,
				"z": 1.1360795518,
				"element": "H" 
			},
			{
				"x": -2.1811299546,
				"y": -2.033772587,
				"z": 4.5701661933,
				"element": "H" 
			},
			{
				"x": -1.1240844545,
				"y": -0.4689235843,
				"z": 6.1938257166,
				"element": "H" 
			},
			{
				"x": 1.0658581539,
				"y": 0.5860735711,
				"z": 5.6369959982,
				"element": "H" 
			},
			{
				"x": 2.1814414291,
				"y": 0.0665587034,
				"z": 3.4820121987,
				"element": "H" 
			}
		],
		 "valence_orbital": [ 
			{
				"type": "occ",
				"energy": -0.29949,
				"method": "rhf"
			},
			{
				"type": "occ",
				"energy": -0.29192,
				"method": "rhf"
			},
			{
				"type": "occ",
				"energy": -0.27861,
				"method": "rhf"
			},
			{
				"type": "occ",
				"energy": -0.26427,
				"method": "rhf"
			},
			{
				"type": "occ",
				"energy": -0.24547,
				"method": "rhf"
			},
			{
				"type": "unocc",
				"energy": -0.0807,
				"method": "rhf"
			},
			{
				"type": "unocc",
				"energy": -0.06026,
				"method": "rhf"
			},
			{
				"type": "unocc",
				"energy": -0.02672,
				"method": "rhf"
			},
			{
				"type": "unocc",
				"energy": -0.02443,
				"method": "rhf"
			},
			{
				"type": "unocc",
				"energy": -0.00263,
				"method": "rhf"
			}
		],
		"cosmo_sigma_profile": { 
			"-0.025": 0.0,
			"-0.024": 0.0,
			"-0.023": 0.0,
			"-0.022": 0.0,
			"-0.021": 0.0,
			"-0.02": 0.368899678577,
			"-0.019": 0.909347422447,
			"-0.018": 1.01289528872,
			"-0.017": 1.36834127535,
			"-0.016": 0.728983866038,
			"-0.015": 1.11299822609,
			"-0.014": 1.42761077176,
			"-0.013": 2.92968936628,
			"-0.012": 1.98232259122,
			"-0.011": 1.92765122877,
			"-0.01": 2.88389409819,
			"-0.009": 4.9010876619,
			"-0.008": 6.99545097767,
			"-0.007": 9.13348249207,
			"-0.006": 12.5860899513,
			"-0.005": 16.6108311784,
			"-0.004": 15.0310929149,
			"-0.003": 18.0512662415,
			"-0.002": 21.6333100907,
			"-0.001": 30.3230431156,
			"0.0": 22.6331539394,
			"0.001": 21.5119822873,
			"0.002": 25.7162348519,
			"0.003": 26.7593817176,
			"0.004": 17.3949818619,
			"0.005": 6.34539727199,
			"0.006": 5.94657605064,
			"0.007": 6.07423713165,
			"0.008": 7.83818856228,
			"0.009": 10.6717701446,
			"0.01": 11.1637254587,
			"0.011": 6.88514266412,
			"0.012": 2.01281758176,
			"0.013": 0.410034332455,
			"0.014": 0.22571765468,
			"0.015": 0.0190577521921,
			"0.016": 0.129676913278,
			"0.017": 0.295627705993,
			"0.018": 0.11402781662,
			"0.019": 0.180242804745,
			"0.02": 0.350247699505,
			"0.021": 0.0509176855548,
			"0.022": 0.0243709046798,
			"0.023": 0.00303096205759,
			"0.024": 0.0,
			"0.0": 0.0
		}
	}
}
