{
	 "smiles": "COC1=CC=C(N)C(=C1)[N+]([O-])=O", 
	 "Tm": 399.15, 
	 "num_atms": 20, 
	 "gaussian": { 
		 "optdone": 1, 
		 "sigma_profile": "yes", 
		 "theory": "DFT", 
		 "functional": "B3LYP", 
		 "basiset": "6-31G**", 
		 "properties": { 
			 "R2extent": 2583.7733, 
			 "electric_dipole_moment_norm": 5.93181747696, 
			 "electric_quadrupole_moment_norm": 13.8260411673, 
			 "total_energy": -606.631958268, 
			 "HOMO_LUMO_gap": 0.12411, 
			 "cosmo_polarized_energy": -13.33, 
			 "cosmo_cavitation_energy": 24.32, 
			 "cosmo_dispersion_energy": -18.45, 
			 "cosmo_repulsion_energy": 1.46, 
			 "cosmo_total_nonelectrostatic_energy": 7.33, 
			 "SMD_solvation_energy": 6.94 
		},
		"coords": [
			{
				"x": 2.7782661666,
				"y": -2.5519908698,
				"z": -0.2038737285,
				"element": "C" 
			},
			{
				"x": 2.0156769304,
				"y": -1.9572661898,
				"z": 0.8321759273,
				"element": "O" 
			},
			{
				"x": 0.8866374641,
				"y": -1.2663522128,
				"z": 0.4872754756,
				"element": "C" 
			},
			{
				"x": 0.4215140693,
				"y": -1.0908893638,
				"z": -0.8296975621,
				"element": "C" 
			},
			{
				"x": -0.7381960059,
				"y": -0.3739901574,
				"z": -1.0746553254,
				"element": "C" 
			},
			{
				"x": -1.5047186408,
				"y": 0.2119072348,
				"z": -0.0416430681,
				"element": "C" 
			},
			{
				"x": -2.6622260257,
				"y": 0.8715260921,
				"z": -0.3431393381,
				"element": "N" 
			},
			{
				"x": -1.0059703465,
				"y": 0.0258133205,
				"z": 1.2778391918,
				"element": "C" 
			},
			{
				"x": 0.1648478654,
				"y": -0.7022171786,
				"z": 1.528126822,
				"element": "C" 
			},
			{
				"x": -1.6734601035,
				"y": 0.5952679283,
				"z": 2.4349002541,
				"element": "N" 
			},
			{
				"x": -1.1985748246,
				"y": 0.3854147922,
				"z": 3.5512568304,
				"element": "O" 
			},
			{
				"x": -2.6995312281,
				"y": 1.2795405556,
				"z": 2.2592161166,
				"element": "O" 
			},
			{
				"x": 2.197753824,
				"y": -3.2998023423,
				"z": -0.76073591,
				"element": "H" 
			},
			{
				"x": 3.617887219,
				"y": -3.0467772956,
				"z": 0.2865136787,
				"element": "H" 
			},
			{
				"x": 3.1659327549,
				"y": -1.8030124975,
				"z": -0.9075546253,
				"element": "H" 
			},
			{
				"x": 0.9600269537,
				"y": -1.513045,
				"z": -1.6701623665,
				"element": "H" 
			},
			{
				"x": -1.0840784895,
				"y": -0.2569111172,
				"z": -2.0980539225,
				"element": "H" 
			},
			{
				"x": -2.8274797753,
				"y": 1.1282592468,
				"z": -1.3025736087,
				"element": "H" 
			},
			{
				"x": -3.0992861511,
				"y": 1.398782039,
				"z": 0.3986299503,
				"element": "H" 
			},
			{
				"x": 0.5022783435,
				"y": -0.8159569846,
				"z": 2.5494552084,
				"element": "H" 
			}
		],
		 "valence_orbital": [ 
			{
				"type": "occ",
				"energy": -0.30003,
				"method": "rhf"
			},
			{
				"type": "occ",
				"energy": -0.29032,
				"method": "rhf"
			},
			{
				"type": "occ",
				"energy": -0.28093,
				"method": "rhf"
			},
			{
				"type": "occ",
				"energy": -0.27437,
				"method": "rhf"
			},
			{
				"type": "occ",
				"energy": -0.20334,
				"method": "rhf"
			},
			{
				"type": "unocc",
				"energy": -0.07923,
				"method": "rhf"
			},
			{
				"type": "unocc",
				"energy": -0.00283,
				"method": "rhf"
			},
			{
				"type": "unocc",
				"energy": 0.0216,
				"method": "rhf"
			},
			{
				"type": "unocc",
				"energy": 0.07796,
				"method": "rhf"
			},
			{
				"type": "unocc",
				"energy": 0.08743,
				"method": "rhf"
			}
		],
		"cosmo_sigma_profile": { 
			"-0.025": 0.0,
			"-0.024": 0.0,
			"-0.023": 0.0,
			"-0.022": 0.0,
			"-0.021": 0.0,
			"-0.02": 0.0,
			"-0.019": 0.0,
			"-0.018": 0.0,
			"-0.017": 0.0,
			"-0.016": 0.0,
			"-0.015": 0.0589304378034,
			"-0.014": 1.08460080512,
			"-0.013": 1.719563388,
			"-0.012": 1.21292712068,
			"-0.011": 1.81154944218,
			"-0.01": 1.75683317102,
			"-0.009": 2.82661449028,
			"-0.008": 3.07434054817,
			"-0.007": 5.86017419726,
			"-0.006": 9.90256841263,
			"-0.005": 14.511157077,
			"-0.004": 14.4016212442,
			"-0.003": 13.680086816,
			"-0.002": 10.3894190891,
			"-0.001": 9.08569175727,
			"0.0": 10.5008901851,
			"0.001": 13.9815905164,
			"0.002": 16.3903108386,
			"0.003": 14.4692399,
			"0.004": 6.29473155959,
			"0.005": 5.96691714439,
			"0.006": 4.86222218964,
			"0.007": 5.35328945625,
			"0.008": 8.08534342488,
			"0.009": 7.36611237615,
			"0.01": 5.41010046777,
			"0.011": 3.51873916472,
			"0.012": 0.224222978641,
			"0.013": 0.0,
			"0.014": 0.0,
			"0.015": 0.0,
			"0.016": 0.0,
			"0.017": 0.0,
			"0.018": 0.0,
			"0.019": 0.0,
			"0.02": 0.0,
			"0.021": 0.0,
			"0.022": 0.0,
			"0.023": 0.0,
			"0.024": 0.0,
			"0.025": 0.0
		}
	}
}
