{
	 "smiles": "CC1=C(C=CC=C1N)S(C)(=O)=O", 
	 "Tm": 391.15, 
	 "num_atms": 23, 
	 "gaussian": { 
		 "optdone": 1, 
		 "sigma_profile": "yes", 
		 "theory": "DFT", 
		 "functional": "B3LYP", 
		 "basiset": "6-31G**", 
		 "properties": { 
			 "R2extent": 3422.5475, 
			 "electric_dipole_moment_norm": 6.68909917478, 
			 "electric_quadrupole_moment_norm": 17.3531132083, 
			 "total_energy": -914.81052975, 
			 "HOMO_LUMO_gap": 0.18795, 
			 "cosmo_polarized_energy": -18.72, 
			 "cosmo_cavitation_energy": 26.68, 
			 "cosmo_dispersion_energy": -20.22, 
			 "cosmo_repulsion_energy": 1.55, 
			 "cosmo_total_nonelectrostatic_energy": 8.0, 
			 "SMD_solvation_energy": 4.3 
		},
		"coords": [
			{
				"x": -0.5915926718,
				"y": -1.0574100085,
				"z": 1.1200202134,
				"element": "C" 
			},
			{
				"x": -0.6679348859,
				"y": -0.1424434708,
				"z": -0.0804514069,
				"element": "C" 
			},
			{
				"x": -1.8499708357,
				"y": 0.1958812889,
				"z": -0.763870102,
				"element": "C" 
			},
			{
				"x": -1.8613710033,
				"y": 1.0128971004,
				"z": -1.8976483754,
				"element": "C" 
			},
			{
				"x": -0.654512794,
				"y": 1.5210183373,
				"z": -2.3724924882,
				"element": "C" 
			},
			{
				"x": 0.5327372622,
				"y": 1.2304586845,
				"z": -1.7119385823,
				"element": "C" 
			},
			{
				"x": 0.5417629487,
				"y": 0.4096446497,
				"z": -0.5724562223,
				"element": "C" 
			},
			{
				"x": 1.7536417891,
				"y": 0.0840266843,
				"z": 0.0375020685,
				"element": "N" 
			},
			{
				"x": -3.4836571455,
				"y": -0.3902263213,
				"z": -0.2342609709,
				"element": "S" 
			},
			{
				"x": -3.7866822046,
				"y": 0.5173169269,
				"z": 1.3016544309,
				"element": "C" 
			},
			{
				"x": -4.469768469,
				"y": 0.089727635,
				"z": -1.2154211586,
				"element": "O" 
			},
			{
				"x": -3.4243448498,
				"y": -1.8247997069,
				"z": 0.0983936168,
				"element": "O" 
			},
			{
				"x": -0.3288858391,
				"y": -0.5025203989,
				"z": 2.0331525853,
				"element": "H" 
			},
			{
				"x": -1.5216458649,
				"y": -1.5942382301,
				"z": 1.2949642924,
				"element": "H" 
			},
			{
				"x": 0.19327341,
				"y": -1.8067876209,
				"z": 0.9650000613,
				"element": "H" 
			},
			{
				"x": -2.8026585466,
				"y": 1.227429167,
				"z": -2.3881693683,
				"element": "H" 
			},
			{
				"x": -0.6409758838,
				"y": 2.1526832193,
				"z": -3.2555279182,
				"element": "H" 
			},
			{
				"x": 1.4733484785,
				"y": 1.6352814064,
				"z": -2.0779668048,
				"element": "H" 
			},
			{
				"x": 2.529592905,
				"y": 0.6821144026,
				"z": -0.2092325183,
				"element": "H" 
			},
			{
				"x": 1.7196040985,
				"y": -0.1052051637,
				"z": 1.0286014721,
				"element": "H" 
			},
			{
				"x": -3.787907806,
				"y": 1.5861656146,
				"z": 1.0842615649,
				"element": "H" 
			},
			{
				"x": -3.0235502148,
				"y": 0.2660668564,
				"z": 2.0389216111,
				"element": "H" 
			},
			{
				"x": -4.7709018774,
				"y": 0.198418948,
				"z": 1.6510639996,
				"element": "H" 
			}
		],
		 "valence_orbital": [ 
			{
				"type": "occ",
				"energy": -0.30422,
				"method": "rhf"
			},
			{
				"type": "occ",
				"energy": -0.28723,
				"method": "rhf"
			},
			{
				"type": "occ",
				"energy": -0.28103,
				"method": "rhf"
			},
			{
				"type": "occ",
				"energy": -0.26057,
				"method": "rhf"
			},
			{
				"type": "occ",
				"energy": -0.21724,
				"method": "rhf"
			},
			{
				"type": "unocc",
				"energy": -0.02929,
				"method": "rhf"
			},
			{
				"type": "unocc",
				"energy": 6e-05,
				"method": "rhf"
			},
			{
				"type": "unocc",
				"energy": 0.06122,
				"method": "rhf"
			},
			{
				"type": "unocc",
				"energy": 0.07424,
				"method": "rhf"
			},
			{
				"type": "unocc",
				"energy": 0.085,
				"method": "rhf"
			}
		],
		"cosmo_sigma_profile": { 
			"-0.025": 0.0,
			"-0.024": 0.0,
			"-0.023": 0.0,
			"-0.022": 0.0,
			"-0.021": 0.0,
			"-0.02": 0.0,
			"-0.019": 0.0,
			"-0.018": 0.0,
			"-0.017": 0.0,
			"-0.016": 0.0,
			"-0.015": 0.0,
			"-0.014": 0.0,
			"-0.013": 0.763826117177,
			"-0.012": 2.42036999123,
			"-0.011": 3.03327283318,
			"-0.01": 3.3309465667,
			"-0.009": 3.60175108081,
			"-0.008": 7.04451048753,
			"-0.007": 8.6925641907,
			"-0.006": 13.6619857267,
			"-0.005": 15.1021039228,
			"-0.004": 17.9721982572,
			"-0.003": 13.0149874385,
			"-0.002": 10.2375192945,
			"-0.001": 11.0499243323,
			"0.0": 10.1009380795,
			"0.001": 9.30262945651,
			"0.002": 10.0209099506,
			"0.003": 11.1865531357,
			"0.004": 12.7132487684,
			"0.005": 8.42836032074,
			"0.006": 3.52785128108,
			"0.007": 3.88206899964,
			"0.008": 3.17876430456,
			"0.009": 4.03324801388,
			"0.01": 5.11220139842,
			"0.011": 7.91868203259,
			"0.012": 8.78324105844,
			"0.013": 3.23014787935,
			"0.014": 0.0444594442448,
			"0.015": 0.0,
			"0.016": 0.0,
			"0.017": 0.0,
			"0.018": 0.0,
			"0.019": 0.0,
			"0.02": 0.0,
			"0.021": 0.0,
			"0.022": 0.0,
			"0.023": 0.0,
			"0.024": 0.0,
			"0.025": 0.0
		}
	}
}
