{
	 "smiles": "BrCCN1C=NC2=C(C=CC=C2)C1=O", 
	 "Tm": 379.15, 
	 "num_atms": 23, 
	 "gaussian": { 
		 "optdone": 1, 
		 "sigma_profile": "yes", 
		 "theory": "DFT", 
		 "functional": "B3LYP", 
		 "basiset": "6-31G**", 
		 "properties": { 
			 "R2extent": 5408.2627, 
			 "electric_dipole_moment_norm": 2.47849648578, 
			 "electric_quadrupole_moment_norm": 20.0779109362, 
			 "total_energy": -3142.64603729, 
			 "HOMO_LUMO_gap": 0.18782, 
			 "cosmo_polarized_energy": -15.36, 
			 "cosmo_cavitation_energy": 29.13, 
			 "cosmo_dispersion_energy": -21.49, 
			 "cosmo_repulsion_energy": 1.67, 
			 "cosmo_total_nonelectrostatic_energy": 9.31, 
			 "SMD_solvation_energy": 2.83 
		},
		"coords": [
			{
				"x": 0.5470436541,
				"y": 4.706685248,
				"z": 0.656788801,
				"element": "Br" 
			},
			{
				"x": -1.3065280358,
				"y": 4.1893378565,
				"z": 1.0833311567,
				"element": "C" 
			},
			{
				"x": -1.4058784726,
				"y": 2.8169024906,
				"z": 1.7390514595,
				"element": "C" 
			},
			{
				"x": -0.9478709669,
				"y": 1.7116604134,
				"z": 0.8938671143,
				"element": "N" 
			},
			{
				"x": -1.6586521024,
				"y": 1.3652081279,
				"z": -0.2347198066,
				"element": "C" 
			},
			{
				"x": -1.3608777247,
				"y": 0.4294837987,
				"z": -1.0692159753,
				"element": "N" 
			},
			{
				"x": -0.2066768846,
				"y": -0.2995990952,
				"z": -0.8043583134,
				"element": "C" 
			},
			{
				"x": 0.5930088128,
				"y": -0.0538805655,
				"z": 0.3357998184,
				"element": "C" 
			},
			{
				"x": 1.7451972818,
				"y": -0.8208235779,
				"z": 0.5729755463,
				"element": "C" 
			},
			{
				"x": 2.1046085903,
				"y": -1.8217060577,
				"z": -0.3166877032,
				"element": "C" 
			},
			{
				"x": 1.3134019047,
				"y": -2.0688970871,
				"z": -1.4532044401,
				"element": "C" 
			},
			{
				"x": 0.1714473409,
				"y": -1.3208183658,
				"z": -1.6966294533,
				"element": "C" 
			},
			{
				"x": 0.2173463467,
				"y": 1.0046888357,
				"z": 1.2798195097,
				"element": "C" 
			},
			{
				"x": 0.8128447956,
				"y": 1.2796143197,
				"z": 2.3128113322,
				"element": "O" 
			},
			{
				"x": -1.6870564188,
				"y": 4.9541307738,
				"z": 1.7607266566,
				"element": "H" 
			},
			{
				"x": -1.8497470911,
				"y": 4.2437680721,
				"z": 0.1395385521,
				"element": "H" 
			},
			{
				"x": -0.8030263809,
				"y": 2.774837336,
				"z": 2.6464478518,
				"element": "H" 
			},
			{
				"x": -2.4565945539,
				"y": 2.6478972258,
				"z": 2.0095829147,
				"element": "H" 
			},
			{
				"x": -2.5586762861,
				"y": 1.9547349255,
				"z": -0.4046715688,
				"element": "H" 
			},
			{
				"x": 2.3331324854,
				"y": -0.6047229628,
				"z": 1.4586553881,
				"element": "H" 
			},
			{
				"x": 2.9958862381,
				"y": -2.415267889,
				"z": -0.1377049808,
				"element": "H" 
			},
			{
				"x": 1.5995495998,
				"y": -2.8544258354,
				"z": -2.1468472345,
				"element": "H" 
			},
			{
				"x": -0.4528821323,
				"y": -1.4974079874,
				"z": -2.5661566255,
				"element": "H" 
			}
		],
		 "valence_orbital": [ 
			{
				"type": "occ",
				"energy": -0.27919,
				"method": "rhf"
			},
			{
				"type": "occ",
				"energy": -0.27725,
				"method": "rhf"
			},
			{
				"type": "occ",
				"energy": -0.26709,
				"method": "rhf"
			},
			{
				"type": "occ",
				"energy": -0.26165,
				"method": "rhf"
			},
			{
				"type": "occ",
				"energy": -0.23219,
				"method": "rhf"
			},
			{
				"type": "unocc",
				"energy": -0.04437,
				"method": "rhf"
			},
			{
				"type": "unocc",
				"energy": -0.03935,
				"method": "rhf"
			},
			{
				"type": "unocc",
				"energy": -0.00542,
				"method": "rhf"
			},
			{
				"type": "unocc",
				"energy": 0.02528,
				"method": "rhf"
			},
			{
				"type": "unocc",
				"energy": 0.06528,
				"method": "rhf"
			}
		],
		"cosmo_sigma_profile": { 
			"-0.025": 0.0,
			"-0.024": 0.0,
			"-0.023": 0.0,
			"-0.022": 0.0,
			"-0.021": 0.0,
			"-0.02": 0.0,
			"-0.019": 0.0,
			"-0.018": 0.0,
			"-0.017": 0.0,
			"-0.016": 0.0,
			"-0.015": 0.0,
			"-0.014": 0.0,
			"-0.013": 0.0,
			"-0.012": 0.0632833979213,
			"-0.011": 1.62173209127,
			"-0.01": 3.46758862689,
			"-0.009": 4.92505113312,
			"-0.008": 9.08988185758,
			"-0.007": 10.4542251277,
			"-0.006": 14.4987591867,
			"-0.005": 15.8722684566,
			"-0.004": 13.8917954925,
			"-0.003": 12.91159191,
			"-0.002": 11.8118198051,
			"-0.001": 12.901385033,
			"0.0": 11.8220747483,
			"0.001": 15.0345635659,
			"0.002": 17.5100654088,
			"0.003": 20.830683413,
			"0.004": 13.9796143716,
			"0.005": 9.20510727663,
			"0.006": 11.665965204,
			"0.007": 4.25351545741,
			"0.008": 3.43000341027,
			"0.009": 2.16412208893,
			"0.01": 2.96406380817,
			"0.011": 2.86364088762,
			"0.012": 4.7820107535,
			"0.013": 3.0648029103,
			"0.014": 0.593261680103,
			"0.015": 0.772612005252,
			"0.016": 0.0750523338486,
			"0.017": 0.0,
			"0.018": 0.0,
			"0.019": 0.0,
			"0.02": 0.0,
			"0.021": 0.0,
			"0.022": 0.0,
			"0.023": 0.0,
			"0.024": 0.0,
			"0.025": 0.0
		}
	}
}
