{
	 "smiles": "CC(C)CCCC(C)C1CCC2C3CC(OC(C)=O)C4(O)CC(=O)CCC4(C)C3CCC12C", 
	 "Tm": 434.15, 
	 "num_atms": 81, 
	 "gaussian": { 
		 "optdone": 1, 
		 "sigma_profile": "yes", 
		 "theory": "DFT", 
		 "functional": "B3LYP", 
		 "basiset": "6-31G**", 
		 "properties": { 
			 "R2extent": 22910.2721, 
			 "electric_dipole_moment_norm": 3.95433433463, 
			 "electric_quadrupole_moment_norm": 33.5582500387, 
			 "total_energy": -1434.93364037, 
			 "HOMO_LUMO_gap": 0.22349, 
			 "cosmo_polarized_energy": -13.28, 
			 "cosmo_cavitation_energy": 67.46, 
			 "cosmo_dispersion_energy": -45.13, 
			 "cosmo_repulsion_energy": 3.31, 
			 "cosmo_total_nonelectrostatic_energy": 25.64, 
			 "SMD_solvation_energy": 10.88 
		},
		"coords": [
			{
				"x": -2.2865243317,
				"y": 3.0923891275,
				"z": 6.1752802728,
				"element": "C" 
			},
			{
				"x": -2.2621728622,
				"y": 1.6101005978,
				"z": 6.5761722333,
				"element": "C" 
			},
			{
				"x": -1.7338813374,
				"y": 1.4498418918,
				"z": 8.0096436408,
				"element": "C" 
			},
			{
				"x": -1.4535229509,
				"y": 0.7249324376,
				"z": 5.6039285491,
				"element": "C" 
			},
			{
				"x": -1.9538008466,
				"y": 0.695848127,
				"z": 4.139532968,
				"element": "C" 
			},
			{
				"x": -1.1797327543,
				"y": 1.6254275909,
				"z": 3.1885724197,
				"element": "C" 
			},
			{
				"x": -1.7509297753,
				"y": 1.723460709,
				"z": 1.7535744088,
				"element": "C" 
			},
			{
				"x": -1.2089585962,
				"y": 2.9715402459,
				"z": 1.0286978852,
				"element": "C" 
			},
			{
				"x": -1.728570231,
				"y": 0.3919742613,
				"z": 0.9396598857,
				"element": "C" 
			},
			{
				"x": -2.5892391987,
				"y": 0.4949356786,
				"z": -0.3579339611,
				"element": "C" 
			},
			{
				"x": -1.6429080033,
				"y": 0.2367945812,
				"z": -1.534897602,
				"element": "C" 
			},
			{
				"x": -0.6337768664,
				"y": -0.7822068755,
				"z": -0.9683941707,
				"element": "C" 
			},
			{
				"x": 0.6498541103,
				"y": -1.0647760775,
				"z": -1.7917895967,
				"element": "C" 
			},
			{
				"x": 0.2671955569,
				"y": -1.5216853616,
				"z": -3.2135442472,
				"element": "C" 
			},
			{
				"x": 1.3679360847,
				"y": -1.522911863,
				"z": -4.2952263721,
				"element": "C" 
			},
			{
				"x": 1.7748498073,
				"y": -2.8620735162,
				"z": -4.7285001706,
				"element": "O" 
			},
			{
				"x": 2.1866659853,
				"y": -3.7937231545,
				"z": -3.8567038515,
				"element": "C" 
			},
			{
				"x": 2.4513766907,
				"y": -5.1048101534,
				"z": -4.555855161,
				"element": "C" 
			},
			{
				"x": 2.3366169854,
				"y": -3.6153793138,
				"z": -2.6589030658,
				"element": "O" 
			},
			{
				"x": 2.6130690777,
				"y": -0.6111743288,
				"z": -4.0364656977,
				"element": "C" 
			},
			{
				"x": 3.6748752137,
				"y": -1.3377171801,
				"z": -3.4157283032,
				"element": "O" 
			},
			{
				"x": 3.1803252583,
				"y": -0.1469987838,
				"z": -5.3976050514,
				"element": "C" 
			},
			{
				"x": 4.104153308,
				"y": 1.0635442217,
				"z": -5.3257769671,
				"element": "C" 
			},
			{
				"x": 4.379656319,
				"y": 1.7068211193,
				"z": -6.3219728507,
				"element": "O" 
			},
			{
				"x": 4.6390974228,
				"y": 1.3751538657,
				"z": -3.949509685,
				"element": "C" 
			},
			{
				"x": 3.524628074,
				"y": 1.4675540573,
				"z": -2.8746663769,
				"element": "C" 
			},
			{
				"x": 2.2306169746,
				"y": 0.6169934208,
				"z": -3.1344685353,
				"element": "C" 
			},
			{
				"x": 1.2004357533,
				"y": 1.5258899803,
				"z": -3.847415683,
				"element": "C" 
			},
			{
				"x": 1.7329650652,
				"y": 0.0761157426,
				"z": -1.7513345429,
				"element": "C" 
			},
			{
				"x": 1.3717891131,
				"y": 1.1647640638,
				"z": -0.7221357979,
				"element": "C" 
			},
			{
				"x": 0.9384972692,
				"y": 0.5086473487,
				"z": 0.5952530895,
				"element": "C" 
			},
			{
				"x": -0.3723425172,
				"y": -0.3344572906,
				"z": 0.5159958849,
				"element": "C" 
			},
			{
				"x": -0.1727681969,
				"y": -1.5787773354,
				"z": 1.407554746,
				"element": "C" 
			},
			{
				"x": -2.8649486626,
				"y": 3.6810108898,
				"z": 6.8961413545,
				"element": "H" 
			},
			{
				"x": -2.7389995506,
				"y": 3.2445279445,
				"z": 5.1905692459,
				"element": "H" 
			},
			{
				"x": -1.2719065636,
				"y": 3.5088270628,
				"z": 6.1470767718,
				"element": "H" 
			},
			{
				"x": -3.3004323044,
				"y": 1.2444236455,
				"z": 6.5593815389,
				"element": "H" 
			},
			{
				"x": -2.3335826464,
				"y": 2.027021737,
				"z": 8.7219487627,
				"element": "H" 
			},
			{
				"x": -1.7510672096,
				"y": 0.401801596,
				"z": 8.3285877048,
				"element": "H" 
			},
			{
				"x": -0.6981222067,
				"y": 1.8032006866,
				"z": 8.0867179264,
				"element": "H" 
			},
			{
				"x": -1.4635558535,
				"y": -0.295985894,
				"z": 6.006226706,
				"element": "H" 
			},
			{
				"x": -0.400018416,
				"y": 1.0408105269,
				"z": 5.6261239565,
				"element": "H" 
			},
			{
				"x": -3.0223532833,
				"y": 0.9539275349,
				"z": 4.1124920628,
				"element": "H" 
			},
			{
				"x": -1.8898017799,
				"y": -0.3319673315,
				"z": 3.7657017944,
				"element": "H" 
			},
			{
				"x": -1.1708067827,
				"y": 2.6372030277,
				"z": 3.6127136322,
				"element": "H" 
			},
			{
				"x": -0.1293994199,
				"y": 1.3089166614,
				"z": 3.1680515441,
				"element": "H" 
			},
			{
				"x": -2.828442908,
				"y": 1.9123856961,
				"z": 1.8844036214,
				"element": "H" 
			},
			{
				"x": -1.5361328602,
				"y": 3.8762504726,
				"z": 1.5532251591,
				"element": "H" 
			},
			{
				"x": -0.1177462546,
				"y": 3.0039639007,
				"z": 0.9874772501,
				"element": "H" 
			},
			{
				"x": -1.581986356,
				"y": 3.0412121848,
				"z": 0.0018815105,
				"element": "H" 
			},
			{
				"x": -2.2405073502,
				"y": -0.3215377381,
				"z": 1.5933838963,
				"element": "H" 
			},
			{
				"x": -3.367582821,
				"y": -0.27723912,
				"z": -0.3442393415,
				"element": "H" 
			},
			{
				"x": -3.1100142442,
				"y": 1.4541398584,
				"z": -0.4427535361,
				"element": "H" 
			},
			{
				"x": -1.1480843588,
				"y": 1.163506505,
				"z": -1.8422598548,
				"element": "H" 
			},
			{
				"x": -2.1801316227,
				"y": -0.1407113885,
				"z": -2.4112318928,
				"element": "H" 
			},
			{
				"x": -1.1743476931,
				"y": -1.7401742336,
				"z": -0.916500935,
				"element": "H" 
			},
			{
				"x": 1.1184784208,
				"y": -1.9312665598,
				"z": -1.3161617371,
				"element": "H" 
			},
			{
				"x": -0.1821723228,
				"y": -2.5189745956,
				"z": -3.1677686676,
				"element": "H" 
			},
			{
				"x": -0.5226477193,
				"y": -0.868523422,
				"z": -3.5936064739,
				"element": "H" 
			},
			{
				"x": 0.9017360245,
				"y": -1.1647405608,
				"z": -5.2141194897,
				"element": "H" 
			},
			{
				"x": 3.2973933313,
				"y": -4.9859720512,
				"z": -5.2400165614,
				"element": "H" 
			},
			{
				"x": 2.6838928017,
				"y": -5.8701248643,
				"z": -3.8162378954,
				"element": "H" 
			},
			{
				"x": 1.586126269,
				"y": -5.4016146378,
				"z": -5.1542764704,
				"element": "H" 
			},
			{
				"x": 3.3005430106,
				"y": -1.9599394909,
				"z": -2.7709635858,
				"element": "H" 
			},
			{
				"x": 3.7478331578,
				"y": -0.9832198364,
				"z": -5.8229644179,
				"element": "H" 
			},
			{
				"x": 2.3900447535,
				"y": 0.0939570683,
				"z": -6.1136174866,
				"element": "H" 
			},
			{
				"x": 5.2995612591,
				"y": 0.5403547539,
				"z": -3.6868628531,
				"element": "H" 
			},
			{
				"x": 5.2344098658,
				"y": 2.2901941743,
				"z": -3.9952031328,
				"element": "H" 
			},
			{
				"x": 3.2262467524,
				"y": 2.5156114933,
				"z": -2.7675452651,
				"element": "H" 
			},
			{
				"x": 3.9672296646,
				"y": 1.1751457558,
				"z": -1.9191111479,
				"element": "H" 
			},
			{
				"x": 0.9039374125,
				"y": 2.3503172345,
				"z": -3.1930481306,
				"element": "H" 
			},
			{
				"x": 1.6260860236,
				"y": 1.9798676401,
				"z": -4.7479362836,
				"element": "H" 
			},
			{
				"x": 0.2871704065,
				"y": 1.0041706395,
				"z": -4.1438923626,
				"element": "H" 
			},
			{
				"x": 2.6283334435,
				"y": -0.4006490358,
				"z": -1.3343068714,
				"element": "H" 
			},
			{
				"x": 0.5914054048,
				"y": 1.8358188627,
				"z": -1.0910339735,
				"element": "H" 
			},
			{
				"x": 2.2476070151,
				"y": 1.7955413398,
				"z": -0.5334622618,
				"element": "H" 
			},
			{
				"x": 0.8716108569,
				"y": 1.2545735362,
				"z": 1.3868355692,
				"element": "H" 
			},
			{
				"x": 1.75444942,
				"y": -0.1607013553,
				"z": 0.9008231764,
				"element": "H" 
			},
			{
				"x": 0.0549500304,
				"y": -1.2952370835,
				"z": 2.4415437476,
				"element": "H" 
			},
			{
				"x": -1.069698216,
				"y": -2.2083645596,
				"z": 1.4231603618,
				"element": "H" 
			},
			{
				"x": 0.6601684803,
				"y": -2.1938765049,
				"z": 1.047415041,
				"element": "H" 
			}
		],
		 "valence_orbital": [ 
			{
				"type": "occ",
				"energy": -0.28196,
				"method": "rhf"
			},
			{
				"type": "occ",
				"energy": -0.27823,
				"method": "rhf"
			},
			{
				"type": "occ",
				"energy": -0.27562,
				"method": "rhf"
			},
			{
				"type": "occ",
				"energy": -0.25699,
				"method": "rhf"
			},
			{
				"type": "occ",
				"energy": -0.22924,
				"method": "rhf"
			},
			{
				"type": "unocc",
				"energy": -0.00575,
				"method": "rhf"
			},
			{
				"type": "unocc",
				"energy": -0.00493,
				"method": "rhf"
			},
			{
				"type": "unocc",
				"energy": 0.05953,
				"method": "rhf"
			},
			{
				"type": "unocc",
				"energy": 0.06509,
				"method": "rhf"
			},
			{
				"type": "unocc",
				"energy": 0.07604,
				"method": "rhf"
			}
		],
		"cosmo_sigma_profile": { 
			"-0.025": 0.0,
			"-0.024": 0.0,
			"-0.023": 0.0,
			"-0.022": 0.0,
			"-0.021": 0.0,
			"-0.02": 0.0,
			"-0.019": 0.0,
			"-0.018": 0.0,
			"-0.017": 0.0,
			"-0.016": 0.0,
			"-0.015": 0.0,
			"-0.014": 0.0,
			"-0.013": 0.0,
			"-0.012": 0.0,
			"-0.011": 0.0,
			"-0.01": 0.0,
			"-0.009": 0.0,
			"-0.008": 0.13605636464,
			"-0.007": 4.27642142892,
			"-0.006": 10.7598680976,
			"-0.005": 13.5075272936,
			"-0.004": 19.284550124,
			"-0.003": 35.1177251305,
			"-0.002": 73.296297139,
			"-0.001": 110.50619266,
			"0.0": 87.5868488635,
			"0.001": 60.289306544,
			"0.002": 42.9002070672,
			"0.003": 8.87357335871,
			"0.004": 5.74125262657,
			"0.005": 5.24779679231,
			"0.006": 5.86547119293,
			"0.007": 4.19924713326,
			"0.008": 4.05189944743,
			"0.009": 4.71934281848,
			"0.01": 4.16481372669,
			"0.011": 4.36980020572,
			"0.012": 6.50828916678,
			"0.013": 4.51281744547,
			"0.014": 0.987551047917,
			"0.015": 0.0,
			"0.016": 0.0,
			"0.017": 0.0,
			"0.018": 0.0,
			"0.019": 0.0,
			"0.02": 0.0,
			"0.021": 0.0,
			"0.022": 0.0,
			"0.023": 0.0,
			"0.024": 0.0,
			"0.025": 0.0
		}
	}
}
