{
	 "smiles": "CC(=O)OC1C2(O)CC(OC(C)=O)C3C1(C(CC1C(C)(C)CCC(OC(C)=O)C31C)OC(C)=O)C(=O)C2=C", 
	 "Tm": 551.15, 
	 "num_atms": 76, 
	 "gaussian": { 
		 "optdone": 1, 
		 "sigma_profile": "yes", 
		 "theory": "DFT", 
		 "functional": "B3LYP", 
		 "basiset": "6-31G**", 
		 "properties": { 
			 "R2extent": 15715.52, 
			 "electric_dipole_moment_norm": 2.74229680378, 
			 "electric_quadrupole_moment_norm": 20.0575772754, 
			 "total_energy": -1842.13559667, 
			 "HOMO_LUMO_gap": 0.18032, 
			 "cosmo_polarized_energy": -22.53, 
			 "cosmo_cavitation_energy": 67.89, 
			 "cosmo_dispersion_energy": -40.55, 
			 "cosmo_repulsion_energy": 2.94, 
			 "cosmo_total_nonelectrostatic_energy": 30.27, 
			 "SMD_solvation_energy": 15.18 
		},
		"coords": [
			{
				"x": 2.3838378563,
				"y": 3.3570989109,
				"z": 1.8295754349,
				"element": "C" 
			},
			{
				"x": 0.8789412433,
				"y": 3.4056594462,
				"z": 1.851790063,
				"element": "C" 
			},
			{
				"x": 0.2212716647,
				"y": 4.3141341207,
				"z": 2.3258500198,
				"element": "O" 
			},
			{
				"x": 0.3391501158,
				"y": 2.3055874316,
				"z": 1.2855473271,
				"element": "O" 
			},
			{
				"x": -1.0997248985,
				"y": 2.2775847133,
				"z": 1.0786686667,
				"element": "C" 
			},
			{
				"x": -1.9231609209,
				"y": 1.9708213446,
				"z": 2.3460674285,
				"element": "C" 
			},
			{
				"x": -2.0520611321,
				"y": 3.016978822,
				"z": 3.2805026506,
				"element": "O" 
			},
			{
				"x": -1.3103003785,
				"y": 0.7074058005,
				"z": 3.0153473137,
				"element": "C" 
			},
			{
				"x": -0.4893028893,
				"y": -0.2324364813,
				"z": 2.0927605381,
				"element": "C" 
			},
			{
				"x": -0.6603649265,
				"y": -1.5903207448,
				"z": 2.6048326866,
				"element": "O" 
			},
			{
				"x": -0.0225127991,
				"y": -1.905413179,
				"z": 3.7566241834,
				"element": "C" 
			},
			{
				"x": -0.3099975462,
				"y": -3.3260027365,
				"z": 4.1728259868,
				"element": "C" 
			},
			{
				"x": 0.7104143974,
				"y": -1.1385827551,
				"z": 4.3498941782,
				"element": "O" 
			},
			{
				"x": -0.9702285893,
				"y": -0.297573377,
				"z": 0.6171724765,
				"element": "C" 
			},
			{
				"x": -1.5047611947,
				"y": 1.1236007223,
				"z": 0.1261717959,
				"element": "C" 
			},
			{
				"x": -1.2187931695,
				"y": 1.3948603703,
				"z": -1.3502850296,
				"element": "C" 
			},
			{
				"x": 0.2468797099,
				"y": 1.2002499337,
				"z": -1.6812335951,
				"element": "C" 
			},
			{
				"x": 0.6239991698,
				"y": -0.2912596132,
				"z": -1.644901734,
				"element": "C" 
			},
			{
				"x": 2.1774760685,
				"y": -0.4848390349,
				"z": -1.8683561924,
				"element": "C" 
			},
			{
				"x": 3.035677098,
				"y": 0.4392207912,
				"z": -0.9696740351,
				"element": "C" 
			},
			{
				"x": 2.5016548612,
				"y": -0.1049886825,
				"z": -3.3350031135,
				"element": "C" 
			},
			{
				"x": 2.6214040209,
				"y": -1.9778018614,
				"z": -1.6799309699,
				"element": "C" 
			},
			{
				"x": 1.6333263784,
				"y": -2.9051011641,
				"z": -0.9530340491,
				"element": "C" 
			},
			{
				"x": 0.8515337578,
				"y": -2.1715952942,
				"z": 0.1356560458,
				"element": "C" 
			},
			{
				"x": 1.828455515,
				"y": -1.5351745379,
				"z": 1.0181250072,
				"element": "O" 
			},
			{
				"x": 2.4914975864,
				"y": -2.3336078157,
				"z": 1.8889766885,
				"element": "C" 
			},
			{
				"x": 3.5198778041,
				"y": -1.5590799755,
				"z": 2.676386384,
				"element": "C" 
			},
			{
				"x": 2.2565467439,
				"y": -3.517084904,
				"z": 2.0303242212,
				"element": "O" 
			},
			{
				"x": -0.1117808541,
				"y": -1.1185223552,
				"z": -0.4780496961,
				"element": "C" 
			},
			{
				"x": -1.2199768804,
				"y": -1.9675746404,
				"z": -1.1890857785,
				"element": "C" 
			},
			{
				"x": -1.633253453,
				"y": 2.7648886211,
				"z": -1.6040352913,
				"element": "O" 
			},
			{
				"x": -2.0019532752,
				"y": 3.0645610283,
				"z": -2.8770821976,
				"element": "C" 
			},
			{
				"x": -2.4908767981,
				"y": 4.4900570856,
				"z": -2.9676758921,
				"element": "C" 
			},
			{
				"x": -1.9449588075,
				"y": 2.2796450222,
				"z": -3.7968136384,
				"element": "O" 
			},
			{
				"x": -3.0346489494,
				"y": 1.0883206241,
				"z": 0.373974241,
				"element": "C" 
			},
			{
				"x": -3.8566220067,
				"y": 0.6680732545,
				"z": -0.4181003383,
				"element": "O" 
			},
			{
				"x": -3.2756049693,
				"y": 1.6493890492,
				"z": 1.724999626,
				"element": "C" 
			},
			{
				"x": -4.4816671948,
				"y": 1.9124050099,
				"z": 2.2329434962,
				"element": "C" 
			},
			{
				"x": 2.7815653219,
				"y": 4.2658931325,
				"z": 2.2793443293,
				"element": "H" 
			},
			{
				"x": 2.7311886681,
				"y": 2.4831183663,
				"z": 2.3889202351,
				"element": "H" 
			},
			{
				"x": 2.7459078961,
				"y": 3.2514295513,
				"z": 0.8033342428,
				"element": "H" 
			},
			{
				"x": -1.3979386812,
				"y": 3.2390929932,
				"z": 0.6570838199,
				"element": "H" 
			},
			{
				"x": -1.3532939987,
				"y": 3.6694855769,
				"z": 3.0982313091,
				"element": "H" 
			},
			{
				"x": -0.6591743132,
				"y": 1.0452216505,
				"z": 3.8232649762,
				"element": "H" 
			},
			{
				"x": -2.1156929866,
				"y": 0.1285266139,
				"z": 3.4763251653,
				"element": "H" 
			},
			{
				"x": 0.563435068,
				"y": 0.0195107799,
				"z": 2.1602314042,
				"element": "H" 
			},
			{
				"x": -0.1449884125,
				"y": -3.426759613,
				"z": 5.2459739416,
				"element": "H" 
			},
			{
				"x": 0.3884619618,
				"y": -3.9823819102,
				"z": 3.6436658549,
				"element": "H" 
			},
			{
				"x": -1.3282954316,
				"y": -3.6181228508,
				"z": 3.9093416041,
				"element": "H" 
			},
			{
				"x": -1.8710076613,
				"y": -0.9114804886,
				"z": 0.7103061365,
				"element": "H" 
			},
			{
				"x": -1.8491771108,
				"y": 0.755497047,
				"z": -1.9712117172,
				"element": "H" 
			},
			{
				"x": 0.8423914895,
				"y": 1.7839737878,
				"z": -0.9782306425,
				"element": "H" 
			},
			{
				"x": 0.4303142027,
				"y": 1.5925371783,
				"z": -2.6837488755,
				"element": "H" 
			},
			{
				"x": 0.1831038327,
				"y": -0.7074169155,
				"z": -2.558020562,
				"element": "H" 
			},
			{
				"x": 2.7762359294,
				"y": 0.3437139214,
				"z": 0.0847593587,
				"element": "H" 
			},
			{
				"x": 4.0952506501,
				"y": 0.1851476191,
				"z": -1.0853289778,
				"element": "H" 
			},
			{
				"x": 2.9313351132,
				"y": 1.489305503,
				"z": -1.2599424238,
				"element": "H" 
			},
			{
				"x": 2.3000875767,
				"y": 0.9481155471,
				"z": -3.5518138169,
				"element": "H" 
			},
			{
				"x": 1.9251107983,
				"y": -0.7121672434,
				"z": -4.0418638063,
				"element": "H" 
			},
			{
				"x": 3.5640721712,
				"y": -0.2798723931,
				"z": -3.5389086095,
				"element": "H" 
			},
			{
				"x": 2.8367219007,
				"y": -2.4185829397,
				"z": -2.6594306719,
				"element": "H" 
			},
			{
				"x": 3.5745002837,
				"y": -1.985242787,
				"z": -1.1414329537,
				"element": "H" 
			},
			{
				"x": 0.9261668778,
				"y": -3.3473569172,
				"z": -1.6588019799,
				"element": "H" 
			},
			{
				"x": 2.1679034584,
				"y": -3.742112762,
				"z": -0.4970553698,
				"element": "H" 
			},
			{
				"x": 0.2839589299,
				"y": -2.8774341586,
				"z": 0.7423241716,
				"element": "H" 
			},
			{
				"x": 4.0264756698,
				"y": -0.821850638,
				"z": 2.0497205382,
				"element": "H" 
			},
			{
				"x": 3.0060871655,
				"y": -1.0363263254,
				"z": 3.4892907583,
				"element": "H" 
			},
			{
				"x": 4.2406565145,
				"y": -2.2559898429,
				"z": 3.1047197773,
				"element": "H" 
			},
			{
				"x": -0.8458703014,
				"y": -2.5000224168,
				"z": -2.0655516602,
				"element": "H" 
			},
			{
				"x": -2.0413345158,
				"y": -1.3291299555,
				"z": -1.5233962716,
				"element": "H" 
			},
			{
				"x": -1.6461304296,
				"y": -2.7052204959,
				"z": -0.4999526174,
				"element": "H" 
			},
			{
				"x": -2.6644203518,
				"y": 4.7474590921,
				"z": -4.0120004711,
				"element": "H" 
			},
			{
				"x": -1.7622064409,
				"y": 5.1743201928,
				"z": -2.524514966,
				"element": "H" 
			},
			{
				"x": -3.4235374469,
				"y": 4.5943987513,
				"z": -2.4043746873,
				"element": "H" 
			},
			{
				"x": -4.589964493,
				"y": 2.4013976076,
				"z": 3.1954330769,
				"element": "H" 
			},
			{
				"x": -5.3748912634,
				"y": 1.6506427918,
				"z": 1.6733554719,
				"element": "H" 
			}
		],
		 "valence_orbital": [ 
			{
				"type": "occ",
				"energy": -0.27375,
				"method": "rhf"
			},
			{
				"type": "occ",
				"energy": -0.2734,
				"method": "rhf"
			},
			{
				"type": "occ",
				"energy": -0.27233,
				"method": "rhf"
			},
			{
				"type": "occ",
				"energy": -0.26871,
				"method": "rhf"
			},
			{
				"type": "occ",
				"energy": -0.24999,
				"method": "rhf"
			},
			{
				"type": "unocc",
				"energy": -0.06967,
				"method": "rhf"
			},
			{
				"type": "unocc",
				"energy": -0.01953,
				"method": "rhf"
			},
			{
				"type": "unocc",
				"energy": -0.00281,
				"method": "rhf"
			},
			{
				"type": "unocc",
				"energy": 0.00824,
				"method": "rhf"
			},
			{
				"type": "unocc",
				"energy": 0.01462,
				"method": "rhf"
			}
		],
		"cosmo_sigma_profile": { 
			"-0.025": 0.0,
			"-0.024": 0.0,
			"-0.023": 0.0,
			"-0.022": 0.0,
			"-0.021": 0.0,
			"-0.02": 0.0,
			"-0.019": 0.0,
			"-0.018": 0.0,
			"-0.017": 0.0,
			"-0.016": 0.0,
			"-0.015": 0.0,
			"-0.014": 0.0,
			"-0.013": 0.0,
			"-0.012": 0.0,
			"-0.011": 0.0,
			"-0.01": 0.0,
			"-0.009": 0.0,
			"-0.008": 0.0971625148718,
			"-0.007": 4.79501466043,
			"-0.006": 18.6184262182,
			"-0.005": 31.4616577475,
			"-0.004": 43.5596669781,
			"-0.003": 63.726964411,
			"-0.002": 79.644509788,
			"-0.001": 64.1729762101,
			"0.0": 51.1387136295,
			"0.001": 38.4502674618,
			"0.002": 27.0003690237,
			"0.003": 14.5737509134,
			"0.004": 10.63424883,
			"0.005": 10.0077523677,
			"0.006": 9.94661647181,
			"0.007": 8.74622698303,
			"0.008": 8.10466624675,
			"0.009": 8.32593608611,
			"0.01": 9.9343449859,
			"0.011": 13.8514753798,
			"0.012": 9.43092343825,
			"0.013": 2.90463566232,
			"0.014": 0.190736583648,
			"0.015": 0.0,
			"0.016": 0.0,
			"0.017": 0.0,
			"0.018": 0.0,
			"0.019": 0.0,
			"0.02": 0.0,
			"0.021": 0.0,
			"0.022": 0.0,
			"0.023": 0.0,
			"0.024": 0.0,
			"0.025": 0.0
		}
	}
}
