{
	 "smiles": "OC(=O)C1=C2N=CC=CC2=C2C=CC=CC2=C1", 
	 "Tm": 474.15, 
	 "num_atms": 26, 
	 "gaussian": { 
		 "optdone": 1, 
		 "sigma_profile": "yes", 
		 "theory": "DFT", 
		 "functional": "B3LYP", 
		 "basiset": "6-31G**", 
		 "properties": { 
			 "R2extent": 4044.0349, 
			 "electric_dipole_moment_norm": 3.72641953221, 
			 "electric_quadrupole_moment_norm": 15.3150888306, 
			 "total_energy": -744.141134533, 
			 "HOMO_LUMO_gap": 0.16653, 
			 "cosmo_polarized_energy": -16.17, 
			 "cosmo_cavitation_energy": 30.41, 
			 "cosmo_dispersion_energy": -22.64, 
			 "cosmo_repulsion_energy": 1.71, 
			 "cosmo_total_nonelectrostatic_energy": 9.48, 
			 "SMD_solvation_energy": 4.93 
		},
		"coords": [
			{
				"x": -2.4462423931,
				"y": 1.3731375092,
				"z": -1.6388267828,
				"element": "O" 
			},
			{
				"x": -1.0922268252,
				"y": 1.4512225131,
				"z": -1.4955760774,
				"element": "C" 
			},
			{
				"x": -0.4076820182,
				"y": 2.1159886449,
				"z": -2.2385932571,
				"element": "O" 
			},
			{
				"x": -0.623922912,
				"y": 0.6840171573,
				"z": -0.3009835584,
				"element": "C" 
			},
			{
				"x": 0.6583310697,
				"y": 0.0085718026,
				"z": -0.300818535,
				"element": "C" 
			},
			{
				"x": 1.3462018785,
				"y": -0.0548238969,
				"z": -1.465775697,
				"element": "N" 
			},
			{
				"x": 2.5135323223,
				"y": -0.6742986881,
				"z": -1.4772336507,
				"element": "C" 
			},
			{
				"x": 3.0840799767,
				"y": -1.2800773988,
				"z": -0.3427135799,
				"element": "C" 
			},
			{
				"x": 2.3787892988,
				"y": -1.2468345273,
				"z": 0.842832465,
				"element": "C" 
			},
			{
				"x": 1.1241716616,
				"y": -0.6007364488,
				"z": 0.9036713898,
				"element": "C" 
			},
			{
				"x": 0.3123254339,
				"y": -0.5556870533,
				"z": 2.1099153348,
				"element": "C" 
			},
			{
				"x": 0.7168421022,
				"y": -1.1211809542,
				"z": 3.340955395,
				"element": "C" 
			},
			{
				"x": -0.0994491073,
				"y": -1.0665540405,
				"z": 4.456791273,
				"element": "C" 
			},
			{
				"x": -1.3598242424,
				"y": -0.4422503168,
				"z": 4.391797565,
				"element": "C" 
			},
			{
				"x": -1.7797180604,
				"y": 0.1226178474,
				"z": 3.2041193524,
				"element": "C" 
			},
			{
				"x": -0.9611920939,
				"y": 0.0797803811,
				"z": 2.0507823111,
				"element": "C" 
			},
			{
				"x": -1.3957538455,
				"y": 0.6813134587,
				"z": 0.8275721913,
				"element": "C" 
			},
			{
				"x": -2.6563301971,
				"y": 1.9526245424,
				"z": -2.3902294141,
				"element": "H" 
			},
			{
				"x": 3.0334941105,
				"y": -0.7049593796,
				"z": -2.4339041355,
				"element": "H" 
			},
			{
				"x": 4.0495150835,
				"y": -1.7715844406,
				"z": -0.4088262737,
				"element": "H" 
			},
			{
				"x": 2.7910403014,
				"y": -1.7263392212,
				"z": 1.7238697828,
				"element": "H" 
			},
			{
				"x": 1.6821202873,
				"y": -1.6079756298,
				"z": 3.4250060872,
				"element": "H" 
			},
			{
				"x": 0.2365491658,
				"y": -1.5089969598,
				"z": 5.390010536,
				"element": "H" 
			},
			{
				"x": -1.9946113497,
				"y": -0.4047176037,
				"z": 5.2718662837,
				"element": "H" 
			},
			{
				"x": -2.7479783299,
				"y": 0.6115638926,
				"z": 3.1379938499,
				"element": "H" 
			},
			{
				"x": -2.3647613177,
				"y": 1.1695788101,
				"z": 0.8101971446,
				"element": "H" 
			}
		],
		 "valence_orbital": [ 
			{
				"type": "occ",
				"energy": -0.28047,
				"method": "rhf"
			},
			{
				"type": "occ",
				"energy": -0.27321,
				"method": "rhf"
			},
			{
				"type": "occ",
				"energy": -0.24404,
				"method": "rhf"
			},
			{
				"type": "occ",
				"energy": -0.24162,
				"method": "rhf"
			},
			{
				"type": "occ",
				"energy": -0.23041,
				"method": "rhf"
			},
			{
				"type": "unocc",
				"energy": -0.06388,
				"method": "rhf"
			},
			{
				"type": "unocc",
				"energy": -0.04652,
				"method": "rhf"
			},
			{
				"type": "unocc",
				"energy": -0.01725,
				"method": "rhf"
			},
			{
				"type": "unocc",
				"energy": 0.01453,
				"method": "rhf"
			},
			{
				"type": "unocc",
				"energy": 0.03004,
				"method": "rhf"
			}
		],
		"cosmo_sigma_profile": { 
			"-0.025": 0.0,
			"-0.024": 0.0,
			"-0.023": 0.0,
			"-0.022": 0.0,
			"-0.021": 0.0,
			"-0.02": 0.0,
			"-0.019": 0.0,
			"-0.018": 0.575062732704,
			"-0.017": 1.02822720942,
			"-0.016": 0.867457720662,
			"-0.015": 0.55826181831,
			"-0.014": 0.78237123182,
			"-0.013": 0.808959623174,
			"-0.012": 0.55395778341,
			"-0.011": 0.467799614202,
			"-0.01": 1.05055569294,
			"-0.009": 2.16864384074,
			"-0.008": 3.56293276585,
			"-0.007": 10.4408084671,
			"-0.006": 16.2262744479,
			"-0.005": 17.4131724201,
			"-0.004": 13.3736196215,
			"-0.003": 11.6477235609,
			"-0.002": 12.4005437851,
			"-0.001": 13.4375057576,
			"0.0": 18.9093175375,
			"0.001": 28.5623235618,
			"0.002": 24.5311343859,
			"0.003": 17.5229417092,
			"0.004": 13.3580912389,
			"0.005": 4.22928982328,
			"0.006": 3.16155274184,
			"0.007": 3.54545206041,
			"0.008": 3.13961856469,
			"0.009": 3.03156534863,
			"0.01": 2.99307431234,
			"0.011": 3.17796925162,
			"0.012": 4.64287600833,
			"0.013": 1.82085896367,
			"0.014": 1.91871796354,
			"0.015": 1.27064133378,
			"0.016": 1.07596170389,
			"0.017": 0.834003903725,
			"0.018": 0.24098790559,
			"0.019": 0.0,
			"0.02": 0.0,
			"0.021": 0.0,
			"0.022": 0.0,
			"0.023": 0.0,
			"0.024": 0.0,
			"0.025": 0.0
		}
	}
}
