{
	 "smiles": "NC1=CC=C(NC(=O)N2CCCCCC2)C=C1", 
	 "Tm": 406.15, 
	 "num_atms": 36, 
	 "gaussian": { 
		 "optdone": 1, 
		 "sigma_profile": "yes", 
		 "theory": "DFT", 
		 "functional": "B3LYP", 
		 "basiset": "6-31G**", 
		 "properties": { 
			 "R2extent": 5225.6027, 
			 "electric_dipole_moment_norm": 3.83351382416, 
			 "electric_quadrupole_moment_norm": 18.6009846866, 
			 "total_energy": -746.337448859, 
			 "HOMO_LUMO_gap": 0.18784, 
			 "cosmo_polarized_energy": -15.27, 
			 "cosmo_cavitation_energy": 36.0, 
			 "cosmo_dispersion_energy": -26.0, 
			 "cosmo_repulsion_energy": 2.03, 
			 "cosmo_total_nonelectrostatic_energy": 12.03, 
			 "SMD_solvation_energy": 5.6 
		},
		"coords": [
			{
				"x": -1.8346540124,
				"y": 3.6829293319,
				"z": 4.3104041311,
				"element": "N" 
			},
			{
				"x": -1.4391030777,
				"y": 3.1563196798,
				"z": 3.0748678481,
				"element": "C" 
			},
			{
				"x": -0.2825297757,
				"y": 2.3680126174,
				"z": 2.9620175153,
				"element": "C" 
			},
			{
				"x": 0.0875093646,
				"y": 1.8030887324,
				"z": 1.7440260627,
				"element": "C" 
			},
			{
				"x": -0.7041404559,
				"y": 1.9826292741,
				"z": 0.6022857765,
				"element": "C" 
			},
			{
				"x": -0.3606611199,
				"y": 1.4499464426,
				"z": -0.6746546508,
				"element": "N" 
			},
			{
				"x": 0.5358677145,
				"y": 0.4106573396,
				"z": -0.9535839576,
				"element": "C" 
			},
			{
				"x": 1.3188722799,
				"y": 0.5090055875,
				"z": -1.898421916,
				"element": "O" 
			},
			{
				"x": 0.465710796,
				"y": -0.7146006438,
				"z": -0.1617095217,
				"element": "N" 
			},
			{
				"x": -0.7501151929,
				"y": -1.1124292535,
				"z": 0.5682086129,
				"element": "C" 
			},
			{
				"x": -1.0834134334,
				"y": -2.6042379557,
				"z": 0.4231045288,
				"element": "C" 
			},
			{
				"x": -1.3172717989,
				"y": -3.1056114055,
				"z": -1.0137893964,
				"element": "C" 
			},
			{
				"x": -0.2484747064,
				"y": -2.6841374834,
				"z": -2.0429323806,
				"element": "C" 
			},
			{
				"x": 1.2034299024,
				"y": -2.7218897082,
				"z": -1.5442912625,
				"element": "C" 
			},
			{
				"x": 1.503250106,
				"y": -1.7243699832,
				"z": -0.3842532978,
				"element": "C" 
			},
			{
				"x": -1.8640863327,
				"y": 2.7600365403,
				"z": 0.7140663138,
				"element": "C" 
			},
			{
				"x": -2.2204024896,
				"y": 3.3488339101,
				"z": 1.9234540986,
				"element": "C" 
			},
			{
				"x": -2.4221522086,
				"y": 4.5037451198,
				"z": 4.2502819877,
				"element": "H" 
			},
			{
				"x": -1.0810511027,
				"y": 3.8194769715,
				"z": 4.9707850928,
				"element": "H" 
			},
			{
				"x": 0.3428049035,
				"y": 2.2068782564,
				"z": 3.8369728669,
				"element": "H" 
			},
			{
				"x": 0.9996123712,
				"y": 1.2191693143,
				"z": 1.6782355159,
				"element": "H" 
			},
			{
				"x": -0.2932594263,
				"y": 2.1397534679,
				"z": -1.413031016,
				"element": "H" 
			},
			{
				"x": -0.6496515089,
				"y": -0.8762279442,
				"z": 1.6365592012,
				"element": "H" 
			},
			{
				"x": -1.5803349139,
				"y": -0.5110375378,
				"z": 0.189430548,
				"element": "H" 
			},
			{
				"x": -1.9827621213,
				"y": -2.7907625588,
				"z": 1.0233587299,
				"element": "H" 
			},
			{
				"x": -0.2931448721,
				"y": -3.2003781477,
				"z": 0.8936195665,
				"element": "H" 
			},
			{
				"x": -1.3793760706,
				"y": -4.200994202,
				"z": -0.9763611052,
				"element": "H" 
			},
			{
				"x": -2.2976959274,
				"y": -2.7602367401,
				"z": -1.36689308,
				"element": "H" 
			},
			{
				"x": -0.3348498933,
				"y": -3.3319899053,
				"z": -2.9238690774,
				"element": "H" 
			},
			{
				"x": -0.4559872146,
				"y": -1.6703306513,
				"z": -2.4002359561,
				"element": "H" 
			},
			{
				"x": 1.4670836307,
				"y": -3.7376785013,
				"z": -1.2214634476,
				"element": "H" 
			},
			{
				"x": 1.854947671,
				"y": -2.4803179442,
				"z": -2.3896279024,
				"element": "H" 
			},
			{
				"x": 1.6435496213,
				"y": -2.2597151675,
				"z": 0.5597311031,
				"element": "H" 
			},
			{
				"x": 2.4289886229,
				"y": -1.1883247385,
				"z": -0.5954076833,
				"element": "H" 
			},
			{
				"x": -2.4914829278,
				"y": 2.9045402311,
				"z": -0.1613801214,
				"element": "H" 
			},
			{
				"x": -3.1240264008,
				"y": 3.9507476555,
				"z": 1.9820962731,
				"element": "H" 
			}
		],
		 "valence_orbital": [ 
			{
				"type": "occ",
				"energy": -0.26515,
				"method": "rhf"
			},
			{
				"type": "occ",
				"energy": -0.25,
				"method": "rhf"
			},
			{
				"type": "occ",
				"energy": -0.24339,
				"method": "rhf"
			},
			{
				"type": "occ",
				"energy": -0.22267,
				"method": "rhf"
			},
			{
				"type": "occ",
				"energy": -0.19021,
				"method": "rhf"
			},
			{
				"type": "unocc",
				"energy": -0.00237,
				"method": "rhf"
			},
			{
				"type": "unocc",
				"energy": 0.01272,
				"method": "rhf"
			},
			{
				"type": "unocc",
				"energy": 0.06009,
				"method": "rhf"
			},
			{
				"type": "unocc",
				"energy": 0.07853,
				"method": "rhf"
			},
			{
				"type": "unocc",
				"energy": 0.08327,
				"method": "rhf"
			}
		],
		"cosmo_sigma_profile": { 
			"-0.025": 0.0,
			"-0.024": 0.0,
			"-0.023": 0.0,
			"-0.022": 0.0,
			"-0.021": 0.0,
			"-0.02": 0.0,
			"-0.019": 0.0,
			"-0.018": 0.0,
			"-0.017": 0.0,
			"-0.016": 0.0,
			"-0.015": 0.0,
			"-0.014": 0.0,
			"-0.013": 0.555592706667,
			"-0.012": 2.70798813156,
			"-0.011": 4.02681529515,
			"-0.01": 3.86243925215,
			"-0.009": 3.74197987606,
			"-0.008": 4.1224536451,
			"-0.007": 3.46272401353,
			"-0.006": 5.55321928879,
			"-0.005": 11.536258175,
			"-0.004": 13.5094281936,
			"-0.003": 24.1575715555,
			"-0.002": 34.5667587107,
			"-0.001": 35.8450986003,
			"0.0": 31.3006992606,
			"0.001": 23.6988689559,
			"0.002": 11.4570828301,
			"0.003": 8.73661496061,
			"0.004": 9.08806620701,
			"0.005": 9.40791698048,
			"0.006": 11.5427051233,
			"0.007": 5.48085642334,
			"0.008": 2.42619090863,
			"0.009": 2.18720668282,
			"0.01": 1.75162341306,
			"0.011": 2.22402771212,
			"0.012": 2.22337803848,
			"0.013": 2.4728761923,
			"0.014": 4.10773925368,
			"0.015": 4.52411278802,
			"0.016": 0.3411801104,
			"0.017": 0.0,
			"0.018": 0.0,
			"0.019": 0.0,
			"0.02": 0.0,
			"0.021": 0.0,
			"0.022": 0.0,
			"0.023": 0.0,
			"0.024": 0.0,
			"0.025": 0.0
		}
	}
}
