{
	 "smiles": "OC1CC2=C(O)C=C(O)C=C2OC1C1=CC=C(O)C(O)=C1", 
	 "Tm": 487.15, 
	 "num_atms": 35, 
	 "gaussian": { 
		 "optdone": 1, 
		 "sigma_profile": "yes", 
		 "theory": "DFT", 
		 "functional": "B3LYP", 
		 "basiset": "6-31G**", 
		 "properties": { 
			 "R2extent": 6853.1311, 
			 "electric_dipole_moment_norm": 2.8496737129, 
			 "electric_quadrupole_moment_norm": 14.5028246166, 
			 "total_energy": -1031.35192778, 
			 "HOMO_LUMO_gap": 0.20753, 
			 "cosmo_polarized_energy": -24.22, 
			 "cosmo_cavitation_energy": 37.89, 
			 "cosmo_dispersion_energy": -27.64, 
			 "cosmo_repulsion_energy": 2.12, 
			 "cosmo_total_nonelectrostatic_energy": 12.37, 
			 "SMD_solvation_energy": 7.26 
		},
		"coords": [
			{
				"x": -0.9724909935,
				"y": -3.1919318936,
				"z": -1.1976107528,
				"element": "O" 
			},
			{
				"x": 0.073813519,
				"y": -2.2869482054,
				"z": -0.8702751138,
				"element": "C" 
			},
			{
				"x": 0.1344834841,
				"y": -1.9364335879,
				"z": 0.6133968372,
				"element": "C" 
			},
			{
				"x": 1.1556246263,
				"y": -0.8430310535,
				"z": 0.814359749,
				"element": "C" 
			},
			{
				"x": 1.7588919129,
				"y": -0.6055789631,
				"z": 2.0605442079,
				"element": "C" 
			},
			{
				"x": 1.3441200491,
				"y": -1.4026626044,
				"z": 3.0929940973,
				"element": "O" 
			},
			{
				"x": 2.7293526631,
				"y": 0.3789005281,
				"z": 2.2386770542,
				"element": "C" 
			},
			{
				"x": 3.1163340881,
				"y": 1.1540954885,
				"z": 1.1401035606,
				"element": "C" 
			},
			{
				"x": 4.0723141742,
				"y": 2.104836856,
				"z": 1.3605678072,
				"element": "O" 
			},
			{
				"x": 2.537752585,
				"y": 0.9541402576,
				"z": -0.1114487377,
				"element": "C" 
			},
			{
				"x": 1.5623821572,
				"y": -0.0406693366,
				"z": -0.2583655012,
				"element": "C" 
			},
			{
				"x": 1.0533552351,
				"y": -0.1810287076,
				"z": -1.5245329158,
				"element": "O" 
			},
			{
				"x": -0.1114953625,
				"y": -1.0029144727,
				"z": -1.7062009989,
				"element": "C" 
			},
			{
				"x": -1.3976280555,
				"y": -0.2232327899,
				"z": -1.4523349359,
				"element": "C" 
			},
			{
				"x": -1.3826351681,
				"y": 1.0951278278,
				"z": -0.9889412747,
				"element": "C" 
			},
			{
				"x": -2.5727438312,
				"y": 1.805175268,
				"z": -0.8024366908,
				"element": "C" 
			},
			{
				"x": -3.7976601707,
				"y": 1.2118306515,
				"z": -1.0855131918,
				"element": "C" 
			},
			{
				"x": -4.9607244283,
				"y": 1.9007013673,
				"z": -0.9082844192,
				"element": "O" 
			},
			{
				"x": -3.8169351409,
				"y": -0.1101340766,
				"z": -1.5633707904,
				"element": "C" 
			},
			{
				"x": -5.0732043687,
				"y": -0.6151472435,
				"z": -1.8236759166,
				"element": "O" 
			},
			{
				"x": -2.6375637729,
				"y": -0.8169397478,
				"z": -1.75007985,
				"element": "C" 
			},
			{
				"x": -0.91280958,
				"y": -3.9408279984,
				"z": -0.5910015341,
				"element": "H" 
			},
			{
				"x": 1.0455036773,
				"y": -2.7070423596,
				"z": -1.1757979374,
				"element": "H" 
			},
			{
				"x": 0.4084380816,
				"y": -2.8177803116,
				"z": 1.2060530153,
				"element": "H" 
			},
			{
				"x": -0.8632271959,
				"y": -1.6234348874,
				"z": 0.9478460556,
				"element": "H" 
			},
			{
				"x": 1.8351254953,
				"y": -1.1631074917,
				"z": 3.8893157464,
				"element": "H" 
			},
			{
				"x": 3.1903914122,
				"y": 0.5565846938,
				"z": 3.2055029218,
				"element": "H" 
			},
			{
				"x": 4.2474813417,
				"y": 2.5695792769,
				"z": 0.5321926141,
				"element": "H" 
			},
			{
				"x": 2.8203987746,
				"y": 1.5471326745,
				"z": -0.975914561,
				"element": "H" 
			},
			{
				"x": -0.0752087633,
				"y": -1.2888035295,
				"z": -2.7633197227,
				"element": "H" 
			},
			{
				"x": -0.4397965536,
				"y": 1.5838434533,
				"z": -0.778099663,
				"element": "H" 
			},
			{
				"x": -2.5628580147,
				"y": 2.828165158,
				"z": -0.4405681014,
				"element": "H" 
			},
			{
				"x": -5.6862389798,
				"y": 1.3116350231,
				"z": -1.1638688862,
				"element": "H" 
			},
			{
				"x": -4.9959769122,
				"y": -1.5220579225,
				"z": -2.1440556654,
				"element": "H" 
			},
			{
				"x": -2.6732659849,
				"y": -1.8414413409,
				"z": -2.1074565055,
				"element": "H" 
			}
		],
		 "valence_orbital": [ 
			{
				"type": "occ",
				"energy": -0.27655,
				"method": "rhf"
			},
			{
				"type": "occ",
				"energy": -0.22991,
				"method": "rhf"
			},
			{
				"type": "occ",
				"energy": -0.2137,
				"method": "rhf"
			},
			{
				"type": "occ",
				"energy": -0.20881,
				"method": "rhf"
			},
			{
				"type": "occ",
				"energy": -0.19983,
				"method": "rhf"
			},
			{
				"type": "unocc",
				"energy": 0.0077,
				"method": "rhf"
			},
			{
				"type": "unocc",
				"energy": 0.02046,
				"method": "rhf"
			},
			{
				"type": "unocc",
				"energy": 0.02162,
				"method": "rhf"
			},
			{
				"type": "unocc",
				"energy": 0.02378,
				"method": "rhf"
			},
			{
				"type": "unocc",
				"energy": 0.05993,
				"method": "rhf"
			}
		],
		"cosmo_sigma_profile": { 
			"-0.025": 0.0,
			"-0.024": 0.0,
			"-0.023": 0.0,
			"-0.022": 0.0,
			"-0.021": 0.0,
			"-0.02": 0.0,
			"-0.019": 0.142947084225,
			"-0.018": 1.20156540552,
			"-0.017": 3.27874032455,
			"-0.016": 4.33711308293,
			"-0.015": 3.52421664811,
			"-0.014": 4.29319318575,
			"-0.013": 4.45553491357,
			"-0.012": 4.04804949707,
			"-0.011": 3.82886853877,
			"-0.01": 4.47518221637,
			"-0.009": 5.51308795156,
			"-0.008": 4.15481865776,
			"-0.007": 4.77399775633,
			"-0.006": 9.29137625835,
			"-0.005": 10.2806064325,
			"-0.004": 12.0074961133,
			"-0.003": 15.5208051744,
			"-0.002": 14.1078011369,
			"-0.001": 13.6664890834,
			"0.0": 12.9084946703,
			"0.001": 14.1259020306,
			"0.002": 17.1205618176,
			"0.003": 21.1304256504,
			"0.004": 28.7588653972,
			"0.005": 28.0076712705,
			"0.006": 14.3224883669,
			"0.007": 10.3191211244,
			"0.008": 7.73213177978,
			"0.009": 6.84382545057,
			"0.01": 7.1891850551,
			"0.011": 4.86694301385,
			"0.012": 2.65606253264,
			"0.013": 0.313985251915,
			"0.014": 0.0,
			"0.015": 0.0,
			"0.016": 0.0,
			"0.017": 0.0,
			"0.018": 0.0,
			"0.019": 0.0,
			"0.02": 0.0,
			"0.021": 0.0,
			"0.022": 0.0,
			"0.023": 0.0,
			"0.024": 0.0,
			"0.025": 0.0
		}
	}
}
