{
	 "smiles": "CC1=C2OC(Cl)=NC2=CC(Cl)=C1", 
	 "Tm": 333.15, 
	 "num_atms": 17, 
	 "gaussian": { 
		 "optdone": 1, 
		 "sigma_profile": "yes", 
		 "theory": "DFT", 
		 "functional": "B3LYP", 
		 "basiset": "6-31G**", 
		 "properties": { 
			 "R2extent": 3323.152, 
			 "electric_dipole_moment_norm": 2.55759539021, 
			 "electric_quadrupole_moment_norm": 2.49709894678, 
			 "total_energy": -1358.2185477, 
			 "HOMO_LUMO_gap": 0.2025, 
			 "cosmo_polarized_energy": -5.27, 
			 "cosmo_cavitation_energy": 25.47, 
			 "cosmo_dispersion_energy": -19.35, 
			 "cosmo_repulsion_energy": 1.55, 
			 "cosmo_total_nonelectrostatic_energy": 7.67, 
			 "SMD_solvation_energy": 2.29 
		},
		"coords": [
			{
				"x": -1.6090444535,
				"y": -1.6399561764,
				"z": 0.7217844403,
				"element": "C" 
			},
			{
				"x": -0.4586202573,
				"y": -0.6654079433,
				"z": 0.7137683855,
				"element": "C" 
			},
			{
				"x": -0.0327347963,
				"y": -0.0023342476,
				"z": -0.4298990397,
				"element": "C" 
			},
			{
				"x": -0.5496159034,
				"y": -0.1000751933,
				"z": -1.7097112614,
				"element": "O" 
			},
			{
				"x": 0.2368792717,
				"y": 0.7542141096,
				"z": -2.4253745727,
				"element": "C" 
			},
			{
				"x": -0.1371258452,
				"y": 0.8790440976,
				"z": -4.0887721099,
				"element": "Cl" 
			},
			{
				"x": 1.1697417288,
				"y": 1.3753472948,
				"z": -1.7924151225,
				"element": "N" 
			},
			{
				"x": 1.0298776487,
				"y": 0.9093039533,
				"z": -0.4802740234,
				"element": "C" 
			},
			{
				"x": 1.7527255272,
				"y": 1.2147531702,
				"z": 0.6730353355,
				"element": "C" 
			},
			{
				"x": 1.3440749987,
				"y": 0.561587974,
				"z": 1.8340858442,
				"element": "C" 
			},
			{
				"x": 2.2020358635,
				"y": 0.8892302885,
				"z": 3.3349099707,
				"element": "Cl" 
			},
			{
				"x": 0.2760451601,
				"y": -0.3496453682,
				"z": 1.8656917698,
				"element": "C" 
			},
			{
				"x": -2.3977269987,
				"y": -1.3087104022,
				"z": 1.4054130326,
				"element": "H" 
			},
			{
				"x": -2.0456999092,
				"y": -1.7450269215,
				"z": -0.2733730542,
				"element": "H" 
			},
			{
				"x": -1.2807955897,
				"y": -2.6301152771,
				"z": 1.0548485851,
				"element": "H" 
			},
			{
				"x": 2.5783699742,
				"y": 1.9150201488,
				"z": 0.6645623809,
				"element": "H" 
			},
			{
				"x": 0.0159135804,
				"y": -0.8193295071,
				"z": 2.8084194391,
				"element": "H" 
			}
		],
		 "valence_orbital": [ 
			{
				"type": "occ",
				"energy": -0.31804,
				"method": "rhf"
			},
			{
				"type": "occ",
				"energy": -0.31802,
				"method": "rhf"
			},
			{
				"type": "occ",
				"energy": -0.31404,
				"method": "rhf"
			},
			{
				"type": "occ",
				"energy": -0.25314,
				"method": "rhf"
			},
			{
				"type": "occ",
				"energy": -0.24741,
				"method": "rhf"
			},
			{
				"type": "unocc",
				"energy": -0.04491,
				"method": "rhf"
			},
			{
				"type": "unocc",
				"energy": -0.01239,
				"method": "rhf"
			},
			{
				"type": "unocc",
				"energy": 0.01187,
				"method": "rhf"
			},
			{
				"type": "unocc",
				"energy": 0.01619,
				"method": "rhf"
			},
			{
				"type": "unocc",
				"energy": 0.02808,
				"method": "rhf"
			}
		],
		"cosmo_sigma_profile": { 
			"-0.025": 0.0,
			"-0.024": 0.0,
			"-0.023": 0.0,
			"-0.022": 0.0,
			"-0.021": 0.0,
			"-0.02": 0.0,
			"-0.019": 0.0,
			"-0.018": 0.0,
			"-0.017": 0.0,
			"-0.016": 0.0,
			"-0.015": 0.0,
			"-0.014": 0.0,
			"-0.013": 0.0,
			"-0.012": 0.0,
			"-0.011": 0.0,
			"-0.01": 0.0,
			"-0.009": 0.0848514645336,
			"-0.008": 1.72887098223,
			"-0.007": 3.03113177224,
			"-0.006": 4.5531539022,
			"-0.005": 12.5352830539,
			"-0.004": 14.8523303575,
			"-0.003": 14.9448880586,
			"-0.002": 19.385375215,
			"-0.001": 24.1355844212,
			"0.0": 19.5335184468,
			"0.001": 27.5842296546,
			"0.002": 27.5115203025,
			"0.003": 10.7207606093,
			"0.004": 12.7540858562,
			"0.005": 8.1175605856,
			"0.006": 0.848062218981,
			"0.007": 0.802042535638,
			"0.008": 1.87683804582,
			"0.009": 0.899767647941,
			"0.01": 1.02076603791,
			"0.011": 0.717908693282,
			"0.012": 0.978404555303,
			"0.013": 1.07437923735,
			"0.014": 0.368140096394,
			"0.015": 0.0,
			"0.016": 0.0,
			"0.017": 0.0,
			"0.018": 0.0,
			"0.019": 0.0,
			"0.02": 0.0,
			"0.021": 0.0,
			"0.022": 0.0,
			"0.023": 0.0,
			"0.024": 0.0,
			"0.025": 0.0
		}
	}
}
