{
	 "smiles": "CC(Cl)C(=O)NCC1=CC=C(F)C=C1", 
	 "Tm": 364.15, 
	 "num_atms": 25, 
	 "gaussian": { 
		 "optdone": 1, 
		 "sigma_profile": "yes", 
		 "theory": "DFT", 
		 "functional": "B3LYP", 
		 "basiset": "6-31G**", 
		 "properties": { 
			 "R2extent": 4577.6883, 
			 "electric_dipole_moment_norm": 3.12623986604, 
			 "electric_quadrupole_moment_norm": 12.0078974704, 
			 "total_energy": -1077.71167637, 
			 "HOMO_LUMO_gap": 0.22252, 
			 "cosmo_polarized_energy": -12.08, 
			 "cosmo_cavitation_energy": 31.16, 
			 "cosmo_dispersion_energy": -21.8, 
			 "cosmo_repulsion_energy": 1.71, 
			 "cosmo_total_nonelectrostatic_energy": 11.08, 
			 "SMD_solvation_energy": 5.9 
		},
		"coords": [
			{
				"x": 1.7329900936,
				"y": 1.0212884915,
				"z": 2.4023683625,
				"element": "C" 
			},
			{
				"x": 2.0185558131,
				"y": -0.266732076,
				"z": 1.636107198,
				"element": "C" 
			},
			{
				"x": 0.8338078029,
				"y": -1.5889881577,
				"z": 2.1180315127,
				"element": "Cl" 
			},
			{
				"x": 2.1211333476,
				"y": -0.0839886256,
				"z": 0.1125149362,
				"element": "C" 
			},
			{
				"x": 3.2340379741,
				"y": -0.1601563974,
				"z": -0.3953945173,
				"element": "O" 
			},
			{
				"x": 1.0182020543,
				"y": 0.1970115665,
				"z": -0.6410441567,
				"element": "N" 
			},
			{
				"x": -0.3649346268,
				"y": 0.4807321118,
				"z": -0.2641128071,
				"element": "C" 
			},
			{
				"x": -1.3504912263,
				"y": -0.1681155205,
				"z": -1.2172702293,
				"element": "C" 
			},
			{
				"x": -1.3101909931,
				"y": -1.5506460032,
				"z": -1.4516028362,
				"element": "C" 
			},
			{
				"x": -2.2239612457,
				"y": -2.1569061234,
				"z": -2.3102811108,
				"element": "C" 
			},
			{
				"x": -3.1834291311,
				"y": -1.3643842257,
				"z": -2.934124048,
				"element": "C" 
			},
			{
				"x": -4.0701494987,
				"y": -1.9462615859,
				"z": -3.7674117849,
				"element": "F" 
			},
			{
				"x": -3.2518058265,
				"y": 0.0071272117,
				"z": -2.7265770104,
				"element": "C" 
			},
			{
				"x": -2.3251613046,
				"y": 0.5979065565,
				"z": -1.865215643,
				"element": "C" 
			},
			{
				"x": 0.7438092159,
				"y": 1.4277332648,
				"z": 2.1807022065,
				"element": "H" 
			},
			{
				"x": 2.4853607688,
				"y": 1.7680670641,
				"z": 2.125831747,
				"element": "H" 
			},
			{
				"x": 1.8005458028,
				"y": 0.8447245844,
				"z": 3.4783861826,
				"element": "H" 
			},
			{
				"x": 2.9900663192,
				"y": -0.667500285,
				"z": 1.9189807382,
				"element": "H" 
			},
			{
				"x": 1.2533117514,
				"y": 0.3246597249,
				"z": -1.618344296,
				"element": "H" 
			},
			{
				"x": -0.5290306441,
				"y": 0.1055302315,
				"z": 0.7470218308,
				"element": "H" 
			},
			{
				"x": -0.5410443581,
				"y": 1.5652977556,
				"z": -0.2444659712,
				"element": "H" 
			},
			{
				"x": -0.5545509882,
				"y": -2.1541500161,
				"z": -0.9575344411,
				"element": "H" 
			},
			{
				"x": -2.2057250088,
				"y": -3.2246165464,
				"z": -2.5002895903,
				"element": "H" 
			},
			{
				"x": -4.0111257644,
				"y": 0.5906489556,
				"z": -3.2356157766,
				"element": "H" 
			},
			{
				"x": -2.3653203274,
				"y": 1.6712180439,
				"z": -1.6974604956,
				"element": "H" 
			}
		],
		 "valence_orbital": [ 
			{
				"type": "occ",
				"energy": -0.3045,
				"method": "rhf"
			},
			{
				"type": "occ",
				"energy": -0.26987,
				"method": "rhf"
			},
			{
				"type": "occ",
				"energy": -0.26423,
				"method": "rhf"
			},
			{
				"type": "occ",
				"energy": -0.25905,
				"method": "rhf"
			},
			{
				"type": "occ",
				"energy": -0.24356,
				"method": "rhf"
			},
			{
				"type": "unocc",
				"energy": -0.02104,
				"method": "rhf"
			},
			{
				"type": "unocc",
				"energy": -0.01545,
				"method": "rhf"
			},
			{
				"type": "unocc",
				"energy": -0.00884,
				"method": "rhf"
			},
			{
				"type": "unocc",
				"energy": 0.04534,
				"method": "rhf"
			},
			{
				"type": "unocc",
				"energy": 0.07981,
				"method": "rhf"
			}
		],
		"cosmo_sigma_profile": { 
			"-0.025": 0.0,
			"-0.024": 0.0,
			"-0.023": 0.0,
			"-0.022": 0.0,
			"-0.021": 0.0,
			"-0.02": 0.0,
			"-0.019": 0.0,
			"-0.018": 0.0,
			"-0.017": 0.0,
			"-0.016": 0.0,
			"-0.015": 0.0,
			"-0.014": 0.355911364835,
			"-0.013": 0.818220232292,
			"-0.012": 0.854264077889,
			"-0.011": 0.6014136494,
			"-0.01": 1.2075732026,
			"-0.009": 0.835874549513,
			"-0.008": 1.30919472456,
			"-0.007": 7.53202561918,
			"-0.006": 14.9775730523,
			"-0.005": 21.6183301009,
			"-0.004": 19.0279133623,
			"-0.003": 16.6814620364,
			"-0.002": 16.575360806,
			"-0.001": 15.6819801242,
			"0.0": 19.0631354385,
			"0.001": 20.5088903034,
			"0.002": 18.0963833422,
			"0.003": 16.6538626494,
			"0.004": 23.6570451161,
			"0.005": 11.0982156484,
			"0.006": 5.10023949469,
			"0.007": 0.855327670253,
			"0.008": 1.29564948739,
			"0.009": 1.8011416502,
			"0.01": 1.4847778744,
			"0.011": 0.81427528336,
			"0.012": 3.07720521559,
			"0.013": 5.60440254056,
			"0.014": 2.31430266663,
			"0.015": 0.00609778451034,
			"0.016": 0.0,
			"0.017": 0.0,
			"0.018": 0.0,
			"0.019": 0.0,
			"0.02": 0.0,
			"0.021": 0.0,
			"0.022": 0.0,
			"0.023": 0.0,
			"0.024": 0.0,
			"0.025": 0.0
		}
	}
}
