{
	 "smiles": "C1=CC=C(C=C1)C1=CC2=C(C=CC=C2)C=N1", 
	 "Tm": 376.15, 
	 "num_atms": 27, 
	 "gaussian": { 
		 "optdone": 1, 
		 "sigma_profile": "yes", 
		 "theory": "DFT", 
		 "functional": "B3LYP", 
		 "basiset": "6-31G**", 
		 "properties": { 
			 "R2extent": 4470.6224, 
			 "electric_dipole_moment_norm": 2.11931876555, 
			 "electric_quadrupole_moment_norm": 13.1296807414, 
			 "total_energy": -632.992948637, 
			 "HOMO_LUMO_gap": 0.15886, 
			 "cosmo_polarized_energy": -8.21, 
			 "cosmo_cavitation_energy": 30.8, 
			 "cosmo_dispersion_energy": -23.0, 
			 "cosmo_repulsion_energy": 1.73, 
			 "cosmo_total_nonelectrostatic_energy": 9.53, 
			 "SMD_solvation_energy": 3.83 
		},
		"coords": [
			{
				"x": -2.6142220021,
				"y": 1.4814083564,
				"z": 3.9441352126,
				"element": "C" 
			},
			{
				"x": -3.317505336,
				"y": 0.8377189263,
				"z": 2.9237068133,
				"element": "C" 
			},
			{
				"x": -2.6811861041,
				"y": 0.5096125201,
				"z": 1.7285899269,
				"element": "C" 
			},
			{
				"x": -1.3230363507,
				"y": 0.8114667145,
				"z": 1.5308280254,
				"element": "C" 
			},
			{
				"x": -0.6297631621,
				"y": 1.4705772924,
				"z": 2.560483596,
				"element": "C" 
			},
			{
				"x": -1.2678655156,
				"y": 1.7998086104,
				"z": 3.7548649545,
				"element": "C" 
			},
			{
				"x": -0.6634775457,
				"y": 0.4352648257,
				"z": 0.2532723465,
				"element": "C" 
			},
			{
				"x": 0.7121168185,
				"y": 0.3406444965,
				"z": 0.1201373116,
				"element": "C" 
			},
			{
				"x": 1.2905857606,
				"y": -0.0080137032,
				"z": -1.1244074878,
				"element": "C" 
			},
			{
				"x": 0.4086203636,
				"y": -0.2671936014,
				"z": -2.2160137048,
				"element": "C" 
			},
			{
				"x": 0.937343948,
				"y": -0.6188260531,
				"z": -3.4831730706,
				"element": "C" 
			},
			{
				"x": 2.2997349048,
				"y": -0.7131791331,
				"z": -3.662470037,
				"element": "C" 
			},
			{
				"x": 3.1800267503,
				"y": -0.460301732,
				"z": -2.5795255168,
				"element": "C" 
			},
			{
				"x": 2.6916743112,
				"y": -0.1169178981,
				"z": -1.3384420108,
				"element": "C" 
			},
			{
				"x": -0.985641513,
				"y": -0.1646430922,
				"z": -1.9559344106,
				"element": "C" 
			},
			{
				"x": -1.5045711471,
				"y": 0.1652389953,
				"z": -0.7965387268,
				"element": "N" 
			},
			{
				"x": -3.1113740586,
				"y": 1.7390474669,
				"z": 4.874983257,
				"element": "H" 
			},
			{
				"x": -4.3666799492,
				"y": 0.5898447942,
				"z": 3.0589532106,
				"element": "H" 
			},
			{
				"x": -3.221463163,
				"y": 0.016861189,
				"z": 0.9285538344,
				"element": "H" 
			},
			{
				"x": 0.4093570909,
				"y": 1.7532993742,
				"z": 2.4233594442,
				"element": "H" 
			},
			{
				"x": -0.7144771915,
				"y": 2.314626869,
				"z": 4.5352563719,
				"element": "H" 
			},
			{
				"x": 1.364889414,
				"y": 0.5138045106,
				"z": 0.9694312274,
				"element": "H" 
			},
			{
				"x": 0.2535960141,
				"y": -0.8125091815,
				"z": -4.3057799822,
				"element": "H" 
			},
			{
				"x": 2.7070687315,
				"y": -0.9828103492,
				"z": -4.6322644137,
				"element": "H" 
			},
			{
				"x": 4.2521270942,
				"y": -0.5397772552,
				"z": -2.7356559859,
				"element": "H" 
			},
			{
				"x": 3.3694334516,
				"y": 0.0765538538,
				"z": -0.5112973953,
				"element": "H" 
			},
			{
				"x": -1.6885116145,
				"y": -0.3710067964,
				"z": -2.76495279,
				"element": "H" 
			}
		],
		 "valence_orbital": [ 
			{
				"type": "occ",
				"energy": -0.27234,
				"method": "rhf"
			},
			{
				"type": "occ",
				"energy": -0.25334,
				"method": "rhf"
			},
			{
				"type": "occ",
				"energy": -0.24952,
				"method": "rhf"
			},
			{
				"type": "occ",
				"energy": -0.24428,
				"method": "rhf"
			},
			{
				"type": "occ",
				"energy": -0.21331,
				"method": "rhf"
			},
			{
				"type": "unocc",
				"energy": -0.05445,
				"method": "rhf"
			},
			{
				"type": "unocc",
				"energy": -0.03682,
				"method": "rhf"
			},
			{
				"type": "unocc",
				"energy": 0.00371,
				"method": "rhf"
			},
			{
				"type": "unocc",
				"energy": 0.0146,
				"method": "rhf"
			},
			{
				"type": "unocc",
				"energy": 0.03146,
				"method": "rhf"
			}
		],
		"cosmo_sigma_profile": { 
			"-0.025": 0.0,
			"-0.024": 0.0,
			"-0.023": 0.0,
			"-0.022": 0.0,
			"-0.021": 0.0,
			"-0.02": 0.0,
			"-0.019": 0.0,
			"-0.018": 0.0,
			"-0.017": 0.0,
			"-0.016": 0.0,
			"-0.015": 0.0,
			"-0.014": 0.0,
			"-0.013": 0.0,
			"-0.012": 0.0,
			"-0.011": 0.0,
			"-0.01": 0.0,
			"-0.009": 0.0,
			"-0.008": 0.569332758431,
			"-0.007": 7.06509120075,
			"-0.006": 17.6048977023,
			"-0.005": 18.5352225189,
			"-0.004": 21.5786680089,
			"-0.003": 17.4591087037,
			"-0.002": 13.5173796191,
			"-0.001": 14.5995996008,
			"0.0": 13.1613495502,
			"0.001": 19.8519009654,
			"0.002": 27.2626144522,
			"0.003": 26.5668348276,
			"0.004": 20.2576730401,
			"0.005": 13.8105825552,
			"0.006": 8.00471631192,
			"0.007": 1.68823553227,
			"0.008": 1.76298812281,
			"0.009": 1.54448354616,
			"0.01": 1.08966894409,
			"0.011": 0.900560986073,
			"0.012": 0.579669335422,
			"0.013": 0.61494714544,
			"0.014": 0.272061393297,
			"0.015": 0.0,
			"0.016": 0.0,
			"0.017": 0.0,
			"0.018": 0.0,
			"0.019": 0.0,
			"0.02": 0.0,
			"0.021": 0.0,
			"0.022": 0.0,
			"0.023": 0.0,
			"0.024": 0.0,
			"0.025": 0.0
		}
	}
}
