{
	 "smiles": "ClCC1=CC=CC=C1", 
	 "Tm": 229.15, 
	 "num_atms": 15, 
	 "gaussian": { 
		 "optdone": 1, 
		 "sigma_profile": "yes", 
		 "theory": "DFT", 
		 "functional": "B3LYP", 
		 "basiset": "6-31G**", 
		 "properties": { 
			 "R2extent": 1696.8423, 
			 "electric_dipole_moment_norm": 2.43980022543, 
			 "electric_quadrupole_moment_norm": 6.05535792666, 
			 "total_energy": -731.16162899, 
			 "HOMO_LUMO_gap": 0.22452, 
			 "cosmo_polarized_energy": -6.04, 
			 "cosmo_cavitation_energy": 20.42, 
			 "cosmo_dispersion_energy": -15.14, 
			 "cosmo_repulsion_energy": 1.27, 
			 "cosmo_total_nonelectrostatic_energy": 6.54, 
			 "SMD_solvation_energy": 3.16 
		},
		"coords": [
			{
				"x": -1.8432161807,
				"y": 1.001649566,
				"z": -2.401726202,
				"element": "Cl" 
			},
			{
				"x": -1.6021552813,
				"y": -0.8031787619,
				"z": -2.1365733202,
				"element": "C" 
			},
			{
				"x": -0.4828000027,
				"y": -1.0989135458,
				"z": -1.1845462119,
				"element": "C" 
			},
			{
				"x": -0.7292603208,
				"y": -1.2085980844,
				"z": 0.190359359,
				"element": "C" 
			},
			{
				"x": 0.310407002,
				"y": -1.4893656279,
				"z": 1.0761787719,
				"element": "C" 
			},
			{
				"x": 1.6102802972,
				"y": -1.662840413,
				"z": 0.5960275488,
				"element": "C" 
			},
			{
				"x": 1.8656615409,
				"y": -1.5545626154,
				"z": -0.772680873,
				"element": "C" 
			},
			{
				"x": 0.8246527285,
				"y": -1.2737182442,
				"z": -1.6569088301,
				"element": "C" 
			},
			{
				"x": -2.5610877858,
				"y": -1.1674005472,
				"z": -1.7677035713,
				"element": "H" 
			},
			{
				"x": -1.4158854775,
				"y": -1.2144313788,
				"z": -3.128766588,
				"element": "H" 
			},
			{
				"x": -1.7401019798,
				"y": -1.070984352,
				"z": 0.5657538922,
				"element": "H" 
			},
			{
				"x": 0.1063631972,
				"y": -1.574728841,
				"z": 2.1395436643,
				"element": "H" 
			},
			{
				"x": 2.4202933552,
				"y": -1.8834896026,
				"z": 1.2851900731,
				"element": "H" 
			},
			{
				"x": 2.8745408035,
				"y": -1.690718339,
				"z": -1.1512165801,
				"element": "H" 
			},
			{
				"x": 1.0253081041,
				"y": -1.1868192128,
				"z": -2.7217311327,
				"element": "H" 
			}
		],
		 "valence_orbital": [ 
			{
				"type": "occ",
				"energy": -0.34922,
				"method": "rhf"
			},
			{
				"type": "occ",
				"energy": -0.29344,
				"method": "rhf"
			},
			{
				"type": "occ",
				"energy": -0.29115,
				"method": "rhf"
			},
			{
				"type": "occ",
				"energy": -0.25775,
				"method": "rhf"
			},
			{
				"type": "occ",
				"energy": -0.25324,
				"method": "rhf"
			},
			{
				"type": "unocc",
				"energy": -0.02872,
				"method": "rhf"
			},
			{
				"type": "unocc",
				"energy": -0.00878,
				"method": "rhf"
			},
			{
				"type": "unocc",
				"energy": 0.04407,
				"method": "rhf"
			},
			{
				"type": "unocc",
				"energy": 0.08421,
				"method": "rhf"
			},
			{
				"type": "unocc",
				"energy": 0.11181,
				"method": "rhf"
			}
		],
		"cosmo_sigma_profile": { 
			"-0.025": 0.0,
			"-0.024": 0.0,
			"-0.023": 0.0,
			"-0.022": 0.0,
			"-0.021": 0.0,
			"-0.02": 0.0,
			"-0.019": 0.0,
			"-0.018": 0.0,
			"-0.017": 0.0,
			"-0.016": 0.0,
			"-0.015": 0.0,
			"-0.014": 0.0,
			"-0.013": 0.0,
			"-0.012": 0.0,
			"-0.011": 0.0,
			"-0.01": 0.0,
			"-0.009": 0.0,
			"-0.008": 1.32725285958,
			"-0.007": 6.59498265503,
			"-0.006": 12.7174241979,
			"-0.005": 13.7282949951,
			"-0.004": 15.7794414248,
			"-0.003": 11.7206844029,
			"-0.002": 7.84931340444,
			"-0.001": 8.47398710505,
			"0.0": 8.2547086315,
			"0.001": 9.28406491567,
			"0.002": 9.92932674294,
			"0.003": 10.6493831047,
			"0.004": 12.2137354431,
			"0.005": 16.8666135556,
			"0.006": 9.96938243713,
			"0.007": 9.63998635629,
			"0.008": 0.159576490236,
			"0.009": 0.0,
			"0.01": 0.0,
			"0.011": 0.0,
			"0.012": 0.0,
			"0.013": 0.0,
			"0.014": 0.0,
			"0.015": 0.0,
			"0.016": 0.0,
			"0.017": 0.0,
			"0.018": 0.0,
			"0.019": 0.0,
			"0.02": 0.0,
			"0.021": 0.0,
			"0.022": 0.0,
			"0.023": 0.0,
			"0.024": 0.0,
			"0.025": 0.0
		}
	}
}
