{
	 "smiles": "FC1=C(C=CC(=C1)C#N)C(F)(F)F", 
	 "Tm": 320.15, 
	 "num_atms": 16, 
	 "gaussian": { 
		 "optdone": 1, 
		 "sigma_profile": "yes", 
		 "theory": "DFT", 
		 "functional": "B3LYP", 
		 "basiset": "6-31G**", 
		 "properties": { 
			 "R2extent": 3317.86, 
			 "electric_dipole_moment_norm": 1.7195768462, 
			 "electric_quadrupole_moment_norm": 20.7097922474, 
			 "total_energy": -760.749072764, 
			 "HOMO_LUMO_gap": 0.2034, 
			 "cosmo_polarized_energy": -8.24, 
			 "cosmo_cavitation_energy": 23.97, 
			 "cosmo_dispersion_energy": -16.42, 
			 "cosmo_repulsion_energy": 1.22, 
			 "cosmo_total_nonelectrostatic_energy": 8.77, 
			 "SMD_solvation_energy": 7.18 
		},
		"coords": [
			{
				"x": -1.1452854725,
				"y": -0.780325529,
				"z": 0.0701988819,
				"element": "F" 
			},
			{
				"x": -0.9809725103,
				"y": 0.1095362139,
				"z": -0.9195534475,
				"element": "C" 
			},
			{
				"x": 0.1983208824,
				"y": 0.8578993451,
				"z": -0.9743359805,
				"element": "C" 
			},
			{
				"x": 0.3570060194,
				"y": 1.7810750747,
				"z": -2.0100530954,
				"element": "C" 
			},
			{
				"x": -0.6379848276,
				"y": 1.9530435894,
				"z": -2.9682390703,
				"element": "C" 
			},
			{
				"x": -1.814097716,
				"y": 1.1899356184,
				"z": -2.8925867308,
				"element": "C" 
			},
			{
				"x": -1.9899438723,
				"y": 0.2574342612,
				"z": -1.8580608526,
				"element": "C" 
			},
			{
				"x": -2.8449909189,
				"y": 1.3606842204,
				"z": -3.8760577725,
				"element": "C" 
			},
			{
				"x": -3.6779792569,
				"y": 1.5018870273,
				"z": -4.6748052636,
				"element": "N" 
			},
			{
				"x": 1.2648023529,
				"y": 0.6567122219,
				"z": 0.0737250397,
				"element": "C" 
			},
			{
				"x": 2.3237330772,
				"y": 1.4647480362,
				"z": -0.1447749957,
				"element": "F" 
			},
			{
				"x": 1.7162757147,
				"y": -0.6128469247,
				"z": 0.0787063702,
				"element": "F" 
			},
			{
				"x": 0.7972966869,
				"y": 0.9241105944,
				"z": 1.3088636772,
				"element": "F" 
			},
			{
				"x": 1.26862106,
				"y": 2.3646935569,
				"z": -2.0588601421,
				"element": "H" 
			},
			{
				"x": -0.5119998184,
				"y": 2.6703111589,
				"z": -3.7709290736,
				"element": "H" 
			},
			{
				"x": -2.8893014006,
				"y": -0.341698465,
				"z": -1.7807375444,
				"element": "H" 
			}
		],
		 "valence_orbital": [ 
			{
				"type": "occ",
				"energy": -0.37348,
				"method": "rhf"
			},
			{
				"type": "occ",
				"energy": -0.36363,
				"method": "rhf"
			},
			{
				"type": "occ",
				"energy": -0.34971,
				"method": "rhf"
			},
			{
				"type": "occ",
				"energy": -0.29718,
				"method": "rhf"
			},
			{
				"type": "occ",
				"energy": -0.28538,
				"method": "rhf"
			},
			{
				"type": "unocc",
				"energy": -0.08198,
				"method": "rhf"
			},
			{
				"type": "unocc",
				"energy": -0.0429,
				"method": "rhf"
			},
			{
				"type": "unocc",
				"energy": 0.0183,
				"method": "rhf"
			},
			{
				"type": "unocc",
				"energy": 0.04891,
				"method": "rhf"
			},
			{
				"type": "unocc",
				"energy": 0.06069,
				"method": "rhf"
			}
		],
		"cosmo_sigma_profile": { 
			"-0.025": 0.0,
			"-0.024": 0.0,
			"-0.023": 0.0,
			"-0.022": 0.0,
			"-0.021": 0.0,
			"-0.02": 0.0,
			"-0.019": 0.0,
			"-0.018": 0.0,
			"-0.017": 0.0,
			"-0.016": 0.0,
			"-0.015": 0.0,
			"-0.014": 0.0,
			"-0.013": 0.0,
			"-0.012": 0.0,
			"-0.011": 0.0130338347806,
			"-0.01": 1.43837243104,
			"-0.009": 4.87441674563,
			"-0.008": 6.34804000171,
			"-0.007": 5.95926567129,
			"-0.006": 4.69932136094,
			"-0.005": 6.47833986847,
			"-0.004": 8.4883411348,
			"-0.003": 13.8592674951,
			"-0.002": 20.5923216046,
			"-0.001": 16.8098263095,
			"0.0": 13.3340119391,
			"0.001": 12.0476334312,
			"0.002": 34.2425639108,
			"0.003": 21.4505712949,
			"0.004": 2.25225929724,
			"0.005": 1.9700486474,
			"0.006": 3.31090275821,
			"0.007": 3.05003451591,
			"0.008": 3.24162257893,
			"0.009": 3.20608522484,
			"0.01": 2.8246310529,
			"0.011": 2.40390109017,
			"0.012": 1.98049744442,
			"0.013": 0.306017577034,
			"0.014": 0.0,
			"0.015": 0.0,
			"0.016": 0.0,
			"0.017": 0.0,
			"0.018": 0.0,
			"0.019": 0.0,
			"0.02": 0.0,
			"0.021": 0.0,
			"0.022": 0.0,
			"0.023": 0.0,
			"0.024": 0.0,
			"0.025": 0.0
		}
	}
}
