{
	 "smiles": "NC1=CC=C(C=C1)N1N=CC2=C1C=CC=C2", 
	 "Tm": 432.15, 
	 "num_atms": 27, 
	 "gaussian": { 
		 "optdone": 1, 
		 "sigma_profile": "yes", 
		 "theory": "DFT", 
		 "functional": "B3LYP", 
		 "basiset": "6-31G**", 
		 "properties": { 
			 "R2extent": 4784.2106, 
			 "electric_dipole_moment_norm": 3.15569347688, 
			 "electric_quadrupole_moment_norm": 19.2740695228, 
			 "total_energy": -666.25682033, 
			 "HOMO_LUMO_gap": 0.16554, 
			 "cosmo_polarized_energy": -12.75, 
			 "cosmo_cavitation_energy": 30.92, 
			 "cosmo_dispersion_energy": -22.91, 
			 "cosmo_repulsion_energy": 1.76, 
			 "cosmo_total_nonelectrostatic_energy": 9.77, 
			 "SMD_solvation_energy": 4.35 
		},
		"coords": [
			{
				"x": 4.4329861366,
				"y": 0.0054535161,
				"z": 1.2276570531,
				"element": "N" 
			},
			{
				"x": 3.2089196622,
				"y": -0.4231134618,
				"z": 0.7115225124,
				"element": "C" 
			},
			{
				"x": 2.0107210764,
				"y": 0.2156754782,
				"z": 1.0714822541,
				"element": "C" 
			},
			{
				"x": 0.7844588358,
				"y": -0.252339543,
				"z": 0.6073861528,
				"element": "C" 
			},
			{
				"x": 0.7283110606,
				"y": -1.3548131824,
				"z": -0.2512391527,
				"element": "C" 
			},
			{
				"x": 1.9150736265,
				"y": -2.0029396896,
				"z": -0.6114454778,
				"element": "C" 
			},
			{
				"x": 3.1363670574,
				"y": -1.5475307054,
				"z": -0.1308335678,
				"element": "C" 
			},
			{
				"x": -0.5136599092,
				"y": -1.8362283198,
				"z": -0.7428441251,
				"element": "N" 
			},
			{
				"x": -0.7241507658,
				"y": -3.1844555103,
				"z": -0.8410976192,
				"element": "N" 
			},
			{
				"x": -1.9378988569,
				"y": -3.3415068065,
				"z": -1.3340254379,
				"element": "C" 
			},
			{
				"x": -2.5716858769,
				"y": -2.0878252429,
				"z": -1.5836625369,
				"element": "C" 
			},
			{
				"x": -1.6056149506,
				"y": -1.1244537551,
				"z": -1.1942587242,
				"element": "C" 
			},
			{
				"x": -1.8395964234,
				"y": 0.2542156684,
				"z": -1.3426677247,
				"element": "C" 
			},
			{
				"x": -3.0680781813,
				"y": 0.6363538304,
				"z": -1.8600146969,
				"element": "C" 
			},
			{
				"x": -4.0508356993,
				"y": -0.3121351259,
				"z": -2.2291344523,
				"element": "C" 
			},
			{
				"x": -3.8119322803,
				"y": -1.6704242552,
				"z": -2.1005745016,
				"element": "C" 
			},
			{
				"x": 4.4656434412,
				"y": 0.9745756043,
				"z": 1.5121980243,
				"element": "H" 
			},
			{
				"x": 5.2441267279,
				"y": -0.2549297439,
				"z": 0.6839575871,
				"element": "H" 
			},
			{
				"x": 2.0388047691,
				"y": 1.0714696852,
				"z": 1.7411251582,
				"element": "H" 
			},
			{
				"x": -0.1314168807,
				"y": 0.2298057555,
				"z": 0.9315061084,
				"element": "H" 
			},
			{
				"x": 1.8653735985,
				"y": -2.8682410551,
				"z": -1.2624147253,
				"element": "H" 
			},
			{
				"x": 4.0500269831,
				"y": -2.0646826185,
				"z": -0.4130037034,
				"element": "H" 
			},
			{
				"x": -2.3267465179,
				"y": -4.3387126567,
				"z": -1.493545333,
				"element": "H" 
			},
			{
				"x": -1.0886575778,
				"y": 0.9897152667,
				"z": -1.0786340399,
				"element": "H" 
			},
			{
				"x": -3.2803062589,
				"y": 1.6938319926,
				"z": -1.9893505116,
				"element": "H" 
			},
			{
				"x": -5.0000532067,
				"y": 0.0354526698,
				"z": -2.6256288249,
				"element": "H" 
			},
			{
				"x": -4.5605795898,
				"y": -2.3992177951,
				"z": -2.3976596952,
				"element": "H" 
			}
		],
		 "valence_orbital": [ 
			{
				"type": "occ",
				"energy": -0.2826,
				"method": "rhf"
			},
			{
				"type": "occ",
				"energy": -0.25256,
				"method": "rhf"
			},
			{
				"type": "occ",
				"energy": -0.23613,
				"method": "rhf"
			},
			{
				"type": "occ",
				"energy": -0.22823,
				"method": "rhf"
			},
			{
				"type": "occ",
				"energy": -0.19061,
				"method": "rhf"
			},
			{
				"type": "unocc",
				"energy": -0.02507,
				"method": "rhf"
			},
			{
				"type": "unocc",
				"energy": -0.00397,
				"method": "rhf"
			},
			{
				"type": "unocc",
				"energy": 0.002,
				"method": "rhf"
			},
			{
				"type": "unocc",
				"energy": 0.03296,
				"method": "rhf"
			},
			{
				"type": "unocc",
				"energy": 0.06466,
				"method": "rhf"
			}
		],
		"cosmo_sigma_profile": { 
			"-0.025": 0.0,
			"-0.024": 0.0,
			"-0.023": 0.0,
			"-0.022": 0.0,
			"-0.021": 0.0,
			"-0.02": 0.0,
			"-0.019": 0.0,
			"-0.018": 0.0,
			"-0.017": 0.0,
			"-0.016": 0.0,
			"-0.015": 0.0,
			"-0.014": 0.0,
			"-0.013": 0.648072523287,
			"-0.012": 2.53896664478,
			"-0.011": 3.21128944257,
			"-0.01": 2.73307437368,
			"-0.009": 3.07895253638,
			"-0.008": 3.15643484139,
			"-0.007": 6.4857659646,
			"-0.006": 13.3691189211,
			"-0.005": 19.1264613325,
			"-0.004": 19.1541355674,
			"-0.003": 15.5596078361,
			"-0.002": 12.4360685539,
			"-0.001": 12.4745435704,
			"0.0": 11.2903946694,
			"0.001": 15.6942515036,
			"0.002": 17.4342751634,
			"0.003": 18.8266352736,
			"0.004": 20.9442648847,
			"0.005": 22.9132998268,
			"0.006": 10.6823230149,
			"0.007": 3.14999106889,
			"0.008": 2.28126160109,
			"0.009": 2.49227029524,
			"0.01": 1.49857293031,
			"0.011": 1.74286017396,
			"0.012": 1.95121399338,
			"0.013": 1.57647853832,
			"0.014": 1.0866395275,
			"0.015": 0.519150831814,
			"0.016": 0.0,
			"0.017": 0.0,
			"0.018": 0.0,
			"0.019": 0.0,
			"0.02": 0.0,
			"0.021": 0.0,
			"0.022": 0.0,
			"0.023": 0.0,
			"0.024": 0.0,
			"0.025": 0.0
		}
	}
}
