{
	 "smiles": "CC(C)(C)C1=CC=C(C=C1)C1=NOC(CCl)=N1", 
	 "Tm": 320.15, 
	 "num_atms": 32, 
	 "gaussian": { 
		 "optdone": 1, 
		 "sigma_profile": "yes", 
		 "theory": "DFT", 
		 "functional": "B3LYP", 
		 "basiset": "6-31G**", 
		 "properties": { 
			 "R2extent": 10214.049, 
			 "electric_dipole_moment_norm": 2.6749334459, 
			 "electric_quadrupole_moment_norm": 16.6745983325, 
			 "total_energy": -1149.32305686, 
			 "HOMO_LUMO_gap": 0.18157, 
			 "cosmo_polarized_energy": -9.39, 
			 "cosmo_cavitation_energy": 36.99, 
			 "cosmo_dispersion_energy": -26.62, 
			 "cosmo_repulsion_energy": 2.06, 
			 "cosmo_total_nonelectrostatic_energy": 12.43, 
			 "SMD_solvation_energy": 4.47 
		},
		"coords": [
			{
				"x": 2.265612807,
				"y": -1.8501912548,
				"z": -1.0924623767,
				"element": "C" 
			},
			{
				"x": 1.5596210978,
				"y": -0.5256303978,
				"z": -1.4389887804,
				"element": "C" 
			},
			{
				"x": 0.721768228,
				"y": -0.7459149806,
				"z": -2.7215400163,
				"element": "C" 
			},
			{
				"x": 2.6450505023,
				"y": 0.5431891984,
				"z": -1.7126860398,
				"element": "C" 
			},
			{
				"x": 0.6390874102,
				"y": -0.0388830004,
				"z": -0.3061494971,
				"element": "C" 
			},
			{
				"x": 0.4764440621,
				"y": -0.738286257,
				"z": 0.897665592,
				"element": "C" 
			},
			{
				"x": -0.3660132233,
				"y": -0.2702808142,
				"z": 1.9061803705,
				"element": "C" 
			},
			{
				"x": -1.0772139007,
				"y": 0.9220713801,
				"z": 1.7379167036,
				"element": "C" 
			},
			{
				"x": -0.9269505266,
				"y": 1.6367913774,
				"z": 0.5386887105,
				"element": "C" 
			},
			{
				"x": -0.0849954181,
				"y": 1.1596541323,
				"z": -0.4568138686,
				"element": "C" 
			},
			{
				"x": -1.9609768997,
				"y": 1.4082481198,
				"z": 2.8024719404,
				"element": "C" 
			},
			{
				"x": -2.6532267354,
				"y": 2.5254051111,
				"z": 2.7081841003,
				"element": "N" 
			},
			{
				"x": -3.3432848554,
				"y": 2.5901193161,
				"z": 3.9259483082,
				"element": "O" 
			},
			{
				"x": -2.9850095593,
				"y": 1.5004973657,
				"z": 4.6231460854,
				"element": "C" 
			},
			{
				"x": -3.5697809621,
				"y": 1.2989449261,
				"z": 5.9746981008,
				"element": "C" 
			},
			{
				"x": -2.7374772207,
				"y": 2.3181743888,
				"z": 7.2274348608,
				"element": "Cl" 
			},
			{
				"x": -2.145697858,
				"y": 0.733381882,
				"z": 3.9973165862,
				"element": "N" 
			},
			{
				"x": 2.9065576885,
				"y": -2.1540524735,
				"z": -1.9262587137,
				"element": "H" 
			},
			{
				"x": 2.9016654935,
				"y": -1.7542226671,
				"z": -0.2063957804,
				"element": "H" 
			},
			{
				"x": 1.5502152494,
				"y": -2.6599529612,
				"z": -0.9151994258,
				"element": "H" 
			},
			{
				"x": 0.2265666586,
				"y": 0.1730000474,
				"z": -3.0486851875,
				"element": "H" 
			},
			{
				"x": 1.3646357772,
				"y": -1.0873261686,
				"z": -3.5405885965,
				"element": "H" 
			},
			{
				"x": -0.0522220977,
				"y": -1.5031245954,
				"z": -2.5590454762,
				"element": "H" 
			},
			{
				"x": 3.305831532,
				"y": 0.214020058,
				"z": -2.522425943,
				"element": "H" 
			},
			{
				"x": 3.2585913811,
				"y": 0.7157632944,
				"z": -0.8224362683,
				"element": "H" 
			},
			{
				"x": 2.2089154014,
				"y": 1.501781972,
				"z": -2.0085426197,
				"element": "H" 
			},
			{
				"x": 1.0105416466,
				"y": -1.6660041804,
				"z": 1.0659928207,
				"element": "H" 
			},
			{
				"x": -0.476134122,
				"y": -0.8269977954,
				"z": 2.8306480039,
				"element": "H" 
			},
			{
				"x": -1.4729308581,
				"y": 2.5637307995,
				"z": 0.3963373787,
				"element": "H" 
			},
			{
				"x": 0.0098373765,
				"y": 1.7353703847,
				"z": -1.372470481,
				"element": "H" 
			},
			{
				"x": -3.4453141436,
				"y": 0.258403503,
				"z": 6.2678474597,
				"element": "H" 
			},
			{
				"x": -4.6225139313,
				"y": 1.5805202897,
				"z": 5.9914120493,
				"element": "H" 
			}
		],
		 "valence_orbital": [ 
			{
				"type": "occ",
				"energy": -0.31275,
				"method": "rhf"
			},
			{
				"type": "occ",
				"energy": -0.30277,
				"method": "rhf"
			},
			{
				"type": "occ",
				"energy": -0.30098,
				"method": "rhf"
			},
			{
				"type": "occ",
				"energy": -0.25604,
				"method": "rhf"
			},
			{
				"type": "occ",
				"energy": -0.23933,
				"method": "rhf"
			},
			{
				"type": "unocc",
				"energy": -0.05776,
				"method": "rhf"
			},
			{
				"type": "unocc",
				"energy": -0.03243,
				"method": "rhf"
			},
			{
				"type": "unocc",
				"energy": -0.00603,
				"method": "rhf"
			},
			{
				"type": "unocc",
				"energy": 0.03623,
				"method": "rhf"
			},
			{
				"type": "unocc",
				"energy": 0.06558,
				"method": "rhf"
			}
		],
		"cosmo_sigma_profile": { 
			"-0.025": 0.0,
			"-0.024": 0.0,
			"-0.023": 0.0,
			"-0.022": 0.0,
			"-0.021": 0.0,
			"-0.02": 0.0,
			"-0.019": 0.0,
			"-0.018": 0.0,
			"-0.017": 0.0,
			"-0.016": 0.0,
			"-0.015": 0.0,
			"-0.014": 0.0,
			"-0.013": 0.0,
			"-0.012": 0.0,
			"-0.011": 0.3433932088,
			"-0.01": 3.71744610666,
			"-0.009": 4.53214064519,
			"-0.008": 4.07324371209,
			"-0.007": 4.28779848461,
			"-0.006": 7.64744449465,
			"-0.005": 11.1329158063,
			"-0.004": 13.5828653465,
			"-0.003": 25.5404876377,
			"-0.002": 28.9745198257,
			"-0.001": 27.6133170962,
			"0.0": 28.8210497463,
			"0.001": 38.3341184568,
			"0.002": 20.8624540137,
			"0.003": 17.9733183704,
			"0.004": 21.4313396761,
			"0.005": 17.0003000882,
			"0.006": 6.97563956514,
			"0.007": 2.55277111776,
			"0.008": 2.72523479411,
			"0.009": 2.06795960906,
			"0.01": 2.33000718667,
			"0.011": 1.91174243916,
			"0.012": 0.723868305242,
			"0.013": 0.0372102979291,
			"0.014": 0.0,
			"0.015": 0.0,
			"0.016": 0.0,
			"0.017": 0.0,
			"0.018": 0.0,
			"0.019": 0.0,
			"0.02": 0.0,
			"0.021": 0.0,
			"0.022": 0.0,
			"0.023": 0.0,
			"0.024": 0.0,
			"0.025": 0.0
		}
	}
}
