{
	 "smiles": "CC(C)(N=C=O)C1=CC(=CC=C1)C(C)(C)N=C=O", 
	 "Tm": 263.15, 
	 "num_atms": 34, 
	 "gaussian": { 
		 "optdone": 1, 
		 "sigma_profile": "yes", 
		 "theory": "DFT", 
		 "functional": "B3LYP", 
		 "basiset": "6-31G**", 
		 "properties": { 
			 "R2extent": 5609.3264, 
			 "electric_dipole_moment_norm": 5.40730996892, 
			 "electric_quadrupole_moment_norm": 13.712233612, 
			 "total_energy": -803.097975416, 
			 "HOMO_LUMO_gap": 0.23323, 
			 "cosmo_polarized_energy": -9.97, 
			 "cosmo_cavitation_energy": 38.38, 
			 "cosmo_dispersion_energy": -25.19, 
			 "cosmo_repulsion_energy": 1.99, 
			 "cosmo_total_nonelectrostatic_energy": 15.18, 
			 "SMD_solvation_energy": 10.73 
		},
		"coords": [
			{
				"x": -1.4995549723,
				"y": 2.7158977085,
				"z": 1.4130918294,
				"element": "C" 
			},
			{
				"x": -0.2303294677,
				"y": 1.8367311955,
				"z": 1.4355138536,
				"element": "C" 
			},
			{
				"x": 0.2577522303,
				"y": 1.6198935729,
				"z": 2.88440313,
				"element": "C" 
			},
			{
				"x": 0.8236511632,
				"y": 2.5284371601,
				"z": 0.6919093922,
				"element": "N" 
			},
			{
				"x": 1.4188338553,
				"y": 3.5768985413,
				"z": 0.7618029204,
				"element": "C" 
			},
			{
				"x": 2.0687448891,
				"y": 4.562552283,
				"z": 0.7190678681,
				"element": "O" 
			},
			{
				"x": -0.5051580312,
				"y": 0.4852955037,
				"z": 0.7576269697,
				"element": "C" 
			},
			{
				"x": 0.1987965208,
				"y": 0.0816672137,
				"z": -0.3820364297,
				"element": "C" 
			},
			{
				"x": -0.0502718136,
				"y": -1.1487083851,
				"z": -0.9996390671,
				"element": "C" 
			},
			{
				"x": -1.0300613235,
				"y": -1.9889477273,
				"z": -0.455603138,
				"element": "C" 
			},
			{
				"x": -1.7387823496,
				"y": -1.5991012103,
				"z": 0.6792785045,
				"element": "C" 
			},
			{
				"x": -1.4807102236,
				"y": -0.3706037333,
				"z": 1.2846075114,
				"element": "C" 
			},
			{
				"x": 0.7235002504,
				"y": -1.5910492451,
				"z": -2.2514933357,
				"element": "C" 
			},
			{
				"x": -0.2453820672,
				"y": -1.7930773273,
				"z": -3.4367797558,
				"element": "C" 
			},
			{
				"x": 1.5119399882,
				"y": -2.8872665276,
				"z": -1.9642236348,
				"element": "C" 
			},
			{
				"x": 1.6775264631,
				"y": -0.5399553159,
				"z": -2.6088393562,
				"element": "N" 
			},
			{
				"x": 2.5103386784,
				"y": -0.3496492799,
				"z": -3.4624885369,
				"element": "C" 
			},
			{
				"x": 3.3486413434,
				"y": -0.0440440107,
				"z": -4.2367876066,
				"element": "O" 
			},
			{
				"x": -1.3038761377,
				"y": 3.6759020493,
				"z": 1.9017069095,
				"element": "H" 
			},
			{
				"x": -1.8140096959,
				"y": 2.9034811139,
				"z": 0.3833618133,
				"element": "H" 
			},
			{
				"x": -2.3219564172,
				"y": 2.225130838,
				"z": 1.9402077823,
				"element": "H" 
			},
			{
				"x": -0.4929239904,
				"y": 1.0842072137,
				"z": 3.4713936752,
				"element": "H" 
			},
			{
				"x": 0.4475607712,
				"y": 2.583466895,
				"z": 3.3682893587,
				"element": "H" 
			},
			{
				"x": 1.1812313051,
				"y": 1.0354708525,
				"z": 2.8909901755,
				"element": "H" 
			},
			{
				"x": 0.9541742328,
				"y": 0.7369548232,
				"z": -0.7958300175,
				"element": "H" 
			},
			{
				"x": -1.2478354456,
				"y": -2.9508081853,
				"z": -0.9107410725,
				"element": "H" 
			},
			{
				"x": -2.4970103495,
				"y": -2.256788526,
				"z": 1.0945721322,
				"element": "H" 
			},
			{
				"x": -2.0452375676,
				"y": -0.0874290474,
				"z": 2.1682816698,
				"element": "H" 
			},
			{
				"x": -0.7672834043,
				"y": -0.8602510422,
				"z": -3.6645066358,
				"element": "H" 
			},
			{
				"x": 0.306186102,
				"y": -2.113925111,
				"z": -4.3264299748,
				"element": "H" 
			},
			{
				"x": -0.9916836682,
				"y": -2.5568800137,
				"z": -3.2029550571,
				"element": "H" 
			},
			{
				"x": 0.8373496634,
				"y": -3.6956894329,
				"z": -1.6702410272,
				"element": "H" 
			},
			{
				"x": 2.0576768006,
				"y": -3.2046702843,
				"z": -2.8586953608,
				"element": "H" 
			},
			{
				"x": 2.2281626679,
				"y": -2.725142559,
				"z": -1.1548154892,
				"element": "H" 
			}
		],
		 "valence_orbital": [ 
			{
				"type": "occ",
				"energy": -0.28981,
				"method": "rhf"
			},
			{
				"type": "occ",
				"energy": -0.27753,
				"method": "rhf"
			},
			{
				"type": "occ",
				"energy": -0.27565,
				"method": "rhf"
			},
			{
				"type": "occ",
				"energy": -0.25384,
				"method": "rhf"
			},
			{
				"type": "occ",
				"energy": -0.24699,
				"method": "rhf"
			},
			{
				"type": "unocc",
				"energy": -0.01376,
				"method": "rhf"
			},
			{
				"type": "unocc",
				"energy": -0.00616,
				"method": "rhf"
			},
			{
				"type": "unocc",
				"energy": 0.01675,
				"method": "rhf"
			},
			{
				"type": "unocc",
				"energy": 0.01945,
				"method": "rhf"
			},
			{
				"type": "unocc",
				"energy": 0.0659,
				"method": "rhf"
			}
		],
		"cosmo_sigma_profile": { 
			"-0.025": 0.0,
			"-0.024": 0.0,
			"-0.023": 0.0,
			"-0.022": 0.0,
			"-0.021": 0.0,
			"-0.02": 0.0,
			"-0.019": 0.0,
			"-0.018": 0.0,
			"-0.017": 0.0,
			"-0.016": 0.0,
			"-0.015": 0.0,
			"-0.014": 0.0,
			"-0.013": 0.0,
			"-0.012": 0.0,
			"-0.011": 0.0,
			"-0.01": 0.0,
			"-0.009": 0.0,
			"-0.008": 0.157624006879,
			"-0.007": 3.08775130686,
			"-0.006": 11.7306294908,
			"-0.005": 19.4152915779,
			"-0.004": 25.7698414179,
			"-0.003": 25.6377228657,
			"-0.002": 31.0745505548,
			"-0.001": 41.9886305555,
			"0.0": 32.999357357,
			"0.001": 20.1170786818,
			"0.002": 15.6070823496,
			"0.003": 17.5061025654,
			"0.004": 15.0319445513,
			"0.005": 10.5936712918,
			"0.006": 8.16716759042,
			"0.007": 5.31676497346,
			"0.008": 14.4958681157,
			"0.009": 5.89611478301,
			"0.01": 0.0,
			"0.011": 0.0,
			"0.012": 0.0,
			"0.013": 0.0,
			"0.014": 0.0,
			"0.015": 0.0,
			"0.016": 0.0,
			"0.017": 0.0,
			"0.018": 0.0,
			"0.019": 0.0,
			"0.02": 0.0,
			"0.021": 0.0,
			"0.022": 0.0,
			"0.023": 0.0,
			"0.024": 0.0,
			"0.025": 0.0
		}
	}
}
