{
	 "smiles": "NCC1=CC=CC=C1N1C=CC=C1", 
	 "Tm": 429.15, 
	 "num_atms": 25, 
	 "gaussian": { 
		 "optdone": 1, 
		 "sigma_profile": "yes", 
		 "theory": "DFT", 
		 "functional": "B3LYP", 
		 "basiset": "6-31G**", 
		 "properties": { 
			 "R2extent": 2744.9879, 
			 "electric_dipole_moment_norm": 1.20442390378, 
			 "electric_quadrupole_moment_norm": 6.28711013742, 
			 "total_energy": -535.884594807, 
			 "HOMO_LUMO_gap": 0.19668, 
			 "cosmo_polarized_energy": -8.42, 
			 "cosmo_cavitation_energy": 28.04, 
			 "cosmo_dispersion_energy": -20.26, 
			 "cosmo_repulsion_energy": 1.61, 
			 "cosmo_total_nonelectrostatic_energy": 9.39, 
			 "SMD_solvation_energy": 4.75 
		},
		"coords": [
			{
				"x": -2.7925330003,
				"y": 0.0809233378,
				"z": 0.3705663198,
				"element": "N" 
			},
			{
				"x": -1.4006754612,
				"y": 0.4556920775,
				"z": 0.0962115681,
				"element": "C" 
			},
			{
				"x": -0.5207170128,
				"y": -0.7688079176,
				"z": -0.101846516,
				"element": "C" 
			},
			{
				"x": -0.8946867794,
				"y": -2.0025846274,
				"z": 0.446465487,
				"element": "C" 
			},
			{
				"x": -0.1331769837,
				"y": -3.1523136416,
				"z": 0.2404036025,
				"element": "C" 
			},
			{
				"x": 1.0317605289,
				"y": -3.0891135857,
				"z": -0.5249316328,
				"element": "C" 
			},
			{
				"x": 1.4344645504,
				"y": -1.8690710327,
				"z": -1.062872797,
				"element": "C" 
			},
			{
				"x": 0.6699478639,
				"y": -0.7153721039,
				"z": -0.8527812379,
				"element": "C" 
			},
			{
				"x": 1.1216383662,
				"y": 0.507888735,
				"z": -1.4338002427,
				"element": "N" 
			},
			{
				"x": 1.4302479683,
				"y": 1.6721924831,
				"z": -0.753110605,
				"element": "C" 
			},
			{
				"x": 1.8911896577,
				"y": 2.596668626,
				"z": -1.6629157981,
				"element": "C" 
			},
			{
				"x": 1.866726187,
				"y": 1.9788248685,
				"z": -2.9469883842,
				"element": "C" 
			},
			{
				"x": 1.3977004835,
				"y": 0.6959531116,
				"z": -2.7763554294,
				"element": "C" 
			},
			{
				"x": -3.3267091792,
				"y": 0.9124792027,
				"z": 0.6071860544,
				"element": "H" 
			},
			{
				"x": -3.2153972598,
				"y": -0.3064848495,
				"z": -0.4701081341,
				"element": "H" 
			},
			{
				"x": -1.0444302649,
				"y": 1.0250403512,
				"z": 0.9652891009,
				"element": "H" 
			},
			{
				"x": -1.2753296248,
				"y": 1.1226381163,
				"z": -0.7700615845,
				"element": "H" 
			},
			{
				"x": -1.8136197695,
				"y": -2.0406102678,
				"z": 1.0216282286,
				"element": "H" 
			},
			{
				"x": -0.4518247277,
				"y": -4.0958738131,
				"z": 0.6741995616,
				"element": "H" 
			},
			{
				"x": 1.6316566322,
				"y": -3.9787031252,
				"z": -0.6928201885,
				"element": "H" 
			},
			{
				"x": 2.3509648584,
				"y": -1.7899185594,
				"z": -1.6390227331,
				"element": "H" 
			},
			{
				"x": 1.3278488239,
				"y": 1.7217382066,
				"z": 0.320336261,
				"element": "H" 
			},
			{
				"x": 2.2166936745,
				"y": 3.6012858809,
				"z": -1.4311058737,
				"element": "H" 
			},
			{
				"x": 2.1530003619,
				"y": 2.426092986,
				"z": -3.8887160619,
				"element": "H" 
			},
			{
				"x": 1.2055601065,
				"y": -0.0945644593,
				"z": -3.4862489651,
				"element": "H" 
			}
		],
		 "valence_orbital": [ 
			{
				"type": "occ",
				"energy": -0.26208,
				"method": "rhf"
			},
			{
				"type": "occ",
				"energy": -0.25191,
				"method": "rhf"
			},
			{
				"type": "occ",
				"energy": -0.23654,
				"method": "rhf"
			},
			{
				"type": "occ",
				"energy": -0.22143,
				"method": "rhf"
			},
			{
				"type": "occ",
				"energy": -0.20516,
				"method": "rhf"
			},
			{
				"type": "unocc",
				"energy": -0.00848,
				"method": "rhf"
			},
			{
				"type": "unocc",
				"energy": -0.00329,
				"method": "rhf"
			},
			{
				"type": "unocc",
				"energy": 0.04706,
				"method": "rhf"
			},
			{
				"type": "unocc",
				"energy": 0.08383,
				"method": "rhf"
			},
			{
				"type": "unocc",
				"energy": 0.08946,
				"method": "rhf"
			}
		],
		"cosmo_sigma_profile": { 
			"-0.025": 0.0,
			"-0.024": 0.0,
			"-0.023": 0.0,
			"-0.022": 0.0,
			"-0.021": 0.0,
			"-0.02": 0.0,
			"-0.019": 0.0,
			"-0.018": 0.0,
			"-0.017": 0.0,
			"-0.016": 0.0,
			"-0.015": 0.0,
			"-0.014": 0.0,
			"-0.013": 0.0,
			"-0.012": 0.0,
			"-0.011": 0.0445878609447,
			"-0.01": 1.74766852285,
			"-0.009": 3.16076927495,
			"-0.008": 1.88304129994,
			"-0.007": 6.03429524669,
			"-0.006": 10.0627456144,
			"-0.005": 17.3579414728,
			"-0.004": 17.8949366856,
			"-0.003": 18.6154378328,
			"-0.002": 18.7811878773,
			"-0.001": 14.647963268,
			"0.0": 14.4971175951,
			"0.001": 14.3853438432,
			"0.002": 14.3974994277,
			"0.003": 14.0292649329,
			"0.004": 13.7236918928,
			"0.005": 14.7948458156,
			"0.006": 7.96027805316,
			"0.007": 5.26656349588,
			"0.008": 6.02493133207,
			"0.009": 3.28912791624,
			"0.01": 0.489132426529,
			"0.011": 0.578768604644,
			"0.012": 0.583091723154,
			"0.013": 0.739280935088,
			"0.014": 0.642139845224,
			"0.015": 0.318447328492,
			"0.016": 0.646785882357,
			"0.017": 0.119099384791,
			"0.018": 0.0,
			"0.019": 0.0,
			"0.02": 0.0,
			"0.021": 0.0,
			"0.022": 0.0,
			"0.023": 0.0,
			"0.024": 0.0,
			"0.025": 0.0
		}
	}
}
