{
	 "smiles": "NC1=CC(OC2=CC=CC=C2)=NC=C1", 
	 "Tm": 326.15, 
	 "num_atms": 24, 
	 "gaussian": { 
		 "optdone": 1, 
		 "sigma_profile": "yes", 
		 "theory": "DFT", 
		 "functional": "B3LYP", 
		 "basiset": "6-31G**", 
		 "properties": { 
			 "R2extent": 3570.6899, 
			 "electric_dipole_moment_norm": 3.44709892808, 
			 "electric_quadrupole_moment_norm": 18.5924309027, 
			 "total_energy": -609.922532991, 
			 "HOMO_LUMO_gap": 0.21242, 
			 "cosmo_polarized_energy": -13.37, 
			 "cosmo_cavitation_energy": 28.58, 
			 "cosmo_dispersion_energy": -21.13, 
			 "cosmo_repulsion_energy": 1.67, 
			 "cosmo_total_nonelectrostatic_energy": 9.12, 
			 "SMD_solvation_energy": 4.34 
		},
		"coords": [
			{
				"x": -2.9291223514,
				"y": 1.1253036016,
				"z": 3.7827519262,
				"element": "N" 
			},
			{
				"x": -2.425858601,
				"y": 1.0196332944,
				"z": 2.5006672073,
				"element": "C" 
			},
			{
				"x": -1.0604251278,
				"y": 0.8197296633,
				"z": 2.2693701462,
				"element": "C" 
			},
			{
				"x": -0.615333406,
				"y": 0.7767338519,
				"z": 0.9450821953,
				"element": "C" 
			},
			{
				"x": 0.7354001851,
				"y": 0.6146820043,
				"z": 0.791839078,
				"element": "O" 
			},
			{
				"x": 1.3078931562,
				"y": 0.3635234175,
				"z": -0.4481973176,
				"element": "C" 
			},
			{
				"x": 2.4164738646,
				"y": 1.1379395312,
				"z": -0.7871520679,
				"element": "C" 
			},
			{
				"x": 3.1090824866,
				"y": 0.8685477548,
				"z": -1.9685390405,
				"element": "C" 
			},
			{
				"x": 2.6922301832,
				"y": -0.1658251243,
				"z": -2.807442829,
				"element": "C" 
			},
			{
				"x": 1.580096077,
				"y": -0.9347985299,
				"z": -2.4545637788,
				"element": "C" 
			},
			{
				"x": 0.8836664177,
				"y": -0.6797033612,
				"z": -1.2738040935,
				"element": "C" 
			},
			{
				"x": -1.3899361975,
				"y": 0.9031016333,
				"z": -0.124557825,
				"element": "N" 
			},
			{
				"x": -2.6994041196,
				"y": 1.0890390674,
				"z": 0.1139550094,
				"element": "C" 
			},
			{
				"x": -3.2678454235,
				"y": 1.1567144586,
				"z": 1.3747953016,
				"element": "C" 
			},
			{
				"x": -2.3628621251,
				"y": 0.7487899832,
				"z": 4.5285301412,
				"element": "H" 
			},
			{
				"x": -3.9179436285,
				"y": 0.96133843,
				"z": 3.8989999154,
				"element": "H" 
			},
			{
				"x": -0.3507184413,
				"y": 0.7066263607,
				"z": 3.0818508361,
				"element": "H" 
			},
			{
				"x": 2.7230129806,
				"y": 1.9363974054,
				"z": -0.1194393506,
				"element": "H" 
			},
			{
				"x": 3.9735926082,
				"y": 1.471361753,
				"z": -2.2316189037,
				"element": "H" 
			},
			{
				"x": 3.229244508,
				"y": -0.3733444885,
				"z": -3.728175786,
				"element": "H" 
			},
			{
				"x": 1.2511087428,
				"y": -1.7432697295,
				"z": -3.1013453945,
				"element": "H" 
			},
			{
				"x": 0.0190344908,
				"y": -1.2709905694,
				"z": -0.9982251685,
				"element": "H" 
			},
			{
				"x": -3.3286807767,
				"y": 1.1911422239,
				"z": -0.7684918621,
				"element": "H" 
			},
			{
				"x": -4.3351055025,
				"y": 1.3164273683,
				"z": 1.4937116609,
				"element": "H" 
			}
		],
		 "valence_orbital": [ 
			{
				"type": "occ",
				"energy": -0.26116,
				"method": "rhf"
			},
			{
				"type": "occ",
				"energy": -0.24475,
				"method": "rhf"
			},
			{
				"type": "occ",
				"energy": -0.24089,
				"method": "rhf"
			},
			{
				"type": "occ",
				"energy": -0.22681,
				"method": "rhf"
			},
			{
				"type": "occ",
				"energy": -0.21534,
				"method": "rhf"
			},
			{
				"type": "unocc",
				"energy": -0.00292,
				"method": "rhf"
			},
			{
				"type": "unocc",
				"energy": 0.00271,
				"method": "rhf"
			},
			{
				"type": "unocc",
				"energy": 0.00853,
				"method": "rhf"
			},
			{
				"type": "unocc",
				"energy": 0.0235,
				"method": "rhf"
			},
			{
				"type": "unocc",
				"energy": 0.07276,
				"method": "rhf"
			}
		],
		"cosmo_sigma_profile": { 
			"-0.025": 0.0,
			"-0.024": 0.0,
			"-0.023": 0.0,
			"-0.022": 0.0,
			"-0.021": 0.0,
			"-0.02": 0.0,
			"-0.019": 0.0,
			"-0.018": 0.0,
			"-0.017": 0.0,
			"-0.016": 0.0,
			"-0.015": 0.0,
			"-0.014": 0.445759884698,
			"-0.013": 2.52219131457,
			"-0.012": 2.94275000298,
			"-0.011": 2.65083710086,
			"-0.01": 2.9467603073,
			"-0.009": 3.15854783438,
			"-0.008": 2.81054862671,
			"-0.007": 4.90980077292,
			"-0.006": 12.2118067008,
			"-0.005": 15.1017240996,
			"-0.004": 16.367819821,
			"-0.003": 14.0918630269,
			"-0.002": 11.6151859298,
			"-0.001": 10.2330369216,
			"0.0": 11.0079546329,
			"0.001": 12.9407384538,
			"0.002": 15.0647185846,
			"0.003": 22.6973399423,
			"0.004": 22.5273268384,
			"0.005": 15.3927680287,
			"0.006": 8.50878715322,
			"0.007": 4.26575577728,
			"0.008": 3.68972081024,
			"0.009": 2.81419473667,
			"0.01": 1.64529880493,
			"0.011": 1.92250959124,
			"0.012": 1.50617314583,
			"0.013": 0.941163778425,
			"0.014": 1.14526891218,
			"0.015": 0.548099495635,
			"0.016": 0.0556425345314,
			"0.017": 0.0,
			"0.018": 0.0,
			"0.019": 0.0,
			"0.02": 0.0,
			"0.021": 0.0,
			"0.022": 0.0,
			"0.023": 0.0,
			"0.024": 0.0,
			"0.025": 0.0
		}
	}
}
