{
	 "smiles": "CC1=NC=C(C(O)=O)C(Br)=C1", 
	 "Tm": 393.15, 
	 "num_atms": 17, 
	 "gaussian": { 
		 "optdone": 1, 
		 "sigma_profile": "yes", 
		 "theory": "DFT", 
		 "functional": "B3LYP", 
		 "basiset": "6-31G**", 
		 "properties": { 
			 "R2extent": 3127.7722, 
			 "electric_dipole_moment_norm": 5.33633290004, 
			 "electric_quadrupole_moment_norm": 8.4924935861, 
			 "total_energy": -3046.97050367, 
			 "HOMO_LUMO_gap": 0.20014, 
			 "cosmo_polarized_energy": -12.22, 
			 "cosmo_cavitation_energy": 23.65, 
			 "cosmo_dispersion_energy": -18.17, 
			 "cosmo_repulsion_energy": 1.44, 
			 "cosmo_total_nonelectrostatic_energy": 6.93, 
			 "SMD_solvation_energy": 2.97 
		},
		"coords": [
			{
				"x": -1.8083486469,
				"y": -2.8396666882,
				"z": -0.8917107932,
				"element": "C" 
			},
			{
				"x": -0.9690293664,
				"y": -1.7922699605,
				"z": -0.2111366725,
				"element": "C" 
			},
			{
				"x": -1.6265572858,
				"y": -0.8479194956,
				"z": 0.4852400222,
				"element": "N" 
			},
			{
				"x": -0.9101467159,
				"y": 0.0884985684,
				"z": 1.0959070957,
				"element": "C" 
			},
			{
				"x": 0.4991372582,
				"y": 0.190405725,
				"z": 1.0842654109,
				"element": "C" 
			},
			{
				"x": 1.047852363,
				"y": 1.3637185203,
				"z": 1.8699751928,
				"element": "C" 
			},
			{
				"x": 2.3745019975,
				"y": 1.5673321224,
				"z": 1.9216941001,
				"element": "O" 
			},
			{
				"x": 0.2994400339,
				"y": 2.1183035471,
				"z": 2.449734065,
				"element": "O" 
			},
			{
				"x": 1.1525536952,
				"y": -0.807427629,
				"z": 0.3507894071,
				"element": "C" 
			},
			{
				"x": 3.066014207,
				"y": -0.9262381953,
				"z": 0.156722649,
				"element": "Br" 
			},
			{
				"x": 0.4265209269,
				"y": -1.8012526849,
				"z": -0.2989435775,
				"element": "C" 
			},
			{
				"x": -2.4159624816,
				"y": -3.37040071,
				"z": -0.1517790491,
				"element": "H" 
			},
			{
				"x": -2.5026786877,
				"y": -2.3648479097,
				"z": -1.5922675463,
				"element": "H" 
			},
			{
				"x": -1.1986305142,
				"y": -3.5652526824,
				"z": -1.4348417778,
				"element": "H" 
			},
			{
				"x": -1.4518817867,
				"y": 0.8455400235,
				"z": 1.6554585758,
				"element": "H" 
			},
			{
				"x": 2.8687631207,
				"y": 0.8967343432,
				"z": 1.4191016769,
				"element": "H" 
			},
			{
				"x": 0.9378518829,
				"y": -2.5706568944,
				"z": -0.8647087791,
				"element": "H" 
			}
		],
		 "valence_orbital": [ 
			{
				"type": "occ",
				"energy": -0.31988,
				"method": "rhf"
			},
			{
				"type": "occ",
				"energy": -0.29293,
				"method": "rhf"
			},
			{
				"type": "occ",
				"energy": -0.28709,
				"method": "rhf"
			},
			{
				"type": "occ",
				"energy": -0.28018,
				"method": "rhf"
			},
			{
				"type": "occ",
				"energy": -0.27107,
				"method": "rhf"
			},
			{
				"type": "unocc",
				"energy": -0.07093,
				"method": "rhf"
			},
			{
				"type": "unocc",
				"energy": -0.04653,
				"method": "rhf"
			},
			{
				"type": "unocc",
				"energy": -0.03522,
				"method": "rhf"
			},
			{
				"type": "unocc",
				"energy": 0.0355,
				"method": "rhf"
			},
			{
				"type": "unocc",
				"energy": 0.09676,
				"method": "rhf"
			}
		],
		"cosmo_sigma_profile": { 
			"-0.025": 0.0,
			"-0.024": 0.0,
			"-0.023": 0.0,
			"-0.022": 0.0,
			"-0.021": 0.0,
			"-0.02": 0.0,
			"-0.019": 0.0,
			"-0.018": 0.0,
			"-0.017": 0.0,
			"-0.016": 0.0,
			"-0.015": 0.0,
			"-0.014": 0.0,
			"-0.013": 0.0,
			"-0.012": 0.0,
			"-0.011": 0.331515916301,
			"-0.01": 1.3621336302,
			"-0.009": 2.2816963244,
			"-0.008": 5.35596699359,
			"-0.007": 4.88169016565,
			"-0.006": 8.69582246732,
			"-0.005": 13.0736487237,
			"-0.004": 13.2879110695,
			"-0.003": 14.7367425146,
			"-0.002": 23.3658104179,
			"-0.001": 27.3983133632,
			"0.0": 13.8097010496,
			"0.001": 11.0231312112,
			"0.002": 7.65168113097,
			"0.003": 5.31889778702,
			"0.004": 3.97958616018,
			"0.005": 2.88562702973,
			"0.006": 3.242881903,
			"0.007": 3.50770578792,
			"0.008": 3.73976770615,
			"0.009": 4.2658694505,
			"0.01": 5.66287115691,
			"0.011": 6.31340958116,
			"0.012": 3.74472194828,
			"0.013": 1.66950059489,
			"0.014": 0.972706229219,
			"0.015": 0.572494796884,
			"0.016": 0.0398212190077,
			"0.017": 0.0,
			"0.018": 0.0,
			"0.019": 0.0,
			"0.02": 0.0,
			"0.021": 0.0,
			"0.022": 0.0,
			"0.023": 0.0,
			"0.024": 0.0,
			"0.025": 0.0
		}
	}
}
