{
	 "smiles": "O=CC1=CC=NC2=CC=CC=C12", 
	 "Tm": 323.65, 
	 "num_atms": 19, 
	 "gaussian": { 
		 "optdone": 1, 
		 "sigma_profile": "yes", 
		 "theory": "DFT", 
		 "functional": "B3LYP", 
		 "basiset": "6-31G**", 
		 "properties": { 
			 "R2extent": 1986.5756, 
			 "electric_dipole_moment_norm": 2.40037155457, 
			 "electric_quadrupole_moment_norm": 9.53095551296, 
			 "total_energy": -515.247595806, 
			 "HOMO_LUMO_gap": 0.15294, 
			 "cosmo_polarized_energy": -9.03, 
			 "cosmo_cavitation_energy": 23.39, 
			 "cosmo_dispersion_energy": -17.48, 
			 "cosmo_repulsion_energy": 1.35, 
			 "cosmo_total_nonelectrostatic_energy": 7.26, 
			 "SMD_solvation_energy": 3.52 
		},
		"coords": [
			{
				"x": -1.6413550925,
				"y": -1.7473444745,
				"z": 2.0395712997,
				"element": "O" 
			},
			{
				"x": -0.6976537002,
				"y": -1.4669171348,
				"z": 1.3248529495,
				"element": "C" 
			},
			{
				"x": -0.6119908671,
				"y": -0.2023673582,
				"z": 0.5414344177,
				"element": "C" 
			},
			{
				"x": -1.6624067427,
				"y": 0.6916502584,
				"z": 0.6375808377,
				"element": "C" 
			},
			{
				"x": -1.6166169375,
				"y": 1.899455552,
				"z": -0.0895693222,
				"element": "C" 
			},
			{
				"x": -0.6146991366,
				"y": 2.2447200976,
				"z": -0.8759577377,
				"element": "N" 
			},
			{
				"x": 0.4364464457,
				"y": 1.383986676,
				"z": -0.9918209995,
				"element": "C" 
			},
			{
				"x": 1.5076245383,
				"y": 1.7697534052,
				"z": -1.8421419761,
				"element": "C" 
			},
			{
				"x": 2.6000189069,
				"y": 0.9514232156,
				"z": -2.0066188951,
				"element": "C" 
			},
			{
				"x": 2.6661188748,
				"y": -0.2887055072,
				"z": -1.3262028533,
				"element": "C" 
			},
			{
				"x": 1.6453729298,
				"y": -0.6935098217,
				"z": -0.4943994157,
				"element": "C" 
			},
			{
				"x": 0.4994693218,
				"y": 0.125920255,
				"z": -0.2991905618,
				"element": "C" 
			},
			{
				"x": 0.1544699395,
				"y": -2.1671642953,
				"z": 1.2323955306,
				"element": "H" 
			},
			{
				"x": -2.5073772386,
				"y": 0.4484029582,
				"z": 1.2730007574,
				"element": "H" 
			},
			{
				"x": -2.4419646264,
				"y": 2.6061414795,
				"z": -0.0164835214,
				"element": "H" 
			},
			{
				"x": 1.4218509695,
				"y": 2.7263809124,
				"z": -2.3466684963,
				"element": "H" 
			},
			{
				"x": 3.415835649,
				"y": 1.2511074662,
				"z": -2.6576005394,
				"element": "H" 
			},
			{
				"x": 3.5330586063,
				"y": -0.9284921965,
				"z": -1.4623376948,
				"element": "H" 
			},
			{
				"x": 1.72669816,
				"y": -1.6487414879,
				"z": 0.0118562209,
				"element": "H" 
			}
		],
		 "valence_orbital": [ 
			{
				"type": "occ",
				"energy": -0.31323,
				"method": "rhf"
			},
			{
				"type": "occ",
				"energy": -0.27316,
				"method": "rhf"
			},
			{
				"type": "occ",
				"energy": -0.26355,
				"method": "rhf"
			},
			{
				"type": "occ",
				"energy": -0.26079,
				"method": "rhf"
			},
			{
				"type": "occ",
				"energy": -0.24456,
				"method": "rhf"
			},
			{
				"type": "unocc",
				"energy": -0.09162,
				"method": "rhf"
			},
			{
				"type": "unocc",
				"energy": -0.0282,
				"method": "rhf"
			},
			{
				"type": "unocc",
				"energy": -0.02575,
				"method": "rhf"
			},
			{
				"type": "unocc",
				"energy": 0.03589,
				"method": "rhf"
			},
			{
				"type": "unocc",
				"energy": 0.08141,
				"method": "rhf"
			}
		],
		"cosmo_sigma_profile": { 
			"-0.025": 0.0,
			"-0.024": 0.0,
			"-0.023": 0.0,
			"-0.022": 0.0,
			"-0.021": 0.0,
			"-0.02": 0.0,
			"-0.019": 0.0,
			"-0.018": 0.0,
			"-0.017": 0.0,
			"-0.016": 0.0,
			"-0.015": 0.0,
			"-0.014": 0.0,
			"-0.013": 0.0,
			"-0.012": 0.0,
			"-0.011": 0.0,
			"-0.01": 0.79470120137,
			"-0.009": 2.48585649717,
			"-0.008": 2.78930147903,
			"-0.007": 7.98164919449,
			"-0.006": 13.8358382883,
			"-0.005": 14.9944885225,
			"-0.004": 11.8968888855,
			"-0.003": 10.0884116762,
			"-0.002": 11.3464678059,
			"-0.001": 11.6609052504,
			"0.0": 19.5192633559,
			"0.001": 15.6640427747,
			"0.002": 14.705686992,
			"0.003": 14.3262408683,
			"0.004": 8.93020793558,
			"0.005": 3.09208161939,
			"0.006": 2.41336203815,
			"0.007": 3.32090398335,
			"0.008": 3.34649252305,
			"0.009": 3.19461512803,
			"0.01": 4.09206178052,
			"0.011": 4.19001080085,
			"0.012": 2.36353851971,
			"0.013": 0.439244651722,
			"0.014": 0.914723351349,
			"0.015": 0.611835198379,
			"0.016": 0.16606804026,
			"0.017": 0.0,
			"0.018": 0.0,
			"0.019": 0.0,
			"0.02": 0.0,
			"0.021": 0.0,
			"0.022": 0.0,
			"0.023": 0.0,
			"0.024": 0.0,
			"0.025": 0.0
		}
	}
}
