{
	 "smiles": "CCCCCCCCCCCCCCCCCC(=O)OCC(O)CO", 
	 "Tm": 347.15, 
	 "num_atms": 67, 
	 "gaussian": { 
		 "optdone": 1, 
		 "sigma_profile": "yes", 
		 "theory": "DFT", 
		 "functional": "B3LYP", 
		 "basiset": "6-31G**", 
		 "properties": { 
			 "R2extent": 18841.402, 
			 "electric_dipole_moment_norm": 3.57438402665, 
			 "electric_quadrupole_moment_norm": 29.4494835123, 
			 "total_energy": -1126.49080768, 
			 "HOMO_LUMO_gap": 0.26923, 
			 "cosmo_polarized_energy": -14.5, 
			 "cosmo_cavitation_energy": 65.83, 
			 "cosmo_dispersion_energy": -42.78, 
			 "cosmo_repulsion_energy": 3.52, 
			 "cosmo_total_nonelectrostatic_energy": 26.57, 
			 "SMD_solvation_energy": 9.51 
		},
		"coords": [
			{
				"x": -5.0869045206,
				"y": -3.1228100777,
				"z": -0.6460703587,
				"element": "C" 
			},
			{
				"x": -3.9535006065,
				"y": -3.5023434802,
				"z": 0.3147767895,
				"element": "C" 
			},
			{
				"x": -2.6827954278,
				"y": -4.0333659359,
				"z": -0.3712242451,
				"element": "C" 
			},
			{
				"x": -1.9381248992,
				"y": -2.9947124354,
				"z": -1.2228529241,
				"element": "C" 
			},
			{
				"x": -0.6850842651,
				"y": -3.5359911012,
				"z": -1.9357448684,
				"element": "C" 
			},
			{
				"x": 0.4571119802,
				"y": -4.0222823549,
				"z": -1.0258193161,
				"element": "C" 
			},
			{
				"x": 1.0844205285,
				"y": -2.9324139616,
				"z": -0.1449779828,
				"element": "C" 
			},
			{
				"x": 2.275896954,
				"y": -3.4426101499,
				"z": 0.6788183337,
				"element": "C" 
			},
			{
				"x": 2.8927046377,
				"y": -2.4074563308,
				"z": 1.634081494,
				"element": "C" 
			},
			{
				"x": 3.5834213889,
				"y": -1.2225954165,
				"z": 0.9432618889,
				"element": "C" 
			},
			{
				"x": 4.2390915992,
				"y": -0.2517761806,
				"z": 1.9362144149,
				"element": "C" 
			},
			{
				"x": 5.016977484,
				"y": 0.9075448763,
				"z": 1.2917581642,
				"element": "C" 
			},
			{
				"x": 4.1542117278,
				"y": 1.9129967457,
				"z": 0.5144590659,
				"element": "C" 
			},
			{
				"x": 4.9723049764,
				"y": 3.0843593803,
				"z": -0.0487323917,
				"element": "C" 
			},
			{
				"x": 4.1758084769,
				"y": 4.2170867812,
				"z": -0.7207097058,
				"element": "C" 
			},
			{
				"x": 3.4153892204,
				"y": 3.8403537688,
				"z": -2.0110485258,
				"element": "C" 
			},
			{
				"x": 1.9821815201,
				"y": 3.3309917306,
				"z": -1.8088057035,
				"element": "C" 
			},
			{
				"x": 1.0219468489,
				"y": 4.4189984799,
				"z": -1.3660966458,
				"element": "C" 
			},
			{
				"x": 1.2476126334,
				"y": 5.609480166,
				"z": -1.3708111288,
				"element": "O" 
			},
			{
				"x": -0.1623539333,
				"y": 3.8815033898,
				"z": -0.9706670643,
				"element": "O" 
			},
			{
				"x": -1.1803689937,
				"y": 4.8085874647,
				"z": -0.5313133335,
				"element": "C" 
			},
			{
				"x": -2.0206826255,
				"y": 5.3511747943,
				"z": -1.6968461886,
				"element": "C" 
			},
			{
				"x": -3.0352217371,
				"y": 6.1848725549,
				"z": -1.1604805372,
				"element": "O" 
			},
			{
				"x": -2.6542753676,
				"y": 4.2475709816,
				"z": -2.548656534,
				"element": "C" 
			},
			{
				"x": -3.6707882513,
				"y": 3.5669000946,
				"z": -1.8053339045,
				"element": "O" 
			},
			{
				"x": -5.9780511642,
				"y": -2.8019816173,
				"z": -0.0964490722,
				"element": "H" 
			},
			{
				"x": -5.3732959359,
				"y": -3.9754694175,
				"z": -1.2729280297,
				"element": "H" 
			},
			{
				"x": -4.8027746829,
				"y": -2.3032321717,
				"z": -1.3140438326,
				"element": "H" 
			},
			{
				"x": -3.6921989433,
				"y": -2.632805409,
				"z": 0.9340151401,
				"element": "H" 
			},
			{
				"x": -4.3213093098,
				"y": -4.2673014925,
				"z": 1.010576722,
				"element": "H" 
			},
			{
				"x": -2.008105563,
				"y": -4.4205866293,
				"z": 0.4026287182,
				"element": "H" 
			},
			{
				"x": -2.9464930997,
				"y": -4.8952021165,
				"z": -1.0018973104,
				"element": "H" 
			},
			{
				"x": -1.668240046,
				"y": -2.1378978174,
				"z": -0.5900073785,
				"element": "H" 
			},
			{
				"x": -2.6164021692,
				"y": -2.5981475676,
				"z": -1.988565792,
				"element": "H" 
			},
			{
				"x": -0.2938165408,
				"y": -2.752556691,
				"z": -2.5995398028,
				"element": "H" 
			},
			{
				"x": -0.9866097224,
				"y": -4.3634750304,
				"z": -2.5925872877,
				"element": "H" 
			},
			{
				"x": 1.2416153008,
				"y": -4.4550935251,
				"z": -1.6615918255,
				"element": "H" 
			},
			{
				"x": 0.105983734,
				"y": -4.845040736,
				"z": -0.3887800224,
				"element": "H" 
			},
			{
				"x": 0.3297403568,
				"y": -2.5230992347,
				"z": 0.5405534087,
				"element": "H" 
			},
			{
				"x": 1.3996967802,
				"y": -2.0966772191,
				"z": -0.7843528699,
				"element": "H" 
			},
			{
				"x": 1.9486494177,
				"y": -4.3112772582,
				"z": 1.2664297341,
				"element": "H" 
			},
			{
				"x": 3.0541313853,
				"y": -3.8162821224,
				"z": -0.0022895061,
				"element": "H" 
			},
			{
				"x": 3.6257285951,
				"y": -2.9141766547,
				"z": 2.2765624912,
				"element": "H" 
			},
			{
				"x": 2.1121589774,
				"y": -2.0282053637,
				"z": 2.3095957554,
				"element": "H" 
			},
			{
				"x": 2.8571942787,
				"y": -0.682927708,
				"z": 0.3234599977,
				"element": "H" 
			},
			{
				"x": 4.3496944996,
				"y": -1.6050360735,
				"z": 0.2526938364,
				"element": "H" 
			},
			{
				"x": 4.9251374253,
				"y": -0.8190679769,
				"z": 2.5799354872,
				"element": "H" 
			},
			{
				"x": 3.4682947988,
				"y": 0.1574648809,
				"z": 2.6053224239,
				"element": "H" 
			},
			{
				"x": 5.5591257849,
				"y": 1.4481453761,
				"z": 2.0794847307,
				"element": "H" 
			},
			{
				"x": 5.7874834101,
				"y": 0.4987210374,
				"z": 0.6221390966,
				"element": "H" 
			},
			{
				"x": 3.3679483728,
				"y": 2.3016375152,
				"z": 1.1786452026,
				"element": "H" 
			},
			{
				"x": 3.6395178994,
				"y": 1.394291458,
				"z": -0.30331738,
				"element": "H" 
			},
			{
				"x": 5.558891219,
				"y": 3.5223553996,
				"z": 0.7707610432,
				"element": "H" 
			},
			{
				"x": 5.7084292667,
				"y": 2.692504639,
				"z": -0.7657597085,
				"element": "H" 
			},
			{
				"x": 3.47671151,
				"y": 4.6615865178,
				"z": -0.001081965,
				"element": "H" 
			},
			{
				"x": 4.8855375518,
				"y": 5.0159601786,
				"z": -0.9665132874,
				"element": "H" 
			},
			{
				"x": 3.3603841121,
				"y": 4.7200914244,
				"z": -2.6600245175,
				"element": "H" 
			},
			{
				"x": 3.9832317934,
				"y": 3.0800640406,
				"z": -2.5623305808,
				"element": "H" 
			},
			{
				"x": 1.5840883423,
				"y": 2.9257193345,
				"z": -2.7492318227,
				"element": "H" 
			},
			{
				"x": 1.9230079494,
				"y": 2.5114660836,
				"z": -1.0868929495,
				"element": "H" 
			},
			{
				"x": -1.8121791415,
				"y": 4.2370944958,
				"z": 0.1551173482,
				"element": "H" 
			},
			{
				"x": -0.7230379303,
				"y": 5.6404734746,
				"z": 0.0060557038,
				"element": "H" 
			},
			{
				"x": -1.3791091963,
				"y": 5.9747006406,
				"z": -2.3296196794,
				"element": "H" 
			},
			{
				"x": -3.7639911067,
				"y": 5.5833604349,
				"z": -0.9370310265,
				"element": "H" 
			},
			{
				"x": -3.1631300048,
				"y": 4.705490353,
				"z": -3.4017829758,
				"element": "H" 
			},
			{
				"x": -1.8946446387,
				"y": 3.5528412167,
				"z": -2.9271871647,
				"element": "H" 
			},
			{
				"x": -3.2443729147,
				"y": 2.8981075474,
				"z": -1.2546498444,
				"element": "H" 
			}
		],
		 "valence_orbital": [ 
			{
				"type": "occ",
				"energy": -0.29956,
				"method": "rhf"
			},
			{
				"type": "occ",
				"energy": -0.29708,
				"method": "rhf"
			},
			{
				"type": "occ",
				"energy": -0.29299,
				"method": "rhf"
			},
			{
				"type": "occ",
				"energy": -0.27542,
				"method": "rhf"
			},
			{
				"type": "occ",
				"energy": -0.26196,
				"method": "rhf"
			},
			{
				"type": "unocc",
				"energy": 0.00727,
				"method": "rhf"
			},
			{
				"type": "unocc",
				"energy": 0.05335,
				"method": "rhf"
			},
			{
				"type": "unocc",
				"energy": 0.0767,
				"method": "rhf"
			},
			{
				"type": "unocc",
				"energy": 0.08084,
				"method": "rhf"
			},
			{
				"type": "unocc",
				"energy": 0.09314,
				"method": "rhf"
			}
		],
		"cosmo_sigma_profile": { 
			"-0.025": 0.0,
			"-0.024": 0.0,
			"-0.023": 0.0,
			"-0.022": 0.0,
			"-0.021": 0.0,
			"-0.02": 0.0,
			"-0.019": 0.0,
			"-0.018": 0.0,
			"-0.017": 0.0,
			"-0.016": 0.324233088643,
			"-0.015": 0.964666642795,
			"-0.014": 1.12136141139,
			"-0.013": 0.879832035805,
			"-0.012": 1.13979100504,
			"-0.011": 1.36803759813,
			"-0.01": 1.73640643414,
			"-0.009": 1.45562678365,
			"-0.008": 2.46074449866,
			"-0.007": 3.20460197225,
			"-0.006": 5.20518927984,
			"-0.005": 11.4083322497,
			"-0.004": 17.2520118994,
			"-0.003": 22.0009726294,
			"-0.002": 62.9470192335,
			"-0.001": 97.0481818365,
			"0.0": 101.260443827,
			"0.001": 81.917709686,
			"0.002": 35.7713923941,
			"0.003": 6.05338487599,
			"0.004": 5.51150705079,
			"0.005": 5.1216600842,
			"0.006": 4.56369979732,
			"0.007": 4.47374291232,
			"0.008": 4.42105459782,
			"0.009": 4.71021498352,
			"0.01": 2.82330074329,
			"0.011": 4.88176881339,
			"0.012": 5.99004351482,
			"0.013": 3.33660131689,
			"0.014": 2.6287413872,
			"0.015": 0.312168558347,
			"0.016": 0.0,
			"0.017": 0.0,
			"0.018": 0.0,
			"0.019": 0.0,
			"0.02": 0.0,
			"0.021": 0.0,
			"0.022": 0.0,
			"0.023": 0.0,
			"0.024": 0.0,
			"0.025": 0.0
		}
	}
}
