{
	 "smiles": "NS(=O)(=O)C1=CC=C(OCCBr)C=C1", 
	 "Tm": 385.15, 
	 "num_atms": 24, 
	 "gaussian": { 
		 "optdone": 1, 
		 "sigma_profile": "yes", 
		 "theory": "DFT", 
		 "functional": "B3LYP", 
		 "basiset": "6-31G**", 
		 "properties": { 
			 "R2extent": 9599.4843, 
			 "electric_dipole_moment_norm": 3.55660477141, 
			 "electric_quadrupole_moment_norm": 16.9563037225, 
			 "total_energy": -3560.81875948, 
			 "HOMO_LUMO_gap": 0.21444, 
			 "cosmo_polarized_energy": -18.11, 
			 "cosmo_cavitation_energy": 32.22, 
			 "cosmo_dispersion_energy": -24.63, 
			 "cosmo_repulsion_energy": 1.93, 
			 "cosmo_total_nonelectrostatic_energy": 9.51, 
			 "SMD_solvation_energy": 4.04 
		},
		"coords": [
			{
				"x": 2.6828867425,
				"y": -0.1087547294,
				"z": -2.3489070405,
				"element": "N" 
			},
			{
				"x": 2.0558470031,
				"y": 1.2597851994,
				"z": -1.5615028978,
				"element": "S" 
			},
			{
				"x": 1.3205691304,
				"y": 2.0729964144,
				"z": -2.5369483906,
				"element": "O" 
			},
			{
				"x": 3.173973981,
				"y": 1.8021427893,
				"z": -0.7839119452,
				"element": "O" 
			},
			{
				"x": 0.8609936254,
				"y": 0.5676113162,
				"z": -0.4309705606,
				"element": "C" 
			},
			{
				"x": 1.2994285069,
				"y": -0.045489868,
				"z": 0.7497848197,
				"element": "C" 
			},
			{
				"x": 0.3685456095,
				"y": -0.5740962622,
				"z": 1.6292750707,
				"element": "C" 
			},
			{
				"x": -1.0043678104,
				"y": -0.4901551444,
				"z": 1.338104873,
				"element": "C" 
			},
			{
				"x": -1.8332577339,
				"y": -1.0404321109,
				"z": 2.2680608867,
				"element": "O" 
			},
			{
				"x": -3.2424968876,
				"y": -0.9894859744,
				"z": 2.0512301059,
				"element": "C" 
			},
			{
				"x": -3.8693513374,
				"y": -1.6774099057,
				"z": 3.2521778213,
				"element": "C" 
			},
			{
				"x": -5.8284476414,
				"y": -1.6742892823,
				"z": 3.0635564777,
				"element": "Br" 
			},
			{
				"x": -1.4381801094,
				"y": 0.1328197386,
				"z": 0.1613080184,
				"element": "C" 
			},
			{
				"x": -0.4966716191,
				"y": 0.6632852993,
				"z": -0.7228618163,
				"element": "C" 
			},
			{
				"x": 3.6936049241,
				"y": -0.0048807139,
				"z": -2.4011409961,
				"element": "H" 
			},
			{
				"x": 2.2784018471,
				"y": -0.1892320115,
				"z": -3.2787468751,
				"element": "H" 
			},
			{
				"x": 2.3589754418,
				"y": -0.0922663713,
				"z": 0.976343541,
				"element": "H" 
			},
			{
				"x": 0.6743402326,
				"y": -1.0523215446,
				"z": 2.5535420183,
				"element": "H" 
			},
			{
				"x": -3.5875504201,
				"y": 0.0491923022,
				"z": 1.9796540826,
				"element": "H" 
			},
			{
				"x": -3.5123251667,
				"y": -1.5114940993,
				"z": 1.1250127282,
				"element": "H" 
			},
			{
				"x": -3.5611343095,
				"y": -2.7192727929,
				"z": 3.3250283052,
				"element": "H" 
			},
			{
				"x": -3.6408968477,
				"y": -1.1547728354,
				"z": 4.1797593579,
				"element": "H" 
			},
			{
				"x": -2.4920723542,
				"y": 0.2168343356,
				"z": -0.0740593749,
				"element": "H" 
			},
			{
				"x": -0.8152148072,
				"y": 1.1627862509,
				"z": -1.6310882096,
				"element": "H" 
			}
		],
		 "valence_orbital": [ 
			{
				"type": "occ",
				"energy": -0.29162,
				"method": "rhf"
			},
			{
				"type": "occ",
				"energy": -0.29138,
				"method": "rhf"
			},
			{
				"type": "occ",
				"energy": -0.28819,
				"method": "rhf"
			},
			{
				"type": "occ",
				"energy": -0.27433,
				"method": "rhf"
			},
			{
				"type": "occ",
				"energy": -0.24442,
				"method": "rhf"
			},
			{
				"type": "unocc",
				"energy": -0.02998,
				"method": "rhf"
			},
			{
				"type": "unocc",
				"energy": -0.02359,
				"method": "rhf"
			},
			{
				"type": "unocc",
				"energy": -0.01412,
				"method": "rhf"
			},
			{
				"type": "unocc",
				"energy": 0.0548,
				"method": "rhf"
			},
			{
				"type": "unocc",
				"energy": 0.08232,
				"method": "rhf"
			}
		],
		"cosmo_sigma_profile": { 
			"-0.025": 0.0,
			"-0.024": 0.0,
			"-0.023": 0.0,
			"-0.022": 0.0,
			"-0.021": 0.0,
			"-0.02": 0.0,
			"-0.019": 0.0,
			"-0.018": 0.0,
			"-0.017": 0.0,
			"-0.016": 0.0,
			"-0.015": 0.771408412423,
			"-0.014": 2.38387586587,
			"-0.013": 2.25393693724,
			"-0.012": 3.64388989079,
			"-0.011": 1.68033399774,
			"-0.01": 1.82628993605,
			"-0.009": 1.82862417159,
			"-0.008": 6.36853052415,
			"-0.007": 14.8717184029,
			"-0.006": 19.6284810958,
			"-0.005": 14.8264688788,
			"-0.004": 12.5390306003,
			"-0.003": 12.2188062824,
			"-0.002": 13.5042416544,
			"-0.001": 11.6376845566,
			"0.0": 12.0808295075,
			"0.001": 15.1335248435,
			"0.002": 20.5928669692,
			"0.003": 20.1756724475,
			"0.004": 11.7032822196,
			"0.005": 14.3231177899,
			"0.006": 10.3255234658,
			"0.007": 4.96051740938,
			"0.008": 3.52052752398,
			"0.009": 4.66553713167,
			"0.01": 6.65097582965,
			"0.011": 10.2902176207,
			"0.012": 4.90397528519,
			"0.013": 0.110210583471,
			"0.014": 0.0,
			"0.015": 0.0,
			"0.016": 0.0,
			"0.017": 0.0,
			"0.018": 0.0,
			"0.019": 0.0,
			"0.02": 0.0,
			"0.021": 0.0,
			"0.022": 0.0,
			"0.023": 0.0,
			"0.024": 0.0,
			"0.025": 0.0
		}
	}
}
