{
	 "smiles": "CC1=C(C=NN1C1CCCCC1)C(O)=O", 
	 "Tm": 417.15, 
	 "num_atms": 31, 
	 "gaussian": { 
		 "optdone": 1, 
		 "sigma_profile": "yes", 
		 "theory": "DFT", 
		 "functional": "B3LYP", 
		 "basiset": "6-31G**", 
		 "properties": { 
			 "R2extent": 4351.2601, 
			 "electric_dipole_moment_norm": 4.48600221467, 
			 "electric_quadrupole_moment_norm": 24.2008857321, 
			 "total_energy": -688.772629489, 
			 "HOMO_LUMO_gap": 0.23186, 
			 "cosmo_polarized_energy": -15.11, 
			 "cosmo_cavitation_energy": 31.83, 
			 "cosmo_dispersion_energy": -23.21, 
			 "cosmo_repulsion_energy": 1.82, 
			 "cosmo_total_nonelectrostatic_energy": 10.44, 
			 "SMD_solvation_energy": 5.45 
		},
		"coords": [
			{
				"x": -0.7262803568,
				"y": -3.1467263367,
				"z": 1.039707089,
				"element": "C" 
			},
			{
				"x": 0.2670915567,
				"y": -2.0296953152,
				"z": 0.990537092,
				"element": "C" 
			},
			{
				"x": 1.4142351854,
				"y": -1.8105109098,
				"z": 1.7645708132,
				"element": "C" 
			},
			{
				"x": 1.9490528372,
				"y": -0.5957362411,
				"z": 1.2641328841,
				"element": "C" 
			},
			{
				"x": 1.2173555272,
				"y": -0.1026808145,
				"z": 0.2766848746,
				"element": "N" 
			},
			{
				"x": 0.1958104312,
				"y": -0.9875709322,
				"z": 0.1223320434,
				"element": "N" 
			},
			{
				"x": -0.7960983399,
				"y": -0.7816330071,
				"z": -0.9498548134,
				"element": "C" 
			},
			{
				"x": -1.3392010069,
				"y": 0.6789356858,
				"z": -0.9524546117,
				"element": "C" 
			},
			{
				"x": -1.0692903732,
				"y": 1.4203622037,
				"z": -2.2737051979,
				"element": "C" 
			},
			{
				"x": 0.4007100154,
				"y": 1.2795637994,
				"z": -2.6929575828,
				"element": "C" 
			},
			{
				"x": 0.8113091741,
				"y": -0.2054313751,
				"z": -2.8908024556,
				"element": "C" 
			},
			{
				"x": -0.2285025355,
				"y": -1.1900607714,
				"z": -2.3240345209,
				"element": "C" 
			},
			{
				"x": 1.9011481303,
				"y": -2.6715499109,
				"z": 2.8556531311,
				"element": "C" 
			},
			{
				"x": 3.1182406369,
				"y": -2.3484737881,
				"z": 3.3790521224,
				"element": "O" 
			},
			{
				"x": 1.3024714139,
				"y": -3.6249348434,
				"z": 3.3081489361,
				"element": "O" 
			},
			{
				"x": -0.4363226601,
				"y": -3.832803374,
				"z": 1.8349049001,
				"element": "H" 
			},
			{
				"x": -0.7660389218,
				"y": -3.6952591047,
				"z": 0.0919319897,
				"element": "H" 
			},
			{
				"x": -1.7353215472,
				"y": -2.7756397973,
				"z": 1.2529697318,
				"element": "H" 
			},
			{
				"x": 2.8222265892,
				"y": -0.0423492931,
				"z": 1.5906800092,
				"element": "H" 
			},
			{
				"x": -1.6087680817,
				"y": -1.4687231449,
				"z": -0.7046477083,
				"element": "H" 
			},
			{
				"x": -2.4139111478,
				"y": 0.6654190881,
				"z": -0.741113106,
				"element": "H" 
			},
			{
				"x": -0.86008039,
				"y": 1.2257149747,
				"z": -0.1362366039,
				"element": "H" 
			},
			{
				"x": -1.7271289523,
				"y": 1.0372848169,
				"z": -3.06521065,
				"element": "H" 
			},
			{
				"x": -1.3291029328,
				"y": 2.4776660449,
				"z": -2.1490224076,
				"element": "H" 
			},
			{
				"x": 0.5882866777,
				"y": 1.8526916076,
				"z": -3.6074784051,
				"element": "H" 
			},
			{
				"x": 1.0225041121,
				"y": 1.7198918419,
				"z": -1.9067471597,
				"element": "H" 
			},
			{
				"x": 1.7782433622,
				"y": -0.3822199202,
				"z": -2.4118225055,
				"element": "H" 
			},
			{
				"x": 0.9441254531,
				"y": -0.429944256,
				"z": -3.9553397126,
				"element": "H" 
			},
			{
				"x": 0.1921605912,
				"y": -2.2000979219,
				"z": -2.2619664165,
				"element": "H" 
			},
			{
				"x": -1.0841009256,
				"y": -1.2556015415,
				"z": -3.0073201511,
				"element": "H" 
			},
			{
				"x": 3.5208764777,
				"y": -1.624487464,
				"z": 2.8810083919,
				"element": "H" 
			}
		],
		 "valence_orbital": [ 
			{
				"type": "occ",
				"energy": -0.30774,
				"method": "rhf"
			},
			{
				"type": "occ",
				"energy": -0.30004,
				"method": "rhf"
			},
			{
				"type": "occ",
				"energy": -0.26504,
				"method": "rhf"
			},
			{
				"type": "occ",
				"energy": -0.26119,
				"method": "rhf"
			},
			{
				"type": "occ",
				"energy": -0.25093,
				"method": "rhf"
			},
			{
				"type": "unocc",
				"energy": -0.01907,
				"method": "rhf"
			},
			{
				"type": "unocc",
				"energy": 0.00786,
				"method": "rhf"
			},
			{
				"type": "unocc",
				"energy": 0.06262,
				"method": "rhf"
			},
			{
				"type": "unocc",
				"energy": 0.06566,
				"method": "rhf"
			},
			{
				"type": "unocc",
				"energy": 0.0965,
				"method": "rhf"
			}
		],
		"cosmo_sigma_profile": { 
			"-0.025": 0.0,
			"-0.024": 0.0,
			"-0.023": 0.0,
			"-0.022": 0.0,
			"-0.021": 0.0,
			"-0.02": 0.0,
			"-0.019": 0.052343810492,
			"-0.018": 0.747500506334,
			"-0.017": 1.36039297072,
			"-0.016": 0.726117611128,
			"-0.015": 0.81081629071,
			"-0.014": 1.20295366399,
			"-0.013": 1.2319178533,
			"-0.012": 0.876952300167,
			"-0.011": 1.3062133096,
			"-0.01": 1.26998853098,
			"-0.009": 1.05613119713,
			"-0.008": 1.60653901697,
			"-0.007": 2.6593743899,
			"-0.006": 6.99286909563,
			"-0.005": 11.4697637539,
			"-0.004": 12.7705150284,
			"-0.003": 19.8594084868,
			"-0.002": 25.5545664203,
			"-0.001": 32.7873471411,
			"0.0": 33.1207898295,
			"0.001": 23.8734794121,
			"0.002": 12.9119231233,
			"0.003": 8.33921056582,
			"0.004": 5.63506092358,
			"0.005": 4.57433912402,
			"0.006": 4.7490841414,
			"0.007": 3.78839820035,
			"0.008": 4.05515969334,
			"0.009": 4.94531819546,
			"0.01": 4.98623124659,
			"0.011": 5.73441581881,
			"0.012": 4.48150040649,
			"0.013": 2.67152601585,
			"0.014": 0.920494192752,
			"0.015": 0.0,
			"0.016": 0.0,
			"0.017": 0.0,
			"0.018": 0.0,
			"0.019": 0.0,
			"0.02": 0.0,
			"0.021": 0.0,
			"0.022": 0.0,
			"0.023": 0.0,
			"0.024": 0.0,
			"0.025": 0.0
		}
	}
}
