{
	 "smiles": "COC(=O)C(N)C1=CC(C)=C(O)C(C)=C1", 
	 "Tm": 421.15, 
	 "num_atms": 30, 
	 "gaussian": { 
		 "optdone": 1, 
		 "sigma_profile": "yes", 
		 "theory": "DFT", 
		 "functional": "B3LYP", 
		 "basiset": "6-31G**", 
		 "properties": { 
			 "R2extent": 4253.654, 
			 "electric_dipole_moment_norm": 0.972593100942, 
			 "electric_quadrupole_moment_norm": 19.3895441287, 
			 "total_energy": -708.644843516, 
			 "HOMO_LUMO_gap": 0.21138, 
			 "cosmo_polarized_energy": -16.02, 
			 "cosmo_cavitation_energy": 33.38, 
			 "cosmo_dispersion_energy": -23.28, 
			 "cosmo_repulsion_energy": 1.87, 
			 "cosmo_total_nonelectrostatic_energy": 11.96, 
			 "SMD_solvation_energy": 6.21 
		},
		"coords": [
			{
				"x": -3.8981526005,
				"y": 2.6779023948,
				"z": 0.458358976,
				"element": "C" 
			},
			{
				"x": -2.5122677813,
				"y": 2.7083216424,
				"z": 0.0768280918,
				"element": "O" 
			},
			{
				"x": -1.672812302,
				"y": 2.0364252428,
				"z": 0.9051496418,
				"element": "C" 
			},
			{
				"x": -2.0441542099,
				"y": 1.471427778,
				"z": 1.910026174,
				"element": "O" 
			},
			{
				"x": -0.2167321713,
				"y": 2.0792503747,
				"z": 0.4128343267,
				"element": "C" 
			},
			{
				"x": 0.1896435201,
				"y": 3.3052844062,
				"z": -0.2791004978,
				"element": "N" 
			},
			{
				"x": 0.0719254335,
				"y": 0.8580487003,
				"z": -0.4520713909,
				"element": "C" 
			},
			{
				"x": 1.1721436895,
				"y": 0.0448684308,
				"z": -0.1759423943,
				"element": "C" 
			},
			{
				"x": 1.4887975283,
				"y": -1.0597001774,
				"z": -0.9720140144,
				"element": "C" 
			},
			{
				"x": 2.6813137029,
				"y": -1.9354367948,
				"z": -0.6657401361,
				"element": "C" 
			},
			{
				"x": 0.6658076662,
				"y": -1.3412843023,
				"z": -2.0745820708,
				"element": "C" 
			},
			{
				"x": 0.9038500065,
				"y": -2.4052421449,
				"z": -2.9060544797,
				"element": "O" 
			},
			{
				"x": -0.4507747708,
				"y": -0.5465207433,
				"z": -2.3830524855,
				"element": "C" 
			},
			{
				"x": -1.3094874354,
				"y": -0.8893212827,
				"z": -3.5735072529,
				"element": "C" 
			},
			{
				"x": -0.7288646842,
				"y": 0.5441621175,
				"z": -1.558095218,
				"element": "C" 
			},
			{
				"x": -4.4257975587,
				"y": 3.2632395,
				"z": -0.294813971,
				"element": "H" 
			},
			{
				"x": -4.2695439229,
				"y": 1.6501962276,
				"z": 0.476665875,
				"element": "H" 
			},
			{
				"x": -4.032522423,
				"y": 3.1166064813,
				"z": 1.4500546864,
				"element": "H" 
			},
			{
				"x": 0.378184435,
				"y": 1.9918261513,
				"z": 1.327650449,
				"element": "H" 
			},
			{
				"x": -0.3251135412,
				"y": 3.3843050511,
				"z": -1.1526482618,
				"element": "H" 
			},
			{
				"x": -0.0684300146,
				"y": 4.1182438949,
				"z": 0.2769201859,
				"element": "H" 
			},
			{
				"x": 1.8058819881,
				"y": 0.2744677252,
				"z": 0.6771391249,
				"element": "H" 
			},
			{
				"x": 3.4080212335,
				"y": -1.9481800233,
				"z": -1.4899708256,
				"element": "H" 
			},
			{
				"x": 2.390281751,
				"y": -2.9759939774,
				"z": -0.4651709529,
				"element": "H" 
			},
			{
				"x": 3.2100847749,
				"y": -1.5759672114,
				"z": 0.2199449347,
				"element": "H" 
			},
			{
				"x": 1.6865722673,
				"y": -2.8811297321,
				"z": -2.6023680012,
				"element": "H" 
			},
			{
				"x": -0.7267006349,
				"y": -0.8761031584,
				"z": -4.5012854075,
				"element": "H" 
			},
			{
				"x": -2.1358407403,
				"y": -0.1810161434,
				"z": -3.6759806252,
				"element": "H" 
			},
			{
				"x": -1.7282588766,
				"y": -1.8979326976,
				"z": -3.4847916975,
				"element": "H" 
			},
			{
				"x": -1.5970543293,
				"y": 1.15785227,
				"z": -1.7846827829,
				"element": "H" 
			}
		],
		 "valence_orbital": [ 
			{
				"type": "occ",
				"energy": -0.3005,
				"method": "rhf"
			},
			{
				"type": "occ",
				"energy": -0.28694,
				"method": "rhf"
			},
			{
				"type": "occ",
				"energy": -0.23795,
				"method": "rhf"
			},
			{
				"type": "occ",
				"energy": -0.22981,
				"method": "rhf"
			},
			{
				"type": "occ",
				"energy": -0.21241,
				"method": "rhf"
			},
			{
				"type": "unocc",
				"energy": -0.00103,
				"method": "rhf"
			},
			{
				"type": "unocc",
				"energy": 0.00461,
				"method": "rhf"
			},
			{
				"type": "unocc",
				"energy": 0.02776,
				"method": "rhf"
			},
			{
				"type": "unocc",
				"energy": 0.06399,
				"method": "rhf"
			},
			{
				"type": "unocc",
				"energy": 0.08681,
				"method": "rhf"
			}
		],
		"cosmo_sigma_profile": { 
			"-0.025": 0.0,
			"-0.024": 0.0,
			"-0.023": 0.0,
			"-0.022": 0.0,
			"-0.021": 0.0,
			"-0.02": 0.0,
			"-0.019": 0.0,
			"-0.018": 0.0,
			"-0.017": 0.0,
			"-0.016": 0.360501652549,
			"-0.015": 0.701332214221,
			"-0.014": 0.943250258353,
			"-0.013": 0.992895236092,
			"-0.012": 1.13119628189,
			"-0.011": 1.35910511045,
			"-0.01": 3.07313337188,
			"-0.009": 3.62973160302,
			"-0.008": 3.06555531955,
			"-0.007": 4.81758949607,
			"-0.006": 12.3391491466,
			"-0.005": 19.857603932,
			"-0.004": 22.7434277473,
			"-0.003": 23.8713381112,
			"-0.002": 18.5552246663,
			"-0.001": 20.7758931833,
			"0.0": 19.8429156193,
			"0.001": 14.5010753693,
			"0.002": 11.6710553774,
			"0.003": 11.8397277898,
			"0.004": 11.5531814503,
			"0.005": 11.1944442518,
			"0.006": 9.43574173008,
			"0.007": 4.76767177092,
			"0.008": 4.39813446938,
			"0.009": 4.37604612567,
			"0.01": 4.801936279,
			"0.011": 4.26488914093,
			"0.012": 5.47423514728,
			"0.013": 2.01533056225,
			"0.014": 0.892486832724,
			"0.015": 0.566354304367,
			"0.016": 0.622981764578,
			"0.017": 0.607400554304,
			"0.018": 0.711061403319,
			"0.019": 0.142189273556,
			"0.02": 0.0,
			"0.021": 0.0,
			"0.022": 0.0,
			"0.023": 0.0,
			"0.024": 0.0,
			"0.025": 0.0
		}
	}
}
