{
	 "smiles": "CC(CC(N)=S)N1C=C(Cl)C=N1", 
	 "Tm": 402.15, 
	 "num_atms": 22, 
	 "gaussian": { 
		 "optdone": 1, 
		 "sigma_profile": "yes", 
		 "theory": "DFT", 
		 "functional": "B3LYP", 
		 "basiset": "6-31G**", 
		 "properties": { 
			 "R2extent": 4784.5566, 
			 "electric_dipole_moment_norm": 3.96824756914, 
			 "electric_quadrupole_moment_norm": 30.0371429444, 
			 "total_energy": -1295.39556271, 
			 "HOMO_LUMO_gap": 0.17281, 
			 "cosmo_polarized_energy": -15.31, 
			 "cosmo_cavitation_energy": 28.83, 
			 "cosmo_dispersion_energy": -21.39, 
			 "cosmo_repulsion_energy": 1.68, 
			 "cosmo_total_nonelectrostatic_energy": 9.12, 
			 "SMD_solvation_energy": 3.45 
		},
		"coords": [
			{
				"x": 0.9258914353,
				"y": -0.8845864742,
				"z": 2.6397045389,
				"element": "C" 
			},
			{
				"x": 0.5433076838,
				"y": 0.5214827513,
				"z": 2.1775572407,
				"element": "C" 
			},
			{
				"x": 1.719793079,
				"y": 1.5249251341,
				"z": 2.3745714748,
				"element": "C" 
			},
			{
				"x": 1.3342290695,
				"y": 2.8830836598,
				"z": 2.9552521619,
				"element": "C" 
			},
			{
				"x": 0.3655731687,
				"y": 3.5307477225,
				"z": 2.2940129629,
				"element": "N" 
			},
			{
				"x": 2.0920773504,
				"y": 3.4946275676,
				"z": 4.3103767985,
				"element": "S" 
			},
			{
				"x": 0.0790872397,
				"y": 0.5037117765,
				"z": 0.7743662273,
				"element": "N" 
			},
			{
				"x": 0.1233601981,
				"y": -0.5044898157,
				"z": -0.1346551152,
				"element": "C" 
			},
			{
				"x": -0.4117737163,
				"y": 0.0050442373,
				"z": -1.3054964314,
				"element": "C" 
			},
			{
				"x": -0.6162624855,
				"y": -0.8385517659,
				"z": -2.8041625701,
				"element": "Cl" 
			},
			{
				"x": -0.7527532763,
				"y": 1.3376690164,
				"z": -1.0186770597,
				"element": "C" 
			},
			{
				"x": -0.450635675,
				"y": 1.6301818285,
				"z": 0.2467648356,
				"element": "N" 
			},
			{
				"x": 0.1054961515,
				"y": -1.5942489167,
				"z": 2.499881793,
				"element": "H" 
			},
			{
				"x": 1.8117009536,
				"y": -1.2562139932,
				"z": 2.1142875727,
				"element": "H" 
			},
			{
				"x": 1.1628097304,
				"y": -0.8487555299,
				"z": 3.7054907173,
				"element": "H" 
			},
			{
				"x": -0.3161661793,
				"y": 0.8584443263,
				"z": 2.7658121287,
				"element": "H" 
			},
			{
				"x": 2.2161755449,
				"y": 1.6819054449,
				"z": 1.4090675663,
				"element": "H" 
			},
			{
				"x": 2.4561915489,
				"y": 1.089424065,
				"z": 3.0494272092,
				"element": "H" 
			},
			{
				"x": -0.0782962703,
				"y": 3.1158709444,
				"z": 1.4711546087,
				"element": "H" 
			},
			{
				"x": 0.0729392528,
				"y": 4.4340308815,
				"z": 2.6377533557,
				"element": "H" 
			},
			{
				"x": 0.5093841967,
				"y": -1.4850544615,
				"z": 0.0890856176,
				"element": "H" 
			},
			{
				"x": -1.1980290008,
				"y": 2.0772516008,
				"z": -1.6686756334,
				"element": "H" 
			}
		],
		 "valence_orbital": [ 
			{
				"type": "occ",
				"energy": -0.31397,
				"method": "rhf"
			},
			{
				"type": "occ",
				"energy": -0.28358,
				"method": "rhf"
			},
			{
				"type": "occ",
				"energy": -0.25398,
				"method": "rhf"
			},
			{
				"type": "occ",
				"energy": -0.22426,
				"method": "rhf"
			},
			{
				"type": "occ",
				"energy": -0.20102,
				"method": "rhf"
			},
			{
				"type": "unocc",
				"energy": -0.02821,
				"method": "rhf"
			},
			{
				"type": "unocc",
				"energy": -0.01145,
				"method": "rhf"
			},
			{
				"type": "unocc",
				"energy": 0.02723,
				"method": "rhf"
			},
			{
				"type": "unocc",
				"energy": 0.04034,
				"method": "rhf"
			},
			{
				"type": "unocc",
				"energy": 0.07475,
				"method": "rhf"
			}
		],
		"cosmo_sigma_profile": { 
			"-0.025": 0.0,
			"-0.024": 0.0,
			"-0.023": 0.0,
			"-0.022": 0.0,
			"-0.021": 0.0,
			"-0.02": 0.0,
			"-0.019": 0.0,
			"-0.018": 0.0,
			"-0.017": 0.0,
			"-0.016": 0.0,
			"-0.015": 0.174590442239,
			"-0.014": 0.927741221584,
			"-0.013": 1.14338194664,
			"-0.012": 1.04504011935,
			"-0.011": 1.41014390749,
			"-0.01": 1.80534756761,
			"-0.009": 2.91769831908,
			"-0.008": 5.319137076,
			"-0.007": 6.99871644446,
			"-0.006": 13.0745936907,
			"-0.005": 20.1550737717,
			"-0.004": 16.8430032051,
			"-0.003": 15.1668644673,
			"-0.002": 13.7253343499,
			"-0.001": 15.2427827751,
			"0.0": 12.5988439398,
			"0.001": 13.1642804763,
			"0.002": 15.765461376,
			"0.003": 16.3654870059,
			"0.004": 16.0041806104,
			"0.005": 8.763125331,
			"0.006": 4.98155047195,
			"0.007": 3.54714403766,
			"0.008": 4.78295441074,
			"0.009": 6.06101956358,
			"0.01": 6.55157159491,
			"0.011": 4.37177034087,
			"0.012": 3.70069650207,
			"0.013": 1.39120816961,
			"0.014": 0.0,
			"0.015": 0.0,
			"0.016": 0.0,
			"0.017": 0.0,
			"0.018": 0.0,
			"0.019": 0.0,
			"0.02": 0.0,
			"0.021": 0.0,
			"0.022": 0.0,
			"0.023": 0.0,
			"0.024": 0.0,
			"0.025": 0.0
		}
	}
}
