{
	 "smiles": "CC1=CC=CC(OCC(O)CNC(C)(C)C)=C1C", 
	 "Tm": 330.15, 
	 "num_atms": 43, 
	 "gaussian": { 
		 "optdone": 1, 
		 "sigma_profile": "yes", 
		 "theory": "DFT", 
		 "functional": "B3LYP", 
		 "basiset": "6-31G**", 
		 "properties": { 
			 "R2extent": 8331.1993, 
			 "electric_dipole_moment_norm": 1.30647722904, 
			 "electric_quadrupole_moment_norm": 3.58797165819, 
			 "total_energy": -791.857930796, 
			 "HOMO_LUMO_gap": 0.21752, 
			 "cosmo_polarized_energy": -11.49, 
			 "cosmo_cavitation_energy": 42.36, 
			 "cosmo_dispersion_energy": -29.35, 
			 "cosmo_repulsion_energy": 2.27, 
			 "cosmo_total_nonelectrostatic_energy": 15.27, 
			 "SMD_solvation_energy": 6.07 
		},
		"coords": [
			{
				"x": -2.399335562,
				"y": -5.0879652601,
				"z": -3.6229785914,
				"element": "C" 
			},
			{
				"x": -1.5701830763,
				"y": -4.2114623637,
				"z": -2.7133433791,
				"element": "C" 
			},
			{
				"x": -0.1826060146,
				"y": -4.1422127219,
				"z": -2.8852025608,
				"element": "C" 
			},
			{
				"x": 0.5980079769,
				"y": -3.3331231329,
				"z": -2.0618352894,
				"element": "C" 
			},
			{
				"x": 0.0025442594,
				"y": -2.582834425,
				"z": -1.0509859232,
				"element": "C" 
			},
			{
				"x": -1.3807225737,
				"y": -2.6625609129,
				"z": -0.8621929536,
				"element": "C" 
			},
			{
				"x": -2.0218535081,
				"y": -1.9210529852,
				"z": 0.1094864139,
				"element": "O" 
			},
			{
				"x": -1.4646475588,
				"y": -1.836807263,
				"z": 1.4222466958,
				"element": "C" 
			},
			{
				"x": -0.8826939545,
				"y": -0.4587987264,
				"z": 1.7693909655,
				"element": "C" 
			},
			{
				"x": 0.4332265271,
				"y": -0.276508286,
				"z": 1.2241078946,
				"element": "O" 
			},
			{
				"x": -1.7699512657,
				"y": 0.686239138,
				"z": 1.2637144376,
				"element": "C" 
			},
			{
				"x": -1.7692552053,
				"y": 1.8858786965,
				"z": 2.1081685542,
				"element": "N" 
			},
			{
				"x": -0.6825830993,
				"y": 2.8993544787,
				"z": 2.0105578823,
				"element": "C" 
			},
			{
				"x": 0.4889111671,
				"y": 2.489603351,
				"z": 2.9240427589,
				"element": "C" 
			},
			{
				"x": -1.2875828986,
				"y": 4.2099589429,
				"z": 2.5453308932,
				"element": "C" 
			},
			{
				"x": -0.1701429662,
				"y": 3.1201442048,
				"z": 0.5725245398,
				"element": "C" 
			},
			{
				"x": -2.1883360781,
				"y": -3.4698356698,
				"z": -1.6853743466,
				"element": "C" 
			},
			{
				"x": -3.681949084,
				"y": -3.5349756004,
				"z": -1.4740014905,
				"element": "C" 
			},
			{
				"x": -3.1665599545,
				"y": -4.5110960093,
				"z": -4.1534262512,
				"element": "H" 
			},
			{
				"x": -1.7731507335,
				"y": -5.5793974945,
				"z": -4.3722114847,
				"element": "H" 
			},
			{
				"x": -2.9270417348,
				"y": -5.8707727158,
				"z": -3.0641766195,
				"element": "H" 
			},
			{
				"x": 0.2841191439,
				"y": -4.7213291496,
				"z": -3.6776301372,
				"element": "H" 
			},
			{
				"x": 1.6716952692,
				"y": -3.2719790503,
				"z": -2.2167794108,
				"element": "H" 
			},
			{
				"x": 0.5791757819,
				"y": -1.9004197994,
				"z": -0.4373478822,
				"element": "H" 
			},
			{
				"x": -2.2917372857,
				"y": -2.0401450523,
				"z": 2.115383696,
				"element": "H" 
			},
			{
				"x": -0.7058953842,
				"y": -2.617219381,
				"z": 1.5658757511,
				"element": "H" 
			},
			{
				"x": -0.8433392004,
				"y": -0.3954670038,
				"z": 2.8671735135,
				"element": "H" 
			},
			{
				"x": 1.0452675019,
				"y": -0.8349303053,
				"z": 1.7212995805,
				"element": "H" 
			},
			{
				"x": -2.8025350187,
				"y": 0.3226596794,
				"z": 1.2560708618,
				"element": "H" 
			},
			{
				"x": -1.5024228775,
				"y": 0.8618693509,
				"z": 0.2112764937,
				"element": "H" 
			},
			{
				"x": -2.6472628114,
				"y": 2.3659641776,
				"z": 1.9368292497,
				"element": "H" 
			},
			{
				"x": 0.9478225927,
				"y": 1.5638939603,
				"z": 2.5719296052,
				"element": "H" 
			},
			{
				"x": 1.2601200414,
				"y": 3.2682599256,
				"z": 2.9332568175,
				"element": "H" 
			},
			{
				"x": 0.133483642,
				"y": 2.3412095675,
				"z": 3.9485576233,
				"element": "H" 
			},
			{
				"x": -0.5275060621,
				"y": 4.9945062624,
				"z": 2.6057259942,
				"element": "H" 
			},
			{
				"x": -1.7057284444,
				"y": 4.0579583173,
				"z": 3.5459256547,
				"element": "H" 
			},
			{
				"x": -2.0890857002,
				"y": 4.5727325758,
				"z": 1.8894488112,
				"element": "H" 
			},
			{
				"x": 0.3174827718,
				"y": 2.2231918864,
				"z": 0.1815720929,
				"element": "H" 
			},
			{
				"x": 0.5626076662,
				"y": 3.934204436,
				"z": 0.5491840554,
				"element": "H" 
			},
			{
				"x": -0.9911380454,
				"y": 3.3908694007,
				"z": -0.1020283105,
				"element": "H" 
			},
			{
				"x": -4.0243170965,
				"y": -4.569807729,
				"z": -1.3555384735,
				"element": "H" 
			},
			{
				"x": -3.9739932356,
				"y": -2.9714010097,
				"z": -0.5883497781,
				"element": "H" 
			},
			{
				"x": -4.2256079117,
				"y": -3.1196963043,
				"z": -2.3319779539,
				"element": "H" 
			}
		],
		 "valence_orbital": [ 
			{
				"type": "occ",
				"energy": -0.29783,
				"method": "rhf"
			},
			{
				"type": "occ",
				"energy": -0.26968,
				"method": "rhf"
			},
			{
				"type": "occ",
				"energy": -0.22709,
				"method": "rhf"
			},
			{
				"type": "occ",
				"energy": -0.21473,
				"method": "rhf"
			},
			{
				"type": "occ",
				"energy": -0.20909,
				"method": "rhf"
			},
			{
				"type": "unocc",
				"energy": 0.00843,
				"method": "rhf"
			},
			{
				"type": "unocc",
				"energy": 0.02063,
				"method": "rhf"
			},
			{
				"type": "unocc",
				"energy": 0.06052,
				"method": "rhf"
			},
			{
				"type": "unocc",
				"energy": 0.08378,
				"method": "rhf"
			},
			{
				"type": "unocc",
				"energy": 0.09645,
				"method": "rhf"
			}
		],
		"cosmo_sigma_profile": { 
			"-0.025": 0.0,
			"-0.024": 0.0,
			"-0.023": 0.0,
			"-0.022": 0.0,
			"-0.021": 0.0,
			"-0.02": 0.0,
			"-0.019": 0.0,
			"-0.018": 0.0,
			"-0.017": 0.0,
			"-0.016": 0.294658465855,
			"-0.015": 1.19795377343,
			"-0.014": 0.711162961816,
			"-0.013": 1.15742394208,
			"-0.012": 1.34654812694,
			"-0.011": 1.09624865327,
			"-0.01": 0.810508719093,
			"-0.009": 1.41606418959,
			"-0.008": 2.91835583481,
			"-0.007": 3.12144931113,
			"-0.006": 4.36384008127,
			"-0.005": 11.7416888753,
			"-0.004": 23.4518044794,
			"-0.003": 28.6500216598,
			"-0.002": 35.0395982415,
			"-0.001": 33.8279475571,
			"0.0": 39.2373752262,
			"0.001": 36.040363303,
			"0.002": 28.3803409332,
			"0.003": 15.6088712692,
			"0.004": 11.2613404125,
			"0.005": 13.734029864,
			"0.006": 12.1806834552,
			"0.007": 9.19583329033,
			"0.008": 3.8474952645,
			"0.009": 2.68810004177,
			"0.01": 1.83604784524,
			"0.011": 0.782235891322,
			"0.012": 0.373424685148,
			"0.013": 0.662612578705,
			"0.014": 0.773814478141,
			"0.015": 0.234127360386,
			"0.016": 0.41082212335,
			"0.017": 0.206574311515,
			"0.018": 0.0873884789387,
			"0.019": 0.0,
			"0.02": 0.0,
			"0.021": 0.0,
			"0.022": 0.0,
			"0.023": 0.0,
			"0.024": 0.0,
			"0.025": 0.0
		}
	}
}
