{
	 "smiles": "CC1=CC(=O)C=C(C)C1=O", 
	 "Tm": 344.35, 
	 "num_atms": 18, 
	 "gaussian": { 
		 "optdone": 1, 
		 "sigma_profile": "yes", 
		 "theory": "DFT", 
		 "functional": "B3LYP", 
		 "basiset": "6-31G**", 
		 "properties": { 
			 "R2extent": 1828.094, 
			 "electric_dipole_moment_norm": 1.14101195436, 
			 "electric_quadrupole_moment_norm": 13.4129045892, 
			 "total_energy": -460.099193511, 
			 "HOMO_LUMO_gap": 0.14055, 
			 "cosmo_polarized_energy": -8.72, 
			 "cosmo_cavitation_energy": 22.38, 
			 "cosmo_dispersion_energy": -16.19, 
			 "cosmo_repulsion_energy": 1.31, 
			 "cosmo_total_nonelectrostatic_energy": 7.5, 
			 "SMD_solvation_energy": 5.27 
		},
		"coords": [
			{
				"x": 3.1810690962,
				"y": 1.2623562216,
				"z": 0.1671369579,
				"element": "C" 
			},
			{
				"x": 1.7188637182,
				"y": 0.9885915296,
				"z": 0.3574576147,
				"element": "C" 
			},
			{
				"x": 1.2275562428,
				"y": -0.0375151218,
				"z": 1.0789024019,
				"element": "C" 
			},
			{
				"x": -0.2266625305,
				"y": -0.2668413109,
				"z": 1.2380779345,
				"element": "C" 
			},
			{
				"x": -0.6524998095,
				"y": -1.2088008059,
				"z": 1.8999757888,
				"element": "O" 
			},
			{
				"x": -1.1491869158,
				"y": 0.6794938772,
				"z": 0.5701739681,
				"element": "C" 
			},
			{
				"x": -0.7059868649,
				"y": 1.7201160374,
				"z": -0.1615656764,
				"element": "C" 
			},
			{
				"x": -1.5992864095,
				"y": 2.7044541635,
				"z": -0.8560476764,
				"element": "C" 
			},
			{
				"x": 0.7694220171,
				"y": 1.9360155896,
				"z": -0.3109134518,
				"element": "C" 
			},
			{
				"x": 1.1949003491,
				"y": 2.8768520322,
				"z": -0.9727023324,
				"element": "O" 
			},
			{
				"x": 3.4364311494,
				"y": 2.2619270123,
				"z": 0.5342723376,
				"element": "H" 
			},
			{
				"x": 3.7921963726,
				"y": 0.5225893599,
				"z": 0.6884945449,
				"element": "H" 
			},
			{
				"x": 3.438642128,
				"y": 1.2549512007,
				"z": -0.8971610804,
				"element": "H" 
			},
			{
				"x": 1.8740591817,
				"y": -0.7514715723,
				"z": 1.58241572,
				"element": "H" 
			},
			{
				"x": -2.2085955323,
				"y": 0.4801710522,
				"z": 0.7085803891,
				"element": "H" 
			},
			{
				"x": -2.6522420264,
				"y": 2.4668342039,
				"z": -0.6906189984,
				"element": "H" 
			},
			{
				"x": -1.3982305268,
				"y": 2.7138122529,
				"z": -1.9324410497,
				"element": "H" 
			},
			{
				"x": -1.4007496395,
				"y": 3.721264278,
				"z": -0.5013373921,
				"element": "H" 
			}
		],
		 "valence_orbital": [ 
			{
				"type": "occ",
				"energy": -0.38186,
				"method": "rhf"
			},
			{
				"type": "occ",
				"energy": -0.29056,
				"method": "rhf"
			},
			{
				"type": "occ",
				"energy": -0.27928,
				"method": "rhf"
			},
			{
				"type": "occ",
				"energy": -0.27286,
				"method": "rhf"
			},
			{
				"type": "occ",
				"energy": -0.25975,
				"method": "rhf"
			},
			{
				"type": "unocc",
				"energy": -0.1192,
				"method": "rhf"
			},
			{
				"type": "unocc",
				"energy": -0.01148,
				"method": "rhf"
			},
			{
				"type": "unocc",
				"energy": 0.01667,
				"method": "rhf"
			},
			{
				"type": "unocc",
				"energy": 0.10037,
				"method": "rhf"
			},
			{
				"type": "unocc",
				"energy": 0.11545,
				"method": "rhf"
			}
		],
		"cosmo_sigma_profile": { 
			"-0.025": 0.0,
			"-0.024": 0.0,
			"-0.023": 0.0,
			"-0.022": 0.0,
			"-0.021": 0.0,
			"-0.02": 0.0,
			"-0.019": 0.0,
			"-0.018": 0.0,
			"-0.017": 0.0,
			"-0.016": 0.0,
			"-0.015": 0.0,
			"-0.014": 0.0,
			"-0.013": 0.0,
			"-0.012": 0.0,
			"-0.011": 0.0,
			"-0.01": 0.0,
			"-0.009": 0.0,
			"-0.008": 0.475935726743,
			"-0.007": 4.15679385946,
			"-0.006": 6.553490916,
			"-0.005": 14.5172839449,
			"-0.004": 20.2355375427,
			"-0.003": 19.9589849944,
			"-0.002": 18.6369191752,
			"-0.001": 25.3621638922,
			"0.0": 16.328450038,
			"0.001": 7.74494537025,
			"0.002": 3.95200566001,
			"0.003": 2.64106257014,
			"0.004": 3.31238130806,
			"0.005": 2.39094338462,
			"0.006": 2.7761508189,
			"0.007": 3.51358341941,
			"0.008": 4.26793367335,
			"0.009": 3.80458192247,
			"0.01": 4.58173673822,
			"0.011": 8.32231244345,
			"0.012": 3.79002537545,
			"0.013": 0.634478668072,
			"0.014": 0.0,
			"0.015": 0.0,
			"0.016": 0.0,
			"0.017": 0.0,
			"0.018": 0.0,
			"0.019": 0.0,
			"0.02": 0.0,
			"0.021": 0.0,
			"0.022": 0.0,
			"0.023": 0.0,
			"0.024": 0.0,
			"0.025": 0.0
		}
	}
}
