{
	 "smiles": "COC1=C(C=C(N)C=C1)S(=O)(=O)N1CCCCC1", 
	 "Tm": 367.15, 
	 "num_atms": 36, 
	 "gaussian": { 
		 "optdone": 1, 
		 "sigma_profile": "yes", 
		 "theory": "DFT", 
		 "functional": "B3LYP", 
		 "basiset": "6-31G**", 
		 "properties": { 
			 "R2extent": 5996.7317, 
			 "electric_dipole_moment_norm": 5.67052991351, 
			 "electric_quadrupole_moment_norm": 26.0521327868, 
			 "total_energy": -1201.40318938, 
			 "HOMO_LUMO_gap": 0.18241, 
			 "cosmo_polarized_energy": -17.64, 
			 "cosmo_cavitation_energy": 37.43, 
			 "cosmo_dispersion_energy": -26.94, 
			 "cosmo_repulsion_energy": 2.05, 
			 "cosmo_total_nonelectrostatic_energy": 12.55, 
			 "SMD_solvation_energy": 4.88 
		},
		"coords": [
			{
				"x": 1.3351747832,
				"y": -2.8224747741,
				"z": -2.6304088513,
				"element": "C" 
			},
			{
				"x": 0.8126599828,
				"y": -1.973323102,
				"z": -1.5972622971,
				"element": "O" 
			},
			{
				"x": 0.2499412861,
				"y": -0.7986546683,
				"z": -2.0452565102,
				"element": "C" 
			},
			{
				"x": 0.933001108,
				"y": 0.4236622162,
				"z": -1.9502991706,
				"element": "C" 
			},
			{
				"x": 0.3225061029,
				"y": 1.6149101177,
				"z": -2.3431486273,
				"element": "C" 
			},
			{
				"x": -0.9848602675,
				"y": 1.6170397118,
				"z": -2.8550885368,
				"element": "C" 
			},
			{
				"x": -1.5681075154,
				"y": 2.7989949423,
				"z": -3.3107496331,
				"element": "N" 
			},
			{
				"x": -1.6657081763,
				"y": 0.3909918726,
				"z": -2.9479099111,
				"element": "C" 
			},
			{
				"x": -1.0542716197,
				"y": -0.7924195997,
				"z": -2.5460569445,
				"element": "C" 
			},
			{
				"x": 2.6296794942,
				"y": 0.5236633652,
				"z": -1.3210341097,
				"element": "S" 
			},
			{
				"x": 3.4296592987,
				"y": -0.513002296,
				"z": -1.9808307397,
				"element": "O" 
			},
			{
				"x": 2.9979080829,
				"y": 1.9403305866,
				"z": -1.4256394319,
				"element": "O" 
			},
			{
				"x": 2.5929335671,
				"y": 0.1641604058,
				"z": 0.303103522,
				"element": "N" 
			},
			{
				"x": 2.7992658549,
				"y": -1.2192692635,
				"z": 0.7822115008,
				"element": "C" 
			},
			{
				"x": 1.6586818461,
				"y": -1.6492521107,
				"z": 1.7078865198,
				"element": "C" 
			},
			{
				"x": 1.5267948433,
				"y": -0.7102698925,
				"z": 2.9330080951,
				"element": "C" 
			},
			{
				"x": 2.1056942821,
				"y": 0.6920682798,
				"z": 2.6446238941,
				"element": "C" 
			},
			{
				"x": 1.8900775222,
				"y": 1.113294345,
				"z": 1.1894473382,
				"element": "C" 
			},
			{
				"x": 0.5583574141,
				"y": -3.0709212626,
				"z": -3.3638489937,
				"element": "H" 
			},
			{
				"x": 2.183122747,
				"y": -2.3416105096,
				"z": -3.1262334421,
				"element": "H" 
			},
			{
				"x": 1.6677081758,
				"y": -3.7369181371,
				"z": -2.1350112826,
				"element": "H" 
			},
			{
				"x": 0.8887689313,
				"y": 2.536756846,
				"z": -2.2624019353,
				"element": "H" 
			},
			{
				"x": -2.5783358021,
				"y": 2.8143655285,
				"z": -3.310933054,
				"element": "H" 
			},
			{
				"x": -1.1734015847,
				"y": 3.6498628529,
				"z": -2.9352102664,
				"element": "H" 
			},
			{
				"x": -2.6806053628,
				"y": 0.3678993372,
				"z": -3.3367092429,
				"element": "H" 
			},
			{
				"x": -1.5922190731,
				"y": -1.733960791,
				"z": -2.6033168768,
				"element": "H" 
			},
			{
				"x": 3.7615412039,
				"y": -1.2663044043,
				"z": 1.3096998317,
				"element": "H" 
			},
			{
				"x": 2.8707148141,
				"y": -1.8741819752,
				"z": -0.0839040351,
				"element": "H" 
			},
			{
				"x": 0.7331331977,
				"y": -1.6548779332,
				"z": 1.1234635156,
				"element": "H" 
			},
			{
				"x": 1.8291819198,
				"y": -2.6826009212,
				"z": 2.029816014,
				"element": "H" 
			},
			{
				"x": 0.4708225801,
				"y": -0.626329349,
				"z": 3.214488891,
				"element": "H" 
			},
			{
				"x": 2.0428949307,
				"y": -1.1374879002,
				"z": 3.8000585601,
				"element": "H" 
			},
			{
				"x": 3.1819952434,
				"y": 0.7082642236,
				"z": 2.8512933325,
				"element": "H" 
			},
			{
				"x": 1.6506597455,
				"y": 1.4410421422,
				"z": 3.3014536274,
				"element": "H" 
			},
			{
				"x": 0.8110168074,
				"y": 1.1378990028,
				"z": 0.9660488356,
				"element": "H" 
			},
			{
				"x": 2.290813636,
				"y": 2.1130531142,
				"z": 1.0083504142,
				"element": "H" 
			}
		],
		 "valence_orbital": [ 
			{
				"type": "occ",
				"energy": -0.28624,
				"method": "rhf"
			},
			{
				"type": "occ",
				"energy": -0.27637,
				"method": "rhf"
			},
			{
				"type": "occ",
				"energy": -0.26333,
				"method": "rhf"
			},
			{
				"type": "occ",
				"energy": -0.23404,
				"method": "rhf"
			},
			{
				"type": "occ",
				"energy": -0.20799,
				"method": "rhf"
			},
			{
				"type": "unocc",
				"energy": -0.02558,
				"method": "rhf"
			},
			{
				"type": "unocc",
				"energy": 0.00268,
				"method": "rhf"
			},
			{
				"type": "unocc",
				"energy": 0.06699,
				"method": "rhf"
			},
			{
				"type": "unocc",
				"energy": 0.07399,
				"method": "rhf"
			},
			{
				"type": "unocc",
				"energy": 0.07468,
				"method": "rhf"
			}
		],
		"cosmo_sigma_profile": { 
			"-0.025": 0.0,
			"-0.024": 0.0,
			"-0.023": 0.0,
			"-0.022": 0.0,
			"-0.021": 0.0,
			"-0.02": 0.0,
			"-0.019": 0.0,
			"-0.018": 0.0,
			"-0.017": 0.0,
			"-0.016": 0.0,
			"-0.015": 0.0,
			"-0.014": 0.0,
			"-0.013": 1.33707247201,
			"-0.012": 2.86302188676,
			"-0.011": 2.77906200869,
			"-0.01": 3.70613288492,
			"-0.009": 3.69397102282,
			"-0.008": 2.35380113673,
			"-0.007": 4.39347222164,
			"-0.006": 6.32575253511,
			"-0.005": 10.8742801997,
			"-0.004": 19.5515207086,
			"-0.003": 34.4300701605,
			"-0.002": 42.1075517984,
			"-0.001": 27.8364300185,
			"0.0": 23.5390934892,
			"0.001": 14.2349417947,
			"0.002": 13.2086639227,
			"0.003": 14.6136568639,
			"0.004": 14.7278101951,
			"0.005": 8.14551810069,
			"0.006": 6.29760741927,
			"0.007": 5.01116205165,
			"0.008": 4.44863167533,
			"0.009": 5.62914127987,
			"0.01": 5.63770180124,
			"0.011": 6.63311043472,
			"0.012": 7.27628901833,
			"0.013": 1.53301301766,
			"0.014": 0.443120729106,
			"0.015": 0.0,
			"0.016": 0.0,
			"0.017": 0.0,
			"0.018": 0.0,
			"0.019": 0.0,
			"0.02": 0.0,
			"0.021": 0.0,
			"0.022": 0.0,
			"0.023": 0.0,
			"0.024": 0.0,
			"0.025": 0.0
		}
	}
}
