{
	 "smiles": "O=C1NC(=O)C2=C(S1)C=CC=C2", 
	 "Tm": 566.15, 
	 "num_atms": 17, 
	 "gaussian": { 
		 "optdone": 1, 
		 "sigma_profile": "yes", 
		 "theory": "DFT", 
		 "functional": "B3LYP", 
		 "basiset": "6-31G**", 
		 "properties": { 
			 "R2extent": 3205.9411, 
			 "electric_dipole_moment_norm": 3.75850309166, 
			 "electric_quadrupole_moment_norm": 11.3011158953, 
			 "total_energy": -911.281767179, 
			 "HOMO_LUMO_gap": 0.18049, 
			 "cosmo_polarized_energy": -11.2, 
			 "cosmo_cavitation_energy": 23.31, 
			 "cosmo_dispersion_energy": -18.17, 
			 "cosmo_repulsion_energy": 1.37, 
			 "cosmo_total_nonelectrostatic_energy": 6.51, 
			 "SMD_solvation_energy": 5.2 
		},
		"coords": [
			{
				"x": 0.6729964037,
				"y": -4.7846981871,
				"z": 0.1255591625,
				"element": "O" 
			},
			{
				"x": 0.1961171281,
				"y": -3.6755269018,
				"z": 0.2112177241,
				"element": "C" 
			},
			{
				"x": -0.4942601095,
				"y": -3.0761336876,
				"z": -0.826473385,
				"element": "N" 
			},
			{
				"x": -1.1206269707,
				"y": -1.8291783412,
				"z": -0.9551099339,
				"element": "C" 
			},
			{
				"x": -1.6677276427,
				"y": -1.5564573238,
				"z": -2.0113072542,
				"element": "O" 
			},
			{
				"x": -1.0810228387,
				"y": -0.9102528231,
				"z": 0.2063656199,
				"element": "C" 
			},
			{
				"x": -0.4525570362,
				"y": -1.2197626916,
				"z": 1.424131509,
				"element": "C" 
			},
			{
				"x": 0.3810136111,
				"y": -2.7548548156,
				"z": 1.7392131547,
				"element": "S" 
			},
			{
				"x": -0.4658600239,
				"y": -0.285798615,
				"z": 2.4705960405,
				"element": "C" 
			},
			{
				"x": -1.0986926598,
				"y": 0.9412484813,
				"z": 2.3026938476,
				"element": "C" 
			},
			{
				"x": -1.7270601216,
				"y": 1.256672154,
				"z": 1.0919736695,
				"element": "C" 
			},
			{
				"x": -1.7152262855,
				"y": 0.3344975387,
				"z": 0.0554372357,
				"element": "C" 
			},
			{
				"x": -0.5601718757,
				"y": -3.6540376386,
				"z": -1.6594557752,
				"element": "H" 
			},
			{
				"x": 0.0196387343,
				"y": -0.5240837258,
				"z": 3.4122970996,
				"element": "H" 
			},
			{
				"x": -1.1015644174,
				"y": 1.655260328,
				"z": 3.1209872227,
				"element": "H" 
			},
			{
				"x": -2.2198756175,
				"y": 2.2150352599,
				"z": 0.9644096123,
				"element": "H" 
			},
			{
				"x": -2.190620278,
				"y": 0.5415709892,
				"z": -0.8970355497,
				"element": "H" 
			}
		],
		 "valence_orbital": [ 
			{
				"type": "occ",
				"energy": -0.30211,
				"method": "rhf"
			},
			{
				"type": "occ",
				"energy": -0.29986,
				"method": "rhf"
			},
			{
				"type": "occ",
				"energy": -0.28019,
				"method": "rhf"
			},
			{
				"type": "occ",
				"energy": -0.27897,
				"method": "rhf"
			},
			{
				"type": "occ",
				"energy": -0.24837,
				"method": "rhf"
			},
			{
				"type": "unocc",
				"energy": -0.06788,
				"method": "rhf"
			},
			{
				"type": "unocc",
				"energy": -0.03401,
				"method": "rhf"
			},
			{
				"type": "unocc",
				"energy": -0.01315,
				"method": "rhf"
			},
			{
				"type": "unocc",
				"energy": 0.00458,
				"method": "rhf"
			},
			{
				"type": "unocc",
				"energy": 0.05645,
				"method": "rhf"
			}
		],
		"cosmo_sigma_profile": { 
			"-0.025": 0.0,
			"-0.024": 0.0,
			"-0.023": 0.0,
			"-0.022": 0.0,
			"-0.021": 0.0,
			"-0.02": 0.0,
			"-0.019": 0.0,
			"-0.018": 0.0,
			"-0.017": 0.040542089561,
			"-0.016": 0.770455010751,
			"-0.015": 0.803534830408,
			"-0.014": 1.32258278046,
			"-0.013": 0.543446933143,
			"-0.012": 0.280315713707,
			"-0.011": 0.916634253389,
			"-0.01": 0.867365417807,
			"-0.009": 0.986946056856,
			"-0.008": 3.9259636921,
			"-0.007": 9.34401854091,
			"-0.006": 11.6657077012,
			"-0.005": 11.2808259791,
			"-0.004": 11.2594326912,
			"-0.003": 11.7983955282,
			"-0.002": 10.2915023173,
			"-0.001": 10.5556490277,
			"0.0": 16.074923563,
			"0.001": 18.840141298,
			"0.002": 18.8892143808,
			"0.003": 12.0391103636,
			"0.004": 5.347878019,
			"0.005": 3.15316695397,
			"0.006": 1.80209105446,
			"0.007": 2.18289579221,
			"0.008": 2.84173442021,
			"0.009": 3.85203005611,
			"0.01": 5.92144917672,
			"0.011": 9.35798385318,
			"0.012": 3.171955876,
			"0.013": 0.0348024839549,
			"0.014": 0.0,
			"0.015": 0.0,
			"0.016": 0.0,
			"0.017": 0.0,
			"0.018": 0.0,
			"0.019": 0.0,
			"0.02": 0.0,
			"0.021": 0.0,
			"0.022": 0.0,
			"0.023": 0.0,
			"0.024": 0.0,
			"0.025": 0.0
		}
	}
}
