{
	 "smiles": "COC1=CC=C2CC(=O)C2=C1", 
	 "Tm": 328.15, 
	 "num_atms": 19, 
	 "gaussian": { 
		 "optdone": 1, 
		 "sigma_profile": "yes", 
		 "theory": "DFT", 
		 "functional": "B3LYP", 
		 "basiset": "6-31G**", 
		 "properties": { 
			 "R2extent": 2390.6026, 
			 "electric_dipole_moment_norm": 4.89735209475, 
			 "electric_quadrupole_moment_norm": 10.9494876967, 
			 "total_energy": -498.170474912, 
			 "HOMO_LUMO_gap": 0.17146, 
			 "cosmo_polarized_energy": -9.26, 
			 "cosmo_cavitation_energy": 23.35, 
			 "cosmo_dispersion_energy": -17.38, 
			 "cosmo_repulsion_energy": 1.41, 
			 "cosmo_total_nonelectrostatic_energy": 7.38, 
			 "SMD_solvation_energy": 5.23 
		},
		"coords": [
			{
				"x": 2.360671041,
				"y": 4.0719822632,
				"z": 0.7475018107,
				"element": "C" 
			},
			{
				"x": 1.1831591219,
				"y": 3.6824036207,
				"z": 0.0583248954,
				"element": "O" 
			},
			{
				"x": 0.8981837295,
				"y": 2.3533790915,
				"z": -0.06172455,
				"element": "C" 
			},
			{
				"x": 1.7117785297,
				"y": 1.3268746922,
				"z": 0.4638799284,
				"element": "C" 
			},
			{
				"x": 1.380917069,
				"y": -0.0304205277,
				"z": 0.3173442122,
				"element": "C" 
			},
			{
				"x": 0.2143112149,
				"y": -0.3218862893,
				"z": -0.3695464942,
				"element": "C" 
			},
			{
				"x": -0.679013213,
				"y": -1.4577696716,
				"z": -0.8610593204,
				"element": "C" 
			},
			{
				"x": -1.5662096601,
				"y": -0.2886486115,
				"z": -1.4360591039,
				"element": "C" 
			},
			{
				"x": -2.5986404764,
				"y": -0.2504105459,
				"z": -2.055237246,
				"element": "O" 
			},
			{
				"x": -0.5865061855,
				"y": 0.7071181475,
				"z": -0.8875832007,
				"element": "C" 
			},
			{
				"x": -0.286121301,
				"y": 2.0545301039,
				"z": -0.7588883089,
				"element": "C" 
			},
			{
				"x": 2.3468081925,
				"y": 3.7418822529,
				"z": 1.7942818659,
				"element": "H" 
			},
			{
				"x": 2.3786703776,
				"y": 5.1623203655,
				"z": 0.7167655433,
				"element": "H" 
			},
			{
				"x": 3.2641129483,
				"y": 3.6834559326,
				"z": 0.2599127606,
				"element": "H" 
			},
			{
				"x": 2.6192981031,
				"y": 1.5851973859,
				"z": 0.9969805622,
				"element": "H" 
			},
			{
				"x": 2.0312164564,
				"y": -0.7933791379,
				"z": 0.7352328963,
				"element": "H" 
			},
			{
				"x": -1.1745949943,
				"y": -2.0653270424,
				"z": -0.0953851448,
				"element": "H" 
			},
			{
				"x": -0.2598422183,
				"y": -2.123119974,
				"z": -1.6243350875,
				"element": "H" 
			},
			{
				"x": -0.8987987352,
				"y": 2.8565179446,
				"z": -1.1558060184,
				"element": "H" 
			}
		],
		 "valence_orbital": [ 
			{
				"type": "occ",
				"energy": -0.33286,
				"method": "rhf"
			},
			{
				"type": "occ",
				"energy": -0.32453,
				"method": "rhf"
			},
			{
				"type": "occ",
				"energy": -0.26591,
				"method": "rhf"
			},
			{
				"type": "occ",
				"energy": -0.24541,
				"method": "rhf"
			},
			{
				"type": "occ",
				"energy": -0.22841,
				"method": "rhf"
			},
			{
				"type": "unocc",
				"energy": -0.05695,
				"method": "rhf"
			},
			{
				"type": "unocc",
				"energy": -0.00258,
				"method": "rhf"
			},
			{
				"type": "unocc",
				"energy": 0.05121,
				"method": "rhf"
			},
			{
				"type": "unocc",
				"energy": 0.08588,
				"method": "rhf"
			},
			{
				"type": "unocc",
				"energy": 0.10105,
				"method": "rhf"
			}
		],
		"cosmo_sigma_profile": { 
			"-0.025": 0.0,
			"-0.024": 0.0,
			"-0.023": 0.0,
			"-0.022": 0.0,
			"-0.021": 0.0,
			"-0.02": 0.0,
			"-0.019": 0.0,
			"-0.018": 0.0,
			"-0.017": 0.0,
			"-0.016": 0.0,
			"-0.015": 0.0,
			"-0.014": 0.0,
			"-0.013": 0.0,
			"-0.012": 0.0,
			"-0.011": 0.0,
			"-0.01": 0.0,
			"-0.009": 0.0,
			"-0.008": 0.353888378934,
			"-0.007": 4.5893931424,
			"-0.006": 13.7853028205,
			"-0.005": 18.7962677054,
			"-0.004": 17.9928857504,
			"-0.003": 17.361234668,
			"-0.002": 13.7243560231,
			"-0.001": 13.659938948,
			"0.0": 9.99239525562,
			"0.001": 11.3920650342,
			"0.002": 12.9838053891,
			"0.003": 15.6881640767,
			"0.004": 7.01640303813,
			"0.005": 2.85514390632,
			"0.006": 2.99051418678,
			"0.007": 3.52415493774,
			"0.008": 3.31358975475,
			"0.009": 3.28788645913,
			"0.01": 4.35294700191,
			"0.011": 5.17698963889,
			"0.012": 3.58023278847,
			"0.013": 0.486752704652,
			"0.014": 0.0,
			"0.015": 0.0,
			"0.016": 0.0,
			"0.017": 0.0,
			"0.018": 0.0,
			"0.019": 0.0,
			"0.02": 0.0,
			"0.021": 0.0,
			"0.022": 0.0,
			"0.023": 0.0,
			"0.024": 0.0,
			"0.025": 0.0
		}
	}
}
