{
	 "smiles": "CCCOC1=CC=C(C=C1N)C(=O)OCCN(CC)CC", 
	 "Tm": 455.8, 
	 "num_atms": 47, 
	 "gaussian": { 
		 "optdone": 1, 
		 "sigma_profile": "yes", 
		 "theory": "DFT", 
		 "functional": "B3LYP", 
		 "basiset": "6-31G**", 
		 "properties": { 
			 "R2extent": 11685.8636, 
			 "electric_dipole_moment_norm": 3.74508010729, 
			 "electric_quadrupole_moment_norm": 19.0667266231, 
			 "total_energy": -960.563409916, 
			 "HOMO_LUMO_gap": 0.16825, 
			 "cosmo_polarized_energy": -13.89, 
			 "cosmo_cavitation_energy": 48.52, 
			 "cosmo_dispersion_energy": -32.91, 
			 "cosmo_repulsion_energy": 2.58, 
			 "cosmo_total_nonelectrostatic_energy": 18.18, 
			 "SMD_solvation_energy": 6.9 
		},
		"coords": [
			{
				"x": -2.0100932434,
				"y": 6.617892118,
				"z": 3.0681857439,
				"element": "C" 
			},
			{
				"x": -2.0287570579,
				"y": 5.6561943267,
				"z": 4.2601541617,
				"element": "C" 
			},
			{
				"x": -1.3182779354,
				"y": 4.3358352462,
				"z": 3.991627272,
				"element": "C" 
			},
			{
				"x": -2.0375292503,
				"y": 3.6418980645,
				"z": 2.970512496,
				"element": "O" 
			},
			{
				"x": -1.573120957,
				"y": 2.429336372,
				"z": 2.5411437518,
				"element": "C" 
			},
			{
				"x": -0.4223236969,
				"y": 1.7983052702,
				"z": 3.0141551494,
				"element": "C" 
			},
			{
				"x": -0.0335811237,
				"y": 0.5647116828,
				"z": 2.4907172414,
				"element": "C" 
			},
			{
				"x": -0.7952817498,
				"y": -0.0390397977,
				"z": 1.4874553401,
				"element": "C" 
			},
			{
				"x": -1.9566265032,
				"y": 0.5944525393,
				"z": 1.0151231202,
				"element": "C" 
			},
			{
				"x": -2.3642500679,
				"y": 1.8236965325,
				"z": 1.5307916435,
				"element": "C" 
			},
			{
				"x": -3.5442217009,
				"y": 2.447533002,
				"z": 1.1295636301,
				"element": "N" 
			},
			{
				"x": -0.3363672791,
				"y": -1.3493166156,
				"z": 0.9608443541,
				"element": "C" 
			},
			{
				"x": 0.6373256283,
				"y": -1.9549122995,
				"z": 1.3711613176,
				"element": "O" 
			},
			{
				"x": -1.1279836522,
				"y": -1.813247312,
				"z": -0.0429096328,
				"element": "O" 
			},
			{
				"x": -0.7692361721,
				"y": -3.0973714911,
				"z": -0.6020599171,
				"element": "C" 
			},
			{
				"x": 0.2586499507,
				"y": -3.0090905269,
				"z": -1.7308287406,
				"element": "C" 
			},
			{
				"x": -0.3059134107,
				"y": -2.6613129896,
				"z": -3.0356456499,
				"element": "N" 
			},
			{
				"x": -0.8626855753,
				"y": -1.3023528487,
				"z": -3.1171646392,
				"element": "C" 
			},
			{
				"x": 0.1323854444,
				"y": -0.1311267864,
				"z": -3.0309022713,
				"element": "C" 
			},
			{
				"x": 0.612884172,
				"y": -3.0057817089,
				"z": -4.1259767173,
				"element": "C" 
			},
			{
				"x": -0.0288086074,
				"y": -2.9299223454,
				"z": -5.512539758,
				"element": "C" 
			},
			{
				"x": -2.5367216724,
				"y": 7.5473332121,
				"z": 3.305118788,
				"element": "H" 
			},
			{
				"x": -2.4917856093,
				"y": 6.1700091236,
				"z": 2.1945347254,
				"element": "H" 
			},
			{
				"x": -0.9833831945,
				"y": 6.8776669932,
				"z": 2.786272263,
				"element": "H" 
			},
			{
				"x": -3.061543441,
				"y": 5.4404900893,
				"z": 4.5585878608,
				"element": "H" 
			},
			{
				"x": -1.5422799342,
				"y": 6.1217306646,
				"z": 5.1263950449,
				"element": "H" 
			},
			{
				"x": -1.2859787137,
				"y": 3.7191382776,
				"z": 4.9001571229,
				"element": "H" 
			},
			{
				"x": -0.2837968223,
				"y": 4.5116048938,
				"z": 3.6621489918,
				"element": "H" 
			},
			{
				"x": 0.1773268225,
				"y": 2.2632443614,
				"z": 3.7874897698,
				"element": "H" 
			},
			{
				"x": 0.8575325389,
				"y": 0.0628424071,
				"z": 2.8492884745,
				"element": "H" 
			},
			{
				"x": -2.5525691589,
				"y": 0.1158939492,
				"z": 0.2455777988,
				"element": "H" 
			},
			{
				"x": -3.8497709379,
				"y": 2.2220971521,
				"z": 0.1935675402,
				"element": "H" 
			},
			{
				"x": -3.5764169647,
				"y": 3.4370288788,
				"z": 1.3306773821,
				"element": "H" 
			},
			{
				"x": -0.3735662021,
				"y": -3.7205030741,
				"z": 0.2027629205,
				"element": "H" 
			},
			{
				"x": -1.704841593,
				"y": -3.5169402275,
				"z": -0.9788324602,
				"element": "H" 
			},
			{
				"x": 0.693765561,
				"y": -4.0112805682,
				"z": -1.828700174,
				"element": "H" 
			},
			{
				"x": 1.083297929,
				"y": -2.3509936519,
				"z": -1.405995406,
				"element": "H" 
			},
			{
				"x": -1.5987167447,
				"y": -1.2002134209,
				"z": -2.3157580494,
				"element": "H" 
			},
			{
				"x": -1.4228948177,
				"y": -1.2293351613,
				"z": -4.0553499743,
				"element": "H" 
			},
			{
				"x": 0.8661780625,
				"y": -0.152381096,
				"z": -3.843261618,
				"element": "H" 
			},
			{
				"x": 0.6790777931,
				"y": -0.1284437573,
				"z": -2.0831016799,
				"element": "H" 
			},
			{
				"x": -0.4072806538,
				"y": 0.8196221782,
				"z": -3.0998054769,
				"element": "H" 
			},
			{
				"x": 0.9368995418,
				"y": -4.0391615599,
				"z": -3.9523760741,
				"element": "H" 
			},
			{
				"x": 1.5353955674,
				"y": -2.3942221633,
				"z": -4.1168368319,
				"element": "H" 
			},
			{
				"x": -0.2471159404,
				"y": -1.9021853927,
				"z": -5.8180967843,
				"element": "H" 
			},
			{
				"x": -0.9636612456,
				"y": -3.4988055627,
				"z": -5.5332957106,
				"element": "H" 
			},
			{
				"x": 0.6504626175,
				"y": -3.3533169777,
				"z": -6.2594763386,
				"element": "H" 
			}
		],
		 "valence_orbital": [ 
			{
				"type": "occ",
				"energy": -0.2854,
				"method": "rhf"
			},
			{
				"type": "occ",
				"energy": -0.2617,
				"method": "rhf"
			},
			{
				"type": "occ",
				"energy": -0.23509,
				"method": "rhf"
			},
			{
				"type": "occ",
				"energy": -0.20019,
				"method": "rhf"
			},
			{
				"type": "occ",
				"energy": -0.19525,
				"method": "rhf"
			},
			{
				"type": "unocc",
				"energy": -0.027,
				"method": "rhf"
			},
			{
				"type": "unocc",
				"energy": 0.0116,
				"method": "rhf"
			},
			{
				"type": "unocc",
				"energy": 0.0732,
				"method": "rhf"
			},
			{
				"type": "unocc",
				"energy": 0.07854,
				"method": "rhf"
			},
			{
				"type": "unocc",
				"energy": 0.08277,
				"method": "rhf"
			}
		],
		"cosmo_sigma_profile": { 
			"-0.025": 0.0,
			"-0.024": 0.0,
			"-0.023": 0.0,
			"-0.022": 0.0,
			"-0.021": 0.0,
			"-0.02": 0.0,
			"-0.019": 0.0,
			"-0.018": 0.0,
			"-0.017": 0.0,
			"-0.016": 0.0,
			"-0.015": 0.0,
			"-0.014": 0.0,
			"-0.013": 0.291268840795,
			"-0.012": 1.37136472518,
			"-0.011": 1.15036877327,
			"-0.01": 2.76124666299,
			"-0.009": 2.22823153745,
			"-0.008": 2.62573237489,
			"-0.007": 2.82404000468,
			"-0.006": 5.57559054853,
			"-0.005": 15.6199920894,
			"-0.004": 24.1259577808,
			"-0.003": 40.0713445918,
			"-0.002": 43.4386874135,
			"-0.001": 47.3467591255,
			"0.0": 45.196463461,
			"0.001": 37.8772231971,
			"0.002": 25.9317114356,
			"0.003": 17.4831741002,
			"0.004": 16.9652606655,
			"0.005": 13.6553351955,
			"0.006": 5.80106452406,
			"0.007": 4.2984909471,
			"0.008": 3.09381239658,
			"0.009": 3.24072127505,
			"0.01": 2.91834516775,
			"0.011": 3.68547784487,
			"0.012": 4.92640082312,
			"0.013": 2.59746974058,
			"0.014": 0.790011389965,
			"0.015": 0.630532475089,
			"0.016": 0.0333406960859,
			"0.017": 0.0,
			"0.018": 0.0,
			"0.019": 0.0,
			"0.02": 0.0,
			"0.021": 0.0,
			"0.022": 0.0,
			"0.023": 0.0,
			"0.024": 0.0,
			"0.025": 0.0
		}
	}
}
