{
	 "smiles": "COC1=CC=C(C=C1)C(=O)NC1=C(C=CC=C1)C(O)=O", 
	 "Tm": 458.15, 
	 "num_atms": 33, 
	 "gaussian": { 
		 "optdone": 1, 
		 "sigma_profile": "yes", 
		 "theory": "DFT", 
		 "functional": "B3LYP", 
		 "basiset": "6-31G**", 
		 "properties": { 
			 "R2extent": 7979.5484, 
			 "electric_dipole_moment_norm": 5.21177275982, 
			 "electric_quadrupole_moment_norm": 19.1176735133, 
			 "total_energy": -935.097739823, 
			 "HOMO_LUMO_gap": 0.18149, 
			 "cosmo_polarized_energy": -21.77, 
			 "cosmo_cavitation_energy": 37.98, 
			 "cosmo_dispersion_energy": -27.23, 
			 "cosmo_repulsion_energy": 2.07, 
			 "cosmo_total_nonelectrostatic_energy": 12.83, 
			 "SMD_solvation_energy": 8.66 
		},
		"coords": [
			{
				"x": 5.6761845003,
				"y": 3.7840587263,
				"z": -1.4564278313,
				"element": "C" 
			},
			{
				"x": 5.0288892831,
				"y": 3.5460784759,
				"z": -0.2137256377,
				"element": "O" 
			},
			{
				"x": 3.9009232897,
				"y": 2.7869902377,
				"z": -0.204685348,
				"element": "C" 
			},
			{
				"x": 3.3214182396,
				"y": 2.2047501615,
				"z": -1.3414390616,
				"element": "C" 
			},
			{
				"x": 2.1607970054,
				"y": 1.4465584319,
				"z": -1.2085249493,
				"element": "C" 
			},
			{
				"x": 1.5653997556,
				"y": 1.2393128957,
				"z": 0.0407719555,
				"element": "C" 
			},
			{
				"x": 2.148783541,
				"y": 1.8417097135,
				"z": 1.1698264033,
				"element": "C" 
			},
			{
				"x": 3.3007970983,
				"y": 2.6055625243,
				"z": 1.0521524449,
				"element": "C" 
			},
			{
				"x": 0.3221948282,
				"y": 0.4103232361,
				"z": 0.0842065972,
				"element": "C" 
			},
			{
				"x": -0.3654592043,
				"y": 0.2096854444,
				"z": -0.9076092412,
				"element": "O" 
			},
			{
				"x": 0.0171208119,
				"y": -0.128488703,
				"z": 1.3292714019,
				"element": "N" 
			},
			{
				"x": -1.037548489,
				"y": -1.0301589265,
				"z": 1.5842533072,
				"element": "C" 
			},
			{
				"x": -2.358471981,
				"y": -0.8396217491,
				"z": 1.1250617135,
				"element": "C" 
			},
			{
				"x": -3.3113813476,
				"y": -1.8402046617,
				"z": 1.3677414059,
				"element": "C" 
			},
			{
				"x": -3.0046013132,
				"y": -2.9767820478,
				"z": 2.1075599347,
				"element": "C" 
			},
			{
				"x": -1.7107663632,
				"y": -3.1346363831,
				"z": 2.6078716766,
				"element": "C" 
			},
			{
				"x": -0.7379775886,
				"y": -2.1790215761,
				"z": 2.3324444593,
				"element": "C" 
			},
			{
				"x": -2.8748258234,
				"y": 0.376826471,
				"z": 0.429361571,
				"element": "C" 
			},
			{
				"x": -2.2655627475,
				"y": 1.5240574474,
				"z": 0.8083513457,
				"element": "O" 
			},
			{
				"x": -3.8212882334,
				"y": 0.3705692294,
				"z": -0.3308989303,
				"element": "O" 
			},
			{
				"x": 6.5412339396,
				"y": 4.40824935,
				"z": -1.2288023287,
				"element": "H" 
			},
			{
				"x": 5.0206863415,
				"y": 4.3158192526,
				"z": -2.1571924068,
				"element": "H" 
			},
			{
				"x": 6.0165088686,
				"y": 2.8495195549,
				"z": -1.9195478556,
				"element": "H" 
			},
			{
				"x": 3.7615206608,
				"y": 2.3378439303,
				"z": -2.3223905356,
				"element": "H" 
			},
			{
				"x": 1.6932227743,
				"y": 0.9992511876,
				"z": -2.0793132258,
				"element": "H" 
			},
			{
				"x": 1.680792237,
				"y": 1.7515762462,
				"z": 2.1461100438,
				"element": "H" 
			},
			{
				"x": 3.7515591047,
				"y": 3.0848968205,
				"z": 1.914695618,
				"element": "H" 
			},
			{
				"x": 0.7831797693,
				"y": -0.1749824841,
				"z": 1.985415896,
				"element": "H" 
			},
			{
				"x": -4.3093588854,
				"y": -1.6849939854,
				"z": 0.9723899818,
				"element": "H" 
			},
			{
				"x": -3.765033633,
				"y": -3.7278524345,
				"z": 2.2960589199,
				"element": "H" 
			},
			{
				"x": -1.4498772355,
				"y": -4.0114321193,
				"z": 3.1933526358,
				"element": "H" 
			},
			{
				"x": 0.2821150052,
				"y": -2.3292263521,
				"z": 2.6773943619,
				"element": "H" 
			},
			{
				"x": -2.681574209,
				"y": 2.2221620859,
				"z": 0.275865678,
				"element": "H" 
			}
		],
		 "valence_orbital": [ 
			{
				"type": "occ",
				"energy": -0.26474,
				"method": "rhf"
			},
			{
				"type": "occ",
				"energy": -0.26187,
				"method": "rhf"
			},
			{
				"type": "occ",
				"energy": -0.24916,
				"method": "rhf"
			},
			{
				"type": "occ",
				"energy": -0.23405,
				"method": "rhf"
			},
			{
				"type": "occ",
				"energy": -0.22594,
				"method": "rhf"
			},
			{
				"type": "unocc",
				"energy": -0.04445,
				"method": "rhf"
			},
			{
				"type": "unocc",
				"energy": -0.02668,
				"method": "rhf"
			},
			{
				"type": "unocc",
				"energy": -0.01413,
				"method": "rhf"
			},
			{
				"type": "unocc",
				"energy": -0.00096,
				"method": "rhf"
			},
			{
				"type": "unocc",
				"energy": 0.05543,
				"method": "rhf"
			}
		],
		"cosmo_sigma_profile": { 
			"-0.025": 0.0,
			"-0.024": 0.0,
			"-0.023": 0.0,
			"-0.022": 0.0,
			"-0.021": 0.0,
			"-0.02": 0.0,
			"-0.019": 0.0,
			"-0.018": 0.589109896397,
			"-0.017": 0.804488954526,
			"-0.016": 1.07070358706,
			"-0.015": 1.14367241299,
			"-0.014": 1.51602291977,
			"-0.013": 2.2695214607,
			"-0.012": 1.89244385156,
			"-0.011": 2.11403035744,
			"-0.01": 2.63045983072,
			"-0.009": 2.39680347435,
			"-0.008": 3.33014806052,
			"-0.007": 8.23460512025,
			"-0.006": 19.6944732836,
			"-0.005": 24.5518714037,
			"-0.004": 22.8819130837,
			"-0.003": 18.1195440962,
			"-0.002": 15.1538263139,
			"-0.001": 15.799074174,
			"0.0": 14.4117112628,
			"0.001": 17.5309124942,
			"0.002": 20.0937282522,
			"0.003": 27.2054072455,
			"0.004": 26.1963964772,
			"0.005": 7.29795822978,
			"0.006": 5.77989695021,
			"0.007": 5.49959915548,
			"0.008": 6.62618352056,
			"0.009": 6.28684084114,
			"0.01": 6.03585314826,
			"0.011": 5.60146038247,
			"0.012": 7.563886589,
			"0.013": 2.99417506229,
			"0.014": 0.206638816377,
			"0.015": 0.0,
			"0.016": 0.0,
			"0.017": 0.0,
			"0.018": 0.0,
			"0.019": 0.0,
			"0.02": 0.0,
			"0.021": 0.0,
			"0.022": 0.0,
			"0.023": 0.0,
			"0.024": 0.0,
			"0.025": 0.0
		}
	}
}
