{
	 "smiles": "O=C1CSC(C1)C1=CC=CS1", 
	 "Tm": 329.65, 
	 "num_atms": 19, 
	 "gaussian": { 
		 "optdone": 1, 
		 "sigma_profile": "yes", 
		 "theory": "DFT", 
		 "functional": "B3LYP", 
		 "basiset": "6-31G**", 
		 "properties": { 
			 "R2extent": 2477.7106, 
			 "electric_dipole_moment_norm": 2.23207739561, 
			 "electric_quadrupole_moment_norm": 11.6425072437, 
			 "total_energy": -1181.24731769, 
			 "HOMO_LUMO_gap": 0.18655, 
			 "cosmo_polarized_energy": -10.2, 
			 "cosmo_cavitation_energy": 25.33, 
			 "cosmo_dispersion_energy": -19.36, 
			 "cosmo_repulsion_energy": 1.46, 
			 "cosmo_total_nonelectrostatic_energy": 7.44, 
			 "SMD_solvation_energy": 4.17 
		},
		"coords": [
			{
				"x": -1.6872510248,
				"y": -1.2185043383,
				"z": -3.0601431009,
				"element": "O" 
			},
			{
				"x": -1.0598442718,
				"y": -1.462148369,
				"z": -2.0556983482,
				"element": "C" 
			},
			{
				"x": 0.464085602,
				"y": -1.2857522072,
				"z": -1.9595493981,
				"element": "C" 
			},
			{
				"x": 0.997003195,
				"y": -1.8562779711,
				"z": -0.3067690148,
				"element": "S" 
			},
			{
				"x": -0.7331148036,
				"y": -1.6925134026,
				"z": 0.4233851071,
				"element": "C" 
			},
			{
				"x": -1.6688137173,
				"y": -1.9921938389,
				"z": -0.757079977,
				"element": "C" 
			},
			{
				"x": -0.9757957663,
				"y": -0.3920420301,
				"z": 1.1270203462,
				"element": "C" 
			},
			{
				"x": -0.9743180064,
				"y": -0.1786113167,
				"z": 2.482208323,
				"element": "C" 
			},
			{
				"x": -1.2131346979,
				"y": 1.1802719638,
				"z": 2.8486415852,
				"element": "C" 
			},
			{
				"x": -1.3950319309,
				"y": 1.9937365189,
				"z": 1.766174445,
				"element": "C" 
			},
			{
				"x": -1.281164358,
				"y": 1.1091602825,
				"z": 0.2777196131,
				"element": "S" 
			},
			{
				"x": 0.9485005632,
				"y": -1.8753885185,
				"z": -2.7421418834,
				"element": "H" 
			},
			{
				"x": 0.7082831537,
				"y": -0.2317931051,
				"z": -2.1281831132,
				"element": "H" 
			},
			{
				"x": -0.7902655326,
				"y": -2.4845090313,
				"z": 1.1731857766,
				"element": "H" 
			},
			{
				"x": -2.675698148,
				"y": -1.589172847,
				"z": -0.6254984039,
				"element": "H" 
			},
			{
				"x": -1.7553889495,
				"y": -3.0792233733,
				"z": -0.8823080796,
				"element": "H" 
			},
			{
				"x": -0.802640515,
				"y": -0.9750365721,
				"z": 3.1988051465,
				"element": "H" 
			},
			{
				"x": -1.251256592,
				"y": 1.5326223211,
				"z": 3.8730633881,
				"element": "H" 
			},
			{
				"x": -1.5985541998,
				"y": 3.0552758349,
				"z": 1.7460675883,
				"element": "H" 
			}
		],
		 "valence_orbital": [ 
			{
				"type": "occ",
				"energy": -0.33135,
				"method": "rhf"
			},
			{
				"type": "occ",
				"energy": -0.26101,
				"method": "rhf"
			},
			{
				"type": "occ",
				"energy": -0.25682,
				"method": "rhf"
			},
			{
				"type": "occ",
				"energy": -0.24163,
				"method": "rhf"
			},
			{
				"type": "occ",
				"energy": -0.22493,
				"method": "rhf"
			},
			{
				"type": "unocc",
				"energy": -0.03838,
				"method": "rhf"
			},
			{
				"type": "unocc",
				"energy": -0.02381,
				"method": "rhf"
			},
			{
				"type": "unocc",
				"energy": 0.02085,
				"method": "rhf"
			},
			{
				"type": "unocc",
				"energy": 0.02795,
				"method": "rhf"
			},
			{
				"type": "unocc",
				"energy": 0.06061,
				"method": "rhf"
			}
		],
		"cosmo_sigma_profile": { 
			"-0.025": 0.0,
			"-0.024": 0.0,
			"-0.023": 0.0,
			"-0.022": 0.0,
			"-0.021": 0.0,
			"-0.02": 0.0,
			"-0.019": 0.0,
			"-0.018": 0.0,
			"-0.017": 0.0,
			"-0.016": 0.0,
			"-0.015": 0.0,
			"-0.014": 0.0,
			"-0.013": 0.0,
			"-0.012": 0.0,
			"-0.011": 0.0,
			"-0.01": 0.0,
			"-0.009": 0.354760225314,
			"-0.008": 6.29217816857,
			"-0.007": 15.2211277165,
			"-0.006": 15.1290418259,
			"-0.005": 14.796328822,
			"-0.004": 15.763014943,
			"-0.003": 15.4201931109,
			"-0.002": 9.64928876298,
			"-0.001": 10.8083563146,
			"0.0": 9.97342550441,
			"0.001": 9.60609999926,
			"0.002": 11.7810860536,
			"0.003": 11.2132717233,
			"0.004": 14.4543395067,
			"0.005": 14.4303870632,
			"0.006": 6.93805544329,
			"0.007": 3.83205050164,
			"0.008": 4.06658025985,
			"0.009": 4.52723268946,
			"0.01": 4.29822454993,
			"0.011": 4.83192530206,
			"0.012": 2.22622013605,
			"0.013": 0.00171789959358,
			"0.014": 0.0,
			"0.015": 0.0,
			"0.016": 0.0,
			"0.017": 0.0,
			"0.018": 0.0,
			"0.019": 0.0,
			"0.02": 0.0,
			"0.021": 0.0,
			"0.022": 0.0,
			"0.023": 0.0,
			"0.024": 0.0,
			"0.025": 0.0
		}
	}
}
