{
	 "smiles": "CN1C(=NC2=CC=CC=C12)C(C#N)C1=C(C=CC=N1)[N+]([O-])=O", 
	 "Tm": 487.15, 
	 "num_atms": 33, 
	 "gaussian": { 
		 "optdone": 1, 
		 "sigma_profile": "yes", 
		 "theory": "DFT", 
		 "functional": "B3LYP", 
		 "basiset": "6-31G**", 
		 "properties": { 
			 "R2extent": 7057.9135, 
			 "electric_dipole_moment_norm": 6.52223168632, 
			 "electric_quadrupole_moment_norm": 21.0531926745, 
			 "total_energy": -1002.30494343, 
			 "HOMO_LUMO_gap": 0.11328, 
			 "cosmo_polarized_energy": -18.8, 
			 "cosmo_cavitation_energy": 38.89, 
			 "cosmo_dispersion_energy": -26.72, 
			 "cosmo_repulsion_energy": 2.01, 
			 "cosmo_total_nonelectrostatic_energy": 14.17, 
			 "SMD_solvation_energy": 7.22 
		},
		"coords": [
			{
				"x": -0.6294119198,
				"y": -1.6413491146,
				"z": -1.4916890825,
				"element": "C" 
			},
			{
				"x": 0.2667470952,
				"y": -1.6763879735,
				"z": -0.3435843068,
				"element": "N" 
			},
			{
				"x": 1.126880598,
				"y": -0.700752134,
				"z": 0.1194608114,
				"element": "C" 
			},
			{
				"x": 1.8074687213,
				"y": -1.0535219466,
				"z": 1.1863916883,
				"element": "N" 
			},
			{
				"x": 1.3879904339,
				"y": -2.3419346127,
				"z": 1.466219473,
				"element": "C" 
			},
			{
				"x": 1.7766522267,
				"y": -3.2110025442,
				"z": 2.4947752063,
				"element": "C" 
			},
			{
				"x": 1.1938809618,
				"y": -4.4720820709,
				"z": 2.536573098,
				"element": "C" 
			},
			{
				"x": 0.2414920441,
				"y": -4.8722356216,
				"z": 1.575642809,
				"element": "C" 
			},
			{
				"x": -0.1572008215,
				"y": -4.0253135619,
				"z": 0.5455553952,
				"element": "C" 
			},
			{
				"x": 0.4286863975,
				"y": -2.7560674038,
				"z": 0.5123513971,
				"element": "C" 
			},
			{
				"x": 1.3418419871,
				"y": 0.6709499064,
				"z": -0.4856744789,
				"element": "C" 
			},
			{
				"x": 1.3905782387,
				"y": 0.6707340896,
				"z": -1.9566058886,
				"element": "C" 
			},
			{
				"x": 1.4162346127,
				"y": 0.6653919742,
				"z": -3.1167405153,
				"element": "N" 
			},
			{
				"x": 0.3119704819,
				"y": 1.7015538663,
				"z": 0.0072296567,
				"element": "C" 
			},
			{
				"x": 0.6243852425,
				"y": 3.0025488875,
				"z": 0.4406786393,
				"element": "C" 
			},
			{
				"x": -0.3740178686,
				"y": 3.8272339544,
				"z": 0.9601103718,
				"element": "C" 
			},
			{
				"x": -1.6775822103,
				"y": 3.3527880266,
				"z": 0.9949236182,
				"element": "C" 
			},
			{
				"x": -1.915795263,
				"y": 2.0659546024,
				"z": 0.5108875985,
				"element": "C" 
			},
			{
				"x": -0.9520403449,
				"y": 1.2665242449,
				"z": 0.047474091,
				"element": "N" 
			},
			{
				"x": 1.9810900288,
				"y": 3.5765261395,
				"z": 0.3711309557,
				"element": "N" 
			},
			{
				"x": 2.2225196394,
				"y": 4.531162643,
				"z": 1.1050447812,
				"element": "O" 
			},
			{
				"x": 2.7769693334,
				"y": 3.0859157823,
				"z": -0.4292901165,
				"element": "O" 
			},
			{
				"x": -0.1180993555,
				"y": -1.9465902402,
				"z": -2.4094184025,
				"element": "H" 
			},
			{
				"x": -1.4623920994,
				"y": -2.3209868537,
				"z": -1.3003493236,
				"element": "H" 
			},
			{
				"x": -1.0303579384,
				"y": -0.6358338379,
				"z": -1.6094060744,
				"element": "H" 
			},
			{
				"x": 2.5126571462,
				"y": -2.8958664502,
				"z": 3.2272793335,
				"element": "H" 
			},
			{
				"x": 1.4761113975,
				"y": -5.1679906182,
				"z": 3.3209428413,
				"element": "H" 
			},
			{
				"x": -0.1885975054,
				"y": -5.8674626123,
				"z": 1.6385073742,
				"element": "H" 
			},
			{
				"x": -0.8833437139,
				"y": -4.3467486586,
				"z": -0.1944512389,
				"element": "H" 
			},
			{
				"x": 2.3321610401,
				"y": 0.9707893243,
				"z": -0.1409286987,
				"element": "H" 
			},
			{
				"x": -0.1057025865,
				"y": 4.8146848305,
				"z": 1.3152708671,
				"element": "H" 
			},
			{
				"x": -2.4875477301,
				"y": 3.9623928058,
				"z": 1.3798017166,
				"element": "H" 
			},
			{
				"x": -2.9226282696,
				"y": 1.6547751771,
				"z": 0.4986864035,
				"element": "H" 
			}
		],
		 "valence_orbital": [ 
			{
				"type": "occ",
				"energy": -0.2999,
				"method": "rhf"
			},
			{
				"type": "occ",
				"energy": -0.29837,
				"method": "rhf"
			},
			{
				"type": "occ",
				"energy": -0.27786,
				"method": "rhf"
			},
			{
				"type": "occ",
				"energy": -0.22917,
				"method": "rhf"
			},
			{
				"type": "occ",
				"energy": -0.22558,
				"method": "rhf"
			},
			{
				"type": "unocc",
				"energy": -0.1123,
				"method": "rhf"
			},
			{
				"type": "unocc",
				"energy": -0.06982,
				"method": "rhf"
			},
			{
				"type": "unocc",
				"energy": -0.03674,
				"method": "rhf"
			},
			{
				"type": "unocc",
				"energy": -0.02319,
				"method": "rhf"
			},
			{
				"type": "unocc",
				"energy": 0.01801,
				"method": "rhf"
			}
		],
		"cosmo_sigma_profile": { 
			"-0.025": 0.0,
			"-0.024": 0.0,
			"-0.023": 0.0,
			"-0.022": 0.0,
			"-0.021": 0.0,
			"-0.02": 0.0,
			"-0.019": 0.0,
			"-0.018": 0.0,
			"-0.017": 0.0,
			"-0.016": 0.0,
			"-0.015": 0.0,
			"-0.014": 0.0,
			"-0.013": 0.0226063510124,
			"-0.012": 0.3713393736,
			"-0.011": 0.619011838764,
			"-0.01": 0.838504146696,
			"-0.009": 5.60913472565,
			"-0.008": 11.1457630446,
			"-0.007": 13.8387908324,
			"-0.006": 15.1405599724,
			"-0.005": 22.109289225,
			"-0.004": 24.6939024279,
			"-0.003": 27.4450979136,
			"-0.002": 22.7709813657,
			"-0.001": 20.6075628337,
			"0.0": 12.6197952831,
			"0.001": 15.3480590494,
			"0.002": 15.2054916282,
			"0.003": 15.6243194579,
			"0.004": 18.0715581593,
			"0.005": 17.0219881963,
			"0.006": 16.5709909873,
			"0.007": 11.0247250521,
			"0.008": 8.21377847806,
			"0.009": 5.66918201815,
			"0.01": 3.91911550449,
			"0.011": 3.35844287299,
			"0.012": 2.67723346374,
			"0.013": 0.943334770867,
			"0.014": 1.1446430421,
			"0.015": 0.7748077553,
			"0.016": 0.551362854164,
			"0.017": 0.219477289546,
			"0.018": 0.0,
			"0.019": 0.0,
			"0.02": 0.0,
			"0.021": 0.0,
			"0.022": 0.0,
			"0.023": 0.0,
			"0.024": 0.0,
			"0.025": 0.0
		}
	}
}
