{
	 "smiles": "CCCS(=O)(=O)N1CCCC(C1)C(O)=O", 
	 "Tm": 396.15, 
	 "num_atms": 32, 
	 "gaussian": { 
		 "optdone": 1, 
		 "sigma_profile": "yes", 
		 "theory": "DFT", 
		 "functional": "B3LYP", 
		 "basiset": "6-31G**", 
		 "properties": { 
			 "R2extent": 3787.526, 
			 "electric_dipole_moment_norm": 3.7839423595, 
			 "electric_quadrupole_moment_norm": 20.7292758127, 
			 "total_energy": -1106.99419975, 
			 "HOMO_LUMO_gap": 0.24271, 
			 "cosmo_polarized_energy": -17.46, 
			 "cosmo_cavitation_energy": 33.97, 
			 "cosmo_dispersion_energy": -23.84, 
			 "cosmo_repulsion_energy": 1.83, 
			 "cosmo_total_nonelectrostatic_energy": 11.96, 
			 "SMD_solvation_energy": 5.53 
		},
		"coords": [
			{
				"x": -1.7691491438,
				"y": 3.0911035173,
				"z": -0.8530402651,
				"element": "C" 
			},
			{
				"x": -0.5009658159,
				"y": 2.6586891704,
				"z": -0.1089968324,
				"element": "C" 
			},
			{
				"x": -0.7168583745,
				"y": 2.2406153957,
				"z": 1.3495986574,
				"element": "C" 
			},
			{
				"x": -1.4442253272,
				"y": 0.5920764242,
				"z": 1.5942516749,
				"element": "S" 
			},
			{
				"x": -2.6503710302,
				"y": 0.4682482538,
				"z": 0.7644559076,
				"element": "O" 
			},
			{
				"x": -1.5110213588,
				"y": 0.380942372,
				"z": 3.0466578268,
				"element": "O" 
			},
			{
				"x": -0.2652962558,
				"y": -0.4333077502,
				"z": 0.9402551798,
				"element": "N" 
			},
			{
				"x": -0.6467043547,
				"y": -1.3442207718,
				"z": -0.1741118096,
				"element": "C" 
			},
			{
				"x": -0.2386475716,
				"y": -2.784023557,
				"z": 0.1441033398,
				"element": "C" 
			},
			{
				"x": 1.2817900763,
				"y": -2.9013148044,
				"z": 0.3765079669,
				"element": "C" 
			},
			{
				"x": 1.8438660812,
				"y": -1.6710408043,
				"z": 1.1294318533,
				"element": "C" 
			},
			{
				"x": 0.7339892557,
				"y": -0.9348206672,
				"z": 1.9031275523,
				"element": "C" 
			},
			{
				"x": 2.5500003989,
				"y": -0.6952828703,
				"z": 0.1922011596,
				"element": "C" 
			},
			{
				"x": 3.1304149689,
				"y": 0.3181184932,
				"z": 0.8819799478,
				"element": "O" 
			},
			{
				"x": 2.6200769212,
				"y": -0.7756474067,
				"z": -1.0145554696,
				"element": "O" 
			},
			{
				"x": -1.5244674708,
				"y": 3.4001385048,
				"z": -1.8741633349,
				"element": "H" 
			},
			{
				"x": -2.2447172718,
				"y": 3.9424230214,
				"z": -0.3528874172,
				"element": "H" 
			},
			{
				"x": -2.4979790845,
				"y": 2.2798216426,
				"z": -0.9011727537,
				"element": "H" 
			},
			{
				"x": 0.2134796714,
				"y": 3.491492428,
				"z": -0.0932276914,
				"element": "H" 
			},
			{
				"x": 0.0011379846,
				"y": 1.8420167001,
				"z": -0.6409485327,
				"element": "H" 
			},
			{
				"x": 0.2253838833,
				"y": 2.2076854775,
				"z": 1.9043959281,
				"element": "H" 
			},
			{
				"x": -1.3953403867,
				"y": 2.9168727265,
				"z": 1.8801400043,
				"element": "H" 
			},
			{
				"x": -0.1415750485,
				"y": -1.0109641668,
				"z": -1.0885223087,
				"element": "H" 
			},
			{
				"x": -1.7225482588,
				"y": -1.265377939,
				"z": -0.3335149335,
				"element": "H" 
			},
			{
				"x": -0.5441112897,
				"y": -3.4313090446,
				"z": -0.6846489809,
				"element": "H" 
			},
			{
				"x": -0.7905903128,
				"y": -3.1261385997,
				"z": 1.0274570291,
				"element": "H" 
			},
			{
				"x": 1.4992789026,
				"y": -3.8098884578,
				"z": 0.9466915462,
				"element": "H" 
			},
			{
				"x": 1.7982309526,
				"y": -2.9867005353,
				"z": -0.5829777223,
				"element": "H" 
			},
			{
				"x": 2.5949129864,
				"y": -1.9786399306,
				"z": 1.8668832371,
				"element": "H" 
			},
			{
				"x": 0.2898860194,
				"y": -1.6145925263,
				"z": 2.6407757031,
				"element": "H" 
			},
			{
				"x": 1.1573248307,
				"y": -0.0920413396,
				"z": 2.4523216649,
				"element": "H" 
			},
			{
				"x": 3.5546954228,
				"y": 0.8876670442,
				"z": 0.2184318729,
				"element": "H" 
			}
		],
		 "valence_orbital": [ 
			{
				"type": "occ",
				"energy": -0.30872,
				"method": "rhf"
			},
			{
				"type": "occ",
				"energy": -0.29498,
				"method": "rhf"
			},
			{
				"type": "occ",
				"energy": -0.29006,
				"method": "rhf"
			},
			{
				"type": "occ",
				"energy": -0.28574,
				"method": "rhf"
			},
			{
				"type": "occ",
				"energy": -0.24728,
				"method": "rhf"
			},
			{
				"type": "unocc",
				"energy": -0.00457,
				"method": "rhf"
			},
			{
				"type": "unocc",
				"energy": 0.05273,
				"method": "rhf"
			},
			{
				"type": "unocc",
				"energy": 0.06491,
				"method": "rhf"
			},
			{
				"type": "unocc",
				"energy": 0.07581,
				"method": "rhf"
			},
			{
				"type": "unocc",
				"energy": 0.07929,
				"method": "rhf"
			}
		],
		"cosmo_sigma_profile": { 
			"-0.025": 0.0,
			"-0.024": 0.0,
			"-0.023": 0.0,
			"-0.022": 0.0,
			"-0.021": 0.0,
			"-0.02": 0.0,
			"-0.019": 0.0,
			"-0.018": 0.771104139067,
			"-0.017": 0.94382543667,
			"-0.016": 0.630394023385,
			"-0.015": 1.23404606443,
			"-0.014": 0.455633499337,
			"-0.013": 0.546345344036,
			"-0.012": 0.212115349348,
			"-0.011": 1.2180150549,
			"-0.01": 1.07348647935,
			"-0.009": 0.162291273927,
			"-0.008": 1.89927120502,
			"-0.007": 7.57998369295,
			"-0.006": 8.82723072426,
			"-0.005": 14.4621262968,
			"-0.004": 26.6015410209,
			"-0.003": 30.4205482504,
			"-0.002": 28.4047461754,
			"-0.001": 27.5287134546,
			"0.0": 19.5037741535,
			"0.001": 16.2639076706,
			"0.002": 8.48547172404,
			"0.003": 5.44239493794,
			"0.004": 6.51747078122,
			"0.005": 5.4067157408,
			"0.006": 6.16366879332,
			"0.007": 4.7024248205,
			"0.008": 5.13978636241,
			"0.009": 5.99124439563,
			"0.01": 5.97338755767,
			"0.011": 11.7377752517,
			"0.012": 9.2286230148,
			"0.013": 0.69696753298,
			"0.014": 0.0,
			"0.015": 0.0,
			"0.016": 0.0,
			"0.017": 0.0,
			"0.018": 0.0,
			"0.019": 0.0,
			"0.02": 0.0,
			"0.021": 0.0,
			"0.022": 0.0,
			"0.023": 0.0,
			"0.024": 0.0,
			"0.025": 0.0
		}
	}
}
