{
	 "smiles": "CC(N)C1=CC2=C(OCC(=O)N2)C=C1", 
	 "Tm": 404.15, 
	 "num_atms": 26, 
	 "gaussian": { 
		 "optdone": 1, 
		 "sigma_profile": "yes", 
		 "theory": "DFT", 
		 "functional": "B3LYP", 
		 "basiset": "6-31G**", 
		 "properties": { 
			 "R2extent": 3427.2767, 
			 "electric_dipole_moment_norm": 4.08882644533, 
			 "electric_quadrupole_moment_norm": 9.13674566955, 
			 "total_energy": -648.256070881, 
			 "HOMO_LUMO_gap": 0.19711, 
			 "cosmo_polarized_energy": -13.94, 
			 "cosmo_cavitation_energy": 29.25, 
			 "cosmo_dispersion_energy": -21.55, 
			 "cosmo_repulsion_energy": 1.72, 
			 "cosmo_total_nonelectrostatic_energy": 9.41, 
			 "SMD_solvation_energy": 5.15 
		},
		"coords": [
			{
				"x": 1.7072999568,
				"y": 1.2664760938,
				"z": 2.832825351,
				"element": "C" 
			},
			{
				"x": 0.2566339926,
				"y": 0.8708365864,
				"z": 2.5121363587,
				"element": "C" 
			},
			{
				"x": -0.0457621874,
				"y": -0.3919506023,
				"z": 3.2008703176,
				"element": "N" 
			},
			{
				"x": 0.0469523339,
				"y": 0.712584212,
				"z": 1.0122378462,
				"element": "C" 
			},
			{
				"x": 0.3386311411,
				"y": -0.5006048264,
				"z": 0.3773831706,
				"element": "C" 
			},
			{
				"x": 0.1962426655,
				"y": -0.6294689528,
				"z": -1.0037107251,
				"element": "C" 
			},
			{
				"x": -0.2556901395,
				"y": 0.4584864322,
				"z": -1.7675731884,
				"element": "C" 
			},
			{
				"x": -0.3542008464,
				"y": 0.3535448839,
				"z": -3.1325487164,
				"element": "O" 
			},
			{
				"x": -0.6613367839,
				"y": -0.9528626868,
				"z": -3.620867969,
				"element": "C" 
			},
			{
				"x": 0.1561986147,
				"y": -2.0726210976,
				"z": -2.9796289914,
				"element": "C" 
			},
			{
				"x": 0.4105326903,
				"y": -3.1145071452,
				"z": -3.5609176707,
				"element": "O" 
			},
			{
				"x": 0.5195766879,
				"y": -1.8181787489,
				"z": -1.6830749886,
				"element": "N" 
			},
			{
				"x": -0.5567318836,
				"y": 1.6646821263,
				"z": -1.1435540643,
				"element": "C" 
			},
			{
				"x": -0.4019939769,
				"y": 1.7888928473,
				"z": 0.2383319245,
				"element": "C" 
			},
			{
				"x": 1.9782075676,
				"y": 2.1955311732,
				"z": 2.3237047746,
				"element": "H" 
			},
			{
				"x": 1.8393514176,
				"y": 1.4191328831,
				"z": 3.9108327565,
				"element": "H" 
			},
			{
				"x": 2.3938381086,
				"y": 0.4781346567,
				"z": 2.510365741,
				"element": "H" 
			},
			{
				"x": -0.3922484495,
				"y": 1.7016303716,
				"z": 2.8427882454,
				"element": "H" 
			},
			{
				"x": -1.0305047451,
				"y": -0.6221967477,
				"z": 3.0887622035,
				"element": "H" 
			},
			{
				"x": 0.1204912928,
				"y": -0.2870291673,
				"z": 4.1988458836,
				"element": "H" 
			},
			{
				"x": 0.6725420526,
				"y": -1.3430144295,
				"z": 0.9761606127,
				"element": "H" 
			},
			{
				"x": -0.4569291138,
				"y": -0.9494753812,
				"z": -4.6915349411,
				"element": "H" 
			},
			{
				"x": -1.7289450386,
				"y": -1.1777680166,
				"z": -3.4688573147,
				"element": "H" 
			},
			{
				"x": 1.0037010818,
				"y": -2.5612594282,
				"z": -1.1956593222,
				"element": "H" 
			},
			{
				"x": -0.906570979,
				"y": 2.4919181958,
				"z": -1.7523178683,
				"element": "H" 
			},
			{
				"x": -0.64378546,
				"y": 2.7332867684,
				"z": 0.7190005743,
				"element": "H" 
			}
		],
		 "valence_orbital": [ 
			{
				"type": "occ",
				"energy": -0.30691,
				"method": "rhf"
			},
			{
				"type": "occ",
				"energy": -0.25923,
				"method": "rhf"
			},
			{
				"type": "occ",
				"energy": -0.24626,
				"method": "rhf"
			},
			{
				"type": "occ",
				"energy": -0.23608,
				"method": "rhf"
			},
			{
				"type": "occ",
				"energy": -0.21143,
				"method": "rhf"
			},
			{
				"type": "unocc",
				"energy": -0.01432,
				"method": "rhf"
			},
			{
				"type": "unocc",
				"energy": -0.00154,
				"method": "rhf"
			},
			{
				"type": "unocc",
				"energy": 0.03222,
				"method": "rhf"
			},
			{
				"type": "unocc",
				"energy": 0.07663,
				"method": "rhf"
			},
			{
				"type": "unocc",
				"energy": 0.08344,
				"method": "rhf"
			}
		],
		"cosmo_sigma_profile": { 
			"-0.025": 0.0,
			"-0.024": 0.0,
			"-0.023": 0.0,
			"-0.022": 0.0,
			"-0.021": 0.0,
			"-0.02": 0.0,
			"-0.019": 0.0,
			"-0.018": 0.0,
			"-0.017": 0.0,
			"-0.016": 0.0656839542443,
			"-0.015": 1.15413831666,
			"-0.014": 1.21949400293,
			"-0.013": 0.988645103164,
			"-0.012": 1.16522429017,
			"-0.011": 1.35361213016,
			"-0.01": 1.88925188055,
			"-0.009": 3.34380964425,
			"-0.008": 5.74805219113,
			"-0.007": 8.52455019446,
			"-0.006": 10.6766815572,
			"-0.005": 12.5552419042,
			"-0.004": 14.4014300124,
			"-0.003": 17.1576226064,
			"-0.002": 18.5223583864,
			"-0.001": 17.4692106325,
			"0.0": 16.7501080558,
			"0.001": 16.9250482525,
			"0.002": 12.5563451397,
			"0.003": 12.3532892983,
			"0.004": 11.4175999453,
			"0.005": 10.0958879281,
			"0.006": 4.47222729668,
			"0.007": 2.60924746265,
			"0.008": 3.75566148724,
			"0.009": 4.48013600324,
			"0.01": 2.76543114338,
			"0.011": 2.90369519547,
			"0.012": 4.53292169941,
			"0.013": 5.64087845821,
			"0.014": 1.67574462227,
			"0.015": 0.450997030637,
			"0.016": 0.624787465783,
			"0.017": 0.0933549095728,
			"0.018": 0.0,
			"0.019": 0.0,
			"0.02": 0.0,
			"0.021": 0.0,
			"0.022": 0.0,
			"0.023": 0.0,
			"0.024": 0.0,
			"0.025": 0.0
		}
	}
}
