{
	 "smiles": "CC1=CC2=C(C=C1)C(C)=CC=C2", 
	 "Tm": 256.25, 
	 "num_atms": 24, 
	 "gaussian": { 
		 "optdone": 1, 
		 "sigma_profile": "yes", 
		 "theory": "DFT", 
		 "functional": "B3LYP", 
		 "basiset": "6-31G**", 
		 "properties": { 
			 "R2extent": 3083.8131, 
			 "electric_dipole_moment_norm": 0.456882140163, 
			 "electric_quadrupole_moment_norm": 7.31080230207, 
			 "total_energy": -464.536165871, 
			 "HOMO_LUMO_gap": 0.17461, 
			 "cosmo_polarized_energy": -4.51, 
			 "cosmo_cavitation_energy": 26.53, 
			 "cosmo_dispersion_energy": -19.63, 
			 "cosmo_repulsion_energy": 1.53, 
			 "cosmo_total_nonelectrostatic_energy": 8.43, 
			 "SMD_solvation_energy": 4.29 
		},
		"coords": [
			{
				"x": -0.834819804,
				"y": 0.5427175853,
				"z": 2.117329746,
				"element": "C" 
			},
			{
				"x": -0.0489780509,
				"y": 0.3549036768,
				"z": 0.8423895594,
				"element": "C" 
			},
			{
				"x": 1.2543113343,
				"y": 0.7898154325,
				"z": 0.720219785,
				"element": "C" 
			},
			{
				"x": 1.9994293079,
				"y": 0.6158747698,
				"z": -0.477413901,
				"element": "C" 
			},
			{
				"x": 1.3837081677,
				"y": -0.0311656002,
				"z": -1.5983689063,
				"element": "C" 
			},
			{
				"x": 0.0390631557,
				"y": -0.4720368964,
				"z": -1.4513097567,
				"element": "C" 
			},
			{
				"x": -0.6503166314,
				"y": -0.2856757167,
				"z": -0.2753252445,
				"element": "C" 
			},
			{
				"x": 2.1306205333,
				"y": -0.2091205548,
				"z": -2.8084263283,
				"element": "C" 
			},
			{
				"x": 1.5104512802,
				"y": -0.8867592855,
				"z": -4.0069636909,
				"element": "C" 
			},
			{
				"x": 3.4323940912,
				"y": 0.2506377216,
				"z": -2.8620222258,
				"element": "C" 
			},
			{
				"x": 4.0419038463,
				"y": 0.8896345981,
				"z": -1.7562599854,
				"element": "C" 
			},
			{
				"x": 3.3414584523,
				"y": 1.0694838022,
				"z": -0.5872886905,
				"element": "C" 
			},
			{
				"x": -1.7374487241,
				"y": 1.1408769131,
				"z": 1.9442316919,
				"element": "H" 
			},
			{
				"x": -1.1640771949,
				"y": -0.4195220343,
				"z": 2.5274397209,
				"element": "H" 
			},
			{
				"x": -0.2403390651,
				"y": 1.0475518984,
				"z": 2.8836429213,
				"element": "H" 
			},
			{
				"x": 1.7393241355,
				"y": 1.2833327708,
				"z": 1.5599802968,
				"element": "H" 
			},
			{
				"x": -0.4535980521,
				"y": -0.9653201467,
				"z": -2.2828699807,
				"element": "H" 
			},
			{
				"x": -1.677415285,
				"y": -0.634020182,
				"z": -0.1939705827,
				"element": "H" 
			},
			{
				"x": 0.6205850232,
				"y": -0.3525839614,
				"z": -4.3608677144,
				"element": "H" 
			},
			{
				"x": 2.2209279062,
				"y": -0.9340345321,
				"z": -4.8362317334,
				"element": "H" 
			},
			{
				"x": 1.197702808,
				"y": -1.9124301861,
				"z": -3.7774509784,
				"element": "H" 
			},
			{
				"x": 4.0040657226,
				"y": 0.1184823791,
				"z": -3.7772199054,
				"element": "H" 
			},
			{
				"x": 5.0679723675,
				"y": 1.2368026222,
				"z": -1.8392194734,
				"element": "H" 
			},
			{
				"x": 3.8020746758,
				"y": 1.5593549263,
				"z": 0.2667753766,
				"element": "H" 
			}
		],
		 "valence_orbital": [ 
			{
				"type": "occ",
				"energy": -0.31907,
				"method": "rhf"
			},
			{
				"type": "occ",
				"energy": -0.31132,
				"method": "rhf"
			},
			{
				"type": "occ",
				"energy": -0.26928,
				"method": "rhf"
			},
			{
				"type": "occ",
				"energy": -0.23185,
				"method": "rhf"
			},
			{
				"type": "occ",
				"energy": -0.20576,
				"method": "rhf"
			},
			{
				"type": "unocc",
				"energy": -0.03115,
				"method": "rhf"
			},
			{
				"type": "unocc",
				"energy": -0.0031,
				"method": "rhf"
			},
			{
				"type": "unocc",
				"energy": 0.04156,
				"method": "rhf"
			},
			{
				"type": "unocc",
				"energy": 0.09731,
				"method": "rhf"
			},
			{
				"type": "unocc",
				"energy": 0.09894,
				"method": "rhf"
			}
		],
		"cosmo_sigma_profile": { 
			"-0.025": 0.0,
			"-0.024": 0.0,
			"-0.023": 0.0,
			"-0.022": 0.0,
			"-0.021": 0.0,
			"-0.02": 0.0,
			"-0.019": 0.0,
			"-0.018": 0.0,
			"-0.017": 0.0,
			"-0.016": 0.0,
			"-0.015": 0.0,
			"-0.014": 0.0,
			"-0.013": 0.0,
			"-0.012": 0.0,
			"-0.011": 0.0,
			"-0.01": 0.0,
			"-0.009": 0.0,
			"-0.008": 0.0,
			"-0.007": 0.0,
			"-0.006": 1.17701086449,
			"-0.005": 12.3433882113,
			"-0.004": 25.5481351785,
			"-0.003": 25.18165265,
			"-0.002": 21.1978287734,
			"-0.001": 18.9455756529,
			"0.0": 20.7437893278,
			"0.001": 16.3093252501,
			"0.002": 10.2779000953,
			"0.003": 11.2869929937,
			"0.004": 14.2441952677,
			"0.005": 22.0525187378,
			"0.006": 10.9415393955,
			"0.007": 0.272486689524,
			"0.008": 0.0,
			"0.009": 0.0,
			"0.01": 0.0,
			"0.011": 0.0,
			"0.012": 0.0,
			"0.013": 0.0,
			"0.014": 0.0,
			"0.015": 0.0,
			"0.016": 0.0,
			"0.017": 0.0,
			"0.018": 0.0,
			"0.019": 0.0,
			"0.02": 0.0,
			"0.021": 0.0,
			"0.022": 0.0,
			"0.023": 0.0,
			"0.024": 0.0,
			"0.025": 0.0
		}
	}
}
