{
	 "smiles": "CC(C)CC1NC2=C(C=C(C(Cl)=C2)S(N)(=O)=O)S(=O)(=O)N1", 
	 "Tm": 495.15, 
	 "num_atms": 37, 
	 "gaussian": { 
		 "optdone": 1, 
		 "sigma_profile": "yes", 
		 "theory": "DFT", 
		 "functional": "B3LYP", 
		 "basiset": "6-31G**", 
		 "properties": { 
			 "R2extent": 10742.0083, 
			 "electric_dipole_moment_norm": 8.19205830851, 
			 "electric_quadrupole_moment_norm": 24.734700787, 
			 "total_energy": -2150.38676203, 
			 "HOMO_LUMO_gap": 0.18549, 
			 "cosmo_polarized_energy": -31.77, 
			 "cosmo_cavitation_energy": 43.18, 
			 "cosmo_dispersion_energy": -31.73, 
			 "cosmo_repulsion_energy": 2.34, 
			 "cosmo_total_nonelectrostatic_energy": 13.79, 
			 "SMD_solvation_energy": 4.32 
		},
		"coords": [
			{
				"x": 5.0106123007,
				"y": -0.8364660979,
				"z": 1.0238303082,
				"element": "C" 
			},
			{
				"x": 3.6390115683,
				"y": -0.6363864847,
				"z": 1.6878924627,
				"element": "C" 
			},
			{
				"x": 3.1422715231,
				"y": -1.9622709925,
				"z": 2.2892573592,
				"element": "C" 
			},
			{
				"x": 2.6684583701,
				"y": 0.0049171467,
				"z": 0.6732123241,
				"element": "C" 
			},
			{
				"x": 1.2701192953,
				"y": 0.3709913881,
				"z": 1.2264708124,
				"element": "C" 
			},
			{
				"x": 0.3452083855,
				"y": -0.7678756827,
				"z": 1.2627209587,
				"element": "N" 
			},
			{
				"x": -0.7859949007,
				"y": -0.937750807,
				"z": 0.5132109173,
				"element": "C" 
			},
			{
				"x": -1.1253714296,
				"y": -0.0979936791,
				"z": -0.572203321,
				"element": "C" 
			},
			{
				"x": -2.2959319413,
				"y": -0.2760142688,
				"z": -1.2959029133,
				"element": "C" 
			},
			{
				"x": -3.1654468929,
				"y": -1.3228509785,
				"z": -0.9932563604,
				"element": "C" 
			},
			{
				"x": -2.8324065804,
				"y": -2.181570577,
				"z": 0.0704311862,
				"element": "C" 
			},
			{
				"x": -3.8510171603,
				"y": -3.5313507075,
				"z": 0.5151085335,
				"element": "Cl" 
			},
			{
				"x": -1.6758937459,
				"y": -1.9922964159,
				"z": 0.8112762923,
				"element": "C" 
			},
			{
				"x": -4.674871812,
				"y": -1.4337283504,
				"z": -1.9568963908,
				"element": "S" 
			},
			{
				"x": -4.5568288364,
				"y": -2.9490737729,
				"z": -2.6926197099,
				"element": "N" 
			},
			{
				"x": -5.8174928225,
				"y": -1.4550920631,
				"z": -1.043912697,
				"element": "O" 
			},
			{
				"x": -4.5571998034,
				"y": -0.433751472,
				"z": -3.0215845514,
				"element": "O" 
			},
			{
				"x": 0.0146580105,
				"y": 1.1787246339,
				"z": -1.0329115599,
				"element": "S" 
			},
			{
				"x": -0.6800593244,
				"y": 2.3910506108,
				"z": -1.4618276966,
				"element": "O" 
			},
			{
				"x": 1.0620981428,
				"y": 0.6049832403,
				"z": -1.8885942171,
				"element": "O" 
			},
			{
				"x": 0.5797710913,
				"y": 1.4748851272,
				"z": 0.5425549636,
				"element": "N" 
			},
			{
				"x": 4.9435684521,
				"y": -1.5532844445,
				"z": 0.1971654726,
				"element": "H" 
			},
			{
				"x": 5.7428089383,
				"y": -1.2213363161,
				"z": 1.7411454121,
				"element": "H" 
			},
			{
				"x": 5.3992602132,
				"y": 0.1029393428,
				"z": 0.6171884361,
				"element": "H" 
			},
			{
				"x": 3.7705189092,
				"y": 0.0754943747,
				"z": 2.517652208,
				"element": "H" 
			},
			{
				"x": 2.2833313585,
				"y": -1.8250158212,
				"z": 2.9574818334,
				"element": "H" 
			},
			{
				"x": 3.9276179504,
				"y": -2.426744217,
				"z": 2.8943225499,
				"element": "H" 
			},
			{
				"x": 2.8606877008,
				"y": -2.6758749197,
				"z": 1.5064065085,
				"element": "H" 
			},
			{
				"x": 3.1275271938,
				"y": 0.9351920114,
				"z": 0.3162222655,
				"element": "H" 
			},
			{
				"x": 2.5479252669,
				"y": -0.6320677904,
				"z": -0.2081106469,
				"element": "H" 
			},
			{
				"x": 1.3921596824,
				"y": 0.7262710864,
				"z": 2.2598455367,
				"element": "H" 
			},
			{
				"x": 0.5075027656,
				"y": -1.4406494282,
				"z": 1.9943410239,
				"element": "H" 
			},
			{
				"x": -2.5460982808,
				"y": 0.4025424123,
				"z": -2.1044774351,
				"element": "H" 
			},
			{
				"x": -1.4590455123,
				"y": -2.6641289117,
				"z": 1.6350370559,
				"element": "H" 
			},
			{
				"x": -4.5757226874,
				"y": -2.8302931142,
				"z": -3.701855035,
				"element": "H" 
			},
			{
				"x": -5.3021797694,
				"y": -3.5557286023,
				"z": -2.3634783532,
				"element": "H" 
			},
			{
				"x": 1.096744381,
				"y": 2.3505045409,
				"z": 0.5604564667,
				"element": "H" 
			}
		],
		 "valence_orbital": [ 
			{
				"type": "occ",
				"energy": -0.30127,
				"method": "rhf"
			},
			{
				"type": "occ",
				"energy": -0.29391,
				"method": "rhf"
			},
			{
				"type": "occ",
				"energy": -0.27894,
				"method": "rhf"
			},
			{
				"type": "occ",
				"energy": -0.27119,
				"method": "rhf"
			},
			{
				"type": "occ",
				"energy": -0.23398,
				"method": "rhf"
			},
			{
				"type": "unocc",
				"energy": -0.04849,
				"method": "rhf"
			},
			{
				"type": "unocc",
				"energy": -0.03583,
				"method": "rhf"
			},
			{
				"type": "unocc",
				"energy": 0.00397,
				"method": "rhf"
			},
			{
				"type": "unocc",
				"energy": 0.03087,
				"method": "rhf"
			},
			{
				"type": "unocc",
				"energy": 0.04862,
				"method": "rhf"
			}
		],
		"cosmo_sigma_profile": { 
			"-0.025": 0.0,
			"-0.024": 0.0,
			"-0.023": 0.0,
			"-0.022": 0.0,
			"-0.021": 0.0,
			"-0.02": 0.0,
			"-0.019": 0.0,
			"-0.018": 0.0,
			"-0.017": 0.0,
			"-0.016": 0.867115477712,
			"-0.015": 3.85674658913,
			"-0.014": 4.798990596,
			"-0.013": 5.55963698718,
			"-0.012": 5.13058631787,
			"-0.011": 5.55340590269,
			"-0.01": 5.89484622754,
			"-0.009": 5.47424154696,
			"-0.008": 6.31037294909,
			"-0.007": 7.70796283097,
			"-0.006": 7.32721256716,
			"-0.005": 7.84549802587,
			"-0.004": 11.2393046222,
			"-0.003": 23.7402210905,
			"-0.002": 27.6356382384,
			"-0.001": 32.0175577768,
			"0.0": 36.8161939535,
			"0.001": 30.0386956546,
			"0.002": 14.7133041279,
			"0.003": 12.1070230831,
			"0.004": 9.01604011871,
			"0.005": 7.45570946497,
			"0.006": 6.2139143754,
			"0.007": 7.28461896543,
			"0.008": 9.15423445614,
			"0.009": 10.4148764001,
			"0.01": 17.9829728501,
			"0.011": 17.9088959809,
			"0.012": 2.39443149717,
			"0.013": 0.0,
			"0.014": 0.0,
			"0.015": 0.0,
			"0.016": 0.0,
			"0.017": 0.0,
			"0.018": 0.0,
			"0.019": 0.0,
			"0.02": 0.0,
			"0.021": 0.0,
			"0.022": 0.0,
			"0.023": 0.0,
			"0.024": 0.0,
			"0.025": 0.0
		}
	}
}
