{
	 "smiles": "CC(C)(C)OC(=O)NCC1=NN=C(S)N1CC=C", 
	 "Tm": 425.15, 
	 "num_atms": 36, 
	 "gaussian": { 
		 "optdone": 1, 
		 "sigma_profile": "yes", 
		 "theory": "DFT", 
		 "functional": "B3LYP", 
		 "basiset": "6-31G**", 
		 "properties": { 
			 "R2extent": 7352.6366, 
			 "electric_dipole_moment_norm": 6.00472509695, 
			 "electric_quadrupole_moment_norm": 33.8519216617, 
			 "total_energy": -1197.64468545, 
			 "HOMO_LUMO_gap": 0.22609, 
			 "cosmo_polarized_energy": -21.68, 
			 "cosmo_cavitation_energy": 40.5, 
			 "cosmo_dispersion_energy": -26.72, 
			 "cosmo_repulsion_energy": 2.02, 
			 "cosmo_total_nonelectrostatic_energy": 15.8, 
			 "SMD_solvation_energy": 5.38 
		},
		"coords": [
			{
				"x": 0.0578523911,
				"y": -1.8025646279,
				"z": 2.6171857802,
				"element": "C" 
			},
			{
				"x": 0.6628163107,
				"y": -1.10368502,
				"z": 1.3957306778,
				"element": "C" 
			},
			{
				"x": 1.8687139993,
				"y": -0.2520965603,
				"z": 1.7993984844,
				"element": "C" 
			},
			{
				"x": 1.0370540846,
				"y": -2.0903761031,
				"z": 0.2852148562,
				"element": "C" 
			},
			{
				"x": -0.2837171529,
				"y": -0.0944582872,
				"z": 0.8770406461,
				"element": "O" 
			},
			{
				"x": -1.5098151702,
				"y": -0.4624411843,
				"z": 0.427421357,
				"element": "C" 
			},
			{
				"x": -1.9345774612,
				"y": -1.6024160164,
				"z": 0.3454524402,
				"element": "O" 
			},
			{
				"x": -2.238933401,
				"y": 0.6292041962,
				"z": 0.0276325734,
				"element": "N" 
			},
			{
				"x": -1.9140502178,
				"y": 2.0379543926,
				"z": 0.2278777246,
				"element": "C" 
			},
			{
				"x": -1.8550423549,
				"y": 2.8186339706,
				"z": -1.0513264539,
				"element": "C" 
			},
			{
				"x": -2.7035434319,
				"y": 3.7715526518,
				"z": -1.3691297322,
				"element": "N" 
			},
			{
				"x": -2.3655151509,
				"y": 4.2396054323,
				"z": -2.619599299,
				"element": "N" 
			},
			{
				"x": -1.3178939609,
				"y": 3.5543042742,
				"z": -3.0187584019,
				"element": "C" 
			},
			{
				"x": -0.4372240371,
				"y": 3.8797112209,
				"z": -4.5155357732,
				"element": "S" 
			},
			{
				"x": -0.9358109325,
				"y": 2.6410508287,
				"z": -2.0579959831,
				"element": "N" 
			},
			{
				"x": 0.1701499112,
				"y": 1.6820350287,
				"z": -2.1257740696,
				"element": "C" 
			},
			{
				"x": -0.1499910191,
				"y": 0.4843637651,
				"z": -2.9855506769,
				"element": "C" 
			},
			{
				"x": 0.6242240316,
				"y": 0.0584493876,
				"z": -3.984319912,
				"element": "C" 
			},
			{
				"x": -0.8177278355,
				"y": -2.389078329,
				"z": 2.3384375704,
				"element": "H" 
			},
			{
				"x": 0.802806779,
				"y": -2.4699301017,
				"z": 3.0621069413,
				"element": "H" 
			},
			{
				"x": -0.2318287204,
				"y": -1.0659621407,
				"z": 3.373270007,
				"element": "H" 
			},
			{
				"x": 2.6507274697,
				"y": -0.8892289058,
				"z": 2.2224304963,
				"element": "H" 
			},
			{
				"x": 2.285307489,
				"y": 0.2713972166,
				"z": 0.9334389532,
				"element": "H" 
			},
			{
				"x": 1.5853487405,
				"y": 0.4909013183,
				"z": 2.5505692154,
				"element": "H" 
			},
			{
				"x": 1.4048466143,
				"y": -1.5543236011,
				"z": -0.595743597,
				"element": "H" 
			},
			{
				"x": 1.835626518,
				"y": -2.750986814,
				"z": 0.6380096092,
				"element": "H" 
			},
			{
				"x": 0.178606129,
				"y": -2.6963506516,
				"z": -0.0041635678,
				"element": "H" 
			},
			{
				"x": -3.1751296885,
				"y": 0.3945877833,
				"z": -0.2702532236,
				"element": "H" 
			},
			{
				"x": -0.9682068521,
				"y": 2.0845216097,
				"z": 0.7698980421,
				"element": "H" 
			},
			{
				"x": -2.6765547539,
				"y": 2.5255247294,
				"z": 0.8440212087,
				"element": "H" 
			},
			{
				"x": -0.422742117,
				"y": 2.6045502115,
				"z": -4.9617876388,
				"element": "H" 
			},
			{
				"x": 1.0525841535,
				"y": 2.2060579133,
				"z": -2.5052830088,
				"element": "H" 
			},
			{
				"x": 0.3788867948,
				"y": 1.3600932076,
				"z": -1.1015021056,
				"element": "H" 
			},
			{
				"x": -1.0630715964,
				"y": -0.0494553521,
				"z": -2.7284294442,
				"element": "H" 
			},
			{
				"x": 0.3746342317,
				"y": -0.8294240261,
				"z": -4.5568819848,
				"element": "H" 
			},
			{
				"x": 1.5425902061,
				"y": 0.573978583,
				"z": -4.256501711,
				"element": "H" 
			}
		],
		 "valence_orbital": [ 
			{
				"type": "occ",
				"energy": -0.28535,
				"method": "rhf"
			},
			{
				"type": "occ",
				"energy": -0.27576,
				"method": "rhf"
			},
			{
				"type": "occ",
				"energy": -0.26999,
				"method": "rhf"
			},
			{
				"type": "occ",
				"energy": -0.25479,
				"method": "rhf"
			},
			{
				"type": "occ",
				"energy": -0.24191,
				"method": "rhf"
			},
			{
				"type": "unocc",
				"energy": -0.01582,
				"method": "rhf"
			},
			{
				"type": "unocc",
				"energy": -0.00601,
				"method": "rhf"
			},
			{
				"type": "unocc",
				"energy": 0.02487,
				"method": "rhf"
			},
			{
				"type": "unocc",
				"energy": 0.03948,
				"method": "rhf"
			},
			{
				"type": "unocc",
				"energy": 0.0466,
				"method": "rhf"
			}
		],
		"cosmo_sigma_profile": { 
			"-0.025": 0.0,
			"-0.024": 0.0,
			"-0.023": 0.0,
			"-0.022": 0.0,
			"-0.021": 0.0,
			"-0.02": 0.0,
			"-0.019": 0.0,
			"-0.018": 0.0,
			"-0.017": 0.0,
			"-0.016": 0.0,
			"-0.015": 0.216850588448,
			"-0.014": 0.968511276653,
			"-0.013": 1.1614588152,
			"-0.012": 1.26657035857,
			"-0.011": 1.00581286382,
			"-0.01": 1.38851846312,
			"-0.009": 2.23933737411,
			"-0.008": 3.94161893197,
			"-0.007": 7.35798487255,
			"-0.006": 13.6189503826,
			"-0.005": 16.9732079094,
			"-0.004": 28.9088304874,
			"-0.003": 31.2260338622,
			"-0.002": 33.5768020788,
			"-0.001": 32.0070780868,
			"0.0": 34.7748588346,
			"0.001": 25.4581169145,
			"0.002": 15.0116537981,
			"0.003": 9.94422035079,
			"0.004": 7.25760659991,
			"0.005": 6.06487503894,
			"0.006": 5.01917813275,
			"0.007": 5.16803799404,
			"0.008": 4.95622851261,
			"0.009": 3.04334581809,
			"0.01": 3.79372935008,
			"0.011": 3.60412223706,
			"0.012": 4.46409653627,
			"0.013": 7.36182160177,
			"0.014": 4.54638439909,
			"0.015": 2.07565045354,
			"0.016": 2.40823524395,
			"0.017": 0.666553928152,
			"0.018": 0.0,
			"0.019": 0.0,
			"0.02": 0.0,
			"0.021": 0.0,
			"0.022": 0.0,
			"0.023": 0.0,
			"0.024": 0.0,
			"0.025": 0.0
		}
	}
}
