{
	 "smiles": "COC1=CC(CCN)=CC(OC)=C1OC", 
	 "Tm": 308.65, 
	 "num_atms": 32, 
	 "gaussian": { 
		 "optdone": 1, 
		 "sigma_profile": "yes", 
		 "theory": "DFT", 
		 "functional": "B3LYP", 
		 "basiset": "6-31G**", 
		 "properties": { 
			 "R2extent": 4492.6679, 
			 "electric_dipole_moment_norm": 2.05253292544, 
			 "electric_quadrupole_moment_norm": 15.8729630416, 
			 "total_energy": -709.789535276, 
			 "HOMO_LUMO_gap": 0.21509, 
			 "cosmo_polarized_energy": -12.88, 
			 "cosmo_cavitation_energy": 34.95, 
			 "cosmo_dispersion_energy": -24.29, 
			 "cosmo_repulsion_energy": 1.97, 
			 "cosmo_total_nonelectrostatic_energy": 12.63, 
			 "SMD_solvation_energy": 6.74 
		},
		"coords": [
			{
				"x": 0.3175511414,
				"y": -2.7628887713,
				"z": 1.5052256458,
				"element": "C" 
			},
			{
				"x": 1.0068565116,
				"y": -1.5661067782,
				"z": 1.8268038429,
				"element": "O" 
			},
			{
				"x": 0.5609725454,
				"y": -0.3986257143,
				"z": 1.2752641287,
				"element": "C" 
			},
			{
				"x": -0.5220977111,
				"y": -0.2952077793,
				"z": 0.3981351939,
				"element": "C" 
			},
			{
				"x": -0.9016054335,
				"y": 0.9511316658,
				"z": -0.1252704327,
				"element": "C" 
			},
			{
				"x": -2.0362579893,
				"y": 1.0425251807,
				"z": -1.1215624981,
				"element": "C" 
			},
			{
				"x": -1.5767075853,
				"y": 0.8160129784,
				"z": -2.5830690136,
				"element": "C" 
			},
			{
				"x": -2.6238360811,
				"y": 0.8938842183,
				"z": -3.600853817,
				"element": "N" 
			},
			{
				"x": -0.1877166454,
				"y": 2.090364965,
				"z": 0.2483138803,
				"element": "C" 
			},
			{
				"x": 0.9005729645,
				"y": 1.9968314196,
				"z": 1.1229244002,
				"element": "C" 
			},
			{
				"x": 1.606852799,
				"y": 3.1401063321,
				"z": 1.4100067825,
				"element": "O" 
			},
			{
				"x": 1.5617919765,
				"y": 3.5755067547,
				"z": 2.7723169978,
				"element": "C" 
			},
			{
				"x": 1.2849337452,
				"y": 0.7548867361,
				"z": 1.6436846266,
				"element": "C" 
			},
			{
				"x": 2.331695024,
				"y": 0.6689137445,
				"z": 2.5328156684,
				"element": "O" 
			},
			{
				"x": 3.5615571444,
				"y": 0.2221185455,
				"z": 1.955507276,
				"element": "C" 
			},
			{
				"x": 0.3568005611,
				"y": -2.9790802315,
				"z": 0.4295764869,
				"element": "H" 
			},
			{
				"x": 0.8272338735,
				"y": -3.5590564641,
				"z": 2.0502608867,
				"element": "H" 
			},
			{
				"x": -0.7320847205,
				"y": -2.7232733076,
				"z": 1.8235678264,
				"element": "H" 
			},
			{
				"x": -1.0827666604,
				"y": -1.1790065356,
				"z": 0.1150446465,
				"element": "H" 
			},
			{
				"x": -2.5127931341,
				"y": 2.0287709778,
				"z": -1.052888068,
				"element": "H" 
			},
			{
				"x": -2.809621306,
				"y": 0.3014057683,
				"z": -0.8788276569,
				"element": "H" 
			},
			{
				"x": -1.0977557286,
				"y": -0.1677414416,
				"z": -2.658751187,
				"element": "H" 
			},
			{
				"x": -0.8023108152,
				"y": 1.5514380752,
				"z": -2.8309952354,
				"element": "H" 
			},
			{
				"x": -3.0684297331,
				"y": 1.8091004779,
				"z": -3.5718514825,
				"element": "H" 
			},
			{
				"x": -3.3572812195,
				"y": 0.2178210817,
				"z": -3.3976781578,
				"element": "H" 
			},
			{
				"x": -0.4529866535,
				"y": 3.071221989,
				"z": -0.134236844,
				"element": "H" 
			},
			{
				"x": 0.5299453344,
				"y": 3.7951837755,
				"z": 3.0765840723,
				"element": "H" 
			},
			{
				"x": 2.1503783708,
				"y": 4.4945965315,
				"z": 2.815912894,
				"element": "H" 
			},
			{
				"x": 1.9909423384,
				"y": 2.828343943,
				"z": 3.4451100812,
				"element": "H" 
			},
			{
				"x": 4.2984450961,
				"y": 0.2234770811,
				"z": 2.761836495,
				"element": "H" 
			},
			{
				"x": 3.4630221318,
				"y": -0.7931854764,
				"z": 1.5565391064,
				"element": "H" 
			},
			{
				"x": 3.8912998582,
				"y": 0.901730258,
				"z": 1.1603534548,
				"element": "H" 
			}
		],
		 "valence_orbital": [ 
			{
				"type": "occ",
				"energy": -0.27663,
				"method": "rhf"
			},
			{
				"type": "occ",
				"energy": -0.25923,
				"method": "rhf"
			},
			{
				"type": "occ",
				"energy": -0.23631,
				"method": "rhf"
			},
			{
				"type": "occ",
				"energy": -0.21999,
				"method": "rhf"
			},
			{
				"type": "occ",
				"energy": -0.20897,
				"method": "rhf"
			},
			{
				"type": "unocc",
				"energy": 0.00612,
				"method": "rhf"
			},
			{
				"type": "unocc",
				"energy": 0.01696,
				"method": "rhf"
			},
			{
				"type": "unocc",
				"energy": 0.0786,
				"method": "rhf"
			},
			{
				"type": "unocc",
				"energy": 0.0852,
				"method": "rhf"
			},
			{
				"type": "unocc",
				"energy": 0.09905,
				"method": "rhf"
			}
		],
		"cosmo_sigma_profile": { 
			"-0.025": 0.0,
			"-0.024": 0.0,
			"-0.023": 0.0,
			"-0.022": 0.0,
			"-0.021": 0.0,
			"-0.02": 0.0,
			"-0.019": 0.0,
			"-0.018": 0.0,
			"-0.017": 0.0,
			"-0.016": 0.0,
			"-0.015": 0.0,
			"-0.014": 0.0,
			"-0.013": 0.0,
			"-0.012": 0.0,
			"-0.011": 0.0,
			"-0.01": 0.407358971887,
			"-0.009": 2.45407443632,
			"-0.008": 3.00160377006,
			"-0.007": 2.80091211469,
			"-0.006": 7.99245121595,
			"-0.005": 21.3904381808,
			"-0.004": 28.0167119847,
			"-0.003": 37.1026130205,
			"-0.002": 33.5547126078,
			"-0.001": 18.0244969151,
			"0.0": 16.8871898249,
			"0.001": 15.3752449249,
			"0.002": 12.4416899617,
			"0.003": 13.4842694721,
			"0.004": 14.1651606386,
			"0.005": 13.1473757873,
			"0.006": 6.47603226061,
			"0.007": 3.2729811609,
			"0.008": 4.10576084456,
			"0.009": 2.89002738774,
			"0.01": 3.63512608535,
			"0.011": 3.25394427416,
			"0.012": 4.31415111129,
			"0.013": 1.13609345832,
			"0.014": 0.753192000862,
			"0.015": 0.484376383978,
			"0.016": 0.564041971407,
			"0.017": 0.756633873084,
			"0.018": 0.783813002286,
			"0.019": 0.643263846242,
			"0.02": 0.315198186828,
			"0.021": 0.0,
			"0.022": 0.0,
			"0.023": 0.0,
			"0.024": 0.0,
			"0.025": 0.0
		}
	}
}
