{
	 "smiles": "ClC1=CC(=CC=C1)N1N=CC(C=O)=N1", 
	 "Tm": 358.15, 
	 "num_atms": 20, 
	 "gaussian": { 
		 "optdone": 1, 
		 "sigma_profile": "yes", 
		 "theory": "DFT", 
		 "functional": "B3LYP", 
		 "basiset": "6-31G**", 
		 "properties": { 
			 "R2extent": 4387.9434, 
			 "electric_dipole_moment_norm": 1.34528100782, 
			 "electric_quadrupole_moment_norm": 22.6910319256, 
			 "total_energy": -1046.19325015, 
			 "HOMO_LUMO_gap": 0.17301, 
			 "cosmo_polarized_energy": -11.17, 
			 "cosmo_cavitation_energy": 27.91, 
			 "cosmo_dispersion_energy": -20.55, 
			 "cosmo_repulsion_energy": 1.61, 
			 "cosmo_total_nonelectrostatic_energy": 8.97, 
			 "SMD_solvation_energy": 4.4 
		},
		"coords": [
			{
				"x": 0.3296933466,
				"y": 2.8349131886,
				"z": 3.911083267,
				"element": "Cl" 
			},
			{
				"x": 0.2533983115,
				"y": 2.1861958952,
				"z": 2.2816856534,
				"element": "C" 
			},
			{
				"x": -0.1652972998,
				"y": 0.8708010962,
				"z": 2.1017353665,
				"element": "C" 
			},
			{
				"x": -0.2199503526,
				"y": 0.3713375842,
				"z": 0.7983680099,
				"element": "C" 
			},
			{
				"x": 0.1316052184,
				"y": 1.1549820565,
				"z": -0.3033649856,
				"element": "C" 
			},
			{
				"x": 0.5459628765,
				"y": 2.4669182059,
				"z": -0.0853150556,
				"element": "C" 
			},
			{
				"x": 0.6117710088,
				"y": 2.9967200806,
				"z": 1.2044566225,
				"element": "C" 
			},
			{
				"x": -0.6462873924,
				"y": -0.9732912471,
				"z": 0.5935025419,
				"element": "N" 
			},
			{
				"x": -0.996593803,
				"y": -1.7730238801,
				"z": 1.617114425,
				"element": "N" 
			},
			{
				"x": -1.3222004323,
				"y": -2.9127327517,
				"z": 1.0176894809,
				"element": "C" 
			},
			{
				"x": -1.154961315,
				"y": -2.7632013414,
				"z": -0.3773502287,
				"element": "C" 
			},
			{
				"x": -1.3925447217,
				"y": -3.7550689122,
				"z": -1.4399519534,
				"element": "C" 
			},
			{
				"x": -1.2277261191,
				"y": -3.5571697309,
				"z": -2.6257144733,
				"element": "O" 
			},
			{
				"x": -0.7231266485,
				"y": -1.5145459578,
				"z": -0.6131360364,
				"element": "N" 
			},
			{
				"x": -0.4422544844,
				"y": 0.2460010071,
				"z": 2.9402018795,
				"element": "H" 
			},
			{
				"x": 0.0772195929,
				"y": 0.7351021303,
				"z": -1.2997857348,
				"element": "H" 
			},
			{
				"x": 0.8219626301,
				"y": 3.0866328908,
				"z": -0.9325606086,
				"element": "H" 
			},
			{
				"x": 0.9341003512,
				"y": 4.0174517539,
				"z": 1.3748174463,
				"element": "H" 
			},
			{
				"x": -1.6527399585,
				"y": -3.7680753653,
				"z": 1.5894116875,
				"element": "H" 
			},
			{
				"x": -1.7492308089,
				"y": -4.7364467029,
				"z": -1.0582873039,
				"element": "H" 
			}
		],
		 "valence_orbital": [ 
			{
				"type": "occ",
				"energy": -0.31875,
				"method": "rhf"
			},
			{
				"type": "occ",
				"energy": -0.31188,
				"method": "rhf"
			},
			{
				"type": "occ",
				"energy": -0.26771,
				"method": "rhf"
			},
			{
				"type": "occ",
				"energy": -0.26628,
				"method": "rhf"
			},
			{
				"type": "occ",
				"energy": -0.25341,
				"method": "rhf"
			},
			{
				"type": "unocc",
				"energy": -0.0804,
				"method": "rhf"
			},
			{
				"type": "unocc",
				"energy": -0.04114,
				"method": "rhf"
			},
			{
				"type": "unocc",
				"energy": -0.02805,
				"method": "rhf"
			},
			{
				"type": "unocc",
				"energy": 0.00873,
				"method": "rhf"
			},
			{
				"type": "unocc",
				"energy": 0.01839,
				"method": "rhf"
			}
		],
		"cosmo_sigma_profile": { 
			"-0.025": 0.0,
			"-0.024": 0.0,
			"-0.023": 0.0,
			"-0.022": 0.0,
			"-0.021": 0.0,
			"-0.02": 0.0,
			"-0.019": 0.0,
			"-0.018": 0.0,
			"-0.017": 0.0,
			"-0.016": 0.0,
			"-0.015": 0.0,
			"-0.014": 0.0,
			"-0.013": 0.0,
			"-0.012": 0.0,
			"-0.011": 0.250239557231,
			"-0.01": 2.92461868937,
			"-0.009": 3.59467276598,
			"-0.008": 6.41014891377,
			"-0.007": 11.2193457863,
			"-0.006": 10.3355913462,
			"-0.005": 10.519828778,
			"-0.004": 10.9858347167,
			"-0.003": 14.6830679232,
			"-0.002": 16.052986314,
			"-0.001": 17.503798676,
			"0.0": 19.7031249902,
			"0.001": 23.6605586319,
			"0.002": 18.9233985495,
			"0.003": 13.7877377695,
			"0.004": 13.5608836003,
			"0.005": 5.53873823738,
			"0.006": 4.25065860805,
			"0.007": 2.34236095357,
			"0.008": 4.80361513427,
			"0.009": 4.16715896857,
			"0.01": 4.8558477497,
			"0.011": 5.32514999381,
			"0.012": 2.79081693636,
			"0.013": 0.187589221039,
			"0.014": 0.0,
			"0.015": 0.0,
			"0.016": 0.0,
			"0.017": 0.0,
			"0.018": 0.0,
			"0.019": 0.0,
			"0.02": 0.0,
			"0.021": 0.0,
			"0.022": 0.0,
			"0.023": 0.0,
			"0.024": 0.0,
			"0.025": 0.0
		}
	}
}
