{
	 "smiles": "OC1=CC2=C(CC3=CC(O)=C(O)C=C3CC3=CC(O)=C(O)C=C3C2)C=C1O", 
	 "Tm": 561.15, 
	 "num_atms": 45, 
	 "gaussian": { 
		 "optdone": 1, 
		 "sigma_profile": "yes", 
		 "theory": "DFT", 
		 "functional": "B3LYP", 
		 "basiset": "6-31G**", 
		 "properties": { 
			 "R2extent": 10279.862, 
			 "electric_dipole_moment_norm": 4.68694952501, 
			 "electric_quadrupole_moment_norm": 29.140262498, 
			 "total_energy": -1262.41231511, 
			 "HOMO_LUMO_gap": 0.18892, 
			 "cosmo_polarized_energy": -29.94, 
			 "cosmo_cavitation_energy": 46.65, 
			 "cosmo_dispersion_energy": -33.42, 
			 "cosmo_repulsion_energy": 2.48, 
			 "cosmo_total_nonelectrostatic_energy": 15.7, 
			 "SMD_solvation_energy": 8.43 
		},
		"coords": [
			{
				"x": 1.1699074336,
				"y": 1.815740367,
				"z": -4.5135076521,
				"element": "O" 
			},
			{
				"x": 1.2281858774,
				"y": 0.9029877291,
				"z": -3.5018618953,
				"element": "C" 
			},
			{
				"x": 1.6879530611,
				"y": 1.2731944658,
				"z": -2.2453444404,
				"element": "C" 
			},
			{
				"x": 1.7630484926,
				"y": 0.3587480547,
				"z": -1.1814696967,
				"element": "C" 
			},
			{
				"x": 1.3772256366,
				"y": -0.9765283613,
				"z": -1.3996801573,
				"element": "C" 
			},
			{
				"x": 1.4210971011,
				"y": -2.057475685,
				"z": -0.3248232174,
				"element": "C" 
			},
			{
				"x": 0.1026759964,
				"y": -2.2731291061,
				"z": 0.4111948041,
				"element": "C" 
			},
			{
				"x": -0.8245267125,
				"y": -3.1574505923,
				"z": -0.1644750389,
				"element": "C" 
			},
			{
				"x": -2.0601607887,
				"y": -3.4105342038,
				"z": 0.4153004467,
				"element": "C" 
			},
			{
				"x": -2.9346775971,
				"y": -4.2776977357,
				"z": -0.1717128172,
				"element": "O" 
			},
			{
				"x": -2.3822272226,
				"y": -2.7734670799,
				"z": 1.6228434658,
				"element": "C" 
			},
			{
				"x": -3.6173957954,
				"y": -3.0915211139,
				"z": 2.1452010689,
				"element": "O" 
			},
			{
				"x": -1.4698605401,
				"y": -1.9109575648,
				"z": 2.2120579762,
				"element": "C" 
			},
			{
				"x": -0.2228655336,
				"y": -1.636193144,
				"z": 1.6231601454,
				"element": "C" 
			},
			{
				"x": 0.7066848377,
				"y": -0.6671710118,
				"z": 2.3472038967,
				"element": "C" 
			},
			{
				"x": 0.4782168047,
				"y": 0.806953992,
				"z": 2.028283573,
				"element": "C" 
			},
			{
				"x": -0.4910714459,
				"y": 1.4952979642,
				"z": 2.7793140519,
				"element": "C" 
			},
			{
				"x": -0.7729339923,
				"y": 2.8345227841,
				"z": 2.5552732446,
				"element": "C" 
			},
			{
				"x": -1.7036029603,
				"y": 3.5716573838,
				"z": 3.2557499815,
				"element": "O" 
			},
			{
				"x": -0.0698870615,
				"y": 3.5395425209,
				"z": 1.5669411178,
				"element": "C" 
			},
			{
				"x": -0.3178068175,
				"y": 4.861744971,
				"z": 1.343674648,
				"element": "O" 
			},
			{
				"x": 0.8997204039,
				"y": 2.8715912314,
				"z": 0.831288367,
				"element": "C" 
			},
			{
				"x": 1.1860545698,
				"y": 1.5118241461,
				"z": 1.0367984661,
				"element": "C" 
			},
			{
				"x": 2.2640053787,
				"y": 0.8793923721,
				"z": 0.1619235393,
				"element": "C" 
			},
			{
				"x": 0.9264372911,
				"y": -1.3464649657,
				"z": -2.6791055307,
				"element": "C" 
			},
			{
				"x": 0.8410073822,
				"y": -0.4288210256,
				"z": -3.7149714607,
				"element": "C" 
			},
			{
				"x": 0.4134332099,
				"y": -0.7209159228,
				"z": -4.9918621327,
				"element": "O" 
			},
			{
				"x": 0.8213170966,
				"y": 1.3594582877,
				"z": -5.2936849103,
				"element": "H" 
			},
			{
				"x": 1.9955242462,
				"y": 2.3048560656,
				"z": -2.1054876182,
				"element": "H" 
			},
			{
				"x": 2.223487721,
				"y": -1.8512825894,
				"z": 0.3864101968,
				"element": "H" 
			},
			{
				"x": 1.6929086163,
				"y": -3.0030376132,
				"z": -0.8071457403,
				"element": "H" 
			},
			{
				"x": -0.5863155989,
				"y": -3.6775729489,
				"z": -1.0872814552,
				"element": "H" 
			},
			{
				"x": -3.7217485015,
				"y": -4.3193128014,
				"z": 0.391432497,
				"element": "H" 
			},
			{
				"x": -3.7542967787,
				"y": -2.6135754794,
				"z": 2.9718838724,
				"element": "H" 
			},
			{
				"x": -1.7269511628,
				"y": -1.4419863807,
				"z": 3.1605901968,
				"element": "H" 
			},
			{
				"x": 1.7484602535,
				"y": -0.9355802481,
				"z": 2.1601715357,
				"element": "H" 
			},
			{
				"x": 0.5598674654,
				"y": -0.8042210411,
				"z": 3.4248746213,
				"element": "H" 
			},
			{
				"x": -1.0308731691,
				"y": 0.9689503485,
				"z": 3.5651417876,
				"element": "H" 
			},
			{
				"x": -2.1321537925,
				"y": 3.0127103057,
				"z": 3.9148586905,
				"element": "H" 
			},
			{
				"x": -1.0153124424,
				"y": 5.1333497404,
				"z": 1.958413726,
				"element": "H" 
			},
			{
				"x": 1.444447162,
				"y": 3.4399045535,
				"z": 0.0838435617,
				"element": "H" 
			},
			{
				"x": 3.0242360785,
				"y": 1.6425365993,
				"z": -0.036102034,
				"element": "H" 
			},
			{
				"x": 2.7792890668,
				"y": 0.0867018238,
				"z": 0.7084456831,
				"element": "H" 
			},
			{
				"x": 0.6403234465,
				"y": -2.379928973,
				"z": -2.8664856689,
				"element": "H" 
			},
			{
				"x": 0.1166532837,
				"y": -1.6380401187,
				"z": -5.0336736957,
				"element": "H" 
			}
		],
		 "valence_orbital": [ 
			{
				"type": "occ",
				"energy": -0.23241,
				"method": "rhf"
			},
			{
				"type": "occ",
				"energy": -0.22281,
				"method": "rhf"
			},
			{
				"type": "occ",
				"energy": -0.20831,
				"method": "rhf"
			},
			{
				"type": "occ",
				"energy": -0.19676,
				"method": "rhf"
			},
			{
				"type": "occ",
				"energy": -0.19466,
				"method": "rhf"
			},
			{
				"type": "unocc",
				"energy": -0.00574,
				"method": "rhf"
			},
			{
				"type": "unocc",
				"energy": 0.0097,
				"method": "rhf"
			},
			{
				"type": "unocc",
				"energy": 0.01011,
				"method": "rhf"
			},
			{
				"type": "unocc",
				"energy": 0.01836,
				"method": "rhf"
			},
			{
				"type": "unocc",
				"energy": 0.01903,
				"method": "rhf"
			}
		],
		"cosmo_sigma_profile": { 
			"-0.025": 0.0,
			"-0.024": 0.0,
			"-0.023": 0.0,
			"-0.022": 0.0,
			"-0.021": 0.0,
			"-0.02": 0.0,
			"-0.019": 0.0166199467757,
			"-0.018": 2.06410024982,
			"-0.017": 3.25110272231,
			"-0.016": 2.88140778285,
			"-0.015": 3.28270939652,
			"-0.014": 4.38980485426,
			"-0.013": 4.81512223391,
			"-0.012": 3.80468629511,
			"-0.011": 3.92955476241,
			"-0.01": 5.94943883494,
			"-0.009": 5.49992353407,
			"-0.008": 5.4654427084,
			"-0.007": 9.29771533094,
			"-0.006": 15.5210158685,
			"-0.005": 16.6181180424,
			"-0.004": 19.4717453517,
			"-0.003": 16.3969439435,
			"-0.002": 16.7703406684,
			"-0.001": 17.9617181764,
			"0.0": 17.3017139243,
			"0.001": 16.2401630389,
			"0.002": 18.3209244118,
			"0.003": 26.6270303411,
			"0.004": 27.8845498873,
			"0.005": 32.1071189631,
			"0.006": 32.5887006128,
			"0.007": 13.5195996361,
			"0.008": 8.27588645813,
			"0.009": 3.55990998992,
			"0.01": 5.02664795001,
			"0.011": 6.09538571077,
			"0.012": 4.37196331877,
			"0.013": 0.0031761108376,
			"0.014": 0.0,
			"0.015": 0.0,
			"0.016": 0.0,
			"0.017": 0.0,
			"0.018": 0.0,
			"0.019": 0.0,
			"0.02": 0.0,
			"0.021": 0.0,
			"0.022": 0.0,
			"0.023": 0.0,
			"0.024": 0.0,
			"0.025": 0.0
		}
	}
}
