{
	 "smiles": "CC(NC(CCCNC(N)=N)C(O)=O)C(O)=O", 
	 "Tm": 557.15, 
	 "num_atms": 35, 
	 "gaussian": { 
		 "optdone": 1, 
		 "sigma_profile": "yes", 
		 "theory": "DFT", 
		 "functional": "B3LYP", 
		 "basiset": "6-31G**", 
		 "properties": { 
			 "R2extent": 6552.4035, 
			 "electric_dipole_moment_norm": 1.77727013422, 
			 "electric_quadrupole_moment_norm": 17.8428922496, 
			 "total_energy": -873.717355623, 
			 "HOMO_LUMO_gap": 0.20676, 
			 "cosmo_polarized_energy": -29.17, 
			 "cosmo_cavitation_energy": 38.01, 
			 "cosmo_dispersion_energy": -25.93, 
			 "cosmo_repulsion_energy": 2.08, 
			 "cosmo_total_nonelectrostatic_energy": 14.16, 
			 "SMD_solvation_energy": 5.06 
		},
		"coords": [
			{
				"x": 3.1501412148,
				"y": 0.1801352265,
				"z": -2.122005082,
				"element": "C" 
			},
			{
				"x": 2.4754338083,
				"y": -1.1723967279,
				"z": -2.3894877343,
				"element": "C" 
			},
			{
				"x": 1.0363822088,
				"y": -1.3102554662,
				"z": -2.1306961957,
				"element": "N" 
			},
			{
				"x": 0.3647059696,
				"y": -0.8449999712,
				"z": -0.9076445329,
				"element": "C" 
			},
			{
				"x": 0.1030562854,
				"y": 0.6755615575,
				"z": -0.8050011767,
				"element": "C" 
			},
			{
				"x": -0.8324240787,
				"y": 1.0933009372,
				"z": 0.3434626217,
				"element": "C" 
			},
			{
				"x": -2.2741382452,
				"y": 0.5918904103,
				"z": 0.2037737721,
				"element": "C" 
			},
			{
				"x": -3.0945735551,
				"y": 1.1049391131,
				"z": 1.3033649916,
				"element": "N" 
			},
			{
				"x": -4.3944379456,
				"y": 0.6420457125,
				"z": 1.5186237719,
				"element": "C" 
			},
			{
				"x": -4.5179705186,
				"y": -0.7491175942,
				"z": 1.4368303809,
				"element": "N" 
			},
			{
				"x": -5.3261290201,
				"y": 1.4933501918,
				"z": 1.7550662841,
				"element": "N" 
			},
			{
				"x": 1.0652600396,
				"y": -1.4440098728,
				"z": 0.3200590572,
				"element": "C" 
			},
			{
				"x": 1.8893959162,
				"y": -0.5675498249,
				"z": 0.9378283162,
				"element": "O" 
			},
			{
				"x": 0.9159604789,
				"y": -2.5827241301,
				"z": 0.6995846519,
				"element": "O" 
			},
			{
				"x": 3.2288027867,
				"y": -2.2988932881,
				"z": -1.6618851305,
				"element": "C" 
			},
			{
				"x": 3.0096400689,
				"y": -3.4984521222,
				"z": -2.2365071945,
				"element": "O" 
			},
			{
				"x": 3.9450257999,
				"y": -2.156243584,
				"z": -0.6930444482,
				"element": "O" 
			},
			{
				"x": 3.1745253866,
				"y": 0.4066271566,
				"z": -1.0554180486,
				"element": "H" 
			},
			{
				"x": 2.6224589107,
				"y": 0.9776782853,
				"z": -2.6529886095,
				"element": "H" 
			},
			{
				"x": 4.1849848034,
				"y": 0.158674929,
				"z": -2.4788103243,
				"element": "H" 
			},
			{
				"x": 2.5767822729,
				"y": -1.4098594697,
				"z": -3.4545656815,
				"element": "H" 
			},
			{
				"x": 0.4981020434,
				"y": -1.0284662576,
				"z": -2.9399642321,
				"element": "H" 
			},
			{
				"x": -0.6027812571,
				"y": -1.3594094952,
				"z": -0.9210295292,
				"element": "H" 
			},
			{
				"x": 1.04989004,
				"y": 1.2087470896,
				"z": -0.7009464586,
				"element": "H" 
			},
			{
				"x": -0.3346535366,
				"y": 0.9937749837,
				"z": -1.7615248857,
				"element": "H" 
			},
			{
				"x": -0.4275666976,
				"y": 0.7611785723,
				"z": 1.3060082796,
				"element": "H" 
			},
			{
				"x": -0.8487363501,
				"y": 2.1904933494,
				"z": 0.3866309851,
				"element": "H" 
			},
			{
				"x": -2.3061369794,
				"y": -0.5001669471,
				"z": 0.2316883036,
				"element": "H" 
			},
			{
				"x": -2.6768942342,
				"y": 0.8881618797,
				"z": -0.7803021547,
				"element": "H" 
			},
			{
				"x": -3.1151019865,
				"y": 2.1186177247,
				"z": 1.3402058148,
				"element": "H" 
			},
			{
				"x": -3.7363150384,
				"y": -1.265160485,
				"z": 1.8225820015,
				"element": "H" 
			},
			{
				"x": -5.4044999607,
				"y": -1.0997891108,
				"z": 1.7725340215,
				"element": "H" 
			},
			{
				"x": -6.1903671035,
				"y": 1.0262278428,
				"z": 2.0323977809,
				"element": "H" 
			},
			{
				"x": 2.3680949228,
				"y": -1.0732063841,
				"z": 1.6165380683,
				"element": "H" 
			},
			{
				"x": 3.4716835504,
				"y": -4.1525042309,
				"z": -1.6853576836,
				"element": "H" 
			}
		],
		 "valence_orbital": [ 
			{
				"type": "occ",
				"energy": -0.27629,
				"method": "rhf"
			},
			{
				"type": "occ",
				"energy": -0.25818,
				"method": "rhf"
			},
			{
				"type": "occ",
				"energy": -0.25179,
				"method": "rhf"
			},
			{
				"type": "occ",
				"energy": -0.22864,
				"method": "rhf"
			},
			{
				"type": "occ",
				"energy": -0.22021,
				"method": "rhf"
			},
			{
				"type": "unocc",
				"energy": -0.01345,
				"method": "rhf"
			},
			{
				"type": "unocc",
				"energy": 0.01268,
				"method": "rhf"
			},
			{
				"type": "unocc",
				"energy": 0.05131,
				"method": "rhf"
			},
			{
				"type": "unocc",
				"energy": 0.06393,
				"method": "rhf"
			},
			{
				"type": "unocc",
				"energy": 0.07404,
				"method": "rhf"
			}
		],
		"cosmo_sigma_profile": { 
			"-0.025": 0.0,
			"-0.024": 0.0,
			"-0.023": 0.0,
			"-0.022": 0.0,
			"-0.021": 0.0,
			"-0.02": 0.0,
			"-0.019": 0.102978592554,
			"-0.018": 1.54412556325,
			"-0.017": 1.34231615315,
			"-0.016": 2.56719172432,
			"-0.015": 0.57313741773,
			"-0.014": 0.3004559893,
			"-0.013": 2.65887480994,
			"-0.012": 5.55087693542,
			"-0.011": 6.86900695614,
			"-0.01": 7.36496812712,
			"-0.009": 6.99180573432,
			"-0.008": 5.98855289247,
			"-0.007": 10.2264112454,
			"-0.006": 14.0435808567,
			"-0.005": 11.7996595679,
			"-0.004": 16.0515224588,
			"-0.003": 22.5082427546,
			"-0.002": 22.0263828665,
			"-0.001": 19.4852696763,
			"0.0": 16.5232884151,
			"0.001": 12.2925093323,
			"0.002": 9.59104823054,
			"0.003": 7.96072397468,
			"0.004": 8.0174288253,
			"0.005": 7.56003530031,
			"0.006": 10.004190899,
			"0.007": 8.67813013125,
			"0.008": 7.33799706997,
			"0.009": 7.55066887263,
			"0.01": 9.60052711341,
			"0.011": 10.8046801471,
			"0.012": 8.57317976476,
			"0.013": 3.82888515601,
			"0.014": 1.95618176234,
			"0.015": 1.16205731836,
			"0.016": 1.31158901388,
			"0.017": 1.29372366396,
			"0.018": 1.16608975432,
			"0.019": 1.09867693006,
			"0.02": 0.210769279871,
			"0.021": 0.0,
			"0.022": 0.0,
			"0.023": 0.0,
			"0.024": 0.0,
			"0.025": 0.0
		}
	}
}
