{
	 "smiles": "CC=CBr", 
	 "Tm": 196.15, 
	 "num_atms": 9, 
	 "gaussian": { 
		 "optdone": 1, 
		 "sigma_profile": "yes", 
		 "theory": "DFT", 
		 "functional": "B3LYP", 
		 "basiset": "6-31G**", 
		 "properties": { 
			 "R2extent": 1542.3942, 
			 "electric_dipole_moment_norm": 1.75754046611, 
			 "electric_quadrupole_moment_norm": 3.52030813424, 
			 "total_energy": -2688.71739605, 
			 "HOMO_LUMO_gap": 0.2511, 
			 "cosmo_polarized_energy": -2.92, 
			 "cosmo_cavitation_energy": 14.59, 
			 "cosmo_dispersion_energy": -11.39, 
			 "cosmo_repulsion_energy": 1.04, 
			 "cosmo_total_nonelectrostatic_energy": 4.24, 
			 "SMD_solvation_energy": 2.22 
		},
		"coords": [
			{
				"x": -0.7593171935,
				"y": -1.1869631359,
				"z": -0.3065165991,
				"element": "C" 
			},
			{
				"x": 0.0983715931,
				"y": -0.3256054805,
				"z": 0.5670632325,
				"element": "C" 
			},
			{
				"x": -0.239565695,
				"y": 0.3070179789,
				"z": 1.6884574775,
				"element": "C" 
			},
			{
				"x": -1.9813005458,
				"y": 0.2576830867,
				"z": 2.4778806461,
				"element": "Br" 
			},
			{
				"x": -0.8029293275,
				"y": -0.7815738646,
				"z": -1.3246966628,
				"element": "H" 
			},
			{
				"x": -1.7769570837,
				"y": -1.2645227216,
				"z": 0.0802726027,
				"element": "H" 
			},
			{
				"x": -0.338222314,
				"y": -2.1965848363,
				"z": -0.3857754866,
				"element": "H" 
			},
			{
				"x": 1.1350148407,
				"y": -0.1912206034,
				"z": 0.2557686017,
				"element": "H" 
			},
			{
				"x": 0.4461057257,
				"y": 0.9145695767,
				"z": 2.2645461879,
				"element": "H" 
			}
		],
		 "valence_orbital": [ 
			{
				"type": "occ",
				"energy": -0.38733,
				"method": "rhf"
			},
			{
				"type": "occ",
				"energy": -0.35427,
				"method": "rhf"
			},
			{
				"type": "occ",
				"energy": -0.32573,
				"method": "rhf"
			},
			{
				"type": "occ",
				"energy": -0.28134,
				"method": "rhf"
			},
			{
				"type": "occ",
				"energy": -0.24376,
				"method": "rhf"
			},
			{
				"type": "unocc",
				"energy": 0.00734,
				"method": "rhf"
			},
			{
				"type": "unocc",
				"energy": 0.01971,
				"method": "rhf"
			},
			{
				"type": "unocc",
				"energy": 0.1009,
				"method": "rhf"
			},
			{
				"type": "unocc",
				"energy": 0.13096,
				"method": "rhf"
			},
			{
				"type": "unocc",
				"energy": 0.16568,
				"method": "rhf"
			}
		],
		"cosmo_sigma_profile": { 
			"-0.025": 0.0,
			"-0.024": 0.0,
			"-0.023": 0.0,
			"-0.022": 0.0,
			"-0.021": 0.0,
			"-0.02": 0.0,
			"-0.019": 0.0,
			"-0.018": 0.0,
			"-0.017": 0.0,
			"-0.016": 0.0,
			"-0.015": 0.0,
			"-0.014": 0.0,
			"-0.013": 0.0,
			"-0.012": 0.0,
			"-0.011": 0.0,
			"-0.01": 0.0,
			"-0.009": 0.052692653569,
			"-0.008": 1.46053050524,
			"-0.007": 2.84277515625,
			"-0.006": 4.38449934005,
			"-0.005": 5.39787168597,
			"-0.004": 8.33764129531,
			"-0.003": 9.9778485312,
			"-0.002": 10.4446130059,
			"-0.001": 12.4226272855,
			"0.0": 9.92499794988,
			"0.001": 8.64346307375,
			"0.002": 8.30325063039,
			"0.003": 9.68110800203,
			"0.004": 11.9225668205,
			"0.005": 12.8677650489,
			"0.006": 2.45901606851,
			"0.007": 0.0,
			"0.008": 0.0,
			"0.009": 0.0,
			"0.01": 0.0,
			"0.011": 0.0,
			"0.012": 0.0,
			"0.013": 0.0,
			"0.014": 0.0,
			"0.015": 0.0,
			"0.016": 0.0,
			"0.017": 0.0,
			"0.018": 0.0,
			"0.019": 0.0,
			"0.02": 0.0,
			"0.021": 0.0,
			"0.022": 0.0,
			"0.023": 0.0,
			"0.024": 0.0,
			"0.025": 0.0
		}
	}
}
