{
	 "smiles": "O=CC1=CC=C(OCC(=O)C2=CC=CC=C2)C=C1", 
	 "Tm": 390.15, 
	 "num_atms": 30, 
	 "gaussian": { 
		 "optdone": 1, 
		 "sigma_profile": "yes", 
		 "theory": "DFT", 
		 "functional": "B3LYP", 
		 "basiset": "6-31G**", 
		 "properties": { 
			 "R2extent": 5979.111, 
			 "electric_dipole_moment_norm": 5.48586274163, 
			 "electric_quadrupole_moment_norm": 17.523454028, 
			 "total_energy": -804.478858518, 
			 "HOMO_LUMO_gap": 0.16171, 
			 "cosmo_polarized_energy": -13.51, 
			 "cosmo_cavitation_energy": 35.26, 
			 "cosmo_dispersion_energy": -24.7, 
			 "cosmo_repulsion_energy": 1.9, 
			 "cosmo_total_nonelectrostatic_energy": 12.45, 
			 "SMD_solvation_energy": 7.69 
		},
		"coords": [
			{
				"x": 1.5882839647,
				"y": 3.6093259175,
				"z": 4.2076625016,
				"element": "O" 
			},
			{
				"x": 1.0835006312,
				"y": 3.7527201339,
				"z": 3.1085445943,
				"element": "C" 
			},
			{
				"x": 0.5232051154,
				"y": 2.662914758,
				"z": 2.2884661239,
				"element": "C" 
			},
			{
				"x": 0.5443015386,
				"y": 1.3398420342,
				"z": 2.7508590368,
				"element": "C" 
			},
			{
				"x": 0.0199246229,
				"y": 0.3037517278,
				"z": 1.9855662145,
				"element": "C" 
			},
			{
				"x": -0.5404117022,
				"y": 0.5973414851,
				"z": 0.7309587949,
				"element": "C" 
			},
			{
				"x": -1.0945207527,
				"y": -0.3304496556,
				"z": -0.1051622201,
				"element": "O" 
			},
			{
				"x": -1.195884594,
				"y": -1.6844785322,
				"z": 0.3283950055,
				"element": "C" 
			},
			{
				"x": 0.1254014409,
				"y": -2.4779406964,
				"z": 0.3377775756,
				"element": "C" 
			},
			{
				"x": 0.3925902756,
				"y": -3.1297809325,
				"z": 1.337323084,
				"element": "O" 
			},
			{
				"x": 1.0037080805,
				"y": -2.4879975887,
				"z": -0.8661439619,
				"element": "C" 
			},
			{
				"x": 2.2040618643,
				"y": -3.2158546823,
				"z": -0.7906073903,
				"element": "C" 
			},
			{
				"x": 3.0536521771,
				"y": -3.2878050785,
				"z": -1.8888049197,
				"element": "C" 
			},
			{
				"x": 2.7126405785,
				"y": -2.6358212453,
				"z": -3.0785044086,
				"element": "C" 
			},
			{
				"x": 1.5223367975,
				"y": -1.9109283047,
				"z": -3.1635794386,
				"element": "C" 
			},
			{
				"x": 0.6694037729,
				"y": -1.8329326409,
				"z": -2.0632364383,
				"element": "C" 
			},
			{
				"x": -0.5664956262,
				"y": 1.9178942585,
				"z": 0.2547092639,
				"element": "C" 
			},
			{
				"x": -0.0370510427,
				"y": 2.9377501415,
				"z": 1.0305179541,
				"element": "C" 
			},
			{
				"x": 1.0144094908,
				"y": 4.7618262721,
				"z": 2.6418899912,
				"element": "H" 
			},
			{
				"x": 0.9845562005,
				"y": 1.1402052569,
				"z": 3.7228141036,
				"element": "H" 
			},
			{
				"x": 0.0622479263,
				"y": -0.7128494266,
				"z": 2.3575615072,
				"element": "H" 
			},
			{
				"x": -1.8861976719,
				"y": -2.1555133064,
				"z": -0.3794304618,
				"element": "H" 
			},
			{
				"x": -1.6257903945,
				"y": -1.754740597,
				"z": 1.332118484,
				"element": "H" 
			},
			{
				"x": 2.4425994693,
				"y": -3.7174774598,
				"z": 0.1412115958,
				"element": "H" 
			},
			{
				"x": 3.9799292355,
				"y": -3.8507712729,
				"z": -1.8227837947,
				"element": "H" 
			},
			{
				"x": 3.375420344,
				"y": -2.6922509592,
				"z": -3.9373781783,
				"element": "H" 
			},
			{
				"x": 1.2592537242,
				"y": -1.4032425615,
				"z": -4.0867349174,
				"element": "H" 
			},
			{
				"x": -0.2426475846,
				"y": -1.2514317227,
				"z": -2.1315255406,
				"element": "H" 
			},
			{
				"x": -1.0082613566,
				"y": 2.1110755582,
				"z": -0.7170330761,
				"element": "H" 
			},
			{
				"x": -0.0570665252,
				"y": 3.9616191198,
				"z": 0.6640489154,
				"element": "H" 
			}
		],
		 "valence_orbital": [ 
			{
				"type": "occ",
				"energy": -0.26866,
				"method": "rhf"
			},
			{
				"type": "occ",
				"energy": -0.2674,
				"method": "rhf"
			},
			{
				"type": "occ",
				"energy": -0.26649,
				"method": "rhf"
			},
			{
				"type": "occ",
				"energy": -0.24824,
				"method": "rhf"
			},
			{
				"type": "occ",
				"energy": -0.23521,
				"method": "rhf"
			},
			{
				"type": "unocc",
				"energy": -0.0735,
				"method": "rhf"
			},
			{
				"type": "unocc",
				"energy": -0.0538,
				"method": "rhf"
			},
			{
				"type": "unocc",
				"energy": -0.01687,
				"method": "rhf"
			},
			{
				"type": "unocc",
				"energy": -0.01505,
				"method": "rhf"
			},
			{
				"type": "unocc",
				"energy": 0.02141,
				"method": "rhf"
			}
		],
		"cosmo_sigma_profile": { 
			"-0.025": 0.0,
			"-0.024": 0.0,
			"-0.023": 0.0,
			"-0.022": 0.0,
			"-0.021": 0.0,
			"-0.02": 0.0,
			"-0.019": 0.0,
			"-0.018": 0.0,
			"-0.017": 0.0,
			"-0.016": 0.0,
			"-0.015": 0.0,
			"-0.014": 0.0,
			"-0.013": 0.0,
			"-0.012": 0.0,
			"-0.011": 0.0,
			"-0.01": 0.0,
			"-0.009": 1.00563272287,
			"-0.008": 4.45594649042,
			"-0.007": 11.5921091187,
			"-0.006": 21.4157657337,
			"-0.005": 25.3580411834,
			"-0.004": 20.8039700962,
			"-0.003": 16.0911037118,
			"-0.002": 16.3083987144,
			"-0.001": 17.1597426257,
			"0.0": 19.0272141548,
			"0.001": 21.9407593385,
			"0.002": 27.1444731575,
			"0.003": 28.3482419151,
			"0.004": 14.9572291415,
			"0.005": 4.20420663395,
			"0.006": 4.10985525248,
			"0.007": 3.4231615249,
			"0.008": 3.27854814359,
			"0.009": 3.42339637087,
			"0.01": 5.29289180676,
			"0.011": 6.56329120858,
			"0.012": 5.70311667432,
			"0.013": 1.44761380491,
			"0.014": 0.0938717180226,
			"0.015": 0.0,
			"0.016": 0.0,
			"0.017": 0.0,
			"0.018": 0.0,
			"0.019": 0.0,
			"0.02": 0.0,
			"0.021": 0.0,
			"0.022": 0.0,
			"0.023": 0.0,
			"0.024": 0.0,
			"0.025": 0.0
		}
	}
}
