{
	 "smiles": "BrC1=CC(Br)=C(OC2=C(Br)C=C(Br)C=C2Br)C=C1", 
	 "Tm": 370.65, 
	 "num_atms": 23, 
	 "gaussian": { 
		 "optdone": 1, 
		 "sigma_profile": "yes", 
		 "theory": "DFT", 
		 "functional": "B3LYP", 
		 "basiset": "6-31G**", 
		 "properties": { 
			 "R2extent": 15554.505, 
			 "electric_dipole_moment_norm": 0.851300287795, 
			 "electric_quadrupole_moment_norm": 4.74161872255, 
			 "total_energy": -13392.5039157, 
			 "HOMO_LUMO_gap": 0.19425, 
			 "cosmo_polarized_energy": -6.16, 
			 "cosmo_cavitation_energy": 39.54, 
			 "cosmo_dispersion_energy": -28.92, 
			 "cosmo_repulsion_energy": 2.26, 
			 "cosmo_total_nonelectrostatic_energy": 12.88, 
			 "SMD_solvation_energy": 1.42 
		},
		"coords": [
			{
				"x": 0.461737208,
				"y": 1.4406955132,
				"z": -6.0159737521,
				"element": "Br" 
			},
			{
				"x": 0.599501517,
				"y": 0.7671721447,
				"z": -4.236792274,
				"element": "C" 
			},
			{
				"x": 1.4716210064,
				"y": 1.3783355508,
				"z": -3.3426315516,
				"element": "C" 
			},
			{
				"x": 1.5841276625,
				"y": 0.8894192792,
				"z": -2.0383091534,
				"element": "C" 
			},
			{
				"x": 2.8538655285,
				"y": 1.7276678695,
				"z": -0.8943062635,
				"element": "Br" 
			},
			{
				"x": 0.7997736614,
				"y": -0.1950587555,
				"z": -1.6251811515,
				"element": "C" 
			},
			{
				"x": 0.8700139765,
				"y": -0.8167076309,
				"z": -0.3941242313,
				"element": "O" 
			},
			{
				"x": 0.8855174044,
				"y": -0.1717433745,
				"z": 0.8145726153,
				"element": "C" 
			},
			{
				"x": -0.0978943699,
				"y": 0.7330233062,
				"z": 1.2414731003,
				"element": "C" 
			},
			{
				"x": -1.5536841202,
				"y": 1.2134487361,
				"z": 0.1138939927,
				"element": "Br" 
			},
			{
				"x": -0.0623381936,
				"y": 1.2883368742,
				"z": 2.520466017,
				"element": "C" 
			},
			{
				"x": 0.9492033518,
				"y": 0.9118383959,
				"z": 3.3973161339,
				"element": "C" 
			},
			{
				"x": 0.9992012964,
				"y": 1.6620613599,
				"z": 5.147994577,
				"element": "Br" 
			},
			{
				"x": 1.918574509,
				"y": -0.0143857628,
				"z": 3.0209826052,
				"element": "C" 
			},
			{
				"x": 1.8786640945,
				"y": -0.5453402754,
				"z": 1.7358526315,
				"element": "C" 
			},
			{
				"x": 3.209030661,
				"y": -1.7989452675,
				"z": 1.2228125083,
				"element": "Br" 
			},
			{
				"x": -0.0594409578,
				"y": -0.8013403489,
				"z": -2.5468860704,
				"element": "C" 
			},
			{
				"x": -0.1649122703,
				"y": -0.3335933226,
				"z": -3.8507135624,
				"element": "C" 
			},
			{
				"x": 2.0765392391,
				"y": 2.2214898473,
				"z": -3.6505587614,
				"element": "H" 
			},
			{
				"x": -0.8266190508,
				"y": 1.9917281348,
				"z": 2.8238407709,
				"element": "H" 
			},
			{
				"x": 2.6982428124,
				"y": -0.3146658579,
				"z": 3.7085222673,
				"element": "H" 
			},
			{
				"x": -0.6480606309,
				"y": -1.647109167,
				"z": -2.2088095807,
				"element": "H" 
			},
			{
				"x": -0.8367643356,
				"y": -0.8110272488,
				"z": -4.5539408668,
				"element": "H" 
			}
		],
		 "valence_orbital": [ 
			{
				"type": "occ",
				"energy": -0.29411,
				"method": "rhf"
			},
			{
				"type": "occ",
				"energy": -0.26536,
				"method": "rhf"
			},
			{
				"type": "occ",
				"energy": -0.26011,
				"method": "rhf"
			},
			{
				"type": "occ",
				"energy": -0.25059,
				"method": "rhf"
			},
			{
				"type": "occ",
				"energy": -0.24029,
				"method": "rhf"
			},
			{
				"type": "unocc",
				"energy": -0.04604,
				"method": "rhf"
			},
			{
				"type": "unocc",
				"energy": -0.04232,
				"method": "rhf"
			},
			{
				"type": "unocc",
				"energy": -0.03785,
				"method": "rhf"
			},
			{
				"type": "unocc",
				"energy": -0.03344,
				"method": "rhf"
			},
			{
				"type": "unocc",
				"energy": -0.02297,
				"method": "rhf"
			}
		],
		"cosmo_sigma_profile": { 
			"-0.025": 0.0,
			"-0.024": 0.0,
			"-0.023": 0.0,
			"-0.022": 0.0,
			"-0.021": 0.0,
			"-0.02": 0.0,
			"-0.019": 0.0,
			"-0.018": 0.0,
			"-0.017": 0.0,
			"-0.016": 0.0,
			"-0.015": 0.0,
			"-0.014": 0.0,
			"-0.013": 0.0,
			"-0.012": 0.0,
			"-0.011": 0.0,
			"-0.01": 0.0,
			"-0.009": 1.407239747,
			"-0.008": 7.08202939167,
			"-0.007": 7.68804689212,
			"-0.006": 9.97789228841,
			"-0.005": 13.0825361569,
			"-0.004": 15.159118068,
			"-0.003": 16.5508616931,
			"-0.002": 18.749403041,
			"-0.001": 27.7800808695,
			"0.0": 45.7634937401,
			"0.001": 50.083607221,
			"0.002": 40.6199010328,
			"0.003": 40.5453364843,
			"0.004": 33.5535005588,
			"0.005": 4.29883028725,
			"0.006": 1.6224955153,
			"0.007": 1.03540154566,
			"0.008": 0.0437023439266,
			"0.009": 0.0,
			"0.01": 0.0,
			"0.011": 0.0,
			"0.012": 0.0,
			"0.013": 0.0,
			"0.014": 0.0,
			"0.015": 0.0,
			"0.016": 0.0,
			"0.017": 0.0,
			"0.018": 0.0,
			"0.019": 0.0,
			"0.02": 0.0,
			"0.021": 0.0,
			"0.022": 0.0,
			"0.023": 0.0,
			"0.024": 0.0,
			"0.025": 0.0
		}
	}
}
