{
	 "smiles": "CCOC(=O)C1=CC=C(C=C1)N1C(=O)CCC1=O", 
	 "Tm": 432.15, 
	 "num_atms": 31, 
	 "gaussian": { 
		 "optdone": 1, 
		 "sigma_profile": "yes", 
		 "theory": "DFT", 
		 "functional": "B3LYP", 
		 "basiset": "6-31G**", 
		 "properties": { 
			 "R2extent": 6719.1417, 
			 "electric_dipole_moment_norm": 2.95741735472, 
			 "electric_quadrupole_moment_norm": 29.6503145262, 
			 "total_energy": -858.916842121, 
			 "HOMO_LUMO_gap": 0.19644, 
			 "cosmo_polarized_energy": -16.0, 
			 "cosmo_cavitation_energy": 35.53, 
			 "cosmo_dispersion_energy": -25.8, 
			 "cosmo_repulsion_energy": 2.01, 
			 "cosmo_total_nonelectrostatic_energy": 11.75, 
			 "SMD_solvation_energy": 8.35 
		},
		"coords": [
			{
				"x": 5.5717010036,
				"y": 1.1782899629,
				"z": 1.1508359406,
				"element": "C" 
			},
			{
				"x": 5.0619849717,
				"y": 0.9887440687,
				"z": -0.2700823274,
				"element": "C" 
			},
			{
				"x": 3.7574232732,
				"y": 0.3625848554,
				"z": -0.2828668861,
				"element": "O" 
			},
			{
				"x": 2.6922256511,
				"y": 1.1849610138,
				"z": -0.1446572452,
				"element": "C" 
			},
			{
				"x": 2.7838165028,
				"y": 2.3919297735,
				"z": -0.0201201177,
				"element": "O" 
			},
			{
				"x": 1.3989029351,
				"y": 0.4440892739,
				"z": -0.1678850593,
				"element": "C" 
			},
			{
				"x": 0.2162929089,
				"y": 1.1831201845,
				"z": -0.0389764147,
				"element": "C" 
			},
			{
				"x": -1.020642383,
				"y": 0.5493641957,
				"z": -0.058623049,
				"element": "C" 
			},
			{
				"x": -1.0812035953,
				"y": -0.8432397563,
				"z": -0.2009722196,
				"element": "C" 
			},
			{
				"x": 0.0956222046,
				"y": -1.5924658428,
				"z": -0.3258582151,
				"element": "C" 
			},
			{
				"x": 1.3283421892,
				"y": -0.9474196387,
				"z": -0.3127590943,
				"element": "C" 
			},
			{
				"x": -2.3498497368,
				"y": -1.5026147621,
				"z": -0.2195805579,
				"element": "N" 
			},
			{
				"x": -2.6618837665,
				"y": -2.5773227605,
				"z": -1.080111778,
				"element": "C" 
			},
			{
				"x": -1.9057837998,
				"y": -3.0713010018,
				"z": -1.885823006,
				"element": "O" 
			},
			{
				"x": -4.1037173041,
				"y": -2.9930936871,
				"z": -0.8159854635,
				"element": "C" 
			},
			{
				"x": -4.5931323714,
				"y": -2.0831127174,
				"z": 0.3139609488,
				"element": "C" 
			},
			{
				"x": -3.4285610493,
				"y": -1.1495924799,
				"z": 0.6202975445,
				"element": "C" 
			},
			{
				"x": -3.4150456902,
				"y": -0.2592808423,
				"z": 1.4398235022,
				"element": "O" 
			},
			{
				"x": 6.589339334,
				"y": 1.582418146,
				"z": 1.1290459675,
				"element": "H" 
			},
			{
				"x": 4.9357337165,
				"y": 1.880019065,
				"z": 1.6956926291,
				"element": "H" 
			},
			{
				"x": 5.5917431895,
				"y": 0.2257337653,
				"z": 1.6885181595,
				"element": "H" 
			},
			{
				"x": 4.9985583466,
				"y": 1.943977298,
				"z": -0.7963969099,
				"element": "H" 
			},
			{
				"x": 5.6969940814,
				"y": 0.3026749382,
				"z": -0.8358060914,
				"element": "H" 
			},
			{
				"x": 0.2853437123,
				"y": 2.2596615298,
				"z": 0.0718801439,
				"element": "H" 
			},
			{
				"x": -1.9311580405,
				"y": 1.1233593392,
				"z": 0.0505780552,
				"element": "H" 
			},
			{
				"x": 0.0433181093,
				"y": -2.6661098084,
				"z": -0.4482246714,
				"element": "H" 
			},
			{
				"x": 2.2411147872,
				"y": -1.5228355775,
				"z": -0.4115791788,
				"element": "H" 
			},
			{
				"x": -4.1181066143,
				"y": -4.0570117515,
				"z": -0.5637747863,
				"element": "H" 
			},
			{
				"x": -4.6692438698,
				"y": -2.8787788555,
				"z": -1.7453123376,
				"element": "H" 
			},
			{
				"x": -5.4633387289,
				"y": -1.4770698028,
				"z": 0.047147596,
				"element": "H" 
			},
			{
				"x": -4.8501899671,
				"y": -2.6229781254,
				"z": 1.2299149216,
				"element": "H" 
			}
		],
		 "valence_orbital": [ 
			{
				"type": "occ",
				"energy": -0.29336,
				"method": "rhf"
			},
			{
				"type": "occ",
				"energy": -0.27172,
				"method": "rhf"
			},
			{
				"type": "occ",
				"energy": -0.2672,
				"method": "rhf"
			},
			{
				"type": "occ",
				"energy": -0.25966,
				"method": "rhf"
			},
			{
				"type": "occ",
				"energy": -0.24815,
				"method": "rhf"
			},
			{
				"type": "unocc",
				"energy": -0.05171,
				"method": "rhf"
			},
			{
				"type": "unocc",
				"energy": -0.0279,
				"method": "rhf"
			},
			{
				"type": "unocc",
				"energy": -0.00896,
				"method": "rhf"
			},
			{
				"type": "unocc",
				"energy": 0.01345,
				"method": "rhf"
			},
			{
				"type": "unocc",
				"energy": 0.06364,
				"method": "rhf"
			}
		],
		"cosmo_sigma_profile": { 
			"-0.025": 0.0,
			"-0.024": 0.0,
			"-0.023": 0.0,
			"-0.022": 0.0,
			"-0.021": 0.0,
			"-0.02": 0.0,
			"-0.019": 0.0,
			"-0.018": 0.0,
			"-0.017": 0.0,
			"-0.016": 0.0,
			"-0.015": 0.0,
			"-0.014": 0.0,
			"-0.013": 0.0,
			"-0.012": 0.0,
			"-0.011": 0.0,
			"-0.01": 0.0,
			"-0.009": 0.239245351973,
			"-0.008": 4.24473554308,
			"-0.007": 17.4791868222,
			"-0.006": 18.5143788042,
			"-0.005": 22.1562587993,
			"-0.004": 23.4595174582,
			"-0.003": 25.7751561429,
			"-0.002": 20.465985389,
			"-0.001": 18.2815153529,
			"0.0": 19.5476113789,
			"0.001": 17.7751113035,
			"0.002": 17.8740409286,
			"0.003": 14.8069786959,
			"0.004": 8.42936802051,
			"0.005": 7.31988905248,
			"0.006": 5.09601722769,
			"0.007": 5.20075917002,
			"0.008": 4.53390147266,
			"0.009": 5.29795396201,
			"0.01": 6.55298493119,
			"0.011": 11.2238767643,
			"0.012": 8.16573111575,
			"0.013": 0.504548735719,
			"0.014": 0.0,
			"0.015": 0.0,
			"0.016": 0.0,
			"0.017": 0.0,
			"0.018": 0.0,
			"0.019": 0.0,
			"0.02": 0.0,
			"0.021": 0.0,
			"0.022": 0.0,
			"0.023": 0.0,
			"0.024": 0.0,
			"0.025": 0.0
		}
	}
}
