{
	 "smiles": "CC1=NN(C(=O)C1C(=O)C(F)(F)F)C1=CC=CC=C1", 
	 "Tm": 416.15, 
	 "num_atms": 28, 
	 "gaussian": { 
		 "optdone": 1, 
		 "sigma_profile": "yes", 
		 "theory": "DFT", 
		 "functional": "B3LYP", 
		 "basiset": "6-31G**", 
		 "properties": { 
			 "R2extent": 6169.0954, 
			 "electric_dipole_moment_norm": 3.14844229898, 
			 "electric_quadrupole_moment_norm": 12.3999098448, 
			 "total_energy": -1022.13887889, 
			 "HOMO_LUMO_gap": 0.14323, 
			 "cosmo_polarized_energy": -11.49, 
			 "cosmo_cavitation_energy": 34.33, 
			 "cosmo_dispersion_energy": -23.53, 
			 "cosmo_repulsion_energy": 1.75, 
			 "cosmo_total_nonelectrostatic_energy": 12.55, 
			 "SMD_solvation_energy": 7.6 
		},
		"coords": [
			{
				"x": 3.9397395522,
				"y": 0.2674056058,
				"z": 0.7705872528,
				"element": "C" 
			},
			{
				"x": 2.5493786762,
				"y": 0.0153060531,
				"z": 0.2922355171,
				"element": "C" 
			},
			{
				"x": 1.5686508402,
				"y": -0.1930116338,
				"z": 1.095596771,
				"element": "N" 
			},
			{
				"x": 0.4016741866,
				"y": -0.4005868738,
				"z": 0.359471918,
				"element": "N" 
			},
			{
				"x": 0.6147959239,
				"y": -0.3349994529,
				"z": -1.0125674445,
				"element": "C" 
			},
			{
				"x": -0.1903596625,
				"y": -0.4900237852,
				"z": -1.9097296695,
				"element": "O" 
			},
			{
				"x": 2.1067037836,
				"y": 0.0184490798,
				"z": -1.157887487,
				"element": "C" 
			},
			{
				"x": 2.92600476,
				"y": -0.8801519639,
				"z": -2.0755745032,
				"element": "C" 
			},
			{
				"x": 3.766010948,
				"y": -0.4575090659,
				"z": -2.8309658324,
				"element": "O" 
			},
			{
				"x": 2.6722679857,
				"y": -2.4084087824,
				"z": -1.9994872046,
				"element": "C" 
			},
			{
				"x": 1.6883061095,
				"y": -2.7498084675,
				"z": -2.843833969,
				"element": "F" 
			},
			{
				"x": 3.7753583635,
				"y": -3.0876762073,
				"z": -2.3214596822,
				"element": "F" 
			},
			{
				"x": 2.2996107342,
				"y": -2.7608085257,
				"z": -0.7489866348,
				"element": "F" 
			},
			{
				"x": -0.8106617932,
				"y": -0.6570585637,
				"z": 1.0586826171,
				"element": "C" 
			},
			{
				"x": -2.0016640595,
				"y": -0.9099716954,
				"z": 0.3614811591,
				"element": "C" 
			},
			{
				"x": -3.1719145773,
				"y": -1.1544878639,
				"z": 1.0797905643,
				"element": "C" 
			},
			{
				"x": -3.1744686831,
				"y": -1.152072759,
				"z": 2.4747185608,
				"element": "C" 
			},
			{
				"x": -1.9833189665,
				"y": -0.9001828421,
				"z": 3.1573425452,
				"element": "C" 
			},
			{
				"x": -0.8025239316,
				"y": -0.6525693914,
				"z": 2.4610876681,
				"element": "C" 
			},
			{
				"x": 4.6295804293,
				"y": -0.4998688824,
				"z": 0.3997026406,
				"element": "H" 
			},
			{
				"x": 3.9613347281,
				"y": 0.2613406277,
				"z": 1.8617927944,
				"element": "H" 
			},
			{
				"x": 4.3107288176,
				"y": 1.23322958,
				"z": 0.408901485,
				"element": "H" 
			},
			{
				"x": 2.1961303136,
				"y": 1.0269130421,
				"z": -1.5790739938,
				"element": "H" 
			},
			{
				"x": -2.0046847321,
				"y": -0.9139605761,
				"z": -0.7192000311,
				"element": "H" 
			},
			{
				"x": -4.0902929107,
				"y": -1.3498484294,
				"z": 0.5337658277,
				"element": "H" 
			},
			{
				"x": -4.0916713934,
				"y": -1.344343149,
				"z": 3.0229696114,
				"element": "H" 
			},
			{
				"x": -1.9667958253,
				"y": -0.8951908905,
				"z": 4.2434114316,
				"element": "H" 
			},
			{
				"x": 0.1221803828,
				"y": -0.458204187,
				"z": 2.9882280881,
				"element": "H" 
			}
		],
		 "valence_orbital": [ 
			{
				"type": "occ",
				"energy": -0.30183,
				"method": "rhf"
			},
			{
				"type": "occ",
				"energy": -0.28727,
				"method": "rhf"
			},
			{
				"type": "occ",
				"energy": -0.27412,
				"method": "rhf"
			},
			{
				"type": "occ",
				"energy": -0.25351,
				"method": "rhf"
			},
			{
				"type": "occ",
				"energy": -0.22371,
				"method": "rhf"
			},
			{
				"type": "unocc",
				"energy": -0.08048,
				"method": "rhf"
			},
			{
				"type": "unocc",
				"energy": -0.04924,
				"method": "rhf"
			},
			{
				"type": "unocc",
				"energy": -0.01861,
				"method": "rhf"
			},
			{
				"type": "unocc",
				"energy": -0.00256,
				"method": "rhf"
			},
			{
				"type": "unocc",
				"energy": 0.04309,
				"method": "rhf"
			}
		],
		"cosmo_sigma_profile": { 
			"-0.025": 0.0,
			"-0.024": 0.0,
			"-0.023": 0.0,
			"-0.022": 0.0,
			"-0.021": 0.0,
			"-0.02": 0.0,
			"-0.019": 0.0,
			"-0.018": 0.0,
			"-0.017": 0.0,
			"-0.016": 0.0,
			"-0.015": 0.0,
			"-0.014": 0.0,
			"-0.013": 0.0,
			"-0.012": 0.435437614687,
			"-0.011": 3.06495318686,
			"-0.01": 3.03847185819,
			"-0.009": 3.78961041101,
			"-0.008": 3.10667306488,
			"-0.007": 5.59704778264,
			"-0.006": 11.6504381369,
			"-0.005": 13.9355573364,
			"-0.004": 20.9773198593,
			"-0.003": 17.827086709,
			"-0.002": 19.4083958738,
			"-0.001": 17.8925726414,
			"0.0": 19.5349096745,
			"0.001": 31.8022492105,
			"0.002": 28.4162281913,
			"0.003": 16.5680012312,
			"0.004": 13.9311659862,
			"0.005": 16.2538148255,
			"0.006": 6.26107007569,
			"0.007": 5.82291482043,
			"0.008": 7.26416056298,
			"0.009": 3.65881587152,
			"0.01": 2.54442982765,
			"0.011": 2.38897636326,
			"0.012": 0.364704184251,
			"0.013": 0.0,
			"0.014": 0.0,
			"0.015": 0.0,
			"0.016": 0.0,
			"0.017": 0.0,
			"0.018": 0.0,
			"0.019": 0.0,
			"0.02": 0.0,
			"0.021": 0.0,
			"0.022": 0.0,
			"0.023": 0.0,
			"0.024": 0.0,
			"0.025": 0.0
		}
	}
}
