{
	 "smiles": "CC1=CC=C(CNC(=S)NC2=CC=CC=C2)C=C1", 
	 "Tm": 421.15, 
	 "num_atms": 34, 
	 "gaussian": { 
		 "optdone": 1, 
		 "sigma_profile": "yes", 
		 "theory": "DFT", 
		 "functional": "B3LYP", 
		 "basiset": "6-31G**", 
		 "properties": { 
			 "R2extent": 8687.1449, 
			 "electric_dipole_moment_norm": 5.9339282478, 
			 "electric_quadrupole_moment_norm": 18.5647826882, 
			 "total_energy": -1088.95033043, 
			 "HOMO_LUMO_gap": 0.17604, 
			 "cosmo_polarized_energy": -19.4, 
			 "cosmo_cavitation_energy": 39.5, 
			 "cosmo_dispersion_energy": -28.63, 
			 "cosmo_repulsion_energy": 2.18, 
			 "cosmo_total_nonelectrostatic_energy": 13.05, 
			 "SMD_solvation_energy": 4.94 
		},
		"coords": [
			{
				"x": 1.7111526252,
				"y": -2.7636440478,
				"z": -6.3787142602,
				"element": "C" 
			},
			{
				"x": 1.3063008966,
				"y": -1.9258245114,
				"z": -5.1890855714,
				"element": "C" 
			},
			{
				"x": 2.0267629812,
				"y": -1.9933228234,
				"z": -3.9862176566,
				"element": "C" 
			},
			{
				"x": 1.6509966199,
				"y": -1.2376631256,
				"z": -2.8794857018,
				"element": "C" 
			},
			{
				"x": 0.5376540394,
				"y": -0.3870753595,
				"z": -2.9406073257,
				"element": "C" 
			},
			{
				"x": 0.1269444972,
				"y": 0.4224693853,
				"z": -1.7304560662,
				"element": "C" 
			},
			{
				"x": -0.3921432489,
				"y": -0.4498692075,
				"z": -0.6776740453,
				"element": "N" 
			},
			{
				"x": -0.653479855,
				"y": -0.1286340804,
				"z": 0.622278164,
				"element": "C" 
			},
			{
				"x": -1.1869495596,
				"y": -1.3234933986,
				"z": 1.6824188837,
				"element": "S" 
			},
			{
				"x": -0.4522201664,
				"y": 1.1955856747,
				"z": 0.9178355182,
				"element": "N" 
			},
			{
				"x": -0.5676089728,
				"y": 1.9059494232,
				"z": 2.1383608219,
				"element": "C" 
			},
			{
				"x": -0.3285047418,
				"y": 1.3383974085,
				"z": 3.3967587015,
				"element": "C" 
			},
			{
				"x": -0.4158534126,
				"y": 2.137937376,
				"z": 4.5364048112,
				"element": "C" 
			},
			{
				"x": -0.7242589454,
				"y": 3.4960909554,
				"z": 4.4457525521,
				"element": "C" 
			},
			{
				"x": -0.9491145611,
				"y": 4.0612071001,
				"z": 3.1895518705,
				"element": "C" 
			},
			{
				"x": -0.875009407,
				"y": 3.272118181,
				"z": 2.0444596267,
				"element": "C" 
			},
			{
				"x": -0.1844809314,
				"y": -0.3167798942,
				"z": -4.1344292978,
				"element": "C" 
			},
			{
				"x": 0.1981304916,
				"y": -1.0736438796,
				"z": -5.2437510856,
				"element": "C" 
			},
			{
				"x": 1.2117005167,
				"y": -2.4298528473,
				"z": -7.2923135101,
				"element": "H" 
			},
			{
				"x": 1.451125943,
				"y": -3.8182256938,
				"z": -6.2263208071,
				"element": "H" 
			},
			{
				"x": 2.7920453101,
				"y": -2.7205443553,
				"z": -6.548653384,
				"element": "H" 
			},
			{
				"x": 2.8958737957,
				"y": -2.6431965185,
				"z": -3.9194632349,
				"element": "H" 
			},
			{
				"x": 2.2254723298,
				"y": -1.3050510662,
				"z": -1.9589678431,
				"element": "H" 
			},
			{
				"x": 0.9967677681,
				"y": 0.971231748,
				"z": -1.3415487185,
				"element": "H" 
			},
			{
				"x": -0.6247972879,
				"y": 1.1686711001,
				"z": -2.031402439,
				"element": "H" 
			},
			{
				"x": -0.5989218786,
				"y": -1.4092905397,
				"z": -0.9147947663,
				"element": "H" 
			},
			{
				"x": -0.3302269023,
				"y": 1.8070921823,
				"z": 0.1227510381,
				"element": "H" 
			},
			{
				"x": -0.0905431046,
				"y": 0.2869446779,
				"z": 3.4745044788,
				"element": "H" 
			},
			{
				"x": -0.2326189683,
				"y": 1.6870225451,
				"z": 5.5074889091,
				"element": "H" 
			},
			{
				"x": -0.7876257869,
				"y": 4.1065421471,
				"z": 5.3413867993,
				"element": "H" 
			},
			{
				"x": -1.1899501424,
				"y": 5.1162247846,
				"z": 3.096739307,
				"element": "H" 
			},
			{
				"x": -1.065374298,
				"y": 3.7144281811,
				"z": 1.0686595717,
				"element": "H" 
			},
			{
				"x": -1.0514286971,
				"y": 0.3358371783,
				"z": -4.2019047342,
				"element": "H" 
			},
			{
				"x": -0.3756169462,
				"y": -1.0005386998,
				"z": -6.1640606056,
				"element": "H" 
			}
		],
		 "valence_orbital": [ 
			{
				"type": "occ",
				"energy": -0.25324,
				"method": "rhf"
			},
			{
				"type": "occ",
				"energy": -0.24996,
				"method": "rhf"
			},
			{
				"type": "occ",
				"energy": -0.22603,
				"method": "rhf"
			},
			{
				"type": "occ",
				"energy": -0.20353,
				"method": "rhf"
			},
			{
				"type": "occ",
				"energy": -0.19685,
				"method": "rhf"
			},
			{
				"type": "unocc",
				"energy": -0.02081,
				"method": "rhf"
			},
			{
				"type": "unocc",
				"energy": -0.01814,
				"method": "rhf"
			},
			{
				"type": "unocc",
				"energy": -0.01214,
				"method": "rhf"
			},
			{
				"type": "unocc",
				"energy": 0.00058,
				"method": "rhf"
			},
			{
				"type": "unocc",
				"energy": 0.03213,
				"method": "rhf"
			}
		],
		"cosmo_sigma_profile": { 
			"-0.025": 0.0,
			"-0.024": 0.0,
			"-0.023": 0.0,
			"-0.022": 0.0,
			"-0.021": 0.0,
			"-0.02": 0.0,
			"-0.019": 0.0,
			"-0.018": 0.0,
			"-0.017": 0.0,
			"-0.016": 0.0,
			"-0.015": 0.604468840396,
			"-0.014": 1.40565771673,
			"-0.013": 1.53447670266,
			"-0.012": 2.03107672495,
			"-0.011": 2.65906140849,
			"-0.01": 1.83658499101,
			"-0.009": 2.4106954913,
			"-0.008": 3.08561314938,
			"-0.007": 4.47453320468,
			"-0.006": 15.4201784657,
			"-0.005": 23.6831625895,
			"-0.004": 27.5468302215,
			"-0.003": 27.2604282299,
			"-0.002": 22.0757194763,
			"-0.001": 21.550447967,
			"0.0": 21.2993835006,
			"0.001": 20.0673703002,
			"0.002": 17.2559041061,
			"0.003": 17.5614697198,
			"0.004": 17.9190588292,
			"0.005": 21.7305409735,
			"0.006": 13.4412947188,
			"0.007": 4.47319797587,
			"0.008": 4.21586814725,
			"0.009": 4.23924642253,
			"0.01": 5.50404411216,
			"0.011": 6.03332873657,
			"0.012": 5.16239638804,
			"0.013": 0.546992543956,
			"0.014": 0.0,
			"0.015": 0.0,
			"0.016": 0.0,
			"0.017": 0.0,
			"0.018": 0.0,
			"0.019": 0.0,
			"0.02": 0.0,
			"0.021": 0.0,
			"0.022": 0.0,
			"0.023": 0.0,
			"0.024": 0.0,
			"0.025": 0.0
		}
	}
}
