{
	 "smiles": "CC(=O)NC1=CC=C(C=C1)C#N", 
	 "Tm": 479.15, 
	 "num_atms": 20, 
	 "gaussian": { 
		 "optdone": 1, 
		 "sigma_profile": "yes", 
		 "theory": "DFT", 
		 "functional": "B3LYP", 
		 "basiset": "6-31G**", 
		 "properties": { 
			 "R2extent": 2805.5511, 
			 "electric_dipole_moment_norm": 2.57224936777, 
			 "electric_quadrupole_moment_norm": 27.1771524734, 
			 "total_energy": -532.505335469, 
			 "HOMO_LUMO_gap": 0.18319, 
			 "cosmo_polarized_energy": -16.74, 
			 "cosmo_cavitation_energy": 25.6, 
			 "cosmo_dispersion_energy": -18.21, 
			 "cosmo_repulsion_energy": 1.44, 
			 "cosmo_total_nonelectrostatic_energy": 8.83, 
			 "SMD_solvation_energy": 6.7 
		},
		"coords": [
			{
				"x": 3.6212475324,
				"y": 1.1676921724,
				"z": 0.0136979621,
				"element": "C" 
			},
			{
				"x": 2.7656938057,
				"y": 1.7846489302,
				"z": 1.0974486274,
				"element": "C" 
			},
			{
				"x": 3.2269938234,
				"y": 2.5536808227,
				"z": 1.9256935674,
				"element": "O" 
			},
			{
				"x": 1.405868088,
				"y": 1.4831492415,
				"z": 1.1767434936,
				"element": "N" 
			},
			{
				"x": 0.5042871711,
				"y": 0.6861274658,
				"z": 0.4638865502,
				"element": "C" 
			},
			{
				"x": -0.8300219529,
				"y": 0.6886891306,
				"z": 0.9241250878,
				"element": "C" 
			},
			{
				"x": -1.8101813656,
				"y": -0.0618819722,
				"z": 0.2976214849,
				"element": "C" 
			},
			{
				"x": -1.4902433238,
				"y": -0.8499808477,
				"z": -0.822231629,
				"element": "C" 
			},
			{
				"x": -0.1659007532,
				"y": -0.8572984349,
				"z": -1.2850799443,
				"element": "C" 
			},
			{
				"x": 0.8195665711,
				"y": -0.1040402901,
				"z": -0.6569253808,
				"element": "C" 
			},
			{
				"x": -2.4958022365,
				"y": -1.6295454759,
				"z": -1.4772213628,
				"element": "C" 
			},
			{
				"x": -3.3137990854,
				"y": -2.2634565842,
				"z": -2.0097377481,
				"element": "N" 
			},
			{
				"x": 3.6314851775,
				"y": 0.0756469236,
				"z": 0.0844829235,
				"element": "H" 
			},
			{
				"x": 3.2660952928,
				"y": 1.4451634767,
				"z": -0.9835756022,
				"element": "H" 
			},
			{
				"x": 4.6344554194,
				"y": 1.5443182798,
				"z": 0.1499687373,
				"element": "H" 
			},
			{
				"x": 1.0017242552,
				"y": 1.9853997077,
				"z": 1.9590595158,
				"element": "H" 
			},
			{
				"x": -1.09206986,
				"y": 1.2929587485,
				"z": 1.7884715259,
				"element": "H" 
			},
			{
				"x": -2.8288148471,
				"y": -0.0434856739,
				"z": 0.6700439109,
				"element": "H" 
			},
			{
				"x": 0.0944686804,
				"y": -1.4610000074,
				"z": -2.148080407,
				"element": "H" 
			},
			{
				"x": 1.8232476075,
				"y": -0.1435856131,
				"z": -1.0511913124,
				"element": "H" 
			}
		],
		 "valence_orbital": [ 
			{
				"type": "occ",
				"energy": -0.33083,
				"method": "rhf"
			},
			{
				"type": "occ",
				"energy": -0.31475,
				"method": "rhf"
			},
			{
				"type": "occ",
				"energy": -0.28599,
				"method": "rhf"
			},
			{
				"type": "occ",
				"energy": -0.27494,
				"method": "rhf"
			},
			{
				"type": "occ",
				"energy": -0.2402,
				"method": "rhf"
			},
			{
				"type": "unocc",
				"energy": -0.05701,
				"method": "rhf"
			},
			{
				"type": "unocc",
				"energy": -0.03426,
				"method": "rhf"
			},
			{
				"type": "unocc",
				"energy": 0.00865,
				"method": "rhf"
			},
			{
				"type": "unocc",
				"energy": 0.03475,
				"method": "rhf"
			},
			{
				"type": "unocc",
				"energy": 0.06214,
				"method": "rhf"
			}
		],
		"cosmo_sigma_profile": { 
			"-0.025": 0.0,
			"-0.024": 0.0,
			"-0.023": 0.0,
			"-0.022": 0.0,
			"-0.021": 0.0,
			"-0.02": 0.0,
			"-0.019": 0.0,
			"-0.018": 0.0,
			"-0.017": 0.0,
			"-0.016": 0.0,
			"-0.015": 0.72541211323,
			"-0.014": 1.22265803759,
			"-0.013": 1.1692470761,
			"-0.012": 0.726262331048,
			"-0.011": 1.23404506199,
			"-0.01": 1.63458424436,
			"-0.009": 1.14031093155,
			"-0.008": 6.5399416457,
			"-0.007": 15.5400846219,
			"-0.006": 13.7471359588,
			"-0.005": 12.6569419863,
			"-0.004": 9.99002986474,
			"-0.003": 11.39843807,
			"-0.002": 14.1049868564,
			"-0.001": 14.7674822636,
			"0.0": 15.4750529956,
			"0.001": 12.9131867088,
			"0.002": 14.954484433,
			"0.003": 8.03468614804,
			"0.004": 3.85021385122,
			"0.005": 2.65537370954,
			"0.006": 3.8705152723,
			"0.007": 3.87649995959,
			"0.008": 4.68664236291,
			"0.009": 5.05988577448,
			"0.01": 4.6864707212,
			"0.011": 5.04980664941,
			"0.012": 6.93515673858,
			"0.013": 6.24113801571,
			"0.014": 1.13755474736,
			"0.015": 0.0,
			"0.016": 0.0,
			"0.017": 0.0,
			"0.018": 0.0,
			"0.019": 0.0,
			"0.02": 0.0,
			"0.021": 0.0,
			"0.022": 0.0,
			"0.023": 0.0,
			"0.024": 0.0,
			"0.025": 0.0
		}
	}
}
