{
	 "smiles": "CC1=NN=C(NCCC2=CC=C(Cl)C=C2)C=C1", 
	 "Tm": 437.15, 
	 "num_atms": 31, 
	 "gaussian": { 
		 "optdone": 1, 
		 "sigma_profile": "yes", 
		 "theory": "DFT", 
		 "functional": "B3LYP", 
		 "basiset": "6-31G**", 
		 "properties": { 
			 "R2extent": 5707.7496, 
			 "electric_dipole_moment_norm": 3.79325427568, 
			 "electric_quadrupole_moment_norm": 18.0287082052, 
			 "total_energy": -1128.24584803, 
			 "HOMO_LUMO_gap": 0.17789, 
			 "cosmo_polarized_energy": -15.19, 
			 "cosmo_cavitation_energy": 36.52, 
			 "cosmo_dispersion_energy": -25.38, 
			 "cosmo_repulsion_energy": 2.01, 
			 "cosmo_total_nonelectrostatic_energy": 13.16, 
			 "SMD_solvation_energy": 3.61 
		},
		"coords": [
			{
				"x": -3.2575787055,
				"y": 3.158943742,
				"z": -1.7891525338,
				"element": "C" 
			},
			{
				"x": -2.2880442523,
				"y": 2.5379776077,
				"z": -0.8177301197,
				"element": "C" 
			},
			{
				"x": -2.787528255,
				"y": 2.1414167624,
				"z": 0.3573538093,
				"element": "N" 
			},
			{
				"x": -2.0019919979,
				"y": 1.5978074474,
				"z": 1.2815864303,
				"element": "N" 
			},
			{
				"x": -0.690359368,
				"y": 1.4157174722,
				"z": 1.0424778815,
				"element": "C" 
			},
			{
				"x": -0.0052229613,
				"y": 0.8100106606,
				"z": 2.0748195575,
				"element": "N" 
			},
			{
				"x": 1.4225705007,
				"y": 0.9269101532,
				"z": 2.3210379789,
				"element": "C" 
			},
			{
				"x": 2.2057896586,
				"y": -0.3929144672,
				"z": 2.1213199216,
				"element": "C" 
			},
			{
				"x": 2.2277585304,
				"y": -0.8817139851,
				"z": 0.6913398547,
				"element": "C" 
			},
			{
				"x": 3.2601480708,
				"y": -0.504399618,
				"z": -0.1790706913,
				"element": "C" 
			},
			{
				"x": 3.2730065015,
				"y": -0.9127901342,
				"z": -1.5132121244,
				"element": "C" 
			},
			{
				"x": 2.2341759183,
				"y": -1.7139916289,
				"z": -1.9847227929,
				"element": "C" 
			},
			{
				"x": 2.2394427872,
				"y": -2.2384882258,
				"z": -3.663914363,
				"element": "Cl" 
			},
			{
				"x": 1.1949237259,
				"y": -2.1095343775,
				"z": -1.1438457058,
				"element": "C" 
			},
			{
				"x": 1.2006137374,
				"y": -1.6913786412,
				"z": 0.1867854789,
				"element": "C" 
			},
			{
				"x": -0.0973119574,
				"y": 1.7900494215,
				"z": -0.1833582384,
				"element": "C" 
			},
			{
				"x": -0.9231430926,
				"y": 2.3702264886,
				"z": -1.1202705216,
				"element": "C" 
			},
			{
				"x": -2.97837342,
				"y": 4.1912733998,
				"z": -2.0310845092,
				"element": "H" 
			},
			{
				"x": -4.2561506263,
				"y": 3.1631234503,
				"z": -1.3485697316,
				"element": "H" 
			},
			{
				"x": -3.2930180308,
				"y": 2.6021378268,
				"z": -2.7327870511,
				"element": "H" 
			},
			{
				"x": -0.6011652145,
				"y": 0.6813498549,
				"z": 2.8825793283,
				"element": "H" 
			},
			{
				"x": 1.5750005683,
				"y": 1.2653947918,
				"z": 3.3536667309,
				"element": "H" 
			},
			{
				"x": 1.8427042136,
				"y": 1.7058908951,
				"z": 1.675585569,
				"element": "H" 
			},
			{
				"x": 1.7647759384,
				"y": -1.1559184125,
				"z": 2.7728714326,
				"element": "H" 
			},
			{
				"x": 3.2316571764,
				"y": -0.2289383681,
				"z": 2.4735752985,
				"element": "H" 
			},
			{
				"x": 4.0752676296,
				"y": 0.113515208,
				"z": 0.1903373309,
				"element": "H" 
			},
			{
				"x": 4.079752365,
				"y": -0.6205976979,
				"z": -2.1764960258,
				"element": "H" 
			},
			{
				"x": 0.3955566056,
				"y": -2.7356690947,
				"z": -1.5245573014,
				"element": "H" 
			},
			{
				"x": 0.3893036845,
				"y": -1.9949630825,
				"z": 0.8414092018,
				"element": "H" 
			},
			{
				"x": 0.9502733766,
				"y": 1.6021992481,
				"z": -0.3892399937,
				"element": "H" 
			},
			{
				"x": -0.5334331071,
				"y": 2.6804533031,
				"z": -2.0860341011,
				"element": "H" 
			}
		],
		 "valence_orbital": [ 
			{
				"type": "occ",
				"energy": -0.28978,
				"method": "rhf"
			},
			{
				"type": "occ",
				"energy": -0.26642,
				"method": "rhf"
			},
			{
				"type": "occ",
				"energy": -0.24534,
				"method": "rhf"
			},
			{
				"type": "occ",
				"energy": -0.21758,
				"method": "rhf"
			},
			{
				"type": "occ",
				"energy": -0.21241,
				"method": "rhf"
			},
			{
				"type": "unocc",
				"energy": -0.03452,
				"method": "rhf"
			},
			{
				"type": "unocc",
				"energy": -0.01815,
				"method": "rhf"
			},
			{
				"type": "unocc",
				"energy": -0.0171,
				"method": "rhf"
			},
			{
				"type": "unocc",
				"energy": 0.00436,
				"method": "rhf"
			},
			{
				"type": "unocc",
				"energy": 0.02765,
				"method": "rhf"
			}
		],
		"cosmo_sigma_profile": { 
			"-0.025": 0.0,
			"-0.024": 0.0,
			"-0.023": 0.0,
			"-0.022": 0.0,
			"-0.021": 0.0,
			"-0.02": 0.0,
			"-0.019": 0.0,
			"-0.018": 0.0,
			"-0.017": 0.0,
			"-0.016": 0.0,
			"-0.015": 0.0,
			"-0.014": 0.0,
			"-0.013": 0.233727829974,
			"-0.012": 0.777766615819,
			"-0.011": 1.44958891775,
			"-0.01": 0.607534739907,
			"-0.009": 0.927438054484,
			"-0.008": 1.30617977499,
			"-0.007": 5.93946232045,
			"-0.006": 13.3211179689,
			"-0.005": 22.704355325,
			"-0.004": 30.2487686759,
			"-0.003": 24.5154335654,
			"-0.002": 20.586593086,
			"-0.001": 22.6117211297,
			"0.0": 22.6995001523,
			"0.001": 21.9688254305,
			"0.002": 26.1677757552,
			"0.003": 21.2918573981,
			"0.004": 18.3205355722,
			"0.005": 12.5575651332,
			"0.006": 3.06187014012,
			"0.007": 1.89038287236,
			"0.008": 2.22096804019,
			"0.009": 1.64583480674,
			"0.01": 1.82219454018,
			"0.011": 1.94025011868,
			"0.012": 1.54038106994,
			"0.013": 1.92544814729,
			"0.014": 2.06024856724,
			"0.015": 2.76499112735,
			"0.016": 2.60183924932,
			"0.017": 0.730394332199,
			"0.018": 0.00666401661164,
			"0.019": 0.0,
			"0.02": 0.0,
			"0.021": 0.0,
			"0.022": 0.0,
			"0.023": 0.0,
			"0.024": 0.0,
			"0.025": 0.0
		}
	}
}
