{
	 "smiles": "CC(NC(=O)CNC(=O)CCl)C1=CC=C(F)C=C1", 
	 "Tm": 411.15, 
	 "num_atms": 32, 
	 "gaussian": { 
		 "optdone": 1, 
		 "sigma_profile": "yes", 
		 "theory": "DFT", 
		 "functional": "B3LYP", 
		 "basiset": "6-31G**", 
		 "properties": { 
			 "R2extent": 5608.0339, 
			 "electric_dipole_moment_norm": 4.5178846466, 
			 "electric_quadrupole_moment_norm": 10.9918636323, 
			 "total_energy": -1285.71422025, 
			 "HOMO_LUMO_gap": 0.22077, 
			 "cosmo_polarized_energy": -20.49, 
			 "cosmo_cavitation_energy": 38.3, 
			 "cosmo_dispersion_energy": -24.92, 
			 "cosmo_repulsion_energy": 1.96, 
			 "cosmo_total_nonelectrostatic_energy": 15.34, 
			 "SMD_solvation_energy": 7.88 
		},
		"coords": [
			{
				"x": -1.7288786438,
				"y": -3.1415181804,
				"z": -0.4431070298,
				"element": "C" 
			},
			{
				"x": -1.365889233,
				"y": -1.6735061072,
				"z": -0.1632935468,
				"element": "C" 
			},
			{
				"x": -2.5771829637,
				"y": -0.9850473999,
				"z": 0.2843290594,
				"element": "N" 
			},
			{
				"x": -2.8340077663,
				"y": 0.3580346575,
				"z": 0.3692812764,
				"element": "C" 
			},
			{
				"x": -3.8882925346,
				"y": 0.7782739739,
				"z": 0.8272167723,
				"element": "O" 
			},
			{
				"x": -1.7606546241,
				"y": 1.3317570092,
				"z": -0.1382167733,
				"element": "C" 
			},
			{
				"x": -1.5885451203,
				"y": 1.2294868496,
				"z": -1.5840837898,
				"element": "N" 
			},
			{
				"x": -0.4842363432,
				"y": 1.5430605397,
				"z": -2.3351527911,
				"element": "C" 
			},
			{
				"x": -0.5220282736,
				"y": 1.5636171455,
				"z": -3.5563415353,
				"element": "O" 
			},
			{
				"x": 0.8291725277,
				"y": 1.8157336127,
				"z": -1.6009198551,
				"element": "C" 
			},
			{
				"x": 0.807744689,
				"y": 3.4104233087,
				"z": -0.7333335636,
				"element": "Cl" 
			},
			{
				"x": -0.1979713957,
				"y": -1.575275369,
				"z": 0.8194226646,
				"element": "C" 
			},
			{
				"x": -0.395367971,
				"y": -1.4451545074,
				"z": 2.199564051,
				"element": "C" 
			},
			{
				"x": 0.6862389578,
				"y": -1.4101156844,
				"z": 3.0805781261,
				"element": "C" 
			},
			{
				"x": 1.9736933047,
				"y": -1.5086964732,
				"z": 2.5659480927,
				"element": "C" 
			},
			{
				"x": 3.0230112893,
				"y": -1.472239067,
				"z": 3.4107483043,
				"element": "F" 
			},
			{
				"x": 2.2092797698,
				"y": -1.6374312657,
				"z": 1.2013722528,
				"element": "C" 
			},
			{
				"x": 1.1154287529,
				"y": -1.668985739,
				"z": 0.3362339691,
				"element": "C" 
			},
			{
				"x": -2.0666427376,
				"y": -3.636212914,
				"z": 0.4745051261,
				"element": "H" 
			},
			{
				"x": -0.8559112941,
				"y": -3.6856911383,
				"z": -0.8107284984,
				"element": "H" 
			},
			{
				"x": -2.5225698008,
				"y": -3.2074426047,
				"z": -1.1936864289,
				"element": "H" 
			},
			{
				"x": -1.050456995,
				"y": -1.2189394232,
				"z": -1.1085615581,
				"element": "H" 
			},
			{
				"x": -3.3391577432,
				"y": -1.551389619,
				"z": 0.6364547297,
				"element": "H" 
			},
			{
				"x": -0.8090371108,
				"y": 1.1233602226,
				"z": 0.3560182586,
				"element": "H" 
			},
			{
				"x": -2.092212051,
				"y": 2.3290824702,
				"z": 0.1649831467,
				"element": "H" 
			},
			{
				"x": -2.433311499,
				"y": 1.1886097949,
				"z": -2.1426190806,
				"element": "H" 
			},
			{
				"x": 1.6110863407,
				"y": 1.8721440404,
				"z": -2.3546671376,
				"element": "H" 
			},
			{
				"x": 1.0705006909,
				"y": 1.0510613833,
				"z": -0.859798311,
				"element": "H" 
			},
			{
				"x": -1.4039576822,
				"y": -1.3580163499,
				"z": 2.5916665673,
				"element": "H" 
			},
			{
				"x": 0.5440450274,
				"y": -1.3046103638,
				"z": 4.1506700536,
				"element": "H" 
			},
			{
				"x": 3.2283247209,
				"y": -1.7065257553,
				"z": 0.8364515862,
				"element": "H" 
			},
			{
				"x": 1.2888857119,
				"y": -1.7753470467,
				"z": -0.7325341375,
				"element": "H" 
			}
		],
		 "valence_orbital": [ 
			{
				"type": "occ",
				"energy": -0.27434,
				"method": "rhf"
			},
			{
				"type": "occ",
				"energy": -0.27157,
				"method": "rhf"
			},
			{
				"type": "occ",
				"energy": -0.268,
				"method": "rhf"
			},
			{
				"type": "occ",
				"energy": -0.25683,
				"method": "rhf"
			},
			{
				"type": "occ",
				"energy": -0.25241,
				"method": "rhf"
			},
			{
				"type": "unocc",
				"energy": -0.03164,
				"method": "rhf"
			},
			{
				"type": "unocc",
				"energy": -0.0268,
				"method": "rhf"
			},
			{
				"type": "unocc",
				"energy": -0.01877,
				"method": "rhf"
			},
			{
				"type": "unocc",
				"energy": 0.0013,
				"method": "rhf"
			},
			{
				"type": "unocc",
				"energy": 0.04702,
				"method": "rhf"
			}
		],
		"cosmo_sigma_profile": { 
			"-0.025": 0.0,
			"-0.024": 0.0,
			"-0.023": 0.0,
			"-0.022": 0.0,
			"-0.021": 0.0,
			"-0.02": 0.0,
			"-0.019": 0.0,
			"-0.018": 0.0,
			"-0.017": 0.0,
			"-0.016": 0.0,
			"-0.015": 0.405851117201,
			"-0.014": 0.967669197026,
			"-0.013": 1.98880379091,
			"-0.012": 1.67422680931,
			"-0.011": 1.6718896343,
			"-0.01": 2.96212878994,
			"-0.009": 3.02762339035,
			"-0.008": 5.03781885646,
			"-0.007": 11.1452048656,
			"-0.006": 16.9575689217,
			"-0.005": 23.0551323163,
			"-0.004": 24.4839580062,
			"-0.003": 19.8789632034,
			"-0.002": 20.3142865557,
			"-0.001": 21.4623743713,
			"0.0": 18.7580985418,
			"0.001": 21.1553581515,
			"0.002": 17.7325160742,
			"0.003": 17.6475553656,
			"0.004": 21.8033012907,
			"0.005": 14.0294573673,
			"0.006": 5.14363887063,
			"0.007": 2.73863690371,
			"0.008": 1.70413177387,
			"0.009": 1.43556776608,
			"0.01": 3.39365496862,
			"0.011": 4.08439094573,
			"0.012": 5.45282242442,
			"0.013": 10.631232778,
			"0.014": 4.3803241082,
			"0.015": 0.301669310886,
			"0.016": 0.0,
			"0.017": 0.0,
			"0.018": 0.0,
			"0.019": 0.0,
			"0.02": 0.0,
			"0.021": 0.0,
			"0.022": 0.0,
			"0.023": 0.0,
			"0.024": 0.0,
			"0.025": 0.0
		}
	}
}
