{
	 "smiles": "COC(=O)C1=C(S)N=C2C=CC=CC2=C1O", 
	 "Tm": 453.15, 
	 "num_atms": 25, 
	 "gaussian": { 
		 "optdone": 1, 
		 "sigma_profile": "yes", 
		 "theory": "DFT", 
		 "functional": "B3LYP", 
		 "basiset": "6-31G**", 
		 "properties": { 
			 "R2extent": 4513.2502, 
			 "electric_dipole_moment_norm": 4.92765625932, 
			 "electric_quadrupole_moment_norm": 22.4620532463, 
			 "total_energy": -1103.22470741, 
			 "HOMO_LUMO_gap": 0.14747, 
			 "cosmo_polarized_energy": -12.16, 
			 "cosmo_cavitation_energy": 30.49, 
			 "cosmo_dispersion_energy": -23.58, 
			 "cosmo_repulsion_energy": 1.75, 
			 "cosmo_total_nonelectrostatic_energy": 8.66, 
			 "SMD_solvation_energy": 4.69 
		},
		"coords": [
			{
				"x": -4.2797263467,
				"y": -1.5140700606,
				"z": 0.333273592,
				"element": "C" 
			},
			{
				"x": -2.9763195661,
				"y": -0.99056686,
				"z": 0.0051919907,
				"element": "O" 
			},
			{
				"x": -1.9243221146,
				"y": -1.8704227435,
				"z": 0.1296170886,
				"element": "C" 
			},
			{
				"x": -2.1543496833,
				"y": -3.0083307807,
				"z": 0.5004820432,
				"element": "O" 
			},
			{
				"x": -0.6199419473,
				"y": -1.2754510085,
				"z": -0.2207074062,
				"element": "C" 
			},
			{
				"x": 0.6188492441,
				"y": -2.0383175948,
				"z": -0.1549336087,
				"element": "C" 
			},
			{
				"x": 0.7680421721,
				"y": -3.7427013588,
				"z": 0.3378553436,
				"element": "S" 
			},
			{
				"x": 1.7958657478,
				"y": -1.543452225,
				"z": -0.4587741495,
				"element": "N" 
			},
			{
				"x": 1.9010997084,
				"y": -0.2474842874,
				"z": -0.8618566565,
				"element": "C" 
			},
			{
				"x": 3.1840245547,
				"y": 0.2630170262,
				"z": -1.1844218985,
				"element": "C" 
			},
			{
				"x": 3.3283067064,
				"y": 1.5708727973,
				"z": -1.5962332174,
				"element": "C" 
			},
			{
				"x": 2.204337085,
				"y": 2.424114445,
				"z": -1.7042067771,
				"element": "C" 
			},
			{
				"x": 0.9454423492,
				"y": 1.9536282988,
				"z": -1.3968040237,
				"element": "C" 
			},
			{
				"x": 0.7761428169,
				"y": 0.612550129,
				"z": -0.9717033536,
				"element": "C" 
			},
			{
				"x": -0.5021262315,
				"y": 0.0692485472,
				"z": -0.6399615078,
				"element": "C" 
			},
			{
				"x": -1.525008944,
				"y": 0.9217738408,
				"z": -0.7610798101,
				"element": "O" 
			},
			{
				"x": -4.5234731722,
				"y": -2.3548245301,
				"z": -0.3184306643,
				"element": "H" 
			},
			{
				"x": -4.971313547,
				"y": -0.6872831111,
				"z": 0.1746490273,
				"element": "H" 
			},
			{
				"x": -4.3023877219,
				"y": -1.8452336749,
				"z": 1.3729290696,
				"element": "H" 
			},
			{
				"x": -0.5403192323,
				"y": -3.9629834985,
				"z": 0.5751125448,
				"element": "H" 
			},
			{
				"x": 4.0304958663,
				"y": -0.4091743174,
				"z": -1.0942225689,
				"element": "H" 
			},
			{
				"x": 4.3150760352,
				"y": 1.9535655818,
				"z": -1.8413739313,
				"element": "H" 
			},
			{
				"x": 2.336524975,
				"y": 3.4512265279,
				"z": -2.0301120544,
				"element": "H" 
			},
			{
				"x": 0.0747252412,
				"y": 2.5944292098,
				"z": -1.4744081323,
				"element": "H" 
			},
			{
				"x": -2.3493439955,
				"y": 0.4557696473,
				"z": -0.5126809397,
				"element": "H" 
			}
		],
		 "valence_orbital": [ 
			{
				"type": "occ",
				"energy": -0.28309,
				"method": "rhf"
			},
			{
				"type": "occ",
				"energy": -0.27576,
				"method": "rhf"
			},
			{
				"type": "occ",
				"energy": -0.25918,
				"method": "rhf"
			},
			{
				"type": "occ",
				"energy": -0.24573,
				"method": "rhf"
			},
			{
				"type": "occ",
				"energy": -0.21547,
				"method": "rhf"
			},
			{
				"type": "unocc",
				"energy": -0.068,
				"method": "rhf"
			},
			{
				"type": "unocc",
				"energy": -0.03629,
				"method": "rhf"
			},
			{
				"type": "unocc",
				"energy": 0.01519,
				"method": "rhf"
			},
			{
				"type": "unocc",
				"energy": 0.02741,
				"method": "rhf"
			},
			{
				"type": "unocc",
				"energy": 0.04468,
				"method": "rhf"
			}
		],
		"cosmo_sigma_profile": { 
			"-0.025": 0.0,
			"-0.024": 0.0,
			"-0.023": 0.0,
			"-0.022": 0.0,
			"-0.021": 0.0,
			"-0.02": 0.0,
			"-0.019": 0.0,
			"-0.018": 0.0,
			"-0.017": 0.0,
			"-0.016": 0.0,
			"-0.015": 0.0,
			"-0.014": 0.0,
			"-0.013": 0.0,
			"-0.012": 0.187828632602,
			"-0.011": 0.334391834407,
			"-0.01": 0.865641159546,
			"-0.009": 0.914503928247,
			"-0.008": 1.58977290474,
			"-0.007": 7.43814151869,
			"-0.006": 16.7240966727,
			"-0.005": 19.3629907723,
			"-0.004": 23.087801669,
			"-0.003": 17.1588257783,
			"-0.002": 17.0881199449,
			"-0.001": 17.2523163256,
			"0.0": 16.5448330701,
			"0.001": 15.5714999337,
			"0.002": 17.9862738049,
			"0.003": 18.8374162439,
			"0.004": 13.8296439992,
			"0.005": 9.24616816136,
			"0.006": 8.53235862633,
			"0.007": 9.35643599226,
			"0.008": 6.50574858684,
			"0.009": 3.36041165401,
			"0.01": 2.25808789078,
			"0.011": 1.49661798353,
			"0.012": 0.961254526859,
			"0.013": 0.918631784337,
			"0.014": 0.591666326822,
			"0.015": 0.0,
			"0.016": 0.0,
			"0.017": 0.0,
			"0.018": 0.0,
			"0.019": 0.0,
			"0.02": 0.0,
			"0.021": 0.0,
			"0.022": 0.0,
			"0.023": 0.0,
			"0.024": 0.0,
			"0.025": 0.0
		}
	}
}
