{
	 "smiles": "FC1=CC2=C(C=C1)N=C(NC(=O)CCl)S2", 
	 "Tm": 444.15, 
	 "num_atms": 21, 
	 "gaussian": { 
		 "optdone": 1, 
		 "sigma_profile": "yes", 
		 "theory": "DFT", 
		 "functional": "B3LYP", 
		 "basiset": "6-31G**", 
		 "properties": { 
			 "R2extent": 6417.0462, 
			 "electric_dipole_moment_norm": 2.12982633564, 
			 "electric_quadrupole_moment_norm": 14.7171396001, 
			 "total_energy": -1489.5245738, 
			 "HOMO_LUMO_gap": 0.17175, 
			 "cosmo_polarized_energy": -11.79, 
			 "cosmo_cavitation_energy": 29.76, 
			 "cosmo_dispersion_energy": -22.45, 
			 "cosmo_repulsion_energy": 1.68, 
			 "cosmo_total_nonelectrostatic_energy": 8.99, 
			 "SMD_solvation_energy": 4.03 
		},
		"coords": [
			{
				"x": -1.7209936497,
				"y": -3.2928152114,
				"z": -1.8188210114,
				"element": "F" 
			},
			{
				"x": -1.0781325504,
				"y": -2.2450420069,
				"z": -1.263915144,
				"element": "C" 
			},
			{
				"x": -0.7358480972,
				"y": -2.3151109473,
				"z": 0.0799826521,
				"element": "C" 
			},
			{
				"x": -0.0696433675,
				"y": -1.2111683169,
				"z": 0.6122718564,
				"element": "C" 
			},
			{
				"x": 0.2407942883,
				"y": -0.0716100019,
				"z": -0.1669257165,
				"element": "C" 
			},
			{
				"x": -0.124942342,
				"y": -0.0462619411,
				"z": -1.5206298364,
				"element": "C" 
			},
			{
				"x": -0.7863692759,
				"y": -1.1385785034,
				"z": -2.0686517623,
				"element": "C" 
			},
			{
				"x": 0.8854343144,
				"y": 0.9516790326,
				"z": 0.5060304553,
				"element": "N" 
			},
			{
				"x": 1.0814197205,
				"y": 0.6409008731,
				"z": 1.7487319779,
				"element": "C" 
			},
			{
				"x": 1.7536824373,
				"y": 1.5313391218,
				"z": 2.5755787435,
				"element": "N" 
			},
			{
				"x": 1.8465069643,
				"y": 1.7393861297,
				"z": 3.9459214047,
				"element": "C" 
			},
			{
				"x": 2.4230842723,
				"y": 2.7284273509,
				"z": 4.360793148,
				"element": "O" 
			},
			{
				"x": 1.2237588859,
				"y": 0.7393067809,
				"z": 4.9087266975,
				"element": "C" 
			},
			{
				"x": 2.3325477734,
				"y": -0.6653901257,
				"z": 5.1925622294,
				"element": "Cl" 
			},
			{
				"x": 0.5225361062,
				"y": -0.9774583806,
				"z": 2.2487908813,
				"element": "S" 
			},
			{
				"x": -0.9822674605,
				"y": -3.1962684851,
				"z": 0.6607570167,
				"element": "H" 
			},
			{
				"x": 0.1118814654,
				"y": 0.8261089754,
				"z": -2.1197983606,
				"element": "H" 
			},
			{
				"x": -1.0850501966,
				"y": -1.1554223299,
				"z": -3.1107895237,
				"element": "H" 
			},
			{
				"x": 2.150154207,
				"y": 2.3058152351,
				"z": 2.0512389112,
				"element": "H" 
			},
			{
				"x": 1.103728075,
				"y": 1.2505801212,
				"z": 5.8615000571,
				"element": "H" 
			},
			{
				"x": 0.2688184296,
				"y": 0.3398826295,
				"z": 4.5653453241,
				"element": "H" 
			}
		],
		 "valence_orbital": [ 
			{
				"type": "occ",
				"energy": -0.30534,
				"method": "rhf"
			},
			{
				"type": "occ",
				"energy": -0.30208,
				"method": "rhf"
			},
			{
				"type": "occ",
				"energy": -0.2836,
				"method": "rhf"
			},
			{
				"type": "occ",
				"energy": -0.25525,
				"method": "rhf"
			},
			{
				"type": "occ",
				"energy": -0.23257,
				"method": "rhf"
			},
			{
				"type": "unocc",
				"energy": -0.06082,
				"method": "rhf"
			},
			{
				"type": "unocc",
				"energy": -0.02717,
				"method": "rhf"
			},
			{
				"type": "unocc",
				"energy": -0.02219,
				"method": "rhf"
			},
			{
				"type": "unocc",
				"energy": -0.01131,
				"method": "rhf"
			},
			{
				"type": "unocc",
				"energy": 0.02204,
				"method": "rhf"
			}
		],
		"cosmo_sigma_profile": { 
			"-0.025": 0.0,
			"-0.024": 0.0,
			"-0.023": 0.0,
			"-0.022": 0.0,
			"-0.021": 0.0,
			"-0.02": 0.0,
			"-0.019": 0.0,
			"-0.018": 0.0,
			"-0.017": 0.0,
			"-0.016": 0.100584725032,
			"-0.015": 0.896967925494,
			"-0.014": 0.915061841751,
			"-0.013": 0.234756021441,
			"-0.012": 0.617037583188,
			"-0.011": 1.42487563776,
			"-0.01": 1.98332368255,
			"-0.009": 6.09334529808,
			"-0.008": 8.66158025309,
			"-0.007": 10.4786327548,
			"-0.006": 9.92501454095,
			"-0.005": 10.556344574,
			"-0.004": 8.38600451726,
			"-0.003": 10.1443441235,
			"-0.002": 15.078585086,
			"-0.001": 14.688212313,
			"0.0": 19.954948702,
			"0.001": 23.5721446809,
			"0.002": 25.1179830311,
			"0.003": 19.1674929521,
			"0.004": 23.2822939295,
			"0.005": 9.97481518962,
			"0.006": 2.10581158479,
			"0.007": 2.32639516695,
			"0.008": 2.52982497684,
			"0.009": 2.39487365545,
			"0.01": 3.9628097201,
			"0.011": 5.44429981077,
			"0.012": 3.04827475014,
			"0.013": 0.660573463196,
			"0.014": 0.00769163167143,
			"0.015": 0.0,
			"0.016": 0.0,
			"0.017": 0.0,
			"0.018": 0.0,
			"0.019": 0.0,
			"0.02": 0.0,
			"0.021": 0.0,
			"0.022": 0.0,
			"0.023": 0.0,
			"0.024": 0.0,
			"0.025": 0.0
		}
	}
}
