{
	 "smiles": "OCCN1C=CC=CC1=O", 
	 "Tm": 362.15, 
	 "num_atms": 19, 
	 "gaussian": { 
		 "optdone": 1, 
		 "sigma_profile": "yes", 
		 "theory": "DFT", 
		 "functional": "B3LYP", 
		 "basiset": "6-31G**", 
		 "properties": { 
			 "R2extent": 2007.378, 
			 "electric_dipole_moment_norm": 5.0052560464, 
			 "electric_quadrupole_moment_norm": 9.53054630071, 
			 "total_energy": -477.353582627, 
			 "HOMO_LUMO_gap": 0.17326, 
			 "cosmo_polarized_energy": -16.78, 
			 "cosmo_cavitation_energy": 22.55, 
			 "cosmo_dispersion_energy": -16.57, 
			 "cosmo_repulsion_energy": 1.36, 
			 "cosmo_total_nonelectrostatic_energy": 7.35, 
			 "SMD_solvation_energy": 4.86 
		},
		"coords": [
			{
				"x": 0.1197844108,
				"y": 2.2363002062,
				"z": -1.6312899728,
				"element": "O" 
			},
			{
				"x": -0.1613439148,
				"y": 2.2210094299,
				"z": -0.2459721509,
				"element": "C" 
			},
			{
				"x": -0.1025072676,
				"y": 0.7770845469,
				"z": 0.2424304703,
				"element": "C" 
			},
			{
				"x": 1.2219551414,
				"y": 0.1635219258,
				"z": 0.0844915538,
				"element": "N" 
			},
			{
				"x": 2.2696640289,
				"y": 0.6080050537,
				"z": 0.840849569,
				"element": "C" 
			},
			{
				"x": 3.5288564589,
				"y": 0.0994025647,
				"z": 0.7130209237,
				"element": "C" 
			},
			{
				"x": 3.7411993599,
				"y": -0.9273836906,
				"z": -0.2511669491,
				"element": "C" 
			},
			{
				"x": 2.7072167061,
				"y": -1.3929822431,
				"z": -1.009311495,
				"element": "C" 
			},
			{
				"x": 1.3552325765,
				"y": -0.8802991541,
				"z": -0.8801272878,
				"element": "C" 
			},
			{
				"x": 0.3803765552,
				"y": -1.2838370492,
				"z": -1.5092566553,
				"element": "O" 
			},
			{
				"x": 0.1408028326,
				"y": 3.1536712132,
				"z": -1.9291432374,
				"element": "H" 
			},
			{
				"x": -1.1701463137,
				"y": 2.6058528482,
				"z": -0.0213779456,
				"element": "H" 
			},
			{
				"x": 0.554561924,
				"y": 2.8406844042,
				"z": 0.3203779225,
				"element": "H" 
			},
			{
				"x": -0.3951061831,
				"y": 0.7395366031,
				"z": 1.298016034,
				"element": "H" 
			},
			{
				"x": -0.7871025677,
				"y": 0.1604091965,
				"z": -0.3411030159,
				"element": "H" 
			},
			{
				"x": 2.0323689616,
				"y": 1.3899949105,
				"z": 1.5553041877,
				"element": "H" 
			},
			{
				"x": 4.3325495864,
				"y": 0.4731522797,
				"z": 1.3350853639,
				"element": "H" 
			},
			{
				"x": 4.7367869844,
				"y": -1.3450590789,
				"z": -0.3778484435,
				"element": "H" 
			},
			{
				"x": 2.8385507205,
				"y": -2.1774639669,
				"z": -1.7455788716,
				"element": "H" 
			}
		],
		 "valence_orbital": [ 
			{
				"type": "occ",
				"energy": -0.329,
				"method": "rhf"
			},
			{
				"type": "occ",
				"energy": -0.28775,
				"method": "rhf"
			},
			{
				"type": "occ",
				"energy": -0.27637,
				"method": "rhf"
			},
			{
				"type": "occ",
				"energy": -0.23901,
				"method": "rhf"
			},
			{
				"type": "occ",
				"energy": -0.20673,
				"method": "rhf"
			},
			{
				"type": "unocc",
				"energy": -0.03347,
				"method": "rhf"
			},
			{
				"type": "unocc",
				"energy": 0.02347,
				"method": "rhf"
			},
			{
				"type": "unocc",
				"energy": 0.06704,
				"method": "rhf"
			},
			{
				"type": "unocc",
				"energy": 0.08798,
				"method": "rhf"
			},
			{
				"type": "unocc",
				"energy": 0.10912,
				"method": "rhf"
			}
		],
		"cosmo_sigma_profile": { 
			"-0.025": 0.0,
			"-0.024": 0.0,
			"-0.023": 0.0,
			"-0.022": 0.0,
			"-0.021": 0.0,
			"-0.02": 0.0,
			"-0.019": 0.0,
			"-0.018": 0.0,
			"-0.017": 0.0,
			"-0.016": 0.390108963638,
			"-0.015": 1.04726697106,
			"-0.014": 1.03945837565,
			"-0.013": 1.18518400168,
			"-0.012": 0.908969663677,
			"-0.011": 0.47525287533,
			"-0.01": 0.812879021284,
			"-0.009": 3.42030531697,
			"-0.008": 4.30988936624,
			"-0.007": 7.80326553001,
			"-0.006": 12.0450006652,
			"-0.005": 14.5890249336,
			"-0.004": 16.7903837995,
			"-0.003": 13.9213305932,
			"-0.002": 9.14649178953,
			"-0.001": 8.62135793098,
			"0.0": 8.02566596078,
			"0.001": 7.92754782438,
			"0.002": 10.3821490996,
			"0.003": 11.8001625156,
			"0.004": 8.81797781448,
			"0.005": 3.4049438217,
			"0.006": 3.15122151932,
			"0.007": 1.81825370523,
			"0.008": 2.28746143114,
			"0.009": 3.47144950237,
			"0.01": 3.51088150177,
			"0.011": 2.22030150589,
			"0.012": 2.24035030134,
			"0.013": 2.71406989052,
			"0.014": 5.93250914372,
			"0.015": 3.72591606752,
			"0.016": 0.441679328961,
			"0.017": 0.0,
			"0.018": 0.0,
			"0.019": 0.0,
			"0.02": 0.0,
			"0.021": 0.0,
			"0.022": 0.0,
			"0.023": 0.0,
			"0.024": 0.0,
			"0.025": 0.0
		}
	}
}
