{
	 "smiles": "C1CCC(CC1)C1=NNC(=N1)C1=CC=CO1", 
	 "Tm": 421.15, 
	 "num_atms": 31, 
	 "gaussian": { 
		 "optdone": 1, 
		 "sigma_profile": "yes", 
		 "theory": "DFT", 
		 "functional": "B3LYP", 
		 "basiset": "6-31G**", 
		 "properties": { 
			 "R2extent": 5216.3558, 
			 "electric_dipole_moment_norm": 2.92413805078, 
			 "electric_quadrupole_moment_norm": 13.8735005882, 
			 "total_energy": -705.776715035, 
			 "HOMO_LUMO_gap": 0.18299, 
			 "cosmo_polarized_energy": -10.73, 
			 "cosmo_cavitation_energy": 33.34, 
			 "cosmo_dispersion_energy": -24.47, 
			 "cosmo_repulsion_energy": 1.92, 
			 "cosmo_total_nonelectrostatic_energy": 10.79, 
			 "SMD_solvation_energy": 3.3 
		},
		"coords": [
			{
				"x": -2.0698114329,
				"y": 2.3440769621,
				"z": -1.3915931693,
				"element": "C" 
			},
			{
				"x": -1.6527079428,
				"y": 0.8541933323,
				"z": -1.4189438412,
				"element": "C" 
			},
			{
				"x": -0.24197352,
				"y": 0.6848341325,
				"z": -1.9964660933,
				"element": "C" 
			},
			{
				"x": 0.8364725769,
				"y": 1.3808845024,
				"z": -1.1073104269,
				"element": "C" 
			},
			{
				"x": 0.238146323,
				"y": 2.6049008183,
				"z": -0.359218223,
				"element": "C" 
			},
			{
				"x": -0.8565576344,
				"y": 3.2842805239,
				"z": -1.191029743,
				"element": "C" 
			},
			{
				"x": 1.4700179776,
				"y": 0.4207412079,
				"z": -0.1421144905,
				"element": "C" 
			},
			{
				"x": 2.7519991527,
				"y": 0.0739193469,
				"z": -0.2224241512,
				"element": "N" 
			},
			{
				"x": 2.8825191483,
				"y": -0.8002977096,
				"z": 0.8098288311,
				"element": "N" 
			},
			{
				"x": 1.7009205683,
				"y": -0.9435431976,
				"z": 1.4590367055,
				"element": "C" 
			},
			{
				"x": 0.7833250287,
				"y": -0.1794542413,
				"z": 0.8784229849,
				"element": "N" 
			},
			{
				"x": 1.5099262565,
				"y": -1.8030992971,
				"z": 2.6020193752,
				"element": "C" 
			},
			{
				"x": 0.4250507131,
				"y": -2.0856868476,
				"z": 3.3851409038,
				"element": "C" 
			},
			{
				"x": 0.8753310975,
				"y": -3.0219434942,
				"z": 4.3675157243,
				"element": "C" 
			},
			{
				"x": 2.1960202083,
				"y": -3.2411400958,
				"z": 4.1136001381,
				"element": "C" 
			},
			{
				"x": 2.6036509154,
				"y": -2.5060171561,
				"z": 3.0388017079,
				"element": "O" 
			},
			{
				"x": -2.7981873123,
				"y": 2.5010466667,
				"z": -0.5869348832,
				"element": "H" 
			},
			{
				"x": -2.5823560142,
				"y": 2.6081488889,
				"z": -2.3246793046,
				"element": "H" 
			},
			{
				"x": -1.6631375096,
				"y": 0.4389306358,
				"z": -0.405065316,
				"element": "H" 
			},
			{
				"x": -2.3748473357,
				"y": 0.2704786923,
				"z": -2.001290589,
				"element": "H" 
			},
			{
				"x": 0.0040974518,
				"y": -0.3753711677,
				"z": -2.1165293305,
				"element": "H" 
			},
			{
				"x": -0.2072599,
				"y": 1.1245020656,
				"z": -3.0015263475,
				"element": "H" 
			},
			{
				"x": 1.6443310426,
				"y": 1.7264650731,
				"z": -1.7611044164,
				"element": "H" 
			},
			{
				"x": -0.1860781942,
				"y": 2.2690254254,
				"z": 0.594245204,
				"element": "H" 
			},
			{
				"x": 1.0406448401,
				"y": 3.3092327405,
				"z": -0.1128694779,
				"element": "H" 
			},
			{
				"x": -0.4384575797,
				"y": 3.5701138526,
				"z": -2.1654454755,
				"element": "H" 
			},
			{
				"x": -1.175063777,
				"y": 4.2176865303,
				"z": -0.7133322387,
				"element": "H" 
			},
			{
				"x": 3.7693527378,
				"y": -1.2372087532,
				"z": 1.0099972908,
				"element": "H" 
			},
			{
				"x": -0.5636652935,
				"y": -1.6700630147,
				"z": 3.2630959785,
				"element": "H" 
			},
			{
				"x": 0.2912688053,
				"y": -3.4711559983,
				"z": 5.1575528521,
				"element": "H" 
			},
			{
				"x": 2.9526286024,
				"y": -3.8559804243,
				"z": 4.5752198217,
				"element": "H" 
			}
		],
		 "valence_orbital": [ 
			{
				"type": "occ",
				"energy": -0.28946,
				"method": "rhf"
			},
			{
				"type": "occ",
				"energy": -0.28807,
				"method": "rhf"
			},
			{
				"type": "occ",
				"energy": -0.27059,
				"method": "rhf"
			},
			{
				"type": "occ",
				"energy": -0.26743,
				"method": "rhf"
			},
			{
				"type": "occ",
				"energy": -0.21824,
				"method": "rhf"
			},
			{
				"type": "unocc",
				"energy": -0.03525,
				"method": "rhf"
			},
			{
				"type": "unocc",
				"energy": 0.03852,
				"method": "rhf"
			},
			{
				"type": "unocc",
				"energy": 0.04943,
				"method": "rhf"
			},
			{
				"type": "unocc",
				"energy": 0.08439,
				"method": "rhf"
			},
			{
				"type": "unocc",
				"energy": 0.09002,
				"method": "rhf"
			}
		],
		"cosmo_sigma_profile": { 
			"-0.025": 0.0,
			"-0.024": 0.0,
			"-0.023": 0.0,
			"-0.022": 0.0,
			"-0.021": 0.0,
			"-0.02": 0.0,
			"-0.019": 0.0,
			"-0.018": 0.0,
			"-0.017": 0.625823309057,
			"-0.016": 1.05972227834,
			"-0.015": 0.751776584504,
			"-0.014": 1.17727202963,
			"-0.013": 0.573231542526,
			"-0.012": 0.702188922732,
			"-0.011": 1.09161700697,
			"-0.01": 1.12673967076,
			"-0.009": 2.71467168499,
			"-0.008": 3.71618650448,
			"-0.007": 6.31195998563,
			"-0.006": 5.07727899313,
			"-0.005": 6.35696148482,
			"-0.004": 6.72300993027,
			"-0.003": 12.2964546302,
			"-0.002": 29.2924008993,
			"-0.001": 33.496612706,
			"0.0": 38.9090508506,
			"0.001": 34.7828258021,
			"0.002": 20.9670002164,
			"0.003": 14.8801423883,
			"0.004": 11.5134125403,
			"0.005": 5.30244248441,
			"0.006": 4.84052195142,
			"0.007": 3.39512746829,
			"0.008": 2.59281891206,
			"0.009": 1.89466804397,
			"0.01": 2.6294183457,
			"0.011": 2.32903251516,
			"0.012": 1.87827400095,
			"0.013": 1.40163171925,
			"0.014": 1.30408993539,
			"0.015": 0.713759892805,
			"0.016": 0.322948241583,
			"0.017": 0.0,
			"0.018": 0.0,
			"0.019": 0.0,
			"0.02": 0.0,
			"0.021": 0.0,
			"0.022": 0.0,
			"0.023": 0.0,
			"0.024": 0.0,
			"0.025": 0.0
		}
	}
}
