{
	 "smiles": "O=C1C2=CC=CC=C2C2=C3C1=CC=C1C4=CC=C5C(=O)C6=CC=CC=C6C6=C5C4=C(C=C6)C(C=C2)=C31", 
	 "Tm": 765.15, 
	 "num_atms": 52, 
	 "gaussian": { 
		 "optdone": 1, 
		 "sigma_profile": "yes", 
		 "theory": "DFT", 
		 "functional": "B3LYP", 
		 "basiset": "6-31G**", 
		 "properties": { 
			 "R2extent": 21638.1096, 
			 "electric_dipole_moment_norm": 5.76025489193, 
			 "electric_quadrupole_moment_norm": 8.90586412876, 
			 "total_energy": -1455.81014664, 
			 "HOMO_LUMO_gap": 0.08168, 
			 "cosmo_polarized_energy": -18.49, 
			 "cosmo_cavitation_energy": 53.39, 
			 "cosmo_dispersion_energy": -40.3, 
			 "cosmo_repulsion_energy": 2.7, 
			 "cosmo_total_nonelectrostatic_energy": 15.79, 
			 "SMD_solvation_energy": 7.5 
		},
		"coords": [
			{
				"x": 4.0684404805,
				"y": 3.9910219172,
				"z": 2.9789506075,
				"element": "O" 
			},
			{
				"x": 3.2633244697,
				"y": 3.8700494917,
				"z": 2.05463425,
				"element": "C" 
			},
			{
				"x": 2.9463690902,
				"y": 4.9957424057,
				"z": 1.144172657,
				"element": "C" 
			},
			{
				"x": 3.5926030738,
				"y": 6.2217655775,
				"z": 1.3606239097,
				"element": "C" 
			},
			{
				"x": 3.3359658151,
				"y": 7.3109573881,
				"z": 0.5408122459,
				"element": "C" 
			},
			{
				"x": 2.420594436,
				"y": 7.1738133989,
				"z": -0.5105777405,
				"element": "C" 
			},
			{
				"x": 1.7754346157,
				"y": 5.9634630451,
				"z": -0.7330910076,
				"element": "C" 
			},
			{
				"x": 2.019479161,
				"y": 4.8426449969,
				"z": 0.0860810536,
				"element": "C" 
			},
			{
				"x": 1.3488640202,
				"y": 3.5478838395,
				"z": -0.1281197173,
				"element": "C" 
			},
			{
				"x": 1.6351280728,
				"y": 2.4428071001,
				"z": 0.7357415247,
				"element": "C" 
			},
			{
				"x": 2.5652577697,
				"y": 2.586249621,
				"z": 1.8023280842,
				"element": "C" 
			},
			{
				"x": 2.8362917577,
				"y": 1.5095954903,
				"z": 2.6343261344,
				"element": "C" 
			},
			{
				"x": 2.2091458012,
				"y": 0.2800095751,
				"z": 2.4433027309,
				"element": "C" 
			},
			{
				"x": 1.2869024208,
				"y": 0.0818925871,
				"z": 1.4119047395,
				"element": "C" 
			},
			{
				"x": 0.6233037174,
				"y": -1.2163264591,
				"z": 1.2086702447,
				"element": "C" 
			},
			{
				"x": 0.8846766162,
				"y": -2.3107369871,
				"z": 2.0378228039,
				"element": "C" 
			},
			{
				"x": 0.2555792935,
				"y": -3.5388936993,
				"z": 1.8440453815,
				"element": "C" 
			},
			{
				"x": -0.6575203328,
				"y": -3.7189291223,
				"z": 0.8151108428,
				"element": "C" 
			},
			{
				"x": -1.2952009579,
				"y": -5.0485285803,
				"z": 0.6582316026,
				"element": "C" 
			},
			{
				"x": -1.0286810794,
				"y": -5.9808716968,
				"z": 1.4177786371,
				"element": "O" 
			},
			{
				"x": -2.2647690986,
				"y": -5.2001987311,
				"z": -0.4524120842,
				"element": "C" 
			},
			{
				"x": -2.8828242523,
				"y": -6.4477639356,
				"z": -0.6232478498,
				"element": "C" 
			},
			{
				"x": -3.7988255326,
				"y": -6.649194819,
				"z": -1.6453361111,
				"element": "C" 
			},
			{
				"x": -4.1020641935,
				"y": -5.5892712907,
				"z": -2.5094752698,
				"element": "C" 
			},
			{
				"x": -3.4950930357,
				"y": -4.3497840273,
				"z": -2.3483991751,
				"element": "C" 
			},
			{
				"x": -2.5613578014,
				"y": -4.1206058929,
				"z": -1.3176394842,
				"element": "C" 
			},
			{
				"x": -1.9034798256,
				"y": -2.8159863943,
				"z": -1.124795702,
				"element": "C" 
			},
			{
				"x": -0.9626938605,
				"y": -2.6400353663,
				"z": -0.0601920907,
				"element": "C" 
			},
			{
				"x": -0.3147128798,
				"y": -1.3743727754,
				"z": 0.1390870759,
				"element": "C" 
			},
			{
				"x": -0.6101220771,
				"y": -0.2789836827,
				"z": -0.7320049022,
				"element": "C" 
			},
			{
				"x": -1.5312588133,
				"y": -0.4906969902,
				"z": -1.7562352365,
				"element": "C" 
			},
			{
				"x": -2.1590923753,
				"y": -1.7232582955,
				"z": -1.9464264703,
				"element": "C" 
			},
			{
				"x": 0.0509292493,
				"y": 1.0145582945,
				"z": -0.5294067105,
				"element": "C" 
			},
			{
				"x": -0.200240927,
				"y": 2.1140373442,
				"z": -1.3481892724,
				"element": "C" 
			},
			{
				"x": 0.4305569751,
				"y": 3.34425103,
				"z": -1.1526831654,
				"element": "C" 
			},
			{
				"x": 0.988762588,
				"y": 1.1760033465,
				"z": 0.5384787099,
				"element": "C" 
			},
			{
				"x": 4.2931621392,
				"y": 6.2803670578,
				"z": 2.1868731965,
				"element": "H" 
			},
			{
				"x": 3.8377237539,
				"y": 8.2586851639,
				"z": 0.7108759412,
				"element": "H" 
			},
			{
				"x": 2.2092297591,
				"y": 8.0178297753,
				"z": -1.1610230986,
				"element": "H" 
			},
			{
				"x": 1.0741311699,
				"y": 5.89795215,
				"z": -1.5570079965,
				"element": "H" 
			},
			{
				"x": 3.5510472469,
				"y": 1.6546480661,
				"z": 3.4375870868,
				"element": "H" 
			},
			{
				"x": 2.4565233712,
				"y": -0.5274135296,
				"z": 3.1210307091,
				"element": "H" 
			},
			{
				"x": 1.5889147711,
				"y": -2.2238904029,
				"z": 2.8557153074,
				"element": "H" 
			},
			{
				"x": 0.4643853189,
				"y": -4.3833094766,
				"z": 2.4925056138,
				"element": "H" 
			},
			{
				"x": -2.6165746736,
				"y": -7.2384535862,
				"z": 0.0701735414,
				"element": "H" 
			},
			{
				"x": -4.2756139528,
				"y": -7.6160059752,
				"z": -1.7750358558,
				"element": "H" 
			},
			{
				"x": -4.8174038701,
				"y": -5.7317550055,
				"z": -3.3145244743,
				"element": "H" 
			},
			{
				"x": -3.7565827155,
				"y": -3.5552067007,
				"z": -3.0377634264,
				"element": "H" 
			},
			{
				"x": -1.7844293767,
				"y": 0.3112863063,
				"z": -2.4391049986,
				"element": "H" 
			},
			{
				"x": -2.8633642772,
				"y": -1.8073116945,
				"z": -2.7658211571,
				"element": "H" 
			},
			{
				"x": -0.9031724438,
				"y": 2.0361615707,
				"z": -2.1688034827,
				"element": "H" 
			},
			{
				"x": 0.1811513985,
				"y": 4.1505085777,
				"z": -1.8325481524,
				"element": "H" 
			}
		],
		 "valence_orbital": [ 
			{
				"type": "occ",
				"energy": -0.24842,
				"method": "rhf"
			},
			{
				"type": "occ",
				"energy": -0.24837,
				"method": "rhf"
			},
			{
				"type": "occ",
				"energy": -0.24637,
				"method": "rhf"
			},
			{
				"type": "occ",
				"energy": -0.24335,
				"method": "rhf"
			},
			{
				"type": "occ",
				"energy": -0.19837,
				"method": "rhf"
			},
			{
				"type": "unocc",
				"energy": -0.11669,
				"method": "rhf"
			},
			{
				"type": "unocc",
				"energy": -0.068,
				"method": "rhf"
			},
			{
				"type": "unocc",
				"energy": -0.05312,
				"method": "rhf"
			},
			{
				"type": "unocc",
				"energy": -0.03663,
				"method": "rhf"
			},
			{
				"type": "unocc",
				"energy": -0.03049,
				"method": "rhf"
			}
		],
		"cosmo_sigma_profile": { 
			"-0.025": 0.0,
			"-0.024": 0.0,
			"-0.023": 0.0,
			"-0.022": 0.0,
			"-0.021": 0.0,
			"-0.02": 0.0,
			"-0.019": 0.0,
			"-0.018": 0.0,
			"-0.017": 0.0,
			"-0.016": 0.0,
			"-0.015": 0.0,
			"-0.014": 0.0,
			"-0.013": 0.0,
			"-0.012": 0.0,
			"-0.011": 0.0391058886188,
			"-0.01": 1.93501949245,
			"-0.009": 6.30170189863,
			"-0.008": 8.00512365887,
			"-0.007": 12.2096441273,
			"-0.006": 24.0012678668,
			"-0.005": 25.5045972103,
			"-0.004": 23.8789204743,
			"-0.003": 18.547239566,
			"-0.002": 25.2902755805,
			"-0.001": 28.9796678301,
			"0.0": 37.268844939,
			"0.001": 70.6866108532,
			"0.002": 60.4013817067,
			"0.003": 34.6076924562,
			"0.004": 19.934421617,
			"0.005": 3.22629172195,
			"0.006": 4.91917278068,
			"0.007": 3.39216155651,
			"0.008": 1.94538394622,
			"0.009": 3.50490901349,
			"0.01": 3.25836785966,
			"0.011": 4.7149338688,
			"0.012": 7.44021561356,
			"0.013": 4.76541754815,
			"0.014": 0.0,
			"0.015": 0.0,
			"0.016": 0.0,
			"0.017": 0.0,
			"0.018": 0.0,
			"0.019": 0.0,
			"0.02": 0.0,
			"0.021": 0.0,
			"0.022": 0.0,
			"0.023": 0.0,
			"0.024": 0.0,
			"0.025": 0.0
		}
	}
}
