{
	 "smiles": "OC(C1=CC(=CC(=C1)C(F)(F)F)C(F)(F)F)C1=CC(=CC(=C1)C(F)(F)F)C(F)(F)F", 
	 "Tm": 421.15, 
	 "num_atms": 38, 
	 "gaussian": { 
		 "optdone": 1, 
		 "sigma_profile": "yes", 
		 "theory": "DFT", 
		 "functional": "B3LYP", 
		 "basiset": "6-31G**", 
		 "properties": { 
			 "R2extent": 15329.6951, 
			 "electric_dipole_moment_norm": 3.33285689312, 
			 "electric_quadrupole_moment_norm": 11.6188467065, 
			 "total_energy": -1925.96137774, 
			 "HOMO_LUMO_gap": 0.21706, 
			 "cosmo_polarized_energy": -11.68, 
			 "cosmo_cavitation_energy": 49.93, 
			 "cosmo_dispersion_energy": -31.23, 
			 "cosmo_repulsion_energy": 2.17, 
			 "cosmo_total_nonelectrostatic_energy": 20.86, 
			 "SMD_solvation_energy": 12.92 
		},
		"coords": [
			{
				"x": -1.1478272588,
				"y": -1.9108748755,
				"z": -0.2190549376,
				"element": "O" 
			},
			{
				"x": 0.0925953925,
				"y": -1.2305235578,
				"z": -0.3418143349,
				"element": "C" 
			},
			{
				"x": 0.2016526159,
				"y": -0.512855618,
				"z": -1.6843743584,
				"element": "C" 
			},
			{
				"x": -0.8678459583,
				"y": 0.2647380722,
				"z": -2.1468559312,
				"element": "C" 
			},
			{
				"x": -0.7821896574,
				"y": 0.9154454759,
				"z": -3.3753847183,
				"element": "C" 
			},
			{
				"x": 0.3690496998,
				"y": 0.8028629473,
				"z": -4.1606591879,
				"element": "C" 
			},
			{
				"x": 1.4302958889,
				"y": 0.0264102493,
				"z": -3.7041711102,
				"element": "C" 
			},
			{
				"x": 1.3458888907,
				"y": -0.633252469,
				"z": -2.4729837197,
				"element": "C" 
			},
			{
				"x": 2.6966294148,
				"y": -0.0853565111,
				"z": -4.5144374184,
				"element": "C" 
			},
			{
				"x": 2.4915413954,
				"y": 0.2083514762,
				"z": -5.8142808193,
				"element": "F" 
			},
			{
				"x": 3.2135976558,
				"y": -1.332712041,
				"z": -4.4506725123,
				"element": "F" 
			},
			{
				"x": 3.6480512395,
				"y": 0.7577520965,
				"z": -4.0566351295,
				"element": "F" 
			},
			{
				"x": -1.9188638011,
				"y": 1.7895059291,
				"z": -3.8437483245,
				"element": "C" 
			},
			{
				"x": -2.0039547259,
				"y": 1.8144332661,
				"z": -5.1909725145,
				"element": "F" 
			},
			{
				"x": -3.1061772055,
				"y": 1.3625092895,
				"z": -3.3646889265,
				"element": "F" 
			},
			{
				"x": -1.7584727179,
				"y": 3.0659224319,
				"z": -3.4320556265,
				"element": "F" 
			},
			{
				"x": 0.2096201397,
				"y": -0.2659988354,
				"z": 0.8352359199,
				"element": "C" 
			},
			{
				"x": -0.8194633876,
				"y": -0.1439814992,
				"z": 1.7691777928,
				"element": "C" 
			},
			{
				"x": -0.6869131299,
				"y": 0.7362451021,
				"z": 2.8480583202,
				"element": "C" 
			},
			{
				"x": 0.467201215,
				"y": 1.4979567261,
				"z": 3.0083360889,
				"element": "C" 
			},
			{
				"x": 1.4972103329,
				"y": 1.3723840791,
				"z": 2.0733756888,
				"element": "C" 
			},
			{
				"x": 1.3708823967,
				"y": 0.4983123899,
				"z": 0.9955563699,
				"element": "C" 
			},
			{
				"x": 2.7270217669,
				"y": 2.23412257,
				"z": 2.1997952536,
				"element": "C" 
			},
			{
				"x": 2.561234687,
				"y": 3.4252113228,
				"z": 1.5825746748,
				"element": "F" 
			},
			{
				"x": 3.8085450985,
				"y": 1.6468938189,
				"z": 1.642247941,
				"element": "F" 
			},
			{
				"x": 3.0222372608,
				"y": 2.4955207099,
				"z": 3.4908254305,
				"element": "F" 
			},
			{
				"x": -1.7889670683,
				"y": 0.8066895849,
				"z": 3.8740849163,
				"element": "C" 
			},
			{
				"x": -1.7391359754,
				"y": 1.9498258357,
				"z": 4.5900401379,
				"element": "F" 
			},
			{
				"x": -3.0082520293,
				"y": 0.7365814206,
				"z": 3.2975286873,
				"element": "F" 
			},
			{
				"x": -1.7100636572,
				"y": -0.2183302341,
				"z": 4.752383156,
				"element": "F" 
			},
			{
				"x": -1.2362817727,
				"y": -2.5121820285,
				"z": -0.9695835079,
				"element": "H" 
			},
			{
				"x": 0.929607074,
				"y": -1.9441711652,
				"z": -0.2716495302,
				"element": "H" 
			},
			{
				"x": -1.7705810857,
				"y": 0.3418648463,
				"z": -1.5507202405,
				"element": "H" 
			},
			{
				"x": 0.4265096963,
				"y": 1.2972129345,
				"z": -5.1227802495,
				"element": "H" 
			},
			{
				"x": 2.1724836691,
				"y": -1.2561662801,
				"z": -2.1434842237,
				"element": "H" 
			},
			{
				"x": -1.7188059667,
				"y": -0.7353256616,
				"z": 1.6530536326,
				"element": "H" 
			},
			{
				"x": 0.5663947458,
				"y": 2.1761478382,
				"z": 3.8470619236,
				"element": "H" 
			},
			{
				"x": 2.1840451218,
				"y": 0.4164303633,
				"z": 0.2814713875,
				"element": "H" 
			}
		],
		 "valence_orbital": [ 
			{
				"type": "occ",
				"energy": -0.32169,
				"method": "rhf"
			},
			{
				"type": "occ",
				"energy": -0.297,
				"method": "rhf"
			},
			{
				"type": "occ",
				"energy": -0.2886,
				"method": "rhf"
			},
			{
				"type": "occ",
				"energy": -0.28732,
				"method": "rhf"
			},
			{
				"type": "occ",
				"energy": -0.27782,
				"method": "rhf"
			},
			{
				"type": "unocc",
				"energy": -0.06076,
				"method": "rhf"
			},
			{
				"type": "unocc",
				"energy": -0.05553,
				"method": "rhf"
			},
			{
				"type": "unocc",
				"energy": -0.04957,
				"method": "rhf"
			},
			{
				"type": "unocc",
				"energy": -0.03674,
				"method": "rhf"
			},
			{
				"type": "unocc",
				"energy": 0.05424,
				"method": "rhf"
			}
		],
		"cosmo_sigma_profile": { 
			"-0.025": 0.0,
			"-0.024": 0.0,
			"-0.023": 0.0,
			"-0.022": 0.0,
			"-0.021": 0.0,
			"-0.02": 0.0,
			"-0.019": 0.0,
			"-0.018": 0.0,
			"-0.017": 0.368036511138,
			"-0.016": 1.22369451533,
			"-0.015": 0.798334823275,
			"-0.014": 1.10547467349,
			"-0.013": 0.829434235898,
			"-0.012": 1.20545612763,
			"-0.011": 0.78947885927,
			"-0.01": 0.77946105714,
			"-0.009": 3.28109708874,
			"-0.008": 5.63472168235,
			"-0.007": 8.99774197325,
			"-0.006": 11.0205393604,
			"-0.005": 12.8527326954,
			"-0.004": 13.2338136092,
			"-0.003": 16.4886059292,
			"-0.002": 21.6036423107,
			"-0.001": 28.3533242495,
			"0.0": 45.4707181464,
			"0.001": 49.4522914827,
			"0.002": 85.9878052211,
			"0.003": 81.9903663802,
			"0.004": 1.97365248036,
			"0.005": 1.70418617218,
			"0.006": 1.39392782383,
			"0.007": 0.917385823644,
			"0.008": 1.40938926437,
			"0.009": 1.27186881066,
			"0.01": 0.758808932058,
			"0.011": 0.277153071637,
			"0.012": 0.0,
			"0.013": 0.0,
			"0.014": 0.0,
			"0.015": 0.0,
			"0.016": 0.0,
			"0.017": 0.0,
			"0.018": 0.0,
			"0.019": 0.0,
			"0.02": 0.0,
			"0.021": 0.0,
			"0.022": 0.0,
			"0.023": 0.0,
			"0.024": 0.0,
			"0.025": 0.0
		}
	}
}
