{
	 "smiles": "CC=CC(C)(C)C", 
	 "Tm": 158.15, 
	 "num_atms": 21, 
	 "gaussian": { 
		 "optdone": 1, 
		 "sigma_profile": "yes", 
		 "theory": "DFT", 
		 "functional": "B3LYP", 
		 "basiset": "6-31G**", 
		 "properties": { 
			 "R2extent": 1143.9696, 
			 "electric_dipole_moment_norm": 0.0568316813054, 
			 "electric_quadrupole_moment_norm": 1.50520702563, 
			 "total_energy": -275.181898557, 
			 "HOMO_LUMO_gap": 0.26955, 
			 "cosmo_polarized_energy": -1.46, 
			 "cosmo_cavitation_energy": 22.49, 
			 "cosmo_dispersion_energy": -15.94, 
			 "cosmo_repulsion_energy": 1.36, 
			 "cosmo_total_nonelectrostatic_energy": 7.91, 
			 "SMD_solvation_energy": 4.4 
		},
		"coords": [
			{
				"x": -2.7588661612,
				"y": -1.6671444217,
				"z": 0.8096034188,
				"element": "C" 
			},
			{
				"x": -1.2820064329,
				"y": -1.4131813048,
				"z": 0.6909500611,
				"element": "C" 
			},
			{
				"x": -0.7086425033,
				"y": -0.7088355467,
				"z": -0.2881812648,
				"element": "C" 
			},
			{
				"x": 0.766372424,
				"y": -0.404755703,
				"z": -0.4842260957,
				"element": "C" 
			},
			{
				"x": 1.2013233527,
				"y": -0.9696928099,
				"z": -1.8567531229,
				"element": "C" 
			},
			{
				"x": 0.9491914433,
				"y": 1.131019835,
				"z": -0.4942287564,
				"element": "C" 
			},
			{
				"x": 1.6483796439,
				"y": -1.0139826918,
				"z": 0.6180606079,
				"element": "C" 
			},
			{
				"x": -3.3148712288,
				"y": -1.2018422249,
				"z": -0.0102844897,
				"element": "H" 
			},
			{
				"x": -3.1565797611,
				"y": -1.2741893503,
				"z": 1.7543048837,
				"element": "H" 
			},
			{
				"x": -2.9806924921,
				"y": -2.742215542,
				"z": 0.8019061788,
				"element": "H" 
			},
			{
				"x": -0.6635756974,
				"y": -1.8481010973,
				"z": 1.475104976,
				"element": "H" 
			},
			{
				"x": -1.3562034644,
				"y": -0.285176773,
				"z": -1.0604440088,
				"element": "H" 
			},
			{
				"x": 1.0977051672,
				"y": -2.0593961444,
				"z": -1.8832647314,
				"element": "H" 
			},
			{
				"x": 2.2481900927,
				"y": -0.7206374534,
				"z": -2.066027038,
				"element": "H" 
			},
			{
				"x": 0.5907961725,
				"y": -0.5553500581,
				"z": -2.6669604643,
				"element": "H" 
			},
			{
				"x": 0.6618144948,
				"y": 1.5666970991,
				"z": 0.4683151134,
				"element": "H" 
			},
			{
				"x": 0.3327552503,
				"y": 1.5979857273,
				"z": -1.2706354143,
				"element": "H" 
			},
			{
				"x": 1.9940923656,
				"y": 1.397310133,
				"z": -0.691751176,
				"element": "H" 
			},
			{
				"x": 1.3806129466,
				"y": -0.6253066632,
				"z": 1.6062476539,
				"element": "H" 
			},
			{
				"x": 2.7013584096,
				"y": -0.7715226514,
				"z": 0.4387096452,
				"element": "H" 
			},
			{
				"x": 1.5578459781,
				"y": -2.1049823584,
				"z": 0.6464540233,
				"element": "H" 
			}
		],
		 "valence_orbital": [ 
			{
				"type": "occ",
				"energy": -0.35026,
				"method": "rhf"
			},
			{
				"type": "occ",
				"energy": -0.32669,
				"method": "rhf"
			},
			{
				"type": "occ",
				"energy": -0.31787,
				"method": "rhf"
			},
			{
				"type": "occ",
				"energy": -0.31257,
				"method": "rhf"
			},
			{
				"type": "occ",
				"energy": -0.23548,
				"method": "rhf"
			},
			{
				"type": "unocc",
				"energy": 0.03407,
				"method": "rhf"
			},
			{
				"type": "unocc",
				"energy": 0.08934,
				"method": "rhf"
			},
			{
				"type": "unocc",
				"energy": 0.12192,
				"method": "rhf"
			},
			{
				"type": "unocc",
				"energy": 0.12285,
				"method": "rhf"
			},
			{
				"type": "unocc",
				"energy": 0.13951,
				"method": "rhf"
			}
		],
		"cosmo_sigma_profile": { 
			"-0.025": 0.0,
			"-0.024": 0.0,
			"-0.023": 0.0,
			"-0.022": 0.0,
			"-0.021": 0.0,
			"-0.02": 0.0,
			"-0.019": 0.0,
			"-0.018": 0.0,
			"-0.017": 0.0,
			"-0.016": 0.0,
			"-0.015": 0.0,
			"-0.014": 0.0,
			"-0.013": 0.0,
			"-0.012": 0.0,
			"-0.011": 0.0,
			"-0.01": 0.0,
			"-0.009": 0.0,
			"-0.008": 0.0,
			"-0.007": 0.0,
			"-0.006": 0.0,
			"-0.005": 0.0,
			"-0.004": 1.3094596991,
			"-0.003": 15.0979575492,
			"-0.002": 33.0307464319,
			"-0.001": 29.3378956036,
			"0.0": 28.0070090331,
			"0.001": 30.2879693416,
			"0.002": 19.7532596632,
			"0.003": 4.76750677709,
			"0.004": 4.23439008514,
			"0.005": 2.74437961274,
			"0.006": 2.59963245379,
			"0.007": 2.03842014851,
			"0.008": 0.232141411072,
			"0.009": 0.0,
			"0.01": 0.0,
			"0.011": 0.0,
			"0.012": 0.0,
			"0.013": 0.0,
			"0.014": 0.0,
			"0.015": 0.0,
			"0.016": 0.0,
			"0.017": 0.0,
			"0.018": 0.0,
			"0.019": 0.0,
			"0.02": 0.0,
			"0.021": 0.0,
			"0.022": 0.0,
			"0.023": 0.0,
			"0.024": 0.0,
			"0.025": 0.0
		}
	}
}
