{
	 "smiles": "CC1(C)C2CCC1(C)C(=O)C2COC(=O)C1=CC=CC=C1", 
	 "Tm": 369.15, 
	 "num_atms": 43, 
	 "gaussian": { 
		 "optdone": 1, 
		 "sigma_profile": "yes", 
		 "theory": "DFT", 
		 "functional": "B3LYP", 
		 "basiset": "6-31G**", 
		 "properties": { 
			 "R2extent": 8114.1385, 
			 "electric_dipole_moment_norm": 2.56109026198, 
			 "electric_quadrupole_moment_norm": 17.1549279558, 
			 "total_energy": -924.866397501, 
			 "HOMO_LUMO_gap": 0.18752, 
			 "cosmo_polarized_energy": -10.78, 
			 "cosmo_cavitation_energy": 42.63, 
			 "cosmo_dispersion_energy": -29.55, 
			 "cosmo_repulsion_energy": 2.22, 
			 "cosmo_total_nonelectrostatic_energy": 15.3, 
			 "SMD_solvation_energy": 8.15 
		},
		"coords": [
			{
				"x": 3.2428756161,
				"y": -1.5031112442,
				"z": -1.273654758,
				"element": "C" 
			},
			{
				"x": 2.7144038728,
				"y": -0.6268550922,
				"z": -0.1250539811,
				"element": "C" 
			},
			{
				"x": 2.5838299508,
				"y": -1.5348015025,
				"z": 1.1141425091,
				"element": "C" 
			},
			{
				"x": 1.4161959334,
				"y": 0.1729809651,
				"z": -0.4983921181,
				"element": "C" 
			},
			{
				"x": 1.9131337117,
				"y": 1.0844505798,
				"z": -1.6466902977,
				"element": "C" 
			},
			{
				"x": 3.344034415,
				"y": 1.486043329,
				"z": -1.1702580701,
				"element": "C" 
			},
			{
				"x": 3.5618688242,
				"y": 0.669959904,
				"z": 0.1483323936,
				"element": "C" 
			},
			{
				"x": 5.0067262663,
				"y": 0.5397677721,
				"z": 0.5978421511,
				"element": "C" 
			},
			{
				"x": 2.6525727062,
				"y": 1.3512004747,
				"z": 1.1777063707,
				"element": "C" 
			},
			{
				"x": 2.9900221235,
				"y": 1.9502028154,
				"z": 2.1770220342,
				"element": "O" 
			},
			{
				"x": 1.1960243496,
				"y": 1.1163618791,
				"z": 0.714802381,
				"element": "C" 
			},
			{
				"x": 0.2689539079,
				"y": 0.6843459123,
				"z": 1.8522444558,
				"element": "C" 
			},
			{
				"x": -1.1136623657,
				"y": 0.9469074032,
				"z": 1.5158629836,
				"element": "O" 
			},
			{
				"x": -1.8460493362,
				"y": -0.0879586954,
				"z": 1.0425462409,
				"element": "C" 
			},
			{
				"x": -1.3992292933,
				"y": -1.2062914467,
				"z": 0.8598491761,
				"element": "O" 
			},
			{
				"x": -3.2604499681,
				"y": 0.2984336043,
				"z": 0.7735242763,
				"element": "C" 
			},
			{
				"x": -3.7413399575,
				"y": 1.5953616338,
				"z": 1.0033469589,
				"element": "C" 
			},
			{
				"x": -5.0748381677,
				"y": 1.8989828316,
				"z": 0.7339135689,
				"element": "C" 
			},
			{
				"x": -5.9317441503,
				"y": 0.9140186318,
				"z": 0.2363248275,
				"element": "C" 
			},
			{
				"x": -5.4546649909,
				"y": -0.3794890862,
				"z": 0.0069051332,
				"element": "C" 
			},
			{
				"x": -4.1231481793,
				"y": -0.6872913501,
				"z": 0.2741916336,
				"element": "C" 
			},
			{
				"x": 4.190685846,
				"y": -1.9737769138,
				"z": -0.9915782188,
				"element": "H" 
			},
			{
				"x": 2.5300574137,
				"y": -2.3083698846,
				"z": -1.4855543256,
				"element": "H" 
			},
			{
				"x": 3.4112515882,
				"y": -0.9597243334,
				"z": -2.2051194042,
				"element": "H" 
			},
			{
				"x": 2.4240953339,
				"y": -0.9858881616,
				"z": 2.0460580512,
				"element": "H" 
			},
			{
				"x": 3.4990025951,
				"y": -2.1200942972,
				"z": 1.252140216,
				"element": "H" 
			},
			{
				"x": 1.754019847,
				"y": -2.2385737013,
				"z": 0.9923044237,
				"element": "H" 
			},
			{
				"x": 0.5505713647,
				"y": -0.4457051674,
				"z": -0.7431398431,
				"element": "H" 
			},
			{
				"x": 1.2596946964,
				"y": 1.9508884573,
				"z": -1.7868220926,
				"element": "H" 
			},
			{
				"x": 1.9419033059,
				"y": 0.5535012852,
				"z": -2.6015344584,
				"element": "H" 
			},
			{
				"x": 3.4496963591,
				"y": 2.562132936,
				"z": -0.998120259,
				"element": "H" 
			},
			{
				"x": 4.1112519123,
				"y": 1.2091760462,
				"z": -1.8998474025,
				"element": "H" 
			},
			{
				"x": 5.622673887,
				"y": 0.0746417546,
				"z": -0.1786310393,
				"element": "H" 
			},
			{
				"x": 5.0889325014,
				"y": -0.0606356476,
				"z": 1.5089386761,
				"element": "H" 
			},
			{
				"x": 5.4271918626,
				"y": 1.5246661596,
				"z": 0.8234785909,
				"element": "H" 
			},
			{
				"x": 0.8104577049,
				"y": 2.0892289339,
				"z": 0.3804516187,
				"element": "H" 
			},
			{
				"x": 0.3688565079,
				"y": -0.3700424909,
				"z": 2.1035337398,
				"element": "H" 
			},
			{
				"x": 0.4741088326,
				"y": 1.3013993815,
				"z": 2.7301523316,
				"element": "H" 
			},
			{
				"x": -3.0699686051,
				"y": 2.3529430243,
				"z": 1.3905147742,
				"element": "H" 
			},
			{
				"x": -5.4464936639,
				"y": 2.9036558726,
				"z": 0.9126844329,
				"element": "H" 
			},
			{
				"x": -6.9705642621,
				"y": 1.1541535221,
				"z": 0.027931923,
				"element": "H" 
			},
			{
				"x": -6.1209023747,
				"y": -1.1452149424,
				"z": -0.3793351289,
				"element": "H" 
			},
			{
				"x": -3.7290379216,
				"y": -1.6836811523,
				"z": 0.1054855251,
				"element": "H" 
			}
		],
		 "valence_orbital": [ 
			{
				"type": "occ",
				"energy": -0.29392,
				"method": "rhf"
			},
			{
				"type": "occ",
				"energy": -0.27568,
				"method": "rhf"
			},
			{
				"type": "occ",
				"energy": -0.2611,
				"method": "rhf"
			},
			{
				"type": "occ",
				"energy": -0.25957,
				"method": "rhf"
			},
			{
				"type": "occ",
				"energy": -0.23488,
				"method": "rhf"
			},
			{
				"type": "unocc",
				"energy": -0.04736,
				"method": "rhf"
			},
			{
				"type": "unocc",
				"energy": -0.0153,
				"method": "rhf"
			},
			{
				"type": "unocc",
				"energy": -0.00893,
				"method": "rhf"
			},
			{
				"type": "unocc",
				"energy": 0.05634,
				"method": "rhf"
			},
			{
				"type": "unocc",
				"energy": 0.07268,
				"method": "rhf"
			}
		],
		"cosmo_sigma_profile": { 
			"-0.025": 0.0,
			"-0.024": 0.0,
			"-0.023": 0.0,
			"-0.022": 0.0,
			"-0.021": 0.0,
			"-0.02": 0.0,
			"-0.019": 0.0,
			"-0.018": 0.0,
			"-0.017": 0.0,
			"-0.016": 0.0,
			"-0.015": 0.0,
			"-0.014": 0.0,
			"-0.013": 0.0,
			"-0.012": 0.0,
			"-0.011": 0.0,
			"-0.01": 0.0,
			"-0.009": 0.0,
			"-0.008": 0.0,
			"-0.007": 1.34294959851,
			"-0.006": 10.7442026813,
			"-0.005": 16.8992469941,
			"-0.004": 25.590240946,
			"-0.003": 36.3960645326,
			"-0.002": 45.5372373086,
			"-0.001": 38.3947281613,
			"0.0": 36.4515359248,
			"0.001": 34.4407370651,
			"0.002": 18.858094625,
			"0.003": 16.5435709982,
			"0.004": 17.3747161949,
			"0.005": 6.79234493815,
			"0.006": 2.59180314147,
			"0.007": 3.18897942684,
			"0.008": 3.93633187144,
			"0.009": 2.81957308571,
			"0.01": 3.78752516587,
			"0.011": 5.91138679908,
			"0.012": 5.91000461071,
			"0.013": 0.687895527188,
			"0.014": 0.0,
			"0.015": 0.0,
			"0.016": 0.0,
			"0.017": 0.0,
			"0.018": 0.0,
			"0.019": 0.0,
			"0.02": 0.0,
			"0.021": 0.0,
			"0.022": 0.0,
			"0.023": 0.0,
			"0.024": 0.0,
			"0.025": 0.0
		}
	}
}
