{
	 "smiles": "COC1=C(F)C=C(Br)C=C1", 
	 "Tm": 289.15, 
	 "num_atms": 16, 
	 "gaussian": { 
		 "optdone": 1, 
		 "sigma_profile": "yes", 
		 "theory": "DFT", 
		 "functional": "B3LYP", 
		 "basiset": "6-31G**", 
		 "properties": { 
			 "R2extent": 4348.2418, 
			 "electric_dipole_moment_norm": 1.9579058149, 
			 "electric_quadrupole_moment_norm": 3.89788348851, 
			 "total_energy": -3016.80153599, 
			 "HOMO_LUMO_gap": 0.20575, 
			 "cosmo_polarized_energy": -4.37, 
			 "cosmo_cavitation_energy": 22.78, 
			 "cosmo_dispersion_energy": -17.39, 
			 "cosmo_repulsion_energy": 1.39, 
			 "cosmo_total_nonelectrostatic_energy": 6.78, 
			 "SMD_solvation_energy": 4.03 
		},
		"coords": [
			{
				"x": -0.3734973532,
				"y": 2.3208463574,
				"z": -1.369132411,
				"element": "C" 
			},
			{
				"x": -1.1288340796,
				"y": 1.1080147668,
				"z": -1.3898007433,
				"element": "O" 
			},
			{
				"x": -0.5264872545,
				"y": -0.1055961911,
				"z": -1.2898109977,
				"element": "C" 
			},
			{
				"x": 0.8460654897,
				"y": -0.3679792946,
				"z": -1.1576484645,
				"element": "C" 
			},
			{
				"x": 1.7457616621,
				"y": 0.6462892265,
				"z": -1.116309579,
				"element": "F" 
			},
			{
				"x": 1.3431822118,
				"y": -1.66328752,
				"z": -1.0638667818,
				"element": "C" 
			},
			{
				"x": 0.4591543449,
				"y": -2.7360183049,
				"z": -1.1014044347,
				"element": "C" 
			},
			{
				"x": 1.1348052865,
				"y": -4.5173027064,
				"z": -0.9730276515,
				"element": "Br" 
			},
			{
				"x": -0.9121317975,
				"y": -2.5178769126,
				"z": -1.2316982512,
				"element": "C" 
			},
			{
				"x": -1.3868262779,
				"y": -1.2140803146,
				"z": -1.323868572,
				"element": "C" 
			},
			{
				"x": -1.1140394415,
				"y": 3.1163640433,
				"z": -1.4650499205,
				"element": "H" 
			},
			{
				"x": 0.173125014,
				"y": 2.4406530713,
				"z": -0.4294602301,
				"element": "H" 
			},
			{
				"x": 0.3303537971,
				"y": 2.3730395253,
				"z": -2.2046139974,
				"element": "H" 
			},
			{
				"x": 2.4124564954,
				"y": -1.8044357989,
				"z": -0.9633788158,
				"element": "H" 
			},
			{
				"x": -1.6005168469,
				"y": -3.3540959327,
				"z": -1.2608723341,
				"element": "H" 
			},
			{
				"x": -2.4487712503,
				"y": -1.0165340146,
				"z": -1.4258568154,
				"element": "H" 
			}
		],
		 "valence_orbital": [ 
			{
				"type": "occ",
				"energy": -0.33428,
				"method": "rhf"
			},
			{
				"type": "occ",
				"energy": -0.29078,
				"method": "rhf"
			},
			{
				"type": "occ",
				"energy": -0.28808,
				"method": "rhf"
			},
			{
				"type": "occ",
				"energy": -0.26138,
				"method": "rhf"
			},
			{
				"type": "occ",
				"energy": -0.22201,
				"method": "rhf"
			},
			{
				"type": "unocc",
				"energy": -0.01626,
				"method": "rhf"
			},
			{
				"type": "unocc",
				"energy": -0.00437,
				"method": "rhf"
			},
			{
				"type": "unocc",
				"energy": 0.00414,
				"method": "rhf"
			},
			{
				"type": "unocc",
				"energy": 0.08012,
				"method": "rhf"
			},
			{
				"type": "unocc",
				"energy": 0.11671,
				"method": "rhf"
			}
		],
		"cosmo_sigma_profile": { 
			"-0.025": 0.0,
			"-0.024": 0.0,
			"-0.023": 0.0,
			"-0.022": 0.0,
			"-0.021": 0.0,
			"-0.02": 0.0,
			"-0.019": 0.0,
			"-0.018": 0.0,
			"-0.017": 0.0,
			"-0.016": 0.0,
			"-0.015": 0.0,
			"-0.014": 0.0,
			"-0.013": 0.0,
			"-0.012": 0.0,
			"-0.011": 0.0,
			"-0.01": 0.0,
			"-0.009": 0.172667692346,
			"-0.008": 1.63735122521,
			"-0.007": 4.07622584864,
			"-0.006": 7.49467838123,
			"-0.005": 13.1446904186,
			"-0.004": 13.9342073361,
			"-0.003": 14.8802448929,
			"-0.002": 11.5649815118,
			"-0.001": 11.070401173,
			"0.0": 14.1347574633,
			"0.001": 17.7252243523,
			"0.002": 22.5895944877,
			"0.003": 20.4694910465,
			"0.004": 19.0466835095,
			"0.005": 7.91603983013,
			"0.006": 1.79188722712,
			"0.007": 0.91701158446,
			"0.008": 1.36377888273,
			"0.009": 1.60361049208,
			"0.01": 0.371137720373,
			"0.011": 0.0,
			"0.012": 0.0,
			"0.013": 0.0,
			"0.014": 0.0,
			"0.015": 0.0,
			"0.016": 0.0,
			"0.017": 0.0,
			"0.018": 0.0,
			"0.019": 0.0,
			"0.02": 0.0,
			"0.021": 0.0,
			"0.022": 0.0,
			"0.023": 0.0,
			"0.024": 0.0,
			"0.025": 0.0
		}
	}
}
