{
	 "smiles": "NC(=S)C(=CC1=CC=C(C=C1)[N+]([O-])=O)C#N", 
	 "Tm": 584.15, 
	 "num_atms": 23, 
	 "gaussian": { 
		 "optdone": 1, 
		 "sigma_profile": "yes", 
		 "theory": "DFT", 
		 "functional": "B3LYP", 
		 "basiset": "6-31G**", 
		 "properties": { 
			 "R2extent": 8252.1831, 
			 "electric_dipole_moment_norm": 3.03953963126, 
			 "electric_quadrupole_moment_norm": 7.79342366999, 
			 "total_energy": -1098.0481241, 
			 "HOMO_LUMO_gap": 0.10424, 
			 "cosmo_polarized_energy": -18.24, 
			 "cosmo_cavitation_energy": 31.64, 
			 "cosmo_dispersion_energy": -22.9, 
			 "cosmo_repulsion_energy": 1.72, 
			 "cosmo_total_nonelectrostatic_energy": 10.47, 
			 "SMD_solvation_energy": 7.85 
		},
		"coords": [
			{
				"x": 1.1088413498,
				"y": -4.5131600468,
				"z": 3.7976760222,
				"element": "N" 
			},
			{
				"x": 2.0819469469,
				"y": -3.8748104373,
				"z": 3.1220058434,
				"element": "C" 
			},
			{
				"x": 3.6919916892,
				"y": -4.2729561454,
				"z": 3.3099929597,
				"element": "S" 
			},
			{
				"x": 1.5967415398,
				"y": -2.7897957116,
				"z": 2.1988233971,
				"element": "C" 
			},
			{
				"x": 2.4770115198,
				"y": -2.0657848984,
				"z": 1.4567982732,
				"element": "C" 
			},
			{
				"x": 2.2857568062,
				"y": -0.9811687467,
				"z": 0.5034048832,
				"element": "C" 
			},
			{
				"x": 1.0398986367,
				"y": -0.4269798391,
				"z": 0.1333745022,
				"element": "C" 
			},
			{
				"x": 0.9720009234,
				"y": 0.6090230519,
				"z": -0.788888386,
				"element": "C" 
			},
			{
				"x": 2.1524566064,
				"y": 1.0979285956,
				"z": -1.3476787738,
				"element": "C" 
			},
			{
				"x": 3.4006083687,
				"y": 0.5801369439,
				"z": -1.0106565938,
				"element": "C" 
			},
			{
				"x": 3.4568993718,
				"y": -0.4556195849,
				"z": -0.0875974552,
				"element": "C" 
			},
			{
				"x": 2.0773061444,
				"y": 2.1977676045,
				"z": -2.3263968345,
				"element": "N" 
			},
			{
				"x": 0.9620380351,
				"y": 2.6343336244,
				"z": -2.6045867985,
				"element": "O" 
			},
			{
				"x": 3.1353168626,
				"y": 2.6071514671,
				"z": -2.8010959011,
				"element": "O" 
			},
			{
				"x": 0.1815794308,
				"y": -2.5833110458,
				"z": 2.1624290227,
				"element": "C" 
			},
			{
				"x": -0.9792547528,
				"y": -2.4812910578,
				"z": 2.192851391,
				"element": "N" 
			},
			{
				"x": 1.3730367627,
				"y": -5.2513156065,
				"z": 4.4328730581,
				"element": "H" 
			},
			{
				"x": 0.1299984473,
				"y": -4.2808827288,
				"z": 3.6924160098,
				"element": "H" 
			},
			{
				"x": 3.5117458148,
				"y": -2.3654164794,
				"z": 1.6177383694,
				"element": "H" 
			},
			{
				"x": 0.1194340607,
				"y": -0.8006050844,
				"z": 0.5622502085,
				"element": "H" 
			},
			{
				"x": 0.0248465829,
				"y": 1.0437614184,
				"z": -1.0823316285,
				"element": "H" 
			},
			{
				"x": 4.292203452,
				"y": 0.9892166327,
				"z": -1.4685461754,
				"element": "H" 
			},
			{
				"x": 4.4208954009,
				"y": -0.8723219257,
				"z": 0.1876446063,
				"element": "H" 
			}
		],
		 "valence_orbital": [ 
			{
				"type": "occ",
				"energy": -0.30405,
				"method": "rhf"
			},
			{
				"type": "occ",
				"energy": -0.297,
				"method": "rhf"
			},
			{
				"type": "occ",
				"energy": -0.28128,
				"method": "rhf"
			},
			{
				"type": "occ",
				"energy": -0.24581,
				"method": "rhf"
			},
			{
				"type": "occ",
				"energy": -0.23355,
				"method": "rhf"
			},
			{
				"type": "unocc",
				"energy": -0.12931,
				"method": "rhf"
			},
			{
				"type": "unocc",
				"energy": -0.0805,
				"method": "rhf"
			},
			{
				"type": "unocc",
				"energy": -0.04543,
				"method": "rhf"
			},
			{
				"type": "unocc",
				"energy": -0.03229,
				"method": "rhf"
			},
			{
				"type": "unocc",
				"energy": -0.00755,
				"method": "rhf"
			}
		],
		"cosmo_sigma_profile": { 
			"-0.025": 0.0,
			"-0.024": 0.0,
			"-0.023": 0.0,
			"-0.022": 0.0,
			"-0.021": 0.0,
			"-0.02": 0.0,
			"-0.019": 0.0,
			"-0.018": 0.0,
			"-0.017": 0.0,
			"-0.016": 0.513360750917,
			"-0.015": 1.95137094108,
			"-0.014": 1.99889944615,
			"-0.013": 2.59861345968,
			"-0.012": 1.35143587839,
			"-0.011": 2.00272191971,
			"-0.01": 3.09612203379,
			"-0.009": 4.00044472961,
			"-0.008": 8.17485984985,
			"-0.007": 10.0610417956,
			"-0.006": 8.85651976102,
			"-0.005": 12.0482214888,
			"-0.004": 16.3258170346,
			"-0.003": 17.7836939716,
			"-0.002": 20.7780977709,
			"-0.001": 21.8891709568,
			"0.0": 20.0774245481,
			"0.001": 10.6182850938,
			"0.002": 7.23112611154,
			"0.003": 6.74649168506,
			"0.004": 7.86312025967,
			"0.005": 8.65245864862,
			"0.006": 10.932749059,
			"0.007": 17.0318397233,
			"0.008": 15.897867132,
			"0.009": 11.1864970159,
			"0.01": 5.29729859916,
			"0.011": 3.13710039783,
			"0.012": 0.822071258633,
			"0.013": 0.0,
			"0.014": 0.0,
			"0.015": 0.0,
			"0.016": 0.0,
			"0.017": 0.0,
			"0.018": 0.0,
			"0.019": 0.0,
			"0.02": 0.0,
			"0.021": 0.0,
			"0.022": 0.0,
			"0.023": 0.0,
			"0.024": 0.0,
			"0.025": 0.0
		}
	}
}
