{
	 "smiles": "CCOC1=CC=C(NC(=O)CCl)C=C1", 
	 "Tm": 423.15, 
	 "num_atms": 26, 
	 "gaussian": { 
		 "optdone": 1, 
		 "sigma_profile": "yes", 
		 "theory": "DFT", 
		 "functional": "B3LYP", 
		 "basiset": "6-31G**", 
		 "properties": { 
			 "R2extent": 5600.4417, 
			 "electric_dipole_moment_norm": 6.97009406608, 
			 "electric_quadrupole_moment_norm": 20.5315347198, 
			 "total_energy": -1053.69248223, 
			 "HOMO_LUMO_gap": 0.21187, 
			 "cosmo_polarized_energy": -15.9, 
			 "cosmo_cavitation_energy": 32.14, 
			 "cosmo_dispersion_energy": -23.17, 
			 "cosmo_repulsion_energy": 1.89, 
			 "cosmo_total_nonelectrostatic_energy": 10.85, 
			 "SMD_solvation_energy": 6.39 
		},
		"coords": [
			{
				"x": -2.7796369166,
				"y": 3.9260312101,
				"z": -1.8493804879,
				"element": "C" 
			},
			{
				"x": -2.5876545116,
				"y": 2.8376527066,
				"z": -0.8083865519,
				"element": "C" 
			},
			{
				"x": -1.955358811,
				"y": 1.7303453946,
				"z": -1.4551524096,
				"element": "O" 
			},
			{
				"x": -1.6691256542,
				"y": 0.6181184993,
				"z": -0.7278889406,
				"element": "C" 
			},
			{
				"x": -1.048583177,
				"y": -0.4272272995,
				"z": -1.4324894202,
				"element": "C" 
			},
			{
				"x": -0.7096590135,
				"y": -1.6049940768,
				"z": -0.7811776237,
				"element": "C" 
			},
			{
				"x": -0.9851038161,
				"y": -1.7699585827,
				"z": 0.5852713074,
				"element": "C" 
			},
			{
				"x": -0.6518229866,
				"y": -2.9933152437,
				"z": 1.2496215745,
				"element": "N" 
			},
			{
				"x": 0.4716988073,
				"y": -3.2684532378,
				"z": 1.9976453666,
				"element": "C" 
			},
			{
				"x": 0.6556658486,
				"y": -4.3575264782,
				"z": 2.5063730005,
				"element": "O" 
			},
			{
				"x": 1.4438354357,
				"y": -2.0847574124,
				"z": 2.1196905986,
				"element": "C" 
			},
			{
				"x": 2.9256437351,
				"y": -2.5113875367,
				"z": 3.0275952269,
				"element": "Cl" 
			},
			{
				"x": -1.6121806571,
				"y": -0.7321993281,
				"z": 1.2781455543,
				"element": "C" 
			},
			{
				"x": -1.9504242914,
				"y": 0.4612678182,
				"z": 0.6362180479,
				"element": "C" 
			},
			{
				"x": -3.4076131577,
				"y": 3.5684354814,
				"z": -2.6699736453,
				"element": "H" 
			},
			{
				"x": -3.2626435952,
				"y": 4.7969604641,
				"z": -1.3961769998,
				"element": "H" 
			},
			{
				"x": -1.8167350411,
				"y": 4.2386973796,
				"z": -2.2624687436,
				"element": "H" 
			},
			{
				"x": -1.9587863463,
				"y": 3.1927984237,
				"z": 0.0199264922,
				"element": "H" 
			},
			{
				"x": -3.5525703886,
				"y": 2.5212289987,
				"z": -0.3882553117,
				"element": "H" 
			},
			{
				"x": -0.8418456478,
				"y": -0.287425192,
				"z": -2.48827191,
				"element": "H" 
			},
			{
				"x": -0.2276332113,
				"y": -2.4113086885,
				"z": -1.3261248943,
				"element": "H" 
			},
			{
				"x": -1.2708557311,
				"y": -3.7898191931,
				"z": 1.1551019774,
				"element": "H" 
			},
			{
				"x": 1.7432134877,
				"y": -1.7357319082,
				"z": 1.1296188368,
				"element": "H" 
			},
			{
				"x": 0.9641735954,
				"y": -1.2512652891,
				"z": 2.6359377629,
				"element": "H" 
			},
			{
				"x": -1.8436551821,
				"y": -0.8629422883,
				"z": 2.3312470694,
				"element": "H" 
			},
			{
				"x": -2.4337427735,
				"y": 1.2488753789,
				"z": 1.2011541233,
				"element": "H" 
			}
		],
		 "valence_orbital": [ 
			{
				"type": "occ",
				"energy": -0.29096,
				"method": "rhf"
			},
			{
				"type": "occ",
				"energy": -0.27086,
				"method": "rhf"
			},
			{
				"type": "occ",
				"energy": -0.26391,
				"method": "rhf"
			},
			{
				"type": "occ",
				"energy": -0.25908,
				"method": "rhf"
			},
			{
				"type": "occ",
				"energy": -0.23422,
				"method": "rhf"
			},
			{
				"type": "unocc",
				"energy": -0.02235,
				"method": "rhf"
			},
			{
				"type": "unocc",
				"energy": -0.01326,
				"method": "rhf"
			},
			{
				"type": "unocc",
				"energy": 0.02306,
				"method": "rhf"
			},
			{
				"type": "unocc",
				"energy": 0.03498,
				"method": "rhf"
			},
			{
				"type": "unocc",
				"energy": 0.07851,
				"method": "rhf"
			}
		],
		"cosmo_sigma_profile": { 
			"-0.025": 0.0,
			"-0.024": 0.0,
			"-0.023": 0.0,
			"-0.022": 0.0,
			"-0.021": 0.0,
			"-0.02": 0.0,
			"-0.019": 0.0,
			"-0.018": 0.0,
			"-0.017": 0.0,
			"-0.016": 0.0,
			"-0.015": 0.0307995090243,
			"-0.014": 0.837097727175,
			"-0.013": 1.37471150174,
			"-0.012": 0.513846911969,
			"-0.011": 1.19278063443,
			"-0.01": 0.847276459054,
			"-0.009": 0.935778107854,
			"-0.008": 4.3269420556,
			"-0.007": 7.81708823036,
			"-0.006": 14.5968870677,
			"-0.005": 18.8236580059,
			"-0.004": 23.8808122564,
			"-0.003": 21.9677493499,
			"-0.002": 18.8752853472,
			"-0.001": 17.2558724292,
			"0.0": 17.5592230961,
			"0.001": 14.1218403105,
			"0.002": 12.7978074317,
			"0.003": 15.2014442686,
			"0.004": 16.1278603527,
			"0.005": 9.87975082603,
			"0.006": 10.1419601245,
			"0.007": 3.97648976734,
			"0.008": 3.10196753295,
			"0.009": 3.38822652615,
			"0.01": 2.95767357811,
			"0.011": 2.12393041924,
			"0.012": 2.97135030746,
			"0.013": 6.03620650062,
			"0.014": 2.55149931001,
			"0.015": 0.483077998397,
			"0.016": 0.0,
			"0.017": 0.0,
			"0.018": 0.0,
			"0.019": 0.0,
			"0.02": 0.0,
			"0.021": 0.0,
			"0.022": 0.0,
			"0.023": 0.0,
			"0.024": 0.0,
			"0.025": 0.0
		}
	}
}
