{
	 "smiles": "CC1(C)NC(=O)N(CC(O)=O)C1=O", 
	 "Tm": 441.15, 
	 "num_atms": 23, 
	 "gaussian": { 
		 "optdone": 1, 
		 "sigma_profile": "yes", 
		 "theory": "DFT", 
		 "functional": "B3LYP", 
		 "basiset": "6-31G**", 
		 "properties": { 
			 "R2extent": 2627.5172, 
			 "electric_dipole_moment_norm": 1.26802517325, 
			 "electric_quadrupole_moment_norm": 20.0291319672, 
			 "total_energy": -683.234992754, 
			 "HOMO_LUMO_gap": 0.25444, 
			 "cosmo_polarized_energy": -18.79, 
			 "cosmo_cavitation_energy": 27.69, 
			 "cosmo_dispersion_energy": -19.0, 
			 "cosmo_repulsion_energy": 1.53, 
			 "cosmo_total_nonelectrostatic_energy": 10.22, 
			 "SMD_solvation_energy": 6.9 
		},
		"coords": [
			{
				"x": -0.5880812093,
				"y": -1.2360275031,
				"z": -2.312132982,
				"element": "C" 
			},
			{
				"x": -0.9296304278,
				"y": -0.4488182313,
				"z": -1.0342144035,
				"element": "C" 
			},
			{
				"x": -2.3138243121,
				"y": -0.8202761633,
				"z": -0.4870581174,
				"element": "C" 
			},
			{
				"x": -0.7743340095,
				"y": 0.9972033605,
				"z": -1.2214590441,
				"element": "N" 
			},
			{
				"x": 0.3273445688,
				"y": 1.5107107967,
				"z": -0.5900693107,
				"element": "C" 
			},
			{
				"x": 0.8008292446,
				"y": 2.6270741678,
				"z": -0.6600922747,
				"element": "O" 
			},
			{
				"x": 0.8256487933,
				"y": 0.4682016687,
				"z": 0.2287589777,
				"element": "N" 
			},
			{
				"x": 2.0683978681,
				"y": 0.5814689413,
				"z": 0.9427763675,
				"element": "C" 
			},
			{
				"x": 3.2472627814,
				"y": 0.1916362237,
				"z": 0.055959077,
				"element": "C" 
			},
			{
				"x": 4.4066822423,
				"y": 0.3055753791,
				"z": 0.7356915158,
				"element": "O" 
			},
			{
				"x": 3.170210563,
				"y": -0.1707733835,
				"z": -1.0939781932,
				"element": "O" 
			},
			{
				"x": 0.1621562711,
				"y": -0.7241644439,
				"z": 0.0178126695,
				"element": "C" 
			},
			{
				"x": 0.4039387788,
				"y": -1.7862012997,
				"z": 0.5549315984,
				"element": "O" 
			},
			{
				"x": -1.317893802,
				"y": -1.0176671174,
				"z": -3.0990960178,
				"element": "H" 
			},
			{
				"x": -0.6112758318,
				"y": -2.3087950576,
				"z": -2.1039205747,
				"element": "H" 
			},
			{
				"x": 0.4109528964,
				"y": -0.9737077896,
				"z": -2.6713388681,
				"element": "H" 
			},
			{
				"x": -3.0839935743,
				"y": -0.6511471034,
				"z": -1.2464908597,
				"element": "H" 
			},
			{
				"x": -2.3268867616,
				"y": -1.8762137444,
				"z": -0.2048956778,
				"element": "H" 
			},
			{
				"x": -2.5577514885,
				"y": -0.2186414849,
				"z": 0.3925692741,
				"element": "H" 
			},
			{
				"x": -1.1636129625,
				"y": 1.4981318033,
				"z": -2.0060659894,
				"element": "H" 
			},
			{
				"x": 2.1979003361,
				"y": 1.6146358264,
				"z": 1.2744219465,
				"element": "H" 
			},
			{
				"x": 2.0479401808,
				"y": -0.074227275,
				"z": 1.817229306,
				"element": "H" 
			},
			{
				"x": 5.1158198546,
				"y": 0.0465224296,
				"z": 0.1234615805,
				"element": "H" 
			}
		],
		 "valence_orbital": [ 
			{
				"type": "occ",
				"energy": -0.29499,
				"method": "rhf"
			},
			{
				"type": "occ",
				"energy": -0.29074,
				"method": "rhf"
			},
			{
				"type": "occ",
				"energy": -0.27782,
				"method": "rhf"
			},
			{
				"type": "occ",
				"energy": -0.26661,
				"method": "rhf"
			},
			{
				"type": "occ",
				"energy": -0.26241,
				"method": "rhf"
			},
			{
				"type": "unocc",
				"energy": -0.00797,
				"method": "rhf"
			},
			{
				"type": "unocc",
				"energy": 0.0008,
				"method": "rhf"
			},
			{
				"type": "unocc",
				"energy": 0.05014,
				"method": "rhf"
			},
			{
				"type": "unocc",
				"energy": 0.07252,
				"method": "rhf"
			},
			{
				"type": "unocc",
				"energy": 0.0748,
				"method": "rhf"
			}
		],
		"cosmo_sigma_profile": { 
			"-0.025": 0.0,
			"-0.024": 0.0,
			"-0.023": 0.0,
			"-0.022": 0.0,
			"-0.021": 0.0,
			"-0.02": 0.0,
			"-0.019": 0.402659837786,
			"-0.018": 1.36130096354,
			"-0.017": 0.498754736184,
			"-0.016": 0.933104541623,
			"-0.015": 2.15483244523,
			"-0.014": 1.85054441448,
			"-0.013": 2.01589124412,
			"-0.012": 1.40394901454,
			"-0.011": 2.06586388702,
			"-0.01": 1.69160799583,
			"-0.009": 2.76676320836,
			"-0.008": 4.92948753847,
			"-0.007": 5.51028694282,
			"-0.006": 7.49998034837,
			"-0.005": 12.9530179324,
			"-0.004": 15.2454265122,
			"-0.003": 18.0403486963,
			"-0.002": 17.0762633354,
			"-0.001": 19.8128523073,
			"0.0": 12.7007992168,
			"0.001": 8.78676230799,
			"0.002": 7.85756972919,
			"0.003": 7.54487947981,
			"0.004": 8.15559422055,
			"0.005": 6.95902582093,
			"0.006": 3.36118135899,
			"0.007": 5.83134881625,
			"0.008": 6.35658348136,
			"0.009": 4.9232075523,
			"0.01": 5.80054818342,
			"0.011": 8.23292711161,
			"0.012": 9.07926784243,
			"0.013": 3.56306110187,
			"0.014": 0.255725709618,
			"0.015": 0.0,
			"0.016": 0.0,
			"0.017": 0.0,
			"0.018": 0.0,
			"0.019": 0.0,
			"0.02": 0.0,
			"0.021": 0.0,
			"0.022": 0.0,
			"0.023": 0.0,
			"0.024": 0.0,
			"0.025": 0.0
		}
	}
}
