{
	 "smiles": "OC(=O)C1=CNC(=N1)C1=CC(=CC=C1)[N+]([O-])=O", 
	 "Tm": 458.15, 
	 "num_atms": 24, 
	 "gaussian": { 
		 "optdone": 1, 
		 "sigma_profile": "yes", 
		 "theory": "DFT", 
		 "functional": "B3LYP", 
		 "basiset": "6-31G**", 
		 "properties": { 
			 "R2extent": 6336.74, 
			 "electric_dipole_moment_norm": 2.90825604272, 
			 "electric_quadrupole_moment_norm": 38.8912326494, 
			 "total_energy": -850.354614696, 
			 "HOMO_LUMO_gap": 0.14351, 
			 "cosmo_polarized_energy": -23.09, 
			 "cosmo_cavitation_energy": 30.77, 
			 "cosmo_dispersion_energy": -22.57, 
			 "cosmo_repulsion_energy": 1.73, 
			 "cosmo_total_nonelectrostatic_energy": 9.92, 
			 "SMD_solvation_energy": 7.9 
		},
		"coords": [
			{
				"x": -2.67522412,
				"y": -1.4453385727,
				"z": 3.1544743009,
				"element": "O" 
			},
			{
				"x": -1.8806678858,
				"y": -2.4747444063,
				"z": 2.791190598,
				"element": "C" 
			},
			{
				"x": -2.1284918281,
				"y": -3.6236866307,
				"z": 3.0794949501,
				"element": "O" 
			},
			{
				"x": -0.6901294259,
				"y": -2.0612397647,
				"z": 2.0138927091,
				"element": "C" 
			},
			{
				"x": 0.3049640172,
				"y": -2.8612068225,
				"z": 1.4998661594,
				"element": "C" 
			},
			{
				"x": 1.1643943771,
				"y": -1.9992580698,
				"z": 0.8724910146,
				"element": "N" 
			},
			{
				"x": 0.6757834482,
				"y": -0.7193834924,
				"z": 1.0192913692,
				"element": "C" 
			},
			{
				"x": -0.4510713707,
				"y": -0.741944858,
				"z": 1.71133284,
				"element": "N" 
			},
			{
				"x": 1.3206363983,
				"y": 0.4814905883,
				"z": 0.4828746897,
				"element": "C" 
			},
			{
				"x": 2.5143317198,
				"y": 0.4221688429,
				"z": -0.2462125052,
				"element": "C" 
			},
			{
				"x": 3.0743741834,
				"y": 1.60100714,
				"z": -0.7278267665,
				"element": "C" 
			},
			{
				"x": 2.4939823744,
				"y": 2.8481090458,
				"z": -0.5144270868,
				"element": "C" 
			},
			{
				"x": 1.3042465805,
				"y": 2.9008484491,
				"z": 0.212757928,
				"element": "C" 
			},
			{
				"x": 0.7227384871,
				"y": 1.7361016027,
				"z": 0.7061095403,
				"element": "C" 
			},
			{
				"x": 4.3314451562,
				"y": 1.5170885612,
				"z": -1.4930393184,
				"element": "N" 
			},
			{
				"x": 4.8137541753,
				"y": 2.5667958016,
				"z": -1.9116769363,
				"element": "O" 
			},
			{
				"x": 4.8198739269,
				"y": 0.400044161,
				"z": -1.6649132944,
				"element": "O" 
			},
			{
				"x": -2.2724307911,
				"y": -0.6269627654,
				"z": 2.8107891855,
				"element": "H" 
			},
			{
				"x": 0.4556265456,
				"y": -3.9281716256,
				"z": 1.5348534767,
				"element": "H" 
			},
			{
				"x": 2.0069147725,
				"y": -2.2675230149,
				"z": 0.3859836234,
				"element": "H" 
			},
			{
				"x": 3.0323119334,
				"y": -0.5049715307,
				"z": -0.458657333,
				"element": "H" 
			},
			{
				"x": 2.9700715451,
				"y": 3.7358500328,
				"z": -0.9106008056,
				"element": "H" 
			},
			{
				"x": 0.8284799761,
				"y": 3.8589490692,
				"z": 0.3951040251,
				"element": "H" 
			},
			{
				"x": -0.2015141956,
				"y": 1.774678259,
				"z": 1.2713476363,
				"element": "H" 
			}
		],
		 "valence_orbital": [ 
			{
				"type": "occ",
				"energy": -0.30649,
				"method": "rhf"
			},
			{
				"type": "occ",
				"energy": -0.30572,
				"method": "rhf"
			},
			{
				"type": "occ",
				"energy": -0.29857,
				"method": "rhf"
			},
			{
				"type": "occ",
				"energy": -0.27067,
				"method": "rhf"
			},
			{
				"type": "occ",
				"energy": -0.24817,
				"method": "rhf"
			},
			{
				"type": "unocc",
				"energy": -0.10466,
				"method": "rhf"
			},
			{
				"type": "unocc",
				"energy": -0.06924,
				"method": "rhf"
			},
			{
				"type": "unocc",
				"energy": -0.03309,
				"method": "rhf"
			},
			{
				"type": "unocc",
				"energy": -0.02049,
				"method": "rhf"
			},
			{
				"type": "unocc",
				"energy": 0.03133,
				"method": "rhf"
			}
		],
		"cosmo_sigma_profile": { 
			"-0.025": 0.0,
			"-0.024": 0.0,
			"-0.023": 0.0,
			"-0.022": 0.0,
			"-0.021": 0.0,
			"-0.02": 0.0,
			"-0.019": 0.357845120772,
			"-0.018": 1.93517888609,
			"-0.017": 1.53569866771,
			"-0.016": 1.61058430184,
			"-0.015": 1.14282448538,
			"-0.014": 1.31498844261,
			"-0.013": 2.35120768934,
			"-0.012": 1.33364589744,
			"-0.011": 2.89907635685,
			"-0.01": 4.06969620029,
			"-0.009": 3.20318686562,
			"-0.008": 4.36772308918,
			"-0.007": 9.02259011096,
			"-0.006": 10.5114277206,
			"-0.005": 10.4121245575,
			"-0.004": 10.5860842261,
			"-0.003": 12.8080256756,
			"-0.002": 15.3998166494,
			"-0.001": 19.2532412599,
			"0.0": 24.7055329766,
			"0.001": 22.0394131593,
			"0.002": 11.2591048023,
			"0.003": 6.4280846664,
			"0.004": 6.61260368347,
			"0.005": 7.01107025306,
			"0.006": 7.84312461555,
			"0.007": 11.6122398457,
			"0.008": 9.03810645518,
			"0.009": 8.0595060191,
			"0.01": 5.99272159268,
			"0.011": 4.66344720005,
			"0.012": 5.9382061744,
			"0.013": 2.61040943779,
			"0.014": 0.377133186291,
			"0.015": 0.0,
			"0.016": 0.0,
			"0.017": 0.0,
			"0.018": 0.0,
			"0.019": 0.0,
			"0.02": 0.0,
			"0.021": 0.0,
			"0.022": 0.0,
			"0.023": 0.0,
			"0.024": 0.0,
			"0.025": 0.0
		}
	}
}
