{
	 "smiles": "COCC(=O)N(C(C)C(=O)OC)C1=C(C)C=CC=C1C", 
	 "Tm": 344.15, 
	 "num_atms": 41, 
	 "gaussian": { 
		 "optdone": 1, 
		 "sigma_profile": "yes", 
		 "theory": "DFT", 
		 "functional": "B3LYP", 
		 "basiset": "6-31G**", 
		 "properties": { 
			 "R2extent": 5771.0747, 
			 "electric_dipole_moment_norm": 4.47397016642, 
			 "electric_quadrupole_moment_norm": 17.3682740993, 
			 "total_energy": -939.906162671, 
			 "HOMO_LUMO_gap": 0.21862, 
			 "cosmo_polarized_energy": -16.61, 
			 "cosmo_cavitation_energy": 41.71, 
			 "cosmo_dispersion_energy": -27.22, 
			 "cosmo_repulsion_energy": 2.08, 
			 "cosmo_total_nonelectrostatic_energy": 16.56, 
			 "SMD_solvation_energy": 9.71 
		},
		"coords": [
			{
				"x": -1.3652820133,
				"y": -2.7048039931,
				"z": -1.2474606324,
				"element": "C" 
			},
			{
				"x": -0.0927946718,
				"y": -2.8392323936,
				"z": -0.6329775234,
				"element": "O" 
			},
			{
				"x": 0.5527979669,
				"y": -1.6252201447,
				"z": -0.374555642,
				"element": "C" 
			},
			{
				"x": -0.0645353171,
				"y": -0.8552997071,
				"z": 0.8094697643,
				"element": "C" 
			},
			{
				"x": -1.0310508938,
				"y": -1.2850588416,
				"z": 1.4285333749,
				"element": "O" 
			},
			{
				"x": 0.4906082474,
				"y": 0.3712868252,
				"z": 1.1032493518,
				"element": "N" 
			},
			{
				"x": -0.1334879892,
				"y": 1.1721551655,
				"z": 2.1782963987,
				"element": "C" 
			},
			{
				"x": 0.2892840289,
				"y": 0.7464773094,
				"z": 3.5874221399,
				"element": "C" 
			},
			{
				"x": -1.6668464306,
				"y": 1.2174408039,
				"z": 2.0776841144,
				"element": "C" 
			},
			{
				"x": -2.400790602,
				"y": 1.2413575398,
				"z": 3.0392454013,
				"element": "O" 
			},
			{
				"x": -2.0973869784,
				"y": 1.3608267868,
				"z": 0.8068149385,
				"element": "O" 
			},
			{
				"x": -3.526011996,
				"y": 1.397617027,
				"z": 0.6561892259,
				"element": "C" 
			},
			{
				"x": 1.7349790449,
				"y": 0.8324288176,
				"z": 0.5369588553,
				"element": "C" 
			},
			{
				"x": 1.7016760612,
				"y": 1.8522850658,
				"z": -0.4430783791,
				"element": "C" 
			},
			{
				"x": 0.3995885828,
				"y": 2.4305781454,
				"z": -0.9424633468,
				"element": "C" 
			},
			{
				"x": 2.9114723074,
				"y": 2.3240992172,
				"z": -0.9603654828,
				"element": "C" 
			},
			{
				"x": 4.1302865822,
				"y": 1.8026515977,
				"z": -0.5295744813,
				"element": "C" 
			},
			{
				"x": 4.1493305808,
				"y": 0.7925021978,
				"z": 0.4246626949,
				"element": "C" 
			},
			{
				"x": 2.9618799078,
				"y": 0.289675608,
				"z": 0.9760680715,
				"element": "C" 
			},
			{
				"x": 3.0628979891,
				"y": -0.8260632756,
				"z": 1.9932496911,
				"element": "C" 
			},
			{
				"x": -2.082298563,
				"y": -2.2066758508,
				"z": -0.5870774327,
				"element": "H" 
			},
			{
				"x": -1.715973223,
				"y": -3.7167605911,
				"z": -1.4629737841,
				"element": "H" 
			},
			{
				"x": -1.2914554605,
				"y": -2.1472419207,
				"z": -2.1952887698,
				"element": "H" 
			},
			{
				"x": 0.5568821241,
				"y": -0.9643636401,
				"z": -1.2587229475,
				"element": "H" 
			},
			{
				"x": 1.5969263999,
				"y": -1.8659430973,
				"z": -0.1548930152,
				"element": "H" 
			},
			{
				"x": 0.2006497516,
				"y": 2.2025598876,
				"z": 2.0056444192,
				"element": "H" 
			},
			{
				"x": -0.0040879657,
				"y": -0.2890924756,
				"z": 3.7714726848,
				"element": "H" 
			},
			{
				"x": -0.2088257138,
				"y": 1.3756694417,
				"z": 4.3273976373,
				"element": "H" 
			},
			{
				"x": 1.3704720604,
				"y": 0.8488143911,
				"z": 3.7065658185,
				"element": "H" 
			},
			{
				"x": -3.9545511229,
				"y": 2.2248890881,
				"z": 1.2270141982,
				"element": "H" 
			},
			{
				"x": -3.9651382551,
				"y": 0.4598053457,
				"z": 1.0048134236,
				"element": "H" 
			},
			{
				"x": -3.7068054523,
				"y": 1.5322192857,
				"z": -0.4104077984,
				"element": "H" 
			},
			{
				"x": 0.5620447133,
				"y": 2.9892109339,
				"z": -1.8679220494,
				"element": "H" 
			},
			{
				"x": -0.0477404875,
				"y": 3.1193641352,
				"z": -0.2164079979,
				"element": "H" 
			},
			{
				"x": -0.3487612144,
				"y": 1.6560482655,
				"z": -1.1220560582,
				"element": "H" 
			},
			{
				"x": 2.8925173576,
				"y": 3.1048284339,
				"z": -1.7159259249,
				"element": "H" 
			},
			{
				"x": 5.0611315736,
				"y": 2.1800168603,
				"z": -0.9431066594,
				"element": "H" 
			},
			{
				"x": 5.0979145146,
				"y": 0.3790392423,
				"z": 0.7578006447,
				"element": "H" 
			},
			{
				"x": 3.7468547027,
				"y": -0.5477424518,
				"z": 2.80212517,
				"element": "H" 
			},
			{
				"x": 3.4714317621,
				"y": -1.7336201981,
				"z": 1.5328033927,
				"element": "H" 
			},
			{
				"x": 2.1035980911,
				"y": -1.0836288371,
				"z": 2.4397765133,
				"element": "H" 
			}
		],
		 "valence_orbital": [ 
			{
				"type": "occ",
				"energy": -0.27301,
				"method": "rhf"
			},
			{
				"type": "occ",
				"energy": -0.2608,
				"method": "rhf"
			},
			{
				"type": "occ",
				"energy": -0.24804,
				"method": "rhf"
			},
			{
				"type": "occ",
				"energy": -0.24497,
				"method": "rhf"
			},
			{
				"type": "occ",
				"energy": -0.23699,
				"method": "rhf"
			},
			{
				"type": "unocc",
				"energy": -0.01837,
				"method": "rhf"
			},
			{
				"type": "unocc",
				"energy": -0.01263,
				"method": "rhf"
			},
			{
				"type": "unocc",
				"energy": 0.01449,
				"method": "rhf"
			},
			{
				"type": "unocc",
				"energy": 0.02357,
				"method": "rhf"
			},
			{
				"type": "unocc",
				"energy": 0.0745,
				"method": "rhf"
			}
		],
		"cosmo_sigma_profile": { 
			"-0.025": 0.0,
			"-0.024": 0.0,
			"-0.023": 0.0,
			"-0.022": 0.0,
			"-0.021": 0.0,
			"-0.02": 0.0,
			"-0.019": 0.0,
			"-0.018": 0.0,
			"-0.017": 0.0,
			"-0.016": 0.0,
			"-0.015": 0.0,
			"-0.014": 0.0,
			"-0.013": 0.0,
			"-0.012": 0.0,
			"-0.011": 0.0,
			"-0.01": 0.0,
			"-0.009": 0.0133424385266,
			"-0.008": 1.48555546929,
			"-0.007": 2.99367885898,
			"-0.006": 10.9428645412,
			"-0.005": 27.0455915995,
			"-0.004": 37.1736520429,
			"-0.003": 43.6256614575,
			"-0.002": 38.2518178477,
			"-0.001": 28.5393987929,
			"0.0": 26.5235494196,
			"0.001": 17.6428023934,
			"0.002": 13.0272012125,
			"0.003": 12.062906481,
			"0.004": 13.0296300891,
			"0.005": 11.5084160265,
			"0.006": 5.8907714573,
			"0.007": 4.03554774592,
			"0.008": 3.8093955402,
			"0.009": 4.04391827005,
			"0.01": 5.68805937695,
			"0.011": 5.1957591002,
			"0.012": 8.59762578601,
			"0.013": 4.70214810129,
			"0.014": 1.35953324177,
			"0.015": 0.124828641784,
			"0.016": 0.0,
			"0.017": 0.0,
			"0.018": 0.0,
			"0.019": 0.0,
			"0.02": 0.0,
			"0.021": 0.0,
			"0.022": 0.0,
			"0.023": 0.0,
			"0.024": 0.0,
			"0.025": 0.0
		}
	}
}
