{
	 "smiles": "CN(C1CCCCC1)C1=CC=C(C=C1)C(N)=N", 
	 "Tm": 396.15, 
	 "num_atms": 38, 
	 "gaussian": { 
		 "optdone": 1, 
		 "sigma_profile": "yes", 
		 "theory": "DFT", 
		 "functional": "B3LYP", 
		 "basiset": "6-31G**", 
		 "properties": { 
			 "R2extent": 6097.2932, 
			 "electric_dipole_moment_norm": 2.87376777245, 
			 "electric_quadrupole_moment_norm": 20.6808064204, 
			 "total_energy": -710.395263045, 
			 "HOMO_LUMO_gap": 0.17896, 
			 "cosmo_polarized_energy": -14.21, 
			 "cosmo_cavitation_energy": 37.12, 
			 "cosmo_dispersion_energy": -26.85, 
			 "cosmo_repulsion_energy": 2.08, 
			 "cosmo_total_nonelectrostatic_energy": 12.35, 
			 "SMD_solvation_energy": 4.51 
		},
		"coords": [
			{
				"x": 1.390960906,
				"y": -0.0907652182,
				"z": 2.1377528888,
				"element": "C" 
			},
			{
				"x": 0.4572789636,
				"y": -0.1139091284,
				"z": 1.0026820383,
				"element": "N" 
			},
			{
				"x": -0.4072551769,
				"y": -1.3146212206,
				"z": 0.9494201878,
				"element": "C" 
			},
			{
				"x": -1.1269753955,
				"y": -1.4309533264,
				"z": -0.430356617,
				"element": "C" 
			},
			{
				"x": -0.4555867893,
				"y": -2.4216996455,
				"z": -1.4076549032,
				"element": "C" 
			},
			{
				"x": 1.0700206428,
				"y": -2.3905313435,
				"z": -1.2642232045,
				"element": "C" 
			},
			{
				"x": 1.4875403391,
				"y": -2.8765795906,
				"z": 0.1420540325,
				"element": "C" 
			},
			{
				"x": 0.3908420517,
				"y": -2.6097021887,
				"z": 1.1965604635,
				"element": "C" 
			},
			{
				"x": -0.1681423216,
				"y": 1.1470519403,
				"z": 0.7877491767,
				"element": "C" 
			},
			{
				"x": -1.5472399985,
				"y": 1.3699748339,
				"z": 0.9318620763,
				"element": "C" 
			},
			{
				"x": -2.0959868446,
				"y": 2.6329968625,
				"z": 0.7035555515,
				"element": "C" 
			},
			{
				"x": -1.2928253745,
				"y": 3.7179227311,
				"z": 0.3344604015,
				"element": "C" 
			},
			{
				"x": 0.0891062797,
				"y": 3.5005520739,
				"z": 0.2019285423,
				"element": "C" 
			},
			{
				"x": 0.6350520972,
				"y": 2.2444125592,
				"z": 0.4115557771,
				"element": "C" 
			},
			{
				"x": -1.8447634126,
				"y": 5.0798920202,
				"z": 0.0859856171,
				"element": "C" 
			},
			{
				"x": -3.2207096054,
				"y": 5.1289000128,
				"z": -0.1434746205,
				"element": "N" 
			},
			{
				"x": -1.0581776714,
				"y": 6.0945394749,
				"z": 0.1423043795,
				"element": "N" 
			},
			{
				"x": 1.9084273157,
				"y": 0.8679303749,
				"z": 2.1651682556,
				"element": "H" 
			},
			{
				"x": 2.1459993544,
				"y": -0.8733986861,
				"z": 2.0431707117,
				"element": "H" 
			},
			{
				"x": 0.8750407833,
				"y": -0.2181013834,
				"z": 3.1053692169,
				"element": "H" 
			},
			{
				"x": -1.1681756687,
				"y": -1.2568845592,
				"z": 1.749287328,
				"element": "H" 
			},
			{
				"x": -1.1650560979,
				"y": -0.4444647332,
				"z": -0.8974441708,
				"element": "H" 
			},
			{
				"x": -2.1684979467,
				"y": -1.7311131825,
				"z": -0.2644200995,
				"element": "H" 
			},
			{
				"x": -0.7551797749,
				"y": -2.17651103,
				"z": -2.4328643257,
				"element": "H" 
			},
			{
				"x": -0.8152092734,
				"y": -3.4429148798,
				"z": -1.2226443846,
				"element": "H" 
			},
			{
				"x": 1.5472424552,
				"y": -3.0032586548,
				"z": -2.0373865289,
				"element": "H" 
			},
			{
				"x": 1.4153984087,
				"y": -1.3613852043,
				"z": -1.4131466792,
				"element": "H" 
			},
			{
				"x": 2.426730393,
				"y": -2.3941602083,
				"z": 0.4337831126,
				"element": "H" 
			},
			{
				"x": 1.6918155192,
				"y": -3.9541556106,
				"z": 0.1234684951,
				"element": "H" 
			},
			{
				"x": -0.3454032804,
				"y": -3.4220109253,
				"z": 1.1677049441,
				"element": "H" 
			},
			{
				"x": 0.8096548256,
				"y": -2.6352947444,
				"z": 2.2069817442,
				"element": "H" 
			},
			{
				"x": -2.2038020324,
				"y": 0.5635086111,
				"z": 1.2372491326,
				"element": "H" 
			},
			{
				"x": -3.1610545183,
				"y": 2.7745706719,
				"z": 0.8625695583,
				"element": "H" 
			},
			{
				"x": 0.7151220005,
				"y": 4.3379766532,
				"z": -0.0859452482,
				"element": "H" 
			},
			{
				"x": 1.6995099248,
				"y": 2.0879777503,
				"z": 0.2633665237,
				"element": "H" 
			},
			{
				"x": -3.6169785654,
				"y": 4.3392260858,
				"z": -0.6349426154,
				"element": "H" 
			},
			{
				"x": -3.5679328529,
				"y": 6.0164829603,
				"z": -0.4815428913,
				"element": "H" 
			},
			{
				"x": -1.5566896591,
				"y": 6.9608998477,
				"z": -0.0788438671,
				"element": "H" 
			}
		],
		 "valence_orbital": [ 
			{
				"type": "occ",
				"energy": -0.26281,
				"method": "rhf"
			},
			{
				"type": "occ",
				"energy": -0.25431,
				"method": "rhf"
			},
			{
				"type": "occ",
				"energy": -0.24699,
				"method": "rhf"
			},
			{
				"type": "occ",
				"energy": -0.23288,
				"method": "rhf"
			},
			{
				"type": "occ",
				"energy": -0.19669,
				"method": "rhf"
			},
			{
				"type": "unocc",
				"energy": -0.01773,
				"method": "rhf"
			},
			{
				"type": "unocc",
				"energy": 0.00371,
				"method": "rhf"
			},
			{
				"type": "unocc",
				"energy": 0.06493,
				"method": "rhf"
			},
			{
				"type": "unocc",
				"energy": 0.07442,
				"method": "rhf"
			},
			{
				"type": "unocc",
				"energy": 0.08412,
				"method": "rhf"
			}
		],
		"cosmo_sigma_profile": { 
			"-0.025": 0.0,
			"-0.024": 0.0,
			"-0.023": 0.0,
			"-0.022": 0.0,
			"-0.021": 0.0,
			"-0.02": 0.0,
			"-0.019": 0.0,
			"-0.018": 0.0,
			"-0.017": 0.0,
			"-0.016": 0.0,
			"-0.015": 0.0,
			"-0.014": 0.0911651948472,
			"-0.013": 2.00116861353,
			"-0.012": 2.74891548093,
			"-0.011": 3.38252435627,
			"-0.01": 3.83666377138,
			"-0.009": 3.46785733472,
			"-0.008": 2.07615380857,
			"-0.007": 3.41343044252,
			"-0.006": 4.12228338426,
			"-0.005": 8.79043052995,
			"-0.004": 12.4309747456,
			"-0.003": 21.3229688895,
			"-0.002": 36.7209905401,
			"-0.001": 40.4965859994,
			"0.0": 32.78024576,
			"0.001": 29.6945643333,
			"0.002": 15.9232428128,
			"0.003": 9.80374678693,
			"0.004": 10.7007693572,
			"0.005": 14.1863782617,
			"0.006": 8.31466818244,
			"0.007": 3.63871473753,
			"0.008": 3.54536309332,
			"0.009": 2.58944039965,
			"0.01": 1.98018200196,
			"0.011": 2.60666321652,
			"0.012": 2.06957186234,
			"0.013": 1.06056428119,
			"0.014": 1.29997716731,
			"0.015": 1.18036993777,
			"0.016": 1.20667797949,
			"0.017": 0.768070119633,
			"0.018": 0.789481141874,
			"0.019": 0.0570429133634,
			"0.02": 0.0,
			"0.021": 0.0,
			"0.022": 0.0,
			"0.023": 0.0,
			"0.024": 0.0,
			"0.025": 0.0
		}
	}
}
