{
	 "smiles": "OC(=O)C1CCCN1C(=O)C1=CC(Cl)=CC(Cl)=C1", 
	 "Tm": 436.15, 
	 "num_atms": 29, 
	 "gaussian": { 
		 "optdone": 1, 
		 "sigma_profile": "yes", 
		 "theory": "DFT", 
		 "functional": "B3LYP", 
		 "basiset": "6-31G**", 
		 "properties": { 
			 "R2extent": 6332.5006, 
			 "electric_dipole_moment_norm": 3.36130608544, 
			 "electric_quadrupole_moment_norm": 15.9894642162, 
			 "total_energy": -1664.73910517, 
			 "HOMO_LUMO_gap": 0.20206, 
			 "cosmo_polarized_energy": -16.55, 
			 "cosmo_cavitation_energy": 36.69, 
			 "cosmo_dispersion_energy": -25.27, 
			 "cosmo_repulsion_energy": 2.0, 
			 "cosmo_total_nonelectrostatic_energy": 13.42, 
			 "SMD_solvation_energy": 6.3 
		},
		"coords": [
			{
				"x": -1.7336206543,
				"y": 1.4681088703,
				"z": -0.5514084324,
				"element": "O" 
			},
			{
				"x": -2.0509898733,
				"y": 1.0549819844,
				"z": 0.6950999528,
				"element": "C" 
			},
			{
				"x": -3.1813415713,
				"y": 0.8032874749,
				"z": 1.0456808152,
				"element": "O" 
			},
			{
				"x": -0.8482417649,
				"y": 0.9734299138,
				"z": 1.6410467907,
				"element": "C" 
			},
			{
				"x": -0.8320713068,
				"y": 2.1927128392,
				"z": 2.5928015095,
				"element": "C" 
			},
			{
				"x": -0.0215985189,
				"y": 3.2358283282,
				"z": 1.8078340554,
				"element": "C" 
			},
			{
				"x": 1.0588511496,
				"y": 2.4027715501,
				"z": 1.1028214691,
				"element": "C" 
			},
			{
				"x": 0.4637659316,
				"y": 1.0532473506,
				"z": 0.9938687334,
				"element": "N" 
			},
			{
				"x": 0.9674106722,
				"y": 0.1937614926,
				"z": 0.0509458554,
				"element": "C" 
			},
			{
				"x": 1.9101246808,
				"y": 0.5050276413,
				"z": -0.6696538897,
				"element": "O" 
			},
			{
				"x": 0.3456075413,
				"y": -1.1767355816,
				"z": -0.0712830391,
				"element": "C" 
			},
			{
				"x": 0.0328096613,
				"y": -1.6312115063,
				"z": -1.3576454607,
				"element": "C" 
			},
			{
				"x": -0.4764099203,
				"y": -2.9160931488,
				"z": -1.5177133285,
				"element": "C" 
			},
			{
				"x": -0.8993821502,
				"y": -3.4825728922,
				"z": -3.1236245347,
				"element": "Cl" 
			},
			{
				"x": -0.6554182909,
				"y": -3.7756628591,
				"z": -0.4324840949,
				"element": "C" 
			},
			{
				"x": -0.3081943374,
				"y": -3.3112498551,
				"z": 0.8344767711,
				"element": "C" 
			},
			{
				"x": -0.4938185617,
				"y": -4.3806003089,
				"z": 2.2135171186,
				"element": "Cl" 
			},
			{
				"x": 0.184764578,
				"y": -2.0219169852,
				"z": 1.0321497853,
				"element": "C" 
			},
			{
				"x": -2.567933948,
				"y": 1.4905607615,
				"z": -1.0508935292,
				"element": "H" 
			},
			{
				"x": -0.9819097392,
				"y": 0.0468336774,
				"z": 2.2013091574,
				"element": "H" 
			},
			{
				"x": -1.8413379958,
				"y": 2.5129468314,
				"z": 2.8595349903,
				"element": "H" 
			},
			{
				"x": -0.3099776262,
				"y": 1.9105948953,
				"z": 3.5129773776,
				"element": "H" 
			},
			{
				"x": -0.6597541712,
				"y": 3.7288041355,
				"z": 1.0672337576,
				"element": "H" 
			},
			{
				"x": 0.4042585907,
				"y": 4.0112093402,
				"z": 2.4493608548,
				"element": "H" 
			},
			{
				"x": 1.9847993436,
				"y": 2.3458705703,
				"z": 1.6871585116,
				"element": "H" 
			},
			{
				"x": 1.3201667673,
				"y": 2.7724607648,
				"z": 0.1090247686,
				"element": "H" 
			},
			{
				"x": 0.1979838271,
				"y": -0.9860734451,
				"z": -2.211859628,
				"element": "H" 
			},
			{
				"x": -1.0452496489,
				"y": -4.7761807769,
				"z": -0.5720561023,
				"element": "H" 
			},
			{
				"x": 0.4672073356,
				"y": -1.6995410629,
				"z": 2.0276797653,
				"element": "H" 
			}
		],
		 "valence_orbital": [ 
			{
				"type": "occ",
				"energy": -0.30064,
				"method": "rhf"
			},
			{
				"type": "occ",
				"energy": -0.27612,
				"method": "rhf"
			},
			{
				"type": "occ",
				"energy": -0.26043,
				"method": "rhf"
			},
			{
				"type": "occ",
				"energy": -0.25366,
				"method": "rhf"
			},
			{
				"type": "occ",
				"energy": -0.25022,
				"method": "rhf"
			},
			{
				"type": "unocc",
				"energy": -0.04816,
				"method": "rhf"
			},
			{
				"type": "unocc",
				"energy": -0.03145,
				"method": "rhf"
			},
			{
				"type": "unocc",
				"energy": -0.01042,
				"method": "rhf"
			},
			{
				"type": "unocc",
				"energy": 0.00185,
				"method": "rhf"
			},
			{
				"type": "unocc",
				"energy": 0.02264,
				"method": "rhf"
			}
		],
		"cosmo_sigma_profile": { 
			"-0.025": 0.0,
			"-0.024": 0.0,
			"-0.023": 0.0,
			"-0.022": 0.0,
			"-0.021": 0.0,
			"-0.02": 0.0,
			"-0.019": 0.323231150002,
			"-0.018": 1.24063088141,
			"-0.017": 0.536075596058,
			"-0.016": 1.08370907526,
			"-0.015": 0.794886612326,
			"-0.014": 0.270766201942,
			"-0.013": 0.295917364437,
			"-0.012": 1.3210538431,
			"-0.011": 0.719480123817,
			"-0.01": 0.555284815629,
			"-0.009": 3.1472220938,
			"-0.008": 5.42462036229,
			"-0.007": 6.35982678372,
			"-0.006": 7.89534392797,
			"-0.005": 17.1032226009,
			"-0.004": 22.9745902842,
			"-0.003": 23.1778429117,
			"-0.002": 26.9051313618,
			"-0.001": 24.0547397631,
			"0.0": 27.7350371355,
			"0.001": 25.0560091515,
			"0.002": 16.3012732371,
			"0.003": 19.176985223,
			"0.004": 21.905519918,
			"0.005": 5.6598908988,
			"0.006": 4.21456699155,
			"0.007": 3.42130393264,
			"0.008": 2.45958573911,
			"0.009": 4.17413022045,
			"0.01": 2.71116781982,
			"0.011": 6.84202645181,
			"0.012": 5.73126265884,
			"0.013": 5.00317483767,
			"0.014": 1.25970032774,
			"0.015": 0.0,
			"0.016": 0.0,
			"0.017": 0.0,
			"0.018": 0.0,
			"0.019": 0.0,
			"0.02": 0.0,
			"0.021": 0.0,
			"0.022": 0.0,
			"0.023": 0.0,
			"0.024": 0.0,
			"0.025": 0.0
		}
	}
}
