{
	 "smiles": "CN1C=CC2=C1C(=O)NC=C2", 
	 "Tm": 464.15, 
	 "num_atms": 19, 
	 "gaussian": { 
		 "optdone": 1, 
		 "sigma_profile": "yes", 
		 "theory": "DFT", 
		 "functional": "B3LYP", 
		 "basiset": "6-31G**", 
		 "properties": { 
			 "R2extent": 1642.0647, 
			 "electric_dipole_moment_norm": 1.85217654396, 
			 "electric_quadrupole_moment_norm": 15.0902292083, 
			 "total_energy": -494.412612106, 
			 "HOMO_LUMO_gap": 0.18643, 
			 "cosmo_polarized_energy": -12.57, 
			 "cosmo_cavitation_energy": 22.61, 
			 "cosmo_dispersion_energy": -17.03, 
			 "cosmo_repulsion_energy": 1.34, 
			 "cosmo_total_nonelectrostatic_energy": 6.92, 
			 "SMD_solvation_energy": 4.97 
		},
		"coords": [
			{
				"x": -1.6166668308,
				"y": -1.8057801969,
				"z": -1.2864834486,
				"element": "C" 
			},
			{
				"x": -0.4979327908,
				"y": -1.2713378433,
				"z": -0.5201134382,
				"element": "N" 
			},
			{
				"x": 0.7887410998,
				"y": -1.7449065394,
				"z": -0.5375427197,
				"element": "C" 
			},
			{
				"x": 1.5806063202,
				"y": -0.9960039866,
				"z": 0.3111064357,
				"element": "C" 
			},
			{
				"x": 0.7391419965,
				"y": -0.0032331586,
				"z": 0.8865975533,
				"element": "C" 
			},
			{
				"x": -0.5454261461,
				"y": -0.2026657615,
				"z": 0.3489341921,
				"element": "C" 
			},
			{
				"x": -1.6969459357,
				"y": 0.5975308436,
				"z": 0.6755764328,
				"element": "C" 
			},
			{
				"x": -2.8477599158,
				"y": 0.4800018509,
				"z": 0.2437934894,
				"element": "O" 
			},
			{
				"x": -1.3686266471,
				"y": 1.6010907299,
				"z": 1.5993124841,
				"element": "N" 
			},
			{
				"x": -0.1225000134,
				"y": 1.8310488743,
				"z": 2.1509722963,
				"element": "C" 
			},
			{
				"x": 0.9475089652,
				"y": 1.0597300372,
				"z": 1.8248946216,
				"element": "C" 
			},
			{
				"x": -2.4145629031,
				"y": -2.1394761301,
				"z": -0.6203255938,
				"element": "H" 
			},
			{
				"x": -1.2555526919,
				"y": -2.6488612699,
				"z": -1.8785443676,
				"element": "H" 
			},
			{
				"x": -2.0291699028,
				"y": -1.0418058235,
				"z": -1.9482415015,
				"element": "H" 
			},
			{
				"x": 1.0464451812,
				"y": -2.5899762987,
				"z": -1.1607000894,
				"element": "H" 
			},
			{
				"x": 2.6351472021,
				"y": -1.146634879,
				"z": 0.4929859505,
				"element": "H" 
			},
			{
				"x": -2.150217006,
				"y": 2.188821356,
				"z": 1.8574677904,
				"element": "H" 
			},
			{
				"x": -0.0685304453,
				"y": 2.658007347,
				"z": 2.8493172632,
				"element": "H" 
			},
			{
				"x": 1.9182004637,
				"y": 1.2520508486,
				"z": 2.2654926496,
				"element": "H" 
			}
		],
		 "valence_orbital": [ 
			{
				"type": "occ",
				"energy": -0.32951,
				"method": "rhf"
			},
			{
				"type": "occ",
				"energy": -0.26895,
				"method": "rhf"
			},
			{
				"type": "occ",
				"energy": -0.24361,
				"method": "rhf"
			},
			{
				"type": "occ",
				"energy": -0.22465,
				"method": "rhf"
			},
			{
				"type": "occ",
				"energy": -0.19408,
				"method": "rhf"
			},
			{
				"type": "unocc",
				"energy": -0.00765,
				"method": "rhf"
			},
			{
				"type": "unocc",
				"energy": 0.01385,
				"method": "rhf"
			},
			{
				"type": "unocc",
				"energy": 0.07398,
				"method": "rhf"
			},
			{
				"type": "unocc",
				"energy": 0.08124,
				"method": "rhf"
			},
			{
				"type": "unocc",
				"energy": 0.10431,
				"method": "rhf"
			}
		],
		"cosmo_sigma_profile": { 
			"-0.025": 0.0,
			"-0.024": 0.0,
			"-0.023": 0.0,
			"-0.022": 0.0,
			"-0.021": 0.0,
			"-0.02": 0.0,
			"-0.019": 0.0,
			"-0.018": 0.0,
			"-0.017": 0.0,
			"-0.016": 0.0104255690086,
			"-0.015": 1.09072812483,
			"-0.014": 1.39689345483,
			"-0.013": 1.37028100877,
			"-0.012": 0.66235391578,
			"-0.011": 0.939456521619,
			"-0.01": 1.29474896527,
			"-0.009": 1.80046353474,
			"-0.008": 6.08382131003,
			"-0.007": 5.96208352568,
			"-0.006": 9.19457269505,
			"-0.005": 12.192441498,
			"-0.004": 12.682311337,
			"-0.003": 14.2129017873,
			"-0.002": 12.3762985124,
			"-0.001": 8.12933076224,
			"0.0": 8.42247403825,
			"0.001": 11.8295788841,
			"0.002": 11.9735225067,
			"0.003": 11.1667398146,
			"0.004": 10.0333042061,
			"0.005": 11.4973584337,
			"0.006": 7.20511608747,
			"0.007": 2.55875227694,
			"0.008": 1.14592984748,
			"0.009": 1.88767302233,
			"0.01": 1.11036497232,
			"0.011": 1.44650382741,
			"0.012": 1.21256394566,
			"0.013": 1.63894032158,
			"0.014": 4.18573418024,
			"0.015": 3.64290357849,
			"0.016": 0.226243612995,
			"0.017": 0.0,
			"0.018": 0.0,
			"0.019": 0.0,
			"0.02": 0.0,
			"0.021": 0.0,
			"0.022": 0.0,
			"0.023": 0.0,
			"0.024": 0.0,
			"0.025": 0.0
		}
	}
}
