{
	 "smiles": "CC1=C(C=CC=C1Cl)[N+]([O-])=O", 
	 "Tm": 310.05, 
	 "num_atms": 17, 
	 "gaussian": { 
		 "optdone": 1, 
		 "sigma_profile": "yes", 
		 "theory": "DFT", 
		 "functional": "B3LYP", 
		 "basiset": "6-31G**", 
		 "properties": { 
			 "R2extent": 2230.4064, 
			 "electric_dipole_moment_norm": 3.16643094509, 
			 "electric_quadrupole_moment_norm": 12.1970752937, 
			 "total_energy": -935.65200601, 
			 "HOMO_LUMO_gap": 0.1751, 
			 "cosmo_polarized_energy": -7.12, 
			 "cosmo_cavitation_energy": 23.05, 
			 "cosmo_dispersion_energy": -17.26, 
			 "cosmo_repulsion_energy": 1.37, 
			 "cosmo_total_nonelectrostatic_energy": 7.16, 
			 "SMD_solvation_energy": 5.93 
		},
		"coords": [
			{
				"x": -0.0286449273,
				"y": -1.1524603163,
				"z": 2.3904636441,
				"element": "C" 
			},
			{
				"x": -0.1172106418,
				"y": -0.208270817,
				"z": 1.2173695837,
				"element": "C" 
			},
			{
				"x": 0.986467605,
				"y": 0.1769762885,
				"z": 0.4285500924,
				"element": "C" 
			},
			{
				"x": 0.9067396844,
				"y": 1.0946906728,
				"z": -0.6186736962,
				"element": "C" 
			},
			{
				"x": -0.3243369351,
				"y": 1.6491228048,
				"z": -0.9445689961,
				"element": "C" 
			},
			{
				"x": -1.4532011879,
				"y": 1.2917773799,
				"z": -0.2116405616,
				"element": "C" 
			},
			{
				"x": -1.3376992757,
				"y": 0.3877223812,
				"z": 0.8446502722,
				"element": "C" 
			},
			{
				"x": -2.8161043178,
				"y": -0.0020252881,
				"z": 1.7172958906,
				"element": "Cl" 
			},
			{
				"x": 2.3258271302,
				"y": -0.3991647655,
				"z": 0.6634168604,
				"element": "N" 
			},
			{
				"x": 3.2971336401,
				"y": 0.2867621091,
				"z": 0.3474203775,
				"element": "O" 
			},
			{
				"x": 2.3964624363,
				"y": -1.5350636311,
				"z": 1.131273426,
				"element": "O" 
			},
			{
				"x": -0.1129486128,
				"y": -2.1917067022,
				"z": 2.0567790769,
				"element": "H" 
			},
			{
				"x": -0.83675234,
				"y": -0.9544285981,
				"z": 3.0944432354,
				"element": "H" 
			},
			{
				"x": 0.9273230117,
				"y": -1.0660062301,
				"z": 2.9054837994,
				"element": "H" 
			},
			{
				"x": 1.80976036,
				"y": 1.3496291195,
				"z": -1.1582017502,
				"element": "H" 
			},
			{
				"x": -0.4078308707,
				"y": 2.3537698876,
				"z": -1.76514516,
				"element": "H" 
			},
			{
				"x": -2.4251847586,
				"y": 1.7097757049,
				"z": -0.4479160946,
				"element": "H" 
			}
		],
		 "valence_orbital": [ 
			{
				"type": "occ",
				"energy": -0.31412,
				"method": "rhf"
			},
			{
				"type": "occ",
				"energy": -0.311,
				"method": "rhf"
			},
			{
				"type": "occ",
				"energy": -0.30089,
				"method": "rhf"
			},
			{
				"type": "occ",
				"energy": -0.2797,
				"method": "rhf"
			},
			{
				"type": "occ",
				"energy": -0.2666,
				"method": "rhf"
			},
			{
				"type": "unocc",
				"energy": -0.0915,
				"method": "rhf"
			},
			{
				"type": "unocc",
				"energy": -0.03513,
				"method": "rhf"
			},
			{
				"type": "unocc",
				"energy": -0.0158,
				"method": "rhf"
			},
			{
				"type": "unocc",
				"energy": 0.01168,
				"method": "rhf"
			},
			{
				"type": "unocc",
				"energy": 0.09522,
				"method": "rhf"
			}
		],
		"cosmo_sigma_profile": { 
			"-0.025": 0.0,
			"-0.024": 0.0,
			"-0.023": 0.0,
			"-0.022": 0.0,
			"-0.021": 0.0,
			"-0.02": 0.0,
			"-0.019": 0.0,
			"-0.018": 0.0,
			"-0.017": 0.0,
			"-0.016": 0.0,
			"-0.015": 0.0,
			"-0.014": 0.0,
			"-0.013": 0.0,
			"-0.012": 0.0,
			"-0.011": 0.0,
			"-0.01": 0.0,
			"-0.009": 0.579930740559,
			"-0.008": 4.78033798253,
			"-0.007": 7.40402559946,
			"-0.006": 8.94912408316,
			"-0.005": 9.66481301957,
			"-0.004": 9.07600768969,
			"-0.003": 12.8757027415,
			"-0.002": 15.0844787336,
			"-0.001": 19.7630949961,
			"0.0": 19.6972873347,
			"0.001": 19.2363183691,
			"0.002": 12.1497978588,
			"0.003": 8.74775448055,
			"0.004": 10.1698852227,
			"0.005": 4.02332371573,
			"0.006": 3.96582352867,
			"0.007": 7.94540446193,
			"0.008": 6.923681977,
			"0.009": 3.89854205997,
			"0.01": 2.07837218265,
			"0.011": 0.0105964550283,
			"0.012": 0.0,
			"0.013": 0.0,
			"0.014": 0.0,
			"0.015": 0.0,
			"0.016": 0.0,
			"0.017": 0.0,
			"0.018": 0.0,
			"0.019": 0.0,
			"0.02": 0.0,
			"0.021": 0.0,
			"0.022": 0.0,
			"0.023": 0.0,
			"0.024": 0.0,
			"0.025": 0.0
		}
	}
}
