{
	 "smiles": "ClCC1=NC(Cl)=CC=C1", 
	 "Tm": 316.15, 
	 "num_atms": 14, 
	 "gaussian": { 
		 "optdone": 1, 
		 "sigma_profile": "yes", 
		 "theory": "DFT", 
		 "functional": "B3LYP", 
		 "basiset": "6-31G**", 
		 "properties": { 
			 "R2extent": 2665.9233, 
			 "electric_dipole_moment_norm": 3.54914363896, 
			 "electric_quadrupole_moment_norm": 7.77816065404, 
			 "total_energy": -1206.78960804, 
			 "HOMO_LUMO_gap": 0.2122, 
			 "cosmo_polarized_energy": -8.35, 
			 "cosmo_cavitation_energy": 22.03, 
			 "cosmo_dispersion_energy": -16.56, 
			 "cosmo_repulsion_energy": 1.39, 
			 "cosmo_total_nonelectrostatic_energy": 6.86, 
			 "SMD_solvation_energy": 1.84 
		},
		"coords": [
			{
				"x": -2.1343851152,
				"y": 2.9489972522,
				"z": -0.2199763571,
				"element": "Cl" 
			},
			{
				"x": -1.1230976008,
				"y": 2.1888429814,
				"z": 1.0963091592,
				"element": "C" 
			},
			{
				"x": -0.8321166984,
				"y": 0.7392034199,
				"z": 0.8142596398,
				"element": "C" 
			},
			{
				"x": -1.4678435247,
				"y": -0.1466279007,
				"z": 1.5990516835,
				"element": "N" 
			},
			{
				"x": -1.2332966265,
				"y": -1.4301159972,
				"z": 1.395678633,
				"element": "C" 
			},
			{
				"x": -2.0784404006,
				"y": -2.5621480115,
				"z": 2.447430129,
				"element": "Cl" 
			},
			{
				"x": -0.3730958221,
				"y": -1.9382554754,
				"z": 0.4195440093,
				"element": "C" 
			},
			{
				"x": 0.2819375572,
				"y": -1.0125601802,
				"z": -0.3893414961,
				"element": "C" 
			},
			{
				"x": 0.0548163608,
				"y": 0.3486735452,
				"z": -0.1930895048,
				"element": "C" 
			},
			{
				"x": -1.690034549,
				"y": 2.2770907166,
				"z": 2.0210018348,
				"element": "H" 
			},
			{
				"x": -0.2119784249,
				"y": 2.7862780553,
				"z": 1.1496484555,
				"element": "H" 
			},
			{
				"x": -0.229115899,
				"y": -3.0058557416,
				"z": 0.3068409765,
				"element": "H" 
			},
			{
				"x": 0.9638141005,
				"y": -1.3525374386,
				"z": -1.1629405423,
				"element": "H" 
			},
			{
				"x": 0.543836643,
				"y": 1.0945147745,
				"z": -0.8108166204,
				"element": "H" 
			}
		],
		 "valence_orbital": [ 
			{
				"type": "occ",
				"energy": -0.30902,
				"method": "rhf"
			},
			{
				"type": "occ",
				"energy": -0.3051,
				"method": "rhf"
			},
			{
				"type": "occ",
				"energy": -0.3011,
				"method": "rhf"
			},
			{
				"type": "occ",
				"energy": -0.28475,
				"method": "rhf"
			},
			{
				"type": "occ",
				"energy": -0.26488,
				"method": "rhf"
			},
			{
				"type": "unocc",
				"energy": -0.05268,
				"method": "rhf"
			},
			{
				"type": "unocc",
				"energy": -0.03964,
				"method": "rhf"
			},
			{
				"type": "unocc",
				"energy": 0.02658,
				"method": "rhf"
			},
			{
				"type": "unocc",
				"energy": 0.03246,
				"method": "rhf"
			},
			{
				"type": "unocc",
				"energy": 0.08934,
				"method": "rhf"
			}
		],
		"cosmo_sigma_profile": { 
			"-0.025": 0.0,
			"-0.024": 0.0,
			"-0.023": 0.0,
			"-0.022": 0.0,
			"-0.021": 0.0,
			"-0.02": 0.0,
			"-0.019": 0.0,
			"-0.018": 0.0,
			"-0.017": 0.0,
			"-0.016": 0.0,
			"-0.015": 0.0,
			"-0.014": 0.0,
			"-0.013": 0.0,
			"-0.012": 0.0,
			"-0.011": 0.0,
			"-0.01": 0.0,
			"-0.009": 0.997543413541,
			"-0.008": 9.70256753417,
			"-0.007": 11.1697957021,
			"-0.006": 9.75918218438,
			"-0.005": 8.96787428553,
			"-0.004": 7.12548718937,
			"-0.003": 6.60509966206,
			"-0.002": 8.02756897972,
			"-0.001": 13.81169673,
			"0.0": 17.2477169852,
			"0.001": 16.4475068181,
			"0.002": 12.2848935545,
			"0.003": 11.3877964051,
			"0.004": 15.6503531603,
			"0.005": 12.0743187503,
			"0.006": 11.212131385,
			"0.007": 3.36305410912,
			"0.008": 1.60391636804,
			"0.009": 1.10656888606,
			"0.01": 1.13948403607,
			"0.011": 0.583824972441,
			"0.012": 0.485072479382,
			"0.013": 0.671669380093,
			"0.014": 0.00269215449391,
			"0.015": 0.0,
			"0.016": 0.0,
			"0.017": 0.0,
			"0.018": 0.0,
			"0.019": 0.0,
			"0.02": 0.0,
			"0.021": 0.0,
			"0.022": 0.0,
			"0.023": 0.0,
			"0.024": 0.0,
			"0.025": 0.0
		}
	}
}
