{
	 "smiles": "CC(=O)C1=CC(=NO1)C1=C(Cl)C=CC=C1Cl", 
	 "Tm": 391.15, 
	 "num_atms": 23, 
	 "gaussian": { 
		 "optdone": 1, 
		 "sigma_profile": "yes", 
		 "theory": "DFT", 
		 "functional": "B3LYP", 
		 "basiset": "6-31G**", 
		 "properties": { 
			 "R2extent": 5323.1799, 
			 "electric_dipole_moment_norm": 6.07016446729, 
			 "electric_quadrupole_moment_norm": 22.544257489, 
			 "total_energy": -1548.90852694, 
			 "HOMO_LUMO_gap": 0.1863, 
			 "cosmo_polarized_energy": -14.82, 
			 "cosmo_cavitation_energy": 32.77, 
			 "cosmo_dispersion_energy": -22.87, 
			 "cosmo_repulsion_energy": 1.81, 
			 "cosmo_total_nonelectrostatic_energy": 11.7, 
			 "SMD_solvation_energy": 5.61 
		},
		"coords": [
			{
				"x": -3.6495173242,
				"y": -2.368079195,
				"z": 1.6819583596,
				"element": "C" 
			},
			{
				"x": -2.9046674975,
				"y": -3.1515388739,
				"z": 0.6190102621,
				"element": "C" 
			},
			{
				"x": -3.2296063487,
				"y": -4.2710707774,
				"z": 0.272064894,
				"element": "O" 
			},
			{
				"x": -1.7295308633,
				"y": -2.474229243,
				"z": 0.0061043905,
				"element": "C" 
			},
			{
				"x": -1.150660122,
				"y": -1.2505189495,
				"z": 0.1985199461,
				"element": "C" 
			},
			{
				"x": -0.059829028,
				"y": -1.2428872144,
				"z": -0.7149971104,
				"element": "C" 
			},
			{
				"x": 0.003217727,
				"y": -2.3717100039,
				"z": -1.3952124999,
				"element": "N" 
			},
			{
				"x": -1.0443114438,
				"y": -3.1488649918,
				"z": -0.9445762001,
				"element": "O" 
			},
			{
				"x": 0.9345262716,
				"y": -0.167176981,
				"z": -0.9542460357,
				"element": "C" 
			},
			{
				"x": 0.7149743856,
				"y": 0.8364902035,
				"z": -1.9133768488,
				"element": "C" 
			},
			{
				"x": -0.7673328351,
				"y": 0.8359107932,
				"z": -2.850327648,
				"element": "Cl" 
			},
			{
				"x": 1.6421214543,
				"y": 1.8506445757,
				"z": -2.1471454713,
				"element": "C" 
			},
			{
				"x": 2.8230584691,
				"y": 1.876233838,
				"z": -1.4085445153,
				"element": "C" 
			},
			{
				"x": 3.0762461046,
				"y": 0.9039755953,
				"z": -0.4434501192,
				"element": "C" 
			},
			{
				"x": 2.1350549259,
				"y": -0.1009098999,
				"z": -0.2263497678,
				"element": "C" 
			},
			{
				"x": 2.4756819962,
				"y": -1.3047549856,
				"z": 1.0024035316,
				"element": "Cl" 
			},
			{
				"x": -2.984823802,
				"y": -2.1174820384,
				"z": 2.5161150806,
				"element": "H" 
			},
			{
				"x": -4.4804232219,
				"y": -2.9724879599,
				"z": 2.0465165678,
				"element": "H" 
			},
			{
				"x": -4.0327825443,
				"y": -1.4268291095,
				"z": 1.2725966404,
				"element": "H" 
			},
			{
				"x": -1.4446010962,
				"y": -0.4679905611,
				"z": 0.8802676633,
				"element": "H" 
			},
			{
				"x": 1.4352182474,
				"y": 2.6032856679,
				"z": -2.8988677898,
				"element": "H" 
			},
			{
				"x": 3.551547918,
				"y": 2.6612886751,
				"z": -1.5855477283,
				"element": "H" 
			},
			{
				"x": 3.9910386273,
				"y": 0.9162014355,
				"z": 0.1373843987,
				"element": "H" 
			}
		],
		 "valence_orbital": [ 
			{
				"type": "occ",
				"energy": -0.30489,
				"method": "rhf"
			},
			{
				"type": "occ",
				"energy": -0.2817,
				"method": "rhf"
			},
			{
				"type": "occ",
				"energy": -0.27649,
				"method": "rhf"
			},
			{
				"type": "occ",
				"energy": -0.26616,
				"method": "rhf"
			},
			{
				"type": "occ",
				"energy": -0.26203,
				"method": "rhf"
			},
			{
				"type": "unocc",
				"energy": -0.07573,
				"method": "rhf"
			},
			{
				"type": "unocc",
				"energy": -0.04185,
				"method": "rhf"
			},
			{
				"type": "unocc",
				"energy": -0.0352,
				"method": "rhf"
			},
			{
				"type": "unocc",
				"energy": -0.00269,
				"method": "rhf"
			},
			{
				"type": "unocc",
				"energy": 0.00527,
				"method": "rhf"
			}
		],
		"cosmo_sigma_profile": { 
			"-0.025": 0.0,
			"-0.024": 0.0,
			"-0.023": 0.0,
			"-0.022": 0.0,
			"-0.021": 0.0,
			"-0.02": 0.0,
			"-0.019": 0.0,
			"-0.018": 0.0,
			"-0.017": 0.0,
			"-0.016": 0.0,
			"-0.015": 0.0,
			"-0.014": 0.0,
			"-0.013": 0.0,
			"-0.012": 0.0,
			"-0.011": 0.0390663358381,
			"-0.01": 1.43075606224,
			"-0.009": 2.13655458269,
			"-0.008": 8.32110108515,
			"-0.007": 16.1941545782,
			"-0.006": 14.5535149804,
			"-0.005": 11.7312950705,
			"-0.004": 12.7826576322,
			"-0.003": 16.1445318704,
			"-0.002": 19.0637932295,
			"-0.001": 17.6746913322,
			"0.0": 25.0388253047,
			"0.001": 25.0186351023,
			"0.002": 23.8979674991,
			"0.003": 19.8739166537,
			"0.004": 16.1873807311,
			"0.005": 4.56800104505,
			"0.006": 5.64520178125,
			"0.007": 4.84395841427,
			"0.008": 4.62392742832,
			"0.009": 4.39289833131,
			"0.01": 5.07659637955,
			"0.011": 5.70941900848,
			"0.012": 2.79850074791,
			"0.013": 0.425924393742,
			"0.014": 0.0,
			"0.015": 0.0,
			"0.016": 0.0,
			"0.017": 0.0,
			"0.018": 0.0,
			"0.019": 0.0,
			"0.02": 0.0,
			"0.021": 0.0,
			"0.022": 0.0,
			"0.023": 0.0,
			"0.024": 0.0,
			"0.025": 0.0
		}
	}
}
