{
	 "smiles": "OC(=O)C1=CC(F)=C(CS)C=C1", 
	 "Tm": 410.15, 
	 "num_atms": 19, 
	 "gaussian": { 
		 "optdone": 1, 
		 "sigma_profile": "yes", 
		 "theory": "DFT", 
		 "functional": "B3LYP", 
		 "basiset": "6-31G**", 
		 "properties": { 
			 "R2extent": 3051.9413, 
			 "electric_dipole_moment_norm": 3.25835739599, 
			 "electric_quadrupole_moment_norm": 22.674370533, 
			 "total_energy": -957.546811093, 
			 "HOMO_LUMO_gap": 0.18287, 
			 "cosmo_polarized_energy": -16.65, 
			 "cosmo_cavitation_energy": 25.95, 
			 "cosmo_dispersion_energy": -19.12, 
			 "cosmo_repulsion_energy": 1.46, 
			 "cosmo_total_nonelectrostatic_energy": 8.3, 
			 "SMD_solvation_energy": 5.48 
		},
		"coords": [
			{
				"x": -2.5840579642,
				"y": 2.1872437835,
				"z": -1.4823330814,
				"element": "O" 
			},
			{
				"x": -2.5459346991,
				"y": 1.1115399611,
				"z": -0.6524780051,
				"element": "C" 
			},
			{
				"x": -3.5660548077,
				"y": 0.6863163715,
				"z": -0.1647005642,
				"element": "O" 
			},
			{
				"x": -1.1987306587,
				"y": 0.5057702946,
				"z": -0.3885833529,
				"element": "C" 
			},
			{
				"x": -0.1003326184,
				"y": 0.6951352396,
				"z": -1.2395761633,
				"element": "C" 
			},
			{
				"x": 1.1059135512,
				"y": 0.0860091163,
				"z": -0.9284783191,
				"element": "C" 
			},
			{
				"x": 2.1549857605,
				"y": 0.2734101428,
				"z": -1.7545748433,
				"element": "F" 
			},
			{
				"x": 1.2829267492,
				"y": -0.7133868537,
				"z": 0.2049025145,
				"element": "C" 
			},
			{
				"x": 2.6079403374,
				"y": -1.360994918,
				"z": 0.490056033,
				"element": "C" 
			},
			{
				"x": 2.9156940557,
				"y": -2.9035954118,
				"z": -0.492636779,
				"element": "S" 
			},
			{
				"x": 0.1697096886,
				"y": -0.8920549683,
				"z": 1.037480239,
				"element": "C" 
			},
			{
				"x": -1.0572461241,
				"y": -0.3027022468,
				"z": 0.7459556593,
				"element": "C" 
			},
			{
				"x": -1.6901063992,
				"y": 2.5128526195,
				"z": -1.6555780942,
				"element": "H" 
			},
			{
				"x": -0.1599182804,
				"y": 1.2677107053,
				"z": -2.1602358374,
				"element": "H" 
			},
			{
				"x": 3.4320367413,
				"y": -0.7039321563,
				"z": 0.2046405235,
				"element": "H" 
			},
			{
				"x": 2.7072866314,
				"y": -1.5897092643,
				"z": 1.5528543189,
				"element": "H" 
			},
			{
				"x": 1.8784359153,
				"y": -3.6073230244,
				"z": 0.0047046072,
				"element": "H" 
			},
			{
				"x": 0.2741520242,
				"y": -1.5047662644,
				"z": 1.9290992129,
				"element": "H" 
			},
			{
				"x": -1.9193999033,
				"y": -0.4519231262,
				"z": 1.3858819319,
				"element": "H" 
			}
		],
		 "valence_orbital": [ 
			{
				"type": "occ",
				"energy": -0.3224,
				"method": "rhf"
			},
			{
				"type": "occ",
				"energy": -0.28431,
				"method": "rhf"
			},
			{
				"type": "occ",
				"energy": -0.27983,
				"method": "rhf"
			},
			{
				"type": "occ",
				"energy": -0.2661,
				"method": "rhf"
			},
			{
				"type": "occ",
				"energy": -0.24836,
				"method": "rhf"
			},
			{
				"type": "unocc",
				"energy": -0.06549,
				"method": "rhf"
			},
			{
				"type": "unocc",
				"energy": -0.02755,
				"method": "rhf"
			},
			{
				"type": "unocc",
				"energy": 0.0115,
				"method": "rhf"
			},
			{
				"type": "unocc",
				"energy": 0.03806,
				"method": "rhf"
			},
			{
				"type": "unocc",
				"energy": 0.05101,
				"method": "rhf"
			}
		],
		"cosmo_sigma_profile": { 
			"-0.025": 0.0,
			"-0.024": 0.0,
			"-0.023": 0.0,
			"-0.022": 0.0,
			"-0.021": 0.0,
			"-0.02": 0.0,
			"-0.019": 0.40655907745,
			"-0.018": 1.22661657806,
			"-0.017": 0.97617309764,
			"-0.016": 1.14378142312,
			"-0.015": 0.88472688856,
			"-0.014": 0.987355704774,
			"-0.013": 0.893221412045,
			"-0.012": 1.38142231177,
			"-0.011": 1.25824031748,
			"-0.01": 1.43440275911,
			"-0.009": 3.4214759058,
			"-0.008": 5.31150992054,
			"-0.007": 12.204887311,
			"-0.006": 10.9139566648,
			"-0.005": 10.1840395868,
			"-0.004": 9.91394713038,
			"-0.003": 10.2057355729,
			"-0.002": 11.2813551562,
			"-0.001": 12.6984582051,
			"0.0": 12.258537173,
			"0.001": 15.1981434721,
			"0.002": 13.7017136662,
			"0.003": 13.0559971088,
			"0.004": 11.5121246,
			"0.005": 7.24896103243,
			"0.006": 6.72393832756,
			"0.007": 4.78062249013,
			"0.008": 5.45971060862,
			"0.009": 6.31125318417,
			"0.01": 5.82200799229,
			"0.011": 5.67620406072,
			"0.012": 4.25935306206,
			"0.013": 1.1584421573,
			"0.014": 0.0,
			"0.015": 0.0,
			"0.016": 0.0,
			"0.017": 0.0,
			"0.018": 0.0,
			"0.019": 0.0,
			"0.02": 0.0,
			"0.021": 0.0,
			"0.022": 0.0,
			"0.023": 0.0,
			"0.024": 0.0,
			"0.025": 0.0
		}
	}
}
