{
	 "smiles": "COC(=O)C1=CC2=C(N1)C=CC(=C2)S(C)(=O)=O", 
	 "Tm": 450.15, 
	 "num_atms": 28, 
	 "gaussian": { 
		 "optdone": 1, 
		 "sigma_profile": "yes", 
		 "theory": "DFT", 
		 "functional": "B3LYP", 
		 "basiset": "6-31G**", 
		 "properties": { 
			 "R2extent": 7443.6716, 
			 "electric_dipole_moment_norm": 5.75954454449, 
			 "electric_quadrupole_moment_norm": 30.708784996, 
			 "total_energy": -1179.59167818, 
			 "HOMO_LUMO_gap": 0.16936, 
			 "cosmo_polarized_energy": -20.38, 
			 "cosmo_cavitation_energy": 34.5, 
			 "cosmo_dispersion_energy": -25.49, 
			 "cosmo_repulsion_energy": 1.92, 
			 "cosmo_total_nonelectrostatic_energy": 10.92, 
			 "SMD_solvation_energy": 6.85 
		},
		"coords": [
			{
				"x": -3.3567396158,
				"y": -3.7668513838,
				"z": -1.0442680485,
				"element": "C" 
			},
			{
				"x": -2.579923472,
				"y": -2.708815231,
				"z": -0.4566472074,
				"element": "O" 
			},
			{
				"x": -1.2508376999,
				"y": -2.8017132466,
				"z": -0.6439239525,
				"element": "C" 
			},
			{
				"x": -0.7001389382,
				"y": -3.7006542975,
				"z": -1.2574171045,
				"element": "O" 
			},
			{
				"x": -0.5177672285,
				"y": -1.6922587278,
				"z": -0.0245397386,
				"element": "C" 
			},
			{
				"x": -0.922893715,
				"y": -0.5927047823,
				"z": 0.6988309453,
				"element": "C" 
			},
			{
				"x": 0.2603406361,
				"y": 0.1353276929,
				"z": 1.037493556,
				"element": "C" 
			},
			{
				"x": 1.3672271256,
				"y": -0.5803929984,
				"z": 0.4815888066,
				"element": "C" 
			},
			{
				"x": 0.8613694559,
				"y": -1.6813024579,
				"z": -0.152157068,
				"element": "N" 
			},
			{
				"x": 2.6911927673,
				"y": -0.133691061,
				"z": 0.6136324572,
				"element": "C" 
			},
			{
				"x": 2.90562044,
				"y": 1.0391427702,
				"z": 1.3180209292,
				"element": "C" 
			},
			{
				"x": 1.8171499545,
				"y": 1.7447186352,
				"z": 1.8821041471,
				"element": "C" 
			},
			{
				"x": 0.5026696912,
				"y": 1.3225084537,
				"z": 1.749579972,
				"element": "C" 
			},
			{
				"x": 2.1488046315,
				"y": 3.2535639856,
				"z": 2.7974753698,
				"element": "S" 
			},
			{
				"x": 2.5081836084,
				"y": 2.6719458007,
				"z": 4.4735978105,
				"element": "C" 
			},
			{
				"x": 0.9006879434,
				"y": 4.0309485643,
				"z": 2.863721651,
				"element": "O" 
			},
			{
				"x": 3.3874914859,
				"y": 3.8469505314,
				"z": 2.268157747,
				"element": "O" 
			},
			{
				"x": -3.0679723985,
				"y": -4.7335718398,
				"z": -0.6246205503,
				"element": "H" 
			},
			{
				"x": -3.2121854652,
				"y": -3.7930227995,
				"z": -2.1270378616,
				"element": "H" 
			},
			{
				"x": -4.3935643881,
				"y": -3.5370790747,
				"z": -0.8010359394,
				"element": "H" 
			},
			{
				"x": -1.9432870484,
				"y": -0.3459946852,
				"z": 0.9509110233,
				"element": "H" 
			},
			{
				"x": 1.362719389,
				"y": -2.3976119323,
				"z": -0.6566222102,
				"element": "H" 
			},
			{
				"x": 3.5183853765,
				"y": -0.6784879165,
				"z": 0.1694675659,
				"element": "H" 
			},
			{
				"x": 3.9062552357,
				"y": 1.4441109047,
				"z": 1.4228712036,
				"element": "H" 
			},
			{
				"x": -0.3047817803,
				"y": 1.9116253856,
				"z": 2.1716088961,
				"element": "H" 
			},
			{
				"x": 1.631923856,
				"y": 2.157607014,
				"z": 4.8703062597,
				"element": "H" 
			},
			{
				"x": 3.3749097062,
				"y": 2.0100831504,
				"z": 4.4468843729,
				"element": "H" 
			},
			{
				"x": 2.7284604466,
				"y": 3.5624195456,
				"z": 5.066016968,
				"element": "H" 
			}
		],
		 "valence_orbital": [ 
			{
				"type": "occ",
				"energy": -0.29388,
				"method": "rhf"
			},
			{
				"type": "occ",
				"energy": -0.28941,
				"method": "rhf"
			},
			{
				"type": "occ",
				"energy": -0.28195,
				"method": "rhf"
			},
			{
				"type": "occ",
				"energy": -0.25075,
				"method": "rhf"
			},
			{
				"type": "occ",
				"energy": -0.23345,
				"method": "rhf"
			},
			{
				"type": "unocc",
				"energy": -0.06409,
				"method": "rhf"
			},
			{
				"type": "unocc",
				"energy": -0.02106,
				"method": "rhf"
			},
			{
				"type": "unocc",
				"energy": 0.00517,
				"method": "rhf"
			},
			{
				"type": "unocc",
				"energy": 0.07137,
				"method": "rhf"
			},
			{
				"type": "unocc",
				"energy": 0.08221,
				"method": "rhf"
			}
		],
		"cosmo_sigma_profile": { 
			"-0.025": 0.0,
			"-0.024": 0.0,
			"-0.023": 0.0,
			"-0.022": 0.0,
			"-0.021": 0.0,
			"-0.02": 0.0,
			"-0.019": 0.0,
			"-0.018": 0.0,
			"-0.017": 0.0,
			"-0.016": 0.370115582051,
			"-0.015": 1.23725823935,
			"-0.014": 0.817181228586,
			"-0.013": 1.20676135037,
			"-0.012": 0.721749562917,
			"-0.011": 0.995145453571,
			"-0.01": 0.885411846857,
			"-0.009": 2.08033826141,
			"-0.008": 8.89929897526,
			"-0.007": 13.9889453307,
			"-0.006": 18.6989592505,
			"-0.005": 20.2289473995,
			"-0.004": 21.8614923285,
			"-0.003": 20.4781048761,
			"-0.002": 14.8394665448,
			"-0.001": 13.5667176157,
			"0.0": 12.5590543887,
			"0.001": 18.6853951391,
			"0.002": 23.1325141057,
			"0.003": 17.4897369713,
			"0.004": 7.85655393954,
			"0.005": 4.2200396112,
			"0.006": 5.58982636568,
			"0.007": 4.12536596148,
			"0.008": 4.49325666868,
			"0.009": 4.97470221124,
			"0.01": 6.0891405743,
			"0.011": 11.4049818562,
			"0.012": 12.1434562283,
			"0.013": 2.11290146231,
			"0.014": 0.0,
			"0.015": 0.0,
			"0.016": 0.0,
			"0.017": 0.0,
			"0.018": 0.0,
			"0.019": 0.0,
			"0.02": 0.0,
			"0.021": 0.0,
			"0.022": 0.0,
			"0.023": 0.0,
			"0.024": 0.0,
			"0.025": 0.0
		}
	}
}
