{
	 "smiles": "NC1=CC(Br)=C(S)C=C1", 
	 "Tm": 368.15, 
	 "num_atms": 15, 
	 "gaussian": { 
		 "optdone": 1, 
		 "sigma_profile": "yes", 
		 "theory": "DFT", 
		 "functional": "B3LYP", 
		 "basiset": "6-31G**", 
		 "properties": { 
			 "R2extent": 3708.3397, 
			 "electric_dipole_moment_norm": 3.29492979743, 
			 "electric_quadrupole_moment_norm": 9.28675407233, 
			 "total_energy": -3256.594439, 
			 "HOMO_LUMO_gap": 0.18346, 
			 "cosmo_polarized_energy": -9.63, 
			 "cosmo_cavitation_energy": 22.59, 
			 "cosmo_dispersion_energy": -17.91, 
			 "cosmo_repulsion_energy": 1.41, 
			 "cosmo_total_nonelectrostatic_energy": 6.09, 
			 "SMD_solvation_energy": 2.18 
		},
		"coords": [
			{
				"x": -1.0771160539,
				"y": -2.2013703313,
				"z": -0.830702177,
				"element": "N" 
			},
			{
				"x": -0.3559595335,
				"y": -1.27240348,
				"z": -0.0799295851,
				"element": "C" 
			},
			{
				"x": -0.0567717257,
				"y": -1.5148354191,
				"z": 1.2675073068,
				"element": "C" 
			},
			{
				"x": 0.6141756923,
				"y": -0.5590405291,
				"z": 2.0289464976,
				"element": "C" 
			},
			{
				"x": 0.9670059448,
				"y": -1.0163460607,
				"z": 3.8590338866,
				"element": "Br" 
			},
			{
				"x": 1.0130686834,
				"y": 0.6723762012,
				"z": 1.4918559603,
				"element": "C" 
			},
			{
				"x": 1.8867539996,
				"y": 1.9702374507,
				"z": 2.3480838249,
				"element": "S" 
			},
			{
				"x": 0.7022672566,
				"y": 0.8993920271,
				"z": 0.1401554932,
				"element": "C" 
			},
			{
				"x": 0.0382467974,
				"y": -0.041620658,
				"z": -0.6327896716,
				"element": "C" 
			},
			{
				"x": -1.0283152708,
				"y": -3.1551352128,
				"z": -0.4998595272,
				"element": "H" 
			},
			{
				"x": -0.9405822936,
				"y": -2.1431099359,
				"z": -1.8304238794,
				"element": "H" 
			},
			{
				"x": -0.3497666876,
				"y": -2.4511560302,
				"z": 1.7302143339,
				"element": "H" 
			},
			{
				"x": 1.8658403425,
				"y": 1.3978017995,
				"z": 3.5662868791,
				"element": "H" 
			},
			{
				"x": 0.9927992387,
				"y": 1.8436524626,
				"z": -0.311557363,
				"element": "H" 
			},
			{
				"x": -0.1857463903,
				"y": 0.1791577159,
				"z": -1.6729219791,
				"element": "H" 
			}
		],
		 "valence_orbital": [ 
			{
				"type": "occ",
				"energy": -0.30944,
				"method": "rhf"
			},
			{
				"type": "occ",
				"energy": -0.29133,
				"method": "rhf"
			},
			{
				"type": "occ",
				"energy": -0.26435,
				"method": "rhf"
			},
			{
				"type": "occ",
				"energy": -0.24793,
				"method": "rhf"
			},
			{
				"type": "occ",
				"energy": -0.19755,
				"method": "rhf"
			},
			{
				"type": "unocc",
				"energy": -0.01409,
				"method": "rhf"
			},
			{
				"type": "unocc",
				"energy": -0.00647,
				"method": "rhf"
			},
			{
				"type": "unocc",
				"energy": 0.00388,
				"method": "rhf"
			},
			{
				"type": "unocc",
				"energy": 0.04035,
				"method": "rhf"
			},
			{
				"type": "unocc",
				"energy": 0.07018,
				"method": "rhf"
			}
		],
		"cosmo_sigma_profile": { 
			"-0.025": 0.0,
			"-0.024": 0.0,
			"-0.023": 0.0,
			"-0.022": 0.0,
			"-0.021": 0.0,
			"-0.02": 0.0,
			"-0.019": 0.0,
			"-0.018": 0.0,
			"-0.017": 0.0,
			"-0.016": 0.0,
			"-0.015": 0.0,
			"-0.014": 0.0,
			"-0.013": 1.14317622533,
			"-0.012": 3.01119861608,
			"-0.011": 2.96293929582,
			"-0.01": 3.48806620047,
			"-0.009": 4.07959694249,
			"-0.008": 4.66661616759,
			"-0.007": 6.46470674135,
			"-0.006": 6.77583870428,
			"-0.005": 8.31700776336,
			"-0.004": 8.25560797207,
			"-0.003": 8.97787955479,
			"-0.002": 8.18984144065,
			"-0.001": 9.10790164257,
			"0.0": 9.60826480219,
			"0.001": 12.3318760837,
			"0.002": 15.5053404485,
			"0.003": 17.9948707417,
			"0.004": 25.6397684698,
			"0.005": 12.392983148,
			"0.006": 4.3837971408,
			"0.007": 3.93857861736,
			"0.008": 3.15808350977,
			"0.009": 2.3860190661,
			"0.01": 0.855330324676,
			"0.011": 0.602715447205,
			"0.012": 0.588252054282,
			"0.013": 0.612621457798,
			"0.014": 0.515298753505,
			"0.015": 0.0221204847402,
			"0.016": 0.0,
			"0.017": 0.0,
			"0.018": 0.0,
			"0.019": 0.0,
			"0.02": 0.0,
			"0.021": 0.0,
			"0.022": 0.0,
			"0.023": 0.0,
			"0.024": 0.0,
			"0.025": 0.0
		}
	}
}
