{
	 "smiles": "OC(=O)C1=CC(=CN1)S(=O)(=O)NC1=C(F)C=CC=C1", 
	 "Tm": 481.15, 
	 "num_atms": 28, 
	 "gaussian": { 
		 "optdone": 1, 
		 "sigma_profile": "yes", 
		 "theory": "DFT", 
		 "functional": "B3LYP", 
		 "basiset": "6-31G**", 
		 "properties": { 
			 "R2extent": 5995.0958, 
			 "electric_dipole_moment_norm": 7.10681828528, 
			 "electric_quadrupole_moment_norm": 30.982204188, 
			 "total_energy": -1332.94588218, 
			 "HOMO_LUMO_gap": 0.19187, 
			 "cosmo_polarized_energy": -27.58, 
			 "cosmo_cavitation_energy": 35.81, 
			 "cosmo_dispersion_energy": -25.05, 
			 "cosmo_repulsion_energy": 1.88, 
			 "cosmo_total_nonelectrostatic_energy": 12.64, 
			 "SMD_solvation_energy": 7.1 
		},
		"coords": [
			{
				"x": -4.8140256652,
				"y": 1.1252346733,
				"z": 1.0791362551,
				"element": "O" 
			},
			{
				"x": -3.8253486104,
				"y": 0.212618172,
				"z": 0.8460527457,
				"element": "C" 
			},
			{
				"x": -3.7899204461,
				"y": -0.8744882706,
				"z": 1.3821542125,
				"element": "O" 
			},
			{
				"x": -2.8466119133,
				"y": 0.721171036,
				"z": -0.1104134813,
				"element": "C" 
			},
			{
				"x": -1.7161942973,
				"y": 0.1073103232,
				"z": -0.621256187,
				"element": "C" 
			},
			{
				"x": -1.1256532432,
				"y": 1.0358042582,
				"z": -1.5140800696,
				"element": "C" 
			},
			{
				"x": -1.9077699175,
				"y": 2.1852274783,
				"z": -1.5304285797,
				"element": "C" 
			},
			{
				"x": -2.9416106288,
				"y": 1.9809593317,
				"z": -0.6775753149,
				"element": "N" 
			},
			{
				"x": 0.3372340253,
				"y": 0.8299632822,
				"z": -2.4856177387,
				"element": "S" 
			},
			{
				"x": 0.3792378571,
				"y": -0.5546045524,
				"z": -2.9396411646,
				"element": "O" 
			},
			{
				"x": 0.4026200574,
				"y": 1.9798221215,
				"z": -3.3881926076,
				"element": "O" 
			},
			{
				"x": 1.6603356904,
				"y": 1.0371205013,
				"z": -1.433888745,
				"element": "N" 
			},
			{
				"x": 1.9445605818,
				"y": 0.0729455874,
				"z": -0.4251622617,
				"element": "C" 
			},
			{
				"x": 2.6630223289,
				"y": -1.0845000388,
				"z": -0.7586640196,
				"element": "C" 
			},
			{
				"x": 3.0611314844,
				"y": -1.273298326,
				"z": -2.0218348955,
				"element": "F" 
			},
			{
				"x": 2.9885891104,
				"y": -2.0372119421,
				"z": 0.1998098432,
				"element": "C" 
			},
			{
				"x": 2.6153987384,
				"y": -1.8292915816,
				"z": 1.5280375717,
				"element": "C" 
			},
			{
				"x": 1.9176194737,
				"y": -0.6749663352,
				"z": 1.8886838696,
				"element": "C" 
			},
			{
				"x": 1.5775413233,
				"y": 0.262460648,
				"z": 0.913630403,
				"element": "C" 
			},
			{
				"x": -5.4191546067,
				"y": 0.7107230393,
				"z": 1.715522451,
				"element": "H" 
			},
			{
				"x": -1.3771271121,
				"y": -0.8899448324,
				"z": -0.3871065439,
				"element": "H" 
			},
			{
				"x": -1.7878930536,
				"y": 3.0910362545,
				"z": -2.1045474831,
				"element": "H" 
			},
			{
				"x": -3.6979272924,
				"y": 2.6216719319,
				"z": -0.4865834255,
				"element": "H" 
			},
			{
				"x": 1.7129546859,
				"y": 2.0053790841,
				"z": -1.1326379821,
				"element": "H" 
			},
			{
				"x": 3.5421822438,
				"y": -2.9173339533,
				"z": -0.1087021401,
				"element": "H" 
			},
			{
				"x": 2.8742792445,
				"y": -2.5688378893,
				"z": 2.2793948832,
				"element": "H" 
			},
			{
				"x": 1.6294376792,
				"y": -0.5085903162,
				"z": 2.9216162273,
				"element": "H" 
			},
			{
				"x": 1.0221922617,
				"y": 1.1569203148,
				"z": 1.1815941777,
				"element": "H" 
			}
		],
		 "valence_orbital": [ 
			{
				"type": "occ",
				"energy": -0.29322,
				"method": "rhf"
			},
			{
				"type": "occ",
				"energy": -0.27829,
				"method": "rhf"
			},
			{
				"type": "occ",
				"energy": -0.2627,
				"method": "rhf"
			},
			{
				"type": "occ",
				"energy": -0.25422,
				"method": "rhf"
			},
			{
				"type": "occ",
				"energy": -0.24196,
				"method": "rhf"
			},
			{
				"type": "unocc",
				"energy": -0.05009,
				"method": "rhf"
			},
			{
				"type": "unocc",
				"energy": -0.0276,
				"method": "rhf"
			},
			{
				"type": "unocc",
				"energy": -0.00761,
				"method": "rhf"
			},
			{
				"type": "unocc",
				"energy": 0.00328,
				"method": "rhf"
			},
			{
				"type": "unocc",
				"energy": 0.04734,
				"method": "rhf"
			}
		],
		"cosmo_sigma_profile": { 
			"-0.025": 0.0,
			"-0.024": 0.0,
			"-0.023": 0.0,
			"-0.022": 0.0,
			"-0.021": 0.0,
			"-0.02": 0.0,
			"-0.019": 0.206186910812,
			"-0.018": 0.938190292846,
			"-0.017": 2.24904523375,
			"-0.016": 1.92913874394,
			"-0.015": 2.73500054346,
			"-0.014": 3.17126407163,
			"-0.013": 2.20172155035,
			"-0.012": 3.06385464887,
			"-0.011": 3.94510989978,
			"-0.01": 4.59401958649,
			"-0.009": 3.28552438865,
			"-0.008": 4.77974607119,
			"-0.007": 10.5653709686,
			"-0.006": 13.3262980312,
			"-0.005": 13.6608900762,
			"-0.004": 11.9562076861,
			"-0.003": 13.4386969571,
			"-0.002": 15.8428508109,
			"-0.001": 13.7833377854,
			"0.0": 19.9830074054,
			"0.001": 21.8902729733,
			"0.002": 18.8772215347,
			"0.003": 16.119901133,
			"0.004": 17.5959941674,
			"0.005": 8.73846190833,
			"0.006": 8.95769194902,
			"0.007": 6.07855852203,
			"0.008": 6.85004154877,
			"0.009": 6.78173807918,
			"0.01": 11.5943720804,
			"0.011": 12.5302491986,
			"0.012": 5.33805362757,
			"0.013": 0.0890592781919,
			"0.014": 0.0,
			"0.015": 0.0,
			"0.016": 0.0,
			"0.017": 0.0,
			"0.018": 0.0,
			"0.019": 0.0,
			"0.02": 0.0,
			"0.021": 0.0,
			"0.022": 0.0,
			"0.023": 0.0,
			"0.024": 0.0,
			"0.025": 0.0
		}
	}
}
