{
	 "smiles": "CC1=CC(C)=NC(=O)N1", 
	 "Tm": 476.15, 
	 "num_atms": 17, 
	 "gaussian": { 
		 "optdone": 1, 
		 "sigma_profile": "yes", 
		 "theory": "DFT", 
		 "functional": "B3LYP", 
		 "basiset": "6-31G**", 
		 "properties": { 
			 "R2extent": 1320.9274, 
			 "electric_dipole_moment_norm": 6.32535397428, 
			 "electric_quadrupole_moment_norm": 13.9062358473, 
			 "total_energy": -418.206493863, 
			 "HOMO_LUMO_gap": 0.17947, 
			 "cosmo_polarized_energy": -19.21, 
			 "cosmo_cavitation_energy": 20.97, 
			 "cosmo_dispersion_energy": -15.64, 
			 "cosmo_repulsion_energy": 1.3, 
			 "cosmo_total_nonelectrostatic_energy": 6.62, 
			 "SMD_solvation_energy": 3.28 
		},
		"coords": [
			{
				"x": 1.7884302842,
				"y": 1.4433584304,
				"z": -0.7356744702,
				"element": "C" 
			},
			{
				"x": 0.5281790902,
				"y": 0.7690880283,
				"z": -0.2793257408,
				"element": "C" 
			},
			{
				"x": -0.3498577644,
				"y": 0.1110524896,
				"z": -1.0994977704,
				"element": "C" 
			},
			{
				"x": -1.5077614853,
				"y": -0.4794797798,
				"z": -0.5039784947,
				"element": "C" 
			},
			{
				"x": -2.5014185562,
				"y": -1.2143294963,
				"z": -1.3712540439,
				"element": "C" 
			},
			{
				"x": -1.7801753228,
				"y": -0.4289320706,
				"z": 0.781025481,
				"element": "N" 
			},
			{
				"x": -0.919731791,
				"y": 0.226128455,
				"z": 1.6431522346,
				"element": "C" 
			},
			{
				"x": -1.0715810694,
				"y": 0.3337908791,
				"z": 2.8476593409,
				"element": "O" 
			},
			{
				"x": 0.2335372625,
				"y": 0.8131064742,
				"z": 1.0462188758,
				"element": "N" 
			},
			{
				"x": 1.913560921,
				"y": 1.3391200943,
				"z": -1.8145607608,
				"element": "H" 
			},
			{
				"x": 1.769003973,
				"y": 2.511600766,
				"z": -0.4912117027,
				"element": "H" 
			},
			{
				"x": 2.664298537,
				"y": 1.0069943821,
				"z": -0.241994113,
				"element": "H" 
			},
			{
				"x": -0.1668872306,
				"y": 0.0437446046,
				"z": -2.1641388993,
				"element": "H" 
			},
			{
				"x": -3.4884640437,
				"y": -0.7523361494,
				"z": -1.2734008962,
				"element": "H" 
			},
			{
				"x": -2.2111964863,
				"y": -1.215835129,
				"z": -2.4246191654,
				"element": "H" 
			},
			{
				"x": -2.5981798134,
				"y": -2.2481061843,
				"z": -1.0259780778,
				"element": "H" 
			},
			{
				"x": 0.8459434953,
				"y": 1.285434206,
				"z": 1.7000782027,
				"element": "H" 
			}
		],
		 "valence_orbital": [ 
			{
				"type": "occ",
				"energy": -0.33558,
				"method": "rhf"
			},
			{
				"type": "occ",
				"energy": -0.31185,
				"method": "rhf"
			},
			{
				"type": "occ",
				"energy": -0.2625,
				"method": "rhf"
			},
			{
				"type": "occ",
				"energy": -0.24703,
				"method": "rhf"
			},
			{
				"type": "occ",
				"energy": -0.22894,
				"method": "rhf"
			},
			{
				"type": "unocc",
				"energy": -0.04947,
				"method": "rhf"
			},
			{
				"type": "unocc",
				"energy": 0.01713,
				"method": "rhf"
			},
			{
				"type": "unocc",
				"energy": 0.06682,
				"method": "rhf"
			},
			{
				"type": "unocc",
				"energy": 0.10235,
				"method": "rhf"
			},
			{
				"type": "unocc",
				"energy": 0.11448,
				"method": "rhf"
			}
		],
		"cosmo_sigma_profile": { 
			"-0.025": 0.0,
			"-0.024": 0.0,
			"-0.023": 0.0,
			"-0.022": 0.0,
			"-0.021": 0.0,
			"-0.02": 0.0,
			"-0.019": 0.0,
			"-0.018": 0.0,
			"-0.017": 0.0,
			"-0.016": 0.487415659014,
			"-0.015": 1.02143690145,
			"-0.014": 1.28300597338,
			"-0.013": 0.823570006953,
			"-0.012": 1.40703461146,
			"-0.011": 1.12104106423,
			"-0.01": 1.0762701888,
			"-0.009": 1.13771852448,
			"-0.008": 1.6997174804,
			"-0.007": 6.19077494539,
			"-0.006": 11.5015376952,
			"-0.005": 12.437319958,
			"-0.004": 13.6394176407,
			"-0.003": 13.7807318415,
			"-0.002": 18.7962688114,
			"-0.001": 19.4604075895,
			"0.0": 10.407665104,
			"0.001": 5.7010440166,
			"0.002": 4.82574960797,
			"0.003": 2.92000412305,
			"0.004": 2.20849424579,
			"0.005": 1.61895864134,
			"0.006": 1.83188095225,
			"0.007": 1.78337768877,
			"0.008": 1.99189809261,
			"0.009": 1.47533576289,
			"0.01": 2.02442004711,
			"0.011": 2.40639054313,
			"0.012": 1.73519854549,
			"0.013": 3.94717082797,
			"0.014": 7.46222601464,
			"0.015": 3.50857395101,
			"0.016": 2.85648049737,
			"0.017": 1.40465534464,
			"0.018": 0.125045757425,
			"0.019": 0.0,
			"0.02": 0.0,
			"0.021": 0.0,
			"0.022": 0.0,
			"0.023": 0.0,
			"0.024": 0.0,
			"0.025": 0.0
		}
	}
}
