{
	 "smiles": "CCCCCCCCCC#N", 
	 "Tm": 256.75, 
	 "num_atms": 30, 
	 "gaussian": { 
		 "optdone": 1, 
		 "sigma_profile": "yes", 
		 "theory": "DFT", 
		 "functional": "B3LYP", 
		 "basiset": "6-31G**", 
		 "properties": { 
			 "R2extent": 3990.4258, 
			 "electric_dipole_moment_norm": 4.20519237253, 
			 "electric_quadrupole_moment_norm": 24.1327307676, 
			 "total_energy": -447.270309735, 
			 "HOMO_LUMO_gap": 0.34383, 
			 "cosmo_polarized_energy": -8.43, 
			 "cosmo_cavitation_energy": 31.49, 
			 "cosmo_dispersion_energy": -21.32, 
			 "cosmo_repulsion_energy": 1.77, 
			 "cosmo_total_nonelectrostatic_energy": 11.94, 
			 "SMD_solvation_energy": 6.05 
		},
		"coords": [
			{
				"x": -0.079658468,
				"y": -2.4667769621,
				"z": -2.1704106527,
				"element": "C" 
			},
			{
				"x": -1.1504505042,
				"y": -1.4360382244,
				"z": -1.7924139224,
				"element": "C" 
			},
			{
				"x": -0.9455037016,
				"y": -0.7734778918,
				"z": -0.4193917411,
				"element": "C" 
			},
			{
				"x": 0.3246270618,
				"y": 0.0865711596,
				"z": -0.3089597318,
				"element": "C" 
			},
			{
				"x": 0.5062523155,
				"y": 0.8084564002,
				"z": 1.0457914333,
				"element": "C" 
			},
			{
				"x": -0.0532465973,
				"y": 2.2397642756,
				"z": 1.1767244228,
				"element": "C" 
			},
			{
				"x": -1.5873053035,
				"y": 2.4120343639,
				"z": 1.0963936559,
				"element": "C" 
			},
			{
				"x": -2.1665209051,
				"y": 2.6758086399,
				"z": -0.3054654542,
				"element": "C" 
			},
			{
				"x": -1.8418320859,
				"y": 4.0953376806,
				"z": -0.8223254138,
				"element": "C" 
			},
			{
				"x": -2.3856815179,
				"y": 4.3468150365,
				"z": -2.1593402614,
				"element": "C" 
			},
			{
				"x": -2.8232028818,
				"y": 4.5280295084,
				"z": -3.2192403413,
				"element": "N" 
			},
			{
				"x": -0.3154944832,
				"y": -2.9441020052,
				"z": -3.1271133066,
				"element": "H" 
			},
			{
				"x": -0.0088822142,
				"y": -3.2572749028,
				"z": -1.4138816388,
				"element": "H" 
			},
			{
				"x": 0.9116708264,
				"y": -2.0127831238,
				"z": -2.2684095833,
				"element": "H" 
			},
			{
				"x": -2.1324989566,
				"y": -1.9258231869,
				"z": -1.7996839052,
				"element": "H" 
			},
			{
				"x": -1.1966233203,
				"y": -0.6573790465,
				"z": -2.5664058321,
				"element": "H" 
			},
			{
				"x": -0.9098110338,
				"y": -1.5527261776,
				"z": 0.3556517019,
				"element": "H" 
			},
			{
				"x": -1.829626727,
				"y": -0.1667478454,
				"z": -0.1905003358,
				"element": "H" 
			},
			{
				"x": 1.1935599598,
				"y": -0.5616869896,
				"z": -0.471910961,
				"element": "H" 
			},
			{
				"x": 0.349681935,
				"y": 0.8207288426,
				"z": -1.127191607,
				"element": "H" 
			},
			{
				"x": 0.0812785857,
				"y": 0.1848434566,
				"z": 1.8451725601,
				"element": "H" 
			},
			{
				"x": 1.5797908747,
				"y": 0.8723465429,
				"z": 1.2631445045,
				"element": "H" 
			},
			{
				"x": 0.4353597471,
				"y": 2.8792296229,
				"z": 0.4281121635,
				"element": "H" 
			},
			{
				"x": 0.281944011,
				"y": 2.62550198,
				"z": 2.1474435073,
				"element": "H" 
			},
			{
				"x": -2.0716849103,
				"y": 1.5228624674,
				"z": 1.517551206,
				"element": "H" 
			},
			{
				"x": -1.8889326274,
				"y": 3.2449849476,
				"z": 1.7458400235,
				"element": "H" 
			},
			{
				"x": -1.7942664682,
				"y": 1.9429241497,
				"z": -1.0273861823,
				"element": "H" 
			},
			{
				"x": -3.2559238639,
				"y": 2.5614916468,
				"z": -0.2793559302,
				"element": "H" 
			},
			{
				"x": -0.7586902721,
				"y": 4.2589009826,
				"z": -0.8601347895,
				"element": "H" 
			},
			{
				"x": -2.2494284748,
				"y": 4.8486846523,
				"z": -0.1369035882,
				"element": "H" 
			}
		],
		 "valence_orbital": [ 
			{
				"type": "occ",
				"energy": -0.32272,
				"method": "rhf"
			},
			{
				"type": "occ",
				"energy": -0.31808,
				"method": "rhf"
			},
			{
				"type": "occ",
				"energy": -0.31398,
				"method": "rhf"
			},
			{
				"type": "occ",
				"energy": -0.31045,
				"method": "rhf"
			},
			{
				"type": "occ",
				"energy": -0.30643,
				"method": "rhf"
			},
			{
				"type": "unocc",
				"energy": 0.0374,
				"method": "rhf"
			},
			{
				"type": "unocc",
				"energy": 0.04196,
				"method": "rhf"
			},
			{
				"type": "unocc",
				"energy": 0.06984,
				"method": "rhf"
			},
			{
				"type": "unocc",
				"energy": 0.0857,
				"method": "rhf"
			},
			{
				"type": "unocc",
				"energy": 0.08948,
				"method": "rhf"
			}
		],
		"cosmo_sigma_profile": { 
			"-0.025": 0.0,
			"-0.024": 0.0,
			"-0.023": 0.0,
			"-0.022": 0.0,
			"-0.021": 0.0,
			"-0.02": 0.0,
			"-0.019": 0.0,
			"-0.018": 0.0,
			"-0.017": 0.0,
			"-0.016": 0.0,
			"-0.015": 0.0,
			"-0.014": 0.0,
			"-0.013": 0.0,
			"-0.012": 0.0,
			"-0.011": 0.0,
			"-0.01": 0.0,
			"-0.009": 0.0,
			"-0.008": 0.594062473632,
			"-0.007": 5.02709448327,
			"-0.006": 6.096102495,
			"-0.005": 7.03968346579,
			"-0.004": 12.2318698968,
			"-0.003": 15.1369743786,
			"-0.002": 36.0489004695,
			"-0.001": 43.5072499211,
			"0.0": 40.4010201372,
			"0.001": 34.1855904258,
			"0.002": 13.1655224797,
			"0.003": 2.07753908796,
			"0.004": 1.97054052226,
			"0.005": 1.99467501724,
			"0.006": 2.57499716042,
			"0.007": 2.32438703487,
			"0.008": 3.48444048303,
			"0.009": 3.3076998309,
			"0.01": 3.86879487824,
			"0.011": 2.81557821321,
			"0.012": 2.81380163361,
			"0.013": 2.38286973337,
			"0.014": 0.866930794432,
			"0.015": 0.0,
			"0.016": 0.0,
			"0.017": 0.0,
			"0.018": 0.0,
			"0.019": 0.0,
			"0.02": 0.0,
			"0.021": 0.0,
			"0.022": 0.0,
			"0.023": 0.0,
			"0.024": 0.0,
			"0.025": 0.0
		}
	}
}
