{
	 "smiles": "OC(=O)C1=CC=C(C=C1)S(=O)(=O)NC1CC1", 
	 "Tm": 517.15, 
	 "num_atms": 27, 
	 "gaussian": { 
		 "optdone": 1, 
		 "sigma_profile": "yes", 
		 "theory": "DFT", 
		 "functional": "B3LYP", 
		 "basiset": "6-31G**", 
		 "properties": { 
			 "R2extent": 5140.1816, 
			 "electric_dipole_moment_norm": 4.78603290106, 
			 "electric_quadrupole_moment_norm": 15.5792598887, 
			 "total_energy": -1141.44204678, 
			 "HOMO_LUMO_gap": 0.19514, 
			 "cosmo_polarized_energy": -18.52, 
			 "cosmo_cavitation_energy": 32.97, 
			 "cosmo_dispersion_energy": -23.87, 
			 "cosmo_repulsion_energy": 1.82, 
			 "cosmo_total_nonelectrostatic_energy": 10.92, 
			 "SMD_solvation_energy": 5.38 
		},
		"coords": [
			{
				"x": -4.5003893861,
				"y": 2.460083258,
				"z": 1.8708461638,
				"element": "O" 
			},
			{
				"x": -4.3909909213,
				"y": 1.5537465567,
				"z": 0.8701774704,
				"element": "C" 
			},
			{
				"x": -5.35340343,
				"y": 0.9779742194,
				"z": 0.4047940834,
				"element": "O" 
			},
			{
				"x": -2.9843092407,
				"y": 1.3500977633,
				"z": 0.4211906879,
				"element": "C" 
			},
			{
				"x": -2.7579527922,
				"y": 0.4405002181,
				"z": -0.6203510354,
				"element": "C" 
			},
			{
				"x": -1.4644365986,
				"y": 0.2112511457,
				"z": -1.0805229643,
				"element": "C" 
			},
			{
				"x": -0.4010812307,
				"y": 0.8955239704,
				"z": -0.484192858,
				"element": "C" 
			},
			{
				"x": -0.6124067145,
				"y": 1.8123803438,
				"z": 0.5487385038,
				"element": "C" 
			},
			{
				"x": -1.9101935769,
				"y": 2.0399915172,
				"z": 1.0006718852,
				"element": "C" 
			},
			{
				"x": 1.2830037998,
				"y": 0.5767857053,
				"z": -1.043421433,
				"element": "S" 
			},
			{
				"x": 2.1088800947,
				"y": 1.7113093073,
				"z": -0.6254643613,
				"element": "O" 
			},
			{
				"x": 1.1942768995,
				"y": 0.134904386,
				"z": -2.4339017836,
				"element": "O" 
			},
			{
				"x": 1.8518766127,
				"y": -0.7222601366,
				"z": -0.1328083993,
				"element": "N" 
			},
			{
				"x": 1.1625802225,
				"y": -1.9893697387,
				"z": -0.1403364733,
				"element": "C" 
			},
			{
				"x": 1.3361892781,
				"y": -2.8752713635,
				"z": -1.347835893,
				"element": "C" 
			},
			{
				"x": 2.0282601219,
				"y": -3.2259900561,
				"z": -0.0596144529,
				"element": "C" 
			},
			{
				"x": -5.4473823134,
				"y": 2.5148842633,
				"z": 2.080263298,
				"element": "H" 
			},
			{
				"x": -3.6082814636,
				"y": -0.0694443697,
				"z": -1.0598959805,
				"element": "H" 
			},
			{
				"x": -1.274335968,
				"y": -0.4680097457,
				"z": -1.9039337104,
				"element": "H" 
			},
			{
				"x": 0.2294112166,
				"y": 2.3513918011,
				"z": 0.9695267944,
				"element": "H" 
			},
			{
				"x": -2.0955377832,
				"y": 2.7532091178,
				"z": 1.795376474,
				"element": "H" 
			},
			{
				"x": 2.1610111905,
				"y": -0.3941918487,
				"z": 0.7781100876,
				"element": "H" 
			},
			{
				"x": 0.2003056799,
				"y": -2.0213884587,
				"z": 0.3717896663,
				"element": "H" 
			},
			{
				"x": 0.4802233142,
				"y": -3.4663458638,
				"z": -1.6574010264,
				"element": "H" 
			},
			{
				"x": 1.9343667915,
				"y": -2.4758153666,
				"z": -2.1578240051,
				"element": "H" 
			},
			{
				"x": 3.1005101161,
				"y": -3.0689606107,
				"z": -0.0066679433,
				"element": "H" 
			},
			{
				"x": 1.6560060811,
				"y": -4.0581860146,
				"z": 0.5294872048,
				"element": "H" 
			}
		],
		 "valence_orbital": [ 
			{
				"type": "occ",
				"energy": -0.30148,
				"method": "rhf"
			},
			{
				"type": "occ",
				"energy": -0.2916,
				"method": "rhf"
			},
			{
				"type": "occ",
				"energy": -0.28595,
				"method": "rhf"
			},
			{
				"type": "occ",
				"energy": -0.28183,
				"method": "rhf"
			},
			{
				"type": "occ",
				"energy": -0.27035,
				"method": "rhf"
			},
			{
				"type": "unocc",
				"energy": -0.07521,
				"method": "rhf"
			},
			{
				"type": "unocc",
				"energy": -0.03153,
				"method": "rhf"
			},
			{
				"type": "unocc",
				"energy": 0.02406,
				"method": "rhf"
			},
			{
				"type": "unocc",
				"energy": 0.05469,
				"method": "rhf"
			},
			{
				"type": "unocc",
				"energy": 0.0696,
				"method": "rhf"
			}
		],
		"cosmo_sigma_profile": { 
			"-0.025": 0.0,
			"-0.024": 0.0,
			"-0.023": 0.0,
			"-0.022": 0.0,
			"-0.021": 0.0,
			"-0.02": 0.0938014564111,
			"-0.019": 0.323816636663,
			"-0.018": 1.0310464407,
			"-0.017": 1.16986762693,
			"-0.016": 0.871005960784,
			"-0.015": 1.07868045623,
			"-0.014": 2.05261482938,
			"-0.013": 2.07320162913,
			"-0.012": 2.12776542093,
			"-0.011": 1.95571078675,
			"-0.01": 2.06285812139,
			"-0.009": 1.20830988406,
			"-0.008": 3.27367889837,
			"-0.007": 7.21661265017,
			"-0.006": 11.7339789308,
			"-0.005": 17.5417554393,
			"-0.004": 15.484453269,
			"-0.003": 18.1186535271,
			"-0.002": 18.5141796567,
			"-0.001": 22.2157437873,
			"0.0": 22.5020778625,
			"0.001": 22.8109574204,
			"0.002": 13.3339778514,
			"0.003": 7.25684889421,
			"0.004": 7.87070783374,
			"0.005": 7.32980176297,
			"0.006": 7.14451293616,
			"0.007": 7.65074594974,
			"0.008": 4.16972753022,
			"0.009": 5.50285136361,
			"0.01": 7.17991365543,
			"0.011": 12.6213065913,
			"0.012": 6.99527001253,
			"0.013": 0.00297401974344,
			"0.014": 0.0,
			"0.015": 0.0,
			"0.016": 0.0,
			"0.017": 0.0,
			"0.018": 0.0,
			"0.019": 0.0,
			"0.02": 0.0,
			"0.021": 0.0,
			"0.022": 0.0,
			"0.023": 0.0,
			"0.024": 0.0,
			"0.025": 0.0
		}
	}
}
