{
	 "smiles": "COCC1=CC(=NO1)C(O)=O", 
	 "Tm": 359.15, 
	 "num_atms": 18, 
	 "gaussian": { 
		 "optdone": 1, 
		 "sigma_profile": "yes", 
		 "theory": "DFT", 
		 "functional": "B3LYP", 
		 "basiset": "6-31G**", 
		 "properties": { 
			 "R2extent": 2724.4183, 
			 "electric_dipole_moment_norm": 6.23729368957, 
			 "electric_quadrupole_moment_norm": 19.3200889656, 
			 "total_energy": -588.423723872, 
			 "HOMO_LUMO_gap": 0.22298, 
			 "cosmo_polarized_energy": -19.49, 
			 "cosmo_cavitation_energy": 23.54, 
			 "cosmo_dispersion_energy": -17.04, 
			 "cosmo_repulsion_energy": 1.41, 
			 "cosmo_total_nonelectrostatic_energy": 7.9, 
			 "SMD_solvation_energy": 5.98 
		},
		"coords": [
			{
				"x": 2.0879496534,
				"y": -1.5636836347,
				"z": 0.9650235658,
				"element": "C" 
			},
			{
				"x": 1.1078327172,
				"y": -2.3436235999,
				"z": 0.2947497157,
				"element": "O" 
			},
			{
				"x": 1.149535913,
				"y": -2.2180535459,
				"z": -1.1084792364,
				"element": "C" 
			},
			{
				"x": 0.5132628525,
				"y": -0.9403409704,
				"z": -1.5829466883,
				"element": "C" 
			},
			{
				"x": -0.4809677819,
				"y": -0.1544049099,
				"z": -1.0817979403,
				"element": "C" 
			},
			{
				"x": -0.6207121069,
				"y": 0.8732673504,
				"z": -2.0630713314,
				"element": "C" 
			},
			{
				"x": 0.2218224717,
				"y": 0.7185212192,
				"z": -3.0646332147,
				"element": "N" 
			},
			{
				"x": 0.9454128939,
				"y": -0.4262871753,
				"z": -2.7534951006,
				"element": "O" 
			},
			{
				"x": -1.5713389176,
				"y": 2.0334412381,
				"z": -2.0797452025,
				"element": "C" 
			},
			{
				"x": -1.9792175232,
				"y": 2.442146092,
				"z": -0.8488938959,
				"element": "O" 
			},
			{
				"x": -1.9725829215,
				"y": 2.5671647751,
				"z": -3.078904447,
				"element": "O" 
			},
			{
				"x": 1.9670369688,
				"y": -1.7564921597,
				"z": 2.0327854897,
				"element": "H" 
			},
			{
				"x": 1.9584149049,
				"y": -0.4885655374,
				"z": 0.7785121857,
				"element": "H" 
			},
			{
				"x": 3.1043934432,
				"y": -1.8530272092,
				"z": 0.6611309432,
				"element": "H" 
			},
			{
				"x": 0.5946436963,
				"y": -3.0728826331,
				"z": -1.5124658231,
				"element": "H" 
			},
			{
				"x": 2.1755658444,
				"y": -2.2743018258,
				"z": -1.5034365662,
				"element": "H" 
			},
			{
				"x": -1.0504029504,
				"y": -0.3247941444,
				"z": -0.1807317163,
				"element": "H" 
			},
			{
				"x": -1.4708491579,
				"y": 1.9956166709,
				"z": -0.1570007374,
				"element": "H" 
			}
		],
		 "valence_orbital": [ 
			{
				"type": "occ",
				"energy": -0.32813,
				"method": "rhf"
			},
			{
				"type": "occ",
				"energy": -0.31785,
				"method": "rhf"
			},
			{
				"type": "occ",
				"energy": -0.29137,
				"method": "rhf"
			},
			{
				"type": "occ",
				"energy": -0.28583,
				"method": "rhf"
			},
			{
				"type": "occ",
				"energy": -0.28093,
				"method": "rhf"
			},
			{
				"type": "unocc",
				"energy": -0.05795,
				"method": "rhf"
			},
			{
				"type": "unocc",
				"energy": -0.0132,
				"method": "rhf"
			},
			{
				"type": "unocc",
				"energy": 0.05415,
				"method": "rhf"
			},
			{
				"type": "unocc",
				"energy": 0.06855,
				"method": "rhf"
			},
			{
				"type": "unocc",
				"energy": 0.07494,
				"method": "rhf"
			}
		],
		"cosmo_sigma_profile": { 
			"-0.025": 0.0,
			"-0.024": 0.0,
			"-0.023": 0.0,
			"-0.022": 0.0,
			"-0.021": 0.0,
			"-0.02": 0.0574658818905,
			"-0.019": 0.718303518183,
			"-0.018": 1.20799532901,
			"-0.017": 1.08020326465,
			"-0.016": 0.776236511063,
			"-0.015": 0.925087902691,
			"-0.014": 1.75614700096,
			"-0.013": 1.33300124254,
			"-0.012": 1.16923263461,
			"-0.011": 1.3428426932,
			"-0.01": 1.95484803278,
			"-0.009": 1.53976028257,
			"-0.008": 3.8466670764,
			"-0.007": 7.26612725586,
			"-0.006": 10.037516551,
			"-0.005": 12.2097370766,
			"-0.004": 14.8047331698,
			"-0.003": 15.4645378347,
			"-0.002": 16.4557484922,
			"-0.001": 10.5729786757,
			"0.0": 6.11309807986,
			"0.001": 6.15783222327,
			"0.002": 5.3380690156,
			"0.003": 4.08556139526,
			"0.004": 4.89297843965,
			"0.005": 5.37934062295,
			"0.006": 7.86099151513,
			"0.007": 7.47454922444,
			"0.008": 4.79037822747,
			"0.009": 8.26468953177,
			"0.01": 8.51751055814,
			"0.011": 8.58324016648,
			"0.012": 4.83941719475,
			"0.013": 0.656686145894,
			"0.014": 0.0,
			"0.015": 0.0,
			"0.016": 0.0,
			"0.017": 0.0,
			"0.018": 0.0,
			"0.019": 0.0,
			"0.02": 0.0,
			"0.021": 0.0,
			"0.022": 0.0,
			"0.023": 0.0,
			"0.024": 0.0,
			"0.025": 0.0
		}
	}
}
