{
	 "smiles": "COC1=C(C=O)C=C2OC(C)CC2=C1", 
	 "Tm": 352.15, 
	 "num_atms": 26, 
	 "gaussian": { 
		 "optdone": 1, 
		 "sigma_profile": "yes", 
		 "theory": "DFT", 
		 "functional": "B3LYP", 
		 "basiset": "6-31G**", 
		 "properties": { 
			 "R2extent": 3509.5301, 
			 "electric_dipole_moment_norm": 4.73202159441, 
			 "electric_quadrupole_moment_norm": 12.0025582723, 
			 "total_energy": -652.046871086, 
			 "HOMO_LUMO_gap": 0.15693, 
			 "cosmo_polarized_energy": -11.14, 
			 "cosmo_cavitation_energy": 29.25, 
			 "cosmo_dispersion_energy": -21.47, 
			 "cosmo_repulsion_energy": 1.69, 
			 "cosmo_total_nonelectrostatic_energy": 9.47, 
			 "SMD_solvation_energy": 6.6 
		},
		"coords": [
			{
				"x": -2.6831833998,
				"y": 1.4836344095,
				"z": 2.8065483571,
				"element": "C" 
			},
			{
				"x": -1.2518107504,
				"y": 1.4774550316,
				"z": 2.7847494281,
				"element": "O" 
			},
			{
				"x": -0.6584178103,
				"y": 0.6922628109,
				"z": 1.8336357424,
				"element": "C" 
			},
			{
				"x": -0.5375850357,
				"y": -0.7152417903,
				"z": 1.954283586,
				"element": "C" 
			},
			{
				"x": -1.0428766284,
				"y": -1.5024982643,
				"z": 3.0999825155,
				"element": "C" 
			},
			{
				"x": -1.7346770603,
				"y": -1.108515281,
				"z": 4.020652803,
				"element": "O" 
			},
			{
				"x": 0.1528116384,
				"y": -1.4454704484,
				"z": 0.9631992201,
				"element": "C" 
			},
			{
				"x": 0.6961943796,
				"y": -0.7704962379,
				"z": -0.1156984231,
				"element": "C" 
			},
			{
				"x": 1.3891189105,
				"y": -1.3497094729,
				"z": -1.138517945,
				"element": "O" 
			},
			{
				"x": 1.6001383622,
				"y": -0.3320773131,
				"z": -2.1650699117,
				"element": "C" 
			},
			{
				"x": 2.9832696435,
				"y": -0.5197196555,
				"z": -2.7599885065,
				"element": "C" 
			},
			{
				"x": 1.346998317,
				"y": 1.033343973,
				"z": -1.471205947,
				"element": "C" 
			},
			{
				"x": 0.5918789443,
				"y": 0.6195252558,
				"z": -0.2318100498,
				"element": "C" 
			},
			{
				"x": -0.0785121071,
				"y": 1.350633771,
				"z": 0.7381666747,
				"element": "C" 
			},
			{
				"x": -3.0843879819,
				"y": 1.7935693923,
				"z": 1.8327163156,
				"element": "H" 
			},
			{
				"x": -3.0780191514,
				"y": 0.5052467909,
				"z": 3.0888897374,
				"element": "H" 
			},
			{
				"x": -2.9673385899,
				"y": 2.2173348245,
				"z": 3.5633480468,
				"element": "H" 
			},
			{
				"x": -0.7192425326,
				"y": -2.5678271073,
				"z": 3.0635194193,
				"element": "H" 
			},
			{
				"x": 0.2567176561,
				"y": -2.5227269911,
				"z": 1.0531039253,
				"element": "H" 
			},
			{
				"x": 0.8325015145,
				"y": -0.5025311079,
				"z": -2.9323357596,
				"element": "H" 
			},
			{
				"x": 3.7528640857,
				"y": -0.3660700445,
				"z": -1.9972214793,
				"element": "H" 
			},
			{
				"x": 3.0958810116,
				"y": -1.5282545969,
				"z": -3.1670890093,
				"element": "H" 
			},
			{
				"x": 3.1472763525,
				"y": 0.1983564626,
				"z": -3.5701431074,
				"element": "H" 
			},
			{
				"x": 2.2926912677,
				"y": 1.525549389,
				"z": -1.2059260022,
				"element": "H" 
			},
			{
				"x": 0.7907029218,
				"y": 1.7207482805,
				"z": -2.1155080554,
				"element": "H" 
			},
			{
				"x": -0.1654939576,
				"y": 2.4314779193,
				"z": 0.6857184251,
				"element": "H" 
			}
		],
		 "valence_orbital": [ 
			{
				"type": "occ",
				"energy": -0.304,
				"method": "rhf"
			},
			{
				"type": "occ",
				"energy": -0.27008,
				"method": "rhf"
			},
			{
				"type": "occ",
				"energy": -0.26128,
				"method": "rhf"
			},
			{
				"type": "occ",
				"energy": -0.24587,
				"method": "rhf"
			},
			{
				"type": "occ",
				"energy": -0.21519,
				"method": "rhf"
			},
			{
				"type": "unocc",
				"energy": -0.05826,
				"method": "rhf"
			},
			{
				"type": "unocc",
				"energy": -0.00192,
				"method": "rhf"
			},
			{
				"type": "unocc",
				"energy": 0.04677,
				"method": "rhf"
			},
			{
				"type": "unocc",
				"energy": 0.08329,
				"method": "rhf"
			},
			{
				"type": "unocc",
				"energy": 0.10323,
				"method": "rhf"
			}
		],
		"cosmo_sigma_profile": { 
			"-0.025": 0.0,
			"-0.024": 0.0,
			"-0.023": 0.0,
			"-0.022": 0.0,
			"-0.021": 0.0,
			"-0.02": 0.0,
			"-0.019": 0.0,
			"-0.018": 0.0,
			"-0.017": 0.0,
			"-0.016": 0.0,
			"-0.015": 0.0,
			"-0.014": 0.0,
			"-0.013": 0.0,
			"-0.012": 0.0,
			"-0.011": 0.0,
			"-0.01": 0.0,
			"-0.009": 0.0,
			"-0.008": 1.23776939667,
			"-0.007": 4.32354860661,
			"-0.006": 7.0515497941,
			"-0.005": 20.3477179478,
			"-0.004": 26.2764287832,
			"-0.003": 26.4007825258,
			"-0.002": 27.6183886904,
			"-0.001": 18.9243741903,
			"0.0": 15.7120442436,
			"0.001": 12.5911623268,
			"0.002": 15.1211573923,
			"0.003": 13.5124763001,
			"0.004": 3.82186045197,
			"0.005": 5.57874522002,
			"0.006": 3.68110453827,
			"0.007": 3.65902361527,
			"0.008": 3.95384863302,
			"0.009": 4.18150764152,
			"0.01": 4.67657512558,
			"0.011": 6.72676610084,
			"0.012": 4.85423732564,
			"0.013": 1.4625425857,
			"0.014": 0.0231308276549,
			"0.015": 0.0,
			"0.016": 0.0,
			"0.017": 0.0,
			"0.018": 0.0,
			"0.019": 0.0,
			"0.02": 0.0,
			"0.021": 0.0,
			"0.022": 0.0,
			"0.023": 0.0,
			"0.024": 0.0,
			"0.025": 0.0
		}
	}
}
