{
	 "smiles": "ClCC(=O)N1N=C(CC1C1=CC=CS1)C1=CC=CO1", 
	 "Tm": 427.15, 
	 "num_atms": 30, 
	 "gaussian": { 
		 "optdone": 1, 
		 "sigma_profile": "yes", 
		 "theory": "DFT", 
		 "functional": "B3LYP", 
		 "basiset": "6-31G**", 
		 "properties": { 
			 "R2extent": 7992.4609, 
			 "electric_dipole_moment_norm": 7.1009942501, 
			 "electric_quadrupole_moment_norm": 25.2139914964, 
			 "total_energy": -1620.27924673, 
			 "HOMO_LUMO_gap": 0.15592, 
			 "cosmo_polarized_energy": -18.71, 
			 "cosmo_cavitation_energy": 38.29, 
			 "cosmo_dispersion_energy": -27.46, 
			 "cosmo_repulsion_energy": 2.1, 
			 "cosmo_total_nonelectrostatic_energy": 12.93, 
			 "SMD_solvation_energy": 6.51 
		},
		"coords": [
			{
				"x": -2.4110437028,
				"y": -4.8357690819,
				"z": 2.0287213372,
				"element": "Cl" 
			},
			{
				"x": -1.5468239831,
				"y": -3.278080852,
				"z": 1.8436751362,
				"element": "C" 
			},
			{
				"x": -0.5819084856,
				"y": -3.295561304,
				"z": 0.6538889251,
				"element": "C" 
			},
			{
				"x": -0.4003760859,
				"y": -4.2430499316,
				"z": -0.0920237576,
				"element": "O" 
			},
			{
				"x": 0.1021562674,
				"y": -2.1157914789,
				"z": 0.4823224062,
				"element": "N" 
			},
			{
				"x": -0.0159386707,
				"y": -1.0565496533,
				"z": 1.3532009486,
				"element": "N" 
			},
			{
				"x": 0.9078093877,
				"y": -0.195037292,
				"z": 1.0674880007,
				"element": "C" 
			},
			{
				"x": 1.8278952638,
				"y": -0.6400393069,
				"z": -0.0558902191,
				"element": "C" 
			},
			{
				"x": 1.084537391,
				"y": -1.87917488,
				"z": -0.6147404673,
				"element": "C" 
			},
			{
				"x": 0.4080379616,
				"y": -1.6381867181,
				"z": -1.9429854279,
				"element": "C" 
			},
			{
				"x": -0.0975402111,
				"y": -0.4616821771,
				"z": -2.4427120396,
				"element": "C" 
			},
			{
				"x": -0.6791831282,
				"y": -0.6005418951,
				"z": -3.7368611589,
				"element": "C" 
			},
			{
				"x": -0.6068040902,
				"y": -1.8833080037,
				"z": -4.2087970337,
				"element": "C" 
			},
			{
				"x": 0.1513942049,
				"y": -2.9428371025,
				"z": -3.0714862927,
				"element": "S" 
			},
			{
				"x": 1.0788555833,
				"y": 1.0454751298,
				"z": 1.7766478102,
				"element": "C" 
			},
			{
				"x": 1.987853638,
				"y": 2.0651809389,
				"z": 1.6202631268,
				"element": "C" 
			},
			{
				"x": 1.6796624767,
				"y": 3.0395061508,
				"z": 2.6163825857,
				"element": "C" 
			},
			{
				"x": 0.6093464,
				"y": 2.5472825223,
				"z": 3.3042513089,
				"element": "C" 
			},
			{
				"x": 0.2310336836,
				"y": 1.3398419426,
				"z": 2.8101096273,
				"element": "O" 
			},
			{
				"x": -1.0057416039,
				"y": -3.0749138849,
				"z": 2.7685981526,
				"element": "H" 
			},
			{
				"x": -2.2872400732,
				"y": -2.4874072283,
				"z": 1.7133834502,
				"element": "H" 
			},
			{
				"x": 1.9836476376,
				"y": 0.1260409256,
				"z": -0.8177943677,
				"element": "H" 
			},
			{
				"x": 2.8106834008,
				"y": -0.9057692512,
				"z": 0.3505148123,
				"element": "H" 
			},
			{
				"x": 1.7314400838,
				"y": -2.7558342866,
				"z": -0.679570633,
				"element": "H" 
			},
			{
				"x": -0.0604401216,
				"y": 0.4799560614,
				"z": -1.9057048069,
				"element": "H" 
			},
			{
				"x": -1.1269190261,
				"y": 0.2177426607,
				"z": -4.2891109127,
				"element": "H" 
			},
			{
				"x": -0.9667019325,
				"y": -2.2710930706,
				"z": -5.1518912051,
				"element": "H" 
			},
			{
				"x": 2.7778869539,
				"y": 2.1110286743,
				"z": 0.8845863464,
				"element": "H" 
			},
			{
				"x": 2.1845240746,
				"y": 3.9775362764,
				"z": 2.7950529605,
				"element": "H" 
			},
			{
				"x": 0.0259967061,
				"y": 2.9180361161,
				"z": 4.1328813872,
				"element": "H" 
			}
		],
		 "valence_orbital": [ 
			{
				"type": "occ",
				"energy": -0.27438,
				"method": "rhf"
			},
			{
				"type": "occ",
				"energy": -0.26695,
				"method": "rhf"
			},
			{
				"type": "occ",
				"energy": -0.25082,
				"method": "rhf"
			},
			{
				"type": "occ",
				"energy": -0.23455,
				"method": "rhf"
			},
			{
				"type": "occ",
				"energy": -0.21501,
				"method": "rhf"
			},
			{
				"type": "unocc",
				"energy": -0.05909,
				"method": "rhf"
			},
			{
				"type": "unocc",
				"energy": -0.01866,
				"method": "rhf"
			},
			{
				"type": "unocc",
				"energy": 0.01924,
				"method": "rhf"
			},
			{
				"type": "unocc",
				"energy": 0.0275,
				"method": "rhf"
			},
			{
				"type": "unocc",
				"energy": 0.03733,
				"method": "rhf"
			}
		],
		"cosmo_sigma_profile": { 
			"-0.025": 0.0,
			"-0.024": 0.0,
			"-0.023": 0.0,
			"-0.022": 0.0,
			"-0.021": 0.0,
			"-0.02": 0.0,
			"-0.019": 0.0,
			"-0.018": 0.0,
			"-0.017": 0.0,
			"-0.016": 0.0,
			"-0.015": 0.0,
			"-0.014": 0.0,
			"-0.013": 0.0,
			"-0.012": 0.0,
			"-0.011": 0.0,
			"-0.01": 0.537131373934,
			"-0.009": 3.7691693946,
			"-0.008": 10.2641095203,
			"-0.007": 22.7197614338,
			"-0.006": 21.1432655587,
			"-0.005": 20.2949840425,
			"-0.004": 18.4822082954,
			"-0.003": 18.3320722139,
			"-0.002": 15.6572613011,
			"-0.001": 14.9077249443,
			"0.0": 17.2542075688,
			"0.001": 18.8366548033,
			"0.002": 22.5907290539,
			"0.003": 22.3019679894,
			"0.004": 23.7988224049,
			"0.005": 17.6529998973,
			"0.006": 13.5190836143,
			"0.007": 5.47906105504,
			"0.008": 3.09132450375,
			"0.009": 4.45943599328,
			"0.01": 4.41813831852,
			"0.011": 4.18219195236,
			"0.012": 3.14228125575,
			"0.013": 3.03082007804,
			"0.014": 1.37483283277,
			"0.015": 0.0194662710035,
			"0.016": 0.0,
			"0.017": 0.0,
			"0.018": 0.0,
			"0.019": 0.0,
			"0.02": 0.0,
			"0.021": 0.0,
			"0.022": 0.0,
			"0.023": 0.0,
			"0.024": 0.0,
			"0.025": 0.0
		}
	}
}
