{
	 "smiles": "NC1=C(Cl)C=CC(=C1)C(F)(F)F", 
	 "Tm": 283.15, 
	 "num_atms": 17, 
	 "gaussian": { 
		 "optdone": 1, 
		 "sigma_profile": "yes", 
		 "theory": "DFT", 
		 "functional": "B3LYP", 
		 "basiset": "6-31G**", 
		 "properties": { 
			 "R2extent": 3516.058, 
			 "electric_dipole_moment_norm": 2.40528073206, 
			 "electric_quadrupole_moment_norm": 8.06331397814, 
			 "total_energy": -1084.23590381, 
			 "HOMO_LUMO_gap": 0.19276, 
			 "cosmo_polarized_energy": -7.4, 
			 "cosmo_cavitation_energy": 24.35, 
			 "cosmo_dispersion_energy": -17.81, 
			 "cosmo_repulsion_energy": 1.36, 
			 "cosmo_total_nonelectrostatic_energy": 7.9, 
			 "SMD_solvation_energy": 5.01 
		},
		"coords": [
			{
				"x": -3.1580673821,
				"y": 0.2676675666,
				"z": -0.5665413183,
				"element": "N" 
			},
			{
				"x": -2.0487614315,
				"y": 0.9225671214,
				"z": -0.0671971039,
				"element": "C" 
			},
			{
				"x": -2.1574947983,
				"y": 1.9595366046,
				"z": 0.8821528976,
				"element": "C" 
			},
			{
				"x": -3.7500011545,
				"y": 2.3793572808,
				"z": 1.5065184389,
				"element": "Cl" 
			},
			{
				"x": -1.0434142835,
				"y": 2.6515175025,
				"z": 1.3471296475,
				"element": "C" 
			},
			{
				"x": 0.2267626645,
				"y": 2.3297403806,
				"z": 0.87656371,
				"element": "C" 
			},
			{
				"x": 0.3583398674,
				"y": 1.3036634179,
				"z": -0.0632840977,
				"element": "C" 
			},
			{
				"x": -0.756288252,
				"y": 0.6119275529,
				"z": -0.5272989187,
				"element": "C" 
			},
			{
				"x": 1.7164608358,
				"y": 0.9813505821,
				"z": -0.6266989008,
				"element": "C" 
			},
			{
				"x": 2.6943874254,
				"y": 1.1629575196,
				"z": 0.2879374897,
				"element": "F" 
			},
			{
				"x": 2.0178707351,
				"y": 1.7709935672,
				"z": -1.6835789236,
				"element": "F" 
			},
			{
				"x": 1.7967953687,
				"y": -0.2978023931,
				"z": -1.058479362,
				"element": "F" 
			},
			{
				"x": -4.0001810137,
				"y": 0.3218442541,
				"z": -0.0122010205,
				"element": "H" 
			},
			{
				"x": -2.9933739943,
				"y": -0.6372972861,
				"z": -0.9811503797,
				"element": "H" 
			},
			{
				"x": -1.1783680598,
				"y": 3.4368349373,
				"z": 2.0826082501,
				"element": "H" 
			},
			{
				"x": 1.0990022613,
				"y": 2.8587807684,
				"z": 1.2413642814,
				"element": "H" 
			},
			{
				"x": -0.6323687886,
				"y": -0.1843393768,
				"z": -1.25414469,
				"element": "H" 
			}
		],
		 "valence_orbital": [ 
			{
				"type": "occ",
				"energy": -0.34704,
				"method": "rhf"
			},
			{
				"type": "occ",
				"energy": -0.33093,
				"method": "rhf"
			},
			{
				"type": "occ",
				"energy": -0.32626,
				"method": "rhf"
			},
			{
				"type": "occ",
				"energy": -0.2626,
				"method": "rhf"
			},
			{
				"type": "occ",
				"energy": -0.22254,
				"method": "rhf"
			},
			{
				"type": "unocc",
				"energy": -0.02978,
				"method": "rhf"
			},
			{
				"type": "unocc",
				"energy": -0.00792,
				"method": "rhf"
			},
			{
				"type": "unocc",
				"energy": 0.02166,
				"method": "rhf"
			},
			{
				"type": "unocc",
				"energy": 0.07394,
				"method": "rhf"
			},
			{
				"type": "unocc",
				"energy": 0.11634,
				"method": "rhf"
			}
		],
		"cosmo_sigma_profile": { 
			"-0.025": 0.0,
			"-0.024": 0.0,
			"-0.023": 0.0,
			"-0.022": 0.0,
			"-0.021": 0.0,
			"-0.02": 0.0,
			"-0.019": 0.0,
			"-0.018": 0.0,
			"-0.017": 0.0,
			"-0.016": 0.0,
			"-0.015": 0.0,
			"-0.014": 0.445569047819,
			"-0.013": 1.74509531337,
			"-0.012": 2.2226357122,
			"-0.011": 2.81319430419,
			"-0.01": 2.50285178717,
			"-0.009": 2.49519331432,
			"-0.008": 3.30734956177,
			"-0.007": 5.49906217946,
			"-0.006": 6.01313748424,
			"-0.005": 6.67441265625,
			"-0.004": 5.84238499754,
			"-0.003": 7.4564563471,
			"-0.002": 8.23445070102,
			"-0.001": 10.2687687403,
			"0.0": 12.434903372,
			"0.001": 18.101794697,
			"0.002": 32.5238528886,
			"0.003": 46.6494028447,
			"0.004": 13.7916814125,
			"0.005": 3.7941749102,
			"0.006": 0.712053795578,
			"0.007": 0.760574355289,
			"0.008": 0.444240716553,
			"0.009": 0.803459817329,
			"0.01": 0.837949865961,
			"0.011": 0.452872280698,
			"0.012": 0.428547466969,
			"0.013": 0.0541581399305,
			"0.014": 0.0,
			"0.015": 0.0,
			"0.016": 0.0,
			"0.017": 0.0,
			"0.018": 0.0,
			"0.019": 0.0,
			"0.02": 0.0,
			"0.021": 0.0,
			"0.022": 0.0,
			"0.023": 0.0,
			"0.024": 0.0,
			"0.025": 0.0
		}
	}
}
