{
	 "smiles": "CC1=CC=CC2(C)CC3=CC=CC=C3C(=O)N12", 
	 "Tm": 450.15, 
	 "num_atms": 32, 
	 "gaussian": { 
		 "optdone": 1, 
		 "sigma_profile": "yes", 
		 "theory": "DFT", 
		 "functional": "B3LYP", 
		 "basiset": "6-31G**", 
		 "properties": { 
			 "R2extent": 3991.3706, 
			 "electric_dipole_moment_norm": 3.09154240631, 
			 "electric_quadrupole_moment_norm": 9.17663806631, 
			 "total_energy": -710.612797802, 
			 "HOMO_LUMO_gap": 0.14917, 
			 "cosmo_polarized_energy": -9.3, 
			 "cosmo_cavitation_energy": 33.04, 
			 "cosmo_dispersion_energy": -23.74, 
			 "cosmo_repulsion_energy": 1.79, 
			 "cosmo_total_nonelectrostatic_energy": 11.09, 
			 "SMD_solvation_energy": 5.73 
		},
		"coords": [
			{
				"x": 1.9154828499,
				"y": -2.8340542552,
				"z": -0.6684117954,
				"element": "C" 
			},
			{
				"x": 1.8153775992,
				"y": -1.3620901936,
				"z": -0.9814001624,
				"element": "C" 
			},
			{
				"x": 2.8528523446,
				"y": -0.7144637786,
				"z": -1.5643425291,
				"element": "C" 
			},
			{
				"x": 2.7825248477,
				"y": 0.6972323211,
				"z": -1.8802733422,
				"element": "C" 
			},
			{
				"x": 1.5935834519,
				"y": 1.3132862748,
				"z": -1.8788458275,
				"element": "C" 
			},
			{
				"x": 0.3130355648,
				"y": 0.5382112108,
				"z": -1.6177393149,
				"element": "C" 
			},
			{
				"x": -0.2743753081,
				"y": 0.0212476692,
				"z": -2.9499681736,
				"element": "C" 
			},
			{
				"x": -0.6661684555,
				"y": 1.4962404924,
				"z": -0.9119229267,
				"element": "C" 
			},
			{
				"x": -1.8735291728,
				"y": 0.7999588142,
				"z": -0.3571713937,
				"element": "C" 
			},
			{
				"x": -3.1461046376,
				"y": 1.3751310522,
				"z": -0.3151526777,
				"element": "C" 
			},
			{
				"x": -4.2079499971,
				"y": 0.6898637873,
				"z": 0.2766747104,
				"element": "C" 
			},
			{
				"x": -4.0023515499,
				"y": -0.5728249648,
				"z": 0.8416576058,
				"element": "C" 
			},
			{
				"x": -2.7354557479,
				"y": -1.1489306078,
				"z": 0.8087963456,
				"element": "C" 
			},
			{
				"x": -1.6734022208,
				"y": -0.4691423479,
				"z": 0.1989980933,
				"element": "C" 
			},
			{
				"x": -0.3283982816,
				"y": -1.1226481272,
				"z": 0.1859623199,
				"element": "C" 
			},
			{
				"x": -0.0945446411,
				"y": -2.0634071135,
				"z": 0.9387546066,
				"element": "O" 
			},
			{
				"x": 0.6144167896,
				"y": -0.6385252633,
				"z": -0.7254014244,
				"element": "N" 
			},
			{
				"x": 1.0354094685,
				"y": -3.3805615153,
				"z": -1.019867517,
				"element": "H" 
			},
			{
				"x": 2.7992774192,
				"y": -3.2331803517,
				"z": -1.1737958369,
				"element": "H" 
			},
			{
				"x": 1.9928990429,
				"y": -3.027472697,
				"z": 0.4017895663,
				"element": "H" 
			},
			{
				"x": 3.7580530159,
				"y": -1.2713219388,
				"z": -1.7788386535,
				"element": "H" 
			},
			{
				"x": 3.6960955289,
				"y": 1.2400812257,
				"z": -2.1076803942,
				"element": "H" 
			},
			{
				"x": 1.489674863,
				"y": 2.3727159343,
				"z": -2.0967563234,
				"element": "H" 
			},
			{
				"x": -0.4481123396,
				"y": 0.8570999826,
				"z": -3.6356821258,
				"element": "H" 
			},
			{
				"x": 0.4287319421,
				"y": -0.6676820113,
				"z": -3.4247099943,
				"element": "H" 
			},
			{
				"x": -1.223149453,
				"y": -0.5000194175,
				"z": -2.787772863,
				"element": "H" 
			},
			{
				"x": -0.1277039052,
				"y": 1.9977218416,
				"z": -0.0954170702,
				"element": "H" 
			},
			{
				"x": -0.9522772818,
				"y": 2.2777107661,
				"z": -1.6237213697,
				"element": "H" 
			},
			{
				"x": -3.304287255,
				"y": 2.3612062556,
				"z": -0.7446435285,
				"element": "H" 
			},
			{
				"x": -5.195923442,
				"y": 1.1411507932,
				"z": 0.2988003776,
				"element": "H" 
			},
			{
				"x": -4.8286261473,
				"y": -1.1028572339,
				"z": 1.3059977142,
				"element": "H" 
			},
			{
				"x": -2.540754892,
				"y": -2.1214766036,
				"z": 1.2473839044,
				"element": "H" 
			}
		],
		 "valence_orbital": [ 
			{
				"type": "occ",
				"energy": -0.27253,
				"method": "rhf"
			},
			{
				"type": "occ",
				"energy": -0.25796,
				"method": "rhf"
			},
			{
				"type": "occ",
				"energy": -0.25025,
				"method": "rhf"
			},
			{
				"type": "occ",
				"energy": -0.24596,
				"method": "rhf"
			},
			{
				"type": "occ",
				"energy": -0.19556,
				"method": "rhf"
			},
			{
				"type": "unocc",
				"energy": -0.04639,
				"method": "rhf"
			},
			{
				"type": "unocc",
				"energy": -0.01494,
				"method": "rhf"
			},
			{
				"type": "unocc",
				"energy": -0.00596,
				"method": "rhf"
			},
			{
				"type": "unocc",
				"energy": 0.06081,
				"method": "rhf"
			},
			{
				"type": "unocc",
				"energy": 0.08264,
				"method": "rhf"
			}
		],
		"cosmo_sigma_profile": { 
			"-0.025": 0.0,
			"-0.024": 0.0,
			"-0.023": 0.0,
			"-0.022": 0.0,
			"-0.021": 0.0,
			"-0.02": 0.0,
			"-0.019": 0.0,
			"-0.018": 0.0,
			"-0.017": 0.0,
			"-0.016": 0.0,
			"-0.015": 0.0,
			"-0.014": 0.0,
			"-0.013": 0.0,
			"-0.012": 0.0,
			"-0.011": 0.0,
			"-0.01": 0.0,
			"-0.009": 0.0,
			"-0.008": 0.0,
			"-0.007": 0.288790651172,
			"-0.006": 10.0662186593,
			"-0.005": 22.4052442356,
			"-0.004": 23.7948644639,
			"-0.003": 25.7346978699,
			"-0.002": 25.7008340022,
			"-0.001": 23.1684845605,
			"0.0": 26.7540074626,
			"0.001": 21.7445499132,
			"0.002": 13.9412060326,
			"0.003": 16.9258902007,
			"0.004": 18.6629262818,
			"0.005": 12.405869495,
			"0.006": 5.2645245919,
			"0.007": 2.13852493596,
			"0.008": 2.07251209949,
			"0.009": 1.03689953643,
			"0.01": 1.80916725262,
			"0.011": 2.2176006329,
			"0.012": 1.98133253439,
			"0.013": 2.92542152157,
			"0.014": 0.554096176438,
			"0.015": 0.0,
			"0.016": 0.0,
			"0.017": 0.0,
			"0.018": 0.0,
			"0.019": 0.0,
			"0.02": 0.0,
			"0.021": 0.0,
			"0.022": 0.0,
			"0.023": 0.0,
			"0.024": 0.0,
			"0.025": 0.0
		}
	}
}
