{
	 "smiles": "ClC1=CC2=C(OC3=C(O2)C=C(Br)C(Br)=C3)C=C1Cl", 
	 "Tm": 589.15, 
	 "num_atms": 22, 
	 "gaussian": { 
		 "optdone": 1, 
		 "sigma_profile": "yes", 
		 "theory": "DFT", 
		 "functional": "B3LYP", 
		 "basiset": "6-31G**", 
		 "properties": { 
			 "R2extent": 15490.6241, 
			 "electric_dipole_moment_norm": 0.332784104188, 
			 "electric_quadrupole_moment_norm": 11.6427730262, 
			 "total_energy": -6673.29763429, 
			 "HOMO_LUMO_gap": 0.17325, 
			 "cosmo_polarized_energy": -6.19, 
			 "cosmo_cavitation_energy": 35.47, 
			 "cosmo_dispersion_energy": -27.65, 
			 "cosmo_repulsion_energy": 2.1, 
			 "cosmo_total_nonelectrostatic_energy": 9.93, 
			 "SMD_solvation_energy": 3.73 
		},
		"coords": [
			{
				"x": 1.187085352,
				"y": 4.5722008426,
				"z": -0.4893846938,
				"element": "Cl" 
			},
			{
				"x": 1.1498406695,
				"y": 2.8836445795,
				"z": -0.0561904599,
				"element": "C" 
			},
			{
				"x": -0.0338991328,
				"y": 2.3553235425,
				"z": 0.4673096506,
				"element": "C" 
			},
			{
				"x": -0.1024250797,
				"y": 1.0164816769,
				"z": 0.8237422332,
				"element": "C" 
			},
			{
				"x": 1.0146685385,
				"y": 0.1897684904,
				"z": 0.6600509808,
				"element": "C" 
			},
			{
				"x": 0.9898039743,
				"y": -1.1452432785,
				"z": 1.0011363015,
				"element": "O" 
			},
			{
				"x": -0.1987879839,
				"y": -1.6185610858,
				"z": 1.51282935,
				"element": "C" 
			},
			{
				"x": -1.3157047559,
				"y": -0.7919576431,
				"z": 1.6765451784,
				"element": "C" 
			},
			{
				"x": -1.2911435964,
				"y": 0.5428236846,
				"z": 1.3354372041,
				"element": "O" 
			},
			{
				"x": -2.4923086135,
				"y": -1.311692873,
				"z": 2.1959112296,
				"element": "C" 
			},
			{
				"x": -2.5685226679,
				"y": -2.6600380988,
				"z": 2.5575435021,
				"element": "C" 
			},
			{
				"x": -4.2117523732,
				"y": -3.298888544,
				"z": 3.2616431552,
				"element": "Br" 
			},
			{
				"x": -1.4523475524,
				"y": -3.4861252865,
				"z": 2.3938674307,
				"element": "C" 
			},
			{
				"x": -1.4722949136,
				"y": -5.3264168277,
				"z": 2.8596468699,
				"element": "Br" 
			},
			{
				"x": -0.2690042047,
				"y": -2.9571342501,
				"z": 1.8699472952,
				"element": "C" 
			},
			{
				"x": 2.1921705706,
				"y": 0.7079211366,
				"z": 0.1411507649,
				"element": "C" 
			},
			{
				"x": 2.2677234763,
				"y": 2.0563639781,
				"z": -0.2199704247,
				"element": "C" 
			},
			{
				"x": 3.7693172092,
				"y": 2.6612721395,
				"z": -0.8677008526,
				"element": "Cl" 
			},
			{
				"x": -0.9065718674,
				"y": 2.9836134695,
				"z": 0.5995772142,
				"element": "H" 
			},
			{
				"x": -3.3477969392,
				"y": -0.6584226039,
				"z": 2.3163401252,
				"element": "H" 
			},
			{
				"x": 0.6045305139,
				"y": -3.5835130787,
				"z": 1.7368648209,
				"element": "H" 
			},
			{
				"x": 3.0491193763,
				"y": 0.0561800298,
				"z": 0.0200031245,
				"element": "H" 
			}
		],
		 "valence_orbital": [ 
			{
				"type": "occ",
				"energy": -0.28645,
				"method": "rhf"
			},
			{
				"type": "occ",
				"energy": -0.28156,
				"method": "rhf"
			},
			{
				"type": "occ",
				"energy": -0.26301,
				"method": "rhf"
			},
			{
				"type": "occ",
				"energy": -0.25812,
				"method": "rhf"
			},
			{
				"type": "occ",
				"energy": -0.22056,
				"method": "rhf"
			},
			{
				"type": "unocc",
				"energy": -0.04731,
				"method": "rhf"
			},
			{
				"type": "unocc",
				"energy": -0.03714,
				"method": "rhf"
			},
			{
				"type": "unocc",
				"energy": -0.03691,
				"method": "rhf"
			},
			{
				"type": "unocc",
				"energy": -0.03169,
				"method": "rhf"
			},
			{
				"type": "unocc",
				"energy": -0.00879,
				"method": "rhf"
			}
		],
		"cosmo_sigma_profile": { 
			"-0.025": 0.0,
			"-0.024": 0.0,
			"-0.023": 0.0,
			"-0.022": 0.0,
			"-0.021": 0.0,
			"-0.02": 0.0,
			"-0.019": 0.0,
			"-0.018": 0.0,
			"-0.017": 0.0,
			"-0.016": 0.0,
			"-0.015": 0.0,
			"-0.014": 0.0,
			"-0.013": 0.0,
			"-0.012": 0.0,
			"-0.011": 0.0,
			"-0.01": 0.0723557199232,
			"-0.009": 3.92387445561,
			"-0.008": 5.71671880606,
			"-0.007": 6.23388088628,
			"-0.006": 6.90633572345,
			"-0.005": 10.1576134559,
			"-0.004": 12.3190127062,
			"-0.003": 13.6885953774,
			"-0.002": 19.1881931851,
			"-0.001": 32.1938539362,
			"0.0": 49.8200842963,
			"0.001": 36.4155532426,
			"0.002": 24.2663984162,
			"0.003": 33.3287482176,
			"0.004": 32.4301401758,
			"0.005": 9.39164057485,
			"0.006": 2.41494610852,
			"0.007": 0.0,
			"0.008": 0.0,
			"0.009": 0.0,
			"0.01": 0.0,
			"0.011": 0.0,
			"0.012": 0.0,
			"0.013": 0.0,
			"0.014": 0.0,
			"0.015": 0.0,
			"0.016": 0.0,
			"0.017": 0.0,
			"0.018": 0.0,
			"0.019": 0.0,
			"0.02": 0.0,
			"0.021": 0.0,
			"0.022": 0.0,
			"0.023": 0.0,
			"0.024": 0.0,
			"0.025": 0.0
		}
	}
}
