{
	 "smiles": "NS(=O)(=O)CCCC#N", 
	 "Tm": 323.15, 
	 "num_atms": 17, 
	 "gaussian": { 
		 "optdone": 1, 
		 "sigma_profile": "yes", 
		 "theory": "DFT", 
		 "functional": "B3LYP", 
		 "basiset": "6-31G**", 
		 "properties": { 
			 "R2extent": 1900.7787, 
			 "electric_dipole_moment_norm": 4.71742259078, 
			 "electric_quadrupole_moment_norm": 13.8265261125, 
			 "total_energy": -815.306441474, 
			 "HOMO_LUMO_gap": 0.30673, 
			 "cosmo_polarized_energy": -19.55, 
			 "cosmo_cavitation_energy": 21.75, 
			 "cosmo_dispersion_energy": -16.37, 
			 "cosmo_repulsion_energy": 1.3, 
			 "cosmo_total_nonelectrostatic_energy": 6.67, 
			 "SMD_solvation_energy": 4.17 
		},
		"coords": [
			{
				"x": -0.5457677231,
				"y": 2.3689387985,
				"z": 1.4385918149,
				"element": "N" 
			},
			{
				"x": -1.6941325683,
				"y": 1.953011951,
				"z": 0.2750435923,
				"element": "S" 
			},
			{
				"x": -2.9556556592,
				"y": 2.5748197226,
				"z": 0.6842978015,
				"element": "O" 
			},
			{
				"x": -1.1452688682,
				"y": 2.1554823334,
				"z": -1.0714323576,
				"element": "O" 
			},
			{
				"x": -1.8687989946,
				"y": 0.1618379364,
				"z": 0.5079310541,
				"element": "C" 
			},
			{
				"x": -0.5813443052,
				"y": -0.6704139471,
				"z": 0.5365796851,
				"element": "C" 
			},
			{
				"x": 0.3825068863,
				"y": -0.5144063645,
				"z": -0.6717372273,
				"element": "C" 
			},
			{
				"x": 1.3680551869,
				"y": 0.5513351411,
				"z": -0.4704943612,
				"element": "C" 
			},
			{
				"x": 2.1409489342,
				"y": 1.3883818377,
				"z": -0.2462773715,
				"element": "N" 
			},
			{
				"x": -0.8788763599,
				"y": 3.1790741827,
				"z": 1.9539467886,
				"element": "H" 
			},
			{
				"x": 0.3689666291,
				"y": 2.5255607394,
				"z": 1.0163002035,
				"element": "H" 
			},
			{
				"x": -2.5226673825,
				"y": -0.1351858082,
				"z": -0.3184199309,
				"element": "H" 
			},
			{
				"x": -2.4191221054,
				"y": 0.0384667824,
				"z": 1.4434904764,
				"element": "H" 
			},
			{
				"x": -0.8977413091,
				"y": -1.7181106807,
				"z": 0.5774134268,
				"element": "H" 
			},
			{
				"x": -0.0381448274,
				"y": -0.4695096662,
				"z": 1.4639301971,
				"element": "H" 
			},
			{
				"x": -0.1673847365,
				"y": -0.3080645123,
				"z": -1.5953348241,
				"element": "H" 
			},
			{
				"x": 0.9355272028,
				"y": -1.4488184462,
				"z": -0.8164289677,
				"element": "H" 
			}
		],
		 "valence_orbital": [ 
			{
				"type": "occ",
				"energy": -0.3343,
				"method": "rhf"
			},
			{
				"type": "occ",
				"energy": -0.32038,
				"method": "rhf"
			},
			{
				"type": "occ",
				"energy": -0.31464,
				"method": "rhf"
			},
			{
				"type": "occ",
				"energy": -0.30431,
				"method": "rhf"
			},
			{
				"type": "occ",
				"energy": -0.29389,
				"method": "rhf"
			},
			{
				"type": "unocc",
				"energy": 0.01284,
				"method": "rhf"
			},
			{
				"type": "unocc",
				"energy": 0.02875,
				"method": "rhf"
			},
			{
				"type": "unocc",
				"energy": 0.051,
				"method": "rhf"
			},
			{
				"type": "unocc",
				"energy": 0.06689,
				"method": "rhf"
			},
			{
				"type": "unocc",
				"energy": 0.08104,
				"method": "rhf"
			}
		],
		"cosmo_sigma_profile": { 
			"-0.025": 0.0,
			"-0.024": 0.0,
			"-0.023": 0.0,
			"-0.022": 0.0,
			"-0.021": 0.0,
			"-0.02": 0.0,
			"-0.019": 0.0,
			"-0.018": 0.0,
			"-0.017": 0.0,
			"-0.016": 0.0582414824929,
			"-0.015": 0.765280489049,
			"-0.014": 1.05089333866,
			"-0.013": 1.11215323978,
			"-0.012": 2.07483672699,
			"-0.011": 1.99604377931,
			"-0.01": 1.07354754084,
			"-0.009": 3.97969996533,
			"-0.008": 12.2562888542,
			"-0.007": 14.2746754283,
			"-0.006": 16.600171823,
			"-0.005": 13.4760461799,
			"-0.004": 7.65088880608,
			"-0.003": 7.45352634887,
			"-0.002": 4.92178763465,
			"-0.001": 4.69552005385,
			"0.0": 4.10197161899,
			"0.001": 4.78332631765,
			"0.002": 4.61629582501,
			"0.003": 4.01145071934,
			"0.004": 4.32662950041,
			"0.005": 3.73392587455,
			"0.006": 4.9761302715,
			"0.007": 5.18207608033,
			"0.008": 6.96587443486,
			"0.009": 6.84811413872,
			"0.01": 8.01785694005,
			"0.011": 11.7754902738,
			"0.012": 7.8978151861,
			"0.013": 1.16364435331,
			"0.014": 0.0225283301058,
			"0.015": 0.0,
			"0.016": 0.0,
			"0.017": 0.0,
			"0.018": 0.0,
			"0.019": 0.0,
			"0.02": 0.0,
			"0.021": 0.0,
			"0.022": 0.0,
			"0.023": 0.0,
			"0.024": 0.0,
			"0.025": 0.0
		}
	}
}
