{
	 "smiles": "OC(=O)CSC1=CC2=C(CCC2)C=C1", 
	 "Tm": 338.15, 
	 "num_atms": 26, 
	 "gaussian": { 
		 "optdone": 1, 
		 "sigma_profile": "yes", 
		 "theory": "DFT", 
		 "functional": "B3LYP", 
		 "basiset": "6-31G**", 
		 "properties": { 
			 "R2extent": 3917.3953, 
			 "electric_dipole_moment_norm": 4.06802008599, 
			 "electric_quadrupole_moment_norm": 14.7399778138, 
			 "total_energy": -975.056602236, 
			 "HOMO_LUMO_gap": 0.21141, 
			 "cosmo_polarized_energy": -11.47, 
			 "cosmo_cavitation_energy": 30.45, 
			 "cosmo_dispersion_energy": -22.57, 
			 "cosmo_repulsion_energy": 1.77, 
			 "cosmo_total_nonelectrostatic_energy": 9.65, 
			 "SMD_solvation_energy": 5.3 
		},
		"coords": [
			{
				"x": -2.6239022407,
				"y": 2.6773440522,
				"z": 1.6043955688,
				"element": "O" 
			},
			{
				"x": -1.6335220857,
				"y": 3.294272811,
				"z": 0.9286680406,
				"element": "C" 
			},
			{
				"x": -0.8915593493,
				"y": 4.0824992505,
				"z": 1.4596649601,
				"element": "O" 
			},
			{
				"x": -1.5299480227,
				"y": 2.979132663,
				"z": -0.569739274,
				"element": "C" 
			},
			{
				"x": -2.3464949439,
				"y": 1.4320104843,
				"z": -1.1385114534,
				"element": "S" 
			},
			{
				"x": -1.1267571656,
				"y": 0.1810014173,
				"z": -0.7023630278,
				"element": "C" 
			},
			{
				"x": -0.8849902354,
				"y": -0.1703912638,
				"z": 0.6352531332,
				"element": "C" 
			},
			{
				"x": 0.0598719221,
				"y": -1.1536231315,
				"z": 0.9140007165,
				"element": "C" 
			},
			{
				"x": 0.7433841507,
				"y": -1.8047555105,
				"z": -0.1247227586,
				"element": "C" 
			},
			{
				"x": 1.6892460694,
				"y": -2.8450498455,
				"z": 0.4369892112,
				"element": "C" 
			},
			{
				"x": 1.8141497506,
				"y": -2.4385841366,
				"z": 1.9276608276,
				"element": "C" 
			},
			{
				"x": 0.489709896,
				"y": -1.7040881931,
				"z": 2.2582783083,
				"element": "C" 
			},
			{
				"x": 0.4888204474,
				"y": -1.4694417589,
				"z": -1.4524655665,
				"element": "C" 
			},
			{
				"x": -0.4435002411,
				"y": -0.4682735695,
				"z": -1.7398477351,
				"element": "C" 
			},
			{
				"x": -3.0780709097,
				"y": 2.0672105238,
				"z": 0.9891665364,
				"element": "H" 
			},
			{
				"x": -2.0248446799,
				"y": 3.7915630306,
				"z": -1.1135009022,
				"element": "H" 
			},
			{
				"x": -0.4768284059,
				"y": 2.9848096276,
				"z": -0.8534616094,
				"element": "H" 
			},
			{
				"x": -1.4186392153,
				"y": 0.3278927791,
				"z": 1.4388560999,
				"element": "H" 
			},
			{
				"x": 1.2472360176,
				"y": -3.846828491,
				"z": 0.3385488698,
				"element": "H" 
			},
			{
				"x": 2.6541720109,
				"y": -2.8744939195,
				"z": -0.0798263377,
				"element": "H" 
			},
			{
				"x": 2.6511409294,
				"y": -1.7409938761,
				"z": 2.0420700111,
				"element": "H" 
			},
			{
				"x": 2.0044938934,
				"y": -3.2900251108,
				"z": 2.5865237789,
				"element": "H" 
			},
			{
				"x": 0.6105700633,
				"y": -0.9296745429,
				"z": 3.0224595728,
				"element": "H" 
			},
			{
				"x": -0.265651248,
				"y": -2.4075623385,
				"z": 2.6360775028,
				"element": "H" 
			},
			{
				"x": 1.0148459799,
				"y": -1.9667877351,
				"z": -2.2632010917,
				"element": "H" 
			},
			{
				"x": -0.6404323878,
				"y": -0.1829632161,
				"z": -2.7682733814,
				"element": "H" 
			}
		],
		 "valence_orbital": [ 
			{
				"type": "occ",
				"energy": -0.31323,
				"method": "rhf"
			},
			{
				"type": "occ",
				"energy": -0.28757,
				"method": "rhf"
			},
			{
				"type": "occ",
				"energy": -0.26001,
				"method": "rhf"
			},
			{
				"type": "occ",
				"energy": -0.25131,
				"method": "rhf"
			},
			{
				"type": "occ",
				"energy": -0.24119,
				"method": "rhf"
			},
			{
				"type": "unocc",
				"energy": -0.02978,
				"method": "rhf"
			},
			{
				"type": "unocc",
				"energy": -0.01439,
				"method": "rhf"
			},
			{
				"type": "unocc",
				"energy": 0.00952,
				"method": "rhf"
			},
			{
				"type": "unocc",
				"energy": 0.034,
				"method": "rhf"
			},
			{
				"type": "unocc",
				"energy": 0.05654,
				"method": "rhf"
			}
		],
		"cosmo_sigma_profile": { 
			"-0.025": 0.0,
			"-0.024": 0.0,
			"-0.023": 0.0,
			"-0.022": 0.0,
			"-0.021": 0.0,
			"-0.02": 0.0,
			"-0.019": 0.0,
			"-0.018": 0.0,
			"-0.017": 0.0,
			"-0.016": 0.0,
			"-0.015": 0.0,
			"-0.014": 0.0,
			"-0.013": 0.391871171264,
			"-0.012": 0.393303882907,
			"-0.011": 0.787716840172,
			"-0.01": 2.77526112071,
			"-0.009": 5.27063943521,
			"-0.008": 3.82768194912,
			"-0.007": 4.48748450871,
			"-0.006": 7.24428633837,
			"-0.005": 8.34424508755,
			"-0.004": 16.7861220366,
			"-0.003": 26.0956986822,
			"-0.002": 27.7426183107,
			"-0.001": 24.2462555773,
			"0.0": 22.6603427984,
			"0.001": 15.7776119023,
			"0.002": 10.8243641156,
			"0.003": 11.79339788,
			"0.004": 12.8066473464,
			"0.005": 10.985036717,
			"0.006": 3.21883800685,
			"0.007": 3.28195420407,
			"0.008": 3.04289119925,
			"0.009": 3.94759540839,
			"0.01": 4.90272204334,
			"0.011": 4.93100226154,
			"0.012": 5.09490295188,
			"0.013": 1.31381641308,
			"0.014": 0.0,
			"0.015": 0.0,
			"0.016": 0.0,
			"0.017": 0.0,
			"0.018": 0.0,
			"0.019": 0.0,
			"0.02": 0.0,
			"0.021": 0.0,
			"0.022": 0.0,
			"0.023": 0.0,
			"0.024": 0.0,
			"0.025": 0.0
		}
	}
}
