{
	 "smiles": "CC1=CC(OCC2CNC(=O)O2)=CC(C)=C1", 
	 "Tm": 395.15, 
	 "num_atms": 31, 
	 "gaussian": { 
		 "optdone": 1, 
		 "sigma_profile": "yes", 
		 "theory": "DFT", 
		 "functional": "B3LYP", 
		 "basiset": "6-31G**", 
		 "properties": { 
			 "R2extent": 6050.0475, 
			 "electric_dipole_moment_norm": 5.34032610521, 
			 "electric_quadrupole_moment_norm": 29.2462379545, 
			 "total_energy": -746.759762682, 
			 "HOMO_LUMO_gap": 0.2201, 
			 "cosmo_polarized_energy": -17.64, 
			 "cosmo_cavitation_energy": 34.54, 
			 "cosmo_dispersion_energy": -24.93, 
			 "cosmo_repulsion_energy": 1.99, 
			 "cosmo_total_nonelectrostatic_energy": 11.6, 
			 "SMD_solvation_energy": 6.19 
		},
		"coords": [
			{
				"x": 3.876926328,
				"y": -0.2323038189,
				"z": 1.4471693488,
				"element": "C" 
			},
			{
				"x": 2.5963686113,
				"y": 0.143265057,
				"z": 0.7374019456,
				"element": "C" 
			},
			{
				"x": 1.3746104659,
				"y": 0.0893401468,
				"z": 1.4320176244,
				"element": "C" 
			},
			{
				"x": 0.1914264108,
				"y": 0.43020367,
				"z": 0.7780628336,
				"element": "C" 
			},
			{
				"x": -1.049143277,
				"y": 0.4168736624,
				"z": 1.3638390147,
				"element": "O" 
			},
			{
				"x": -1.1606369606,
				"y": 0.0007793976,
				"z": 2.7116707412,
				"element": "C" 
			},
			{
				"x": -2.6244223424,
				"y": 0.0355946319,
				"z": 3.1154516738,
				"element": "C" 
			},
			{
				"x": -3.368607562,
				"y": 1.3535666193,
				"z": 2.7968325483,
				"element": "C" 
			},
			{
				"x": -4.6659021973,
				"y": 0.8251019892,
				"z": 2.4120827474,
				"element": "N" 
			},
			{
				"x": -4.5737490221,
				"y": -0.4914744933,
				"z": 2.005172004,
				"element": "C" 
			},
			{
				"x": -5.3977172424,
				"y": -1.1499438181,
				"z": 1.4219901625,
				"element": "O" 
			},
			{
				"x": -3.3536832226,
				"y": -0.9786036399,
				"z": 2.4042554011,
				"element": "O" 
			},
			{
				"x": 0.2123642271,
				"y": 0.8257990895,
				"z": -0.5676407951,
				"element": "C" 
			},
			{
				"x": 1.4145698762,
				"y": 0.8832861769,
				"z": -1.26562865,
				"element": "C" 
			},
			{
				"x": 1.4484879703,
				"y": 1.299421384,
				"z": -2.7178535272,
				"element": "C" 
			},
			{
				"x": 2.6038383741,
				"y": 0.5396919454,
				"z": -0.5982548459,
				"element": "C" 
			},
			{
				"x": 3.858792614,
				"y": -1.2786955359,
				"z": 1.7741214058,
				"element": "H" 
			},
			{
				"x": 4.0327847542,
				"y": 0.380947937,
				"z": 2.3423125249,
				"element": "H" 
			},
			{
				"x": 4.7459447998,
				"y": -0.1017310936,
				"z": 0.7969373026,
				"element": "H" 
			},
			{
				"x": 1.3718565505,
				"y": -0.2192848142,
				"z": 2.4716177594,
				"element": "H" 
			},
			{
				"x": -0.5901239159,
				"y": 0.6660992326,
				"z": 3.3780134776,
				"element": "H" 
			},
			{
				"x": -0.7788491464,
				"y": -1.0206510344,
				"z": 2.8390114472,
				"element": "H" 
			},
			{
				"x": -2.6869089634,
				"y": -0.1930452647,
				"z": 4.1877217895,
				"element": "H" 
			},
			{
				"x": -3.4307510057,
				"y": 2.0038359071,
				"z": 3.6747450108,
				"element": "H" 
			},
			{
				"x": -2.8749507231,
				"y": 1.8951671972,
				"z": 1.9813701244,
				"element": "H" 
			},
			{
				"x": -5.3581462757,
				"y": 1.3945065294,
				"z": 1.9484977371,
				"element": "H" 
			},
			{
				"x": -0.728493258,
				"y": 1.0795979199,
				"z": -1.0461260032,
				"element": "H" 
			},
			{
				"x": 0.4578361711,
				"y": 1.5940158246,
				"z": -3.0740814105,
				"element": "H" 
			},
			{
				"x": 1.8033329011,
				"y": 0.4813885278,
				"z": -3.3556427852,
				"element": "H" 
			},
			{
				"x": 2.128214267,
				"y": 2.1449023866,
				"z": -2.8732395897,
				"element": "H" 
			},
			{
				"x": 3.5480307933,
				"y": 0.5826482809,
				"z": -1.1362270178,
				"element": "H" 
			}
		],
		 "valence_orbital": [ 
			{
				"type": "occ",
				"energy": -0.29061,
				"method": "rhf"
			},
			{
				"type": "occ",
				"energy": -0.27234,
				"method": "rhf"
			},
			{
				"type": "occ",
				"energy": -0.25988,
				"method": "rhf"
			},
			{
				"type": "occ",
				"energy": -0.23748,
				"method": "rhf"
			},
			{
				"type": "occ",
				"energy": -0.21954,
				"method": "rhf"
			},
			{
				"type": "unocc",
				"energy": 0.00056,
				"method": "rhf"
			},
			{
				"type": "unocc",
				"energy": 0.01178,
				"method": "rhf"
			},
			{
				"type": "unocc",
				"energy": 0.0524,
				"method": "rhf"
			},
			{
				"type": "unocc",
				"energy": 0.07696,
				"method": "rhf"
			},
			{
				"type": "unocc",
				"energy": 0.08194,
				"method": "rhf"
			}
		],
		"cosmo_sigma_profile": { 
			"-0.025": 0.0,
			"-0.024": 0.0,
			"-0.023": 0.0,
			"-0.022": 0.0,
			"-0.021": 0.0,
			"-0.02": 0.0,
			"-0.019": 0.0,
			"-0.018": 0.0,
			"-0.017": 0.0,
			"-0.016": 0.0,
			"-0.015": 0.609800120034,
			"-0.014": 1.5960371806,
			"-0.013": 1.1413965258,
			"-0.012": 0.952493965863,
			"-0.011": 1.01841094664,
			"-0.01": 0.598574221931,
			"-0.009": 1.29628254622,
			"-0.008": 2.66090247434,
			"-0.007": 10.7464923335,
			"-0.006": 17.0244446207,
			"-0.005": 14.4027623946,
			"-0.004": 24.4886924956,
			"-0.003": 23.9965437058,
			"-0.002": 22.1581898553,
			"-0.001": 18.9020768859,
			"0.0": 23.3285407472,
			"0.001": 16.2145015931,
			"0.002": 10.1585041114,
			"0.003": 10.8893184332,
			"0.004": 12.7210278869,
			"0.005": 12.7714982757,
			"0.006": 11.5819706285,
			"0.007": 7.0530405947,
			"0.008": 3.43241956859,
			"0.009": 2.80854271854,
			"0.01": 4.46386409858,
			"0.011": 2.73671582298,
			"0.012": 4.60269965136,
			"0.013": 6.35721893683,
			"0.014": 1.49549803774,
			"0.015": 0.0,
			"0.016": 0.0,
			"0.017": 0.0,
			"0.018": 0.0,
			"0.019": 0.0,
			"0.02": 0.0,
			"0.021": 0.0,
			"0.022": 0.0,
			"0.023": 0.0,
			"0.024": 0.0,
			"0.025": 0.0
		}
	}
}
