{
	 "smiles": "FC(F)(F)C(F)(F)C(F)(F)C(F)(F)C(F)(F)C(F)(F)C(F)(F)F", 
	 "Tm": 195.15, 
	 "num_atms": 23, 
	 "gaussian": { 
		 "optdone": 1, 
		 "sigma_profile": "yes", 
		 "theory": "DFT", 
		 "functional": "B3LYP", 
		 "basiset": "6-31G**", 
		 "properties": { 
			 "R2extent": 6585.1258, 
			 "electric_dipole_moment_norm": 0.222086357078, 
			 "electric_quadrupole_moment_norm": 0.654355216988, 
			 "total_energy": -1864.13179694, 
			 "HOMO_LUMO_gap": 0.3569, 
			 "cosmo_polarized_energy": -1.13, 
			 "cosmo_cavitation_energy": 32.91, 
			 "cosmo_dispersion_energy": -21.67, 
			 "cosmo_repulsion_energy": 1.36, 
			 "cosmo_total_nonelectrostatic_energy": 12.6, 
			 "SMD_solvation_energy": 10.75 
		},
		"coords": [
			{
				"x": -2.5651516596,
				"y": 2.5442451956,
				"z": -2.3462969226,
				"element": "F" 
			},
			{
				"x": -1.7511872338,
				"y": 3.4259114863,
				"z": -1.7578947335,
				"element": "C" 
			},
			{
				"x": -1.6348562989,
				"y": 4.5000993298,
				"z": -2.5465150881,
				"element": "F" 
			},
			{
				"x": -2.2808518234,
				"y": 3.8021949162,
				"z": -0.5860657462,
				"element": "F" 
			},
			{
				"x": -0.3434770461,
				"y": 2.8086255062,
				"z": -1.5403848444,
				"element": "C" 
			},
			{
				"x": 0.05349076,
				"y": 2.269333804,
				"z": -2.7164780364,
				"element": "F" 
			},
			{
				"x": 0.4967690005,
				"y": 3.8078677445,
				"z": -1.1990750031,
				"element": "F" 
			},
			{
				"x": -0.2958535471,
				"y": 1.7182908202,
				"z": -0.4309853572,
				"element": "C" 
			},
			{
				"x": -0.353987823,
				"y": 2.3386877473,
				"z": 0.7676648277,
				"element": "F" 
			},
			{
				"x": -1.3784838222,
				"y": 0.9158572708,
				"z": -0.568308984,
				"element": "F" 
			},
			{
				"x": 0.9818673234,
				"y": 0.832148021,
				"z": -0.4940756073,
				"element": "C" 
			},
			{
				"x": 0.8567403727,
				"y": -0.0383179902,
				"z": -1.5209048464,
				"element": "F" 
			},
			{
				"x": 2.0425974649,
				"y": 1.6414226863,
				"z": -0.7323034854,
				"element": "F" 
			},
			{
				"x": 1.3543649858,
				"y": 0.0218541885,
				"z": 0.7855280752,
				"element": "C" 
			},
			{
				"x": 1.652053412,
				"y": 0.9051204125,
				"z": 1.7644554056,
				"element": "F" 
			},
			{
				"x": 2.4732889092,
				"y": -0.6726732357,
				"z": 0.4717405173,
				"element": "F" 
			},
			{
				"x": 0.3313777413,
				"y": -0.9796461279,
				"z": 1.3915614397,
				"element": "C" 
			},
			{
				"x": -0.7711137424,
				"y": -0.2946271114,
				"z": 1.7758839229,
				"element": "F" 
			},
			{
				"x": 0.9283434705,
				"y": -1.5014750058,
				"z": 2.4878170163,
				"element": "F" 
			},
			{
				"x": -0.1267880581,
				"y": -2.1746919628,
				"z": 0.5174012314,
				"element": "C" 
			},
			{
				"x": 0.928077038,
				"y": -2.829867827,
				"z": 0.0205302129,
				"element": "F" 
			},
			{
				"x": -0.9003256864,
				"y": -1.7570473336,
				"z": -0.4914347189,
				"element": "F" 
			},
			{
				"x": -0.8369937373,
				"y": -3.0110125348,
				"z": 1.2832407244,
				"element": "F" 
			}
		],
		 "valence_orbital": [ 
			{
				"type": "occ",
				"energy": -0.43027,
				"method": "rhf"
			},
			{
				"type": "occ",
				"energy": -0.41797,
				"method": "rhf"
			},
			{
				"type": "occ",
				"energy": -0.40203,
				"method": "rhf"
			},
			{
				"type": "occ",
				"energy": -0.37383,
				"method": "rhf"
			},
			{
				"type": "occ",
				"energy": -0.35186,
				"method": "rhf"
			},
			{
				"type": "unocc",
				"energy": 0.00504,
				"method": "rhf"
			},
			{
				"type": "unocc",
				"energy": 0.01298,
				"method": "rhf"
			},
			{
				"type": "unocc",
				"energy": 0.0453,
				"method": "rhf"
			},
			{
				"type": "unocc",
				"energy": 0.04824,
				"method": "rhf"
			},
			{
				"type": "unocc",
				"energy": 0.08449,
				"method": "rhf"
			}
		],
		"cosmo_sigma_profile": { 
			"-0.025": 0.0,
			"-0.024": 0.0,
			"-0.023": 0.0,
			"-0.022": 0.0,
			"-0.021": 0.0,
			"-0.02": 0.0,
			"-0.019": 0.0,
			"-0.018": 0.0,
			"-0.017": 0.0,
			"-0.016": 0.0,
			"-0.015": 0.0,
			"-0.014": 0.0,
			"-0.013": 0.0,
			"-0.012": 0.0,
			"-0.011": 0.0,
			"-0.01": 0.0,
			"-0.009": 0.0,
			"-0.008": 0.0,
			"-0.007": 0.0,
			"-0.006": 0.0,
			"-0.005": 0.74749045325,
			"-0.004": 3.19163361485,
			"-0.003": 9.03191608016,
			"-0.002": 18.3485084329,
			"-0.001": 35.1829660386,
			"0.0": 84.8255452791,
			"0.001": 110.274333495,
			"0.002": 3.4226415801,
			"0.003": 0.0,
			"0.004": 0.0,
			"0.005": 0.0,
			"0.006": 0.0,
			"0.007": 0.0,
			"0.008": 0.0,
			"0.009": 0.0,
			"0.01": 0.0,
			"0.011": 0.0,
			"0.012": 0.0,
			"0.013": 0.0,
			"0.014": 0.0,
			"0.015": 0.0,
			"0.016": 0.0,
			"0.017": 0.0,
			"0.018": 0.0,
			"0.019": 0.0,
			"0.02": 0.0,
			"0.021": 0.0,
			"0.022": 0.0,
			"0.023": 0.0,
			"0.024": 0.0,
			"0.025": 0.0
		}
	}
}
