{
	 "smiles": "ClC1=CC2=C(C=C1)N=C(Cl)C=C2C#N", 
	 "Tm": 442.15, 
	 "num_atms": 18, 
	 "gaussian": { 
		 "optdone": 1, 
		 "sigma_profile": "yes", 
		 "theory": "DFT", 
		 "functional": "B3LYP", 
		 "basiset": "6-31G**", 
		 "properties": { 
			 "R2extent": 4054.9596, 
			 "electric_dipole_moment_norm": 2.09000784209, 
			 "electric_quadrupole_moment_norm": 10.7635811912, 
			 "total_energy": -1413.34971999, 
			 "HOMO_LUMO_gap": 0.15495, 
			 "cosmo_polarized_energy": -9.02, 
			 "cosmo_cavitation_energy": 27.9, 
			 "cosmo_dispersion_energy": -20.31, 
			 "cosmo_repulsion_energy": 1.59, 
			 "cosmo_total_nonelectrostatic_energy": 9.17, 
			 "SMD_solvation_energy": 3.82 
		},
		"coords": [
			{
				"x": -4.1683899841,
				"y": 0.1806200983,
				"z": 1.3919177322,
				"element": "Cl" 
			},
			{
				"x": -2.4426211141,
				"y": 0.075126414,
				"z": 1.1185310456,
				"element": "C" 
			},
			{
				"x": -1.9696608898,
				"y": -0.4149175851,
				"z": -0.0786595752,
				"element": "C" 
			},
			{
				"x": -0.5721112724,
				"y": -0.494679626,
				"z": -0.2863257212,
				"element": "C" 
			},
			{
				"x": 0.3260023925,
				"y": -0.0689774023,
				"z": 0.7410201449,
				"element": "C" 
			},
			{
				"x": -0.2074554058,
				"y": 0.4287008002,
				"z": 1.9574319219,
				"element": "C" 
			},
			{
				"x": -1.5677304077,
				"y": 0.5012625672,
				"z": 2.1471991204,
				"element": "C" 
			},
			{
				"x": 1.6825336695,
				"y": -0.1206046328,
				"z": 0.602197964,
				"element": "N" 
			},
			{
				"x": 2.1682110217,
				"y": -0.5777114303,
				"z": -0.5149822357,
				"element": "C" 
			},
			{
				"x": 3.9170235857,
				"y": -0.6376472211,
				"z": -0.6778276302,
				"element": "Cl" 
			},
			{
				"x": 1.3972551449,
				"y": -1.0322596835,
				"z": -1.6138195874,
				"element": "C" 
			},
			{
				"x": 0.0218953583,
				"y": -0.9881983856,
				"z": -1.493233308,
				"element": "C" 
			},
			{
				"x": -0.8057570374,
				"y": -1.4359849442,
				"z": -2.5751327783,
				"element": "C" 
			},
			{
				"x": -1.4885688333,
				"y": -1.7959889302,
				"z": -3.444759193,
				"element": "N" 
			},
			{
				"x": -2.6547841253,
				"y": -0.7366902802,
				"z": -0.8551479451,
				"element": "H" 
			},
			{
				"x": 0.4905924588,
				"y": 0.7464637344,
				"z": 2.7240609355,
				"element": "H" 
			},
			{
				"x": -1.9823089019,
				"y": 0.8805695144,
				"z": 3.0743795469,
				"element": "H" 
			},
			{
				"x": 1.8754743406,
				"y": -1.3996830073,
				"z": -2.5127504372,
				"element": "H" 
			}
		],
		 "valence_orbital": [ 
			{
				"type": "occ",
				"energy": -0.32742,
				"method": "rhf"
			},
			{
				"type": "occ",
				"energy": -0.32324,
				"method": "rhf"
			},
			{
				"type": "occ",
				"energy": -0.30182,
				"method": "rhf"
			},
			{
				"type": "occ",
				"energy": -0.28091,
				"method": "rhf"
			},
			{
				"type": "occ",
				"energy": -0.26017,
				"method": "rhf"
			},
			{
				"type": "unocc",
				"energy": -0.10522,
				"method": "rhf"
			},
			{
				"type": "unocc",
				"energy": -0.0553,
				"method": "rhf"
			},
			{
				"type": "unocc",
				"energy": -0.03267,
				"method": "rhf"
			},
			{
				"type": "unocc",
				"energy": 0.00022,
				"method": "rhf"
			},
			{
				"type": "unocc",
				"energy": 0.01355,
				"method": "rhf"
			}
		],
		"cosmo_sigma_profile": { 
			"-0.025": 0.0,
			"-0.024": 0.0,
			"-0.023": 0.0,
			"-0.022": 0.0,
			"-0.021": 0.0,
			"-0.02": 0.0,
			"-0.019": 0.0,
			"-0.018": 0.0,
			"-0.017": 0.0,
			"-0.016": 0.0,
			"-0.015": 0.0,
			"-0.014": 0.0,
			"-0.013": 0.0,
			"-0.012": 0.0,
			"-0.011": 0.591104045041,
			"-0.01": 1.80538378743,
			"-0.009": 2.29990440019,
			"-0.008": 5.62819793232,
			"-0.007": 6.79853274581,
			"-0.006": 7.70718768532,
			"-0.005": 10.8978709687,
			"-0.004": 14.5862062307,
			"-0.003": 20.4081652982,
			"-0.002": 18.8690385557,
			"-0.001": 18.6520861284,
			"0.0": 25.6111361639,
			"0.001": 17.2389973946,
			"0.002": 14.529270047,
			"0.003": 19.5750514381,
			"0.004": 16.9036998304,
			"0.005": 5.31725525437,
			"0.006": 4.22414480156,
			"0.007": 4.46389388921,
			"0.008": 4.04360180833,
			"0.009": 3.63416939642,
			"0.01": 3.22961029585,
			"0.011": 3.19174901969,
			"0.012": 1.72188927208,
			"0.013": 0.0743740328259,
			"0.014": 0.0,
			"0.015": 0.0,
			"0.016": 0.0,
			"0.017": 0.0,
			"0.018": 0.0,
			"0.019": 0.0,
			"0.02": 0.0,
			"0.021": 0.0,
			"0.022": 0.0,
			"0.023": 0.0,
			"0.024": 0.0,
			"0.025": 0.0
		}
	}
}
