{
	 "smiles": "CC1=CC2=C(NC=C2C(=O)C(F)(F)F)C=C1", 
	 "Tm": 517.15, 
	 "num_atms": 24, 
	 "gaussian": { 
		 "optdone": 1, 
		 "sigma_profile": "yes", 
		 "theory": "DFT", 
		 "functional": "B3LYP", 
		 "basiset": "6-31G**", 
		 "properties": { 
			 "R2extent": 3860.2743, 
			 "electric_dipole_moment_norm": 5.36926202099, 
			 "electric_quadrupole_moment_norm": 13.4490516387, 
			 "total_energy": -853.496911828, 
			 "HOMO_LUMO_gap": 0.16513, 
			 "cosmo_polarized_energy": -13.05, 
			 "cosmo_cavitation_energy": 29.47, 
			 "cosmo_dispersion_energy": -21.06, 
			 "cosmo_repulsion_energy": 1.57, 
			 "cosmo_total_nonelectrostatic_energy": 9.98, 
			 "SMD_solvation_energy": 6.65 
		},
		"coords": [
			{
				"x": 1.6149864548,
				"y": -0.003151104,
				"z": -4.1882588898,
				"element": "C" 
			},
			{
				"x": 0.539490261,
				"y": 0.051626695,
				"z": -3.1269863184,
				"element": "C" 
			},
			{
				"x": 0.8074927557,
				"y": -0.3608144377,
				"z": -1.823453721,
				"element": "C" 
			},
			{
				"x": -0.2009151819,
				"y": -0.3053428108,
				"z": -0.8433554622,
				"element": "C" 
			},
			{
				"x": -1.4776350286,
				"y": 0.178052267,
				"z": -1.2279856043,
				"element": "C" 
			},
			{
				"x": -2.2991806032,
				"y": 0.1412194454,
				"z": -0.1067991908,
				"element": "N" 
			},
			{
				"x": -1.6039325434,
				"y": -0.3387155528,
				"z": 0.9548315725,
				"element": "C" 
			},
			{
				"x": -0.3022938473,
				"y": -0.6346993056,
				"z": 0.5728878707,
				"element": "C" 
			},
			{
				"x": 0.6233274875,
				"y": -1.1662862848,
				"z": 1.5654216383,
				"element": "C" 
			},
			{
				"x": 0.3226961705,
				"y": -1.3717581847,
				"z": 2.7318825171,
				"element": "O" 
			},
			{
				"x": 2.0732885738,
				"y": -1.4939712941,
				"z": 1.1313616948,
				"element": "C" 
			},
			{
				"x": 2.6933821408,
				"y": -0.3877240522,
				"z": 0.6575176807,
				"element": "F" 
			},
			{
				"x": 2.0799752592,
				"y": -2.4186469865,
				"z": 0.1425615543,
				"element": "F" 
			},
			{
				"x": 2.791212216,
				"y": -1.968780409,
				"z": 2.1490027818,
				"element": "F" 
			},
			{
				"x": -1.7699731625,
				"y": 0.5967681403,
				"z": -2.5276044446,
				"element": "C" 
			},
			{
				"x": -0.7493548968,
				"y": 0.5266991504,
				"z": -3.4643906198,
				"element": "C" 
			},
			{
				"x": 2.5539265891,
				"y": -0.3903533945,
				"z": -3.7840829572,
				"element": "H" 
			},
			{
				"x": 1.8156397604,
				"y": 0.9905406437,
				"z": -4.6057476887,
				"element": "H" 
			},
			{
				"x": 1.3196549283,
				"y": -0.6485075765,
				"z": -5.0238758779,
				"element": "H" 
			},
			{
				"x": 1.7971494965,
				"y": -0.7223742847,
				"z": -1.577178823,
				"element": "H" 
			},
			{
				"x": -3.2657018536,
				"y": 0.427196992,
				"z": -0.0855285972,
				"element": "H" 
			},
			{
				"x": -2.0484991893,
				"y": -0.4529029674,
				"z": 1.9322873347,
				"element": "H" 
			},
			{
				"x": -2.7569132733,
				"y": 0.9629989399,
				"z": -2.7956025206,
				"element": "H" 
			},
			{
				"x": -0.9435225136,
				"y": 0.8449263717,
				"z": -4.4853039292,
				"element": "H" 
			}
		],
		 "valence_orbital": [ 
			{
				"type": "occ",
				"energy": -0.33805,
				"method": "rhf"
			},
			{
				"type": "occ",
				"energy": -0.28923,
				"method": "rhf"
			},
			{
				"type": "occ",
				"energy": -0.26299,
				"method": "rhf"
			},
			{
				"type": "occ",
				"energy": -0.23254,
				"method": "rhf"
			},
			{
				"type": "occ",
				"energy": -0.2234,
				"method": "rhf"
			},
			{
				"type": "unocc",
				"energy": -0.05827,
				"method": "rhf"
			},
			{
				"type": "unocc",
				"energy": -0.01613,
				"method": "rhf"
			},
			{
				"type": "unocc",
				"energy": 0.01402,
				"method": "rhf"
			},
			{
				"type": "unocc",
				"energy": 0.06102,
				"method": "rhf"
			},
			{
				"type": "unocc",
				"energy": 0.07842,
				"method": "rhf"
			}
		],
		"cosmo_sigma_profile": { 
			"-0.025": 0.0,
			"-0.024": 0.0,
			"-0.023": 0.0,
			"-0.022": 0.0,
			"-0.021": 0.0,
			"-0.02": 0.0,
			"-0.019": 0.0,
			"-0.018": 0.139598768158,
			"-0.017": 1.52689922181,
			"-0.016": 1.77269162764,
			"-0.015": 1.36688163164,
			"-0.014": 0.905180735136,
			"-0.013": 1.58914435628,
			"-0.012": 1.40475634369,
			"-0.011": 1.21926014951,
			"-0.01": 2.67220617543,
			"-0.009": 2.89667311995,
			"-0.008": 2.11829285961,
			"-0.007": 3.64701742155,
			"-0.006": 3.41308398808,
			"-0.005": 7.12763526692,
			"-0.004": 12.9954382144,
			"-0.003": 13.2799674984,
			"-0.002": 17.0872222331,
			"-0.001": 16.1185945649,
			"0.0": 21.0790947176,
			"0.001": 24.3117799418,
			"0.002": 36.9185141153,
			"0.003": 20.9146478114,
			"0.004": 11.5848398345,
			"0.005": 10.9811176167,
			"0.006": 4.58307295612,
			"0.007": 1.81201369871,
			"0.008": 1.6547946341,
			"0.009": 2.20159001706,
			"0.01": 2.7643856002,
			"0.011": 4.53215134295,
			"0.012": 1.65713440042,
			"0.013": 0.0226632749602,
			"0.014": 0.0,
			"0.015": 0.0,
			"0.016": 0.0,
			"0.017": 0.0,
			"0.018": 0.0,
			"0.019": 0.0,
			"0.02": 0.0,
			"0.021": 0.0,
			"0.022": 0.0,
			"0.023": 0.0,
			"0.024": 0.0,
			"0.025": 0.0
		}
	}
}
