{
	 "smiles": "CC(C1CCOCC1)C(O)=O", 
	 "Tm": 313.15, 
	 "num_atms": 25, 
	 "gaussian": { 
		 "optdone": 1, 
		 "sigma_profile": "yes", 
		 "theory": "DFT", 
		 "functional": "B3LYP", 
		 "basiset": "6-31G**", 
		 "properties": { 
			 "R2extent": 2199.6983, 
			 "electric_dipole_moment_norm": 1.98703804946, 
			 "electric_quadrupole_moment_norm": 8.11226664503, 
			 "total_energy": -538.965747783, 
			 "HOMO_LUMO_gap": 0.24371, 
			 "cosmo_polarized_energy": -10.93, 
			 "cosmo_cavitation_energy": 26.22, 
			 "cosmo_dispersion_energy": -19.02, 
			 "cosmo_repulsion_energy": 1.54, 
			 "cosmo_total_nonelectrostatic_energy": 8.74, 
			 "SMD_solvation_energy": 5.15 
		},
		"coords": [
			{
				"x": 0.2111351241,
				"y": 1.6224355092,
				"z": 2.2037119651,
				"element": "C" 
			},
			{
				"x": 0.193052959,
				"y": 1.3492240605,
				"z": 0.6829405198,
				"element": "C" 
			},
			{
				"x": 1.0500266924,
				"y": 0.1358149806,
				"z": 0.2654014518,
				"element": "C" 
			},
			{
				"x": 0.9410134643,
				"y": -0.1694696347,
				"z": -1.2568768254,
				"element": "C" 
			},
			{
				"x": -0.0421834821,
				"y": -1.3050800933,
				"z": -1.5342452609,
				"element": "C" 
			},
			{
				"x": 0.355113201,
				"y": -2.5349904269,
				"z": -0.9297872621,
				"element": "O" 
			},
			{
				"x": 1.066368202,
				"y": -2.3980697336,
				"z": 0.2993727196,
				"element": "C" 
			},
			{
				"x": 0.6782488606,
				"y": -1.1358406854,
				"z": 1.0678028643,
				"element": "C" 
			},
			{
				"x": 0.6772671764,
				"y": 2.612455977,
				"z": -0.013377687,
				"element": "C" 
			},
			{
				"x": -0.3230035208,
				"y": 3.5151048398,
				"z": -0.1734833678,
				"element": "O" 
			},
			{
				"x": 1.8163209719,
				"y": 2.8435024255,
				"z": -0.3585009078,
				"element": "O" 
			},
			{
				"x": 1.2365585745,
				"y": 1.7794481333,
				"z": 2.5548287417,
				"element": "H" 
			},
			{
				"x": -0.2158334029,
				"y": 0.7817691132,
				"z": 2.7556287929,
				"element": "H" 
			},
			{
				"x": -0.3740226221,
				"y": 2.5143988353,
				"z": 2.4440119801,
				"element": "H" 
			},
			{
				"x": -0.8487233232,
				"y": 1.1863565452,
				"z": 0.3776745389,
				"element": "H" 
			},
			{
				"x": 2.0923263565,
				"y": 0.3961165358,
				"z": 0.4812048356,
				"element": "H" 
			},
			{
				"x": 0.64014374,
				"y": 0.7200299522,
				"z": -1.8209230597,
				"element": "H" 
			},
			{
				"x": 1.9228959157,
				"y": -0.4574890396,
				"z": -1.6476842492,
				"element": "H" 
			},
			{
				"x": -0.1161784887,
				"y": -1.5031974683,
				"z": -2.6088891959,
				"element": "H" 
			},
			{
				"x": -1.0512267226,
				"y": -1.0226430181,
				"z": -1.1886209832,
				"element": "H" 
			},
			{
				"x": 0.8426058454,
				"y": -3.2959150056,
				"z": 0.8858869489,
				"element": "H" 
			},
			{
				"x": 2.1529588894,
				"y": -2.3949833731,
				"z": 0.11000105,
				"element": "H" 
			},
			{
				"x": -0.4031300989,
				"y": -1.1679985837,
				"z": 1.2574560819,
				"element": "H" 
			},
			{
				"x": 1.1692163277,
				"y": -1.1398137107,
				"z": 2.0467100814,
				"element": "H" 
			},
			{
				"x": 0.0858493604,
				"y": 4.3023338653,
				"z": -0.5719437729,
				"element": "H" 
			}
		],
		 "valence_orbital": [ 
			{
				"type": "occ",
				"energy": -0.3203,
				"method": "rhf"
			},
			{
				"type": "occ",
				"energy": -0.31715,
				"method": "rhf"
			},
			{
				"type": "occ",
				"energy": -0.28568,
				"method": "rhf"
			},
			{
				"type": "occ",
				"energy": -0.27454,
				"method": "rhf"
			},
			{
				"type": "occ",
				"energy": -0.23837,
				"method": "rhf"
			},
			{
				"type": "unocc",
				"energy": 0.00534,
				"method": "rhf"
			},
			{
				"type": "unocc",
				"energy": 0.07238,
				"method": "rhf"
			},
			{
				"type": "unocc",
				"energy": 0.07983,
				"method": "rhf"
			},
			{
				"type": "unocc",
				"energy": 0.0996,
				"method": "rhf"
			},
			{
				"type": "unocc",
				"energy": 0.114,
				"method": "rhf"
			}
		],
		"cosmo_sigma_profile": { 
			"-0.025": 0.0,
			"-0.024": 0.0,
			"-0.023": 0.0,
			"-0.022": 0.0,
			"-0.021": 0.0,
			"-0.02": 0.0,
			"-0.019": 0.00745101578138,
			"-0.018": 0.538904732843,
			"-0.017": 1.07381762712,
			"-0.016": 0.64810480301,
			"-0.015": 0.799047816866,
			"-0.014": 0.563708672017,
			"-0.013": 0.617878139709,
			"-0.012": 0.525854968908,
			"-0.011": 1.15642391336,
			"-0.01": 0.954687876256,
			"-0.009": 0.6234326275,
			"-0.008": 0.330857734566,
			"-0.007": 0.817771789524,
			"-0.006": 0.773270420947,
			"-0.005": 3.46899397083,
			"-0.004": 18.7422106289,
			"-0.003": 34.9328913302,
			"-0.002": 36.1820786492,
			"-0.001": 23.032377744,
			"0.0": 16.3935106024,
			"0.001": 7.81097101573,
			"0.002": 5.46701206691,
			"0.003": 4.41705857428,
			"0.004": 3.57908298403,
			"0.005": 4.7468877096,
			"0.006": 4.08188904348,
			"0.007": 3.29728028056,
			"0.008": 4.13400652667,
			"0.009": 4.69272329251,
			"0.01": 3.36681023617,
			"0.011": 4.05878217707,
			"0.012": 6.24258913138,
			"0.013": 2.01929882943,
			"0.014": 1.97535668578,
			"0.015": 0.355904361298,
			"0.016": 0.0,
			"0.017": 0.0,
			"0.018": 0.0,
			"0.019": 0.0,
			"0.02": 0.0,
			"0.021": 0.0,
			"0.022": 0.0,
			"0.023": 0.0,
			"0.024": 0.0,
			"0.025": 0.0
		}
	}
}
