{
	 "smiles": "NC(=O)C1=CC(=CC(F)=C1)C(F)(F)F", 
	 "Tm": 389.15, 
	 "num_atms": 19, 
	 "gaussian": { 
		 "optdone": 1, 
		 "sigma_profile": "yes", 
		 "theory": "DFT", 
		 "functional": "B3LYP", 
		 "basiset": "6-31G**", 
		 "properties": { 
			 "R2extent": 4327.9437, 
			 "electric_dipole_moment_norm": 2.6408361157, 
			 "electric_quadrupole_moment_norm": 12.0746926354, 
			 "total_energy": -837.219312181, 
			 "HOMO_LUMO_gap": 0.20483, 
			 "cosmo_polarized_energy": -12.35, 
			 "cosmo_cavitation_energy": 26.13, 
			 "cosmo_dispersion_energy": -18.38, 
			 "cosmo_repulsion_energy": 1.37, 
			 "cosmo_total_nonelectrostatic_energy": 9.12, 
			 "SMD_solvation_energy": 6.98 
		},
		"coords": [
			{
				"x": 0.6483908258,
				"y": -1.9709748925,
				"z": 0.0751890997,
				"element": "N" 
			},
			{
				"x": 0.5011228696,
				"y": -0.777014821,
				"z": -0.5828888437,
				"element": "C" 
			},
			{
				"x": 0.9934942921,
				"y": -0.5727894676,
				"z": -1.6842445073,
				"element": "O" 
			},
			{
				"x": -0.3270787844,
				"y": 0.2719421847,
				"z": 0.1143242746,
				"element": "C" 
			},
			{
				"x": -1.2120585589,
				"y": -0.0143222482,
				"z": 1.160649998,
				"element": "C" 
			},
			{
				"x": -1.9457642594,
				"y": 1.015516476,
				"z": 1.753007888,
				"element": "C" 
			},
			{
				"x": -1.8081855062,
				"y": 2.3335979145,
				"z": 1.3144043191,
				"element": "C" 
			},
			{
				"x": -0.9323032244,
				"y": 2.5901784643,
				"z": 0.2656025791,
				"element": "C" 
			},
			{
				"x": -0.7958721818,
				"y": 3.8574399095,
				"z": -0.1645223774,
				"element": "F" 
			},
			{
				"x": -0.1961833226,
				"y": 1.5863276829,
				"z": -0.346566081,
				"element": "C" 
			},
			{
				"x": -2.9462512759,
				"y": 0.6967966405,
				"z": 2.8341515412,
				"element": "C" 
			},
			{
				"x": -3.0796691854,
				"y": 1.7170882573,
				"z": 3.7079491728,
				"element": "F" 
			},
			{
				"x": -2.5882492605,
				"y": -0.400610228,
				"z": 3.537339242,
				"element": "F" 
			},
			{
				"x": -4.1715747618,
				"y": 0.4532715813,
				"z": 2.3190991017,
				"element": "F" 
			},
			{
				"x": 0.5226681218,
				"y": -2.0335792336,
				"z": 1.0731266164,
				"element": "H" 
			},
			{
				"x": 1.2867490039,
				"y": -2.6276467888,
				"z": -0.3503953694,
				"element": "H" 
			},
			{
				"x": -1.3595950237,
				"y": -1.0312369028,
				"z": 1.5049909675,
				"element": "H" 
			},
			{
				"x": -2.3620184916,
				"y": 3.145095405,
				"z": 1.7712589521,
				"element": "H" 
			},
			{
				"x": 0.4730787234,
				"y": 1.8040200666,
				"z": -1.1706765734,
				"element": "H" 
			}
		],
		 "valence_orbital": [ 
			{
				"type": "occ",
				"energy": -0.36902,
				"method": "rhf"
			},
			{
				"type": "occ",
				"energy": -0.2881,
				"method": "rhf"
			},
			{
				"type": "occ",
				"energy": -0.28448,
				"method": "rhf"
			},
			{
				"type": "occ",
				"energy": -0.27122,
				"method": "rhf"
			},
			{
				"type": "occ",
				"energy": -0.2653,
				"method": "rhf"
			},
			{
				"type": "unocc",
				"energy": -0.06047,
				"method": "rhf"
			},
			{
				"type": "unocc",
				"energy": -0.03634,
				"method": "rhf"
			},
			{
				"type": "unocc",
				"energy": 0.04125,
				"method": "rhf"
			},
			{
				"type": "unocc",
				"energy": 0.06373,
				"method": "rhf"
			},
			{
				"type": "unocc",
				"energy": 0.09835,
				"method": "rhf"
			}
		],
		"cosmo_sigma_profile": { 
			"-0.025": 0.0,
			"-0.024": 0.0,
			"-0.023": 0.0,
			"-0.022": 0.0,
			"-0.021": 0.0,
			"-0.02": 0.0,
			"-0.019": 0.0,
			"-0.018": 0.0,
			"-0.017": 0.0,
			"-0.016": 0.0116078068953,
			"-0.015": 0.804970223222,
			"-0.014": 2.24457268609,
			"-0.013": 2.89358947854,
			"-0.012": 2.1965761959,
			"-0.011": 2.14833956617,
			"-0.01": 2.8843193194,
			"-0.009": 3.64854208598,
			"-0.008": 3.85149940487,
			"-0.007": 4.30952295875,
			"-0.006": 6.06618825571,
			"-0.005": 5.94823548484,
			"-0.004": 5.96013801903,
			"-0.003": 7.1138901481,
			"-0.002": 11.9822271906,
			"-0.001": 19.9655941553,
			"0.0": 24.0335434248,
			"0.001": 18.0227339672,
			"0.002": 27.4964979199,
			"0.003": 28.001259697,
			"0.004": 9.29114199784,
			"0.005": 2.01100301224,
			"0.006": 1.70998753813,
			"0.007": 2.03109511745,
			"0.008": 1.72866048513,
			"0.009": 1.21435016432,
			"0.01": 0.914124420423,
			"0.011": 1.70507172224,
			"0.012": 3.28104798439,
			"0.013": 4.89334894387,
			"0.014": 1.52366892372,
			"0.015": 0.0,
			"0.016": 0.0,
			"0.017": 0.0,
			"0.018": 0.0,
			"0.019": 0.0,
			"0.02": 0.0,
			"0.021": 0.0,
			"0.022": 0.0,
			"0.023": 0.0,
			"0.024": 0.0,
			"0.025": 0.0
		}
	}
}
