{
	 "smiles": "S=C1CCCN1", 
	 "Tm": 384.15, 
	 "num_atms": 13, 
	 "gaussian": { 
		 "optdone": 1, 
		 "sigma_profile": "yes", 
		 "theory": "DFT", 
		 "functional": "B3LYP", 
		 "basiset": "6-31G**", 
		 "properties": { 
			 "R2extent": 1303.3018, 
			 "electric_dipole_moment_norm": 5.27946410633, 
			 "electric_quadrupole_moment_norm": 12.8866590546, 
			 "total_energy": -609.593726293, 
			 "HOMO_LUMO_gap": 0.17835, 
			 "cosmo_polarized_energy": -13.61, 
			 "cosmo_cavitation_energy": 17.38, 
			 "cosmo_dispersion_energy": -13.88, 
			 "cosmo_repulsion_energy": 1.16, 
			 "cosmo_total_nonelectrostatic_energy": 4.67, 
			 "SMD_solvation_energy": 0.95 
		},
		"coords": [
			{
				"x": 1.8827061772,
				"y": 0.3855238246,
				"z": -1.7873263934,
				"element": "S" 
			},
			{
				"x": 0.5005478168,
				"y": 1.0994865909,
				"z": -1.2116496273,
				"element": "C" 
			},
			{
				"x": -0.8979131517,
				"y": 0.497451136,
				"z": -1.1623205883,
				"element": "C" 
			},
			{
				"x": -1.825852905,
				"y": 1.6946891066,
				"z": -0.8742605495,
				"element": "C" 
			},
			{
				"x": -0.905573886,
				"y": 2.7022555188,
				"z": -0.1542778338,
				"element": "C" 
			},
			{
				"x": 0.4119852803,
				"y": 2.3286123763,
				"z": -0.6655961114,
				"element": "N" 
			},
			{
				"x": -1.1274423293,
				"y": -0.035984509,
				"z": -2.0859609761,
				"element": "H" 
			},
			{
				"x": -0.9161978624,
				"y": -0.2393094851,
				"z": -0.3496362712,
				"element": "H" 
			},
			{
				"x": -2.7010381839,
				"y": 1.4331873347,
				"z": -0.2751203248,
				"element": "H" 
			},
			{
				"x": -2.1791053458,
				"y": 2.1292201208,
				"z": -1.8144655666,
				"element": "H" 
			},
			{
				"x": -0.9458977317,
				"y": 2.5880311245,
				"z": 0.9382580766,
				"element": "H" 
			},
			{
				"x": -1.1381551542,
				"y": 3.7445434796,
				"z": -0.3937892871,
				"element": "H" 
			},
			{
				"x": 1.2462372757,
				"y": 2.8797933811,
				"z": -0.5165545471,
				"element": "H" 
			}
		],
		 "valence_orbital": [ 
			{
				"type": "occ",
				"energy": -0.37312,
				"method": "rhf"
			},
			{
				"type": "occ",
				"energy": -0.34955,
				"method": "rhf"
			},
			{
				"type": "occ",
				"energy": -0.32189,
				"method": "rhf"
			},
			{
				"type": "occ",
				"energy": -0.22143,
				"method": "rhf"
			},
			{
				"type": "occ",
				"energy": -0.2002,
				"method": "rhf"
			},
			{
				"type": "unocc",
				"energy": -0.02185,
				"method": "rhf"
			},
			{
				"type": "unocc",
				"energy": 0.0661,
				"method": "rhf"
			},
			{
				"type": "unocc",
				"energy": 0.10164,
				"method": "rhf"
			},
			{
				"type": "unocc",
				"energy": 0.10196,
				"method": "rhf"
			},
			{
				"type": "unocc",
				"energy": 0.12279,
				"method": "rhf"
			}
		],
		"cosmo_sigma_profile": { 
			"-0.025": 0.0,
			"-0.024": 0.0,
			"-0.023": 0.0,
			"-0.022": 0.0,
			"-0.021": 0.0,
			"-0.02": 0.0,
			"-0.019": 0.0,
			"-0.018": 0.0,
			"-0.017": 0.0,
			"-0.016": 0.0453056908903,
			"-0.015": 0.966016684374,
			"-0.014": 1.44711808226,
			"-0.013": 0.644214819378,
			"-0.012": 1.13515659721,
			"-0.011": 0.907028305963,
			"-0.01": 1.03066018587,
			"-0.009": 1.14347518458,
			"-0.008": 0.54845850366,
			"-0.007": 1.52043779028,
			"-0.006": 6.46477611048,
			"-0.005": 16.4921345214,
			"-0.004": 20.51642451,
			"-0.003": 15.6553521148,
			"-0.002": 10.2813968504,
			"-0.001": 7.98207385335,
			"0.0": 3.53525374284,
			"0.001": 2.59975802732,
			"0.002": 2.22219822451,
			"0.003": 1.98990738759,
			"0.004": 3.27551817224,
			"0.005": 3.32936774047,
			"0.006": 3.41929200157,
			"0.007": 4.21709109434,
			"0.008": 4.07656066636,
			"0.009": 5.53459541056,
			"0.01": 6.97289909739,
			"0.011": 4.71577832982,
			"0.012": 3.82328402101,
			"0.013": 2.72242738867,
			"0.014": 0.201779099343,
			"0.015": 0.0,
			"0.016": 0.0,
			"0.017": 0.0,
			"0.018": 0.0,
			"0.019": 0.0,
			"0.02": 0.0,
			"0.021": 0.0,
			"0.022": 0.0,
			"0.023": 0.0,
			"0.024": 0.0,
			"0.025": 0.0
		}
	}
}
