{
	 "smiles": "CC1=C(C)C(=N)N(N1)C1=CC=C(Br)C=C1", 
	 "Tm": 405.15, 
	 "num_atms": 27, 
	 "gaussian": { 
		 "optdone": 1, 
		 "sigma_profile": "yes", 
		 "theory": "DFT", 
		 "functional": "B3LYP", 
		 "basiset": "6-31G**", 
		 "properties": { 
			 "R2extent": 8398.8067, 
			 "electric_dipole_moment_norm": 6.13365133179, 
			 "electric_quadrupole_moment_norm": 12.6618184409, 
			 "total_energy": -3162.02823762, 
			 "HOMO_LUMO_gap": 0.17041, 
			 "cosmo_polarized_energy": -13.7, 
			 "cosmo_cavitation_energy": 32.64, 
			 "cosmo_dispersion_energy": -24.35, 
			 "cosmo_repulsion_energy": 1.9, 
			 "cosmo_total_nonelectrostatic_energy": 10.19, 
			 "SMD_solvation_energy": 3.86 
		},
		"coords": [
			{
				"x": -3.0027762701,
				"y": -0.997113081,
				"z": -2.574781233,
				"element": "C" 
			},
			{
				"x": -1.8845229045,
				"y": -0.7640532793,
				"z": -1.6119020065,
				"element": "C" 
			},
			{
				"x": -1.624848248,
				"y": -1.2975273659,
				"z": -0.3957268686,
				"element": "C" 
			},
			{
				"x": -2.4269087161,
				"y": -2.2627783672,
				"z": 0.4158635625,
				"element": "C" 
			},
			{
				"x": -0.3494113865,
				"y": -0.7424886921,
				"z": 0.0791464556,
				"element": "C" 
			},
			{
				"x": 0.3122479213,
				"y": -0.9259869307,
				"z": 1.1681582306,
				"element": "N" 
			},
			{
				"x": 0.0804456272,
				"y": 0.1214818533,
				"z": -0.946045535,
				"element": "N" 
			},
			{
				"x": -0.9114499335,
				"y": 0.1898631775,
				"z": -1.9539293778,
				"element": "N" 
			},
			{
				"x": 1.0547589993,
				"y": 1.1348174916,
				"z": -0.9037288461,
				"element": "C" 
			},
			{
				"x": 2.1321011459,
				"y": 1.0564621012,
				"z": -0.0026752842,
				"element": "C" 
			},
			{
				"x": 3.1115438326,
				"y": 2.0462707328,
				"z": -0.0043263115,
				"element": "C" 
			},
			{
				"x": 3.0327016342,
				"y": 3.1089350295,
				"z": -0.902428586,
				"element": "C" 
			},
			{
				"x": 4.3919738919,
				"y": 4.4562073736,
				"z": -0.9051058754,
				"element": "Br" 
			},
			{
				"x": 1.9704110196,
				"y": 3.1999983277,
				"z": -1.7973193063,
				"element": "C" 
			},
			{
				"x": 0.9821533632,
				"y": 2.2178802672,
				"z": -1.7965362317,
				"element": "C" 
			},
			{
				"x": -3.581641107,
				"y": -0.080414052,
				"z": -2.7316263998,
				"element": "H" 
			},
			{
				"x": -3.6766002232,
				"y": -1.7729721232,
				"z": -2.2080088709,
				"element": "H" 
			},
			{
				"x": -2.6255538017,
				"y": -1.3173788241,
				"z": -3.5541844335,
				"element": "H" 
			},
			{
				"x": -3.3436279924,
				"y": -2.5628646161,
				"z": -0.0972660346,
				"element": "H" 
			},
			{
				"x": -2.7141773168,
				"y": -1.8273649443,
				"z": 1.381341066,
				"element": "H" 
			},
			{
				"x": -1.8514781094,
				"y": -3.1713543602,
				"z": 0.6316543958,
				"element": "H" 
			},
			{
				"x": -0.2043995879,
				"y": -1.558735023,
				"z": 1.7780234592,
				"element": "H" 
			},
			{
				"x": -0.493255111,
				"y": 0.0396990355,
				"z": -2.8733663975,
				"element": "H" 
			},
			{
				"x": 2.1722925881,
				"y": 0.2343945847,
				"z": 0.6989776065,
				"element": "H" 
			},
			{
				"x": 3.9385716608,
				"y": 1.9844055938,
				"z": 0.6940911056,
				"element": "H" 
			},
			{
				"x": 1.9045659989,
				"y": 4.0349275357,
				"z": -2.4857818336,
				"element": "H" 
			},
			{
				"x": 0.1390830254,
				"y": 2.3111885548,
				"z": -2.4704164497,
				"element": "H" 
			}
		],
		 "valence_orbital": [ 
			{
				"type": "occ",
				"energy": -0.27201,
				"method": "rhf"
			},
			{
				"type": "occ",
				"energy": -0.25676,
				"method": "rhf"
			},
			{
				"type": "occ",
				"energy": -0.25104,
				"method": "rhf"
			},
			{
				"type": "occ",
				"energy": -0.22608,
				"method": "rhf"
			},
			{
				"type": "occ",
				"energy": -0.19326,
				"method": "rhf"
			},
			{
				"type": "unocc",
				"energy": -0.02285,
				"method": "rhf"
			},
			{
				"type": "unocc",
				"energy": -0.00333,
				"method": "rhf"
			},
			{
				"type": "unocc",
				"energy": 0.01295,
				"method": "rhf"
			},
			{
				"type": "unocc",
				"energy": 0.01861,
				"method": "rhf"
			},
			{
				"type": "unocc",
				"energy": 0.06634,
				"method": "rhf"
			}
		],
		"cosmo_sigma_profile": { 
			"-0.025": 0.0,
			"-0.024": 0.0,
			"-0.023": 0.0,
			"-0.022": 0.0,
			"-0.021": 0.0,
			"-0.02": 0.0,
			"-0.019": 0.0,
			"-0.018": 0.0,
			"-0.017": 0.0,
			"-0.016": 0.0,
			"-0.015": 0.298152014262,
			"-0.014": 1.40430610843,
			"-0.013": 1.09742027447,
			"-0.012": 1.40497139571,
			"-0.011": 1.56886456646,
			"-0.01": 1.55623441636,
			"-0.009": 1.81580749449,
			"-0.008": 2.89914535729,
			"-0.007": 5.17577013695,
			"-0.006": 12.3051810074,
			"-0.005": 14.9854626143,
			"-0.004": 18.6450431086,
			"-0.003": 18.0725816936,
			"-0.002": 22.0423536421,
			"-0.001": 19.6949194011,
			"0.0": 17.0827891165,
			"0.001": 17.5251306127,
			"0.002": 20.5819284101,
			"0.003": 25.6056208106,
			"0.004": 24.7967932212,
			"0.005": 15.0182217242,
			"0.006": 3.05753913372,
			"0.007": 2.50608003737,
			"0.008": 2.39543058608,
			"0.009": 1.98744218513,
			"0.01": 2.24221804342,
			"0.011": 1.53959279908,
			"0.012": 1.13313368849,
			"0.013": 2.40006431752,
			"0.014": 1.6155086646,
			"0.015": 0.80590832282,
			"0.016": 0.0,
			"0.017": 0.0,
			"0.018": 0.0,
			"0.019": 0.0,
			"0.02": 0.0,
			"0.021": 0.0,
			"0.022": 0.0,
			"0.023": 0.0,
			"0.024": 0.0,
			"0.025": 0.0
		}
	}
}
