{
	 "smiles": "CCCC1=CC(=NN1)C(=O)OCC", 
	 "Tm": 322.15, 
	 "num_atms": 27, 
	 "gaussian": { 
		 "optdone": 1, 
		 "sigma_profile": "yes", 
		 "theory": "DFT", 
		 "functional": "B3LYP", 
		 "basiset": "6-31G**", 
		 "properties": { 
			 "R2extent": 3738.1887, 
			 "electric_dipole_moment_norm": 4.40026609877, 
			 "electric_quadrupole_moment_norm": 16.7899465577, 
			 "total_energy": -611.352240164, 
			 "HOMO_LUMO_gap": 0.2247, 
			 "cosmo_polarized_energy": -15.77, 
			 "cosmo_cavitation_energy": 30.97, 
			 "cosmo_dispersion_energy": -21.97, 
			 "cosmo_repulsion_energy": 1.81, 
			 "cosmo_total_nonelectrostatic_energy": 10.81, 
			 "SMD_solvation_energy": 5.36 
		},
		"coords": [
			{
				"x": 0.5884185553,
				"y": 1.3298666395,
				"z": 3.3793425216,
				"element": "C" 
			},
			{
				"x": -0.9200998466,
				"y": 1.4549954596,
				"z": 3.1512660162,
				"element": "C" 
			},
			{
				"x": -1.4925329326,
				"y": 0.3935952169,
				"z": 2.1834443911,
				"element": "C" 
			},
			{
				"x": -0.9811225057,
				"y": 0.497904837,
				"z": 0.7773570872,
				"element": "C" 
			},
			{
				"x": -0.053718634,
				"y": -0.2360186367,
				"z": 0.0631030512,
				"element": "C" 
			},
			{
				"x": 0.0060509448,
				"y": 0.3793521566,
				"z": -1.2137283437,
				"element": "C" 
			},
			{
				"x": -0.8245072972,
				"y": 1.4246385407,
				"z": -1.2978376264,
				"element": "N" 
			},
			{
				"x": -1.4008672119,
				"y": 1.4728098964,
				"z": -0.0884544778,
				"element": "N" 
			},
			{
				"x": 0.8350325026,
				"y": 0.0026556108,
				"z": -2.3809882651,
				"element": "C" 
			},
			{
				"x": 0.8503936632,
				"y": 0.5716956195,
				"z": -3.4514941865,
				"element": "O" 
			},
			{
				"x": 1.5948901314,
				"y": -1.0842321638,
				"z": -2.0846259747,
				"element": "O" 
			},
			{
				"x": 2.4564313055,
				"y": -1.5657869496,
				"z": -3.1401037117,
				"element": "C" 
			},
			{
				"x": 1.7156896811,
				"y": -2.512549851,
				"z": -4.073438148,
				"element": "C" 
			},
			{
				"x": 0.8409082209,
				"y": 0.3553069187,
				"z": 3.8128711935,
				"element": "H" 
			},
			{
				"x": 0.9467115709,
				"y": 2.1025869894,
				"z": 4.0665788286,
				"element": "H" 
			},
			{
				"x": 1.1431841588,
				"y": 1.429558993,
				"z": 2.4413319459,
				"element": "H" 
			},
			{
				"x": -1.1540090656,
				"y": 2.4572075381,
				"z": 2.7686935319,
				"element": "H" 
			},
			{
				"x": -1.4482352895,
				"y": 1.3624253956,
				"z": 4.1081276259,
				"element": "H" 
			},
			{
				"x": -2.588329518,
				"y": 0.4650107984,
				"z": 2.1787984613,
				"element": "H" 
			},
			{
				"x": -1.2526812499,
				"y": -0.6069470495,
				"z": 2.5593715467,
				"element": "H" 
			},
			{
				"x": 0.5028302907,
				"y": -1.0955755592,
				"z": 0.4018719674,
				"element": "H" 
			},
			{
				"x": -2.0887342064,
				"y": 2.1900450309,
				"z": 0.0885619579,
				"element": "H" 
			},
			{
				"x": 2.8562178325,
				"y": -0.7090810272,
				"z": -3.6881109134,
				"element": "H" 
			},
			{
				"x": 3.2703545356,
				"y": -2.0747616895,
				"z": -2.6174853982,
				"element": "H" 
			},
			{
				"x": 2.4086867926,
				"y": -2.9207073815,
				"z": -4.8169454714,
				"element": "H" 
			},
			{
				"x": 0.9190557925,
				"y": -1.9828076823,
				"z": -4.6011819676,
				"element": "H" 
			},
			{
				"x": 1.2786817791,
				"y": -3.3466876508,
				"z": -3.5163256419,
				"element": "H" 
			}
		],
		 "valence_orbital": [ 
			{
				"type": "occ",
				"energy": -0.29224,
				"method": "rhf"
			},
			{
				"type": "occ",
				"energy": -0.28769,
				"method": "rhf"
			},
			{
				"type": "occ",
				"energy": -0.26131,
				"method": "rhf"
			},
			{
				"type": "occ",
				"energy": -0.26079,
				"method": "rhf"
			},
			{
				"type": "occ",
				"energy": -0.24474,
				"method": "rhf"
			},
			{
				"type": "unocc",
				"energy": -0.02004,
				"method": "rhf"
			},
			{
				"type": "unocc",
				"energy": 0.02587,
				"method": "rhf"
			},
			{
				"type": "unocc",
				"energy": 0.06627,
				"method": "rhf"
			},
			{
				"type": "unocc",
				"energy": 0.10246,
				"method": "rhf"
			},
			{
				"type": "unocc",
				"energy": 0.1143,
				"method": "rhf"
			}
		],
		"cosmo_sigma_profile": { 
			"-0.025": 0.0,
			"-0.024": 0.0,
			"-0.023": 0.0,
			"-0.022": 0.0,
			"-0.021": 0.0,
			"-0.02": 0.0,
			"-0.019": 0.0,
			"-0.018": 0.0,
			"-0.017": 0.399351497958,
			"-0.016": 1.28123426778,
			"-0.015": 1.26768915216,
			"-0.014": 1.28558674782,
			"-0.013": 1.15842706699,
			"-0.012": 0.864288487672,
			"-0.011": 1.31709224322,
			"-0.01": 1.16510750627,
			"-0.009": 0.983343715427,
			"-0.008": 1.2413798752,
			"-0.007": 1.85385674258,
			"-0.006": 5.054269254,
			"-0.005": 10.0620698753,
			"-0.004": 16.6411221994,
			"-0.003": 25.0707085739,
			"-0.002": 29.9963995867,
			"-0.001": 28.9032010212,
			"0.0": 26.4672609065,
			"0.001": 21.3893915042,
			"0.002": 12.2240211825,
			"0.003": 10.7336451853,
			"0.004": 7.57817887737,
			"0.005": 4.59674229015,
			"0.006": 4.33533321539,
			"0.007": 3.41615766826,
			"0.008": 2.14376062844,
			"0.009": 2.45736104792,
			"0.01": 2.61039318443,
			"0.011": 3.2774393943,
			"0.012": 5.59837762593,
			"0.013": 2.38342189937,
			"0.014": 2.50175812979,
			"0.015": 1.96131659201,
			"0.016": 0.896754535697,
			"0.017": 0.0,
			"0.018": 0.0,
			"0.019": 0.0,
			"0.02": 0.0,
			"0.021": 0.0,
			"0.022": 0.0,
			"0.023": 0.0,
			"0.024": 0.0,
			"0.025": 0.0
		}
	}
}
