{
	 "smiles": "COCC1=C(SC2=C1C(F)=CC=C2)C(O)=O", 
	 "Tm": 407.15, 
	 "num_atms": 25, 
	 "gaussian": { 
		 "optdone": 1, 
		 "sigma_profile": "yes", 
		 "theory": "DFT", 
		 "functional": "B3LYP", 
		 "basiset": "6-31G**", 
		 "properties": { 
			 "R2extent": 3834.1568, 
			 "electric_dipole_moment_norm": 2.53824377474, 
			 "electric_quadrupole_moment_norm": 11.7426886036, 
			 "total_energy": -1148.28347162, 
			 "HOMO_LUMO_gap": 0.15775, 
			 "cosmo_polarized_energy": -12.2, 
			 "cosmo_cavitation_energy": 30.63, 
			 "cosmo_dispersion_energy": -22.6, 
			 "cosmo_repulsion_energy": 1.68, 
			 "cosmo_total_nonelectrostatic_energy": 9.72, 
			 "SMD_solvation_energy": 6.85 
		},
		"coords": [
			{
				"x": -0.8123781328,
				"y": 1.1279839963,
				"z": 3.2679645823,
				"element": "C" 
			},
			{
				"x": -0.5682845949,
				"y": -0.2667163386,
				"z": 3.2439771217,
				"element": "O" 
			},
			{
				"x": -1.1413193324,
				"y": -0.9394028725,
				"z": 2.131312267,
				"element": "C" 
			},
			{
				"x": -0.4459224618,
				"y": -0.6224857055,
				"z": 0.8143513549,
				"element": "C" 
			},
			{
				"x": 0.7770863759,
				"y": -1.1327072956,
				"z": 0.4383486708,
				"element": "C" 
			},
			{
				"x": 1.3502520626,
				"y": -0.5472195202,
				"z": -1.115052426,
				"element": "S" 
			},
			{
				"x": -0.0879107329,
				"y": 0.4184935183,
				"z": -1.3085929135,
				"element": "C" 
			},
			{
				"x": -0.9562800268,
				"y": 0.2844221093,
				"z": -0.1907623811,
				"element": "C" 
			},
			{
				"x": -2.1527052268,
				"y": 1.0304897888,
				"z": -0.2391027919,
				"element": "C" 
			},
			{
				"x": -3.0262960135,
				"y": 0.96190243,
				"z": 0.7931282775,
				"element": "F" 
			},
			{
				"x": -2.4710020079,
				"y": 1.843516644,
				"z": -1.3072618481,
				"element": "C" 
			},
			{
				"x": -1.5824962702,
				"y": 1.9443939424,
				"z": -2.3932620952,
				"element": "C" 
			},
			{
				"x": -0.3882294312,
				"y": 1.2387110619,
				"z": -2.4043440982,
				"element": "C" 
			},
			{
				"x": 1.6925772701,
				"y": -2.0792544415,
				"z": 1.1029555751,
				"element": "C" 
			},
			{
				"x": 1.2212510912,
				"y": -2.5971112335,
				"z": 2.2575559188,
				"element": "O" 
			},
			{
				"x": 2.780064305,
				"y": -2.3815350316,
				"z": 0.6467999636,
				"element": "O" 
			},
			{
				"x": -0.4139757827,
				"y": 1.4998137623,
				"z": 4.2150751869,
				"element": "H" 
			},
			{
				"x": -1.8867038331,
				"y": 1.3564577891,
				"z": 3.2151624795,
				"element": "H" 
			},
			{
				"x": -0.3067610739,
				"y": 1.6546102508,
				"z": 2.4453048018,
				"element": "H" 
			},
			{
				"x": -1.0337205867,
				"y": -2.0010917747,
				"z": 2.3506304812,
				"element": "H" 
			},
			{
				"x": -2.2064973,
				"y": -0.7037248028,
				"z": 2.043938055,
				"element": "H" 
			},
			{
				"x": -3.4053831322,
				"y": 2.3930849337,
				"z": -1.2870652579,
				"element": "H" 
			},
			{
				"x": -1.8394055338,
				"y": 2.5858605248,
				"z": -3.2303407196,
				"element": "H" 
			},
			{
				"x": 0.298222203,
				"y": 1.3178736661,
				"z": -3.240747659,
				"element": "H" 
			},
			{
				"x": 1.9196181657,
				"y": -3.1873654014,
				"z": 2.5866274544,
				"element": "H" 
			}
		],
		 "valence_orbital": [ 
			{
				"type": "occ",
				"energy": -0.29115,
				"method": "rhf"
			},
			{
				"type": "occ",
				"energy": -0.28559,
				"method": "rhf"
			},
			{
				"type": "occ",
				"energy": -0.25864,
				"method": "rhf"
			},
			{
				"type": "occ",
				"energy": -0.25201,
				"method": "rhf"
			},
			{
				"type": "occ",
				"energy": -0.22883,
				"method": "rhf"
			},
			{
				"type": "unocc",
				"energy": -0.07108,
				"method": "rhf"
			},
			{
				"type": "unocc",
				"energy": -0.01511,
				"method": "rhf"
			},
			{
				"type": "unocc",
				"energy": 0.006,
				"method": "rhf"
			},
			{
				"type": "unocc",
				"energy": 0.01251,
				"method": "rhf"
			},
			{
				"type": "unocc",
				"energy": 0.06764,
				"method": "rhf"
			}
		],
		"cosmo_sigma_profile": { 
			"-0.025": 0.0,
			"-0.024": 0.0,
			"-0.023": 0.0,
			"-0.022": 0.0,
			"-0.021": 0.0,
			"-0.02": 0.0,
			"-0.019": 0.262942647157,
			"-0.018": 1.08422893116,
			"-0.017": 0.878005111998,
			"-0.016": 0.975691620585,
			"-0.015": 0.890632281208,
			"-0.014": 0.279446704573,
			"-0.013": 0.841482783454,
			"-0.012": 0.684001537105,
			"-0.011": 0.702649749989,
			"-0.01": 0.622558313282,
			"-0.009": 0.662097781939,
			"-0.008": 2.60134055857,
			"-0.007": 7.6360095274,
			"-0.006": 8.12607996263,
			"-0.005": 9.30021106055,
			"-0.004": 15.1263244043,
			"-0.003": 21.9360182439,
			"-0.002": 23.7230700949,
			"-0.001": 19.2902473955,
			"0.0": 21.2198487395,
			"0.001": 22.5204239878,
			"0.002": 21.4011846465,
			"0.003": 20.4505576589,
			"0.004": 13.594780571,
			"0.005": 3.4560098981,
			"0.006": 3.22129433479,
			"0.007": 3.17403412405,
			"0.008": 2.95326518231,
			"0.009": 3.86714841575,
			"0.01": 3.67814727758,
			"0.011": 6.80565627102,
			"0.012": 3.09204210618,
			"0.013": 1.97389318416,
			"0.014": 0.152702140224,
			"0.015": 0.0,
			"0.016": 0.0,
			"0.017": 0.0,
			"0.018": 0.0,
			"0.019": 0.0,
			"0.02": 0.0,
			"0.021": 0.0,
			"0.022": 0.0,
			"0.023": 0.0,
			"0.024": 0.0,
			"0.025": 0.0
		}
	}
}
