{
	 "smiles": "FC(F)(F)C1=CC=C(C=C1)C1=CC=C(O1)C=O", 
	 "Tm": 380.15, 
	 "num_atms": 24, 
	 "gaussian": { 
		 "optdone": 1, 
		 "sigma_profile": "yes", 
		 "theory": "DFT", 
		 "functional": "B3LYP", 
		 "basiset": "6-31G**", 
		 "properties": { 
			 "R2extent": 5870.9669, 
			 "electric_dipole_moment_norm": 4.33757082478, 
			 "electric_quadrupole_moment_norm": 18.4486898172, 
			 "total_energy": -911.445596907, 
			 "HOMO_LUMO_gap": 0.1521, 
			 "cosmo_polarized_energy": -11.67, 
			 "cosmo_cavitation_energy": 31.48, 
			 "cosmo_dispersion_energy": -22.15, 
			 "cosmo_repulsion_energy": 1.63, 
			 "cosmo_total_nonelectrostatic_energy": 10.96, 
			 "SMD_solvation_energy": 8.06 
		},
		"coords": [
			{
				"x": -3.6790552015,
				"y": 1.6970494749,
				"z": -2.0005781749,
				"element": "F" 
			},
			{
				"x": -2.7444610432,
				"y": 0.9214531947,
				"z": -2.5981160749,
				"element": "C" 
			},
			{
				"x": -2.3376482079,
				"y": 1.5815354066,
				"z": -3.7053930869,
				"element": "F" 
			},
			{
				"x": -3.3683070784,
				"y": -0.2067669178,
				"z": -3.0006726044,
				"element": "F" 
			},
			{
				"x": -1.5963085056,
				"y": 0.6271293655,
				"z": -1.6706594712,
				"element": "C" 
			},
			{
				"x": -0.5170701865,
				"y": 1.5136071232,
				"z": -1.5951635129,
				"element": "C" 
			},
			{
				"x": 0.5189839714,
				"y": 1.2731903678,
				"z": -0.7013771537,
				"element": "C" 
			},
			{
				"x": 0.4942328254,
				"y": 0.1423583152,
				"z": 0.1348941594,
				"element": "C" 
			},
			{
				"x": -0.5949728933,
				"y": -0.7433298883,
				"z": 0.0493568385,
				"element": "C" 
			},
			{
				"x": -1.630947471,
				"y": -0.5005374032,
				"z": -0.8460645682,
				"element": "C" 
			},
			{
				"x": 1.5818359937,
				"y": -0.1091721969,
				"z": 1.0716295121,
				"element": "C" 
			},
			{
				"x": 2.7490037768,
				"y": 0.5671957856,
				"z": 1.3674670772,
				"element": "C" 
			},
			{
				"x": 3.4012508064,
				"y": -0.1803661435,
				"z": 2.378037195,
				"element": "C" 
			},
			{
				"x": 2.5998811893,
				"y": -1.2678484902,
				"z": 2.6429075495,
				"element": "C" 
			},
			{
				"x": 1.4906181379,
				"y": -1.2230071339,
				"z": 1.8453176273,
				"element": "O" 
			},
			{
				"x": 2.7565762304,
				"y": -2.3705578737,
				"z": 3.5787684244,
				"element": "C" 
			},
			{
				"x": 1.9673685308,
				"y": -3.2869017827,
				"z": 3.7223967111,
				"element": "O" 
			},
			{
				"x": -0.4876886924,
				"y": 2.3834406583,
				"z": -2.2424666022,
				"element": "H" 
			},
			{
				"x": 1.353208243,
				"y": 1.9656542691,
				"z": -0.654326325,
				"element": "H" 
			},
			{
				"x": -0.6196918624,
				"y": -1.6200190679,
				"z": 0.6866916051,
				"element": "H" 
			},
			{
				"x": -2.4647852755,
				"y": -1.1910086033,
				"z": -0.9123296728,
				"element": "H" 
			},
			{
				"x": 3.0927093153,
				"y": 1.4854049407,
				"z": 0.914870958,
				"element": "H" 
			},
			{
				"x": 4.3436279867,
				"y": 0.0455964286,
				"z": 2.8573289411,
				"element": "H" 
			},
			{
				"x": 3.6939394106,
				"y": -2.3015998288,
				"z": 4.1720806485,
				"element": "H" 
			}
		],
		 "valence_orbital": [ 
			{
				"type": "occ",
				"energy": -0.31079,
				"method": "rhf"
			},
			{
				"type": "occ",
				"energy": -0.30118,
				"method": "rhf"
			},
			{
				"type": "occ",
				"energy": -0.27747,
				"method": "rhf"
			},
			{
				"type": "occ",
				"energy": -0.2604,
				"method": "rhf"
			},
			{
				"type": "occ",
				"energy": -0.23435,
				"method": "rhf"
			},
			{
				"type": "unocc",
				"energy": -0.08225,
				"method": "rhf"
			},
			{
				"type": "unocc",
				"energy": -0.0346,
				"method": "rhf"
			},
			{
				"type": "unocc",
				"energy": -0.02524,
				"method": "rhf"
			},
			{
				"type": "unocc",
				"energy": 0.04247,
				"method": "rhf"
			},
			{
				"type": "unocc",
				"energy": 0.07635,
				"method": "rhf"
			}
		],
		"cosmo_sigma_profile": { 
			"-0.025": 0.0,
			"-0.024": 0.0,
			"-0.023": 0.0,
			"-0.022": 0.0,
			"-0.021": 0.0,
			"-0.02": 0.0,
			"-0.019": 0.0,
			"-0.018": 0.0,
			"-0.017": 0.0,
			"-0.016": 0.0,
			"-0.015": 0.0,
			"-0.014": 0.0,
			"-0.013": 0.0,
			"-0.012": 0.0,
			"-0.011": 0.0,
			"-0.01": 0.51463346609,
			"-0.009": 4.21896238689,
			"-0.008": 6.90602848256,
			"-0.007": 12.2641244268,
			"-0.006": 13.7240584293,
			"-0.005": 11.7579005883,
			"-0.004": 11.9498566165,
			"-0.003": 10.9315067827,
			"-0.002": 12.2050408056,
			"-0.001": 18.4247246914,
			"0.0": 26.5113261687,
			"0.001": 24.6181746836,
			"0.002": 39.9253130567,
			"0.003": 32.9895575691,
			"0.004": 3.23719458296,
			"0.005": 2.09646259945,
			"0.006": 2.04701149484,
			"0.007": 2.22154024235,
			"0.008": 1.80142705013,
			"0.009": 2.36606320739,
			"0.01": 2.91641347348,
			"0.011": 4.04447942906,
			"0.012": 4.63988850846,
			"0.013": 1.98686308596,
			"0.014": 0.079771384719,
			"0.015": 0.0,
			"0.016": 0.0,
			"0.017": 0.0,
			"0.018": 0.0,
			"0.019": 0.0,
			"0.02": 0.0,
			"0.021": 0.0,
			"0.022": 0.0,
			"0.023": 0.0,
			"0.024": 0.0,
			"0.025": 0.0
		}
	}
}
