{
	 "smiles": "OC1=CC(Cl)=C(F)C=C1", 
	 "Tm": 314.15, 
	 "num_atms": 13, 
	 "gaussian": { 
		 "optdone": 1, 
		 "sigma_profile": "yes", 
		 "theory": "DFT", 
		 "functional": "B3LYP", 
		 "basiset": "6-31G**", 
		 "properties": { 
			 "R2extent": 1761.4596, 
			 "electric_dipole_moment_norm": 3.59335379416, 
			 "electric_quadrupole_moment_norm": 3.31045139218, 
			 "total_energy": -866.288811541, 
			 "HOMO_LUMO_gap": 0.20503, 
			 "cosmo_polarized_energy": -8.73, 
			 "cosmo_cavitation_energy": 19.71, 
			 "cosmo_dispersion_energy": -14.85, 
			 "cosmo_repulsion_energy": 1.2, 
			 "cosmo_total_nonelectrostatic_energy": 6.06, 
			 "SMD_solvation_energy": 4.04 
		},
		"coords": [
			{
				"x": -0.1758606208,
				"y": -3.2538563644,
				"z": -0.1037532143,
				"element": "O" 
			},
			{
				"x": -0.2951141717,
				"y": -1.8944874526,
				"z": -0.0561880838,
				"element": "C" 
			},
			{
				"x": -1.5757570601,
				"y": -1.3793653413,
				"z": 0.1738692996,
				"element": "C" 
			},
			{
				"x": -1.762823346,
				"y": -0.0014327246,
				"z": 0.2334182437,
				"element": "C" 
			},
			{
				"x": -3.3527916459,
				"y": 0.6605935544,
				"z": 0.5195191007,
				"element": "Cl" 
			},
			{
				"x": -0.677453376,
				"y": 0.8619634272,
				"z": 0.0643306819,
				"element": "C" 
			},
			{
				"x": -0.8600134729,
				"y": 2.1929016694,
				"z": 0.1221539753,
				"element": "F" 
			},
			{
				"x": 0.5931748068,
				"y": 0.351929713,
				"z": -0.163893414,
				"element": "C" 
			},
			{
				"x": 0.789746473,
				"y": -1.0274632524,
				"z": -0.2251011118,
				"element": "C" 
			},
			{
				"x": 0.7466040951,
				"y": -3.488636813,
				"z": -0.2668358591,
				"element": "H" 
			},
			{
				"x": -2.4114865747,
				"y": -2.0563937841,
				"z": 0.3038083464,
				"element": "H" 
			},
			{
				"x": 1.4180847131,
				"y": 1.0444008593,
				"z": -0.2916685717,
				"element": "H" 
			},
			{
				"x": 1.7857901801,
				"y": -1.4244534908,
				"z": -0.4039593929,
				"element": "H" 
			}
		],
		 "valence_orbital": [ 
			{
				"type": "occ",
				"energy": -0.36042,
				"method": "rhf"
			},
			{
				"type": "occ",
				"energy": -0.3228,
				"method": "rhf"
			},
			{
				"type": "occ",
				"energy": -0.31686,
				"method": "rhf"
			},
			{
				"type": "occ",
				"energy": -0.25996,
				"method": "rhf"
			},
			{
				"type": "occ",
				"energy": -0.22932,
				"method": "rhf"
			},
			{
				"type": "unocc",
				"energy": -0.02429,
				"method": "rhf"
			},
			{
				"type": "unocc",
				"energy": 0.00343,
				"method": "rhf"
			},
			{
				"type": "unocc",
				"energy": 0.02241,
				"method": "rhf"
			},
			{
				"type": "unocc",
				"energy": 0.0578,
				"method": "rhf"
			},
			{
				"type": "unocc",
				"energy": 0.10482,
				"method": "rhf"
			}
		],
		"cosmo_sigma_profile": { 
			"-0.025": 0.0,
			"-0.024": 0.0,
			"-0.023": 0.0,
			"-0.022": 0.0,
			"-0.021": 0.0,
			"-0.02": 0.0,
			"-0.019": 0.153757341919,
			"-0.018": 0.929894386528,
			"-0.017": 1.38402289381,
			"-0.016": 0.995372670798,
			"-0.015": 1.13284850223,
			"-0.014": 0.855694913695,
			"-0.013": 0.788320026314,
			"-0.012": 0.8630609938,
			"-0.011": 0.974192747605,
			"-0.01": 1.30596194374,
			"-0.009": 1.43217225279,
			"-0.008": 3.69260527203,
			"-0.007": 5.22782229822,
			"-0.006": 4.82751315153,
			"-0.005": 5.14071273495,
			"-0.004": 3.96176203713,
			"-0.003": 5.47279542827,
			"-0.002": 6.86369256818,
			"-0.001": 6.82494778607,
			"0.0": 12.606085522,
			"0.001": 17.91915999,
			"0.002": 20.7979731879,
			"0.003": 19.0599324485,
			"0.004": 19.8752865279,
			"0.005": 7.63595029103,
			"0.006": 2.53541806524,
			"0.007": 1.53843965009,
			"0.008": 1.1381730452,
			"0.009": 1.21841345549,
			"0.01": 1.97029916156,
			"0.011": 1.46246603486,
			"0.012": 0.00824083359237,
			"0.013": 0.0,
			"0.014": 0.0,
			"0.015": 0.0,
			"0.016": 0.0,
			"0.017": 0.0,
			"0.018": 0.0,
			"0.019": 0.0,
			"0.02": 0.0,
			"0.021": 0.0,
			"0.022": 0.0,
			"0.023": 0.0,
			"0.024": 0.0,
			"0.025": 0.0
		}
	}
}
