{
	 "smiles": "CC(O)CN(CC(C)O)C(=O)COC(=O)C1=CC=CC=C1", 
	 "Tm": 379.15, 
	 "num_atms": 42, 
	 "gaussian": { 
		 "optdone": 1, 
		 "sigma_profile": "yes", 
		 "theory": "DFT", 
		 "functional": "B3LYP", 
		 "basiset": "6-31G**", 
		 "properties": { 
			 "R2extent": 7982.2428, 
			 "electric_dipole_moment_norm": 1.03422342847, 
			 "electric_quadrupole_moment_norm": 19.6190828871, 
			 "total_energy": -1015.14049369, 
			 "HOMO_LUMO_gap": 0.18588, 
			 "cosmo_polarized_energy": -19.48, 
			 "cosmo_cavitation_energy": 43.0, 
			 "cosmo_dispersion_energy": -29.54, 
			 "cosmo_repulsion_energy": 2.26, 
			 "cosmo_total_nonelectrostatic_energy": 15.72, 
			 "SMD_solvation_energy": 7.82 
		},
		"coords": [
			{
				"x": -1.0248060721,
				"y": 2.5363436983,
				"z": -0.6204814981,
				"element": "C" 
			},
			{
				"x": -1.9292656851,
				"y": 1.7426044397,
				"z": -1.5596442833,
				"element": "C" 
			},
			{
				"x": -3.1847041705,
				"y": 2.3974107039,
				"z": -1.7640214679,
				"element": "O" 
			},
			{
				"x": -2.3354782389,
				"y": 0.361314925,
				"z": -1.0209006296,
				"element": "C" 
			},
			{
				"x": -1.2460507973,
				"y": -0.6025714951,
				"z": -0.7932101065,
				"element": "N" 
			},
			{
				"x": -0.9455882467,
				"y": -1.5956879361,
				"z": -1.8404176456,
				"element": "C" 
			},
			{
				"x": 0.3736376808,
				"y": -1.4497720175,
				"z": -2.6419398994,
				"element": "C" 
			},
			{
				"x": 0.5536483603,
				"y": -0.1113251462,
				"z": -3.3561653693,
				"element": "C" 
			},
			{
				"x": 1.5249231435,
				"y": -1.7784442969,
				"z": -1.8793703837,
				"element": "O" 
			},
			{
				"x": -0.7872075852,
				"y": -0.6942056901,
				"z": 0.5001274066,
				"element": "C" 
			},
			{
				"x": -1.1064675562,
				"y": 0.1037846968,
				"z": 1.3729314215,
				"element": "O" 
			},
			{
				"x": 0.1199432133,
				"y": -1.8783243531,
				"z": 0.8810894066,
				"element": "C" 
			},
			{
				"x": 1.0300683396,
				"y": -1.4733214221,
				"z": 1.9162398476,
				"element": "O" 
			},
			{
				"x": 1.9454568049,
				"y": -0.5550376049,
				"z": 1.5608615597,
				"element": "C" 
			},
			{
				"x": 2.0683925512,
				"y": -0.1380987574,
				"z": 0.4153986896,
				"element": "O" 
			},
			{
				"x": 2.7970918259,
				"y": -0.1144078734,
				"z": 2.6946366726,
				"element": "C" 
			},
			{
				"x": 2.5718106383,
				"y": -0.5527734891,
				"z": 4.0076100057,
				"element": "C" 
			},
			{
				"x": 3.3994398544,
				"y": -0.1086780005,
				"z": 5.036827218,
				"element": "C" 
			},
			{
				"x": 4.4504627824,
				"y": 0.7700803314,
				"z": 4.7620036983,
				"element": "C" 
			},
			{
				"x": 4.6751495866,
				"y": 1.2092721336,
				"z": 3.4543011723,
				"element": "C" 
			},
			{
				"x": 3.8504918836,
				"y": 0.769845358,
				"z": 2.4222470004,
				"element": "C" 
			},
			{
				"x": -0.7976754943,
				"y": 3.5179973222,
				"z": -1.0560144483,
				"element": "H" 
			},
			{
				"x": -0.0763421876,
				"y": 2.0208662714,
				"z": -0.4456599727,
				"element": "H" 
			},
			{
				"x": -1.5110435666,
				"y": 2.6801323819,
				"z": 0.3473299241,
				"element": "H" 
			},
			{
				"x": -1.4212151958,
				"y": 1.6147115915,
				"z": -2.5271395921,
				"element": "H" 
			},
			{
				"x": -3.0024593702,
				"y": 3.3165822511,
				"z": -1.9957975138,
				"element": "H" 
			},
			{
				"x": -2.8526573055,
				"y": 0.5145540633,
				"z": -0.0715572792,
				"element": "H" 
			},
			{
				"x": -3.0430732285,
				"y": -0.0791345446,
				"z": -1.7301545184,
				"element": "H" 
			},
			{
				"x": -1.7747991395,
				"y": -1.5581336531,
				"z": -2.5536427171,
				"element": "H" 
			},
			{
				"x": -0.957808044,
				"y": -2.6041511956,
				"z": -1.4122069365,
				"element": "H" 
			},
			{
				"x": 0.30997745,
				"y": -2.2398802692,
				"z": -3.4032489639,
				"element": "H" 
			},
			{
				"x": -0.2907952023,
				"y": 0.1150503749,
				"z": -4.0159321636,
				"element": "H" 
			},
			{
				"x": 1.4641841941,
				"y": -0.1456728865,
				"z": -3.9604282384,
				"element": "H" 
			},
			{
				"x": 0.6572386539,
				"y": 0.7050986455,
				"z": -2.6351060316,
				"element": "H" 
			},
			{
				"x": 1.7248860386,
				"y": -1.0516150743,
				"z": -1.2609401018,
				"element": "H" 
			},
			{
				"x": 0.6762802793,
				"y": -2.3009401715,
				"z": 0.0465301041,
				"element": "H" 
			},
			{
				"x": -0.4997781014,
				"y": -2.6498789126,
				"z": 1.3460455237,
				"element": "H" 
			},
			{
				"x": 1.7504533051,
				"y": -1.2296841834,
				"z": 4.2112795265,
				"element": "H" 
			},
			{
				"x": 3.2238375739,
				"y": -0.4456638584,
				"z": 6.0540450735,
				"element": "H" 
			},
			{
				"x": 5.0934360674,
				"y": 1.1140036379,
				"z": 5.5672837572,
				"element": "H" 
			},
			{
				"x": 5.4913661775,
				"y": 1.8932362855,
				"z": 3.2418779024,
				"element": "H" 
			},
			{
				"x": 4.0035387831,
				"y": 1.0983137197,
				"z": 1.4000138507,
				"element": "H" 
			}
		],
		 "valence_orbital": [ 
			{
				"type": "occ",
				"energy": -0.26416,
				"method": "rhf"
			},
			{
				"type": "occ",
				"energy": -0.26288,
				"method": "rhf"
			},
			{
				"type": "occ",
				"energy": -0.2609,
				"method": "rhf"
			},
			{
				"type": "occ",
				"energy": -0.25004,
				"method": "rhf"
			},
			{
				"type": "occ",
				"energy": -0.23834,
				"method": "rhf"
			},
			{
				"type": "unocc",
				"energy": -0.05246,
				"method": "rhf"
			},
			{
				"type": "unocc",
				"energy": -0.00982,
				"method": "rhf"
			},
			{
				"type": "unocc",
				"energy": 0.0134,
				"method": "rhf"
			},
			{
				"type": "unocc",
				"energy": 0.05057,
				"method": "rhf"
			},
			{
				"type": "unocc",
				"energy": 0.0769,
				"method": "rhf"
			}
		],
		"cosmo_sigma_profile": { 
			"-0.025": 0.0,
			"-0.024": 0.0,
			"-0.023": 0.0,
			"-0.022": 0.0,
			"-0.021": 0.0,
			"-0.02": 0.0,
			"-0.019": 0.0,
			"-0.018": 0.0,
			"-0.017": 0.0,
			"-0.016": 0.0507294813832,
			"-0.015": 0.743563484719,
			"-0.014": 0.946496377773,
			"-0.013": 0.935101342451,
			"-0.012": 0.750444966166,
			"-0.011": 1.48604434034,
			"-0.01": 0.452075120305,
			"-0.009": 1.28450977595,
			"-0.008": 4.82371984802,
			"-0.007": 9.53020804493,
			"-0.006": 18.7939986033,
			"-0.005": 22.9383203558,
			"-0.004": 27.1368141953,
			"-0.003": 29.0158200033,
			"-0.002": 29.2984532745,
			"-0.001": 25.8623257068,
			"0.0": 25.9115303502,
			"0.001": 27.302788448,
			"0.002": 19.4283971836,
			"0.003": 20.5821348296,
			"0.004": 17.7147313565,
			"0.005": 7.78597429929,
			"0.006": 5.28891945309,
			"0.007": 5.43345298913,
			"0.008": 5.52478015119,
			"0.009": 4.07079237086,
			"0.01": 4.21489815366,
			"0.011": 4.1817356595,
			"0.012": 4.29686624984,
			"0.013": 5.87887502262,
			"0.014": 5.40005131919,
			"0.015": 0.756432842629,
			"0.016": 0.0,
			"0.017": 0.0,
			"0.018": 0.0,
			"0.019": 0.0,
			"0.02": 0.0,
			"0.021": 0.0,
			"0.022": 0.0,
			"0.023": 0.0,
			"0.024": 0.0,
			"0.025": 0.0
		}
	}
}
