{
	 "smiles": "SC1=NN=C(O1)C1=CC2=C(O1)C=CC=C2", 
	 "Tm": 523.15, 
	 "num_atms": 21, 
	 "gaussian": { 
		 "optdone": 1, 
		 "sigma_profile": "yes", 
		 "theory": "DFT", 
		 "functional": "B3LYP", 
		 "basiset": "6-31G**", 
		 "properties": { 
			 "R2extent": 5092.2561, 
			 "electric_dipole_moment_norm": 5.00213592278, 
			 "electric_quadrupole_moment_norm": 17.1394079058, 
			 "total_energy": -1042.76201057, 
			 "HOMO_LUMO_gap": 0.15946, 
			 "cosmo_polarized_energy": -14.12, 
			 "cosmo_cavitation_energy": 28.93, 
			 "cosmo_dispersion_energy": -22.16, 
			 "cosmo_repulsion_energy": 1.67, 
			 "cosmo_total_nonelectrostatic_energy": 8.43, 
			 "SMD_solvation_energy": 3.14 
		},
		"coords": [
			{
				"x": -4.3612129633,
				"y": 0.0265228658,
				"z": -1.9350480614,
				"element": "S" 
			},
			{
				"x": -3.0990334187,
				"y": 0.8830021083,
				"z": -1.0670445995,
				"element": "C" 
			},
			{
				"x": -3.1601205682,
				"y": 2.0933829486,
				"z": -0.6096736662,
				"element": "N" 
			},
			{
				"x": -1.9296454874,
				"y": 2.3386584073,
				"z": 0.0009978897,
				"element": "N" 
			},
			{
				"x": -1.2263584109,
				"y": 1.2546556065,
				"z": -0.1382680771,
				"element": "C" 
			},
			{
				"x": -1.9076072291,
				"y": 0.2695339245,
				"z": -0.8151117945,
				"element": "O" 
			},
			{
				"x": 0.1121594097,
				"y": 0.9582840811,
				"z": 0.3013862462,
				"element": "C" 
			},
			{
				"x": 0.8758137604,
				"y": -0.1673522984,
				"z": 0.1701168237,
				"element": "C" 
			},
			{
				"x": 2.1276821921,
				"y": 0.1275311498,
				"z": 0.8097243252,
				"element": "C" 
			},
			{
				"x": 2.0033366852,
				"y": 1.4486529848,
				"z": 1.2855793782,
				"element": "C" 
			},
			{
				"x": 0.7717961707,
				"y": 1.9558457675,
				"z": 0.9748004804,
				"element": "O" 
			},
			{
				"x": 3.0079967319,
				"y": 2.1194787652,
				"z": 1.9723608588,
				"element": "C" 
			},
			{
				"x": 4.1897288421,
				"y": 1.4115027873,
				"z": 2.1822153894,
				"element": "C" 
			},
			{
				"x": 4.3474559878,
				"y": 0.0891732558,
				"z": 1.7197712802,
				"element": "C" 
			},
			{
				"x": 3.3298859557,
				"y": -0.564614174,
				"z": 1.0344161583,
				"element": "C" 
			},
			{
				"x": -3.6418926439,
				"y": -1.1022700564,
				"z": -2.0828674452,
				"element": "H" 
			},
			{
				"x": 0.5777643335,
				"y": -1.0826949607,
				"z": -0.3197542453,
				"element": "H" 
			},
			{
				"x": 2.870283735,
				"y": 3.1367517551,
				"z": 2.3212898193,
				"element": "H" 
			},
			{
				"x": 5.0069495065,
				"y": 1.8892495783,
				"z": 2.7137455052,
				"element": "H" 
			},
			{
				"x": 5.2851006917,
				"y": -0.4260835762,
				"z": 1.9048424025,
				"element": "H" 
			},
			{
				"x": 3.4598167192,
				"y": -1.5832109202,
				"z": 0.6817213323,
				"element": "H" 
			}
		],
		 "valence_orbital": [ 
			{
				"type": "occ",
				"energy": -0.30826,
				"method": "rhf"
			},
			{
				"type": "occ",
				"energy": -0.28579,
				"method": "rhf"
			},
			{
				"type": "occ",
				"energy": -0.2701,
				"method": "rhf"
			},
			{
				"type": "occ",
				"energy": -0.24863,
				"method": "rhf"
			},
			{
				"type": "occ",
				"energy": -0.22388,
				"method": "rhf"
			},
			{
				"type": "unocc",
				"energy": -0.06442,
				"method": "rhf"
			},
			{
				"type": "unocc",
				"energy": -0.00983,
				"method": "rhf"
			},
			{
				"type": "unocc",
				"energy": -0.00458,
				"method": "rhf"
			},
			{
				"type": "unocc",
				"energy": 0.00322,
				"method": "rhf"
			},
			{
				"type": "unocc",
				"energy": 0.02091,
				"method": "rhf"
			}
		],
		"cosmo_sigma_profile": { 
			"-0.025": 0.0,
			"-0.024": 0.0,
			"-0.023": 0.0,
			"-0.022": 0.0,
			"-0.021": 0.0,
			"-0.02": 0.0,
			"-0.019": 0.0,
			"-0.018": 0.0,
			"-0.017": 0.0,
			"-0.016": 0.0,
			"-0.015": 0.0,
			"-0.014": 0.397823677818,
			"-0.013": 2.02884221485,
			"-0.012": 1.78575509745,
			"-0.011": 1.55506833905,
			"-0.01": 1.72505354045,
			"-0.009": 1.83623367013,
			"-0.008": 3.49152849125,
			"-0.007": 6.509719015,
			"-0.006": 12.3102027902,
			"-0.005": 14.8194261099,
			"-0.004": 16.748418053,
			"-0.003": 13.8626002602,
			"-0.002": 14.9281854448,
			"-0.001": 18.8816885505,
			"0.0": 18.9750272407,
			"0.001": 20.801412058,
			"0.002": 19.6361054652,
			"0.003": 15.9299993354,
			"0.004": 14.7367541806,
			"0.005": 9.04927776956,
			"0.006": 3.05305197597,
			"0.007": 2.97187787687,
			"0.008": 3.14853616319,
			"0.009": 3.4669177798,
			"0.01": 3.56394420868,
			"0.011": 3.56538073365,
			"0.012": 2.78747618966,
			"0.013": 2.49348864172,
			"0.014": 1.87175169624,
			"0.015": 0.305977635192,
			"0.016": 0.0,
			"0.017": 0.0,
			"0.018": 0.0,
			"0.019": 0.0,
			"0.02": 0.0,
			"0.021": 0.0,
			"0.022": 0.0,
			"0.023": 0.0,
			"0.024": 0.0,
			"0.025": 0.0
		}
	}
}
