{
	 "smiles": "CC1=NN(CCS(C)(=O)=O)C(C)=C1", 
	 "Tm": 364.15, 
	 "num_atms": 27, 
	 "gaussian": { 
		 "optdone": 1, 
		 "sigma_profile": "yes", 
		 "theory": "DFT", 
		 "functional": "B3LYP", 
		 "basiset": "6-31G**", 
		 "properties": { 
			 "R2extent": 3639.426, 
			 "electric_dipole_moment_norm": 3.48572424756, 
			 "electric_quadrupole_moment_norm": 20.300713953, 
			 "total_energy": -971.365587446, 
			 "HOMO_LUMO_gap": 0.25396, 
			 "cosmo_polarized_energy": -15.7, 
			 "cosmo_cavitation_energy": 30.12, 
			 "cosmo_dispersion_energy": -21.77, 
			 "cosmo_repulsion_energy": 1.69, 
			 "cosmo_total_nonelectrostatic_energy": 10.04, 
			 "SMD_solvation_energy": 4.31 
		},
		"coords": [
			{
				"x": -1.1268556416,
				"y": 1.2548355548,
				"z": -2.8275916902,
				"element": "C" 
			},
			{
				"x": -0.2388843123,
				"y": 1.010942745,
				"z": -1.6450364378,
				"element": "C" 
			},
			{
				"x": 0.9240526763,
				"y": 0.3752939667,
				"z": -1.7922454575,
				"element": "N" 
			},
			{
				"x": 1.4664134188,
				"y": 0.3339636076,
				"z": -0.5449953373,
				"element": "N" 
			},
			{
				"x": 2.7551467975,
				"y": -0.3131749258,
				"z": -0.3721294207,
				"element": "C" 
			},
			{
				"x": 2.7454685224,
				"y": -1.7749497647,
				"z": -0.8146367664,
				"element": "C" 
			},
			{
				"x": 1.7640221017,
				"y": -2.87633175,
				"z": 0.2631273828,
				"element": "S" 
			},
			{
				"x": 0.0561312634,
				"y": -2.6999856094,
				"z": -0.2959304078,
				"element": "C" 
			},
			{
				"x": 1.8506112369,
				"y": -2.3500210249,
				"z": 1.6400197258,
				"element": "O" 
			},
			{
				"x": 2.1908657331,
				"y": -4.252550855,
				"z": -0.033825603,
				"element": "O" 
			},
			{
				"x": 0.6712262801,
				"y": 0.9321130292,
				"z": 0.3954669517,
				"element": "C" 
			},
			{
				"x": 1.0288220579,
				"y": 1.0253343861,
				"z": 1.8460421441,
				"element": "C" 
			},
			{
				"x": -0.4451754245,
				"y": 1.3780703645,
				"z": -0.2916893679,
				"element": "C" 
			},
			{
				"x": -0.6824436489,
				"y": 0.8158718065,
				"z": -3.7236776498,
				"element": "H" 
			},
			{
				"x": -2.1200656582,
				"y": 0.8155550092,
				"z": -2.6818291071,
				"element": "H" 
			},
			{
				"x": -1.2695852195,
				"y": 2.3267299762,
				"z": -3.0049361772,
				"element": "H" 
			},
			{
				"x": 3.0351698162,
				"y": -0.2462547144,
				"z": 0.6797863382,
				"element": "H" 
			},
			{
				"x": 3.5065005075,
				"y": 0.219820829,
				"z": -0.9657686637,
				"element": "H" 
			},
			{
				"x": 2.3696146686,
				"y": -1.8809152891,
				"z": -1.8346764261,
				"element": "H" 
			},
			{
				"x": 3.7506705969,
				"y": -2.2029411411,
				"z": -0.7594909092,
				"element": "H" 
			},
			{
				"x": -0.009233495,
				"y": -3.0055588453,
				"z": -1.3407872555,
				"element": "H" 
			},
			{
				"x": -0.2750016269,
				"y": -1.669723146,
				"z": -0.1644184679,
				"element": "H" 
			},
			{
				"x": -0.5260863888,
				"y": -3.3768083445,
				"z": 0.3325993146,
				"element": "H" 
			},
			{
				"x": 1.2256578364,
				"y": 0.0371876208,
				"z": 2.2745697557,
				"element": "H" 
			},
			{
				"x": 1.9171863691,
				"y": 1.6476111267,
				"z": 2.0081560495,
				"element": "H" 
			},
			{
				"x": 0.2027308333,
				"y": 1.481271028,
				"z": 2.3959766384,
				"element": "H" 
			},
			{
				"x": -1.2895593005,
				"y": 1.9035143599,
				"z": 0.1312208444,
				"element": "H" 
			}
		],
		 "valence_orbital": [ 
			{
				"type": "occ",
				"energy": -0.29482,
				"method": "rhf"
			},
			{
				"type": "occ",
				"energy": -0.28988,
				"method": "rhf"
			},
			{
				"type": "occ",
				"energy": -0.2861,
				"method": "rhf"
			},
			{
				"type": "occ",
				"energy": -0.24275,
				"method": "rhf"
			},
			{
				"type": "occ",
				"energy": -0.24077,
				"method": "rhf"
			},
			{
				"type": "unocc",
				"energy": 0.01319,
				"method": "rhf"
			},
			{
				"type": "unocc",
				"energy": 0.05964,
				"method": "rhf"
			},
			{
				"type": "unocc",
				"energy": 0.06471,
				"method": "rhf"
			},
			{
				"type": "unocc",
				"energy": 0.07069,
				"method": "rhf"
			},
			{
				"type": "unocc",
				"energy": 0.074,
				"method": "rhf"
			}
		],
		"cosmo_sigma_profile": { 
			"-0.025": 0.0,
			"-0.024": 0.0,
			"-0.023": 0.0,
			"-0.022": 0.0,
			"-0.021": 0.0,
			"-0.02": 0.0,
			"-0.019": 0.0,
			"-0.018": 0.0,
			"-0.017": 0.0,
			"-0.016": 0.0,
			"-0.015": 0.0,
			"-0.014": 0.0,
			"-0.013": 0.0,
			"-0.012": 0.00257088959277,
			"-0.011": 0.344097609988,
			"-0.01": 1.03057425908,
			"-0.009": 4.33883884541,
			"-0.008": 7.6630196691,
			"-0.007": 10.2765899749,
			"-0.006": 12.2668591486,
			"-0.005": 17.2063249499,
			"-0.004": 21.503719856,
			"-0.003": 18.5015845164,
			"-0.002": 19.5180819217,
			"-0.001": 21.2692024175,
			"0.0": 19.0234537631,
			"0.001": 11.5916146445,
			"0.002": 8.68898536573,
			"0.003": 7.0235511195,
			"0.004": 7.27462853454,
			"0.005": 5.44050176492,
			"0.006": 5.70079754497,
			"0.007": 4.71845413151,
			"0.008": 3.19784266248,
			"0.009": 3.66832558138,
			"0.01": 4.83766346829,
			"0.011": 7.32520452362,
			"0.012": 10.5772584147,
			"0.013": 2.90950760468,
			"0.014": 0.940484011387,
			"0.015": 0.474450181585,
			"0.016": 0.0841863218515,
			"0.017": 0.0,
			"0.018": 0.0,
			"0.019": 0.0,
			"0.02": 0.0,
			"0.021": 0.0,
			"0.022": 0.0,
			"0.023": 0.0,
			"0.024": 0.0,
			"0.025": 0.0
		}
	}
}
