{
	 "smiles": "COC1=C(OCCCC#N)C=C(C=O)C=C1", 
	 "Tm": 346.15, 
	 "num_atms": 29, 
	 "gaussian": { 
		 "optdone": 1, 
		 "sigma_profile": "yes", 
		 "theory": "DFT", 
		 "functional": "B3LYP", 
		 "basiset": "6-31G**", 
		 "properties": { 
			 "R2extent": 5598.8097, 
			 "electric_dipole_moment_norm": 5.59408760478, 
			 "electric_quadrupole_moment_norm": 17.1745339532, 
			 "total_energy": -745.485329632, 
			 "HOMO_LUMO_gap": 0.1855, 
			 "cosmo_polarized_energy": -16.55, 
			 "cosmo_cavitation_energy": 34.77, 
			 "cosmo_dispersion_energy": -23.33, 
			 "cosmo_repulsion_energy": 1.85, 
			 "cosmo_total_nonelectrostatic_energy": 13.29, 
			 "SMD_solvation_energy": 9.21 
		},
		"coords": [
			{
				"x": -0.5963324693,
				"y": -1.7458314555,
				"z": -1.8248039421,
				"element": "C" 
			},
			{
				"x": 0.8153183609,
				"y": -1.9411666529,
				"z": -1.6448236321,
				"element": "O" 
			},
			{
				"x": 1.2528476687,
				"y": -1.928418376,
				"z": -0.3462050576,
				"element": "C" 
			},
			{
				"x": 1.2369944324,
				"y": -0.7438207468,
				"z": 0.4263023314,
				"element": "C" 
			},
			{
				"x": 0.7290903028,
				"y": 0.4286946646,
				"z": -0.0913644123,
				"element": "O" 
			},
			{
				"x": 1.5602344938,
				"y": 1.0694715743,
				"z": -1.0780253921,
				"element": "C" 
			},
			{
				"x": 0.8776018269,
				"y": 2.3631997102,
				"z": -1.4952100522,
				"element": "C" 
			},
			{
				"x": 0.6808257255,
				"y": 3.3275901155,
				"z": -0.3071716093,
				"element": "C" 
			},
			{
				"x": 0.0113445874,
				"y": 4.5691536399,
				"z": -0.7000502119,
				"element": "C" 
			},
			{
				"x": -0.5202892225,
				"y": 5.5467766981,
				"z": -1.0301224388,
				"element": "N" 
			},
			{
				"x": 1.7087191509,
				"y": -0.7671773845,
				"z": 1.7311975822,
				"element": "C" 
			},
			{
				"x": 2.2159726639,
				"y": -1.9545734446,
				"z": 2.28138056,
				"element": "C" 
			},
			{
				"x": 2.719997698,
				"y": -1.9688385672,
				"z": 3.6711972197,
				"element": "C" 
			},
			{
				"x": 2.7304335187,
				"y": -1.0045155679,
				"z": 4.4131474774,
				"element": "O" 
			},
			{
				"x": 2.2573085085,
				"y": -3.1187562255,
				"z": 1.5045682186,
				"element": "C" 
			},
			{
				"x": 1.7740110461,
				"y": -3.104981643,
				"z": 0.198413764,
				"element": "C" 
			},
			{
				"x": -0.7679772942,
				"y": -1.7614016596,
				"z": -2.9023322647,
				"element": "H" 
			},
			{
				"x": -1.1585094425,
				"y": -2.5620846872,
				"z": -1.3557143455,
				"element": "H" 
			},
			{
				"x": -0.9228865557,
				"y": -0.7890186645,
				"z": -1.4083200185,
				"element": "H" 
			},
			{
				"x": 2.5482522532,
				"y": 1.2703844558,
				"z": -0.6396342676,
				"element": "H" 
			},
			{
				"x": 1.6936218959,
				"y": 0.4079882263,
				"z": -1.9411416338,
				"element": "H" 
			},
			{
				"x": -0.0945242664,
				"y": 2.1351061031,
				"z": -1.9444304877,
				"element": "H" 
			},
			{
				"x": 1.4855712801,
				"y": 2.8436302558,
				"z": -2.2693823018,
				"element": "H" 
			},
			{
				"x": 0.0894387355,
				"y": 2.8355488856,
				"z": 0.4714583119,
				"element": "H" 
			},
			{
				"x": 1.6493235897,
				"y": 3.5823980857,
				"z": 0.1407227765,
				"element": "H" 
			},
			{
				"x": 1.6909052597,
				"y": 0.1356834155,
				"z": 2.3328617028,
				"element": "H" 
			},
			{
				"x": 3.1063999163,
				"y": -2.95557774,
				"z": 4.0113080897,
				"element": "H" 
			},
			{
				"x": 2.6579372913,
				"y": -4.0361938408,
				"z": 1.9284638631,
				"element": "H" 
			},
			{
				"x": 1.7853690443,
				"y": -3.9948691744,
				"z": -0.4223898295,
				"element": "H" 
			}
		],
		 "valence_orbital": [ 
			{
				"type": "occ",
				"energy": -0.31546,
				"method": "rhf"
			},
			{
				"type": "occ",
				"energy": -0.28533,
				"method": "rhf"
			},
			{
				"type": "occ",
				"energy": -0.26706,
				"method": "rhf"
			},
			{
				"type": "occ",
				"energy": -0.25941,
				"method": "rhf"
			},
			{
				"type": "occ",
				"energy": -0.2531,
				"method": "rhf"
			},
			{
				"type": "unocc",
				"energy": -0.0676,
				"method": "rhf"
			},
			{
				"type": "unocc",
				"energy": -0.02144,
				"method": "rhf"
			},
			{
				"type": "unocc",
				"energy": 0.03204,
				"method": "rhf"
			},
			{
				"type": "unocc",
				"energy": 0.03492,
				"method": "rhf"
			},
			{
				"type": "unocc",
				"energy": 0.04036,
				"method": "rhf"
			}
		],
		"cosmo_sigma_profile": { 
			"-0.025": 0.0,
			"-0.024": 0.0,
			"-0.023": 0.0,
			"-0.022": 0.0,
			"-0.021": 0.0,
			"-0.02": 0.0,
			"-0.019": 0.0,
			"-0.018": 0.0,
			"-0.017": 0.0,
			"-0.016": 0.0,
			"-0.015": 0.0,
			"-0.014": 0.0,
			"-0.013": 0.0,
			"-0.012": 0.0,
			"-0.011": 0.0,
			"-0.01": 0.0,
			"-0.009": 0.0,
			"-0.008": 3.41400096084,
			"-0.007": 11.4390637125,
			"-0.006": 18.2753260258,
			"-0.005": 28.8056091734,
			"-0.004": 25.9170744963,
			"-0.003": 27.8351759761,
			"-0.002": 22.8612949967,
			"-0.001": 15.5041159588,
			"0.0": 14.9451464406,
			"0.001": 15.7784320728,
			"0.002": 18.4322610136,
			"0.003": 11.806902705,
			"0.004": 7.26684921072,
			"0.005": 4.67013403746,
			"0.006": 6.50732949766,
			"0.007": 5.93611607639,
			"0.008": 6.25644875562,
			"0.009": 6.82247437702,
			"0.01": 6.92860730463,
			"0.011": 7.92687623039,
			"0.012": 5.91897482062,
			"0.013": 3.14469358078,
			"0.014": 0.555724663247,
			"0.015": 0.0,
			"0.016": 0.0,
			"0.017": 0.0,
			"0.018": 0.0,
			"0.019": 0.0,
			"0.02": 0.0,
			"0.021": 0.0,
			"0.022": 0.0,
			"0.023": 0.0,
			"0.024": 0.0,
			"0.025": 0.0
		}
	}
}
