{
	 "smiles": "CC(=O)OC1=CC(=CC=C1)C#N", 
	 "Tm": 333.15, 
	 "num_atms": 19, 
	 "gaussian": { 
		 "optdone": 1, 
		 "sigma_profile": "yes", 
		 "theory": "DFT", 
		 "functional": "B3LYP", 
		 "basiset": "6-31G**", 
		 "properties": { 
			 "R2extent": 2607.7685, 
			 "electric_dipole_moment_norm": 5.92478739619, 
			 "electric_quadrupole_moment_norm": 17.6845515493, 
			 "total_energy": -552.366554973, 
			 "HOMO_LUMO_gap": 0.20713, 
			 "cosmo_polarized_energy": -12.01, 
			 "cosmo_cavitation_energy": 25.34, 
			 "cosmo_dispersion_energy": -17.82, 
			 "cosmo_repulsion_energy": 1.44, 
			 "cosmo_total_nonelectrostatic_energy": 8.96, 
			 "SMD_solvation_energy": 7.18 
		},
		"coords": [
			{
				"x": 1.4326755836,
				"y": -1.7812004113,
				"z": 3.1779970208,
				"element": "C" 
			},
			{
				"x": 0.3877018627,
				"y": -1.5122946598,
				"z": 2.1260588352,
				"element": "C" 
			},
			{
				"x": -0.7595558592,
				"y": -1.8788053695,
				"z": 2.1488914096,
				"element": "O" 
			},
			{
				"x": 0.9431906675,
				"y": -0.7660431888,
				"z": 1.1108749871,
				"element": "O" 
			},
			{
				"x": 0.1998224783,
				"y": -0.3562657944,
				"z": 0.009929532,
				"element": "C" 
			},
			{
				"x": -0.7347512642,
				"y": -1.1666753006,
				"z": -0.6316148457,
				"element": "C" 
			},
			{
				"x": -1.3729544936,
				"y": -0.6724984028,
				"z": -1.7813394953,
				"element": "C" 
			},
			{
				"x": -1.0762405683,
				"y": 0.6067116907,
				"z": -2.2791420199,
				"element": "C" 
			},
			{
				"x": -0.1335568211,
				"y": 1.3923763203,
				"z": -1.6208854875,
				"element": "C" 
			},
			{
				"x": 0.5053315659,
				"y": 0.9161440097,
				"z": -0.4768863874,
				"element": "C" 
			},
			{
				"x": -2.3365141024,
				"y": -1.4930891814,
				"z": -2.4584689072,
				"element": "C" 
			},
			{
				"x": -3.1152704884,
				"y": -2.1539609725,
				"z": -3.0148174174,
				"element": "N" 
			},
			{
				"x": 1.8092749279,
				"y": -0.8372732178,
				"z": 3.5827516026,
				"element": "H" 
			},
			{
				"x": 2.2825669169,
				"y": -2.3084807494,
				"z": 2.734888756,
				"element": "H" 
			},
			{
				"x": 0.9945536811,
				"y": -2.3806661843,
				"z": 3.9749527409,
				"element": "H" 
			},
			{
				"x": -0.9765494028,
				"y": -2.1489200866,
				"z": -0.2520943728,
				"element": "H" 
			},
			{
				"x": -1.5808482954,
				"y": 0.9683911594,
				"z": -3.168048779,
				"element": "H" 
			},
			{
				"x": 0.1059367588,
				"y": 2.3812767266,
				"z": -1.9983645918,
				"element": "H" 
			},
			{
				"x": 1.2439868529,
				"y": 1.5132736125,
				"z": 0.0471174196,
				"element": "H" 
			}
		],
		 "valence_orbital": [ 
			{
				"type": "occ",
				"energy": -0.33483,
				"method": "rhf"
			},
			{
				"type": "occ",
				"energy": -0.33112,
				"method": "rhf"
			},
			{
				"type": "occ",
				"energy": -0.29376,
				"method": "rhf"
			},
			{
				"type": "occ",
				"energy": -0.27257,
				"method": "rhf"
			},
			{
				"type": "occ",
				"energy": -0.26186,
				"method": "rhf"
			},
			{
				"type": "unocc",
				"energy": -0.05473,
				"method": "rhf"
			},
			{
				"type": "unocc",
				"energy": -0.03275,
				"method": "rhf"
			},
			{
				"type": "unocc",
				"energy": -0.00115,
				"method": "rhf"
			},
			{
				"type": "unocc",
				"energy": 0.0366,
				"method": "rhf"
			},
			{
				"type": "unocc",
				"energy": 0.07311,
				"method": "rhf"
			}
		],
		"cosmo_sigma_profile": { 
			"-0.025": 0.0,
			"-0.024": 0.0,
			"-0.023": 0.0,
			"-0.022": 0.0,
			"-0.021": 0.0,
			"-0.02": 0.0,
			"-0.019": 0.0,
			"-0.018": 0.0,
			"-0.017": 0.0,
			"-0.016": 0.0,
			"-0.015": 0.0,
			"-0.014": 0.0,
			"-0.013": 0.0,
			"-0.012": 0.0,
			"-0.011": 0.0,
			"-0.01": 0.0,
			"-0.009": 0.104845988336,
			"-0.008": 4.5438955636,
			"-0.007": 12.048539836,
			"-0.006": 16.2555934035,
			"-0.005": 14.8946747834,
			"-0.004": 13.0630651755,
			"-0.003": 15.2011606908,
			"-0.002": 17.1025006718,
			"-0.001": 14.9731634231,
			"0.0": 12.8984287777,
			"0.001": 18.8852130363,
			"0.002": 12.6063415443,
			"0.003": 5.46133568635,
			"0.004": 4.43633756614,
			"0.005": 5.33980484817,
			"0.006": 4.77265859807,
			"0.007": 5.2547522177,
			"0.008": 4.87689217457,
			"0.009": 5.48897530843,
			"0.01": 6.43132161588,
			"0.011": 5.53958668931,
			"0.012": 3.16701871963,
			"0.013": 1.2799802831,
			"0.014": 0.00920808830524,
			"0.015": 0.0,
			"0.016": 0.0,
			"0.017": 0.0,
			"0.018": 0.0,
			"0.019": 0.0,
			"0.02": 0.0,
			"0.021": 0.0,
			"0.022": 0.0,
			"0.023": 0.0,
			"0.024": 0.0,
			"0.025": 0.0
		}
	}
}
