{
	 "smiles": "CSC1=CC=C(CN2CCNCC2)C=C1", 
	 "Tm": 327.15, 
	 "num_atms": 33, 
	 "gaussian": { 
		 "optdone": 1, 
		 "sigma_profile": "yes", 
		 "theory": "DFT", 
		 "functional": "B3LYP", 
		 "basiset": "6-31G**", 
		 "properties": { 
			 "R2extent": 5933.256, 
			 "electric_dipole_moment_norm": 1.34744760937, 
			 "electric_quadrupole_moment_norm": 22.2823036563, 
			 "total_energy": -975.793902853, 
			 "HOMO_LUMO_gap": 0.19886, 
			 "cosmo_polarized_energy": -8.83, 
			 "cosmo_cavitation_energy": 35.75, 
			 "cosmo_dispersion_energy": -25.82, 
			 "cosmo_repulsion_energy": 2.0, 
			 "cosmo_total_nonelectrostatic_energy": 11.93, 
			 "SMD_solvation_energy": 1.96 
		},
		"coords": [
			{
				"x": -1.5725196189,
				"y": 3.8329432673,
				"z": 3.7535267757,
				"element": "C" 
			},
			{
				"x": -0.7557688117,
				"y": 4.8381774973,
				"z": 2.4545090095,
				"element": "S" 
			},
			{
				"x": -0.3688675696,
				"y": 3.5729202548,
				"z": 1.2399914668,
				"element": "C" 
			},
			{
				"x": 0.6840585537,
				"y": 2.6696845898,
				"z": 1.4505249345,
				"element": "C" 
			},
			{
				"x": 0.9924732331,
				"y": 1.7110014674,
				"z": 0.4890218312,
				"element": "C" 
			},
			{
				"x": 0.2704136021,
				"y": 1.6389397968,
				"z": -0.7110541456,
				"element": "C" 
			},
			{
				"x": 0.6540734222,
				"y": 0.6327017072,
				"z": -1.7815832111,
				"element": "C" 
			},
			{
				"x": 0.9274235772,
				"y": -0.6972832491,
				"z": -1.2484955293,
				"element": "N" 
			},
			{
				"x": 1.6176383977,
				"y": -1.5750759025,
				"z": -2.1916536532,
				"element": "C" 
			},
			{
				"x": 2.1792414292,
				"y": -2.803276114,
				"z": -1.4193371212,
				"element": "C" 
			},
			{
				"x": 1.4622368799,
				"y": -3.0808116362,
				"z": -0.1688084579,
				"element": "N" 
			},
			{
				"x": 0.0333135062,
				"y": -2.823876224,
				"z": -0.337857042,
				"element": "C" 
			},
			{
				"x": -0.2817708352,
				"y": -1.3520816516,
				"z": -0.7336212896,
				"element": "C" 
			},
			{
				"x": -0.7726508839,
				"y": 2.5462704756,
				"z": -0.9183815857,
				"element": "C" 
			},
			{
				"x": -1.0936046038,
				"y": 3.5050928394,
				"z": 0.0451644438,
				"element": "C" 
			},
			{
				"x": -2.4812081561,
				"y": 3.3635190073,
				"z": 3.3707801737,
				"element": "H" 
			},
			{
				"x": -1.8356254152,
				"y": 4.5225491827,
				"z": 4.5592505701,
				"element": "H" 
			},
			{
				"x": -0.8960370311,
				"y": 3.0702492747,
				"z": 4.1451303948,
				"element": "H" 
			},
			{
				"x": 1.2649019661,
				"y": 2.7289036478,
				"z": 2.3664094255,
				"element": "H" 
			},
			{
				"x": 1.7992759618,
				"y": 1.0037515325,
				"z": 0.6568788551,
				"element": "H" 
			},
			{
				"x": 1.5707935498,
				"y": 0.979837936,
				"z": -2.2774538179,
				"element": "H" 
			},
			{
				"x": -0.1325295115,
				"y": 0.6163665203,
				"z": -2.5614069898,
				"element": "H" 
			},
			{
				"x": 0.9453669096,
				"y": -1.9035943484,
				"z": -3.0089140557,
				"element": "H" 
			},
			{
				"x": 2.4336036585,
				"y": -1.0177020504,
				"z": -2.6643185801,
				"element": "H" 
			},
			{
				"x": 3.2334255768,
				"y": -2.6452765066,
				"z": -1.1713409772,
				"element": "H" 
			},
			{
				"x": 2.1303303189,
				"y": -3.6911132126,
				"z": -2.063299616,
				"element": "H" 
			},
			{
				"x": 1.8124139497,
				"y": -2.4399060707,
				"z": 0.5391900471,
				"element": "H" 
			},
			{
				"x": -0.4927127034,
				"y": -3.086652431,
				"z": 0.5855634149,
				"element": "H" 
			},
			{
				"x": -0.3341060776,
				"y": -3.5079479101,
				"z": -1.112557827,
				"element": "H" 
			},
			{
				"x": -0.6334045916,
				"y": -0.7824588382,
				"z": 0.133029572,
				"element": "H" 
			},
			{
				"x": -1.0980685819,
				"y": -1.3321884107,
				"z": -1.4837779086,
				"element": "H" 
			},
			{
				"x": -1.3468365645,
				"y": 2.5011741361,
				"z": -1.8408522265,
				"element": "H" 
			},
			{
				"x": -1.9107735366,
				"y": 4.199261423,
				"z": -0.1241568804,
				"element": "H" 
			}
		],
		 "valence_orbital": [ 
			{
				"type": "occ",
				"energy": -0.25401,
				"method": "rhf"
			},
			{
				"type": "occ",
				"energy": -0.24783,
				"method": "rhf"
			},
			{
				"type": "occ",
				"energy": -0.22147,
				"method": "rhf"
			},
			{
				"type": "occ",
				"energy": -0.21988,
				"method": "rhf"
			},
			{
				"type": "occ",
				"energy": -0.21603,
				"method": "rhf"
			},
			{
				"type": "unocc",
				"energy": -0.01717,
				"method": "rhf"
			},
			{
				"type": "unocc",
				"energy": -0.00565,
				"method": "rhf"
			},
			{
				"type": "unocc",
				"energy": 0.05268,
				"method": "rhf"
			},
			{
				"type": "unocc",
				"energy": 0.07331,
				"method": "rhf"
			},
			{
				"type": "unocc",
				"energy": 0.07629,
				"method": "rhf"
			}
		],
		"cosmo_sigma_profile": { 
			"-0.025": 0.0,
			"-0.024": 0.0,
			"-0.023": 0.0,
			"-0.022": 0.0,
			"-0.021": 0.0,
			"-0.02": 0.0,
			"-0.019": 0.0,
			"-0.018": 0.0,
			"-0.017": 0.0,
			"-0.016": 0.0,
			"-0.015": 0.0,
			"-0.014": 0.0,
			"-0.013": 0.0,
			"-0.012": 0.0,
			"-0.011": 0.0,
			"-0.01": 0.0,
			"-0.009": 0.415007298738,
			"-0.008": 1.16233056171,
			"-0.007": 1.19676751343,
			"-0.006": 5.01683499931,
			"-0.005": 14.7002355287,
			"-0.004": 24.3757569775,
			"-0.003": 32.1911170534,
			"-0.002": 38.4139914539,
			"-0.001": 43.1187838849,
			"0.0": 23.4792456932,
			"0.001": 16.3328136946,
			"0.002": 14.9256730903,
			"0.003": 13.526668745,
			"0.004": 13.8106741508,
			"0.005": 13.6524192081,
			"0.006": 6.72823052225,
			"0.007": 4.05475565879,
			"0.008": 2.89355658513,
			"0.009": 2.81872914247,
			"0.01": 3.12418863405,
			"0.011": 0.951116616001,
			"0.012": 0.650559171423,
			"0.013": 0.595941357369,
			"0.014": 0.680702506853,
			"0.015": 0.360808358509,
			"0.016": 0.679350047781,
			"0.017": 0.759381666097,
			"0.018": 0.509771729794,
			"0.019": 0.329057361731,
			"0.02": 0.0,
			"0.021": 0.0,
			"0.022": 0.0,
			"0.023": 0.0,
			"0.024": 0.0,
			"0.025": 0.0
		}
	}
}
