{
	 "smiles": "COC(=O)C1=CC=CC(O)=C1", 
	 "Tm": 345.65, 
	 "num_atms": 19, 
	 "gaussian": { 
		 "optdone": 1, 
		 "sigma_profile": "yes", 
		 "theory": "DFT", 
		 "functional": "B3LYP", 
		 "basiset": "6-31G**", 
		 "properties": { 
			 "R2extent": 2999.7633, 
			 "electric_dipole_moment_norm": 2.97846264539, 
			 "electric_quadrupole_moment_norm": 18.3840394642, 
			 "total_energy": -535.350258052, 
			 "HOMO_LUMO_gap": 0.18617, 
			 "cosmo_polarized_energy": -12.2, 
			 "cosmo_cavitation_energy": 23.68, 
			 "cosmo_dispersion_energy": -17.58, 
			 "cosmo_repulsion_energy": 1.41, 
			 "cosmo_total_nonelectrostatic_energy": 7.52, 
			 "SMD_solvation_energy": 6.08 
		},
		"coords": [
			{
				"x": -0.5656633466,
				"y": 2.0727671615,
				"z": 1.4672152594,
				"element": "C" 
			},
			{
				"x": -0.1956006182,
				"y": 1.1105383594,
				"z": 0.4689485694,
				"element": "O" 
			},
			{
				"x": 1.1234923258,
				"y": 1.0736570498,
				"z": 0.1676925533,
				"element": "C" 
			},
			{
				"x": 1.9431085818,
				"y": 1.7979934908,
				"z": 0.6978265228,
				"element": "O" 
			},
			{
				"x": 1.4412066356,
				"y": 0.0542334097,
				"z": -0.8749383213,
				"element": "C" 
			},
			{
				"x": 0.4538372817,
				"y": -0.7568451848,
				"z": -1.4545351114,
				"element": "C" 
			},
			{
				"x": 0.8228049215,
				"y": -1.6877280896,
				"z": -2.422435655,
				"element": "C" 
			},
			{
				"x": 2.1563459928,
				"y": -1.8165904377,
				"z": -2.8148503158,
				"element": "C" 
			},
			{
				"x": 3.1372022515,
				"y": -1.0043562841,
				"z": -2.2328470417,
				"element": "C" 
			},
			{
				"x": 4.4570968013,
				"y": -1.0821556179,
				"z": -2.5734932815,
				"element": "O" 
			},
			{
				"x": 2.7786134657,
				"y": -0.067631707,
				"z": -1.2614371336,
				"element": "C" 
			},
			{
				"x": -0.0527776265,
				"y": 1.8669770249,
				"z": 2.4102452929,
				"element": "H" 
			},
			{
				"x": -1.6443073962,
				"y": 1.9720799502,
				"z": 1.5878074238,
				"element": "H" 
			},
			{
				"x": -0.3081365863,
				"y": 3.08412738,
				"z": 1.1423556707,
				"element": "H" 
			},
			{
				"x": -0.5793061521,
				"y": -0.6534739148,
				"z": -1.1471349848,
				"element": "H" 
			},
			{
				"x": 0.069503341,
				"y": -2.3223499816,
				"z": -2.8798231935,
				"element": "H" 
			},
			{
				"x": 2.4355028617,
				"y": -2.5467313924,
				"z": -3.571979068,
				"element": "H" 
			},
			{
				"x": 4.5725794441,
				"y": -1.7622876933,
				"z": -3.2495699492,
				"element": "H" 
			},
			{
				"x": 3.5327978215,
				"y": 0.564176477,
				"z": -0.8069472365,
				"element": "H" 
			}
		],
		 "valence_orbital": [ 
			{
				"type": "occ",
				"energy": -0.33629,
				"method": "rhf"
			},
			{
				"type": "occ",
				"energy": -0.29919,
				"method": "rhf"
			},
			{
				"type": "occ",
				"energy": -0.2708,
				"method": "rhf"
			},
			{
				"type": "occ",
				"energy": -0.25925,
				"method": "rhf"
			},
			{
				"type": "occ",
				"energy": -0.22901,
				"method": "rhf"
			},
			{
				"type": "unocc",
				"energy": -0.04284,
				"method": "rhf"
			},
			{
				"type": "unocc",
				"energy": 0.00315,
				"method": "rhf"
			},
			{
				"type": "unocc",
				"energy": 0.06445,
				"method": "rhf"
			},
			{
				"type": "unocc",
				"energy": 0.06598,
				"method": "rhf"
			},
			{
				"type": "unocc",
				"energy": 0.0949,
				"method": "rhf"
			}
		],
		"cosmo_sigma_profile": { 
			"-0.025": 0.0,
			"-0.024": 0.0,
			"-0.023": 0.0,
			"-0.022": 0.0,
			"-0.021": 0.0,
			"-0.02": 0.0,
			"-0.019": 0.041670830441,
			"-0.018": 0.76738922485,
			"-0.017": 1.20346713812,
			"-0.016": 1.35399921202,
			"-0.015": 0.625605888504,
			"-0.014": 1.13495301231,
			"-0.013": 0.700080098337,
			"-0.012": 0.651656051515,
			"-0.011": 1.25791648521,
			"-0.01": 1.76433493536,
			"-0.009": 0.981018430105,
			"-0.008": 1.14033274291,
			"-0.007": 3.23356271842,
			"-0.006": 9.04097538379,
			"-0.005": 13.6053596922,
			"-0.004": 14.4090793271,
			"-0.003": 15.3010662718,
			"-0.002": 10.634505126,
			"-0.001": 10.1619222892,
			"0.0": 9.03313770222,
			"0.001": 11.4790419058,
			"0.002": 15.3105607289,
			"0.003": 17.4206868544,
			"0.004": 14.7017904872,
			"0.005": 6.92273940801,
			"0.006": 4.29750128344,
			"0.007": 2.07935886754,
			"0.008": 3.3933090549,
			"0.009": 3.1750618785,
			"0.01": 3.62104994903,
			"0.011": 4.43785232545,
			"0.012": 4.72555842913,
			"0.013": 0.164438814295,
			"0.014": 0.0,
			"0.015": 0.0,
			"0.016": 0.0,
			"0.017": 0.0,
			"0.018": 0.0,
			"0.019": 0.0,
			"0.02": 0.0,
			"0.021": 0.0,
			"0.022": 0.0,
			"0.023": 0.0,
			"0.024": 0.0,
			"0.025": 0.0
		}
	}
}
