{
	 "smiles": "O=C1COCC(=O)O1", 
	 "Tm": 365.65, 
	 "num_atms": 12, 
	 "gaussian": { 
		 "optdone": 1, 
		 "sigma_profile": "yes", 
		 "theory": "DFT", 
		 "functional": "B3LYP", 
		 "basiset": "6-31G**", 
		 "properties": { 
			 "R2extent": 1827.1853, 
			 "electric_dipole_moment_norm": 3.85329136324, 
			 "electric_quadrupole_moment_norm": 13.0501262009, 
			 "total_energy": -455.711706177, 
			 "HOMO_LUMO_gap": 0.23974, 
			 "cosmo_polarized_energy": -12.88, 
			 "cosmo_cavitation_energy": 16.64, 
			 "cosmo_dispersion_energy": -12.79, 
			 "cosmo_repulsion_energy": 1.08, 
			 "cosmo_total_nonelectrostatic_energy": 4.93, 
			 "SMD_solvation_energy": 5.26 
		},
		"coords": [
			{
				"x": 0.8208431594,
				"y": -2.4960648194,
				"z": 2.417057664,
				"element": "O" 
			},
			{
				"x": 1.0159402472,
				"y": -1.41671126,
				"z": 1.9364897648,
				"element": "C" 
			},
			{
				"x": 0.6154091794,
				"y": -1.0161391976,
				"z": 0.5253915847,
				"element": "C" 
			},
			{
				"x": 1.3887635048,
				"y": 0.0512059533,
				"z": 0.0218379101,
				"element": "O" 
			},
			{
				"x": 1.3134500374,
				"y": 1.1827544356,
				"z": 0.8613583767,
				"element": "C" 
			},
			{
				"x": 1.7466509644,
				"y": 0.8850658039,
				"z": 2.2881669493,
				"element": "C" 
			},
			{
				"x": 2.154635239,
				"y": 1.7056298502,
				"z": 3.05903395,
				"element": "O" 
			},
			{
				"x": 1.6264744818,
				"y": -0.4339089406,
				"z": 2.7030375842,
				"element": "O" 
			},
			{
				"x": 0.7661883317,
				"y": -1.8786740948,
				"z": -0.1253485942,
				"element": "H" 
			},
			{
				"x": -0.4617302857,
				"y": -0.7741768614,
				"z": 0.5324434821,
				"element": "H" 
			},
			{
				"x": 0.2921682426,
				"y": 1.6006650293,
				"z": 0.8953263979,
				"element": "H" 
			},
			{
				"x": 1.980506898,
				"y": 1.9465541015,
				"z": 0.4591049305,
				"element": "H" 
			}
		],
		 "valence_orbital": [ 
			{
				"type": "occ",
				"energy": -0.38421,
				"method": "rhf"
			},
			{
				"type": "occ",
				"energy": -0.34579,
				"method": "rhf"
			},
			{
				"type": "occ",
				"energy": -0.33544,
				"method": "rhf"
			},
			{
				"type": "occ",
				"energy": -0.29787,
				"method": "rhf"
			},
			{
				"type": "occ",
				"energy": -0.28706,
				"method": "rhf"
			},
			{
				"type": "unocc",
				"energy": -0.04732,
				"method": "rhf"
			},
			{
				"type": "unocc",
				"energy": -0.01112,
				"method": "rhf"
			},
			{
				"type": "unocc",
				"energy": 0.05974,
				"method": "rhf"
			},
			{
				"type": "unocc",
				"energy": 0.10215,
				"method": "rhf"
			},
			{
				"type": "unocc",
				"energy": 0.11386,
				"method": "rhf"
			}
		],
		"cosmo_sigma_profile": { 
			"-0.025": 0.0,
			"-0.024": 0.0,
			"-0.023": 0.0,
			"-0.022": 0.0,
			"-0.021": 0.0,
			"-0.02": 0.0,
			"-0.019": 0.0,
			"-0.018": 0.0,
			"-0.017": 0.0,
			"-0.016": 0.0,
			"-0.015": 0.0195999996852,
			"-0.014": 0.536633225315,
			"-0.013": 0.786361614101,
			"-0.012": 0.913700827539,
			"-0.011": 1.74980773264,
			"-0.01": 3.17810447355,
			"-0.009": 8.91650877325,
			"-0.008": 8.47439310167,
			"-0.007": 9.36217632635,
			"-0.006": 9.77513783415,
			"-0.005": 6.62322375059,
			"-0.004": 4.53730231087,
			"-0.003": 4.32877536441,
			"-0.002": 3.3594712389,
			"-0.001": 3.99802589875,
			"0.0": 3.32571353828,
			"0.001": 3.64507679718,
			"0.002": 4.58794807084,
			"0.003": 3.78959124737,
			"0.004": 3.54958597387,
			"0.005": 5.13301688657,
			"0.006": 4.66063452236,
			"0.007": 6.13008928982,
			"0.008": 8.60591502188,
			"0.009": 9.79631130602,
			"0.01": 10.8931479372,
			"0.011": 2.22029689785,
			"0.012": 0.0,
			"0.013": 0.0,
			"0.014": 0.0,
			"0.015": 0.0,
			"0.016": 0.0,
			"0.017": 0.0,
			"0.018": 0.0,
			"0.019": 0.0,
			"0.02": 0.0,
			"0.021": 0.0,
			"0.022": 0.0,
			"0.023": 0.0,
			"0.024": 0.0,
			"0.025": 0.0
		}
	}
}
