{
	 "smiles": "[O-][N+](=O)C1=CC2=C(C=C1)C1=CC=C(C=C1C2=O)[N+]([O-])=O", 
	 "Tm": 567.15, 
	 "num_atms": 26, 
	 "gaussian": { 
		 "optdone": 1, 
		 "sigma_profile": "yes", 
		 "theory": "DFT", 
		 "functional": "B3LYP", 
		 "basiset": "6-31G**", 
		 "properties": { 
			 "R2extent": 7316.3279, 
			 "electric_dipole_moment_norm": 4.74289290413, 
			 "electric_quadrupole_moment_norm": 29.781688779, 
			 "total_energy": -984.42396105, 
			 "HOMO_LUMO_gap": 0.14475, 
			 "cosmo_polarized_energy": -17.42, 
			 "cosmo_cavitation_energy": 33.62, 
			 "cosmo_dispersion_energy": -24.23, 
			 "cosmo_repulsion_energy": 1.79, 
			 "cosmo_total_nonelectrostatic_energy": 11.17, 
			 "SMD_solvation_energy": 10.38 
		},
		"coords": [
			{
				"x": 3.7747908584,
				"y": -2.6026193892,
				"z": 3.0235481081,
				"element": "O" 
			},
			{
				"x": 2.5971020177,
				"y": -2.790933459,
				"z": 2.7221883518,
				"element": "N" 
			},
			{
				"x": 1.9422813398,
				"y": -3.7874455423,
				"z": 3.0204082005,
				"element": "O" 
			},
			{
				"x": 1.9156674279,
				"y": -1.7421637083,
				"z": 1.9425662472,
				"element": "C" 
			},
			{
				"x": 0.5766448103,
				"y": -1.9303068534,
				"z": 1.5859502193,
				"element": "C" 
			},
			{
				"x": -0.0190659684,
				"y": -0.9179027456,
				"z": 0.8544374795,
				"element": "C" 
			},
			{
				"x": 0.6830753925,
				"y": 0.2485922085,
				"z": 0.4833366394,
				"element": "C" 
			},
			{
				"x": 2.0164305168,
				"y": 0.4130649433,
				"z": 0.8504147302,
				"element": "C" 
			},
			{
				"x": 2.6357563568,
				"y": -0.5994121915,
				"z": 1.5899989033,
				"element": "C" 
			},
			{
				"x": -0.2309142023,
				"y": 1.1238574116,
				"z": -0.2846201065,
				"element": "C" 
			},
			{
				"x": -0.0293105082,
				"y": 2.3721291361,
				"z": -0.868418194,
				"element": "C" 
			},
			{
				"x": -1.09533919,
				"y": 2.9735836003,
				"z": -1.5448014455,
				"element": "C" 
			},
			{
				"x": -2.3266505879,
				"y": 2.3203937013,
				"z": -1.6217515949,
				"element": "C" 
			},
			{
				"x": -2.5535647872,
				"y": 1.0672528692,
				"z": -1.0440744842,
				"element": "C" 
			},
			{
				"x": -1.4871666019,
				"y": 0.4879926244,
				"z": -0.3791018618,
				"element": "C" 
			},
			{
				"x": -1.4242239237,
				"y": -0.8324674965,
				"z": 0.3325926885,
				"element": "C" 
			},
			{
				"x": -2.3130438951,
				"y": -1.6505998966,
				"z": 0.4579623238,
				"element": "O" 
			},
			{
				"x": -3.4301111117,
				"y": 2.9809148764,
				"z": -2.3415837241,
				"element": "N" 
			},
			{
				"x": -4.5043532194,
				"y": 2.3860641271,
				"z": -2.3956507636,
				"element": "O" 
			},
			{
				"x": -3.2060195296,
				"y": 4.0824589051,
				"z": -2.8412050906,
				"element": "O" 
			},
			{
				"x": 0.0427536215,
				"y": -2.8279627803,
				"z": 1.8738010693,
				"element": "H" 
			},
			{
				"x": 2.5764717796,
				"y": 1.3014172765,
				"z": 0.576386752,
				"element": "H" 
			},
			{
				"x": 3.670342127,
				"y": -0.5203771475,
				"z": 1.9002056151,
				"element": "H" 
			},
			{
				"x": 0.9279096615,
				"y": 2.880130906,
				"z": -0.8086971354,
				"element": "H" 
			},
			{
				"x": -0.9906508023,
				"y": 3.9431385039,
				"z": -2.0158114465,
				"element": "H" 
			},
			{
				"x": -3.5202115822,
				"y": 0.5840001203,
				"z": -1.1198814805,
				"element": "H" 
			}
		],
		 "valence_orbital": [ 
			{
				"type": "occ",
				"energy": -0.30618,
				"method": "rhf"
			},
			{
				"type": "occ",
				"energy": -0.30538,
				"method": "rhf"
			},
			{
				"type": "occ",
				"energy": -0.30215,
				"method": "rhf"
			},
			{
				"type": "occ",
				"energy": -0.28453,
				"method": "rhf"
			},
			{
				"type": "occ",
				"energy": -0.27574,
				"method": "rhf"
			},
			{
				"type": "unocc",
				"energy": -0.13099,
				"method": "rhf"
			},
			{
				"type": "unocc",
				"energy": -0.10565,
				"method": "rhf"
			},
			{
				"type": "unocc",
				"energy": -0.09453,
				"method": "rhf"
			},
			{
				"type": "unocc",
				"energy": -0.0482,
				"method": "rhf"
			},
			{
				"type": "unocc",
				"energy": -0.04245,
				"method": "rhf"
			}
		],
		"cosmo_sigma_profile": { 
			"-0.025": 0.0,
			"-0.024": 0.0,
			"-0.023": 0.0,
			"-0.022": 0.0,
			"-0.021": 0.0,
			"-0.02": 0.0,
			"-0.019": 0.0,
			"-0.018": 0.0,
			"-0.017": 0.0,
			"-0.016": 0.0,
			"-0.015": 0.0,
			"-0.014": 0.0,
			"-0.013": 0.0,
			"-0.012": 0.0,
			"-0.011": 0.0,
			"-0.01": 0.693272582718,
			"-0.009": 5.58932108926,
			"-0.008": 9.83891040779,
			"-0.007": 12.1320159038,
			"-0.006": 13.0842878866,
			"-0.005": 13.87509993,
			"-0.004": 15.1021368495,
			"-0.003": 24.5357217418,
			"-0.002": 34.0034601941,
			"-0.001": 31.4997200214,
			"0.0": 15.5236706861,
			"0.001": 6.56180555598,
			"0.002": 5.6214108879,
			"0.003": 7.34909125069,
			"0.004": 7.25487185668,
			"0.005": 6.23308014336,
			"0.006": 10.2505280366,
			"0.007": 21.0059459468,
			"0.008": 12.8401918185,
			"0.009": 10.2320882452,
			"0.01": 7.31793593519,
			"0.011": 2.20010691308,
			"0.012": 0.00732035569956,
			"0.013": 0.0,
			"0.014": 0.0,
			"0.015": 0.0,
			"0.016": 0.0,
			"0.017": 0.0,
			"0.018": 0.0,
			"0.019": 0.0,
			"0.02": 0.0,
			"0.021": 0.0,
			"0.022": 0.0,
			"0.023": 0.0,
			"0.024": 0.0,
			"0.025": 0.0
		}
	}
}
