{
	 "smiles": "CCOC(=O)CN(C(=O)CCl)C1=CC=CC=C1", 
	 "Tm": 405.15, 
	 "num_atms": 31, 
	 "gaussian": { 
		 "optdone": 1, 
		 "sigma_profile": "yes", 
		 "theory": "DFT", 
		 "functional": "B3LYP", 
		 "basiset": "6-31G**", 
		 "properties": { 
			 "R2extent": 4969.571, 
			 "electric_dipole_moment_norm": 1.74228922111, 
			 "electric_quadrupole_moment_norm": 21.6571766221, 
			 "total_energy": -1206.34033304, 
			 "HOMO_LUMO_gap": 0.20174, 
			 "cosmo_polarized_energy": -15.97, 
			 "cosmo_cavitation_energy": 35.88, 
			 "cosmo_dispersion_energy": -24.66, 
			 "cosmo_repulsion_energy": 1.93, 
			 "cosmo_total_nonelectrostatic_energy": 13.14, 
			 "SMD_solvation_energy": 7.38 
		},
		"coords": [
			{
				"x": 1.9524574062,
				"y": 4.263672434,
				"z": -0.1301063906,
				"element": "C" 
			},
			{
				"x": 0.5331698829,
				"y": 3.8753787146,
				"z": -0.5102906651,
				"element": "C" 
			},
			{
				"x": 0.3020034774,
				"y": 2.4517108942,
				"z": -0.3227319634,
				"element": "O" 
			},
			{
				"x": 0.6503020485,
				"y": 1.6496533985,
				"z": -1.3390080084,
				"element": "C" 
			},
			{
				"x": 1.1216084649,
				"y": 2.0177436551,
				"z": -2.3925968785,
				"element": "O" 
			},
			{
				"x": 0.3595776953,
				"y": 0.1646683345,
				"z": -1.085479543,
				"element": "C" 
			},
			{
				"x": -0.156664171,
				"y": -0.244881835,
				"z": 0.2162382762,
				"element": "N" 
			},
			{
				"x": 0.651421226,
				"y": -0.627372585,
				"z": 1.2721581776,
				"element": "C" 
			},
			{
				"x": 0.2107137696,
				"y": -0.9176713445,
				"z": 2.3735812882,
				"element": "O" 
			},
			{
				"x": 2.1566687242,
				"y": -0.7991268197,
				"z": 1.029149303,
				"element": "C" 
			},
			{
				"x": 3.0796811384,
				"y": 0.7436442421,
				"z": 0.792362692,
				"element": "Cl" 
			},
			{
				"x": -1.5885617613,
				"y": -0.320622271,
				"z": 0.3733254079,
				"element": "C" 
			},
			{
				"x": -2.4006044904,
				"y": 0.7560091785,
				"z": 0.0047102018,
				"element": "C" 
			},
			{
				"x": -3.7902710616,
				"y": 0.6435628993,
				"z": 0.0870864761,
				"element": "C" 
			},
			{
				"x": -4.3769576977,
				"y": -0.5331073555,
				"z": 0.5495731276,
				"element": "C" 
			},
			{
				"x": -3.5632548872,
				"y": -1.6041790709,
				"z": 0.9273372661,
				"element": "C" 
			},
			{
				"x": -2.1772527252,
				"y": -1.5053342481,
				"z": 0.8351941375,
				"element": "C" 
			},
			{
				"x": 2.0674563163,
				"y": 5.349681875,
				"z": -0.2124439856,
				"element": "H" 
			},
			{
				"x": 2.1755596221,
				"y": 3.9689027487,
				"z": 0.8986141479,
				"element": "H" 
			},
			{
				"x": 2.6744459683,
				"y": 3.7904928799,
				"z": -0.7996137595,
				"element": "H" 
			},
			{
				"x": 0.317574925,
				"y": 4.1270729203,
				"z": -1.5513639652,
				"element": "H" 
			},
			{
				"x": -0.20241735,
				"y": 4.3506592583,
				"z": 0.1421594565,
				"element": "H" 
			},
			{
				"x": 1.2880830437,
				"y": -0.3594496624,
				"z": -1.3207938147,
				"element": "H" 
			},
			{
				"x": -0.3602210846,
				"y": -0.1381398949,
				"z": -1.8514638461,
				"element": "H" 
			},
			{
				"x": 2.5507285427,
				"y": -1.2611552977,
				"z": 1.9309209579,
				"element": "H" 
			},
			{
				"x": 2.3703168108,
				"y": -1.4324185983,
				"z": 0.1653610281,
				"element": "H" 
			},
			{
				"x": -1.947509391,
				"y": 1.683029763,
				"z": -0.3236346392,
				"element": "H" 
			},
			{
				"x": -4.410864066,
				"y": 1.4863577319,
				"z": -0.2032784962,
				"element": "H" 
			},
			{
				"x": -5.4574893399,
				"y": -0.6163379137,
				"z": 0.6184269269,
				"element": "H" 
			},
			{
				"x": -4.0086819444,
				"y": -2.5261975647,
				"z": 1.2893196207,
				"element": "H" 
			},
			{
				"x": -1.5501190922,
				"y": -2.3379464664,
				"z": 1.1298874634,
				"element": "H" 
			}
		],
		 "valence_orbital": [ 
			{
				"type": "occ",
				"energy": -0.30143,
				"method": "rhf"
			},
			{
				"type": "occ",
				"energy": -0.27172,
				"method": "rhf"
			},
			{
				"type": "occ",
				"energy": -0.26504,
				"method": "rhf"
			},
			{
				"type": "occ",
				"energy": -0.25289,
				"method": "rhf"
			},
			{
				"type": "occ",
				"energy": -0.23378,
				"method": "rhf"
			},
			{
				"type": "unocc",
				"energy": -0.03204,
				"method": "rhf"
			},
			{
				"type": "unocc",
				"energy": -0.00647,
				"method": "rhf"
			},
			{
				"type": "unocc",
				"energy": -0.00351,
				"method": "rhf"
			},
			{
				"type": "unocc",
				"energy": 0.00439,
				"method": "rhf"
			},
			{
				"type": "unocc",
				"energy": 0.04669,
				"method": "rhf"
			}
		],
		"cosmo_sigma_profile": { 
			"-0.025": 0.0,
			"-0.024": 0.0,
			"-0.023": 0.0,
			"-0.022": 0.0,
			"-0.021": 0.0,
			"-0.02": 0.0,
			"-0.019": 0.0,
			"-0.018": 0.0,
			"-0.017": 0.0,
			"-0.016": 0.0,
			"-0.015": 0.0,
			"-0.014": 0.0,
			"-0.013": 0.0,
			"-0.012": 0.511119689015,
			"-0.011": 2.15259834256,
			"-0.01": 1.97122776243,
			"-0.009": 3.46828699528,
			"-0.008": 5.83242616943,
			"-0.007": 6.96293686607,
			"-0.006": 16.1302515588,
			"-0.005": 23.0019865492,
			"-0.004": 27.4550741364,
			"-0.003": 23.0481681809,
			"-0.002": 17.4891179558,
			"-0.001": 18.4722752701,
			"0.0": 20.8425207309,
			"0.001": 14.1832411395,
			"0.002": 13.2614162205,
			"0.003": 16.1240233525,
			"0.004": 17.8545207109,
			"0.005": 19.4382926163,
			"0.006": 8.22552886665,
			"0.007": 3.3299745185,
			"0.008": 2.26585706494,
			"0.009": 3.79553639745,
			"0.01": 3.85389952914,
			"0.011": 5.85979457719,
			"0.012": 8.00633919398,
			"0.013": 2.90753687081,
			"0.014": 0.00761957255931,
			"0.015": 0.0,
			"0.016": 0.0,
			"0.017": 0.0,
			"0.018": 0.0,
			"0.019": 0.0,
			"0.02": 0.0,
			"0.021": 0.0,
			"0.022": 0.0,
			"0.023": 0.0,
			"0.024": 0.0,
			"0.025": 0.0
		}
	}
}
