{
	 "smiles": "NC(=O)C1=NN=C(N)C=C1", 
	 "Tm": 530.15, 
	 "num_atms": 16, 
	 "gaussian": { 
		 "optdone": 1, 
		 "sigma_profile": "yes", 
		 "theory": "DFT", 
		 "functional": "B3LYP", 
		 "basiset": "6-31G**", 
		 "properties": { 
			 "R2extent": 1711.7475, 
			 "electric_dipole_moment_norm": 6.75166664536, 
			 "electric_quadrupole_moment_norm": 18.5000817166, 
			 "total_energy": -488.352285947, 
			 "HOMO_LUMO_gap": 0.17891, 
			 "cosmo_polarized_energy": -27.09, 
			 "cosmo_cavitation_energy": 21.19, 
			 "cosmo_dispersion_energy": -15.89, 
			 "cosmo_repulsion_energy": 1.32, 
			 "cosmo_total_nonelectrostatic_energy": 6.62, 
			 "SMD_solvation_energy": 2.94 
		},
		"coords": [
			{
				"x": -1.7711655601,
				"y": 0.4137560096,
				"z": 1.2774336711,
				"element": "N" 
			},
			{
				"x": -0.7748839559,
				"y": -0.540139161,
				"z": 1.1720550766,
				"element": "C" 
			},
			{
				"x": -0.7046267264,
				"y": -1.4969192681,
				"z": 1.92189578,
				"element": "O" 
			},
			{
				"x": 0.1681697203,
				"y": -0.3273806546,
				"z": 0.0139700852,
				"element": "C" 
			},
			{
				"x": 1.4212377543,
				"y": -0.759139461,
				"z": 0.2021512913,
				"element": "N" 
			},
			{
				"x": 2.3205483737,
				"y": -0.6441239276,
				"z": -0.7596877521,
				"element": "N" 
			},
			{
				"x": 1.9818019124,
				"y": -0.0964389783,
				"z": -1.9467482317,
				"element": "C" 
			},
			{
				"x": 3.0035148942,
				"y": 0.0125970165,
				"z": -2.8550617767,
				"element": "N" 
			},
			{
				"x": 0.6773642586,
				"y": 0.36636601,
				"z": -2.215926153,
				"element": "C" 
			},
			{
				"x": -0.2470948321,
				"y": 0.2467513541,
				"z": -1.2019595296,
				"element": "C" 
			},
			{
				"x": -1.5976650916,
				"y": 1.350340461,
				"z": 0.942802095,
				"element": "H" 
			},
			{
				"x": -2.3332737848,
				"y": 0.3403950279,
				"z": 2.1146140821,
				"element": "H" 
			},
			{
				"x": 3.8317820843,
				"y": -0.5173406318,
				"z": -2.6212636357,
				"element": "H" 
			},
			{
				"x": 2.7745231103,
				"y": 0.0680508377,
				"z": -3.8351616717,
				"element": "H" 
			},
			{
				"x": 0.4205882643,
				"y": 0.792149775,
				"z": -3.1815482449,
				"element": "H" 
			},
			{
				"x": -1.2766204216,
				"y": 0.5612755906,
				"z": -1.3409650859,
				"element": "H" 
			}
		],
		 "valence_orbital": [ 
			{
				"type": "occ",
				"energy": -0.30879,
				"method": "rhf"
			},
			{
				"type": "occ",
				"energy": -0.27363,
				"method": "rhf"
			},
			{
				"type": "occ",
				"energy": -0.2496,
				"method": "rhf"
			},
			{
				"type": "occ",
				"energy": -0.23529,
				"method": "rhf"
			},
			{
				"type": "occ",
				"energy": -0.2293,
				"method": "rhf"
			},
			{
				"type": "unocc",
				"energy": -0.05039,
				"method": "rhf"
			},
			{
				"type": "unocc",
				"energy": -0.03304,
				"method": "rhf"
			},
			{
				"type": "unocc",
				"energy": 0.04756,
				"method": "rhf"
			},
			{
				"type": "unocc",
				"energy": 0.07104,
				"method": "rhf"
			},
			{
				"type": "unocc",
				"energy": 0.07916,
				"method": "rhf"
			}
		],
		"cosmo_sigma_profile": { 
			"-0.025": 0.0,
			"-0.024": 0.0,
			"-0.023": 0.0,
			"-0.022": 0.0,
			"-0.021": 0.0,
			"-0.02": 0.0,
			"-0.019": 0.0,
			"-0.018": 0.0,
			"-0.017": 0.0,
			"-0.016": 0.0,
			"-0.015": 0.552357273603,
			"-0.014": 3.560269823,
			"-0.013": 4.90940523938,
			"-0.012": 5.05694833328,
			"-0.011": 5.65932690014,
			"-0.01": 5.57658599105,
			"-0.009": 5.98596883476,
			"-0.008": 7.2564228429,
			"-0.007": 6.56365925514,
			"-0.006": 6.85585790299,
			"-0.005": 5.19374014117,
			"-0.004": 5.0317593849,
			"-0.003": 5.60727974347,
			"-0.002": 8.11735862454,
			"-0.001": 10.7362862012,
			"0.0": 10.8096356922,
			"0.001": 8.29657401509,
			"0.002": 3.93245755089,
			"0.003": 3.92195499473,
			"0.004": 4.59575752981,
			"0.005": 5.20107580681,
			"0.006": 2.9148076014,
			"0.007": 3.78753984521,
			"0.008": 3.95317691439,
			"0.009": 3.62478946385,
			"0.01": 2.89320454168,
			"0.011": 3.82023109655,
			"0.012": 4.60372893505,
			"0.013": 7.1244689788,
			"0.014": 5.90918481201,
			"0.015": 3.44799589101,
			"0.016": 2.07907897056,
			"0.017": 1.16254748048,
			"0.018": 0.0,
			"0.019": 0.0,
			"0.02": 0.0,
			"0.021": 0.0,
			"0.022": 0.0,
			"0.023": 0.0,
			"0.024": 0.0,
			"0.025": 0.0
		}
	}
}
