{
	 "smiles": "COC1=CC=C(C=CC2=CC=C(OC)C=C2)C=C1", 
	 "Tm": 487.15, 
	 "num_atms": 34, 
	 "gaussian": { 
		 "optdone": 1, 
		 "sigma_profile": "yes", 
		 "theory": "DFT", 
		 "functional": "B3LYP", 
		 "basiset": "6-31G**", 
		 "properties": { 
			 "R2extent": 9723.3224, 
			 "electric_dipole_moment_norm": 0.0, 
			 "electric_quadrupole_moment_norm": 28.1064569877, 
			 "total_energy": -769.764775926, 
			 "HOMO_LUMO_gap": 0.14505, 
			 "cosmo_polarized_energy": -10.8, 
			 "cosmo_cavitation_energy": 38.12, 
			 "cosmo_dispersion_energy": -27.93, 
			 "cosmo_repulsion_energy": 2.12, 
			 "cosmo_total_nonelectrostatic_energy": 12.31, 
			 "SMD_solvation_energy": 7.85 
		},
		"coords": [
			{
				"x": 0.095792845,
				"y": -6.134319166,
				"z": 4.229333517,
				"element": "C" 
			},
			{
				"x": -0.6724324802,
				"y": -4.9471058647,
				"z": 4.1213581944,
				"element": "O" 
			},
			{
				"x": -0.3852672452,
				"y": -4.0843812461,
				"z": 3.1036249147,
				"element": "C" 
			},
			{
				"x": -1.1770166916,
				"y": -2.9247201665,
				"z": 3.0446926376,
				"element": "C" 
			},
			{
				"x": -0.9696889876,
				"y": -1.9828140292,
				"z": 2.0514437023,
				"element": "C" 
			},
			{
				"x": 0.0345371719,
				"y": -2.152088913,
				"z": 1.0721628097,
				"element": "C" 
			},
			{
				"x": 0.298900809,
				"y": -1.1913330189,
				"z": 0.0001844332,
				"element": "C" 
			},
			{
				"x": -0.3423612962,
				"y": -0.0261003087,
				"z": -0.2296677851,
				"element": "C" 
			},
			{
				"x": -0.0779945729,
				"y": 0.9346555787,
				"z": -1.3016450595,
				"element": "C" 
			},
			{
				"x": -0.855248697,
				"y": 2.1012652532,
				"z": -1.3823621777,
				"element": "C" 
			},
			{
				"x": -0.6599537587,
				"y": 3.061065391,
				"z": -2.3767143157,
				"element": "C" 
			},
			{
				"x": 0.3418108499,
				"y": 2.8669430114,
				"z": -3.333111159,
				"element": "C" 
			},
			{
				"x": 0.6289760372,
				"y": 3.7296654912,
				"z": -4.3508462107,
				"element": "O" 
			},
			{
				"x": -0.1392153811,
				"y": 4.9169031098,
				"z": -4.4587922891,
				"element": "C" 
			},
			{
				"x": 1.1336038272,
				"y": 1.7073139181,
				"z": -3.2741366766,
				"element": "C" 
			},
			{
				"x": 0.9262757554,
				"y": 0.7654100862,
				"z": -2.2808854993,
				"element": "C" 
			},
			{
				"x": 0.8117509999,
				"y": -3.3187279377,
				"z": 1.1528408089,
				"element": "C" 
			},
			{
				"x": 0.6164545906,
				"y": -4.278531898,
				"z": 2.147189159,
				"element": "C" 
			},
			{
				"x": -0.2944121311,
				"y": -6.6691163523,
				"z": 5.096716923,
				"element": "H" 
			},
			{
				"x": 1.1596840857,
				"y": -5.9157664367,
				"z": 4.3891995933,
				"element": "H" 
			},
			{
				"x": -0.0086964417,
				"y": -6.7673666013,
				"z": 3.3385303174,
				"element": "H" 
			},
			{
				"x": -1.9498673786,
				"y": -2.7898850607,
				"z": 3.7946438495,
				"element": "H" 
			},
			{
				"x": -1.5991639026,
				"y": -1.0985247403,
				"z": 2.0349976372,
				"element": "H" 
			},
			{
				"x": 1.1094229419,
				"y": -1.4813329567,
				"z": -0.666933006,
				"element": "H" 
			},
			{
				"x": -1.1528892013,
				"y": 0.2638969733,
				"z": 0.4374436508,
				"element": "H" 
			},
			{
				"x": -1.6375658284,
				"y": 2.2647624565,
				"z": -0.6450814124,
				"element": "H" 
			},
			{
				"x": -1.2876455486,
				"y": 3.944221982,
				"z": -2.3940528451,
				"element": "H" 
			},
			{
				"x": 0.2510434209,
				"y": 5.4517388862,
				"z": -5.3261276946,
				"element": "H" 
			},
			{
				"x": -1.203104657,
				"y": 4.6983859014,
				"z": -4.6187228809,
				"element": "H" 
			},
			{
				"x": -0.0347541267,
				"y": 5.5498972118,
				"z": -3.5679482525,
				"element": "H" 
			},
			{
				"x": 1.9064904616,
				"y": 1.5725028516,
				"z": -4.0240551967,
				"element": "H" 
			},
			{
				"x": 1.5557895198,
				"y": -0.11885091,
				"z": -2.2644016533,
				"element": "H" 
			},
			{
				"x": 1.5940344253,
				"y": -3.4822478808,
				"z": 0.4155293265,
				"element": "H" 
			},
			{
				"x": 1.2441105853,
				"y": -5.1617146149,
				"z": 2.1644926397,
				"element": "H" 
			}
		],
		 "valence_orbital": [ 
			{
				"type": "occ",
				"energy": -0.2741,
				"method": "rhf"
			},
			{
				"type": "occ",
				"energy": -0.24854,
				"method": "rhf"
			},
			{
				"type": "occ",
				"energy": -0.24797,
				"method": "rhf"
			},
			{
				"type": "occ",
				"energy": -0.22794,
				"method": "rhf"
			},
			{
				"type": "occ",
				"energy": -0.18104,
				"method": "rhf"
			},
			{
				"type": "unocc",
				"energy": -0.03599,
				"method": "rhf"
			},
			{
				"type": "unocc",
				"energy": 0.00216,
				"method": "rhf"
			},
			{
				"type": "unocc",
				"energy": 0.00317,
				"method": "rhf"
			},
			{
				"type": "unocc",
				"energy": 0.03248,
				"method": "rhf"
			},
			{
				"type": "unocc",
				"energy": 0.08839,
				"method": "rhf"
			}
		],
		"cosmo_sigma_profile": { 
			"-0.025": 0.0,
			"-0.024": 0.0,
			"-0.023": 0.0,
			"-0.022": 0.0,
			"-0.021": 0.0,
			"-0.02": 0.0,
			"-0.019": 0.0,
			"-0.018": 0.0,
			"-0.017": 0.0,
			"-0.016": 0.0,
			"-0.015": 0.0,
			"-0.014": 0.0,
			"-0.013": 0.0,
			"-0.012": 0.0,
			"-0.011": 0.0,
			"-0.01": 0.0,
			"-0.009": 0.0,
			"-0.008": 0.0,
			"-0.007": 2.54452933121,
			"-0.006": 20.1965837482,
			"-0.005": 35.5774244363,
			"-0.004": 31.5604058567,
			"-0.003": 30.2778606334,
			"-0.002": 19.4976791576,
			"-0.001": 13.0179971097,
			"0.0": 13.2913355347,
			"0.001": 14.8599958216,
			"0.002": 14.7066127619,
			"0.003": 20.7834048036,
			"0.004": 25.4523959434,
			"0.005": 33.7305216905,
			"0.006": 16.2390588738,
			"0.007": 3.25301756745,
			"0.008": 2.55424545251,
			"0.009": 2.48416151276,
			"0.01": 3.14977060599,
			"0.011": 0.805749093811,
			"0.012": 0.0,
			"0.013": 0.0,
			"0.014": 0.0,
			"0.015": 0.0,
			"0.016": 0.0,
			"0.017": 0.0,
			"0.018": 0.0,
			"0.019": 0.0,
			"0.02": 0.0,
			"0.021": 0.0,
			"0.022": 0.0,
			"0.023": 0.0,
			"0.024": 0.0,
			"0.025": 0.0
		}
	}
}
