{
	 "smiles": "N1N=NC2=CN=CC=C12", 
	 "Tm": 514.15, 
	 "num_atms": 13, 
	 "gaussian": { 
		 "optdone": 1, 
		 "sigma_profile": "yes", 
		 "theory": "DFT", 
		 "functional": "B3LYP", 
		 "basiset": "6-31G**", 
		 "properties": { 
			 "R2extent": 1274.2966, 
			 "electric_dipole_moment_norm": 4.16495351835, 
			 "electric_quadrupole_moment_norm": 13.8204202465, 
			 "total_energy": -411.899196087, 
			 "HOMO_LUMO_gap": 0.20301, 
			 "cosmo_polarized_energy": -14.4, 
			 "cosmo_cavitation_energy": 17.63, 
			 "cosmo_dispersion_energy": -13.68, 
			 "cosmo_repulsion_energy": 1.11, 
			 "cosmo_total_nonelectrostatic_energy": 5.06, 
			 "SMD_solvation_energy": 0.14 
		},
		"coords": [
			{
				"x": 1.6692858087,
				"y": -2.4593081205,
				"z": 0.5501666091,
				"element": "N" 
			},
			{
				"x": 0.9900995448,
				"y": -3.0353306653,
				"z": 1.5944986422,
				"element": "N" 
			},
			{
				"x": -0.104814127,
				"y": -2.3857205044,
				"z": 1.7858515912,
				"element": "N" 
			},
			{
				"x": -0.1715512095,
				"y": -1.3584777395,
				"z": 0.863291056,
				"element": "C" 
			},
			{
				"x": -1.1362643639,
				"y": -0.3649040449,
				"z": 0.6333104927,
				"element": "C" 
			},
			{
				"x": -0.9772526222,
				"y": 0.5320223238,
				"z": -0.331959445,
				"element": "N" 
			},
			{
				"x": 0.140649554,
				"y": 0.4738991969,
				"z": -1.0994177687,
				"element": "C" 
			},
			{
				"x": 1.1618629379,
				"y": -0.4573594593,
				"z": -0.9699597844,
				"element": "C" 
			},
			{
				"x": 0.9792314748,
				"y": -1.3971707754,
				"z": 0.0532510579,
				"element": "C" 
			},
			{
				"x": 2.5553159244,
				"y": -2.8512431629,
				"z": 0.2689681414,
				"element": "H" 
			},
			{
				"x": -2.0368290781,
				"y": -0.3065829138,
				"z": 1.2407540618,
				"element": "H" 
			},
			{
				"x": 0.210549806,
				"y": 1.2363501575,
				"z": -1.8719254722,
				"element": "H" 
			},
			{
				"x": 2.0290163501,
				"y": -0.4434742923,
				"z": -1.621029182,
				"element": "H" 
			}
		],
		 "valence_orbital": [ 
			{
				"type": "occ",
				"energy": -0.341,
				"method": "rhf"
			},
			{
				"type": "occ",
				"energy": -0.28343,
				"method": "rhf"
			},
			{
				"type": "occ",
				"energy": -0.28178,
				"method": "rhf"
			},
			{
				"type": "occ",
				"energy": -0.26573,
				"method": "rhf"
			},
			{
				"type": "occ",
				"energy": -0.26187,
				"method": "rhf"
			},
			{
				"type": "unocc",
				"energy": -0.05886,
				"method": "rhf"
			},
			{
				"type": "unocc",
				"energy": -0.01404,
				"method": "rhf"
			},
			{
				"type": "unocc",
				"energy": 0.02077,
				"method": "rhf"
			},
			{
				"type": "unocc",
				"energy": 0.06416,
				"method": "rhf"
			},
			{
				"type": "unocc",
				"energy": 0.10106,
				"method": "rhf"
			}
		],
		"cosmo_sigma_profile": { 
			"-0.025": 0.0,
			"-0.024": 0.0,
			"-0.023": 0.0,
			"-0.022": 0.0,
			"-0.021": 0.0,
			"-0.02": 0.0,
			"-0.019": 0.0692033445143,
			"-0.018": 1.67552187686,
			"-0.017": 1.7403149221,
			"-0.016": 1.36993755893,
			"-0.015": 1.32036538549,
			"-0.014": 0.916301650858,
			"-0.013": 1.10362866542,
			"-0.012": 1.04537197363,
			"-0.011": 0.575428690181,
			"-0.01": 1.21826829104,
			"-0.009": 2.54666110777,
			"-0.008": 4.42911834205,
			"-0.007": 5.78905747426,
			"-0.006": 6.3537385473,
			"-0.005": 5.82872466108,
			"-0.004": 5.57514792599,
			"-0.003": 5.58688868371,
			"-0.002": 8.37474022297,
			"-0.001": 11.8361006466,
			"0.0": 13.4958182939,
			"0.001": 9.69233477603,
			"0.002": 8.66707416341,
			"0.003": 3.7007242106,
			"0.004": 4.7037679178,
			"0.005": 3.57871633827,
			"0.006": 2.46375264497,
			"0.007": 3.28259150185,
			"0.008": 4.66037778347,
			"0.009": 4.4800618919,
			"0.01": 3.7323538485,
			"0.011": 3.49719858012,
			"0.012": 3.4769689751,
			"0.013": 2.06405242422,
			"0.014": 1.87623308058,
			"0.015": 1.32862886691,
			"0.016": 0.627336587294,
			"0.017": 0.0989531683244,
			"0.018": 0.0,
			"0.019": 0.0,
			"0.02": 0.0,
			"0.021": 0.0,
			"0.022": 0.0,
			"0.023": 0.0,
			"0.024": 0.0,
			"0.025": 0.0
		}
	}
}
