{
	 "smiles": "COC(=O)C1=CNC2=C1C(F)=CC=C2", 
	 "Tm": 433.15, 
	 "num_atms": 22, 
	 "gaussian": { 
		 "optdone": 1, 
		 "sigma_profile": "yes", 
		 "theory": "DFT", 
		 "functional": "B3LYP", 
		 "basiset": "6-31G**", 
		 "properties": { 
			 "R2extent": 2848.4847, 
			 "electric_dipole_moment_norm": 3.21529586975, 
			 "electric_quadrupole_moment_norm": 18.7685778324, 
			 "total_energy": -690.931499844, 
			 "HOMO_LUMO_gap": 0.18625, 
			 "cosmo_polarized_energy": -14.28, 
			 "cosmo_cavitation_energy": 26.98, 
			 "cosmo_dispersion_energy": -19.84, 
			 "cosmo_repulsion_energy": 1.53, 
			 "cosmo_total_nonelectrostatic_energy": 8.67, 
			 "SMD_solvation_energy": 6.52 
		},
		"coords": [
			{
				"x": -1.5934759248,
				"y": -0.2107622253,
				"z": -3.2934675916,
				"element": "C" 
			},
			{
				"x": -1.1232373213,
				"y": -0.096378325,
				"z": -1.9440415677,
				"element": "O" 
			},
			{
				"x": -1.6295663279,
				"y": -1.0004674995,
				"z": -1.0809906119,
				"element": "C" 
			},
			{
				"x": -2.4308294885,
				"y": -1.8602713801,
				"z": -1.4097446107,
				"element": "O" 
			},
			{
				"x": -1.1211425135,
				"y": -0.8478298458,
				"z": 0.2903580761,
				"element": "C" 
			},
			{
				"x": -1.5558036807,
				"y": -1.7075960445,
				"z": 1.2769664128,
				"element": "C" 
			},
			{
				"x": -0.9633249105,
				"y": -1.3917173336,
				"z": 2.4655885868,
				"element": "N" 
			},
			{
				"x": -0.1169098616,
				"y": -0.3085952825,
				"z": 2.2942217587,
				"element": "C" 
			},
			{
				"x": -0.1892276767,
				"y": 0.0673960909,
				"z": 0.9223495644,
				"element": "C" 
			},
			{
				"x": 0.6063305005,
				"y": 1.160641687,
				"z": 0.5385921174,
				"element": "C" 
			},
			{
				"x": 0.6084968876,
				"y": 1.5936968095,
				"z": -0.734791925,
				"element": "F" 
			},
			{
				"x": 1.4081454081,
				"y": 1.8222982767,
				"z": 1.4542327862,
				"element": "C" 
			},
			{
				"x": 1.4452195159,
				"y": 1.4127706468,
				"z": 2.7989928819,
				"element": "C" 
			},
			{
				"x": 0.6827444553,
				"y": 0.3400930025,
				"z": 3.2405578222,
				"element": "C" 
			},
			{
				"x": -1.3399180784,
				"y": -1.1888598143,
				"z": -3.7109620392,
				"element": "H" 
			},
			{
				"x": -2.6783993583,
				"y": -0.0834661894,
				"z": -3.3382348143,
				"element": "H" 
			},
			{
				"x": -1.0913172838,
				"y": 0.5835106476,
				"z": -3.8457370834,
				"element": "H" 
			},
			{
				"x": -2.2563209368,
				"y": -2.5234267026,
				"z": 1.1802131074,
				"element": "H" 
			},
			{
				"x": -1.117005904,
				"y": -1.8724859618,
				"z": 3.3375066762,
				"element": "H" 
			},
			{
				"x": 2.0030065861,
				"y": 2.6600036077,
				"z": 1.1073718768,
				"element": "H" 
			},
			{
				"x": 2.0813004449,
				"y": 1.9471108658,
				"z": 3.4975490061,
				"element": "H" 
			},
			{
				"x": 0.7047354683,
				"y": 0.0166349701,
				"z": 4.2765695709,
				"element": "H" 
			}
		],
		 "valence_orbital": [ 
			{
				"type": "occ",
				"energy": -0.28846,
				"method": "rhf"
			},
			{
				"type": "occ",
				"energy": -0.27976,
				"method": "rhf"
			},
			{
				"type": "occ",
				"energy": -0.26191,
				"method": "rhf"
			},
			{
				"type": "occ",
				"energy": -0.23684,
				"method": "rhf"
			},
			{
				"type": "occ",
				"energy": -0.21254,
				"method": "rhf"
			},
			{
				"type": "unocc",
				"energy": -0.02629,
				"method": "rhf"
			},
			{
				"type": "unocc",
				"energy": 0.00152,
				"method": "rhf"
			},
			{
				"type": "unocc",
				"energy": 0.02036,
				"method": "rhf"
			},
			{
				"type": "unocc",
				"energy": 0.06714,
				"method": "rhf"
			},
			{
				"type": "unocc",
				"energy": 0.09531,
				"method": "rhf"
			}
		],
		"cosmo_sigma_profile": { 
			"-0.025": 0.0,
			"-0.024": 0.0,
			"-0.023": 0.0,
			"-0.022": 0.0,
			"-0.021": 0.0,
			"-0.02": 0.0,
			"-0.019": 0.0,
			"-0.018": 0.0,
			"-0.017": 0.745278533081,
			"-0.016": 2.10716339017,
			"-0.015": 1.41581845341,
			"-0.014": 1.2693272296,
			"-0.013": 1.26893050896,
			"-0.012": 1.38518130652,
			"-0.011": 1.47289259477,
			"-0.01": 1.17721004705,
			"-0.009": 2.82093238862,
			"-0.008": 2.75662713299,
			"-0.007": 4.46802871537,
			"-0.006": 10.3339107935,
			"-0.005": 12.7832741464,
			"-0.004": 14.5961743785,
			"-0.003": 15.0556061801,
			"-0.002": 10.5289519051,
			"-0.001": 9.99968600485,
			"0.0": 11.0279158334,
			"0.001": 12.34092767,
			"0.002": 22.7026266182,
			"0.003": 20.7708112275,
			"0.004": 14.5105544927,
			"0.005": 14.924389902,
			"0.006": 6.57324421731,
			"0.007": 3.11265371057,
			"0.008": 3.15396408658,
			"0.009": 2.28809141093,
			"0.01": 1.52580196336,
			"0.011": 1.76493694866,
			"0.012": 3.54012299595,
			"0.013": 3.86054127386,
			"0.014": 0.0752192161942,
			"0.015": 0.0,
			"0.016": 0.0,
			"0.017": 0.0,
			"0.018": 0.0,
			"0.019": 0.0,
			"0.02": 0.0,
			"0.021": 0.0,
			"0.022": 0.0,
			"0.023": 0.0,
			"0.024": 0.0,
			"0.025": 0.0
		}
	}
}
