{
	 "smiles": "CC(C)(C)C1=CC=C(CCOC2=NC=NC3=C2C=CC=C3)C=C1", 
	 "Tm": 353.65, 
	 "num_atms": 45, 
	 "gaussian": { 
		 "optdone": 1, 
		 "sigma_profile": "yes", 
		 "theory": "DFT", 
		 "functional": "B3LYP", 
		 "basiset": "6-31G**", 
		 "properties": { 
			 "R2extent": 10671.7538, 
			 "electric_dipole_moment_norm": 2.69273583925, 
			 "electric_quadrupole_moment_norm": 15.5256403021, 
			 "total_energy": -960.146536854, 
			 "HOMO_LUMO_gap": 0.18281, 
			 "cosmo_polarized_energy": -10.44, 
			 "cosmo_cavitation_energy": 47.35, 
			 "cosmo_dispersion_energy": -32.49, 
			 "cosmo_repulsion_energy": 2.47, 
			 "cosmo_total_nonelectrostatic_energy": 17.33, 
			 "SMD_solvation_energy": 5.44 
		},
		"coords": [
			{
				"x": -4.3847771073,
				"y": 4.013373566,
				"z": -1.4845231222,
				"element": "C" 
			},
			{
				"x": -3.2916992323,
				"y": 3.4431824866,
				"z": -0.5493839952,
				"element": "C" 
			},
			{
				"x": -2.2045827713,
				"y": 4.5197283432,
				"z": -0.3697030394,
				"element": "C" 
			},
			{
				"x": -3.9092343794,
				"y": 3.14614589,
				"z": 0.8379838145,
				"element": "C" 
			},
			{
				"x": -2.7314007261,
				"y": 2.1410559234,
				"z": -1.1501398332,
				"element": "C" 
			},
			{
				"x": -1.3847186712,
				"y": 1.9774807662,
				"z": -1.4995091698,
				"element": "C" 
			},
			{
				"x": -0.9123181526,
				"y": 0.7807180144,
				"z": -2.0443863961,
				"element": "C" 
			},
			{
				"x": -1.7658318894,
				"y": -0.3027889982,
				"z": -2.2638463527,
				"element": "C" 
			},
			{
				"x": -1.2536362917,
				"y": -1.610465873,
				"z": -2.829352375,
				"element": "C" 
			},
			{
				"x": -0.9815294137,
				"y": -2.681168719,
				"z": -1.7741511781,
				"element": "C" 
			},
			{
				"x": 0.092960754,
				"y": -2.2064934346,
				"z": -0.9379433056,
				"element": "O" 
			},
			{
				"x": 0.5009007229,
				"y": -3.0000435229,
				"z": 0.0623079463,
				"element": "C" 
			},
			{
				"x": -0.0508341724,
				"y": -4.1792236755,
				"z": 0.243482362,
				"element": "N" 
			},
			{
				"x": 0.4352633045,
				"y": -4.9208669804,
				"z": 1.2780988246,
				"element": "C" 
			},
			{
				"x": 1.390500289,
				"y": -4.6054742914,
				"z": 2.1184041403,
				"element": "N" 
			},
			{
				"x": 1.9679478384,
				"y": -3.3739100727,
				"z": 1.9372916534,
				"element": "C" 
			},
			{
				"x": 1.5516345592,
				"y": -2.49649626,
				"z": 0.8972252937,
				"element": "C" 
			},
			{
				"x": 2.1599180088,
				"y": -1.2303326375,
				"z": 0.7416189935,
				"element": "C" 
			},
			{
				"x": 3.1677974651,
				"y": -0.8480189987,
				"z": 1.6033342429,
				"element": "C" 
			},
			{
				"x": 3.5910135873,
				"y": -1.7163720928,
				"z": 2.6370232103,
				"element": "C" 
			},
			{
				"x": 3.0057070947,
				"y": -2.9543753292,
				"z": 2.8052798041,
				"element": "C" 
			},
			{
				"x": -3.1156197191,
				"y": -0.1451300312,
				"z": -1.9212512451,
				"element": "C" 
			},
			{
				"x": -3.5847320812,
				"y": 1.0469782322,
				"z": -1.3767481853,
				"element": "C" 
			},
			{
				"x": -3.9739992677,
				"y": 4.2408172037,
				"z": -2.4737373386,
				"element": "H" 
			},
			{
				"x": -4.799774652,
				"y": 4.9381721907,
				"z": -1.0677157548,
				"element": "H" 
			},
			{
				"x": -5.2114653119,
				"y": 3.3098009375,
				"z": -1.6206729399,
				"element": "H" 
			},
			{
				"x": -1.4097736554,
				"y": 4.1874838365,
				"z": 0.3062717982,
				"element": "H" 
			},
			{
				"x": -2.6479383394,
				"y": 5.423062773,
				"z": 0.0617762671,
				"element": "H" 
			},
			{
				"x": -1.7472336949,
				"y": 4.8010142076,
				"z": -1.3240544865,
				"element": "H" 
			},
			{
				"x": -4.7215556315,
				"y": 2.4160870108,
				"z": 0.774466004,
				"element": "H" 
			},
			{
				"x": -4.3190685999,
				"y": 4.0626452973,
				"z": 1.2775626372,
				"element": "H" 
			},
			{
				"x": -3.155483326,
				"y": 2.7472485551,
				"z": 1.5247256248,
				"element": "H" 
			},
			{
				"x": -0.6804052603,
				"y": 2.7883553869,
				"z": -1.3520549399,
				"element": "H" 
			},
			{
				"x": 0.1393483128,
				"y": 0.6933747583,
				"z": -2.3061367932,
				"element": "H" 
			},
			{
				"x": -1.9884465149,
				"y": -2.0314308507,
				"z": -3.5269481761,
				"element": "H" 
			},
			{
				"x": -0.3345282263,
				"y": -1.4420034631,
				"z": -3.4014659011,
				"element": "H" 
			},
			{
				"x": -0.6856908957,
				"y": -3.6294813584,
				"z": -2.233910966,
				"element": "H" 
			},
			{
				"x": -1.8618560046,
				"y": -2.8713755221,
				"z": -1.1521763775,
				"element": "H" 
			},
			{
				"x": -0.0375142984,
				"y": -5.8929982124,
				"z": 1.4082227043,
				"element": "H" 
			},
			{
				"x": 1.8191171337,
				"y": -0.5746473714,
				"z": -0.0519554231,
				"element": "H" 
			},
			{
				"x": 3.6395608596,
				"y": 0.12360851,
				"z": 1.4914255733,
				"element": "H" 
			},
			{
				"x": 4.3861800748,
				"y": -1.4000355355,
				"z": 3.3062960221,
				"element": "H" 
			},
			{
				"x": 3.3137926286,
				"y": -3.6336193987,
				"z": 3.5931294021,
				"element": "H" 
			},
			{
				"x": -3.8117285431,
				"y": -0.9649746439,
				"z": -2.0866058656,
				"element": "H" 
			},
			{
				"x": -4.6396658038,
				"y": 1.1244933839,
				"z": -1.1294531588,
				"element": "H" 
			}
		],
		 "valence_orbital": [ 
			{
				"type": "occ",
				"energy": -0.26265,
				"method": "rhf"
			},
			{
				"type": "occ",
				"energy": -0.24978,
				"method": "rhf"
			},
			{
				"type": "occ",
				"energy": -0.24671,
				"method": "rhf"
			},
			{
				"type": "occ",
				"energy": -0.23417,
				"method": "rhf"
			},
			{
				"type": "occ",
				"energy": -0.23075,
				"method": "rhf"
			},
			{
				"type": "unocc",
				"energy": -0.04794,
				"method": "rhf"
			},
			{
				"type": "unocc",
				"energy": -0.0232,
				"method": "rhf"
			},
			{
				"type": "unocc",
				"energy": -0.00082,
				"method": "rhf"
			},
			{
				"type": "unocc",
				"energy": 0.00084,
				"method": "rhf"
			},
			{
				"type": "unocc",
				"energy": 0.02671,
				"method": "rhf"
			}
		],
		"cosmo_sigma_profile": { 
			"-0.025": 0.0,
			"-0.024": 0.0,
			"-0.023": 0.0,
			"-0.022": 0.0,
			"-0.021": 0.0,
			"-0.02": 0.0,
			"-0.019": 0.0,
			"-0.018": 0.0,
			"-0.017": 0.0,
			"-0.016": 0.0,
			"-0.015": 0.0,
			"-0.014": 0.0,
			"-0.013": 0.0,
			"-0.012": 0.0,
			"-0.011": 0.0,
			"-0.01": 0.0,
			"-0.009": 0.0,
			"-0.008": 0.0404605412038,
			"-0.007": 3.29696085193,
			"-0.006": 9.27347816223,
			"-0.005": 25.7313858334,
			"-0.004": 29.7077405208,
			"-0.003": 34.7618717522,
			"-0.002": 42.5091149542,
			"-0.001": 37.9124008163,
			"0.0": 35.9359673099,
			"0.001": 40.7840116168,
			"0.002": 33.1888571369,
			"0.003": 23.2138978181,
			"0.004": 15.6962148664,
			"0.005": 10.7167728714,
			"0.006": 10.2249419008,
			"0.007": 8.47795810741,
			"0.008": 2.09430493786,
			"0.009": 2.55374495372,
			"0.01": 1.94902672975,
			"0.011": 1.44738093937,
			"0.012": 1.53112214003,
			"0.013": 1.12098176262,
			"0.014": 0.949103402935,
			"0.015": 0.559559464262,
			"0.016": 0.639688306615,
			"0.017": 0.0,
			"0.018": 0.0,
			"0.019": 0.0,
			"0.02": 0.0,
			"0.021": 0.0,
			"0.022": 0.0,
			"0.023": 0.0,
			"0.024": 0.0,
			"0.025": 0.0
		}
	}
}
