{
	 "smiles": "BrC1=CC2=C(OCC(=O)N2)C=C1", 
	 "Tm": 495.65, 
	 "num_atms": 18, 
	 "gaussian": { 
		 "optdone": 1, 
		 "sigma_profile": "yes", 
		 "theory": "DFT", 
		 "functional": "B3LYP", 
		 "basiset": "6-31G**", 
		 "properties": { 
			 "R2extent": 4649.0017, 
			 "electric_dipole_moment_norm": 1.16524765179, 
			 "electric_quadrupole_moment_norm": 12.3011753585, 
			 "total_energy": -3085.07371472, 
			 "HOMO_LUMO_gap": 0.19401, 
			 "cosmo_polarized_energy": -11.71, 
			 "cosmo_cavitation_energy": 24.71, 
			 "cosmo_dispersion_energy": -19.17, 
			 "cosmo_repulsion_energy": 1.52, 
			 "cosmo_total_nonelectrostatic_energy": 7.06, 
			 "SMD_solvation_energy": 3.9 
		},
		"coords": [
			{
				"x": -0.1075522766,
				"y": -0.2588287494,
				"z": 4.7668605782,
				"element": "Br" 
			},
			{
				"x": -0.1988127259,
				"y": -0.8010113963,
				"z": 2.9371563389,
				"element": "C" 
			},
			{
				"x": -0.2057920992,
				"y": 0.1762735956,
				"z": 1.9430718483,
				"element": "C" 
			},
			{
				"x": -0.2659045413,
				"y": -0.2154623827,
				"z": 0.6047613292,
				"element": "C" 
			},
			{
				"x": -0.3362417208,
				"y": -1.5800187085,
				"z": 0.2758023062,
				"element": "C" 
			},
			{
				"x": -0.3479720842,
				"y": -1.9734520104,
				"z": -1.0357596151,
				"element": "O" 
			},
			{
				"x": -0.9615620743,
				"y": -1.056377159,
				"z": -1.9444297747,
				"element": "C" 
			},
			{
				"x": -0.5389448911,
				"y": 0.3973606581,
				"z": -1.7470045442,
				"element": "C" 
			},
			{
				"x": -0.5320928781,
				"y": 1.2096652297,
				"z": -2.6547342373,
				"element": "O" 
			},
			{
				"x": -0.2268032222,
				"y": 0.7127611583,
				"z": -0.4471123656,
				"element": "N" 
			},
			{
				"x": -0.3335689474,
				"y": -2.5404884895,
				"z": 1.2821983133,
				"element": "C" 
			},
			{
				"x": -0.2576440158,
				"y": -2.1568127322,
				"z": 2.6226678559,
				"element": "C" 
			},
			{
				"x": -0.1569958166,
				"y": 1.2281056086,
				"z": 2.2033082396,
				"element": "H" 
			},
			{
				"x": -2.0580601365,
				"y": -1.1109616081,
				"z": -1.8604244535,
				"element": "H" 
			},
			{
				"x": -0.6738317698,
				"y": -1.3644947458,
				"z": -2.9493753286,
				"element": "H" 
			},
			{
				"x": -0.00676494,
				"y": 1.6828935041,
				"z": -0.2606043146,
				"element": "H" 
			},
			{
				"x": -0.380701516,
				"y": -3.5873883229,
				"z": 1.002095935,
				"element": "H" 
			},
			{
				"x": -0.2525543442,
				"y": -2.9027634495,
				"z": 3.4081218891,
				"element": "H" 
			}
		],
		 "valence_orbital": [ 
			{
				"type": "occ",
				"energy": -0.29743,
				"method": "rhf"
			},
			{
				"type": "occ",
				"energy": -0.29312,
				"method": "rhf"
			},
			{
				"type": "occ",
				"energy": -0.27007,
				"method": "rhf"
			},
			{
				"type": "occ",
				"energy": -0.25286,
				"method": "rhf"
			},
			{
				"type": "occ",
				"energy": -0.22424,
				"method": "rhf"
			},
			{
				"type": "unocc",
				"energy": -0.03023,
				"method": "rhf"
			},
			{
				"type": "unocc",
				"energy": -0.01926,
				"method": "rhf"
			},
			{
				"type": "unocc",
				"energy": 0.00025,
				"method": "rhf"
			},
			{
				"type": "unocc",
				"energy": 0.01868,
				"method": "rhf"
			},
			{
				"type": "unocc",
				"energy": 0.07007,
				"method": "rhf"
			}
		],
		"cosmo_sigma_profile": { 
			"-0.025": 0.0,
			"-0.024": 0.0,
			"-0.023": 0.0,
			"-0.022": 0.0,
			"-0.021": 0.0,
			"-0.02": 0.0,
			"-0.019": 0.0,
			"-0.018": 0.0,
			"-0.017": 0.0,
			"-0.016": 0.794500737678,
			"-0.015": 1.42639879302,
			"-0.014": 1.07650617142,
			"-0.013": 1.50659894769,
			"-0.012": 1.24602736617,
			"-0.011": 1.12713490402,
			"-0.01": 1.04945037368,
			"-0.009": 2.0032565483,
			"-0.008": 6.51373612914,
			"-0.007": 9.19096484233,
			"-0.006": 10.5605816322,
			"-0.005": 9.93944721812,
			"-0.004": 8.61628377349,
			"-0.003": 11.6885816529,
			"-0.002": 9.71463705421,
			"-0.001": 10.7926492787,
			"0.0": 12.6401896402,
			"0.001": 15.9834484077,
			"0.002": 19.3061092305,
			"0.003": 19.035035131,
			"0.004": 15.0555258369,
			"0.005": 9.01144888349,
			"0.006": 2.28168594334,
			"0.007": 1.73822137449,
			"0.008": 2.82914022257,
			"0.009": 3.04040410769,
			"0.01": 1.90276243386,
			"0.011": 2.12173341562,
			"0.012": 5.33215201965,
			"0.013": 3.65476919695,
			"0.014": 0.226969250107,
			"0.015": 0.0,
			"0.016": 0.0,
			"0.017": 0.0,
			"0.018": 0.0,
			"0.019": 0.0,
			"0.02": 0.0,
			"0.021": 0.0,
			"0.022": 0.0,
			"0.023": 0.0,
			"0.024": 0.0,
			"0.025": 0.0
		}
	}
}
