{
	 "smiles": "OC(=O)C1=CC(=CC=C1)C(O)=O", 
	 "Tm": 617.15, 
	 "num_atms": 18, 
	 "gaussian": { 
		 "optdone": 1, 
		 "sigma_profile": "yes", 
		 "theory": "DFT", 
		 "functional": "B3LYP", 
		 "basiset": "6-31G**", 
		 "properties": { 
			 "R2extent": 2517.9932, 
			 "electric_dipole_moment_norm": 3.08887089565, 
			 "electric_quadrupole_moment_norm": 21.1296158226, 
			 "total_energy": -609.388705712, 
			 "HOMO_LUMO_gap": 0.20399, 
			 "cosmo_polarized_energy": -17.62, 
			 "cosmo_cavitation_energy": 23.59, 
			 "cosmo_dispersion_energy": -17.39, 
			 "cosmo_repulsion_energy": 1.38, 
			 "cosmo_total_nonelectrostatic_energy": 7.57, 
			 "SMD_solvation_energy": 6.55 
		},
		"coords": [
			{
				"x": -2.9910949149,
				"y": -0.0477577294,
				"z": 1.8587365424,
				"element": "O" 
			},
			{
				"x": -2.6749965584,
				"y": -0.4638032133,
				"z": 0.6069891746,
				"element": "C" 
			},
			{
				"x": -3.4395777012,
				"y": -1.1161396564,
				"z": -0.0735962579,
				"element": "O" 
			},
			{
				"x": -1.3158955356,
				"y": -0.0323494842,
				"z": 0.1792329313,
				"element": "C" 
			},
			{
				"x": -0.4792124528,
				"y": 0.7198074019,
				"z": 1.012424357,
				"element": "C" 
			},
			{
				"x": 0.7925015253,
				"y": 1.1006811658,
				"z": 0.5718463395,
				"element": "C" 
			},
			{
				"x": 1.2293180126,
				"y": 0.7037466542,
				"z": -0.7007572468,
				"element": "C" 
			},
			{
				"x": 0.3938348633,
				"y": -0.0370541179,
				"z": -1.533875195,
				"element": "C" 
			},
			{
				"x": -0.8782533857,
				"y": -0.4044000427,
				"z": -1.0980138636,
				"element": "C" 
			},
			{
				"x": 1.7491634249,
				"y": 1.8918093879,
				"z": 1.4169926815,
				"element": "C" 
			},
			{
				"x": 1.2207480276,
				"y": 2.5891913057,
				"z": 2.4565654656,
				"element": "O" 
			},
			{
				"x": 2.9384239213,
				"y": 1.9262630739,
				"z": 1.2073958679,
				"element": "O" 
			},
			{
				"x": -3.8853991768,
				"y": -0.3836951424,
				"z": 2.034764648,
				"element": "H" 
			},
			{
				"x": -0.8306543693,
				"y": 0.9623091061,
				"z": 2.0103328445,
				"element": "H" 
			},
			{
				"x": 2.2283607449,
				"y": 0.9893570533,
				"z": -1.0121666007,
				"element": "H" 
			},
			{
				"x": 0.7353835404,
				"y": -0.3318002259,
				"z": -2.5211463694,
				"element": "H" 
			},
			{
				"x": -1.5467564856,
				"y": -0.9841713257,
				"z": -1.7254242499,
				"element": "H" 
			},
			{
				"x": 0.25500652,
				"y": 2.5945057891,
				"z": 2.4058989309,
				"element": "H" 
			}
		],
		 "valence_orbital": [ 
			{
				"type": "occ",
				"energy": -0.32331,
				"method": "rhf"
			},
			{
				"type": "occ",
				"energy": -0.29545,
				"method": "rhf"
			},
			{
				"type": "occ",
				"energy": -0.28569,
				"method": "rhf"
			},
			{
				"type": "occ",
				"energy": -0.28491,
				"method": "rhf"
			},
			{
				"type": "occ",
				"energy": -0.27496,
				"method": "rhf"
			},
			{
				"type": "unocc",
				"energy": -0.07097,
				"method": "rhf"
			},
			{
				"type": "unocc",
				"energy": -0.0564,
				"method": "rhf"
			},
			{
				"type": "unocc",
				"energy": 0.01771,
				"method": "rhf"
			},
			{
				"type": "unocc",
				"energy": 0.0507,
				"method": "rhf"
			},
			{
				"type": "unocc",
				"energy": 0.0642,
				"method": "rhf"
			}
		],
		"cosmo_sigma_profile": { 
			"-0.025": 0.0,
			"-0.024": 0.0,
			"-0.023": 0.0,
			"-0.022": 0.0,
			"-0.021": 0.0,
			"-0.02": 0.00886384989196,
			"-0.019": 1.02670572964,
			"-0.018": 1.69543900624,
			"-0.017": 2.18381995613,
			"-0.016": 1.80180821478,
			"-0.015": 0.860929981708,
			"-0.014": 1.79151634349,
			"-0.013": 2.15296179112,
			"-0.012": 1.68782272198,
			"-0.011": 1.81773382108,
			"-0.01": 1.6285135829,
			"-0.009": 1.31648238285,
			"-0.008": 2.15163396836,
			"-0.007": 7.36843632644,
			"-0.006": 8.88497378039,
			"-0.005": 8.29135271363,
			"-0.004": 7.45578013907,
			"-0.003": 10.680801511,
			"-0.002": 11.5175230936,
			"-0.001": 13.5029517102,
			"0.0": 13.8647648091,
			"0.001": 17.6966732278,
			"0.002": 12.1120668189,
			"0.003": 4.53757206052,
			"0.004": 5.45317628401,
			"0.005": 4.51247446781,
			"0.006": 4.71024710922,
			"0.007": 4.77947469102,
			"0.008": 4.57181280953,
			"0.009": 5.37427272051,
			"0.01": 6.99400672399,
			"0.011": 10.2891483047,
			"0.012": 5.55938210619,
			"0.013": 0.994686913129,
			"0.014": 0.0,
			"0.015": 0.0,
			"0.016": 0.0,
			"0.017": 0.0,
			"0.018": 0.0,
			"0.019": 0.0,
			"0.02": 0.0,
			"0.021": 0.0,
			"0.022": 0.0,
			"0.023": 0.0,
			"0.024": 0.0,
			"0.025": 0.0
		}
	}
}
