{
	 "smiles": "CC(C)(C)NS(=O)(=O)C1=C(Br)C=CC(=C1)C(O)=O", 
	 "Tm": 491.15, 
	 "num_atms": 32, 
	 "gaussian": { 
		 "optdone": 1, 
		 "sigma_profile": "yes", 
		 "theory": "DFT", 
		 "functional": "B3LYP", 
		 "basiset": "6-31G**", 
		 "properties": { 
			 "R2extent": 7764.6765, 
			 "electric_dipole_moment_norm": 2.60398925113, 
			 "electric_quadrupole_moment_norm": 26.7776248045, 
			 "total_energy": -3752.78517066, 
			 "HOMO_LUMO_gap": 0.19274, 
			 "cosmo_polarized_energy": -23.1, 
			 "cosmo_cavitation_energy": 38.37, 
			 "cosmo_dispersion_energy": -26.74, 
			 "cosmo_repulsion_energy": 2.0, 
			 "cosmo_total_nonelectrostatic_energy": 13.64, 
			 "SMD_solvation_energy": 6.25 
		},
		"coords": [
			{
				"x": 0.3478780992,
				"y": -2.5035165084,
				"z": -1.1775322293,
				"element": "C" 
			},
			{
				"x": 1.0911843284,
				"y": -2.7880035757,
				"z": 0.1358662252,
				"element": "C" 
			},
			{
				"x": 2.5948485243,
				"y": -2.5207692051,
				"z": -0.0514331047,
				"element": "C" 
			},
			{
				"x": 0.8701763383,
				"y": -4.2420568613,
				"z": 0.5915906387,
				"element": "C" 
			},
			{
				"x": 0.6656094308,
				"y": -1.807603476,
				"z": 1.1943444563,
				"element": "N" 
			},
			{
				"x": -0.9186043882,
				"y": -1.6280112752,
				"z": 1.7400657418,
				"element": "S" 
			},
			{
				"x": -1.7917028081,
				"y": -2.636560883,
				"z": 1.1358969187,
				"element": "O" 
			},
			{
				"x": -0.8187004154,
				"y": -1.4740684156,
				"z": 3.1943650869,
				"element": "O" 
			},
			{
				"x": -1.4041849769,
				"y": -0.0151513257,
				"z": 1.0596440166,
				"element": "C" 
			},
			{
				"x": -2.7178938016,
				"y": 0.4617609873,
				"z": 1.1907567068,
				"element": "C" 
			},
			{
				"x": -4.081641601,
				"y": -0.50433166,
				"z": 2.0903250356,
				"element": "Br" 
			},
			{
				"x": -3.0636541257,
				"y": 1.7054410035,
				"z": 0.6528105648,
				"element": "C" 
			},
			{
				"x": -2.1111521885,
				"y": 2.4817418688,
				"z": 0.0049427452,
				"element": "C" 
			},
			{
				"x": -0.7872949162,
				"y": 2.0384173531,
				"z": -0.09040643,
				"element": "C" 
			},
			{
				"x": -0.4486032321,
				"y": 0.7859331697,
				"z": 0.4319680868,
				"element": "C" 
			},
			{
				"x": 0.2015439797,
				"y": 2.9203638399,
				"z": -0.7941381137,
				"element": "C" 
			},
			{
				"x": 1.5163362839,
				"y": 2.7001923287,
				"z": -0.5311114653,
				"element": "O" 
			},
			{
				"x": -0.1278074807,
				"y": 3.7899247647,
				"z": -1.5647907786,
				"element": "O" 
			},
			{
				"x": -0.7240908167,
				"y": -2.6824626618,
				"z": -1.0783140373,
				"element": "H" 
			},
			{
				"x": 0.7318713834,
				"y": -3.1668005567,
				"z": -1.9581994613,
				"element": "H" 
			},
			{
				"x": 0.5068051956,
				"y": -1.4717160618,
				"z": -1.505489469,
				"element": "H" 
			},
			{
				"x": 3.1492882483,
				"y": -2.6886470536,
				"z": 0.879320326,
				"element": "H" 
			},
			{
				"x": 3.0019402475,
				"y": -3.2015462682,
				"z": -0.8047093858,
				"element": "H" 
			},
			{
				"x": 2.777685603,
				"y": -1.4938711588,
				"z": -0.3818941736,
				"element": "H" 
			},
			{
				"x": 1.252052166,
				"y": -4.9358513341,
				"z": -0.1646244283,
				"element": "H" 
			},
			{
				"x": -0.1904502734,
				"y": -4.4451823234,
				"z": 0.7474420672,
				"element": "H" 
			},
			{
				"x": 1.4040323064,
				"y": -4.4407660993,
				"z": 1.5277321602,
				"element": "H" 
			},
			{
				"x": 1.2390688464,
				"y": -1.8689207071,
				"z": 2.0329787848,
				"element": "H" 
			},
			{
				"x": -4.0849697399,
				"y": 2.0547868485,
				"z": 0.750045296,
				"element": "H" 
			},
			{
				"x": -2.3743403031,
				"y": 3.4406780451,
				"z": -0.4278986733,
				"element": "H" 
			},
			{
				"x": 0.552381936,
				"y": 0.3797997284,
				"z": 0.3371273619,
				"element": "H" 
			},
			{
				"x": 1.6156881502,
				"y": 2.1102974732,
				"z": 0.2289195307,
				"element": "H" 
			}
		],
		 "valence_orbital": [ 
			{
				"type": "occ",
				"energy": -0.30086,
				"method": "rhf"
			},
			{
				"type": "occ",
				"energy": -0.29101,
				"method": "rhf"
			},
			{
				"type": "occ",
				"energy": -0.28656,
				"method": "rhf"
			},
			{
				"type": "occ",
				"energy": -0.28011,
				"method": "rhf"
			},
			{
				"type": "occ",
				"energy": -0.26688,
				"method": "rhf"
			},
			{
				"type": "unocc",
				"energy": -0.07414,
				"method": "rhf"
			},
			{
				"type": "unocc",
				"energy": -0.05359,
				"method": "rhf"
			},
			{
				"type": "unocc",
				"energy": -0.01667,
				"method": "rhf"
			},
			{
				"type": "unocc",
				"energy": 0.02051,
				"method": "rhf"
			},
			{
				"type": "unocc",
				"energy": 0.04043,
				"method": "rhf"
			}
		],
		"cosmo_sigma_profile": { 
			"-0.025": 0.0,
			"-0.024": 0.0,
			"-0.023": 0.0,
			"-0.022": 0.0,
			"-0.021": 0.0,
			"-0.02": 0.0,
			"-0.019": 0.724257010787,
			"-0.018": 0.826243136109,
			"-0.017": 0.998811237684,
			"-0.016": 0.775496486514,
			"-0.015": 0.968113876035,
			"-0.014": 1.30908148878,
			"-0.013": 1.77337345308,
			"-0.012": 2.09685476243,
			"-0.011": 2.25893708006,
			"-0.01": 2.43805426855,
			"-0.009": 2.65233863728,
			"-0.008": 5.78237850781,
			"-0.007": 7.34164645795,
			"-0.006": 7.98750184215,
			"-0.005": 12.0652570019,
			"-0.004": 23.7240317431,
			"-0.003": 21.7951635836,
			"-0.002": 26.0802265641,
			"-0.001": 34.4673445685,
			"0.0": 37.8707888382,
			"0.001": 20.2845005384,
			"0.002": 10.8657301501,
			"0.003": 10.6521703347,
			"0.004": 7.16915061657,
			"0.005": 6.81401346381,
			"0.006": 5.19056205449,
			"0.007": 6.07423145211,
			"0.008": 7.33142725054,
			"0.009": 8.74770416415,
			"0.01": 13.9362684233,
			"0.011": 11.9531748927,
			"0.012": 3.34168235438,
			"0.013": 0.441145052102,
			"0.014": 0.0,
			"0.015": 0.0,
			"0.016": 0.0,
			"0.017": 0.0,
			"0.018": 0.0,
			"0.019": 0.0,
			"0.02": 0.0,
			"0.021": 0.0,
			"0.022": 0.0,
			"0.023": 0.0,
			"0.024": 0.0,
			"0.025": 0.0
		}
	}
}
