{
	 "smiles": "CC(=O)CC(=O)NC1=C(Cl)N=CC=C1", 
	 "Tm": 357.15, 
	 "num_atms": 23, 
	 "gaussian": { 
		 "optdone": 1, 
		 "sigma_profile": "yes", 
		 "theory": "DFT", 
		 "functional": "B3LYP", 
		 "basiset": "6-31G**", 
		 "properties": { 
			 "R2extent": 3665.6618, 
			 "electric_dipole_moment_norm": 6.16593704963, 
			 "electric_quadrupole_moment_norm": 21.2843501202, 
			 "total_energy": -1068.52128804, 
			 "HOMO_LUMO_gap": 0.19444, 
			 "cosmo_polarized_energy": -22.08, 
			 "cosmo_cavitation_energy": 29.72, 
			 "cosmo_dispersion_energy": -20.81, 
			 "cosmo_repulsion_energy": 1.67, 
			 "cosmo_total_nonelectrostatic_energy": 10.58, 
			 "SMD_solvation_energy": 5.02 
		},
		"coords": [
			{
				"x": -0.3775501293,
				"y": 3.0651387088,
				"z": -0.4007643891,
				"element": "C" 
			},
			{
				"x": -0.3609312081,
				"y": 1.9754622614,
				"z": 0.6542714847,
				"element": "C" 
			},
			{
				"x": 0.2273752127,
				"y": 2.0975714333,
				"z": 1.705873954,
				"element": "O" 
			},
			{
				"x": -1.1194384832,
				"y": 0.6895101688,
				"z": 0.2870321605,
				"element": "C" 
			},
			{
				"x": -1.5929413181,
				"y": -0.0775775208,
				"z": 1.5126752339,
				"element": "C" 
			},
			{
				"x": -2.3382169331,
				"y": 0.4290263866,
				"z": 2.3318748057,
				"element": "O" 
			},
			{
				"x": -1.1921420536,
				"y": -1.3970146194,
				"z": 1.6564140082,
				"element": "N" 
			},
			{
				"x": -0.4776002537,
				"y": -2.2297220318,
				"z": 0.7599276087,
				"element": "C" 
			},
			{
				"x": 0.9200625559,
				"y": -2.1529327109,
				"z": 0.571717296,
				"element": "C" 
			},
			{
				"x": 1.8419123493,
				"y": -0.943985775,
				"z": 1.4425436916,
				"element": "Cl" 
			},
			{
				"x": 1.6021793363,
				"y": -2.9452344187,
				"z": -0.2355108724,
				"element": "N" 
			},
			{
				"x": 0.9399138095,
				"y": -3.8991188234,
				"z": -0.9020426638,
				"element": "C" 
			},
			{
				"x": -0.4346635612,
				"y": -4.0906155329,
				"z": -0.7865179382,
				"element": "C" 
			},
			{
				"x": -1.1452566414,
				"y": -3.2358684665,
				"z": 0.0534608873,
				"element": "C" 
			},
			{
				"x": -0.1219055267,
				"y": 2.6641001932,
				"z": -1.3881339946,
				"element": "H" 
			},
			{
				"x": -1.3878299498,
				"y": 3.4855538299,
				"z": -0.4763818729,
				"element": "H" 
			},
			{
				"x": 0.3219924276,
				"y": 3.8552942899,
				"z": -0.1254935297,
				"element": "H" 
			},
			{
				"x": -2.0086919533,
				"y": 0.9486402611,
				"z": -0.2988845497,
				"element": "H" 
			},
			{
				"x": -0.4704517271,
				"y": 0.0989353374,
				"z": -0.3690664852,
				"element": "H" 
			},
			{
				"x": -1.6180288244,
				"y": -1.8383516513,
				"z": 2.4634542345,
				"element": "H" 
			},
			{
				"x": 1.5424189663,
				"y": -4.5339983793,
				"z": -1.5474788602,
				"element": "H" 
			},
			{
				"x": -0.9342227838,
				"y": -4.8779865432,
				"z": -1.3408436357,
				"element": "H" 
			},
			{
				"x": -2.2203833108,
				"y": -3.3317263971,
				"z": 0.1739734263,
				"element": "H" 
			}
		],
		 "valence_orbital": [ 
			{
				"type": "occ",
				"energy": -0.29335,
				"method": "rhf"
			},
			{
				"type": "occ",
				"energy": -0.27811,
				"method": "rhf"
			},
			{
				"type": "occ",
				"energy": -0.26456,
				"method": "rhf"
			},
			{
				"type": "occ",
				"energy": -0.25469,
				"method": "rhf"
			},
			{
				"type": "occ",
				"energy": -0.248,
				"method": "rhf"
			},
			{
				"type": "unocc",
				"energy": -0.05356,
				"method": "rhf"
			},
			{
				"type": "unocc",
				"energy": -0.0404,
				"method": "rhf"
			},
			{
				"type": "unocc",
				"energy": -0.01454,
				"method": "rhf"
			},
			{
				"type": "unocc",
				"energy": 0.01299,
				"method": "rhf"
			},
			{
				"type": "unocc",
				"energy": 0.03216,
				"method": "rhf"
			}
		],
		"cosmo_sigma_profile": { 
			"-0.025": 0.0,
			"-0.024": 0.0,
			"-0.023": 0.0,
			"-0.022": 0.0,
			"-0.021": 0.0,
			"-0.02": 0.0,
			"-0.019": 0.0,
			"-0.018": 0.0,
			"-0.017": 0.0,
			"-0.016": 0.0,
			"-0.015": 0.67039517723,
			"-0.014": 1.27565782615,
			"-0.013": 1.15192833746,
			"-0.012": 0.68987229386,
			"-0.011": 1.13719956134,
			"-0.01": 1.0921486602,
			"-0.009": 1.85844785483,
			"-0.008": 9.30008185825,
			"-0.007": 17.949686052,
			"-0.006": 18.2980189911,
			"-0.005": 15.4694354931,
			"-0.004": 15.1321615389,
			"-0.003": 13.0067196751,
			"-0.002": 15.7353600686,
			"-0.001": 16.4720305798,
			"0.0": 13.9987788324,
			"0.001": 12.7000991579,
			"0.002": 8.31691527577,
			"0.003": 8.26717601131,
			"0.004": 9.13928811071,
			"0.005": 7.49652353435,
			"0.006": 5.57063834267,
			"0.007": 5.74695273883,
			"0.008": 4.33998522721,
			"0.009": 4.46494395414,
			"0.01": 4.93615547595,
			"0.011": 7.87400533465,
			"0.012": 8.38787980201,
			"0.013": 6.62276713119,
			"0.014": 1.86292817673,
			"0.015": 0.0324996543237,
			"0.016": 0.0,
			"0.017": 0.0,
			"0.018": 0.0,
			"0.019": 0.0,
			"0.02": 0.0,
			"0.021": 0.0,
			"0.022": 0.0,
			"0.023": 0.0,
			"0.024": 0.0,
			"0.025": 0.0
		}
	}
}
