{
	 "smiles": "ClCC(=O)C1=CNC(=C1)C(=O)N1CCCC1", 
	 "Tm": 475.15, 
	 "num_atms": 29, 
	 "gaussian": { 
		 "optdone": 1, 
		 "sigma_profile": "yes", 
		 "theory": "DFT", 
		 "functional": "B3LYP", 
		 "basiset": "6-31G**", 
		 "properties": { 
			 "R2extent": 8608.6275, 
			 "electric_dipole_moment_norm": 9.43263673476, 
			 "electric_quadrupole_moment_norm": 31.5928555764, 
			 "total_energy": -1147.15106976, 
			 "HOMO_LUMO_gap": 0.1947, 
			 "cosmo_polarized_energy": -27.25, 
			 "cosmo_cavitation_energy": 34.32, 
			 "cosmo_dispersion_energy": -25.11, 
			 "cosmo_repulsion_energy": 1.98, 
			 "cosmo_total_nonelectrostatic_energy": 11.19, 
			 "SMD_solvation_energy": 5.39 
		},
		"coords": [
			{
				"x": -6.1508399802,
				"y": -3.766832712,
				"z": 2.377839336,
				"element": "Cl" 
			},
			{
				"x": -4.5981367993,
				"y": -2.8823714872,
				"z": 2.279922159,
				"element": "C" 
			},
			{
				"x": -3.8111519075,
				"y": -3.1648672915,
				"z": 0.9904655801,
				"element": "C" 
			},
			{
				"x": -4.2099647375,
				"y": -3.9351455531,
				"z": 0.138300088,
				"element": "O" 
			},
			{
				"x": -2.5344260115,
				"y": -2.4400374153,
				"z": 0.8570149401,
				"element": "C" 
			},
			{
				"x": -1.9619562034,
				"y": -1.5209690751,
				"z": 1.7343849379,
				"element": "C" 
			},
			{
				"x": -0.790699381,
				"y": -1.0960943531,
				"z": 1.1893084865,
				"element": "N" 
			},
			{
				"x": -0.5685420054,
				"y": -1.7350200005,
				"z": -0.0265905019,
				"element": "C" 
			},
			{
				"x": -1.6399499942,
				"y": -2.5740086315,
				"z": -0.2441463707,
				"element": "C" 
			},
			{
				"x": 0.6320195653,
				"y": -1.5869361221,
				"z": -0.8855895714,
				"element": "C" 
			},
			{
				"x": 0.9465756694,
				"y": -2.4892149983,
				"z": -1.6594724768,
				"element": "O" 
			},
			{
				"x": 1.3925546759,
				"y": -0.4442572847,
				"z": -0.7790274725,
				"element": "N" 
			},
			{
				"x": 2.578899358,
				"y": -0.335332544,
				"z": -1.651323443,
				"element": "C" 
			},
			{
				"x": 3.0370296431,
				"y": 1.1166220818,
				"z": -1.4663276541,
				"element": "C" 
			},
			{
				"x": 1.7233942311,
				"y": 1.8642185665,
				"z": -1.1895064628,
				"element": "C" 
			},
			{
				"x": 0.9484163431,
				"y": 0.8771105416,
				"z": -0.3023404757,
				"element": "C" 
			},
			{
				"x": -3.9968583419,
				"y": -3.1675818104,
				"z": 3.1474459714,
				"element": "H" 
			},
			{
				"x": -4.8183646635,
				"y": -1.8140482937,
				"z": 2.3528428035,
				"element": "H" 
			},
			{
				"x": -2.2960240317,
				"y": -1.147067089,
				"z": 2.6913380861,
				"element": "H" 
			},
			{
				"x": -0.137602766,
				"y": -0.4782720433,
				"z": 1.64466591,
				"element": "H" 
			},
			{
				"x": -1.7735387642,
				"y": -3.2173411751,
				"z": -1.0999140763,
				"element": "H" 
			},
			{
				"x": 2.2943454771,
				"y": -0.5520844387,
				"z": -2.6876726709,
				"element": "H" 
			},
			{
				"x": 3.3332236267,
				"y": -1.0731143153,
				"z": -1.3638141431,
				"element": "H" 
			},
			{
				"x": 3.7074033217,
				"y": 1.1998107042,
				"z": -0.6029227576,
				"element": "H" 
			},
			{
				"x": 3.5717935192,
				"y": 1.4960643109,
				"z": -2.3406961703,
				"element": "H" 
			},
			{
				"x": 1.1763868571,
				"y": 2.0263731317,
				"z": -2.1249128633,
				"element": "H" 
			},
			{
				"x": 1.8635098963,
				"y": 2.8355839611,
				"z": -0.7075513816,
				"element": "H" 
			},
			{
				"x": -0.1354833903,
				"y": 0.9882710005,
				"z": -0.3911843146,
				"element": "H" 
			},
			{
				"x": 1.2237867936,
				"y": 1.0334423357,
				"z": 0.7536645077,
				"element": "H" 
			}
		],
		 "valence_orbital": [ 
			{
				"type": "occ",
				"energy": -0.2681,
				"method": "rhf"
			},
			{
				"type": "occ",
				"energy": -0.25851,
				"method": "rhf"
			},
			{
				"type": "occ",
				"energy": -0.25459,
				"method": "rhf"
			},
			{
				"type": "occ",
				"energy": -0.24571,
				"method": "rhf"
			},
			{
				"type": "occ",
				"energy": -0.23693,
				"method": "rhf"
			},
			{
				"type": "unocc",
				"energy": -0.04223,
				"method": "rhf"
			},
			{
				"type": "unocc",
				"energy": -0.02547,
				"method": "rhf"
			},
			{
				"type": "unocc",
				"energy": 0.02914,
				"method": "rhf"
			},
			{
				"type": "unocc",
				"energy": 0.04206,
				"method": "rhf"
			},
			{
				"type": "unocc",
				"energy": 0.07035,
				"method": "rhf"
			}
		],
		"cosmo_sigma_profile": { 
			"-0.025": 0.0,
			"-0.024": 0.0,
			"-0.023": 0.0,
			"-0.022": 0.0,
			"-0.021": 0.0,
			"-0.02": 0.0,
			"-0.019": 0.0,
			"-0.018": 0.0,
			"-0.017": 0.0906594357265,
			"-0.016": 1.35610366457,
			"-0.015": 1.16073788552,
			"-0.014": 1.55366577561,
			"-0.013": 0.944848217005,
			"-0.012": 1.4283529524,
			"-0.011": 1.5821944516,
			"-0.01": 4.15032835281,
			"-0.009": 9.21486572769,
			"-0.008": 8.43062549808,
			"-0.007": 5.61532373332,
			"-0.006": 7.21406854551,
			"-0.005": 10.5248401613,
			"-0.004": 20.9279040056,
			"-0.003": 29.4596040448,
			"-0.002": 23.16364444,
			"-0.001": 20.4844850484,
			"0.0": 16.444561817,
			"0.001": 11.4021068313,
			"0.002": 12.4431025719,
			"0.003": 13.5359433578,
			"0.004": 10.9441515755,
			"0.005": 9.74659673194,
			"0.006": 11.3399429409,
			"0.007": 4.67650489561,
			"0.008": 4.39226347374,
			"0.009": 3.96303428179,
			"0.01": 3.89613389925,
			"0.011": 5.29974349249,
			"0.012": 6.34980386079,
			"0.013": 4.81444297624,
			"0.014": 5.95684487804,
			"0.015": 1.00002556083,
			"0.016": 0.0,
			"0.017": 0.0,
			"0.018": 0.0,
			"0.019": 0.0,
			"0.02": 0.0,
			"0.021": 0.0,
			"0.022": 0.0,
			"0.023": 0.0,
			"0.024": 0.0,
			"0.025": 0.0
		}
	}
}
