{
	 "smiles": "CC1CS(=O)(=O)CCN1N=CC1=CC=C(O1)N(=O)=O", 
	 "Tm": 454.15, 
	 "num_atms": 32, 
	 "gaussian": { 
		 "optdone": 1, 
		 "sigma_profile": "yes", 
		 "theory": "DFT", 
		 "functional": "B3LYP", 
		 "basiset": "6-31G**", 
		 "properties": { 
			 "R2extent": 8371.2578, 
			 "electric_dipole_moment_norm": 6.25219034899, 
			 "electric_quadrupole_moment_norm": 37.1557931947, 
			 "total_energy": -1327.22382858, 
			 "HOMO_LUMO_gap": 0.13144, 
			 "cosmo_polarized_energy": -28.0, 
			 "cosmo_cavitation_energy": 37.5, 
			 "cosmo_dispersion_energy": -27.22, 
			 "cosmo_repulsion_energy": 2.06, 
			 "cosmo_total_nonelectrostatic_energy": 12.33, 
			 "SMD_solvation_energy": 7.23 
		},
		"coords": [
			{
				"x": -2.5597122649,
				"y": -1.4139499881,
				"z": -1.1600527245,
				"element": "C" 
			},
			{
				"x": -1.088513328,
				"y": -0.9797541251,
				"z": -1.1176394844,
				"element": "C" 
			},
			{
				"x": -0.4578186523,
				"y": -0.7179294246,
				"z": -2.5089459782,
				"element": "C" 
			},
			{
				"x": -1.0593170118,
				"y": 0.808202732,
				"z": -3.307886555,
				"element": "S" 
			},
			{
				"x": -0.1363957729,
				"y": 1.1498879467,
				"z": -4.3982552196,
				"element": "O" 
			},
			{
				"x": -2.5037048386,
				"y": 0.6592253162,
				"z": -3.5658834299,
				"element": "O" 
			},
			{
				"x": -0.8659362667,
				"y": 1.9947453954,
				"z": -1.9470161027,
				"element": "C" 
			},
			{
				"x": -1.5050186492,
				"y": 1.4443636812,
				"z": -0.6615025906,
				"element": "C" 
			},
			{
				"x": -0.8877389931,
				"y": 0.1868494956,
				"z": -0.2312592975,
				"element": "N" 
			},
			{
				"x": 0.267111955,
				"y": 0.4072721186,
				"z": 0.4296096868,
				"element": "N" 
			},
			{
				"x": 1.1566343579,
				"y": -0.5052282659,
				"z": 0.6424698038,
				"element": "C" 
			},
			{
				"x": 2.3285428891,
				"y": -0.2038859756,
				"z": 1.4290530522,
				"element": "C" 
			},
			{
				"x": 3.3994078311,
				"y": -1.0009405325,
				"z": 1.7902791259,
				"element": "C" 
			},
			{
				"x": 4.2689393743,
				"y": -0.1905100322,
				"z": 2.5615814184,
				"element": "C" 
			},
			{
				"x": 3.664330863,
				"y": 1.0366124504,
				"z": 2.6110677613,
				"element": "C" 
			},
			{
				"x": 2.4915684598,
				"y": 1.0505543354,
				"z": 1.9335693073,
				"element": "O" 
			},
			{
				"x": 4.0774952664,
				"y": 2.2440837429,
				"z": 3.2444820776,
				"element": "N" 
			},
			{
				"x": 3.3517064632,
				"y": 3.2328162857,
				"z": 3.1396876851,
				"element": "O" 
			},
			{
				"x": 5.1514926123,
				"y": 2.1896955399,
				"z": 3.8555562193,
				"element": "O" 
			},
			{
				"x": -2.9314932948,
				"y": -1.5510090866,
				"z": -0.1413302954,
				"element": "H" 
			},
			{
				"x": -3.1935754459,
				"y": -0.7001736262,
				"z": -1.6873124344,
				"element": "H" 
			},
			{
				"x": -2.6388063248,
				"y": -2.3700414209,
				"z": -1.6866468558,
				"element": "H" 
			},
			{
				"x": -0.5336273071,
				"y": -1.8107239744,
				"z": -0.6757657568,
				"element": "H" 
			},
			{
				"x": 0.6272362264,
				"y": -0.6035925223,
				"z": -2.435176625,
				"element": "H" 
			},
			{
				"x": -0.6801753056,
				"y": -1.5215311173,
				"z": -3.2168937967,
				"element": "H" 
			},
			{
				"x": 0.2043409098,
				"y": 2.1740765488,
				"z": -1.8143036722,
				"element": "H" 
			},
			{
				"x": -1.3494326303,
				"y": 2.9141356133,
				"z": -2.2889439356,
				"element": "H" 
			},
			{
				"x": -2.5750740649,
				"y": 1.2865959143,
				"z": -0.8119792046,
				"element": "H" 
			},
			{
				"x": -1.3694025033,
				"y": 2.163479852,
				"z": 0.1479707937,
				"element": "H" 
			},
			{
				"x": 1.1030680689,
				"y": -1.534134085,
				"z": 0.2814212287,
				"element": "H" 
			},
			{
				"x": 3.5341774045,
				"y": -2.0407150408,
				"z": 1.5291508886,
				"element": "H" 
			},
			{
				"x": 5.2082899722,
				"y": -0.4515777509,
				"z": 3.0229949101,
				"element": "H" 
			}
		],
		 "valence_orbital": [ 
			{
				"type": "occ",
				"energy": -0.30231,
				"method": "rhf"
			},
			{
				"type": "occ",
				"energy": -0.29465,
				"method": "rhf"
			},
			{
				"type": "occ",
				"energy": -0.29161,
				"method": "rhf"
			},
			{
				"type": "occ",
				"energy": -0.28871,
				"method": "rhf"
			},
			{
				"type": "occ",
				"energy": -0.22752,
				"method": "rhf"
			},
			{
				"type": "unocc",
				"energy": -0.09608,
				"method": "rhf"
			},
			{
				"type": "unocc",
				"energy": -0.04239,
				"method": "rhf"
			},
			{
				"type": "unocc",
				"energy": 0.04211,
				"method": "rhf"
			},
			{
				"type": "unocc",
				"energy": 0.04364,
				"method": "rhf"
			},
			{
				"type": "unocc",
				"energy": 0.05377,
				"method": "rhf"
			}
		],
		"cosmo_sigma_profile": { 
			"-0.025": 0.0,
			"-0.024": 0.0,
			"-0.023": 0.0,
			"-0.022": 0.0,
			"-0.021": 0.0,
			"-0.02": 0.0,
			"-0.019": 0.0,
			"-0.018": 0.0,
			"-0.017": 0.0,
			"-0.016": 0.0,
			"-0.015": 0.0,
			"-0.014": 0.0,
			"-0.013": 0.0,
			"-0.012": 0.0107646608748,
			"-0.011": 1.33085519825,
			"-0.01": 4.48181526927,
			"-0.009": 11.9271017739,
			"-0.008": 15.9019931596,
			"-0.007": 17.9675669172,
			"-0.006": 18.9385481501,
			"-0.005": 19.505846,
			"-0.004": 18.0008194693,
			"-0.003": 16.125600841,
			"-0.002": 17.8677329051,
			"-0.001": 21.1505796118,
			"0.0": 18.2815882629,
			"0.001": 12.0620623385,
			"0.002": 8.41456122301,
			"0.003": 6.93809447802,
			"0.004": 6.38685074795,
			"0.005": 6.65459469246,
			"0.006": 7.94094897233,
			"0.007": 6.25980025778,
			"0.008": 15.8528304944,
			"0.009": 12.7936586342,
			"0.01": 11.1864278004,
			"0.011": 11.9510422416,
			"0.012": 9.07555795327,
			"0.013": 1.07797594282,
			"0.014": 0.0,
			"0.015": 0.0,
			"0.016": 0.0,
			"0.017": 0.0,
			"0.018": 0.0,
			"0.019": 0.0,
			"0.02": 0.0,
			"0.021": 0.0,
			"0.022": 0.0,
			"0.023": 0.0,
			"0.024": 0.0,
			"0.025": 0.0
		}
	}
}
