{
	 "smiles": "ClC1=NC=C(C=C1)S(=O)(=O)N1CCCCC1", 
	 "Tm": 404.15, 
	 "num_atms": 29, 
	 "gaussian": { 
		 "optdone": 1, 
		 "sigma_profile": "yes", 
		 "theory": "DFT", 
		 "functional": "B3LYP", 
		 "basiset": "6-31G**", 
		 "properties": { 
			 "R2extent": 5760.9933, 
			 "electric_dipole_moment_norm": 5.00188371316, 
			 "electric_quadrupole_moment_norm": 16.6756483709, 
			 "total_energy": -1507.15173178, 
			 "HOMO_LUMO_gap": 0.19413, 
			 "cosmo_polarized_energy": -14.54, 
			 "cosmo_cavitation_energy": 34.16, 
			 "cosmo_dispersion_energy": -24.96, 
			 "cosmo_repulsion_energy": 1.91, 
			 "cosmo_total_nonelectrostatic_energy": 11.11, 
			 "SMD_solvation_energy": 1.73 
		},
		"coords": [
			{
				"x": 4.6499404471,
				"y": 1.7499161959,
				"z": -1.0142838813,
				"element": "Cl" 
			},
			{
				"x": 3.1920343356,
				"y": 0.8288394896,
				"z": -1.3494158348,
				"element": "C" 
			},
			{
				"x": 2.8283259642,
				"y": -0.0572107454,
				"z": -0.4384646126,
				"element": "N" 
			},
			{
				"x": 1.7142962018,
				"y": -0.7635409503,
				"z": -0.6732517534,
				"element": "C" 
			},
			{
				"x": 0.93647598,
				"y": -0.5842969424,
				"z": -1.8193204289,
				"element": "C" 
			},
			{
				"x": 1.3497520291,
				"y": 0.3431379395,
				"z": -2.7813560675,
				"element": "C" 
			},
			{
				"x": 2.5093223096,
				"y": 1.0723717755,
				"z": -2.5472392206,
				"element": "C" 
			},
			{
				"x": -0.5827147647,
				"y": -1.5229485145,
				"z": -2.0508340165,
				"element": "S" 
			},
			{
				"x": -0.8746395242,
				"y": -1.4835701039,
				"z": -3.485373641,
				"element": "O" 
			},
			{
				"x": -0.4094280697,
				"y": -2.7732846745,
				"z": -1.3107682343,
				"element": "O" 
			},
			{
				"x": -1.7972024717,
				"y": -0.6793818252,
				"z": -1.2838287641,
				"element": "N" 
			},
			{
				"x": -1.8231074536,
				"y": -0.7066407852,
				"z": 0.1947151111,
				"element": "C" 
			},
			{
				"x": -3.0795892356,
				"y": 0.017810526,
				"z": 0.6824194836,
				"element": "C" 
			},
			{
				"x": -3.085162439,
				"y": 1.5072011309,
				"z": 0.2691559259,
				"element": "C" 
			},
			{
				"x": -2.3539298418,
				"y": 1.7288922922,
				"z": -1.0766807625,
				"element": "C" 
			},
			{
				"x": -2.4198058799,
				"y": 0.4812138162,
				"z": -1.9617267902,
				"element": "C" 
			},
			{
				"x": 1.4460945889,
				"y": -1.5131714188,
				"z": 0.0653772301,
				"element": "H" 
			},
			{
				"x": 0.7847848156,
				"y": 0.4634213721,
				"z": -3.699539862,
				"element": "H" 
			},
			{
				"x": 2.8825269572,
				"y": 1.7967615309,
				"z": -3.2610101677,
				"element": "H" 
			},
			{
				"x": -1.8199289965,
				"y": -1.749624481,
				"z": 0.5152445443,
				"element": "H" 
			},
			{
				"x": -0.9284865628,
				"y": -0.2207829994,
				"z": 0.6175136728,
				"element": "H" 
			},
			{
				"x": -3.9542282269,
				"y": -0.4961819284,
				"z": 0.2680271776,
				"element": "H" 
			},
			{
				"x": -3.1449376641,
				"y": -0.0824012684,
				"z": 1.7705123453,
				"element": "H" 
			},
			{
				"x": -2.6067635984,
				"y": 2.1148180771,
				"z": 1.0450597542,
				"element": "H" 
			},
			{
				"x": -4.1210378215,
				"y": 1.8562418155,
				"z": 0.1985139858,
				"element": "H" 
			},
			{
				"x": -2.78492209,
				"y": 2.578631226,
				"z": -1.6168163593,
				"element": "H" 
			},
			{
				"x": -1.300264409,
				"y": 1.9746495298,
				"z": -0.8989427542,
				"element": "H" 
			},
			{
				"x": -1.9200956089,
				"y": 0.6387484135,
				"z": -2.9188855641,
				"element": "H" 
			},
			{
				"x": -3.4627089707,
				"y": 0.2312815064,
				"z": -2.1947005156,
				"element": "H" 
			}
		],
		 "valence_orbital": [ 
			{
				"type": "occ",
				"energy": -0.31389,
				"method": "rhf"
			},
			{
				"type": "occ",
				"energy": -0.30842,
				"method": "rhf"
			},
			{
				"type": "occ",
				"energy": -0.28919,
				"method": "rhf"
			},
			{
				"type": "occ",
				"energy": -0.28048,
				"method": "rhf"
			},
			{
				"type": "occ",
				"energy": -0.25322,
				"method": "rhf"
			},
			{
				"type": "unocc",
				"energy": -0.05909,
				"method": "rhf"
			},
			{
				"type": "unocc",
				"energy": -0.05227,
				"method": "rhf"
			},
			{
				"type": "unocc",
				"energy": 0.02166,
				"method": "rhf"
			},
			{
				"type": "unocc",
				"energy": 0.0533,
				"method": "rhf"
			},
			{
				"type": "unocc",
				"energy": 0.06227,
				"method": "rhf"
			}
		],
		"cosmo_sigma_profile": { 
			"-0.025": 0.0,
			"-0.024": 0.0,
			"-0.023": 0.0,
			"-0.022": 0.0,
			"-0.021": 0.0,
			"-0.02": 0.0,
			"-0.019": 0.0,
			"-0.018": 0.0,
			"-0.017": 0.0,
			"-0.016": 0.0,
			"-0.015": 0.0,
			"-0.014": 0.0,
			"-0.013": 0.0,
			"-0.012": 0.0,
			"-0.011": 0.0,
			"-0.01": 0.101897999769,
			"-0.009": 2.99658207345,
			"-0.008": 5.0913044157,
			"-0.007": 4.98772432131,
			"-0.006": 6.82636520283,
			"-0.005": 10.8229975505,
			"-0.004": 25.0638119459,
			"-0.003": 37.4638753535,
			"-0.002": 38.7018875013,
			"-0.001": 27.2985700497,
			"0.0": 21.368743963,
			"0.001": 10.7047598149,
			"0.002": 9.43199305326,
			"0.003": 12.2318769065,
			"0.004": 11.9871143553,
			"0.005": 7.62214646982,
			"0.006": 5.22835765946,
			"0.007": 4.37775577802,
			"0.008": 5.65575624528,
			"0.009": 4.57263479036,
			"0.01": 7.25507271975,
			"0.011": 9.11740992276,
			"0.012": 2.99818563127,
			"0.013": 0.51570853068,
			"0.014": 0.178303423567,
			"0.015": 0.0,
			"0.016": 0.0,
			"0.017": 0.0,
			"0.018": 0.0,
			"0.019": 0.0,
			"0.02": 0.0,
			"0.021": 0.0,
			"0.022": 0.0,
			"0.023": 0.0,
			"0.024": 0.0,
			"0.025": 0.0
		}
	}
}
