{
	 "smiles": "CC1=NC(=CC=C1)C(=O)NC1=CC(O)=CC=C1", 
	 "Tm": 451.15, 
	 "num_atms": 29, 
	 "gaussian": { 
		 "optdone": 1, 
		 "sigma_profile": "yes", 
		 "theory": "DFT", 
		 "functional": "B3LYP", 
		 "basiset": "6-31G**", 
		 "properties": { 
			 "R2extent": 5744.538, 
			 "electric_dipole_moment_norm": 5.35190742259, 
			 "electric_quadrupole_moment_norm": 7.35963414987, 
			 "total_energy": -762.59612502, 
			 "HOMO_LUMO_gap": 0.1505, 
			 "cosmo_polarized_energy": -15.91, 
			 "cosmo_cavitation_energy": 33.78, 
			 "cosmo_dispersion_energy": -24.77, 
			 "cosmo_repulsion_energy": 1.91, 
			 "cosmo_total_nonelectrostatic_energy": 10.92, 
			 "SMD_solvation_energy": 5.74 
		},
		"coords": [
			{
				"x": 1.7656520217,
				"y": 0.6137167234,
				"z": -3.6096453428,
				"element": "C" 
			},
			{
				"x": 1.5921340502,
				"y": 1.3813377894,
				"z": -2.3226774469,
				"element": "C" 
			},
			{
				"x": 0.8393028134,
				"y": 0.8209079655,
				"z": -1.3670321112,
				"element": "N" 
			},
			{
				"x": 0.6639399265,
				"y": 1.4780966594,
				"z": -0.2077628534,
				"element": "C" 
			},
			{
				"x": 1.2271236717,
				"y": 2.7239592173,
				"z": 0.0605829576,
				"element": "C" 
			},
			{
				"x": 2.0115114961,
				"y": 3.3102909213,
				"z": -0.9320494779,
				"element": "C" 
			},
			{
				"x": 2.1969365234,
				"y": 2.6352061147,
				"z": -2.1345554284,
				"element": "C" 
			},
			{
				"x": -0.1917627786,
				"y": 0.8193345597,
				"z": 0.8520418238,
				"element": "C" 
			},
			{
				"x": -0.3926855609,
				"y": 1.3646806052,
				"z": 1.9334991362,
				"element": "O" 
			},
			{
				"x": -0.6780820776,
				"y": -0.3955850781,
				"z": 0.4574147271,
				"element": "N" 
			},
			{
				"x": -1.4986957747,
				"y": -1.2939063398,
				"z": 1.1595469403,
				"element": "C" 
			},
			{
				"x": -1.8472281771,
				"y": -2.4850788383,
				"z": 0.5000242735,
				"element": "C" 
			},
			{
				"x": -2.6589929243,
				"y": -3.4266840949,
				"z": 1.1321538437,
				"element": "C" 
			},
			{
				"x": -3.0233779371,
				"y": -4.5989808687,
				"z": 0.5292729127,
				"element": "O" 
			},
			{
				"x": -3.1330683093,
				"y": -3.1933304482,
				"z": 2.427800007,
				"element": "C" 
			},
			{
				"x": -2.7796684041,
				"y": -2.0091440969,
				"z": 3.0684285635,
				"element": "C" 
			},
			{
				"x": -1.9686378266,
				"y": -1.0502798001,
				"z": 2.4583695613,
				"element": "C" 
			},
			{
				"x": 1.2202381688,
				"y": -0.3297948093,
				"z": -3.5561984117,
				"element": "H" 
			},
			{
				"x": 1.3915825891,
				"y": 1.1865462272,
				"z": -4.4655736509,
				"element": "H" 
			},
			{
				"x": 2.8224427294,
				"y": 0.3970410019,
				"z": -3.8017790553,
				"element": "H" 
			},
			{
				"x": 1.0404786642,
				"y": 3.1920912192,
				"z": 1.0195045405,
				"element": "H" 
			},
			{
				"x": 2.4719359055,
				"y": 4.2806508198,
				"z": -0.7699074722,
				"element": "H" 
			},
			{
				"x": 2.8023367848,
				"y": 3.0661368784,
				"z": -2.9264741289,
				"element": "H" 
			},
			{
				"x": -0.3842699302,
				"y": -0.6524261812,
				"z": -0.4803444101,
				"element": "H" 
			},
			{
				"x": -1.4810948516,
				"y": -2.6719552613,
				"z": -0.508364023,
				"element": "H" 
			},
			{
				"x": -2.6335345191,
				"y": -4.6366693142,
				"z": -0.3534921842,
				"element": "H" 
			},
			{
				"x": -3.7630322541,
				"y": -3.9373116918,
				"z": 2.9027334376,
				"element": "H" 
			},
			{
				"x": -3.1446924507,
				"y": -1.8223762993,
				"z": 4.074424441,
				"element": "H" 
			},
			{
				"x": -1.6979915686,
				"y": -0.1333735804,
				"z": 2.9609588312,
				"element": "H" 
			}
		],
		 "valence_orbital": [ 
			{
				"type": "occ",
				"energy": -0.28508,
				"method": "rhf"
			},
			{
				"type": "occ",
				"energy": -0.26377,
				"method": "rhf"
			},
			{
				"type": "occ",
				"energy": -0.24964,
				"method": "rhf"
			},
			{
				"type": "occ",
				"energy": -0.22833,
				"method": "rhf"
			},
			{
				"type": "occ",
				"energy": -0.20674,
				"method": "rhf"
			},
			{
				"type": "unocc",
				"energy": -0.05624,
				"method": "rhf"
			},
			{
				"type": "unocc",
				"energy": -0.02907,
				"method": "rhf"
			},
			{
				"type": "unocc",
				"energy": 0.00763,
				"method": "rhf"
			},
			{
				"type": "unocc",
				"energy": 0.0199,
				"method": "rhf"
			},
			{
				"type": "unocc",
				"energy": 0.0663,
				"method": "rhf"
			}
		],
		"cosmo_sigma_profile": { 
			"-0.025": 0.0,
			"-0.024": 0.0,
			"-0.023": 0.0,
			"-0.022": 0.0,
			"-0.021": 0.0,
			"-0.02": 0.0,
			"-0.019": 0.0,
			"-0.018": 0.379779152812,
			"-0.017": 0.979904727337,
			"-0.016": 1.52236462871,
			"-0.015": 0.98966633522,
			"-0.014": 0.60132692101,
			"-0.013": 1.2639297938,
			"-0.012": 1.29414594825,
			"-0.011": 1.53214010508,
			"-0.01": 2.26612238653,
			"-0.009": 2.6384997121,
			"-0.008": 2.9734366139,
			"-0.007": 6.16163087486,
			"-0.006": 10.2191852404,
			"-0.005": 17.6663935655,
			"-0.004": 16.739411593,
			"-0.003": 16.3675143324,
			"-0.002": 17.6529948758,
			"-0.001": 19.687562592,
			"0.0": 22.9035274532,
			"0.001": 22.8779240034,
			"0.002": 20.7437535152,
			"0.003": 16.1041345225,
			"0.004": 18.7064666815,
			"0.005": 14.7795642644,
			"0.006": 9.65378696296,
			"0.007": 4.2987667996,
			"0.008": 3.19830633914,
			"0.009": 2.78969333463,
			"0.01": 3.42198121203,
			"0.011": 3.7055660162,
			"0.012": 4.06982481371,
			"0.013": 2.15166850075,
			"0.014": 0.0,
			"0.015": 0.0,
			"0.016": 0.0,
			"0.017": 0.0,
			"0.018": 0.0,
			"0.019": 0.0,
			"0.02": 0.0,
			"0.021": 0.0,
			"0.022": 0.0,
			"0.023": 0.0,
			"0.024": 0.0,
			"0.025": 0.0
		}
	}
}
