{
	 "smiles": "NC(=O)CCC(NC(=O)OCC1C2=C(C=CC=C2)C2=C1C=CC=C2)C(O)=O", 
	 "Tm": 493.15, 
	 "num_atms": 47, 
	 "gaussian": { 
		 "optdone": 1, 
		 "sigma_profile": "yes", 
		 "theory": "DFT", 
		 "functional": "B3LYP", 
		 "basiset": "6-31G**", 
		 "properties": { 
			 "R2extent": 9672.1545, 
			 "electric_dipole_moment_norm": 2.86136665774, 
			 "electric_quadrupole_moment_norm": 31.2316344313, 
			 "total_energy": -1259.87859691, 
			 "HOMO_LUMO_gap": 0.18425, 
			 "cosmo_polarized_energy": -27.14, 
			 "cosmo_cavitation_energy": 50.21, 
			 "cosmo_dispersion_energy": -31.96, 
			 "cosmo_repulsion_energy": 2.43, 
			 "cosmo_total_nonelectrostatic_energy": 20.67, 
			 "SMD_solvation_energy": 9.95 
		},
		"coords": [
			{
				"x": -1.6156240254,
				"y": 0.6262677821,
				"z": 4.7926725274,
				"element": "N" 
			},
			{
				"x": -2.4962360545,
				"y": -0.4144419713,
				"z": 4.7704547965,
				"element": "C" 
			},
			{
				"x": -3.671076981,
				"y": -0.3175827426,
				"z": 5.1027093671,
				"element": "O" 
			},
			{
				"x": -1.905516719,
				"y": -1.7379194044,
				"z": 4.2740075717,
				"element": "C" 
			},
			{
				"x": -2.2452264956,
				"y": -1.9955683691,
				"z": 2.7956805275,
				"element": "C" 
			},
			{
				"x": -1.6874862302,
				"y": -0.9577300799,
				"z": 1.7909654418,
				"element": "C" 
			},
			{
				"x": -2.123713489,
				"y": -1.3321507335,
				"z": 0.4402561645,
				"element": "N" 
			},
			{
				"x": -2.422853095,
				"y": -0.4160743252,
				"z": -0.5579943275,
				"element": "C" 
			},
			{
				"x": -3.0722854853,
				"y": -0.693904045,
				"z": -1.5451020575,
				"element": "O" 
			},
			{
				"x": -1.8646788273,
				"y": 0.7831355525,
				"z": -0.2792846481,
				"element": "O" 
			},
			{
				"x": -1.9434929104,
				"y": 1.7943100387,
				"z": -1.3071539451,
				"element": "C" 
			},
			{
				"x": -0.5492936065,
				"y": 2.0749368692,
				"z": -1.8836031412,
				"element": "C" 
			},
			{
				"x": 0.156433876,
				"y": 0.837707199,
				"z": -2.4235300417,
				"element": "C" 
			},
			{
				"x": 1.3996410464,
				"y": 0.6695712335,
				"z": -1.7797687563,
				"element": "C" 
			},
			{
				"x": 2.2257957568,
				"y": -0.4072518402,
				"z": -2.1087731066,
				"element": "C" 
			},
			{
				"x": 1.7981745231,
				"y": -1.310926415,
				"z": -3.0846513424,
				"element": "C" 
			},
			{
				"x": 0.562964718,
				"y": -1.1445591611,
				"z": -3.7207286414,
				"element": "C" 
			},
			{
				"x": -0.2678400655,
				"y": -0.0664356402,
				"z": -3.3915066683,
				"element": "C" 
			},
			{
				"x": 1.5820901827,
				"y": 1.7613706641,
				"z": -0.813072439,
				"element": "C" 
			},
			{
				"x": 0.4514442926,
				"y": 2.6002197974,
				"z": -0.8640723968,
				"element": "C" 
			},
			{
				"x": 0.3699672746,
				"y": 3.7268287375,
				"z": -0.0539760386,
				"element": "C" 
			},
			{
				"x": 1.427046853,
				"y": 4.0124169131,
				"z": 0.8181747897,
				"element": "C" 
			},
			{
				"x": 2.5475426408,
				"y": 3.1766491545,
				"z": 0.8735638224,
				"element": "C" 
			},
			{
				"x": 2.6348710352,
				"y": 2.045929982,
				"z": 0.0586020241,
				"element": "C" 
			},
			{
				"x": -0.1518983925,
				"y": -0.8616992206,
				"z": 1.8788275342,
				"element": "C" 
			},
			{
				"x": 0.5326959319,
				"y": -1.4342705918,
				"z": 0.8841151557,
				"element": "O" 
			},
			{
				"x": 0.4141506781,
				"y": -0.3377970237,
				"z": 2.8173446371,
				"element": "O" 
			},
			{
				"x": -1.9812554728,
				"y": 1.5395231699,
				"z": 5.019340234,
				"element": "H" 
			},
			{
				"x": -0.7233455687,
				"y": 0.5460016947,
				"z": 4.3164595924,
				"element": "H" 
			},
			{
				"x": -0.8251871161,
				"y": -1.7728395119,
				"z": 4.4309515091,
				"element": "H" 
			},
			{
				"x": -2.3668022901,
				"y": -2.5302589665,
				"z": 4.8692175538,
				"element": "H" 
			},
			{
				"x": -1.8824659708,
				"y": -2.9918396422,
				"z": 2.5109725739,
				"element": "H" 
			},
			{
				"x": -3.3356603976,
				"y": -1.9979153631,
				"z": 2.6849417431,
				"element": "H" 
			},
			{
				"x": -2.0684084857,
				"y": 0.0340915862,
				"z": 2.0462653498,
				"element": "H" 
			},
			{
				"x": -2.7002861608,
				"y": -2.1605477258,
				"z": 0.3620771269,
				"element": "H" 
			},
			{
				"x": -2.6352542303,
				"y": 1.4542806331,
				"z": -2.0796042908,
				"element": "H" 
			},
			{
				"x": -2.3494837372,
				"y": 2.6876336484,
				"z": -0.825020836,
				"element": "H" 
			},
			{
				"x": -0.698065435,
				"y": 2.8135739566,
				"z": -2.6862199711,
				"element": "H" 
			},
			{
				"x": 3.1825455236,
				"y": -0.5456208355,
				"z": -1.6137157865,
				"element": "H" 
			},
			{
				"x": 2.4307089917,
				"y": -2.1529363064,
				"z": -3.3513227114,
				"element": "H" 
			},
			{
				"x": 0.243840936,
				"y": -1.8581429941,
				"z": -4.4746910143,
				"element": "H" 
			},
			{
				"x": -1.2327216204,
				"y": 0.0456641924,
				"z": -3.8774281417,
				"element": "H" 
			},
			{
				"x": -0.4966528208,
				"y": 4.3827500036,
				"z": -0.0916840859,
				"element": "H" 
			},
			{
				"x": 1.3768079157,
				"y": 4.8895100239,
				"z": 1.456856921,
				"element": "H" 
			},
			{
				"x": 3.3577515633,
				"y": 3.4091913186,
				"z": 1.5585020745,
				"element": "H" 
			},
			{
				"x": 3.5064488416,
				"y": 1.3998591507,
				"z": 0.1090407148,
				"element": "H" 
			},
			{
				"x": -0.1120108977,
				"y": -1.7187103926,
				"z": 0.2082046357,
				"element": "H" 
			}
		],
		 "valence_orbital": [ 
			{
				"type": "occ",
				"energy": -0.2566,
				"method": "rhf"
			},
			{
				"type": "occ",
				"energy": -0.25362,
				"method": "rhf"
			},
			{
				"type": "occ",
				"energy": -0.24821,
				"method": "rhf"
			},
			{
				"type": "occ",
				"energy": -0.23891,
				"method": "rhf"
			},
			{
				"type": "occ",
				"energy": -0.21891,
				"method": "rhf"
			},
			{
				"type": "unocc",
				"energy": -0.03466,
				"method": "rhf"
			},
			{
				"type": "unocc",
				"energy": -0.01743,
				"method": "rhf"
			},
			{
				"type": "unocc",
				"energy": -0.00516,
				"method": "rhf"
			},
			{
				"type": "unocc",
				"energy": 0.00451,
				"method": "rhf"
			},
			{
				"type": "unocc",
				"energy": 0.0252,
				"method": "rhf"
			}
		],
		"cosmo_sigma_profile": { 
			"-0.025": 0.0,
			"-0.024": 0.0,
			"-0.023": 0.0,
			"-0.022": 0.0,
			"-0.021": 0.0,
			"-0.02": 0.0,
			"-0.019": 0.0,
			"-0.018": 0.0,
			"-0.017": 0.0,
			"-0.016": 0.0,
			"-0.015": 0.342008339405,
			"-0.014": 1.19467468866,
			"-0.013": 2.35086265026,
			"-0.012": 2.76384380184,
			"-0.011": 3.79024937704,
			"-0.01": 3.62261122786,
			"-0.009": 4.82208123556,
			"-0.008": 4.48372562297,
			"-0.007": 8.40441836406,
			"-0.006": 27.9573331278,
			"-0.005": 34.892958225,
			"-0.004": 34.4082168874,
			"-0.003": 34.0460701014,
			"-0.002": 26.1909819214,
			"-0.001": 20.110373195,
			"0.0": 17.3111267843,
			"0.001": 18.3965558575,
			"0.002": 20.4522617158,
			"0.003": 22.2477970896,
			"0.004": 22.3890176264,
			"0.005": 23.1206552279,
			"0.006": 14.3779280467,
			"0.007": 7.49948000956,
			"0.008": 5.56350188565,
			"0.009": 5.96622510408,
			"0.01": 5.20135268023,
			"0.011": 5.65812632928,
			"0.012": 7.0598685204,
			"0.013": 4.31449852085,
			"0.014": 5.99530015334,
			"0.015": 2.84723367922,
			"0.016": 0.0801089265641,
			"0.017": 0.0,
			"0.018": 0.0,
			"0.019": 0.0,
			"0.02": 0.0,
			"0.021": 0.0,
			"0.022": 0.0,
			"0.023": 0.0,
			"0.024": 0.0,
			"0.025": 0.0
		}
	}
}
