{
	 "smiles": "CCN(CC)S(=O)(=O)C1=CC=C(CCC(O)=O)C=C1", 
	 "Tm": 424.15, 
	 "num_atms": 38, 
	 "gaussian": { 
		 "optdone": 1, 
		 "sigma_profile": "yes", 
		 "theory": "DFT", 
		 "functional": "B3LYP", 
		 "basiset": "6-31G**", 
		 "properties": { 
			 "R2extent": 8334.4569, 
			 "electric_dipole_moment_norm": 6.52487017112, 
			 "electric_quadrupole_moment_norm": 18.613882891, 
			 "total_energy": -1260.62843278, 
			 "HOMO_LUMO_gap": 0.20852, 
			 "cosmo_polarized_energy": -19.72, 
			 "cosmo_cavitation_energy": 41.73, 
			 "cosmo_dispersion_energy": -28.87, 
			 "cosmo_repulsion_energy": 2.23, 
			 "cosmo_total_nonelectrostatic_energy": 15.1, 
			 "SMD_solvation_energy": 6.81 
		},
		"coords": [
			{
				"x": 0.9053323586,
				"y": 1.3906984857,
				"z": 3.1567883707,
				"element": "C" 
			},
			{
				"x": 0.9713069103,
				"y": 0.9330264668,
				"z": 1.7002271619,
				"element": "C" 
			},
			{
				"x": 2.0022854965,
				"y": -0.101338169,
				"z": 1.4678484766,
				"element": "N" 
			},
			{
				"x": 3.1340709013,
				"y": 0.2453611698,
				"z": 0.5920715203,
				"element": "C" 
			},
			{
				"x": 4.0620568079,
				"y": 1.2730577364,
				"z": 1.2414297786,
				"element": "C" 
			},
			{
				"x": 1.4885140223,
				"y": -1.702064226,
				"z": 1.5021102221,
				"element": "S" 
			},
			{
				"x": 0.5390038282,
				"y": -1.7993638403,
				"z": 2.6145058929,
				"element": "O" 
			},
			{
				"x": 2.693718897,
				"y": -2.5324084022,
				"z": 1.4322982835,
				"element": "O" 
			},
			{
				"x": 0.5532069429,
				"y": -1.9847370627,
				"z": -0.0084739816,
				"element": "C" 
			},
			{
				"x": -0.8388250002,
				"y": -1.8685731552,
				"z": 0.0098720518,
				"element": "C" 
			},
			{
				"x": -1.5522791288,
				"y": -2.0564745909,
				"z": -1.1732589473,
				"element": "C" 
			},
			{
				"x": -0.8979520628,
				"y": -2.3591145829,
				"z": -2.3757662099,
				"element": "C" 
			},
			{
				"x": -1.6922591707,
				"y": -2.5420377354,
				"z": -3.6535702076,
				"element": "C" 
			},
			{
				"x": -1.896723557,
				"y": -1.2379449038,
				"z": -4.4458121621,
				"element": "C" 
			},
			{
				"x": -0.6522716897,
				"y": -0.7760508533,
				"z": -5.175860048,
				"element": "C" 
			},
			{
				"x": -0.755802992,
				"y": 0.5159818372,
				"z": -5.5638839205,
				"element": "O" 
			},
			{
				"x": 0.3184357353,
				"y": -1.4565589824,
				"z": -5.4310446506,
				"element": "O" 
			},
			{
				"x": 0.4999851014,
				"y": -2.4838210215,
				"z": -2.3666765932,
				"element": "C" 
			},
			{
				"x": 1.2267474337,
				"y": -2.3014879463,
				"z": -1.191770091,
				"element": "C" 
			},
			{
				"x": 1.8671239493,
				"y": 1.7966383316,
				"z": 3.4836616886,
				"element": "H" 
			},
			{
				"x": 0.143467297,
				"y": 2.1696406118,
				"z": 3.2746992907,
				"element": "H" 
			},
			{
				"x": 0.6488240578,
				"y": 0.5480604818,
				"z": 3.8018964533,
				"element": "H" 
			},
			{
				"x": 1.2091551157,
				"y": 1.7757539873,
				"z": 1.041621527,
				"element": "H" 
			},
			{
				"x": -0.0098021102,
				"y": 0.5644488626,
				"z": 1.3795759979,
				"element": "H" 
			},
			{
				"x": 2.7670975166,
				"y": 0.6217738478,
				"z": -0.3759092563,
				"element": "H" 
			},
			{
				"x": 3.6932393059,
				"y": -0.6726646152,
				"z": 0.4057990658,
				"element": "H" 
			},
			{
				"x": 3.5479810893,
				"y": 2.2170619892,
				"z": 1.4482745518,
				"element": "H" 
			},
			{
				"x": 4.4614743352,
				"y": 0.885765971,
				"z": 2.1825824825,
				"element": "H" 
			},
			{
				"x": 4.8990098407,
				"y": 1.4923088164,
				"z": 0.5701436273,
				"element": "H" 
			},
			{
				"x": -1.3479957016,
				"y": -1.6691685868,
				"z": 0.9462539492,
				"element": "H" 
			},
			{
				"x": -2.6370385833,
				"y": -1.9824644227,
				"z": -1.1569995773,
				"element": "H" 
			},
			{
				"x": -1.1937428459,
				"y": -3.266946815,
				"z": -4.3035340422,
				"element": "H" 
			},
			{
				"x": -2.6789512284,
				"y": -2.9488559982,
				"z": -3.408510058,
				"element": "H" 
			},
			{
				"x": -2.25253065,
				"y": -0.4251603095,
				"z": -3.8047849579,
				"element": "H" 
			},
			{
				"x": -2.6693883264,
				"y": -1.3809633521,
				"z": -5.2130611162,
				"element": "H" 
			},
			{
				"x": 0.0584137465,
				"y": 0.7190062776,
				"z": -6.0550423385,
				"element": "H" 
			},
			{
				"x": 1.0157426892,
				"y": -2.7251949424,
				"z": -3.2903028353,
				"element": "H" 
			},
			{
				"x": 2.3032696684,
				"y": -2.433290359,
				"z": -1.1830993991,
				"element": "H" 
			}
		],
		 "valence_orbital": [ 
			{
				"type": "occ",
				"energy": -0.29328,
				"method": "rhf"
			},
			{
				"type": "occ",
				"energy": -0.28799,
				"method": "rhf"
			},
			{
				"type": "occ",
				"energy": -0.26878,
				"method": "rhf"
			},
			{
				"type": "occ",
				"energy": -0.26562,
				"method": "rhf"
			},
			{
				"type": "occ",
				"energy": -0.24227,
				"method": "rhf"
			},
			{
				"type": "unocc",
				"energy": -0.03375,
				"method": "rhf"
			},
			{
				"type": "unocc",
				"energy": -0.01919,
				"method": "rhf"
			},
			{
				"type": "unocc",
				"energy": -0.00271,
				"method": "rhf"
			},
			{
				"type": "unocc",
				"energy": 0.06309,
				"method": "rhf"
			},
			{
				"type": "unocc",
				"energy": 0.06895,
				"method": "rhf"
			}
		],
		"cosmo_sigma_profile": { 
			"-0.025": 0.0,
			"-0.024": 0.0,
			"-0.023": 0.0,
			"-0.022": 0.0,
			"-0.021": 0.0,
			"-0.02": 0.0,
			"-0.019": 0.0,
			"-0.018": 0.733560657676,
			"-0.017": 0.855886961198,
			"-0.016": 0.861163749462,
			"-0.015": 0.903332116045,
			"-0.014": 0.817838667589,
			"-0.013": 0.483999897024,
			"-0.012": 0.478343742758,
			"-0.011": 0.905496993175,
			"-0.01": 0.649379002683,
			"-0.009": 0.395410526566,
			"-0.008": 0.634985767545,
			"-0.007": 5.27031196712,
			"-0.006": 12.0144501639,
			"-0.005": 22.9459709205,
			"-0.004": 32.4100095791,
			"-0.003": 37.7962057208,
			"-0.002": 34.0249577364,
			"-0.001": 26.4178683908,
			"0.0": 26.2034030828,
			"0.001": 19.9609012963,
			"0.002": 16.0491272105,
			"0.003": 16.9532849976,
			"0.004": 9.95180963231,
			"0.005": 8.28229221007,
			"0.006": 7.51796095087,
			"0.007": 5.92853728379,
			"0.008": 5.11078546212,
			"0.009": 8.28202126771,
			"0.01": 7.58190927561,
			"0.011": 9.67577757827,
			"0.012": 7.79680831925,
			"0.013": 0.156258887569,
			"0.014": 0.0,
			"0.015": 0.0,
			"0.016": 0.0,
			"0.017": 0.0,
			"0.018": 0.0,
			"0.019": 0.0,
			"0.02": 0.0,
			"0.021": 0.0,
			"0.022": 0.0,
			"0.023": 0.0,
			"0.024": 0.0,
			"0.025": 0.0
		}
	}
}
