{
	 "smiles": "BrCC1=CC(=CC=C1)N1C=CC=C1", 
	 "Tm": 327.65, 
	 "num_atms": 23, 
	 "gaussian": { 
		 "optdone": 1, 
		 "sigma_profile": "yes", 
		 "theory": "DFT", 
		 "functional": "B3LYP", 
		 "basiset": "6-31G**", 
		 "properties": { 
			 "R2extent": 5200.5523, 
			 "electric_dipole_moment_norm": 2.24468586221, 
			 "electric_quadrupole_moment_norm": 10.3553640588, 
			 "total_energy": -3051.34442742, 
			 "HOMO_LUMO_gap": 0.1686, 
			 "cosmo_polarized_energy": -8.7, 
			 "cosmo_cavitation_energy": 29.33, 
			 "cosmo_dispersion_energy": -21.42, 
			 "cosmo_repulsion_energy": 1.69, 
			 "cosmo_total_nonelectrostatic_energy": 9.6, 
			 "SMD_solvation_energy": 4.35 
		},
		"coords": [
			{
				"x": 1.9694576814,
				"y": 3.0696634408,
				"z": 2.6739943172,
				"element": "Br" 
			},
			{
				"x": 2.1436651275,
				"y": 1.2504216289,
				"z": 1.8461225738,
				"element": "C" 
			},
			{
				"x": 1.3232614626,
				"y": 1.1149479444,
				"z": 0.6040974125,
				"element": "C" 
			},
			{
				"x": -0.0042336435,
				"y": 0.6800467411,
				"z": 0.685440589,
				"element": "C" 
			},
			{
				"x": -0.7789317028,
				"y": 0.5389210678,
				"z": -0.4707356139,
				"element": "C" 
			},
			{
				"x": -0.2149786012,
				"y": 0.8239527639,
				"z": -1.7218050211,
				"element": "C" 
			},
			{
				"x": 1.1131363822,
				"y": 1.2377960433,
				"z": -1.8039489064,
				"element": "C" 
			},
			{
				"x": 1.8814387648,
				"y": 1.3909154757,
				"z": -0.6508943781,
				"element": "C" 
			},
			{
				"x": -2.1232783979,
				"y": 0.1070495734,
				"z": -0.3762577773,
				"element": "N" 
			},
			{
				"x": -2.7773291465,
				"y": -0.708292563,
				"z": -1.2863044598,
				"element": "C" 
			},
			{
				"x": -4.0635158282,
				"y": -0.9049796895,
				"z": -0.8436525147,
				"element": "C" 
			},
			{
				"x": -4.2107936114,
				"y": -0.1803102379,
				"z": 0.3762504368,
				"element": "C" 
			},
			{
				"x": -3.0068182722,
				"y": 0.4266947264,
				"z": 0.6425662699,
				"element": "C" 
			},
			{
				"x": 3.2101572917,
				"y": 1.1422028365,
				"z": 1.658479267,
				"element": "H" 
			},
			{
				"x": 1.8319728214,
				"y": 0.5680780539,
				"z": 2.6347337154,
				"element": "H" 
			},
			{
				"x": -0.4339279533,
				"y": 0.4322827147,
				"z": 1.6508644785,
				"element": "H" 
			},
			{
				"x": -0.822534349,
				"y": 0.7424143357,
				"z": -2.6165649842,
				"element": "H" 
			},
			{
				"x": 1.5452852651,
				"y": 1.4567350442,
				"z": -2.7757356624,
				"element": "H" 
			},
			{
				"x": 2.9118757384,
				"y": 1.7272181955,
				"z": -0.7210369845,
				"element": "H" 
			},
			{
				"x": -2.2516855493,
				"y": -1.1141503465,
				"z": -2.1368307621,
				"element": "H" 
			},
			{
				"x": -4.8128617027,
				"y": -1.5101315287,
				"z": -1.3344090521,
				"element": "H" 
			},
			{
				"x": -5.102437973,
				"y": -0.1032020691,
				"z": 0.9825026054,
				"element": "H" 
			},
			{
				"x": -2.7127238041,
				"y": 1.0994258485,
				"z": 1.4334244509,
				"element": "H" 
			}
		],
		 "valence_orbital": [ 
			{
				"type": "occ",
				"energy": -0.27734,
				"method": "rhf"
			},
			{
				"type": "occ",
				"energy": -0.27182,
				"method": "rhf"
			},
			{
				"type": "occ",
				"energy": -0.25877,
				"method": "rhf"
			},
			{
				"type": "occ",
				"energy": -0.22382,
				"method": "rhf"
			},
			{
				"type": "occ",
				"energy": -0.21298,
				"method": "rhf"
			},
			{
				"type": "unocc",
				"energy": -0.04438,
				"method": "rhf"
			},
			{
				"type": "unocc",
				"energy": -0.02145,
				"method": "rhf"
			},
			{
				"type": "unocc",
				"energy": 0.0186,
				"method": "rhf"
			},
			{
				"type": "unocc",
				"energy": 0.0486,
				"method": "rhf"
			},
			{
				"type": "unocc",
				"energy": 0.07674,
				"method": "rhf"
			}
		],
		"cosmo_sigma_profile": { 
			"-0.025": 0.0,
			"-0.024": 0.0,
			"-0.023": 0.0,
			"-0.022": 0.0,
			"-0.021": 0.0,
			"-0.02": 0.0,
			"-0.019": 0.0,
			"-0.018": 0.0,
			"-0.017": 0.0,
			"-0.016": 0.0,
			"-0.015": 0.0,
			"-0.014": 0.0,
			"-0.013": 0.0,
			"-0.012": 0.0,
			"-0.011": 0.0,
			"-0.01": 0.0,
			"-0.009": 0.0,
			"-0.008": 4.20718345937,
			"-0.007": 14.4917676608,
			"-0.006": 16.2844817211,
			"-0.005": 16.8215193793,
			"-0.004": 16.8099837533,
			"-0.003": 12.6011688866,
			"-0.002": 14.7357011099,
			"-0.001": 14.2122515599,
			"0.0": 12.9011454252,
			"0.001": 15.9195763483,
			"0.002": 15.8963971838,
			"0.003": 18.1326759758,
			"0.004": 19.3719628325,
			"0.005": 13.4493113152,
			"0.006": 17.3582284387,
			"0.007": 9.60105057364,
			"0.008": 5.05895972183,
			"0.009": 0.422141296803,
			"0.01": 0.0,
			"0.011": 0.0,
			"0.012": 0.0,
			"0.013": 0.0,
			"0.014": 0.0,
			"0.015": 0.0,
			"0.016": 0.0,
			"0.017": 0.0,
			"0.018": 0.0,
			"0.019": 0.0,
			"0.02": 0.0,
			"0.021": 0.0,
			"0.022": 0.0,
			"0.023": 0.0,
			"0.024": 0.0,
			"0.025": 0.0
		}
	}
}
