{
	 "smiles": "CC(C)C1=CC=C(C=C1)C1=NC(CSC2=NN=C(N)N2)=CS1", 
	 "Tm": 430.15, 
	 "num_atms": 39, 
	 "gaussian": { 
		 "optdone": 1, 
		 "sigma_profile": "yes", 
		 "theory": "DFT", 
		 "functional": "B3LYP", 
		 "basiset": "6-31G**", 
		 "properties": { 
			 "R2extent": 15485.9797, 
			 "electric_dipole_moment_norm": 3.80613178306, 
			 "electric_quadrupole_moment_norm": 36.8608610693, 
			 "total_energy": -1651.96764018, 
			 "HOMO_LUMO_gap": 0.16166, 
			 "cosmo_polarized_energy": -23.01, 
			 "cosmo_cavitation_energy": 46.35, 
			 "cosmo_dispersion_energy": -33.87, 
			 "cosmo_repulsion_energy": 2.53, 
			 "cosmo_total_nonelectrostatic_energy": 15.02, 
			 "SMD_solvation_energy": 4.16 
		},
		"coords": [
			{
				"x": 3.0502348636,
				"y": -5.2554134864,
				"z": 0.9410053778,
				"element": "C" 
			},
			{
				"x": 2.3901766165,
				"y": -4.1519592174,
				"z": 1.7898739283,
				"element": "C" 
			},
			{
				"x": 3.4358317672,
				"y": -3.4129294665,
				"z": 2.6467521233,
				"element": "C" 
			},
			{
				"x": 1.5783618799,
				"y": -3.1901419674,
				"z": 0.9342642659,
				"element": "C" 
			},
			{
				"x": 0.1944271608,
				"y": -3.0665263799,
				"z": 1.1104772037,
				"element": "C" 
			},
			{
				"x": -0.5613357199,
				"y": -2.1909629085,
				"z": 0.3341461962,
				"element": "C" 
			},
			{
				"x": 0.0486246673,
				"y": -1.4028683541,
				"z": -0.6525729827,
				"element": "C" 
			},
			{
				"x": 1.4383960209,
				"y": -1.5211383626,
				"z": -0.8358175175,
				"element": "C" 
			},
			{
				"x": 2.1825857005,
				"y": -2.397947331,
				"z": -0.0560575484,
				"element": "C" 
			},
			{
				"x": -0.708134169,
				"y": -0.4664875041,
				"z": -1.4924728435,
				"element": "C" 
			},
			{
				"x": -0.1777857796,
				"y": 0.2650234469,
				"z": -2.437026056,
				"element": "N" 
			},
			{
				"x": -1.1146330351,
				"y": 1.0477036248,
				"z": -3.0716110911,
				"element": "C" 
			},
			{
				"x": -0.6831000477,
				"y": 1.9492345004,
				"z": -4.1843443383,
				"element": "C" 
			},
			{
				"x": -0.0929720443,
				"y": 3.6206660433,
				"z": -3.6291124418,
				"element": "S" 
			},
			{
				"x": -1.6584001591,
				"y": 4.4059441537,
				"z": -3.4297277103,
				"element": "C" 
			},
			{
				"x": -2.8409679333,
				"y": 3.9471693537,
				"z": -3.7544001072,
				"element": "N" 
			},
			{
				"x": -3.7809323427,
				"y": 4.9148526741,
				"z": -3.3971907029,
				"element": "N" 
			},
			{
				"x": -3.1218700072,
				"y": 5.9253828626,
				"z": -2.8904609598,
				"element": "C" 
			},
			{
				"x": -3.6488873836,
				"y": 7.1473397952,
				"z": -2.4884335533,
				"element": "N" 
			},
			{
				"x": -1.7724871845,
				"y": 5.6606303347,
				"z": -2.8710267707,
				"element": "N" 
			},
			{
				"x": -2.3981987617,
				"y": 0.9221196103,
				"z": -2.6105134532,
				"element": "C" 
			},
			{
				"x": -2.4544203474,
				"y": -0.2253091596,
				"z": -1.3189669331,
				"element": "S" 
			},
			{
				"x": 2.3056213877,
				"y": -5.8062603623,
				"z": 0.3581562584,
				"element": "H" 
			},
			{
				"x": 3.5798971722,
				"y": -5.9695448564,
				"z": 1.5809962195,
				"element": "H" 
			},
			{
				"x": 3.7786721376,
				"y": -4.8348936851,
				"z": 0.2391008132,
				"element": "H" 
			},
			{
				"x": 1.6876655125,
				"y": -4.6413812777,
				"z": 2.4772870214,
				"element": "H" 
			},
			{
				"x": 4.1808223693,
				"y": -2.9110626691,
				"z": 2.0196599025,
				"element": "H" 
			},
			{
				"x": 3.9683223441,
				"y": -4.1158483132,
				"z": 3.2967236268,
				"element": "H" 
			},
			{
				"x": 2.9656062207,
				"y": -2.6529308016,
				"z": 3.2783608289,
				"element": "H" 
			},
			{
				"x": -0.3018886055,
				"y": -3.6671733481,
				"z": 1.8687450024,
				"element": "H" 
			},
			{
				"x": -1.6332748715,
				"y": -2.1263103024,
				"z": 0.501018938,
				"element": "H" 
			},
			{
				"x": 1.9142334786,
				"y": -0.9134804177,
				"z": -1.5975537978,
				"element": "H" 
			},
			{
				"x": 3.2544964676,
				"y": -2.4662795284,
				"z": -0.2219059752,
				"element": "H" 
			},
			{
				"x": 0.1813102388,
				"y": 1.5262080298,
				"z": -4.699273164,
				"element": "H" 
			},
			{
				"x": -1.4874413308,
				"y": 2.129876345,
				"z": -4.8972497992,
				"element": "H" 
			},
			{
				"x": -3.4382202968,
				"y": 7.3843013229,
				"z": -1.5238567061,
				"element": "H" 
			},
			{
				"x": -4.6529521015,
				"y": 7.1455080229,
				"z": -2.6312750319,
				"element": "H" 
			},
			{
				"x": -1.0274348206,
				"y": 6.2935216835,
				"z": -2.6220671884,
				"element": "H" 
			},
			{
				"x": -3.2705490638,
				"y": 1.4646678959,
				"z": -2.9454510338,
				"element": "H" 
			}
		],
		 "valence_orbital": [ 
			{
				"type": "occ",
				"energy": -0.26309,
				"method": "rhf"
			},
			{
				"type": "occ",
				"energy": -0.25465,
				"method": "rhf"
			},
			{
				"type": "occ",
				"energy": -0.25101,
				"method": "rhf"
			},
			{
				"type": "occ",
				"energy": -0.21205,
				"method": "rhf"
			},
			{
				"type": "occ",
				"energy": -0.20849,
				"method": "rhf"
			},
			{
				"type": "unocc",
				"energy": -0.04683,
				"method": "rhf"
			},
			{
				"type": "unocc",
				"energy": -0.00495,
				"method": "rhf"
			},
			{
				"type": "unocc",
				"energy": 0.00056,
				"method": "rhf"
			},
			{
				"type": "unocc",
				"energy": 0.02531,
				"method": "rhf"
			},
			{
				"type": "unocc",
				"energy": 0.0282,
				"method": "rhf"
			}
		],
		"cosmo_sigma_profile": { 
			"-0.025": 0.0,
			"-0.024": 0.0,
			"-0.023": 0.0,
			"-0.022": 0.0,
			"-0.021": 0.0,
			"-0.02": 0.0,
			"-0.019": 0.0,
			"-0.018": 0.383138240187,
			"-0.017": 1.75499257747,
			"-0.016": 1.15258383695,
			"-0.015": 1.06685175021,
			"-0.014": 3.13123152347,
			"-0.013": 4.45528126504,
			"-0.012": 3.78770031805,
			"-0.011": 3.88644030809,
			"-0.01": 3.30726610408,
			"-0.009": 2.97692783586,
			"-0.008": 3.24159067201,
			"-0.007": 5.92044789423,
			"-0.006": 8.34442471886,
			"-0.005": 16.2356700522,
			"-0.004": 20.3659823472,
			"-0.003": 25.0967573585,
			"-0.002": 28.1798404904,
			"-0.001": 31.0730451913,
			"0.0": 31.4317832944,
			"0.001": 39.2364021893,
			"0.002": 29.6563142411,
			"0.003": 28.0998420323,
			"0.004": 20.2378222138,
			"0.005": 17.2201436063,
			"0.006": 8.29398931645,
			"0.007": 5.82107088774,
			"0.008": 5.26812618363,
			"0.009": 3.30960632194,
			"0.01": 3.28812153272,
			"0.011": 3.28356841843,
			"0.012": 2.82259945526,
			"0.013": 2.66745813114,
			"0.014": 3.21778386886,
			"0.015": 1.64834701998,
			"0.016": 1.32212088968,
			"0.017": 0.997074285966,
			"0.018": 0.0703458598474,
			"0.019": 0.0,
			"0.02": 0.0,
			"0.021": 0.0,
			"0.022": 0.0,
			"0.023": 0.0,
			"0.024": 0.0,
			"0.025": 0.0
		}
	}
}
