{
	 "smiles": "CC1=NC(C)=C(C=C1)C(O)=O", 
	 "Tm": 442.15, 
	 "num_atms": 20, 
	 "gaussian": { 
		 "optdone": 1, 
		 "sigma_profile": "yes", 
		 "theory": "DFT", 
		 "functional": "B3LYP", 
		 "basiset": "6-31G**", 
		 "properties": { 
			 "R2extent": 2096.8783, 
			 "electric_dipole_moment_norm": 4.65125076727, 
			 "electric_quadrupole_moment_norm": 6.29195473204, 
			 "total_energy": -515.491907206, 
			 "HOMO_LUMO_gap": 0.2049, 
			 "cosmo_polarized_energy": -14.7, 
			 "cosmo_cavitation_energy": 23.97, 
			 "cosmo_dispersion_energy": -17.7, 
			 "cosmo_repulsion_energy": 1.43, 
			 "cosmo_total_nonelectrostatic_energy": 7.71, 
			 "SMD_solvation_energy": 4.11 
		},
		"coords": [
			{
				"x": 1.1726349125,
				"y": 3.0712865396,
				"z": 2.222745803,
				"element": "C" 
			},
			{
				"x": 0.6320022386,
				"y": 2.0532470894,
				"z": 1.2505612436,
				"element": "C" 
			},
			{
				"x": 0.6918799583,
				"y": 2.3672389549,
				"z": -0.052205789,
				"element": "N" 
			},
			{
				"x": 0.2182658155,
				"y": 1.5162950819,
				"z": -0.9769736867,
				"element": "C" 
			},
			{
				"x": 0.318307574,
				"y": 1.9855364481,
				"z": -2.4054941567,
				"element": "C" 
			},
			{
				"x": -0.3266869943,
				"y": 0.2625047504,
				"z": -0.6133488874,
				"element": "C" 
			},
			{
				"x": -0.3877956914,
				"y": -0.0561608339,
				"z": 0.7508028896,
				"element": "C" 
			},
			{
				"x": 0.0881093538,
				"y": 0.8406831384,
				"z": 1.6955152089,
				"element": "C" 
			},
			{
				"x": -0.8697573867,
				"y": -0.6809222462,
				"z": -1.6407368984,
				"element": "C" 
			},
			{
				"x": -0.792800533,
				"y": -2.0072048804,
				"z": -1.3305355515,
				"element": "O" 
			},
			{
				"x": -1.3693099792,
				"y": -0.3428203029,
				"z": -2.6878017189,
				"element": "O" 
			},
			{
				"x": 0.3889748561,
				"y": 3.416687238,
				"z": 2.9067766289,
				"element": "H" 
			},
			{
				"x": 1.5653147376,
				"y": 3.9293537928,
				"z": 1.6759156399,
				"element": "H" 
			},
			{
				"x": 1.9730998086,
				"y": 2.6447385141,
				"z": 2.8378238921,
				"element": "H" 
			},
			{
				"x": 0.9138599768,
				"y": 2.8988378991,
				"z": -2.4317198488,
				"element": "H" 
			},
			{
				"x": 0.7680246742,
				"y": 1.2282767292,
				"z": -3.053831231,
				"element": "H" 
			},
			{
				"x": -0.6759595867,
				"y": 2.1832518314,
				"z": -2.8160549335,
				"element": "H" 
			},
			{
				"x": -0.8412377269,
				"y": -0.9895765551,
				"z": 1.0762738661,
				"element": "H" 
			},
			{
				"x": 0.0364893245,
				"y": 0.6141578253,
				"z": 2.7559918136,
				"element": "H" 
			},
			{
				"x": -0.2191153325,
				"y": -2.135411014,
				"z": -0.5625042838,
				"element": "H" 
			}
		],
		 "valence_orbital": [ 
			{
				"type": "occ",
				"energy": -0.31969,
				"method": "rhf"
			},
			{
				"type": "occ",
				"energy": -0.29867,
				"method": "rhf"
			},
			{
				"type": "occ",
				"energy": -0.27765,
				"method": "rhf"
			},
			{
				"type": "occ",
				"energy": -0.2615,
				"method": "rhf"
			},
			{
				"type": "occ",
				"energy": -0.25894,
				"method": "rhf"
			},
			{
				"type": "unocc",
				"energy": -0.05404,
				"method": "rhf"
			},
			{
				"type": "unocc",
				"energy": -0.03324,
				"method": "rhf"
			},
			{
				"type": "unocc",
				"energy": 0.03523,
				"method": "rhf"
			},
			{
				"type": "unocc",
				"energy": 0.0647,
				"method": "rhf"
			},
			{
				"type": "unocc",
				"energy": 0.10212,
				"method": "rhf"
			}
		],
		"cosmo_sigma_profile": { 
			"-0.025": 0.0,
			"-0.024": 0.0,
			"-0.023": 0.0,
			"-0.022": 0.0,
			"-0.021": 0.0,
			"-0.02": 0.0,
			"-0.019": 0.0496324130675,
			"-0.018": 0.986430857531,
			"-0.017": 1.00263887226,
			"-0.016": 0.824452108227,
			"-0.015": 1.38142334907,
			"-0.014": 0.891849806252,
			"-0.013": 0.646074697262,
			"-0.012": 1.2833276458,
			"-0.011": 1.32028312888,
			"-0.01": 1.29109641898,
			"-0.009": 1.41689788424,
			"-0.008": 2.2362621359,
			"-0.007": 3.82928766885,
			"-0.006": 5.70745646516,
			"-0.005": 11.2220632527,
			"-0.004": 14.3560439843,
			"-0.003": 15.1123855796,
			"-0.002": 14.4081778363,
			"-0.001": 17.2801459589,
			"0.0": 20.605596707,
			"0.001": 16.0819330674,
			"0.002": 9.2168539676,
			"0.003": 5.48284275026,
			"0.004": 3.78602822922,
			"0.005": 3.94025629583,
			"0.006": 4.66674012264,
			"0.007": 3.73582979568,
			"0.008": 4.00963330268,
			"0.009": 4.62342226199,
			"0.01": 5.71328522917,
			"0.011": 5.71798347399,
			"0.012": 4.3183259508,
			"0.013": 2.48964528521,
			"0.014": 0.535467455983,
			"0.015": 0.186794956354,
			"0.016": 0.0,
			"0.017": 0.0,
			"0.018": 0.0,
			"0.019": 0.0,
			"0.02": 0.0,
			"0.021": 0.0,
			"0.022": 0.0,
			"0.023": 0.0,
			"0.024": 0.0,
			"0.025": 0.0
		}
	}
}
