{
	 "smiles": "SC1=NNC(=O)N1CC=C", 
	 "Tm": 409.15, 
	 "num_atms": 17, 
	 "gaussian": { 
		 "optdone": 1, 
		 "sigma_profile": "yes", 
		 "theory": "DFT", 
		 "functional": "B3LYP", 
		 "basiset": "6-31G**", 
		 "properties": { 
			 "R2extent": 2130.7824, 
			 "electric_dipole_moment_norm": 2.45487259344, 
			 "electric_quadrupole_moment_norm": 9.78289330669, 
			 "total_energy": -832.380649667, 
			 "HOMO_LUMO_gap": 0.21726, 
			 "cosmo_polarized_energy": -13.82, 
			 "cosmo_cavitation_energy": 22.91, 
			 "cosmo_dispersion_energy": -16.94, 
			 "cosmo_repulsion_energy": 1.34, 
			 "cosmo_total_nonelectrostatic_energy": 7.31, 
			 "SMD_solvation_energy": 3.95 
		},
		"coords": [
			{
				"x": -2.325821053,
				"y": 2.451952969,
				"z": 0.2490624614,
				"element": "S" 
			},
			{
				"x": -0.9966080375,
				"y": 2.0148253866,
				"z": -0.8277211384,
				"element": "C" 
			},
			{
				"x": -0.4188942364,
				"y": 2.8762641803,
				"z": -1.6141680996,
				"element": "N" 
			},
			{
				"x": 0.4544920563,
				"y": 2.1132746058,
				"z": -2.3583658947,
				"element": "N" 
			},
			{
				"x": 0.4431417555,
				"y": 0.7723367711,
				"z": -2.0442774022,
				"element": "C" 
			},
			{
				"x": 1.081411809,
				"y": -0.1558697381,
				"z": -2.5114556129,
				"element": "O" 
			},
			{
				"x": -0.526303288,
				"y": 0.7277727265,
				"z": -1.023146007,
				"element": "N" 
			},
			{
				"x": -0.9324652737,
				"y": -0.5068562447,
				"z": -0.3798822624,
				"element": "C" 
			},
			{
				"x": -0.4286803407,
				"y": -0.6858127203,
				"z": 1.0323067664,
				"element": "C" 
			},
			{
				"x": 0.439578869,
				"y": 0.1015072152,
				"z": 1.6665766957,
				"element": "C" 
			},
			{
				"x": -1.8392995303,
				"y": 1.7978170907,
				"z": 1.3269299869,
				"element": "H" 
			},
			{
				"x": 1.0262034212,
				"y": 2.5437379044,
				"z": -3.0667601056,
				"element": "H" 
			},
			{
				"x": -2.0275405043,
				"y": -0.5721601861,
				"z": -0.3961087599,
				"element": "H" 
			},
			{
				"x": -0.54741024,
				"y": -1.3113331092,
				"z": -1.0178936102,
				"element": "H" 
			},
			{
				"x": -0.8341845945,
				"y": -1.5617797778,
				"z": 1.5376097007,
				"element": "H" 
			},
			{
				"x": 0.7545093224,
				"y": -0.1147807772,
				"z": 2.6822386893,
				"element": "H" 
			},
			{
				"x": 0.8797698652,
				"y": 0.9739037035,
				"z": 1.1920545928,
				"element": "H" 
			}
		],
		 "valence_orbital": [ 
			{
				"type": "occ",
				"energy": -0.31967,
				"method": "rhf"
			},
			{
				"type": "occ",
				"energy": -0.28092,
				"method": "rhf"
			},
			{
				"type": "occ",
				"energy": -0.27744,
				"method": "rhf"
			},
			{
				"type": "occ",
				"energy": -0.2687,
				"method": "rhf"
			},
			{
				"type": "occ",
				"energy": -0.22539,
				"method": "rhf"
			},
			{
				"type": "unocc",
				"energy": -0.00813,
				"method": "rhf"
			},
			{
				"type": "unocc",
				"energy": -0.00049,
				"method": "rhf"
			},
			{
				"type": "unocc",
				"energy": 0.02584,
				"method": "rhf"
			},
			{
				"type": "unocc",
				"energy": 0.05098,
				"method": "rhf"
			},
			{
				"type": "unocc",
				"energy": 0.05918,
				"method": "rhf"
			}
		],
		"cosmo_sigma_profile": { 
			"-0.025": 0.0,
			"-0.024": 0.0,
			"-0.023": 0.0,
			"-0.022": 0.0,
			"-0.021": 0.0,
			"-0.02": 0.0,
			"-0.019": 0.0,
			"-0.018": 0.0,
			"-0.017": 0.820310085753,
			"-0.016": 1.64372921437,
			"-0.015": 0.956926264772,
			"-0.014": 1.10007490406,
			"-0.013": 0.429872865333,
			"-0.012": 0.770911575092,
			"-0.011": 1.97627072372,
			"-0.01": 1.46353802741,
			"-0.009": 1.11902053298,
			"-0.008": 1.96127362085,
			"-0.007": 4.75940500879,
			"-0.006": 13.0379256997,
			"-0.005": 14.1817712975,
			"-0.004": 14.0627990197,
			"-0.003": 13.7702334148,
			"-0.002": 12.3354545323,
			"-0.001": 12.3110512754,
			"0.0": 11.4676614831,
			"0.001": 11.6898696986,
			"0.002": 8.50301782018,
			"0.003": 8.46044977378,
			"0.004": 7.82854911532,
			"0.005": 6.58266213537,
			"0.006": 5.14922995057,
			"0.007": 4.76205719781,
			"0.008": 3.04427917987,
			"0.009": 2.69031425808,
			"0.01": 1.52652072281,
			"0.011": 2.92808172493,
			"0.012": 3.09976948136,
			"0.013": 7.68379436471,
			"0.014": 3.1995389956,
			"0.015": 0.018747280396,
			"0.016": 0.0,
			"0.017": 0.0,
			"0.018": 0.0,
			"0.019": 0.0,
			"0.02": 0.0,
			"0.021": 0.0,
			"0.022": 0.0,
			"0.023": 0.0,
			"0.024": 0.0,
			"0.025": 0.0
		}
	}
}
