{
	 "smiles": "CCCCCCCCCCCCOC(=O)C1=CC=C(N)C=C1", 
	 "Tm": 355.15, 
	 "num_atms": 53, 
	 "gaussian": { 
		 "optdone": 1, 
		 "sigma_profile": "yes", 
		 "theory": "DFT", 
		 "functional": "B3LYP", 
		 "basiset": "6-31G**", 
		 "properties": { 
			 "R2extent": 8593.865, 
			 "electric_dipole_moment_norm": 3.6303349749, 
			 "electric_quadrupole_moment_norm": 21.1275825089, 
			 "total_energy": -947.963132802, 
			 "HOMO_LUMO_gap": 0.18298, 
			 "cosmo_polarized_energy": -13.13, 
			 "cosmo_cavitation_energy": 53.17, 
			 "cosmo_dispersion_energy": -32.7, 
			 "cosmo_repulsion_energy": 2.57, 
			 "cosmo_total_nonelectrostatic_energy": 23.03, 
			 "SMD_solvation_energy": 7.9 
		},
		"coords": [
			{
				"x": -2.3770517888,
				"y": 0.9690917412,
				"z": 3.6275242917,
				"element": "C" 
			},
			{
				"x": -1.4600009535,
				"y": 1.2648992865,
				"z": 2.4358355768,
				"element": "C" 
			},
			{
				"x": -2.1827409093,
				"y": 2.0009183825,
				"z": 1.2975590336,
				"element": "C" 
			},
			{
				"x": -1.2882810364,
				"y": 2.3841294321,
				"z": 0.1061588889,
				"element": "C" 
			},
			{
				"x": -0.7547201365,
				"y": 1.184099769,
				"z": -0.6899188302,
				"element": "C" 
			},
			{
				"x": 0.0452457897,
				"y": 1.5527041967,
				"z": -1.9518579347,
				"element": "C" 
			},
			{
				"x": 1.3294660732,
				"y": 2.3714883839,
				"z": -1.7167300423,
				"element": "C" 
			},
			{
				"x": 2.3753172697,
				"y": 1.7259278313,
				"z": -0.7910227394,
				"element": "C" 
			},
			{
				"x": 2.9970628842,
				"y": 0.4282520778,
				"z": -1.3302878762,
				"element": "C" 
			},
			{
				"x": 4.059775379,
				"y": -0.1779022927,
				"z": -0.3935318389,
				"element": "C" 
			},
			{
				"x": 3.5164195048,
				"y": -0.8240927088,
				"z": 0.8979932355,
				"element": "C" 
			},
			{
				"x": 3.1072226338,
				"y": -2.2908511059,
				"z": 0.7777211105,
				"element": "C" 
			},
			{
				"x": 2.0673102175,
				"y": -2.5333336737,
				"z": -0.1975606084,
				"element": "O" 
			},
			{
				"x": 0.7860425572,
				"y": -2.3801921012,
				"z": 0.223040524,
				"element": "C" 
			},
			{
				"x": 0.4957102542,
				"y": -1.9992450105,
				"z": 1.3456872519,
				"element": "O" 
			},
			{
				"x": -0.1970566538,
				"y": -2.7302312729,
				"z": -0.8264635196,
				"element": "C" 
			},
			{
				"x": -1.5640032075,
				"y": -2.6450492731,
				"z": -0.5167872767,
				"element": "C" 
			},
			{
				"x": -2.5297715217,
				"y": -2.9627656384,
				"z": -1.4586698378,
				"element": "C" 
			},
			{
				"x": -2.1557629365,
				"y": -3.3792376623,
				"z": -2.7526760474,
				"element": "C" 
			},
			{
				"x": -3.1158105835,
				"y": -3.7432308597,
				"z": -3.6823667384,
				"element": "N" 
			},
			{
				"x": -0.7840650569,
				"y": -3.4680348292,
				"z": -3.062847158,
				"element": "C" 
			},
			{
				"x": 0.1766460788,
				"y": -3.1508814447,
				"z": -2.1132024104,
				"element": "C" 
			},
			{
				"x": -2.7926866577,
				"y": 1.8915587239,
				"z": 4.0503501189,
				"element": "H" 
			},
			{
				"x": -1.8392105991,
				"y": 0.4481036533,
				"z": 4.4263542764,
				"element": "H" 
			},
			{
				"x": -3.2207922801,
				"y": 0.3353748249,
				"z": 3.3297339894,
				"element": "H" 
			},
			{
				"x": -0.6114057498,
				"y": 1.876907261,
				"z": 2.7733441536,
				"element": "H" 
			},
			{
				"x": -1.0303146236,
				"y": 0.3243685621,
				"z": 2.071397608,
				"element": "H" 
			},
			{
				"x": -3.0174568176,
				"y": 1.3807568015,
				"z": 0.9383962463,
				"element": "H" 
			},
			{
				"x": -2.6399746509,
				"y": 2.9137004906,
				"z": 1.7047934268,
				"element": "H" 
			},
			{
				"x": -1.8589579453,
				"y": 3.0335036976,
				"z": -0.5730266645,
				"element": "H" 
			},
			{
				"x": -0.4516970612,
				"y": 2.9940260155,
				"z": 0.4739216863,
				"element": "H" 
			},
			{
				"x": -1.6047313482,
				"y": 0.5580444283,
				"z": -0.9936506099,
				"element": "H" 
			},
			{
				"x": -0.1440118617,
				"y": 0.5489380136,
				"z": -0.0385018723,
				"element": "H" 
			},
			{
				"x": -0.6039302354,
				"y": 2.1235136175,
				"z": -2.6307227238,
				"element": "H" 
			},
			{
				"x": 0.2948789867,
				"y": 0.627395551,
				"z": -2.4863504448,
				"element": "H" 
			},
			{
				"x": 1.7947287511,
				"y": 2.5738901376,
				"z": -2.6916381777,
				"element": "H" 
			},
			{
				"x": 1.0612468845,
				"y": 3.3533873785,
				"z": -1.3066659463,
				"element": "H" 
			},
			{
				"x": 1.9268233618,
				"y": 1.5454898195,
				"z": 0.1939913921,
				"element": "H" 
			},
			{
				"x": 3.1825847685,
				"y": 2.4519961326,
				"z": -0.6203915541,
				"element": "H" 
			},
			{
				"x": 2.2199837202,
				"y": -0.3173416831,
				"z": -1.5278958618,
				"element": "H" 
			},
			{
				"x": 3.4661362876,
				"y": 0.645132308,
				"z": -2.3001581042,
				"element": "H" 
			},
			{
				"x": 4.6470233944,
				"y": -0.9256173684,
				"z": -0.9437499164,
				"element": "H" 
			},
			{
				"x": 4.7682862706,
				"y": 0.6151210531,
				"z": -0.1192627822,
				"element": "H" 
			},
			{
				"x": 4.295409889,
				"y": -0.7985643533,
				"z": 1.6719514611,
				"element": "H" 
			},
			{
				"x": 2.6732152117,
				"y": -0.2534784144,
				"z": 1.2998193972,
				"element": "H" 
			},
			{
				"x": 3.9466512027,
				"y": -2.8971258833,
				"z": 0.423941351,
				"element": "H" 
			},
			{
				"x": 2.7698323688,
				"y": -2.6688320971,
				"z": 1.746290131,
				"element": "H" 
			},
			{
				"x": -1.8491650692,
				"y": -2.3244668839,
				"z": 0.479525549,
				"element": "H" 
			},
			{
				"x": -3.5841911303,
				"y": -2.8961072026,
				"z": -1.2026258735,
				"element": "H" 
			},
			{
				"x": -2.8336753157,
				"y": -3.7361542185,
				"z": -4.6515733056,
				"element": "H" 
			},
			{
				"x": -4.0481442444,
				"y": -3.3858583164,
				"z": -3.5336912745,
				"element": "H" 
			},
			{
				"x": -0.4809795136,
				"y": -3.7937373272,
				"z": -4.0547609327,
				"element": "H" 
			},
			{
				"x": 1.2286701487,
				"y": -3.2259879498,
				"z": -2.3637417975,
				"element": "H" 
			}
		],
		 "valence_orbital": [ 
			{
				"type": "occ",
				"energy": -0.29007,
				"method": "rhf"
			},
			{
				"type": "occ",
				"energy": -0.28159,
				"method": "rhf"
			},
			{
				"type": "occ",
				"energy": -0.26268,
				"method": "rhf"
			},
			{
				"type": "occ",
				"energy": -0.2546,
				"method": "rhf"
			},
			{
				"type": "occ",
				"energy": -0.21219,
				"method": "rhf"
			},
			{
				"type": "unocc",
				"energy": -0.02921,
				"method": "rhf"
			},
			{
				"type": "unocc",
				"energy": -0.00315,
				"method": "rhf"
			},
			{
				"type": "unocc",
				"energy": 0.0645,
				"method": "rhf"
			},
			{
				"type": "unocc",
				"energy": 0.07744,
				"method": "rhf"
			},
			{
				"type": "unocc",
				"energy": 0.08255,
				"method": "rhf"
			}
		],
		"cosmo_sigma_profile": { 
			"-0.025": 0.0,
			"-0.024": 0.0,
			"-0.023": 0.0,
			"-0.022": 0.0,
			"-0.021": 0.0,
			"-0.02": 0.0,
			"-0.019": 0.0,
			"-0.018": 0.0,
			"-0.017": 0.0,
			"-0.016": 0.0,
			"-0.015": 0.0,
			"-0.014": 0.145600211394,
			"-0.013": 1.98392372184,
			"-0.012": 3.14146309389,
			"-0.011": 2.65980406416,
			"-0.01": 3.61848241485,
			"-0.009": 2.76422750141,
			"-0.008": 2.89308128183,
			"-0.007": 3.14890450606,
			"-0.006": 5.74188643729,
			"-0.005": 8.78580210261,
			"-0.004": 14.6916639947,
			"-0.003": 17.5334574608,
			"-0.002": 36.0410224104,
			"-0.001": 64.7278817244,
			"0.0": 67.4138198083,
			"0.001": 65.4525409996,
			"0.002": 40.7634141442,
			"0.003": 17.692781254,
			"0.004": 18.1830287118,
			"0.005": 13.5557359947,
			"0.006": 5.22222439454,
			"0.007": 3.18692187447,
			"0.008": 2.29728648444,
			"0.009": 1.94482751222,
			"0.01": 2.25014422566,
			"0.011": 2.32489506866,
			"0.012": 2.69360954401,
			"0.013": 1.29155934891,
			"0.014": 0.0,
			"0.015": 0.0,
			"0.016": 0.0,
			"0.017": 0.0,
			"0.018": 0.0,
			"0.019": 0.0,
			"0.02": 0.0,
			"0.021": 0.0,
			"0.022": 0.0,
			"0.023": 0.0,
			"0.024": 0.0,
			"0.025": 0.0
		}
	}
}
