{
	 "smiles": "NC1CCC2=CC=CC=C12", 
	 "Tm": 288.15, 
	 "num_atms": 21, 
	 "gaussian": { 
		 "optdone": 1, 
		 "sigma_profile": "yes", 
		 "theory": "DFT", 
		 "functional": "B3LYP", 
		 "basiset": "6-31G**", 
		 "properties": { 
			 "R2extent": 1613.4497, 
			 "electric_dipole_moment_norm": 1.55824428765, 
			 "electric_quadrupole_moment_norm": 4.22988304803, 
			 "total_energy": -404.34383676, 
			 "HOMO_LUMO_gap": 0.22945, 
			 "cosmo_polarized_energy": -6.59, 
			 "cosmo_cavitation_energy": 23.06, 
			 "cosmo_dispersion_energy": -17.31, 
			 "cosmo_repulsion_energy": 1.42, 
			 "cosmo_total_nonelectrostatic_energy": 7.17, 
			 "SMD_solvation_energy": 2.48 
		},
		"coords": [
			{
				"x": 0.5039454225,
				"y": 2.358590635,
				"z": 0.8637043768,
				"element": "N" 
			},
			{
				"x": 0.4094255517,
				"y": 1.1238119108,
				"z": 0.0870765614,
				"element": "C" 
			},
			{
				"x": 1.4018602042,
				"y": -0.0292533433,
				"z": 0.4225660794,
				"element": "C" 
			},
			{
				"x": 0.6649009641,
				"y": -1.3311545771,
				"z": 0.0248845403,
				"element": "C" 
			},
			{
				"x": -0.7937554291,
				"y": -0.9550584862,
				"z": 0.1953186158,
				"element": "C" 
			},
			{
				"x": -1.9136703287,
				"y": -1.7783396127,
				"z": 0.3005469564,
				"element": "C" 
			},
			{
				"x": -3.1750121608,
				"y": -1.1927587915,
				"z": 0.4530514744,
				"element": "C" 
			},
			{
				"x": -3.3128699033,
				"y": 0.1986905229,
				"z": 0.4972237393,
				"element": "C" 
			},
			{
				"x": -2.1903598676,
				"y": 1.025244703,
				"z": 0.3860593249,
				"element": "C" 
			},
			{
				"x": -0.9367075648,
				"y": 0.4374954897,
				"z": 0.2353938302,
				"element": "C" 
			},
			{
				"x": 1.4042325303,
				"y": 2.805029012,
				"z": 0.7059369348,
				"element": "H" 
			},
			{
				"x": 0.4528419008,
				"y": 2.1421586338,
				"z": 1.8575240499,
				"element": "H" 
			},
			{
				"x": 0.5433746748,
				"y": 1.4118068828,
				"z": -0.9673225294,
				"element": "H" 
			},
			{
				"x": 1.5742033964,
				"y": -0.0249155205,
				"z": 1.5068922736,
				"element": "H" 
			},
			{
				"x": 2.3738886686,
				"y": 0.0879230362,
				"z": -0.0673930688,
				"element": "H" 
			},
			{
				"x": 0.9624640805,
				"y": -2.1957396776,
				"z": 0.6281781645,
				"element": "H" 
			},
			{
				"x": 0.8740689282,
				"y": -1.5910636117,
				"z": -1.0226314874,
				"element": "H" 
			},
			{
				"x": -1.8120665152,
				"y": -2.8606787397,
				"z": 0.2755328495,
				"element": "H" 
			},
			{
				"x": -4.0543599757,
				"y": -1.8244795706,
				"z": 0.5451775729,
				"element": "H" 
			},
			{
				"x": -4.2985156511,
				"y": 0.638398988,
				"z": 0.623146921,
				"element": "H" 
			},
			{
				"x": -2.2797889258,
				"y": 2.1067921168,
				"z": 0.4278328205,
				"element": "H" 
			}
		],
		 "valence_orbital": [ 
			{
				"type": "occ",
				"energy": -0.32792,
				"method": "rhf"
			},
			{
				"type": "occ",
				"energy": -0.31862,
				"method": "rhf"
			},
			{
				"type": "occ",
				"energy": -0.24165,
				"method": "rhf"
			},
			{
				"type": "occ",
				"energy": -0.23368,
				"method": "rhf"
			},
			{
				"type": "occ",
				"energy": -0.2258,
				"method": "rhf"
			},
			{
				"type": "unocc",
				"energy": 0.00365,
				"method": "rhf"
			},
			{
				"type": "unocc",
				"energy": 0.00983,
				"method": "rhf"
			},
			{
				"type": "unocc",
				"energy": 0.09018,
				"method": "rhf"
			},
			{
				"type": "unocc",
				"energy": 0.11014,
				"method": "rhf"
			},
			{
				"type": "unocc",
				"energy": 0.11115,
				"method": "rhf"
			}
		],
		"cosmo_sigma_profile": { 
			"-0.025": 0.0,
			"-0.024": 0.0,
			"-0.023": 0.0,
			"-0.022": 0.0,
			"-0.021": 0.0,
			"-0.02": 0.0,
			"-0.019": 0.0,
			"-0.018": 0.0,
			"-0.017": 0.0,
			"-0.016": 0.0,
			"-0.015": 0.0,
			"-0.014": 0.0,
			"-0.013": 0.0,
			"-0.012": 0.0,
			"-0.011": 0.0,
			"-0.01": 0.68576780108,
			"-0.009": 2.45557268042,
			"-0.008": 2.60187235011,
			"-0.007": 2.06074140295,
			"-0.006": 4.20572684617,
			"-0.005": 8.10725130922,
			"-0.004": 12.3597617624,
			"-0.003": 22.6112003705,
			"-0.002": 22.317164933,
			"-0.001": 19.6002361831,
			"0.0": 15.855906258,
			"0.001": 12.3397719626,
			"0.002": 9.02280539193,
			"0.003": 8.78048366095,
			"0.004": 7.80214114026,
			"0.005": 8.11988476233,
			"0.006": 8.70308735863,
			"0.007": 6.25812914787,
			"0.008": 1.04116528319,
			"0.009": 0.640485667639,
			"0.01": 0.550512173506,
			"0.011": 1.05607544582,
			"0.012": 0.657429955868,
			"0.013": 0.621522284162,
			"0.014": 0.538257061149,
			"0.015": 0.626535889357,
			"0.016": 0.572234692504,
			"0.017": 0.494585789938,
			"0.018": 0.314845132151,
			"0.019": 0.0540465592147,
			"0.02": 0.0,
			"0.021": 0.0,
			"0.022": 0.0,
			"0.023": 0.0,
			"0.024": 0.0,
			"0.025": 0.0
		}
	}
}
