{
	 "smiles": "NC1=NC=NC2=C1N=CN2C1OC(COP(O)(O)=O)C(O)C1O", 
	 "Tm": 486.15, 
	 "num_atms": 37, 
	 "gaussian": { 
		 "optdone": 1, 
		 "sigma_profile": "yes", 
		 "theory": "DFT", 
		 "functional": "B3LYP", 
		 "basiset": "6-31G**", 
		 "properties": { 
			 "R2extent": 7154.3022, 
			 "electric_dipole_moment_norm": 1.78441374406, 
			 "electric_quadrupole_moment_norm": 11.3334571579, 
			 "total_energy": -1531.26820805, 
			 "HOMO_LUMO_gap": 0.1978, 
			 "cosmo_polarized_energy": -27.63, 
			 "cosmo_cavitation_energy": 40.28, 
			 "cosmo_dispersion_energy": -28.99, 
			 "cosmo_repulsion_energy": 2.14, 
			 "cosmo_total_nonelectrostatic_energy": 13.43, 
			 "SMD_solvation_energy": 5.68 
		},
		"coords": [
			{
				"x": 2.4929480274,
				"y": 1.9216783313,
				"z": -2.5601376583,
				"element": "N" 
			},
			{
				"x": 2.5979909855,
				"y": 0.985693036,
				"z": -1.593987245,
				"element": "C" 
			},
			{
				"x": 3.6499805321,
				"y": 1.0419669739,
				"z": -0.7529359212,
				"element": "N" 
			},
			{
				"x": 3.7484824949,
				"y": 0.1148760955,
				"z": 0.2031899331,
				"element": "C" 
			},
			{
				"x": 2.9255752606,
				"y": -0.9126768249,
				"z": 0.4487589282,
				"element": "N" 
			},
			{
				"x": 1.8883281588,
				"y": -0.9624881911,
				"z": -0.4032858619,
				"element": "C" 
			},
			{
				"x": 1.6530058237,
				"y": -0.0507670474,
				"z": -1.4349450449,
				"element": "C" 
			},
			{
				"x": 0.4800163218,
				"y": -0.3555113651,
				"z": -2.1032967441,
				"element": "N" 
			},
			{
				"x": 0.0382672332,
				"y": -1.4381999845,
				"z": -1.4959214936,
				"element": "C" 
			},
			{
				"x": 0.8338863159,
				"y": -1.8589912768,
				"z": -0.4531101151,
				"element": "N" 
			},
			{
				"x": 0.441940374,
				"y": -3.0177348224,
				"z": 0.4100156369,
				"element": "C" 
			},
			{
				"x": -0.9631449424,
				"y": -3.0311687489,
				"z": 0.4957854166,
				"element": "O" 
			},
			{
				"x": -1.4069893504,
				"y": -2.3563562229,
				"z": 1.7122054764,
				"element": "C" 
			},
			{
				"x": -2.4400845495,
				"y": -1.2949099012,
				"z": 1.3815624108,
				"element": "C" 
			},
			{
				"x": -1.847606963,
				"y": -0.2033403581,
				"z": 0.6488749477,
				"element": "O" 
			},
			{
				"x": -2.6745892788,
				"y": 0.436421049,
				"z": -0.5867878116,
				"element": "P" 
			},
			{
				"x": -1.5886141373,
				"y": 1.3850964102,
				"z": -1.2628562061,
				"element": "O" 
			},
			{
				"x": -3.6490754791,
				"y": 1.4897710231,
				"z": 0.1517476395,
				"element": "O" 
			},
			{
				"x": -3.3641623921,
				"y": -0.5508529639,
				"z": -1.4523463861,
				"element": "O" 
			},
			{
				"x": -0.1289069285,
				"y": -1.9178172221,
				"z": 2.4331065148,
				"element": "C" 
			},
			{
				"x": -0.3042396333,
				"y": -2.00151167,
				"z": 3.8314643025,
				"element": "O" 
			},
			{
				"x": 0.8824799527,
				"y": -2.9447569003,
				"z": 1.8902835647,
				"element": "C" 
			},
			{
				"x": 2.2114224123,
				"y": -2.7738330889,
				"z": 2.2589916701,
				"element": "O" 
			},
			{
				"x": 3.1775426965,
				"y": 2.6596167148,
				"z": -2.5974657474,
				"element": "H" 
			},
			{
				"x": 1.7090369209,
				"y": 1.9233982982,
				"z": -3.1912555876,
				"element": "H" 
			},
			{
				"x": 4.6046649905,
				"y": 0.2053101904,
				"z": 0.8672875041,
				"element": "H" 
			},
			{
				"x": -0.8937585861,
				"y": -1.9354452993,
				"z": -1.7221713457,
				"element": "H" 
			},
			{
				"x": 0.7661619684,
				"y": -3.93125765,
				"z": -0.0943782859,
				"element": "H" 
			},
			{
				"x": -1.9054963986,
				"y": -3.1035244172,
				"z": 2.343710382,
				"element": "H" 
			},
			{
				"x": -2.8540245046,
				"y": -0.9024974515,
				"z": 2.3169624989,
				"element": "H" 
			},
			{
				"x": -3.2409033678,
				"y": -1.7478547467,
				"z": 0.7893440578,
				"element": "H" 
			},
			{
				"x": -0.917317566,
				"y": 0.8674429865,
				"z": -1.7706211957,
				"element": "H" 
			},
			{
				"x": -4.4594174271,
				"y": 1.6069211675,
				"z": -0.3638259485,
				"element": "H" 
			},
			{
				"x": 0.1640522378,
				"y": -0.9017165472,
				"z": 2.1295186739,
				"element": "H" 
			},
			{
				"x": 0.5801164632,
				"y": -1.9378167071,
				"z": 4.2208023962,
				"element": "H" 
			},
			{
				"x": 0.5729453232,
				"y": -3.9164585067,
				"z": 2.2994649779,
				"element": "H" 
			},
			{
				"x": 2.6175870113,
				"y": -2.0413043623,
				"z": 1.7317516666,
				"element": "H" 
			}
		],
		 "valence_orbital": [ 
			{
				"type": "occ",
				"energy": -0.28836,
				"method": "rhf"
			},
			{
				"type": "occ",
				"energy": -0.28164,
				"method": "rhf"
			},
			{
				"type": "occ",
				"energy": -0.27172,
				"method": "rhf"
			},
			{
				"type": "occ",
				"energy": -0.25724,
				"method": "rhf"
			},
			{
				"type": "occ",
				"energy": -0.23958,
				"method": "rhf"
			},
			{
				"type": "unocc",
				"energy": -0.04178,
				"method": "rhf"
			},
			{
				"type": "unocc",
				"energy": -0.01504,
				"method": "rhf"
			},
			{
				"type": "unocc",
				"energy": 0.01085,
				"method": "rhf"
			},
			{
				"type": "unocc",
				"energy": 0.04669,
				"method": "rhf"
			},
			{
				"type": "unocc",
				"energy": 0.06212,
				"method": "rhf"
			}
		],
		"cosmo_sigma_profile": { 
			"-0.025": 0.0,
			"-0.024": 0.0,
			"-0.023": 0.0,
			"-0.022": 0.0,
			"-0.021": 0.0,
			"-0.02": 0.275819838941,
			"-0.019": 1.05354061425,
			"-0.018": 0.906358865657,
			"-0.017": 1.34063300943,
			"-0.016": 0.361331845647,
			"-0.015": 2.01291628883,
			"-0.014": 3.71955603087,
			"-0.013": 3.25249325107,
			"-0.012": 3.25844445676,
			"-0.011": 3.48326482187,
			"-0.01": 4.19283978654,
			"-0.009": 3.96324770374,
			"-0.008": 8.19122041491,
			"-0.007": 16.2779090702,
			"-0.006": 18.2156997776,
			"-0.005": 16.6339954368,
			"-0.004": 15.413384573,
			"-0.003": 14.2367758213,
			"-0.002": 18.6562946016,
			"-0.001": 22.1868044478,
			"0.0": 19.627449689,
			"0.001": 15.4355217216,
			"0.002": 15.2904925541,
			"0.003": 13.2325642298,
			"0.004": 11.6467109844,
			"0.005": 10.842536229,
			"0.006": 9.8042243023,
			"0.007": 9.93218392381,
			"0.008": 9.01944160032,
			"0.009": 8.03691174035,
			"0.01": 8.72780833746,
			"0.011": 6.24357393897,
			"0.012": 6.07537039993,
			"0.013": 5.28392719298,
			"0.014": 7.05350548807,
			"0.015": 1.77541740322,
			"0.016": 0.0,
			"0.017": 0.0,
			"0.018": 0.0,
			"0.019": 0.0,
			"0.02": 0.0,
			"0.021": 0.0,
			"0.022": 0.0,
			"0.023": 0.0,
			"0.024": 0.0,
			"0.025": 0.0
		}
	}
}
