{
	 "smiles": "CC(CC(O)=O)C1=CC=C(F)C=C1", 
	 "Tm": 338.15, 
	 "num_atms": 24, 
	 "gaussian": { 
		 "optdone": 1, 
		 "sigma_profile": "yes", 
		 "theory": "DFT", 
		 "functional": "B3LYP", 
		 "basiset": "6-31G**", 
		 "properties": { 
			 "R2extent": 3037.9509, 
			 "electric_dipole_moment_norm": 2.79097723566, 
			 "electric_quadrupole_moment_norm": 10.6827907538, 
			 "total_energy": -637.99670935, 
			 "HOMO_LUMO_gap": 0.22808, 
			 "cosmo_polarized_energy": -10.73, 
			 "cosmo_cavitation_energy": 27.95, 
			 "cosmo_dispersion_energy": -19.59, 
			 "cosmo_repulsion_energy": 1.54, 
			 "cosmo_total_nonelectrostatic_energy": 9.9, 
			 "SMD_solvation_energy": 6.23 
		},
		"coords": [
			{
				"x": 0.0528447815,
				"y": 0.7826668726,
				"z": 1.9306259823,
				"element": "C" 
			},
			{
				"x": 0.8007233687,
				"y": -0.3938592796,
				"z": 1.2795482191,
				"element": "C" 
			},
			{
				"x": 0.2699707745,
				"y": -1.7774915764,
				"z": 1.7772468203,
				"element": "C" 
			},
			{
				"x": -1.2238542106,
				"y": -1.9691564216,
				"z": 1.6313038739,
				"element": "C" 
			},
			{
				"x": -1.8853422538,
				"y": -1.6704451895,
				"z": 2.7795172907,
				"element": "O" 
			},
			{
				"x": -1.8055581318,
				"y": -2.329070736,
				"z": 0.6304277555,
				"element": "O" 
			},
			{
				"x": 0.8767012955,
				"y": -0.28299178,
				"z": -0.2385680394,
				"element": "C" 
			},
			{
				"x": -0.2613104934,
				"y": -0.1049380429,
				"z": -1.0404771671,
				"element": "C" 
			},
			{
				"x": -0.159388974,
				"y": 0.0002134641,
				"z": -2.426846684,
				"element": "C" 
			},
			{
				"x": 1.0974926672,
				"y": -0.0726372398,
				"z": -3.0159491268,
				"element": "C" 
			},
			{
				"x": 1.2014407781,
				"y": 0.0323587793,
				"z": -4.3584436106,
				"element": "F" 
			},
			{
				"x": 2.248827828,
				"y": -0.2481003503,
				"z": -2.2598042954,
				"element": "C" 
			},
			{
				"x": 2.124594952,
				"y": -0.3511856687,
				"z": -0.8737107433,
				"element": "C" 
			},
			{
				"x": 0.0589851783,
				"y": 0.6938964114,
				"z": 3.021661542,
				"element": "H" 
			},
			{
				"x": -0.9931451503,
				"y": 0.8300062862,
				"z": 1.6126147092,
				"element": "H" 
			},
			{
				"x": 0.5254598956,
				"y": 1.7307274004,
				"z": 1.6582293487,
				"element": "H" 
			},
			{
				"x": 1.8355141436,
				"y": -0.3572526303,
				"z": 1.6416070567,
				"element": "H" 
			},
			{
				"x": 0.5283940914,
				"y": -1.887656514,
				"z": 2.8341882994,
				"element": "H" 
			},
			{
				"x": 0.7594866556,
				"y": -2.572857101,
				"z": 1.2096991054,
				"element": "H" 
			},
			{
				"x": -2.8291950084,
				"y": -1.8048894242,
				"z": 2.587150717,
				"element": "H" 
			},
			{
				"x": -1.2457399069,
				"y": -0.0626754508,
				"z": -0.5888032479,
				"element": "H" 
			},
			{
				"x": -1.0364753321,
				"y": 0.1333580123,
				"z": -3.0509426843,
				"element": "H" 
			},
			{
				"x": 3.2142908114,
				"y": -0.2976509577,
				"z": -2.7517122321,
				"element": "H" 
			},
			{
				"x": 3.0219822398,
				"y": -0.4846688637,
				"z": -0.2742628893,
				"element": "H" 
			}
		],
		 "valence_orbital": [ 
			{
				"type": "occ",
				"energy": -0.33585,
				"method": "rhf"
			},
			{
				"type": "occ",
				"energy": -0.31749,
				"method": "rhf"
			},
			{
				"type": "occ",
				"energy": -0.2753,
				"method": "rhf"
			},
			{
				"type": "occ",
				"energy": -0.25513,
				"method": "rhf"
			},
			{
				"type": "occ",
				"energy": -0.23512,
				"method": "rhf"
			},
			{
				"type": "unocc",
				"energy": -0.00704,
				"method": "rhf"
			},
			{
				"type": "unocc",
				"energy": -0.0026,
				"method": "rhf"
			},
			{
				"type": "unocc",
				"energy": 0.00831,
				"method": "rhf"
			},
			{
				"type": "unocc",
				"energy": 0.07233,
				"method": "rhf"
			},
			{
				"type": "unocc",
				"energy": 0.08578,
				"method": "rhf"
			}
		],
		"cosmo_sigma_profile": { 
			"-0.025": 0.0,
			"-0.024": 0.0,
			"-0.023": 0.0,
			"-0.022": 0.0,
			"-0.021": 0.0,
			"-0.02": 0.0,
			"-0.019": 0.0,
			"-0.018": 0.374299381601,
			"-0.017": 0.992829944752,
			"-0.016": 0.853756206435,
			"-0.015": 0.464104173178,
			"-0.014": 1.12070640303,
			"-0.013": 0.95080243104,
			"-0.012": 0.498074780613,
			"-0.011": 0.45391804555,
			"-0.01": 1.11563188215,
			"-0.009": 0.383093570137,
			"-0.008": 0.460493203411,
			"-0.007": 3.01570714333,
			"-0.006": 9.9252941266,
			"-0.005": 14.7655524553,
			"-0.004": 20.7016419137,
			"-0.003": 18.8162942347,
			"-0.002": 16.4930672443,
			"-0.001": 14.892283111,
			"0.0": 14.086491325,
			"0.001": 17.5704382407,
			"0.002": 14.1001086005,
			"0.003": 13.1623263786,
			"0.004": 18.0054958405,
			"0.005": 14.1612346101,
			"0.006": 3.75240927271,
			"0.007": 2.97577768583,
			"0.008": 2.8282358285,
			"0.009": 2.75394860925,
			"0.01": 2.97794697426,
			"0.011": 2.84900560283,
			"0.012": 4.41657180147,
			"0.013": 0.789358582951,
			"0.014": 0.0,
			"0.015": 0.0,
			"0.016": 0.0,
			"0.017": 0.0,
			"0.018": 0.0,
			"0.019": 0.0,
			"0.02": 0.0,
			"0.021": 0.0,
			"0.022": 0.0,
			"0.023": 0.0,
			"0.024": 0.0,
			"0.025": 0.0
		}
	}
}
