{
	 "smiles": "COC1=CC=C(C=O)C(O)=C1", 
	 "Tm": 315.15, 
	 "num_atms": 19, 
	 "gaussian": { 
		 "optdone": 1, 
		 "sigma_profile": "yes", 
		 "theory": "DFT", 
		 "functional": "B3LYP", 
		 "basiset": "6-31G**", 
		 "properties": { 
			 "R2extent": 2447.804, 
			 "electric_dipole_moment_norm": 3.92704059185, 
			 "electric_quadrupole_moment_norm": 8.3193519387, 
			 "total_energy": -535.319264046, 
			 "HOMO_LUMO_gap": 0.1756, 
			 "cosmo_polarized_energy": -12.96, 
			 "cosmo_cavitation_energy": 23.35, 
			 "cosmo_dispersion_energy": -17.41, 
			 "cosmo_repulsion_energy": 1.39, 
			 "cosmo_total_nonelectrostatic_energy": 7.32, 
			 "SMD_solvation_energy": 6.22 
		},
		"coords": [
			{
				"x": 1.4281859864,
				"y": 0.4084089428,
				"z": 2.3219470581,
				"element": "C" 
			},
			{
				"x": 0.2619999012,
				"y": 0.6088256709,
				"z": 1.5321084366,
				"element": "O" 
			},
			{
				"x": 0.1495371603,
				"y": -0.0551025109,
				"z": 0.3565448217,
				"element": "C" 
			},
			{
				"x": -1.0362255197,
				"y": 0.1952366241,
				"z": -0.3695475996,
				"element": "C" 
			},
			{
				"x": -1.2309719298,
				"y": -0.4388712566,
				"z": -1.575640699,
				"element": "C" 
			},
			{
				"x": -0.2778918561,
				"y": -1.335280198,
				"z": -2.1109995071,
				"element": "C" 
			},
			{
				"x": -0.5521181616,
				"y": -1.9725587708,
				"z": -3.3987921104,
				"element": "C" 
			},
			{
				"x": -1.5542828801,
				"y": -1.7979619386,
				"z": -4.07213802,
				"element": "O" 
			},
			{
				"x": 0.9006892029,
				"y": -1.5717826396,
				"z": -1.3691861599,
				"element": "C" 
			},
			{
				"x": 1.8973417689,
				"y": -2.4087375094,
				"z": -1.7670958775,
				"element": "O" 
			},
			{
				"x": 1.1124820732,
				"y": -0.9339087624,
				"z": -0.1409043806,
				"element": "C" 
			},
			{
				"x": 1.5293335743,
				"y": -0.639765789,
				"z": 2.6280780706,
				"element": "H" 
			},
			{
				"x": 2.3332527932,
				"y": 0.7179925891,
				"z": 1.7856296051,
				"element": "H" 
			},
			{
				"x": 1.3005158376,
				"y": 1.0329966173,
				"z": 3.2067251236,
				"element": "H" 
			},
			{
				"x": -1.7646573984,
				"y": 0.8832556053,
				"z": 0.044344608,
				"element": "H" 
			},
			{
				"x": -2.130505946,
				"y": -0.2688091412,
				"z": -2.1584812925,
				"element": "H" 
			},
			{
				"x": 0.2326012579,
				"y": -2.6729233311,
				"z": -3.7797077011,
				"element": "H" 
			},
			{
				"x": 1.6809717044,
				"y": -2.8103358597,
				"z": -2.6183391566,
				"element": "H" 
			},
			{
				"x": 2.0317424316,
				"y": -1.1492783422,
				"z": 0.3878547806,
				"element": "H" 
			}
		],
		 "valence_orbital": [ 
			{
				"type": "occ",
				"energy": -0.34598,
				"method": "rhf"
			},
			{
				"type": "occ",
				"energy": -0.31302,
				"method": "rhf"
			},
			{
				"type": "occ",
				"energy": -0.25264,
				"method": "rhf"
			},
			{
				"type": "occ",
				"energy": -0.24843,
				"method": "rhf"
			},
			{
				"type": "occ",
				"energy": -0.22936,
				"method": "rhf"
			},
			{
				"type": "unocc",
				"energy": -0.05376,
				"method": "rhf"
			},
			{
				"type": "unocc",
				"energy": -0.00235,
				"method": "rhf"
			},
			{
				"type": "unocc",
				"energy": 0.04783,
				"method": "rhf"
			},
			{
				"type": "unocc",
				"energy": 0.04904,
				"method": "rhf"
			},
			{
				"type": "unocc",
				"energy": 0.09136,
				"method": "rhf"
			}
		],
		"cosmo_sigma_profile": { 
			"-0.025": 0.0,
			"-0.024": 0.0,
			"-0.023": 0.0,
			"-0.022": 0.0,
			"-0.021": 0.0,
			"-0.02": 0.0,
			"-0.019": 0.0,
			"-0.018": 0.836990503409,
			"-0.017": 1.11956072178,
			"-0.016": 1.40657326676,
			"-0.015": 0.753305438487,
			"-0.014": 0.530849976727,
			"-0.013": 1.42426947769,
			"-0.012": 1.2722988889,
			"-0.011": 1.13985480658,
			"-0.01": 1.09136186293,
			"-0.009": 1.10268897833,
			"-0.008": 1.56549484965,
			"-0.007": 3.9200612279,
			"-0.006": 13.5940725336,
			"-0.005": 13.7333489124,
			"-0.004": 14.6661224694,
			"-0.003": 11.9972327726,
			"-0.002": 8.83873364293,
			"-0.001": 7.66213654473,
			"0.0": 8.95288096101,
			"0.001": 11.2311520417,
			"0.002": 16.6567388914,
			"0.003": 16.7789608152,
			"0.004": 10.1729537205,
			"0.005": 3.96104277846,
			"0.006": 4.41195591502,
			"0.007": 4.92946625989,
			"0.008": 4.03310946835,
			"0.009": 4.38940930962,
			"0.01": 4.57175700277,
			"0.011": 3.01560180304,
			"0.012": 4.65643651631,
			"0.013": 1.77307871181,
			"0.014": 0.275148970068,
			"0.015": 0.0,
			"0.016": 0.0,
			"0.017": 0.0,
			"0.018": 0.0,
			"0.019": 0.0,
			"0.02": 0.0,
			"0.021": 0.0,
			"0.022": 0.0,
			"0.023": 0.0,
			"0.024": 0.0,
			"0.025": 0.0
		}
	}
}
