{
	 "smiles": "FC1=CC=C(C=C1)C(=O)CCCN1CCC(CC1)N1C(=S)NC2=C1C=CC=C2", 
	 "Tm": 475.15, 
	 "num_atms": 52, 
	 "gaussian": { 
		 "optdone": 1, 
		 "sigma_profile": "yes", 
		 "theory": "DFT", 
		 "functional": "B3LYP", 
		 "basiset": "6-31G**", 
		 "properties": { 
			 "R2extent": 18018.6919, 
			 "electric_dipole_moment_norm": 2.61148588547, 
			 "electric_quadrupole_moment_norm": 31.5720593239, 
			 "total_energy": -1590.3310647, 
			 "HOMO_LUMO_gap": 0.1382, 
			 "cosmo_polarized_energy": -22.26, 
			 "cosmo_cavitation_energy": 55.11, 
			 "cosmo_dispersion_energy": -37.74, 
			 "cosmo_repulsion_energy": 2.76, 
			 "cosmo_total_nonelectrostatic_energy": 20.14, 
			 "SMD_solvation_energy": 5.51 
		},
		"coords": [
			{
				"x": -5.184393402,
				"y": 7.0670997027,
				"z": 2.3275909459,
				"element": "F" 
			},
			{
				"x": -4.6126829958,
				"y": 5.8488304057,
				"z": 2.3287545038,
				"element": "C" 
			},
			{
				"x": -4.8038628576,
				"y": 5.0137331998,
				"z": 1.2303705585,
				"element": "C" 
			},
			{
				"x": -4.2103641174,
				"y": 3.7574922962,
				"z": 1.2416343746,
				"element": "C" 
			},
			{
				"x": -3.43169439,
				"y": 3.3347190933,
				"z": 2.3326854594,
				"element": "C" 
			},
			{
				"x": -3.2599304026,
				"y": 4.2040778211,
				"z": 3.4219796353,
				"element": "C" 
			},
			{
				"x": -3.8503705639,
				"y": 5.4659236266,
				"z": 3.4275859796,
				"element": "C" 
			},
			{
				"x": -2.8267683653,
				"y": 1.9658833679,
				"z": 2.2751659813,
				"element": "C" 
			},
			{
				"x": -3.0477569685,
				"y": 1.2339907764,
				"z": 1.3191714851,
				"element": "O" 
			},
			{
				"x": -1.9502552551,
				"y": 1.4963199647,
				"z": 3.4364565357,
				"element": "C" 
			},
			{
				"x": -1.3171322938,
				"y": 0.1213116084,
				"z": 3.2017302141,
				"element": "C" 
			},
			{
				"x": -0.1361176419,
				"y": 0.1761736194,
				"z": 2.221121615,
				"element": "C" 
			},
			{
				"x": 0.3412096966,
				"y": -1.1642477012,
				"z": 1.8624211244,
				"element": "N" 
			},
			{
				"x": 1.7607244707,
				"y": -1.2616155943,
				"z": 1.4800383112,
				"element": "C" 
			},
			{
				"x": 2.0185151211,
				"y": -1.3651532014,
				"z": -0.0496728785,
				"element": "C" 
			},
			{
				"x": 0.9168093279,
				"y": -0.6221676519,
				"z": -0.819969306,
				"element": "C" 
			},
			{
				"x": -0.4825740174,
				"y": -1.2118823179,
				"z": -0.5222820473,
				"element": "C" 
			},
			{
				"x": -0.5052653967,
				"y": -1.8546728268,
				"z": 0.8889621333,
				"element": "C" 
			},
			{
				"x": 1.1939059234,
				"y": -0.5381391049,
				"z": -2.2606330997,
				"element": "N" 
			},
			{
				"x": 1.4340318475,
				"y": 0.6602236179,
				"z": -2.9112308132,
				"element": "C" 
			},
			{
				"x": 1.4719588031,
				"y": 2.2112052105,
				"z": -2.2821991575,
				"element": "S" 
			},
			{
				"x": 1.6500573627,
				"y": 0.3303259228,
				"z": -4.227958093,
				"element": "N" 
			},
			{
				"x": 1.5616993521,
				"y": -1.0366622057,
				"z": -4.4316041434,
				"element": "C" 
			},
			{
				"x": 1.2716921927,
				"y": -1.5977459417,
				"z": -3.1712705555,
				"element": "C" 
			},
			{
				"x": 1.123684308,
				"y": -2.9786363494,
				"z": -3.0331961727,
				"element": "C" 
			},
			{
				"x": 1.2694772825,
				"y": -3.7674273516,
				"z": -4.178801194,
				"element": "C" 
			},
			{
				"x": 1.5556859742,
				"y": -3.2004280649,
				"z": -5.4270558112,
				"element": "C" 
			},
			{
				"x": 1.7075152774,
				"y": -1.8188261805,
				"z": -5.5724423811,
				"element": "C" 
			},
			{
				"x": -5.4048739051,
				"y": 5.3567976785,
				"z": 0.395261084,
				"element": "H" 
			},
			{
				"x": -4.3334210587,
				"y": 3.0754710867,
				"z": 0.4074116798,
				"element": "H" 
			},
			{
				"x": -2.6651490358,
				"y": 3.9034599363,
				"z": 4.2777234661,
				"element": "H" 
			},
			{
				"x": -3.7295593466,
				"y": 6.1501885019,
				"z": 4.2601305766,
				"element": "H" 
			},
			{
				"x": -1.1809521993,
				"y": 2.2559340673,
				"z": 3.6319234538,
				"element": "H" 
			},
			{
				"x": -2.579401291,
				"y": 1.4787026237,
				"z": 4.3371264263,
				"element": "H" 
			},
			{
				"x": -0.9685593798,
				"y": -0.2972012819,
				"z": 4.1517627875,
				"element": "H" 
			},
			{
				"x": -2.0904479039,
				"y": -0.5499337643,
				"z": 2.8181266609,
				"element": "H" 
			},
			{
				"x": -0.4240452501,
				"y": 0.7815745003,
				"z": 1.3460755709,
				"element": "H" 
			},
			{
				"x": 0.6912881422,
				"y": 0.7059630748,
				"z": 2.7070458931,
				"element": "H" 
			},
			{
				"x": 2.2828004758,
				"y": -0.3865861655,
				"z": 1.8788690158,
				"element": "H" 
			},
			{
				"x": 2.2057582272,
				"y": -2.141390933,
				"z": 1.9665395894,
				"element": "H" 
			},
			{
				"x": 2.050491182,
				"y": -2.4169668128,
				"z": -0.3545652849,
				"element": "H" 
			},
			{
				"x": 2.9963835758,
				"y": -0.9381149122,
				"z": -0.2945551795,
				"element": "H" 
			},
			{
				"x": 0.9344511895,
				"y": 0.4223823531,
				"z": -0.4985654711,
				"element": "H" 
			},
			{
				"x": -0.7564454647,
				"y": -1.9659570911,
				"z": -1.2675103796,
				"element": "H" 
			},
			{
				"x": -1.2299172456,
				"y": -0.4159834942,
				"z": -0.5950301519,
				"element": "H" 
			},
			{
				"x": -1.5337110785,
				"y": -1.8987601471,
				"z": 1.2570927943,
				"element": "H" 
			},
			{
				"x": -0.1554739247,
				"y": -2.8935371524,
				"z": 0.8311599328,
				"element": "H" 
			},
			{
				"x": 1.8479502699,
				"y": 1.0401965337,
				"z": -4.9154687966,
				"element": "H" 
			},
			{
				"x": 0.9042806582,
				"y": -3.4351161943,
				"z": -2.0761377213,
				"element": "H" 
			},
			{
				"x": 1.1579643573,
				"y": -4.8438192688,
				"z": -4.0938456654,
				"element": "H" 
			},
			{
				"x": 1.662675809,
				"y": -3.8418073553,
				"z": -6.2961161411,
				"element": "H" 
			},
			{
				"x": 1.931114925,
				"y": -1.3726015247,
				"z": -6.5362073443,
				"element": "H" 
			}
		],
		 "valence_orbital": [ 
			{
				"type": "occ",
				"energy": -0.25206,
				"method": "rhf"
			},
			{
				"type": "occ",
				"energy": -0.24294,
				"method": "rhf"
			},
			{
				"type": "occ",
				"energy": -0.20588,
				"method": "rhf"
			},
			{
				"type": "occ",
				"energy": -0.1999,
				"method": "rhf"
			},
			{
				"type": "occ",
				"energy": -0.19385,
				"method": "rhf"
			},
			{
				"type": "unocc",
				"energy": -0.05565,
				"method": "rhf"
			},
			{
				"type": "unocc",
				"energy": -0.02556,
				"method": "rhf"
			},
			{
				"type": "unocc",
				"energy": -0.01903,
				"method": "rhf"
			},
			{
				"type": "unocc",
				"energy": 0.00585,
				"method": "rhf"
			},
			{
				"type": "unocc",
				"energy": 0.02606,
				"method": "rhf"
			}
		],
		"cosmo_sigma_profile": { 
			"-0.025": 0.0,
			"-0.024": 0.0,
			"-0.023": 0.0,
			"-0.022": 0.0,
			"-0.021": 0.0,
			"-0.02": 0.0,
			"-0.019": 0.0,
			"-0.018": 0.0,
			"-0.017": 0.308575122481,
			"-0.016": 1.41982898022,
			"-0.015": 0.961918591882,
			"-0.014": 1.29683077914,
			"-0.013": 1.18425687631,
			"-0.012": 0.771064481313,
			"-0.011": 0.798081171705,
			"-0.01": 0.871181223335,
			"-0.009": 1.33807301558,
			"-0.008": 3.7911313965,
			"-0.007": 11.9559248808,
			"-0.006": 19.2726166976,
			"-0.005": 25.1959223306,
			"-0.004": 31.2935921524,
			"-0.003": 37.5348239164,
			"-0.002": 38.822233926,
			"-0.001": 44.5375393583,
			"0.0": 39.9674038621,
			"0.001": 29.4813466935,
			"0.002": 28.738946834,
			"0.003": 27.4122232495,
			"0.004": 25.5863927308,
			"0.005": 14.5229897942,
			"0.006": 6.95207331544,
			"0.007": 5.92508239782,
			"0.008": 6.39265283417,
			"0.009": 6.86319926939,
			"0.01": 8.83740526911,
			"0.011": 10.429948649,
			"0.012": 5.11516052779,
			"0.013": 0.403120104634,
			"0.014": 0.401105246049,
			"0.015": 0.753390910793,
			"0.016": 0.0592900232797,
			"0.017": 0.0,
			"0.018": 0.0,
			"0.019": 0.0,
			"0.02": 0.0,
			"0.021": 0.0,
			"0.022": 0.0,
			"0.023": 0.0,
			"0.024": 0.0,
			"0.025": 0.0
		}
	}
}
