{
	 "smiles": "OC(=O)C(=CC1=CC=CC=C1)C1=CC=CC=C1", 
	 "Tm": 445.15, 
	 "num_atms": 29, 
	 "gaussian": { 
		 "optdone": 1, 
		 "sigma_profile": "yes", 
		 "theory": "DFT", 
		 "functional": "B3LYP", 
		 "basiset": "6-31G**", 
		 "properties": { 
			 "R2extent": 4645.977, 
			 "electric_dipole_moment_norm": 2.12984678557, 
			 "electric_quadrupole_moment_norm": 6.86766877259, 
			 "total_energy": -729.280531936, 
			 "HOMO_LUMO_gap": 0.16311, 
			 "cosmo_polarized_energy": -11.4, 
			 "cosmo_cavitation_energy": 33.68, 
			 "cosmo_dispersion_energy": -23.44, 
			 "cosmo_repulsion_energy": 1.84, 
			 "cosmo_total_nonelectrostatic_energy": 12.08, 
			 "SMD_solvation_energy": 6.89 
		},
		"coords": [
			{
				"x": -1.9615536788,
				"y": -1.076028224,
				"z": 2.2594664976,
				"element": "O" 
			},
			{
				"x": -1.9111318618,
				"y": -0.4327793246,
				"z": 1.0665114129,
				"element": "C" 
			},
			{
				"x": -2.915111038,
				"y": -0.236591515,
				"z": 0.4060271328,
				"element": "O" 
			},
			{
				"x": -0.5250840862,
				"y": -0.0142732996,
				"z": 0.6929683101,
				"element": "C" 
			},
			{
				"x": -0.4269755431,
				"y": 0.654466787,
				"z": -0.4817883728,
				"element": "C" 
			},
			{
				"x": 0.7317031068,
				"y": 1.1844769126,
				"z": -1.204243068,
				"element": "C" 
			},
			{
				"x": 0.4771032424,
				"y": 2.1075872273,
				"z": -2.2389496201,
				"element": "C" 
			},
			{
				"x": 1.5134409074,
				"y": 2.658919557,
				"z": -2.9876836881,
				"element": "C" 
			},
			{
				"x": 2.8331635549,
				"y": 2.2824215727,
				"z": -2.7318253079,
				"element": "C" 
			},
			{
				"x": 3.1030211706,
				"y": 1.3509673763,
				"z": -1.7251647691,
				"element": "C" 
			},
			{
				"x": 2.069652492,
				"y": 0.8082891421,
				"z": -0.9664142776,
				"element": "C" 
			},
			{
				"x": 0.5935901851,
				"y": -0.3068359503,
				"z": 1.6361087097,
				"element": "C" 
			},
			{
				"x": 1.2110541027,
				"y": 0.737473945,
				"z": 2.3414054447,
				"element": "C" 
			},
			{
				"x": 2.2578468911,
				"y": 0.4773873168,
				"z": 3.2261226706,
				"element": "C" 
			},
			{
				"x": 2.7041571269,
				"y": -0.8312103443,
				"z": 3.4191582141,
				"element": "C" 
			},
			{
				"x": 2.0932225324,
				"y": -1.8787739788,
				"z": 2.7264174069,
				"element": "C" 
			},
			{
				"x": 1.0430383163,
				"y": -1.6195424778,
				"z": 1.8458088572,
				"element": "C" 
			},
			{
				"x": -2.8985408651,
				"y": -1.2943138979,
				"z": 2.3946178769,
				"element": "H" 
			},
			{
				"x": -1.381714006,
				"y": 0.8258046731,
				"z": -0.9763994888,
				"element": "H" 
			},
			{
				"x": -0.5504804482,
				"y": 2.3938955432,
				"z": -2.4472445111,
				"element": "H" 
			},
			{
				"x": 1.2913031177,
				"y": 3.3746696088,
				"z": -3.7738050216,
				"element": "H" 
			},
			{
				"x": 3.6451418799,
				"y": 2.7043126487,
				"z": -3.3171210413,
				"element": "H" 
			},
			{
				"x": 4.1265356851,
				"y": 1.0428855595,
				"z": -1.5316178689,
				"element": "H" 
			},
			{
				"x": 2.2970355258,
				"y": 0.08007829,
				"z": -0.1985350143,
				"element": "H" 
			},
			{
				"x": 0.8659439793,
				"y": 1.7560371435,
				"z": 2.19025191,
				"element": "H" 
			},
			{
				"x": 2.7235464052,
				"y": 1.2975654108,
				"z": 3.7652245693,
				"element": "H" 
			},
			{
				"x": 3.5199427591,
				"y": -1.0342753033,
				"z": 4.1070364102,
				"element": "H" 
			},
			{
				"x": 2.4326588017,
				"y": -2.9002284642,
				"z": 2.8734496052,
				"element": "H" 
			},
			{
				"x": 0.566289745,
				"y": -2.4377859347,
				"z": 1.3143170215,
				"element": "H" 
			}
		],
		 "valence_orbital": [ 
			{
				"type": "occ",
				"energy": -0.27847,
				"method": "rhf"
			},
			{
				"type": "occ",
				"energy": -0.25803,
				"method": "rhf"
			},
			{
				"type": "occ",
				"energy": -0.25055,
				"method": "rhf"
			},
			{
				"type": "occ",
				"energy": -0.24694,
				"method": "rhf"
			},
			{
				"type": "occ",
				"energy": -0.22697,
				"method": "rhf"
			},
			{
				"type": "unocc",
				"energy": -0.06386,
				"method": "rhf"
			},
			{
				"type": "unocc",
				"energy": -0.00968,
				"method": "rhf"
			},
			{
				"type": "unocc",
				"energy": -0.00498,
				"method": "rhf"
			},
			{
				"type": "unocc",
				"energy": 0.00222,
				"method": "rhf"
			},
			{
				"type": "unocc",
				"energy": 0.02155,
				"method": "rhf"
			}
		],
		"cosmo_sigma_profile": { 
			"-0.025": 0.0,
			"-0.024": 0.0,
			"-0.023": 0.0,
			"-0.022": 0.0,
			"-0.021": 0.0,
			"-0.02": 0.0,
			"-0.019": 0.0,
			"-0.018": 0.522809015021,
			"-0.017": 1.1815016425,
			"-0.016": 0.41764196176,
			"-0.015": 0.912864172902,
			"-0.014": 0.775693535573,
			"-0.013": 0.54702609188,
			"-0.012": 0.301205087471,
			"-0.011": 1.20256651606,
			"-0.01": 0.715785152301,
			"-0.009": 0.764674173651,
			"-0.008": 0.411548136262,
			"-0.007": 2.67260561733,
			"-0.006": 15.588018586,
			"-0.005": 20.1582661137,
			"-0.004": 24.1911036574,
			"-0.003": 19.3500958649,
			"-0.002": 18.794528062,
			"-0.001": 18.2294621973,
			"0.0": 18.7488267898,
			"0.001": 19.7430466139,
			"0.002": 21.0739386592,
			"0.003": 21.4514004237,
			"0.004": 20.1417266867,
			"0.005": 14.8159367604,
			"0.006": 5.23329392859,
			"0.007": 3.52215807603,
			"0.008": 3.36317739527,
			"0.009": 3.64352522014,
			"0.01": 2.5340436154,
			"0.011": 2.99853087723,
			"0.012": 5.20667973513,
			"0.013": 0.637909959614,
			"0.014": 0.0,
			"0.015": 0.0,
			"0.016": 0.0,
			"0.017": 0.0,
			"0.018": 0.0,
			"0.019": 0.0,
			"0.02": 0.0,
			"0.021": 0.0,
			"0.022": 0.0,
			"0.023": 0.0,
			"0.024": 0.0,
			"0.025": 0.0
		}
	}
}
