{
	 "smiles": "CN1C(C(CO)CCC1=O)C1=CC=C(C=C1)C(F)(F)F", 
	 "Tm": 369.15, 
	 "num_atms": 36, 
	 "gaussian": { 
		 "optdone": 1, 
		 "sigma_profile": "yes", 
		 "theory": "DFT", 
		 "functional": "B3LYP", 
		 "basiset": "6-31G**", 
		 "properties": { 
			 "R2extent": 8060.4442, 
			 "electric_dipole_moment_norm": 4.17278235354, 
			 "electric_quadrupole_moment_norm": 31.2355754101, 
			 "total_energy": -1047.85326123, 
			 "HOMO_LUMO_gap": 0.19016, 
			 "cosmo_polarized_energy": -17.1, 
			 "cosmo_cavitation_energy": 37.72, 
			 "cosmo_dispersion_energy": -26.62, 
			 "cosmo_repulsion_energy": 1.96, 
			 "cosmo_total_nonelectrostatic_energy": 13.06, 
			 "SMD_solvation_energy": 7.81 
		},
		"coords": [
			{
				"x": 0.689231476,
				"y": -1.1793343678,
				"z": -0.2825476867,
				"element": "C" 
			},
			{
				"x": -0.2921173112,
				"y": -0.9587069201,
				"z": 0.7779599473,
				"element": "N" 
			},
			{
				"x": -1.2170700682,
				"y": 0.1931893937,
				"z": 0.7643975831,
				"element": "C" 
			},
			{
				"x": -2.6452574887,
				"y": -0.2556649375,
				"z": 0.3535263929,
				"element": "C" 
			},
			{
				"x": -2.8151983814,
				"y": -0.752051648,
				"z": -1.0917057721,
				"element": "C" 
			},
			{
				"x": -2.1662392385,
				"y": -2.0077251186,
				"z": -1.2484524261,
				"element": "O" 
			},
			{
				"x": -3.1117177339,
				"y": -1.3479667841,
				"z": 1.3691002541,
				"element": "C" 
			},
			{
				"x": -1.9774837126,
				"y": -1.8371636822,
				"z": 2.3039574904,
				"element": "C" 
			},
			{
				"x": -0.6724137974,
				"y": -2.0465101838,
				"z": 1.5442182504,
				"element": "C" 
			},
			{
				"x": -0.0387714636,
				"y": -3.0929095237,
				"z": 1.5901174757,
				"element": "O" 
			},
			{
				"x": -0.6220008978,
				"y": 1.4362619089,
				"z": 0.1089584961,
				"element": "C" 
			},
			{
				"x": -1.3175688599,
				"y": 2.2423743014,
				"z": -0.799727459,
				"element": "C" 
			},
			{
				"x": -0.756557439,
				"y": 3.4209191494,
				"z": -1.2959746862,
				"element": "C" 
			},
			{
				"x": 0.5129577314,
				"y": 3.8195338462,
				"z": -0.8829275449,
				"element": "C" 
			},
			{
				"x": 1.2136409521,
				"y": 3.0403659201,
				"z": 0.0437136549,
				"element": "C" 
			},
			{
				"x": 0.6464209769,
				"y": 1.8703764152,
				"z": 0.5343329332,
				"element": "C" 
			},
			{
				"x": 1.1484614254,
				"y": 5.0551992744,
				"z": -1.4583485098,
				"element": "C" 
			},
			{
				"x": 0.2260446537,
				"y": 5.9495870342,
				"z": -1.8778087365,
				"element": "F" 
			},
			{
				"x": 1.9397486479,
				"y": 5.6782408905,
				"z": -0.5566537227,
				"element": "F" 
			},
			{
				"x": 1.9278731849,
				"y": 4.7643389566,
				"z": -2.5263556133,
				"element": "F" 
			},
			{
				"x": 1.0869328108,
				"y": -2.182140464,
				"z": -0.1309311642,
				"element": "H" 
			},
			{
				"x": 1.5087590181,
				"y": -0.4582907136,
				"z": -0.2398280985,
				"element": "H" 
			},
			{
				"x": 0.2135552827,
				"y": -1.1298310001,
				"z": -1.2667438984,
				"element": "H" 
			},
			{
				"x": -1.3258932263,
				"y": 0.5016086063,
				"z": 1.8139522953,
				"element": "H" 
			},
			{
				"x": -3.2974657703,
				"y": 0.6212923423,
				"z": 0.4529708042,
				"element": "H" 
			},
			{
				"x": -3.896239271,
				"y": -0.8463809003,
				"z": -1.2851214276,
				"element": "H" 
			},
			{
				"x": -2.4178967479,
				"y": -0.0193591785,
				"z": -1.8073296257,
				"element": "H" 
			},
			{
				"x": -2.3697739844,
				"y": -2.3501800241,
				"z": -2.1270197221,
				"element": "H" 
			},
			{
				"x": -3.4853901046,
				"y": -2.2106304731,
				"z": 0.8124570742,
				"element": "H" 
			},
			{
				"x": -3.940095596,
				"y": -0.9704608548,
				"z": 1.9770576884,
				"element": "H" 
			},
			{
				"x": -2.2346483742,
				"y": -2.7904018931,
				"z": 2.7682259007,
				"element": "H" 
			},
			{
				"x": -1.8154916357,
				"y": -1.116784571,
				"z": 3.1162580288,
				"element": "H" 
			},
			{
				"x": -2.3160517301,
				"y": 1.9744863469,
				"z": -1.1228295901,
				"element": "H" 
			},
			{
				"x": -1.313469269,
				"y": 4.0336012763,
				"z": -1.9965268662,
				"element": "H" 
			},
			{
				"x": 2.1909684314,
				"y": 3.359936691,
				"z": 0.3895952025,
				"element": "H" 
			},
			{
				"x": 1.1865175101,
				"y": 1.2830808851,
				"z": 1.2708330776,
				"element": "H" 
			}
		],
		 "valence_orbital": [ 
			{
				"type": "occ",
				"energy": -0.28274,
				"method": "rhf"
			},
			{
				"type": "occ",
				"energy": -0.27127,
				"method": "rhf"
			},
			{
				"type": "occ",
				"energy": -0.26861,
				"method": "rhf"
			},
			{
				"type": "occ",
				"energy": -0.23503,
				"method": "rhf"
			},
			{
				"type": "occ",
				"energy": -0.22639,
				"method": "rhf"
			},
			{
				"type": "unocc",
				"energy": -0.03623,
				"method": "rhf"
			},
			{
				"type": "unocc",
				"energy": -0.02385,
				"method": "rhf"
			},
			{
				"type": "unocc",
				"energy": 0.03237,
				"method": "rhf"
			},
			{
				"type": "unocc",
				"energy": 0.05722,
				"method": "rhf"
			},
			{
				"type": "unocc",
				"energy": 0.07859,
				"method": "rhf"
			}
		],
		"cosmo_sigma_profile": { 
			"-0.025": 0.0,
			"-0.024": 0.0,
			"-0.023": 0.0,
			"-0.022": 0.0,
			"-0.021": 0.0,
			"-0.02": 0.0,
			"-0.019": 0.0,
			"-0.018": 0.0,
			"-0.017": 0.0,
			"-0.016": 0.517826291912,
			"-0.015": 1.29234455685,
			"-0.014": 0.578569160087,
			"-0.013": 0.993429866869,
			"-0.012": 1.13410734644,
			"-0.011": 1.06233893665,
			"-0.01": 0.357418540246,
			"-0.009": 0.66055375807,
			"-0.008": 0.85388913668,
			"-0.007": 7.5730499214,
			"-0.006": 13.5618563818,
			"-0.005": 16.2517338504,
			"-0.004": 24.5795063044,
			"-0.003": 27.187173987,
			"-0.002": 26.4667996062,
			"-0.001": 26.304148525,
			"0.0": 20.0376554778,
			"0.001": 17.9870381109,
			"0.002": 26.4210989355,
			"0.003": 42.4944859005,
			"0.004": 7.95471727293,
			"0.005": 2.82598636103,
			"0.006": 3.15025252963,
			"0.007": 2.18785509,
			"0.008": 2.86612732947,
			"0.009": 3.17790820303,
			"0.01": 2.6724783845,
			"0.011": 3.45548070844,
			"0.012": 1.84489247021,
			"0.013": 2.29757711125,
			"0.014": 5.84677200117,
			"0.015": 2.28515776574,
			"0.016": 0.234699538776,
			"0.017": 0.0,
			"0.018": 0.0,
			"0.019": 0.0,
			"0.02": 0.0,
			"0.021": 0.0,
			"0.022": 0.0,
			"0.023": 0.0,
			"0.024": 0.0,
			"0.025": 0.0
		}
	}
}
