{
	 "smiles": "COC1=CC2=C(C=C1OC)C(N(CC2)C(C)=O)C1=C(Cl)C=CC=C1", 
	 "Tm": 460.15, 
	 "num_atms": 44, 
	 "gaussian": { 
		 "optdone": 1, 
		 "sigma_profile": "yes", 
		 "theory": "DFT", 
		 "functional": "B3LYP", 
		 "basiset": "6-31G**", 
		 "properties": { 
			 "R2extent": 8995.4407, 
			 "electric_dipole_moment_norm": 4.59474317998, 
			 "electric_quadrupole_moment_norm": 23.6072953834, 
			 "total_energy": -1476.67252864, 
			 "HOMO_LUMO_gap": 0.20023, 
			 "cosmo_polarized_energy": -15.57, 
			 "cosmo_cavitation_energy": 46.24, 
			 "cosmo_dispersion_energy": -31.35, 
			 "cosmo_repulsion_energy": 2.39, 
			 "cosmo_total_nonelectrostatic_energy": 17.27, 
			 "SMD_solvation_energy": 9.28 
		},
		"coords": [
			{
				"x": 3.8372005294,
				"y": 3.3626065345,
				"z": 0.1546838688,
				"element": "C" 
			},
			{
				"x": 3.2583727265,
				"y": 2.5822380321,
				"z": 1.2075922809,
				"element": "O" 
			},
			{
				"x": 2.2656209831,
				"y": 1.716032421,
				"z": 0.8077551787,
				"element": "C" 
			},
			{
				"x": 0.961748871,
				"y": 1.932946528,
				"z": 1.2442183386,
				"element": "C" 
			},
			{
				"x": -0.0839985134,
				"y": 1.0704570819,
				"z": 0.896028825,
				"element": "C" 
			},
			{
				"x": 0.1872730975,
				"y": -0.0443339089,
				"z": 0.0874026326,
				"element": "C" 
			},
			{
				"x": 1.5030890885,
				"y": -0.271922539,
				"z": -0.3375347893,
				"element": "C" 
			},
			{
				"x": 2.5409240594,
				"y": 0.5858121792,
				"z": 0.015961686,
				"element": "C" 
			},
			{
				"x": 3.8111079258,
				"y": 0.3220433233,
				"z": -0.4502817511,
				"element": "O" 
			},
			{
				"x": 4.7423420851,
				"y": -0.0889411156,
				"z": 0.5583557262,
				"element": "C" 
			},
			{
				"x": -0.9358211898,
				"y": -0.9570151393,
				"z": -0.4295361335,
				"element": "C" 
			},
			{
				"x": -2.2008529346,
				"y": -0.7815384076,
				"z": 0.3108253088,
				"element": "N" 
			},
			{
				"x": -2.2032223703,
				"y": -0.0309108922,
				"z": 1.573656638,
				"element": "C" 
			},
			{
				"x": -1.488626173,
				"y": 1.3057331767,
				"z": 1.395125625,
				"element": "C" 
			},
			{
				"x": -3.4381917258,
				"y": -1.1013697171,
				"z": -0.2297043013,
				"element": "C" 
			},
			{
				"x": -3.4870149477,
				"y": -1.7204588718,
				"z": -1.6183184598,
				"element": "C" 
			},
			{
				"x": -4.4803180375,
				"y": -0.8923896181,
				"z": 0.3830167357,
				"element": "O" 
			},
			{
				"x": -0.4781682891,
				"y": -2.4171695012,
				"z": -0.5966548663,
				"element": "C" 
			},
			{
				"x": -0.1915809882,
				"y": -3.3181123604,
				"z": 0.4413801434,
				"element": "C" 
			},
			{
				"x": -0.3326478265,
				"y": -2.8591864759,
				"z": 2.1326701225,
				"element": "Cl" 
			},
			{
				"x": 0.2400063605,
				"y": -4.6216320724,
				"z": 0.1865523622,
				"element": "C" 
			},
			{
				"x": 0.4129911099,
				"y": -5.0576455232,
				"z": -1.1252710215,
				"element": "C" 
			},
			{
				"x": 0.1559733277,
				"y": -4.1831475907,
				"z": -2.1794725314,
				"element": "C" 
			},
			{
				"x": -0.2834499755,
				"y": -2.8895091809,
				"z": -1.9053870512,
				"element": "C" 
			},
			{
				"x": 3.0804924416,
				"y": 4.0067514603,
				"z": -0.3107990798,
				"element": "H" 
			},
			{
				"x": 4.2936137816,
				"y": 2.7263508749,
				"z": -0.6096900245,
				"element": "H" 
			},
			{
				"x": 4.6019829229,
				"y": 3.9862789107,
				"z": 0.6220654874,
				"element": "H" 
			},
			{
				"x": 0.7722192962,
				"y": 2.7974673184,
				"z": 1.8743586655,
				"element": "H" 
			},
			{
				"x": 1.7531164995,
				"y": -1.1297887756,
				"z": -0.9522275898,
				"element": "H" 
			},
			{
				"x": 4.414859472,
				"y": -1.0237177543,
				"z": 1.0303082934,
				"element": "H" 
			},
			{
				"x": 4.8651942133,
				"y": 0.6821062565,
				"z": 1.3254349278,
				"element": "H" 
			},
			{
				"x": 5.6928806949,
				"y": -0.2563634257,
				"z": 0.0475012564,
				"element": "H" 
			},
			{
				"x": -1.1235242956,
				"y": -0.6141416943,
				"z": -1.4552595026,
				"element": "H" 
			},
			{
				"x": -1.7117544682,
				"y": -0.6129879676,
				"z": 2.3572583922,
				"element": "H" 
			},
			{
				"x": -3.2493457608,
				"y": 0.1004437499,
				"z": 1.8448257301,
				"element": "H" 
			},
			{
				"x": -2.0550213574,
				"y": 1.9296048656,
				"z": 0.6895158676,
				"element": "H" 
			},
			{
				"x": -1.46593046,
				"y": 1.8466422389,
				"z": 2.3478873836,
				"element": "H" 
			},
			{
				"x": -2.9835204558,
				"y": -2.6894570537,
				"z": -1.6518758357,
				"element": "H" 
			},
			{
				"x": -4.5391642456,
				"y": -1.8510597246,
				"z": -1.8689920141,
				"element": "H" 
			},
			{
				"x": -3.02009836,
				"y": -1.0779969771,
				"z": -2.3729241903,
				"element": "H" 
			},
			{
				"x": 0.4428411251,
				"y": -5.2824903179,
				"z": 1.0220583281,
				"element": "H" 
			},
			{
				"x": 0.749095874,
				"y": -6.0723314285,
				"z": -1.315413377,
				"element": "H" 
			},
			{
				"x": 0.2905703133,
				"y": -4.5031630437,
				"z": -3.2080237772,
				"element": "H" 
			},
			{
				"x": -0.488464424,
				"y": -2.2133338747,
				"z": -2.7314735082,
				"element": "H" 
			}
		],
		 "valence_orbital": [ 
			{
				"type": "occ",
				"energy": -0.25423,
				"method": "rhf"
			},
			{
				"type": "occ",
				"energy": -0.24398,
				"method": "rhf"
			},
			{
				"type": "occ",
				"energy": -0.23952,
				"method": "rhf"
			},
			{
				"type": "occ",
				"energy": -0.23153,
				"method": "rhf"
			},
			{
				"type": "occ",
				"energy": -0.22484,
				"method": "rhf"
			},
			{
				"type": "unocc",
				"energy": -0.02461,
				"method": "rhf"
			},
			{
				"type": "unocc",
				"energy": -0.02245,
				"method": "rhf"
			},
			{
				"type": "unocc",
				"energy": -0.00774,
				"method": "rhf"
			},
			{
				"type": "unocc",
				"energy": 0.00164,
				"method": "rhf"
			},
			{
				"type": "unocc",
				"energy": 0.02459,
				"method": "rhf"
			}
		],
		"cosmo_sigma_profile": { 
			"-0.025": 0.0,
			"-0.024": 0.0,
			"-0.023": 0.0,
			"-0.022": 0.0,
			"-0.021": 0.0,
			"-0.02": 0.0,
			"-0.019": 0.0,
			"-0.018": 0.0,
			"-0.017": 0.0,
			"-0.016": 0.0,
			"-0.015": 0.0,
			"-0.014": 0.0,
			"-0.013": 0.0,
			"-0.012": 0.0,
			"-0.011": 0.0,
			"-0.01": 0.0,
			"-0.009": 1.19110044629,
			"-0.008": 3.46941878553,
			"-0.007": 6.91054253542,
			"-0.006": 13.4512655359,
			"-0.005": 22.5225541721,
			"-0.004": 31.2185602255,
			"-0.003": 41.1914318752,
			"-0.002": 43.5515745483,
			"-0.001": 34.8476975019,
			"0.0": 27.1292707394,
			"0.001": 23.2681766783,
			"0.002": 23.5677135577,
			"0.003": 25.1289753155,
			"0.004": 24.7156102695,
			"0.005": 12.5087236662,
			"0.006": 4.07009485311,
			"0.007": 4.09317592076,
			"0.008": 3.14580594135,
			"0.009": 3.4193903334,
			"0.01": 3.25941620916,
			"0.011": 3.6729801815,
			"0.012": 3.16636988737,
			"0.013": 3.56990613748,
			"0.014": 4.21174402421,
			"0.015": 1.18111132394,
			"0.016": 0.0,
			"0.017": 0.0,
			"0.018": 0.0,
			"0.019": 0.0,
			"0.02": 0.0,
			"0.021": 0.0,
			"0.022": 0.0,
			"0.023": 0.0,
			"0.024": 0.0,
			"0.025": 0.0
		}
	}
}
