{
	 "smiles": "CC(C)(C)OC(=O)NCC1=NC=CC=C1F", 
	 "Tm": 330.15, 
	 "num_atms": 31, 
	 "gaussian": { 
		 "optdone": 1, 
		 "sigma_profile": "yes", 
		 "theory": "DFT", 
		 "functional": "B3LYP", 
		 "basiset": "6-31G**", 
		 "properties": { 
			 "R2extent": 6507.0206, 
			 "electric_dipole_moment_norm": 3.81907909449, 
			 "electric_quadrupole_moment_norm": 15.552869993, 
			 "total_energy": -788.033454461, 
			 "HOMO_LUMO_gap": 0.20054, 
			 "cosmo_polarized_energy": -10.23, 
			 "cosmo_cavitation_energy": 34.76, 
			 "cosmo_dispersion_energy": -24.85, 
			 "cosmo_repulsion_energy": 1.94, 
			 "cosmo_total_nonelectrostatic_energy": 11.84, 
			 "SMD_solvation_energy": 5.76 
		},
		"coords": [
			{
				"x": -0.2858083721,
				"y": -4.3386782522,
				"z": -1.1611675423,
				"element": "C" 
			},
			{
				"x": -0.2046909738,
				"y": -3.347674538,
				"z": -2.3280514822,
				"element": "C" 
			},
			{
				"x": -1.0457574428,
				"y": -3.8344259173,
				"z": -3.5115864332,
				"element": "C" 
			},
			{
				"x": 1.2415126993,
				"y": -3.0835252679,
				"z": -2.7628327603,
				"element": "C" 
			},
			{
				"x": -0.8619874633,
				"y": -2.0863250131,
				"z": -1.9663173468,
				"element": "O" 
			},
			{
				"x": -0.3993889358,
				"y": -1.3329834092,
				"z": -0.9350390421,
				"element": "C" 
			},
			{
				"x": 0.5598609219,
				"y": -1.5868098544,
				"z": -0.2198467855,
				"element": "O" 
			},
			{
				"x": -1.1715167163,
				"y": -0.2222496422,
				"z": -0.7997125152,
				"element": "N" 
			},
			{
				"x": -0.8946847392,
				"y": 0.7554028663,
				"z": 0.2221620526,
				"element": "C" 
			},
			{
				"x": -1.8899989858,
				"y": 1.8920269896,
				"z": 0.1427865133,
				"element": "C" 
			},
			{
				"x": -2.841155146,
				"y": 1.861932982,
				"z": -0.7952711815,
				"element": "N" 
			},
			{
				"x": -3.721698181,
				"y": 2.8707496623,
				"z": -0.863015312,
				"element": "C" 
			},
			{
				"x": -3.6992501227,
				"y": 3.962223922,
				"z": 0.0016265577,
				"element": "C" 
			},
			{
				"x": -2.7119081283,
				"y": 4.0104500264,
				"z": 0.988600413,
				"element": "C" 
			},
			{
				"x": -1.8122155097,
				"y": 2.9600985047,
				"z": 1.0427320547,
				"element": "C" 
			},
			{
				"x": -0.8367419651,
				"y": 2.9507820289,
				"z": 1.9738838193,
				"element": "F" 
			},
			{
				"x": 0.1050144972,
				"y": -5.3121043236,
				"z": -1.475542933,
				"element": "H" 
			},
			{
				"x": 0.2934802624,
				"y": -3.9833645302,
				"z": -0.3086782867,
				"element": "H" 
			},
			{
				"x": -1.3269806979,
				"y": -4.4746511089,
				"z": -0.8513275462,
				"element": "H" 
			},
			{
				"x": -0.6558180892,
				"y": -4.7860513323,
				"z": -3.8851986515,
				"element": "H" 
			},
			{
				"x": -1.0222816191,
				"y": -3.105508876,
				"z": -4.327000123,
				"element": "H" 
			},
			{
				"x": -2.0872823889,
				"y": -3.980280797,
				"z": -3.2103921219,
				"element": "H" 
			},
			{
				"x": 1.2653788782,
				"y": -2.3437764472,
				"z": -3.569515995,
				"element": "H" 
			},
			{
				"x": 1.8373426103,
				"y": -2.7152995729,
				"z": -1.9274079308,
				"element": "H" 
			},
			{
				"x": 1.6894072634,
				"y": -4.0097448767,
				"z": -3.1378583917,
				"element": "H" 
			},
			{
				"x": -1.9538474232,
				"y": -0.0472024143,
				"z": -1.4158102905,
				"element": "H" 
			},
			{
				"x": -0.9336035708,
				"y": 0.3029624,
				"z": 1.2231201842,
				"element": "H" 
			},
			{
				"x": 0.1252564844,
				"y": 1.1526749739,
				"z": 0.1225858717,
				"element": "H" 
			},
			{
				"x": -4.4745197932,
				"y": 2.7969991485,
				"z": -1.6440457078,
				"element": "H" 
			},
			{
				"x": -4.432960333,
				"y": 4.7560342762,
				"z": -0.0910007782,
				"element": "H" 
			},
			{
				"x": -2.6334570198,
				"y": 4.8289183927,
				"z": 1.696221691,
				"element": "H" 
			}
		],
		 "valence_orbital": [ 
			{
				"type": "occ",
				"energy": -0.28044,
				"method": "rhf"
			},
			{
				"type": "occ",
				"energy": -0.27705,
				"method": "rhf"
			},
			{
				"type": "occ",
				"energy": -0.26597,
				"method": "rhf"
			},
			{
				"type": "occ",
				"energy": -0.25176,
				"method": "rhf"
			},
			{
				"type": "occ",
				"energy": -0.24073,
				"method": "rhf"
			},
			{
				"type": "unocc",
				"energy": -0.04019,
				"method": "rhf"
			},
			{
				"type": "unocc",
				"energy": -0.02179,
				"method": "rhf"
			},
			{
				"type": "unocc",
				"energy": 0.0662,
				"method": "rhf"
			},
			{
				"type": "unocc",
				"energy": 0.08003,
				"method": "rhf"
			},
			{
				"type": "unocc",
				"energy": 0.09432,
				"method": "rhf"
			}
		],
		"cosmo_sigma_profile": { 
			"-0.025": 0.0,
			"-0.024": 0.0,
			"-0.023": 0.0,
			"-0.022": 0.0,
			"-0.021": 0.0,
			"-0.02": 0.0,
			"-0.019": 0.0,
			"-0.018": 0.0,
			"-0.017": 0.0,
			"-0.016": 0.0,
			"-0.015": 0.0,
			"-0.014": 0.0,
			"-0.013": 0.0,
			"-0.012": 0.0,
			"-0.011": 0.0,
			"-0.01": 0.0,
			"-0.009": 0.632945052178,
			"-0.008": 3.15433339341,
			"-0.007": 6.83046334493,
			"-0.006": 10.3705938232,
			"-0.005": 10.0274863591,
			"-0.004": 18.6508743584,
			"-0.003": 24.1623511759,
			"-0.002": 22.9873077289,
			"-0.001": 30.2671834268,
			"0.0": 36.6259526881,
			"0.001": 35.1135410245,
			"0.002": 20.8496390772,
			"0.003": 13.6853868108,
			"0.004": 10.8002298079,
			"0.005": 4.33430811708,
			"0.006": 5.16591577643,
			"0.007": 5.60999651667,
			"0.008": 3.91192476442,
			"0.009": 1.11176559939,
			"0.01": 1.62375093567,
			"0.011": 1.44928944464,
			"0.012": 1.73727800346,
			"0.013": 2.84705687201,
			"0.014": 2.17276793015,
			"0.015": 0.00716327169885,
			"0.016": 0.0,
			"0.017": 0.0,
			"0.018": 0.0,
			"0.019": 0.0,
			"0.02": 0.0,
			"0.021": 0.0,
			"0.022": 0.0,
			"0.023": 0.0,
			"0.024": 0.0,
			"0.025": 0.0
		}
	}
}
