{
	 "smiles": "NC1=CN=C(C=C1)C1=CC=CS1", 
	 "Tm": 417.15, 
	 "num_atms": 20, 
	 "gaussian": { 
		 "optdone": 1, 
		 "sigma_profile": "yes", 
		 "theory": "DFT", 
		 "functional": "B3LYP", 
		 "basiset": "6-31G**", 
		 "properties": { 
			 "R2extent": 3341.2613, 
			 "electric_dipole_moment_norm": 2.98398004182, 
			 "electric_quadrupole_moment_norm": 14.7875978509, 
			 "total_energy": -855.458112032, 
			 "HOMO_LUMO_gap": 0.15828, 
			 "cosmo_polarized_energy": -12.36, 
			 "cosmo_cavitation_energy": 25.73, 
			 "cosmo_dispersion_energy": -19.89, 
			 "cosmo_repulsion_energy": 1.52, 
			 "cosmo_total_nonelectrostatic_energy": 7.36, 
			 "SMD_solvation_energy": 3.25 
		},
		"coords": [
			{
				"x": -1.3066883613,
				"y": 1.9052020864,
				"z": -3.5140246578,
				"element": "N" 
			},
			{
				"x": -0.6632194826,
				"y": 1.0829445677,
				"z": -2.5938897383,
				"element": "C" 
			},
			{
				"x": -0.2419478085,
				"y": -0.2148374702,
				"z": -2.9443898693,
				"element": "C" 
			},
			{
				"x": 0.4219411455,
				"y": -1.0298305583,
				"z": -2.1338620129,
				"element": "N" 
			},
			{
				"x": 0.7257820996,
				"y": -0.612249403,
				"z": -0.8881921122,
				"element": "C" 
			},
			{
				"x": 0.3474909345,
				"y": 0.6667700643,
				"z": -0.4457539747,
				"element": "C" 
			},
			{
				"x": -0.346811486,
				"y": 1.5148008442,
				"z": -1.2975621864,
				"element": "C" 
			},
			{
				"x": 1.4589408202,
				"y": -1.5661165728,
				"z": -0.0479305595,
				"element": "C" 
			},
			{
				"x": 1.8723737992,
				"y": -2.8318110562,
				"z": -0.3951295002,
				"element": "C" 
			},
			{
				"x": 2.5643815951,
				"y": -3.5095660233,
				"z": 0.6485006203,
				"element": "C" 
			},
			{
				"x": 2.6771254637,
				"y": -2.7605956551,
				"z": 1.7880251685,
				"element": "C" 
			},
			{
				"x": 1.9336680847,
				"y": -1.2040593421,
				"z": 1.6008611978,
				"element": "S" 
			},
			{
				"x": -1.8846206686,
				"y": 2.6344468051,
				"z": -3.1197454531,
				"element": "H" 
			},
			{
				"x": -1.7657407022,
				"y": 1.4259437197,
				"z": -4.2764702561,
				"element": "H" 
			},
			{
				"x": -0.4624597552,
				"y": -0.5980211723,
				"z": -3.9419077198,
				"element": "H" 
			},
			{
				"x": 0.5919954379,
				"y": 0.9984118446,
				"z": 0.5587817881,
				"element": "H" 
			},
			{
				"x": -0.6402458009,
				"y": 2.5074813895,
				"z": -0.9650220481,
				"element": "H" 
			},
			{
				"x": 1.6740535934,
				"y": -3.2419237457,
				"z": -1.3770946559,
				"element": "H" 
			},
			{
				"x": 2.9625870351,
				"y": -4.5138069834,
				"z": 0.5552766508,
				"element": "H" 
			},
			{
				"x": 3.1490940564,
				"y": -3.022483339,
				"z": 2.7247293186,
				"element": "H" 
			}
		],
		 "valence_orbital": [ 
			{
				"type": "occ",
				"energy": -0.2772,
				"method": "rhf"
			},
			{
				"type": "occ",
				"energy": -0.25159,
				"method": "rhf"
			},
			{
				"type": "occ",
				"energy": -0.2476,
				"method": "rhf"
			},
			{
				"type": "occ",
				"energy": -0.24238,
				"method": "rhf"
			},
			{
				"type": "occ",
				"energy": -0.19157,
				"method": "rhf"
			},
			{
				"type": "unocc",
				"energy": -0.03329,
				"method": "rhf"
			},
			{
				"type": "unocc",
				"energy": -0.01595,
				"method": "rhf"
			},
			{
				"type": "unocc",
				"energy": 0.03661,
				"method": "rhf"
			},
			{
				"type": "unocc",
				"energy": 0.03765,
				"method": "rhf"
			},
			{
				"type": "unocc",
				"energy": 0.07145,
				"method": "rhf"
			}
		],
		"cosmo_sigma_profile": { 
			"-0.025": 0.0,
			"-0.024": 0.0,
			"-0.023": 0.0,
			"-0.022": 0.0,
			"-0.021": 0.0,
			"-0.02": 0.0,
			"-0.019": 0.0,
			"-0.018": 0.0,
			"-0.017": 0.0,
			"-0.016": 0.0,
			"-0.015": 0.0,
			"-0.014": 0.00115096362826,
			"-0.013": 1.8041956314,
			"-0.012": 3.39990480552,
			"-0.011": 2.80514782711,
			"-0.01": 3.42722937811,
			"-0.009": 3.5182694007,
			"-0.008": 4.86842168745,
			"-0.007": 7.64769303982,
			"-0.006": 9.84101864982,
			"-0.005": 11.3272402012,
			"-0.004": 10.2579755569,
			"-0.003": 11.2406276803,
			"-0.002": 9.0571942129,
			"-0.001": 9.27665671809,
			"0.0": 10.5661845801,
			"0.001": 11.4218624956,
			"0.002": 15.8999312027,
			"0.003": 21.7821834373,
			"0.004": 20.7807766152,
			"0.005": 15.7710394657,
			"0.006": 8.41267079629,
			"0.007": 3.14096207627,
			"0.008": 2.54902461088,
			"0.009": 2.11549863942,
			"0.01": 2.054139341,
			"0.011": 1.94984890734,
			"0.012": 1.981795298,
			"0.013": 1.32798240308,
			"0.014": 0.229824617126,
			"0.015": 0.0,
			"0.016": 0.0,
			"0.017": 0.0,
			"0.018": 0.0,
			"0.019": 0.0,
			"0.02": 0.0,
			"0.021": 0.0,
			"0.022": 0.0,
			"0.023": 0.0,
			"0.024": 0.0,
			"0.025": 0.0
		}
	}
}
