{
	 "smiles": "CS(=O)(=O)NC1=C(C=C(F)C=C1)C(O)=O", 
	 "Tm": 478.15, 
	 "num_atms": 23, 
	 "gaussian": { 
		 "optdone": 1, 
		 "sigma_profile": "yes", 
		 "theory": "DFT", 
		 "functional": "B3LYP", 
		 "basiset": "6-31G**", 
		 "properties": { 
			 "R2extent": 4974.7877, 
			 "electric_dipole_moment_norm": 2.89835548199, 
			 "electric_quadrupole_moment_norm": 26.16311698, 
			 "total_energy": -1163.29186432, 
			 "HOMO_LUMO_gap": 0.17004, 
			 "cosmo_polarized_energy": -18.24, 
			 "cosmo_cavitation_energy": 29.4, 
			 "cosmo_dispersion_energy": -21.57, 
			 "cosmo_repulsion_energy": 1.61, 
			 "cosmo_total_nonelectrostatic_energy": 9.44, 
			 "SMD_solvation_energy": 6.31 
		},
		"coords": [
			{
				"x": -0.3527773225,
				"y": 0.2076464082,
				"z": 4.2109711882,
				"element": "C" 
			},
			{
				"x": -1.3156970048,
				"y": -0.3827022683,
				"z": 2.8025412458,
				"element": "S" 
			},
			{
				"x": -1.8838405859,
				"y": -1.6868045277,
				"z": 3.1352930737,
				"element": "O" 
			},
			{
				"x": -2.1525258127,
				"y": 0.7288249176,
				"z": 2.3523750741,
				"element": "O" 
			},
			{
				"x": -0.1671388415,
				"y": -0.7332021099,
				"z": 1.6097315211,
				"element": "N" 
			},
			{
				"x": 0.7663282917,
				"y": 0.175388257,
				"z": 1.0721561106,
				"element": "C" 
			},
			{
				"x": 2.0893229695,
				"y": -0.2214702425,
				"z": 0.7361440756,
				"element": "C" 
			},
			{
				"x": 2.9699477966,
				"y": 0.7180453365,
				"z": 0.1698465485,
				"element": "C" 
			},
			{
				"x": 2.5588746481,
				"y": 2.0181835419,
				"z": -0.0414209282,
				"element": "C" 
			},
			{
				"x": 3.417621903,
				"y": 2.9088304654,
				"z": -0.5756552981,
				"element": "F" 
			},
			{
				"x": 1.2668118173,
				"y": 2.4251026372,
				"z": 0.2796174469,
				"element": "C" 
			},
			{
				"x": 0.3771242558,
				"y": 1.5050369472,
				"z": 0.8190153337,
				"element": "C" 
			},
			{
				"x": 2.6796590952,
				"y": -1.5764682552,
				"z": 0.9139965392,
				"element": "C" 
			},
			{
				"x": 1.8242585248,
				"y": -2.5121201568,
				"z": 1.4223173725,
				"element": "O" 
			},
			{
				"x": 3.8242243021,
				"y": -1.871080697,
				"z": 0.6410607028,
				"element": "O" 
			},
			{
				"x": -1.0675605784,
				"y": 0.4906617145,
				"z": 4.9855402,
				"element": "H" 
			},
			{
				"x": 0.2916855048,
				"y": -0.5997693923,
				"z": 4.5602840899,
				"element": "H" 
			},
			{
				"x": 0.2323957699,
				"y": 1.0753685998,
				"z": 3.9027477895,
				"element": "H" 
			},
			{
				"x": 0.1445085434,
				"y": -1.6967476098,
				"z": 1.6872521485,
				"element": "H" 
			},
			{
				"x": 3.9737981471,
				"y": 0.4045807656,
				"z": -0.0897732792,
				"element": "H" 
			},
			{
				"x": 0.9611213496,
				"y": 3.447894058,
				"z": 0.0866866713,
				"element": "H" 
			},
			{
				"x": -0.64124289,
				"y": 1.8011039931,
				"z": 1.0373289196,
				"element": "H" 
			},
			{
				"x": 2.3290001171,
				"y": -3.3411023824,
				"z": 1.4730434541,
				"element": "H" 
			}
		],
		 "valence_orbital": [ 
			{
				"type": "occ",
				"energy": -0.31708,
				"method": "rhf"
			},
			{
				"type": "occ",
				"energy": -0.31063,
				"method": "rhf"
			},
			{
				"type": "occ",
				"energy": -0.30225,
				"method": "rhf"
			},
			{
				"type": "occ",
				"energy": -0.28387,
				"method": "rhf"
			},
			{
				"type": "occ",
				"energy": -0.24075,
				"method": "rhf"
			},
			{
				"type": "unocc",
				"energy": -0.07071,
				"method": "rhf"
			},
			{
				"type": "unocc",
				"energy": -0.02267,
				"method": "rhf"
			},
			{
				"type": "unocc",
				"energy": 0.03747,
				"method": "rhf"
			},
			{
				"type": "unocc",
				"energy": 0.05121,
				"method": "rhf"
			},
			{
				"type": "unocc",
				"energy": 0.06052,
				"method": "rhf"
			}
		],
		"cosmo_sigma_profile": { 
			"-0.025": 0.0,
			"-0.024": 0.0,
			"-0.023": 0.0,
			"-0.022": 0.0,
			"-0.021": 0.0,
			"-0.02": 0.0,
			"-0.019": 0.70410211604,
			"-0.018": 1.05628246486,
			"-0.017": 0.606063235527,
			"-0.016": 0.865807480399,
			"-0.015": 0.758347339691,
			"-0.014": 0.546506242331,
			"-0.013": 0.811560355204,
			"-0.012": 1.19566154345,
			"-0.011": 0.540779543104,
			"-0.01": 0.908072627112,
			"-0.009": 5.0666223873,
			"-0.008": 8.83424781816,
			"-0.007": 10.1534921783,
			"-0.006": 13.0559146769,
			"-0.005": 13.4416416861,
			"-0.004": 14.6886016817,
			"-0.003": 12.5189628804,
			"-0.002": 11.5233142883,
			"-0.001": 13.8050773281,
			"0.0": 19.3495403127,
			"0.001": 18.4345452871,
			"0.002": 12.3679197417,
			"0.003": 9.35776733874,
			"0.004": 14.9047285864,
			"0.005": 5.54043338017,
			"0.006": 4.08569219656,
			"0.007": 3.94793282303,
			"0.008": 5.10484907852,
			"0.009": 5.67477418151,
			"0.01": 11.127328724,
			"0.011": 13.3018899326,
			"0.012": 1.43463058098,
			"0.013": 0.0,
			"0.014": 0.0,
			"0.015": 0.0,
			"0.016": 0.0,
			"0.017": 0.0,
			"0.018": 0.0,
			"0.019": 0.0,
			"0.02": 0.0,
			"0.021": 0.0,
			"0.022": 0.0,
			"0.023": 0.0,
			"0.024": 0.0,
			"0.025": 0.0
		}
	}
}
