{
	 "smiles": "CC1=CN=C(N=C1)C#N", 
	 "Tm": 341.15, 
	 "num_atms": 14, 
	 "gaussian": { 
		 "optdone": 1, 
		 "sigma_profile": "yes", 
		 "theory": "DFT", 
		 "functional": "B3LYP", 
		 "basiset": "6-31G**", 
		 "properties": { 
			 "R2extent": 1418.2293, 
			 "electric_dipole_moment_norm": 6.89482324719, 
			 "electric_quadrupole_moment_norm": 14.5057422623, 
			 "total_energy": -395.875992893, 
			 "HOMO_LUMO_gap": 0.2021, 
			 "cosmo_polarized_energy": -11.94, 
			 "cosmo_cavitation_energy": 19.84, 
			 "cosmo_dispersion_energy": -14.16, 
			 "cosmo_repulsion_energy": 1.16, 
			 "cosmo_total_nonelectrostatic_energy": 6.84, 
			 "SMD_solvation_energy": 2.19 
		},
		"coords": [
			{
				"x": 0.7320727514,
				"y": -2.1903669084,
				"z": -0.1492357516,
				"element": "C" 
			},
			{
				"x": 0.1866922402,
				"y": -0.7977900218,
				"z": 0.011460196,
				"element": "C" 
			},
			{
				"x": -1.1702554696,
				"y": -0.5431236451,
				"z": 0.2454486861,
				"element": "C" 
			},
			{
				"x": -1.6670470281,
				"y": 0.6845212529,
				"z": 0.4141836835,
				"element": "N" 
			},
			{
				"x": -0.7789890686,
				"y": 1.6837978414,
				"z": 0.3434199951,
				"element": "C" 
			},
			{
				"x": 0.5362761177,
				"y": 1.5818643841,
				"z": 0.1155995548,
				"element": "N" 
			},
			{
				"x": 0.9998269589,
				"y": 0.3406848249,
				"z": -0.0486441831,
				"element": "C" 
			},
			{
				"x": -1.2995077348,
				"y": 3.0236649843,
				"z": 0.529116141,
				"element": "C" 
			},
			{
				"x": -1.7163806559,
				"y": 4.097000142,
				"z": 0.6785941813,
				"element": "N" 
			},
			{
				"x": -0.0162511324,
				"y": -2.8635718382,
				"z": -0.5768391732,
				"element": "H" 
			},
			{
				"x": 1.0334401318,
				"y": -2.6070829357,
				"z": 0.8192894252,
				"element": "H" 
			},
			{
				"x": 1.6123189024,
				"y": -2.2002336893,
				"z": -0.7981652956,
				"element": "H" 
			},
			{
				"x": -1.8866350354,
				"y": -1.3623117311,
				"z": 0.2951814001,
				"element": "H" 
			},
			{
				"x": 2.0681390222,
				"y": 0.2483473401,
				"z": -0.2408088597,
				"element": "H" 
			}
		],
		 "valence_orbital": [ 
			{
				"type": "occ",
				"energy": -0.34246,
				"method": "rhf"
			},
			{
				"type": "occ",
				"energy": -0.3398,
				"method": "rhf"
			},
			{
				"type": "occ",
				"energy": -0.33349,
				"method": "rhf"
			},
			{
				"type": "occ",
				"energy": -0.2893,
				"method": "rhf"
			},
			{
				"type": "occ",
				"energy": -0.27668,
				"method": "rhf"
			},
			{
				"type": "unocc",
				"energy": -0.07458,
				"method": "rhf"
			},
			{
				"type": "unocc",
				"energy": -0.06458,
				"method": "rhf"
			},
			{
				"type": "unocc",
				"energy": 0.03331,
				"method": "rhf"
			},
			{
				"type": "unocc",
				"energy": 0.05561,
				"method": "rhf"
			},
			{
				"type": "unocc",
				"energy": 0.08149,
				"method": "rhf"
			}
		],
		"cosmo_sigma_profile": { 
			"-0.025": 0.0,
			"-0.024": 0.0,
			"-0.023": 0.0,
			"-0.022": 0.0,
			"-0.021": 0.0,
			"-0.02": 0.0,
			"-0.019": 0.0,
			"-0.018": 0.0,
			"-0.017": 0.0,
			"-0.016": 0.0,
			"-0.015": 0.0,
			"-0.014": 0.0,
			"-0.013": 0.0,
			"-0.012": 0.0,
			"-0.011": 0.0,
			"-0.01": 0.0,
			"-0.009": 1.24305207296,
			"-0.008": 5.92642998336,
			"-0.007": 5.76922073958,
			"-0.006": 9.01479250765,
			"-0.005": 11.4095860984,
			"-0.004": 16.2676457681,
			"-0.003": 17.1603137455,
			"-0.002": 18.5181800512,
			"-0.001": 8.84690817983,
			"0.0": 5.71878376758,
			"0.001": 5.15708052882,
			"0.002": 5.82458681947,
			"0.003": 6.1812094675,
			"0.004": 6.07662956421,
			"0.005": 5.52486065418,
			"0.006": 5.25960954406,
			"0.007": 5.38277522907,
			"0.008": 4.69345767142,
			"0.009": 4.35678277948,
			"0.01": 4.75617499795,
			"0.011": 3.88285126146,
			"0.012": 2.76805363894,
			"0.013": 1.01731832851,
			"0.014": 0.00639773168873,
			"0.015": 0.0,
			"0.016": 0.0,
			"0.017": 0.0,
			"0.018": 0.0,
			"0.019": 0.0,
			"0.02": 0.0,
			"0.021": 0.0,
			"0.022": 0.0,
			"0.023": 0.0,
			"0.024": 0.0,
			"0.025": 0.0
		}
	}
}
