{
	 "smiles": "OC(=O)C1(Br)CCC1", 
	 "Tm": 314.15, 
	 "num_atms": 15, 
	 "gaussian": { 
		 "optdone": 1, 
		 "sigma_profile": "yes", 
		 "theory": "DFT", 
		 "functional": "B3LYP", 
		 "basiset": "6-31G**", 
		 "properties": { 
			 "R2extent": 1429.0718, 
			 "electric_dipole_moment_norm": 2.81936508101, 
			 "electric_quadrupole_moment_norm": 11.0014527759, 
			 "total_energy": -2916.58789283, 
			 "HOMO_LUMO_gap": 0.24526, 
			 "cosmo_polarized_energy": -8.42, 
			 "cosmo_cavitation_energy": 20.06, 
			 "cosmo_dispersion_energy": -15.4, 
			 "cosmo_repulsion_energy": 1.27, 
			 "cosmo_total_nonelectrostatic_energy": 5.94, 
			 "SMD_solvation_energy": 3.32 
		},
		"coords": [
			{
				"x": 1.4380975312,
				"y": -1.4195299438,
				"z": -1.8691102096,
				"element": "O" 
			},
			{
				"x": 1.6658449877,
				"y": -0.2837148457,
				"z": -1.2002294453,
				"element": "C" 
			},
			{
				"x": 2.6279132243,
				"y": 0.4107013028,
				"z": -1.4385343902,
				"element": "O" 
			},
			{
				"x": 0.6884347477,
				"y": 0.1618714357,
				"z": -0.1001173776,
				"element": "C" 
			},
			{
				"x": -0.8271582066,
				"y": -1.1356352879,
				"z": 0.124029159,
				"element": "Br" 
			},
			{
				"x": 1.4173128679,
				"y": 0.5421836979,
				"z": 1.2192640352,
				"element": "C" 
			},
			{
				"x": 1.3257105931,
				"y": 2.0327275889,
				"z": 0.7929772987,
				"element": "C" 
			},
			{
				"x": 0.2535031902,
				"y": 1.6455920973,
				"z": -0.2616757052,
				"element": "C" 
			},
			{
				"x": 0.6209850477,
				"y": -1.8353798983,
				"z": -1.5373143383,
				"element": "H" 
			},
			{
				"x": 0.7982438761,
				"y": 0.3151694687,
				"z": 2.088671088,
				"element": "H" 
			},
			{
				"x": 2.41029426,
				"y": 0.1087200518,
				"z": 1.3525411445,
				"element": "H" 
			},
			{
				"x": 1.0134288503,
				"y": 2.7397044055,
				"z": 1.5651086001,
				"element": "H" 
			},
			{
				"x": 2.2477560076,
				"y": 2.3759563518,
				"z": 0.3241516952,
				"element": "H" 
			},
			{
				"x": -0.7648952204,
				"y": 1.7971604947,
				"z": 0.0996267917,
				"element": "H" 
			},
			{
				"x": 0.3518282433,
				"y": 2.0602730806,
				"z": -1.2666883462,
				"element": "H" 
			}
		],
		 "valence_orbital": [ 
			{
				"type": "occ",
				"energy": -0.3372,
				"method": "rhf"
			},
			{
				"type": "occ",
				"energy": -0.32302,
				"method": "rhf"
			},
			{
				"type": "occ",
				"energy": -0.30845,
				"method": "rhf"
			},
			{
				"type": "occ",
				"energy": -0.29423,
				"method": "rhf"
			},
			{
				"type": "occ",
				"energy": -0.27523,
				"method": "rhf"
			},
			{
				"type": "unocc",
				"energy": -0.02997,
				"method": "rhf"
			},
			{
				"type": "unocc",
				"energy": -0.00477,
				"method": "rhf"
			},
			{
				"type": "unocc",
				"energy": 0.08038,
				"method": "rhf"
			},
			{
				"type": "unocc",
				"energy": 0.10048,
				"method": "rhf"
			},
			{
				"type": "unocc",
				"energy": 0.10767,
				"method": "rhf"
			}
		],
		"cosmo_sigma_profile": { 
			"-0.025": 0.0,
			"-0.024": 0.0,
			"-0.023": 0.0,
			"-0.022": 0.0,
			"-0.021": 0.0,
			"-0.02": 0.0,
			"-0.019": 0.0,
			"-0.018": 0.0,
			"-0.017": 0.0,
			"-0.016": 0.0,
			"-0.015": 0.00402813259178,
			"-0.014": 0.271822089094,
			"-0.013": 0.874211968347,
			"-0.012": 0.597023422287,
			"-0.011": 0.768851744652,
			"-0.01": 0.727959287617,
			"-0.009": 0.888591874216,
			"-0.008": 1.33946808495,
			"-0.007": 2.87962552174,
			"-0.006": 6.37261803292,
			"-0.005": 11.3455026571,
			"-0.004": 13.2982174857,
			"-0.003": 15.738159666,
			"-0.002": 17.4395915198,
			"-0.001": 17.1350294629,
			"0.0": 13.8273877058,
			"0.001": 6.51931675543,
			"0.002": 6.95354497072,
			"0.003": 6.91243381844,
			"0.004": 8.32004190799,
			"0.005": 5.14012718518,
			"0.006": 2.32117771168,
			"0.007": 2.94698055922,
			"0.008": 3.14201646601,
			"0.009": 4.10659251842,
			"0.01": 4.08054964224,
			"0.011": 4.54648147321,
			"0.012": 2.49268179461,
			"0.013": 0.370480735048,
			"0.014": 0.0,
			"0.015": 0.0,
			"0.016": 0.0,
			"0.017": 0.0,
			"0.018": 0.0,
			"0.019": 0.0,
			"0.02": 0.0,
			"0.021": 0.0,
			"0.022": 0.0,
			"0.023": 0.0,
			"0.024": 0.0,
			"0.025": 0.0
		}
	}
}
