{
	 "smiles": "CC1=CC(OCCC(O)=O)=C(C)C(C)=C1", 
	 "Tm": 403.15, 
	 "num_atms": 31, 
	 "gaussian": { 
		 "optdone": 1, 
		 "sigma_profile": "yes", 
		 "theory": "DFT", 
		 "functional": "B3LYP", 
		 "basiset": "6-31G**", 
		 "properties": { 
			 "R2extent": 4214.2677, 
			 "electric_dipole_moment_norm": 1.39904488491, 
			 "electric_quadrupole_moment_norm": 7.54050500563, 
			 "total_energy": -692.618868098, 
			 "HOMO_LUMO_gap": 0.21972, 
			 "cosmo_polarized_energy": -11.25, 
			 "cosmo_cavitation_energy": 34.08, 
			 "cosmo_dispersion_energy": -23.89, 
			 "cosmo_repulsion_energy": 1.91, 
			 "cosmo_total_nonelectrostatic_energy": 12.1, 
			 "SMD_solvation_energy": 7.12 
		},
		"coords": [
			{
				"x": 3.4259059667,
				"y": 0.2646448411,
				"z": -1.767242819,
				"element": "C" 
			},
			{
				"x": 2.471062607,
				"y": 0.349514656,
				"z": -0.5990560606,
				"element": "C" 
			},
			{
				"x": 1.0927008934,
				"y": 0.2539889436,
				"z": -0.7908091969,
				"element": "C" 
			},
			{
				"x": 0.2229237247,
				"y": 0.3099427797,
				"z": 0.3028783739,
				"element": "C" 
			},
			{
				"x": -1.1460688042,
				"y": 0.2628065658,
				"z": 0.0849415291,
				"element": "O" 
			},
			{
				"x": -1.6656429458,
				"y": -0.9474474796,
				"z": -0.4690392962,
				"element": "C" 
			},
			{
				"x": -2.9398238504,
				"y": -0.6005491409,
				"z": -1.2213092814,
				"element": "C" 
			},
			{
				"x": -2.6532930648,
				"y": 0.1739923288,
				"z": -2.4924727723,
				"element": "C" 
			},
			{
				"x": -3.7105573529,
				"y": 0.9275030299,
				"z": -2.8694857395,
				"element": "O" 
			},
			{
				"x": -1.628233015,
				"y": 0.1187019949,
				"z": -3.1375667531,
				"element": "O" 
			},
			{
				"x": 0.6910586715,
				"y": 0.4785410797,
				"z": 1.6138573063,
				"element": "C" 
			},
			{
				"x": -0.2678405834,
				"y": 0.5545928479,
				"z": 2.7768120017,
				"element": "C" 
			},
			{
				"x": 2.0857202453,
				"y": 0.587871398,
				"z": 1.8059883873,
				"element": "C" 
			},
			{
				"x": 2.648617393,
				"y": 0.7792404139,
				"z": 3.1949971527,
				"element": "C" 
			},
			{
				"x": 2.946850057,
				"y": 0.5166135434,
				"z": 0.7081363753,
				"element": "C" 
			},
			{
				"x": 3.8243461003,
				"y": -0.751482604,
				"z": -1.8825681633,
				"element": "H" 
			},
			{
				"x": 2.9318542701,
				"y": 0.529212071,
				"z": -2.7065406937,
				"element": "H" 
			},
			{
				"x": 4.2825873086,
				"y": 0.933144158,
				"z": -1.6337158657,
				"element": "H" 
			},
			{
				"x": 0.6721222628,
				"y": 0.1599870505,
				"z": -1.7881728798,
				"element": "H" 
			},
			{
				"x": -1.8815675891,
				"y": -1.6630864823,
				"z": 0.3370855433,
				"element": "H" 
			},
			{
				"x": -0.9423155631,
				"y": -1.4024357811,
				"z": -1.1527275944,
				"element": "H" 
			},
			{
				"x": -3.4648473063,
				"y": -1.520904818,
				"z": -1.5089152292,
				"element": "H" 
			},
			{
				"x": -3.6228535667,
				"y": -0.0269935965,
				"z": -0.5890440364,
				"element": "H" 
			},
			{
				"x": -3.4520304239,
				"y": 1.3620256817,
				"z": -3.7001060141,
				"element": "H" 
			},
			{
				"x": -1.2979282524,
				"y": 0.4565273766,
				"z": 2.4335221111,
				"element": "H" 
			},
			{
				"x": -0.1790582286,
				"y": 1.5103146758,
				"z": 3.3078496367,
				"element": "H" 
			},
			{
				"x": -0.0707986745,
				"y": -0.2338411728,
				"z": 3.5137053495,
				"element": "H" 
			},
			{
				"x": 2.2693211847,
				"y": 1.6957509315,
				"z": 3.6633938132,
				"element": "H" 
			},
			{
				"x": 3.7396716457,
				"y": 0.843021269,
				"z": 3.1723185896,
				"element": "H" 
			},
			{
				"x": 2.3759842922,
				"y": -0.0483293147,
				"z": 3.8614522487,
				"element": "H" 
			},
			{
				"x": 4.018532598,
				"y": 0.6028327534,
				"z": 0.875333977,
				"element": "H" 
			}
		],
		 "valence_orbital": [ 
			{
				"type": "occ",
				"energy": -0.31438,
				"method": "rhf"
			},
			{
				"type": "occ",
				"energy": -0.2805,
				"method": "rhf"
			},
			{
				"type": "occ",
				"energy": -0.2728,
				"method": "rhf"
			},
			{
				"type": "occ",
				"energy": -0.22188,
				"method": "rhf"
			},
			{
				"type": "occ",
				"energy": -0.21465,
				"method": "rhf"
			},
			{
				"type": "unocc",
				"energy": 0.00507,
				"method": "rhf"
			},
			{
				"type": "unocc",
				"energy": 0.01099,
				"method": "rhf"
			},
			{
				"type": "unocc",
				"energy": 0.01885,
				"method": "rhf"
			},
			{
				"type": "unocc",
				"energy": 0.07695,
				"method": "rhf"
			},
			{
				"type": "unocc",
				"energy": 0.09471,
				"method": "rhf"
			}
		],
		"cosmo_sigma_profile": { 
			"-0.025": 0.0,
			"-0.024": 0.0,
			"-0.023": 0.0,
			"-0.022": 0.0,
			"-0.021": 0.0,
			"-0.02": 0.0,
			"-0.019": 0.0424559468259,
			"-0.018": 0.823673250077,
			"-0.017": 0.79367108894,
			"-0.016": 0.858609593417,
			"-0.015": 0.782732510836,
			"-0.014": 1.16302055187,
			"-0.013": 0.587490049431,
			"-0.012": 0.428143795513,
			"-0.011": 0.68422169323,
			"-0.01": 0.499769092679,
			"-0.009": 0.574340418057,
			"-0.008": 1.62965255563,
			"-0.007": 4.66891890921,
			"-0.006": 4.51492148975,
			"-0.005": 9.00531513501,
			"-0.004": 23.8630873114,
			"-0.003": 28.2592353804,
			"-0.002": 25.4106900363,
			"-0.001": 25.2926933942,
			"0.0": 30.7619639512,
			"0.001": 23.5552836732,
			"0.002": 13.145297632,
			"0.003": 10.9722191079,
			"0.004": 10.4489236961,
			"0.005": 12.9282726079,
			"0.006": 12.3906903008,
			"0.007": 6.61217820999,
			"0.008": 4.60812032542,
			"0.009": 3.6503816181,
			"0.01": 3.32863952358,
			"0.011": 3.26536573263,
			"0.012": 1.90985880861,
			"0.013": 0.0807719406537,
			"0.014": 0.0,
			"0.015": 0.0,
			"0.016": 0.0,
			"0.017": 0.0,
			"0.018": 0.0,
			"0.019": 0.0,
			"0.02": 0.0,
			"0.021": 0.0,
			"0.022": 0.0,
			"0.023": 0.0,
			"0.024": 0.0,
			"0.025": 0.0
		}
	}
}
