{
	 "smiles": "OC(=O)C1CC2CCCCC2N1", 
	 "Tm": 540.15, 
	 "num_atms": 27, 
	 "gaussian": { 
		 "optdone": 1, 
		 "sigma_profile": "yes", 
		 "theory": "DFT", 
		 "functional": "B3LYP", 
		 "basiset": "6-31G**", 
		 "properties": { 
			 "R2extent": 2785.4851, 
			 "electric_dipole_moment_norm": 4.83982244612, 
			 "electric_quadrupole_moment_norm": 22.8138512277, 
			 "total_energy": -557.21047857, 
			 "HOMO_LUMO_gap": 0.24164, 
			 "cosmo_polarized_energy": -14.03, 
			 "cosmo_cavitation_energy": 27.24, 
			 "cosmo_dispersion_energy": -20.2, 
			 "cosmo_repulsion_energy": 1.61, 
			 "cosmo_total_nonelectrostatic_energy": 8.65, 
			 "SMD_solvation_energy": 3.06 
		},
		"coords": [
			{
				"x": 1.8876735943,
				"y": 2.8027027772,
				"z": 1.3407998715,
				"element": "O" 
			},
			{
				"x": 1.5046967907,
				"y": 3.2782354277,
				"z": 0.1254392852,
				"element": "C" 
			},
			{
				"x": 1.3553685667,
				"y": 4.460326226,
				"z": -0.0588438912,
				"element": "O" 
			},
			{
				"x": 1.2331635794,
				"y": 2.2173013886,
				"z": -0.9472472412,
				"element": "C" 
			},
			{
				"x": -0.2587076869,
				"y": 1.7441973119,
				"z": -0.8605565483,
				"element": "C" 
			},
			{
				"x": -0.1648585777,
				"y": 0.2336589175,
				"z": -1.1124471904,
				"element": "C" 
			},
			{
				"x": -1.2979262302,
				"y": -0.6921384047,
				"z": -0.6729521955,
				"element": "C" 
			},
			{
				"x": -0.8925360743,
				"y": -2.1529097184,
				"z": -0.9660302316,
				"element": "C" 
			},
			{
				"x": 0.4791835014,
				"y": -2.5276317184,
				"z": -0.3685189382,
				"element": "C" 
			},
			{
				"x": 1.5972920093,
				"y": -1.5398037652,
				"z": -0.7654113131,
				"element": "C" 
			},
			{
				"x": 1.1461956194,
				"y": -0.1270978783,
				"z": -0.4042716337,
				"element": "C" 
			},
			{
				"x": 2.0062345414,
				"y": 0.9715760247,
				"z": -0.8361218151,
				"element": "N" 
			},
			{
				"x": 1.9656225189,
				"y": 1.8377807319,
				"z": 1.2788360808,
				"element": "H" 
			},
			{
				"x": 1.426256533,
				"y": 2.7136036264,
				"z": -1.904476908,
				"element": "H" 
			},
			{
				"x": -0.8907432158,
				"y": 2.2787438243,
				"z": -1.5728858683,
				"element": "H" 
			},
			{
				"x": -0.6599414465,
				"y": 1.9331836447,
				"z": 0.1428844203,
				"element": "H" 
			},
			{
				"x": 0.0104212223,
				"y": 0.0794612481,
				"z": -2.1872156606,
				"element": "H" 
			},
			{
				"x": -1.491078353,
				"y": -0.5618335956,
				"z": 0.4013205159,
				"element": "H" 
			},
			{
				"x": -2.2318108334,
				"y": -0.4478448111,
				"z": -1.1928787875,
				"element": "H" 
			},
			{
				"x": -1.6589624002,
				"y": -2.8399009409,
				"z": -0.5891086909,
				"element": "H" 
			},
			{
				"x": -0.8583385664,
				"y": -2.2946699085,
				"z": -2.0550504701,
				"element": "H" 
			},
			{
				"x": 0.3987287832,
				"y": -2.5499265857,
				"z": 0.7273377397,
				"element": "H" 
			},
			{
				"x": 0.7521965554,
				"y": -3.543251627,
				"z": -0.6762722602,
				"element": "H" 
			},
			{
				"x": 2.5327106745,
				"y": -1.8037409924,
				"z": -0.2557557692,
				"element": "H" 
			},
			{
				"x": 1.7944337639,
				"y": -1.5855171588,
				"z": -1.8439614183,
				"element": "H" 
			},
			{
				"x": 0.9484819095,
				"y": -0.1186644759,
				"z": 0.6901217913,
				"element": "H" 
			},
			{
				"x": 2.9364432213,
				"y": 1.037860432,
				"z": -0.4420328734,
				"element": "H" 
			}
		],
		 "valence_orbital": [ 
			{
				"type": "occ",
				"energy": -0.32254,
				"method": "rhf"
			},
			{
				"type": "occ",
				"energy": -0.31009,
				"method": "rhf"
			},
			{
				"type": "occ",
				"energy": -0.30552,
				"method": "rhf"
			},
			{
				"type": "occ",
				"energy": -0.27194,
				"method": "rhf"
			},
			{
				"type": "occ",
				"energy": -0.22894,
				"method": "rhf"
			},
			{
				"type": "unocc",
				"energy": 0.0127,
				"method": "rhf"
			},
			{
				"type": "unocc",
				"energy": 0.04713,
				"method": "rhf"
			},
			{
				"type": "unocc",
				"energy": 0.07984,
				"method": "rhf"
			},
			{
				"type": "unocc",
				"energy": 0.0916,
				"method": "rhf"
			},
			{
				"type": "unocc",
				"energy": 0.10377,
				"method": "rhf"
			}
		],
		"cosmo_sigma_profile": { 
			"-0.025": 0.0,
			"-0.024": 0.0,
			"-0.023": 0.0,
			"-0.022": 0.0,
			"-0.021": 0.0,
			"-0.02": 0.0,
			"-0.019": 0.0,
			"-0.018": 0.0,
			"-0.017": 0.0,
			"-0.016": 0.193850669966,
			"-0.015": 1.23663006266,
			"-0.014": 1.17163208605,
			"-0.013": 1.3635832394,
			"-0.012": 2.66697120921,
			"-0.011": 2.69882621189,
			"-0.01": 2.16295906456,
			"-0.009": 1.93867423398,
			"-0.008": 1.53363298042,
			"-0.007": 2.28322180272,
			"-0.006": 2.54735825695,
			"-0.005": 4.47005342155,
			"-0.004": 9.63852034821,
			"-0.003": 17.0504690047,
			"-0.002": 34.1009511155,
			"-0.001": 32.4093036749,
			"0.0": 26.9927527106,
			"0.001": 17.789631491,
			"0.002": 4.72176420144,
			"0.003": 2.88977906455,
			"0.004": 2.44583529587,
			"0.005": 3.09650454101,
			"0.006": 2.70496040039,
			"0.007": 2.78653377362,
			"0.008": 3.31843333372,
			"0.009": 4.04284378034,
			"0.01": 4.85422764203,
			"0.011": 6.02050392588,
			"0.012": 6.17331916188,
			"0.013": 3.827088542,
			"0.014": 0.639347874035,
			"0.015": 0.281742969051,
			"0.016": 0.0,
			"0.017": 0.0,
			"0.018": 0.0,
			"0.019": 0.0,
			"0.02": 0.0,
			"0.021": 0.0,
			"0.022": 0.0,
			"0.023": 0.0,
			"0.024": 0.0,
			"0.025": 0.0
		}
	}
}
