{
	 "smiles": "CC(=O)C1=C(C)N=C(S1)C1=CC=C(O)C=C1", 
	 "Tm": 407.15, 
	 "num_atms": 27, 
	 "gaussian": { 
		 "optdone": 1, 
		 "sigma_profile": "yes", 
		 "theory": "DFT", 
		 "functional": "B3LYP", 
		 "basiset": "6-31G**", 
		 "properties": { 
			 "R2extent": 5717.3136, 
			 "electric_dipole_moment_norm": 4.7474840758, 
			 "electric_quadrupole_moment_norm": 8.91599076603, 
			 "total_energy": -1067.30172127, 
			 "HOMO_LUMO_gap": 0.14247, 
			 "cosmo_polarized_energy": -14.41, 
			 "cosmo_cavitation_energy": 33.02, 
			 "cosmo_dispersion_energy": -24.55, 
			 "cosmo_repulsion_energy": 1.85, 
			 "cosmo_total_nonelectrostatic_energy": 10.33, 
			 "SMD_solvation_energy": 5.18 
		},
		"coords": [
			{
				"x": 3.5081665104,
				"y": 1.958684571,
				"z": 1.7651324153,
				"element": "C" 
			},
			{
				"x": 2.9949572697,
				"y": 0.5934389747,
				"z": 2.1933223902,
				"element": "C" 
			},
			{
				"x": 3.6715631139,
				"y": -0.1421725304,
				"z": 2.9044740371,
				"element": "O" 
			},
			{
				"x": 1.6623585633,
				"y": 0.1733700159,
				"z": 1.7337916253,
				"element": "C" 
			},
			{
				"x": 1.017616291,
				"y": -1.0250280294,
				"z": 2.0122076655,
				"element": "C" 
			},
			{
				"x": 1.5638177577,
				"y": -2.1430667911,
				"z": 2.8496359752,
				"element": "C" 
			},
			{
				"x": -0.2230829601,
				"y": -1.1616330306,
				"z": 1.4563233038,
				"element": "N" 
			},
			{
				"x": -0.5807332017,
				"y": -0.1127083402,
				"z": 0.7484408263,
				"element": "C" 
			},
			{
				"x": 0.6296947181,
				"y": 1.1608584288,
				"z": 0.7171377577,
				"element": "S" 
			},
			{
				"x": -1.8620418865,
				"y": -0.0081370676,
				"z": 0.0507287205,
				"element": "C" 
			},
			{
				"x": -2.2225568501,
				"y": 1.1215279812,
				"z": -0.7011242546,
				"element": "C" 
			},
			{
				"x": -3.4496681795,
				"y": 1.1866861287,
				"z": -1.351666445,
				"element": "C" 
			},
			{
				"x": -4.3461019451,
				"y": 0.1141807042,
				"z": -1.2613227386,
				"element": "C" 
			},
			{
				"x": -5.5611694378,
				"y": 0.116368797,
				"z": -1.8739717698,
				"element": "O" 
			},
			{
				"x": -4.001506182,
				"y": -1.0212632478,
				"z": -0.5145919354,
				"element": "C" 
			},
			{
				"x": -2.7763075742,
				"y": -1.078281787,
				"z": 0.1308577792,
				"element": "C" 
			},
			{
				"x": 3.5633134215,
				"y": 2.0309984868,
				"z": 0.6728733845,
				"element": "H" 
			},
			{
				"x": 4.5013347961,
				"y": 2.110811161,
				"z": 2.1890488429,
				"element": "H" 
			},
			{
				"x": 2.8386165804,
				"y": 2.7545122607,
				"z": 2.1110559976,
				"element": "H" 
			},
			{
				"x": 2.507360792,
				"y": -2.5149227027,
				"z": 2.4402384191,
				"element": "H" 
			},
			{
				"x": 0.8326246717,
				"y": -2.9522468143,
				"z": 2.8885755053,
				"element": "H" 
			},
			{
				"x": 1.7912521167,
				"y": -1.7993855813,
				"z": 3.8627075529,
				"element": "H" 
			},
			{
				"x": -1.5416387879,
				"y": 1.964052906,
				"z": -0.7839445777,
				"element": "H" 
			},
			{
				"x": -3.7126974837,
				"y": 2.0695888669,
				"z": -1.9298983043,
				"element": "H" 
			},
			{
				"x": -5.679521717,
				"y": 0.9472609063,
				"z": -2.352998415,
				"element": "H" 
			},
			{
				"x": -4.7079374659,
				"y": -1.8424537002,
				"z": -0.4554909862,
				"element": "H" 
			},
			{
				"x": -2.4993129309,
				"y": -1.951240567,
				"z": 0.711057228,
				"element": "H" 
			}
		],
		 "valence_orbital": [ 
			{
				"type": "occ",
				"energy": -0.27641,
				"method": "rhf"
			},
			{
				"type": "occ",
				"energy": -0.26686,
				"method": "rhf"
			},
			{
				"type": "occ",
				"energy": -0.26425,
				"method": "rhf"
			},
			{
				"type": "occ",
				"energy": -0.24608,
				"method": "rhf"
			},
			{
				"type": "occ",
				"energy": -0.21475,
				"method": "rhf"
			},
			{
				"type": "unocc",
				"energy": -0.07228,
				"method": "rhf"
			},
			{
				"type": "unocc",
				"energy": -0.01669,
				"method": "rhf"
			},
			{
				"type": "unocc",
				"energy": -0.01203,
				"method": "rhf"
			},
			{
				"type": "unocc",
				"energy": 0.01294,
				"method": "rhf"
			},
			{
				"type": "unocc",
				"energy": 0.04567,
				"method": "rhf"
			}
		],
		"cosmo_sigma_profile": { 
			"-0.025": 0.0,
			"-0.024": 0.0,
			"-0.023": 0.0,
			"-0.022": 0.0,
			"-0.021": 0.0,
			"-0.02": 0.0,
			"-0.019": 0.134105563438,
			"-0.018": 1.01936827752,
			"-0.017": 1.24938334616,
			"-0.016": 0.846192880917,
			"-0.015": 1.12009334609,
			"-0.014": 1.3758247389,
			"-0.013": 0.513717937923,
			"-0.012": 0.813485776882,
			"-0.011": 1.51581615404,
			"-0.01": 1.21558885496,
			"-0.009": 1.01252246198,
			"-0.008": 1.31982338721,
			"-0.007": 4.53719636012,
			"-0.006": 10.9920751151,
			"-0.005": 15.4433207408,
			"-0.004": 17.1310373102,
			"-0.003": 17.3319050501,
			"-0.002": 20.6059417125,
			"-0.001": 22.5327037915,
			"0.0": 26.4889950354,
			"0.001": 22.6486584713,
			"0.002": 21.8364937231,
			"0.003": 21.2827726007,
			"0.004": 14.9800729552,
			"0.005": 5.12599174144,
			"0.006": 4.39992736307,
			"0.007": 4.7016721027,
			"0.008": 4.26403788004,
			"0.009": 4.60477981921,
			"0.01": 4.82879621525,
			"0.011": 4.01867645671,
			"0.012": 3.29535408042,
			"0.013": 1.93344117217,
			"0.014": 0.375687656055,
			"0.015": 0.0,
			"0.016": 0.0,
			"0.017": 0.0,
			"0.018": 0.0,
			"0.019": 0.0,
			"0.02": 0.0,
			"0.021": 0.0,
			"0.022": 0.0,
			"0.023": 0.0,
			"0.024": 0.0,
			"0.025": 0.0
		}
	}
}
