{
	 "smiles": "OC(=O)C1=C(F)C(F)=CC(F)=C1F", 
	 "Tm": 424.15, 
	 "num_atms": 15, 
	 "gaussian": { 
		 "optdone": 1, 
		 "sigma_profile": "yes", 
		 "theory": "DFT", 
		 "functional": "B3LYP", 
		 "basiset": "6-31G**", 
		 "properties": { 
			 "R2extent": 2783.382, 
			 "electric_dipole_moment_norm": 4.50016072269, 
			 "electric_quadrupole_moment_norm": 9.27643433923, 
			 "total_energy": -817.714418586, 
			 "HOMO_LUMO_gap": 0.19172, 
			 "cosmo_polarized_energy": -11.89, 
			 "cosmo_cavitation_energy": 22.22, 
			 "cosmo_dispersion_energy": -16.23, 
			 "cosmo_repulsion_energy": 1.19, 
			 "cosmo_total_nonelectrostatic_energy": 7.18, 
			 "SMD_solvation_energy": 6.9 
		},
		"coords": [
			{
				"x": 1.2491542277,
				"y": 0.9444409727,
				"z": -1.5456383219,
				"element": "O" 
			},
			{
				"x": 0.2973673779,
				"y": -0.0104477263,
				"z": -1.5510409768,
				"element": "C" 
			},
			{
				"x": 0.3362302577,
				"y": -0.9073102595,
				"z": -2.3550233943,
				"element": "O" 
			},
			{
				"x": -0.8040990164,
				"y": 0.1005405918,
				"z": -0.513406807,
				"element": "C" 
			},
			{
				"x": -0.8914208498,
				"y": 1.1255741628,
				"z": 0.4418824498,
				"element": "C" 
			},
			{
				"x": 0.042187721,
				"y": 2.1130605702,
				"z": 0.4915664706,
				"element": "F" 
			},
			{
				"x": -1.916084757,
				"y": 1.1940123709,
				"z": 1.3771987737,
				"element": "C" 
			},
			{
				"x": -1.9288512749,
				"y": 2.2043207557,
				"z": 2.2560630142,
				"element": "F" 
			},
			{
				"x": -2.9122602934,
				"y": 0.2278473071,
				"z": 1.3993175139,
				"element": "C" 
			},
			{
				"x": -2.8520288094,
				"y": -0.7969627284,
				"z": 0.467379459,
				"element": "C" 
			},
			{
				"x": -3.7942296836,
				"y": -1.7469656472,
				"z": 0.4571895371,
				"element": "F" 
			},
			{
				"x": -1.8233432901,
				"y": -0.8698662984,
				"z": -0.4751884977,
				"element": "C" 
			},
			{
				"x": -1.8568621377,
				"y": -1.8912790266,
				"z": -1.3239961168,
				"element": "F" 
			},
			{
				"x": 1.0956387424,
				"y": 1.6015594595,
				"z": -0.8500229524,
				"element": "H" 
			},
			{
				"x": -3.7150982144,
				"y": 0.2732754955,
				"z": 2.1251198486,
				"element": "H" 
			}
		],
		 "valence_orbital": [ 
			{
				"type": "occ",
				"energy": -0.37624,
				"method": "rhf"
			},
			{
				"type": "occ",
				"energy": -0.32579,
				"method": "rhf"
			},
			{
				"type": "occ",
				"energy": -0.29826,
				"method": "rhf"
			},
			{
				"type": "occ",
				"energy": -0.28566,
				"method": "rhf"
			},
			{
				"type": "occ",
				"energy": -0.27006,
				"method": "rhf"
			},
			{
				"type": "unocc",
				"energy": -0.07834,
				"method": "rhf"
			},
			{
				"type": "unocc",
				"energy": -0.03087,
				"method": "rhf"
			},
			{
				"type": "unocc",
				"energy": 0.01636,
				"method": "rhf"
			},
			{
				"type": "unocc",
				"energy": 0.03331,
				"method": "rhf"
			},
			{
				"type": "unocc",
				"energy": 0.07884,
				"method": "rhf"
			}
		],
		"cosmo_sigma_profile": { 
			"-0.025": 0.0,
			"-0.024": 0.0,
			"-0.023": 0.0,
			"-0.022": 0.0,
			"-0.021": 0.0,
			"-0.02": 0.0,
			"-0.019": 0.0,
			"-0.018": 0.0,
			"-0.017": 0.0,
			"-0.016": 0.0,
			"-0.015": 0.000775977911295,
			"-0.014": 0.522183669077,
			"-0.013": 0.435663181814,
			"-0.012": 0.936816258301,
			"-0.011": 3.44418186675,
			"-0.01": 3.28122334026,
			"-0.009": 3.70148172917,
			"-0.008": 3.21506788621,
			"-0.007": 2.85226086288,
			"-0.006": 4.29299660213,
			"-0.005": 7.23150954466,
			"-0.004": 18.493010983,
			"-0.003": 17.4355553931,
			"-0.002": 13.4496687433,
			"-0.001": 8.29988639755,
			"0.0": 7.73358801552,
			"0.001": 10.3440322944,
			"0.002": 20.2452519262,
			"0.003": 21.5088869971,
			"0.004": 3.05900438943,
			"0.005": 3.04172855737,
			"0.006": 3.18873713865,
			"0.007": 2.2584671523,
			"0.008": 3.14608053844,
			"0.009": 4.53722603409,
			"0.01": 5.69167281561,
			"0.011": 6.11517448697,
			"0.012": 2.16879837279,
			"0.013": 0.216193976219,
			"0.014": 0.0,
			"0.015": 0.0,
			"0.016": 0.0,
			"0.017": 0.0,
			"0.018": 0.0,
			"0.019": 0.0,
			"0.02": 0.0,
			"0.021": 0.0,
			"0.022": 0.0,
			"0.023": 0.0,
			"0.024": 0.0,
			"0.025": 0.0
		}
	}
}
