{
	 "smiles": "CC(C)(C)OC(=O)NC(CC1=CC=C(Br)C=C1)C(O)=O", 
	 "Tm": 391.15, 
	 "num_atms": 38, 
	 "gaussian": { 
		 "optdone": 1, 
		 "sigma_profile": "yes", 
		 "theory": "DFT", 
		 "functional": "B3LYP", 
		 "basiset": "6-31G**", 
		 "properties": { 
			 "R2extent": 10300.2166, 
			 "electric_dipole_moment_norm": 3.82330489237, 
			 "electric_quadrupole_moment_norm": 19.9457363923, 
			 "total_energy": -3471.44407916, 
			 "HOMO_LUMO_gap": 0.21961, 
			 "cosmo_polarized_energy": -17.96, 
			 "cosmo_cavitation_energy": 43.58, 
			 "cosmo_dispersion_energy": -28.92, 
			 "cosmo_repulsion_energy": 2.25, 
			 "cosmo_total_nonelectrostatic_energy": 16.9, 
			 "SMD_solvation_energy": 7.81 
		},
		"coords": [
			{
				"x": 3.6479463462,
				"y": -1.5499563282,
				"z": -0.3856890472,
				"element": "C" 
			},
			{
				"x": 2.9804758945,
				"y": -1.5075885294,
				"z": 0.9911553088,
				"element": "C" 
			},
			{
				"x": 3.9524671819,
				"y": -0.9755337818,
				"z": 2.0492336411,
				"element": "C" 
			},
			{
				"x": 2.4036798098,
				"y": -2.8774960515,
				"z": 1.361179909,
				"element": "C" 
			},
			{
				"x": 1.8837520136,
				"y": -0.5411376483,
				"z": 0.7865081818,
				"element": "O" 
			},
			{
				"x": 1.1050417143,
				"y": -0.155641318,
				"z": 1.8225196704,
				"element": "C" 
			},
			{
				"x": 1.0825837623,
				"y": -0.650093443,
				"z": 2.9350438644,
				"element": "O" 
			},
			{
				"x": 0.2556554226,
				"y": 0.8655302351,
				"z": 1.4503454421,
				"element": "N" 
			},
			{
				"x": 0.4102680982,
				"y": 1.7471916626,
				"z": 0.3095047436,
				"element": "C" 
			},
			{
				"x": 0.0919307139,
				"y": 1.0832041185,
				"z": -1.0608580888,
				"element": "C" 
			},
			{
				"x": -1.3286969247,
				"y": 0.5737075681,
				"z": -1.1449683639,
				"element": "C" 
			},
			{
				"x": -2.3549236827,
				"y": 1.3929680195,
				"z": -1.6336904661,
				"element": "C" 
			},
			{
				"x": -3.6746116634,
				"y": 0.9444409052,
				"z": -1.6972716173,
				"element": "C" 
			},
			{
				"x": -3.9707165951,
				"y": -0.3464713146,
				"z": -1.2648263466,
				"element": "C" 
			},
			{
				"x": -5.7747469139,
				"y": -0.9768608185,
				"z": -1.3505625225,
				"element": "Br" 
			},
			{
				"x": -2.9720287071,
				"y": -1.1868878072,
				"z": -0.7763625734,
				"element": "C" 
			},
			{
				"x": -1.6590339111,
				"y": -0.7197869743,
				"z": -0.7196110724,
				"element": "C" 
			},
			{
				"x": 1.7756085145,
				"y": 2.4533918437,
				"z": 0.3200641264,
				"element": "C" 
			},
			{
				"x": 1.9361356868,
				"y": 3.2297490337,
				"z": -0.7785656561,
				"element": "O" 
			},
			{
				"x": 2.6019090018,
				"y": 2.3861403493,
				"z": 1.1990638396,
				"element": "O" 
			},
			{
				"x": 4.0249703335,
				"y": -0.5612091408,
				"z": -0.6628176123,
				"element": "H" 
			},
			{
				"x": 4.4890666228,
				"y": -2.2493099125,
				"z": -0.3722993508,
				"element": "H" 
			},
			{
				"x": 2.9393630402,
				"y": -1.8797959815,
				"z": -1.151622482,
				"element": "H" 
			},
			{
				"x": 4.2659229855,
				"y": 0.0410613553,
				"z": 1.795449534,
				"element": "H" 
			},
			{
				"x": 3.4894128998,
				"y": -0.9622752566,
				"z": 3.0360745964,
				"element": "H" 
			},
			{
				"x": 4.839735649,
				"y": -1.6161109083,
				"z": 2.0837690519,
				"element": "H" 
			},
			{
				"x": 1.6962348363,
				"y": -3.2141186404,
				"z": 0.5961607965,
				"element": "H" 
			},
			{
				"x": 1.8930970508,
				"y": -2.8359360429,
				"z": 2.3233014457,
				"element": "H" 
			},
			{
				"x": 3.2130381054,
				"y": -3.6127233914,
				"z": 1.4194743457,
				"element": "H" 
			},
			{
				"x": -0.2609413564,
				"y": 1.2188524371,
				"z": 2.2416239548,
				"element": "H" 
			},
			{
				"x": -0.3254649078,
				"y": 2.5497735247,
				"z": 0.4458714259,
				"element": "H" 
			},
			{
				"x": 0.8010255103,
				"y": 0.2687511394,
				"z": -1.2200923653,
				"element": "H" 
			},
			{
				"x": 0.2669405732,
				"y": 1.8318863255,
				"z": -1.8373912808,
				"element": "H" 
			},
			{
				"x": -2.1226914819,
				"y": 2.397677872,
				"z": -1.9795204265,
				"element": "H" 
			},
			{
				"x": -4.4595312886,
				"y": 1.5855442438,
				"z": -2.0822394491,
				"element": "H" 
			},
			{
				"x": -3.2159941191,
				"y": -2.190368533,
				"z": -0.4465572596,
				"element": "H" 
			},
			{
				"x": -0.8782633127,
				"y": -1.3729367753,
				"z": -0.3416180743,
				"element": "H" 
			},
			{
				"x": 2.7996830975,
				"y": 3.665067964,
				"z": -0.678879823,
				"element": "H" 
			}
		],
		 "valence_orbital": [ 
			{
				"type": "occ",
				"energy": -0.28563,
				"method": "rhf"
			},
			{
				"type": "occ",
				"energy": -0.26859,
				"method": "rhf"
			},
			{
				"type": "occ",
				"energy": -0.26443,
				"method": "rhf"
			},
			{
				"type": "occ",
				"energy": -0.25663,
				"method": "rhf"
			},
			{
				"type": "occ",
				"energy": -0.2382,
				"method": "rhf"
			},
			{
				"type": "unocc",
				"energy": -0.01859,
				"method": "rhf"
			},
			{
				"type": "unocc",
				"energy": -0.01438,
				"method": "rhf"
			},
			{
				"type": "unocc",
				"energy": -0.00222,
				"method": "rhf"
			},
			{
				"type": "unocc",
				"energy": 0.00805,
				"method": "rhf"
			},
			{
				"type": "unocc",
				"energy": 0.04567,
				"method": "rhf"
			}
		],
		"cosmo_sigma_profile": { 
			"-0.025": 0.0,
			"-0.024": 0.0,
			"-0.023": 0.0,
			"-0.022": 0.0,
			"-0.021": 0.0,
			"-0.02": 0.0,
			"-0.019": 0.105894386704,
			"-0.018": 0.965912894529,
			"-0.017": 1.05717414257,
			"-0.016": 0.622142166391,
			"-0.015": 0.959266310901,
			"-0.014": 2.14715702496,
			"-0.013": 1.50816666422,
			"-0.012": 2.48953413025,
			"-0.011": 2.81218997185,
			"-0.01": 1.32139530577,
			"-0.009": 2.58100437266,
			"-0.008": 2.91560426479,
			"-0.007": 5.88260147845,
			"-0.006": 10.9923990657,
			"-0.005": 11.9063141286,
			"-0.004": 22.0418028282,
			"-0.003": 27.0356310619,
			"-0.002": 28.6400851868,
			"-0.001": 30.8208097818,
			"0.0": 36.6243828735,
			"0.001": 30.8432050901,
			"0.002": 21.1930231339,
			"0.003": 20.935848902,
			"0.004": 26.4540286854,
			"0.005": 18.6513897701,
			"0.006": 7.23811638581,
			"0.007": 4.29862050571,
			"0.008": 4.08821246686,
			"0.009": 3.43128358839,
			"0.01": 3.27082845964,
			"0.011": 4.96848944096,
			"0.012": 2.68000204995,
			"0.013": 3.48951709214,
			"0.014": 1.11962279235,
			"0.015": 0.0,
			"0.016": 0.0,
			"0.017": 0.0,
			"0.018": 0.0,
			"0.019": 0.0,
			"0.02": 0.0,
			"0.021": 0.0,
			"0.022": 0.0,
			"0.023": 0.0,
			"0.024": 0.0,
			"0.025": 0.0
		}
	}
}
