{
	 "smiles": "C1CN(CCO1)C1=C2N=CNC2=NC=N1", 
	 "Tm": 575.15, 
	 "num_atms": 26, 
	 "gaussian": { 
		 "optdone": 1, 
		 "sigma_profile": "yes", 
		 "theory": "DFT", 
		 "functional": "B3LYP", 
		 "basiset": "6-31G**", 
		 "properties": { 
			 "R2extent": 3765.5529, 
			 "electric_dipole_moment_norm": 2.77725039743, 
			 "electric_quadrupole_moment_norm": 21.3653030344, 
			 "total_energy": -698.55973531, 
			 "HOMO_LUMO_gap": 0.18792, 
			 "cosmo_polarized_energy": -15.36, 
			 "cosmo_cavitation_energy": 28.35, 
			 "cosmo_dispersion_energy": -21.89, 
			 "cosmo_repulsion_energy": 1.7, 
			 "cosmo_total_nonelectrostatic_energy": 8.16, 
			 "SMD_solvation_energy": 0.54 
		},
		"coords": [
			{
				"x": 1.0379099285,
				"y": -2.7162432353,
				"z": 1.7168720186,
				"element": "C" 
			},
			{
				"x": 1.4763123974,
				"y": -1.9545874616,
				"z": 0.4668394415,
				"element": "C" 
			},
			{
				"x": 0.9474525926,
				"y": -0.5836416069,
				"z": 0.5229300116,
				"element": "N" 
			},
			{
				"x": 0.099995027,
				"y": -0.2618089626,
				"z": 1.668631007,
				"element": "C" 
			},
			{
				"x": 0.7868188419,
				"y": -0.694395998,
				"z": 2.9671904561,
				"element": "C" 
			},
			{
				"x": 1.3601457419,
				"y": -2.003891062,
				"z": 2.8996450813,
				"element": "O" 
			},
			{
				"x": 1.2389276316,
				"y": 0.2837169818,
				"z": -0.4810611409,
				"element": "C" 
			},
			{
				"x": 0.8163429892,
				"y": 1.6421163392,
				"z": -0.553002992,
				"element": "C" 
			},
			{
				"x": 0.0558477149,
				"y": 2.4638546431,
				"z": 0.2703058844,
				"element": "N" 
			},
			{
				"x": 0.0299625524,
				"y": 3.6195029327,
				"z": -0.3461889313,
				"element": "C" 
			},
			{
				"x": 0.7285162418,
				"y": 3.615398936,
				"z": -1.532319416,
				"element": "N" 
			},
			{
				"x": 1.2467201432,
				"y": 2.3483590451,
				"z": -1.68705912,
				"element": "C" 
			},
			{
				"x": 1.9994567155,
				"y": 1.8978319584,
				"z": -2.6979344462,
				"element": "N" 
			},
			{
				"x": 2.32670857,
				"y": 0.6170913902,
				"z": -2.5102281546,
				"element": "C" 
			},
			{
				"x": 1.9992759879,
				"y": -0.190762185,
				"z": -1.4934518839,
				"element": "N" 
			},
			{
				"x": 1.5796454581,
				"y": -3.6644462086,
				"z": 1.7714241369,
				"element": "H" 
			},
			{
				"x": -0.0360971368,
				"y": -2.9569168861,
				"z": 1.672047995,
				"element": "H" 
			},
			{
				"x": 1.1286738983,
				"y": -2.4654542019,
				"z": -0.4398054437,
				"element": "H" 
			},
			{
				"x": 2.5692538791,
				"y": -1.9170899883,
				"z": 0.4128924824,
				"element": "H" 
			},
			{
				"x": -0.0971159077,
				"y": 0.8097601313,
				"z": 1.6902325898,
				"element": "H" 
			},
			{
				"x": -0.8709870718,
				"y": -0.7666896666,
				"z": 1.56552079,
				"element": "H" 
			},
			{
				"x": 0.0560115821,
				"y": -0.6566376416,
				"z": 3.7883409263,
				"element": "H" 
			},
			{
				"x": 1.5997469316,
				"y": 0.0024226334,
				"z": 3.2058149157,
				"element": "H" 
			},
			{
				"x": -0.4784409282,
				"y": 4.504696193,
				"z": 0.0117606078,
				"element": "H" 
			},
			{
				"x": 0.8530366234,
				"y": 4.3804659875,
				"z": -2.1780485943,
				"element": "H" 
			},
			{
				"x": 2.9416795956,
				"y": 0.1633479328,
				"z": -3.2855482216,
				"element": "H" 
			}
		],
		 "valence_orbital": [ 
			{
				"type": "occ",
				"energy": -0.27736,
				"method": "rhf"
			},
			{
				"type": "occ",
				"energy": -0.26049,
				"method": "rhf"
			},
			{
				"type": "occ",
				"energy": -0.25055,
				"method": "rhf"
			},
			{
				"type": "occ",
				"energy": -0.24414,
				"method": "rhf"
			},
			{
				"type": "occ",
				"energy": -0.2062,
				"method": "rhf"
			},
			{
				"type": "unocc",
				"energy": -0.01828,
				"method": "rhf"
			},
			{
				"type": "unocc",
				"energy": 0.01054,
				"method": "rhf"
			},
			{
				"type": "unocc",
				"energy": 0.04075,
				"method": "rhf"
			},
			{
				"type": "unocc",
				"energy": 0.07655,
				"method": "rhf"
			},
			{
				"type": "unocc",
				"energy": 0.09153,
				"method": "rhf"
			}
		],
		"cosmo_sigma_profile": { 
			"-0.025": 0.0,
			"-0.024": 0.0,
			"-0.023": 0.0,
			"-0.022": 0.0,
			"-0.021": 0.0,
			"-0.02": 0.0,
			"-0.019": 0.0,
			"-0.018": 0.0,
			"-0.017": 1.09467406892,
			"-0.016": 1.65319349168,
			"-0.015": 1.52557196213,
			"-0.014": 0.917483930345,
			"-0.013": 0.935364044451,
			"-0.012": 1.271786687,
			"-0.011": 1.20853859765,
			"-0.01": 2.72106077401,
			"-0.009": 3.03515290213,
			"-0.008": 2.52875783958,
			"-0.007": 2.59016026737,
			"-0.006": 6.45198151351,
			"-0.005": 17.3138017841,
			"-0.004": 24.2126212495,
			"-0.003": 18.6827163282,
			"-0.002": 14.4096553761,
			"-0.001": 10.8908964048,
			"0.0": 18.3605505481,
			"0.001": 19.9490411914,
			"0.002": 10.4834158516,
			"0.003": 8.67878176062,
			"0.004": 7.82510508436,
			"0.005": 8.1217182819,
			"0.006": 4.98526577808,
			"0.007": 4.97674556853,
			"0.008": 6.23453627725,
			"0.009": 3.91094984843,
			"0.01": 3.85879795799,
			"0.011": 5.3596795538,
			"0.012": 4.24367013162,
			"0.013": 3.56568715622,
			"0.014": 1.91829416692,
			"0.015": 0.674203562956,
			"0.016": 0.703572665109,
			"0.017": 0.0364810105155,
			"0.018": 0.0,
			"0.019": 0.0,
			"0.02": 0.0,
			"0.021": 0.0,
			"0.022": 0.0,
			"0.023": 0.0,
			"0.024": 0.0,
			"0.025": 0.0
		}
	}
}
