{
	 "smiles": "BrCC(=O)C1=CC2=C(OCC2)C=C1", 
	 "Tm": 346.15, 
	 "num_atms": 22, 
	 "gaussian": { 
		 "optdone": 1, 
		 "sigma_profile": "yes", 
		 "theory": "DFT", 
		 "functional": "B3LYP", 
		 "basiset": "6-31G**", 
		 "properties": { 
			 "R2extent": 5641.431, 
			 "electric_dipole_moment_norm": 6.13043738325, 
			 "electric_quadrupole_moment_norm": 12.2221428285, 
			 "total_energy": -3108.33101095, 
			 "HOMO_LUMO_gap": 0.17548, 
			 "cosmo_polarized_energy": -14.13, 
			 "cosmo_cavitation_energy": 28.08, 
			 "cosmo_dispersion_energy": -21.46, 
			 "cosmo_repulsion_energy": 1.71, 
			 "cosmo_total_nonelectrostatic_energy": 8.33, 
			 "SMD_solvation_energy": 4.09 
		},
		"coords": [
			{
				"x": 0.7916422624,
				"y": -1.2319281164,
				"z": 4.9084625948,
				"element": "Br" 
			},
			{
				"x": 0.4208542563,
				"y": -0.3641906837,
				"z": 3.1999488464,
				"element": "C" 
			},
			{
				"x": 0.2151130512,
				"y": -1.3536404627,
				"z": 2.0456583747,
				"element": "C" 
			},
			{
				"x": 0.2846669234,
				"y": -2.5575684174,
				"z": 2.2130165019,
				"element": "O" 
			},
			{
				"x": -0.0748698278,
				"y": -0.7597011577,
				"z": 0.7084552645,
				"element": "C" 
			},
			{
				"x": -0.155536628,
				"y": 0.6306546935,
				"z": 0.4776150856,
				"element": "C" 
			},
			{
				"x": -0.4378720224,
				"y": 1.093246123,
				"z": -0.7964858279,
				"element": "C" 
			},
			{
				"x": -0.6351221783,
				"y": 0.1821880986,
				"z": -1.8414787908,
				"element": "C" 
			},
			{
				"x": -0.8996902893,
				"y": 0.7741253853,
				"z": -3.0323434983,
				"element": "O" 
			},
			{
				"x": -1.0755312494,
				"y": 2.1984823309,
				"z": -2.7952226983,
				"element": "C" 
			},
			{
				"x": -0.5418097572,
				"y": 2.4893337943,
				"z": -1.3701639704,
				"element": "C" 
			},
			{
				"x": -0.5553480132,
				"y": -1.1969338603,
				"z": -1.6502490309,
				"element": "C" 
			},
			{
				"x": -0.273879843,
				"y": -1.6490616232,
				"z": -0.3651240627,
				"element": "C" 
			},
			{
				"x": -0.4708435316,
				"y": 0.2481846772,
				"z": 3.3457040627,
				"element": "H" 
			},
			{
				"x": 1.2645589497,
				"y": 0.2971383543,
				"z": 2.9943596476,
				"element": "H" 
			},
			{
				"x": 0.0009782729,
				"y": 1.3408236931,
				"z": 1.2838899414,
				"element": "H" 
			},
			{
				"x": -0.5401855732,
				"y": 2.7306175623,
				"z": -3.584030117,
				"element": "H" 
			},
			{
				"x": -2.1452671007,
				"y": 2.4183465006,
				"z": -2.8824702948,
				"element": "H" 
			},
			{
				"x": -1.2192757657,
				"y": 3.1407220796,
				"z": -0.8096921657,
				"element": "H" 
			},
			{
				"x": 0.4379028603,
				"y": 2.9815298012,
				"z": -1.3982417758,
				"element": "H" 
			},
			{
				"x": -0.7130216704,
				"y": -1.881210938,
				"z": -2.4764962411,
				"element": "H" 
			},
			{
				"x": -0.2050631259,
				"y": -2.7112578345,
				"z": -0.1565118459,
				"element": "H" 
			}
		],
		 "valence_orbital": [ 
			{
				"type": "occ",
				"energy": -0.27093,
				"method": "rhf"
			},
			{
				"type": "occ",
				"energy": -0.26901,
				"method": "rhf"
			},
			{
				"type": "occ",
				"energy": -0.26574,
				"method": "rhf"
			},
			{
				"type": "occ",
				"energy": -0.25662,
				"method": "rhf"
			},
			{
				"type": "occ",
				"energy": -0.22996,
				"method": "rhf"
			},
			{
				"type": "unocc",
				"energy": -0.05448,
				"method": "rhf"
			},
			{
				"type": "unocc",
				"energy": -0.02028,
				"method": "rhf"
			},
			{
				"type": "unocc",
				"energy": 0.00545,
				"method": "rhf"
			},
			{
				"type": "unocc",
				"energy": 0.04185,
				"method": "rhf"
			},
			{
				"type": "unocc",
				"energy": 0.07942,
				"method": "rhf"
			}
		],
		"cosmo_sigma_profile": { 
			"-0.025": 0.0,
			"-0.024": 0.0,
			"-0.023": 0.0,
			"-0.022": 0.0,
			"-0.021": 0.0,
			"-0.02": 0.0,
			"-0.019": 0.0,
			"-0.018": 0.0,
			"-0.017": 0.0,
			"-0.016": 0.0,
			"-0.015": 0.0,
			"-0.014": 0.0,
			"-0.013": 0.0,
			"-0.012": 0.0,
			"-0.011": 0.0,
			"-0.01": 0.0643630450714,
			"-0.009": 5.9568260623,
			"-0.008": 7.179543579,
			"-0.007": 6.28659461785,
			"-0.006": 13.3648994731,
			"-0.005": 20.880722494,
			"-0.004": 18.6817392486,
			"-0.003": 16.5842097251,
			"-0.002": 13.7906428484,
			"-0.001": 9.75106422,
			"0.0": 11.2863130395,
			"0.001": 12.4752604387,
			"0.002": 15.7971690294,
			"0.003": 17.9215410876,
			"0.004": 11.7503383984,
			"0.005": 10.0282356385,
			"0.006": 10.5184524597,
			"0.007": 3.78760490639,
			"0.008": 3.96393258912,
			"0.009": 3.54163653663,
			"0.01": 3.68528077861,
			"0.011": 4.5594622978,
			"0.012": 3.48937598671,
			"0.013": 1.77393303853,
			"0.014": 0.112277809026,
			"0.015": 0.0,
			"0.016": 0.0,
			"0.017": 0.0,
			"0.018": 0.0,
			"0.019": 0.0,
			"0.02": 0.0,
			"0.021": 0.0,
			"0.022": 0.0,
			"0.023": 0.0,
			"0.024": 0.0,
			"0.025": 0.0
		}
	}
}
