{
	 "smiles": "OC(=O)C1=CC=C(CN2C=C(Br)C=N2)O1", 
	 "Tm": 402.15, 
	 "num_atms": 22, 
	 "gaussian": { 
		 "optdone": 1, 
		 "sigma_profile": "yes", 
		 "theory": "DFT", 
		 "functional": "B3LYP", 
		 "basiset": "6-31G**", 
		 "properties": { 
			 "R2extent": 7821.3339, 
			 "electric_dipole_moment_norm": 2.18805143221, 
			 "electric_quadrupole_moment_norm": 14.4996571318, 
			 "total_energy": -3253.71375482, 
			 "HOMO_LUMO_gap": 0.18042, 
			 "cosmo_polarized_energy": -14.87, 
			 "cosmo_cavitation_energy": 31.14, 
			 "cosmo_dispersion_energy": -22.29, 
			 "cosmo_repulsion_energy": 1.78, 
			 "cosmo_total_nonelectrostatic_energy": 10.63, 
			 "SMD_solvation_energy": 5.23 
		},
		"coords": [
			{
				"x": -3.2082024038,
				"y": -1.6158492355,
				"z": 1.3593948923,
				"element": "O" 
			},
			{
				"x": -2.9989134326,
				"y": -0.391123921,
				"z": 1.8946065797,
				"element": "C" 
			},
			{
				"x": -3.7294975525,
				"y": 0.1142805734,
				"z": 2.7240377555,
				"element": "O" 
			},
			{
				"x": -1.8007525641,
				"y": 0.2659778323,
				"z": 1.371458206,
				"element": "C" 
			},
			{
				"x": -1.273781455,
				"y": 1.4958422668,
				"z": 1.6641363466,
				"element": "C" 
			},
			{
				"x": -0.1004332394,
				"y": 1.6277799424,
				"z": 0.8687599363,
				"element": "C" 
			},
			{
				"x": 0.0088023815,
				"y": 0.469132855,
				"z": 0.1472488538,
				"element": "C" 
			},
			{
				"x": 0.9854174261,
				"y": -0.0156512895,
				"z": -0.8733201734,
				"element": "C" 
			},
			{
				"x": 0.4987146988,
				"y": 0.0988276886,
				"z": -2.2468162167,
				"element": "N" 
			},
			{
				"x": -0.4740559363,
				"y": -0.6349728616,
				"z": -2.8512200808,
				"element": "C" 
			},
			{
				"x": -0.6048613147,
				"y": -0.1077563999,
				"z": -4.1212580479,
				"element": "C" 
			},
			{
				"x": -1.7810012575,
				"y": -0.6937342884,
				"z": -5.4708566136,
				"element": "Br" 
			},
			{
				"x": 0.3280618112,
				"y": 0.9475549415,
				"z": -4.192636477,
				"element": "C" 
			},
			{
				"x": 0.9936513678,
				"y": 1.0715499733,
				"z": -3.0459550611,
				"element": "N" 
			},
			{
				"x": -1.0191322855,
				"y": -0.3714203359,
				"z": 0.4456035826,
				"element": "O" 
			},
			{
				"x": -4.0215226121,
				"y": -1.9477938783,
				"z": 1.7746456775,
				"element": "H" 
			},
			{
				"x": -1.6900831937,
				"y": 2.2036904609,
				"z": 2.365244237,
				"element": "H" 
			},
			{
				"x": 0.5749586062,
				"y": 2.4699803441,
				"z": 0.8263749617,
				"element": "H" 
			},
			{
				"x": 1.241921534,
				"y": -1.0619996392,
				"z": -0.6765689274,
				"element": "H" 
			},
			{
				"x": 1.8959644808,
				"y": 0.5825238595,
				"z": -0.8294423928,
				"element": "H" 
			},
			{
				"x": -0.9899350342,
				"y": -1.4412384625,
				"z": -2.3530746922,
				"element": "H" 
			},
			{
				"x": 0.536179975,
				"y": 1.603899574,
				"z": -5.025462346,
				"element": "H" 
			}
		],
		 "valence_orbital": [ 
			{
				"type": "occ",
				"energy": -0.28839,
				"method": "rhf"
			},
			{
				"type": "occ",
				"energy": -0.28326,
				"method": "rhf"
			},
			{
				"type": "occ",
				"energy": -0.2665,
				"method": "rhf"
			},
			{
				"type": "occ",
				"energy": -0.25262,
				"method": "rhf"
			},
			{
				"type": "occ",
				"energy": -0.23739,
				"method": "rhf"
			},
			{
				"type": "unocc",
				"energy": -0.05697,
				"method": "rhf"
			},
			{
				"type": "unocc",
				"energy": 0.0014,
				"method": "rhf"
			},
			{
				"type": "unocc",
				"energy": 0.01449,
				"method": "rhf"
			},
			{
				"type": "unocc",
				"energy": 0.0276,
				"method": "rhf"
			},
			{
				"type": "unocc",
				"energy": 0.05362,
				"method": "rhf"
			}
		],
		"cosmo_sigma_profile": { 
			"-0.025": 0.0,
			"-0.024": 0.0,
			"-0.023": 0.0,
			"-0.022": 0.0,
			"-0.021": 0.0,
			"-0.02": 0.0,
			"-0.019": 0.189455422682,
			"-0.018": 0.910484986802,
			"-0.017": 0.917456062373,
			"-0.016": 0.876650298843,
			"-0.015": 0.927719517103,
			"-0.014": 0.355516282938,
			"-0.013": 0.461110976293,
			"-0.012": 1.11697358115,
			"-0.011": 1.08917527828,
			"-0.01": 0.841492766379,
			"-0.009": 5.63222269513,
			"-0.008": 12.5846081202,
			"-0.007": 11.4656469842,
			"-0.006": 10.4781470146,
			"-0.005": 11.7574417366,
			"-0.004": 9.26782846676,
			"-0.003": 12.3542538316,
			"-0.002": 12.6974796733,
			"-0.001": 14.3135405742,
			"0.0": 19.5539815418,
			"0.001": 21.1645265638,
			"0.002": 22.7546858225,
			"0.003": 20.1559471072,
			"0.004": 18.0531927244,
			"0.005": 8.16134177946,
			"0.006": 4.84878932523,
			"0.007": 4.38024675425,
			"0.008": 4.57234083676,
			"0.009": 4.74673796403,
			"0.01": 4.74471267957,
			"0.011": 4.88716904224,
			"0.012": 5.6098646124,
			"0.013": 0.946375874206,
			"0.014": 0.739715760449,
			"0.015": 0.216164323346,
			"0.016": 0.0,
			"0.017": 0.0,
			"0.018": 0.0,
			"0.019": 0.0,
			"0.02": 0.0,
			"0.021": 0.0,
			"0.022": 0.0,
			"0.023": 0.0,
			"0.024": 0.0,
			"0.025": 0.0
		}
	}
}
