{
	 "smiles": "NNC(=S)NC1=C(Cl)C=C(Cl)C=C1", 
	 "Tm": 442.15, 
	 "num_atms": 20, 
	 "gaussian": { 
		 "optdone": 1, 
		 "sigma_profile": "yes", 
		 "theory": "DFT", 
		 "functional": "B3LYP", 
		 "basiset": "6-31G**", 
		 "properties": { 
			 "R2extent": 4669.0718, 
			 "electric_dipole_moment_norm": 2.85580171055, 
			 "electric_quadrupole_moment_norm": 12.1396318346, 
			 "total_energy": -1753.76947027, 
			 "HOMO_LUMO_gap": 0.16991, 
			 "cosmo_polarized_energy": -14.49, 
			 "cosmo_cavitation_energy": 29.72, 
			 "cosmo_dispersion_energy": -22.35, 
			 "cosmo_repulsion_energy": 1.75, 
			 "cosmo_total_nonelectrostatic_energy": 9.12, 
			 "SMD_solvation_energy": 4.07 
		},
		"coords": [
			{
				"x": 0.8420061005,
				"y": -0.7796320732,
				"z": 4.0179634506,
				"element": "N" 
			},
			{
				"x": 0.5460445108,
				"y": -0.3918257936,
				"z": 2.6979805131,
				"element": "N" 
			},
			{
				"x": 1.1434008938,
				"y": 0.6698030021,
				"z": 2.0877775937,
				"element": "C" 
			},
			{
				"x": 2.4056092003,
				"y": 1.5359021368,
				"z": 2.7745029642,
				"element": "S" 
			},
			{
				"x": 0.6450074243,
				"y": 1.0278063605,
				"z": 0.8539802927,
				"element": "N" 
			},
			{
				"x": -0.2856795436,
				"y": 0.3818643228,
				"z": 0.0241140942,
				"element": "C" 
			},
			{
				"x": -1.1446431295,
				"y": 1.1482207734,
				"z": -0.790238499,
				"element": "C" 
			},
			{
				"x": -1.0748355843,
				"y": 2.8997264428,
				"z": -0.7247400273,
				"element": "Cl" 
			},
			{
				"x": -2.050116608,
				"y": 0.5525938123,
				"z": -1.6637332968,
				"element": "C" 
			},
			{
				"x": -2.1175524685,
				"y": -0.8378165768,
				"z": -1.7270994143,
				"element": "C" 
			},
			{
				"x": -3.2695058803,
				"y": -1.5933242453,
				"z": -2.8093051862,
				"element": "Cl" 
			},
			{
				"x": -1.2746351309,
				"y": -1.6269469204,
				"z": -0.9464832626,
				"element": "C" 
			},
			{
				"x": -0.3598555827,
				"y": -1.0173615124,
				"z": -0.0928410762,
				"element": "C" 
			},
			{
				"x": 1.0153632467,
				"y": 0.0742009575,
				"z": 4.5531685077,
				"element": "H" 
			},
			{
				"x": 1.7379604791,
				"y": -1.2659419812,
				"z": 3.9972355027,
				"element": "H" 
			},
			{
				"x": -0.3787619349,
				"y": -0.6703469122,
				"z": 2.396976648,
				"element": "H" 
			},
			{
				"x": 0.9873245946,
				"y": 1.927747073,
				"z": 0.5432710982,
				"element": "H" 
			},
			{
				"x": -2.6974915279,
				"y": 1.1682901084,
				"z": -2.275938459,
				"element": "H" 
			},
			{
				"x": -1.3166185547,
				"y": -2.7076100414,
				"z": -1.0192656497,
				"element": "H" 
			},
			{
				"x": 0.3270794955,
				"y": -1.6318489329,
				"z": 0.477074206,
				"element": "H" 
			}
		],
		 "valence_orbital": [ 
			{
				"type": "occ",
				"energy": -0.29055,
				"method": "rhf"
			},
			{
				"type": "occ",
				"energy": -0.28023,
				"method": "rhf"
			},
			{
				"type": "occ",
				"energy": -0.25386,
				"method": "rhf"
			},
			{
				"type": "occ",
				"energy": -0.22721,
				"method": "rhf"
			},
			{
				"type": "occ",
				"energy": -0.2209,
				"method": "rhf"
			},
			{
				"type": "unocc",
				"energy": -0.05099,
				"method": "rhf"
			},
			{
				"type": "unocc",
				"energy": -0.04465,
				"method": "rhf"
			},
			{
				"type": "unocc",
				"energy": -0.00873,
				"method": "rhf"
			},
			{
				"type": "unocc",
				"energy": -0.00045,
				"method": "rhf"
			},
			{
				"type": "unocc",
				"energy": 0.03469,
				"method": "rhf"
			}
		],
		"cosmo_sigma_profile": { 
			"-0.025": 0.0,
			"-0.024": 0.0,
			"-0.023": 0.0,
			"-0.022": 0.0,
			"-0.021": 0.0,
			"-0.02": 0.0,
			"-0.019": 0.0,
			"-0.018": 0.0,
			"-0.017": 0.0,
			"-0.016": 0.0,
			"-0.015": 0.143374005573,
			"-0.014": 0.490189213342,
			"-0.013": 1.20642417885,
			"-0.012": 1.8206472167,
			"-0.011": 3.51947906012,
			"-0.01": 3.15737836954,
			"-0.009": 5.70215307077,
			"-0.008": 8.45603498924,
			"-0.007": 9.92195584066,
			"-0.006": 8.8180175271,
			"-0.005": 9.76239785948,
			"-0.004": 8.82494715235,
			"-0.003": 11.3693577813,
			"-0.002": 13.6509734468,
			"-0.001": 18.1003485513,
			"0.0": 24.4923737816,
			"0.001": 25.4894978128,
			"0.002": 16.2978661082,
			"0.003": 17.011956484,
			"0.004": 16.7701183474,
			"0.005": 5.47854216478,
			"0.006": 3.70794692272,
			"0.007": 5.08361050541,
			"0.008": 4.97467852899,
			"0.009": 6.88548585031,
			"0.01": 7.35085183686,
			"0.011": 3.26764476963,
			"0.012": 1.16695350169,
			"0.013": 0.491349256787,
			"0.014": 0.612164934346,
			"0.015": 0.667160033324,
			"0.016": 0.294735698913,
			"0.017": 0.0,
			"0.018": 0.0,
			"0.019": 0.0,
			"0.02": 0.0,
			"0.021": 0.0,
			"0.022": 0.0,
			"0.023": 0.0,
			"0.024": 0.0,
			"0.025": 0.0
		}
	}
}
