{
	 "smiles": "[O-][N+](=O)C1=CC=C(COC2=CC=CC=C2)C=C1", 
	 "Tm": 361.15, 
	 "num_atms": 28, 
	 "gaussian": { 
		 "optdone": 1, 
		 "sigma_profile": "yes", 
		 "theory": "DFT", 
		 "functional": "B3LYP", 
		 "basiset": "6-31G**", 
		 "properties": { 
			 "R2extent": 7971.1738, 
			 "electric_dipole_moment_norm": 5.24453378767, 
			 "electric_quadrupole_moment_norm": 35.0315395688, 
			 "total_energy": -782.327111518, 
			 "HOMO_LUMO_gap": 0.14295, 
			 "cosmo_polarized_energy": -11.56, 
			 "cosmo_cavitation_energy": 33.36, 
			 "cosmo_dispersion_energy": -24.37, 
			 "cosmo_repulsion_energy": 1.86, 
			 "cosmo_total_nonelectrostatic_energy": 10.86, 
			 "SMD_solvation_energy": 7.98 
		},
		"coords": [
			{
				"x": 1.0504496194,
				"y": -0.0335091089,
				"z": -6.823359767,
				"element": "O" 
			},
			{
				"x": 1.2944473484,
				"y": 0.9247111107,
				"z": -6.0906196087,
				"element": "N" 
			},
			{
				"x": 1.6689638721,
				"y": 2.0297198688,
				"z": -6.4835600188,
				"element": "O" 
			},
			{
				"x": 1.1267267579,
				"y": 0.7371007056,
				"z": -4.6420262626,
				"element": "C" 
			},
			{
				"x": 1.396151533,
				"y": 1.8052764535,
				"z": -3.7865067407,
				"element": "C" 
			},
			{
				"x": 1.2351559046,
				"y": 1.6174930443,
				"z": -2.4190242337,
				"element": "C" 
			},
			{
				"x": 0.8102007517,
				"y": 0.3818609609,
				"z": -1.9075378703,
				"element": "C" 
			},
			{
				"x": 0.6457754752,
				"y": 0.2343679488,
				"z": -0.4117481212,
				"element": "C" 
			},
			{
				"x": 0.2565738327,
				"y": -1.0900557692,
				"z": -0.1018982678,
				"element": "O" 
			},
			{
				"x": 0.0498082227,
				"y": -1.4221098252,
				"z": 1.2121974891,
				"element": "C" 
			},
			{
				"x": -0.3369163211,
				"y": -2.749433771,
				"z": 1.4444150805,
				"element": "C" 
			},
			{
				"x": -0.5711083268,
				"y": -3.185929476,
				"z": 2.7434810983,
				"element": "C" 
			},
			{
				"x": -0.424012896,
				"y": -2.3102061766,
				"z": 3.8250289052,
				"element": "C" 
			},
			{
				"x": -0.0394206482,
				"y": -0.993228006,
				"z": 3.5868773837,
				"element": "C" 
			},
			{
				"x": 0.2002690007,
				"y": -0.5377609382,
				"z": 2.285703312,
				"element": "C" 
			},
			{
				"x": 0.5470633602,
				"y": -0.6721866354,
				"z": -2.7890301046,
				"element": "C" 
			},
			{
				"x": 0.7045595251,
				"y": -0.4997974735,
				"z": -4.1629131574,
				"element": "C" 
			},
			{
				"x": 1.7232075165,
				"y": 2.7507349309,
				"z": -4.2003364106,
				"element": "H" 
			},
			{
				"x": 1.4428497775,
				"y": 2.4414380256,
				"z": -1.7409192733,
				"element": "H" 
			},
			{
				"x": 1.5930274226,
				"y": 0.4836487538,
				"z": 0.0907226019,
				"element": "H" 
			},
			{
				"x": -0.1096936897,
				"y": 0.9497118539,
				"z": -0.0512824005,
				"element": "H" 
			},
			{
				"x": -0.4461907248,
				"y": -3.4151420607,
				"z": 0.5944149395,
				"element": "H" 
			},
			{
				"x": -0.8703961666,
				"y": -4.2162239641,
				"z": 2.9131904992,
				"element": "H" 
			},
			{
				"x": -0.6075405512,
				"y": -2.6537061763,
				"z": 4.8381648882,
				"element": "H" 
			},
			{
				"x": 0.0789883283,
				"y": -0.3019338041,
				"z": 4.4164573765,
				"element": "H" 
			},
			{
				"x": 0.4987953145,
				"y": 0.4918121961,
				"z": 2.1282333992,
				"element": "H" 
			},
			{
				"x": 0.2203078012,
				"y": -1.6254166608,
				"z": -2.3926847619,
				"element": "H" 
			},
			{
				"x": 0.5069579598,
				"y": -1.3020360069,
				"z": -4.8628399742,
				"element": "H" 
			}
		],
		 "valence_orbital": [ 
			{
				"type": "occ",
				"energy": -0.28896,
				"method": "rhf"
			},
			{
				"type": "occ",
				"energy": -0.2786,
				"method": "rhf"
			},
			{
				"type": "occ",
				"energy": -0.2748,
				"method": "rhf"
			},
			{
				"type": "occ",
				"energy": -0.25862,
				"method": "rhf"
			},
			{
				"type": "occ",
				"energy": -0.23049,
				"method": "rhf"
			},
			{
				"type": "unocc",
				"energy": -0.08754,
				"method": "rhf"
			},
			{
				"type": "unocc",
				"energy": -0.02855,
				"method": "rhf"
			},
			{
				"type": "unocc",
				"energy": -0.01035,
				"method": "rhf"
			},
			{
				"type": "unocc",
				"energy": 0.00058,
				"method": "rhf"
			},
			{
				"type": "unocc",
				"energy": 0.00527,
				"method": "rhf"
			}
		],
		"cosmo_sigma_profile": { 
			"-0.025": 0.0,
			"-0.024": 0.0,
			"-0.023": 0.0,
			"-0.022": 0.0,
			"-0.021": 0.0,
			"-0.02": 0.0,
			"-0.019": 0.0,
			"-0.018": 0.0,
			"-0.017": 0.0,
			"-0.016": 0.0,
			"-0.015": 0.0,
			"-0.014": 0.0,
			"-0.013": 0.0,
			"-0.012": 0.0,
			"-0.011": 0.0,
			"-0.01": 0.0,
			"-0.009": 0.0,
			"-0.008": 2.2897816963,
			"-0.007": 13.2144982183,
			"-0.006": 19.9247172259,
			"-0.005": 19.7874563709,
			"-0.004": 18.7762576208,
			"-0.003": 18.5438257659,
			"-0.002": 15.8645069643,
			"-0.001": 18.1331679059,
			"0.0": 18.1425578452,
			"0.001": 20.6074757165,
			"0.002": 23.1653832204,
			"0.003": 14.2947179046,
			"0.004": 14.1642990351,
			"0.005": 13.3463244304,
			"0.006": 12.6111630668,
			"0.007": 8.3435465727,
			"0.008": 8.36841499932,
			"0.009": 4.51891759101,
			"0.01": 3.20646962022,
			"0.011": 0.28985025837,
			"0.012": 0.0,
			"0.013": 0.0,
			"0.014": 0.0,
			"0.015": 0.0,
			"0.016": 0.0,
			"0.017": 0.0,
			"0.018": 0.0,
			"0.019": 0.0,
			"0.02": 0.0,
			"0.021": 0.0,
			"0.022": 0.0,
			"0.023": 0.0,
			"0.024": 0.0,
			"0.025": 0.0
		}
	}
}
