{
	 "smiles": "[O-][N+](=O)C1=CC=CC(CS(Cl)(=O)=O)=C1", 
	 "Tm": 372.15, 
	 "num_atms": 20, 
	 "gaussian": { 
		 "optdone": 1, 
		 "sigma_profile": "yes", 
		 "theory": "DFT", 
		 "functional": "B3LYP", 
		 "basiset": "6-31G**", 
		 "properties": { 
			 "R2extent": 5198.2745, 
			 "electric_dipole_moment_norm": 4.81755022081, 
			 "electric_quadrupole_moment_norm": 20.0730298525, 
			 "total_energy": -1484.2222164, 
			 "HOMO_LUMO_gap": 0.18917, 
			 "cosmo_polarized_energy": -16.02, 
			 "cosmo_cavitation_energy": 29.24, 
			 "cosmo_dispersion_energy": -21.27, 
			 "cosmo_repulsion_energy": 1.64, 
			 "cosmo_total_nonelectrostatic_energy": 9.6, 
			 "SMD_solvation_energy": 5.81 
		},
		"coords": [
			{
				"x": 2.7172590531,
				"y": -1.8392384175,
				"z": 0.5013504568,
				"element": "O" 
			},
			{
				"x": 1.7544165202,
				"y": -1.5058704315,
				"z": -0.1860454649,
				"element": "N" 
			},
			{
				"x": 1.1894925061,
				"y": -2.2251299053,
				"z": -1.007407713,
				"element": "O" 
			},
			{
				"x": 1.239461215,
				"y": -0.1340091345,
				"z": -0.0143176364,
				"element": "C" 
			},
			{
				"x": 1.8760307924,
				"y": 0.7173052601,
				"z": 0.8852930386,
				"element": "C" 
			},
			{
				"x": 1.3835798462,
				"y": 2.0129653323,
				"z": 1.034202491,
				"element": "C" 
			},
			{
				"x": 0.2815173757,
				"y": 2.4359912385,
				"z": 0.2916305483,
				"element": "C" 
			},
			{
				"x": -0.3442432751,
				"y": 1.5670717883,
				"z": -0.6160986948,
				"element": "C" 
			},
			{
				"x": -1.537081672,
				"y": 2.022723833,
				"z": -1.4076435889,
				"element": "C" 
			},
			{
				"x": -3.0675727279,
				"y": 1.887985566,
				"z": -0.3933606177,
				"element": "S" 
			},
			{
				"x": -4.4753828425,
				"y": 2.5895032553,
				"z": -1.8352241735,
				"element": "Cl" 
			},
			{
				"x": -3.3677146734,
				"y": 0.4854236063,
				"z": -0.1402960691,
				"element": "O" 
			},
			{
				"x": -3.0230186871,
				"y": 2.8754289924,
				"z": 0.6784296982,
				"element": "O" 
			},
			{
				"x": 0.1350288505,
				"y": 0.2620536462,
				"z": -0.7620221629,
				"element": "C" 
			},
			{
				"x": 2.7316807637,
				"y": 0.3586150568,
				"z": 1.4434246831,
				"element": "H" 
			},
			{
				"x": 1.8607803411,
				"y": 2.6942762457,
				"z": 1.730719736,
				"element": "H" 
			},
			{
				"x": -0.1019922135,
				"y": 3.4436846838,
				"z": 0.4190738754,
				"element": "H" 
			},
			{
				"x": -1.4879128289,
				"y": 3.0752755506,
				"z": -1.6938424159,
				"element": "H" 
			},
			{
				"x": -1.7247887923,
				"y": 1.4082851677,
				"z": -2.2897076574,
				"element": "H" 
			},
			{
				"x": -0.3264395514,
				"y": -0.4449413342,
				"z": -1.4408583329,
				"element": "H" 
			}
		],
		 "valence_orbital": [ 
			{
				"type": "occ",
				"energy": -0.3235,
				"method": "rhf"
			},
			{
				"type": "occ",
				"energy": -0.3208,
				"method": "rhf"
			},
			{
				"type": "occ",
				"energy": -0.30543,
				"method": "rhf"
			},
			{
				"type": "occ",
				"energy": -0.30174,
				"method": "rhf"
			},
			{
				"type": "occ",
				"energy": -0.29553,
				"method": "rhf"
			},
			{
				"type": "unocc",
				"energy": -0.10636,
				"method": "rhf"
			},
			{
				"type": "unocc",
				"energy": -0.09839,
				"method": "rhf"
			},
			{
				"type": "unocc",
				"energy": -0.04689,
				"method": "rhf"
			},
			{
				"type": "unocc",
				"energy": -0.02085,
				"method": "rhf"
			},
			{
				"type": "unocc",
				"energy": 0.02435,
				"method": "rhf"
			}
		],
		"cosmo_sigma_profile": { 
			"-0.025": 0.0,
			"-0.024": 0.0,
			"-0.023": 0.0,
			"-0.022": 0.0,
			"-0.021": 0.0,
			"-0.02": 0.0,
			"-0.019": 0.0,
			"-0.018": 0.0,
			"-0.017": 0.0,
			"-0.016": 0.0,
			"-0.015": 0.0,
			"-0.014": 0.0,
			"-0.013": 0.0,
			"-0.012": 0.370754451013,
			"-0.011": 4.56565117341,
			"-0.01": 5.53408395809,
			"-0.009": 5.19304948926,
			"-0.008": 8.59252955908,
			"-0.007": 12.0726008114,
			"-0.006": 10.9151321509,
			"-0.005": 9.2258355458,
			"-0.004": 9.75748231193,
			"-0.003": 10.3300305407,
			"-0.002": 14.4898705048,
			"-0.001": 18.1424478759,
			"0.0": 18.027651221,
			"0.001": 16.0778466201,
			"0.002": 12.5445502572,
			"0.003": 15.9565049932,
			"0.004": 10.360536682,
			"0.005": 6.06246696851,
			"0.006": 6.81547946154,
			"0.007": 15.5616277139,
			"0.008": 15.7073596071,
			"0.009": 9.36935193219,
			"0.01": 1.52704410504,
			"0.011": 0.0,
			"0.012": 0.0,
			"0.013": 0.0,
			"0.014": 0.0,
			"0.015": 0.0,
			"0.016": 0.0,
			"0.017": 0.0,
			"0.018": 0.0,
			"0.019": 0.0,
			"0.02": 0.0,
			"0.021": 0.0,
			"0.022": 0.0,
			"0.023": 0.0,
			"0.024": 0.0,
			"0.025": 0.0
		}
	}
}
