{
	 "smiles": "FC1=CC(CC#N)=CC(F)=C1", 
	 "Tm": 308.15, 
	 "num_atms": 16, 
	 "gaussian": { 
		 "optdone": 1, 
		 "sigma_profile": "yes", 
		 "theory": "DFT", 
		 "functional": "B3LYP", 
		 "basiset": "6-31G**", 
		 "properties": { 
			 "R2extent": 2306.7727, 
			 "electric_dipole_moment_norm": 3.42782328745, 
			 "electric_quadrupole_moment_norm": 19.7744169257, 
			 "total_energy": -562.264021901, 
			 "HOMO_LUMO_gap": 0.22791, 
			 "cosmo_polarized_energy": -10.73, 
			 "cosmo_cavitation_energy": 22.88, 
			 "cosmo_dispersion_energy": -15.63, 
			 "cosmo_repulsion_energy": 1.22, 
			 "cosmo_total_nonelectrostatic_energy": 8.47, 
			 "SMD_solvation_energy": 6.45 
		},
		"coords": [
			{
				"x": -1.0191974685,
				"y": 3.5417088266,
				"z": 0.2902026871,
				"element": "F" 
			},
			{
				"x": -0.367375712,
				"y": 2.3913481681,
				"z": 0.0445155528,
				"element": "C" 
			},
			{
				"x": -1.0123669031,
				"y": 1.3978260494,
				"z": -0.6845122777,
				"element": "C" 
			},
			{
				"x": -0.3363644536,
				"y": 0.1999884929,
				"z": -0.9363764044,
				"element": "C" 
			},
			{
				"x": -1.0143222678,
				"y": -0.9000523181,
				"z": -1.7428480713,
				"element": "C" 
			},
			{
				"x": -0.7651346513,
				"y": -0.7790818528,
				"z": -3.185761987,
				"element": "C" 
			},
			{
				"x": -0.565479465,
				"y": -0.6791760977,
				"z": -4.324522264,
				"element": "N" 
			},
			{
				"x": 0.9647589691,
				"y": 0.0140794292,
				"z": -0.4591545936,
				"element": "C" 
			},
			{
				"x": 1.5661595231,
				"y": 1.0380879489,
				"z": 0.2649321538,
				"element": "C" 
			},
			{
				"x": 2.8159888025,
				"y": 0.8575068059,
				"z": 0.7274111704,
				"element": "F" 
			},
			{
				"x": 0.9244245471,
				"y": 2.2411042579,
				"z": 0.5352841745,
				"element": "C" 
			},
			{
				"x": -2.0206227044,
				"y": 1.5707676949,
				"z": -1.0445048551,
				"element": "H" 
			},
			{
				"x": -2.0976210948,
				"y": -0.8802905854,
				"z": -1.5806129065,
				"element": "H" 
			},
			{
				"x": -0.6620744202,
				"y": -1.8849342469,
				"z": -1.4170349255,
				"element": "H" 
			},
			{
				"x": 1.5140106026,
				"y": -0.9030420953,
				"z": -0.6416231216,
				"element": "H" 
			},
			{
				"x": 1.4083166961,
				"y": 3.0251595224,
				"z": 1.1042056681,
				"element": "H" 
			}
		],
		 "valence_orbital": [ 
			{
				"type": "occ",
				"energy": -0.35955,
				"method": "rhf"
			},
			{
				"type": "occ",
				"energy": -0.33157,
				"method": "rhf"
			},
			{
				"type": "occ",
				"energy": -0.33101,
				"method": "rhf"
			},
			{
				"type": "occ",
				"energy": -0.27397,
				"method": "rhf"
			},
			{
				"type": "occ",
				"energy": -0.26285,
				"method": "rhf"
			},
			{
				"type": "unocc",
				"energy": -0.03494,
				"method": "rhf"
			},
			{
				"type": "unocc",
				"energy": -0.01937,
				"method": "rhf"
			},
			{
				"type": "unocc",
				"energy": 0.02866,
				"method": "rhf"
			},
			{
				"type": "unocc",
				"energy": 0.03454,
				"method": "rhf"
			},
			{
				"type": "unocc",
				"energy": 0.07815,
				"method": "rhf"
			}
		],
		"cosmo_sigma_profile": { 
			"-0.025": 0.0,
			"-0.024": 0.0,
			"-0.023": 0.0,
			"-0.022": 0.0,
			"-0.021": 0.0,
			"-0.02": 0.0,
			"-0.019": 0.0,
			"-0.018": 0.0,
			"-0.017": 0.0,
			"-0.016": 0.0,
			"-0.015": 0.0,
			"-0.014": 0.0,
			"-0.013": 0.0,
			"-0.012": 0.0,
			"-0.011": 0.0,
			"-0.01": 1.2255924747,
			"-0.009": 9.05611547289,
			"-0.008": 10.5264941077,
			"-0.007": 9.09050152578,
			"-0.006": 7.91217666821,
			"-0.005": 7.4005419902,
			"-0.004": 5.49134332482,
			"-0.003": 6.33109157863,
			"-0.002": 6.63735893418,
			"-0.001": 9.10421378676,
			"0.0": 20.5956476728,
			"0.001": 22.209989476,
			"0.002": 11.653994703,
			"0.003": 12.5585115036,
			"0.004": 20.4694183754,
			"0.005": 1.96584339974,
			"0.006": 3.60107657075,
			"0.007": 2.05170180433,
			"0.008": 3.43180836991,
			"0.009": 3.49904585843,
			"0.01": 3.19735306068,
			"0.011": 2.72783287112,
			"0.012": 2.58912339097,
			"0.013": 1.72744168425,
			"0.014": 0.0857303781379,
			"0.015": 0.0,
			"0.016": 0.0,
			"0.017": 0.0,
			"0.018": 0.0,
			"0.019": 0.0,
			"0.02": 0.0,
			"0.021": 0.0,
			"0.022": 0.0,
			"0.023": 0.0,
			"0.024": 0.0,
			"0.025": 0.0
		}
	}
}
