{
	 "smiles": "CCCCCCCCCCCCCCCCOCCCCCCCCCCCCCCCC", 
	 "Tm": 328.15, 
	 "num_atms": 99, 
	 "gaussian": { 
		 "optdone": 1, 
		 "sigma_profile": "yes", 
		 "theory": "DFT", 
		 "functional": "B3LYP", 
		 "basiset": "6-31G**", 
		 "properties": { 
			 "R2extent": 53893.3394, 
			 "electric_dipole_moment_norm": 0.988826137397, 
			 "electric_quadrupole_moment_norm": 4.46076959055, 
			 "total_energy": -1334.49048782, 
			 "HOMO_LUMO_gap": 0.31915, 
			 "cosmo_polarized_energy": -4.82, 
			 "cosmo_cavitation_energy": 93.35, 
			 "cosmo_dispersion_energy": -60.91, 
			 "cosmo_repulsion_energy": 4.95, 
			 "cosmo_total_nonelectrostatic_energy": 37.39, 
			 "SMD_solvation_energy": 11.45 
		},
		"coords": [
			{
				"x": -11.0761946285,
				"y": -4.6533013124,
				"z": -2.6757046016,
				"element": "C" 
			},
			{
				"x": -11.5107785879,
				"y": -4.0683507857,
				"z": -1.3263765357,
				"element": "C" 
			},
			{
				"x": -10.660243489,
				"y": -4.5254351746,
				"z": -0.1294907751,
				"element": "C" 
			},
			{
				"x": -9.2024937725,
				"y": -4.0449742365,
				"z": -0.1557344809,
				"element": "C" 
			},
			{
				"x": -8.4040627404,
				"y": -4.4639965432,
				"z": 1.0857041351,
				"element": "C" 
			},
			{
				"x": -6.9458669237,
				"y": -3.9880570761,
				"z": 1.0682504695,
				"element": "C" 
			},
			{
				"x": -6.1485628802,
				"y": -4.406400068,
				"z": 2.3103284841,
				"element": "C" 
			},
			{
				"x": -4.6901996891,
				"y": -3.9305155055,
				"z": 2.293615149,
				"element": "C" 
			},
			{
				"x": -3.8931056489,
				"y": -4.37899484,
				"z": 3.5286218328,
				"element": "C" 
			},
			{
				"x": -2.4119179131,
				"y": -3.9399557542,
				"z": 3.5555579096,
				"element": "C" 
			},
			{
				"x": -2.1129980473,
				"y": -2.6040652586,
				"z": 4.2598785833,
				"element": "C" 
			},
			{
				"x": -2.722170578,
				"y": -1.3473886403,
				"z": 3.622218636,
				"element": "C" 
			},
			{
				"x": -2.2637553069,
				"y": -0.0537817479,
				"z": 4.3111292601,
				"element": "C" 
			},
			{
				"x": -2.930001276,
				"y": 1.2291370214,
				"z": 3.7804545181,
				"element": "C" 
			},
			{
				"x": -2.6755134461,
				"y": 1.5644654572,
				"z": 2.3011522479,
				"element": "C" 
			},
			{
				"x": -1.2144805531,
				"y": 1.8505791989,
				"z": 1.9695969859,
				"element": "C" 
			},
			{
				"x": -1.1429005264,
				"y": 2.2402699803,
				"z": 0.6067282254,
				"element": "O" 
			},
			{
				"x": 0.1494963737,
				"y": 2.6400004078,
				"z": 0.1706627646,
				"element": "C" 
			},
			{
				"x": 1.1102676398,
				"y": 1.4752471209,
				"z": -0.098715997,
				"element": "C" 
			},
			{
				"x": 0.5750972437,
				"y": 0.4926858017,
				"z": -1.1512738335,
				"element": "C" 
			},
			{
				"x": 1.4322307305,
				"y": -0.7699169649,
				"z": -1.382956805,
				"element": "C" 
			},
			{
				"x": 2.5368465712,
				"y": -0.6654498919,
				"z": -2.4503478333,
				"element": "C" 
			},
			{
				"x": 3.6785874293,
				"y": 0.3186678512,
				"z": -2.1584416384,
				"element": "C" 
			},
			{
				"x": 4.8095418286,
				"y": 0.2394681838,
				"z": -3.1950331813,
				"element": "C" 
			},
			{
				"x": 6.0027251238,
				"y": 1.1708901419,
				"z": -2.9222573444,
				"element": "C" 
			},
			{
				"x": 5.6859738101,
				"y": 2.6687883301,
				"z": -3.0708537615,
				"element": "C" 
			},
			{
				"x": 6.8934735408,
				"y": 3.6199741142,
				"z": -2.9144223271,
				"element": "C" 
			},
			{
				"x": 7.1703076115,
				"y": 4.1396052468,
				"z": -1.4896918721,
				"element": "C" 
			},
			{
				"x": 7.5903644325,
				"y": 3.1119136088,
				"z": -0.424718976,
				"element": "C" 
			},
			{
				"x": 8.9238179345,
				"y": 2.4049558266,
				"z": -0.7029884154,
				"element": "C" 
			},
			{
				"x": 9.3497855383,
				"y": 1.450618527,
				"z": 0.420221668,
				"element": "C" 
			},
			{
				"x": 10.6846961142,
				"y": 0.7433358903,
				"z": 0.1538229144,
				"element": "C" 
			},
			{
				"x": 11.1012879859,
				"y": -0.2080200388,
				"z": 1.2801430613,
				"element": "C" 
			},
			{
				"x": -11.0859034503,
				"y": -5.7494562006,
				"z": -2.6512753626,
				"element": "H" 
			},
			{
				"x": -11.7488082856,
				"y": -4.3339475501,
				"z": -3.4787240011,
				"element": "H" 
			},
			{
				"x": -10.0647479639,
				"y": -4.3381322509,
				"z": -2.9517342377,
				"element": "H" 
			},
			{
				"x": -12.5562531154,
				"y": -4.345678087,
				"z": -1.1396088238,
				"element": "H" 
			},
			{
				"x": -11.4945698315,
				"y": -2.971037074,
				"z": -1.3818040568,
				"element": "H" 
			},
			{
				"x": -11.132071838,
				"y": -4.1669830947,
				"z": 0.7957284786,
				"element": "H" 
			},
			{
				"x": -10.6788432632,
				"y": -5.6235778208,
				"z": -0.0721186688,
				"element": "H" 
			},
			{
				"x": -8.6969390407,
				"y": -4.4298373178,
				"z": -1.0512552236,
				"element": "H" 
			},
			{
				"x": -9.1855827023,
				"y": -2.948907767,
				"z": -0.2450586627,
				"element": "H" 
			},
			{
				"x": -8.9020555631,
				"y": -4.0751092283,
				"z": 1.9855828131,
				"element": "H" 
			},
			{
				"x": -8.4267283981,
				"y": -5.5593924898,
				"z": 1.1784476605,
				"element": "H" 
			},
			{
				"x": -6.4475785124,
				"y": -4.3783653571,
				"z": 0.1692417225,
				"element": "H" 
			},
			{
				"x": -6.9229172265,
				"y": -2.8928672247,
				"z": 0.974071735,
				"element": "H" 
			},
			{
				"x": -6.6472725001,
				"y": -4.0164020988,
				"z": 3.2093982451,
				"element": "H" 
			},
			{
				"x": -6.1718367939,
				"y": -5.5017706977,
				"z": 2.4044637618,
				"element": "H" 
			},
			{
				"x": -4.6690727078,
				"y": -2.8376168502,
				"z": 2.202114219,
				"element": "H" 
			},
			{
				"x": -4.1937349406,
				"y": -4.3171794621,
				"z": 1.3919799757,
				"element": "H" 
			},
			{
				"x": -4.3955659671,
				"y": -4.0236678768,
				"z": 4.4400036639,
				"element": "H" 
			},
			{
				"x": -3.9384726382,
				"y": -5.4752460808,
				"z": 3.575726994,
				"element": "H" 
			},
			{
				"x": -1.8265513847,
				"y": -4.7143298511,
				"z": 4.0671020466,
				"element": "H" 
			},
			{
				"x": -2.0240703674,
				"y": -3.9060574333,
				"z": 2.5274261324,
				"element": "H" 
			},
			{
				"x": -2.4476243828,
				"y": -2.6715735759,
				"z": 5.3052416786,
				"element": "H" 
			},
			{
				"x": -1.021954269,
				"y": -2.4777074037,
				"z": 4.3036558283,
				"element": "H" 
			},
			{
				"x": -2.4565213834,
				"y": -1.3199314235,
				"z": 2.5569229977,
				"element": "H" 
			},
			{
				"x": -3.8180980051,
				"y": -1.4000886734,
				"z": 3.6631637652,
				"element": "H" 
			},
			{
				"x": -1.1709187035,
				"y": 0.0286507624,
				"z": 4.2346231234,
				"element": "H" 
			},
			{
				"x": -2.478809921,
				"y": -0.131495641,
				"z": 5.385696306,
				"element": "H" 
			},
			{
				"x": -4.0144830493,
				"y": 1.1493556703,
				"z": 3.9328278,
				"element": "H" 
			},
			{
				"x": -2.6024239886,
				"y": 2.0768007501,
				"z": 4.3979325361,
				"element": "H" 
			},
			{
				"x": -3.0285583476,
				"y": 0.7537399992,
				"z": 1.6532130436,
				"element": "H" 
			},
			{
				"x": -3.258845349,
				"y": 2.4511792421,
				"z": 2.0264514669,
				"element": "H" 
			},
			{
				"x": -0.8278455801,
				"y": 2.6594335429,
				"z": 2.6151216179,
				"element": "H" 
			},
			{
				"x": -0.5916931594,
				"y": 0.962899016,
				"z": 2.1590972799,
				"element": "H" 
			},
			{
				"x": 0.5960218058,
				"y": 3.335688685,
				"z": 0.9004688357,
				"element": "H" 
			},
			{
				"x": -0.0183382277,
				"y": 3.1999830625,
				"z": -0.757173522,
				"element": "H" 
			},
			{
				"x": 1.3087981059,
				"y": 0.9342935794,
				"z": 0.83625355,
				"element": "H" 
			},
			{
				"x": 2.0718442848,
				"y": 1.9030251493,
				"z": -0.4066018987,
				"element": "H" 
			},
			{
				"x": 0.4343262367,
				"y": 1.0209159314,
				"z": -2.1056869236,
				"element": "H" 
			},
			{
				"x": -0.4285253301,
				"y": 0.1919517404,
				"z": -0.8306210012,
				"element": "H" 
			},
			{
				"x": 0.7662407427,
				"y": -1.5876236147,
				"z": -1.6864527023,
				"element": "H" 
			},
			{
				"x": 1.8763729865,
				"y": -1.0888852911,
				"z": -0.4288797467,
				"element": "H" 
			},
			{
				"x": 2.0757237483,
				"y": -0.4016386602,
				"z": -3.4131483745,
				"element": "H" 
			},
			{
				"x": 2.9691045516,
				"y": -1.666189589,
				"z": -2.5912707459,
				"element": "H" 
			},
			{
				"x": 3.2840103273,
				"y": 1.3406884873,
				"z": -2.1250935331,
				"element": "H" 
			},
			{
				"x": 4.0910486767,
				"y": 0.1148798917,
				"z": -1.1592577936,
				"element": "H" 
			},
			{
				"x": 4.4019563461,
				"y": 0.4565464265,
				"z": -4.1932692534,
				"element": "H" 
			},
			{
				"x": 5.173361996,
				"y": -0.7963201311,
				"z": -3.2373597667,
				"element": "H" 
			},
			{
				"x": 6.3979941978,
				"y": 0.9604278028,
				"z": -1.9205476251,
				"element": "H" 
			},
			{
				"x": 6.8101737115,
				"y": 0.9197201464,
				"z": -3.6236574144,
				"element": "H" 
			},
			{
				"x": 4.9035980736,
				"y": 2.9642801795,
				"z": -2.3589593194,
				"element": "H" 
			},
			{
				"x": 5.2501960063,
				"y": 2.8161354826,
				"z": -4.0686365906,
				"element": "H" 
			},
			{
				"x": 6.7209023932,
				"y": 4.5020058245,
				"z": -3.544061931,
				"element": "H" 
			},
			{
				"x": 7.7921226354,
				"y": 3.1400732529,
				"z": -3.3246855728,
				"element": "H" 
			},
			{
				"x": 6.2695112351,
				"y": 4.659334687,
				"z": -1.1347985147,
				"element": "H" 
			},
			{
				"x": 7.952889345,
				"y": 4.9087336443,
				"z": -1.5536433555,
				"element": "H" 
			},
			{
				"x": 6.7988062888,
				"y": 2.3627458781,
				"z": -0.2921871824,
				"element": "H" 
			},
			{
				"x": 7.6660170358,
				"y": 3.6335195751,
				"z": 0.5395658344,
				"element": "H" 
			},
			{
				"x": 9.7077835449,
				"y": 3.1614837985,
				"z": -0.853508862,
				"element": "H" 
			},
			{
				"x": 8.8615539129,
				"y": 1.843008985,
				"z": -1.6441543653,
				"element": "H" 
			},
			{
				"x": 8.5650325292,
				"y": 0.6953210526,
				"z": 0.5725783648,
				"element": "H" 
			},
			{
				"x": 9.4179915542,
				"y": 2.0082834434,
				"z": 1.3655429506,
				"element": "H" 
			},
			{
				"x": 10.6160534553,
				"y": 0.1853471323,
				"z": -0.7900604155,
				"element": "H" 
			},
			{
				"x": 11.4691812803,
				"y": 1.4974531355,
				"z": 0.0025536585,
				"element": "H" 
			},
			{
				"x": 11.2125177355,
				"y": 0.3271989433,
				"z": 2.2302179574,
				"element": "H" 
			},
			{
				"x": 12.0564335438,
				"y": -0.6964463719,
				"z": 1.0605213742,
				"element": "H" 
			},
			{
				"x": 10.3529939996,
				"y": -0.9945415819,
				"z": 1.4315795637,
				"element": "H" 
			}
		],
		 "valence_orbital": [ 
			{
				"type": "occ",
				"energy": -0.29618,
				"method": "rhf"
			},
			{
				"type": "occ",
				"energy": -0.29555,
				"method": "rhf"
			},
			{
				"type": "occ",
				"energy": -0.2901,
				"method": "rhf"
			},
			{
				"type": "occ",
				"energy": -0.28726,
				"method": "rhf"
			},
			{
				"type": "occ",
				"energy": -0.24471,
				"method": "rhf"
			},
			{
				"type": "unocc",
				"energy": 0.07444,
				"method": "rhf"
			},
			{
				"type": "unocc",
				"energy": 0.07897,
				"method": "rhf"
			},
			{
				"type": "unocc",
				"energy": 0.0867,
				"method": "rhf"
			},
			{
				"type": "unocc",
				"energy": 0.09098,
				"method": "rhf"
			},
			{
				"type": "unocc",
				"energy": 0.09546,
				"method": "rhf"
			}
		],
		"cosmo_sigma_profile": { 
			"-0.025": 0.0,
			"-0.024": 0.0,
			"-0.023": 0.0,
			"-0.022": 0.0,
			"-0.021": 0.0,
			"-0.02": 0.0,
			"-0.019": 0.0,
			"-0.018": 0.0,
			"-0.017": 0.0,
			"-0.016": 0.0,
			"-0.015": 0.0,
			"-0.014": 0.0,
			"-0.013": 0.0,
			"-0.012": 0.0,
			"-0.011": 0.0,
			"-0.01": 0.0,
			"-0.009": 0.0,
			"-0.008": 0.0,
			"-0.007": 0.0,
			"-0.006": 0.0,
			"-0.005": 0.0,
			"-0.004": 0.720653672122,
			"-0.003": 17.4966958727,
			"-0.002": 90.3063329371,
			"-0.001": 181.1760776,
			"0.0": 189.51770494,
			"0.001": 143.312494148,
			"0.002": 68.12088344,
			"0.003": 4.54314350288,
			"0.004": 2.24863612522,
			"0.005": 1.76196942402,
			"0.006": 1.82005004265,
			"0.007": 1.63036411757,
			"0.008": 1.30567641266,
			"0.009": 1.32843754702,
			"0.01": 1.65917412452,
			"0.011": 0.656902121029,
			"0.012": 1.17913664738,
			"0.013": 1.29029649984,
			"0.014": 0.772713987671,
			"0.015": 0.0,
			"0.016": 0.0,
			"0.017": 0.0,
			"0.018": 0.0,
			"0.019": 0.0,
			"0.02": 0.0,
			"0.021": 0.0,
			"0.022": 0.0,
			"0.023": 0.0,
			"0.024": 0.0,
			"0.025": 0.0
		}
	}
}
