{
	 "smiles": "ON=C1C2CC3CC(C2)CC1C3", 
	 "Tm": 423.15, 
	 "num_atms": 27, 
	 "gaussian": { 
		 "optdone": 1, 
		 "sigma_profile": "yes", 
		 "theory": "DFT", 
		 "functional": "B3LYP", 
		 "basiset": "6-31G**", 
		 "properties": { 
			 "R2extent": 1912.2019, 
			 "electric_dipole_moment_norm": 0.990588421091, 
			 "electric_quadrupole_moment_norm": 2.20928509251, 
			 "total_energy": -520.048060957, 
			 "HOMO_LUMO_gap": 0.25187, 
			 "cosmo_polarized_energy": -6.67, 
			 "cosmo_cavitation_energy": 25.67, 
			 "cosmo_dispersion_energy": -19.74, 
			 "cosmo_repulsion_energy": 1.56, 
			 "cosmo_total_nonelectrostatic_energy": 7.49, 
			 "SMD_solvation_energy": 2.99 
		},
		"coords": [
			{
				"x": -0.8950223592,
				"y": -3.2431929337,
				"z": 1.5566713288,
				"element": "O" 
			},
			{
				"x": 0.3281008136,
				"y": -2.8203518445,
				"z": 0.9781285431,
				"element": "N" 
			},
			{
				"x": 0.2061177445,
				"y": -1.7184523025,
				"z": 0.3390711604,
				"element": "C" 
			},
			{
				"x": 1.4345980585,
				"y": -1.1448041188,
				"z": -0.3335012429,
				"element": "C" 
			},
			{
				"x": 1.6998886843,
				"y": 0.2649431539,
				"z": 0.2527212228,
				"element": "C" 
			},
			{
				"x": 0.4623277701,
				"y": 1.1598817997,
				"z": 0.0306370124,
				"element": "C" 
			},
			{
				"x": 0.177188955,
				"y": 1.276973973,
				"z": -1.4819616812,
				"element": "C" 
			},
			{
				"x": -0.0903821352,
				"y": -0.1240055849,
				"z": -2.0721302423,
				"element": "C" 
			},
			{
				"x": 1.1470759979,
				"y": -1.0194141946,
				"z": -1.8512096593,
				"element": "C" 
			},
			{
				"x": -1.3112154049,
				"y": -0.7534912027,
				"z": -1.3683457157,
				"element": "C" 
			},
			{
				"x": -1.038890999,
				"y": -0.8770750634,
				"z": 0.1531310512,
				"element": "C" 
			},
			{
				"x": -0.7577818457,
				"y": 0.5316942491,
				"z": 0.736752407,
				"element": "C" 
			},
			{
				"x": -0.6299089836,
				"y": -4.0655300515,
				"z": 1.9876957916,
				"element": "H" 
			},
			{
				"x": 2.286337196,
				"y": -1.8076962006,
				"z": -0.1527278994,
				"element": "H" 
			},
			{
				"x": 2.5801506955,
				"y": 0.7048393123,
				"z": -0.2338936199,
				"element": "H" 
			},
			{
				"x": 1.9271895545,
				"y": 0.1867557038,
				"z": 1.3229346561,
				"element": "H" 
			},
			{
				"x": 0.6520470074,
				"y": 2.1566428006,
				"z": 0.4486166728,
				"element": "H" 
			},
			{
				"x": -0.6896608316,
				"y": 1.9289781125,
				"z": -1.6521449823,
				"element": "H" 
			},
			{
				"x": 1.0311340232,
				"y": 1.7430014718,
				"z": -1.9909333276,
				"element": "H" 
			},
			{
				"x": -0.2931625107,
				"y": -0.0390119327,
				"z": -3.1472491219,
				"element": "H" 
			},
			{
				"x": 0.9802528479,
				"y": -2.0141513956,
				"z": -2.2822374104,
				"element": "H" 
			},
			{
				"x": 2.0223760433,
				"y": -0.590370455,
				"z": -2.3561276081,
				"element": "H" 
			},
			{
				"x": -1.5272262846,
				"y": -1.7422739704,
				"z": -1.7908511676,
				"element": "H" 
			},
			{
				"x": -2.203023391,
				"y": -0.1333352255,
				"z": -1.5275620425,
				"element": "H" 
			},
			{
				"x": -1.8860153319,
				"y": -1.3421417307,
				"z": 0.6597244877,
				"element": "H" 
			},
			{
				"x": -0.5786247168,
				"y": 0.459995247,
				"z": 1.8163872476,
				"element": "H" 
			},
			{
				"x": -1.6441705976,
				"y": 1.1644923833,
				"z": 0.5985041394,
				"element": "H" 
			}
		],
		 "valence_orbital": [ 
			{
				"type": "occ",
				"energy": -0.29344,
				"method": "rhf"
			},
			{
				"type": "occ",
				"energy": -0.29224,
				"method": "rhf"
			},
			{
				"type": "occ",
				"energy": -0.28641,
				"method": "rhf"
			},
			{
				"type": "occ",
				"energy": -0.25285,
				"method": "rhf"
			},
			{
				"type": "occ",
				"energy": -0.23259,
				"method": "rhf"
			},
			{
				"type": "unocc",
				"energy": 0.01928,
				"method": "rhf"
			},
			{
				"type": "unocc",
				"energy": 0.07264,
				"method": "rhf"
			},
			{
				"type": "unocc",
				"energy": 0.08648,
				"method": "rhf"
			},
			{
				"type": "unocc",
				"energy": 0.12405,
				"method": "rhf"
			},
			{
				"type": "unocc",
				"energy": 0.12617,
				"method": "rhf"
			}
		],
		"cosmo_sigma_profile": { 
			"-0.025": 0.0,
			"-0.024": 0.0,
			"-0.023": 0.0,
			"-0.022": 0.0,
			"-0.021": 0.0,
			"-0.02": 0.0,
			"-0.019": 0.0,
			"-0.018": 0.0,
			"-0.017": 0.179660348199,
			"-0.016": 0.852655143468,
			"-0.015": 0.992808367956,
			"-0.014": 0.93087116154,
			"-0.013": 0.646044136214,
			"-0.012": 0.765093305527,
			"-0.011": 0.380118114769,
			"-0.01": 0.249996470146,
			"-0.009": 0.859565397354,
			"-0.008": 0.887410237248,
			"-0.007": 0.272348216254,
			"-0.006": 0.642348342333,
			"-0.005": 1.09211284326,
			"-0.004": 0.755680780271,
			"-0.003": 16.6135767637,
			"-0.002": 42.88667342,
			"-0.001": 39.2539785653,
			"0.0": 36.0459630034,
			"0.001": 16.8645401353,
			"0.002": 3.73693785981,
			"0.003": 3.03869755784,
			"0.004": 2.7372053046,
			"0.005": 2.46934335039,
			"0.006": 3.66300135907,
			"0.007": 4.55663557749,
			"0.008": 3.02315852218,
			"0.009": 3.87078751674,
			"0.01": 3.23309816318,
			"0.011": 2.68992968026,
			"0.012": 0.791461537899,
			"0.013": 1.11741757524,
			"0.014": 0.81759188667,
			"0.015": 0.363554269329,
			"0.016": 0.0,
			"0.017": 0.0,
			"0.018": 0.0,
			"0.019": 0.0,
			"0.02": 0.0,
			"0.021": 0.0,
			"0.022": 0.0,
			"0.023": 0.0,
			"0.024": 0.0,
			"0.025": 0.0
		}
	}
}
