{
	 "smiles": "CCOC(=O)C(CC=C)(C=C1C2CCC(C)(C1=O)C2(C)C)C=C1C2CCC(C)(C1=O)C2(C)C", 
	 "Tm": 421.15, 
	 "num_atms": 73, 
	 "gaussian": { 
		 "optdone": 1, 
		 "sigma_profile": "yes", 
		 "theory": "DFT", 
		 "functional": "B3LYP", 
		 "basiset": "6-31G**", 
		 "properties": { 
			 "R2extent": 14327.8513, 
			 "electric_dipole_moment_norm": 6.46847427528, 
			 "electric_quadrupole_moment_norm": 23.5320679087, 
			 "total_energy": -1430.05258354, 
			 "HOMO_LUMO_gap": 0.16671, 
			 "cosmo_polarized_energy": -20.13, 
			 "cosmo_cavitation_energy": 66.61, 
			 "cosmo_dispersion_energy": -39.68, 
			 "cosmo_repulsion_energy": 2.92, 
			 "cosmo_total_nonelectrostatic_energy": 29.85, 
			 "SMD_solvation_energy": 12.51 
		},
		"coords": [
			{
				"x": 2.8142361785,
				"y": 4.2770119054,
				"z": -1.1910184193,
				"element": "C" 
			},
			{
				"x": 2.6121598956,
				"y": 4.0140139951,
				"z": 0.2929717923,
				"element": "C" 
			},
			{
				"x": 1.6922044433,
				"y": 2.9128520864,
				"z": 0.5283126194,
				"element": "O" 
			},
			{
				"x": 2.2240917323,
				"y": 1.6767739882,
				"z": 0.4474642825,
				"element": "C" 
			},
			{
				"x": 3.3974483605,
				"y": 1.4662830192,
				"z": 0.2304775982,
				"element": "O" 
			},
			{
				"x": 1.2294463042,
				"y": 0.5473914218,
				"z": 0.8144037381,
				"element": "C" 
			},
			{
				"x": 1.5279513349,
				"y": 0.2284561185,
				"z": 2.3365080658,
				"element": "C" 
			},
			{
				"x": 1.1929474206,
				"y": 1.3325307335,
				"z": 3.3011418288,
				"element": "C" 
			},
			{
				"x": 0.3378734256,
				"y": 1.2080874811,
				"z": 4.3179677697,
				"element": "C" 
			},
			{
				"x": 1.6392670865,
				"y": -0.687428391,
				"z": 0.0183877053,
				"element": "C" 
			},
			{
				"x": 1.045107483,
				"y": -1.8873292794,
				"z": -0.0202865398,
				"element": "C" 
			},
			{
				"x": -0.2298184439,
				"y": -2.4613707447,
				"z": 0.5672459723,
				"element": "C" 
			},
			{
				"x": -1.1759467727,
				"y": -2.7215032886,
				"z": -0.6427407216,
				"element": "C" 
			},
			{
				"x": -0.4994035925,
				"y": -3.9236877146,
				"z": -1.3679965646,
				"element": "C" 
			},
			{
				"x": 0.748202941,
				"y": -4.2512425891,
				"z": -0.4838885543,
				"element": "C" 
			},
			{
				"x": 1.3932281165,
				"y": -5.5991334826,
				"z": -0.751027608,
				"element": "C" 
			},
			{
				"x": 1.67779529,
				"y": -3.049993136,
				"z": -0.7358043646,
				"element": "C" 
			},
			{
				"x": 2.7057759468,
				"y": -3.0524325466,
				"z": -1.3864114863,
				"element": "O" 
			},
			{
				"x": 0.2220539552,
				"y": -3.912953371,
				"z": 0.9601300691,
				"element": "C" 
			},
			{
				"x": -0.929119297,
				"y": -4.8098013849,
				"z": 1.4440719994,
				"element": "C" 
			},
			{
				"x": 1.3220928515,
				"y": -3.9426507106,
				"z": 2.0356673385,
				"element": "C" 
			},
			{
				"x": -0.2378348148,
				"y": 0.927309354,
				"z": 0.6594498017,
				"element": "C" 
			},
			{
				"x": -0.8585632856,
				"y": 1.3627213387,
				"z": -0.4462151228,
				"element": "C" 
			},
			{
				"x": -2.3100428998,
				"y": 1.7828165275,
				"z": -0.6102489261,
				"element": "C" 
			},
			{
				"x": -2.988283028,
				"y": 0.7112974953,
				"z": -1.5065787351,
				"element": "C" 
			},
			{
				"x": -2.3023440852,
				"y": 0.9384865484,
				"z": -2.8880475535,
				"element": "C" 
			},
			{
				"x": -1.3684262569,
				"y": 2.1784046017,
				"z": -2.6620645053,
				"element": "C" 
			},
			{
				"x": -0.8901394423,
				"y": 2.8620481802,
				"z": -3.930225551,
				"element": "C" 
			},
			{
				"x": -0.2403257484,
				"y": 1.615541155,
				"z": -1.7853540571,
				"element": "C" 
			},
			{
				"x": 0.9161817451,
				"y": 1.4149057742,
				"z": -2.1181998991,
				"element": "O" 
			},
			{
				"x": -2.1776717532,
				"y": 3.0021781922,
				"z": -1.588865265,
				"element": "C" 
			},
			{
				"x": -3.5204622411,
				"y": 3.5502226614,
				"z": -2.0987987158,
				"element": "C" 
			},
			{
				"x": -1.39093203,
				"y": 4.1771471939,
				"z": -0.9822643684,
				"element": "C" 
			},
			{
				"x": 3.4866058668,
				"y": 5.132200316,
				"z": -1.3197911006,
				"element": "H" 
			},
			{
				"x": 1.86599596,
				"y": 4.5078426067,
				"z": -1.6835406694,
				"element": "H" 
			},
			{
				"x": 3.2581899271,
				"y": 3.4077711235,
				"z": -1.6793472559,
				"element": "H" 
			},
			{
				"x": 2.1407095057,
				"y": 4.8631092398,
				"z": 0.7934893598,
				"element": "H" 
			},
			{
				"x": 3.5611054,
				"y": 3.7829402347,
				"z": 0.7827081954,
				"element": "H" 
			},
			{
				"x": 0.970364984,
				"y": -0.6744527023,
				"z": 2.6026015995,
				"element": "H" 
			},
			{
				"x": 2.5938541347,
				"y": -0.0185890584,
				"z": 2.4014608433,
				"element": "H" 
			},
			{
				"x": 1.6981498848,
				"y": 2.2850398779,
				"z": 3.1498556752,
				"element": "H" 
			},
			{
				"x": 0.1419929336,
				"y": 2.0274833515,
				"z": 5.0033031887,
				"element": "H" 
			},
			{
				"x": -0.1884738219,
				"y": 0.2757092088,
				"z": 4.5112095562,
				"element": "H" 
			},
			{
				"x": 2.5836819697,
				"y": -0.5986654799,
				"z": -0.5122195326,
				"element": "H" 
			},
			{
				"x": -0.6853652479,
				"y": -1.8782116132,
				"z": 1.3714288074,
				"element": "H" 
			},
			{
				"x": -2.1887326774,
				"y": -2.9662652116,
				"z": -0.3084129853,
				"element": "H" 
			},
			{
				"x": -1.2458341022,
				"y": -1.8402291923,
				"z": -1.2832508275,
				"element": "H" 
			},
			{
				"x": -1.1595727036,
				"y": -4.7953101706,
				"z": -1.4184864619,
				"element": "H" 
			},
			{
				"x": -0.2060031628,
				"y": -3.68745757,
				"z": -2.3953542641,
				"element": "H" 
			},
			{
				"x": 0.6748494734,
				"y": -6.4172770712,
				"z": -0.6334199117,
				"element": "H" 
			},
			{
				"x": 1.7881490472,
				"y": -5.6310784087,
				"z": -1.7709199361,
				"element": "H" 
			},
			{
				"x": 2.2355284756,
				"y": -5.7804049106,
				"z": -0.07610246,
				"element": "H" 
			},
			{
				"x": -0.5679178544,
				"y": -5.82645052,
				"z": 1.6330520504,
				"element": "H" 
			},
			{
				"x": -1.3321080895,
				"y": -4.4275992104,
				"z": 2.3892901503,
				"element": "H" 
			},
			{
				"x": -1.7590357828,
				"y": -4.8827146582,
				"z": 0.7385797567,
				"element": "H" 
			},
			{
				"x": 1.6708725585,
				"y": -4.9672370309,
				"z": 2.2030321967,
				"element": "H" 
			},
			{
				"x": 0.9323177371,
				"y": -3.572933865,
				"z": 2.9913062901,
				"element": "H" 
			},
			{
				"x": 2.1918665199,
				"y": -3.3342781429,
				"z": 1.7748848272,
				"element": "H" 
			},
			{
				"x": -0.8289405255,
				"y": 0.8541744906,
				"z": 1.5715272129,
				"element": "H" 
			},
			{
				"x": -2.8302939467,
				"y": 1.9844376398,
				"z": 0.3304905256,
				"element": "H" 
			},
			{
				"x": -2.8333592264,
				"y": -0.2970173473,
				"z": -1.117179751,
				"element": "H" 
			},
			{
				"x": -4.068612193,
				"y": 0.8733281263,
				"z": -1.5614882872,
				"element": "H" 
			},
			{
				"x": -1.7300541359,
				"y": 0.0691214212,
				"z": -3.227299135,
				"element": "H" 
			},
			{
				"x": -3.0296543244,
				"y": 1.1627811839,
				"z": -3.6743770184,
				"element": "H" 
			},
			{
				"x": -0.2715648948,
				"y": 2.177995964,
				"z": -4.5190352316,
				"element": "H" 
			},
			{
				"x": -0.2742694354,
				"y": 3.7385001028,
				"z": -3.7055257121,
				"element": "H" 
			},
			{
				"x": -1.7328209836,
				"y": 3.1843701841,
				"z": -4.5504257748,
				"element": "H" 
			},
			{
				"x": -3.3519450973,
				"y": 4.3748213079,
				"z": -2.799725871,
				"element": "H" 
			},
			{
				"x": -4.1381418288,
				"y": 2.8087443852,
				"z": -2.6091026685,
				"element": "H" 
			},
			{
				"x": -4.1054354553,
				"y": 3.9495874989,
				"z": -1.262262812,
				"element": "H" 
			},
			{
				"x": -1.1881398938,
				"y": 4.9409015697,
				"z": -1.7411520658,
				"element": "H" 
			},
			{
				"x": -1.9797035814,
				"y": 4.6546533121,
				"z": -0.190582738,
				"element": "H" 
			},
			{
				"x": -0.4393062331,
				"y": 3.8708058853,
				"z": -0.5417813884,
				"element": "H" 
			}
		],
		 "valence_orbital": [ 
			{
				"type": "occ",
				"energy": -0.26637,
				"method": "rhf"
			},
			{
				"type": "occ",
				"energy": -0.25753,
				"method": "rhf"
			},
			{
				"type": "occ",
				"energy": -0.24014,
				"method": "rhf"
			},
			{
				"type": "occ",
				"energy": -0.23423,
				"method": "rhf"
			},
			{
				"type": "occ",
				"energy": -0.22382,
				"method": "rhf"
			},
			{
				"type": "unocc",
				"energy": -0.05711,
				"method": "rhf"
			},
			{
				"type": "unocc",
				"energy": -0.03672,
				"method": "rhf"
			},
			{
				"type": "unocc",
				"energy": 0.00746,
				"method": "rhf"
			},
			{
				"type": "unocc",
				"energy": 0.01907,
				"method": "rhf"
			},
			{
				"type": "unocc",
				"energy": 0.06198,
				"method": "rhf"
			}
		],
		"cosmo_sigma_profile": { 
			"-0.025": 0.0,
			"-0.024": 0.0,
			"-0.023": 0.0,
			"-0.022": 0.0,
			"-0.021": 0.0,
			"-0.02": 0.0,
			"-0.019": 0.0,
			"-0.018": 0.0,
			"-0.017": 0.0,
			"-0.016": 0.0,
			"-0.015": 0.0,
			"-0.014": 0.0,
			"-0.013": 0.0,
			"-0.012": 0.0,
			"-0.011": 0.0,
			"-0.01": 0.0,
			"-0.009": 0.0,
			"-0.008": 0.013357388331,
			"-0.007": 0.328404687895,
			"-0.006": 2.74547806707,
			"-0.005": 15.2205490434,
			"-0.004": 37.1035335666,
			"-0.003": 70.1232557841,
			"-0.002": 86.6543109315,
			"-0.001": 77.7793866989,
			"0.0": 66.7112202148,
			"0.001": 55.5005576132,
			"0.002": 18.8224750824,
			"0.003": 11.7686314158,
			"0.004": 11.113564648,
			"0.005": 10.3676012731,
			"0.006": 9.63813935128,
			"0.007": 7.44578405631,
			"0.008": 5.54769506285,
			"0.009": 5.14987400368,
			"0.01": 5.43962564241,
			"0.011": 7.19697996532,
			"0.012": 8.56205492556,
			"0.013": 3.0933305108,
			"0.014": 0.0161891347639,
			"0.015": 0.0,
			"0.016": 0.0,
			"0.017": 0.0,
			"0.018": 0.0,
			"0.019": 0.0,
			"0.02": 0.0,
			"0.021": 0.0,
			"0.022": 0.0,
			"0.023": 0.0,
			"0.024": 0.0,
			"0.025": 0.0
		}
	}
}
