{
	 "smiles": "OCCCCCCCCCCO", 
	 "Tm": 346.15, 
	 "num_atms": 34, 
	 "gaussian": { 
		 "optdone": 1, 
		 "sigma_profile": "yes", 
		 "theory": "DFT", 
		 "functional": "B3LYP", 
		 "basiset": "6-31G**", 
		 "properties": { 
			 "R2extent": 3732.0854, 
			 "electric_dipole_moment_norm": 2.04711000681, 
			 "electric_quadrupole_moment_norm": 11.6638619895, 
			 "total_energy": -544.767583884, 
			 "HOMO_LUMO_gap": 0.31545, 
			 "cosmo_polarized_energy": -11.22, 
			 "cosmo_cavitation_energy": 34.33, 
			 "cosmo_dispersion_energy": -23.33, 
			 "cosmo_repulsion_energy": 1.94, 
			 "cosmo_total_nonelectrostatic_energy": 12.94, 
			 "SMD_solvation_energy": 4.76 
		},
		"coords": [
			{
				"x": 0.465693198,
				"y": -1.2658157593,
				"z": 4.3012440993,
				"element": "O" 
			},
			{
				"x": -0.3098300644,
				"y": -0.250432537,
				"z": 3.6772279908,
				"element": "C" 
			},
			{
				"x": 0.4428348311,
				"y": 0.4829531218,
				"z": 2.565765356,
				"element": "C" 
			},
			{
				"x": -0.3587901285,
				"y": 1.6509735168,
				"z": 1.9710628616,
				"element": "C" 
			},
			{
				"x": 0.3497607396,
				"y": 2.4220773026,
				"z": 0.8345233832,
				"element": "C" 
			},
			{
				"x": 0.058897916,
				"y": 1.9353985037,
				"z": -0.5970507242,
				"element": "C" 
			},
			{
				"x": 0.530191387,
				"y": 0.5132095246,
				"z": -0.9345473424,
				"element": "C" 
			},
			{
				"x": 0.4396900945,
				"y": 0.1483172825,
				"z": -2.4270574676,
				"element": "C" 
			},
			{
				"x": -0.966871082,
				"y": 0.2172923649,
				"z": -3.0529267704,
				"element": "C" 
			},
			{
				"x": -2.0411141138,
				"y": -0.705779411,
				"z": -2.4502355896,
				"element": "C" 
			},
			{
				"x": -1.8007109661,
				"y": -2.2088213566,
				"z": -2.6241477996,
				"element": "C" 
			},
			{
				"x": -0.7004435067,
				"y": -2.7209274918,
				"z": -1.8753415682,
				"element": "O" 
			},
			{
				"x": 0.7223820686,
				"y": -1.8992887105,
				"z": 3.6186744286,
				"element": "H" 
			},
			{
				"x": -1.257722764,
				"y": -0.6564551033,
				"z": 3.283542012,
				"element": "H" 
			},
			{
				"x": -0.5741729152,
				"y": 0.4502701265,
				"z": 4.4772744595,
				"element": "H" 
			},
			{
				"x": 0.7088749313,
				"y": -0.236973151,
				"z": 1.7800466405,
				"element": "H" 
			},
			{
				"x": 1.3895030177,
				"y": 0.855186185,
				"z": 2.9772547328,
				"element": "H" 
			},
			{
				"x": -1.3337654398,
				"y": 1.2892883822,
				"z": 1.6127485589,
				"element": "H" 
			},
			{
				"x": -0.5853348028,
				"y": 2.3502580024,
				"z": 2.7866488334,
				"element": "H" 
			},
			{
				"x": 0.0488056834,
				"y": 3.4756315212,
				"z": 0.8886693386,
				"element": "H" 
			},
			{
				"x": 1.4343945155,
				"y": 2.4129245183,
				"z": 1.0115668226,
				"element": "H" 
			},
			{
				"x": -1.0210295468,
				"y": 2.0206547873,
				"z": -0.7800272235,
				"element": "H" 
			},
			{
				"x": 0.53650586,
				"y": 2.6346256272,
				"z": -1.2980604914,
				"element": "H" 
			},
			{
				"x": -0.0385291319,
				"y": -0.2191749487,
				"z": -0.3474468994,
				"element": "H" 
			},
			{
				"x": 1.5762940603,
				"y": 0.3997200642,
				"z": -0.6186719988,
				"element": "H" 
			},
			{
				"x": 1.0932598956,
				"y": 0.8281530746,
				"z": -2.9913339368,
				"element": "H" 
			},
			{
				"x": 0.8401805889,
				"y": -0.8609209166,
				"z": -2.5604666576,
				"element": "H" 
			},
			{
				"x": -1.3365960422,
				"y": 1.2495806942,
				"z": -3.0062244222,
				"element": "H" 
			},
			{
				"x": -0.8771906243,
				"y": -0.0153895327,
				"z": -4.1230469874,
				"element": "H" 
			},
			{
				"x": -2.1816912883,
				"y": -0.4891042797,
				"z": -1.380961739,
				"element": "H" 
			},
			{
				"x": -3.0041088841,
				"y": -0.4718712481,
				"z": -2.9249456502,
				"element": "H" 
			},
			{
				"x": -1.5670992598,
				"y": -2.4310153396,
				"z": -3.6717516032,
				"element": "H" 
			},
			{
				"x": -2.7240663505,
				"y": -2.7574788614,
				"z": -2.3775628992,
				"element": "H" 
			},
			{
				"x": -0.8999018762,
				"y": -2.5892659526,
				"z": -0.9396417472,
				"element": "H" 
			}
		],
		 "valence_orbital": [ 
			{
				"type": "occ",
				"energy": -0.30727,
				"method": "rhf"
			},
			{
				"type": "occ",
				"energy": -0.30523,
				"method": "rhf"
			},
			{
				"type": "occ",
				"energy": -0.30124,
				"method": "rhf"
			},
			{
				"type": "occ",
				"energy": -0.26247,
				"method": "rhf"
			},
			{
				"type": "occ",
				"energy": -0.26093,
				"method": "rhf"
			},
			{
				"type": "unocc",
				"energy": 0.05452,
				"method": "rhf"
			},
			{
				"type": "unocc",
				"energy": 0.07895,
				"method": "rhf"
			},
			{
				"type": "unocc",
				"energy": 0.08823,
				"method": "rhf"
			},
			{
				"type": "unocc",
				"energy": 0.09559,
				"method": "rhf"
			},
			{
				"type": "unocc",
				"energy": 0.10633,
				"method": "rhf"
			}
		],
		"cosmo_sigma_profile": { 
			"-0.025": 0.0,
			"-0.024": 0.0,
			"-0.023": 0.0,
			"-0.022": 0.0,
			"-0.021": 0.0,
			"-0.02": 0.0,
			"-0.019": 0.0,
			"-0.018": 0.0,
			"-0.017": 0.0,
			"-0.016": 0.0,
			"-0.015": 0.553974711723,
			"-0.014": 1.67210858726,
			"-0.013": 1.97516650133,
			"-0.012": 1.25618721562,
			"-0.011": 2.1446805906,
			"-0.01": 1.84477385343,
			"-0.009": 1.94644685055,
			"-0.008": 1.67735880062,
			"-0.007": 2.26548940969,
			"-0.006": 2.85746354058,
			"-0.005": 3.95772117376,
			"-0.004": 4.60309320509,
			"-0.003": 15.5614965338,
			"-0.002": 37.9869870526,
			"-0.001": 50.8786689499,
			"0.0": 46.1026594616,
			"0.001": 35.7529415386,
			"0.002": 12.2793873887,
			"0.003": 3.42039941412,
			"0.004": 3.08757596605,
			"0.005": 2.83409088229,
			"0.006": 3.24746172776,
			"0.007": 2.17680546788,
			"0.008": 2.0980472147,
			"0.009": 2.57953939931,
			"0.01": 3.05475572826,
			"0.011": 2.72506720991,
			"0.012": 2.03506800296,
			"0.013": 2.44727227318,
			"0.014": 4.20608201345,
			"0.015": 2.83053241244,
			"0.016": 0.0068197332354,
			"0.017": 0.0,
			"0.018": 0.0,
			"0.019": 0.0,
			"0.02": 0.0,
			"0.021": 0.0,
			"0.022": 0.0,
			"0.023": 0.0,
			"0.024": 0.0,
			"0.025": 0.0
		}
	}
}
