{
	 "smiles": "CC1=C(C)C(Cl)=C2C=CC=C(F)C2=N1", 
	 "Tm": 369.15, 
	 "num_atms": 23, 
	 "gaussian": { 
		 "optdone": 1, 
		 "sigma_profile": "yes", 
		 "theory": "DFT", 
		 "functional": "B3LYP", 
		 "basiset": "6-31G**", 
		 "properties": { 
			 "R2extent": 3301.4532, 
			 "electric_dipole_moment_norm": 1.63208365288, 
			 "electric_quadrupole_moment_norm": 12.1559219243, 
			 "total_energy": -1039.39130654, 
			 "HOMO_LUMO_gap": 0.17086, 
			 "cosmo_polarized_energy": -6.78, 
			 "cosmo_cavitation_energy": 28.33, 
			 "cosmo_dispersion_energy": -20.99, 
			 "cosmo_repulsion_energy": 1.6, 
			 "cosmo_total_nonelectrostatic_energy": 8.94, 
			 "SMD_solvation_energy": 3.74 
		},
		"coords": [
			{
				"x": 2.3786832654,
				"y": 2.0567483986,
				"z": -0.1775001067,
				"element": "C" 
			},
			{
				"x": 1.368937969,
				"y": 0.9815466544,
				"z": 0.1518851502,
				"element": "C" 
			},
			{
				"x": 1.1716850599,
				"y": -0.1421696905,
				"z": -0.724260491,
				"element": "C" 
			},
			{
				"x": 1.9558728993,
				"y": -0.3009673811,
				"z": -2.0029495103,
				"element": "C" 
			},
			{
				"x": 0.2266720216,
				"y": -1.0719646032,
				"z": -0.3372917109,
				"element": "C" 
			},
			{
				"x": -0.0659267035,
				"y": -2.4723208187,
				"z": -1.3627135467,
				"element": "Cl" 
			},
			{
				"x": -0.5238978617,
				"y": -0.9413317322,
				"z": 0.8647725259,
				"element": "C" 
			},
			{
				"x": -1.5070017638,
				"y": -1.8570281164,
				"z": 1.3206023916,
				"element": "C" 
			},
			{
				"x": -2.1711191049,
				"y": -1.6242593905,
				"z": 2.5047302655,
				"element": "C" 
			},
			{
				"x": -1.8918491393,
				"y": -0.479358723,
				"z": 3.2858306666,
				"element": "C" 
			},
			{
				"x": -0.9423285577,
				"y": 0.4113540766,
				"z": 2.8521141766,
				"element": "C" 
			},
			{
				"x": -0.6688871403,
				"y": 1.5008272791,
				"z": 3.5844823265,
				"element": "F" 
			},
			{
				"x": -0.2237531628,
				"y": 0.2241358083,
				"z": 1.6374639842,
				"element": "C" 
			},
			{
				"x": 0.6996496832,
				"y": 1.1489778564,
				"z": 1.2761071307,
				"element": "N" 
			},
			{
				"x": 3.3938262225,
				"y": 1.6510744983,
				"z": -0.2561220837,
				"element": "H" 
			},
			{
				"x": 2.1513930874,
				"y": 2.5503635008,
				"z": -1.129315562,
				"element": "H" 
			},
			{
				"x": 2.3603805912,
				"y": 2.8030233758,
				"z": 0.6170775744,
				"element": "H" 
			},
			{
				"x": 2.6562038416,
				"y": 0.5192181989,
				"z": -2.154719353,
				"element": "H" 
			},
			{
				"x": 1.2873551594,
				"y": -0.3423332661,
				"z": -2.8695630324,
				"element": "H" 
			},
			{
				"x": 2.5240287013,
				"y": -1.2373622792,
				"z": -1.9999348972,
				"element": "H" 
			},
			{
				"x": -1.7277607225,
				"y": -2.737116929,
				"z": 0.7288303915,
				"element": "H" 
			},
			{
				"x": -2.9226882577,
				"y": -2.3274024625,
				"z": 2.8500123523,
				"element": "H" 
			},
			{
				"x": -2.4107760876,
				"y": -0.2897542546,
				"z": 4.218961358,
				"element": "H" 
			}
		],
		 "valence_orbital": [ 
			{
				"type": "occ",
				"energy": -0.32057,
				"method": "rhf"
			},
			{
				"type": "occ",
				"energy": -0.2836,
				"method": "rhf"
			},
			{
				"type": "occ",
				"energy": -0.25998,
				"method": "rhf"
			},
			{
				"type": "occ",
				"energy": -0.2534,
				"method": "rhf"
			},
			{
				"type": "occ",
				"energy": -0.22845,
				"method": "rhf"
			},
			{
				"type": "unocc",
				"energy": -0.05759,
				"method": "rhf"
			},
			{
				"type": "unocc",
				"energy": -0.02579,
				"method": "rhf"
			},
			{
				"type": "unocc",
				"energy": 0.02238,
				"method": "rhf"
			},
			{
				"type": "unocc",
				"energy": 0.02516,
				"method": "rhf"
			},
			{
				"type": "unocc",
				"energy": 0.07346,
				"method": "rhf"
			}
		],
		"cosmo_sigma_profile": { 
			"-0.025": 0.0,
			"-0.024": 0.0,
			"-0.023": 0.0,
			"-0.022": 0.0,
			"-0.021": 0.0,
			"-0.02": 0.0,
			"-0.019": 0.0,
			"-0.018": 0.0,
			"-0.017": 0.0,
			"-0.016": 0.0,
			"-0.015": 0.0,
			"-0.014": 0.0,
			"-0.013": 0.0,
			"-0.012": 0.0,
			"-0.011": 0.0,
			"-0.01": 0.0,
			"-0.009": 0.0,
			"-0.008": 0.607441169044,
			"-0.007": 3.34012097651,
			"-0.006": 5.41896282397,
			"-0.005": 15.7993780473,
			"-0.004": 17.4344556123,
			"-0.003": 15.8707046766,
			"-0.002": 18.5284125859,
			"-0.001": 24.044257475,
			"0.0": 33.6028428928,
			"0.001": 24.5473608473,
			"0.002": 18.4110744374,
			"0.003": 18.2656541848,
			"0.004": 16.3766416034,
			"0.005": 4.01024169129,
			"0.006": 2.3880279822,
			"0.007": 1.70385488619,
			"0.008": 1.55828111372,
			"0.009": 1.52862701538,
			"0.01": 1.31066031742,
			"0.011": 0.975196362426,
			"0.012": 1.20053201563,
			"0.013": 0.926460337536,
			"0.014": 0.978979353696,
			"0.015": 0.080854393108,
			"0.016": 0.0,
			"0.017": 0.0,
			"0.018": 0.0,
			"0.019": 0.0,
			"0.02": 0.0,
			"0.021": 0.0,
			"0.022": 0.0,
			"0.023": 0.0,
			"0.024": 0.0,
			"0.025": 0.0
		}
	}
}
