{
	 "smiles": "CC1=CC=CC(C)=C1C=O", 
	 "Tm": 301.65, 
	 "num_atms": 20, 
	 "gaussian": { 
		 "optdone": 1, 
		 "sigma_profile": "yes", 
		 "theory": "DFT", 
		 "functional": "B3LYP", 
		 "basiset": "6-31G**", 
		 "properties": { 
			 "R2extent": 2216.5236, 
			 "electric_dipole_moment_norm": 2.96028035666, 
			 "electric_quadrupole_moment_norm": 8.50541658121, 
			 "total_energy": -424.209366154, 
			 "HOMO_LUMO_gap": 0.1828, 
			 "cosmo_polarized_energy": -6.74, 
			 "cosmo_cavitation_energy": 22.94, 
			 "cosmo_dispersion_energy": -16.91, 
			 "cosmo_repulsion_energy": 1.35, 
			 "cosmo_total_nonelectrostatic_energy": 7.37, 
			 "SMD_solvation_energy": 4.93 
		},
		"coords": [
			{
				"x": -1.8436315483,
				"y": 1.5936851857,
				"z": -3.1429803316,
				"element": "C" 
			},
			{
				"x": -1.8595592628,
				"y": 1.3565506477,
				"z": -1.6523000116,
				"element": "C" 
			},
			{
				"x": -3.0733188608,
				"y": 1.4820042431,
				"z": -0.968165232,
				"element": "C" 
			},
			{
				"x": -3.1525016143,
				"y": 1.2756868994,
				"z": 0.4064195315,
				"element": "C" 
			},
			{
				"x": -2.0101105842,
				"y": 0.9372295262,
				"z": 1.1288849798,
				"element": "C" 
			},
			{
				"x": -0.7746893212,
				"y": 0.7999768996,
				"z": 0.4920750378,
				"element": "C" 
			},
			{
				"x": 0.429817436,
				"y": 0.4297699905,
				"z": 1.3366117135,
				"element": "C" 
			},
			{
				"x": -0.6972677798,
				"y": 1.0112084672,
				"z": -0.9107214195,
				"element": "C" 
			},
			{
				"x": 0.6160762281,
				"y": 0.8633830888,
				"z": -1.5765626282,
				"element": "C" 
			},
			{
				"x": 0.8405614723,
				"y": 1.0118023574,
				"z": -2.767504031,
				"element": "O" 
			},
			{
				"x": -2.8489971196,
				"y": 1.8452877689,
				"z": -3.4926578299,
				"element": "H" 
			},
			{
				"x": -1.4882420871,
				"y": 0.7146902923,
				"z": -3.6875587005,
				"element": "H" 
			},
			{
				"x": -1.1604068729,
				"y": 2.4026219869,
				"z": -3.4155915658,
				"element": "H" 
			},
			{
				"x": -3.9670876172,
				"y": 1.7456918233,
				"z": -1.5268822505,
				"element": "H" 
			},
			{
				"x": -4.106175487,
				"y": 1.3786121432,
				"z": 0.9168157258,
				"element": "H" 
			},
			{
				"x": -2.0759283936,
				"y": 0.7769974949,
				"z": 2.201512506,
				"element": "H" 
			},
			{
				"x": 0.1320347374,
				"y": 0.3187944231,
				"z": 2.3822997084,
				"element": "H" 
			},
			{
				"x": 0.8826366741,
				"y": -0.5170115777,
				"z": 1.0235848683,
				"element": "H" 
			},
			{
				"x": 1.2146436655,
				"y": 1.1927314704,
				"z": 1.2995936949,
				"element": "H" 
			},
			{
				"x": 1.4521463354,
				"y": 0.5921868691,
				"z": -0.9022737656,
				"element": "H" 
			}
		],
		 "valence_orbital": [ 
			{
				"type": "occ",
				"energy": -0.34879,
				"method": "rhf"
			},
			{
				"type": "occ",
				"energy": -0.34553,
				"method": "rhf"
			},
			{
				"type": "occ",
				"energy": -0.25508,
				"method": "rhf"
			},
			{
				"type": "occ",
				"energy": -0.24711,
				"method": "rhf"
			},
			{
				"type": "occ",
				"energy": -0.24331,
				"method": "rhf"
			},
			{
				"type": "unocc",
				"energy": -0.06051,
				"method": "rhf"
			},
			{
				"type": "unocc",
				"energy": -0.00418,
				"method": "rhf"
			},
			{
				"type": "unocc",
				"energy": 0.04282,
				"method": "rhf"
			},
			{
				"type": "unocc",
				"energy": 0.09292,
				"method": "rhf"
			},
			{
				"type": "unocc",
				"energy": 0.10183,
				"method": "rhf"
			}
		],
		"cosmo_sigma_profile": { 
			"-0.025": 0.0,
			"-0.024": 0.0,
			"-0.023": 0.0,
			"-0.022": 0.0,
			"-0.021": 0.0,
			"-0.02": 0.0,
			"-0.019": 0.0,
			"-0.018": 0.0,
			"-0.017": 0.0,
			"-0.016": 0.0,
			"-0.015": 0.0,
			"-0.014": 0.0,
			"-0.013": 0.0,
			"-0.012": 0.0,
			"-0.011": 0.0,
			"-0.01": 0.0,
			"-0.009": 0.0,
			"-0.008": 0.0,
			"-0.007": 0.301157977179,
			"-0.006": 7.6142008643,
			"-0.005": 18.1765557339,
			"-0.004": 16.3234545933,
			"-0.003": 16.4709824834,
			"-0.002": 15.7612816954,
			"-0.001": 18.1744243751,
			"0.0": 19.7619261556,
			"0.001": 16.0299641698,
			"0.002": 9.35320387064,
			"0.003": 10.3247153002,
			"0.004": 11.4503887783,
			"0.005": 5.97730434875,
			"0.006": 1.62699669305,
			"0.007": 1.79056348046,
			"0.008": 1.23864872728,
			"0.009": 2.18601805095,
			"0.01": 1.86769026202,
			"0.011": 2.56523993222,
			"0.012": 2.9506836992,
			"0.013": 1.83124956014,
			"0.014": 0.188101771961,
			"0.015": 0.0,
			"0.016": 0.0,
			"0.017": 0.0,
			"0.018": 0.0,
			"0.019": 0.0,
			"0.02": 0.0,
			"0.021": 0.0,
			"0.022": 0.0,
			"0.023": 0.0,
			"0.024": 0.0,
			"0.025": 0.0
		}
	}
}
