{
	 "smiles": "CC1=C(C=CC=C1N)S(N)(=O)=O", 
	 "Tm": 486.15, 
	 "num_atms": 22, 
	 "gaussian": { 
		 "optdone": 1, 
		 "sigma_profile": "yes", 
		 "theory": "DFT", 
		 "functional": "B3LYP", 
		 "basiset": "6-31G**", 
		 "properties": { 
			 "R2extent": 2513.747, 
			 "electric_dipole_moment_norm": 7.58693343124, 
			 "electric_quadrupole_moment_norm": 9.60294880024, 
			 "total_energy": -930.845955522, 
			 "HOMO_LUMO_gap": 0.18904, 
			 "cosmo_polarized_energy": -22.5, 
			 "cosmo_cavitation_energy": 25.99, 
			 "cosmo_dispersion_energy": -19.99, 
			 "cosmo_repulsion_energy": 1.53, 
			 "cosmo_total_nonelectrostatic_energy": 7.54, 
			 "SMD_solvation_energy": 3.96 
		},
		"coords": [
			{
				"x": -1.032716215,
				"y": 1.3054094475,
				"z": 1.2478439984,
				"element": "C" 
			},
			{
				"x": -0.3925163791,
				"y": 1.3419641471,
				"z": -0.1208225704,
				"element": "C" 
			},
			{
				"x": -0.323051832,
				"y": 0.2464018238,
				"z": -1.0006973895,
				"element": "C" 
			},
			{
				"x": 0.2458919727,
				"y": 0.3368885065,
				"z": -2.2737104523,
				"element": "C" 
			},
			{
				"x": 0.7729288874,
				"y": 1.5577815478,
				"z": -2.6898586285,
				"element": "C" 
			},
			{
				"x": 0.7467475697,
				"y": 2.6562313678,
				"z": -1.84020572,
				"element": "C" 
			},
			{
				"x": 0.1760579019,
				"y": 2.5629984778,
				"z": -0.5599439046,
				"element": "C" 
			},
			{
				"x": 0.1131882121,
				"y": 3.694537065,
				"z": 0.2549482258,
				"element": "N" 
			},
			{
				"x": -0.9611659369,
				"y": -1.3898003688,
				"z": -0.5523146252,
				"element": "S" 
			},
			{
				"x": -0.0088267001,
				"y": -1.9410689431,
				"z": 0.7242362152,
				"element": "N" 
			},
			{
				"x": -0.6708831963,
				"y": -2.2902255134,
				"z": -1.6667122202,
				"element": "O" 
			},
			{
				"x": -2.3139325116,
				"y": -1.2498544824,
				"z": -0.0102660535,
				"element": "O" 
			},
			{
				"x": -1.6655054899,
				"y": 2.1892123543,
				"z": 1.3858919286,
				"element": "H" 
			},
			{
				"x": -1.6715760015,
				"y": 0.4343402209,
				"z": 1.3858228467,
				"element": "H" 
			},
			{
				"x": -0.2793441878,
				"y": 1.3242845271,
				"z": 2.050143904,
				"element": "H" 
			},
			{
				"x": 0.2620262035,
				"y": -0.5368326381,
				"z": -2.9127579288,
				"element": "H" 
			},
			{
				"x": 1.2137365513,
				"y": 1.6493273667,
				"z": -3.6779064835,
				"element": "H" 
			},
			{
				"x": 1.1682036618,
				"y": 3.6054040954,
				"z": -2.1625074121,
				"element": "H" 
			},
			{
				"x": 0.7216167953,
				"y": 4.4520460941,
				"z": -0.0223215949,
				"element": "H" 
			},
			{
				"x": 0.1426636867,
				"y": 3.5313407127,
				"z": 1.2508920587,
				"element": "H" 
			},
			{
				"x": 0.9588174826,
				"y": -2.0756059523,
				"z": 0.4471616895,
				"element": "H" 
			},
			{
				"x": -0.1026604748,
				"y": -1.3775798565,
				"z": 1.5632841164,
				"element": "H" 
			}
		],
		 "valence_orbital": [ 
			{
				"type": "occ",
				"energy": -0.30585,
				"method": "rhf"
			},
			{
				"type": "occ",
				"energy": -0.29881,
				"method": "rhf"
			},
			{
				"type": "occ",
				"energy": -0.29317,
				"method": "rhf"
			},
			{
				"type": "occ",
				"energy": -0.25888,
				"method": "rhf"
			},
			{
				"type": "occ",
				"energy": -0.21979,
				"method": "rhf"
			},
			{
				"type": "unocc",
				"energy": -0.03075,
				"method": "rhf"
			},
			{
				"type": "unocc",
				"energy": -0.00177,
				"method": "rhf"
			},
			{
				"type": "unocc",
				"energy": 0.05299,
				"method": "rhf"
			},
			{
				"type": "unocc",
				"energy": 0.06344,
				"method": "rhf"
			},
			{
				"type": "unocc",
				"energy": 0.07829,
				"method": "rhf"
			}
		],
		"cosmo_sigma_profile": { 
			"-0.025": 0.0,
			"-0.024": 0.0,
			"-0.023": 0.0,
			"-0.022": 0.0,
			"-0.021": 0.0,
			"-0.02": 0.0,
			"-0.019": 0.0,
			"-0.018": 0.0,
			"-0.017": 0.0,
			"-0.016": 0.162023229342,
			"-0.015": 1.04447141137,
			"-0.014": 2.00554339486,
			"-0.013": 2.71384323474,
			"-0.012": 5.82438854027,
			"-0.011": 5.57209630056,
			"-0.01": 5.13648818457,
			"-0.009": 4.87907846583,
			"-0.008": 6.05190586098,
			"-0.007": 5.87055235957,
			"-0.006": 9.13795006261,
			"-0.005": 10.0187454051,
			"-0.004": 10.9041124013,
			"-0.003": 8.93341825437,
			"-0.002": 10.2897598137,
			"-0.001": 9.68518285969,
			"0.0": 9.61587293725,
			"0.001": 9.49624941824,
			"0.002": 9.18575553351,
			"0.003": 10.3564934183,
			"0.004": 12.6915308529,
			"0.005": 10.1317902856,
			"0.006": 4.59156352495,
			"0.007": 4.74145024226,
			"0.008": 5.67150287729,
			"0.009": 5.26926029104,
			"0.01": 8.01966252521,
			"0.011": 10.1696724821,
			"0.012": 6.89245084929,
			"0.013": 0.694884148144,
			"0.014": 0.147166135004,
			"0.015": 0.0,
			"0.016": 0.0,
			"0.017": 0.0,
			"0.018": 0.0,
			"0.019": 0.0,
			"0.02": 0.0,
			"0.021": 0.0,
			"0.022": 0.0,
			"0.023": 0.0,
			"0.024": 0.0,
			"0.025": 0.0
		}
	}
}
