{
	 "smiles": "CCNC1=NSC2=C1C=CC=C2", 
	 "Tm": 351.15, 
	 "num_atms": 22, 
	 "gaussian": { 
		 "optdone": 1, 
		 "sigma_profile": "yes", 
		 "theory": "DFT", 
		 "functional": "B3LYP", 
		 "basiset": "6-31G**", 
		 "properties": { 
			 "R2extent": 3605.7817, 
			 "electric_dipole_moment_norm": 2.07261360123, 
			 "electric_quadrupole_moment_norm": 12.0960351322, 
			 "total_energy": -856.669523095, 
			 "HOMO_LUMO_gap": 0.17711, 
			 "cosmo_polarized_energy": -7.52, 
			 "cosmo_cavitation_energy": 26.49, 
			 "cosmo_dispersion_energy": -20.06, 
			 "cosmo_repulsion_energy": 1.55, 
			 "cosmo_total_nonelectrostatic_energy": 7.98, 
			 "SMD_solvation_energy": 1.52 
		},
		"coords": [
			{
				"x": -2.0715252178,
				"y": 0.1451203605,
				"z": 0.687264263,
				"element": "C" 
			},
			{
				"x": -2.0378693543,
				"y": 0.6841188983,
				"z": -0.7398768094,
				"element": "C" 
			},
			{
				"x": -0.6963425013,
				"y": 0.6405242289,
				"z": -1.3749699538,
				"element": "N" 
			},
			{
				"x": -0.2594125728,
				"y": -0.6193734087,
				"z": -1.8459761128,
				"element": "C" 
			},
			{
				"x": -0.4645329321,
				"y": -0.9495828156,
				"z": -3.0978289919,
				"element": "N" 
			},
			{
				"x": 0.2177422417,
				"y": -2.4672100404,
				"z": -3.4418547101,
				"element": "S" 
			},
			{
				"x": 0.8107194786,
				"y": -2.7080628121,
				"z": -1.8138955064,
				"element": "C" 
			},
			{
				"x": 0.4807674476,
				"y": -1.5738179792,
				"z": -1.0407947556,
				"element": "C" 
			},
			{
				"x": 0.9322244978,
				"y": -1.4849635669,
				"z": 0.2881053131,
				"element": "C" 
			},
			{
				"x": 1.6574509789,
				"y": -2.537866533,
				"z": 0.8258633272,
				"element": "C" 
			},
			{
				"x": 1.9503200974,
				"y": -3.6791095764,
				"z": 0.052403272,
				"element": "C" 
			},
			{
				"x": 1.5406226064,
				"y": -3.7743321356,
				"z": -1.2715349067,
				"element": "C" 
			},
			{
				"x": -1.3710046782,
				"y": 0.6909461002,
				"z": 1.3268079407,
				"element": "H" 
			},
			{
				"x": -3.0780205828,
				"y": 0.2643736169,
				"z": 1.1018459725,
				"element": "H" 
			},
			{
				"x": -1.8203696302,
				"y": -0.9181476541,
				"z": 0.7283536246,
				"element": "H" 
			},
			{
				"x": -2.7806344944,
				"y": 0.1527402384,
				"z": -1.3551107198,
				"element": "H" 
			},
			{
				"x": -2.3281050834,
				"y": 1.7401377995,
				"z": -0.7283133751,
				"element": "H" 
			},
			{
				"x": -0.7233038507,
				"y": 1.2539284684,
				"z": -2.1856992805,
				"element": "H" 
			},
			{
				"x": 0.7218518333,
				"y": -0.593730592,
				"z": 0.8685993365,
				"element": "H" 
			},
			{
				"x": 2.0127741481,
				"y": -2.4815980185,
				"z": 1.8502788842,
				"element": "H" 
			},
			{
				"x": 2.5180215275,
				"y": -4.4927075046,
				"z": 0.4947457406,
				"element": "H" 
			},
			{
				"x": 1.7868260406,
				"y": -4.6467870739,
				"z": -1.8688125526,
				"element": "H" 
			}
		],
		 "valence_orbital": [ 
			{
				"type": "occ",
				"energy": -0.29326,
				"method": "rhf"
			},
			{
				"type": "occ",
				"energy": -0.2883,
				"method": "rhf"
			},
			{
				"type": "occ",
				"energy": -0.25297,
				"method": "rhf"
			},
			{
				"type": "occ",
				"energy": -0.25223,
				"method": "rhf"
			},
			{
				"type": "occ",
				"energy": -0.21741,
				"method": "rhf"
			},
			{
				"type": "unocc",
				"energy": -0.0403,
				"method": "rhf"
			},
			{
				"type": "unocc",
				"energy": -0.00777,
				"method": "rhf"
			},
			{
				"type": "unocc",
				"energy": 0.01208,
				"method": "rhf"
			},
			{
				"type": "unocc",
				"energy": 0.04145,
				"method": "rhf"
			},
			{
				"type": "unocc",
				"energy": 0.076,
				"method": "rhf"
			}
		],
		"cosmo_sigma_profile": { 
			"-0.025": 0.0,
			"-0.024": 0.0,
			"-0.023": 0.0,
			"-0.022": 0.0,
			"-0.021": 0.0,
			"-0.02": 0.0,
			"-0.019": 0.0,
			"-0.018": 0.0,
			"-0.017": 0.0,
			"-0.016": 0.0,
			"-0.015": 0.0,
			"-0.014": 0.0,
			"-0.013": 0.0,
			"-0.012": 0.188645926924,
			"-0.011": 1.02591020674,
			"-0.01": 1.32745388534,
			"-0.009": 0.633951370848,
			"-0.008": 1.90201171283,
			"-0.007": 4.7563002037,
			"-0.006": 8.48495990526,
			"-0.005": 11.3835729279,
			"-0.004": 13.9623365744,
			"-0.003": 16.9785064405,
			"-0.002": 20.9148018672,
			"-0.001": 19.0913878822,
			"0.0": 20.36399072,
			"0.001": 19.3032937687,
			"0.002": 16.1297192938,
			"0.003": 17.0842898232,
			"0.004": 16.6231676605,
			"0.005": 7.16580885671,
			"0.006": 3.03243246085,
			"0.007": 2.20295854606,
			"0.008": 0.996231457821,
			"0.009": 1.9531653373,
			"0.01": 2.0505265338,
			"0.011": 1.36889254712,
			"0.012": 1.27624886337,
			"0.013": 1.04514343392,
			"0.014": 1.47060997339,
			"0.015": 0.313385251636,
			"0.016": 0.0,
			"0.017": 0.0,
			"0.018": 0.0,
			"0.019": 0.0,
			"0.02": 0.0,
			"0.021": 0.0,
			"0.022": 0.0,
			"0.023": 0.0,
			"0.024": 0.0,
			"0.025": 0.0
		}
	}
}
