{
	 "smiles": "CC(=O)C1=CC=C(O1)C1=C(Cl)C=C(Cl)C=C1Cl", 
	 "Tm": 381.15, 
	 "num_atms": 24, 
	 "gaussian": { 
		 "optdone": 1, 
		 "sigma_profile": "yes", 
		 "theory": "DFT", 
		 "functional": "B3LYP", 
		 "basiset": "6-31G**", 
		 "properties": { 
			 "R2extent": 7126.387, 
			 "electric_dipole_moment_norm": 2.86658248617, 
			 "electric_quadrupole_moment_norm": 11.8533742715, 
			 "total_energy": -1992.49672015, 
			 "HOMO_LUMO_gap": 0.16838, 
			 "cosmo_polarized_energy": -9.28, 
			 "cosmo_cavitation_energy": 35.18, 
			 "cosmo_dispersion_energy": -24.74, 
			 "cosmo_repulsion_energy": 1.94, 
			 "cosmo_total_nonelectrostatic_energy": 12.38, 
			 "SMD_solvation_energy": 6.23 
		},
		"coords": [
			{
				"x": 0.2022426711,
				"y": 2.6212825779,
				"z": -2.086625541,
				"element": "C" 
			},
			{
				"x": 1.2310251348,
				"y": 2.5938819152,
				"z": -0.974524692,
				"element": "C" 
			},
			{
				"x": 2.0469933334,
				"y": 3.4889284654,
				"z": -0.8041460918,
				"element": "O" 
			},
			{
				"x": 1.2308673438,
				"y": 1.4319837522,
				"z": -0.072206946,
				"element": "C" 
			},
			{
				"x": 2.0195356756,
				"y": 1.1250433286,
				"z": 1.0081389124,
				"element": "C" 
			},
			{
				"x": 1.5624684577,
				"y": -0.1256693346,
				"z": 1.4999153652,
				"element": "C" 
			},
			{
				"x": 0.5240973457,
				"y": -0.5102762779,
				"z": 0.6869775583,
				"element": "C" 
			},
			{
				"x": 0.3128259293,
				"y": 0.4343823424,
				"z": -0.2723092663,
				"element": "O" 
			},
			{
				"x": -0.3373370715,
				"y": -1.701019794,
				"z": 0.6616943095,
				"element": "C" 
			},
			{
				"x": -1.104798308,
				"y": -2.0949270487,
				"z": 1.7784002352,
				"element": "C" 
			},
			{
				"x": -1.0812306836,
				"y": -1.1529962957,
				"z": 3.2559538522,
				"element": "Cl" 
			},
			{
				"x": -1.9265453045,
				"y": -3.2201138059,
				"z": 1.7659803886,
				"element": "C" 
			},
			{
				"x": -1.998747496,
				"y": -3.9827916965,
				"z": 0.6042224022,
				"element": "C" 
			},
			{
				"x": -3.0305288686,
				"y": -5.3944814125,
				"z": 0.5677130825,
				"element": "Cl" 
			},
			{
				"x": -1.2616644462,
				"y": -3.6465724297,
				"z": -0.5278298172,
				"element": "C" 
			},
			{
				"x": -0.441857484,
				"y": -2.5217361357,
				"z": -0.4824949688,
				"element": "C" 
			},
			{
				"x": 0.5162379687,
				"y": -2.1829210873,
				"z": -1.9086209559,
				"element": "Cl" 
			},
			{
				"x": 0.3055525077,
				"y": 1.7415905655,
				"z": -2.7306606723,
				"element": "H" 
			},
			{
				"x": -0.8118567427,
				"y": 2.5937237309,
				"z": -1.6733607546,
				"element": "H" 
			},
			{
				"x": 0.3393052001,
				"y": 3.5309018046,
				"z": -2.6720299214,
				"element": "H" 
			},
			{
				"x": 2.8256499312,
				"y": 1.7363486129,
				"z": 1.3852638205,
				"element": "H" 
			},
			{
				"x": 1.9471874459,
				"y": -0.6815856412,
				"z": 2.3419569165,
				"element": "H" 
			},
			{
				"x": -2.5043458945,
				"y": -3.4849611233,
				"z": 2.6420890377,
				"element": "H" 
			},
			{
				"x": -1.3105766453,
				"y": -4.2520150126,
				"z": -1.4237962535,
				"element": "H" 
			}
		],
		 "valence_orbital": [ 
			{
				"type": "occ",
				"energy": -0.29705,
				"method": "rhf"
			},
			{
				"type": "occ",
				"energy": -0.28178,
				"method": "rhf"
			},
			{
				"type": "occ",
				"energy": -0.27162,
				"method": "rhf"
			},
			{
				"type": "occ",
				"energy": -0.2534,
				"method": "rhf"
			},
			{
				"type": "occ",
				"energy": -0.23804,
				"method": "rhf"
			},
			{
				"type": "unocc",
				"energy": -0.06966,
				"method": "rhf"
			},
			{
				"type": "unocc",
				"energy": -0.04645,
				"method": "rhf"
			},
			{
				"type": "unocc",
				"energy": -0.04137,
				"method": "rhf"
			},
			{
				"type": "unocc",
				"energy": -0.02292,
				"method": "rhf"
			},
			{
				"type": "unocc",
				"energy": 0.02828,
				"method": "rhf"
			}
		],
		"cosmo_sigma_profile": { 
			"-0.025": 0.0,
			"-0.024": 0.0,
			"-0.023": 0.0,
			"-0.022": 0.0,
			"-0.021": 0.0,
			"-0.02": 0.0,
			"-0.019": 0.0,
			"-0.018": 0.0,
			"-0.017": 0.0,
			"-0.016": 0.0,
			"-0.015": 0.0,
			"-0.014": 0.0,
			"-0.013": 0.0,
			"-0.012": 0.0,
			"-0.011": 0.0,
			"-0.01": 0.107333143007,
			"-0.009": 2.89785441542,
			"-0.008": 5.71994059025,
			"-0.007": 5.30380034869,
			"-0.006": 10.2388319787,
			"-0.005": 12.6339542393,
			"-0.004": 14.9177052434,
			"-0.003": 18.0192761133,
			"-0.002": 24.1719818501,
			"-0.001": 38.8276138134,
			"0.0": 35.2523320831,
			"0.001": 24.9714395848,
			"0.002": 29.0526608626,
			"0.003": 31.0850384618,
			"0.004": 15.2657422805,
			"0.005": 3.41010049833,
			"0.006": 1.74176644265,
			"0.007": 1.1616083614,
			"0.008": 1.47105286614,
			"0.009": 2.25808008814,
			"0.01": 1.72458056727,
			"0.011": 3.24289553131,
			"0.012": 4.52107356067,
			"0.013": 1.78170531118,
			"0.014": 0.0898377125208,
			"0.015": 0.0,
			"0.016": 0.0,
			"0.017": 0.0,
			"0.018": 0.0,
			"0.019": 0.0,
			"0.02": 0.0,
			"0.021": 0.0,
			"0.022": 0.0,
			"0.023": 0.0,
			"0.024": 0.0,
			"0.025": 0.0
		}
	}
}
