{
	 "smiles": "OC(=O)C1=CC(=CC=C1)N1NC(=O)C2CC=CCC2C1=O", 
	 "Tm": 459.15, 
	 "num_atms": 35, 
	 "gaussian": { 
		 "optdone": 1, 
		 "sigma_profile": "yes", 
		 "theory": "DFT", 
		 "functional": "B3LYP", 
		 "basiset": "6-31G**", 
		 "properties": { 
			 "R2extent": 6633.9178, 
			 "electric_dipole_moment_norm": 4.89790912125, 
			 "electric_quadrupole_moment_norm": 23.9495235769, 
			 "total_energy": -990.413528123, 
			 "HOMO_LUMO_gap": 0.17586, 
			 "cosmo_polarized_energy": -24.62, 
			 "cosmo_cavitation_energy": 38.11, 
			 "cosmo_dispersion_energy": -27.13, 
			 "cosmo_repulsion_energy": 2.06, 
			 "cosmo_total_nonelectrostatic_energy": 13.04, 
			 "SMD_solvation_energy": 8.62 
		},
		"coords": [
			{
				"x": -2.9670640777,
				"y": -4.4514401147,
				"z": 1.2436942764,
				"element": "O" 
			},
			{
				"x": -2.8510863154,
				"y": -3.1279484675,
				"z": 0.9571321687,
				"element": "C" 
			},
			{
				"x": -3.4970964345,
				"y": -2.3151267664,
				"z": 1.575191926,
				"element": "O" 
			},
			{
				"x": -1.8975531493,
				"y": -2.7591071755,
				"z": -0.1422353431,
				"element": "C" 
			},
			{
				"x": -1.4321676107,
				"y": -1.4403411135,
				"z": -0.1616303963,
				"element": "C" 
			},
			{
				"x": -0.5429858165,
				"y": -1.018504055,
				"z": -1.1553662471,
				"element": "C" 
			},
			{
				"x": -0.1388300972,
				"y": -1.9215295773,
				"z": -2.1547673893,
				"element": "C" 
			},
			{
				"x": -0.6184112214,
				"y": -3.2287422278,
				"z": -2.1338867172,
				"element": "C" 
			},
			{
				"x": -1.4945033903,
				"y": -3.6578792551,
				"z": -1.1375013111,
				"element": "C" 
			},
			{
				"x": -0.0916507277,
				"y": 0.336180707,
				"z": -1.1623247771,
				"element": "N" 
			},
			{
				"x": -0.9438173216,
				"y": 1.2543149132,
				"z": -0.5243860599,
				"element": "N" 
			},
			{
				"x": -0.5159345875,
				"y": 2.3586623255,
				"z": 0.1896521873,
				"element": "C" 
			},
			{
				"x": -1.322225169,
				"y": 3.1568586358,
				"z": 0.6342184478,
				"element": "O" 
			},
			{
				"x": 0.9914318122,
				"y": 2.4920459918,
				"z": 0.2553360706,
				"element": "C" 
			},
			{
				"x": 1.6400109727,
				"y": 1.6149946939,
				"z": 1.3483982085,
				"element": "C" 
			},
			{
				"x": 3.1377218129,
				"y": 1.5509567284,
				"z": 1.1817435671,
				"element": "C" 
			},
			{
				"x": 3.7722963279,
				"y": 1.8997863982,
				"z": 0.0592076749,
				"element": "C" 
			},
			{
				"x": 3.0814018516,
				"y": 2.3763506644,
				"z": -1.194071362,
				"element": "C" 
			},
			{
				"x": 1.5608341497,
				"y": 2.1677986268,
				"z": -1.1456327344,
				"element": "C" 
			},
			{
				"x": 1.1904994127,
				"y": 0.7356234729,
				"z": -1.5490898848,
				"element": "C" 
			},
			{
				"x": 1.9539607367,
				"y": -0.0230582381,
				"z": -2.1229946801,
				"element": "O" 
			},
			{
				"x": -2.2767193739,
				"y": -4.9531505329,
				"z": 0.788348328,
				"element": "H" 
			},
			{
				"x": -1.7737423931,
				"y": -0.7634588675,
				"z": 0.6116477253,
				"element": "H" 
			},
			{
				"x": 0.5463310905,
				"y": -1.5997443227,
				"z": -2.924718296,
				"element": "H" 
			},
			{
				"x": -0.3136581568,
				"y": -3.9147307983,
				"z": -2.9181395862,
				"element": "H" 
			},
			{
				"x": -1.8901630127,
				"y": -4.669455763,
				"z": -1.1754783568,
				"element": "H" 
			},
			{
				"x": -1.900782736,
				"y": 1.260983751,
				"z": -0.8588249375,
				"element": "H" 
			},
			{
				"x": 1.1921015038,
				"y": 3.5412103407,
				"z": 0.4886038527,
				"element": "H" 
			},
			{
				"x": 1.3823298455,
				"y": 2.0277205128,
				"z": 2.3307790404,
				"element": "H" 
			},
			{
				"x": 1.2187279841,
				"y": 0.5990280907,
				"z": 1.3359475981,
				"element": "H" 
			},
			{
				"x": 3.7094767189,
				"y": 1.1939268875,
				"z": 2.035743799,
				"element": "H" 
			},
			{
				"x": 4.8578296048,
				"y": 1.8383614768,
				"z": 0.0181311404,
				"element": "H" 
			},
			{
				"x": 3.4846484178,
				"y": 1.8436529406,
				"z": -2.0611874995,
				"element": "H" 
			},
			{
				"x": 3.2952495528,
				"y": 3.4422803164,
				"z": -1.3534815165,
				"element": "H" 
			},
			{
				"x": 1.0798397967,
				"y": 2.831879801,
				"z": -1.8783589164,
				"element": "H" 
			}
		],
		 "valence_orbital": [ 
			{
				"type": "occ",
				"energy": -0.27728,
				"method": "rhf"
			},
			{
				"type": "occ",
				"energy": -0.2693,
				"method": "rhf"
			},
			{
				"type": "occ",
				"energy": -0.26497,
				"method": "rhf"
			},
			{
				"type": "occ",
				"energy": -0.25293,
				"method": "rhf"
			},
			{
				"type": "occ",
				"energy": -0.233,
				"method": "rhf"
			},
			{
				"type": "unocc",
				"energy": -0.05714,
				"method": "rhf"
			},
			{
				"type": "unocc",
				"energy": -0.0371,
				"method": "rhf"
			},
			{
				"type": "unocc",
				"energy": -0.00867,
				"method": "rhf"
			},
			{
				"type": "unocc",
				"energy": 0.01167,
				"method": "rhf"
			},
			{
				"type": "unocc",
				"energy": 0.01694,
				"method": "rhf"
			}
		],
		"cosmo_sigma_profile": { 
			"-0.025": 0.0,
			"-0.024": 0.0,
			"-0.023": 0.0,
			"-0.022": 0.0,
			"-0.021": 0.0,
			"-0.02": 0.0,
			"-0.019": 0.16206742138,
			"-0.018": 0.672824301574,
			"-0.017": 1.48531286819,
			"-0.016": 1.10451888091,
			"-0.015": 2.14898926995,
			"-0.014": 2.06465169319,
			"-0.013": 1.59742217719,
			"-0.012": 2.8918256742,
			"-0.011": 2.12404089053,
			"-0.01": 1.73570311217,
			"-0.009": 2.42872691991,
			"-0.008": 3.96514628482,
			"-0.007": 9.73134959207,
			"-0.006": 12.6280298494,
			"-0.005": 22.2880276072,
			"-0.004": 26.0401071692,
			"-0.003": 26.2324628426,
			"-0.002": 25.4732959596,
			"-0.001": 19.3923722741,
			"0.0": 15.4441548169,
			"0.001": 13.8528136569,
			"0.002": 16.8927380222,
			"0.003": 14.3631893063,
			"0.004": 7.79273524074,
			"0.005": 6.90586913838,
			"0.006": 7.99224056875,
			"0.007": 6.09221782342,
			"0.008": 6.67020344405,
			"0.009": 5.78548553348,
			"0.01": 8.78517066634,
			"0.011": 9.98148974066,
			"0.012": 10.9968893455,
			"0.013": 5.97205226387,
			"0.014": 0.983114432213,
			"0.015": 0.0,
			"0.016": 0.0,
			"0.017": 0.0,
			"0.018": 0.0,
			"0.019": 0.0,
			"0.02": 0.0,
			"0.021": 0.0,
			"0.022": 0.0,
			"0.023": 0.0,
			"0.024": 0.0,
			"0.025": 0.0
		}
	}
}
