{
	 "smiles": "CNC1=C(C=CC=C1F)C(N)=O", 
	 "Tm": 460.15, 
	 "num_atms": 21, 
	 "gaussian": { 
		 "optdone": 1, 
		 "sigma_profile": "yes", 
		 "theory": "DFT", 
		 "functional": "B3LYP", 
		 "basiset": "6-31G**", 
		 "properties": { 
			 "R2extent": 2531.4645, 
			 "electric_dipole_moment_norm": 3.36227316707, 
			 "electric_quadrupole_moment_norm": 14.188143917, 
			 "total_energy": -594.851995489, 
			 "HOMO_LUMO_gap": 0.19693, 
			 "cosmo_polarized_energy": -11.7, 
			 "cosmo_cavitation_energy": 24.75, 
			 "cosmo_dispersion_energy": -18.17, 
			 "cosmo_repulsion_energy": 1.43, 
			 "cosmo_total_nonelectrostatic_energy": 8.01, 
			 "SMD_solvation_energy": 5.32 
		},
		"coords": [
			{
				"x": -1.2011198171,
				"y": -3.4827079422,
				"z": 1.2141127569,
				"element": "C" 
			},
			{
				"x": -0.6039573425,
				"y": -2.1640090444,
				"z": 1.5149325733,
				"element": "N" 
			},
			{
				"x": -0.1061802574,
				"y": -1.464859806,
				"z": 0.3730739885,
				"element": "C" 
			},
			{
				"x": -0.9242323177,
				"y": -0.7235250795,
				"z": -0.5077838879,
				"element": "C" 
			},
			{
				"x": -0.3426954525,
				"y": -0.1034359362,
				"z": -1.6231398214,
				"element": "C" 
			},
			{
				"x": 1.0267711489,
				"y": -0.1671144463,
				"z": -1.8616126922,
				"element": "C" 
			},
			{
				"x": 1.8538308763,
				"y": -0.8658077902,
				"z": -0.9802898835,
				"element": "C" 
			},
			{
				"x": 1.2677642677,
				"y": -1.5023447447,
				"z": 0.1010471706,
				"element": "C" 
			},
			{
				"x": 2.0549186385,
				"y": -2.2021737368,
				"z": 0.9608878726,
				"element": "F" 
			},
			{
				"x": -2.4084612826,
				"y": -0.4715012848,
				"z": -0.3300269244,
				"element": "C" 
			},
			{
				"x": -2.9380910646,
				"y": -0.7865970676,
				"z": 0.8831950187,
				"element": "N" 
			},
			{
				"x": -3.0760266028,
				"y": 0.0240154292,
				"z": -1.2331191091,
				"element": "O" 
			},
			{
				"x": -1.4966542633,
				"y": -3.9545124583,
				"z": 2.1553863513,
				"element": "H" 
			},
			{
				"x": -0.5121960463,
				"y": -4.1529422516,
				"z": 0.6819624765,
				"element": "H" 
			},
			{
				"x": -2.0973933627,
				"y": -3.3460761764,
				"z": 0.6058773078,
				"element": "H" 
			},
			{
				"x": 0.1679877549,
				"y": -2.2995510444,
				"z": 2.1610192394,
				"element": "H" 
			},
			{
				"x": -1.00610827,
				"y": 0.4439971549,
				"z": -2.2828840708,
				"element": "H" 
			},
			{
				"x": 1.4556550827,
				"y": 0.3324805616,
				"z": -2.7244084275,
				"element": "H" 
			},
			{
				"x": 2.9267084146,
				"y": -0.9376556692,
				"z": -1.123462755,
				"element": "H" 
			},
			{
				"x": -2.3366604677,
				"y": -1.1211680137,
				"z": 1.6295659094,
				"element": "H" 
			},
			{
				"x": -3.8976596365,
				"y": -0.5234106532,
				"z": 1.0469669068,
				"element": "H" 
			}
		],
		 "valence_orbital": [ 
			{
				"type": "occ",
				"energy": -0.28915,
				"method": "rhf"
			},
			{
				"type": "occ",
				"energy": -0.25902,
				"method": "rhf"
			},
			{
				"type": "occ",
				"energy": -0.25348,
				"method": "rhf"
			},
			{
				"type": "occ",
				"energy": -0.24476,
				"method": "rhf"
			},
			{
				"type": "occ",
				"energy": -0.23444,
				"method": "rhf"
			},
			{
				"type": "unocc",
				"energy": -0.03751,
				"method": "rhf"
			},
			{
				"type": "unocc",
				"energy": -0.00399,
				"method": "rhf"
			},
			{
				"type": "unocc",
				"energy": 0.06819,
				"method": "rhf"
			},
			{
				"type": "unocc",
				"energy": 0.07377,
				"method": "rhf"
			},
			{
				"type": "unocc",
				"energy": 0.09608,
				"method": "rhf"
			}
		],
		"cosmo_sigma_profile": { 
			"-0.025": 0.0,
			"-0.024": 0.0,
			"-0.023": 0.0,
			"-0.022": 0.0,
			"-0.021": 0.0,
			"-0.02": 0.0,
			"-0.019": 0.0,
			"-0.018": 0.0,
			"-0.017": 0.0,
			"-0.016": 0.0,
			"-0.015": 0.0,
			"-0.014": 0.305706866265,
			"-0.013": 1.21331779107,
			"-0.012": 1.04648128016,
			"-0.011": 1.48455703836,
			"-0.01": 2.01976118017,
			"-0.009": 2.58244901942,
			"-0.008": 3.758555622,
			"-0.007": 4.53422327123,
			"-0.006": 6.84539960471,
			"-0.005": 11.5019514451,
			"-0.004": 12.0166559578,
			"-0.003": 15.9820767909,
			"-0.002": 16.4249560555,
			"-0.001": 17.7590350865,
			"0.0": 13.8101729642,
			"0.001": 15.563718953,
			"0.002": 15.4480076609,
			"0.003": 16.5534398354,
			"0.004": 14.6035734316,
			"0.005": 3.3591747509,
			"0.006": 2.11208454722,
			"0.007": 1.04496200236,
			"0.008": 1.62093608334,
			"0.009": 1.79071173287,
			"0.01": 0.456383945977,
			"0.011": 1.62463031717,
			"0.012": 1.87290832066,
			"0.013": 3.14152094605,
			"0.014": 5.30377074708,
			"0.015": 1.17947774903,
			"0.016": 0.0,
			"0.017": 0.0,
			"0.018": 0.0,
			"0.019": 0.0,
			"0.02": 0.0,
			"0.021": 0.0,
			"0.022": 0.0,
			"0.023": 0.0,
			"0.024": 0.0,
			"0.025": 0.0
		}
	}
}
