{
	 "smiles": "[O-][N+](=O)C1=C2N=CC(I)=CC2=CC=C1", 
	 "Tm": 392.15, 
	 "num_atms": 19, 
	 "gaussian": { 
		 "optdone": 1, 
		 "sigma_profile": "yes", 
		 "theory": "DFT", 
		 "functional": "B3LYP", 
		 "basiset": "6-31G**", 
		 "properties": { 
			 "R2extent": 3336.4603, 
			 "electric_dipole_moment_norm": 5.27719822728, 
			 "electric_quadrupole_moment_norm": 14.1688782605, 
			 "total_energy": -617.195149891, 
			 "HOMO_LUMO_gap": 0.16782, 
			 "cosmo_polarized_energy": -12.27, 
			 "cosmo_cavitation_energy": 28.22, 
			 "cosmo_dispersion_energy": -21.71, 
			 "cosmo_repulsion_energy": 1.67, 
			 "cosmo_total_nonelectrostatic_energy": 8.17, 
			 "SMD_solvation_energy": 5.25 
		},
		"coords": [
			{
				"x": 2.8673410501,
				"y": -2.3835192922,
				"z": -2.1210881138,
				"element": "O" 
			},
			{
				"x": 1.6829520922,
				"y": -2.3443974388,
				"z": -1.8092096208,
				"element": "N" 
			},
			{
				"x": 0.7764884881,
				"y": -2.999570773,
				"z": -2.3098603833,
				"element": "O" 
			},
			{
				"x": 1.3157949858,
				"y": -1.4364901322,
				"z": -0.7055733917,
				"element": "C" 
			},
			{
				"x": 0.9526455824,
				"y": -0.103900249,
				"z": -1.0281070506,
				"element": "C" 
			},
			{
				"x": 0.9541931097,
				"y": 0.2906691002,
				"z": -2.3290565481,
				"element": "N" 
			},
			{
				"x": 0.6142553865,
				"y": 1.5297968415,
				"z": -2.605067323,
				"element": "C" 
			},
			{
				"x": 0.2459272725,
				"y": 2.473415619,
				"z": -1.605437379,
				"element": "C" 
			},
			{
				"x": -0.2790857649,
				"y": 4.4349676004,
				"z": -2.1859608331,
				"element": "I" 
			},
			{
				"x": 0.2376997033,
				"y": 2.0953368812,
				"z": -0.2840048227,
				"element": "C" 
			},
			{
				"x": 0.599492142,
				"y": 0.7638330953,
				"z": 0.0507466653,
				"element": "C" 
			},
			{
				"x": 0.6223699864,
				"y": 0.2762408764,
				"z": 1.3839392752,
				"element": "C" 
			},
			{
				"x": 0.9828100846,
				"y": -1.0273722484,
				"z": 1.6418880822,
				"element": "C" 
			},
			{
				"x": 1.3357229606,
				"y": -1.9012838502,
				"z": 0.5855810083,
				"element": "C" 
			},
			{
				"x": 0.6225564936,
				"y": 1.8232849897,
				"z": -3.6520370496,
				"element": "H" 
			},
			{
				"x": -0.0379209202,
				"y": 2.7894042728,
				"z": 0.5034091089,
				"element": "H" 
			},
			{
				"x": 0.351753121,
				"y": 0.9459537898,
				"z": 2.1952302972,
				"element": "H" 
			},
			{
				"x": 0.9997319386,
				"y": -1.3983639042,
				"z": 2.6614917748,
				"element": "H" 
			},
			{
				"x": 1.6193722876,
				"y": -2.9280051784,
				"z": 0.7911163037,
				"element": "H" 
			}
		],
		 "valence_orbital": [ 
			{
				"type": "occ",
				"energy": -0.29531,
				"method": "rhf"
			},
			{
				"type": "occ",
				"energy": -0.28963,
				"method": "rhf"
			},
			{
				"type": "occ",
				"energy": -0.28034,
				"method": "rhf"
			},
			{
				"type": "occ",
				"energy": -0.26774,
				"method": "rhf"
			},
			{
				"type": "occ",
				"energy": -0.25277,
				"method": "rhf"
			},
			{
				"type": "unocc",
				"energy": -0.08495,
				"method": "rhf"
			},
			{
				"type": "unocc",
				"energy": -0.06912,
				"method": "rhf"
			},
			{
				"type": "unocc",
				"energy": -0.05524,
				"method": "rhf"
			},
			{
				"type": "unocc",
				"energy": -0.04937,
				"method": "rhf"
			},
			{
				"type": "unocc",
				"energy": -0.01138,
				"method": "rhf"
			}
		],
		"cosmo_sigma_profile": { 
			"-0.025": 0.0,
			"-0.024": 0.0,
			"-0.023": 0.0,
			"-0.022": 0.0,
			"-0.021": 0.0,
			"-0.02": 0.0,
			"-0.019": 0.0,
			"-0.018": 0.0,
			"-0.017": 0.0,
			"-0.016": 0.0,
			"-0.015": 0.0,
			"-0.014": 0.0,
			"-0.013": 0.0,
			"-0.012": 0.0,
			"-0.011": 0.306776063142,
			"-0.01": 1.57336947723,
			"-0.009": 4.96345888639,
			"-0.008": 8.93564144209,
			"-0.007": 12.3221007559,
			"-0.006": 10.5473091307,
			"-0.005": 10.661813423,
			"-0.004": 7.95120223197,
			"-0.003": 11.2558534619,
			"-0.002": 14.5763195474,
			"-0.001": 21.1649444218,
			"0.0": 23.9815048761,
			"0.001": 18.3711464628,
			"0.002": 15.2328300562,
			"0.003": 15.7224061095,
			"0.004": 11.9393638126,
			"0.005": 7.27797570656,
			"0.006": 8.93112234348,
			"0.007": 12.7526014614,
			"0.008": 8.64855036062,
			"0.009": 4.22499342136,
			"0.01": 1.14259296792,
			"0.011": 0.676020600969,
			"0.012": 0.0613075639999,
			"0.013": 0.0,
			"0.014": 0.0,
			"0.015": 0.0,
			"0.016": 0.0,
			"0.017": 0.0,
			"0.018": 0.0,
			"0.019": 0.0,
			"0.02": 0.0,
			"0.021": 0.0,
			"0.022": 0.0,
			"0.023": 0.0,
			"0.024": 0.0,
			"0.025": 0.0
		}
	}
}
