{
	 "smiles": "CNC(=O)C1=C(Cl)C=C(N)C=C1", 
	 "Tm": 421.15, 
	 "num_atms": 21, 
	 "gaussian": { 
		 "optdone": 1, 
		 "sigma_profile": "yes", 
		 "theory": "DFT", 
		 "functional": "B3LYP", 
		 "basiset": "6-31G**", 
		 "properties": { 
			 "R2extent": 2625.2535, 
			 "electric_dipole_moment_norm": 5.39693672188, 
			 "electric_quadrupole_moment_norm": 12.8765007921, 
			 "total_energy": -955.206077249, 
			 "HOMO_LUMO_gap": 0.19951, 
			 "cosmo_polarized_energy": -17.23, 
			 "cosmo_cavitation_energy": 26.56, 
			 "cosmo_dispersion_energy": -19.41, 
			 "cosmo_repulsion_energy": 1.57, 
			 "cosmo_total_nonelectrostatic_energy": 8.73, 
			 "SMD_solvation_energy": 4.74 
		},
		"coords": [
			{
				"x": 3.048342103,
				"y": 0.2690826206,
				"z": 1.2607075298,
				"element": "C" 
			},
			{
				"x": 1.8509003479,
				"y": 0.5244164502,
				"z": 2.0405001341,
				"element": "N" 
			},
			{
				"x": 0.5394762921,
				"y": 0.4084941703,
				"z": 1.6701978029,
				"element": "C" 
			},
			{
				"x": -0.3586980985,
				"y": 0.4165385361,
				"z": 2.5074011048,
				"element": "O" 
			},
			{
				"x": 0.2138750763,
				"y": 0.2162295684,
				"z": 0.2107407905,
				"element": "C" 
			},
			{
				"x": 0.5318258262,
				"y": 1.092930291,
				"z": -0.8353079069,
				"element": "C" 
			},
			{
				"x": 1.4365294387,
				"y": 2.5771971827,
				"z": -0.5325413226,
				"element": "Cl" 
			},
			{
				"x": 0.1143682418,
				"y": 0.8696094344,
				"z": -2.1446538633,
				"element": "C" 
			},
			{
				"x": -0.6553417548,
				"y": -0.2627120734,
				"z": -2.456934917,
				"element": "C" 
			},
			{
				"x": -1.1120763116,
				"y": -0.4703167274,
				"z": -3.7513026453,
				"element": "N" 
			},
			{
				"x": -1.008083731,
				"y": -1.1412687567,
				"z": -1.4152673138,
				"element": "C" 
			},
			{
				"x": -0.5926919855,
				"y": -0.8866726175,
				"z": -0.1178344139,
				"element": "C" 
			},
			{
				"x": 3.631691474,
				"y": 1.1811954036,
				"z": 1.0931630932,
				"element": "H" 
			},
			{
				"x": 2.7716831321,
				"y": -0.1409918292,
				"z": 0.2889070358,
				"element": "H" 
			},
			{
				"x": 3.6824711858,
				"y": -0.4652091117,
				"z": 1.7705417652,
				"element": "H" 
			},
			{
				"x": 1.9556126127,
				"y": 0.6568915521,
				"z": 3.0381253196,
				"element": "H" 
			},
			{
				"x": 0.3703218097,
				"y": 1.5874219132,
				"z": -2.9169767226,
				"element": "H" 
			},
			{
				"x": -1.3788104812,
				"y": -1.4162192335,
				"z": -3.9824327017,
				"element": "H" 
			},
			{
				"x": -0.594319532,
				"y": -0.0148886964,
				"z": -4.4887832791,
				"element": "H" 
			},
			{
				"x": -1.6231414325,
				"y": -2.0110837466,
				"z": -1.6292359704,
				"element": "H" 
			},
			{
				"x": -0.8936342131,
				"y": -1.5511443301,
				"z": 0.6857864807,
				"element": "H" 
			}
		],
		 "valence_orbital": [ 
			{
				"type": "occ",
				"energy": -0.30777,
				"method": "rhf"
			},
			{
				"type": "occ",
				"energy": -0.2515,
				"method": "rhf"
			},
			{
				"type": "occ",
				"energy": -0.24534,
				"method": "rhf"
			},
			{
				"type": "occ",
				"energy": -0.23942,
				"method": "rhf"
			},
			{
				"type": "occ",
				"energy": -0.21298,
				"method": "rhf"
			},
			{
				"type": "unocc",
				"energy": -0.01347,
				"method": "rhf"
			},
			{
				"type": "unocc",
				"energy": -0.0108,
				"method": "rhf"
			},
			{
				"type": "unocc",
				"energy": 0.02931,
				"method": "rhf"
			},
			{
				"type": "unocc",
				"energy": 0.05065,
				"method": "rhf"
			},
			{
				"type": "unocc",
				"energy": 0.07065,
				"method": "rhf"
			}
		],
		"cosmo_sigma_profile": { 
			"-0.025": 0.0,
			"-0.024": 0.0,
			"-0.023": 0.0,
			"-0.022": 0.0,
			"-0.021": 0.0,
			"-0.02": 0.0,
			"-0.019": 0.0,
			"-0.018": 0.0,
			"-0.017": 0.0,
			"-0.016": 0.0,
			"-0.015": 0.0,
			"-0.014": 0.413505527288,
			"-0.013": 3.40803068822,
			"-0.012": 4.19646157384,
			"-0.011": 3.74016089567,
			"-0.01": 4.14152573841,
			"-0.009": 4.89763285495,
			"-0.008": 3.71566333191,
			"-0.007": 5.16494315598,
			"-0.006": 7.74314948026,
			"-0.005": 9.69136583693,
			"-0.004": 12.717017677,
			"-0.003": 11.9526697484,
			"-0.002": 17.4439443856,
			"-0.001": 11.9494613359,
			"0.0": 10.4827269359,
			"0.001": 13.6459457143,
			"0.002": 14.4907622316,
			"0.003": 15.7400820966,
			"0.004": 19.3537349913,
			"0.005": 9.9726158522,
			"0.006": 3.23106759258,
			"0.007": 2.48503271917,
			"0.008": 2.01855258566,
			"0.009": 2.04523281891,
			"0.01": 2.113771104,
			"0.011": 2.39384261783,
			"0.012": 2.04525996333,
			"0.013": 3.20245381948,
			"0.014": 6.00340099886,
			"0.015": 2.06040040955,
			"0.016": 0.0976918533048,
			"0.017": 0.0,
			"0.018": 0.0,
			"0.019": 0.0,
			"0.02": 0.0,
			"0.021": 0.0,
			"0.022": 0.0,
			"0.023": 0.0,
			"0.024": 0.0,
			"0.025": 0.0
		}
	}
}
