{
	 "smiles": "CC(=O)C1=C(C)OC(=C1)C1=CC=C(Cl)C=C1", 
	 "Tm": 387.15, 
	 "num_atms": 27, 
	 "gaussian": { 
		 "optdone": 1, 
		 "sigma_profile": "yes", 
		 "theory": "DFT", 
		 "functional": "B3LYP", 
		 "basiset": "6-31G**", 
		 "properties": { 
			 "R2extent": 6296.666, 
			 "electric_dipole_moment_norm": 0.906053867052, 
			 "electric_quadrupole_moment_norm": 20.5319333693, 
			 "total_energy": -1112.65466886, 
			 "HOMO_LUMO_gap": 0.16748, 
			 "cosmo_polarized_energy": -9.76, 
			 "cosmo_cavitation_energy": 33.9, 
			 "cosmo_dispersion_energy": -24.34, 
			 "cosmo_repulsion_energy": 1.89, 
			 "cosmo_total_nonelectrostatic_energy": 11.45, 
			 "SMD_solvation_energy": 6.43 
		},
		"coords": [
			{
				"x": -3.9248122692,
				"y": 0.0789480166,
				"z": -3.41815074,
				"element": "C" 
			},
			{
				"x": -3.1108234853,
				"y": -1.1922249132,
				"z": -3.2522557832,
				"element": "C" 
			},
			{
				"x": -3.3550008648,
				"y": -2.1952325344,
				"z": -3.9137665901,
				"element": "O" 
			},
			{
				"x": -2.0152016184,
				"y": -1.1770431174,
				"z": -2.2670517068,
				"element": "C" 
			},
			{
				"x": -1.1890600295,
				"y": -2.251150091,
				"z": -2.0040901871,
				"element": "C" 
			},
			{
				"x": -1.1111316291,
				"y": -3.6334400086,
				"z": -2.5455502181,
				"element": "C" 
			},
			{
				"x": -0.2907139394,
				"y": -1.9067848972,
				"z": -1.0495620437,
				"element": "O" 
			},
			{
				"x": -0.5238190126,
				"y": -0.5968591867,
				"z": -0.6786127087,
				"element": "C" 
			},
			{
				"x": -1.5760489588,
				"y": -0.1146228288,
				"z": -1.4051485041,
				"element": "C" 
			},
			{
				"x": 0.3456119559,
				"y": -0.0355420652,
				"z": 0.3459985523,
				"element": "C" 
			},
			{
				"x": 1.3727923904,
				"y": -0.8021613137,
				"z": 0.9241602969,
				"element": "C" 
			},
			{
				"x": 2.2033776446,
				"y": -0.2642223236,
				"z": 1.9035837212,
				"element": "C" 
			},
			{
				"x": 2.0121712488,
				"y": 1.0538436075,
				"z": 2.3156273667,
				"element": "C" 
			},
			{
				"x": 3.0566761707,
				"y": 1.7386356496,
				"z": 3.5509796604,
				"element": "Cl" 
			},
			{
				"x": 1.0002878598,
				"y": 1.8374473674,
				"z": 1.7586654524,
				"element": "C" 
			},
			{
				"x": 0.1756584499,
				"y": 1.2914714577,
				"z": 0.781007942,
				"element": "C" 
			},
			{
				"x": -4.6925523021,
				"y": -0.0829995863,
				"z": -4.1753693385,
				"element": "H" 
			},
			{
				"x": -4.3985207209,
				"y": 0.3618498302,
				"z": -2.4710087113,
				"element": "H" 
			},
			{
				"x": -3.2820727898,
				"y": 0.9136260903,
				"z": -3.7210026422,
				"element": "H" 
			},
			{
				"x": -0.2986493084,
				"y": -4.1794618673,
				"z": -2.0613690064,
				"element": "H" 
			},
			{
				"x": -2.0544682219,
				"y": -4.1647919019,
				"z": -2.3877092236,
				"element": "H" 
			},
			{
				"x": -0.9475545038,
				"y": -3.6168795896,
				"z": -3.627267284,
				"element": "H" 
			},
			{
				"x": -1.9955756817,
				"y": 0.8785889573,
				"z": -1.3406296295,
				"element": "H" 
			},
			{
				"x": 1.5195395948,
				"y": -1.8269182108,
				"z": 0.6020391137,
				"element": "H" 
			},
			{
				"x": 2.9933137844,
				"y": -0.8621045254,
				"z": 2.3445305265,
				"element": "H" 
			},
			{
				"x": 0.8622231966,
				"y": 2.8612602368,
				"z": 2.088070318,
				"element": "H" 
			},
			{
				"x": -0.6092469602,
				"y": 1.9066677477,
				"z": 0.3521813673,
				"element": "H" 
			}
		],
		 "valence_orbital": [ 
			{
				"type": "occ",
				"energy": -0.29279,
				"method": "rhf"
			},
			{
				"type": "occ",
				"energy": -0.27231,
				"method": "rhf"
			},
			{
				"type": "occ",
				"energy": -0.26941,
				"method": "rhf"
			},
			{
				"type": "occ",
				"energy": -0.24793,
				"method": "rhf"
			},
			{
				"type": "occ",
				"energy": -0.21226,
				"method": "rhf"
			},
			{
				"type": "unocc",
				"energy": -0.04478,
				"method": "rhf"
			},
			{
				"type": "unocc",
				"energy": -0.04009,
				"method": "rhf"
			},
			{
				"type": "unocc",
				"energy": -0.01806,
				"method": "rhf"
			},
			{
				"type": "unocc",
				"energy": 0.02715,
				"method": "rhf"
			},
			{
				"type": "unocc",
				"energy": 0.04538,
				"method": "rhf"
			}
		],
		"cosmo_sigma_profile": { 
			"-0.025": 0.0,
			"-0.024": 0.0,
			"-0.023": 0.0,
			"-0.022": 0.0,
			"-0.021": 0.0,
			"-0.02": 0.0,
			"-0.019": 0.0,
			"-0.018": 0.0,
			"-0.017": 0.0,
			"-0.016": 0.0,
			"-0.015": 0.0,
			"-0.014": 0.0,
			"-0.013": 0.0,
			"-0.012": 0.0,
			"-0.011": 0.0,
			"-0.01": 0.0,
			"-0.009": 0.0,
			"-0.008": 0.896712831724,
			"-0.007": 8.41545244537,
			"-0.006": 14.4691898325,
			"-0.005": 20.8243623884,
			"-0.004": 17.7870129348,
			"-0.003": 18.724704935,
			"-0.002": 21.978312625,
			"-0.001": 23.9813402536,
			"0.0": 22.1486573732,
			"0.001": 25.4171693125,
			"0.002": 27.1780844464,
			"0.003": 26.4245453212,
			"0.004": 19.5902802116,
			"0.005": 8.4294687045,
			"0.006": 2.37431196759,
			"0.007": 0.985879051754,
			"0.008": 1.46671465649,
			"0.009": 2.00505350286,
			"0.01": 1.93169814304,
			"0.011": 1.92687060025,
			"0.012": 2.89757061361,
			"0.013": 2.61134983718,
			"0.014": 0.761343514231,
			"0.015": 0.0,
			"0.016": 0.0,
			"0.017": 0.0,
			"0.018": 0.0,
			"0.019": 0.0,
			"0.02": 0.0,
			"0.021": 0.0,
			"0.022": 0.0,
			"0.023": 0.0,
			"0.024": 0.0,
			"0.025": 0.0
		}
	}
}
