{
	 "smiles": "COC(=O)C1=CC=C(C=C1)C1=CSC=C1", 
	 "Tm": 435.15, 
	 "num_atms": 25, 
	 "gaussian": { 
		 "optdone": 1, 
		 "sigma_profile": "yes", 
		 "theory": "DFT", 
		 "functional": "B3LYP", 
		 "basiset": "6-31G**", 
		 "properties": { 
			 "R2extent": 5518.2082, 
			 "electric_dipole_moment_norm": 1.60101093063, 
			 "electric_quadrupole_moment_norm": 14.4777400046, 
			 "total_energy": -1011.9417857, 
			 "HOMO_LUMO_gap": 0.17197, 
			 "cosmo_polarized_energy": -9.34, 
			 "cosmo_cavitation_energy": 31.39, 
			 "cosmo_dispersion_energy": -23.57, 
			 "cosmo_repulsion_energy": 1.77, 
			 "cosmo_total_nonelectrostatic_energy": 9.59, 
			 "SMD_solvation_energy": 6.92 
		},
		"coords": [
			{
				"x": 2.21424873,
				"y": -5.0108015168,
				"z": -1.4117975243,
				"element": "C" 
			},
			{
				"x": 1.6523575662,
				"y": -3.6957558444,
				"z": -1.2927933385,
				"element": "O" 
			},
			{
				"x": 1.6177572146,
				"y": -3.1966440294,
				"z": -0.0341975098,
				"element": "C" 
			},
			{
				"x": 2.030844698,
				"y": -3.8099430177,
				"z": 0.9316723577,
				"element": "O" 
			},
			{
				"x": 1.0248748912,
				"y": -1.8332983154,
				"z": 0.0216405238,
				"element": "C" 
			},
			{
				"x": 0.5575035255,
				"y": -1.1625201644,
				"z": -1.117563819,
				"element": "C" 
			},
			{
				"x": 0.0077773064,
				"y": 0.1092837797,
				"z": -1.0033633304,
				"element": "C" 
			},
			{
				"x": -0.0834476674,
				"y": 0.7526823065,
				"z": 0.2446313515,
				"element": "C" 
			},
			{
				"x": 0.3884150695,
				"y": 0.068030294,
				"z": 1.3799286149,
				"element": "C" 
			},
			{
				"x": 0.932991295,
				"y": -1.2056905719,
				"z": 1.2710014785,
				"element": "C" 
			},
			{
				"x": -0.6543975396,
				"y": 2.1087567513,
				"z": 0.3639672684,
				"element": "C" 
			},
			{
				"x": -0.59198557,
				"y": 3.0693255318,
				"z": -0.6208016376,
				"element": "C" 
			},
			{
				"x": -1.3522760286,
				"y": 4.5480305825,
				"z": -0.1474768553,
				"element": "S" 
			},
			{
				"x": -1.7765534263,
				"y": 3.8861430768,
				"z": 1.3990748665,
				"element": "C" 
			},
			{
				"x": -1.3425859345,
				"y": 2.599298237,
				"z": 1.5288343106,
				"element": "C" 
			},
			{
				"x": 3.2496385927,
				"y": -5.0211251203,
				"z": -1.0618025435,
				"element": "H" 
			},
			{
				"x": 1.6388510215,
				"y": -5.7308714309,
				"z": -0.8243753112,
				"element": "H" 
			},
			{
				"x": 2.1662486465,
				"y": -5.2567975394,
				"z": -2.4726866367,
				"element": "H" 
			},
			{
				"x": 0.616967469,
				"y": -1.6469894858,
				"z": -2.0854068361,
				"element": "H" 
			},
			{
				"x": -0.3803802002,
				"y": 0.6047032826,
				"z": -1.8880535671,
				"element": "H" 
			},
			{
				"x": 0.3481599597,
				"y": 0.5499525846,
				"z": 2.3518087494,
				"element": "H" 
			},
			{
				"x": 1.3021968595,
				"y": -1.732759637,
				"z": 2.1443150245,
				"element": "H" 
			},
			{
				"x": -0.1048513031,
				"y": 2.999946768,
				"z": -1.5831533301,
				"element": "H" 
			},
			{
				"x": -2.3320119212,
				"y": 4.4808664436,
				"z": 2.1106406079,
				"element": "H" 
			},
			{
				"x": -1.5298432543,
				"y": 1.9976770351,
				"z": 2.410557086,
				"element": "H" 
			}
		],
		 "valence_orbital": [ 
			{
				"type": "occ",
				"energy": -0.28265,
				"method": "rhf"
			},
			{
				"type": "occ",
				"energy": -0.27122,
				"method": "rhf"
			},
			{
				"type": "occ",
				"energy": -0.25933,
				"method": "rhf"
			},
			{
				"type": "occ",
				"energy": -0.24893,
				"method": "rhf"
			},
			{
				"type": "occ",
				"energy": -0.22553,
				"method": "rhf"
			},
			{
				"type": "unocc",
				"energy": -0.05356,
				"method": "rhf"
			},
			{
				"type": "unocc",
				"energy": -0.01437,
				"method": "rhf"
			},
			{
				"type": "unocc",
				"energy": -0.00643,
				"method": "rhf"
			},
			{
				"type": "unocc",
				"energy": 0.02715,
				"method": "rhf"
			},
			{
				"type": "unocc",
				"energy": 0.04062,
				"method": "rhf"
			}
		],
		"cosmo_sigma_profile": { 
			"-0.025": 0.0,
			"-0.024": 0.0,
			"-0.023": 0.0,
			"-0.022": 0.0,
			"-0.021": 0.0,
			"-0.02": 0.0,
			"-0.019": 0.0,
			"-0.018": 0.0,
			"-0.017": 0.0,
			"-0.016": 0.0,
			"-0.015": 0.0,
			"-0.014": 0.0,
			"-0.013": 0.0,
			"-0.012": 0.0,
			"-0.011": 0.0,
			"-0.01": 0.0,
			"-0.009": 0.7939396708,
			"-0.008": 4.25077258891,
			"-0.007": 8.11015982552,
			"-0.006": 15.4114860557,
			"-0.005": 18.7873724666,
			"-0.004": 18.7481324733,
			"-0.003": 17.9655740421,
			"-0.002": 17.3552826658,
			"-0.001": 14.1790695868,
			"0.0": 16.1249909852,
			"0.001": 19.2008308459,
			"0.002": 23.9251486881,
			"0.003": 27.5153209067,
			"0.004": 25.7310682454,
			"0.005": 8.19424992167,
			"0.006": 4.16985182674,
			"0.007": 1.21757051968,
			"0.008": 1.35305317368,
			"0.009": 1.60473217407,
			"0.01": 1.89316642693,
			"0.011": 2.76791907052,
			"0.012": 4.47463419057,
			"0.013": 0.481204000348,
			"0.014": 0.0,
			"0.015": 0.0,
			"0.016": 0.0,
			"0.017": 0.0,
			"0.018": 0.0,
			"0.019": 0.0,
			"0.02": 0.0,
			"0.021": 0.0,
			"0.022": 0.0,
			"0.023": 0.0,
			"0.024": 0.0,
			"0.025": 0.0
		}
	}
}
