{
	 "smiles": "OC(=O)C(CC1=CNC2=C1C=CC=C2)NC(=O)C1=CC=C(F)C=C1", 
	 "Tm": 369.65, 
	 "num_atms": 39, 
	 "gaussian": { 
		 "optdone": 1, 
		 "sigma_profile": "yes", 
		 "theory": "DFT", 
		 "functional": "B3LYP", 
		 "basiset": "6-31G**", 
		 "properties": { 
			 "R2extent": 8932.0527, 
			 "electric_dipole_moment_norm": 3.49634582958, 
			 "electric_quadrupole_moment_norm": 23.3268555856, 
			 "total_energy": -1129.98586872, 
			 "HOMO_LUMO_gap": 0.16885, 
			 "cosmo_polarized_energy": -27.16, 
			 "cosmo_cavitation_energy": 44.02, 
			 "cosmo_dispersion_energy": -29.44, 
			 "cosmo_repulsion_energy": 2.22, 
			 "cosmo_total_nonelectrostatic_energy": 16.81, 
			 "SMD_solvation_energy": 8.56 
		},
		"coords": [
			{
				"x": 3.1234933511,
				"y": 2.7509104496,
				"z": -2.4064156363,
				"element": "O" 
			},
			{
				"x": 3.0529010878,
				"y": 2.3365056484,
				"z": -1.1235394121,
				"element": "C" 
			},
			{
				"x": 4.0599239412,
				"y": 2.1729603353,
				"z": -0.4768912447,
				"element": "O" 
			},
			{
				"x": 1.6365854735,
				"y": 2.086460662,
				"z": -0.5819190377,
				"element": "C" 
			},
			{
				"x": 0.9479199115,
				"y": 0.8958882918,
				"z": -1.3083486808,
				"element": "C" 
			},
			{
				"x": 1.5416055124,
				"y": -0.4729698514,
				"z": -1.1266843659,
				"element": "C" 
			},
			{
				"x": 2.7922457027,
				"y": -0.8408619207,
				"z": -0.6886421911,
				"element": "C" 
			},
			{
				"x": 2.9066470471,
				"y": -2.2169746867,
				"z": -0.7019349662,
				"element": "N" 
			},
			{
				"x": 1.7257327023,
				"y": -2.7735684857,
				"z": -1.1459907759,
				"element": "C" 
			},
			{
				"x": 0.8390312259,
				"y": -1.6989002858,
				"z": -1.4268623572,
				"element": "C" 
			},
			{
				"x": -0.4503406755,
				"y": -1.9914237419,
				"z": -1.9053824991,
				"element": "C" 
			},
			{
				"x": -0.8190448965,
				"y": -3.3191100582,
				"z": -2.0841327166,
				"element": "C" 
			},
			{
				"x": 0.0775758174,
				"y": -4.36866099,
				"z": -1.7965828516,
				"element": "C" 
			},
			{
				"x": 1.3597238008,
				"y": -4.1117187688,
				"z": -1.3244418875,
				"element": "C" 
			},
			{
				"x": 1.7474735014,
				"y": 1.9507598587,
				"z": 0.8602097417,
				"element": "N" 
			},
			{
				"x": 0.7455879206,
				"y": 1.6649872955,
				"z": 1.7642211466,
				"element": "C" 
			},
			{
				"x": 0.9946494961,
				"y": 1.0946202641,
				"z": 2.819242728,
				"element": "O" 
			},
			{
				"x": -0.6497320574,
				"y": 2.1269054595,
				"z": 1.4516076019,
				"element": "C" 
			},
			{
				"x": -0.92543492,
				"y": 3.3940863321,
				"z": 0.9179585413,
				"element": "C" 
			},
			{
				"x": -2.2410102197,
				"y": 3.8143114011,
				"z": 0.7232925401,
				"element": "C" 
			},
			{
				"x": -3.2734454029,
				"y": 2.9467498376,
				"z": 1.0629390407,
				"element": "C" 
			},
			{
				"x": -4.5464627052,
				"y": 3.3412211647,
				"z": 0.8661684992,
				"element": "F" 
			},
			{
				"x": -3.0340299908,
				"y": 1.6890691066,
				"z": 1.6095558062,
				"element": "C" 
			},
			{
				"x": -1.7160905395,
				"y": 1.2919164731,
				"z": 1.8165905781,
				"element": "C" 
			},
			{
				"x": 2.2386963778,
				"y": 2.833440638,
				"z": -2.7912117161,
				"element": "H" 
			},
			{
				"x": 1.0474715731,
				"y": 2.978999678,
				"z": -0.8294565396,
				"element": "H" 
			},
			{
				"x": 0.8850716521,
				"y": 1.1451319165,
				"z": -2.3804201043,
				"element": "H" 
			},
			{
				"x": -0.0924516212,
				"y": 0.8816973689,
				"z": -0.9635020393,
				"element": "H" 
			},
			{
				"x": 3.6235163902,
				"y": -0.2321865749,
				"z": -0.3663062016,
				"element": "H" 
			},
			{
				"x": 3.7171818792,
				"y": -2.7290156797,
				"z": -0.3947168765,
				"element": "H" 
			},
			{
				"x": -1.1517663811,
				"y": -1.1930359494,
				"z": -2.1329192809,
				"element": "H" 
			},
			{
				"x": -1.8130536077,
				"y": -3.5561619008,
				"z": -2.4519317162,
				"element": "H" 
			},
			{
				"x": -0.2389298058,
				"y": -5.3966571314,
				"z": -1.9464076868,
				"element": "H" 
			},
			{
				"x": 2.050189215,
				"y": -4.9206621295,
				"z": -1.1028372832,
				"element": "H" 
			},
			{
				"x": 2.6633749472,
				"y": 1.6473627737,
				"z": 1.1744146938,
				"element": "H" 
			},
			{
				"x": -0.111067001,
				"y": 4.0758420784,
				"z": 0.6924548686,
				"element": "H" 
			},
			{
				"x": -2.4747554783,
				"y": 4.7972542142,
				"z": 0.3290267882,
				"element": "H" 
			},
			{
				"x": -3.8708064683,
				"y": 1.0512575684,
				"z": 1.8726338412,
				"element": "H" 
			},
			{
				"x": -1.4948767556,
				"y": 0.3309693391,
				"z": 2.2686616518,
				"element": "H" 
			}
		],
		 "valence_orbital": [ 
			{
				"type": "occ",
				"energy": -0.26722,
				"method": "rhf"
			},
			{
				"type": "occ",
				"energy": -0.25879,
				"method": "rhf"
			},
			{
				"type": "occ",
				"energy": -0.24462,
				"method": "rhf"
			},
			{
				"type": "occ",
				"energy": -0.22346,
				"method": "rhf"
			},
			{
				"type": "occ",
				"energy": -0.20562,
				"method": "rhf"
			},
			{
				"type": "unocc",
				"energy": -0.03677,
				"method": "rhf"
			},
			{
				"type": "unocc",
				"energy": -0.02479,
				"method": "rhf"
			},
			{
				"type": "unocc",
				"energy": -0.01378,
				"method": "rhf"
			},
			{
				"type": "unocc",
				"energy": -0.01278,
				"method": "rhf"
			},
			{
				"type": "unocc",
				"energy": 0.02426,
				"method": "rhf"
			}
		],
		"cosmo_sigma_profile": { 
			"-0.025": 0.0,
			"-0.024": 0.0,
			"-0.023": 0.0,
			"-0.022": 0.0,
			"-0.021": 0.0,
			"-0.02": 0.28918354478,
			"-0.019": 1.26903485102,
			"-0.018": 1.39046681244,
			"-0.017": 0.910241602628,
			"-0.016": 2.07188796961,
			"-0.015": 2.91014424404,
			"-0.014": 1.73649328257,
			"-0.013": 1.5276611777,
			"-0.012": 3.2623292039,
			"-0.011": 2.79967151501,
			"-0.01": 2.65635404476,
			"-0.009": 4.98521740584,
			"-0.008": 6.81516582687,
			"-0.007": 11.5509865878,
			"-0.006": 12.8304077703,
			"-0.005": 20.8326712496,
			"-0.004": 19.9746592797,
			"-0.003": 22.2647131354,
			"-0.002": 19.9100232259,
			"-0.001": 17.3235133388,
			"0.0": 24.8176101071,
			"0.001": 21.855462386,
			"0.002": 22.8294011616,
			"0.003": 22.0142337901,
			"0.004": 25.6956699374,
			"0.005": 18.8965020461,
			"0.006": 13.3331990343,
			"0.007": 10.9595988212,
			"0.008": 6.77814952123,
			"0.009": 5.99997895809,
			"0.01": 4.98222367796,
			"0.011": 4.2586834977,
			"0.012": 4.43290545144,
			"0.013": 5.15687526242,
			"0.014": 2.43754793282,
			"0.015": 0.0241743877166,
			"0.016": 0.0,
			"0.017": 0.0,
			"0.018": 0.0,
			"0.019": 0.0,
			"0.02": 0.0,
			"0.021": 0.0,
			"0.022": 0.0,
			"0.023": 0.0,
			"0.024": 0.0,
			"0.025": 0.0
		}
	}
}
