{
	 "smiles": "CC1=C(C=CC=C1)N1CCNCC1", 
	 "Tm": 323.15, 
	 "num_atms": 29, 
	 "gaussian": { 
		 "optdone": 1, 
		 "sigma_profile": "yes", 
		 "theory": "DFT", 
		 "functional": "B3LYP", 
		 "basiset": "6-31G**", 
		 "properties": { 
			 "R2extent": 3026.812, 
			 "electric_dipole_moment_norm": 1.06815438491, 
			 "electric_quadrupole_moment_norm": 6.9301614707, 
			 "total_energy": -538.294059064, 
			 "HOMO_LUMO_gap": 0.20112, 
			 "cosmo_polarized_energy": -7.1, 
			 "cosmo_cavitation_energy": 29.23, 
			 "cosmo_dispersion_energy": -21.52, 
			 "cosmo_repulsion_energy": 1.69, 
			 "cosmo_total_nonelectrostatic_energy": 9.39, 
			 "SMD_solvation_energy": 1.53 
		},
		"coords": [
			{
				"x": -2.7869047842,
				"y": 0.628951528,
				"z": 1.943545022,
				"element": "C" 
			},
			{
				"x": -1.4717008591,
				"y": 1.1535849514,
				"z": 1.422392335,
				"element": "C" 
			},
			{
				"x": -0.7564984676,
				"y": 0.4723487231,
				"z": 0.407949217,
				"element": "C" 
			},
			{
				"x": 0.4897049965,
				"y": 0.9777915759,
				"z": -0.002289186,
				"element": "C" 
			},
			{
				"x": 1.0303179679,
				"y": 2.1277042742,
				"z": 0.5702218297,
				"element": "C" 
			},
			{
				"x": 0.3215955521,
				"y": 2.8083307612,
				"z": 1.5593337742,
				"element": "C" 
			},
			{
				"x": -0.9158745525,
				"y": 2.3156793956,
				"z": 1.9716121584,
				"element": "C" 
			},
			{
				"x": -1.3158269294,
				"y": -0.705861759,
				"z": -0.1655370323,
				"element": "N" 
			},
			{
				"x": -0.4053388345,
				"y": -1.7872488253,
				"z": -0.5770926737,
				"element": "C" 
			},
			{
				"x": -0.2831532288,
				"y": -1.9304024798,
				"z": -2.0968200979,
				"element": "C" 
			},
			{
				"x": -1.5997260808,
				"y": -2.2655685883,
				"z": -2.6678396399,
				"element": "N" 
			},
			{
				"x": -2.7315061303,
				"y": -1.763167403,
				"z": -1.8737905882,
				"element": "C" 
			},
			{
				"x": -2.4227188867,
				"y": -0.4707937845,
				"z": -1.1119265646,
				"element": "C" 
			},
			{
				"x": -2.8051754229,
				"y": -0.4639533197,
				"z": 1.9061745207,
				"element": "H" 
			},
			{
				"x": -3.6394696324,
				"y": 0.9888849156,
				"z": 1.3527734952,
				"element": "H" 
			},
			{
				"x": -2.9531306351,
				"y": 0.9523551259,
				"z": 2.9753087057,
				"element": "H" 
			},
			{
				"x": 1.0394349782,
				"y": 0.4689846827,
				"z": -0.7881793968,
				"element": "H" 
			},
			{
				"x": 1.9963690824,
				"y": 2.4941894895,
				"z": 0.2339377193,
				"element": "H" 
			},
			{
				"x": 0.7305129469,
				"y": 3.7065547168,
				"z": 2.0127814437,
				"element": "H" 
			},
			{
				"x": -1.4619625643,
				"y": 2.8307431708,
				"z": 2.7587294784,
				"element": "H" 
			},
			{
				"x": -0.7710999261,
				"y": -2.7405604721,
				"z": -0.1703604728,
				"element": "H" 
			},
			{
				"x": 0.5756813917,
				"y": -1.6162301564,
				"z": -0.1297260058,
				"element": "H" 
			},
			{
				"x": 0.1302434311,
				"y": -0.9947897447,
				"z": -2.5092898676,
				"element": "H" 
			},
			{
				"x": 0.4342847372,
				"y": -2.727927203,
				"z": -2.3333836621,
				"element": "H" 
			},
			{
				"x": -1.6606402085,
				"y": -1.9044285264,
				"z": -3.6136946285,
				"element": "H" 
			},
			{
				"x": -3.5844569532,
				"y": -1.6019733533,
				"z": -2.5403082965,
				"element": "H" 
			},
			{
				"x": -3.0419575006,
				"y": -2.5297009142,
				"z": -1.1509774109,
				"element": "H" 
			},
			{
				"x": -2.16753023,
				"y": 0.3241887548,
				"z": -1.834774169,
				"element": "H" 
			},
			{
				"x": -3.315073257,
				"y": -0.1347855356,
				"z": -0.5707700066,
				"element": "H" 
			}
		],
		 "valence_orbital": [ 
			{
				"type": "occ",
				"energy": -0.33014,
				"method": "rhf"
			},
			{
				"type": "occ",
				"energy": -0.25037,
				"method": "rhf"
			},
			{
				"type": "occ",
				"energy": -0.234,
				"method": "rhf"
			},
			{
				"type": "occ",
				"energy": -0.21412,
				"method": "rhf"
			},
			{
				"type": "occ",
				"energy": -0.19439,
				"method": "rhf"
			},
			{
				"type": "unocc",
				"energy": 0.00673,
				"method": "rhf"
			},
			{
				"type": "unocc",
				"energy": 0.0108,
				"method": "rhf"
			},
			{
				"type": "unocc",
				"energy": 0.07487,
				"method": "rhf"
			},
			{
				"type": "unocc",
				"energy": 0.09665,
				"method": "rhf"
			},
			{
				"type": "unocc",
				"energy": 0.10629,
				"method": "rhf"
			}
		],
		"cosmo_sigma_profile": { 
			"-0.025": 0.0,
			"-0.024": 0.0,
			"-0.023": 0.0,
			"-0.022": 0.0,
			"-0.021": 0.0,
			"-0.02": 0.0,
			"-0.019": 0.0,
			"-0.018": 0.0,
			"-0.017": 0.0,
			"-0.016": 0.0,
			"-0.015": 0.0,
			"-0.014": 0.0,
			"-0.013": 0.0,
			"-0.012": 0.0,
			"-0.011": 0.00486868049738,
			"-0.01": 0.725172598977,
			"-0.009": 1.66730341457,
			"-0.008": 1.20784104486,
			"-0.007": 1.03455984974,
			"-0.006": 2.10386832225,
			"-0.005": 10.5896555689,
			"-0.004": 19.5037180449,
			"-0.003": 27.4228448209,
			"-0.002": 34.4157394927,
			"-0.001": 27.8805364371,
			"0.0": 21.784107771,
			"0.001": 15.8314804777,
			"0.002": 10.5764344242,
			"0.003": 9.26242409643,
			"0.004": 9.49847911384,
			"0.005": 9.44932413869,
			"0.006": 9.36653796551,
			"0.007": 7.65092740563,
			"0.008": 2.00710793726,
			"0.009": 1.11662929532,
			"0.01": 0.634278231938,
			"0.011": 0.491148215192,
			"0.012": 0.617943695013,
			"0.013": 0.717594790657,
			"0.014": 0.521879006186,
			"0.015": 0.408301641121,
			"0.016": 0.6012957453,
			"0.017": 0.596423423677,
			"0.018": 0.564026054879,
			"0.019": 0.167990441966,
			"0.02": 0.0,
			"0.021": 0.0,
			"0.022": 0.0,
			"0.023": 0.0,
			"0.024": 0.0,
			"0.025": 0.0
		}
	}
}
