{
	 "smiles": "CCCC1CNCCN1", 
	 "Tm": 333.15, 
	 "num_atms": 25, 
	 "gaussian": { 
		 "optdone": 1, 
		 "sigma_profile": "yes", 
		 "theory": "DFT", 
		 "functional": "B3LYP", 
		 "basiset": "6-31G**", 
		 "properties": { 
			 "R2extent": 1500.9226, 
			 "electric_dipole_moment_norm": 1.62701452053, 
			 "electric_quadrupole_moment_norm": 4.67610353607, 
			 "total_energy": -385.877150827, 
			 "HOMO_LUMO_gap": 0.27874, 
			 "cosmo_polarized_energy": -5.4, 
			 "cosmo_cavitation_energy": 24.67, 
			 "cosmo_dispersion_energy": -18.2, 
			 "cosmo_repulsion_energy": 1.49, 
			 "cosmo_total_nonelectrostatic_energy": 7.97, 
			 "SMD_solvation_energy": 0.5 
		},
		"coords": [
			{
				"x": 1.3823179317,
				"y": -0.7898105192,
				"z": 2.598767268,
				"element": "C" 
			},
			{
				"x": 1.4989112293,
				"y": 0.340483305,
				"z": 1.568106913,
				"element": "C" 
			},
			{
				"x": 0.1657034598,
				"y": 1.0013575308,
				"z": 1.164543864,
				"element": "C" 
			},
			{
				"x": -0.7297787746,
				"y": 0.2571050626,
				"z": 0.1562185345,
				"element": "C" 
			},
			{
				"x": -0.0324799442,
				"y": -0.0094545377,
				"z": -1.2237171787,
				"element": "C" 
			},
			{
				"x": 0.2357324327,
				"y": -1.4217514434,
				"z": -1.4937608589,
				"element": "N" 
			},
			{
				"x": -1.0034801996,
				"y": -2.2069850506,
				"z": -1.4561857282,
				"element": "C" 
			},
			{
				"x": -1.9672917152,
				"y": -1.7649385735,
				"z": -0.3155623913,
				"element": "C" 
			},
			{
				"x": -1.1813713978,
				"y": -1.0390761157,
				"z": 0.6816835755,
				"element": "N" 
			},
			{
				"x": 0.7700064269,
				"y": -1.6082699723,
				"z": 2.2140716969,
				"element": "H" 
			},
			{
				"x": 0.9154546197,
				"y": -0.426922281,
				"z": 3.522711535,
				"element": "H" 
			},
			{
				"x": 2.3704703199,
				"y": -1.1824648066,
				"z": 2.863135281,
				"element": "H" 
			},
			{
				"x": 2.0156386052,
				"y": -0.0299141239,
				"z": 0.6725880236,
				"element": "H" 
			},
			{
				"x": 2.1516775916,
				"y": 1.1227793101,
				"z": 1.9766875373,
				"element": "H" 
			},
			{
				"x": 0.3772793717,
				"y": 1.9853377918,
				"z": 0.7248256169,
				"element": "H" 
			},
			{
				"x": -0.419706064,
				"y": 1.2061145797,
				"z": 2.0736162789,
				"element": "H" 
			},
			{
				"x": -1.5978120798,
				"y": 0.919084715,
				"z": -0.038303188,
				"element": "H" 
			},
			{
				"x": -0.6685361861,
				"y": 0.3669326864,
				"z": -2.0341875578,
				"element": "H" 
			},
			{
				"x": 0.9095389697,
				"y": 0.5456280288,
				"z": -1.2864817114,
				"element": "H" 
			},
			{
				"x": 0.8414962404,
				"y": -1.7693706571,
				"z": -0.7549908822,
				"element": "H" 
			},
			{
				"x": -0.7262458625,
				"y": -3.2592566098,
				"z": -1.3385085171,
				"element": "H" 
			},
			{
				"x": -1.511962126,
				"y": -2.115355836,
				"z": -2.4247714516,
				"element": "H" 
			},
			{
				"x": -2.4335522362,
				"y": -2.6351086549,
				"z": 0.1583870411,
				"element": "H" 
			},
			{
				"x": -2.786366401,
				"y": -1.1469020292,
				"z": -0.7310360246,
				"element": "H" 
			},
			{
				"x": -1.7242442114,
				"y": -0.8933417991,
				"z": 1.5282623241,
				"element": "H" 
			}
		],
		 "valence_orbital": [ 
			{
				"type": "occ",
				"energy": -0.3285,
				"method": "rhf"
			},
			{
				"type": "occ",
				"energy": -0.32094,
				"method": "rhf"
			},
			{
				"type": "occ",
				"energy": -0.30695,
				"method": "rhf"
			},
			{
				"type": "occ",
				"energy": -0.22058,
				"method": "rhf"
			},
			{
				"type": "occ",
				"energy": -0.21072,
				"method": "rhf"
			},
			{
				"type": "unocc",
				"energy": 0.06802,
				"method": "rhf"
			},
			{
				"type": "unocc",
				"energy": 0.09679,
				"method": "rhf"
			},
			{
				"type": "unocc",
				"energy": 0.10713,
				"method": "rhf"
			},
			{
				"type": "unocc",
				"energy": 0.12074,
				"method": "rhf"
			},
			{
				"type": "unocc",
				"energy": 0.12847,
				"method": "rhf"
			}
		],
		"cosmo_sigma_profile": { 
			"-0.025": 0.0,
			"-0.024": 0.0,
			"-0.023": 0.0,
			"-0.022": 0.0,
			"-0.021": 0.0,
			"-0.02": 0.0,
			"-0.019": 0.0,
			"-0.018": 0.0,
			"-0.017": 0.0,
			"-0.016": 0.0,
			"-0.015": 0.0,
			"-0.014": 0.0,
			"-0.013": 0.0,
			"-0.012": 0.0,
			"-0.011": 0.0,
			"-0.01": 0.273916414357,
			"-0.009": 1.13707261827,
			"-0.008": 1.2023665413,
			"-0.007": 1.55193663947,
			"-0.006": 2.44007914243,
			"-0.005": 3.65604539697,
			"-0.004": 6.60250540877,
			"-0.003": 15.6691550825,
			"-0.002": 28.4131666096,
			"-0.001": 37.0339853275,
			"0.0": 32.3484496041,
			"0.001": 20.7100843165,
			"0.002": 13.9644320567,
			"0.003": 6.07340046428,
			"0.004": 1.58587042019,
			"0.005": 1.70116786213,
			"0.006": 2.35475135873,
			"0.007": 1.58132096965,
			"0.008": 1.80389524047,
			"0.009": 1.88050645284,
			"0.01": 1.20467197368,
			"0.011": 0.666293213557,
			"0.012": 0.596489136541,
			"0.013": 0.735083813179,
			"0.014": 0.899891081995,
			"0.015": 0.315680344848,
			"0.016": 0.79496802913,
			"0.017": 0.647388996647,
			"0.018": 0.474739982611,
			"0.019": 0.410965541985,
			"0.02": 0.0183252061416,
			"0.021": 0.0,
			"0.022": 0.0,
			"0.023": 0.0,
			"0.024": 0.0,
			"0.025": 0.0
		}
	}
}
