{
	 "smiles": "ClCC1=CN2C=CC=NC2=N1", 
	 "Tm": 399.15, 
	 "num_atms": 17, 
	 "gaussian": { 
		 "optdone": 1, 
		 "sigma_profile": "yes", 
		 "theory": "DFT", 
		 "functional": "B3LYP", 
		 "basiset": "6-31G**", 
		 "properties": { 
			 "R2extent": 3030.1054, 
			 "electric_dipole_moment_norm": 5.96584953297, 
			 "electric_quadrupole_moment_norm": 15.8342167735, 
			 "total_energy": -894.794583833, 
			 "HOMO_LUMO_gap": 0.16868, 
			 "cosmo_polarized_energy": -17.21, 
			 "cosmo_cavitation_energy": 23.43, 
			 "cosmo_dispersion_energy": -17.63, 
			 "cosmo_repulsion_energy": 1.41, 
			 "cosmo_total_nonelectrostatic_energy": 7.21, 
			 "SMD_solvation_energy": 0.96 
		},
		"coords": [
			{
				"x": 3.9609572803,
				"y": -1.0315203825,
				"z": 2.1776682313,
				"element": "Cl" 
			},
			{
				"x": 3.0540173822,
				"y": -0.0964782139,
				"z": 0.8851941916,
				"element": "C" 
			},
			{
				"x": 1.5804596912,
				"y": -0.279287565,
				"z": 0.9803054823,
				"element": "C" 
			},
			{
				"x": 0.832743291,
				"y": -1.3190053332,
				"z": 0.4502704636,
				"element": "C" 
			},
			{
				"x": -0.4650644045,
				"y": -1.0457761657,
				"z": 0.8035874348,
				"element": "N" 
			},
			{
				"x": -1.6475418976,
				"y": -1.6928951941,
				"z": 0.5778562006,
				"element": "C" 
			},
			{
				"x": -2.7906658728,
				"y": -1.1328900762,
				"z": 1.0757971341,
				"element": "C" 
			},
			{
				"x": -2.6954318207,
				"y": 0.0906654271,
				"z": 1.7991295896,
				"element": "C" 
			},
			{
				"x": -1.5646452977,
				"y": 0.7260914187,
				"z": 2.0249089941,
				"element": "N" 
			},
			{
				"x": -0.436498944,
				"y": 0.1763353123,
				"z": 1.5402181606,
				"element": "C" 
			},
			{
				"x": 0.8043371773,
				"y": 0.6282050744,
				"z": 1.6407514822,
				"element": "N" 
			},
			{
				"x": 3.3109584234,
				"y": 0.9505597184,
				"z": 1.0363564948,
				"element": "H" 
			},
			{
				"x": 3.454573631,
				"y": -0.4516879354,
				"z": -0.0641493682,
				"element": "H" 
			},
			{
				"x": 1.1084351954,
				"y": -2.1994634594,
				"z": -0.1096729396,
				"element": "H" 
			},
			{
				"x": -1.6079675401,
				"y": -2.6184884102,
				"z": 0.014761204,
				"element": "H" 
			},
			{
				"x": -3.7483312819,
				"y": -1.6143186269,
				"z": 0.9203525634,
				"element": "H" 
			},
			{
				"x": -3.5985350125,
				"y": 0.5474544113,
				"z": 2.1991646807,
				"element": "H" 
			}
		],
		 "valence_orbital": [ 
			{
				"type": "occ",
				"energy": -0.29091,
				"method": "rhf"
			},
			{
				"type": "occ",
				"energy": -0.28942,
				"method": "rhf"
			},
			{
				"type": "occ",
				"energy": -0.27459,
				"method": "rhf"
			},
			{
				"type": "occ",
				"energy": -0.26338,
				"method": "rhf"
			},
			{
				"type": "occ",
				"energy": -0.23248,
				"method": "rhf"
			},
			{
				"type": "unocc",
				"energy": -0.0638,
				"method": "rhf"
			},
			{
				"type": "unocc",
				"energy": -0.02,
				"method": "rhf"
			},
			{
				"type": "unocc",
				"energy": 0.01021,
				"method": "rhf"
			},
			{
				"type": "unocc",
				"energy": 0.07307,
				"method": "rhf"
			},
			{
				"type": "unocc",
				"energy": 0.07748,
				"method": "rhf"
			}
		],
		"cosmo_sigma_profile": { 
			"-0.025": 0.0,
			"-0.024": 0.0,
			"-0.023": 0.0,
			"-0.022": 0.0,
			"-0.021": 0.0,
			"-0.02": 0.0,
			"-0.019": 0.0,
			"-0.018": 0.0,
			"-0.017": 0.0,
			"-0.016": 0.0,
			"-0.015": 0.0,
			"-0.014": 0.0,
			"-0.013": 0.0,
			"-0.012": 0.135438901814,
			"-0.011": 2.33945374788,
			"-0.01": 4.63278782754,
			"-0.009": 4.68979901433,
			"-0.008": 9.71111908581,
			"-0.007": 12.1410824629,
			"-0.006": 10.7122917443,
			"-0.005": 8.87100065978,
			"-0.004": 9.77404383072,
			"-0.003": 11.4976805828,
			"-0.002": 10.7827493063,
			"-0.001": 10.2499089586,
			"0.0": 12.797296603,
			"0.001": 11.9579319401,
			"0.002": 7.98178841436,
			"0.003": 6.60824795304,
			"0.004": 7.26100636508,
			"0.005": 8.25890782881,
			"0.006": 12.2608398373,
			"0.007": 8.9224478028,
			"0.008": 1.74110938878,
			"0.009": 2.47144937576,
			"0.01": 1.76276365779,
			"0.011": 1.82529901121,
			"0.012": 2.32353371033,
			"0.013": 2.70165835658,
			"0.014": 3.02750637857,
			"0.015": 2.16230182311,
			"0.016": 1.00828776326,
			"0.017": 0.509001885206,
			"0.018": 0.0,
			"0.019": 0.0,
			"0.02": 0.0,
			"0.021": 0.0,
			"0.022": 0.0,
			"0.023": 0.0,
			"0.024": 0.0,
			"0.025": 0.0
		}
	}
}
