{
	 "smiles": "NC1=CC(=CC=C1)S(=O)(=O)NC1=CC(Cl)=CC=C1", 
	 "Tm": 381.15, 
	 "num_atms": 29, 
	 "gaussian": { 
		 "optdone": 1, 
		 "sigma_profile": "yes", 
		 "theory": "DFT", 
		 "functional": "B3LYP", 
		 "basiset": "6-31G**", 
		 "properties": { 
			 "R2extent": 5638.7529, 
			 "electric_dipole_moment_norm": 6.29832494795, 
			 "electric_quadrupole_moment_norm": 23.882035077, 
			 "total_energy": -1582.17219228, 
			 "HOMO_LUMO_gap": 0.18112, 
			 "cosmo_polarized_energy": -20.07, 
			 "cosmo_cavitation_energy": 36.7, 
			 "cosmo_dispersion_energy": -25.79, 
			 "cosmo_repulsion_energy": 1.98, 
			 "cosmo_total_nonelectrostatic_energy": 12.89, 
			 "SMD_solvation_energy": 5.03 
		},
		"coords": [
			{
				"x": -1.1109205832,
				"y": -3.4474972495,
				"z": 0.8085042057,
				"element": "N" 
			},
			{
				"x": -0.7592571917,
				"y": -2.7860861159,
				"z": -0.360822368,
				"element": "C" 
			},
			{
				"x": 0.3021144624,
				"y": -1.8640231423,
				"z": -0.3693166506,
				"element": "C" 
			},
			{
				"x": 0.6009073974,
				"y": -1.1757516222,
				"z": -1.5429956352,
				"element": "C" 
			},
			{
				"x": -0.1107167419,
				"y": -1.3694576112,
				"z": -2.728884551,
				"element": "C" 
			},
			{
				"x": -1.1595888863,
				"y": -2.2901659278,
				"z": -2.7117568967,
				"element": "C" 
			},
			{
				"x": -1.4858007507,
				"y": -2.9852458376,
				"z": -1.5503797772,
				"element": "C" 
			},
			{
				"x": 1.9312008897,
				"y": 0.0288455043,
				"z": -1.5183330175,
				"element": "S" 
			},
			{
				"x": 2.8479784669,
				"y": -0.3328444629,
				"z": -0.4378023422,
				"element": "O" 
			},
			{
				"x": 2.3816629309,
				"y": 0.2491319801,
				"z": -2.8920061066,
				"element": "O" 
			},
			{
				"x": 1.2194942323,
				"y": 1.5184639716,
				"z": -1.0924770034,
				"element": "N" 
			},
			{
				"x": 0.5358706706,
				"y": 1.7564962427,
				"z": 0.1263552655,
				"element": "C" 
			},
			{
				"x": 1.1397447815,
				"y": 1.4525262753,
				"z": 1.3555415441,
				"element": "C" 
			},
			{
				"x": 0.4453274544,
				"y": 1.735079748,
				"z": 2.5284772366,
				"element": "C" 
			},
			{
				"x": 1.1940645438,
				"y": 1.3372224858,
				"z": 4.0699063947,
				"element": "Cl" 
			},
			{
				"x": -0.8116668564,
				"y": 2.3395134797,
				"z": 2.5217864717,
				"element": "C" 
			},
			{
				"x": -1.3869237343,
				"y": 2.6546995358,
				"z": 1.2908193168,
				"element": "C" 
			},
			{
				"x": -0.7312467924,
				"y": 2.3557899284,
				"z": 0.0986092533,
				"element": "C" 
			},
			{
				"x": -0.3981064069,
				"y": -3.4982682161,
				"z": 1.5222477794,
				"element": "H" 
			},
			{
				"x": -1.6138624167,
				"y": -4.315771164,
				"z": 0.694896264,
				"element": "H" 
			},
			{
				"x": 0.8995100001,
				"y": -1.700945601,
				"z": 0.5210998923,
				"element": "H" 
			},
			{
				"x": 0.1704514832,
				"y": -0.8410117197,
				"z": -3.6319357822,
				"element": "H" 
			},
			{
				"x": -1.7267395231,
				"y": -2.4754670422,
				"z": -3.6192248039,
				"element": "H" 
			},
			{
				"x": -2.3082121653,
				"y": -3.6959903113,
				"z": -1.5576079601,
				"element": "H" 
			},
			{
				"x": 0.7861521963,
				"y": 1.9275640362,
				"z": -1.9139226842,
				"element": "H" 
			},
			{
				"x": 2.1282199062,
				"y": 1.0130963385,
				"z": 1.3826447782,
				"element": "H" 
			},
			{
				"x": -1.3203775284,
				"y": 2.5574769958,
				"z": 3.453474768,
				"element": "H" 
			},
			{
				"x": -2.3648497375,
				"y": 3.1255603953,
				"z": 1.2613545125,
				"element": "H" 
			},
			{
				"x": -1.1987301008,
				"y": 2.5856591065,
				"z": -0.8548521041,
				"element": "H" 
			}
		],
		 "valence_orbital": [ 
			{
				"type": "occ",
				"energy": -0.30601,
				"method": "rhf"
			},
			{
				"type": "occ",
				"energy": -0.27139,
				"method": "rhf"
			},
			{
				"type": "occ",
				"energy": -0.25534,
				"method": "rhf"
			},
			{
				"type": "occ",
				"energy": -0.2382,
				"method": "rhf"
			},
			{
				"type": "occ",
				"energy": -0.22207,
				"method": "rhf"
			},
			{
				"type": "unocc",
				"energy": -0.04095,
				"method": "rhf"
			},
			{
				"type": "unocc",
				"energy": -0.01969,
				"method": "rhf"
			},
			{
				"type": "unocc",
				"energy": -0.01411,
				"method": "rhf"
			},
			{
				"type": "unocc",
				"energy": -0.00677,
				"method": "rhf"
			},
			{
				"type": "unocc",
				"energy": 0.02811,
				"method": "rhf"
			}
		],
		"cosmo_sigma_profile": { 
			"-0.025": 0.0,
			"-0.024": 0.0,
			"-0.023": 0.0,
			"-0.022": 0.0,
			"-0.021": 0.0,
			"-0.02": 0.0,
			"-0.019": 0.0,
			"-0.018": 0.0,
			"-0.017": 0.0,
			"-0.016": 0.536502578888,
			"-0.015": 1.05690396179,
			"-0.014": 1.44201499208,
			"-0.013": 3.57012351494,
			"-0.012": 4.15919973813,
			"-0.011": 4.31274391412,
			"-0.01": 4.77402192316,
			"-0.009": 3.9248094652,
			"-0.008": 5.80091064855,
			"-0.007": 10.0826465527,
			"-0.006": 13.9698556784,
			"-0.005": 15.3884877738,
			"-0.004": 13.343352658,
			"-0.003": 11.2510614607,
			"-0.002": 14.7906333701,
			"-0.001": 15.255500247,
			"0.0": 14.3843047695,
			"0.001": 21.0251265399,
			"0.002": 27.2992354545,
			"0.003": 32.570110283,
			"0.004": 27.6253866738,
			"0.005": 13.170148666,
			"0.006": 4.75246658633,
			"0.007": 4.85299455997,
			"0.008": 4.14578453092,
			"0.009": 4.68311604424,
			"0.01": 8.20916569707,
			"0.011": 7.76501532184,
			"0.012": 1.240233516,
			"0.013": 0.554669335091,
			"0.014": 0.0337632981603,
			"0.015": 0.0,
			"0.016": 0.0,
			"0.017": 0.0,
			"0.018": 0.0,
			"0.019": 0.0,
			"0.02": 0.0,
			"0.021": 0.0,
			"0.022": 0.0,
			"0.023": 0.0,
			"0.024": 0.0,
			"0.025": 0.0
		}
	}
}
