{
	 "smiles": "CC(=O)C1(O)CC[C@@]2(C)[C@@H](CC(=O)C3C4CCC(=O)[C@@]4(C)CCC23)C1", 
	 "Tm": 461.15, 
	 "num_atms": 55, 
	 "gaussian": { 
		 "optdone": 1, 
		 "sigma_profile": "yes", 
		 "theory": "DFT", 
		 "functional": "B3LYP", 
		 "basiset": "6-31G**", 
		 "properties": { 
			 "R2extent": 9865.4942, 
			 "electric_dipole_moment_norm": 4.51658418941, 
			 "electric_quadrupole_moment_norm": 8.07461248792, 
			 "total_energy": -1119.21406767, 
			 "HOMO_LUMO_gap": 0.20601, 
			 "cosmo_polarized_energy": -20.95, 
			 "cosmo_cavitation_energy": 49.12, 
			 "cosmo_dispersion_energy": -33.15, 
			 "cosmo_repulsion_energy": 2.44, 
			 "cosmo_total_nonelectrostatic_energy": 18.41, 
			 "SMD_solvation_energy": 8.75 
		},
		"coords": [
			{
				"x": -2.1784705804,
				"y": -3.7032754855,
				"z": 3.4995460479,
				"element": "C" 
			},
			{
				"x": -2.0532226992,
				"y": -2.6292243404,
				"z": 2.438542492,
				"element": "C" 
			},
			{
				"x": -2.7300474829,
				"y": -1.6161279329,
				"z": 2.4590043734,
				"element": "O" 
			},
			{
				"x": -0.9959786557,
				"y": -2.8363457041,
				"z": 1.3305014661,
				"element": "C" 
			},
			{
				"x": -0.6950742457,
				"y": -4.2283416198,
				"z": 1.171330222,
				"element": "O" 
			},
			{
				"x": 0.3207057367,
				"y": -2.178348824,
				"z": 1.819999496,
				"element": "C" 
			},
			{
				"x": 1.2560228835,
				"y": -1.8602562957,
				"z": 0.6465563136,
				"element": "C" 
			},
			{
				"x": 0.6704418318,
				"y": -0.837134396,
				"z": -0.3808782058,
				"element": "C" 
			},
			{
				"x": 1.0886152875,
				"y": -1.326608197,
				"z": -1.7898484596,
				"element": "C" 
			},
			{
				"x": -0.881918822,
				"y": -0.8051667353,
				"z": -0.2291348851,
				"element": "C" 
			},
			{
				"x": -1.5275578356,
				"y": -0.0514805796,
				"z": -1.4040276173,
				"element": "C" 
			},
			{
				"x": -0.7493182296,
				"y": 1.2138682895,
				"z": -1.7615251551,
				"element": "C" 
			},
			{
				"x": -0.8605430102,
				"y": 1.765099794,
				"z": -2.8420124487,
				"element": "O" 
			},
			{
				"x": 0.159217041,
				"y": 1.7137751077,
				"z": -0.6487335807,
				"element": "C" 
			},
			{
				"x": 0.8425808088,
				"y": 3.0557922346,
				"z": -0.9469196031,
				"element": "C" 
			},
			{
				"x": -0.1337262409,
				"y": 4.2618803153,
				"z": -0.8784476985,
				"element": "C" 
			},
			{
				"x": 0.7390522774,
				"y": 5.470815816,
				"z": -0.5231283814,
				"element": "C" 
			},
			{
				"x": 1.8433256632,
				"y": 4.8888192152,
				"z": 0.3518655193,
				"element": "C" 
			},
			{
				"x": 2.5160370472,
				"y": 5.4991440409,
				"z": 1.1560773979,
				"element": "O" 
			},
			{
				"x": 1.9962088472,
				"y": 3.3781873057,
				"z": 0.0607387524,
				"element": "C" 
			},
			{
				"x": 3.4173289458,
				"y": 3.1675501905,
				"z": -0.5012200781,
				"element": "C" 
			},
			{
				"x": 1.7903497148,
				"y": 2.5846504557,
				"z": 1.37300236,
				"element": "C" 
			},
			{
				"x": 1.7703065381,
				"y": 1.0489061875,
				"z": 1.1602027772,
				"element": "C" 
			},
			{
				"x": 1.2096521556,
				"y": 0.636662436,
				"z": -0.224931054,
				"element": "C" 
			},
			{
				"x": -1.4699845537,
				"y": -2.2048908439,
				"z": -0.0077668551,
				"element": "C" 
			},
			{
				"x": -1.1971497299,
				"y": -3.9726686092,
				"z": 3.9020133451,
				"element": "H" 
			},
			{
				"x": -2.588260528,
				"y": -4.6200373768,
				"z": 3.0621908779,
				"element": "H" 
			},
			{
				"x": -2.8369311687,
				"y": -3.3510337806,
				"z": 4.2945804797,
				"element": "H" 
			},
			{
				"x": -1.3971467896,
				"y": -4.6295326664,
				"z": 0.6416698887,
				"element": "H" 
			},
			{
				"x": 0.8039665978,
				"y": -2.8772334882,
				"z": 2.5104940688,
				"element": "H" 
			},
			{
				"x": 0.0845251037,
				"y": -1.2735734083,
				"z": 2.388983952,
				"element": "H" 
			},
			{
				"x": 2.2263784528,
				"y": -1.5232239699,
				"z": 1.0232934634,
				"element": "H" 
			},
			{
				"x": 1.4488658211,
				"y": -2.8056881159,
				"z": 0.1277517318,
				"element": "H" 
			},
			{
				"x": 2.1741544335,
				"y": -1.4731837025,
				"z": -1.8176807089,
				"element": "H" 
			},
			{
				"x": 0.840856629,
				"y": -0.6149553309,
				"z": -2.5828837738,
				"element": "H" 
			},
			{
				"x": 0.6246806987,
				"y": -2.2856510098,
				"z": -2.043665959,
				"element": "H" 
			},
			{
				"x": -1.1145033907,
				"y": -0.2406683071,
				"z": 0.6816659717,
				"element": "H" 
			},
			{
				"x": -1.6118663092,
				"y": -0.6656863561,
				"z": -2.3067242093,
				"element": "H" 
			},
			{
				"x": -2.5508257126,
				"y": 0.2506107876,
				"z": -1.1412464351,
				"element": "H" 
			},
			{
				"x": -0.5148956265,
				"y": 1.8458143636,
				"z": 0.213129516,
				"element": "H" 
			},
			{
				"x": 1.2518238248,
				"y": 3.0033665642,
				"z": -1.9633308619,
				"element": "H" 
			},
			{
				"x": -0.6897333599,
				"y": 4.3779396257,
				"z": -1.8107374393,
				"element": "H" 
			},
			{
				"x": -0.8699467799,
				"y": 4.0986045006,
				"z": -0.0801426622,
				"element": "H" 
			},
			{
				"x": 1.221263961,
				"y": 5.884535495,
				"z": -1.4208985881,
				"element": "H" 
			},
			{
				"x": 0.2258133803,
				"y": 6.2955837678,
				"z": -0.0226449154,
				"element": "H" 
			},
			{
				"x": 4.1540762699,
				"y": 3.5641243738,
				"z": 0.2041319829,
				"element": "H" 
			},
			{
				"x": 3.5458288208,
				"y": 3.6915213956,
				"z": -1.4548484181,
				"element": "H" 
			},
			{
				"x": 3.6407233377,
				"y": 2.1112582434,
				"z": -0.6742105709,
				"element": "H" 
			},
			{
				"x": 0.8397910597,
				"y": 2.8972762686,
				"z": 1.8229840374,
				"element": "H" 
			},
			{
				"x": 2.5654306544,
				"y": 2.8657302346,
				"z": 2.0925875981,
				"element": "H" 
			},
			{
				"x": 1.1718023185,
				"y": 0.6039336242,
				"z": 1.9629671058,
				"element": "H" 
			},
			{
				"x": 2.782309197,
				"y": 0.6465216273,
				"z": 1.274383698,
				"element": "H" 
			},
			{
				"x": 2.0341800223,
				"y": 0.7303650906,
				"z": -0.9410905888,
				"element": "H" 
			},
			{
				"x": -1.1557126416,
				"y": -2.8709115892,
				"z": -0.8204320386,
				"element": "H" 
			},
			{
				"x": -2.563400969,
				"y": -2.150488686,
				"z": -0.027283743,
				"element": "H" 
			}
		],
		 "valence_orbital": [ 
			{
				"type": "occ",
				"energy": -0.29579,
				"method": "rhf"
			},
			{
				"type": "occ",
				"energy": -0.29103,
				"method": "rhf"
			},
			{
				"type": "occ",
				"energy": -0.24537,
				"method": "rhf"
			},
			{
				"type": "occ",
				"energy": -0.23835,
				"method": "rhf"
			},
			{
				"type": "occ",
				"energy": -0.23106,
				"method": "rhf"
			},
			{
				"type": "unocc",
				"energy": -0.02505,
				"method": "rhf"
			},
			{
				"type": "unocc",
				"energy": -0.01647,
				"method": "rhf"
			},
			{
				"type": "unocc",
				"energy": -0.01414,
				"method": "rhf"
			},
			{
				"type": "unocc",
				"energy": 0.06023,
				"method": "rhf"
			},
			{
				"type": "unocc",
				"energy": 0.0687,
				"method": "rhf"
			}
		],
		"cosmo_sigma_profile": { 
			"-0.025": 0.0,
			"-0.024": 0.0,
			"-0.023": 0.0,
			"-0.022": 0.0,
			"-0.021": 0.0,
			"-0.02": 0.0,
			"-0.019": 0.0,
			"-0.018": 0.0,
			"-0.017": 0.0,
			"-0.016": 0.193989591543,
			"-0.015": 1.07083710148,
			"-0.014": 1.19375671425,
			"-0.013": 0.71048138869,
			"-0.012": 1.2618202855,
			"-0.011": 1.41529444418,
			"-0.01": 1.06123194506,
			"-0.009": 1.26950302176,
			"-0.008": 0.782195749243,
			"-0.007": 1.79491665647,
			"-0.006": 10.0328933781,
			"-0.005": 24.5098797648,
			"-0.004": 34.6554013076,
			"-0.003": 48.1413920691,
			"-0.002": 52.5579023478,
			"-0.001": 48.4531389668,
			"0.0": 36.8255481206,
			"0.001": 20.8579021989,
			"0.002": 9.29032639404,
			"0.003": 6.85501660596,
			"0.004": 6.71084765579,
			"0.005": 6.64984544024,
			"0.006": 6.18953499443,
			"0.007": 7.00934600751,
			"0.008": 5.58644374263,
			"0.009": 5.87849610502,
			"0.01": 6.61218031569,
			"0.011": 8.26580914326,
			"0.012": 13.5212066006,
			"0.013": 7.58979208095,
			"0.014": 1.22630785604,
			"0.015": 0.0,
			"0.016": 0.0,
			"0.017": 0.0,
			"0.018": 0.0,
			"0.019": 0.0,
			"0.02": 0.0,
			"0.021": 0.0,
			"0.022": 0.0,
			"0.023": 0.0,
			"0.024": 0.0,
			"0.025": 0.0
		}
	}
}
