{
	 "smiles": "ClCCNP1(=O)OCCCN1CCCl", 
	 "Tm": 316.52, 
	 "num_atms": 29, 
	 "gaussian": { 
		 "optdone": 1, 
		 "sigma_profile": "yes", 
		 "theory": "DFT", 
		 "functional": "B3LYP", 
		 "basiset": "6-31G**", 
		 "properties": { 
			 "R2extent": 5388.3718, 
			 "electric_dipole_moment_norm": 1.89195993879, 
			 "electric_quadrupole_moment_norm": 23.6577877328, 
			 "total_energy": -1797.54319338, 
			 "HOMO_LUMO_gap": 0.2567, 
			 "cosmo_polarized_energy": -17.43, 
			 "cosmo_cavitation_energy": 35.33, 
			 "cosmo_dispersion_energy": -25.08, 
			 "cosmo_repulsion_energy": 2.01, 
			 "cosmo_total_nonelectrostatic_energy": 12.25, 
			 "SMD_solvation_energy": 5.39 
		},
		"coords": [
			{
				"x": 4.6936474761,
				"y": -2.4412977203,
				"z": 1.8246942725,
				"element": "Cl" 
			},
			{
				"x": 3.1232482559,
				"y": -1.6892857133,
				"z": 2.3312419879,
				"element": "C" 
			},
			{
				"x": 2.6848020624,
				"y": -0.6266100882,
				"z": 1.3256821115,
				"element": "C" 
			},
			{
				"x": 1.4278032714,
				"y": -0.0225009415,
				"z": 1.767501693,
				"element": "N" 
			},
			{
				"x": 0.2263145326,
				"y": 0.4903071948,
				"z": 0.7247748727,
				"element": "P" 
			},
			{
				"x": -0.779396821,
				"y": 1.328297405,
				"z": 1.4348357941,
				"element": "O" 
			},
			{
				"x": 1.0418097377,
				"y": 1.2043921096,
				"z": -0.4836777555,
				"element": "O" 
			},
			{
				"x": 0.4340029785,
				"y": 1.2949106143,
				"z": -1.7909307497,
				"element": "C" 
			},
			{
				"x": 0.1478368696,
				"y": -0.103348926,
				"z": -2.3216966111,
				"element": "C" 
			},
			{
				"x": -0.8250365576,
				"y": -0.8517385249,
				"z": -1.4089297535,
				"element": "C" 
			},
			{
				"x": -0.3218235729,
				"y": -0.9298440071,
				"z": -0.0189606519,
				"element": "N" 
			},
			{
				"x": -0.9991617922,
				"y": -1.8902804764,
				"z": 0.8606816351,
				"element": "C" 
			},
			{
				"x": -2.4132946222,
				"y": -1.5396780205,
				"z": 1.3382420936,
				"element": "C" 
			},
			{
				"x": -3.7057907052,
				"y": -1.8734772735,
				"z": 0.0948712515,
				"element": "Cl" 
			},
			{
				"x": 2.38855599,
				"y": -2.4919744142,
				"z": 2.4030336126,
				"element": "H" 
			},
			{
				"x": 3.2869812358,
				"y": -1.2644966371,
				"z": 3.3239211419,
				"element": "H" 
			},
			{
				"x": 2.5165712768,
				"y": -1.094756889,
				"z": 0.3537649173,
				"element": "H" 
			},
			{
				"x": 3.4784860776,
				"y": 0.1197929206,
				"z": 1.1994536239,
				"element": "H" 
			},
			{
				"x": 1.4940717422,
				"y": 0.574864121,
				"z": 2.5837242299,
				"element": "H" 
			},
			{
				"x": 1.1532434487,
				"y": 1.8305900989,
				"z": -2.4147011396,
				"element": "H" 
			},
			{
				"x": -0.4823212679,
				"y": 1.8951824575,
				"z": -1.7270087011,
				"element": "H" 
			},
			{
				"x": -0.2869478975,
				"y": -0.0323982196,
				"z": -3.3254053502,
				"element": "H" 
			},
			{
				"x": 1.0904564947,
				"y": -0.6560464112,
				"z": -2.4038832648,
				"element": "H" 
			},
			{
				"x": -0.9567009903,
				"y": -1.8799434311,
				"z": -1.763155088,
				"element": "H" 
			},
			{
				"x": -1.8133254859,
				"y": -0.3750063525,
				"z": -1.4542611268,
				"element": "H" 
			},
			{
				"x": -0.3833331654,
				"y": -1.9883356366,
				"z": 1.7622543806,
				"element": "H" 
			},
			{
				"x": -1.0048021558,
				"y": -2.8672351223,
				"z": 0.3636669651,
				"element": "H" 
			},
			{
				"x": -2.6778232001,
				"y": -2.1540328274,
				"z": 2.2007498373,
				"element": "H" 
			},
			{
				"x": -2.4866732161,
				"y": -0.483449289,
				"z": 1.5984157719,
				"element": "H" 
			}
		],
		 "valence_orbital": [ 
			{
				"type": "occ",
				"energy": -0.29947,
				"method": "rhf"
			},
			{
				"type": "occ",
				"energy": -0.29113,
				"method": "rhf"
			},
			{
				"type": "occ",
				"energy": -0.28712,
				"method": "rhf"
			},
			{
				"type": "occ",
				"energy": -0.27191,
				"method": "rhf"
			},
			{
				"type": "occ",
				"energy": -0.24221,
				"method": "rhf"
			},
			{
				"type": "unocc",
				"energy": 0.01449,
				"method": "rhf"
			},
			{
				"type": "unocc",
				"energy": 0.02357,
				"method": "rhf"
			},
			{
				"type": "unocc",
				"energy": 0.06357,
				"method": "rhf"
			},
			{
				"type": "unocc",
				"energy": 0.07066,
				"method": "rhf"
			},
			{
				"type": "unocc",
				"energy": 0.08476,
				"method": "rhf"
			}
		],
		"cosmo_sigma_profile": { 
			"-0.025": 0.0,
			"-0.024": 0.0,
			"-0.023": 0.0,
			"-0.022": 0.0,
			"-0.021": 0.0,
			"-0.02": 0.0,
			"-0.019": 0.0,
			"-0.018": 0.0,
			"-0.017": 0.0,
			"-0.016": 0.0,
			"-0.015": 0.0,
			"-0.014": 0.384375645495,
			"-0.013": 1.41716614511,
			"-0.012": 1.02649265047,
			"-0.011": 1.51033120396,
			"-0.01": 1.11545757044,
			"-0.009": 1.23807653826,
			"-0.008": 2.55507747721,
			"-0.007": 7.67788135331,
			"-0.006": 15.2979605162,
			"-0.005": 27.0167887582,
			"-0.004": 30.1638029708,
			"-0.003": 25.0965832467,
			"-0.002": 19.166796706,
			"-0.001": 16.0734003737,
			"0.0": 14.6642228527,
			"0.001": 13.5271768335,
			"0.002": 10.7514213917,
			"0.003": 11.8803385958,
			"0.004": 14.4031018686,
			"0.005": 13.410610898,
			"0.006": 19.1894504593,
			"0.007": 10.6340713331,
			"0.008": 1.85341673754,
			"0.009": 2.57219231582,
			"0.01": 1.97155954769,
			"0.011": 1.38685951032,
			"0.012": 1.0231232667,
			"0.013": 1.64108695578,
			"0.014": 2.06574470468,
			"0.015": 4.41416821039,
			"0.016": 2.44299126401,
			"0.017": 0.0152435134429,
			"0.018": 0.0,
			"0.019": 0.0,
			"0.02": 0.0,
			"0.021": 0.0,
			"0.022": 0.0,
			"0.023": 0.0,
			"0.024": 0.0,
			"0.025": 0.0
		}
	}
}
