{
	 "smiles": "CC1=C(C#N)C(=O)N(N)C(=C1)C1=CC=CC=C1", 
	 "Tm": 462.15, 
	 "num_atms": 28, 
	 "gaussian": { 
		 "optdone": 1, 
		 "sigma_profile": "yes", 
		 "theory": "DFT", 
		 "functional": "B3LYP", 
		 "basiset": "6-31G**", 
		 "properties": { 
			 "R2extent": 5021.5083, 
			 "electric_dipole_moment_norm": 8.09805263381, 
			 "electric_quadrupole_moment_norm": 26.5786482698, 
			 "total_energy": -741.459424126, 
			 "HOMO_LUMO_gap": 0.15145, 
			 "cosmo_polarized_energy": -18.77, 
			 "cosmo_cavitation_energy": 32.99, 
			 "cosmo_dispersion_energy": -23.28, 
			 "cosmo_repulsion_energy": 1.8, 
			 "cosmo_total_nonelectrostatic_energy": 11.51, 
			 "SMD_solvation_energy": 7.79 
		},
		"coords": [
			{
				"x": -3.6483603412,
				"y": -0.9335605445,
				"z": 1.3400763286,
				"element": "C" 
			},
			{
				"x": -2.4629128907,
				"y": -1.1473553639,
				"z": 0.4358390489,
				"element": "C" 
			},
			{
				"x": -2.5661402092,
				"y": -1.8278760315,
				"z": -0.7718771303,
				"element": "C" 
			},
			{
				"x": -3.8101264388,
				"y": -2.3566724011,
				"z": -1.2324223676,
				"element": "C" 
			},
			{
				"x": -4.8407035461,
				"y": -2.7745865276,
				"z": -1.5765540853,
				"element": "N" 
			},
			{
				"x": -1.4197853861,
				"y": -2.0266318676,
				"z": -1.6378537412,
				"element": "C" 
			},
			{
				"x": -1.4117755552,
				"y": -2.6097136209,
				"z": -2.7211834437,
				"element": "O" 
			},
			{
				"x": -0.2015982736,
				"y": -1.4783580516,
				"z": -1.1459970993,
				"element": "N" 
			},
			{
				"x": 0.9230244592,
				"y": -1.6724087364,
				"z": -1.9861004117,
				"element": "N" 
			},
			{
				"x": -0.071509357,
				"y": -0.8308593993,
				"z": 0.0522958887,
				"element": "C" 
			},
			{
				"x": -1.1994178665,
				"y": -0.6536400811,
				"z": 0.8309632975,
				"element": "C" 
			},
			{
				"x": 1.2488678662,
				"y": -0.3136131226,
				"z": 0.4966106774,
				"element": "C" 
			},
			{
				"x": 1.3271357656,
				"y": 0.9934856577,
				"z": 1.0045288117,
				"element": "C" 
			},
			{
				"x": 2.5325358741,
				"y": 1.4922341338,
				"z": 1.4980565325,
				"element": "C" 
			},
			{
				"x": 3.672265709,
				"y": 0.6878253421,
				"z": 1.4997982759,
				"element": "C" 
			},
			{
				"x": 3.6017685382,
				"y": -0.6155976522,
				"z": 1.000796133,
				"element": "C" 
			},
			{
				"x": 2.4036269829,
				"y": -1.1152286307,
				"z": 0.4960472968,
				"element": "C" 
			},
			{
				"x": -4.5618576348,
				"y": -1.3637654908,
				"z": 0.9281230317,
				"element": "H" 
			},
			{
				"x": -3.8116738746,
				"y": 0.1372563323,
				"z": 1.5047745202,
				"element": "H" 
			},
			{
				"x": -3.462764954,
				"y": -1.3854241674,
				"z": 2.3207816658,
				"element": "H" 
			},
			{
				"x": 1.1012093812,
				"y": -0.7880040444,
				"z": -2.4644702668,
				"element": "H" 
			},
			{
				"x": 0.5641200907,
				"y": -2.3202062829,
				"z": -2.6945094877,
				"element": "H" 
			},
			{
				"x": -1.090215462,
				"y": -0.1545663732,
				"z": 1.7855416504,
				"element": "H" 
			},
			{
				"x": 0.4429706493,
				"y": 1.6235519599,
				"z": 0.9957348321,
				"element": "H" 
			},
			{
				"x": 2.5791574327,
				"y": 2.5086199489,
				"z": 1.8775191262,
				"element": "H" 
			},
			{
				"x": 4.6114816447,
				"y": 1.0735605396,
				"z": 1.8852489442,
				"element": "H" 
			},
			{
				"x": 4.4848490767,
				"y": -1.247620718,
				"z": 1.0043378066,
				"element": "H" 
			},
			{
				"x": 2.3563283194,
				"y": -2.1209448067,
				"z": 0.0976941649,
				"element": "H" 
			}
		],
		 "valence_orbital": [ 
			{
				"type": "occ",
				"energy": -0.28446,
				"method": "rhf"
			},
			{
				"type": "occ",
				"energy": -0.27572,
				"method": "rhf"
			},
			{
				"type": "occ",
				"energy": -0.27112,
				"method": "rhf"
			},
			{
				"type": "occ",
				"energy": -0.25669,
				"method": "rhf"
			},
			{
				"type": "occ",
				"energy": -0.22582,
				"method": "rhf"
			},
			{
				"type": "unocc",
				"energy": -0.07437,
				"method": "rhf"
			},
			{
				"type": "unocc",
				"energy": -0.02353,
				"method": "rhf"
			},
			{
				"type": "unocc",
				"energy": -0.02037,
				"method": "rhf"
			},
			{
				"type": "unocc",
				"energy": -0.00195,
				"method": "rhf"
			},
			{
				"type": "unocc",
				"energy": 0.04131,
				"method": "rhf"
			}
		],
		"cosmo_sigma_profile": { 
			"-0.025": 0.0,
			"-0.024": 0.0,
			"-0.023": 0.0,
			"-0.022": 0.0,
			"-0.021": 0.0,
			"-0.02": 0.0,
			"-0.019": 0.0,
			"-0.018": 0.0,
			"-0.017": 0.0,
			"-0.016": 0.0,
			"-0.015": 0.0,
			"-0.014": 0.191899979062,
			"-0.013": 1.72946304562,
			"-0.012": 2.02072455578,
			"-0.011": 1.75579486775,
			"-0.01": 2.11781138302,
			"-0.009": 1.93771628914,
			"-0.008": 2.01174477694,
			"-0.007": 4.35216137269,
			"-0.006": 16.3848080201,
			"-0.005": 20.8719832706,
			"-0.004": 22.0842867767,
			"-0.003": 23.693927579,
			"-0.002": 26.2122491169,
			"-0.001": 21.0945979507,
			"0.0": 16.3486251095,
			"0.001": 13.0798612302,
			"0.002": 10.8839791041,
			"0.003": 11.5284030481,
			"0.004": 15.1203079636,
			"0.005": 7.99609670842,
			"0.006": 4.22812522969,
			"0.007": 4.5640957904,
			"0.008": 6.53632846984,
			"0.009": 6.30725048229,
			"0.01": 5.4866399308,
			"0.011": 4.47196435571,
			"0.012": 6.30123062984,
			"0.013": 4.88360322549,
			"0.014": 0.653080906032,
			"0.015": 0.0,
			"0.016": 0.0,
			"0.017": 0.0,
			"0.018": 0.0,
			"0.019": 0.0,
			"0.02": 0.0,
			"0.021": 0.0,
			"0.022": 0.0,
			"0.023": 0.0,
			"0.024": 0.0,
			"0.025": 0.0
		}
	}
}
