{
	 "smiles": "OCC1=CC=C(CN2CCOCC2)C=C1", 
	 "Tm": 367.15, 
	 "num_atms": 32, 
	 "gaussian": { 
		 "optdone": 1, 
		 "sigma_profile": "yes", 
		 "theory": "DFT", 
		 "functional": "B3LYP", 
		 "basiset": "6-31G**", 
		 "properties": { 
			 "R2extent": 5456.4707, 
			 "electric_dipole_moment_norm": 1.60915932399, 
			 "electric_quadrupole_moment_norm": 11.4199491641, 
			 "total_energy": -672.68804201, 
			 "HOMO_LUMO_gap": 0.19593, 
			 "cosmo_polarized_energy": -11.18, 
			 "cosmo_cavitation_energy": 33.24, 
			 "cosmo_dispersion_energy": -24.13, 
			 "cosmo_repulsion_energy": 1.9, 
			 "cosmo_total_nonelectrostatic_energy": 11.01, 
			 "SMD_solvation_energy": 3.89 
		},
		"coords": [
			{
				"x": 0.3035898554,
				"y": 5.4337677409,
				"z": 2.5475977696,
				"element": "O" 
			},
			{
				"x": 0.9752358912,
				"y": 5.1413607635,
				"z": 1.3300044719,
				"element": "C" 
			},
			{
				"x": 1.0199324792,
				"y": 3.6624833281,
				"z": 0.9958444128,
				"element": "C" 
			},
			{
				"x": -0.011002869,
				"y": 2.8093163102,
				"z": 1.4034884525,
				"element": "C" 
			},
			{
				"x": 0.0159664751,
				"y": 1.4548015469,
				"z": 1.0684753481,
				"element": "C" 
			},
			{
				"x": 1.0710643776,
				"y": 0.9173644186,
				"z": 0.3231755561,
				"element": "C" 
			},
			{
				"x": 1.1247696871,
				"y": -0.5686005363,
				"z": 0.0110290687,
				"element": "C" 
			},
			{
				"x": 1.5955366269,
				"y": -0.8402397957,
				"z": -1.3496971412,
				"element": "N" 
			},
			{
				"x": 2.0610433183,
				"y": -2.2135517791,
				"z": -1.5757568583,
				"element": "C" 
			},
			{
				"x": 0.9163379722,
				"y": -3.2094357388,
				"z": -1.7957893828,
				"element": "C" 
			},
			{
				"x": 0.0783090849,
				"y": -2.7821680611,
				"z": -2.8644591152,
				"element": "O" 
			},
			{
				"x": -0.4653071596,
				"y": -1.4890908935,
				"z": -2.6117555342,
				"element": "C" 
			},
			{
				"x": 0.6488325566,
				"y": -0.456400754,
				"z": -2.4080761191,
				"element": "C" 
			},
			{
				"x": 2.102133859,
				"y": 1.7737573954,
				"z": -0.0859902282,
				"element": "C" 
			},
			{
				"x": 2.07733274,
				"y": 3.1257409218,
				"z": 0.2498646458,
				"element": "C" 
			},
			{
				"x": 0.7469691482,
				"y": 4.9358679846,
				"z": 3.247580182,
				"element": "H" 
			},
			{
				"x": 1.9982047907,
				"y": 5.5507641716,
				"z": 1.3234662245,
				"element": "H" 
			},
			{
				"x": 0.4151184555,
				"y": 5.6853110917,
				"z": 0.5594535261,
				"element": "H" 
			},
			{
				"x": -0.8337445862,
				"y": 3.2172778787,
				"z": 1.9829001593,
				"element": "H" 
			},
			{
				"x": -0.7962428492,
				"y": 0.8064626252,
				"z": 1.3904440769,
				"element": "H" 
			},
			{
				"x": 1.8402523028,
				"y": -1.0483353142,
				"z": 0.6928143712,
				"element": "H" 
			},
			{
				"x": 0.1414604381,
				"y": -1.0126602519,
				"z": 0.2474778772,
				"element": "H" 
			},
			{
				"x": 2.6891114011,
				"y": -2.2105434557,
				"z": -2.4767627004,
				"element": "H" 
			},
			{
				"x": 2.6887677977,
				"y": -2.5269279275,
				"z": -0.7333948988,
				"element": "H" 
			},
			{
				"x": 0.3225041448,
				"y": -3.3293443069,
				"z": -0.8730704893,
				"element": "H" 
			},
			{
				"x": 1.3026736234,
				"y": -4.1941952797,
				"z": -2.078347545,
				"element": "H" 
			},
			{
				"x": -1.0778297497,
				"y": -1.2346054559,
				"z": -3.4825909593,
				"element": "H" 
			},
			{
				"x": -1.1291853318,
				"y": -1.5263857298,
				"z": -1.7311985527,
				"element": "H" 
			},
			{
				"x": 1.211424111,
				"y": -0.3643880472,
				"z": -3.3462897257,
				"element": "H" 
			},
			{
				"x": 0.2285700539,
				"y": 0.5270633559,
				"z": -2.1747551945,
				"element": "H" 
			},
			{
				"x": 2.9183943806,
				"y": 1.3646713668,
				"z": -0.673469453,
				"element": "H" 
			},
			{
				"x": 2.8920769742,
				"y": 3.7730624275,
				"z": -0.0684122448,
				"element": "H" 
			}
		],
		 "valence_orbital": [ 
			{
				"type": "occ",
				"energy": -0.27623,
				"method": "rhf"
			},
			{
				"type": "occ",
				"energy": -0.26875,
				"method": "rhf"
			},
			{
				"type": "occ",
				"energy": -0.24902,
				"method": "rhf"
			},
			{
				"type": "occ",
				"energy": -0.23567,
				"method": "rhf"
			},
			{
				"type": "occ",
				"energy": -0.20146,
				"method": "rhf"
			},
			{
				"type": "unocc",
				"energy": -0.00553,
				"method": "rhf"
			},
			{
				"type": "unocc",
				"energy": -0.00171,
				"method": "rhf"
			},
			{
				"type": "unocc",
				"energy": 0.08024,
				"method": "rhf"
			},
			{
				"type": "unocc",
				"energy": 0.08718,
				"method": "rhf"
			},
			{
				"type": "unocc",
				"energy": 0.10685,
				"method": "rhf"
			}
		],
		"cosmo_sigma_profile": { 
			"-0.025": 0.0,
			"-0.024": 0.0,
			"-0.023": 0.0,
			"-0.022": 0.0,
			"-0.021": 0.0,
			"-0.02": 0.0,
			"-0.019": 0.0,
			"-0.018": 0.0,
			"-0.017": 0.0,
			"-0.016": 0.0514402693928,
			"-0.015": 0.902713373385,
			"-0.014": 0.865597400505,
			"-0.013": 0.959937298992,
			"-0.012": 0.672708861569,
			"-0.011": 0.689275409574,
			"-0.01": 0.776001505134,
			"-0.009": 0.57581746861,
			"-0.008": 0.692371769106,
			"-0.007": 1.19751335443,
			"-0.006": 1.59259836652,
			"-0.005": 14.7149192428,
			"-0.004": 30.3590379056,
			"-0.003": 43.11873126,
			"-0.002": 31.0287177833,
			"-0.001": 22.6808626403,
			"0.0": 14.8185533254,
			"0.001": 13.0795144184,
			"0.002": 11.9691118187,
			"0.003": 11.5240287553,
			"0.004": 10.1658028643,
			"0.005": 10.9333038074,
			"0.006": 10.2019502864,
			"0.007": 4.2070280084,
			"0.008": 3.23789185988,
			"0.009": 2.66676779018,
			"0.01": 3.01466168396,
			"0.011": 2.94516309037,
			"0.012": 3.14800119716,
			"0.013": 3.10594684414,
			"0.014": 3.54385503439,
			"0.015": 0.127089271274,
			"0.016": 0.0,
			"0.017": 0.0,
			"0.018": 0.0,
			"0.019": 0.0,
			"0.02": 0.0,
			"0.021": 0.0,
			"0.022": 0.0,
			"0.023": 0.0,
			"0.024": 0.0,
			"0.025": 0.0
		}
	}
}
