{
	 "smiles": "CC1=C(N)C=CC=C1[N+]([O-])=O", 
	 "Tm": 364.15, 
	 "num_atms": 19, 
	 "gaussian": { 
		 "optdone": 1, 
		 "sigma_profile": "yes", 
		 "theory": "DFT", 
		 "functional": "B3LYP", 
		 "basiset": "6-31G**", 
		 "properties": { 
			 "R2extent": 2060.7301, 
			 "electric_dipole_moment_norm": 5.4974995789, 
			 "electric_quadrupole_moment_norm": 13.3043487669, 
			 "total_energy": -531.421015008, 
			 "HOMO_LUMO_gap": 0.14429, 
			 "cosmo_polarized_energy": -12.26, 
			 "cosmo_cavitation_energy": 22.84, 
			 "cosmo_dispersion_energy": -17.11, 
			 "cosmo_repulsion_energy": 1.37, 
			 "cosmo_total_nonelectrostatic_energy": 7.1, 
			 "SMD_solvation_energy": 6.07 
		},
		"coords": [
			{
				"x": -1.7416011669,
				"y": -0.204431806,
				"z": -0.1627228149,
				"element": "C" 
			},
			{
				"x": -0.3068901167,
				"y": 0.0630943401,
				"z": -0.5477493096,
				"element": "C" 
			},
			{
				"x": 0.4687751676,
				"y": 0.9057019671,
				"z": 0.2904224424,
				"element": "C" 
			},
			{
				"x": -0.0629871169,
				"y": 1.3821760971,
				"z": 1.4848721348,
				"element": "N" 
			},
			{
				"x": 1.7955158157,
				"y": 1.2190349577,
				"z": -0.0486450309,
				"element": "C" 
			},
			{
				"x": 2.3719821738,
				"y": 0.7257154955,
				"z": -1.2136507442,
				"element": "C" 
			},
			{
				"x": 1.636634322,
				"y": -0.0935768599,
				"z": -2.0620005486,
				"element": "C" 
			},
			{
				"x": 0.3272168922,
				"y": -0.4200629573,
				"z": -1.7033622248,
				"element": "C" 
			},
			{
				"x": -0.3609858579,
				"y": -1.3426453561,
				"z": -2.6275853491,
				"element": "N" 
			},
			{
				"x": -1.1484303204,
				"y": -2.1667029789,
				"z": -2.1586426619,
				"element": "O" 
			},
			{
				"x": -0.0787102511,
				"y": -1.25740375,
				"z": -3.8224461936,
				"element": "O" 
			},
			{
				"x": -1.7916469254,
				"y": -0.7904255463,
				"z": 0.7632356777,
				"element": "H" 
			},
			{
				"x": -2.2702605701,
				"y": 0.7413557924,
				"z": 0.0190173939,
				"element": "H" 
			},
			{
				"x": -2.2848925405,
				"y": -0.7532873863,
				"z": -0.9259239074,
				"element": "H" 
			},
			{
				"x": 0.400222927,
				"y": 2.1892715014,
				"z": 1.8767244416,
				"element": "H" 
			},
			{
				"x": -1.0680721331,
				"y": 1.4409203708,
				"z": 1.5465879577,
				"element": "H" 
			},
			{
				"x": 2.3720850456,
				"y": 1.8573830879,
				"z": 0.616096263,
				"element": "H" 
			},
			{
				"x": 3.3977110514,
				"y": 0.9810920643,
				"z": -1.4601340642,
				"element": "H" 
			},
			{
				"x": 2.0497336039,
				"y": -0.4917090335,
				"z": -2.9791934621,
				"element": "H" 
			}
		],
		 "valence_orbital": [ 
			{
				"type": "occ",
				"energy": -0.30157,
				"method": "rhf"
			},
			{
				"type": "occ",
				"energy": -0.29728,
				"method": "rhf"
			},
			{
				"type": "occ",
				"energy": -0.28667,
				"method": "rhf"
			},
			{
				"type": "occ",
				"energy": -0.26075,
				"method": "rhf"
			},
			{
				"type": "occ",
				"energy": -0.21972,
				"method": "rhf"
			},
			{
				"type": "unocc",
				"energy": -0.07543,
				"method": "rhf"
			},
			{
				"type": "unocc",
				"energy": -0.00685,
				"method": "rhf"
			},
			{
				"type": "unocc",
				"energy": 0.00676,
				"method": "rhf"
			},
			{
				"type": "unocc",
				"energy": 0.06565,
				"method": "rhf"
			},
			{
				"type": "unocc",
				"energy": 0.08575,
				"method": "rhf"
			}
		],
		"cosmo_sigma_profile": { 
			"-0.025": 0.0,
			"-0.024": 0.0,
			"-0.023": 0.0,
			"-0.022": 0.0,
			"-0.021": 0.0,
			"-0.02": 0.0,
			"-0.019": 0.0,
			"-0.018": 0.0,
			"-0.017": 0.0,
			"-0.016": 0.0,
			"-0.015": 0.0,
			"-0.014": 0.0,
			"-0.013": 1.32144477544,
			"-0.012": 2.70618485726,
			"-0.011": 2.75596747694,
			"-0.01": 3.43947913522,
			"-0.009": 3.06600928321,
			"-0.008": 2.99320207444,
			"-0.007": 5.13356558646,
			"-0.006": 8.45763826083,
			"-0.005": 11.1588260116,
			"-0.004": 11.5156283167,
			"-0.003": 11.6501538882,
			"-0.002": 11.2607237117,
			"-0.001": 10.7404304082,
			"0.0": 11.5428650373,
			"0.001": 9.24058291346,
			"0.002": 10.4920743519,
			"0.003": 12.8458154011,
			"0.004": 12.3506368199,
			"0.005": 5.27106508591,
			"0.006": 4.82895210745,
			"0.007": 6.52295615685,
			"0.008": 10.4670439573,
			"0.009": 5.76752925631,
			"0.01": 3.8326613011,
			"0.011": 1.40445778669,
			"0.012": 0.372112411497,
			"0.013": 0.489858746477,
			"0.014": 0.0456731976606,
			"0.015": 0.0,
			"0.016": 0.0,
			"0.017": 0.0,
			"0.018": 0.0,
			"0.019": 0.0,
			"0.02": 0.0,
			"0.021": 0.0,
			"0.022": 0.0,
			"0.023": 0.0,
			"0.024": 0.0,
			"0.025": 0.0
		}
	}
}
