{
	 "smiles": "BrC1=C(C=CC=C1)C1=NN=NN1", 
	 "Tm": 456.15, 
	 "num_atms": 17, 
	 "gaussian": { 
		 "optdone": 1, 
		 "sigma_profile": "yes", 
		 "theory": "DFT", 
		 "functional": "B3LYP", 
		 "basiset": "6-31G**", 
		 "properties": { 
			 "R2extent": 3267.8849, 
			 "electric_dipole_moment_norm": 5.77699156742, 
			 "electric_quadrupole_moment_norm": 10.2331336764, 
			 "total_energy": -3060.11457831, 
			 "HOMO_LUMO_gap": 0.19555, 
			 "cosmo_polarized_energy": -13.24, 
			 "cosmo_cavitation_energy": 23.87, 
			 "cosmo_dispersion_energy": -18.52, 
			 "cosmo_repulsion_energy": 1.44, 
			 "cosmo_total_nonelectrostatic_energy": 6.79, 
			 "SMD_solvation_energy": 1.28 
		},
		"coords": [
			{
				"x": -2.871029233,
				"y": 0.5473695577,
				"z": -0.697291398,
				"element": "Br" 
			},
			{
				"x": -1.6015025661,
				"y": 1.7093202129,
				"z": 0.1622714034,
				"element": "C" 
			},
			{
				"x": -0.2501152815,
				"y": 1.3679984756,
				"z": 0.3493660398,
				"element": "C" 
			},
			{
				"x": 0.5682416704,
				"y": 2.3179358842,
				"z": 0.996023343,
				"element": "C" 
			},
			{
				"x": 0.0685786653,
				"y": 3.5376083885,
				"z": 1.4310783524,
				"element": "C" 
			},
			{
				"x": -1.2776600631,
				"y": 3.8491515634,
				"z": 1.2317020975,
				"element": "C" 
			},
			{
				"x": -2.1116272393,
				"y": 2.9328646033,
				"z": 0.596593049,
				"element": "C" 
			},
			{
				"x": 0.4129556296,
				"y": 0.1215102403,
				"z": -0.0561947794,
				"element": "C" 
			},
			{
				"x": 1.7017167686,
				"y": -0.1318135167,
				"z": 0.1549767703,
				"element": "N" 
			},
			{
				"x": 1.9454555528,
				"y": -1.361290091,
				"z": -0.3493501651,
				"element": "N" 
			},
			{
				"x": 0.872863697,
				"y": -1.8782800855,
				"z": -0.860253602,
				"element": "N" 
			},
			{
				"x": -0.0995985693,
				"y": -0.9604710484,
				"z": -0.6849898237,
				"element": "N" 
			},
			{
				"x": 1.610636701,
				"y": 2.0589982399,
				"z": 1.1423781416,
				"element": "H" 
			},
			{
				"x": 0.7287734992,
				"y": 4.2433588821,
				"z": 1.9247645161,
				"element": "H" 
			},
			{
				"x": -1.6827281848,
				"y": 4.798975855,
				"z": 1.5665950945,
				"element": "H" 
			},
			{
				"x": -3.1588052463,
				"y": 3.1597239433,
				"z": 0.4343517156,
				"element": "H" 
			},
			{
				"x": -1.0439558004,
				"y": -1.1294611045,
				"z": -1.002620755,
				"element": "H" 
			}
		],
		 "valence_orbital": [ 
			{
				"type": "occ",
				"energy": -0.32345,
				"method": "rhf"
			},
			{
				"type": "occ",
				"energy": -0.29863,
				"method": "rhf"
			},
			{
				"type": "occ",
				"energy": -0.28455,
				"method": "rhf"
			},
			{
				"type": "occ",
				"energy": -0.27181,
				"method": "rhf"
			},
			{
				"type": "occ",
				"energy": -0.26102,
				"method": "rhf"
			},
			{
				"type": "unocc",
				"energy": -0.06547,
				"method": "rhf"
			},
			{
				"type": "unocc",
				"energy": -0.03498,
				"method": "rhf"
			},
			{
				"type": "unocc",
				"energy": -0.02453,
				"method": "rhf"
			},
			{
				"type": "unocc",
				"energy": -0.00121,
				"method": "rhf"
			},
			{
				"type": "unocc",
				"energy": 0.04477,
				"method": "rhf"
			}
		],
		"cosmo_sigma_profile": { 
			"-0.025": 0.0,
			"-0.024": 0.0,
			"-0.023": 0.0,
			"-0.022": 0.0,
			"-0.021": 0.0,
			"-0.02": 0.0,
			"-0.019": 0.0,
			"-0.018": 0.0,
			"-0.017": 0.037542409425,
			"-0.016": 0.839917562251,
			"-0.015": 0.687805622427,
			"-0.014": 0.710176568621,
			"-0.013": 0.59209329657,
			"-0.012": 1.22051055441,
			"-0.011": 0.579280710272,
			"-0.01": 0.980120148928,
			"-0.009": 1.1171950521,
			"-0.008": 2.98828135193,
			"-0.007": 8.96571734131,
			"-0.006": 12.1993564589,
			"-0.005": 12.757147918,
			"-0.004": 12.1101502203,
			"-0.003": 11.5728723703,
			"-0.002": 10.849657433,
			"-0.001": 12.9281551035,
			"0.0": 17.2655542086,
			"0.001": 18.4646820034,
			"0.002": 19.0605955828,
			"0.003": 12.5370875979,
			"0.004": 3.18127132258,
			"0.005": 2.62670993052,
			"0.006": 3.71166014973,
			"0.007": 3.51113455707,
			"0.008": 5.27283115483,
			"0.009": 4.57883891471,
			"0.01": 4.74147572549,
			"0.011": 4.90598586179,
			"0.012": 2.8529249584,
			"0.013": 2.2721511183,
			"0.014": 0.416484335805,
			"0.015": 0.0,
			"0.016": 0.0,
			"0.017": 0.0,
			"0.018": 0.0,
			"0.019": 0.0,
			"0.02": 0.0,
			"0.021": 0.0,
			"0.022": 0.0,
			"0.023": 0.0,
			"0.024": 0.0,
			"0.025": 0.0
		}
	}
}
