{
	 "smiles": "CC1=CC=CC(NN=C(C#N)C2=NC(=CS2)C2=CC=C(Cl)C=C2)=C1", 
	 "Tm": 430.15, 
	 "num_atms": 37, 
	 "gaussian": { 
		 "optdone": 1, 
		 "sigma_profile": "yes", 
		 "theory": "DFT", 
		 "functional": "B3LYP", 
		 "basiset": "6-31G**", 
		 "properties": { 
			 "R2extent": 18680.3096, 
			 "electric_dipole_moment_norm": 7.7322891313, 
			 "electric_quadrupole_moment_norm": 12.1325764391, 
			 "total_energy": -1771.08414706, 
			 "HOMO_LUMO_gap": 0.12945, 
			 "cosmo_polarized_energy": -19.18, 
			 "cosmo_cavitation_energy": 47.34, 
			 "cosmo_dispersion_energy": -33.8, 
			 "cosmo_repulsion_energy": 2.51, 
			 "cosmo_total_nonelectrostatic_energy": 16.05, 
			 "SMD_solvation_energy": 7.38 
		},
		"coords": [
			{
				"x": -3.1963410034,
				"y": -1.5298840051,
				"z": -6.0075232972,
				"element": "C" 
			},
			{
				"x": -1.8912544572,
				"y": -1.1835445691,
				"z": -5.3299004925,
				"element": "C" 
			},
			{
				"x": -0.7923710737,
				"y": -0.7317261066,
				"z": -6.0737103704,
				"element": "C" 
			},
			{
				"x": 0.4181245146,
				"y": -0.4406298945,
				"z": -5.4430755189,
				"element": "C" 
			},
			{
				"x": 0.5665084213,
				"y": -0.5885702327,
				"z": -4.0660597628,
				"element": "C" 
			},
			{
				"x": -0.5297619583,
				"y": -1.0332850735,
				"z": -3.3199267409,
				"element": "C" 
			},
			{
				"x": -0.4484373061,
				"y": -1.2142303349,
				"z": -1.9237495712,
				"element": "N" 
			},
			{
				"x": 0.6220771876,
				"y": -0.8354582137,
				"z": -1.2547757877,
				"element": "N" 
			},
			{
				"x": 0.7225884724,
				"y": -0.956992125,
				"z": 0.0435314764,
				"element": "C" 
			},
			{
				"x": 1.9453578125,
				"y": -0.4416237198,
				"z": 0.6000145418,
				"element": "C" 
			},
			{
				"x": 2.936097069,
				"y": -0.0277891947,
				"z": 1.046285144,
				"element": "N" 
			},
			{
				"x": -0.2239860189,
				"y": -1.5271186258,
				"z": 1.0094951276,
				"element": "C" 
			},
			{
				"x": -0.148936246,
				"y": -1.2754467372,
				"z": 2.2875353768,
				"element": "N" 
			},
			{
				"x": -1.0984023113,
				"y": -1.9479597909,
				"z": 3.0227247658,
				"element": "C" 
			},
			{
				"x": -1.9323011314,
				"y": -2.7487193239,
				"z": 2.2748942976,
				"element": "C" 
			},
			{
				"x": -1.5086697148,
				"y": -2.6796930933,
				"z": 0.6032477089,
				"element": "S" 
			},
			{
				"x": -1.1332292973,
				"y": -1.757974753,
				"z": 4.4856358456,
				"element": "C" 
			},
			{
				"x": -2.1313458244,
				"y": -2.3367603423,
				"z": 5.2857513314,
				"element": "C" 
			},
			{
				"x": -2.1446500279,
				"y": -2.1497579301,
				"z": 6.6646159446,
				"element": "C" 
			},
			{
				"x": -1.1481643163,
				"y": -1.3720237743,
				"z": 7.2559862444,
				"element": "C" 
			},
			{
				"x": -1.1601888291,
				"y": -1.1318720166,
				"z": 8.9954129587,
				"element": "Cl" 
			},
			{
				"x": -0.1466121036,
				"y": -0.783372492,
				"z": 6.4850769106,
				"element": "C" 
			},
			{
				"x": -0.1439879291,
				"y": -0.9779266919,
				"z": 5.1061841013,
				"element": "C" 
			},
			{
				"x": -1.746621618,
				"y": -1.3279406795,
				"z": -3.9474494356,
				"element": "C" 
			},
			{
				"x": -4.0349136553,
				"y": -1.5014652756,
				"z": -5.3058372203,
				"element": "H" 
			},
			{
				"x": -3.1617764723,
				"y": -2.5383899718,
				"z": -6.4376983249,
				"element": "H" 
			},
			{
				"x": -3.4157347547,
				"y": -0.8369663878,
				"z": -6.8255064235,
				"element": "H" 
			},
			{
				"x": -0.8870115881,
				"y": -0.6071015769,
				"z": -7.1488884619,
				"element": "H" 
			},
			{
				"x": 1.2613067926,
				"y": -0.0900277061,
				"z": -6.0311068648,
				"element": "H" 
			},
			{
				"x": 1.5007699535,
				"y": -0.3631281044,
				"z": -3.5673039278,
				"element": "H" 
			},
			{
				"x": -1.3096594268,
				"y": -1.4661635228,
				"z": -1.4430086803,
				"element": "H" 
			},
			{
				"x": -2.7462238574,
				"y": -3.3789252385,
				"z": 2.6008056879,
				"element": "H" 
			},
			{
				"x": -2.9158056309,
				"y": -2.9382984792,
				"z": 4.8368880464,
				"element": "H" 
			},
			{
				"x": -2.9191609167,
				"y": -2.5986988924,
				"z": 7.2762857961,
				"element": "H" 
			},
			{
				"x": 0.621351493,
				"y": -0.1814150808,
				"z": 6.9579063036,
				"element": "H" 
			},
			{
				"x": 0.6289368948,
				"y": -0.5266336298,
				"z": 4.4945639892,
				"element": "H" 
			},
			{
				"x": -2.5905711423,
				"y": -1.6710864137,
				"z": -3.3519207179,
				"element": "H" 
			}
		],
		 "valence_orbital": [ 
			{
				"type": "occ",
				"energy": -0.27968,
				"method": "rhf"
			},
			{
				"type": "occ",
				"energy": -0.26904,
				"method": "rhf"
			},
			{
				"type": "occ",
				"energy": -0.25727,
				"method": "rhf"
			},
			{
				"type": "occ",
				"energy": -0.23715,
				"method": "rhf"
			},
			{
				"type": "occ",
				"energy": -0.21704,
				"method": "rhf"
			},
			{
				"type": "unocc",
				"energy": -0.08759,
				"method": "rhf"
			},
			{
				"type": "unocc",
				"energy": -0.0502,
				"method": "rhf"
			},
			{
				"type": "unocc",
				"energy": -0.02024,
				"method": "rhf"
			},
			{
				"type": "unocc",
				"energy": -0.01664,
				"method": "rhf"
			},
			{
				"type": "unocc",
				"energy": -0.01333,
				"method": "rhf"
			}
		],
		"cosmo_sigma_profile": { 
			"-0.025": 0.0,
			"-0.024": 0.0,
			"-0.023": 0.0,
			"-0.022": 0.0,
			"-0.021": 0.0,
			"-0.02": 0.0,
			"-0.019": 0.0,
			"-0.018": 0.0,
			"-0.017": 0.0,
			"-0.016": 0.0,
			"-0.015": 0.0132150758463,
			"-0.014": 0.90648412867,
			"-0.013": 1.15948708897,
			"-0.012": 1.81247625523,
			"-0.011": 2.67877346606,
			"-0.01": 4.9041447865,
			"-0.009": 3.35714097416,
			"-0.008": 4.83818539914,
			"-0.007": 8.65676491637,
			"-0.006": 13.3202681385,
			"-0.005": 18.8487688312,
			"-0.004": 24.5171418139,
			"-0.003": 24.2047897028,
			"-0.002": 28.4752014869,
			"-0.001": 30.2515385158,
			"0.0": 34.5641546866,
			"0.001": 37.0227076575,
			"0.002": 34.6555704998,
			"0.003": 33.5138413496,
			"0.004": 28.471586254,
			"0.005": 19.7379499465,
			"0.006": 6.08090480882,
			"0.007": 4.95184490914,
			"0.008": 5.60304020621,
			"0.009": 4.47828246695,
			"0.01": 3.36083821447,
			"0.011": 2.56733110378,
			"0.012": 2.48930503646,
			"0.013": 1.39061823122,
			"0.014": 0.0,
			"0.015": 0.0,
			"0.016": 0.0,
			"0.017": 0.0,
			"0.018": 0.0,
			"0.019": 0.0,
			"0.02": 0.0,
			"0.021": 0.0,
			"0.022": 0.0,
			"0.023": 0.0,
			"0.024": 0.0,
			"0.025": 0.0
		}
	}
}
