{
	 "smiles": "ClC1=CC=C(NN=C2C(=O)NC(=S)NC2=O)C=C1", 
	 "Tm": 573.15, 
	 "num_atms": 25, 
	 "gaussian": { 
		 "optdone": 1, 
		 "sigma_profile": "yes", 
		 "theory": "DFT", 
		 "functional": "B3LYP", 
		 "basiset": "6-31G**", 
		 "properties": { 
			 "R2extent": 9703.1204, 
			 "electric_dipole_moment_norm": 3.24801058188, 
			 "electric_quadrupole_moment_norm": 14.3065707729, 
			 "total_energy": -1613.13355554, 
			 "HOMO_LUMO_gap": 0.12482, 
			 "cosmo_polarized_energy": -19.31, 
			 "cosmo_cavitation_energy": 35.08, 
			 "cosmo_dispersion_energy": -26.4, 
			 "cosmo_repulsion_energy": 1.98, 
			 "cosmo_total_nonelectrostatic_energy": 10.66, 
			 "SMD_solvation_energy": 5.42 
		},
		"coords": [
			{
				"x": 5.1555787291,
				"y": -2.5462489186,
				"z": 2.4554516103,
				"element": "Cl" 
			},
			{
				"x": 3.7330436637,
				"y": -1.6979217285,
				"z": 1.881060675,
				"element": "C" 
			},
			{
				"x": 2.531742354,
				"y": -2.3911386318,
				"z": 1.7332339338,
				"element": "C" 
			},
			{
				"x": 1.4047029723,
				"y": -1.713161532,
				"z": 1.2767349947,
				"element": "C" 
			},
			{
				"x": 1.4852023192,
				"y": -0.3492587362,
				"z": 0.9714221552,
				"element": "C" 
			},
			{
				"x": 0.3206887612,
				"y": 0.2932787626,
				"z": 0.5135729396,
				"element": "N" 
			},
			{
				"x": 0.3260766497,
				"y": 1.5567578192,
				"z": 0.2141960477,
				"element": "N" 
			},
			{
				"x": -0.7736125202,
				"y": 2.1505180173,
				"z": -0.2149956982,
				"element": "C" 
			},
			{
				"x": -0.6497318717,
				"y": 3.5889912658,
				"z": -0.5250973732,
				"element": "C" 
			},
			{
				"x": 0.3553023155,
				"y": 4.2645370813,
				"z": -0.4228123906,
				"element": "O" 
			},
			{
				"x": -1.8499459167,
				"y": 4.1759662994,
				"z": -0.979110416,
				"element": "N" 
			},
			{
				"x": -3.0716916644,
				"y": 3.5849627669,
				"z": -1.1575819389,
				"element": "C" 
			},
			{
				"x": -4.4130536723,
				"y": 4.3990978201,
				"z": -1.7016115045,
				"element": "S" 
			},
			{
				"x": -3.1042724288,
				"y": 2.2413914541,
				"z": -0.846165753,
				"element": "N" 
			},
			{
				"x": -2.0512047386,
				"y": 1.4620406248,
				"z": -0.3850665613,
				"element": "C" 
			},
			{
				"x": -2.2319932226,
				"y": 0.2612177799,
				"z": -0.1462574296,
				"element": "O" 
			},
			{
				"x": 2.6942076802,
				"y": 0.3426727451,
				"z": 1.1215389737,
				"element": "C" 
			},
			{
				"x": 3.8184868325,
				"y": -0.3362380341,
				"z": 1.5775776019,
				"element": "C" 
			},
			{
				"x": 2.4783216171,
				"y": -3.4471181994,
				"z": 1.9719687616,
				"element": "H" 
			},
			{
				"x": 0.4644982622,
				"y": -2.2445837467,
				"z": 1.1584788245,
				"element": "H" 
			},
			{
				"x": -0.5631781722,
				"y": -0.2232546778,
				"z": 0.4052765274,
				"element": "H" 
			},
			{
				"x": -1.7923550843,
				"y": 5.1633222589,
				"z": -1.1988004703,
				"element": "H" 
			},
			{
				"x": -3.9940679414,
				"y": 1.7718156367,
				"z": -0.9669136213,
				"element": "H" 
			},
			{
				"x": 2.7388185423,
				"y": 1.3981366441,
				"z": 0.8807121617,
				"element": "H" 
			},
			{
				"x": 4.760336534,
				"y": 0.1870172289,
				"z": 1.6982879496,
				"element": "H" 
			}
		],
		 "valence_orbital": [ 
			{
				"type": "occ",
				"energy": -0.2877,
				"method": "rhf"
			},
			{
				"type": "occ",
				"energy": -0.28609,
				"method": "rhf"
			},
			{
				"type": "occ",
				"energy": -0.25674,
				"method": "rhf"
			},
			{
				"type": "occ",
				"energy": -0.23851,
				"method": "rhf"
			},
			{
				"type": "occ",
				"energy": -0.23688,
				"method": "rhf"
			},
			{
				"type": "unocc",
				"energy": -0.11206,
				"method": "rhf"
			},
			{
				"type": "unocc",
				"energy": -0.04088,
				"method": "rhf"
			},
			{
				"type": "unocc",
				"energy": -0.0347,
				"method": "rhf"
			},
			{
				"type": "unocc",
				"energy": -0.01965,
				"method": "rhf"
			},
			{
				"type": "unocc",
				"energy": -0.00861,
				"method": "rhf"
			}
		],
		"cosmo_sigma_profile": { 
			"-0.025": 0.0,
			"-0.024": 0.0,
			"-0.023": 0.0,
			"-0.022": 0.0,
			"-0.021": 0.0,
			"-0.02": 0.0,
			"-0.019": 0.0,
			"-0.018": 0.0,
			"-0.017": 0.311392698014,
			"-0.016": 1.40763236191,
			"-0.015": 1.85932751922,
			"-0.014": 1.78172526911,
			"-0.013": 1.9194746557,
			"-0.012": 2.56565789852,
			"-0.011": 2.28168033488,
			"-0.01": 2.68203270176,
			"-0.009": 4.20072529499,
			"-0.008": 8.43246739681,
			"-0.007": 12.3169914059,
			"-0.006": 14.1799289694,
			"-0.005": 14.7507274186,
			"-0.004": 15.2523131976,
			"-0.003": 16.3745911694,
			"-0.002": 15.2947171216,
			"-0.001": 15.0952057863,
			"0.0": 17.6319067287,
			"0.001": 21.8949421175,
			"0.002": 24.9368405529,
			"0.003": 15.4351170785,
			"0.004": 15.7386574942,
			"0.005": 9.90278640978,
			"0.006": 7.5863348323,
			"0.007": 8.80627724627,
			"0.008": 9.5554601947,
			"0.009": 7.56879290109,
			"0.01": 5.17399478907,
			"0.011": 6.40368318045,
			"0.012": 4.8248335393,
			"0.013": 1.95982726885,
			"0.014": 0.0883610406537,
			"0.015": 0.0,
			"0.016": 0.0,
			"0.017": 0.0,
			"0.018": 0.0,
			"0.019": 0.0,
			"0.02": 0.0,
			"0.021": 0.0,
			"0.022": 0.0,
			"0.023": 0.0,
			"0.024": 0.0,
			"0.025": 0.0
		}
	}
}
