{
	 "smiles": "NC(CO)C1=CC=CC=C1", 
	 "Tm": 350.15, 
	 "num_atms": 21, 
	 "gaussian": { 
		 "optdone": 1, 
		 "sigma_profile": "yes", 
		 "theory": "DFT", 
		 "functional": "B3LYP", 
		 "basiset": "6-31G**", 
		 "properties": { 
			 "R2extent": 1978.6538, 
			 "electric_dipole_moment_norm": 2.92802998277, 
			 "electric_quadrupole_moment_norm": 9.69850128886, 
			 "total_energy": -441.446300581, 
			 "HOMO_LUMO_gap": 0.23743, 
			 "cosmo_polarized_energy": -9.23, 
			 "cosmo_cavitation_energy": 23.37, 
			 "cosmo_dispersion_energy": -17.4, 
			 "cosmo_repulsion_energy": 1.43, 
			 "cosmo_total_nonelectrostatic_energy": 7.4, 
			 "SMD_solvation_energy": 3.52 
		},
		"coords": [
			{
				"x": -2.5461438667,
				"y": 1.2576888665,
				"z": -1.6524095454,
				"element": "N" 
			},
			{
				"x": -1.4377669602,
				"y": 0.293485598,
				"z": -1.446618681,
				"element": "C" 
			},
			{
				"x": -0.1776204148,
				"y": 0.9548458155,
				"z": -2.052867459,
				"element": "C" 
			},
			{
				"x": -0.0617209525,
				"y": 2.3066608959,
				"z": -1.6575590401,
				"element": "O" 
			},
			{
				"x": -1.3260452598,
				"y": -0.0528388846,
				"z": 0.0298236819,
				"element": "C" 
			},
			{
				"x": -1.8457291501,
				"y": -1.2712379663,
				"z": 0.488555574,
				"element": "C" 
			},
			{
				"x": -1.7913557832,
				"y": -1.6132127214,
				"z": 1.8409220801,
				"element": "C" 
			},
			{
				"x": -1.2122521031,
				"y": -0.7353363914,
				"z": 2.7579327636,
				"element": "C" 
			},
			{
				"x": -0.6887955228,
				"y": 0.4803920433,
				"z": 2.312257185,
				"element": "C" 
			},
			{
				"x": -0.7466522806,
				"y": 0.8233136242,
				"z": 0.9609691882,
				"element": "C" 
			},
			{
				"x": -2.8974784488,
				"y": 1.195461291,
				"z": -2.6057930286,
				"element": "H" 
			},
			{
				"x": -3.320161235,
				"y": 1.0477872349,
				"z": -1.029553119,
				"element": "H" 
			},
			{
				"x": -1.6086244086,
				"y": -0.6499954399,
				"z": -1.9889419757,
				"element": "H" 
			},
			{
				"x": -0.2395237458,
				"y": 0.8724543686,
				"z": -3.1531558653,
				"element": "H" 
			},
			{
				"x": 0.7235498187,
				"y": 0.4210225832,
				"z": -1.734072372,
				"element": "H" 
			},
			{
				"x": -0.9891949215,
				"y": 2.6081084974,
				"z": -1.6105674033,
				"element": "H" 
			},
			{
				"x": -2.2927540369,
				"y": -1.9627388571,
				"z": -0.2225951598,
				"element": "H" 
			},
			{
				"x": -2.1962959418,
				"y": -2.5644410465,
				"z": 2.1750712045,
				"element": "H" 
			},
			{
				"x": -1.1655052766,
				"y": -0.9978905548,
				"z": 3.8110881785,
				"element": "H" 
			},
			{
				"x": -0.2309463028,
				"y": 1.1662122674,
				"z": 3.0198402862,
				"element": "H" 
			},
			{
				"x": -0.3280832068,
				"y": 1.7605587761,
				"z": 0.6111735073,
				"element": "H" 
			}
		],
		 "valence_orbital": [ 
			{
				"type": "occ",
				"energy": -0.31573,
				"method": "rhf"
			},
			{
				"type": "occ",
				"energy": -0.26635,
				"method": "rhf"
			},
			{
				"type": "occ",
				"energy": -0.25154,
				"method": "rhf"
			},
			{
				"type": "occ",
				"energy": -0.24571,
				"method": "rhf"
			},
			{
				"type": "occ",
				"energy": -0.24011,
				"method": "rhf"
			},
			{
				"type": "unocc",
				"energy": -0.00268,
				"method": "rhf"
			},
			{
				"type": "unocc",
				"energy": 0.00098,
				"method": "rhf"
			},
			{
				"type": "unocc",
				"energy": 0.07428,
				"method": "rhf"
			},
			{
				"type": "unocc",
				"energy": 0.09787,
				"method": "rhf"
			},
			{
				"type": "unocc",
				"energy": 0.11637,
				"method": "rhf"
			}
		],
		"cosmo_sigma_profile": { 
			"-0.025": 0.0,
			"-0.024": 0.0,
			"-0.023": 0.0,
			"-0.022": 0.0,
			"-0.021": 0.0,
			"-0.02": 0.0,
			"-0.019": 0.0,
			"-0.018": 0.0,
			"-0.017": 0.0,
			"-0.016": 0.0,
			"-0.015": 0.0,
			"-0.014": 0.0,
			"-0.013": 0.0,
			"-0.012": 0.0,
			"-0.011": 0.723441058518,
			"-0.01": 2.33398516352,
			"-0.009": 2.19029942123,
			"-0.008": 3.75797155114,
			"-0.007": 2.68659005788,
			"-0.006": 4.81355397167,
			"-0.005": 12.380330778,
			"-0.004": 19.593195448,
			"-0.003": 21.9691601306,
			"-0.002": 14.7581723706,
			"-0.001": 12.9519359521,
			"0.0": 9.94891483797,
			"0.001": 8.78524788117,
			"0.002": 10.4757628935,
			"0.003": 9.79169368737,
			"0.004": 10.7466222873,
			"0.005": 9.84072671318,
			"0.006": 10.0834420704,
			"0.007": 3.6472383617,
			"0.008": 1.55536471486,
			"0.009": 1.5685425442,
			"0.01": 2.19269714816,
			"0.011": 0.970318369951,
			"0.012": 0.898776116885,
			"0.013": 1.67557718474,
			"0.014": 1.65756396159,
			"0.015": 1.62595850505,
			"0.016": 0.0294295306761,
			"0.017": 0.0,
			"0.018": 0.0,
			"0.019": 0.0,
			"0.02": 0.0,
			"0.021": 0.0,
			"0.022": 0.0,
			"0.023": 0.0,
			"0.024": 0.0,
			"0.025": 0.0
		}
	}
}
