{
	 "smiles": "COC1=CC=C(NCC(=O)NN)C=C1", 
	 "Tm": 369.15, 
	 "num_atms": 27, 
	 "gaussian": { 
		 "optdone": 1, 
		 "sigma_profile": "yes", 
		 "theory": "DFT", 
		 "functional": "B3LYP", 
		 "basiset": "6-31G**", 
		 "properties": { 
			 "R2extent": 3845.2082, 
			 "electric_dipole_moment_norm": 1.90509719962, 
			 "electric_quadrupole_moment_norm": 19.4864946242, 
			 "total_energy": -665.450165495, 
			 "HOMO_LUMO_gap": 0.18432, 
			 "cosmo_polarized_energy": -17.49, 
			 "cosmo_cavitation_energy": 30.64, 
			 "cosmo_dispersion_energy": -21.75, 
			 "cosmo_repulsion_energy": 1.73, 
			 "cosmo_total_nonelectrostatic_energy": 10.62, 
			 "SMD_solvation_energy": 5.53 
		},
		"coords": [
			{
				"x": -3.7235861803,
				"y": 3.3968003039,
				"z": 1.9157122782,
				"element": "C" 
			},
			{
				"x": -3.7154054194,
				"y": 2.0136768988,
				"z": 1.6090372427,
				"element": "O" 
			},
			{
				"x": -2.5169567034,
				"y": 1.3535868359,
				"z": 1.6557527523,
				"element": "C" 
			},
			{
				"x": -2.5580112344,
				"y": -0.0139939993,
				"z": 1.3509009036,
				"element": "C" 
			},
			{
				"x": -1.3986485014,
				"y": -0.7806654266,
				"z": 1.3744215538,
				"element": "C" 
			},
			{
				"x": -0.1516992069,
				"y": -0.2008193047,
				"z": 1.6819331937,
				"element": "C" 
			},
			{
				"x": 1.0243643202,
				"y": -0.9855557025,
				"z": 1.7489203578,
				"element": "N" 
			},
			{
				"x": 1.3493156661,
				"y": -1.8252970891,
				"z": 0.5940925006,
				"element": "C" 
			},
			{
				"x": 1.8888319481,
				"y": -0.978120899,
				"z": -0.5678905457,
				"element": "C" 
			},
			{
				"x": 2.9076891405,
				"y": -0.3128240753,
				"z": -0.4199795973,
				"element": "O" 
			},
			{
				"x": 1.2088823923,
				"y": -0.9806274504,
				"z": -1.7581910347,
				"element": "N" 
			},
			{
				"x": -0.0880870424,
				"y": -1.4598404968,
				"z": -2.0085089088,
				"element": "N" 
			},
			{
				"x": -0.1248830604,
				"y": 1.1662860333,
				"z": 1.9821095293,
				"element": "C" 
			},
			{
				"x": -1.2899035482,
				"y": 1.9382785072,
				"z": 1.9830599552,
				"element": "C" 
			},
			{
				"x": -3.1034529449,
				"y": 3.9729304032,
				"z": 1.2158941399,
				"element": "H" 
			},
			{
				"x": -4.7612977895,
				"y": 3.721830315,
				"z": 1.8239073938,
				"element": "H" 
			},
			{
				"x": -3.376078063,
				"y": 3.588868384,
				"z": 2.9397076367,
				"element": "H" 
			},
			{
				"x": -3.5180632612,
				"y": -0.4633821505,
				"z": 1.1176733654,
				"element": "H" 
			},
			{
				"x": -1.4687015949,
				"y": -1.8490312643,
				"z": 1.1912586803,
				"element": "H" 
			},
			{
				"x": 1.8323218959,
				"y": -0.4064132584,
				"z": 1.95872936,
				"element": "H" 
			},
			{
				"x": 0.4839082006,
				"y": -2.4277611903,
				"z": 0.3187328378,
				"element": "H" 
			},
			{
				"x": 2.1521247799,
				"y": -2.5120584287,
				"z": 0.8807154737,
				"element": "H" 
			},
			{
				"x": 1.5684952547,
				"y": -0.3409367025,
				"z": -2.4564397718,
				"element": "H" 
			},
			{
				"x": -0.09595485,
				"y": -2.4756146458,
				"z": -2.0166398994,
				"element": "H" 
			},
			{
				"x": -0.7408912001,
				"y": -1.1180868141,
				"z": -1.3066415118,
				"element": "H" 
			},
			{
				"x": 0.8244098018,
				"y": 1.6419896374,
				"z": 2.2157526797,
				"element": "H" 
			},
			{
				"x": -1.2197227999,
				"y": 2.9924815798,
				"z": 2.2241794348,
				"element": "H" 
			}
		],
		 "valence_orbital": [ 
			{
				"type": "occ",
				"energy": -0.27431,
				"method": "rhf"
			},
			{
				"type": "occ",
				"energy": -0.26014,
				"method": "rhf"
			},
			{
				"type": "occ",
				"energy": -0.25355,
				"method": "rhf"
			},
			{
				"type": "occ",
				"energy": -0.24432,
				"method": "rhf"
			},
			{
				"type": "occ",
				"energy": -0.192,
				"method": "rhf"
			},
			{
				"type": "unocc",
				"energy": -0.00768,
				"method": "rhf"
			},
			{
				"type": "unocc",
				"energy": 0.01125,
				"method": "rhf"
			},
			{
				"type": "unocc",
				"energy": 0.02145,
				"method": "rhf"
			},
			{
				"type": "unocc",
				"energy": 0.06705,
				"method": "rhf"
			},
			{
				"type": "unocc",
				"energy": 0.09011,
				"method": "rhf"
			}
		],
		"cosmo_sigma_profile": { 
			"-0.025": 0.0,
			"-0.024": 0.0,
			"-0.023": 0.0,
			"-0.022": 0.0,
			"-0.021": 0.0,
			"-0.02": 0.0,
			"-0.019": 0.0,
			"-0.018": 0.0,
			"-0.017": 0.0,
			"-0.016": 0.0,
			"-0.015": 0.0,
			"-0.014": 0.134865213541,
			"-0.013": 0.967233456224,
			"-0.012": 2.3681274995,
			"-0.011": 2.38678073192,
			"-0.01": 4.41248878809,
			"-0.009": 5.49276805867,
			"-0.008": 5.10263925558,
			"-0.007": 6.42031259152,
			"-0.006": 13.4672256047,
			"-0.005": 21.6613226338,
			"-0.004": 22.0212478179,
			"-0.003": 20.1598266759,
			"-0.002": 13.0467870242,
			"-0.001": 11.7759593239,
			"0.0": 10.3582732543,
			"0.001": 9.89069201503,
			"0.002": 10.673097314,
			"0.003": 10.4148028537,
			"0.004": 12.4474108587,
			"0.005": 12.522124429,
			"0.006": 11.70196055,
			"0.007": 3.47722251292,
			"0.008": 3.20222853496,
			"0.009": 3.9393266999,
			"0.01": 4.59570563697,
			"0.011": 4.02514078364,
			"0.012": 2.74772296965,
			"0.013": 4.8066128971,
			"0.014": 5.84235112902,
			"0.015": 1.15787337195,
			"0.016": 0.28301984175,
			"0.017": 0.0,
			"0.018": 0.0,
			"0.019": 0.0,
			"0.02": 0.0,
			"0.021": 0.0,
			"0.022": 0.0,
			"0.023": 0.0,
			"0.024": 0.0,
			"0.025": 0.0
		}
	}
}
