{
	 "smiles": "CC(=O)NC1=C(C=CC=C1)C1=C(C(=NO1)C1=CC=CC=C1)C1=CC=CC=C1", 
	 "Tm": 463.15, 
	 "num_atms": 45, 
	 "gaussian": { 
		 "optdone": 1, 
		 "sigma_profile": "yes", 
		 "theory": "DFT", 
		 "functional": "B3LYP", 
		 "basiset": "6-31G**", 
		 "properties": { 
			 "R2extent": 10152.1257, 
			 "electric_dipole_moment_norm": 3.66949843984, 
			 "electric_quadrupole_moment_norm": 19.7561807855, 
			 "total_energy": -1147.23248163, 
			 "HOMO_LUMO_gap": 0.1755, 
			 "cosmo_polarized_energy": -15.94, 
			 "cosmo_cavitation_energy": 48.86, 
			 "cosmo_dispersion_energy": -32.29, 
			 "cosmo_repulsion_energy": 2.45, 
			 "cosmo_total_nonelectrostatic_energy": 19.02, 
			 "SMD_solvation_energy": 8.48 
		},
		"coords": [
			{
				"x": -2.3854223196,
				"y": -1.5357581737,
				"z": 3.0904135283,
				"element": "C" 
			},
			{
				"x": -1.5482997125,
				"y": -2.5473497846,
				"z": 2.3207250139,
				"element": "C" 
			},
			{
				"x": -1.1834898938,
				"y": -3.6052063167,
				"z": 2.8112639976,
				"element": "O" 
			},
			{
				"x": -1.2641087623,
				"y": -2.14858521,
				"z": 1.0263798337,
				"element": "N" 
			},
			{
				"x": -0.5414799845,
				"y": -2.8229760127,
				"z": 0.0284150036,
				"element": "C" 
			},
			{
				"x": -0.3505819972,
				"y": -2.1852335445,
				"z": -1.2247029356,
				"element": "C" 
			},
			{
				"x": 0.3046460649,
				"y": -2.8789199404,
				"z": -2.2552337377,
				"element": "C" 
			},
			{
				"x": 0.8005322505,
				"y": -4.1628643824,
				"z": -2.0591566032,
				"element": "C" 
			},
			{
				"x": 0.6342104197,
				"y": -4.7701556064,
				"z": -0.813409839,
				"element": "C" 
			},
			{
				"x": -0.0306668776,
				"y": -4.1175794622,
				"z": 0.2211868746,
				"element": "C" 
			},
			{
				"x": -0.8494279965,
				"y": -0.8316720881,
				"z": -1.5242183201,
				"element": "C" 
			},
			{
				"x": -0.7248115852,
				"y": 0.4122344331,
				"z": -0.9426984869,
				"element": "C" 
			},
			{
				"x": -1.4514651595,
				"y": 1.2771489413,
				"z": -1.8412985939,
				"element": "C" 
			},
			{
				"x": -1.9486776631,
				"y": 0.6026576683,
				"z": -2.858636408,
				"element": "N" 
			},
			{
				"x": -1.5795779132,
				"y": -0.7217839718,
				"z": -2.6613016081,
				"element": "O" 
			},
			{
				"x": -1.6694180174,
				"y": 2.739326976,
				"z": -1.7888095951,
				"element": "C" 
			},
			{
				"x": -0.6580064825,
				"y": 3.6145390127,
				"z": -1.3632505996,
				"element": "C" 
			},
			{
				"x": -0.8748185302,
				"y": 4.9920475216,
				"z": -1.3605225292,
				"element": "C" 
			},
			{
				"x": -2.0997341737,
				"y": 5.5126537971,
				"z": -1.7823457541,
				"element": "C" 
			},
			{
				"x": -3.1083456721,
				"y": 4.6481699322,
				"z": -2.2136529726,
				"element": "C" 
			},
			{
				"x": -2.8963805614,
				"y": 3.27084875,
				"z": -2.2180668014,
				"element": "C" 
			},
			{
				"x": 0.0015186231,
				"y": 0.7653424023,
				"z": 0.2960511061,
				"element": "C" 
			},
			{
				"x": -0.5930566743,
				"y": 1.5866228367,
				"z": 1.2711748322,
				"element": "C" 
			},
			{
				"x": 0.0877638742,
				"y": 1.9007321288,
				"z": 2.4477102712,
				"element": "C" 
			},
			{
				"x": 1.3710950515,
				"y": 1.3977318465,
				"z": 2.6731219931,
				"element": "C" 
			},
			{
				"x": 1.9712251017,
				"y": 0.5825411705,
				"z": 1.7115920967,
				"element": "C" 
			},
			{
				"x": 1.2955736049,
				"y": 0.2714602071,
				"z": 0.532092239,
				"element": "C" 
			},
			{
				"x": -3.3973384345,
				"y": -1.4780902971,
				"z": 2.6735860612,
				"element": "H" 
			},
			{
				"x": -1.9432278461,
				"y": -0.5352049883,
				"z": 3.0461216948,
				"element": "H" 
			},
			{
				"x": -2.4494091649,
				"y": -1.8620197544,
				"z": 4.1279766555,
				"element": "H" 
			},
			{
				"x": -1.6121781423,
				"y": -1.2378002324,
				"z": 0.762301402,
				"element": "H" 
			},
			{
				"x": 0.4238968757,
				"y": -2.3855586034,
				"z": -3.2144186965,
				"element": "H" 
			},
			{
				"x": 1.3114463466,
				"y": -4.6794777909,
				"z": -2.8653439524,
				"element": "H" 
			},
			{
				"x": 1.0192546987,
				"y": -5.7709498191,
				"z": -0.6398616403,
				"element": "H" 
			},
			{
				"x": -0.1752962361,
				"y": -4.5919410259,
				"z": 1.1808048973,
				"element": "H" 
			},
			{
				"x": 0.3008297892,
				"y": 3.2184811958,
				"z": -1.046979746,
				"element": "H" 
			},
			{
				"x": -0.0825691918,
				"y": 5.6591691368,
				"z": -1.0334715312,
				"element": "H" 
			},
			{
				"x": -2.2665769892,
				"y": 6.585950589,
				"z": -1.7771138576,
				"element": "H" 
			},
			{
				"x": -4.0626286161,
				"y": 5.0465388148,
				"z": -2.5458589214,
				"element": "H" 
			},
			{
				"x": -3.6743394496,
				"y": 2.5938720824,
				"z": -2.5549686227,
				"element": "H" 
			},
			{
				"x": -1.5896054742,
				"y": 1.9825320147,
				"z": 1.1011867167,
				"element": "H" 
			},
			{
				"x": -0.3858123489,
				"y": 2.5389137836,
				"z": 3.1882746996,
				"element": "H" 
			},
			{
				"x": 1.8996202094,
				"y": 1.6409133394,
				"z": 3.5900964119,
				"element": "H" 
			},
			{
				"x": 2.9701310039,
				"y": 0.1897474824,
				"z": 1.8771406805,
				"element": "H" 
			},
			{
				"x": 1.7696079561,
				"y": -0.3571490582,
				"z": -0.2149942571,
				"element": "H" 
			}
		],
		 "valence_orbital": [ 
			{
				"type": "occ",
				"energy": -0.25632,
				"method": "rhf"
			},
			{
				"type": "occ",
				"energy": -0.25415,
				"method": "rhf"
			},
			{
				"type": "occ",
				"energy": -0.24425,
				"method": "rhf"
			},
			{
				"type": "occ",
				"energy": -0.23682,
				"method": "rhf"
			},
			{
				"type": "occ",
				"energy": -0.22178,
				"method": "rhf"
			},
			{
				"type": "unocc",
				"energy": -0.04628,
				"method": "rhf"
			},
			{
				"type": "unocc",
				"energy": -0.03287,
				"method": "rhf"
			},
			{
				"type": "unocc",
				"energy": -0.01998,
				"method": "rhf"
			},
			{
				"type": "unocc",
				"energy": -0.01543,
				"method": "rhf"
			},
			{
				"type": "unocc",
				"energy": -0.00942,
				"method": "rhf"
			}
		],
		"cosmo_sigma_profile": { 
			"-0.025": 0.0,
			"-0.024": 0.0,
			"-0.023": 0.0,
			"-0.022": 0.0,
			"-0.021": 0.0,
			"-0.02": 0.0,
			"-0.019": 0.0,
			"-0.018": 0.0,
			"-0.017": 0.0,
			"-0.016": 0.0,
			"-0.015": 0.0,
			"-0.014": 0.0,
			"-0.013": 0.0,
			"-0.012": 0.236043560499,
			"-0.011": 0.630911179211,
			"-0.01": 1.26980498059,
			"-0.009": 1.48101536798,
			"-0.008": 1.76915264317,
			"-0.007": 4.17796502951,
			"-0.006": 22.4073899756,
			"-0.005": 31.1240488339,
			"-0.004": 38.7247890837,
			"-0.003": 29.5543757776,
			"-0.002": 33.5133702445,
			"-0.001": 32.0199508642,
			"0.0": 26.8190989463,
			"0.001": 25.6357464966,
			"0.002": 26.7553571294,
			"0.003": 32.7238683078,
			"0.004": 32.0158727018,
			"0.005": 17.3076839206,
			"0.006": 5.27264576043,
			"0.007": 5.65169143585,
			"0.008": 4.91717875605,
			"0.009": 3.40121950129,
			"0.01": 2.8623069578,
			"0.011": 3.48268991637,
			"0.012": 3.92868226535,
			"0.013": 3.48876865024,
			"0.014": 1.32824987687,
			"0.015": 1.96571300537e-06,
			"0.016": 0.0,
			"0.017": 0.0,
			"0.018": 0.0,
			"0.019": 0.0,
			"0.02": 0.0,
			"0.021": 0.0,
			"0.022": 0.0,
			"0.023": 0.0,
			"0.024": 0.0,
			"0.025": 0.0
		}
	}
}
