{
	 "smiles": "COC(=O)COC1=CC=CC=C1", 
	 "Tm": 518.15, 
	 "num_atms": 22, 
	 "gaussian": { 
		 "optdone": 1, 
		 "sigma_profile": "yes", 
		 "theory": "DFT", 
		 "functional": "B3LYP", 
		 "basiset": "6-31G**", 
		 "properties": { 
			 "R2extent": 2702.7149, 
			 "electric_dipole_moment_norm": 1.09955510094, 
			 "electric_quadrupole_moment_norm": 6.78956997976, 
			 "total_energy": -574.644803555, 
			 "HOMO_LUMO_gap": 0.21441, 
			 "cosmo_polarized_energy": -9.67, 
			 "cosmo_cavitation_energy": 26.32, 
			 "cosmo_dispersion_energy": -18.86, 
			 "cosmo_repulsion_energy": 1.54, 
			 "cosmo_total_nonelectrostatic_energy": 9.0, 
			 "SMD_solvation_energy": 6.38 
		},
		"coords": [
			{
				"x": 0.7796100203,
				"y": -2.6748740563,
				"z": -1.9603083597,
				"element": "C" 
			},
			{
				"x": 0.5536127828,
				"y": -1.410416963,
				"z": -1.3115918344,
				"element": "O" 
			},
			{
				"x": -0.3687470866,
				"y": -0.6279423235,
				"z": -1.888913463,
				"element": "C" 
			},
			{
				"x": -0.9757210857,
				"y": -0.9030038732,
				"z": -2.9015797864,
				"element": "O" 
			},
			{
				"x": -0.543913307,
				"y": 0.7043773224,
				"z": -1.1587887938,
				"element": "C" 
			},
			{
				"x": -0.1798551571,
				"y": 0.7077055002,
				"z": 0.2034342494,
				"element": "O" 
			},
			{
				"x": -0.9954653702,
				"y": 0.0643764285,
				"z": 1.1012426157,
				"element": "C" 
			},
			{
				"x": -0.5925412112,
				"y": 0.147765351,
				"z": 2.440840107,
				"element": "C" 
			},
			{
				"x": -1.3531129932,
				"y": -0.461134004,
				"z": 3.4330672654,
				"element": "C" 
			},
			{
				"x": -2.5213264558,
				"y": -1.1582852005,
				"z": 3.1058631854,
				"element": "C" 
			},
			{
				"x": -2.9145286752,
				"y": -1.238187909,
				"z": 1.7720975757,
				"element": "C" 
			},
			{
				"x": -2.1605378083,
				"y": -0.6319602645,
				"z": 0.7613981686,
				"element": "C" 
			},
			{
				"x": -0.1431033009,
				"y": -3.2592932293,
				"z": -1.989080271,
				"element": "H" 
			},
			{
				"x": 1.1348514811,
				"y": -2.5228320777,
				"z": -2.9824096538,
				"element": "H" 
			},
			{
				"x": 1.5357318429,
				"y": -3.1802095233,
				"z": -1.3606051151,
				"element": "H" 
			},
			{
				"x": 0.1176807963,
				"y": 1.4305223541,
				"z": -1.6426765806,
				"element": "H" 
			},
			{
				"x": -1.5765022281,
				"y": 1.0346272066,
				"z": -1.3188495189,
				"element": "H" 
			},
			{
				"x": 0.3154961785,
				"y": 0.6935888359,
				"z": 2.6751543419,
				"element": "H" 
			},
			{
				"x": -1.0327428456,
				"y": -0.3902551837,
				"z": 4.4687018446,
				"element": "H" 
			},
			{
				"x": -3.1135515964,
				"y": -1.6325223017,
				"z": 3.8822122043,
				"element": "H" 
			},
			{
				"x": -3.817803504,
				"y": -1.7778892214,
				"z": 1.5017953825,
				"element": "H" 
			},
			{
				"x": -2.4891304765,
				"y": -0.7159568676,
				"z": -0.2683035639,
				"element": "H" 
			}
		],
		 "valence_orbital": [ 
			{
				"type": "occ",
				"energy": -0.326,
				"method": "rhf"
			},
			{
				"type": "occ",
				"energy": -0.30922,
				"method": "rhf"
			},
			{
				"type": "occ",
				"energy": -0.27787,
				"method": "rhf"
			},
			{
				"type": "occ",
				"energy": -0.25065,
				"method": "rhf"
			},
			{
				"type": "occ",
				"energy": -0.22144,
				"method": "rhf"
			},
			{
				"type": "unocc",
				"energy": -0.00703,
				"method": "rhf"
			},
			{
				"type": "unocc",
				"energy": 0.00716,
				"method": "rhf"
			},
			{
				"type": "unocc",
				"energy": 0.01225,
				"method": "rhf"
			},
			{
				"type": "unocc",
				"energy": 0.088,
				"method": "rhf"
			},
			{
				"type": "unocc",
				"energy": 0.09709,
				"method": "rhf"
			}
		],
		"cosmo_sigma_profile": { 
			"-0.025": 0.0,
			"-0.024": 0.0,
			"-0.023": 0.0,
			"-0.022": 0.0,
			"-0.021": 0.0,
			"-0.02": 0.0,
			"-0.019": 0.0,
			"-0.018": 0.0,
			"-0.017": 0.0,
			"-0.016": 0.0,
			"-0.015": 0.0,
			"-0.014": 0.0,
			"-0.013": 0.0,
			"-0.012": 0.0,
			"-0.011": 0.0,
			"-0.01": 0.0219091423777,
			"-0.009": 2.05959409611,
			"-0.008": 2.825494843,
			"-0.007": 6.27466030401,
			"-0.006": 15.8519684371,
			"-0.005": 20.6342038881,
			"-0.004": 21.738276431,
			"-0.003": 19.8869586602,
			"-0.002": 10.5957722909,
			"-0.001": 10.9302759389,
			"0.0": 9.48284499662,
			"0.001": 9.07389929586,
			"0.002": 9.33516353972,
			"0.003": 11.3872879465,
			"0.004": 11.274255572,
			"0.005": 14.754966267,
			"0.006": 10.6661480136,
			"0.007": 3.29771017282,
			"0.008": 3.20425828134,
			"0.009": 4.62318022641,
			"0.01": 3.68741561724,
			"0.011": 4.24311119075,
			"0.012": 3.39263157374,
			"0.013": 0.197606407735,
			"0.014": 0.0,
			"0.015": 0.0,
			"0.016": 0.0,
			"0.017": 0.0,
			"0.018": 0.0,
			"0.019": 0.0,
			"0.02": 0.0,
			"0.021": 0.0,
			"0.022": 0.0,
			"0.023": 0.0,
			"0.024": 0.0,
			"0.025": 0.0
		}
	}
}
