{
	 "smiles": "CC1=NC2=CC(=CC=C2O1)C1=CC=CC=C1", 
	 "Tm": 336.15, 
	 "num_atms": 27, 
	 "gaussian": { 
		 "optdone": 1, 
		 "sigma_profile": "yes", 
		 "theory": "DFT", 
		 "functional": "B3LYP", 
		 "basiset": "6-31G**", 
		 "properties": { 
			 "R2extent": 5179.0596, 
			 "electric_dipole_moment_norm": 1.19076236924, 
			 "electric_quadrupole_moment_norm": 13.4514714939, 
			 "total_energy": -670.109495764, 
			 "HOMO_LUMO_gap": 0.19328, 
			 "cosmo_polarized_energy": -8.31, 
			 "cosmo_cavitation_energy": 31.35, 
			 "cosmo_dispersion_energy": -23.25, 
			 "cosmo_repulsion_energy": 1.78, 
			 "cosmo_total_nonelectrostatic_energy": 9.87, 
			 "SMD_solvation_energy": 3.53 
		},
		"coords": [
			{
				"x": 0.558758303,
				"y": 2.5220752067,
				"z": -4.662937611,
				"element": "C" 
			},
			{
				"x": 0.1322851739,
				"y": 1.6477968181,
				"z": -3.5390345531,
				"element": "C" 
			},
			{
				"x": -0.0671651446,
				"y": 1.973540827,
				"z": -2.3024330544,
				"element": "N" 
			},
			{
				"x": -0.4476133986,
				"y": 0.7775932609,
				"z": -1.6843929258,
				"element": "C" 
			},
			{
				"x": -0.7972418749,
				"y": 0.4969860314,
				"z": -0.3642312731,
				"element": "C" 
			},
			{
				"x": -1.1490115604,
				"y": -0.8216160495,
				"z": -0.0342908018,
				"element": "C" 
			},
			{
				"x": -1.1410328754,
				"y": -1.8217124896,
				"z": -1.0369302204,
				"element": "C" 
			},
			{
				"x": -0.796675198,
				"y": -1.5539053704,
				"z": -2.3625437124,
				"element": "C" 
			},
			{
				"x": -0.4559682659,
				"y": -0.240570655,
				"z": -2.6453981012,
				"element": "C" 
			},
			{
				"x": -0.0810572477,
				"y": 0.3181550076,
				"z": -3.8428828771,
				"element": "O" 
			},
			{
				"x": -1.5270984607,
				"y": -1.1707626742,
				"z": 1.3610840758,
				"element": "C" 
			},
			{
				"x": -0.8512631623,
				"y": -0.602954718,
				"z": 2.4546514187,
				"element": "C" 
			},
			{
				"x": -1.2067683937,
				"y": -0.9257599777,
				"z": 3.7635879993,
				"element": "C" 
			},
			{
				"x": -2.2442372645,
				"y": -1.8271942234,
				"z": 4.0090700773,
				"element": "C" 
			},
			{
				"x": -2.9240230719,
				"y": -2.400728431,
				"z": 2.9329865425,
				"element": "C" 
			},
			{
				"x": -2.5704347071,
				"y": -2.0748422963,
				"z": 1.6241898338,
				"element": "C" 
			},
			{
				"x": 0.691547076,
				"y": 3.538549551,
				"z": -4.29251022,
				"element": "H" 
			},
			{
				"x": 1.5004728537,
				"y": 2.1676573433,
				"z": -5.0949784241,
				"element": "H" 
			},
			{
				"x": -0.1909627136,
				"y": 2.5220994144,
				"z": -5.4610593593,
				"element": "H" 
			},
			{
				"x": -0.8201848893,
				"y": 1.287299922,
				"z": 0.3780538352,
				"element": "H" 
			},
			{
				"x": -1.388425557,
				"y": -2.8406285048,
				"z": -0.7571534409,
				"element": "H" 
			},
			{
				"x": -0.786747179,
				"y": -2.3294030256,
				"z": -3.1203607213,
				"element": "H" 
			},
			{
				"x": -0.0248486718,
				"y": 0.0783152902,
				"z": 2.2745358392,
				"element": "H" 
			},
			{
				"x": -0.6653986023,
				"y": -0.479422686,
				"z": 4.593094997,
				"element": "H" 
			},
			{
				"x": -2.5203079109,
				"y": -2.0800424158,
				"z": 5.0286718971,
				"element": "H" 
			},
			{
				"x": -3.7390483318,
				"y": -3.0964813252,
				"z": 3.1121437894,
				"element": "H" 
			},
			{
				"x": -3.1251489254,
				"y": -2.5049438299,
				"z": 0.7953669905,
				"element": "H" 
			}
		],
		 "valence_orbital": [ 
			{
				"type": "occ",
				"energy": -0.28688,
				"method": "rhf"
			},
			{
				"type": "occ",
				"energy": -0.26792,
				"method": "rhf"
			},
			{
				"type": "occ",
				"energy": -0.2489,
				"method": "rhf"
			},
			{
				"type": "occ",
				"energy": -0.23639,
				"method": "rhf"
			},
			{
				"type": "occ",
				"energy": -0.21959,
				"method": "rhf"
			},
			{
				"type": "unocc",
				"energy": -0.02631,
				"method": "rhf"
			},
			{
				"type": "unocc",
				"energy": -0.01931,
				"method": "rhf"
			},
			{
				"type": "unocc",
				"energy": -0.00044,
				"method": "rhf"
			},
			{
				"type": "unocc",
				"energy": 0.02905,
				"method": "rhf"
			},
			{
				"type": "unocc",
				"energy": 0.0463,
				"method": "rhf"
			}
		],
		"cosmo_sigma_profile": { 
			"-0.025": 0.0,
			"-0.024": 0.0,
			"-0.023": 0.0,
			"-0.022": 0.0,
			"-0.021": 0.0,
			"-0.02": 0.0,
			"-0.019": 0.0,
			"-0.018": 0.0,
			"-0.017": 0.0,
			"-0.016": 0.0,
			"-0.015": 0.0,
			"-0.014": 0.0,
			"-0.013": 0.0,
			"-0.012": 0.0,
			"-0.011": 0.0,
			"-0.01": 0.0,
			"-0.009": 0.0,
			"-0.008": 0.437014460501,
			"-0.007": 3.7756959532,
			"-0.006": 14.0744463511,
			"-0.005": 23.1670754391,
			"-0.004": 23.9579023678,
			"-0.003": 22.2505569998,
			"-0.002": 20.9766075344,
			"-0.001": 17.3865241838,
			"0.0": 13.5821157703,
			"0.001": 16.8871393973,
			"0.002": 17.9302095529,
			"0.003": 23.0470576135,
			"0.004": 19.9029875065,
			"0.005": 12.828995583,
			"0.006": 9.7292460966,
			"0.007": 2.34332672838,
			"0.008": 1.81235426559,
			"0.009": 1.6219811558,
			"0.01": 1.00737212848,
			"0.011": 0.742027866083,
			"0.012": 0.866800028143,
			"0.013": 1.17124535553,
			"0.014": 1.07051114025,
			"0.015": 0.824120060134,
			"0.016": 0.478949789567,
			"0.017": 0.00697732524034,
			"0.018": 0.0,
			"0.019": 0.0,
			"0.02": 0.0,
			"0.021": 0.0,
			"0.022": 0.0,
			"0.023": 0.0,
			"0.024": 0.0,
			"0.025": 0.0
		}
	}
}
