{
	 "smiles": "NC1=CC(=NN1)C1=CC(Cl)=CC=C1", 
	 "Tm": 404.15, 
	 "num_atms": 21, 
	 "gaussian": { 
		 "optdone": 1, 
		 "sigma_profile": "yes", 
		 "theory": "DFT", 
		 "functional": "B3LYP", 
		 "basiset": "6-31G**", 
		 "properties": { 
			 "R2extent": 4026.6853, 
			 "electric_dipole_moment_norm": 5.62599610025, 
			 "electric_quadrupole_moment_norm": 17.998898776, 
			 "total_energy": -972.210779558, 
			 "HOMO_LUMO_gap": 0.18784, 
			 "cosmo_polarized_energy": -15.96, 
			 "cosmo_cavitation_energy": 27.43, 
			 "cosmo_dispersion_energy": -20.67, 
			 "cosmo_repulsion_energy": 1.64, 
			 "cosmo_total_nonelectrostatic_energy": 8.4, 
			 "SMD_solvation_energy": 3.48 
		},
		"coords": [
			{
				"x": 3.1058380475,
				"y": 0.519491308,
				"z": -3.0525672996,
				"element": "N" 
			},
			{
				"x": 1.9029662697,
				"y": 0.2891603342,
				"z": -2.3800707542,
				"element": "C" 
			},
			{
				"x": 1.5463643297,
				"y": -0.5839435183,
				"z": -1.3682845836,
				"element": "C" 
			},
			{
				"x": 0.1910587173,
				"y": -0.2658188494,
				"z": -1.0698437017,
				"element": "C" 
			},
			{
				"x": -0.2584288158,
				"y": 0.7253455041,
				"z": -1.8437364476,
				"element": "N" 
			},
			{
				"x": 0.7994901324,
				"y": 1.0475744313,
				"z": -2.6284712341,
				"element": "N" 
			},
			{
				"x": -0.6962932228,
				"y": -0.8935230175,
				"z": -0.0762306238,
				"element": "C" 
			},
			{
				"x": -2.0527142376,
				"y": -0.529830499,
				"z": -0.0235785153,
				"element": "C" 
			},
			{
				"x": -2.8864225986,
				"y": -1.1222807031,
				"z": 0.9166683367,
				"element": "C" 
			},
			{
				"x": -4.5855265623,
				"y": -0.6566258116,
				"z": 0.9703971448,
				"element": "Cl" 
			},
			{
				"x": -2.4175576011,
				"y": -2.078510187,
				"z": 1.8187590684,
				"element": "C" 
			},
			{
				"x": -1.0704960019,
				"y": -2.4359580275,
				"z": 1.763052524,
				"element": "C" 
			},
			{
				"x": -0.2163313356,
				"y": -1.8521151227,
				"z": 0.828750972,
				"element": "C" 
			},
			{
				"x": 3.8296902068,
				"y": -0.1253727132,
				"z": -2.7621014227,
				"element": "H" 
			},
			{
				"x": 3.0173075165,
				"y": 0.4961629966,
				"z": -4.0632513112,
				"element": "H" 
			},
			{
				"x": 2.1675949746,
				"y": -1.353918758,
				"z": -0.9370433505,
				"element": "H" 
			},
			{
				"x": 0.7316977018,
				"y": 1.8404424582,
				"z": -3.2471584843,
				"element": "H" 
			},
			{
				"x": -2.4343065632,
				"y": 0.2091895385,
				"z": -0.7174302052,
				"element": "H" 
			},
			{
				"x": -3.0901546188,
				"y": -2.5264587844,
				"z": 2.5413915647,
				"element": "H" 
			},
			{
				"x": -0.6853410566,
				"y": -3.1761871056,
				"z": 2.4583369134,
				"element": "H" 
			},
			{
				"x": 0.8300647181,
				"y": -2.1389234737,
				"z": 0.8094114097,
				"element": "H" 
			}
		],
		 "valence_orbital": [ 
			{
				"type": "occ",
				"energy": -0.2868,
				"method": "rhf"
			},
			{
				"type": "occ",
				"energy": -0.28132,
				"method": "rhf"
			},
			{
				"type": "occ",
				"energy": -0.24124,
				"method": "rhf"
			},
			{
				"type": "occ",
				"energy": -0.22685,
				"method": "rhf"
			},
			{
				"type": "occ",
				"energy": -0.21115,
				"method": "rhf"
			},
			{
				"type": "unocc",
				"energy": -0.02331,
				"method": "rhf"
			},
			{
				"type": "unocc",
				"energy": -0.00232,
				"method": "rhf"
			},
			{
				"type": "unocc",
				"energy": 0.03849,
				"method": "rhf"
			},
			{
				"type": "unocc",
				"energy": 0.04091,
				"method": "rhf"
			},
			{
				"type": "unocc",
				"energy": 0.06102,
				"method": "rhf"
			}
		],
		"cosmo_sigma_profile": { 
			"-0.025": 0.0,
			"-0.024": 0.0,
			"-0.023": 0.0,
			"-0.022": 0.0,
			"-0.021": 0.0,
			"-0.02": 0.0,
			"-0.019": 0.0,
			"-0.018": 0.0,
			"-0.017": 0.0454321831617,
			"-0.016": 1.29876974941,
			"-0.015": 1.26787879616,
			"-0.014": 1.65476169121,
			"-0.013": 4.04783833517,
			"-0.012": 4.14802365289,
			"-0.011": 3.15747656609,
			"-0.01": 4.22784032977,
			"-0.009": 3.4391291323,
			"-0.008": 2.65457584708,
			"-0.007": 7.30230981033,
			"-0.006": 9.81816132962,
			"-0.005": 9.7279776239,
			"-0.004": 8.97807977735,
			"-0.003": 8.48546511743,
			"-0.002": 8.51599975653,
			"-0.001": 8.72651213031,
			"0.0": 10.2228923849,
			"0.001": 12.5464930543,
			"0.002": 18.0077462185,
			"0.003": 23.7309418955,
			"0.004": 27.2291780394,
			"0.005": 18.4033454083,
			"0.006": 6.90469567126,
			"0.007": 3.22780178724,
			"0.008": 2.45794515975,
			"0.009": 2.1523746471,
			"0.01": 1.83949686501,
			"0.011": 2.11685679442,
			"0.012": 1.7727141873,
			"0.013": 1.80759609698,
			"0.014": 1.38082258458,
			"0.015": 0.446812241841,
			"0.016": 0.0,
			"0.017": 0.0,
			"0.018": 0.0,
			"0.019": 0.0,
			"0.02": 0.0,
			"0.021": 0.0,
			"0.022": 0.0,
			"0.023": 0.0,
			"0.024": 0.0,
			"0.025": 0.0
		}
	}
}
