{
	 "smiles": "CC1=CN=C(C)C=N1", 
	 "Tm": 288.15, 
	 "num_atms": 16, 
	 "gaussian": { 
		 "optdone": 1, 
		 "sigma_profile": "yes", 
		 "theory": "DFT", 
		 "functional": "B3LYP", 
		 "basiset": "6-31G**", 
		 "properties": { 
			 "R2extent": 1356.6253, 
			 "electric_dipole_moment_norm": 0.0, 
			 "electric_quadrupole_moment_norm": 8.36240550679, 
			 "total_energy": -342.963485537, 
			 "HOMO_LUMO_gap": 0.20136, 
			 "cosmo_polarized_energy": -6.11, 
			 "cosmo_cavitation_energy": 19.63, 
			 "cosmo_dispersion_energy": -14.7, 
			 "cosmo_repulsion_energy": 1.23, 
			 "cosmo_total_nonelectrostatic_energy": 6.16, 
			 "SMD_solvation_energy": 0.97 
		},
		"coords": [
			{
				"x": -0.7743667274,
				"y": -3.9036956828,
				"z": -0.1316652184,
				"element": "C" 
			},
			{
				"x": -0.7962771407,
				"y": -2.3991734422,
				"z": -0.0369600676,
				"element": "C" 
			},
			{
				"x": 0.329685277,
				"y": -1.6213953423,
				"z": -0.338810626,
				"element": "C" 
			},
			{
				"x": 0.334223157,
				"y": -0.2884293903,
				"z": -0.2623169197,
				"element": "N" 
			},
			{
				"x": -0.8066254421,
				"y": 0.3041010916,
				"z": 0.1242268155,
				"element": "C" 
			},
			{
				"x": -0.8285337014,
				"y": 1.8086193731,
				"z": 0.2189558185,
				"element": "C" 
			},
			{
				"x": -1.9325806073,
				"y": -0.4736803343,
				"z": 0.4261022671,
				"element": "C" 
			},
			{
				"x": -1.9371251761,
				"y": -1.8066429875,
				"z": 0.3495925233,
				"element": "N" 
			},
			{
				"x": -0.5380405435,
				"y": -4.2368115022,
				"z": -1.1485637036,
				"element": "H" 
			},
			{
				"x": -0.0186465723,
				"y": -4.3351745063,
				"z": 0.5343707881,
				"element": "H" 
			},
			{
				"x": -1.7522941434,
				"y": -4.2997090368,
				"z": 0.1469922519,
				"element": "H" 
			},
			{
				"x": 1.2596781407,
				"y": -2.0941375409,
				"z": -0.6533371981,
				"element": "H" 
			},
			{
				"x": -1.5843187698,
				"y": 2.2401011369,
				"z": -0.4470002775,
				"element": "H" 
			},
			{
				"x": -1.0647644493,
				"y": 2.1417209384,
				"z": 1.2358786471,
				"element": "H" 
			},
			{
				"x": 0.1493625082,
				"y": 2.2046434856,
				"z": -0.059784477,
				"element": "H" 
			},
			{
				"x": -2.8625758096,
				"y": -0.00093626,
				"z": 0.7406193767,
				"element": "H" 
			}
		],
		 "valence_orbital": [ 
			{
				"type": "occ",
				"energy": -0.37217,
				"method": "rhf"
			},
			{
				"type": "occ",
				"energy": -0.31777,
				"method": "rhf"
			},
			{
				"type": "occ",
				"energy": -0.29765,
				"method": "rhf"
			},
			{
				"type": "occ",
				"energy": -0.2527,
				"method": "rhf"
			},
			{
				"type": "occ",
				"energy": -0.24057,
				"method": "rhf"
			},
			{
				"type": "unocc",
				"energy": -0.03921,
				"method": "rhf"
			},
			{
				"type": "unocc",
				"energy": -0.01718,
				"method": "rhf"
			},
			{
				"type": "unocc",
				"energy": 0.11539,
				"method": "rhf"
			},
			{
				"type": "unocc",
				"energy": 0.11588,
				"method": "rhf"
			},
			{
				"type": "unocc",
				"energy": 0.11676,
				"method": "rhf"
			}
		],
		"cosmo_sigma_profile": { 
			"-0.025": 0.0,
			"-0.024": 0.0,
			"-0.023": 0.0,
			"-0.022": 0.0,
			"-0.021": 0.0,
			"-0.02": 0.0,
			"-0.019": 0.0,
			"-0.018": 0.0,
			"-0.017": 0.0,
			"-0.016": 0.0,
			"-0.015": 0.0,
			"-0.014": 0.0,
			"-0.013": 0.0,
			"-0.012": 0.0,
			"-0.011": 0.0,
			"-0.01": 0.0,
			"-0.009": 0.0,
			"-0.008": 0.0,
			"-0.007": 2.05652224275,
			"-0.006": 4.27903507846,
			"-0.005": 12.0219696683,
			"-0.004": 17.6789311395,
			"-0.003": 15.4907377086,
			"-0.002": 14.572769123,
			"-0.001": 20.2188884533,
			"0.0": 21.6323889197,
			"0.001": 10.1575458591,
			"0.002": 5.75077958635,
			"0.003": 4.26202083162,
			"0.004": 4.96205043741,
			"0.005": 3.14641994208,
			"0.006": 2.12493045209,
			"0.007": 3.46337438777,
			"0.008": 2.98515509798,
			"0.009": 1.21359695147,
			"0.01": 1.35064953814,
			"0.011": 1.9266888224,
			"0.012": 1.99640500579,
			"0.013": 1.97061094438,
			"0.014": 1.15947926739,
			"0.015": 1.2415952885,
			"0.016": 0.323030553811,
			"0.017": 0.0,
			"0.018": 0.0,
			"0.019": 0.0,
			"0.02": 0.0,
			"0.021": 0.0,
			"0.022": 0.0,
			"0.023": 0.0,
			"0.024": 0.0,
			"0.025": 0.0
		}
	}
}
