{
	 "smiles": "ClC(Cl)(Cl)[C@H]1OC(=O)[C@@H]2CCCN12", 
	 "Tm": 383.15, 
	 "num_atms": 21, 
	 "gaussian": { 
		 "optdone": 1, 
		 "sigma_profile": "yes", 
		 "theory": "DFT", 
		 "functional": "B3LYP", 
		 "basiset": "6-31G**", 
		 "properties": { 
			 "R2extent": 3868.0846, 
			 "electric_dipole_moment_norm": 4.38444320068, 
			 "electric_quadrupole_moment_norm": 10.0040023925, 
			 "total_energy": -1857.32507566, 
			 "HOMO_LUMO_gap": 0.20967, 
			 "cosmo_polarized_energy": -10.62, 
			 "cosmo_cavitation_energy": 28.49, 
			 "cosmo_dispersion_energy": -20.82, 
			 "cosmo_repulsion_energy": 1.65, 
			 "cosmo_total_nonelectrostatic_energy": 9.32, 
			 "SMD_solvation_energy": 2.68 
		},
		"coords": [
			{
				"x": -0.1836647693,
				"y": -3.7572291485,
				"z": 1.1463284944,
				"element": "Cl" 
			},
			{
				"x": 0.9660835135,
				"y": -2.544137954,
				"z": 0.4798909943,
				"element": "C" 
			},
			{
				"x": 2.6275121908,
				"y": -2.934595765,
				"z": 1.0402017303,
				"element": "Cl" 
			},
			{
				"x": 0.908364407,
				"y": -2.5695737961,
				"z": -1.3114156213,
				"element": "Cl" 
			},
			{
				"x": 0.5510286474,
				"y": -1.1379535584,
				"z": 1.0348089427,
				"element": "C" 
			},
			{
				"x": 1.4912742334,
				"y": -0.1714524905,
				"z": 0.5721144506,
				"element": "O" 
			},
			{
				"x": 0.8678012585,
				"y": 0.7497986625,
				"z": -0.2324781545,
				"element": "C" 
			},
			{
				"x": 1.4468395265,
				"y": 1.6759696519,
				"z": -0.7273232658,
				"element": "O" 
			},
			{
				"x": -0.609521715,
				"y": 0.3832979188,
				"z": -0.3318770076,
				"element": "C" 
			},
			{
				"x": -1.5536390363,
				"y": 1.5083503968,
				"z": 0.1499201464,
				"element": "C" 
			},
			{
				"x": -1.7497593791,
				"y": 1.1946817309,
				"z": 1.6424853972,
				"element": "C" 
			},
			{
				"x": -1.7307504265,
				"y": -0.3426936141,
				"z": 1.6630085698,
				"element": "C" 
			},
			{
				"x": -0.7659772293,
				"y": -0.7382964057,
				"z": 0.6122773357,
				"element": "N" 
			},
			{
				"x": 0.6352291554,
				"y": -1.2161912155,
				"z": 2.1241828887,
				"element": "H" 
			},
			{
				"x": -0.8175135182,
				"y": 0.09361109,
				"z": -1.3676952074,
				"element": "H" 
			},
			{
				"x": -1.1224202527,
				"y": 2.4927142127,
				"z": -0.0469610226,
				"element": "H" 
			},
			{
				"x": -2.5056605976,
				"y": 1.4424330727,
				"z": -0.3860137714,
				"element": "H" 
			},
			{
				"x": -2.6735732064,
				"y": 1.6145306044,
				"z": 2.0494218859,
				"element": "H" 
			},
			{
				"x": -0.9137272431,
				"y": 1.5926368442,
				"z": 2.2301147104,
				"element": "H" 
			},
			{
				"x": -1.4425480282,
				"y": -0.7712257128,
				"z": 2.6269306698,
				"element": "H" 
			},
			{
				"x": -2.7173775309,
				"y": -0.7476745243,
				"z": 1.4088778345,
				"element": "H" 
			}
		],
		 "valence_orbital": [ 
			{
				"type": "occ",
				"energy": -0.32501,
				"method": "rhf"
			},
			{
				"type": "occ",
				"energy": -0.31435,
				"method": "rhf"
			},
			{
				"type": "occ",
				"energy": -0.30978,
				"method": "rhf"
			},
			{
				"type": "occ",
				"energy": -0.29366,
				"method": "rhf"
			},
			{
				"type": "occ",
				"energy": -0.25214,
				"method": "rhf"
			},
			{
				"type": "unocc",
				"energy": -0.04247,
				"method": "rhf"
			},
			{
				"type": "unocc",
				"energy": -0.01216,
				"method": "rhf"
			},
			{
				"type": "unocc",
				"energy": 6e-05,
				"method": "rhf"
			},
			{
				"type": "unocc",
				"energy": 0.00081,
				"method": "rhf"
			},
			{
				"type": "unocc",
				"energy": 0.06938,
				"method": "rhf"
			}
		],
		"cosmo_sigma_profile": { 
			"-0.025": 0.0,
			"-0.024": 0.0,
			"-0.023": 0.0,
			"-0.022": 0.0,
			"-0.021": 0.0,
			"-0.02": 0.0,
			"-0.019": 0.0,
			"-0.018": 0.0,
			"-0.017": 0.0,
			"-0.016": 0.0,
			"-0.015": 0.0,
			"-0.014": 0.0,
			"-0.013": 0.0,
			"-0.012": 0.0,
			"-0.011": 0.036666410991,
			"-0.01": 1.77221180902,
			"-0.009": 2.32764916828,
			"-0.008": 3.75323568772,
			"-0.007": 5.58131360348,
			"-0.006": 6.1587581873,
			"-0.005": 12.7351067154,
			"-0.004": 21.4261344535,
			"-0.003": 22.3064596475,
			"-0.002": 20.1491593208,
			"-0.001": 19.7961375399,
			"0.0": 14.0720231145,
			"0.001": 14.1959861267,
			"0.002": 21.0683192458,
			"0.003": 27.5235959463,
			"0.004": 7.06838324819,
			"0.005": 4.59523712063,
			"0.006": 3.74919979348,
			"0.007": 4.78609215546,
			"0.008": 5.07224777791,
			"0.009": 2.75144675757,
			"0.01": 4.75772131072,
			"0.011": 4.89233461904,
			"0.012": 0.762134418849,
			"0.013": 0.0,
			"0.014": 0.0,
			"0.015": 0.0,
			"0.016": 0.0,
			"0.017": 0.0,
			"0.018": 0.0,
			"0.019": 0.0,
			"0.02": 0.0,
			"0.021": 0.0,
			"0.022": 0.0,
			"0.023": 0.0,
			"0.024": 0.0,
			"0.025": 0.0
		}
	}
}
