{
	 "smiles": "CC(C)(O)CC(C)(O)C1=CC=C(Cl)C=C1", 
	 "Tm": 349.65, 
	 "num_atms": 32, 
	 "gaussian": { 
		 "optdone": 1, 
		 "sigma_profile": "yes", 
		 "theory": "DFT", 
		 "functional": "B3LYP", 
		 "basiset": "6-31G**", 
		 "properties": { 
			 "R2extent": 5000.9704, 
			 "electric_dipole_moment_norm": 2.95919462185, 
			 "electric_quadrupole_moment_norm": 9.83273417468, 
			 "total_energy": -1078.16150642, 
			 "HOMO_LUMO_gap": 0.2234, 
			 "cosmo_polarized_energy": -12.8, 
			 "cosmo_cavitation_energy": 34.49, 
			 "cosmo_dispersion_energy": -23.97, 
			 "cosmo_repulsion_energy": 1.87, 
			 "cosmo_total_nonelectrostatic_energy": 12.39, 
			 "SMD_solvation_energy": 5.67 
		},
		"coords": [
			{
				"x": 2.6242345778,
				"y": 0.6267963346,
				"z": -1.5062744391,
				"element": "C" 
			},
			{
				"x": 1.2690925986,
				"y": 0.1034858552,
				"z": -0.9913724388,
				"element": "C" 
			},
			{
				"x": 1.3936783369,
				"y": -1.3896587913,
				"z": -0.6487774077,
				"element": "C" 
			},
			{
				"x": 0.9036860122,
				"y": 0.838449099,
				"z": 0.184708767,
				"element": "O" 
			},
			{
				"x": 0.2004031505,
				"y": 0.4451455188,
				"z": -2.0519302895,
				"element": "C" 
			},
			{
				"x": -1.2771223345,
				"y": -0.0273282109,
				"z": -1.9419921833,
				"element": "C" 
			},
			{
				"x": -1.4597830681,
				"y": -1.4966928339,
				"z": -2.3586583134,
				"element": "C" 
			},
			{
				"x": -1.9079066949,
				"y": 0.7826142857,
				"z": -2.9598033263,
				"element": "O" 
			},
			{
				"x": -1.9224083962,
				"y": 0.2990328421,
				"z": -0.5888516632,
				"element": "C" 
			},
			{
				"x": -2.2723849159,
				"y": 1.6282975476,
				"z": -0.3088487674,
				"element": "C" 
			},
			{
				"x": -2.8696094744,
				"y": 1.9844524729,
				"z": 0.8973547751,
				"element": "C" 
			},
			{
				"x": -3.130533858,
				"y": 0.9941932914,
				"z": 1.8439816004,
				"element": "C" 
			},
			{
				"x": -3.8896716317,
				"y": 1.4305674233,
				"z": 3.3717687092,
				"element": "Cl" 
			},
			{
				"x": -2.8071007874,
				"y": -0.3359163035,
				"z": 1.5929678245,
				"element": "C" 
			},
			{
				"x": -2.2075470954,
				"y": -0.6724717287,
				"z": 0.3775559072,
				"element": "C" 
			},
			{
				"x": 3.397754273,
				"y": 0.4913187347,
				"z": -0.7408658335,
				"element": "H" 
			},
			{
				"x": 2.5586682381,
				"y": 1.6940557412,
				"z": -1.7365571541,
				"element": "H" 
			},
			{
				"x": 2.9503534629,
				"y": 0.0948220147,
				"z": -2.4063307015,
				"element": "H" 
			},
			{
				"x": 0.4997012543,
				"y": -1.7493028872,
				"z": -0.135677223,
				"element": "H" 
			},
			{
				"x": 2.2462166996,
				"y": -1.5466312443,
				"z": 0.0237001857,
				"element": "H" 
			},
			{
				"x": 1.5642702826,
				"y": -2.0017173232,
				"z": -1.5402592345,
				"element": "H" 
			},
			{
				"x": 1.5557218562,
				"y": 0.6403998673,
				"z": 0.8702639651,
				"element": "H" 
			},
			{
				"x": 0.5614547607,
				"y": 0.1053438082,
				"z": -3.0294943801,
				"element": "H" 
			},
			{
				"x": 0.1606981392,
				"y": 1.5377854984,
				"z": -2.1006369778,
				"element": "H" 
			},
			{
				"x": -0.9368018069,
				"y": -2.2042801555,
				"z": -1.7135302059,
				"element": "H" 
			},
			{
				"x": -2.5224978923,
				"y": -1.7645366394,
				"z": -2.3542790436,
				"element": "H" 
			},
			{
				"x": -1.0824881223,
				"y": -1.6207637279,
				"z": -3.3771389477,
				"element": "H" 
			},
			{
				"x": -2.8553746362,
				"y": 0.588471372,
				"z": -2.9325823035,
				"element": "H" 
			},
			{
				"x": -2.0805015605,
				"y": 2.3909961676,
				"z": -1.0556865029,
				"element": "H" 
			},
			{
				"x": -3.1326052806,
				"y": 3.0164428017,
				"z": 1.1027286791,
				"element": "H" 
			},
			{
				"x": -3.0249743398,
				"y": -1.0988539463,
				"z": 2.3323674581,
				"element": "H" 
			},
			{
				"x": -1.9705217477,
				"y": -1.7153168842,
				"z": 0.1956494655,
				"element": "H" 
			}
		],
		 "valence_orbital": [ 
			{
				"type": "occ",
				"energy": -0.30547,
				"method": "rhf"
			},
			{
				"type": "occ",
				"energy": -0.27505,
				"method": "rhf"
			},
			{
				"type": "occ",
				"energy": -0.26467,
				"method": "rhf"
			},
			{
				"type": "occ",
				"energy": -0.25348,
				"method": "rhf"
			},
			{
				"type": "occ",
				"energy": -0.23112,
				"method": "rhf"
			},
			{
				"type": "unocc",
				"energy": -0.00772,
				"method": "rhf"
			},
			{
				"type": "unocc",
				"energy": -0.00644,
				"method": "rhf"
			},
			{
				"type": "unocc",
				"energy": 0.03619,
				"method": "rhf"
			},
			{
				"type": "unocc",
				"energy": 0.06297,
				"method": "rhf"
			},
			{
				"type": "unocc",
				"energy": 0.0884,
				"method": "rhf"
			}
		],
		"cosmo_sigma_profile": { 
			"-0.025": 0.0,
			"-0.024": 0.0,
			"-0.023": 0.0,
			"-0.022": 0.0,
			"-0.021": 0.0,
			"-0.02": 0.0,
			"-0.019": 0.0,
			"-0.018": 0.0,
			"-0.017": 0.0,
			"-0.016": 0.0,
			"-0.015": 0.560272124545,
			"-0.014": 1.62229998293,
			"-0.013": 1.41507003839,
			"-0.012": 1.61060709155,
			"-0.011": 2.01620522435,
			"-0.01": 1.80335973608,
			"-0.009": 2.09955009152,
			"-0.008": 1.92650293521,
			"-0.007": 4.94481958259,
			"-0.006": 8.95725176178,
			"-0.005": 10.1075283426,
			"-0.004": 14.5049601968,
			"-0.003": 25.5500828996,
			"-0.002": 26.4952689526,
			"-0.001": 26.1630211873,
			"0.0": 26.7627188948,
			"0.001": 25.0230087672,
			"0.002": 17.5922822665,
			"0.003": 14.1423628144,
			"0.004": 17.2852783051,
			"0.005": 14.0339042115,
			"0.006": 3.68883238664,
			"0.007": 3.09297557118,
			"0.008": 3.48781928638,
			"0.009": 2.73982606204,
			"0.01": 2.9044470101,
			"0.011": 3.26260899412,
			"0.012": 2.95983263121,
			"0.013": 2.55255669996,
			"0.014": 1.59131681404,
			"0.015": 0.224755896014,
			"0.016": 0.0,
			"0.017": 0.0,
			"0.018": 0.0,
			"0.019": 0.0,
			"0.02": 0.0,
			"0.021": 0.0,
			"0.022": 0.0,
			"0.023": 0.0,
			"0.024": 0.0,
			"0.025": 0.0
		}
	}
}
