{
	 "smiles": "CC(C)NC(=O)C=C", 
	 "Tm": 337.15, 
	 "num_atms": 19, 
	 "gaussian": { 
		 "optdone": 1, 
		 "sigma_profile": "yes", 
		 "theory": "DFT", 
		 "functional": "B3LYP", 
		 "basiset": "6-31G**", 
		 "properties": { 
			 "R2extent": 1283.6196, 
			 "electric_dipole_moment_norm": 3.53531429296, 
			 "electric_quadrupole_moment_norm": 6.37015639604, 
			 "total_energy": -365.241331035, 
			 "HOMO_LUMO_gap": 0.21012, 
			 "cosmo_polarized_energy": -10.63, 
			 "cosmo_cavitation_energy": 21.98, 
			 "cosmo_dispersion_energy": -15.67, 
			 "cosmo_repulsion_energy": 1.32, 
			 "cosmo_total_nonelectrostatic_energy": 7.63, 
			 "SMD_solvation_energy": 4.96 
		},
		"coords": [
			{
				"x": -1.2944310994,
				"y": 0.8373523823,
				"z": 1.0993962068,
				"element": "C" 
			},
			{
				"x": -0.0308024534,
				"y": 0.0781629075,
				"z": 1.5255082264,
				"element": "C" 
			},
			{
				"x": -0.3436443252,
				"y": -1.0844788391,
				"z": 2.4797108659,
				"element": "C" 
			},
			{
				"x": 0.7476726353,
				"y": -0.366724876,
				"z": 0.3556347018,
				"element": "N" 
			},
			{
				"x": 0.2943630672,
				"y": -1.2549720342,
				"z": -0.5793315262,
				"element": "C" 
			},
			{
				"x": -0.8269905547,
				"y": -1.7603093367,
				"z": -0.5560663698,
				"element": "O" 
			},
			{
				"x": 1.2464794949,
				"y": -1.5881877443,
				"z": -1.6887101771,
				"element": "C" 
			},
			{
				"x": 2.1914820117,
				"y": -0.78247639,
				"z": -2.1794818592,
				"element": "C" 
			},
			{
				"x": -1.8119892422,
				"y": 1.2278320625,
				"z": 1.981730559,
				"element": "H" 
			},
			{
				"x": -1.9717172521,
				"y": 0.1735892884,
				"z": 0.5589209446,
				"element": "H" 
			},
			{
				"x": -1.0389824506,
				"y": 1.6800895905,
				"z": 0.4496992172,
				"element": "H" 
			},
			{
				"x": 0.6297990421,
				"y": 0.7826542033,
				"z": 2.0455989774,
				"element": "H" 
			},
			{
				"x": -0.8617209722,
				"y": -0.7136614768,
				"z": 3.3704053455,
				"element": "H" 
			},
			{
				"x": 0.5763697208,
				"y": -1.5823416231,
				"z": 2.8027993939,
				"element": "H" 
			},
			{
				"x": -0.98098151,
				"y": -1.8185982355,
				"z": 1.9826413737,
				"element": "H" 
			},
			{
				"x": 1.7348249384,
				"y": -0.1612639891,
				"z": 0.3501218933,
				"element": "H" 
			},
			{
				"x": 1.0470555953,
				"y": -2.5548368877,
				"z": -2.1436586404,
				"element": "H" 
			},
			{
				"x": 2.366855304,
				"y": 0.2147693589,
				"z": -1.7837962393,
				"element": "H" 
			},
			{
				"x": 2.8088580502,
				"y": -1.0811983611,
				"z": -3.0213228933,
				"element": "H" 
			}
		],
		 "valence_orbital": [ 
			{
				"type": "occ",
				"energy": -0.34397,
				"method": "rhf"
			},
			{
				"type": "occ",
				"energy": -0.33868,
				"method": "rhf"
			},
			{
				"type": "occ",
				"energy": -0.28023,
				"method": "rhf"
			},
			{
				"type": "occ",
				"energy": -0.25049,
				"method": "rhf"
			},
			{
				"type": "occ",
				"energy": -0.24123,
				"method": "rhf"
			},
			{
				"type": "unocc",
				"energy": -0.03111,
				"method": "rhf"
			},
			{
				"type": "unocc",
				"energy": 0.07147,
				"method": "rhf"
			},
			{
				"type": "unocc",
				"energy": 0.079,
				"method": "rhf"
			},
			{
				"type": "unocc",
				"energy": 0.11211,
				"method": "rhf"
			},
			{
				"type": "unocc",
				"energy": 0.12636,
				"method": "rhf"
			}
		],
		"cosmo_sigma_profile": { 
			"-0.025": 0.0,
			"-0.024": 0.0,
			"-0.023": 0.0,
			"-0.022": 0.0,
			"-0.021": 0.0,
			"-0.02": 0.0,
			"-0.019": 0.0,
			"-0.018": 0.0,
			"-0.017": 0.0,
			"-0.016": 0.0,
			"-0.015": 0.0,
			"-0.014": 0.278790791604,
			"-0.013": 1.32352597912,
			"-0.012": 0.633620527661,
			"-0.011": 1.61036088693,
			"-0.01": 1.33954884808,
			"-0.009": 1.39990378907,
			"-0.008": 1.66290173299,
			"-0.007": 2.95672644932,
			"-0.006": 5.86493359284,
			"-0.005": 7.66805785694,
			"-0.004": 9.89752165749,
			"-0.003": 16.4842212512,
			"-0.002": 16.3052052931,
			"-0.001": 18.2732023716,
			"0.0": 17.4541921986,
			"0.001": 21.0098235386,
			"0.002": 12.5660963455,
			"0.003": 6.75164762877,
			"0.004": 5.78432019009,
			"0.005": 2.96053172122,
			"0.006": 2.29369850686,
			"0.007": 1.93668252771,
			"0.008": 1.87671628129,
			"0.009": 1.1450729896,
			"0.01": 1.64516319368,
			"0.011": 1.9727744073,
			"0.012": 1.07847482928,
			"0.013": 2.41366894166,
			"0.014": 3.56995443666,
			"0.015": 1.85212104944,
			"0.016": 0.171881476769,
			"0.017": 0.0,
			"0.018": 0.0,
			"0.019": 0.0,
			"0.02": 0.0,
			"0.021": 0.0,
			"0.022": 0.0,
			"0.023": 0.0,
			"0.024": 0.0,
			"0.025": 0.0
		}
	}
}
