{
	 "smiles": "CN1N=CC(C(O)=O)=C1C1CC1", 
	 "Tm": 378.15, 
	 "num_atms": 22, 
	 "gaussian": { 
		 "optdone": 1, 
		 "sigma_profile": "yes", 
		 "theory": "DFT", 
		 "functional": "B3LYP", 
		 "basiset": "6-31G**", 
		 "properties": { 
			 "R2extent": 2600.0849, 
			 "electric_dipole_moment_norm": 4.2816251424, 
			 "electric_quadrupole_moment_norm": 7.62194334602, 
			 "total_energy": -570.78757611, 
			 "HOMO_LUMO_gap": 0.22874, 
			 "cosmo_polarized_energy": -16.64, 
			 "cosmo_cavitation_energy": 25.47, 
			 "cosmo_dispersion_energy": -18.48, 
			 "cosmo_repulsion_energy": 1.48, 
			 "cosmo_total_nonelectrostatic_energy": 8.47, 
			 "SMD_solvation_energy": 4.21 
		},
		"coords": [
			{
				"x": 2.1744433594,
				"y": 1.951649302,
				"z": -1.5109126169,
				"element": "C" 
			},
			{
				"x": 1.9670553097,
				"y": 0.5135740261,
				"z": -1.4602561603,
				"element": "N" 
			},
			{
				"x": 2.7650096357,
				"y": -0.2874846924,
				"z": -2.2102459839,
				"element": "N" 
			},
			{
				"x": 2.2994493883,
				"y": -1.5110090017,
				"z": -2.0022959618,
				"element": "C" 
			},
			{
				"x": 1.1855518977,
				"y": -1.5152957121,
				"z": -1.12367236,
				"element": "C" 
			},
			{
				"x": 0.3611476138,
				"y": -2.6627528911,
				"z": -0.6996332809,
				"element": "C" 
			},
			{
				"x": 0.9309172144,
				"y": -3.8918659126,
				"z": -0.8780929174,
				"element": "O" 
			},
			{
				"x": -0.7537462711,
				"y": -2.5876784284,
				"z": -0.2342731232,
				"element": "O" 
			},
			{
				"x": 0.9957593277,
				"y": -0.1670621494,
				"z": -0.7915022171,
				"element": "C" 
			},
			{
				"x": -0.0005208194,
				"y": 0.5239981179,
				"z": 0.0610037109,
				"element": "C" 
			},
			{
				"x": -0.409602057,
				"y": -0.0350275725,
				"z": 1.3963430227,
				"element": "C" 
			},
			{
				"x": 0.4230405363,
				"y": 1.2158386168,
				"z": 1.352360815,
				"element": "C" 
			},
			{
				"x": 1.4500285461,
				"y": 2.428216523,
				"z": -2.1795061502,
				"element": "H" 
			},
			{
				"x": 2.0729785143,
				"y": 2.3805535436,
				"z": -0.5129377114,
				"element": "H" 
			},
			{
				"x": 3.1806047266,
				"y": 2.1212185539,
				"z": -1.8921905058,
				"element": "H" 
			},
			{
				"x": 2.7633493738,
				"y": -2.3434578985,
				"z": -2.5181376687,
				"element": "H" 
			},
			{
				"x": 1.8611564576,
				"y": -3.7951367833,
				"z": -1.123792294,
				"element": "H" 
			},
			{
				"x": -0.7885080132,
				"y": 1.0257170072,
				"z": -0.4992213744,
				"element": "H" 
			},
			{
				"x": 0.0616304237,
				"y": -0.9547195403,
				"z": 1.7211668116,
				"element": "H" 
			},
			{
				"x": -1.4578490061,
				"y": 0.0411359527,
				"z": 1.6639604853,
				"element": "H" 
			},
			{
				"x": 1.4645194288,
				"y": 1.1369154346,
				"z": 1.6508850157,
				"element": "H" 
			},
			{
				"x": -0.0418155871,
				"y": 2.1677735043,
				"z": 1.5907504647,
				"element": "H" 
			}
		],
		 "valence_orbital": [ 
			{
				"type": "occ",
				"energy": -0.30507,
				"method": "rhf"
			},
			{
				"type": "occ",
				"energy": -0.29225,
				"method": "rhf"
			},
			{
				"type": "occ",
				"energy": -0.26551,
				"method": "rhf"
			},
			{
				"type": "occ",
				"energy": -0.26324,
				"method": "rhf"
			},
			{
				"type": "occ",
				"energy": -0.24985,
				"method": "rhf"
			},
			{
				"type": "unocc",
				"energy": -0.02111,
				"method": "rhf"
			},
			{
				"type": "unocc",
				"energy": 0.00747,
				"method": "rhf"
			},
			{
				"type": "unocc",
				"energy": 0.06927,
				"method": "rhf"
			},
			{
				"type": "unocc",
				"energy": 0.0842,
				"method": "rhf"
			},
			{
				"type": "unocc",
				"energy": 0.09777,
				"method": "rhf"
			}
		],
		"cosmo_sigma_profile": { 
			"-0.025": 0.0,
			"-0.024": 0.0,
			"-0.023": 0.0,
			"-0.022": 0.0,
			"-0.021": 0.0,
			"-0.02": 0.0,
			"-0.019": 0.0211740677631,
			"-0.018": 0.744262829346,
			"-0.017": 1.03362356044,
			"-0.016": 1.425079488,
			"-0.015": 0.509569522365,
			"-0.014": 0.56684783793,
			"-0.013": 0.919494343605,
			"-0.012": 1.79839489374,
			"-0.011": 1.47780436939,
			"-0.01": 0.841524461405,
			"-0.009": 1.40154923542,
			"-0.008": 1.80014145467,
			"-0.007": 2.66803806066,
			"-0.006": 10.2017943186,
			"-0.005": 19.5784611775,
			"-0.004": 19.821649421,
			"-0.003": 22.0873105522,
			"-0.002": 12.8709089838,
			"-0.001": 12.554466967,
			"0.0": 10.8314937395,
			"0.001": 8.43910166049,
			"0.002": 10.209232779,
			"0.003": 7.8065597687,
			"0.004": 6.44669206856,
			"0.005": 4.88898579481,
			"0.006": 4.40799426278,
			"0.007": 4.53607446221,
			"0.008": 3.1200381311,
			"0.009": 3.83603833127,
			"0.01": 5.47235002161,
			"0.011": 5.96288354856,
			"0.012": 6.96533152633,
			"0.013": 4.44252317869,
			"0.014": 1.67832904597,
			"0.015": 0.605810838355,
			"0.016": 0.0191316821345,
			"0.017": 0.0,
			"0.018": 0.0,
			"0.019": 0.0,
			"0.02": 0.0,
			"0.021": 0.0,
			"0.022": 0.0,
			"0.023": 0.0,
			"0.024": 0.0,
			"0.025": 0.0
		}
	}
}
