{
	 "smiles": "COC(=O)C1=C(NN)C=CS1", 
	 "Tm": 343.15, 
	 "num_atms": 19, 
	 "gaussian": { 
		 "optdone": 1, 
		 "sigma_profile": "yes", 
		 "theory": "DFT", 
		 "functional": "B3LYP", 
		 "basiset": "6-31G**", 
		 "properties": { 
			 "R2extent": 2274.8509, 
			 "electric_dipole_moment_norm": 2.15638907899, 
			 "electric_quadrupole_moment_norm": 14.0719220485, 
			 "total_energy": -891.556381589, 
			 "HOMO_LUMO_gap": 0.16484, 
			 "cosmo_polarized_energy": -11.84, 
			 "cosmo_cavitation_energy": 24.53, 
			 "cosmo_dispersion_energy": -18.8, 
			 "cosmo_repulsion_energy": 1.47, 
			 "cosmo_total_nonelectrostatic_energy": 7.2, 
			 "SMD_solvation_energy": 5.93 
		},
		"coords": [
			{
				"x": -2.1593388376,
				"y": -2.3016191165,
				"z": -1.3769656865,
				"element": "C" 
			},
			{
				"x": -1.3937568267,
				"y": -1.0904853282,
				"z": -1.4242052643,
				"element": "O" 
			},
			{
				"x": -1.2932028921,
				"y": -0.4146815428,
				"z": -0.2490322994,
				"element": "C" 
			},
			{
				"x": -1.8542315593,
				"y": -0.8029646799,
				"z": 0.768692388,
				"element": "O" 
			},
			{
				"x": -0.4332390015,
				"y": 0.7511860783,
				"z": -0.385172293,
				"element": "C" 
			},
			{
				"x": -0.0869838911,
				"y": 1.7183248687,
				"z": 0.5667246649,
				"element": "C" 
			},
			{
				"x": -0.621978162,
				"y": 1.8962887603,
				"z": 1.8225359843,
				"element": "N" 
			},
			{
				"x": -1.9796942092,
				"y": 1.6602469901,
				"z": 2.1437044362,
				"element": "N" 
			},
			{
				"x": 0.9729317067,
				"y": 2.5693650665,
				"z": 0.0998253048,
				"element": "C" 
			},
			{
				"x": 1.3905824854,
				"y": 2.2648541667,
				"z": -1.1618858661,
				"element": "C" 
			},
			{
				"x": 0.5274034991,
				"y": 0.9426232722,
				"z": -1.8526096009,
				"element": "S" 
			},
			{
				"x": -2.1201951996,
				"y": -2.7116114853,
				"z": -2.3862244212,
				"element": "H" 
			},
			{
				"x": -1.7280233373,
				"y": -3.0054213824,
				"z": -0.6604025091,
				"element": "H" 
			},
			{
				"x": -3.1930290238,
				"y": -2.0952461573,
				"z": -1.0877378117,
				"element": "H" 
			},
			{
				"x": -0.2507459761,
				"y": 2.6833959079,
				"z": 2.334960043,
				"element": "H" 
			},
			{
				"x": -2.5629671494,
				"y": 2.0514034758,
				"z": 1.3996079159,
				"element": "H" 
			},
			{
				"x": -2.1174457843,
				"y": 0.6504699292,
				"z": 2.0994724191,
				"element": "H" 
			},
			{
				"x": 1.3774957679,
				"y": 3.3843657724,
				"z": 0.6904851115,
				"element": "H" 
			},
			{
				"x": 2.152518391,
				"y": 2.7740054042,
				"z": -1.7371725154,
				"element": "H" 
			}
		],
		 "valence_orbital": [ 
			{
				"type": "occ",
				"energy": -0.29703,
				"method": "rhf"
			},
			{
				"type": "occ",
				"energy": -0.28318,
				"method": "rhf"
			},
			{
				"type": "occ",
				"energy": -0.2525,
				"method": "rhf"
			},
			{
				"type": "occ",
				"energy": -0.24824,
				"method": "rhf"
			},
			{
				"type": "occ",
				"energy": -0.20922,
				"method": "rhf"
			},
			{
				"type": "unocc",
				"energy": -0.04438,
				"method": "rhf"
			},
			{
				"type": "unocc",
				"energy": 0.02444,
				"method": "rhf"
			},
			{
				"type": "unocc",
				"energy": 0.03397,
				"method": "rhf"
			},
			{
				"type": "unocc",
				"energy": 0.08719,
				"method": "rhf"
			},
			{
				"type": "unocc",
				"energy": 0.09414,
				"method": "rhf"
			}
		],
		"cosmo_sigma_profile": { 
			"-0.025": 0.0,
			"-0.024": 0.0,
			"-0.023": 0.0,
			"-0.022": 0.0,
			"-0.021": 0.0,
			"-0.02": 0.0,
			"-0.019": 0.0,
			"-0.018": 0.0,
			"-0.017": 0.0,
			"-0.016": 0.0,
			"-0.015": 0.0,
			"-0.014": 0.670932272849,
			"-0.013": 1.29449643724,
			"-0.012": 1.35172256335,
			"-0.011": 1.5408347424,
			"-0.01": 2.75997799414,
			"-0.009": 4.93376837167,
			"-0.008": 5.010641236,
			"-0.007": 5.52413023686,
			"-0.006": 8.64023651424,
			"-0.005": 12.6419740604,
			"-0.004": 14.784448796,
			"-0.003": 14.4377508048,
			"-0.002": 9.35617282988,
			"-0.001": 10.3364689651,
			"0.0": 9.83175580533,
			"0.001": 10.1051913034,
			"0.002": 13.3557299493,
			"0.003": 16.9112021103,
			"0.004": 15.9611595878,
			"0.005": 9.29774572394,
			"0.006": 6.90610240385,
			"0.007": 4.74084162088,
			"0.008": 3.42871267966,
			"0.009": 2.67862290106,
			"0.01": 2.10045864665,
			"0.011": 2.71023433517,
			"0.012": 2.03380504855,
			"0.013": 1.25006380205,
			"0.014": 0.899803305236,
			"0.015": 0.131177021783,
			"0.016": 0.717647378745,
			"0.017": 0.704401437822,
			"0.018": 0.0431132875345,
			"0.019": 0.0,
			"0.02": 0.0,
			"0.021": 0.0,
			"0.022": 0.0,
			"0.023": 0.0,
			"0.024": 0.0,
			"0.025": 0.0
		}
	}
}
