{
	 "smiles": "COC1=CC(C)=C(OC)C=C1I", 
	 "Tm": 358.15, 
	 "num_atms": 23, 
	 "gaussian": { 
		 "optdone": 1, 
		 "sigma_profile": "no", 
		 "theory": "DFT", 
		 "functional": "B3LYP", 
		 "basiset": "6-31G**", 
		 "properties": { 
			 "R2extent": 2962.2405, 
			 "electric_dipole_moment_norm": 2.24123984883, 
			 "electric_quadrupole_moment_norm": 14.9499991632, 
			 "total_energy": -511.399632784, 
			 "HOMO_LUMO_gap": 0.17319, 
			 "cosmo_polarized_energy": -91775.76, 
			 "cosmo_cavitation_energy": 29.28, 
			 "cosmo_dispersion_energy": -22.63, 
			 "cosmo_repulsion_energy": 1.8, 
			 "cosmo_total_nonelectrostatic_energy": 8.45, 
			 "SMD_solvation_energy": 5.75 
		},
		"coords": [
			{
				"x": -0.9061532854,
				"y": 0.421933813,
				"z": 4.3084777503,
				"element": "C" 
			},
			{
				"x": 0.2050504734,
				"y": 0.5338333088,
				"z": 3.4348232119,
				"element": "O" 
			},
			{
				"x": -0.0269515732,
				"y": 0.7519121216,
				"z": 2.110201894,
				"element": "C" 
			},
			{
				"x": -1.3048563348,
				"y": 0.8753605634,
				"z": 1.5425110982,
				"element": "C" 
			},
			{
				"x": -1.4956713205,
				"y": 1.0985492228,
				"z": 0.1788252199,
				"element": "C" 
			},
			{
				"x": -2.8749273582,
				"y": 1.2286644652,
				"z": -0.4134996305,
				"element": "C" 
			},
			{
				"x": -0.3623757021,
				"y": 1.2021470311,
				"z": -0.6488715032,
				"element": "C" 
			},
			{
				"x": -0.6169544719,
				"y": 1.4212688339,
				"z": -1.9769767569,
				"element": "O" 
			},
			{
				"x": 0.4837608734,
				"y": 1.5352863584,
				"z": -2.8631100053,
				"element": "C" 
			},
			{
				"x": 0.9200182681,
				"y": 1.0827279161,
				"z": -0.1069066527,
				"element": "C" 
			},
			{
				"x": 1.0813654151,
				"y": 0.8595316313,
				"z": 1.2617839546,
				"element": "C" 
			},
			{
				"x": 3.0382444337,
				"y": 0.6837038213,
				"z": 2.048293766,
				"element": "I" 
			},
			{
				"x": -0.4875606556,
				"y": 0.2519743402,
				"z": 5.301359804,
				"element": "H" 
			},
			{
				"x": -1.5061413111,
				"y": 1.3410836145,
				"z": 4.322528858,
				"element": "H" 
			},
			{
				"x": -1.5510578189,
				"y": -0.4245875988,
				"z": 4.0391982312,
				"element": "H" 
			},
			{
				"x": -2.1818568994,
				"y": 0.7964236873,
				"z": 2.1750864707,
				"element": "H" 
			},
			{
				"x": -3.0480878107,
				"y": 0.4675659808,
				"z": -1.182131732,
				"element": "H" 
			},
			{
				"x": -3.0040251719,
				"y": 2.1995476794,
				"z": -0.9041966121,
				"element": "H" 
			},
			{
				"x": -3.6447646507,
				"y": 1.1248661435,
				"z": 0.3554559471,
				"element": "H" 
			},
			{
				"x": 0.058049497,
				"y": 1.7048830518,
				"z": -3.8533904545,
				"element": "H" 
			},
			{
				"x": 1.0860844878,
				"y": 0.6174910528,
				"z": -2.8824382973,
				"element": "H" 
			},
			{
				"x": 1.1310233327,
				"y": 2.3820954582,
				"z": -2.5995285279,
				"element": "H" 
			},
			{
				"x": 1.7978875832,
				"y": 1.1607375037,
				"z": -0.7340960336,
				"element": "H" 
			}
		],
		 "valence_orbital": [ 
			{
				"type": "occ",
				"energy": -0.29969,
				"method": "rhf"
			},
			{
				"type": "occ",
				"energy": -0.27532,
				"method": "rhf"
			},
			{
				"type": "occ",
				"energy": -0.25404,
				"method": "rhf"
			},
			{
				"type": "occ",
				"energy": -0.23548,
				"method": "rhf"
			},
			{
				"type": "occ",
				"energy": -0.20037,
				"method": "rhf"
			},
			{
				"type": "unocc",
				"energy": -0.02718,
				"method": "rhf"
			},
			{
				"type": "unocc",
				"energy": -0.00937,
				"method": "rhf"
			},
			{
				"type": "unocc",
				"energy": 0.01812,
				"method": "rhf"
			},
			{
				"type": "unocc",
				"energy": 0.04678,
				"method": "rhf"
			},
			{
				"type": "unocc",
				"energy": 0.05694,
				"method": "rhf"
			}
		],
		"cosmo_sigma_profile": { 
			"0.0": 0.0,
			"0.0": 0.0,
			"0.0": 0.0,
			"0.0": 0.0,
			"0.0": 0.0,
			"0.0": 0.0,
			"0.0": 0.0,
			"0.0": 0.0,
			"0.0": 0.0,
			"0.0": 0.0,
			"0.0": 0.0,
			"0.0": 0.0,
			"0.0": 0.0,
			"0.0": 0.0,
			"0.0": 0.0,
			"0.0": 0.0,
			"0.0": 0.0,
			"0.0": 0.0,
			"0.0": 0.0,
			"0.0": 0.0,
			"0.0": 0.0,
			"0.0": 0.0,
			"0.0": 0.0,
			"0.0": 0.0,
			"0.0": 0.0,
			"0.0": 0.0,
			"0.0": 0.0,
			"0.0": 0.0,
			"0.0": 0.0,
			"0.0": 0.0,
			"0.0": 0.0,
			"0.0": 0.0,
			"0.0": 0.0,
			"0.0": 0.0,
			"0.0": 0.0,
			"0.0": 0.0,
			"0.0": 0.0,
			"0.0": 0.0,
			"0.0": 0.0,
			"0.0": 0.0,
			"0.0": 0.0,
			"0.0": 0.0,
			"0.0": 0.0,
			"0.0": 0.0,
			"0.0": 0.0,
			"0.0": 0.0,
			"0.0": 0.0,
			"0.0": 0.0,
			"0.0": 0.0,
			"0.0": 0.0,
			"0.0": 0.0
		}
	}
}
