{
	 "smiles": "NC1=CN=C(C=C1)C(=O)N1CCCCC1", 
	 "Tm": 444.15, 
	 "num_atms": 30, 
	 "gaussian": { 
		 "optdone": 1, 
		 "sigma_profile": "yes", 
		 "theory": "DFT", 
		 "functional": "B3LYP", 
		 "basiset": "6-31G**", 
		 "properties": { 
			 "R2extent": 4216.3754, 
			 "electric_dipole_moment_norm": 4.62627683024, 
			 "electric_quadrupole_moment_norm": 25.4157750921, 
			 "total_energy": -667.7051475, 
			 "HOMO_LUMO_gap": 0.1877, 
			 "cosmo_polarized_energy": -16.2, 
			 "cosmo_cavitation_energy": 31.76, 
			 "cosmo_dispersion_energy": -23.4, 
			 "cosmo_repulsion_energy": 1.83, 
			 "cosmo_total_nonelectrostatic_energy": 10.2, 
			 "SMD_solvation_energy": 4.44 
		},
		"coords": [
			{
				"x": -3.826250256,
				"y": -1.0397602715,
				"z": -3.8504402352,
				"element": "N" 
			},
			{
				"x": -2.7607943125,
				"y": -0.4559148329,
				"z": -3.1824205773,
				"element": "C" 
			},
			{
				"x": -2.281232118,
				"y": -0.9908574226,
				"z": -1.9706478993,
				"element": "C" 
			},
			{
				"x": -1.2942642336,
				"y": -0.4515342814,
				"z": -1.2597933097,
				"element": "N" 
			},
			{
				"x": -0.7111267388,
				"y": 0.6725860726,
				"z": -1.7067538794,
				"element": "C" 
			},
			{
				"x": -1.1261820973,
				"y": 1.2891914307,
				"z": -2.896359726,
				"element": "C" 
			},
			{
				"x": -2.1467029056,
				"y": 0.7207601325,
				"z": -3.6427924522,
				"element": "C" 
			},
			{
				"x": 0.3514038518,
				"y": 1.3843224673,
				"z": -0.9029533142,
				"element": "C" 
			},
			{
				"x": 0.5145892714,
				"y": 2.5946322169,
				"z": -1.0948216906,
				"element": "O" 
			},
			{
				"x": 1.0922453922,
				"y": 0.7213517934,
				"z": 0.0358051717,
				"element": "N" 
			},
			{
				"x": 1.2316455469,
				"y": -0.7239184981,
				"z": 0.2228152882,
				"element": "C" 
			},
			{
				"x": 0.7820660816,
				"y": -1.1291420478,
				"z": 1.6387168094,
				"element": "C" 
			},
			{
				"x": 1.159709803,
				"y": -0.0384834372,
				"z": 2.6714062842,
				"element": "C" 
			},
			{
				"x": 2.3490887961,
				"y": 0.7922963272,
				"z": 2.1695306735,
				"element": "C" 
			},
			{
				"x": 1.9769045043,
				"y": 1.543532611,
				"z": 0.8777552693,
				"element": "C" 
			},
			{
				"x": -3.9080622455,
				"y": -0.8279174392,
				"z": -4.8344772384,
				"element": "H" 
			},
			{
				"x": -4.0066255508,
				"y": -2.011153331,
				"z": -3.6404363842,
				"element": "H" 
			},
			{
				"x": -2.7332417021,
				"y": -1.8975647252,
				"z": -1.5671033701,
				"element": "H" 
			},
			{
				"x": -0.6433297513,
				"y": 2.2100345361,
				"z": -3.2005115256,
				"element": "H" 
			},
			{
				"x": -2.4788809268,
				"y": 1.1823635438,
				"z": -4.569616872,
				"element": "H" 
			},
			{
				"x": 0.6527549665,
				"y": -1.2482426064,
				"z": -0.5307321166,
				"element": "H" 
			},
			{
				"x": 2.2907469104,
				"y": -0.9801195416,
				"z": 0.0755924767,
				"element": "H" 
			},
			{
				"x": 1.2532428291,
				"y": -2.086046474,
				"z": 1.8949877058,
				"element": "H" 
			},
			{
				"x": -0.3006459167,
				"y": -1.2899917376,
				"z": 1.6374579486,
				"element": "H" 
			},
			{
				"x": 1.3839776812,
				"y": -0.4880786924,
				"z": 3.6445784018,
				"element": "H" 
			},
			{
				"x": 0.3062554705,
				"y": 0.6324342359,
				"z": 2.8268050962,
				"element": "H" 
			},
			{
				"x": 2.6643147792,
				"y": 1.5243312252,
				"z": 2.9208813695,
				"element": "H" 
			},
			{
				"x": 3.2119059223,
				"y": 0.135666599,
				"z": 2.0003369008,
				"element": "H" 
			},
			{
				"x": 2.8756124855,
				"y": 1.8381654897,
				"z": 0.3173681483,
				"element": "H" 
			},
			{
				"x": 1.4390744627,
				"y": 2.4670566573,
				"z": 1.1065230469,
				"element": "H" 
			}
		],
		 "valence_orbital": [ 
			{
				"type": "occ",
				"energy": -0.27665,
				"method": "rhf"
			},
			{
				"type": "occ",
				"energy": -0.26001,
				"method": "rhf"
			},
			{
				"type": "occ",
				"energy": -0.23292,
				"method": "rhf"
			},
			{
				"type": "occ",
				"energy": -0.21747,
				"method": "rhf"
			},
			{
				"type": "occ",
				"energy": -0.21505,
				"method": "rhf"
			},
			{
				"type": "unocc",
				"energy": -0.02735,
				"method": "rhf"
			},
			{
				"type": "unocc",
				"energy": -0.01319,
				"method": "rhf"
			},
			{
				"type": "unocc",
				"energy": 0.06313,
				"method": "rhf"
			},
			{
				"type": "unocc",
				"energy": 0.07656,
				"method": "rhf"
			},
			{
				"type": "unocc",
				"energy": 0.09306,
				"method": "rhf"
			}
		],
		"cosmo_sigma_profile": { 
			"-0.025": 0.0,
			"-0.024": 0.0,
			"-0.023": 0.0,
			"-0.022": 0.0,
			"-0.021": 0.0,
			"-0.02": 0.0,
			"-0.019": 0.0,
			"-0.018": 0.0,
			"-0.017": 0.0,
			"-0.016": 0.0,
			"-0.015": 0.0,
			"-0.014": 0.449732071277,
			"-0.013": 2.36125178322,
			"-0.012": 3.23100611077,
			"-0.011": 3.35290562382,
			"-0.01": 2.86909979333,
			"-0.009": 3.0944905624,
			"-0.008": 3.56146584109,
			"-0.007": 4.3088468509,
			"-0.006": 4.92933444375,
			"-0.005": 5.91724367703,
			"-0.004": 10.0536389255,
			"-0.003": 23.7726839831,
			"-0.002": 30.3445596219,
			"-0.001": 30.1073986696,
			"0.0": 23.9168134988,
			"0.001": 19.1839966221,
			"0.002": 15.4843735218,
			"0.003": 15.1190694598,
			"0.004": 8.15604449138,
			"0.005": 5.80178723842,
			"0.006": 4.76607414719,
			"0.007": 4.07096174349,
			"0.008": 4.30639765424,
			"0.009": 4.03652969253,
			"0.01": 2.14871143403,
			"0.011": 2.13314938511,
			"0.012": 2.64142844693,
			"0.013": 2.0121442398,
			"0.014": 3.81223605052,
			"0.015": 3.37158648621,
			"0.016": 0.0148857509644,
			"0.017": 0.0,
			"0.018": 0.0,
			"0.019": 0.0,
			"0.02": 0.0,
			"0.021": 0.0,
			"0.022": 0.0,
			"0.023": 0.0,
			"0.024": 0.0,
			"0.025": 0.0
		}
	}
}
