{
	 "smiles": "CC1=C(C=CC=C1)C1=NOC(=O)N1", 
	 "Tm": 429.15, 
	 "num_atms": 21, 
	 "gaussian": { 
		 "optdone": 1, 
		 "sigma_profile": "yes", 
		 "theory": "DFT", 
		 "functional": "B3LYP", 
		 "basiset": "6-31G**", 
		 "properties": { 
			 "R2extent": 3352.5242, 
			 "electric_dipole_moment_norm": 6.06475388783, 
			 "electric_quadrupole_moment_norm": 18.1173504757, 
			 "total_energy": -607.709135267, 
			 "HOMO_LUMO_gap": 0.19131, 
			 "cosmo_polarized_energy": -15.53, 
			 "cosmo_cavitation_energy": 25.48, 
			 "cosmo_dispersion_energy": -19.06, 
			 "cosmo_repulsion_energy": 1.49, 
			 "cosmo_total_nonelectrostatic_energy": 7.91, 
			 "SMD_solvation_energy": 5.63 
		},
		"coords": [
			{
				"x": -1.626567279,
				"y": -1.1664298682,
				"z": -2.2712093825,
				"element": "C" 
			},
			{
				"x": -1.0723456075,
				"y": -0.0362163724,
				"z": -1.4393979958,
				"element": "C" 
			},
			{
				"x": 0.2648278322,
				"y": 0.0003729683,
				"z": -0.972038153,
				"element": "C" 
			},
			{
				"x": 0.7062392546,
				"y": 1.0843484491,
				"z": -0.1925877169,
				"element": "C" 
			},
			{
				"x": -0.1450578609,
				"y": 2.1366043325,
				"z": 0.1272024387,
				"element": "C" 
			},
			{
				"x": -1.4596182566,
				"y": 2.1140572882,
				"z": -0.3368800123,
				"element": "C" 
			},
			{
				"x": -1.9048603809,
				"y": 1.0397510144,
				"z": -1.1056868219,
				"element": "C" 
			},
			{
				"x": 1.2328719184,
				"y": -1.0629539452,
				"z": -1.2780177302,
				"element": "C" 
			},
			{
				"x": 0.9409102264,
				"y": -2.3010446225,
				"z": -1.5584110836,
				"element": "N" 
			},
			{
				"x": 2.1848890373,
				"y": -2.951731581,
				"z": -1.7649396085,
				"element": "O" 
			},
			{
				"x": 3.2220260221,
				"y": -2.0650343591,
				"z": -1.6023757306,
				"element": "C" 
			},
			{
				"x": 4.3924271255,
				"y": -2.3165638014,
				"z": -1.730304543,
				"element": "O" 
			},
			{
				"x": 2.5988597044,
				"y": -0.8701280236,
				"z": -1.2729336768,
				"element": "N" 
			},
			{
				"x": -2.6189949648,
				"y": -0.9069399499,
				"z": -2.6484435391,
				"element": "H" 
			},
			{
				"x": -1.7058611662,
				"y": -2.0886857391,
				"z": -1.6882798712,
				"element": "H" 
			},
			{
				"x": -0.9784456223,
				"y": -1.4026761819,
				"z": -3.1200687651,
				"element": "H" 
			},
			{
				"x": 1.720381959,
				"y": 1.0904080287,
				"z": 0.1964558097,
				"element": "H" 
			},
			{
				"x": 0.2143047384,
				"y": 2.9603567918,
				"z": 0.7357965885,
				"element": "H" 
			},
			{
				"x": -2.1383959743,
				"y": 2.928148936,
				"z": -0.1004795246,
				"element": "H" 
			},
			{
				"x": -2.9303854313,
				"y": 1.0295277979,
				"z": -1.46425542,
				"element": "H" 
			},
			{
				"x": 3.0941947254,
				"y": 0.0033288373,
				"z": -1.1978452617,
				"element": "H" 
			}
		],
		 "valence_orbital": [ 
			{
				"type": "occ",
				"energy": -0.34182,
				"method": "rhf"
			},
			{
				"type": "occ",
				"energy": -0.28501,
				"method": "rhf"
			},
			{
				"type": "occ",
				"energy": -0.28048,
				"method": "rhf"
			},
			{
				"type": "occ",
				"energy": -0.26605,
				"method": "rhf"
			},
			{
				"type": "occ",
				"energy": -0.24661,
				"method": "rhf"
			},
			{
				"type": "unocc",
				"energy": -0.0553,
				"method": "rhf"
			},
			{
				"type": "unocc",
				"energy": -0.02205,
				"method": "rhf"
			},
			{
				"type": "unocc",
				"energy": 0.02664,
				"method": "rhf"
			},
			{
				"type": "unocc",
				"energy": 0.04595,
				"method": "rhf"
			},
			{
				"type": "unocc",
				"energy": 0.05784,
				"method": "rhf"
			}
		],
		"cosmo_sigma_profile": { 
			"-0.025": 0.0,
			"-0.024": 0.0,
			"-0.023": 0.0,
			"-0.022": 0.0,
			"-0.021": 0.0,
			"-0.02": 0.0,
			"-0.019": 0.0,
			"-0.018": 0.984948802026,
			"-0.017": 1.35134832692,
			"-0.016": 1.18601398669,
			"-0.015": 1.37091992797,
			"-0.014": 0.98837879277,
			"-0.013": 1.27515622102,
			"-0.012": 0.927763099003,
			"-0.011": 1.30874934825,
			"-0.01": 1.13423162999,
			"-0.009": 1.26076593124,
			"-0.008": 1.77108740137,
			"-0.007": 3.86232494725,
			"-0.006": 9.08748530002,
			"-0.005": 13.9694690575,
			"-0.004": 15.8727879894,
			"-0.003": 15.8376548645,
			"-0.002": 14.3350112172,
			"-0.001": 12.3952888233,
			"0.0": 16.3444728878,
			"0.001": 11.9288307481,
			"0.002": 10.7080850603,
			"0.003": 12.8934868745,
			"0.004": 12.0994678232,
			"0.005": 4.50430767239,
			"0.006": 5.37207649398,
			"0.007": 5.81711320879,
			"0.008": 6.35148206158,
			"0.009": 4.04775811369,
			"0.01": 2.97242661032,
			"0.011": 6.80787734739,
			"0.012": 5.12546800176,
			"0.013": 0.354665032668,
			"0.014": 0.0,
			"0.015": 0.0,
			"0.016": 0.0,
			"0.017": 0.0,
			"0.018": 0.0,
			"0.019": 0.0,
			"0.02": 0.0,
			"0.021": 0.0,
			"0.022": 0.0,
			"0.023": 0.0,
			"0.024": 0.0,
			"0.025": 0.0
		}
	}
}
