{
	 "smiles": "CCOC(=O)CCCOC1=CC=CC=C1NC(=O)C1=CC=C2C[C@]3(CC2=C1)CC[C@@H](CC3)C1=CC=C(C=C1)C(C)(C)C", 
	 "Tm": 385.15, 
	 "num_atms": 87, 
	 "gaussian": { 
		 "optdone": 1, 
		 "sigma_profile": "yes", 
		 "theory": "DFT", 
		 "functional": "B3LYP", 
		 "basiset": "6-31G**", 
		 "properties": { 
			 "R2extent": 48195.5103, 
			 "electric_dipole_moment_norm": 4.99336264756, 
			 "electric_quadrupole_moment_norm": 26.8111872046, 
			 "total_energy": -1792.78343054, 
			 "HOMO_LUMO_gap": 0.16655, 
			 "cosmo_polarized_energy": -20.35, 
			 "cosmo_cavitation_energy": 85.18, 
			 "cosmo_dispersion_energy": -57.36, 
			 "cosmo_repulsion_energy": 4.3, 
			 "cosmo_total_nonelectrostatic_energy": 32.11, 
			 "SMD_solvation_energy": 14.14 
		},
		"coords": [
			{
				"x": -4.8168557629,
				"y": -4.8825773547,
				"z": -1.3339847192,
				"element": "C" 
			},
			{
				"x": -4.0871002047,
				"y": -6.0034233666,
				"z": -0.6188808337,
				"element": "C" 
			},
			{
				"x": -2.7578957318,
				"y": -5.5241180611,
				"z": -0.3018044982,
				"element": "O" 
			},
			{
				"x": -1.9587463143,
				"y": -6.3867964607,
				"z": 0.3561950642,
				"element": "C" 
			},
			{
				"x": -2.2978198051,
				"y": -7.5079695248,
				"z": 0.6776086448,
				"element": "O" 
			},
			{
				"x": -0.5963833343,
				"y": -5.7708135899,
				"z": 0.6210627262,
				"element": "C" 
			},
			{
				"x": 0.3133926711,
				"y": -6.6661158874,
				"z": 1.4679017115,
				"element": "C" 
			},
			{
				"x": -0.1197302102,
				"y": -6.7825992486,
				"z": 2.9239710965,
				"element": "C" 
			},
			{
				"x": 0.0027427742,
				"y": -5.4902647982,
				"z": 3.525899765,
				"element": "O" 
			},
			{
				"x": -0.3910456118,
				"y": -5.3274682861,
				"z": 4.8329451421,
				"element": "C" 
			},
			{
				"x": -0.9266185758,
				"y": -6.3340443692,
				"z": 5.6323129827,
				"element": "C" 
			},
			{
				"x": -1.2975942711,
				"y": -6.0496998075,
				"z": 6.9517527752,
				"element": "C" 
			},
			{
				"x": -1.1311767153,
				"y": -4.7662292249,
				"z": 7.4614244506,
				"element": "C" 
			},
			{
				"x": -0.5909710873,
				"y": -3.7497913192,
				"z": 6.668104792,
				"element": "C" 
			},
			{
				"x": -0.2134414173,
				"y": -4.0200243854,
				"z": 5.3494432695,
				"element": "C" 
			},
			{
				"x": 0.3560944051,
				"y": -3.0819262649,
				"z": 4.4709236826,
				"element": "N" 
			},
			{
				"x": 0.5841067127,
				"y": -1.7408495611,
				"z": 4.6761972691,
				"element": "C" 
			},
			{
				"x": 0.2575509179,
				"y": -1.1420343743,
				"z": 5.6979028284,
				"element": "O" 
			},
			{
				"x": 1.2579435042,
				"y": -1.0297425263,
				"z": 3.5347272971,
				"element": "C" 
			},
			{
				"x": 2.0505762398,
				"y": -1.6785788258,
				"z": 2.5741777056,
				"element": "C" 
			},
			{
				"x": 2.6565493471,
				"y": -0.9581202819,
				"z": 1.5412670324,
				"element": "C" 
			},
			{
				"x": 2.4642278998,
				"y": 0.4193722947,
				"z": 1.469059261,
				"element": "C" 
			},
			{
				"x": 3.0163130401,
				"y": 1.4204036545,
				"z": 0.4797642988,
				"element": "C" 
			},
			{
				"x": 2.1005453478,
				"y": 2.6745348361,
				"z": 0.6574204013,
				"element": "C" 
			},
			{
				"x": 1.6585686267,
				"y": 2.561078548,
				"z": 2.1506197319,
				"element": "C" 
			},
			{
				"x": 1.684630275,
				"y": 1.0763701318,
				"z": 2.4337467632,
				"element": "C" 
			},
			{
				"x": 1.0899453073,
				"y": 0.3631213128,
				"z": 3.4667012935,
				"element": "C" 
			},
			{
				"x": 0.8579800648,
				"y": 2.5408266915,
				"z": -0.2708457314,
				"element": "C" 
			},
			{
				"x": 0.1651095107,
				"y": 3.8845182737,
				"z": -0.5365047347,
				"element": "C" 
			},
			{
				"x": 1.0962829402,
				"y": 4.9210861865,
				"z": -1.2479373938,
				"element": "C" 
			},
			{
				"x": 2.5844439071,
				"y": 4.5270119193,
				"z": -1.0563074055,
				"element": "C" 
			},
			{
				"x": 2.8256257978,
				"y": 4.0173275681,
				"z": 0.369760603,
				"element": "C" 
			},
			{
				"x": 0.7590540326,
				"y": 5.1551360554,
				"z": -2.7110433225,
				"element": "C" 
			},
			{
				"x": 0.5341445274,
				"y": 6.4466030368,
				"z": -3.1952427017,
				"element": "C" 
			},
			{
				"x": 0.2396421174,
				"y": 6.6854141506,
				"z": -4.5406803651,
				"element": "C" 
			},
			{
				"x": 0.1548781789,
				"y": 5.6387658312,
				"z": -5.4664235601,
				"element": "C" 
			},
			{
				"x": 0.3810314428,
				"y": 4.3403620382,
				"z": -4.9760836191,
				"element": "C" 
			},
			{
				"x": 0.6766008261,
				"y": 4.1028420008,
				"z": -3.6369703404,
				"element": "C" 
			},
			{
				"x": -0.1689879715,
				"y": 5.855780837,
				"z": -6.955693293,
				"element": "C" 
			},
			{
				"x": -0.3828712369,
				"y": 7.3426832239,
				"z": -7.2967716974,
				"element": "C" 
			},
			{
				"x": 1.0004074603,
				"y": 5.3269321958,
				"z": -7.8201160848,
				"element": "C" 
			},
			{
				"x": -1.4618063792,
				"y": 5.0873726628,
				"z": -7.3197842856,
				"element": "C" 
			},
			{
				"x": -4.8897454398,
				"y": -3.9954088816,
				"z": -0.6985414645,
				"element": "H" 
			},
			{
				"x": -4.2994006722,
				"y": -4.6040405828,
				"z": -2.2565131846,
				"element": "H" 
			},
			{
				"x": -5.8302479308,
				"y": -5.2055231453,
				"z": -1.5918564601,
				"element": "H" 
			},
			{
				"x": -3.9995112496,
				"y": -6.9007297701,
				"z": -1.2396638033,
				"element": "H" 
			},
			{
				"x": -4.5869670241,
				"y": -6.2941173793,
				"z": 0.3103101246,
				"element": "H" 
			},
			{
				"x": -0.7461626053,
				"y": -4.795531161,
				"z": 1.0958133968,
				"element": "H" 
			},
			{
				"x": -0.1372403184,
				"y": -5.5625063876,
				"z": -0.3528806633,
				"element": "H" 
			},
			{
				"x": 1.3373329416,
				"y": -6.277791038,
				"z": 1.4342925571,
				"element": "H" 
			},
			{
				"x": 0.329815222,
				"y": -7.6747399335,
				"z": 1.0429839298,
				"element": "H" 
			},
			{
				"x": 0.5194738524,
				"y": -7.4978358447,
				"z": 3.4588711769,
				"element": "H" 
			},
			{
				"x": -1.1563599002,
				"y": -7.1320788114,
				"z": 2.9867670561,
				"element": "H" 
			},
			{
				"x": -1.0585785344,
				"y": -7.3346958667,
				"z": 5.2387894471,
				"element": "H" 
			},
			{
				"x": -1.7160119022,
				"y": -6.8389981191,
				"z": 7.5688714455,
				"element": "H" 
			},
			{
				"x": -1.419972381,
				"y": -4.5422068591,
				"z": 8.4837744337,
				"element": "H" 
			},
			{
				"x": -0.4594368641,
				"y": -2.7466961576,
				"z": 7.0479388809,
				"element": "H" 
			},
			{
				"x": 0.554120449,
				"y": -3.4550513446,
				"z": 3.554339668,
				"element": "H" 
			},
			{
				"x": 2.2338980642,
				"y": -2.7474447779,
				"z": 2.6435489801,
				"element": "H" 
			},
			{
				"x": 3.2737863551,
				"y": -1.4734172481,
				"z": 0.809786556,
				"element": "H" 
			},
			{
				"x": 3.0357887052,
				"y": 1.0480055543,
				"z": -0.5507528141,
				"element": "H" 
			},
			{
				"x": 4.0550528287,
				"y": 1.6661065253,
				"z": 0.7456831039,
				"element": "H" 
			},
			{
				"x": 0.6821261534,
				"y": 3.0244241194,
				"z": 2.3330654031,
				"element": "H" 
			},
			{
				"x": 2.3784488256,
				"y": 3.079457207,
				"z": 2.8007340521,
				"element": "H" 
			},
			{
				"x": 0.4916407661,
				"y": 0.8470578652,
				"z": 4.2321726644,
				"element": "H" 
			},
			{
				"x": 0.1472015392,
				"y": 1.828297009,
				"z": 0.1633972166,
				"element": "H" 
			},
			{
				"x": 1.1704597604,
				"y": 2.1047269213,
				"z": -1.2276190213,
				"element": "H" 
			},
			{
				"x": -0.7403178208,
				"y": 3.7258053738,
				"z": -1.1309529799,
				"element": "H" 
			},
			{
				"x": -0.1722452094,
				"y": 4.3051390245,
				"z": 0.4189577806,
				"element": "H" 
			},
			{
				"x": 0.9600990595,
				"y": 5.882708708,
				"z": -0.7372145404,
				"element": "H" 
			},
			{
				"x": 2.8641107738,
				"y": 3.7550252623,
				"z": -1.7843121445,
				"element": "H" 
			},
			{
				"x": 3.2200857795,
				"y": 5.392577795,
				"z": -1.2733136273,
				"element": "H" 
			},
			{
				"x": 2.4641556621,
				"y": 4.782086614,
				"z": 1.0710993476,
				"element": "H" 
			},
			{
				"x": 3.8987239627,
				"y": 3.9110758772,
				"z": 0.5684125634,
				"element": "H" 
			},
			{
				"x": 0.586609967,
				"y": 7.2888105634,
				"z": -2.508576879,
				"element": "H" 
			},
			{
				"x": 0.0732545369,
				"y": 7.7092847829,
				"z": -4.8563274206,
				"element": "H" 
			},
			{
				"x": 0.3261344834,
				"y": 3.4916139328,
				"z": -5.6522655486,
				"element": "H" 
			},
			{
				"x": 0.8429896226,
				"y": 3.0794904589,
				"z": -3.3103918853,
				"element": "H" 
			},
			{
				"x": -0.6088326038,
				"y": 7.4480861142,
				"z": -8.3629354725,
				"element": "H" 
			},
			{
				"x": 0.5101089315,
				"y": 7.9411012882,
				"z": -7.08819906,
				"element": "H" 
			},
			{
				"x": -1.220830215,
				"y": 7.772514872,
				"z": -6.7381281268,
				"element": "H" 
			},
			{
				"x": 0.783006251,
				"y": 5.4678079982,
				"z": -8.8851344619,
				"element": "H" 
			},
			{
				"x": 1.9291258253,
				"y": 5.8592201895,
				"z": -7.5895529759,
				"element": "H" 
			},
			{
				"x": 1.178214337,
				"y": 4.2600449023,
				"z": -7.6553772927,
				"element": "H" 
			},
			{
				"x": -1.7034626649,
				"y": 5.2258423523,
				"z": -8.379884525,
				"element": "H" 
			},
			{
				"x": -1.3611126165,
				"y": 4.0129862124,
				"z": -7.1392520823,
				"element": "H" 
			},
			{
				"x": -2.3101719478,
				"y": 5.4467598544,
				"z": -6.7280793525,
				"element": "H" 
			}
		],
		 "valence_orbital": [ 
			{
				"type": "occ",
				"energy": -0.24327,
				"method": "rhf"
			},
			{
				"type": "occ",
				"energy": -0.23797,
				"method": "rhf"
			},
			{
				"type": "occ",
				"energy": -0.23011,
				"method": "rhf"
			},
			{
				"type": "occ",
				"energy": -0.2282,
				"method": "rhf"
			},
			{
				"type": "occ",
				"energy": -0.20073,
				"method": "rhf"
			},
			{
				"type": "unocc",
				"energy": -0.03418,
				"method": "rhf"
			},
			{
				"type": "unocc",
				"energy": -0.00651,
				"method": "rhf"
			},
			{
				"type": "unocc",
				"energy": 0.0031,
				"method": "rhf"
			},
			{
				"type": "unocc",
				"energy": 0.00531,
				"method": "rhf"
			},
			{
				"type": "unocc",
				"energy": 0.00759,
				"method": "rhf"
			}
		],
		"cosmo_sigma_profile": { 
			"-0.025": 0.0,
			"-0.024": 0.0,
			"-0.023": 0.0,
			"-0.022": 0.0,
			"-0.021": 0.0,
			"-0.02": 0.0,
			"-0.019": 0.0,
			"-0.018": 0.0,
			"-0.017": 0.0,
			"-0.016": 0.0,
			"-0.015": 0.0,
			"-0.014": 0.0,
			"-0.013": 0.0,
			"-0.012": 0.0,
			"-0.011": 0.0,
			"-0.01": 0.0329612687923,
			"-0.009": 1.04550472069,
			"-0.008": 1.98033804442,
			"-0.007": 2.9160093248,
			"-0.006": 9.72962059704,
			"-0.005": 29.5071727106,
			"-0.004": 53.9427664394,
			"-0.003": 80.1827951745,
			"-0.002": 94.8494307687,
			"-0.001": 75.1055198793,
			"0.0": 70.1340127881,
			"0.001": 61.8243521348,
			"0.002": 42.626600404,
			"0.003": 30.049116604,
			"0.004": 28.5694961757,
			"0.005": 27.9517140761,
			"0.006": 17.6031913918,
			"0.007": 12.7580979074,
			"0.008": 4.9754784282,
			"0.009": 3.43133553615,
			"0.01": 3.79895320135,
			"0.011": 3.57708118876,
			"0.012": 6.45541249915,
			"0.013": 3.60464563222,
			"0.014": 0.887264605029,
			"0.015": 0.0,
			"0.016": 0.0,
			"0.017": 0.0,
			"0.018": 0.0,
			"0.019": 0.0,
			"0.02": 0.0,
			"0.021": 0.0,
			"0.022": 0.0,
			"0.023": 0.0,
			"0.024": 0.0,
			"0.025": 0.0
		}
	}
}
