{
	 "smiles": "CC1=CC(C(=O)CCl)=C(C)N1CC1=CC=CS1", 
	 "Tm": 357.15, 
	 "num_atms": 31, 
	 "gaussian": { 
		 "optdone": 1, 
		 "sigma_profile": "yes", 
		 "theory": "DFT", 
		 "functional": "B3LYP", 
		 "basiset": "6-31G**", 
		 "properties": { 
			 "R2extent": 7421.5858, 
			 "electric_dipole_moment_norm": 6.98995439613, 
			 "electric_quadrupole_moment_norm": 36.3928211742, 
			 "total_energy": -1492.16014358, 
			 "HOMO_LUMO_gap": 0.18326, 
			 "cosmo_polarized_energy": -17.59, 
			 "cosmo_cavitation_energy": 37.44, 
			 "cosmo_dispersion_energy": -26.54, 
			 "cosmo_repulsion_energy": 2.03, 
			 "cosmo_total_nonelectrostatic_energy": 12.93, 
			 "SMD_solvation_energy": 6.24 
		},
		"coords": [
			{
				"x": -0.4300725885,
				"y": 2.2101015222,
				"z": -2.7767004754,
				"element": "C" 
			},
			{
				"x": -1.2478017763,
				"y": 1.3382374876,
				"z": -1.8784275295,
				"element": "C" 
			},
			{
				"x": -2.5174739789,
				"y": 1.5032707953,
				"z": -1.4000450276,
				"element": "C" 
			},
			{
				"x": -2.8446998012,
				"y": 0.3737690507,
				"z": -0.5792502145,
				"element": "C" 
			},
			{
				"x": -4.1733462011,
				"y": 0.2784397123,
				"z": 0.053408447,
				"element": "C" 
			},
			{
				"x": -4.9972727418,
				"y": 1.166819684,
				"z": -0.0856825869,
				"element": "O" 
			},
			{
				"x": -4.4973853106,
				"y": -0.9693197248,
				"z": 0.8909999831,
				"element": "C" 
			},
			{
				"x": -6.1748104388,
				"y": -0.9806292022,
				"z": 1.5251487233,
				"element": "Cl" 
			},
			{
				"x": -1.7290196876,
				"y": -0.4701255638,
				"z": -0.5761426825,
				"element": "C" 
			},
			{
				"x": -1.4327190001,
				"y": -1.783023722,
				"z": 0.0838630134,
				"element": "C" 
			},
			{
				"x": -0.773742608,
				"y": 0.1235211876,
				"z": -1.3763738942,
				"element": "N" 
			},
			{
				"x": 0.5725886544,
				"y": -0.3844718972,
				"z": -1.5907188446,
				"element": "C" 
			},
			{
				"x": 1.5496922774,
				"y": 0.0772772604,
				"z": -0.5328188953,
				"element": "C" 
			},
			{
				"x": 1.3383729936,
				"y": 0.9436792034,
				"z": 0.5062766223,
				"element": "C" 
			},
			{
				"x": 2.5058379767,
				"y": 1.1605221285,
				"z": 1.3046334801,
				"element": "C" 
			},
			{
				"x": 3.5890415794,
				"y": 0.4574717241,
				"z": 0.862963412,
				"element": "C" 
			},
			{
				"x": 3.2038514603,
				"y": -0.4890816282,
				"z": -0.543211261,
				"element": "S" 
			},
			{
				"x": 0.5222822588,
				"y": 2.5036284187,
				"z": -2.3192552296,
				"element": "H" 
			},
			{
				"x": -0.2015803755,
				"y": 1.7283484418,
				"z": -3.736368867,
				"element": "H" 
			},
			{
				"x": -0.9898093099,
				"y": 3.1220282843,
				"z": -2.9954842609,
				"element": "H" 
			},
			{
				"x": -3.1842167505,
				"y": 2.3285067718,
				"z": -1.6000024169,
				"element": "H" 
			},
			{
				"x": -3.8274235267,
				"y": -1.0246225564,
				"z": 1.752636696,
				"element": "H" 
			},
			{
				"x": -4.3688413138,
				"y": -1.8736214876,
				"z": 0.292484945,
				"element": "H" 
			},
			{
				"x": -0.4693976816,
				"y": -1.7561099693,
				"z": 0.6049351103,
				"element": "H" 
			},
			{
				"x": -1.3926733302,
				"y": -2.6070045371,
				"z": -0.6412080964,
				"element": "H" 
			},
			{
				"x": -2.1890941631,
				"y": -2.0416394283,
				"z": 0.821706939,
				"element": "H" 
			},
			{
				"x": 0.5343513456,
				"y": -1.4778827612,
				"z": -1.6274820527,
				"element": "H" 
			},
			{
				"x": 0.9020887495,
				"y": -0.0581299417,
				"z": -2.5824959986,
				"element": "H" 
			},
			{
				"x": 0.3793362608,
				"y": 1.4129215189,
				"z": 0.6929715218,
				"element": "H" 
			},
			{
				"x": 2.5305175943,
				"y": 1.8130979281,
				"z": 2.1698319157,
				"element": "H" 
			},
			{
				"x": 4.5898194332,
				"y": 0.4308213001,
				"z": 1.2710075247,
				"element": "H" 
			}
		],
		 "valence_orbital": [ 
			{
				"type": "occ",
				"energy": -0.26427,
				"method": "rhf"
			},
			{
				"type": "occ",
				"energy": -0.24703,
				"method": "rhf"
			},
			{
				"type": "occ",
				"energy": -0.24587,
				"method": "rhf"
			},
			{
				"type": "occ",
				"energy": -0.24359,
				"method": "rhf"
			},
			{
				"type": "occ",
				"energy": -0.2152,
				"method": "rhf"
			},
			{
				"type": "unocc",
				"energy": -0.03194,
				"method": "rhf"
			},
			{
				"type": "unocc",
				"energy": -0.02662,
				"method": "rhf"
			},
			{
				"type": "unocc",
				"energy": 0.01295,
				"method": "rhf"
			},
			{
				"type": "unocc",
				"energy": 0.03215,
				"method": "rhf"
			},
			{
				"type": "unocc",
				"energy": 0.03365,
				"method": "rhf"
			}
		],
		"cosmo_sigma_profile": { 
			"-0.025": 0.0,
			"-0.024": 0.0,
			"-0.023": 0.0,
			"-0.022": 0.0,
			"-0.021": 0.0,
			"-0.02": 0.0,
			"-0.019": 0.0,
			"-0.018": 0.0,
			"-0.017": 0.0,
			"-0.016": 0.0,
			"-0.015": 0.0,
			"-0.014": 0.0,
			"-0.013": 0.0,
			"-0.012": 0.0,
			"-0.011": 0.0,
			"-0.01": 0.0149212104271,
			"-0.009": 3.41951817719,
			"-0.008": 7.4585415739,
			"-0.007": 15.7502267877,
			"-0.006": 16.8432939722,
			"-0.005": 18.8990955658,
			"-0.004": 22.1249714937,
			"-0.003": 22.6128547139,
			"-0.002": 21.5172521458,
			"-0.001": 25.0774059419,
			"0.0": 20.7407394463,
			"0.001": 15.6554289756,
			"0.002": 16.4053778237,
			"0.003": 15.7535259425,
			"0.004": 20.2272317076,
			"0.005": 19.2497246639,
			"0.006": 15.9991181273,
			"0.007": 4.93770315306,
			"0.008": 2.94094292969,
			"0.009": 1.89386434403,
			"0.01": 2.53646358306,
			"0.011": 2.78577547594,
			"0.012": 4.14791163216,
			"0.013": 3.5614537838,
			"0.014": 1.54110863905,
			"0.015": 0.0541539216548,
			"0.016": 0.0,
			"0.017": 0.0,
			"0.018": 0.0,
			"0.019": 0.0,
			"0.02": 0.0,
			"0.021": 0.0,
			"0.022": 0.0,
			"0.023": 0.0,
			"0.024": 0.0,
			"0.025": 0.0
		}
	}
}
