{
	 "smiles": "CN1C=C(COC2=CC=C(O)C=C2)C=N1", 
	 "Tm": 460.15, 
	 "num_atms": 27, 
	 "gaussian": { 
		 "optdone": 1, 
		 "sigma_profile": "yes", 
		 "theory": "DFT", 
		 "functional": "B3LYP", 
		 "basiset": "6-31G**", 
		 "properties": { 
			 "R2extent": 4502.3461, 
			 "electric_dipole_moment_norm": 1.49956696749, 
			 "electric_quadrupole_moment_norm": 17.6831079884, 
			 "total_energy": -686.310360644, 
			 "HOMO_LUMO_gap": 0.19687, 
			 "cosmo_polarized_energy": -14.86, 
			 "cosmo_cavitation_energy": 31.44, 
			 "cosmo_dispersion_energy": -22.55, 
			 "cosmo_repulsion_energy": 1.79, 
			 "cosmo_total_nonelectrostatic_energy": 10.68, 
			 "SMD_solvation_energy": 5.43 
		},
		"coords": [
			{
				"x": 2.8347355376,
				"y": -0.7534872528,
				"z": 2.1900434973,
				"element": "C" 
			},
			{
				"x": 2.3311112582,
				"y": -0.8804360546,
				"z": 0.8353628235,
				"element": "N" 
			},
			{
				"x": 1.2451277963,
				"y": -1.5790536509,
				"z": 0.4113971914,
				"element": "C" 
			},
			{
				"x": 1.0981649863,
				"y": -1.3171182925,
				"z": -0.9408026812,
				"element": "C" 
			},
			{
				"x": 0.0756790084,
				"y": -1.8938085633,
				"z": -1.8777553982,
				"element": "C" 
			},
			{
				"x": -1.1784509041,
				"y": -2.1700740197,
				"z": -1.2554521816,
				"element": "O" 
			},
			{
				"x": -2.0506138308,
				"y": -1.1336033853,
				"z": -1.0214728354,
				"element": "C" 
			},
			{
				"x": -3.3205178356,
				"y": -1.5079148151,
				"z": -0.5576626954,
				"element": "C" 
			},
			{
				"x": -4.2903816862,
				"y": -0.5496878664,
				"z": -0.2947551988,
				"element": "C" 
			},
			{
				"x": -4.0078916272,
				"y": 0.8077711599,
				"z": -0.4941096558,
				"element": "C" 
			},
			{
				"x": -5.0046183221,
				"y": 1.7091822806,
				"z": -0.2199663695,
				"element": "O" 
			},
			{
				"x": -2.7455177334,
				"y": 1.1830528795,
				"z": -0.9520198397,
				"element": "C" 
			},
			{
				"x": -1.7642087135,
				"y": 0.2199304922,
				"z": -1.2140772556,
				"element": "C" 
			},
			{
				"x": 2.1638286203,
				"y": -0.4335473209,
				"z": -1.2327131579,
				"element": "C" 
			},
			{
				"x": 2.9069900401,
				"y": -0.1695576678,
				"z": -0.1571162316,
				"element": "N" 
			},
			{
				"x": 3.925226257,
				"y": -0.7350494111,
				"z": 2.1595162227,
				"element": "H" 
			},
			{
				"x": 2.4758231015,
				"y": 0.1686677187,
				"z": 2.6586969552,
				"element": "H" 
			},
			{
				"x": 2.501343201,
				"y": -1.6098380476,
				"z": 2.7793118723,
				"element": "H" 
			},
			{
				"x": 0.6576343134,
				"y": -2.1882782529,
				"z": 1.0822635484,
				"element": "H" 
			},
			{
				"x": -0.0614711524,
				"y": -1.2362047367,
				"z": -2.7474570155,
				"element": "H" 
			},
			{
				"x": 0.4005260011,
				"y": -2.868677366,
				"z": -2.2577024542,
				"element": "H" 
			},
			{
				"x": -3.5287750438,
				"y": -2.5634092624,
				"z": -0.4149080626,
				"element": "H" 
			},
			{
				"x": -5.2749477704,
				"y": -0.83480734,
				"z": 0.0612308583,
				"element": "H" 
			},
			{
				"x": -4.6793495083,
				"y": 2.5997925582,
				"z": -0.4024921388,
				"element": "H" 
			},
			{
				"x": -2.5112018785,
				"y": 2.2351032645,
				"z": -1.1025881178,
				"element": "H" 
			},
			{
				"x": -0.783828433,
				"y": 0.5428205786,
				"z": -1.541458018,
				"element": "H" 
			},
			{
				"x": 2.4245843181,
				"y": 0.0111323736,
				"z": -2.1850136615,
				"element": "H" 
			}
		],
		 "valence_orbital": [ 
			{
				"type": "occ",
				"energy": -0.28079,
				"method": "rhf"
			},
			{
				"type": "occ",
				"energy": -0.24943,
				"method": "rhf"
			},
			{
				"type": "occ",
				"energy": -0.2487,
				"method": "rhf"
			},
			{
				"type": "occ",
				"energy": -0.23584,
				"method": "rhf"
			},
			{
				"type": "occ",
				"energy": -0.19596,
				"method": "rhf"
			},
			{
				"type": "unocc",
				"energy": 0.00091,
				"method": "rhf"
			},
			{
				"type": "unocc",
				"energy": 0.01573,
				"method": "rhf"
			},
			{
				"type": "unocc",
				"energy": 0.03103,
				"method": "rhf"
			},
			{
				"type": "unocc",
				"energy": 0.0585,
				"method": "rhf"
			},
			{
				"type": "unocc",
				"energy": 0.07558,
				"method": "rhf"
			}
		],
		"cosmo_sigma_profile": { 
			"-0.025": 0.0,
			"-0.024": 0.0,
			"-0.023": 0.0,
			"-0.022": 0.0,
			"-0.021": 0.0,
			"-0.02": 0.0,
			"-0.019": 0.0,
			"-0.018": 0.162223708356,
			"-0.017": 1.03254849871,
			"-0.016": 0.988834047131,
			"-0.015": 0.975873457889,
			"-0.014": 1.34370727972,
			"-0.013": 0.792423111538,
			"-0.012": 0.34275076142,
			"-0.011": 0.856199622075,
			"-0.01": 1.64561598987,
			"-0.009": 2.12118556835,
			"-0.008": 3.86248278684,
			"-0.007": 6.28075293224,
			"-0.006": 15.6455770878,
			"-0.005": 21.3325132827,
			"-0.004": 22.2681082344,
			"-0.003": 21.669428682,
			"-0.002": 13.0893028321,
			"-0.001": 11.0076660819,
			"0.0": 10.3064153714,
			"0.001": 10.7285499621,
			"0.002": 11.6577021361,
			"0.003": 15.428740776,
			"0.004": 19.3865071696,
			"0.005": 18.5449906391,
			"0.006": 11.0576604939,
			"0.007": 4.81613224461,
			"0.008": 4.06183985139,
			"0.009": 4.4314038452,
			"0.01": 4.0244554566,
			"0.011": 3.38410301378,
			"0.012": 3.13585017973,
			"0.013": 0.916516918189,
			"0.014": 1.10940379839,
			"0.015": 1.07393696346,
			"0.016": 0.717220375715,
			"0.017": 0.0348184306039,
			"0.018": 0.0,
			"0.019": 0.0,
			"0.02": 0.0,
			"0.021": 0.0,
			"0.022": 0.0,
			"0.023": 0.0,
			"0.024": 0.0,
			"0.025": 0.0
		}
	}
}
