{
	 "smiles": "NC1=C(NCC2=CC=CC=C2)C=CC(Cl)=C1", 
	 "Tm": 352.15, 
	 "num_atms": 29, 
	 "gaussian": { 
		 "optdone": 1, 
		 "sigma_profile": "yes", 
		 "theory": "DFT", 
		 "functional": "B3LYP", 
		 "basiset": "6-31G**", 
		 "properties": { 
			 "R2extent": 6124.8179, 
			 "electric_dipole_moment_norm": 3.56950323435, 
			 "electric_quadrupole_moment_norm": 22.1097143708, 
			 "total_energy": -1072.91963921, 
			 "HOMO_LUMO_gap": 0.18753, 
			 "cosmo_polarized_energy": -11.8, 
			 "cosmo_cavitation_energy": 34.15, 
			 "cosmo_dispersion_energy": -24.62, 
			 "cosmo_repulsion_energy": 1.94, 
			 "cosmo_total_nonelectrostatic_energy": 11.47, 
			 "SMD_solvation_energy": 5.03 
		},
		"coords": [
			{
				"x": 4.1078827423,
				"y": 0.1471545998,
				"z": 1.4924430177,
				"element": "N" 
			},
			{
				"x": 2.8571379417,
				"y": 0.6800291326,
				"z": 1.8708885009,
				"element": "C" 
			},
			{
				"x": 1.7505493043,
				"y": 0.4330030792,
				"z": 1.0175262464,
				"element": "C" 
			},
			{
				"x": 1.9915858852,
				"y": -0.3492892482,
				"z": -0.1244992668,
				"element": "N" 
			},
			{
				"x": 0.9851671476,
				"y": -0.4476788055,
				"z": -1.1748071297,
				"element": "C" 
			},
			{
				"x": -0.1313131785,
				"y": -1.4386862189,
				"z": -0.8793753024,
				"element": "C" 
			},
			{
				"x": -1.4090729726,
				"y": -1.2275636476,
				"z": -1.4116077455,
				"element": "C" 
			},
			{
				"x": -2.4315628477,
				"y": -2.1544593575,
				"z": -1.2021606847,
				"element": "C" 
			},
			{
				"x": -2.1886726339,
				"y": -3.3042871069,
				"z": -0.4490707355,
				"element": "C" 
			},
			{
				"x": -0.9184842592,
				"y": -3.5191773577,
				"z": 0.0902460571,
				"element": "C" 
			},
			{
				"x": 0.1033217472,
				"y": -2.5938766111,
				"z": -0.1251045154,
				"element": "C" 
			},
			{
				"x": 0.5008877026,
				"y": 0.9545513394,
				"z": 1.3635517488,
				"element": "C" 
			},
			{
				"x": 0.3373339999,
				"y": 1.7397005601,
				"z": 2.5099649766,
				"element": "C" 
			},
			{
				"x": 1.4408048822,
				"y": 2.0040745819,
				"z": 3.3098091757,
				"element": "C" 
			},
			{
				"x": 1.2622554914,
				"y": 3.0027892801,
				"z": 4.7520823853,
				"element": "Cl" 
			},
			{
				"x": 2.6956244351,
				"y": 1.4717632815,
				"z": 3.0067633381,
				"element": "C" 
			},
			{
				"x": 4.0520701695,
				"y": -0.8442717566,
				"z": 1.2753894809,
				"element": "H" 
			},
			{
				"x": 4.8310488209,
				"y": 0.3069413672,
				"z": 2.1834843042,
				"element": "H" 
			},
			{
				"x": 2.9211314401,
				"y": -0.1679571208,
				"z": -0.4883379422,
				"element": "H" 
			},
			{
				"x": 0.5419628979,
				"y": 0.5336370266,
				"z": -1.4111772301,
				"element": "H" 
			},
			{
				"x": 1.5125906503,
				"y": -0.7730472415,
				"z": -2.0799426218,
				"element": "H" 
			},
			{
				"x": -1.6059415962,
				"y": -0.3295988682,
				"z": -1.9936448882,
				"element": "H" 
			},
			{
				"x": -3.4179326908,
				"y": -1.974233326,
				"z": -1.6204191694,
				"element": "H" 
			},
			{
				"x": -2.9839424573,
				"y": -4.0244404287,
				"z": -0.2792785642,
				"element": "H" 
			},
			{
				"x": -0.7232399818,
				"y": -4.4092460763,
				"z": 0.6821276163,
				"element": "H" 
			},
			{
				"x": 1.0900123635,
				"y": -2.752132782,
				"z": 0.298759561,
				"element": "H" 
			},
			{
				"x": -0.362290035,
				"y": 0.7474471172,
				"z": 0.7419972347,
				"element": "H" 
			},
			{
				"x": -0.6360319736,
				"y": 2.1423587138,
				"z": 2.7651350502,
				"element": "H" 
			},
			{
				"x": 3.5412170047,
				"y": 1.6659958741,
				"z": 3.6592571022,
				"element": "H" 
			}
		],
		 "valence_orbital": [ 
			{
				"type": "occ",
				"energy": -0.27891,
				"method": "rhf"
			},
			{
				"type": "occ",
				"energy": -0.24972,
				"method": "rhf"
			},
			{
				"type": "occ",
				"energy": -0.24282,
				"method": "rhf"
			},
			{
				"type": "occ",
				"energy": -0.22868,
				"method": "rhf"
			},
			{
				"type": "occ",
				"energy": -0.19183,
				"method": "rhf"
			},
			{
				"type": "unocc",
				"energy": -0.0043,
				"method": "rhf"
			},
			{
				"type": "unocc",
				"energy": -0.00219,
				"method": "rhf"
			},
			{
				"type": "unocc",
				"energy": 0.00707,
				"method": "rhf"
			},
			{
				"type": "unocc",
				"energy": 0.0153,
				"method": "rhf"
			},
			{
				"type": "unocc",
				"energy": 0.0418,
				"method": "rhf"
			}
		],
		"cosmo_sigma_profile": { 
			"-0.025": 0.0,
			"-0.024": 0.0,
			"-0.023": 0.0,
			"-0.022": 0.0,
			"-0.021": 0.0,
			"-0.02": 0.0,
			"-0.019": 0.0,
			"-0.018": 0.0,
			"-0.017": 0.0,
			"-0.016": 0.0,
			"-0.015": 0.0,
			"-0.014": 0.0,
			"-0.013": 0.0944606215476,
			"-0.012": 1.76042082946,
			"-0.011": 3.38854417719,
			"-0.01": 3.75285479427,
			"-0.009": 4.49744932465,
			"-0.008": 3.83321486503,
			"-0.007": 4.59561842111,
			"-0.006": 9.58203652864,
			"-0.005": 16.0899410935,
			"-0.004": 21.4119838115,
			"-0.003": 21.9811596355,
			"-0.002": 17.2697710912,
			"-0.001": 15.8516209529,
			"0.0": 15.5246639014,
			"0.001": 15.8463638612,
			"0.002": 14.5292849401,
			"0.003": 21.380832943,
			"0.004": 27.0091555042,
			"0.005": 30.291280228,
			"0.006": 19.1618570957,
			"0.007": 2.37947751478,
			"0.008": 0.839213526323,
			"0.009": 0.350381947758,
			"0.01": 0.490261998118,
			"0.011": 0.497969952601,
			"0.012": 0.644769018246,
			"0.013": 0.596720295247,
			"0.014": 0.21262426602,
			"0.015": 0.0129607157681,
			"0.016": 0.0,
			"0.017": 0.0,
			"0.018": 0.0,
			"0.019": 0.0,
			"0.02": 0.0,
			"0.021": 0.0,
			"0.022": 0.0,
			"0.023": 0.0,
			"0.024": 0.0,
			"0.025": 0.0
		}
	}
}
