{
	 "smiles": "[O-][N+](=O)C1=CC=C(C=C1)C1=CC=C(O1)C=CC(=O)C1=CC=CC=C1", 
	 "Tm": 431.15, 
	 "num_atms": 37, 
	 "gaussian": { 
		 "optdone": 1, 
		 "sigma_profile": "yes", 
		 "theory": "DFT", 
		 "functional": "B3LYP", 
		 "basiset": "6-31G**", 
		 "properties": { 
			 "R2extent": 17724.3341, 
			 "electric_dipole_moment_norm": 7.23357270165, 
			 "electric_quadrupole_moment_norm": 24.8132898345, 
			 "total_energy": -1087.38281448, 
			 "HOMO_LUMO_gap": 0.11794, 
			 "cosmo_polarized_energy": -17.6, 
			 "cosmo_cavitation_energy": 44.5, 
			 "cosmo_dispersion_energy": -31.96, 
			 "cosmo_repulsion_energy": 2.36, 
			 "cosmo_total_nonelectrostatic_energy": 14.89, 
			 "SMD_solvation_energy": 10.58 
		},
		"coords": [
			{
				"x": 7.079069482,
				"y": -3.7069286537,
				"z": -4.0292396151,
				"element": "O" 
			},
			{
				"x": 5.9631141272,
				"y": -3.3662901226,
				"z": -4.4244943296,
				"element": "N" 
			},
			{
				"x": 5.549844394,
				"y": -3.5191485428,
				"z": -5.5744544537,
				"element": "O" 
			},
			{
				"x": 5.0622851688,
				"y": -2.7332668278,
				"z": -3.4556073732,
				"element": "C" 
			},
			{
				"x": 3.7910720596,
				"y": -2.3344059152,
				"z": -3.8676879268,
				"element": "C" 
			},
			{
				"x": 2.9416118006,
				"y": -1.73550817,
				"z": -2.9471443019,
				"element": "C" 
			},
			{
				"x": 3.3541294179,
				"y": -1.5318247737,
				"z": -1.614592295,
				"element": "C" 
			},
			{
				"x": 4.6459621972,
				"y": -1.946685621,
				"z": -1.2302927177,
				"element": "C" 
			},
			{
				"x": 5.5005255061,
				"y": -2.5456796161,
				"z": -2.1438696575,
				"element": "C" 
			},
			{
				"x": 2.4661619847,
				"y": -0.9057543664,
				"z": -0.6515234292,
				"element": "C" 
			},
			{
				"x": 2.5931024109,
				"y": -0.5865968242,
				"z": 0.6858123539,
				"element": "C" 
			},
			{
				"x": 1.3761847251,
				"y": 0.0147260759,
				"z": 1.0805208893,
				"element": "C" 
			},
			{
				"x": 0.558230367,
				"y": 0.0371664307,
				"z": -0.0322976322,
				"element": "C" 
			},
			{
				"x": 1.2311415676,
				"y": -0.5271056959,
				"z": -1.0868832674,
				"element": "O" 
			},
			{
				"x": -0.7706579203,
				"y": 0.4998240415,
				"z": -0.3055690493,
				"element": "C" 
			},
			{
				"x": -1.6107852526,
				"y": 1.0774593363,
				"z": 0.5816324069,
				"element": "C" 
			},
			{
				"x": -2.9550876191,
				"y": 1.5207423375,
				"z": 0.1395003941,
				"element": "C" 
			},
			{
				"x": -3.2906074061,
				"y": 1.4227017887,
				"z": -1.0402628399,
				"element": "O" 
			},
			{
				"x": -3.9024733919,
				"y": 2.1081666176,
				"z": 1.1441456345,
				"element": "C" 
			},
			{
				"x": -5.0706234527,
				"y": 2.7147336641,
				"z": 0.6527002085,
				"element": "C" 
			},
			{
				"x": -5.9982539712,
				"y": 3.2768820547,
				"z": 1.5234905839,
				"element": "C" 
			},
			{
				"x": -5.7780144035,
				"y": 3.2333308344,
				"z": 2.9037291348,
				"element": "C" 
			},
			{
				"x": -4.6269078153,
				"y": 2.6238478584,
				"z": 3.4052090233,
				"element": "C" 
			},
			{
				"x": -3.6926157877,
				"y": 2.066989527,
				"z": 2.5316683492,
				"element": "C" 
			},
			{
				"x": 3.4899181765,
				"y": -2.4982205272,
				"z": -4.8947351554,
				"element": "H" 
			},
			{
				"x": 1.9506743017,
				"y": -1.4199393837,
				"z": -3.2517153925,
				"element": "H" 
			},
			{
				"x": 4.9821116125,
				"y": -1.7986623158,
				"z": -0.2094934724,
				"element": "H" 
			},
			{
				"x": 6.4951440433,
				"y": -2.8698027059,
				"z": -1.8649407346,
				"element": "H" 
			},
			{
				"x": 3.4577888801,
				"y": -0.7634168641,
				"z": 1.3084422534,
				"element": "H" 
			},
			{
				"x": 1.1245030379,
				"y": 0.389298494,
				"z": 2.0620741785,
				"element": "H" 
			},
			{
				"x": -1.1280530099,
				"y": 0.3717892661,
				"z": -1.3249759365,
				"element": "H" 
			},
			{
				"x": -1.3035279537,
				"y": 1.2388265209,
				"z": 1.6090465933,
				"element": "H" 
			},
			{
				"x": -5.2230322131,
				"y": 2.7290209644,
				"z": -0.4210597465,
				"element": "H" 
			},
			{
				"x": -6.8943402465,
				"y": 3.7482355891,
				"z": 1.1303378616,
				"element": "H" 
			},
			{
				"x": -6.502285146,
				"y": 3.6704027575,
				"z": 3.5852501784,
				"element": "H" 
			},
			{
				"x": -4.4563996601,
				"y": 2.5800419528,
				"z": 4.4769260069,
				"element": "H" 
			},
			{
				"x": -2.8131100112,
				"y": 1.5854508147,
				"z": 2.9453532758,
				"element": "H" 
			}
		],
		 "valence_orbital": [ 
			{
				"type": "occ",
				"energy": -0.28293,
				"method": "rhf"
			},
			{
				"type": "occ",
				"energy": -0.26379,
				"method": "rhf"
			},
			{
				"type": "occ",
				"energy": -0.26034,
				"method": "rhf"
			},
			{
				"type": "occ",
				"energy": -0.25307,
				"method": "rhf"
			},
			{
				"type": "occ",
				"energy": -0.22177,
				"method": "rhf"
			},
			{
				"type": "unocc",
				"energy": -0.10383,
				"method": "rhf"
			},
			{
				"type": "unocc",
				"energy": -0.07954,
				"method": "rhf"
			},
			{
				"type": "unocc",
				"energy": -0.03568,
				"method": "rhf"
			},
			{
				"type": "unocc",
				"energy": -0.031,
				"method": "rhf"
			},
			{
				"type": "unocc",
				"energy": -0.01527,
				"method": "rhf"
			}
		],
		"cosmo_sigma_profile": { 
			"-0.025": 0.0,
			"-0.024": 0.0,
			"-0.023": 0.0,
			"-0.022": 0.0,
			"-0.021": 0.0,
			"-0.02": 0.0,
			"-0.019": 0.0,
			"-0.018": 0.0,
			"-0.017": 0.0,
			"-0.016": 0.0,
			"-0.015": 0.0,
			"-0.014": 0.0,
			"-0.013": 0.0,
			"-0.012": 0.0,
			"-0.011": 0.0,
			"-0.01": 0.606808746677,
			"-0.009": 4.72909354628,
			"-0.008": 9.41129551627,
			"-0.007": 12.7170991184,
			"-0.006": 20.4394827161,
			"-0.005": 20.5264276613,
			"-0.004": 22.1205902369,
			"-0.003": 20.5078344621,
			"-0.002": 19.8345497284,
			"-0.001": 30.2764990131,
			"0.0": 38.764117427,
			"0.001": 38.1640949333,
			"0.002": 30.5303963006,
			"0.003": 20.4525973823,
			"0.004": 18.8172745799,
			"0.005": 7.26912662652,
			"0.006": 5.50161770281,
			"0.007": 8.31079064135,
			"0.008": 10.7643531554,
			"0.009": 6.01621786643,
			"0.01": 5.14613238761,
			"0.011": 2.76268083826,
			"0.012": 3.57114634016,
			"0.013": 2.21839394393,
			"0.014": 0.0,
			"0.015": 0.0,
			"0.016": 0.0,
			"0.017": 0.0,
			"0.018": 0.0,
			"0.019": 0.0,
			"0.02": 0.0,
			"0.021": 0.0,
			"0.022": 0.0,
			"0.023": 0.0,
			"0.024": 0.0,
			"0.025": 0.0
		}
	}
}
