{
	 "smiles": "CC1CC(C)CN(C1)C1=NN=C(S)N1CC1=CC=CO1", 
	 "Tm": 393.15, 
	 "num_atms": 40, 
	 "gaussian": { 
		 "optdone": 1, 
		 "sigma_profile": "yes", 
		 "theory": "DFT", 
		 "functional": "B3LYP", 
		 "basiset": "6-31G**", 
		 "properties": { 
			 "R2extent": 7176.0745, 
			 "electric_dipole_moment_norm": 4.93594083129, 
			 "electric_quadrupole_moment_norm": 23.9027729513, 
			 "total_energy": -1237.90652802, 
			 "HOMO_LUMO_gap": 0.20152, 
			 "cosmo_polarized_energy": -16.03, 
			 "cosmo_cavitation_energy": 42.55, 
			 "cosmo_dispersion_energy": -29.21, 
			 "cosmo_repulsion_energy": 2.21, 
			 "cosmo_total_nonelectrostatic_energy": 15.54, 
			 "SMD_solvation_energy": 4.82 
		},
		"coords": [
			{
				"x": 0.1111002157,
				"y": -3.8351341686,
				"z": 0.5031231519,
				"element": "C" 
			},
			{
				"x": 0.7798265197,
				"y": -3.1011817637,
				"z": -0.6663979478,
				"element": "C" 
			},
			{
				"x": -0.2816129852,
				"y": -2.4258786504,
				"z": -1.5627719591,
				"element": "C" 
			},
			{
				"x": 0.2984654139,
				"y": -1.321137681,
				"z": -2.4641857817,
				"element": "C" 
			},
			{
				"x": 1.223342322,
				"y": -1.8793595965,
				"z": -3.5578864985,
				"element": "C" 
			},
			{
				"x": 1.0078502997,
				"y": -0.2409536702,
				"z": -1.5943518259,
				"element": "C" 
			},
			{
				"x": 1.2037927237,
				"y": -0.711253923,
				"z": -0.1999406384,
				"element": "N" 
			},
			{
				"x": 1.810931405,
				"y": -2.0530249165,
				"z": -0.1727855034,
				"element": "C" 
			},
			{
				"x": 1.8266498926,
				"y": 0.2208318678,
				"z": 0.6296464247,
				"element": "C" 
			},
			{
				"x": 3.0916269672,
				"y": 0.2695193857,
				"z": 0.9722852285,
				"element": "N" 
			},
			{
				"x": 3.2514802759,
				"y": 1.33154164,
				"z": 1.8502210538,
				"element": "N" 
			},
			{
				"x": 2.0739551051,
				"y": 1.8868649574,
				"z": 1.9974470669,
				"element": "C" 
			},
			{
				"x": 1.709428631,
				"y": 3.2864855308,
				"z": 3.018029804,
				"element": "S" 
			},
			{
				"x": 1.1173525016,
				"y": 1.2358837042,
				"z": 1.2565295702,
				"element": "N" 
			},
			{
				"x": -0.3383000171,
				"y": 1.3910205464,
				"z": 1.3052952264,
				"element": "C" 
			},
			{
				"x": -0.8629206723,
				"y": 2.6173825623,
				"z": 0.636417523,
				"element": "C" 
			},
			{
				"x": -1.4693803621,
				"y": 3.7443359458,
				"z": 1.1091586541,
				"element": "C" 
			},
			{
				"x": -1.7690812137,
				"y": 4.5578579889,
				"z": -0.0328955256,
				"element": "C" 
			},
			{
				"x": -1.3216672617,
				"y": 3.8664336679,
				"z": -1.1152452104,
				"element": "C" 
			},
			{
				"x": -0.7706446744,
				"y": 2.6794830689,
				"z": -0.7282509008,
				"element": "O" 
			},
			{
				"x": -0.6475981416,
				"y": -4.5419092172,
				"z": 0.1486855308,
				"element": "H" 
			},
			{
				"x": 0.8427834303,
				"y": -4.3970002605,
				"z": 1.0938076021,
				"element": "H" 
			},
			{
				"x": -0.3838518688,
				"y": -3.121020686,
				"z": 1.1719125895,
				"element": "H" 
			},
			{
				"x": 1.3248047289,
				"y": -3.842461921,
				"z": -1.2647267918,
				"element": "H" 
			},
			{
				"x": -1.0508264573,
				"y": -1.9826929761,
				"z": -0.919001433,
				"element": "H" 
			},
			{
				"x": -0.7861717156,
				"y": -3.1822383499,
				"z": -2.1760032068,
				"element": "H" 
			},
			{
				"x": -0.5436345293,
				"y": -0.8353824372,
				"z": -2.9728386612,
				"element": "H" 
			},
			{
				"x": 2.1057115279,
				"y": -2.3724526181,
				"z": -3.1363261909,
				"element": "H" 
			},
			{
				"x": 0.6962205939,
				"y": -2.6112588618,
				"z": -4.1799318101,
				"element": "H" 
			},
			{
				"x": 1.5803238481,
				"y": -1.0788373146,
				"z": -4.2148295168,
				"element": "H" 
			},
			{
				"x": 0.4157471311,
				"y": 0.6763489347,
				"z": -1.5607119424,
				"element": "H" 
			},
			{
				"x": 1.9848135465,
				"y": 0.0168080439,
				"z": -2.0351645827,
				"element": "H" 
			},
			{
				"x": 2.7223237634,
				"y": -2.0718516313,
				"z": -0.7898667009,
				"element": "H" 
			},
			{
				"x": 2.1270375024,
				"y": -2.2651376037,
				"z": 0.8511426267,
				"element": "H" 
			},
			{
				"x": 2.8702683529,
				"y": 3.1773999878,
				"z": 3.6922129066,
				"element": "H" 
			},
			{
				"x": -0.7408928264,
				"y": 0.4832875401,
				"z": 0.8449837266,
				"element": "H" 
			},
			{
				"x": -0.6523968745,
				"y": 1.4116878933,
				"z": 2.3535217368,
				"element": "H" 
			},
			{
				"x": -1.6741760548,
				"y": 3.9695975169,
				"z": 2.1460225637,
				"element": "H" 
			},
			{
				"x": -2.248555913,
				"y": 5.5258193375,
				"z": -0.0404315375,
				"element": "H" 
			},
			{
				"x": -1.3150251305,
				"y": 4.063478127,
				"z": -2.1758988206,
				"element": "H" 
			}
		],
		 "valence_orbital": [ 
			{
				"type": "occ",
				"energy": -0.28432,
				"method": "rhf"
			},
			{
				"type": "occ",
				"energy": -0.25514,
				"method": "rhf"
			},
			{
				"type": "occ",
				"energy": -0.24261,
				"method": "rhf"
			},
			{
				"type": "occ",
				"energy": -0.23682,
				"method": "rhf"
			},
			{
				"type": "occ",
				"energy": -0.20926,
				"method": "rhf"
			},
			{
				"type": "unocc",
				"energy": -0.00774,
				"method": "rhf"
			},
			{
				"type": "unocc",
				"energy": 0.01529,
				"method": "rhf"
			},
			{
				"type": "unocc",
				"energy": 0.02608,
				"method": "rhf"
			},
			{
				"type": "unocc",
				"energy": 0.05262,
				"method": "rhf"
			},
			{
				"type": "unocc",
				"energy": 0.05701,
				"method": "rhf"
			}
		],
		"cosmo_sigma_profile": { 
			"-0.025": 0.0,
			"-0.024": 0.0,
			"-0.023": 0.0,
			"-0.022": 0.0,
			"-0.021": 0.0,
			"-0.02": 0.0,
			"-0.019": 0.0,
			"-0.018": 0.0,
			"-0.017": 0.0,
			"-0.016": 0.0,
			"-0.015": 0.0,
			"-0.014": 0.0,
			"-0.013": 0.0,
			"-0.012": 0.832367786409,
			"-0.011": 1.92450109445,
			"-0.01": 1.12520458089,
			"-0.009": 2.48002089555,
			"-0.008": 4.20397865577,
			"-0.007": 9.77802685746,
			"-0.006": 9.90011722385,
			"-0.005": 10.5883065896,
			"-0.004": 13.5092205437,
			"-0.003": 29.5847187678,
			"-0.002": 45.564694947,
			"-0.001": 47.6372175579,
			"0.0": 35.5696700016,
			"0.001": 32.0019967384,
			"0.002": 21.9492621358,
			"0.003": 15.2792591267,
			"0.004": 14.0241219701,
			"0.005": 10.1695956207,
			"0.006": 5.2800420245,
			"0.007": 3.51316459668,
			"0.008": 1.00503215596,
			"0.009": 1.55661412625,
			"0.01": 2.3470385383,
			"0.011": 1.90245645062,
			"0.012": 2.11723801827,
			"0.013": 3.5932557642,
			"0.014": 3.68502415791,
			"0.015": 2.24730437603,
			"0.016": 2.56016667124,
			"0.017": 0.802960785336,
			"0.018": 0.0,
			"0.019": 0.0,
			"0.02": 0.0,
			"0.021": 0.0,
			"0.022": 0.0,
			"0.023": 0.0,
			"0.024": 0.0,
			"0.025": 0.0
		}
	}
}
