{
	 "smiles": "CCC(=O)C1=CC=C(O)C(O)=C1", 
	 "Tm": 418.65, 
	 "num_atms": 22, 
	 "gaussian": { 
		 "optdone": 1, 
		 "sigma_profile": "yes", 
		 "theory": "DFT", 
		 "functional": "B3LYP", 
		 "basiset": "6-31G**", 
		 "properties": { 
			 "R2extent": 2545.2721, 
			 "electric_dipole_moment_norm": 3.57859739144, 
			 "electric_quadrupole_moment_norm": 16.9116698862, 
			 "total_energy": -574.655128539, 
			 "HOMO_LUMO_gap": 0.17317, 
			 "cosmo_polarized_energy": -14.67, 
			 "cosmo_cavitation_energy": 25.9, 
			 "cosmo_dispersion_energy": -19.03, 
			 "cosmo_repulsion_energy": 1.53, 
			 "cosmo_total_nonelectrostatic_energy": 8.4, 
			 "SMD_solvation_energy": 5.67 
		},
		"coords": [
			{
				"x": -0.2388105729,
				"y": 2.2059696743,
				"z": 2.7386363266,
				"element": "C" 
			},
			{
				"x": -0.0729471746,
				"y": 2.6081099323,
				"z": 1.2603811641,
				"element": "C" 
			},
			{
				"x": 0.6732414991,
				"y": 1.5409588223,
				"z": 0.4660356008,
				"element": "C" 
			},
			{
				"x": 1.8800645806,
				"y": 1.6478797122,
				"z": 0.2894843981,
				"element": "O" 
			},
			{
				"x": -0.0671240359,
				"y": 0.3494067294,
				"z": -0.0572344417,
				"element": "C" 
			},
			{
				"x": 0.6708546919,
				"y": -0.6372128897,
				"z": -0.7274798561,
				"element": "C" 
			},
			{
				"x": 0.0395390415,
				"y": -1.7679587926,
				"z": -1.2372083253,
				"element": "C" 
			},
			{
				"x": -1.3365781088,
				"y": -1.9236984816,
				"z": -1.0796233223,
				"element": "C" 
			},
			{
				"x": -2.0571582076,
				"y": -2.9955923243,
				"z": -1.5411872335,
				"element": "O" 
			},
			{
				"x": -2.0919166626,
				"y": -0.9444675799,
				"z": -0.4090336538,
				"element": "C" 
			},
			{
				"x": -3.4372144668,
				"y": -1.0951754818,
				"z": -0.2545724617,
				"element": "O" 
			},
			{
				"x": -1.4550447601,
				"y": 0.1831453827,
				"z": 0.0958140179,
				"element": "C" 
			},
			{
				"x": -0.7314734919,
				"y": 3.0054108939,
				"z": 3.3002526079,
				"element": "H" 
			},
			{
				"x": 0.7377598683,
				"y": 2.0216419413,
				"z": 3.1962974918,
				"element": "H" 
			},
			{
				"x": -0.8387623674,
				"y": 1.2972517962,
				"z": 2.8466083414,
				"element": "H" 
			},
			{
				"x": 0.5282844257,
				"y": 3.5185296275,
				"z": 1.1915341378,
				"element": "H" 
			},
			{
				"x": -1.0514120675,
				"y": 2.8178842407,
				"z": 0.8150844341,
				"element": "H" 
			},
			{
				"x": 1.7395977699,
				"y": -0.4940388754,
				"z": -0.8376188248,
				"element": "H" 
			},
			{
				"x": 0.6117642554,
				"y": -2.532912452,
				"z": -1.7581322755,
				"element": "H" 
			},
			{
				"x": -1.4719903067,
				"y": -3.6194834874,
				"z": -1.9886104141,
				"element": "H" 
			},
			{
				"x": -3.6895625089,
				"y": -1.9325716202,
				"z": -0.6711501053,
				"element": "H" 
			},
			{
				"x": -2.0676114006,
				"y": 0.9181232322,
				"z": 0.6050223936,
				"element": "H" 
			}
		],
		 "valence_orbital": [ 
			{
				"type": "occ",
				"energy": -0.34532,
				"method": "rhf"
			},
			{
				"type": "occ",
				"energy": -0.32201,
				"method": "rhf"
			},
			{
				"type": "occ",
				"energy": -0.25063,
				"method": "rhf"
			},
			{
				"type": "occ",
				"energy": -0.23781,
				"method": "rhf"
			},
			{
				"type": "occ",
				"energy": -0.2187,
				"method": "rhf"
			},
			{
				"type": "unocc",
				"energy": -0.04553,
				"method": "rhf"
			},
			{
				"type": "unocc",
				"energy": -0.00187,
				"method": "rhf"
			},
			{
				"type": "unocc",
				"energy": 0.04407,
				"method": "rhf"
			},
			{
				"type": "unocc",
				"energy": 0.05398,
				"method": "rhf"
			},
			{
				"type": "unocc",
				"energy": 0.0889,
				"method": "rhf"
			}
		],
		"cosmo_sigma_profile": { 
			"-0.025": 0.0,
			"-0.024": 0.0,
			"-0.023": 0.0,
			"-0.022": 0.0,
			"-0.021": 0.0,
			"-0.02": 0.0,
			"-0.019": 0.568245985185,
			"-0.018": 1.12598388103,
			"-0.017": 1.1976009259,
			"-0.016": 1.08367502652,
			"-0.015": 1.13735712277,
			"-0.014": 1.69502567676,
			"-0.013": 1.37906064179,
			"-0.012": 1.31452933486,
			"-0.011": 1.69393657421,
			"-0.01": 2.11140111474,
			"-0.009": 1.62146905876,
			"-0.008": 1.97467853245,
			"-0.007": 4.45161939783,
			"-0.006": 5.28467587326,
			"-0.005": 6.89105614103,
			"-0.004": 11.9156206593,
			"-0.003": 15.9478885347,
			"-0.002": 16.7557116422,
			"-0.001": 19.0512054074,
			"0.0": 17.3316075741,
			"0.001": 12.6391948016,
			"0.002": 13.8203318248,
			"0.003": 14.6637332964,
			"0.004": 12.8161601011,
			"0.005": 6.22149428838,
			"0.006": 5.01696575675,
			"0.007": 3.53484630848,
			"0.008": 3.16586630052,
			"0.009": 2.59362865397,
			"0.01": 4.03794103831,
			"0.011": 4.01672635601,
			"0.012": 4.17151154011,
			"0.013": 2.98299211179,
			"0.014": 0.783516783403,
			"0.015": 0.0115805324929,
			"0.016": 0.0,
			"0.017": 0.0,
			"0.018": 0.0,
			"0.019": 0.0,
			"0.02": 0.0,
			"0.021": 0.0,
			"0.022": 0.0,
			"0.023": 0.0,
			"0.024": 0.0,
			"0.025": 0.0
		}
	}
}
