{
	 "smiles": "FC(F)(F)S(=O)(=O)N(C1=NC=C(Cl)C=C1)S(=O)(=O)C(F)(F)F", 
	 "Tm": 319.15, 
	 "num_atms": 25, 
	 "gaussian": { 
		 "optdone": 1, 
		 "sigma_profile": "yes", 
		 "theory": "DFT", 
		 "functional": "B3LYP", 
		 "basiset": "6-31G**", 
		 "properties": { 
			 "R2extent": 9078.9233, 
			 "electric_dipole_moment_norm": 3.4874451924, 
			 "electric_quadrupole_moment_norm": 19.1075237446, 
			 "total_energy": -2534.35524847, 
			 "HOMO_LUMO_gap": 0.20938, 
			 "cosmo_polarized_energy": -11.69, 
			 "cosmo_cavitation_energy": 37.57, 
			 "cosmo_dispersion_energy": -25.89, 
			 "cosmo_repulsion_energy": 1.78, 
			 "cosmo_total_nonelectrostatic_energy": 13.47, 
			 "SMD_solvation_energy": 6.18 
		},
		"coords": [
			{
				"x": -0.2100148144,
				"y": 1.9116685225,
				"z": -4.3458779373,
				"element": "F" 
			},
			{
				"x": 0.7148108045,
				"y": 2.6793262882,
				"z": -3.7583946284,
				"element": "C" 
			},
			{
				"x": 0.6319954355,
				"y": 3.9179576303,
				"z": -4.2350198838,
				"element": "F" 
			},
			{
				"x": 1.9194413442,
				"y": 2.1800209374,
				"z": -3.986388633,
				"element": "F" 
			},
			{
				"x": 0.3621981952,
				"y": 2.7617902427,
				"z": -1.9147107238,
				"element": "S" 
			},
			{
				"x": 1.4487555244,
				"y": 3.5036406579,
				"z": -1.3026993098,
				"element": "O" 
			},
			{
				"x": -1.0391966746,
				"y": 3.1284983263,
				"z": -1.7859052604,
				"element": "O" 
			},
			{
				"x": 0.4643783953,
				"y": 1.0854831069,
				"z": -1.488688572,
				"element": "N" 
			},
			{
				"x": -0.7678166187,
				"y": 0.3895491008,
				"z": -1.1893197787,
				"element": "C" 
			},
			{
				"x": -1.1306667446,
				"y": 0.361505141,
				"z": 0.0895641338,
				"element": "N" 
			},
			{
				"x": -2.2518350336,
				"y": -0.2848338136,
				"z": 0.4087352838,
				"element": "C" 
			},
			{
				"x": -3.0499252143,
				"y": -0.9094500984,
				"z": -0.5556581456,
				"element": "C" 
			},
			{
				"x": -4.5137346089,
				"y": -1.724421711,
				"z": -0.0720011148,
				"element": "Cl" 
			},
			{
				"x": -2.6632678248,
				"y": -0.8780228842,
				"z": -1.8944264813,
				"element": "C" 
			},
			{
				"x": -1.4826575141,
				"y": -0.2166306072,
				"z": -2.221410976,
				"element": "C" 
			},
			{
				"x": 1.939211775,
				"y": 0.3493009684,
				"z": -0.9525916366,
				"element": "S" 
			},
			{
				"x": 3.0379048062,
				"y": 1.0212162908,
				"z": -1.6211942617,
				"element": "O" 
			},
			{
				"x": 1.7067986293,
				"y": -1.0841683615,
				"z": -1.0316897799,
				"element": "O" 
			},
			{
				"x": 2.0502663495,
				"y": 0.7925678506,
				"z": 0.8923073988,
				"element": "C" 
			},
			{
				"x": 1.4795854526,
				"y": -0.1675477679,
				"z": 1.6065381834,
				"element": "F" 
			},
			{
				"x": 3.3450497376,
				"y": 0.8663879921,
				"z": 1.1879884721,
				"element": "F" 
			},
			{
				"x": 1.4621289568,
				"y": 1.9564396334,
				"z": 1.1302922653,
				"element": "F" 
			},
			{
				"x": -2.5320142916,
				"y": -0.3088095932,
				"z": 1.45798758,
				"element": "H" 
			},
			{
				"x": -3.2638328224,
				"y": -1.3641474282,
				"z": -2.6549886667,
				"element": "H" 
			},
			{
				"x": -1.1253632439,
				"y": -0.1664204241,
				"z": -3.2421475274,
				"element": "H" 
			}
		],
		 "valence_orbital": [ 
			{
				"type": "occ",
				"energy": -0.34048,
				"method": "rhf"
			},
			{
				"type": "occ",
				"energy": -0.33631,
				"method": "rhf"
			},
			{
				"type": "occ",
				"energy": -0.32333,
				"method": "rhf"
			},
			{
				"type": "occ",
				"energy": -0.30523,
				"method": "rhf"
			},
			{
				"type": "occ",
				"energy": -0.28456,
				"method": "rhf"
			},
			{
				"type": "unocc",
				"energy": -0.07518,
				"method": "rhf"
			},
			{
				"type": "unocc",
				"energy": -0.0616,
				"method": "rhf"
			},
			{
				"type": "unocc",
				"energy": -0.03264,
				"method": "rhf"
			},
			{
				"type": "unocc",
				"energy": 0.00367,
				"method": "rhf"
			},
			{
				"type": "unocc",
				"energy": 0.01579,
				"method": "rhf"
			}
		],
		"cosmo_sigma_profile": { 
			"-0.025": 0.0,
			"-0.024": 0.0,
			"-0.023": 0.0,
			"-0.022": 0.0,
			"-0.021": 0.0,
			"-0.02": 0.0,
			"-0.019": 0.0,
			"-0.018": 0.0,
			"-0.017": 0.0,
			"-0.016": 0.0,
			"-0.015": 0.0,
			"-0.014": 0.0,
			"-0.013": 0.0,
			"-0.012": 0.0,
			"-0.011": 0.0,
			"-0.01": 1.41766136445,
			"-0.009": 6.129795043,
			"-0.008": 7.34598314326,
			"-0.007": 7.77960541793,
			"-0.006": 8.27686745462,
			"-0.005": 8.37269413839,
			"-0.004": 12.8646029285,
			"-0.003": 20.6463386082,
			"-0.002": 33.703331026,
			"-0.001": 30.2291165103,
			"0.0": 46.7759418738,
			"0.001": 23.2435624519,
			"0.002": 19.1022788267,
			"0.003": 19.9164525825,
			"0.004": 10.3275246464,
			"0.005": 9.38207524963,
			"0.006": 12.1038780517,
			"0.007": 21.1856946783,
			"0.008": 7.5623330286,
			"0.009": 0.0185404258399,
			"0.01": 0.0,
			"0.011": 0.0,
			"0.012": 0.0,
			"0.013": 0.0,
			"0.014": 0.0,
			"0.015": 0.0,
			"0.016": 0.0,
			"0.017": 0.0,
			"0.018": 0.0,
			"0.019": 0.0,
			"0.02": 0.0,
			"0.021": 0.0,
			"0.022": 0.0,
			"0.023": 0.0,
			"0.024": 0.0,
			"0.025": 0.0
		}
	}
}
