{
	 "smiles": "CCOC(=O)C1=CSC(NC(=O)CCl)=N1", 
	 "Tm": 482.15, 
	 "num_atms": 24, 
	 "gaussian": { 
		 "optdone": 1, 
		 "sigma_profile": "yes", 
		 "theory": "DFT", 
		 "functional": "B3LYP", 
		 "basiset": "6-31G**", 
		 "properties": { 
			 "R2extent": 6783.2731, 
			 "electric_dipole_moment_norm": 2.35274360269, 
			 "electric_quadrupole_moment_norm": 10.0126010886, 
			 "total_energy": -1503.85319454, 
			 "HOMO_LUMO_gap": 0.18992, 
			 "cosmo_polarized_energy": -15.18, 
			 "cosmo_cavitation_energy": 33.0, 
			 "cosmo_dispersion_energy": -24.86, 
			 "cosmo_repulsion_energy": 1.96, 
			 "cosmo_total_nonelectrostatic_energy": 10.1, 
			 "SMD_solvation_energy": 5.75 
		},
		"coords": [
			{
				"x": 1.4317617456,
				"y": 0.2544452757,
				"z": 5.1036661957,
				"element": "C" 
			},
			{
				"x": 0.0754955943,
				"y": 0.8276357659,
				"z": 4.7399184976,
				"element": "C" 
			},
			{
				"x": -0.2746164615,
				"y": 0.3140724577,
				"z": 3.4343928719,
				"element": "O" 
			},
			{
				"x": -1.4593338574,
				"y": 0.7236946375,
				"z": 2.9501434243,
				"element": "C" 
			},
			{
				"x": -2.2173030974,
				"y": 1.4745229485,
				"z": 3.5355394682,
				"element": "O" 
			},
			{
				"x": -1.7527610055,
				"y": 0.1578397297,
				"z": 1.6077505967,
				"element": "C" 
			},
			{
				"x": -2.9107795916,
				"y": 0.4530998932,
				"z": 0.9411921561,
				"element": "C" 
			},
			{
				"x": -2.9578227827,
				"y": -0.3554287119,
				"z": -0.5887791717,
				"element": "S" 
			},
			{
				"x": -1.3814249665,
				"y": -1.0375717555,
				"z": -0.1944962245,
				"element": "C" 
			},
			{
				"x": -0.6894264336,
				"y": -1.894308445,
				"z": -1.0422336226,
				"element": "N" 
			},
			{
				"x": -1.1310891831,
				"y": -2.3102257575,
				"z": -2.2637675902,
				"element": "C" 
			},
			{
				"x": -2.1996617554,
				"y": -1.9676534682,
				"z": -2.7503051445,
				"element": "O" 
			},
			{
				"x": -0.2387556683,
				"y": -3.2555507843,
				"z": -3.064426376,
				"element": "C" 
			},
			{
				"x": 1.3290787397,
				"y": -3.7288623989,
				"z": -2.2954225556,
				"element": "Cl" 
			},
			{
				"x": -0.8842449266,
				"y": -0.6926971038,
				"z": 0.9553196464,
				"element": "N" 
			},
			{
				"x": 1.7362299107,
				"y": 0.6195064426,
				"z": 6.0895629727,
				"element": "H" 
			},
			{
				"x": 2.1904230378,
				"y": 0.5540165668,
				"z": 4.3751220056,
				"element": "H" 
			},
			{
				"x": 1.3981365525,
				"y": -0.8382361968,
				"z": 5.1353302641,
				"element": "H" 
			},
			{
				"x": -0.7013275078,
				"y": 0.5360751616,
				"z": 5.4540552557,
				"element": "H" 
			},
			{
				"x": 0.0870630688,
				"y": 1.9214966546,
				"z": 4.6976105006,
				"element": "H" 
			},
			{
				"x": -3.7111347385,
				"y": 1.0940130317,
				"z": 1.2806733973,
				"element": "H" 
			},
			{
				"x": 0.2068733891,
				"y": -2.2137539745,
				"z": -0.6922020629,
				"element": "H" 
			},
			{
				"x": -0.7997479935,
				"y": -4.1706467046,
				"z": -3.2574138783,
				"element": "H" 
			},
			{
				"x": -0.0067320691,
				"y": -2.7785832647,
				"z": -4.0173306267,
				"element": "H" 
			}
		],
		 "valence_orbital": [ 
			{
				"type": "occ",
				"energy": -0.29739,
				"method": "rhf"
			},
			{
				"type": "occ",
				"energy": -0.2911,
				"method": "rhf"
			},
			{
				"type": "occ",
				"energy": -0.28776,
				"method": "rhf"
			},
			{
				"type": "occ",
				"energy": -0.27201,
				"method": "rhf"
			},
			{
				"type": "occ",
				"energy": -0.24002,
				"method": "rhf"
			},
			{
				"type": "unocc",
				"energy": -0.0501,
				"method": "rhf"
			},
			{
				"type": "unocc",
				"energy": -0.02798,
				"method": "rhf"
			},
			{
				"type": "unocc",
				"energy": -0.00374,
				"method": "rhf"
			},
			{
				"type": "unocc",
				"energy": 0.01832,
				"method": "rhf"
			},
			{
				"type": "unocc",
				"energy": 0.0287,
				"method": "rhf"
			}
		],
		"cosmo_sigma_profile": { 
			"-0.025": 0.0,
			"-0.024": 0.0,
			"-0.023": 0.0,
			"-0.022": 0.0,
			"-0.021": 0.0,
			"-0.02": 0.0,
			"-0.019": 0.0,
			"-0.018": 0.0,
			"-0.017": 0.0,
			"-0.016": 0.0,
			"-0.015": 0.0,
			"-0.014": 0.0,
			"-0.013": 0.31141440158,
			"-0.012": 0.730056755928,
			"-0.011": 1.06756739061,
			"-0.01": 5.12590748909,
			"-0.009": 7.3835035631,
			"-0.008": 6.65763055182,
			"-0.007": 8.06896138143,
			"-0.006": 8.34820696267,
			"-0.005": 12.5442524314,
			"-0.004": 19.4297357918,
			"-0.003": 22.5635621836,
			"-0.002": 23.3604293709,
			"-0.001": 21.3141050243,
			"0.0": 22.9948805118,
			"0.001": 19.0673277956,
			"0.002": 13.7622873536,
			"0.003": 11.6721747309,
			"0.004": 10.833576834,
			"0.005": 10.7829188525,
			"0.006": 5.14177113337,
			"0.007": 4.17183256556,
			"0.008": 5.17861066109,
			"0.009": 3.76864975113,
			"0.01": 6.67391550873,
			"0.011": 6.63041095067,
			"0.012": 6.64268950231,
			"0.013": 1.60617356128,
			"0.014": 1.03227827799,
			"0.015": 0.594875363275,
			"0.016": 0.0,
			"0.017": 0.0,
			"0.018": 0.0,
			"0.019": 0.0,
			"0.02": 0.0,
			"0.021": 0.0,
			"0.022": 0.0,
			"0.023": 0.0,
			"0.024": 0.0,
			"0.025": 0.0
		}
	}
}
