{
	 "smiles": "OC(=O)C1=C(OCC2=CSC=N2)C=CC=C1", 
	 "Tm": 392.15, 
	 "num_atms": 25, 
	 "gaussian": { 
		 "optdone": 1, 
		 "sigma_profile": "yes", 
		 "theory": "DFT", 
		 "functional": "B3LYP", 
		 "basiset": "6-31G**", 
		 "properties": { 
			 "R2extent": 4444.6094, 
			 "electric_dipole_moment_norm": 2.92096939217, 
			 "electric_quadrupole_moment_norm": 9.57195048357, 
			 "total_energy": -1103.18948383, 
			 "HOMO_LUMO_gap": 0.19744, 
			 "cosmo_polarized_energy": -14.37, 
			 "cosmo_cavitation_energy": 31.64, 
			 "cosmo_dispersion_energy": -22.79, 
			 "cosmo_repulsion_energy": 1.74, 
			 "cosmo_total_nonelectrostatic_energy": 10.59, 
			 "SMD_solvation_energy": 5.64 
		},
		"coords": [
			{
				"x": -3.5660861115,
				"y": -1.5513170033,
				"z": 2.421132401,
				"element": "O" 
			},
			{
				"x": -2.6234985059,
				"y": -0.8362616769,
				"z": 1.7498029848,
				"element": "C" 
			},
			{
				"x": -2.8794523791,
				"y": 0.2641231047,
				"z": 1.2988081039,
				"element": "O" 
			},
			{
				"x": -1.3308401091,
				"y": -1.5630716667,
				"z": 1.6486946626,
				"element": "C" 
			},
			{
				"x": -0.1204752492,
				"y": -0.8973425658,
				"z": 1.3418353427,
				"element": "C" 
			},
			{
				"x": -0.0362910451,
				"y": 0.4619243145,
				"z": 1.1972056165,
				"element": "O" 
			},
			{
				"x": -0.3457102469,
				"y": 1.0223969834,
				"z": -0.0935824716,
				"element": "C" 
			},
			{
				"x": 0.6108820431,
				"y": 0.5980121489,
				"z": -1.1724167705,
				"element": "C" 
			},
			{
				"x": 0.2669710666,
				"y": -0.1066941919,
				"z": -2.2943006667,
				"element": "C" 
			},
			{
				"x": 1.656008226,
				"y": -0.3718263451,
				"z": -3.2932660577,
				"element": "S" 
			},
			{
				"x": 2.6109954651,
				"y": 0.4901347139,
				"z": -2.1057779498,
				"element": "C" 
			},
			{
				"x": 1.9508208466,
				"y": 0.9300218052,
				"z": -1.0785646994,
				"element": "N" 
			},
			{
				"x": 1.0733366016,
				"y": -1.6258582495,
				"z": 1.2878490397,
				"element": "C" 
			},
			{
				"x": 1.0816630513,
				"y": -2.999038473,
				"z": 1.5167606701,
				"element": "C" 
			},
			{
				"x": -0.1089538766,
				"y": -3.6668949373,
				"z": 1.81453832,
				"element": "C" 
			},
			{
				"x": -1.2970957145,
				"y": -2.9490721846,
				"z": 1.8891934816,
				"element": "C" 
			},
			{
				"x": -4.3648953655,
				"y": -0.999044297,
				"z": 2.404719395,
				"element": "H" 
			},
			{
				"x": -0.2729036258,
				"y": 2.1009166889,
				"z": 0.0666653277,
				"element": "H" 
			},
			{
				"x": -1.3751892285,
				"y": 0.7804623561,
				"z": -0.3667481672,
				"element": "H" 
			},
			{
				"x": -0.7080630241,
				"y": -0.4768072463,
				"z": -2.5776279331,
				"element": "H" 
			},
			{
				"x": 3.6748908311,
				"y": 0.6332103159,
				"z": -2.2549836204,
				"element": "H" 
			},
			{
				"x": 1.9847155531,
				"y": -1.0804766786,
				"z": 1.0686475186,
				"element": "H" 
			},
			{
				"x": 2.0182294735,
				"y": -3.5471808566,
				"z": 1.4659342763,
				"element": "H" 
			},
			{
				"x": -0.109116472,
				"y": -4.7369768862,
				"z": 1.9968788407,
				"element": "H" 
			},
			{
				"x": -2.2236422041,
				"y": -3.4538391727,
				"z": 2.136102355,
				"element": "H" 
			}
		],
		 "valence_orbital": [ 
			{
				"type": "occ",
				"energy": -0.27846,
				"method": "rhf"
			},
			{
				"type": "occ",
				"energy": -0.26957,
				"method": "rhf"
			},
			{
				"type": "occ",
				"energy": -0.262,
				"method": "rhf"
			},
			{
				"type": "occ",
				"energy": -0.25213,
				"method": "rhf"
			},
			{
				"type": "occ",
				"energy": -0.24443,
				"method": "rhf"
			},
			{
				"type": "unocc",
				"energy": -0.04699,
				"method": "rhf"
			},
			{
				"type": "unocc",
				"energy": -0.0311,
				"method": "rhf"
			},
			{
				"type": "unocc",
				"energy": -0.00553,
				"method": "rhf"
			},
			{
				"type": "unocc",
				"energy": 0.01438,
				"method": "rhf"
			},
			{
				"type": "unocc",
				"energy": 0.03138,
				"method": "rhf"
			}
		],
		"cosmo_sigma_profile": { 
			"-0.025": 0.0,
			"-0.024": 0.0,
			"-0.023": 0.0,
			"-0.022": 0.0,
			"-0.021": 0.0,
			"-0.02": 0.0,
			"-0.019": 0.0282357941165,
			"-0.018": 0.696390016541,
			"-0.017": 1.02547796996,
			"-0.016": 0.628846455464,
			"-0.015": 0.601212489514,
			"-0.014": 0.831932405647,
			"-0.013": 0.443886114335,
			"-0.012": 0.999894322149,
			"-0.011": 0.691713462779,
			"-0.01": 2.66289006912,
			"-0.009": 4.99754086675,
			"-0.008": 3.76302594165,
			"-0.007": 7.23035230234,
			"-0.006": 14.2186297212,
			"-0.005": 13.4749874939,
			"-0.004": 14.939523506,
			"-0.003": 14.2461632347,
			"-0.002": 15.894755181,
			"-0.001": 16.9043321345,
			"0.0": 18.0800467236,
			"0.001": 24.6525689662,
			"0.002": 24.9525107404,
			"0.003": 21.2559522824,
			"0.004": 12.2310510826,
			"0.005": 5.40348767459,
			"0.006": 4.81635753145,
			"0.007": 4.41373417853,
			"0.008": 5.08874598479,
			"0.009": 4.5548651581,
			"0.01": 4.64391297556,
			"0.011": 6.40955981684,
			"0.012": 3.0250218021,
			"0.013": 0.908328560302,
			"0.014": 0.908128651361,
			"0.015": 0.550054542307,
			"0.016": 0.0712939482295,
			"0.017": 0.0,
			"0.018": 0.0,
			"0.019": 0.0,
			"0.02": 0.0,
			"0.021": 0.0,
			"0.022": 0.0,
			"0.023": 0.0,
			"0.024": 0.0,
			"0.025": 0.0
		}
	}
}
