{
	 "smiles": "CC1=CC(C)=C(C=C1)N1C(S)=NN=C1C1=NC=CC=C1", 
	 "Tm": 508.15, 
	 "num_atms": 34, 
	 "gaussian": { 
		 "optdone": 1, 
		 "sigma_profile": "yes", 
		 "theory": "DFT", 
		 "functional": "B3LYP", 
		 "basiset": "6-31G**", 
		 "properties": { 
			 "R2extent": 6175.1185, 
			 "electric_dipole_moment_norm": 4.34454031976, 
			 "electric_quadrupole_moment_norm": 12.8477241775, 
			 "total_energy": -1197.2150814, 
			 "HOMO_LUMO_gap": 0.17339, 
			 "cosmo_polarized_energy": -14.77, 
			 "cosmo_cavitation_energy": 39.81, 
			 "cosmo_dispersion_energy": -27.29, 
			 "cosmo_repulsion_energy": 2.07, 
			 "cosmo_total_nonelectrostatic_energy": 14.59, 
			 "SMD_solvation_energy": 4.49 
		},
		"coords": [
			{
				"x": -0.2754238702,
				"y": 4.7760057791,
				"z": 0.3246209421,
				"element": "C" 
			},
			{
				"x": 0.2069805662,
				"y": 3.3466753848,
				"z": 0.4005259279,
				"element": "C" 
			},
			{
				"x": 0.875241455,
				"y": 2.7609569146,
				"z": -0.6834827293,
				"element": "C" 
			},
			{
				"x": 1.3157923406,
				"y": 1.4349818062,
				"z": -0.6706518652,
				"element": "C" 
			},
			{
				"x": 2.0005736768,
				"y": 0.8264971555,
				"z": -1.8660862429,
				"element": "C" 
			},
			{
				"x": 1.067207039,
				"y": 0.6847650583,
				"z": 0.4909452353,
				"element": "C" 
			},
			{
				"x": 0.4122827355,
				"y": 1.2436864071,
				"z": 1.5874832509,
				"element": "C" 
			},
			{
				"x": -0.0175317712,
				"y": 2.5682548534,
				"z": 1.5408559243,
				"element": "C" 
			},
			{
				"x": 1.5458245306,
				"y": -0.6699894286,
				"z": 0.5964744498,
				"element": "N" 
			},
			{
				"x": 2.7182738599,
				"y": -1.043965576,
				"z": 1.2063297836,
				"element": "C" 
			},
			{
				"x": 3.8618798668,
				"y": 0.1315656798,
				"z": 1.8592069469,
				"element": "S" 
			},
			{
				"x": 2.8564774996,
				"y": -2.3521640171,
				"z": 1.2279389902,
				"element": "N" 
			},
			{
				"x": 1.7433869284,
				"y": -2.8750202041,
				"z": 0.6203535259,
				"element": "N" 
			},
			{
				"x": 0.9637928367,
				"y": -1.8810751073,
				"z": 0.2455154429,
				"element": "C" 
			},
			{
				"x": -0.3219346131,
				"y": -2.0718986832,
				"z": -0.4370315717,
				"element": "C" 
			},
			{
				"x": -0.8935958037,
				"y": -1.0062346212,
				"z": -1.0201959001,
				"element": "N" 
			},
			{
				"x": -2.061047746,
				"y": -1.189643768,
				"z": -1.6468478744,
				"element": "C" 
			},
			{
				"x": -2.7069639759,
				"y": -2.4221714353,
				"z": -1.7322533652,
				"element": "C" 
			},
			{
				"x": -2.1003351326,
				"y": -3.5275911105,
				"z": -1.1303543606,
				"element": "C" 
			},
			{
				"x": -0.8908885713,
				"y": -3.3567904391,
				"z": -0.4683735921,
				"element": "C" 
			},
			{
				"x": -1.2419406377,
				"y": 4.8390864386,
				"z": -0.1908175494,
				"element": "H" 
			},
			{
				"x": -0.4078377547,
				"y": 5.2071999788,
				"z": 1.3209624228,
				"element": "H" 
			},
			{
				"x": 0.427309804,
				"y": 5.4070903463,
				"z": -0.228168466,
				"element": "H" 
			},
			{
				"x": 1.0607763872,
				"y": 3.3583824659,
				"z": -1.5733699983,
				"element": "H" 
			},
			{
				"x": 2.2089005583,
				"y": 1.5858406012,
				"z": -2.6238816402,
				"element": "H" 
			},
			{
				"x": 1.3600342853,
				"y": 0.0592816557,
				"z": -2.3147852906,
				"element": "H" 
			},
			{
				"x": 2.9467442766,
				"y": 0.34760188,
				"z": -1.5942620631,
				"element": "H" 
			},
			{
				"x": 0.2455489313,
				"y": 0.6373287641,
				"z": 2.4723154493,
				"element": "H" 
			},
			{
				"x": -0.5259532348,
				"y": 2.9981611219,
				"z": 2.3994175329,
				"element": "H" 
			},
			{
				"x": 4.7327263186,
				"y": -0.8334986408,
				"z": 2.2129286119,
				"element": "H" 
			},
			{
				"x": -2.497464946,
				"y": -0.3046014482,
				"z": -2.1063299501,
				"element": "H" 
			},
			{
				"x": -3.6535373139,
				"y": -2.5114056281,
				"z": -2.2554651091,
				"element": "H" 
			},
			{
				"x": -2.566714617,
				"y": -4.5075522997,
				"z": -1.1738115113,
				"element": "H" 
			},
			{
				"x": -0.3754839082,
				"y": -4.1770598841,
				"z": 0.017194643,
				"element": "H" 
			}
		],
		 "valence_orbital": [ 
			{
				"type": "occ",
				"energy": -0.27062,
				"method": "rhf"
			},
			{
				"type": "occ",
				"energy": -0.25882,
				"method": "rhf"
			},
			{
				"type": "occ",
				"energy": -0.25104,
				"method": "rhf"
			},
			{
				"type": "occ",
				"energy": -0.2359,
				"method": "rhf"
			},
			{
				"type": "occ",
				"energy": -0.21868,
				"method": "rhf"
			},
			{
				"type": "unocc",
				"energy": -0.04529,
				"method": "rhf"
			},
			{
				"type": "unocc",
				"energy": -0.02428,
				"method": "rhf"
			},
			{
				"type": "unocc",
				"energy": -0.01528,
				"method": "rhf"
			},
			{
				"type": "unocc",
				"energy": -0.00653,
				"method": "rhf"
			},
			{
				"type": "unocc",
				"energy": 0.01728,
				"method": "rhf"
			}
		],
		"cosmo_sigma_profile": { 
			"-0.025": 0.0,
			"-0.024": 0.0,
			"-0.023": 0.0,
			"-0.022": 0.0,
			"-0.021": 0.0,
			"-0.02": 0.0,
			"-0.019": 0.0,
			"-0.018": 0.0,
			"-0.017": 0.0,
			"-0.016": 0.0,
			"-0.015": 0.0,
			"-0.014": 0.0,
			"-0.013": 0.0720810311263,
			"-0.012": 1.46158558464,
			"-0.011": 1.26480092124,
			"-0.01": 1.27183955258,
			"-0.009": 1.02485984557,
			"-0.008": 2.09609473553,
			"-0.007": 8.28628392191,
			"-0.006": 14.4733603394,
			"-0.005": 21.5081245523,
			"-0.004": 24.8954420655,
			"-0.003": 24.4150891723,
			"-0.002": 27.0956649715,
			"-0.001": 28.438682047,
			"0.0": 32.6532910046,
			"0.001": 27.5657314967,
			"0.002": 30.7603551632,
			"0.003": 16.755603162,
			"0.004": 13.2676716148,
			"0.005": 8.68260557171,
			"0.006": 6.17141909806,
			"0.007": 4.52845036885,
			"0.008": 3.36538517523,
			"0.009": 3.43213910259,
			"0.01": 3.05474534131,
			"0.011": 3.06175950596,
			"0.012": 2.94236341772,
			"0.013": 2.86364321613,
			"0.014": 3.10037438854,
			"0.015": 1.6188969113,
			"0.016": 0.734629692718,
			"0.017": 0.0,
			"0.018": 0.0,
			"0.019": 0.0,
			"0.02": 0.0,
			"0.021": 0.0,
			"0.022": 0.0,
			"0.023": 0.0,
			"0.024": 0.0,
			"0.025": 0.0
		}
	}
}
