{
	 "smiles": "CS(=O)(=O)NC1=C(C=CC(F)=C1)C(O)=O", 
	 "Tm": 479.15, 
	 "num_atms": 23, 
	 "gaussian": { 
		 "optdone": 1, 
		 "sigma_profile": "yes", 
		 "theory": "DFT", 
		 "functional": "B3LYP", 
		 "basiset": "6-31G**", 
		 "properties": { 
			 "R2extent": 5072.9013, 
			 "electric_dipole_moment_norm": 3.57126944797, 
			 "electric_quadrupole_moment_norm": 19.6329641491, 
			 "total_energy": -1163.29518105, 
			 "HOMO_LUMO_gap": 0.18619, 
			 "cosmo_polarized_energy": -17.72, 
			 "cosmo_cavitation_energy": 29.31, 
			 "cosmo_dispersion_energy": -21.63, 
			 "cosmo_repulsion_energy": 1.62, 
			 "cosmo_total_nonelectrostatic_energy": 9.3, 
			 "SMD_solvation_energy": 6.32 
		},
		"coords": [
			{
				"x": -0.0972625364,
				"y": 4.2882417829,
				"z": 1.7928062158,
				"element": "C" 
			},
			{
				"x": -0.2539144275,
				"y": 4.1171774871,
				"z": 0.0040612557,
				"element": "S" 
			},
			{
				"x": -1.6720577051,
				"y": 3.9244572368,
				"z": -0.2944279564,
				"element": "O" 
			},
			{
				"x": 0.5329065004,
				"y": 5.1643452307,
				"z": -0.641884122,
				"element": "O" 
			},
			{
				"x": 0.5960762839,
				"y": 2.7002821838,
				"z": -0.353683345,
				"element": "N" 
			},
			{
				"x": 0.3209420358,
				"y": 1.401420991,
				"z": 0.0899270838,
				"element": "C" 
			},
			{
				"x": 1.3448474779,
				"y": 0.4112570335,
				"z": 0.1495109552,
				"element": "C" 
			},
			{
				"x": 1.0131990042,
				"y": -0.8842971786,
				"z": 0.5888457129,
				"element": "C" 
			},
			{
				"x": -0.2693808137,
				"y": -1.2301954803,
				"z": 0.9784061196,
				"element": "C" 
			},
			{
				"x": -1.2462817013,
				"y": -0.2402325069,
				"z": 0.9048039174,
				"element": "C" 
			},
			{
				"x": -2.5049197056,
				"y": -0.5448365367,
				"z": 1.2612109498,
				"element": "F" 
			},
			{
				"x": -0.9863396706,
				"y": 1.0480548759,
				"z": 0.4665717957,
				"element": "C" 
			},
			{
				"x": 2.7707876074,
				"y": 0.5930394944,
				"z": -0.2147475449,
				"element": "C" 
			},
			{
				"x": 3.0960991793,
				"y": 1.8459172704,
				"z": -0.6585055412,
				"element": "O" 
			},
			{
				"x": 3.6215002429,
				"y": -0.2701959304,
				"z": -0.1429619264,
				"element": "O" 
			},
			{
				"x": -0.4979785892,
				"y": 3.3938762623,
				"z": 2.2724789562,
				"element": "H" 
			},
			{
				"x": -0.6830653071,
				"y": 5.1637302239,
				"z": 2.0783130817,
				"element": "H" 
			},
			{
				"x": 0.9547418977,
				"y": 4.4321547289,
				"z": 2.0408840349,
				"element": "H" 
			},
			{
				"x": 1.5487457072,
				"y": 2.8932100162,
				"z": -0.6488775205,
				"element": "H" 
			},
			{
				"x": 1.8142386123,
				"y": -1.6141448354,
				"z": 0.6178811527,
				"element": "H" 
			},
			{
				"x": -0.5226310803,
				"y": -2.2264132795,
				"z": 1.3206371234,
				"element": "H" 
			},
			{
				"x": -1.7993577521,
				"y": 1.7574930212,
				"z": 0.3827770389,
				"element": "H" 
			},
			{
				"x": 4.0441047401,
				"y": 1.8189579087,
				"z": -0.8698274376,
				"element": "H" 
			}
		],
		 "valence_orbital": [ 
			{
				"type": "occ",
				"energy": -0.31924,
				"method": "rhf"
			},
			{
				"type": "occ",
				"energy": -0.31348,
				"method": "rhf"
			},
			{
				"type": "occ",
				"energy": -0.29749,
				"method": "rhf"
			},
			{
				"type": "occ",
				"energy": -0.27076,
				"method": "rhf"
			},
			{
				"type": "occ",
				"energy": -0.24696,
				"method": "rhf"
			},
			{
				"type": "unocc",
				"energy": -0.06077,
				"method": "rhf"
			},
			{
				"type": "unocc",
				"energy": -0.02662,
				"method": "rhf"
			},
			{
				"type": "unocc",
				"energy": 0.04195,
				"method": "rhf"
			},
			{
				"type": "unocc",
				"energy": 0.05114,
				"method": "rhf"
			},
			{
				"type": "unocc",
				"energy": 0.06009,
				"method": "rhf"
			}
		],
		"cosmo_sigma_profile": { 
			"-0.025": 0.0,
			"-0.024": 0.0,
			"-0.023": 0.0,
			"-0.022": 0.0,
			"-0.021": 0.0,
			"-0.02": 0.0,
			"-0.019": 0.41269168683,
			"-0.018": 1.02836496113,
			"-0.017": 0.817223811282,
			"-0.016": 0.912324290866,
			"-0.015": 0.261957407999,
			"-0.014": 1.17844927495,
			"-0.013": 0.791370756241,
			"-0.012": 0.596013881315,
			"-0.011": 0.525858448719,
			"-0.01": 2.00561544329,
			"-0.009": 5.42280461131,
			"-0.008": 6.90007487994,
			"-0.007": 10.7339511542,
			"-0.006": 11.2700187853,
			"-0.005": 15.1818043293,
			"-0.004": 12.2231735857,
			"-0.003": 14.2778562072,
			"-0.002": 11.8143087226,
			"-0.001": 14.531855594,
			"0.0": 17.4738434992,
			"0.001": 19.6131754998,
			"0.002": 15.0479009206,
			"0.003": 13.7094981448,
			"0.004": 10.4864191137,
			"0.005": 3.18842816916,
			"0.006": 4.17887162512,
			"0.007": 3.95549542946,
			"0.008": 5.24255749696,
			"0.009": 5.38404346378,
			"0.01": 11.6716935461,
			"0.011": 12.1318773867,
			"0.012": 2.0838602683,
			"0.013": 0.0,
			"0.014": 0.0,
			"0.015": 0.0,
			"0.016": 0.0,
			"0.017": 0.0,
			"0.018": 0.0,
			"0.019": 0.0,
			"0.02": 0.0,
			"0.021": 0.0,
			"0.022": 0.0,
			"0.023": 0.0,
			"0.024": 0.0,
			"0.025": 0.0
		}
	}
}
