{
	 "smiles": "SCCCCS", 
	 "Tm": 219.25, 
	 "num_atms": 16, 
	 "gaussian": { 
		 "optdone": 1, 
		 "sigma_profile": "yes", 
		 "theory": "DFT", 
		 "functional": "B3LYP", 
		 "basiset": "6-31G**", 
		 "properties": { 
			 "R2extent": 2117.3061, 
			 "electric_dipole_moment_norm": 2.27893071417, 
			 "electric_quadrupole_moment_norm": 7.65570642593, 
			 "total_energy": -954.830949271, 
			 "HOMO_LUMO_gap": 0.25468, 
			 "cosmo_polarized_energy": -8.09, 
			 "cosmo_cavitation_energy": 21.65, 
			 "cosmo_dispersion_energy": -16.67, 
			 "cosmo_repulsion_energy": 1.34, 
			 "cosmo_total_nonelectrostatic_energy": 6.33, 
			 "SMD_solvation_energy": 2.26 
		},
		"coords": [
			{
				"x": -2.7954737963,
				"y": -1.3232202162,
				"z": -2.0210902383,
				"element": "S" 
			},
			{
				"x": -1.4648418133,
				"y": -1.4650839369,
				"z": -0.7502686456,
				"element": "C" 
			},
			{
				"x": -1.0656413138,
				"y": -0.1547921123,
				"z": -0.0592907265,
				"element": "C" 
			},
			{
				"x": -0.400191103,
				"y": 0.9028443074,
				"z": -0.956052287,
				"element": "C" 
			},
			{
				"x": 0.9573493354,
				"y": 0.4689844855,
				"z": -1.5161564887,
				"element": "C" 
			},
			{
				"x": 1.755057616,
				"y": 1.7152989621,
				"z": -2.6138715638,
				"element": "S" 
			},
			{
				"x": -2.0786128262,
				"y": -0.6763126532,
				"z": -2.9615539685,
				"element": "H" 
			},
			{
				"x": -0.6051756436,
				"y": -1.9721347247,
				"z": -1.1969556868,
				"element": "H" 
			},
			{
				"x": -1.8868885453,
				"y": -2.1547598442,
				"z": -0.013761815,
				"element": "H" 
			},
			{
				"x": -1.9585208139,
				"y": 0.2849629219,
				"z": 0.3987645733,
				"element": "H" 
			},
			{
				"x": -0.3834170079,
				"y": -0.4098575684,
				"z": 0.76485744,
				"element": "H" 
			},
			{
				"x": -0.2639473301,
				"y": 1.8181374074,
				"z": -0.3670527907,
				"element": "H" 
			},
			{
				"x": -1.0681764542,
				"y": 1.1720907079,
				"z": -1.7816253896,
				"element": "H" 
			},
			{
				"x": 1.6503443812,
				"y": 0.2066518287,
				"z": -0.7105597826,
				"element": "H" 
			},
			{
				"x": 0.8621064291,
				"y": -0.4139929564,
				"z": -2.1557439979,
				"element": "H" 
			},
			{
				"x": 1.8389288862,
				"y": 2.7030833915,
				"z": -1.6990386322,
				"element": "H" 
			}
		],
		 "valence_orbital": [ 
			{
				"type": "occ",
				"energy": -0.3485,
				"method": "rhf"
			},
			{
				"type": "occ",
				"energy": -0.3256,
				"method": "rhf"
			},
			{
				"type": "occ",
				"energy": -0.31986,
				"method": "rhf"
			},
			{
				"type": "occ",
				"energy": -0.24117,
				"method": "rhf"
			},
			{
				"type": "occ",
				"energy": -0.2393,
				"method": "rhf"
			},
			{
				"type": "unocc",
				"energy": 0.01538,
				"method": "rhf"
			},
			{
				"type": "unocc",
				"energy": 0.03271,
				"method": "rhf"
			},
			{
				"type": "unocc",
				"energy": 0.05999,
				"method": "rhf"
			},
			{
				"type": "unocc",
				"energy": 0.06689,
				"method": "rhf"
			},
			{
				"type": "unocc",
				"energy": 0.09454,
				"method": "rhf"
			}
		],
		"cosmo_sigma_profile": { 
			"-0.025": 0.0,
			"-0.024": 0.0,
			"-0.023": 0.0,
			"-0.022": 0.0,
			"-0.021": 0.0,
			"-0.02": 0.0,
			"-0.019": 0.0,
			"-0.018": 0.0,
			"-0.017": 0.0,
			"-0.016": 0.0,
			"-0.015": 0.0,
			"-0.014": 0.0,
			"-0.013": 0.0,
			"-0.012": 0.0,
			"-0.011": 0.0,
			"-0.01": 0.0,
			"-0.009": 0.664706046161,
			"-0.008": 4.01835480617,
			"-0.007": 6.16099703784,
			"-0.006": 9.19768697124,
			"-0.005": 11.2543294079,
			"-0.004": 15.4540896639,
			"-0.003": 19.6219410384,
			"-0.002": 18.3993107985,
			"-0.001": 13.7357277776,
			"0.0": 10.2232373802,
			"0.001": 6.35938120179,
			"0.002": 6.20657626591,
			"0.003": 6.51698753882,
			"0.004": 6.51611011248,
			"0.005": 7.0016142983,
			"0.006": 7.46103769315,
			"0.007": 5.62436500785,
			"0.008": 6.34077305061,
			"0.009": 4.07713574285,
			"0.01": 4.64316690881,
			"0.011": 3.59970951059,
			"0.012": 0.314213557998,
			"0.013": 0.0,
			"0.014": 0.0,
			"0.015": 0.0,
			"0.016": 0.0,
			"0.017": 0.0,
			"0.018": 0.0,
			"0.019": 0.0,
			"0.02": 0.0,
			"0.021": 0.0,
			"0.022": 0.0,
			"0.023": 0.0,
			"0.024": 0.0,
			"0.025": 0.0
		}
	}
}
