{
	 "smiles": "FC1=CC=C(C=C1)S(=O)(=O)CCS(Cl)(=O)=O", 
	 "Tm": 419.15, 
	 "num_atms": 24, 
	 "gaussian": { 
		 "optdone": 1, 
		 "sigma_profile": "yes", 
		 "theory": "DFT", 
		 "functional": "B3LYP", 
		 "basiset": "6-31G**", 
		 "properties": { 
			 "R2extent": 8135.5807, 
			 "electric_dipole_moment_norm": 6.91257533702, 
			 "electric_quadrupole_moment_norm": 27.4091559551, 
			 "total_energy": -1966.83039718, 
			 "HOMO_LUMO_gap": 0.19519, 
			 "cosmo_polarized_energy": -22.85, 
			 "cosmo_cavitation_energy": 34.06, 
			 "cosmo_dispersion_energy": -24.8, 
			 "cosmo_repulsion_energy": 1.82, 
			 "cosmo_total_nonelectrostatic_energy": 11.07, 
			 "SMD_solvation_energy": 4.25 
		},
		"coords": [
			{
				"x": 0.6285696773,
				"y": -3.5526637845,
				"z": 2.6225685285,
				"element": "F" 
			},
			{
				"x": 0.664271846,
				"y": -2.3695042612,
				"z": 1.98930301,
				"element": "C" 
			},
			{
				"x": -0.2675498505,
				"y": -1.394917495,
				"z": 2.338126,
				"element": "C" 
			},
			{
				"x": -0.2288162615,
				"y": -0.1678738017,
				"z": 1.6802048107,
				"element": "C" 
			},
			{
				"x": 0.73485536,
				"y": 0.046817231,
				"z": 0.6903646672,
				"element": "C" 
			},
			{
				"x": 1.6734257084,
				"y": -0.9344917752,
				"z": 0.3575823433,
				"element": "C" 
			},
			{
				"x": 1.6375543185,
				"y": -2.1619366935,
				"z": 1.0143651717,
				"element": "C" 
			},
			{
				"x": 0.779238022,
				"y": 1.6296332388,
				"z": -0.1520936403,
				"element": "S" 
			},
			{
				"x": 2.1278968437,
				"y": 1.8209704096,
				"z": -0.7110185584,
				"element": "O" 
			},
			{
				"x": 0.1532292428,
				"y": 2.6322331363,
				"z": 0.7189157551,
				"element": "O" 
			},
			{
				"x": -0.3285124899,
				"y": 1.3547612747,
				"z": -1.5872706588,
				"element": "C" 
			},
			{
				"x": -0.2098969609,
				"y": 2.4548701513,
				"z": -2.6392725232,
				"element": "C" 
			},
			{
				"x": -1.2121751024,
				"y": 3.9379972829,
				"z": -2.2372426506,
				"element": "S" 
			},
			{
				"x": -1.4086169379,
				"y": 4.7066963746,
				"z": -4.2266487826,
				"element": "Cl" 
			},
			{
				"x": -0.439443512,
				"y": 4.9164980533,
				"z": -1.4921724388,
				"element": "O" 
			},
			{
				"x": -2.5383678845,
				"y": 3.4956558338,
				"z": -1.8220083149,
				"element": "O" 
			},
			{
				"x": -0.9946445649,
				"y": -1.6020460608,
				"z": 3.1152575187,
				"element": "H" 
			},
			{
				"x": -0.921374936,
				"y": 0.6249594408,
				"z": 1.9418295676,
				"element": "H" 
			},
			{
				"x": 2.4324225255,
				"y": -0.7257079624,
				"z": -0.3887960881,
				"element": "H" 
			},
			{
				"x": 2.3503214891,
				"y": -2.9484054926,
				"z": 0.7929936311,
				"element": "H" 
			},
			{
				"x": -0.0077582216,
				"y": 0.4116829043,
				"z": -2.0383439899,
				"element": "H" 
			},
			{
				"x": -1.3512228611,
				"y": 1.2470892299,
				"z": -1.2185412459,
				"element": "H" 
			},
			{
				"x": 0.818826436,
				"y": 2.7970995522,
				"z": -2.7758180247,
				"element": "H" 
			},
			{
				"x": -0.6125318862,
				"y": 2.1018832135,
				"z": -3.5900840876,
				"element": "H" 
			}
		],
		 "valence_orbital": [ 
			{
				"type": "occ",
				"energy": -0.31927,
				"method": "rhf"
			},
			{
				"type": "occ",
				"energy": -0.31625,
				"method": "rhf"
			},
			{
				"type": "occ",
				"energy": -0.30668,
				"method": "rhf"
			},
			{
				"type": "occ",
				"energy": -0.29664,
				"method": "rhf"
			},
			{
				"type": "occ",
				"energy": -0.28444,
				"method": "rhf"
			},
			{
				"type": "unocc",
				"energy": -0.08925,
				"method": "rhf"
			},
			{
				"type": "unocc",
				"energy": -0.05612,
				"method": "rhf"
			},
			{
				"type": "unocc",
				"energy": -0.04655,
				"method": "rhf"
			},
			{
				"type": "unocc",
				"energy": 0.01735,
				"method": "rhf"
			},
			{
				"type": "unocc",
				"energy": 0.03963,
				"method": "rhf"
			}
		],
		"cosmo_sigma_profile": { 
			"-0.025": 0.0,
			"-0.024": 0.0,
			"-0.023": 0.0,
			"-0.022": 0.0,
			"-0.021": 0.0,
			"-0.02": 0.0,
			"-0.019": 0.0,
			"-0.018": 0.0,
			"-0.017": 0.0,
			"-0.016": 0.0,
			"-0.015": 0.0,
			"-0.014": 0.0,
			"-0.013": 0.0,
			"-0.012": 1.23435523166,
			"-0.011": 6.18277357492,
			"-0.01": 5.91380016263,
			"-0.009": 9.02363570128,
			"-0.008": 13.5845491289,
			"-0.007": 14.5459884569,
			"-0.006": 11.7746122438,
			"-0.005": 9.60412672955,
			"-0.004": 9.23317911999,
			"-0.003": 8.52095239482,
			"-0.002": 12.9880670877,
			"-0.001": 17.9041973418,
			"0.0": 21.8582919455,
			"0.001": 21.9081892759,
			"0.002": 16.5796952116,
			"0.003": 22.244863415,
			"0.004": 13.77741433,
			"0.005": 5.67996252466,
			"0.006": 5.97679000445,
			"0.007": 8.32174895409,
			"0.008": 14.9698433683,
			"0.009": 6.80477067711,
			"0.01": 9.00674088276,
			"0.011": 6.18094249518,
			"0.012": 1.56916976041,
			"0.013": 0.0,
			"0.014": 0.0,
			"0.015": 0.0,
			"0.016": 0.0,
			"0.017": 0.0,
			"0.018": 0.0,
			"0.019": 0.0,
			"0.02": 0.0,
			"0.021": 0.0,
			"0.022": 0.0,
			"0.023": 0.0,
			"0.024": 0.0,
			"0.025": 0.0
		}
	}
}
