{
	 "smiles": "NC1=C(Cl)C=C(C=N1)C(F)(F)F", 
	 "Tm": 361.15, 
	 "num_atms": 16, 
	 "gaussian": { 
		 "optdone": 1, 
		 "sigma_profile": "yes", 
		 "theory": "DFT", 
		 "functional": "B3LYP", 
		 "basiset": "6-31G**", 
		 "properties": { 
			 "R2extent": 2785.1501, 
			 "electric_dipole_moment_norm": 2.95545485839, 
			 "electric_quadrupole_moment_norm": 3.98121758637, 
			 "total_energy": -1100.27828478, 
			 "HOMO_LUMO_gap": 0.19369, 
			 "cosmo_polarized_energy": -7.49, 
			 "cosmo_cavitation_energy": 23.82, 
			 "cosmo_dispersion_energy": -17.47, 
			 "cosmo_repulsion_energy": 1.34, 
			 "cosmo_total_nonelectrostatic_energy": 7.69, 
			 "SMD_solvation_energy": 3.63 
		},
		"coords": [
			{
				"x": 0.7157463643,
				"y": 1.6471993874,
				"z": -2.1294951863,
				"element": "N" 
			},
			{
				"x": 0.352719241,
				"y": 0.9868137862,
				"z": -0.9954705886,
				"element": "C" 
			},
			{
				"x": -1.0057735765,
				"y": 0.7524839985,
				"z": -0.6593549741,
				"element": "C" 
			},
			{
				"x": -2.2794004523,
				"y": 1.2845499446,
				"z": -1.7474083128,
				"element": "Cl" 
			},
			{
				"x": -1.3186576857,
				"y": 0.109122612,
				"z": 0.5207439183,
				"element": "C" 
			},
			{
				"x": -0.2758159426,
				"y": -0.2970894369,
				"z": 1.3638452154,
				"element": "C" 
			},
			{
				"x": 1.0315958064,
				"y": -0.0306360455,
				"z": 0.9599681722,
				"element": "C" 
			},
			{
				"x": 1.3427728353,
				"y": 0.58737208,
				"z": -0.1794556816,
				"element": "N" 
			},
			{
				"x": -0.5692989856,
				"y": -1.0451126185,
				"z": 2.6278718009,
				"element": "C" 
			},
			{
				"x": -1.6959393932,
				"y": -0.5904871621,
				"z": 3.2243151036,
				"element": "F" 
			},
			{
				"x": -0.7593041477,
				"y": -2.3678565621,
				"z": 2.4049628632,
				"element": "F" 
			},
			{
				"x": 0.4401173619,
				"y": -0.938660153,
				"z": 3.5191215793,
				"element": "F" 
			},
			{
				"x": 0.0467619815,
				"y": 1.7822145131,
				"z": -2.8696072241,
				"element": "H" 
			},
			{
				"x": 1.6969783636,
				"y": 1.6338228898,
				"z": -2.3598791075,
				"element": "H" 
			},
			{
				"x": -2.3540713122,
				"y": -0.0680904764,
				"z": 0.7891547962,
				"element": "H" 
			},
			{
				"x": 1.8680695416,
				"y": -0.3257467569,
				"z": 1.5878876257,
				"element": "H" 
			}
		],
		 "valence_orbital": [ 
			{
				"type": "occ",
				"energy": -0.3429,
				"method": "rhf"
			},
			{
				"type": "occ",
				"energy": -0.33875,
				"method": "rhf"
			},
			{
				"type": "occ",
				"energy": -0.28972,
				"method": "rhf"
			},
			{
				"type": "occ",
				"energy": -0.2787,
				"method": "rhf"
			},
			{
				"type": "occ",
				"energy": -0.23429,
				"method": "rhf"
			},
			{
				"type": "unocc",
				"energy": -0.0406,
				"method": "rhf"
			},
			{
				"type": "unocc",
				"energy": -0.02271,
				"method": "rhf"
			},
			{
				"type": "unocc",
				"energy": 0.01541,
				"method": "rhf"
			},
			{
				"type": "unocc",
				"energy": 0.07961,
				"method": "rhf"
			},
			{
				"type": "unocc",
				"energy": 0.11473,
				"method": "rhf"
			}
		],
		"cosmo_sigma_profile": { 
			"-0.025": 0.0,
			"-0.024": 0.0,
			"-0.023": 0.0,
			"-0.022": 0.0,
			"-0.021": 0.0,
			"-0.02": 0.0,
			"-0.019": 0.0,
			"-0.018": 0.0,
			"-0.017": 0.0,
			"-0.016": 0.0,
			"-0.015": 0.0576504555798,
			"-0.014": 0.980765312467,
			"-0.013": 1.8324874457,
			"-0.012": 2.00472189636,
			"-0.011": 2.46502866435,
			"-0.01": 1.36360103909,
			"-0.009": 2.52237325523,
			"-0.008": 3.73841108395,
			"-0.007": 4.4897867341,
			"-0.006": 5.35871299943,
			"-0.005": 5.60941826752,
			"-0.004": 5.50754534562,
			"-0.003": 7.34140542049,
			"-0.002": 9.79541031083,
			"-0.001": 14.4957227736,
			"0.0": 23.9607520513,
			"0.001": 20.400392354,
			"0.002": 22.5257312799,
			"0.003": 35.1228119877,
			"0.004": 10.7687760089,
			"0.005": 2.6366749006,
			"0.006": 2.23704861742,
			"0.007": 2.12957390784,
			"0.008": 1.71366902769,
			"0.009": 0.347222920171,
			"0.01": 0.847088509559,
			"0.011": 1.09481623387,
			"0.012": 0.836479883782,
			"0.013": 0.82514293039,
			"0.014": 0.51687000005,
			"0.015": 0.0411774125671,
			"0.016": 0.0,
			"0.017": 0.0,
			"0.018": 0.0,
			"0.019": 0.0,
			"0.02": 0.0,
			"0.021": 0.0,
			"0.022": 0.0,
			"0.023": 0.0,
			"0.024": 0.0,
			"0.025": 0.0
		}
	}
}
