{
	 "smiles": "CC1=NN(C(N)=O)C(C)=C1", 
	 "Tm": 387.15, 
	 "num_atms": 19, 
	 "gaussian": { 
		 "optdone": 1, 
		 "sigma_profile": "yes", 
		 "theory": "DFT", 
		 "functional": "B3LYP", 
		 "basiset": "6-31G**", 
		 "properties": { 
			 "R2extent": 1700.3093, 
			 "electric_dipole_moment_norm": 4.98615603546, 
			 "electric_quadrupole_moment_norm": 10.3234827762, 
			 "total_energy": -473.543054392, 
			 "HOMO_LUMO_gap": 0.22852, 
			 "cosmo_polarized_energy": -18.54, 
			 "cosmo_cavitation_energy": 22.96, 
			 "cosmo_dispersion_energy": -16.94, 
			 "cosmo_repulsion_energy": 1.4, 
			 "cosmo_total_nonelectrostatic_energy": 7.42, 
			 "SMD_solvation_energy": 4.56 
		},
		"coords": [
			{
				"x": 2.5132266909,
				"y": 1.903796623,
				"z": -1.6160500707,
				"element": "C" 
			},
			{
				"x": 1.1529664215,
				"y": 1.4019718658,
				"z": -1.2402346718,
				"element": "C" 
			},
			{
				"x": 0.9116185545,
				"y": 0.9731980657,
				"z": -0.0127676218,
				"element": "N" 
			},
			{
				"x": -0.4089297902,
				"y": 0.6137247717,
				"z": -0.0082826854,
				"element": "N" 
			},
			{
				"x": -0.919386807,
				"y": 0.0411203346,
				"z": 1.2010203635,
				"element": "C" 
			},
			{
				"x": -2.2790771342,
				"y": 0.1993389271,
				"z": 1.352809905,
				"element": "N" 
			},
			{
				"x": -0.2139563673,
				"y": -0.5483914556,
				"z": 1.9866577517,
				"element": "O" 
			},
			{
				"x": -1.000837325,
				"y": 0.7965908482,
				"z": -1.2514983592,
				"element": "C" 
			},
			{
				"x": -2.411453109,
				"y": 0.444947095,
				"z": -1.6147065467,
				"element": "C" 
			},
			{
				"x": -0.0099072572,
				"y": 1.3052650687,
				"z": -2.056591036,
				"element": "C" 
			},
			{
				"x": 3.185246901,
				"y": 1.8261870833,
				"z": -0.7590469964,
				"element": "H" 
			},
			{
				"x": 2.9354355074,
				"y": 1.3223868105,
				"z": -2.4432631017,
				"element": "H" 
			},
			{
				"x": 2.4777623707,
				"y": 2.9506948822,
				"z": -1.9379308392,
				"element": "H" 
			},
			{
				"x": -2.7253302021,
				"y": 1.0183468506,
				"z": 0.9681049878,
				"element": "H" 
			},
			{
				"x": -2.6165737228,
				"y": -0.1045934753,
				"z": 2.2550349834,
				"element": "H" 
			},
			{
				"x": -2.4983179261,
				"y": 0.4226984269,
				"z": -2.7033789855,
				"element": "H" 
			},
			{
				"x": -2.7074185295,
				"y": -0.5314638035,
				"z": -1.2228894232,
				"element": "H" 
			},
			{
				"x": -3.1408006798,
				"y": 1.179655426,
				"z": -1.2502232994,
				"element": "H" 
			},
			{
				"x": -0.1068675958,
				"y": 1.5586256551,
				"z": -3.1031643542,
				"element": "H" 
			}
		],
		 "valence_orbital": [ 
			{
				"type": "occ",
				"energy": -0.29118,
				"method": "rhf"
			},
			{
				"type": "occ",
				"energy": -0.27922,
				"method": "rhf"
			},
			{
				"type": "occ",
				"energy": -0.27149,
				"method": "rhf"
			},
			{
				"type": "occ",
				"energy": -0.24875,
				"method": "rhf"
			},
			{
				"type": "occ",
				"energy": -0.24122,
				"method": "rhf"
			},
			{
				"type": "unocc",
				"energy": -0.0127,
				"method": "rhf"
			},
			{
				"type": "unocc",
				"energy": 0.04542,
				"method": "rhf"
			},
			{
				"type": "unocc",
				"energy": 0.06643,
				"method": "rhf"
			},
			{
				"type": "unocc",
				"energy": 0.07541,
				"method": "rhf"
			},
			{
				"type": "unocc",
				"energy": 0.10599,
				"method": "rhf"
			}
		],
		"cosmo_sigma_profile": { 
			"-0.025": 0.0,
			"-0.024": 0.0,
			"-0.023": 0.0,
			"-0.022": 0.0,
			"-0.021": 0.0,
			"-0.02": 0.0,
			"-0.019": 0.0,
			"-0.018": 0.0,
			"-0.017": 0.0,
			"-0.016": 0.0,
			"-0.015": 0.760249814653,
			"-0.014": 2.77146912059,
			"-0.013": 2.34428603364,
			"-0.012": 2.58990127134,
			"-0.011": 3.19377616412,
			"-0.01": 2.08786735628,
			"-0.009": 2.41749795435,
			"-0.008": 2.07241468906,
			"-0.007": 2.79660892578,
			"-0.006": 5.0733065724,
			"-0.005": 10.5727949115,
			"-0.004": 14.546558388,
			"-0.003": 15.3482010685,
			"-0.002": 17.7474498392,
			"-0.001": 17.426508906,
			"0.0": 13.1152221515,
			"0.001": 7.08666132927,
			"0.002": 6.81679061001,
			"0.003": 7.44850859576,
			"0.004": 8.02335862817,
			"0.005": 4.38788628271,
			"0.006": 3.27763045264,
			"0.007": 3.18947904953,
			"0.008": 1.6588879381,
			"0.009": 2.27275966891,
			"0.01": 2.28041908602,
			"0.011": 2.83303529168,
			"0.012": 6.00361255219,
			"0.013": 4.41667535348,
			"0.014": 1.71421926627,
			"0.015": 1.8777262252,
			"0.016": 1.41525307196,
			"0.017": 1.35688861313,
			"0.018": 0.606723365091,
			"0.019": 0.0,
			"0.02": 0.0,
			"0.021": 0.0,
			"0.022": 0.0,
			"0.023": 0.0,
			"0.024": 0.0,
			"0.025": 0.0
		}
	}
}
