{
	 "smiles": "OCC(Cl)(Cl)Cl", 
	 "Tm": 291.65, 
	 "num_atms": 9, 
	 "gaussian": { 
		 "optdone": 1, 
		 "sigma_profile": "yes", 
		 "theory": "DFT", 
		 "functional": "B3LYP", 
		 "basiset": "6-31G**", 
		 "properties": { 
			 "R2extent": 1928.5971, 
			 "electric_dipole_moment_norm": 1.56425932633, 
			 "electric_quadrupole_moment_norm": 6.77848659142, 
			 "total_energy": -1533.79809393, 
			 "HOMO_LUMO_gap": 0.25574, 
			 "cosmo_polarized_energy": -6.58, 
			 "cosmo_cavitation_energy": 17.85, 
			 "cosmo_dispersion_energy": -13.65, 
			 "cosmo_repulsion_energy": 1.17, 
			 "cosmo_total_nonelectrostatic_energy": 5.38, 
			 "SMD_solvation_energy": 2.23 
		},
		"coords": [
			{
				"x": -0.8380953114,
				"y": 2.1169333443,
				"z": 0.2595767143,
				"element": "O" 
			},
			{
				"x": 0.2313574024,
				"y": 1.2200066696,
				"z": 0.2682641728,
				"element": "C" 
			},
			{
				"x": 0.9509589526,
				"y": 1.1129630609,
				"z": -1.096298855,
				"element": "C" 
			},
			{
				"x": 1.64838586,
				"y": 2.7323930107,
				"z": -1.5195154494,
				"element": "Cl" 
			},
			{
				"x": -0.1850542147,
				"y": 0.6070112973,
				"z": -2.3834346548,
				"element": "Cl" 
			},
			{
				"x": 2.283316291,
				"y": -0.0864838326,
				"z": -0.9446069193,
				"element": "Cl" 
			},
			{
				"x": -0.4872267378,
				"y": 3.0118722769,
				"z": 0.1490347996,
				"element": "H" 
			},
			{
				"x": 1.0026567894,
				"y": 1.4687993001,
				"z": 1.0103656572,
				"element": "H" 
			},
			{
				"x": -0.1717990314,
				"y": 0.230904873,
				"z": 0.5000145346,
				"element": "H" 
			}
		],
		 "valence_orbital": [ 
			{
				"type": "occ",
				"energy": -0.33923,
				"method": "rhf"
			},
			{
				"type": "occ",
				"energy": -0.33131,
				"method": "rhf"
			},
			{
				"type": "occ",
				"energy": -0.32485,
				"method": "rhf"
			},
			{
				"type": "occ",
				"energy": -0.31318,
				"method": "rhf"
			},
			{
				"type": "occ",
				"energy": -0.30311,
				"method": "rhf"
			},
			{
				"type": "unocc",
				"energy": -0.04737,
				"method": "rhf"
			},
			{
				"type": "unocc",
				"energy": -0.00631,
				"method": "rhf"
			},
			{
				"type": "unocc",
				"energy": 0.00156,
				"method": "rhf"
			},
			{
				"type": "unocc",
				"energy": 0.07102,
				"method": "rhf"
			},
			{
				"type": "unocc",
				"energy": 0.11928,
				"method": "rhf"
			}
		],
		"cosmo_sigma_profile": { 
			"-0.025": 0.0,
			"-0.024": 0.0,
			"-0.023": 0.0,
			"-0.022": 0.0,
			"-0.021": 0.0,
			"-0.02": 0.0,
			"-0.019": 0.0,
			"-0.018": 0.0,
			"-0.017": 0.0,
			"-0.016": 0.386100915401,
			"-0.015": 0.524563689171,
			"-0.014": 1.46316615741,
			"-0.013": 0.507008497651,
			"-0.012": 0.457194878424,
			"-0.011": 0.546039753236,
			"-0.01": 1.21208079764,
			"-0.009": 1.75844777385,
			"-0.008": 3.44395075186,
			"-0.007": 5.83125771762,
			"-0.006": 5.08075048304,
			"-0.005": 4.38547652302,
			"-0.004": 6.88443385291,
			"-0.003": 7.99414725264,
			"-0.002": 7.9051011612,
			"-0.001": 9.01179059224,
			"0.0": 11.3221266622,
			"0.001": 12.0491763983,
			"0.002": 18.4091161548,
			"0.003": 28.3237796599,
			"0.004": 7.38130504175,
			"0.005": 1.81870499003,
			"0.006": 1.6139150205,
			"0.007": 0.976094933439,
			"0.008": 1.52179103203,
			"0.009": 1.99842954979,
			"0.01": 1.04063818959,
			"0.011": 1.76741863335,
			"0.012": 1.85848764305,
			"0.013": 0.448025137886,
			"0.014": 0.0,
			"0.015": 0.0,
			"0.016": 0.0,
			"0.017": 0.0,
			"0.018": 0.0,
			"0.019": 0.0,
			"0.02": 0.0,
			"0.021": 0.0,
			"0.022": 0.0,
			"0.023": 0.0,
			"0.024": 0.0,
			"0.025": 0.0
		}
	}
}
