{
	 "smiles": "CC(=O)N1CCC(C)(C1)C(O)=O", 
	 "Tm": 394.15, 
	 "num_atms": 25, 
	 "gaussian": { 
		 "optdone": 1, 
		 "sigma_profile": "yes", 
		 "theory": "DFT", 
		 "functional": "B3LYP", 
		 "basiset": "6-31G**", 
		 "properties": { 
			 "R2extent": 2406.2162, 
			 "electric_dipole_moment_norm": 5.14017495519, 
			 "electric_quadrupole_moment_norm": 13.1570014483, 
			 "total_energy": -593.143725409, 
			 "HOMO_LUMO_gap": 0.22793, 
			 "cosmo_polarized_energy": -17.34, 
			 "cosmo_cavitation_energy": 27.33, 
			 "cosmo_dispersion_energy": -19.37, 
			 "cosmo_repulsion_energy": 1.56, 
			 "cosmo_total_nonelectrostatic_energy": 9.52, 
			 "SMD_solvation_energy": 5.81 
		},
		"coords": [
			{
				"x": 0.5618369296,
				"y": 2.7184412866,
				"z": -2.9931303773,
				"element": "C" 
			},
			{
				"x": 1.3513084882,
				"y": 1.7454899351,
				"z": -2.1292076234,
				"element": "C" 
			},
			{
				"x": 2.5372785104,
				"y": 1.9169125459,
				"z": -1.8635711323,
				"element": "O" 
			},
			{
				"x": 0.6713098381,
				"y": 0.6523134684,
				"z": -1.6661363186,
				"element": "N" 
			},
			{
				"x": -0.7401574521,
				"y": 0.3314390832,
				"z": -1.8864070102,
				"element": "C" 
			},
			{
				"x": -0.8452668292,
				"y": -1.1175883745,
				"z": -1.3935845564,
				"element": "C" 
			},
			{
				"x": 0.1993501361,
				"y": -1.1990482912,
				"z": -0.2467365838,
				"element": "C" 
			},
			{
				"x": 0.6579380684,
				"y": -2.6386643065,
				"z": 0.0459345436,
				"element": "C" 
			},
			{
				"x": 1.3365130508,
				"y": -0.3001545357,
				"z": -0.7704024741,
				"element": "C" 
			},
			{
				"x": -0.4007947037,
				"y": -0.5908585519,
				"z": 1.0261593373,
				"element": "C" 
			},
			{
				"x": -1.4694655358,
				"y": -1.3043043241,
				"z": 1.4666800951,
				"element": "O" 
			},
			{
				"x": -0.0099202949,
				"y": 0.3978808693,
				"z": 1.6053168596,
				"element": "O" 
			},
			{
				"x": 0.2448038014,
				"y": 2.2491693294,
				"z": -3.9314180362,
				"element": "H" 
			},
			{
				"x": -0.3385499663,
				"y": 3.0766170748,
				"z": -2.4825235577,
				"element": "H" 
			},
			{
				"x": 1.2081869768,
				"y": 3.5652815205,
				"z": -3.222191848,
				"element": "H" 
			},
			{
				"x": -1.3987426549,
				"y": 0.9955944931,
				"z": -1.3065746793,
				"element": "H" 
			},
			{
				"x": -1.0185710077,
				"y": 0.4292654526,
				"z": -2.9405489968,
				"element": "H" 
			},
			{
				"x": -0.540526572,
				"y": -1.8064683346,
				"z": -2.1891752933,
				"element": "H" 
			},
			{
				"x": -1.8527339841,
				"y": -1.3913924258,
				"z": -1.0738059904,
				"element": "H" 
			},
			{
				"x": -0.1773890121,
				"y": -3.256746336,
				"z": 0.3829097681,
				"element": "H" 
			},
			{
				"x": 1.4303088783,
				"y": -2.6571770727,
				"z": 0.8218344032,
				"element": "H" 
			},
			{
				"x": 1.0794099441,
				"y": -3.0849417905,
				"z": -0.8599893242,
				"element": "H" 
			},
			{
				"x": 1.8560780325,
				"y": 0.2297302558,
				"z": 0.029884887,
				"element": "H" 
			},
			{
				"x": 2.0764225893,
				"y": -0.8935493958,
				"z": -1.3221478278,
				"element": "H" 
			},
			{
				"x": -1.7764272313,
				"y": -0.8558415754,
				"z": 2.2725317361,
				"element": "H" 
			}
		],
		 "valence_orbital": [ 
			{
				"type": "occ",
				"energy": -0.33658,
				"method": "rhf"
			},
			{
				"type": "occ",
				"energy": -0.32704,
				"method": "rhf"
			},
			{
				"type": "occ",
				"energy": -0.27995,
				"method": "rhf"
			},
			{
				"type": "occ",
				"energy": -0.2342,
				"method": "rhf"
			},
			{
				"type": "occ",
				"energy": -0.2303,
				"method": "rhf"
			},
			{
				"type": "unocc",
				"energy": -0.00237,
				"method": "rhf"
			},
			{
				"type": "unocc",
				"energy": 0.03708,
				"method": "rhf"
			},
			{
				"type": "unocc",
				"energy": 0.06235,
				"method": "rhf"
			},
			{
				"type": "unocc",
				"energy": 0.08062,
				"method": "rhf"
			},
			{
				"type": "unocc",
				"energy": 0.09602,
				"method": "rhf"
			}
		],
		"cosmo_sigma_profile": { 
			"-0.025": 0.0,
			"-0.024": 0.0,
			"-0.023": 0.0,
			"-0.022": 0.0,
			"-0.021": 0.0,
			"-0.02": 0.0,
			"-0.019": 0.0266332325296,
			"-0.018": 0.664086434524,
			"-0.017": 0.912794537662,
			"-0.016": 1.12514478483,
			"-0.015": 0.597400999382,
			"-0.014": 0.535490623539,
			"-0.013": 0.710763987203,
			"-0.012": 0.892521774743,
			"-0.011": 0.617219887653,
			"-0.01": 0.88775915052,
			"-0.009": 0.438552407331,
			"-0.008": 0.6253823496,
			"-0.007": 1.0249222087,
			"-0.006": 5.51567260194,
			"-0.005": 21.0368096507,
			"-0.004": 26.0489282805,
			"-0.003": 27.3750135556,
			"-0.002": 20.5351008243,
			"-0.001": 20.5804379891,
			"0.0": 14.6397867407,
			"0.001": 6.44386860726,
			"0.002": 6.11485955034,
			"0.003": 6.00970561607,
			"0.004": 5.15710692411,
			"0.005": 4.35743479995,
			"0.006": 4.10111953524,
			"0.007": 3.52888843893,
			"0.008": 4.72758760509,
			"0.009": 2.77196133134,
			"0.01": 3.45206739812,
			"0.011": 5.68063818579,
			"0.012": 4.31334194491,
			"0.013": 2.22317740466,
			"0.014": 4.9868803997,
			"0.015": 3.67601790145,
			"0.016": 0.458768088025,
			"0.017": 0.0,
			"0.018": 0.0,
			"0.019": 0.0,
			"0.02": 0.0,
			"0.021": 0.0,
			"0.022": 0.0,
			"0.023": 0.0,
			"0.024": 0.0,
			"0.025": 0.0
		}
	}
}
