{
	 "smiles": "CC(C)N(CCO)C(C)C", 
	 "Tm": 234.15, 
	 "num_atms": 29, 
	 "gaussian": { 
		 "optdone": 1, 
		 "sigma_profile": "yes", 
		 "theory": "DFT", 
		 "functional": "B3LYP", 
		 "basiset": "6-31G**", 
		 "properties": { 
			 "R2extent": 2078.5288, 
			 "electric_dipole_moment_norm": 2.81282815152, 
			 "electric_quadrupole_moment_norm": 6.63108797031, 
			 "total_energy": -446.265452243, 
			 "HOMO_LUMO_gap": 0.2859, 
			 "cosmo_polarized_energy": -5.96, 
			 "cosmo_cavitation_energy": 27.8, 
			 "cosmo_dispersion_energy": -19.57, 
			 "cosmo_repulsion_energy": 1.56, 
			 "cosmo_total_nonelectrostatic_energy": 9.8, 
			 "SMD_solvation_energy": 4.8 
		},
		"coords": [
			{
				"x": 1.4961154428,
				"y": 2.4570058262,
				"z": -0.5427127121,
				"element": "C" 
			},
			{
				"x": 0.4778733089,
				"y": 1.3082085148,
				"z": -0.4293742389,
				"element": "C" 
			},
			{
				"x": 0.6734626319,
				"y": 0.2596795606,
				"z": -1.5375282752,
				"element": "C" 
			},
			{
				"x": 0.3811115494,
				"y": 0.6816002054,
				"z": 0.924259028,
				"element": "N" 
			},
			{
				"x": 1.6341841624,
				"y": 0.6142589919,
				"z": 1.6886244597,
				"element": "C" 
			},
			{
				"x": 2.5725430846,
				"y": -0.4593320195,
				"z": 1.1155163591,
				"element": "C" 
			},
			{
				"x": 1.8782582613,
				"y": -1.6762085986,
				"z": 0.9270333512,
				"element": "O" 
			},
			{
				"x": -0.8413363525,
				"y": 1.1347108476,
				"z": 1.6440971303,
				"element": "C" 
			},
			{
				"x": -0.8336071724,
				"y": 0.8574333834,
				"z": 3.1521960626,
				"element": "C" 
			},
			{
				"x": -2.0778350676,
				"y": 0.4576005443,
				"z": 1.0269687204,
				"element": "C" 
			},
			{
				"x": 1.3791701429,
				"y": 2.9511264483,
				"z": -1.5125330328,
				"element": "H" 
			},
			{
				"x": 2.5316832674,
				"y": 2.1098819532,
				"z": -0.4771282127,
				"element": "H" 
			},
			{
				"x": 1.3393959922,
				"y": 3.2119617496,
				"z": 0.2349108191,
				"element": "H" 
			},
			{
				"x": -0.5004119507,
				"y": 1.7642151038,
				"z": -0.6123909751,
				"element": "H" 
			},
			{
				"x": 0.660415466,
				"y": 0.7394550238,
				"z": -2.5227787905,
				"element": "H" 
			},
			{
				"x": 1.6182454188,
				"y": -0.2802820649,
				"z": -1.4390077829,
				"element": "H" 
			},
			{
				"x": -0.1346280529,
				"y": -0.4777177642,
				"z": -1.5092706634,
				"element": "H" 
			},
			{
				"x": 1.3903967646,
				"y": 0.3003637624,
				"z": 2.7022938085,
				"element": "H" 
			},
			{
				"x": 2.1666709955,
				"y": 1.5758670083,
				"z": 1.7682916975,
				"element": "H" 
			},
			{
				"x": 3.0347018162,
				"y": -0.1138435197,
				"z": 0.1766696873,
				"element": "H" 
			},
			{
				"x": 3.3902208851,
				"y": -0.6351066851,
				"z": 1.8253461278,
				"element": "H" 
			},
			{
				"x": 0.9686430958,
				"y": -1.3962844513,
				"z": 0.7222006652,
				"element": "H" 
			},
			{
				"x": -0.9522786906,
				"y": 2.2280822103,
				"z": 1.5216673049,
				"element": "H" 
			},
			{
				"x": -0.0776804226,
				"y": 1.4358370575,
				"z": 3.6895432883,
				"element": "H" 
			},
			{
				"x": -0.6763363521,
				"y": -0.206170642,
				"z": 3.3633300776,
				"element": "H" 
			},
			{
				"x": -1.8085060871,
				"y": 1.1353707164,
				"z": 3.5642277324,
				"element": "H" 
			},
			{
				"x": -2.1434171954,
				"y": 0.6103551073,
				"z": -0.0535729054,
				"element": "H" 
			},
			{
				"x": -2.9963747291,
				"y": 0.8546781895,
				"z": 1.472316962,
				"element": "H" 
			},
			{
				"x": -2.0420802127,
				"y": -0.6218464591,
				"z": 1.2097043073,
				"element": "H" 
			}
		],
		 "valence_orbital": [ 
			{
				"type": "occ",
				"energy": -0.32838,
				"method": "rhf"
			},
			{
				"type": "occ",
				"energy": -0.32365,
				"method": "rhf"
			},
			{
				"type": "occ",
				"energy": -0.3079,
				"method": "rhf"
			},
			{
				"type": "occ",
				"energy": -0.24918,
				"method": "rhf"
			},
			{
				"type": "occ",
				"energy": -0.21344,
				"method": "rhf"
			},
			{
				"type": "unocc",
				"energy": 0.07246,
				"method": "rhf"
			},
			{
				"type": "unocc",
				"energy": 0.0967,
				"method": "rhf"
			},
			{
				"type": "unocc",
				"energy": 0.10843,
				"method": "rhf"
			},
			{
				"type": "unocc",
				"energy": 0.11535,
				"method": "rhf"
			},
			{
				"type": "unocc",
				"energy": 0.12136,
				"method": "rhf"
			}
		],
		"cosmo_sigma_profile": { 
			"-0.025": 0.0,
			"-0.024": 0.0,
			"-0.023": 0.0,
			"-0.022": 0.0,
			"-0.021": 0.0,
			"-0.02": 0.0,
			"-0.019": 0.0,
			"-0.018": 0.0,
			"-0.017": 0.0,
			"-0.016": 0.0,
			"-0.015": 0.0,
			"-0.014": 0.0,
			"-0.013": 0.0,
			"-0.012": 0.0,
			"-0.011": 0.0,
			"-0.01": 0.0,
			"-0.009": 0.0,
			"-0.008": 0.0,
			"-0.007": 0.15792845143,
			"-0.006": 0.607151091686,
			"-0.005": 0.482115853605,
			"-0.004": 5.3236582614,
			"-0.003": 30.180061744,
			"-0.002": 44.7805546201,
			"-0.001": 39.4048166633,
			"0.0": 29.3956276049,
			"0.001": 29.4354685858,
			"0.002": 13.2479214594,
			"0.003": 2.43086414543,
			"0.004": 1.55384482089,
			"0.005": 1.27183685624,
			"0.006": 1.81599928508,
			"0.007": 0.934223334441,
			"0.008": 0.654269212847,
			"0.009": 1.80740202484,
			"0.01": 1.32794859468,
			"0.011": 0.540237298376,
			"0.012": 1.7093147747,
			"0.013": 1.11048784384,
			"0.014": 1.95143485242,
			"0.015": 2.55909024435,
			"0.016": 0.680411124212,
			"0.017": 0.0,
			"0.018": 0.0,
			"0.019": 0.0,
			"0.02": 0.0,
			"0.021": 0.0,
			"0.022": 0.0,
			"0.023": 0.0,
			"0.024": 0.0,
			"0.025": 0.0
		}
	}
}
