{
	 "smiles": "NC1=CC=C(OC2=CC(=CC=C2)C#N)C=C1", 
	 "Tm": 313.15, 
	 "num_atms": 26, 
	 "gaussian": { 
		 "optdone": 1, 
		 "sigma_profile": "yes", 
		 "theory": "DFT", 
		 "functional": "B3LYP", 
		 "basiset": "6-31G**", 
		 "properties": { 
			 "R2extent": 4435.1328, 
			 "electric_dipole_moment_norm": 5.25453935659, 
			 "electric_quadrupole_moment_norm": 31.2798726543, 
			 "total_energy": -686.113394616, 
			 "HOMO_LUMO_gap": 0.16447, 
			 "cosmo_polarized_energy": -14.5, 
			 "cosmo_cavitation_energy": 32.21, 
			 "cosmo_dispersion_energy": -22.48, 
			 "cosmo_repulsion_energy": 1.77, 
			 "cosmo_total_nonelectrostatic_energy": 11.5, 
			 "SMD_solvation_energy": 7.03 
		},
		"coords": [
			{
				"x": -0.9503106788,
				"y": -3.6253121664,
				"z": 3.2606784175,
				"element": "N" 
			},
			{
				"x": -0.2216557211,
				"y": -2.6609251251,
				"z": 2.5652978217,
				"element": "C" 
			},
			{
				"x": -0.0083629933,
				"y": -1.3845465129,
				"z": 3.1167522904,
				"element": "C" 
			},
			{
				"x": 0.6689206021,
				"y": -0.4023538964,
				"z": 2.3989953717,
				"element": "C" 
			},
			{
				"x": 1.1435323459,
				"y": -0.6812504466,
				"z": 1.1183611721,
				"element": "C" 
			},
			{
				"x": 1.8918293797,
				"y": 0.2761367719,
				"z": 0.4319495861,
				"element": "O" 
			},
			{
				"x": 1.2590568869,
				"y": 1.1597679112,
				"z": -0.4027281498,
				"element": "C" 
			},
			{
				"x": -0.1185929934,
				"y": 1.1738753106,
				"z": -0.6248017829,
				"element": "C" 
			},
			{
				"x": -0.6577094881,
				"y": 2.1285959314,
				"z": -1.5046600103,
				"element": "C" 
			},
			{
				"x": 0.1658904418,
				"y": 3.05869325,
				"z": -2.1558855102,
				"element": "C" 
			},
			{
				"x": 1.5400606871,
				"y": 3.025206485,
				"z": -1.9181346222,
				"element": "C" 
			},
			{
				"x": 2.0888648153,
				"y": 2.0863006451,
				"z": -1.050050148,
				"element": "C" 
			},
			{
				"x": -2.0742736227,
				"y": 2.1469321329,
				"z": -1.7363098595,
				"element": "C" 
			},
			{
				"x": -3.2217967281,
				"y": 2.1649045227,
				"z": -1.9266177416,
				"element": "N" 
			},
			{
				"x": 0.9461064652,
				"y": -1.9410445383,
				"z": 0.5553288285,
				"element": "C" 
			},
			{
				"x": 0.2687930739,
				"y": -2.9231212748,
				"z": 1.2732267642,
				"element": "C" 
			},
			{
				"x": -0.7770021525,
				"y": -4.5822088336,
				"z": 2.9864718389,
				"element": "H" 
			},
			{
				"x": -0.9685615442,
				"y": -3.5156295776,
				"z": 4.2649261996,
				"element": "H" 
			},
			{
				"x": -0.3787332234,
				"y": -1.1626929557,
				"z": 4.1142298552,
				"element": "H" 
			},
			{
				"x": 0.840976614,
				"y": 0.5784817318,
				"z": 2.8307208453,
				"element": "H" 
			},
			{
				"x": -0.7669834269,
				"y": 0.462346302,
				"z": -0.1293894658,
				"element": "H" 
			},
			{
				"x": -0.2685090539,
				"y": 3.7872707293,
				"z": -2.8308383997,
				"element": "H" 
			},
			{
				"x": 2.1903515915,
				"y": 3.738664672,
				"z": -2.4148469292,
				"element": "H" 
			},
			{
				"x": 3.1557204663,
				"y": 2.0493510808,
				"z": -0.8563164335,
				"element": "H" 
			},
			{
				"x": 1.3323121375,
				"y": -2.1490333551,
				"z": -0.4374523203,
				"element": "H" 
			},
			{
				"x": 0.1150761192,
				"y": -3.9036087942,
				"z": 0.8300923816,
				"element": "H" 
			}
		],
		 "valence_orbital": [ 
			{
				"type": "occ",
				"energy": -0.31056,
				"method": "rhf"
			},
			{
				"type": "occ",
				"energy": -0.26508,
				"method": "rhf"
			},
			{
				"type": "occ",
				"energy": -0.25982,
				"method": "rhf"
			},
			{
				"type": "occ",
				"energy": -0.23679,
				"method": "rhf"
			},
			{
				"type": "occ",
				"energy": -0.21,
				"method": "rhf"
			},
			{
				"type": "unocc",
				"energy": -0.04553,
				"method": "rhf"
			},
			{
				"type": "unocc",
				"energy": -0.01067,
				"method": "rhf"
			},
			{
				"type": "unocc",
				"energy": -0.0073,
				"method": "rhf"
			},
			{
				"type": "unocc",
				"energy": 0.00713,
				"method": "rhf"
			},
			{
				"type": "unocc",
				"energy": 0.04401,
				"method": "rhf"
			}
		],
		"cosmo_sigma_profile": { 
			"-0.025": 0.0,
			"-0.024": 0.0,
			"-0.023": 0.0,
			"-0.022": 0.0,
			"-0.021": 0.0,
			"-0.02": 0.0,
			"-0.019": 0.0,
			"-0.018": 0.0,
			"-0.017": 0.0,
			"-0.016": 0.0,
			"-0.015": 0.0,
			"-0.014": 0.0,
			"-0.013": 0.533042249386,
			"-0.012": 2.84433399777,
			"-0.011": 2.21479074073,
			"-0.01": 3.16324783825,
			"-0.009": 4.06258643882,
			"-0.008": 3.95241698217,
			"-0.007": 11.4472533798,
			"-0.006": 15.615814078,
			"-0.005": 15.9803796465,
			"-0.004": 15.4584807268,
			"-0.003": 13.3733906868,
			"-0.002": 13.3508309273,
			"-0.001": 18.8430025306,
			"0.0": 17.311732123,
			"0.001": 19.1012211804,
			"0.002": 21.0944579934,
			"0.003": 17.449341494,
			"0.004": 12.2254259613,
			"0.005": 13.8146102328,
			"0.006": 7.9682666791,
			"0.007": 5.11553281274,
			"0.008": 5.41404930207,
			"0.009": 5.39277139882,
			"0.01": 3.92199333174,
			"0.011": 3.55649392897,
			"0.012": 3.13016135934,
			"0.013": 2.3018537121,
			"0.014": 0.538581725883,
			"0.015": 0.0922841601471,
			"0.016": 0.0,
			"0.017": 0.0,
			"0.018": 0.0,
			"0.019": 0.0,
			"0.02": 0.0,
			"0.021": 0.0,
			"0.022": 0.0,
			"0.023": 0.0,
			"0.024": 0.0,
			"0.025": 0.0
		}
	}
}
