{
	 "smiles": "ClC1=CC(=CC=C1)N1CCCS1(=O)=O", 
	 "Tm": 359.15, 
	 "num_atms": 24, 
	 "gaussian": { 
		 "optdone": 1, 
		 "sigma_profile": "yes", 
		 "theory": "DFT", 
		 "functional": "B3LYP", 
		 "basiset": "6-31G**", 
		 "properties": { 
			 "R2extent": 4300.4466, 
			 "electric_dipole_moment_norm": 4.42477868486, 
			 "electric_quadrupole_moment_norm": 17.1863631743, 
			 "total_energy": -1412.492098, 
			 "HOMO_LUMO_gap": 0.21093, 
			 "cosmo_polarized_energy": -16.28, 
			 "cosmo_cavitation_energy": 29.89, 
			 "cosmo_dispersion_energy": -22.58, 
			 "cosmo_repulsion_energy": 1.72, 
			 "cosmo_total_nonelectrostatic_energy": 9.03, 
			 "SMD_solvation_energy": 3.11 
		},
		"coords": [
			{
				"x": 4.5186024181,
				"y": -1.9286688619,
				"z": -0.2002539221,
				"element": "Cl" 
			},
			{
				"x": 3.0377495905,
				"y": -1.3596672936,
				"z": -0.9631991485,
				"element": "C" 
			},
			{
				"x": 1.8455340221,
				"y": -1.4398377101,
				"z": -0.2446658001,
				"element": "C" 
			},
			{
				"x": 0.6556189915,
				"y": -1.0021894139,
				"z": -0.84382127,
				"element": "C" 
			},
			{
				"x": 0.6851544669,
				"y": -0.4884407669,
				"z": -2.1520222884,
				"element": "C" 
			},
			{
				"x": 1.8953664386,
				"y": -0.3984989694,
				"z": -2.8306057445,
				"element": "C" 
			},
			{
				"x": 3.0888094745,
				"y": -0.8376629283,
				"z": -2.2515498756,
				"element": "C" 
			},
			{
				"x": -0.5788974082,
				"y": -1.1118308521,
				"z": -0.1593813224,
				"element": "N" 
			},
			{
				"x": -0.6936914703,
				"y": -1.8179555708,
				"z": 1.1175155093,
				"element": "C" 
			},
			{
				"x": -2.1906213251,
				"y": -1.7984776947,
				"z": 1.4554635335,
				"element": "C" 
			},
			{
				"x": -2.6618967207,
				"y": -0.3672748212,
				"z": 1.1954339289,
				"element": "C" 
			},
			{
				"x": -1.6978771699,
				"y": 0.2096079944,
				"z": -0.244805794,
				"element": "S" 
			},
			{
				"x": -2.4734730964,
				"y": 0.0896530078,
				"z": -1.4829879791,
				"element": "O" 
			},
			{
				"x": -1.0332232972,
				"y": 1.4797818475,
				"z": 0.0643263336,
				"element": "O" 
			},
			{
				"x": 1.8597879272,
				"y": -1.833643291,
				"z": 0.7632943951,
				"element": "H" 
			},
			{
				"x": -0.2366256289,
				"y": -0.1765704191,
				"z": -2.6292014669,
				"element": "H" 
			},
			{
				"x": 1.9095414559,
				"y": 0.0052998243,
				"z": -3.8383875339,
				"element": "H" 
			},
			{
				"x": 4.0297518128,
				"y": -0.7827355581,
				"z": -2.7861243107,
				"element": "H" 
			},
			{
				"x": -0.3234204024,
				"y": -2.8390535925,
				"z": 0.9899205352,
				"element": "H" 
			},
			{
				"x": -0.1074326375,
				"y": -1.3360526686,
				"z": 1.9160342378,
				"element": "H" 
			},
			{
				"x": -2.3685362741,
				"y": -2.0896782946,
				"z": 2.4938927868,
				"element": "H" 
			},
			{
				"x": -2.7227882641,
				"y": -2.4965787298,
				"z": 0.8036722758,
				"element": "H" 
			},
			{
				"x": -2.4093601974,
				"y": 0.3143982588,
				"z": 2.0108304948,
				"element": "H" 
			},
			{
				"x": -3.7169727059,
				"y": -0.2695234962,
				"z": 0.9364224254,
				"element": "H" 
			}
		],
		 "valence_orbital": [ 
			{
				"type": "occ",
				"energy": -0.31139,
				"method": "rhf"
			},
			{
				"type": "occ",
				"energy": -0.30832,
				"method": "rhf"
			},
			{
				"type": "occ",
				"energy": -0.29019,
				"method": "rhf"
			},
			{
				"type": "occ",
				"energy": -0.25306,
				"method": "rhf"
			},
			{
				"type": "occ",
				"energy": -0.22746,
				"method": "rhf"
			},
			{
				"type": "unocc",
				"energy": -0.01653,
				"method": "rhf"
			},
			{
				"type": "unocc",
				"energy": -0.01439,
				"method": "rhf"
			},
			{
				"type": "unocc",
				"energy": 0.02529,
				"method": "rhf"
			},
			{
				"type": "unocc",
				"energy": 0.04475,
				"method": "rhf"
			},
			{
				"type": "unocc",
				"energy": 0.05118,
				"method": "rhf"
			}
		],
		"cosmo_sigma_profile": { 
			"-0.025": 0.0,
			"-0.024": 0.0,
			"-0.023": 0.0,
			"-0.022": 0.0,
			"-0.021": 0.0,
			"-0.02": 0.0,
			"-0.019": 0.0,
			"-0.018": 0.0,
			"-0.017": 0.0,
			"-0.016": 0.0,
			"-0.015": 0.0,
			"-0.014": 0.0,
			"-0.013": 0.0,
			"-0.012": 0.0,
			"-0.011": 0.0,
			"-0.01": 0.0270908180641,
			"-0.009": 2.39019399034,
			"-0.008": 7.42854662265,
			"-0.007": 15.0953763109,
			"-0.006": 23.929043964,
			"-0.005": 22.975844548,
			"-0.004": 15.6504915601,
			"-0.003": 10.9000543077,
			"-0.002": 9.49380916634,
			"-0.001": 8.32778205527,
			"0.0": 9.96363008821,
			"0.001": 12.5539591634,
			"0.002": 15.984486721,
			"0.003": 20.72124317,
			"0.004": 19.0433534782,
			"0.005": 10.657747178,
			"0.006": 3.79512462023,
			"0.007": 2.94658017745,
			"0.008": 2.76982028399,
			"0.009": 4.34029144195,
			"0.01": 10.0569519737,
			"0.011": 9.81769105692,
			"0.012": 1.33858161358,
			"0.013": 0.0,
			"0.014": 0.0,
			"0.015": 0.0,
			"0.016": 0.0,
			"0.017": 0.0,
			"0.018": 0.0,
			"0.019": 0.0,
			"0.02": 0.0,
			"0.021": 0.0,
			"0.022": 0.0,
			"0.023": 0.0,
			"0.024": 0.0,
			"0.025": 0.0
		}
	}
}
