{
	 "smiles": "ClC(Cl)(Cl)C#N", 
	 "Tm": 230.15, 
	 "num_atms": 6, 
	 "gaussian": { 
		 "optdone": 1, 
		 "sigma_profile": "yes", 
		 "theory": "DFT", 
		 "functional": "B3LYP", 
		 "basiset": "6-31G**", 
		 "properties": { 
			 "R2extent": 1255.3357, 
			 "electric_dipole_moment_norm": 1.86295973923, 
			 "electric_quadrupole_moment_norm": 7.37201190042, 
			 "total_energy": -1511.47938888, 
			 "HOMO_LUMO_gap": 0.25991, 
			 "cosmo_polarized_energy": -3.39, 
			 "cosmo_cavitation_energy": 16.88, 
			 "cosmo_dispersion_energy": -12.32, 
			 "cosmo_repulsion_energy": 1.08, 
			 "cosmo_total_nonelectrostatic_energy": 5.63, 
			 "SMD_solvation_energy": 3.45 
		},
		"coords": [
			{
				"x": 2.4128465896,
				"y": -0.676765257,
				"z": -0.8856428472,
				"element": "Cl" 
			},
			{
				"x": 1.1184182299,
				"y": 0.2528652916,
				"z": -0.05246395,
				"element": "C" 
			},
			{
				"x": -0.4615774641,
				"y": -0.5836931383,
				"z": -0.246746504,
				"element": "Cl" 
			},
			{
				"x": 1.0214902086,
				"y": 1.9154121402,
				"z": -0.7309929071,
				"element": "Cl" 
			},
			{
				"x": 1.4373082297,
				"y": 0.3391683063,
				"z": 1.3699389043,
				"element": "C" 
			},
			{
				"x": 1.6906142063,
				"y": 0.4077126573,
				"z": 2.5001073041,
				"element": "N" 
			}
		],
		 "valence_orbital": [ 
			{
				"type": "occ",
				"energy": -0.37177,
				"method": "rhf"
			},
			{
				"type": "occ",
				"energy": -0.365,
				"method": "rhf"
			},
			{
				"type": "occ",
				"energy": -0.34541,
				"method": "rhf"
			},
			{
				"type": "occ",
				"energy": -0.34541,
				"method": "rhf"
			},
			{
				"type": "occ",
				"energy": -0.33576,
				"method": "rhf"
			},
			{
				"type": "unocc",
				"energy": -0.07585,
				"method": "rhf"
			},
			{
				"type": "unocc",
				"energy": -0.06673,
				"method": "rhf"
			},
			{
				"type": "unocc",
				"energy": -0.06673,
				"method": "rhf"
			},
			{
				"type": "unocc",
				"energy": 0.05561,
				"method": "rhf"
			},
			{
				"type": "unocc",
				"energy": 0.05562,
				"method": "rhf"
			}
		],
		"cosmo_sigma_profile": { 
			"-0.025": 0.0,
			"-0.024": 0.0,
			"-0.023": 0.0,
			"-0.022": 0.0,
			"-0.021": 0.0,
			"-0.02": 0.0,
			"-0.019": 0.0,
			"-0.018": 0.0,
			"-0.017": 0.0,
			"-0.016": 0.0,
			"-0.015": 0.0,
			"-0.014": 0.0,
			"-0.013": 0.0,
			"-0.012": 0.0,
			"-0.011": 0.0,
			"-0.01": 0.0,
			"-0.009": 0.0,
			"-0.008": 0.277030613313,
			"-0.007": 1.37061870369,
			"-0.006": 5.37475646308,
			"-0.005": 6.18550268156,
			"-0.004": 8.53671310658,
			"-0.003": 10.1343440994,
			"-0.002": 12.2799854328,
			"-0.001": 15.7917443255,
			"0.0": 21.7723239511,
			"0.001": 32.4603693805,
			"0.002": 10.1033727642,
			"0.003": 1.91966993718,
			"0.004": 2.33646471994,
			"0.005": 3.43354322186,
			"0.006": 2.4660653593,
			"0.007": 3.1046358763,
			"0.008": 2.25060866629,
			"0.009": 2.46568663768,
			"0.01": 1.46341531261,
			"0.011": 0.0310090580242,
			"0.012": 0.0,
			"0.013": 0.0,
			"0.014": 0.0,
			"0.015": 0.0,
			"0.016": 0.0,
			"0.017": 0.0,
			"0.018": 0.0,
			"0.019": 0.0,
			"0.02": 0.0,
			"0.021": 0.0,
			"0.022": 0.0,
			"0.023": 0.0,
			"0.024": 0.0,
			"0.025": 0.0
		}
	}
}
