{
	 "smiles": "[O-][N+](=O)C1=CC(CCBr)=C(C=C1CCBr)[N+]([O-])=O", 
	 "Tm": 396.15, 
	 "num_atms": 28, 
	 "gaussian": { 
		 "optdone": 1, 
		 "sigma_profile": "yes", 
		 "theory": "DFT", 
		 "functional": "B3LYP", 
		 "basiset": "6-31G**", 
		 "properties": { 
			 "R2extent": 12081.2091, 
			 "electric_dipole_moment_norm": 0.25939793754, 
			 "electric_quadrupole_moment_norm": 21.4648064214, 
			 "total_energy": -5940.10303568, 
			 "HOMO_LUMO_gap": 0.14916, 
			 "cosmo_polarized_energy": -16.74, 
			 "cosmo_cavitation_energy": 37.83, 
			 "cosmo_dispersion_energy": -27.24, 
			 "cosmo_repulsion_energy": 2.14, 
			 "cosmo_total_nonelectrostatic_energy": 12.73, 
			 "SMD_solvation_energy": 7.55 
		},
		"coords": [
			{
				"x": -2.4841731164,
				"y": 0.0316933743,
				"z": 1.4490437258,
				"element": "O" 
			},
			{
				"x": -2.3383427019,
				"y": 0.1646414882,
				"z": 0.2343483935,
				"element": "N" 
			},
			{
				"x": -3.2553307563,
				"y": 0.2100745319,
				"z": -0.5806744978,
				"element": "O" 
			},
			{
				"x": -0.9583922997,
				"y": 0.2552822151,
				"z": -0.2903148909,
				"element": "C" 
			},
			{
				"x": -0.7875285081,
				"y": -0.1561982472,
				"z": -1.610114339,
				"element": "C" 
			},
			{
				"x": 0.4644802371,
				"y": -0.1573401354,
				"z": -2.2328472771,
				"element": "C" 
			},
			{
				"x": 0.5537136244,
				"y": -0.6405036796,
				"z": -3.6688058324,
				"element": "C" 
			},
			{
				"x": 0.82561879,
				"y": -2.1461201479,
				"z": -3.7332887173,
				"element": "C" 
			},
			{
				"x": 0.8160388373,
				"y": -2.7752271208,
				"z": -5.60482116,
				"element": "Br" 
			},
			{
				"x": 1.5261398691,
				"y": 0.3215814128,
				"z": -1.4447665034,
				"element": "C" 
			},
			{
				"x": 1.3464926556,
				"y": 0.7785332842,
				"z": -0.1411789087,
				"element": "C" 
			},
			{
				"x": 0.1010821701,
				"y": 0.7454170725,
				"z": 0.4937486138,
				"element": "C" 
			},
			{
				"x": 0.0078170244,
				"y": 1.2489457833,
				"z": 1.9224402808,
				"element": "C" 
			},
			{
				"x": 0.2439046563,
				"y": 0.1178169614,
				"z": 2.927337378,
				"element": "C" 
			},
			{
				"x": 0.2409033577,
				"y": 0.8160996309,
				"z": 4.7741635408,
				"element": "Br" 
			},
			{
				"x": 2.9102277865,
				"y": 0.3912081851,
				"z": -1.9617871135,
				"element": "N" 
			},
			{
				"x": 3.6580352143,
				"y": 1.225605504,
				"z": -1.4600210974,
				"element": "O" 
			},
			{
				"x": 3.2338011386,
				"y": -0.3995426816,
				"z": -2.8474784996,
				"element": "O" 
			},
			{
				"x": -1.6640371371,
				"y": -0.4764709217,
				"z": -2.1610070889,
				"element": "H" 
			},
			{
				"x": 1.3358906229,
				"y": -0.1136569844,
				"z": -4.2154249484,
				"element": "H" 
			},
			{
				"x": -0.4002361464,
				"y": -0.4281929174,
				"z": -4.1601592979,
				"element": "H" 
			},
			{
				"x": 1.808306311,
				"y": -2.3908907226,
				"z": -3.3373358905,
				"element": "H" 
			},
			{
				"x": 0.0558076537,
				"y": -2.7256621296,
				"z": -3.2238429894,
				"element": "H" 
			},
			{
				"x": 2.2081599624,
				"y": 1.1760080306,
				"z": 0.3821405935,
				"element": "H" 
			},
			{
				"x": -0.9633731249,
				"y": 1.7030984571,
				"z": 2.1191867835,
				"element": "H" 
			},
			{
				"x": 0.7726406578,
				"y": 2.0180976202,
				"z": 2.0637634218,
				"element": "H" 
			},
			{
				"x": 1.2164188132,
				"y": -0.3556921689,
				"z": 2.7931261503,
				"element": "H" 
			},
			{
				"x": -0.5485655917,
				"y": -0.6255056945,
				"z": 2.8840701702,
				"element": "H" 
			}
		],
		 "valence_orbital": [ 
			{
				"type": "occ",
				"energy": -0.30355,
				"method": "rhf"
			},
			{
				"type": "occ",
				"energy": -0.28429,
				"method": "rhf"
			},
			{
				"type": "occ",
				"energy": -0.2827,
				"method": "rhf"
			},
			{
				"type": "occ",
				"energy": -0.28181,
				"method": "rhf"
			},
			{
				"type": "occ",
				"energy": -0.28132,
				"method": "rhf"
			},
			{
				"type": "unocc",
				"energy": -0.13216,
				"method": "rhf"
			},
			{
				"type": "unocc",
				"energy": -0.09261,
				"method": "rhf"
			},
			{
				"type": "unocc",
				"energy": -0.06931,
				"method": "rhf"
			},
			{
				"type": "unocc",
				"energy": -0.03002,
				"method": "rhf"
			},
			{
				"type": "unocc",
				"energy": -0.00787,
				"method": "rhf"
			}
		],
		"cosmo_sigma_profile": { 
			"-0.025": 0.0,
			"-0.024": 0.0,
			"-0.023": 0.0,
			"-0.022": 0.0,
			"-0.021": 0.0,
			"-0.02": 0.0,
			"-0.019": 0.0,
			"-0.018": 0.0,
			"-0.017": 0.0,
			"-0.016": 0.0,
			"-0.015": 0.0,
			"-0.014": 0.0,
			"-0.013": 0.0,
			"-0.012": 0.0,
			"-0.011": 0.0,
			"-0.01": 1.25058865388,
			"-0.009": 5.89230395223,
			"-0.008": 8.70721465135,
			"-0.007": 15.0159997575,
			"-0.006": 17.2586588739,
			"-0.005": 22.3694661717,
			"-0.004": 21.8369847463,
			"-0.003": 22.8849642208,
			"-0.002": 23.49347906,
			"-0.001": 16.6051193619,
			"0.0": 13.9585244009,
			"0.001": 13.334841214,
			"0.002": 13.2997275121,
			"0.003": 14.6437100341,
			"0.004": 14.1544288883,
			"0.005": 22.2798358546,
			"0.006": 30.6625839061,
			"0.007": 14.9181539028,
			"0.008": 8.91329705425,
			"0.009": 5.82761914169,
			"0.01": 0.641182979659,
			"0.011": 0.0,
			"0.012": 0.0,
			"0.013": 0.0,
			"0.014": 0.0,
			"0.015": 0.0,
			"0.016": 0.0,
			"0.017": 0.0,
			"0.018": 0.0,
			"0.019": 0.0,
			"0.02": 0.0,
			"0.021": 0.0,
			"0.022": 0.0,
			"0.023": 0.0,
			"0.024": 0.0,
			"0.025": 0.0
		}
	}
}
