{
	 "smiles": "OCC1=CSC2=C1C=CC=C2", 
	 "Tm": 322.65, 
	 "num_atms": 19, 
	 "gaussian": { 
		 "optdone": 1, 
		 "sigma_profile": "yes", 
		 "theory": "DFT", 
		 "functional": "B3LYP", 
		 "basiset": "6-31G**", 
		 "properties": { 
			 "R2extent": 2044.9382, 
			 "electric_dipole_moment_norm": 2.12631420303, 
			 "electric_quadrupole_moment_norm": 12.1991897743, 
			 "total_energy": -821.178204465, 
			 "HOMO_LUMO_gap": 0.19133, 
			 "cosmo_polarized_energy": -9.64, 
			 "cosmo_cavitation_energy": 24.03, 
			 "cosmo_dispersion_energy": -18.52, 
			 "cosmo_repulsion_energy": 1.44, 
			 "cosmo_total_nonelectrostatic_energy": 6.94, 
			 "SMD_solvation_energy": 3.82 
		},
		"coords": [
			{
				"x": 3.1588794705,
				"y": -0.2606528471,
				"z": 1.5483123215,
				"element": "O" 
			},
			{
				"x": 1.993161292,
				"y": -0.9977708368,
				"z": 1.9152935493,
				"element": "C" 
			},
			{
				"x": 1.1039973916,
				"y": -1.1529771129,
				"z": 0.715746781,
				"element": "C" 
			},
			{
				"x": 0.6553096089,
				"y": -2.3515370939,
				"z": 0.2551423713,
				"element": "C" 
			},
			{
				"x": -0.4402305118,
				"y": -2.2243963988,
				"z": -1.1014742592,
				"element": "S" 
			},
			{
				"x": -0.3020523481,
				"y": -0.4715891007,
				"z": -1.077009572,
				"element": "C" 
			},
			{
				"x": 0.5697402306,
				"y": -0.0423454875,
				"z": -0.0470821522,
				"element": "C" 
			},
			{
				"x": 0.8046907194,
				"y": 1.3365184905,
				"z": 0.1100105356,
				"element": "C" 
			},
			{
				"x": 0.1690161229,
				"y": 2.2396149646,
				"z": -0.7311430052,
				"element": "C" 
			},
			{
				"x": -0.6998540081,
				"y": 1.793836955,
				"z": -1.7437199365,
				"element": "C" 
			},
			{
				"x": -0.9399691903,
				"y": 0.4365831925,
				"z": -1.928183863,
				"element": "C" 
			},
			{
				"x": 3.6562402807,
				"y": -0.0778699724,
				"z": 2.3557894717,
				"element": "H" 
			},
			{
				"x": 2.2522269312,
				"y": -1.9932963135,
				"z": 2.3065905463,
				"element": "H" 
			},
			{
				"x": 1.4383024726,
				"y": -0.4700408522,
				"z": 2.7090929024,
				"element": "H" 
			},
			{
				"x": 0.9023077959,
				"y": -3.3314961263,
				"z": 0.6426296389,
				"element": "H" 
			},
			{
				"x": 1.5008566914,
				"y": 1.6743127552,
				"z": 0.8699612547,
				"element": "H" 
			},
			{
				"x": 0.3498559486,
				"y": 3.3039904804,
				"z": -0.6127523982,
				"element": "H" 
			},
			{
				"x": -1.1849559098,
				"y": 2.5161433645,
				"z": -2.3937514427,
				"element": "H" 
			},
			{
				"x": -1.6057229883,
				"y": 0.0915719394,
				"z": -2.7134527437,
				"element": "H" 
			}
		],
		 "valence_orbital": [ 
			{
				"type": "occ",
				"energy": -0.32346,
				"method": "rhf"
			},
			{
				"type": "occ",
				"energy": -0.28223,
				"method": "rhf"
			},
			{
				"type": "occ",
				"energy": -0.26713,
				"method": "rhf"
			},
			{
				"type": "occ",
				"energy": -0.23178,
				"method": "rhf"
			},
			{
				"type": "occ",
				"energy": -0.21293,
				"method": "rhf"
			},
			{
				"type": "unocc",
				"energy": -0.0216,
				"method": "rhf"
			},
			{
				"type": "unocc",
				"energy": 0.00368,
				"method": "rhf"
			},
			{
				"type": "unocc",
				"energy": 0.02564,
				"method": "rhf"
			},
			{
				"type": "unocc",
				"energy": 0.03804,
				"method": "rhf"
			},
			{
				"type": "unocc",
				"energy": 0.08302,
				"method": "rhf"
			}
		],
		"cosmo_sigma_profile": { 
			"-0.025": 0.0,
			"-0.024": 0.0,
			"-0.023": 0.0,
			"-0.022": 0.0,
			"-0.021": 0.0,
			"-0.02": 0.0,
			"-0.019": 0.0,
			"-0.018": 0.0,
			"-0.017": 0.0,
			"-0.016": 0.580100741964,
			"-0.015": 1.08822141114,
			"-0.014": 0.975654256978,
			"-0.013": 0.718309462045,
			"-0.012": 1.29307062195,
			"-0.011": 0.658687906256,
			"-0.01": 0.726419039893,
			"-0.009": 1.67829004235,
			"-0.008": 2.96213488747,
			"-0.007": 3.99900206505,
			"-0.006": 8.51947838132,
			"-0.005": 13.4481237882,
			"-0.004": 17.3208996967,
			"-0.003": 14.7586619304,
			"-0.002": 11.7891728456,
			"-0.001": 10.2977420397,
			"0.0": 9.5326330491,
			"0.001": 8.61526827332,
			"0.002": 13.0679385406,
			"0.003": 17.7501233782,
			"0.004": 18.1848818586,
			"0.005": 17.0285838058,
			"0.006": 7.25039799677,
			"0.007": 1.85164674693,
			"0.008": 1.36905791246,
			"0.009": 1.76906342563,
			"0.01": 1.2744054661,
			"0.011": 0.99015375585,
			"0.012": 1.86855180833,
			"0.013": 1.38439577576,
			"0.014": 1.04570103515,
			"0.015": 0.140624248456,
			"0.016": 0.0,
			"0.017": 0.0,
			"0.018": 0.0,
			"0.019": 0.0,
			"0.02": 0.0,
			"0.021": 0.0,
			"0.022": 0.0,
			"0.023": 0.0,
			"0.024": 0.0,
			"0.025": 0.0
		}
	}
}
