{
	 "smiles": "NN1C(S)=NN=C1C1CCOCC1", 
	 "Tm": 451.15, 
	 "num_atms": 25, 
	 "gaussian": { 
		 "optdone": 1, 
		 "sigma_profile": "yes", 
		 "theory": "DFT", 
		 "functional": "B3LYP", 
		 "basiset": "6-31G**", 
		 "properties": { 
			 "R2extent": 3467.1308, 
			 "electric_dipole_moment_norm": 3.69796152089, 
			 "electric_quadrupole_moment_norm": 14.8632106918, 
			 "total_energy": -966.318150317, 
			 "HOMO_LUMO_gap": 0.22828, 
			 "cosmo_polarized_energy": -21.29, 
			 "cosmo_cavitation_energy": 29.32, 
			 "cosmo_dispersion_energy": -21.89, 
			 "cosmo_repulsion_energy": 1.7, 
			 "cosmo_total_nonelectrostatic_energy": 9.13, 
			 "SMD_solvation_energy": 2.71 
		},
		"coords": [
			{
				"x": -0.9584222641,
				"y": 0.2814269427,
				"z": 2.2982341961,
				"element": "N" 
			},
			{
				"x": -0.1575313482,
				"y": -0.5647447726,
				"z": 1.526018512,
				"element": "N" 
			},
			{
				"x": 0.4610990639,
				"y": -1.7420389636,
				"z": 1.8793150426,
				"element": "C" 
			},
			{
				"x": 0.3312153249,
				"y": -2.3861284368,
				"z": 3.5192251601,
				"element": "S" 
			},
			{
				"x": 1.1027069928,
				"y": -2.2508656984,
				"z": 0.8614815634,
				"element": "N" 
			},
			{
				"x": 0.9057552833,
				"y": -1.3839232281,
				"z": -0.21223351,
				"element": "N" 
			},
			{
				"x": 0.1556287737,
				"y": -0.3882921676,
				"z": 0.1908140066,
				"element": "C" 
			},
			{
				"x": -0.2915101915,
				"y": 0.7894181759,
				"z": -0.6161644051,
				"element": "C" 
			},
			{
				"x": -0.2147680166,
				"y": 0.5133103277,
				"z": -2.1263412202,
				"element": "C" 
			},
			{
				"x": -0.8323972828,
				"y": 1.7028392232,
				"z": -2.8933490343,
				"element": "C" 
			},
			{
				"x": -0.8058460313,
				"y": 2.9171396721,
				"z": -2.1435918523,
				"element": "O" 
			},
			{
				"x": 0.4206767806,
				"y": 3.0792207126,
				"z": -1.4472883167,
				"element": "C" 
			},
			{
				"x": 0.5379574297,
				"y": 2.0636421765,
				"z": -0.2878362637,
				"element": "C" 
			},
			{
				"x": -0.4181821379,
				"y": 0.638107384,
				"z": 3.0832299488,
				"element": "H" 
			},
			{
				"x": -1.7586055971,
				"y": -0.238135749,
				"z": 2.6523978096,
				"element": "H" 
			},
			{
				"x": 1.0797891667,
				"y": -3.4674458966,
				"z": 3.2331860488,
				"element": "H" 
			},
			{
				"x": -1.3337612724,
				"y": 0.9998463384,
				"z": -0.3493817681,
				"element": "H" 
			},
			{
				"x": 0.8327711876,
				"y": 0.3594865576,
				"z": -2.4049368581,
				"element": "H" 
			},
			{
				"x": -0.7354688612,
				"y": -0.4141795807,
				"z": -2.3813945721,
				"element": "H" 
			},
			{
				"x": -0.3161849049,
				"y": 1.8437679263,
				"z": -3.856778414,
				"element": "H" 
			},
			{
				"x": -1.8909452459,
				"y": 1.5205897543,
				"z": -3.1051582369,
				"element": "H" 
			},
			{
				"x": 0.4322481817,
				"y": 4.1075389316,
				"z": -1.0751420377,
				"element": "H" 
			},
			{
				"x": 1.2694814749,
				"y": 2.9708439991,
				"z": -2.1418244123,
				"element": "H" 
			},
			{
				"x": 0.1741761132,
				"y": 2.4967698855,
				"z": 0.6491745451,
				"element": "H" 
			},
			{
				"x": 1.5904173809,
				"y": 1.7945064858,
				"z": -0.1398559316,
				"element": "H" 
			}
		],
		 "valence_orbital": [ 
			{
				"type": "occ",
				"energy": -0.29671,
				"method": "rhf"
			},
			{
				"type": "occ",
				"energy": -0.29454,
				"method": "rhf"
			},
			{
				"type": "occ",
				"energy": -0.2503,
				"method": "rhf"
			},
			{
				"type": "occ",
				"energy": -0.24687,
				"method": "rhf"
			},
			{
				"type": "occ",
				"energy": -0.23164,
				"method": "rhf"
			},
			{
				"type": "unocc",
				"energy": -0.00336,
				"method": "rhf"
			},
			{
				"type": "unocc",
				"energy": 0.01624,
				"method": "rhf"
			},
			{
				"type": "unocc",
				"energy": 0.04324,
				"method": "rhf"
			},
			{
				"type": "unocc",
				"energy": 0.04456,
				"method": "rhf"
			},
			{
				"type": "unocc",
				"energy": 0.07004,
				"method": "rhf"
			}
		],
		"cosmo_sigma_profile": { 
			"-0.025": 0.0,
			"-0.024": 0.0,
			"-0.023": 0.0,
			"-0.022": 0.0,
			"-0.021": 0.0,
			"-0.02": 0.0,
			"-0.019": 0.0,
			"-0.018": 0.0,
			"-0.017": 0.0,
			"-0.016": 0.0,
			"-0.015": 0.0,
			"-0.014": 1.1944048572,
			"-0.013": 3.74122723061,
			"-0.012": 4.34755962837,
			"-0.011": 5.32196973305,
			"-0.01": 4.45645719993,
			"-0.009": 3.93473825607,
			"-0.008": 3.07893255508,
			"-0.007": 3.12004187307,
			"-0.006": 2.02647590646,
			"-0.005": 5.98511902669,
			"-0.004": 18.4689021807,
			"-0.003": 33.1519934477,
			"-0.002": 24.7043380075,
			"-0.001": 17.9112308349,
			"0.0": 13.4611484558,
			"0.001": 10.1418069243,
			"0.002": 9.47044278591,
			"0.003": 8.42660972747,
			"0.004": 7.44048786032,
			"0.005": 7.5935997557,
			"0.006": 5.37323705761,
			"0.007": 4.48875244568,
			"0.008": 4.48736208541,
			"0.009": 3.46682085677,
			"0.01": 3.90075290661,
			"0.011": 3.42718950497,
			"0.012": 3.46435990406,
			"0.013": 4.6892212252,
			"0.014": 4.90920531308,
			"0.015": 2.6268540339,
			"0.016": 2.24592251302,
			"0.017": 1.1346058678,
			"0.018": 0.0,
			"0.019": 0.0,
			"0.02": 0.0,
			"0.021": 0.0,
			"0.022": 0.0,
			"0.023": 0.0,
			"0.024": 0.0,
			"0.025": 0.0
		}
	}
}
