{
	 "smiles": "COC1=C(C=C(C=C1)C(O)=O)S(=O)(=O)N1CCCCCC1", 
	 "Tm": 465.15, 
	 "num_atms": 40, 
	 "gaussian": { 
		 "optdone": 1, 
		 "sigma_profile": "yes", 
		 "theory": "DFT", 
		 "functional": "B3LYP", 
		 "basiset": "6-31G**", 
		 "properties": { 
			 "R2extent": 7394.7851, 
			 "electric_dipole_moment_norm": 7.75927257609, 
			 "electric_quadrupole_moment_norm": 25.4668964697, 
			 "total_energy": -1373.91785696, 
			 "HOMO_LUMO_gap": 0.18261, 
			 "cosmo_polarized_energy": -23.97, 
			 "cosmo_cavitation_energy": 41.93, 
			 "cosmo_dispersion_energy": -29.59, 
			 "cosmo_repulsion_energy": 2.22, 
			 "cosmo_total_nonelectrostatic_energy": 14.56, 
			 "SMD_solvation_energy": 7.49 
		},
		"coords": [
			{
				"x": -3.2815938148,
				"y": 1.1715677001,
				"z": 2.1389400584,
				"element": "C" 
			},
			{
				"x": -2.4266288023,
				"y": 0.1143421418,
				"z": 1.6692917752,
				"element": "O" 
			},
			{
				"x": -1.1028854041,
				"y": 0.2358118117,
				"z": 1.9826059764,
				"element": "C" 
			},
			{
				"x": -0.1629451795,
				"y": 0.5739557895,
				"z": 0.9914318194,
				"element": "C" 
			},
			{
				"x": 1.1941859513,
				"y": 0.6195868983,
				"z": 1.299493263,
				"element": "C" 
			},
			{
				"x": 1.6406249456,
				"y": 0.3187102193,
				"z": 2.5926877883,
				"element": "C" 
			},
			{
				"x": 0.6989715688,
				"y": 0.0060135139,
				"z": 3.5829687892,
				"element": "C" 
			},
			{
				"x": -0.6590729682,
				"y": -0.0352040973,
				"z": 3.2811460905,
				"element": "C" 
			},
			{
				"x": 3.1161551559,
				"y": 0.3920992311,
				"z": 2.8517987909,
				"element": "C" 
			},
			{
				"x": 3.5781115468,
				"y": -0.2671736152,
				"z": 3.9494360554,
				"element": "O" 
			},
			{
				"x": 3.8836693757,
				"y": 0.9969698597,
				"z": 2.1429676941,
				"element": "O" 
			},
			{
				"x": -0.6767461465,
				"y": 1.0056401219,
				"z": -0.6948165991,
				"element": "S" 
			},
			{
				"x": -1.8057212716,
				"y": 1.9353277782,
				"z": -0.5956239787,
				"element": "O" 
			},
			{
				"x": 0.559308029,
				"y": 1.3891711678,
				"z": -1.381319526,
				"element": "O" 
			},
			{
				"x": -1.2251954924,
				"y": -0.3862439494,
				"z": -1.4193750012,
				"element": "N" 
			},
			{
				"x": -2.6521012236,
				"y": -0.7381209917,
				"z": -1.4006191459,
				"element": "C" 
			},
			{
				"x": -3.2605275844,
				"y": -0.8575834309,
				"z": -2.8332143795,
				"element": "C" 
			},
			{
				"x": -2.2325948801,
				"y": -0.7837722565,
				"z": -3.9719212084,
				"element": "C" 
			},
			{
				"x": -1.2521054838,
				"y": -1.9728216008,
				"z": -4.039708385,
				"element": "C" 
			},
			{
				"x": -0.7680317997,
				"y": -2.4933476925,
				"z": -2.675538779,
				"element": "C" 
			},
			{
				"x": -0.222279874,
				"y": -1.430793586,
				"z": -1.7160955621,
				"element": "C" 
			},
			{
				"x": -4.3008287466,
				"y": 0.8594133408,
				"z": 1.9073284736,
				"element": "H" 
			},
			{
				"x": -3.0487096395,
				"y": 2.1014030411,
				"z": 1.6130899324,
				"element": "H" 
			},
			{
				"x": -3.1807952805,
				"y": 1.3087405972,
				"z": 3.2216494378,
				"element": "H" 
			},
			{
				"x": 1.9118587292,
				"y": 0.9035202565,
				"z": 0.5383755888,
				"element": "H" 
			},
			{
				"x": 1.0087825125,
				"y": -0.1813638398,
				"z": 4.6082053196,
				"element": "H" 
			},
			{
				"x": -1.3900738536,
				"y": -0.2904233893,
				"z": 4.0415528629,
				"element": "H" 
			},
			{
				"x": 2.8917277664,
				"y": -0.8439435897,
				"z": 4.3113441948,
				"element": "H" 
			},
			{
				"x": -3.1668512548,
				"y": 0.0405093321,
				"z": -0.8427802505,
				"element": "H" 
			},
			{
				"x": -2.783692349,
				"y": -1.6692695506,
				"z": -0.8370836217,
				"element": "H" 
			},
			{
				"x": -3.8311505379,
				"y": -1.792663689,
				"z": -2.9010623009,
				"element": "H" 
			},
			{
				"x": -3.9827012571,
				"y": -0.0459561856,
				"z": -2.9742896784,
				"element": "H" 
			},
			{
				"x": -2.7689194103,
				"y": -0.7128406963,
				"z": -4.9256831258,
				"element": "H" 
			},
			{
				"x": -1.6691959914,
				"y": 0.1483955992,
				"z": -3.8667829375,
				"element": "H" 
			},
			{
				"x": -1.7274142792,
				"y": -2.8126403299,
				"z": -4.5627577697,
				"element": "H" 
			},
			{
				"x": -0.3877832652,
				"y": -1.6836377094,
				"z": -4.6503605053,
				"element": "H" 
			},
			{
				"x": -1.5792336757,
				"y": -3.0420813574,
				"z": -2.1829728487,
				"element": "H" 
			},
			{
				"x": 0.0323909714,
				"y": -3.2275793481,
				"z": -2.8273229197,
				"element": "H" 
			},
			{
				"x": 0.6490307235,
				"y": -0.9374269883,
				"z": -2.153425674,
				"element": "H" 
			},
			{
				"x": 0.1025621897,
				"y": -1.9264905062,
				"z": -0.7873597137,
				"element": "H" 
			}
		],
		 "valence_orbital": [ 
			{
				"type": "occ",
				"energy": -0.29782,
				"method": "rhf"
			},
			{
				"type": "occ",
				"energy": -0.28664,
				"method": "rhf"
			},
			{
				"type": "occ",
				"energy": -0.28053,
				"method": "rhf"
			},
			{
				"type": "occ",
				"energy": -0.26679,
				"method": "rhf"
			},
			{
				"type": "occ",
				"energy": -0.24575,
				"method": "rhf"
			},
			{
				"type": "unocc",
				"energy": -0.06314,
				"method": "rhf"
			},
			{
				"type": "unocc",
				"energy": -0.04467,
				"method": "rhf"
			},
			{
				"type": "unocc",
				"energy": 0.02865,
				"method": "rhf"
			},
			{
				"type": "unocc",
				"energy": 0.04579,
				"method": "rhf"
			},
			{
				"type": "unocc",
				"energy": 0.06185,
				"method": "rhf"
			}
		],
		"cosmo_sigma_profile": { 
			"-0.025": 0.0,
			"-0.024": 0.0,
			"-0.023": 0.0,
			"-0.022": 0.0,
			"-0.021": 0.0,
			"-0.02": 0.0,
			"-0.019": 0.603344621272,
			"-0.018": 1.1904578357,
			"-0.017": 0.946043057055,
			"-0.016": 1.05551531796,
			"-0.015": 1.00129106498,
			"-0.014": 0.643366095572,
			"-0.013": 1.38233676229,
			"-0.012": 1.33157734976,
			"-0.011": 1.08437442983,
			"-0.01": 1.34233255058,
			"-0.009": 1.96769793253,
			"-0.008": 3.9911046928,
			"-0.007": 5.69098035159,
			"-0.006": 8.13108009118,
			"-0.005": 10.2071861925,
			"-0.004": 23.7478283193,
			"-0.003": 40.1719707909,
			"-0.002": 40.6609489222,
			"-0.001": 36.577594882,
			"0.0": 35.8501300776,
			"0.001": 24.5819174614,
			"0.002": 8.75733784969,
			"0.003": 8.5475206083,
			"0.004": 6.77075194775,
			"0.005": 6.07319364339,
			"0.006": 6.36239761509,
			"0.007": 5.45137076105,
			"0.008": 6.21000743804,
			"0.009": 8.90049370684,
			"0.01": 10.5167215922,
			"0.011": 10.8454477375,
			"0.012": 8.41015768769,
			"0.013": 0.904297393471,
			"0.014": 0.0,
			"0.015": 0.0,
			"0.016": 0.0,
			"0.017": 0.0,
			"0.018": 0.0,
			"0.019": 0.0,
			"0.02": 0.0,
			"0.021": 0.0,
			"0.022": 0.0,
			"0.023": 0.0,
			"0.024": 0.0,
			"0.0": 0.0
		}
	}
}
