{
	 "smiles": "CC1=CN2CC(N)CCC2=N1", 
	 "Tm": 323.15, 
	 "num_atms": 24, 
	 "gaussian": { 
		 "optdone": 1, 
		 "sigma_profile": "yes", 
		 "theory": "DFT", 
		 "functional": "B3LYP", 
		 "basiset": "6-31G**", 
		 "properties": { 
			 "R2extent": 2153.5841, 
			 "electric_dipole_moment_norm": 3.68751320676, 
			 "electric_quadrupole_moment_norm": 8.37784389864, 
			 "total_energy": -476.950255088, 
			 "HOMO_LUMO_gap": 0.23912, 
			 "cosmo_polarized_energy": -13.65, 
			 "cosmo_cavitation_energy": 25.7, 
			 "cosmo_dispersion_energy": -19.27, 
			 "cosmo_repulsion_energy": 1.56, 
			 "cosmo_total_nonelectrostatic_energy": 7.99, 
			 "SMD_solvation_energy": 0.99 
		},
		"coords": [
			{
				"x": 1.5704061446,
				"y": 1.3794759714,
				"z": -4.0783107917,
				"element": "C" 
			},
			{
				"x": 1.0261576272,
				"y": 0.9319081866,
				"z": -2.7577892385,
				"element": "C" 
			},
			{
				"x": 1.5156210293,
				"y": 1.1871290684,
				"z": -1.4989663364,
				"element": "C" 
			},
			{
				"x": 0.6490305883,
				"y": 0.5587669138,
				"z": -0.6198719401,
				"element": "N" 
			},
			{
				"x": 0.7806116726,
				"y": 0.4436700132,
				"z": 0.8276274203,
				"element": "C" 
			},
			{
				"x": -0.5509422288,
				"y": 0.0080270672,
				"z": 1.4749761035,
				"element": "C" 
			},
			{
				"x": -0.4253544068,
				"y": -0.3163845666,
				"z": 2.8950215888,
				"element": "N" 
			},
			{
				"x": -1.135242117,
				"y": -1.182418709,
				"z": 0.7026040654,
				"element": "C" 
			},
			{
				"x": -1.4479293287,
				"y": -0.8007276291,
				"z": -0.7536351891,
				"element": "C" 
			},
			{
				"x": -0.3116109509,
				"y": -0.0519453652,
				"z": -1.3847347371,
				"element": "C" 
			},
			{
				"x": -0.1152927382,
				"y": 0.1588120083,
				"z": -2.6719482918,
				"element": "N" 
			},
			{
				"x": 1.8094033357,
				"y": 0.521228777,
				"z": -4.7162872443,
				"element": "H" 
			},
			{
				"x": 2.4798888211,
				"y": 1.9738824304,
				"z": -3.9507464432,
				"element": "H" 
			},
			{
				"x": 0.838122868,
				"y": 1.9876199568,
				"z": -4.6212157757,
				"element": "H" 
			},
			{
				"x": 2.3773024651,
				"y": 1.7381557033,
				"z": -1.1524064066,
				"element": "H" 
			},
			{
				"x": 1.5556381629,
				"y": -0.2978470655,
				"z": 1.0725862803,
				"element": "H" 
			},
			{
				"x": 1.1077632091,
				"y": 1.4076880322,
				"z": 1.2344469681,
				"element": "H" 
			},
			{
				"x": -1.2579451879,
				"y": 0.8453458196,
				"z": 1.3961161344,
				"element": "H" 
			},
			{
				"x": 0.2393312787,
				"y": -1.0774490588,
				"z": 3.0229956741,
				"element": "H" 
			},
			{
				"x": -0.0614110532,
				"y": 0.4792786099,
				"z": 3.4144368777,
				"element": "H" 
			},
			{
				"x": -2.0367079108,
				"y": -1.5309448205,
				"z": 1.2145561646,
				"element": "H" 
			},
			{
				"x": -0.411383724,
				"y": -2.0100594708,
				"z": 0.7257673331,
				"element": "H" 
			},
			{
				"x": -1.6723110409,
				"y": -1.6853337519,
				"z": -1.3572081042,
				"element": "H" 
			},
			{
				"x": -2.3514465154,
				"y": -0.175278121,
				"z": -0.7802141116,
				"element": "H" 
			}
		],
		 "valence_orbital": [ 
			{
				"type": "occ",
				"energy": -0.33938,
				"method": "rhf"
			},
			{
				"type": "occ",
				"energy": -0.25273,
				"method": "rhf"
			},
			{
				"type": "occ",
				"energy": -0.2486,
				"method": "rhf"
			},
			{
				"type": "occ",
				"energy": -0.24728,
				"method": "rhf"
			},
			{
				"type": "occ",
				"energy": -0.20266,
				"method": "rhf"
			},
			{
				"type": "unocc",
				"energy": 0.03646,
				"method": "rhf"
			},
			{
				"type": "unocc",
				"energy": 0.0656,
				"method": "rhf"
			},
			{
				"type": "unocc",
				"energy": 0.07637,
				"method": "rhf"
			},
			{
				"type": "unocc",
				"energy": 0.0967,
				"method": "rhf"
			},
			{
				"type": "unocc",
				"energy": 0.10697,
				"method": "rhf"
			}
		],
		"cosmo_sigma_profile": { 
			"-0.025": 0.0,
			"-0.024": 0.0,
			"-0.023": 0.0,
			"-0.022": 0.0,
			"-0.021": 0.0,
			"-0.02": 0.0,
			"-0.019": 0.0,
			"-0.018": 0.0,
			"-0.017": 0.0,
			"-0.016": 0.0,
			"-0.015": 0.0,
			"-0.014": 0.0,
			"-0.013": 0.0,
			"-0.012": 0.0,
			"-0.011": 0.0,
			"-0.01": 1.67571395619,
			"-0.009": 2.8565948093,
			"-0.008": 3.94197981356,
			"-0.007": 6.69132341807,
			"-0.006": 8.26076162073,
			"-0.005": 10.9946485985,
			"-0.004": 21.4461968333,
			"-0.003": 24.9334960831,
			"-0.002": 20.4627188971,
			"-0.001": 16.3547554533,
			"0.0": 14.6079766502,
			"0.001": 11.659690847,
			"0.002": 6.84547462833,
			"0.003": 6.400863158,
			"0.004": 5.23367457411,
			"0.005": 5.56521656238,
			"0.006": 6.54824624726,
			"0.007": 3.90771067008,
			"0.008": 2.14490875488,
			"0.009": 2.7675744196,
			"0.01": 1.87988453718,
			"0.011": 2.80548673771,
			"0.012": 1.62986603178,
			"0.013": 1.79895280515,
			"0.014": 0.891268858236,
			"0.015": 1.71742527688,
			"0.016": 2.05818113403,
			"0.017": 1.44123976896,
			"0.018": 1.51407916839,
			"0.019": 1.01386219004,
			"0.02": 0.253466757653,
			"0.021": 0.0,
			"0.022": 0.0,
			"0.023": 0.0,
			"0.024": 0.0,
			"0.025": 0.0
		}
	}
}
