{
	 "smiles": "OC(=O)CC(O)=O", 
	 "Tm": 409.15, 
	 "num_atms": 11, 
	 "gaussian": { 
		 "optdone": 1, 
		 "sigma_profile": "yes", 
		 "theory": "DFT", 
		 "functional": "B3LYP", 
		 "basiset": "6-31G**", 
		 "properties": { 
			 "R2extent": 922.1285, 
			 "electric_dipole_moment_norm": 4.75835322459, 
			 "electric_quadrupole_moment_norm": 11.9810334362, 
			 "total_energy": -417.641288053, 
			 "HOMO_LUMO_gap": 0.2419, 
			 "cosmo_polarized_energy": -20.45, 
			 "cosmo_cavitation_energy": 15.74, 
			 "cosmo_dispersion_energy": -11.99, 
			 "cosmo_repulsion_energy": 1.04, 
			 "cosmo_total_nonelectrostatic_energy": 4.79, 
			 "SMD_solvation_energy": 5.48 
		},
		"coords": [
			{
				"x": 0.4682001356,
				"y": -0.2903810596,
				"z": 1.7171660725,
				"element": "O" 
			},
			{
				"x": 0.6357028838,
				"y": 0.1302062031,
				"z": 0.4645093727,
				"element": "C" 
			},
			{
				"x": 1.7189586092,
				"y": 0.3403358273,
				"z": -0.0243720217,
				"element": "O" 
			},
			{
				"x": -0.6332388615,
				"y": 0.3557424921,
				"z": -0.3872352309,
				"element": "C" 
			},
			{
				"x": -1.9850659823,
				"y": 0.0862114413,
				"z": 0.2510173246,
				"element": "C" 
			},
			{
				"x": -3.0619245859,
				"y": 0.2949539106,
				"z": -0.5255180731,
				"element": "O" 
			},
			{
				"x": -2.1420478439,
				"y": -0.2974372078,
				"z": 1.3940223794,
				"element": "O" 
			},
			{
				"x": -0.4966292563,
				"y": -0.3939685627,
				"z": 1.9009958368,
				"element": "H" 
			},
			{
				"x": -0.5994815893,
				"y": 1.3946500214,
				"z": -0.7367681137,
				"element": "H" 
			},
			{
				"x": -0.526886162,
				"y": -0.2658388653,
				"z": -1.2844344091,
				"element": "H" 
			},
			{
				"x": -2.7990873475,
				"y": 0.5970257997,
				"z": -1.4073831374,
				"element": "H" 
			}
		],
		 "valence_orbital": [ 
			{
				"type": "occ",
				"energy": -0.37798,
				"method": "rhf"
			},
			{
				"type": "occ",
				"energy": -0.35983,
				"method": "rhf"
			},
			{
				"type": "occ",
				"energy": -0.32115,
				"method": "rhf"
			},
			{
				"type": "occ",
				"energy": -0.31179,
				"method": "rhf"
			},
			{
				"type": "occ",
				"energy": -0.27605,
				"method": "rhf"
			},
			{
				"type": "unocc",
				"energy": -0.03415,
				"method": "rhf"
			},
			{
				"type": "unocc",
				"energy": 0.00549,
				"method": "rhf"
			},
			{
				"type": "unocc",
				"energy": 0.02404,
				"method": "rhf"
			},
			{
				"type": "unocc",
				"energy": 0.08956,
				"method": "rhf"
			},
			{
				"type": "unocc",
				"energy": 0.14977,
				"method": "rhf"
			}
		],
		"cosmo_sigma_profile": { 
			"-0.025": 0.0,
			"-0.024": 0.0,
			"-0.023": 0.0,
			"-0.022": 0.0,
			"-0.021": 0.299399532822,
			"-0.02": 1.26518852996,
			"-0.019": 1.30931357467,
			"-0.018": 1.63721859532,
			"-0.017": 1.46542459315,
			"-0.016": 0.874013499299,
			"-0.015": 0.735936560988,
			"-0.014": 1.3945803371,
			"-0.013": 1.54817132546,
			"-0.012": 2.31414900754,
			"-0.011": 2.21070236051,
			"-0.01": 5.31609090986,
			"-0.009": 6.58451491567,
			"-0.008": 5.3485818783,
			"-0.007": 4.15685910314,
			"-0.006": 4.27013970708,
			"-0.005": 4.46212637903,
			"-0.004": 3.4984045925,
			"-0.003": 2.99035443422,
			"-0.002": 3.28618910618,
			"-0.001": 2.89438678906,
			"0.0": 3.28899936907,
			"0.001": 3.15539425329,
			"0.002": 3.21067131432,
			"0.003": 4.2595384465,
			"0.004": 3.92056940654,
			"0.005": 3.45532665806,
			"0.006": 4.30018022118,
			"0.007": 5.41395271433,
			"0.008": 6.61463115692,
			"0.009": 7.18864677697,
			"0.01": 7.02532313987,
			"0.011": 6.85233075865,
			"0.012": 5.96967519476,
			"0.013": 2.45911107302,
			"0.014": 0.148452852658,
			"0.015": 0.0,
			"0.016": 0.0,
			"0.017": 0.0,
			"0.018": 0.0,
			"0.019": 0.0,
			"0.02": 0.0,
			"0.021": 0.0,
			"0.022": 0.0,
			"0.023": 0.0,
			"0.024": 0.0,
			"0.025": 0.0
		}
	}
}
