{
	 "smiles": "CC1=CC=C(C#N)C(=C1)S(Cl)(=O)=O", 
	 "Tm": 345.15, 
	 "num_atms": 19, 
	 "gaussian": { 
		 "optdone": 1, 
		 "sigma_profile": "yes", 
		 "theory": "DFT", 
		 "functional": "B3LYP", 
		 "basiset": "6-31G**", 
		 "properties": { 
			 "R2extent": 5965.5194, 
			 "electric_dipole_moment_norm": 7.9109348866, 
			 "electric_quadrupole_moment_norm": 21.5152920045, 
			 "total_energy": -1371.95669491, 
			 "HOMO_LUMO_gap": 0.18388, 
			 "cosmo_polarized_energy": -14.91, 
			 "cosmo_cavitation_energy": 27.87, 
			 "cosmo_dispersion_energy": -20.04, 
			 "cosmo_repulsion_energy": 1.55, 
			 "cosmo_total_nonelectrostatic_energy": 9.38, 
			 "SMD_solvation_energy": 4.75 
		},
		"coords": [
			{
				"x": -1.2936210283,
				"y": 3.5550042998,
				"z": -0.6320335169,
				"element": "C" 
			},
			{
				"x": -0.2856804358,
				"y": 2.4466384891,
				"z": -0.4604080528,
				"element": "C" 
			},
			{
				"x": -0.683517212,
				"y": 1.1438274853,
				"z": -0.1365699759,
				"element": "C" 
			},
			{
				"x": 0.2431332679,
				"y": 0.1132343688,
				"z": -0.0052901094,
				"element": "C" 
			},
			{
				"x": 1.6141220052,
				"y": 0.3491938195,
				"z": -0.1950679124,
				"element": "C" 
			},
			{
				"x": 2.5199713363,
				"y": -0.7480528551,
				"z": -0.0255461549,
				"element": "C" 
			},
			{
				"x": 3.1822989059,
				"y": -1.6877965401,
				"z": 0.1460646008,
				"element": "N" 
			},
			{
				"x": 2.0091370615,
				"y": 1.6622054816,
				"z": -0.5189119353,
				"element": "C" 
			},
			{
				"x": 1.0825836837,
				"y": 2.6916859553,
				"z": -0.6454560652,
				"element": "C" 
			},
			{
				"x": 3.7301623387,
				"y": 2.0894292234,
				"z": -0.831238955,
				"element": "S" 
			},
			{
				"x": 4.5237197967,
				"y": 2.0551616026,
				"z": 1.1347677579,
				"element": "Cl" 
			},
			{
				"x": 4.3745513784,
				"y": 1.0167243357,
				"z": -1.5726222453,
				"element": "O" 
			},
			{
				"x": 3.7843734373,
				"y": 3.477568301,
				"z": -1.2724490512,
				"element": "O" 
			},
			{
				"x": -2.1830942377,
				"y": 3.382314695,
				"z": -0.02023579,
				"element": "H" 
			},
			{
				"x": -0.8708773932,
				"y": 4.5254849014,
				"z": -0.358833296,
				"element": "H" 
			},
			{
				"x": -1.6204871816,
				"y": 3.6222657816,
				"z": -1.6768092281,
				"element": "H" 
			},
			{
				"x": -1.7368399251,
				"y": 0.9290507885,
				"z": 0.0192493398,
				"element": "H" 
			},
			{
				"x": -0.0824368562,
				"y": -0.8894128957,
				"z": 0.2494938205,
				"element": "H" 
			},
			{
				"x": 1.4353010581,
				"y": 3.6866727624,
				"z": -0.8933032305,
				"element": "H" 
			}
		],
		 "valence_orbital": [ 
			{
				"type": "occ",
				"energy": -0.34233,
				"method": "rhf"
			},
			{
				"type": "occ",
				"energy": -0.33466,
				"method": "rhf"
			},
			{
				"type": "occ",
				"energy": -0.31992,
				"method": "rhf"
			},
			{
				"type": "occ",
				"energy": -0.30605,
				"method": "rhf"
			},
			{
				"type": "occ",
				"energy": -0.28553,
				"method": "rhf"
			},
			{
				"type": "unocc",
				"energy": -0.10165,
				"method": "rhf"
			},
			{
				"type": "unocc",
				"energy": -0.07324,
				"method": "rhf"
			},
			{
				"type": "unocc",
				"energy": -0.05747,
				"method": "rhf"
			},
			{
				"type": "unocc",
				"energy": 0.01669,
				"method": "rhf"
			},
			{
				"type": "unocc",
				"energy": 0.03873,
				"method": "rhf"
			}
		],
		"cosmo_sigma_profile": { 
			"-0.025": 0.0,
			"-0.024": 0.0,
			"-0.023": 0.0,
			"-0.022": 0.0,
			"-0.021": 0.0,
			"-0.02": 0.0,
			"-0.019": 0.0,
			"-0.018": 0.0,
			"-0.017": 0.0,
			"-0.016": 0.0,
			"-0.015": 0.0,
			"-0.014": 0.0,
			"-0.013": 0.0,
			"-0.012": 0.0,
			"-0.011": 0.0,
			"-0.01": 0.490194408047,
			"-0.009": 3.03122979977,
			"-0.008": 7.21517602204,
			"-0.007": 7.75359494883,
			"-0.006": 10.8836218765,
			"-0.005": 13.1256887557,
			"-0.004": 14.2309074105,
			"-0.003": 21.4744547187,
			"-0.002": 23.5573921838,
			"-0.001": 21.4397722307,
			"0.0": 14.6386886266,
			"0.001": 9.66984401356,
			"0.002": 13.6794999846,
			"0.003": 12.6684400724,
			"0.004": 5.84635461348,
			"0.005": 5.43849153594,
			"0.006": 6.53976676334,
			"0.007": 12.0285864254,
			"0.008": 12.4820997582,
			"0.009": 4.13240438121,
			"0.01": 2.89726679655,
			"0.011": 2.43548130921,
			"0.012": 1.56580342991,
			"0.013": 0.125659718178,
			"0.014": 0.0,
			"0.015": 0.0,
			"0.016": 0.0,
			"0.017": 0.0,
			"0.018": 0.0,
			"0.019": 0.0,
			"0.02": 0.0,
			"0.021": 0.0,
			"0.022": 0.0,
			"0.023": 0.0,
			"0.024": 0.0,
			"0.025": 0.0
		}
	}
}
