{
	 "smiles": "FC(F)(F)C1=NNC(=O)C1=NNC1=CC=C(Br)C=C1", 
	 "Tm": 485.15, 
	 "num_atms": 25, 
	 "gaussian": { 
		 "optdone": 1, 
		 "sigma_profile": "yes", 
		 "theory": "DFT", 
		 "functional": "B3LYP", 
		 "basiset": "6-31G**", 
		 "properties": { 
			 "R2extent": 10508.325, 
			 "electric_dipole_moment_norm": 2.07536403072, 
			 "electric_quadrupole_moment_norm": 6.35457777354, 
			 "total_energy": -3549.77581556, 
			 "HOMO_LUMO_gap": 0.11978, 
			 "cosmo_polarized_energy": -16.06, 
			 "cosmo_cavitation_energy": 35.11, 
			 "cosmo_dispersion_energy": -25.23, 
			 "cosmo_repulsion_energy": 1.89, 
			 "cosmo_total_nonelectrostatic_energy": 11.77, 
			 "SMD_solvation_energy": 5.24 
		},
		"coords": [
			{
				"x": -2.7271454188,
				"y": 1.8110333693,
				"z": 2.9233481863,
				"element": "F" 
			},
			{
				"x": -1.8586421075,
				"y": 1.2890832954,
				"z": 2.0620092514,
				"element": "C" 
			},
			{
				"x": -2.2756273081,
				"y": 0.04067503,
				"z": 1.7311204044,
				"element": "F" 
			},
			{
				"x": -0.6690863309,
				"y": 1.1071974011,
				"z": 2.7203965709,
				"element": "F" 
			},
			{
				"x": -1.6578168384,
				"y": 2.1283937422,
				"z": 0.8437359079,
				"element": "C" 
			},
			{
				"x": -2.4251426258,
				"y": 3.1662864418,
				"z": 0.6458041041,
				"element": "N" 
			},
			{
				"x": -2.0724537365,
				"y": 3.7116185951,
				"z": -0.5452953033,
				"element": "N" 
			},
			{
				"x": -1.0523656804,
				"y": 3.0307286502,
				"z": -1.2202066403,
				"element": "C" 
			},
			{
				"x": -0.5825774346,
				"y": 3.3231394578,
				"z": -2.3023304891,
				"element": "O" 
			},
			{
				"x": -0.7350125927,
				"y": 1.9233468694,
				"z": -0.2665069233,
				"element": "C" 
			},
			{
				"x": 0.208202056,
				"y": 1.0729274669,
				"z": -0.5680795138,
				"element": "N" 
			},
			{
				"x": 0.5671199261,
				"y": 0.1032845382,
				"z": 0.2345251928,
				"element": "N" 
			},
			{
				"x": 1.5820832192,
				"y": -0.7994930702,
				"z": -0.1285161942,
				"element": "C" 
			},
			{
				"x": 2.2216004355,
				"y": -0.719598052,
				"z": -1.3725220594,
				"element": "C" 
			},
			{
				"x": 3.2195325506,
				"y": -1.6354899901,
				"z": -1.6892862625,
				"element": "C" 
			},
			{
				"x": 3.5749049792,
				"y": -2.6251016748,
				"z": -0.7704119674,
				"element": "C" 
			},
			{
				"x": 4.9440662712,
				"y": -3.8769132801,
				"z": -1.2149943693,
				"element": "Br" 
			},
			{
				"x": 2.9407629904,
				"y": -2.709886522,
				"z": 0.4681309348,
				"element": "C" 
			},
			{
				"x": 1.9418535809,
				"y": -1.7944479239,
				"z": 0.7888935628,
				"element": "C" 
			},
			{
				"x": -2.5648858098,
				"y": 4.5253553162,
				"z": -0.8812220208,
				"element": "H" 
			},
			{
				"x": 0.1657669663,
				"y": 0.0090349476,
				"z": 1.1651021306,
				"element": "H" 
			},
			{
				"x": 1.9329550162,
				"y": 0.0549478047,
				"z": -2.0727010695,
				"element": "H" 
			},
			{
				"x": 3.7202606318,
				"y": -1.5807107389,
				"z": -2.6490394178,
				"element": "H" 
			},
			{
				"x": 3.2222044551,
				"y": -3.4811096209,
				"z": 1.1755148156,
				"element": "H" 
			},
			{
				"x": 1.443842805,
				"y": -1.8566020529,
				"z": 1.7530311689,
				"element": "H" 
			}
		],
		 "valence_orbital": [ 
			{
				"type": "occ",
				"energy": -0.29589,
				"method": "rhf"
			},
			{
				"type": "occ",
				"energy": -0.28091,
				"method": "rhf"
			},
			{
				"type": "occ",
				"energy": -0.26515,
				"method": "rhf"
			},
			{
				"type": "occ",
				"energy": -0.26171,
				"method": "rhf"
			},
			{
				"type": "occ",
				"energy": -0.2248,
				"method": "rhf"
			},
			{
				"type": "unocc",
				"energy": -0.10502,
				"method": "rhf"
			},
			{
				"type": "unocc",
				"energy": -0.03037,
				"method": "rhf"
			},
			{
				"type": "unocc",
				"energy": -0.01603,
				"method": "rhf"
			},
			{
				"type": "unocc",
				"energy": -0.0015,
				"method": "rhf"
			},
			{
				"type": "unocc",
				"energy": 0.00912,
				"method": "rhf"
			}
		],
		"cosmo_sigma_profile": { 
			"-0.025": 0.0,
			"-0.024": 0.0,
			"-0.023": 0.0,
			"-0.022": 0.0,
			"-0.021": 0.0,
			"-0.02": 0.0,
			"-0.019": 0.0,
			"-0.018": 0.0,
			"-0.017": 1.19224306002,
			"-0.016": 1.25027843358,
			"-0.015": 1.12843072234,
			"-0.014": 1.81957140096,
			"-0.013": 1.13155136374,
			"-0.012": 2.02957495958,
			"-0.011": 2.74280989952,
			"-0.01": 1.9054458333,
			"-0.009": 2.84324270966,
			"-0.008": 4.7828893907,
			"-0.007": 7.98230657891,
			"-0.006": 10.7968274144,
			"-0.005": 9.24569262888,
			"-0.004": 12.9419039832,
			"-0.003": 17.4927540757,
			"-0.002": 18.8829026425,
			"-0.001": 22.2187206906,
			"0.0": 23.8455723996,
			"0.001": 31.1216528577,
			"0.002": 42.4837080512,
			"0.003": 18.5810066254,
			"0.004": 14.296185734,
			"0.005": 7.0108080324,
			"0.006": 3.07513971358,
			"0.007": 2.53106994652,
			"0.008": 2.68730866681,
			"0.009": 3.33007902024,
			"0.01": 2.40333680315,
			"0.011": 3.78557992712,
			"0.012": 6.9808579901,
			"0.013": 3.94654904769,
			"0.014": 0.637100368955,
			"0.015": 0.0,
			"0.016": 0.0,
			"0.017": 0.0,
			"0.018": 0.0,
			"0.019": 0.0,
			"0.02": 0.0,
			"0.021": 0.0,
			"0.022": 0.0,
			"0.023": 0.0,
			"0.024": 0.0,
			"0.025": 0.0
		}
	}
}
