{
	 "smiles": "OC(=O)C1CC1C1=CC(Cl)=C(Cl)C=C1", 
	 "Tm": 415.15, 
	 "num_atms": 22, 
	 "gaussian": { 
		 "optdone": 1, 
		 "sigma_profile": "yes", 
		 "theory": "DFT", 
		 "functional": "B3LYP", 
		 "basiset": "6-31G**", 
		 "properties": { 
			 "R2extent": 4159.7151, 
			 "electric_dipole_moment_norm": 6.56140154693, 
			 "electric_quadrupole_moment_norm": 11.3287390282, 
			 "total_energy": -1456.69508928, 
			 "HOMO_LUMO_gap": 0.21173, 
			 "cosmo_polarized_energy": -17.35, 
			 "cosmo_cavitation_energy": 29.71, 
			 "cosmo_dispersion_energy": -21.62, 
			 "cosmo_repulsion_energy": 1.72, 
			 "cosmo_total_nonelectrostatic_energy": 9.82, 
			 "SMD_solvation_energy": 5.13 
		},
		"coords": [
			{
				"x": -3.0075385995,
				"y": 1.0497927288,
				"z": -1.4946539036,
				"element": "O" 
			},
			{
				"x": -2.5214290791,
				"y": -0.1082986542,
				"z": -0.9764903433,
				"element": "C" 
			},
			{
				"x": -2.6425026099,
				"y": -0.3366844231,
				"z": 0.2044152425,
				"element": "O" 
			},
			{
				"x": -1.8518769935,
				"y": -1.0231414542,
				"z": -1.9537377873,
				"element": "C" 
			},
			{
				"x": -1.5023610177,
				"y": -2.4157078754,
				"z": -1.4969583603,
				"element": "C" 
			},
			{
				"x": -0.3771409696,
				"y": -1.4572896858,
				"z": -1.7373570892,
				"element": "C" 
			},
			{
				"x": 0.536509594,
				"y": -0.9014912093,
				"z": -0.6938915061,
				"element": "C" 
			},
			{
				"x": 0.2821732143,
				"y": -0.9764733976,
				"z": 0.6811697631,
				"element": "C" 
			},
			{
				"x": 1.1915478316,
				"y": -0.4594959877,
				"z": 1.6051672485,
				"element": "C" 
			},
			{
				"x": 0.8148152227,
				"y": -0.5904893678,
				"z": 3.3058816287,
				"element": "Cl" 
			},
			{
				"x": 2.3786675408,
				"y": 0.142613114,
				"z": 1.1684016348,
				"element": "C" 
			},
			{
				"x": 3.546073642,
				"y": 0.7966319906,
				"z": 2.2905607549,
				"element": "Cl" 
			},
			{
				"x": 2.6400832269,
				"y": 0.2200803307,
				"z": -0.2005563607,
				"element": "C" 
			},
			{
				"x": 1.7302095076,
				"y": -0.2962662822,
				"z": -1.1163393547,
				"element": "C" 
			},
			{
				"x": -2.8002368255,
				"y": 1.1108614803,
				"z": -2.4374323152,
				"element": "H" 
			},
			{
				"x": -2.1349055226,
				"y": -0.890339682,
				"z": -2.9958844777,
				"element": "H" 
			},
			{
				"x": -1.6382357245,
				"y": -3.2332951807,
				"z": -2.1975203733,
				"element": "H" 
			},
			{
				"x": -1.7717820346,
				"y": -2.639591151,
				"z": -0.4699669315,
				"element": "H" 
			},
			{
				"x": 0.1319934912,
				"y": -1.5916111053,
				"z": -2.6889201408,
				"element": "H" 
			},
			{
				"x": -0.6351710243,
				"y": -1.4135754742,
				"z": 1.0519984835,
				"element": "H" 
			},
			{
				"x": 3.561121798,
				"y": 0.6830497312,
				"z": -0.5368468133,
				"element": "H" 
			},
			{
				"x": 1.9552853317,
				"y": -0.2316784453,
				"z": -2.177338999,
				"element": "H" 
			}
		],
		 "valence_orbital": [ 
			{
				"type": "occ",
				"energy": -0.31078,
				"method": "rhf"
			},
			{
				"type": "occ",
				"energy": -0.30445,
				"method": "rhf"
			},
			{
				"type": "occ",
				"energy": -0.28112,
				"method": "rhf"
			},
			{
				"type": "occ",
				"energy": -0.25753,
				"method": "rhf"
			},
			{
				"type": "occ",
				"energy": -0.24192,
				"method": "rhf"
			},
			{
				"type": "unocc",
				"energy": -0.03019,
				"method": "rhf"
			},
			{
				"type": "unocc",
				"energy": -0.0215,
				"method": "rhf"
			},
			{
				"type": "unocc",
				"energy": -0.00091,
				"method": "rhf"
			},
			{
				"type": "unocc",
				"energy": 0.0074,
				"method": "rhf"
			},
			{
				"type": "unocc",
				"energy": 0.04517,
				"method": "rhf"
			}
		],
		"cosmo_sigma_profile": { 
			"-0.025": 0.0,
			"-0.024": 0.0,
			"-0.023": 0.0,
			"-0.022": 0.0,
			"-0.021": 0.0,
			"-0.02": 0.0,
			"-0.019": 0.746240934569,
			"-0.018": 1.18145637353,
			"-0.017": 0.998535941432,
			"-0.016": 1.03822184923,
			"-0.015": 1.40642091452,
			"-0.014": 1.39065011937,
			"-0.013": 0.880469360861,
			"-0.012": 0.670816362736,
			"-0.011": 0.711909049928,
			"-0.01": 1.60789855878,
			"-0.009": 1.21887202426,
			"-0.008": 3.6382046935,
			"-0.007": 11.4634259699,
			"-0.006": 12.5185673987,
			"-0.005": 11.089892874,
			"-0.004": 8.05203767821,
			"-0.003": 11.7760346207,
			"-0.002": 12.5329524048,
			"-0.001": 14.2955741748,
			"0.0": 18.3245298645,
			"0.001": 24.9578498916,
			"0.002": 25.6826029037,
			"0.003": 21.7064425885,
			"0.004": 19.2583739614,
			"0.005": 8.90922136857,
			"0.006": 3.61125327312,
			"0.007": 2.54737616511,
			"0.008": 2.95901729617,
			"0.009": 2.71365130713,
			"0.01": 4.35936284877,
			"0.011": 4.60548759187,
			"0.012": 2.99660539517,
			"0.013": 1.82872312293,
			"0.014": 0.170495126543,
			"0.015": 0.0,
			"0.016": 0.0,
			"0.017": 0.0,
			"0.018": 0.0,
			"0.019": 0.0,
			"0.02": 0.0,
			"0.021": 0.0,
			"0.022": 0.0,
			"0.023": 0.0,
			"0.024": 0.0,
			"0.025": 0.0
		}
	}
}
