{
	 "smiles": "NC1=NC(=O)N(C=C1F)C1CSC(CO)O1", 
	 "Tm": 411.15, 
	 "num_atms": 26, 
	 "gaussian": { 
		 "optdone": 1, 
		 "sigma_profile": "yes", 
		 "theory": "DFT", 
		 "functional": "B3LYP", 
		 "basiset": "6-31G**", 
		 "properties": { 
			 "R2extent": 5338.5281, 
			 "electric_dipole_moment_norm": 4.33082607016, 
			 "electric_quadrupole_moment_norm": 20.9626314942, 
			 "total_energy": -1198.81041237, 
			 "HOMO_LUMO_gap": 0.18589, 
			 "cosmo_polarized_energy": -21.85, 
			 "cosmo_cavitation_energy": 31.6, 
			 "cosmo_dispersion_energy": -23.69, 
			 "cosmo_repulsion_energy": 1.79, 
			 "cosmo_total_nonelectrostatic_energy": 9.7, 
			 "SMD_solvation_energy": 4.36 
		},
		"coords": [
			{
				"x": 5.453938976,
				"y": -0.7104505508,
				"z": -0.3194013747,
				"element": "N" 
			},
			{
				"x": 4.1534473774,
				"y": -0.5826914859,
				"z": 0.028585011,
				"element": "C" 
			},
			{
				"x": 3.6765720374,
				"y": -1.2906307317,
				"z": 1.032545433,
				"element": "N" 
			},
			{
				"x": 2.3690224202,
				"y": -1.1704545381,
				"z": 1.4209476719,
				"element": "C" 
			},
			{
				"x": 1.8668103506,
				"y": -1.7480954368,
				"z": 2.377257247,
				"element": "O" 
			},
			{
				"x": 1.5321229009,
				"y": -0.2959860236,
				"z": 0.6451106543,
				"element": "N" 
			},
			{
				"x": 2.0263725249,
				"y": 0.4497996488,
				"z": -0.3879052491,
				"element": "C" 
			},
			{
				"x": 3.3325437183,
				"y": 0.3301128187,
				"z": -0.7130017293,
				"element": "C" 
			},
			{
				"x": 3.8846887251,
				"y": 1.0262933401,
				"z": -1.7372256516,
				"element": "F" 
			},
			{
				"x": 0.13587535,
				"y": -0.1979914863,
				"z": 1.0622260726,
				"element": "C" 
			},
			{
				"x": -0.0864932661,
				"y": 0.8091857122,
				"z": 2.202367655,
				"element": "C" 
			},
			{
				"x": -1.8529374513,
				"y": 1.2785450888,
				"z": 2.0758974843,
				"element": "S" 
			},
			{
				"x": -1.9359203599,
				"y": 0.5991314066,
				"z": 0.3270203631,
				"element": "C" 
			},
			{
				"x": -2.8988105138,
				"y": -0.5938962729,
				"z": 0.2556107274,
				"element": "C" 
			},
			{
				"x": -4.1866594915,
				"y": -0.2405413574,
				"z": 0.7146516825,
				"element": "O" 
			},
			{
				"x": -0.6214355798,
				"y": 0.2478490394,
				"z": -0.0540546204,
				"element": "O" 
			},
			{
				"x": 5.824444323,
				"y": -0.2160926404,
				"z": -1.1131110599,
				"element": "H" 
			},
			{
				"x": 6.0186045991,
				"y": -1.3823121992,
				"z": 0.1755001821,
				"element": "H" 
			},
			{
				"x": 1.3366502303,
				"y": 1.0916137893,
				"z": -0.9197499664,
				"element": "H" 
			},
			{
				"x": -0.1585188739,
				"y": -1.1987923958,
				"z": 1.3894502883,
				"element": "H" 
			},
			{
				"x": 0.546827202,
				"y": 1.6892978945,
				"z": 2.0652452626,
				"element": "H" 
			},
			{
				"x": 0.1273190158,
				"y": 0.3469131511,
				"z": 3.166169778,
				"element": "H" 
			},
			{
				"x": -2.2742138113,
				"y": 1.3953159003,
				"z": -0.3401588259,
				"element": "H" 
			},
			{
				"x": -2.4758373362,
				"y": -1.4449364059,
				"z": 0.8085740171,
				"element": "H" 
			},
			{
				"x": -3.0049883746,
				"y": -0.8922533126,
				"z": -0.7928558222,
				"element": "H" 
			},
			{
				"x": -4.1297246927,
				"y": -0.1383329521,
				"z": 1.6758047693,
				"element": "H" 
			}
		],
		 "valence_orbital": [ 
			{
				"type": "occ",
				"energy": -0.27583,
				"method": "rhf"
			},
			{
				"type": "occ",
				"energy": -0.26399,
				"method": "rhf"
			},
			{
				"type": "occ",
				"energy": -0.25815,
				"method": "rhf"
			},
			{
				"type": "occ",
				"energy": -0.24126,
				"method": "rhf"
			},
			{
				"type": "occ",
				"energy": -0.23117,
				"method": "rhf"
			},
			{
				"type": "unocc",
				"energy": -0.04528,
				"method": "rhf"
			},
			{
				"type": "unocc",
				"energy": 0.00722,
				"method": "rhf"
			},
			{
				"type": "unocc",
				"energy": 0.01607,
				"method": "rhf"
			},
			{
				"type": "unocc",
				"energy": 0.04453,
				"method": "rhf"
			},
			{
				"type": "unocc",
				"energy": 0.06376,
				"method": "rhf"
			}
		],
		"cosmo_sigma_profile": { 
			"-0.025": 0.0,
			"-0.024": 0.0,
			"-0.023": 0.0,
			"-0.022": 0.0,
			"-0.021": 0.0,
			"-0.02": 0.0,
			"-0.019": 0.0,
			"-0.018": 0.0,
			"-0.017": 0.0,
			"-0.016": 0.0300257554837,
			"-0.015": 1.04099880418,
			"-0.014": 2.85787806405,
			"-0.013": 2.31072676222,
			"-0.012": 2.28840101335,
			"-0.011": 2.98816282226,
			"-0.01": 3.71035794358,
			"-0.009": 2.52816293389,
			"-0.008": 5.39327664617,
			"-0.007": 10.021947015,
			"-0.006": 14.903095052,
			"-0.005": 15.766293534,
			"-0.004": 16.9968060741,
			"-0.003": 18.8206265327,
			"-0.002": 18.9175899088,
			"-0.001": 16.4130463264,
			"0.0": 13.5113634832,
			"0.001": 10.7236288372,
			"0.002": 13.3020440536,
			"0.003": 14.936114466,
			"0.004": 11.2350863367,
			"0.005": 5.57693437884,
			"0.006": 6.94093000763,
			"0.007": 5.5201855525,
			"0.008": 3.92361336797,
			"0.009": 3.76665212434,
			"0.01": 3.31553201607,
			"0.011": 4.3219444872,
			"0.012": 3.16861924058,
			"0.013": 5.89942825683,
			"0.014": 5.25999321433,
			"0.015": 3.27490078869,
			"0.016": 2.62098607394,
			"0.017": 0.117579741156,
			"0.018": 0.0,
			"0.019": 0.0,
			"0.02": 0.0,
			"0.021": 0.0,
			"0.022": 0.0,
			"0.023": 0.0,
			"0.024": 0.0,
			"0.025": 0.0
		}
	}
}
