{
	 "smiles": "COC1=CC=C(C=C1)C1C(C#N)=C(N)OC2=C1C(=O)N(CCC1=CC=CC=C1)C(C)=C2", 
	 "Tm": 537.15, 
	 "num_atms": 54, 
	 "gaussian": { 
		 "optdone": 1, 
		 "sigma_profile": "yes", 
		 "theory": "DFT", 
		 "functional": "B3LYP", 
		 "basiset": "6-31G**", 
		 "properties": { 
			 "R2extent": 16803.6315, 
			 "electric_dipole_moment_norm": 7.18322401363, 
			 "electric_quadrupole_moment_norm": 30.2923071005, 
			 "total_energy": -1356.43796726, 
			 "HOMO_LUMO_gap": 0.16104, 
			 "cosmo_polarized_energy": -27.41, 
			 "cosmo_cavitation_energy": 58.21, 
			 "cosmo_dispersion_energy": -38.94, 
			 "cosmo_repulsion_energy": 2.94, 
			 "cosmo_total_nonelectrostatic_energy": 22.21, 
			 "SMD_solvation_energy": 11.72 
		},
		"coords": [
			{
				"x": 6.8608913104,
				"y": 0.8018627357,
				"z": 1.4537890072,
				"element": "C" 
			},
			{
				"x": 5.800510576,
				"y": 1.3185239865,
				"z": 2.2402073256,
				"element": "O" 
			},
			{
				"x": 4.5630964604,
				"y": 0.7551587459,
				"z": 2.1024843199,
				"element": "C" 
			},
			{
				"x": 3.5548208764,
				"y": 1.2943827788,
				"z": 2.9158734043,
				"element": "C" 
			},
			{
				"x": 2.2644565356,
				"y": 0.7866447825,
				"z": 2.8521435041,
				"element": "C" 
			},
			{
				"x": 1.9388585224,
				"y": -0.2657278891,
				"z": 1.9828667114,
				"element": "C" 
			},
			{
				"x": 2.9498857122,
				"y": -0.7877518548,
				"z": 1.1755944839,
				"element": "C" 
			},
			{
				"x": 4.2558563167,
				"y": -0.291907507,
				"z": 1.2275477034,
				"element": "C" 
			},
			{
				"x": 0.5100226449,
				"y": -0.8170122232,
				"z": 1.8993342031,
				"element": "C" 
			},
			{
				"x": -0.0900918687,
				"y": -1.1058365616,
				"z": 3.2686130977,
				"element": "C" 
			},
			{
				"x": 0.4265261531,
				"y": -2.1600357607,
				"z": 4.063944525,
				"element": "C" 
			},
			{
				"x": 0.8230543518,
				"y": -3.0187184413,
				"z": 4.7483675741,
				"element": "N" 
			},
			{
				"x": -1.0941529132,
				"y": -0.3516310644,
				"z": 3.7991303462,
				"element": "C" 
			},
			{
				"x": -1.6966014757,
				"y": -0.5342701135,
				"z": 5.0133308337,
				"element": "N" 
			},
			{
				"x": -1.6778547462,
				"y": 0.6873251106,
				"z": 3.1318930465,
				"element": "O" 
			},
			{
				"x": -1.3951059673,
				"y": 0.8409314249,
				"z": 1.7902479502,
				"element": "C" 
			},
			{
				"x": -0.4117176232,
				"y": 0.1316931466,
				"z": 1.1624893018,
				"element": "C" 
			},
			{
				"x": -0.2473155062,
				"y": 0.2790599737,
				"z": -0.2679293539,
				"element": "C" 
			},
			{
				"x": 0.5447417425,
				"y": -0.3822243756,
				"z": -0.9449050616,
				"element": "O" 
			},
			{
				"x": -1.0719797792,
				"y": 1.2523131027,
				"z": -0.9018794452,
				"element": "N" 
			},
			{
				"x": -0.8544866704,
				"y": 1.3863036852,
				"z": -2.3526838828,
				"element": "C" 
			},
			{
				"x": -1.6128235357,
				"y": 0.3184376971,
				"z": -3.1680237477,
				"element": "C" 
			},
			{
				"x": -1.2632350169,
				"y": 0.3959829834,
				"z": -4.6379967208,
				"element": "C" 
			},
			{
				"x": -0.0569379317,
				"y": -0.1486822463,
				"z": -5.1030421918,
				"element": "C" 
			},
			{
				"x": 0.2947981302,
				"y": -0.0557077331,
				"z": -6.4494764643,
				"element": "C" 
			},
			{
				"x": -0.5553264716,
				"y": 0.5843299962,
				"z": -7.3546048289,
				"element": "C" 
			},
			{
				"x": -1.7581923764,
				"y": 1.129628789,
				"z": -6.9038460182,
				"element": "C" 
			},
			{
				"x": -2.1065021767,
				"y": 1.0361246736,
				"z": -5.5548567442,
				"element": "C" 
			},
			{
				"x": -2.0323425939,
				"y": 1.97463346,
				"z": -0.2288367018,
				"element": "C" 
			},
			{
				"x": -2.8640033728,
				"y": 2.978782451,
				"z": -0.9811534939,
				"element": "C" 
			},
			{
				"x": -2.2148033138,
				"y": 1.7771052746,
				"z": 1.1140914181,
				"element": "C" 
			},
			{
				"x": 7.7462838413,
				"y": 1.3809414764,
				"z": 1.7217903169,
				"element": "H" 
			},
			{
				"x": 7.0458365827,
				"y": -0.2588502394,
				"z": 1.6679450911,
				"element": "H" 
			},
			{
				"x": 6.6654250119,
				"y": 0.9195217289,
				"z": 0.3797925612,
				"element": "H" 
			},
			{
				"x": 3.8114843752,
				"y": 2.1044921685,
				"z": 3.5909254792,
				"element": "H" 
			},
			{
				"x": 1.4982999635,
				"y": 1.2091335222,
				"z": 3.4970046795,
				"element": "H" 
			},
			{
				"x": 2.7136918536,
				"y": -1.5859557507,
				"z": 0.478971738,
				"element": "H" 
			},
			{
				"x": 5.0138305816,
				"y": -0.7267229377,
				"z": 0.5867837212,
				"element": "H" 
			},
			{
				"x": 0.5599137662,
				"y": -1.7474117944,
				"z": 1.3218600912,
				"element": "H" 
			},
			{
				"x": -1.1985416212,
				"y": -1.1048790995,
				"z": 5.6817361329,
				"element": "H" 
			},
			{
				"x": -2.1905496513,
				"y": 0.2623204915,
				"z": 5.3872931217,
				"element": "H" 
			},
			{
				"x": -1.1400605876,
				"y": 2.3899322621,
				"z": -2.6680835621,
				"element": "H" 
			},
			{
				"x": 0.2164483993,
				"y": 1.2652008014,
				"z": -2.5176916152,
				"element": "H" 
			},
			{
				"x": -1.3386737505,
				"y": -0.6609081431,
				"z": -2.7656643527,
				"element": "H" 
			},
			{
				"x": -2.6928550426,
				"y": 0.4431441288,
				"z": -3.0272303643,
				"element": "H" 
			},
			{
				"x": 0.6037181023,
				"y": -0.6511954716,
				"z": -4.4005288786,
				"element": "H" 
			},
			{
				"x": 1.2305711635,
				"y": -0.4873058627,
				"z": -6.7935405377,
				"element": "H" 
			},
			{
				"x": -0.2836176857,
				"y": 0.6534663015,
				"z": -8.4040295731,
				"element": "H" 
			},
			{
				"x": -2.4278314702,
				"y": 1.6246574427,
				"z": -7.6017115023,
				"element": "H" 
			},
			{
				"x": -3.0488048012,
				"y": 1.4575774246,
				"z": -5.2114286073,
				"element": "H" 
			},
			{
				"x": -3.3811469752,
				"y": 2.5295745953,
				"z": -1.834914861,
				"element": "H" 
			},
			{
				"x": -2.2534749112,
				"y": 3.8050253136,
				"z": -1.3626066478,
				"element": "H" 
			},
			{
				"x": -3.6167326737,
				"y": 3.4009091038,
				"z": -0.3133212314,
				"element": "H" 
			},
			{
				"x": -2.9754604637,
				"y": 2.3207135103,
				"z": 1.6584346992,
				"element": "H" 
			}
		],
		 "valence_orbital": [ 
			{
				"type": "occ",
				"energy": -0.24456,
				"method": "rhf"
			},
			{
				"type": "occ",
				"energy": -0.24043,
				"method": "rhf"
			},
			{
				"type": "occ",
				"energy": -0.21889,
				"method": "rhf"
			},
			{
				"type": "occ",
				"energy": -0.21329,
				"method": "rhf"
			},
			{
				"type": "occ",
				"energy": -0.20386,
				"method": "rhf"
			},
			{
				"type": "unocc",
				"energy": -0.04282,
				"method": "rhf"
			},
			{
				"type": "unocc",
				"energy": -0.00405,
				"method": "rhf"
			},
			{
				"type": "unocc",
				"energy": -0.00229,
				"method": "rhf"
			},
			{
				"type": "unocc",
				"energy": 0.00201,
				"method": "rhf"
			},
			{
				"type": "unocc",
				"energy": 0.00886,
				"method": "rhf"
			}
		],
		"cosmo_sigma_profile": { 
			"-0.025": 0.0,
			"-0.024": 0.0,
			"-0.023": 0.0,
			"-0.022": 0.0,
			"-0.021": 0.0,
			"-0.02": 0.0,
			"-0.019": 0.0,
			"-0.018": 0.0,
			"-0.017": 0.0,
			"-0.016": 0.0,
			"-0.015": 0.961974265565,
			"-0.014": 2.1594232806,
			"-0.013": 1.85350208035,
			"-0.012": 2.37852530903,
			"-0.011": 1.757616349,
			"-0.01": 2.76844899114,
			"-0.009": 1.2444195178,
			"-0.008": 2.53534849295,
			"-0.007": 8.03331872268,
			"-0.006": 19.7825162464,
			"-0.005": 38.6869662759,
			"-0.004": 42.9017938831,
			"-0.003": 42.0270141904,
			"-0.002": 38.5417707617,
			"-0.001": 36.145044295,
			"0.0": 28.7068984105,
			"0.001": 30.29425564,
			"0.002": 24.1431347861,
			"0.003": 24.421927047,
			"0.004": 25.0932020866,
			"0.005": 22.3270388561,
			"0.006": 20.3320834754,
			"0.007": 8.44209444184,
			"0.008": 6.25660368406,
			"0.009": 7.05917482012,
			"0.01": 6.25021114302,
			"0.011": 5.66442922268,
			"0.012": 4.907824406,
			"0.013": 5.02488060001,
			"0.014": 2.88985372343,
			"0.015": 0.157449246542,
			"0.016": 0.0,
			"0.017": 0.0,
			"0.018": 0.0,
			"0.019": 0.0,
			"0.02": 0.0,
			"0.021": 0.0,
			"0.022": 0.0,
			"0.023": 0.0,
			"0.024": 0.0,
			"0.025": 0.0
		}
	}
}
