{
	 "smiles": "OC(=O)C1=C(N=CN1)C(O)=O", 
	 "Tm": 561.15, 
	 "num_atms": 15, 
	 "gaussian": { 
		 "optdone": 1, 
		 "sigma_profile": "yes", 
		 "theory": "DFT", 
		 "functional": "B3LYP", 
		 "basiset": "6-31G**", 
		 "properties": { 
			 "R2extent": 2111.351, 
			 "electric_dipole_moment_norm": 0.565416996561, 
			 "electric_quadrupole_moment_norm": 26.2631278874, 
			 "total_energy": -603.364912992, 
			 "HOMO_LUMO_gap": 0.19534, 
			 "cosmo_polarized_energy": -21.57, 
			 "cosmo_cavitation_energy": 20.55, 
			 "cosmo_dispersion_energy": -15.7, 
			 "cosmo_repulsion_energy": 1.26, 
			 "cosmo_total_nonelectrostatic_energy": 6.11, 
			 "SMD_solvation_energy": 4.84 
		},
		"coords": [
			{
				"x": -1.2904011426,
				"y": 2.005037077,
				"z": 0.3488401088,
				"element": "O" 
			},
			{
				"x": -1.7808290569,
				"y": 1.6106280583,
				"z": -0.8241656137,
				"element": "C" 
			},
			{
				"x": -2.8038830355,
				"y": 2.0793259099,
				"z": -1.287138133,
				"element": "O" 
			},
			{
				"x": -1.0540963748,
				"y": 0.5600116349,
				"z": -1.5969573552,
				"element": "C" 
			},
			{
				"x": 0.0853450454,
				"y": -0.2504768472,
				"z": -1.5238560382,
				"element": "C" 
			},
			{
				"x": 0.1790412276,
				"y": -1.0469585621,
				"z": -2.6386264964,
				"element": "N" 
			},
			{
				"x": -0.8655739865,
				"y": -0.7407050783,
				"z": -3.3764264308,
				"element": "C" 
			},
			{
				"x": -1.6315526714,
				"y": 0.2172512603,
				"z": -2.7911584682,
				"element": "N" 
			},
			{
				"x": 1.1305187713,
				"y": -0.3655972276,
				"z": -0.4918565333,
				"element": "C" 
			},
			{
				"x": 0.9159406322,
				"y": 0.4875297224,
				"z": 0.5701799576,
				"element": "O" 
			},
			{
				"x": 2.0852575888,
				"y": -1.1001982669,
				"z": -0.5161399853,
				"element": "O" 
			},
			{
				"x": -0.4645780742,
				"y": 1.5242924982,
				"z": 0.5657804581,
				"element": "H" 
			},
			{
				"x": -1.1098647081,
				"y": -1.1800226066,
				"z": -4.3336141261,
				"element": "H" 
			},
			{
				"x": -2.4883248507,
				"y": 0.6559818873,
				"z": -3.1082918125,
				"element": "H" 
			},
			{
				"x": 1.6448006354,
				"y": 0.3467005405,
				"z": 1.1966304681,
				"element": "H" 
			}
		],
		 "valence_orbital": [ 
			{
				"type": "occ",
				"energy": -0.31638,
				"method": "rhf"
			},
			{
				"type": "occ",
				"energy": -0.31198,
				"method": "rhf"
			},
			{
				"type": "occ",
				"energy": -0.3021,
				"method": "rhf"
			},
			{
				"type": "occ",
				"energy": -0.2823,
				"method": "rhf"
			},
			{
				"type": "occ",
				"energy": -0.27114,
				"method": "rhf"
			},
			{
				"type": "unocc",
				"energy": -0.0758,
				"method": "rhf"
			},
			{
				"type": "unocc",
				"energy": -0.00948,
				"method": "rhf"
			},
			{
				"type": "unocc",
				"energy": 0.03857,
				"method": "rhf"
			},
			{
				"type": "unocc",
				"energy": 0.04917,
				"method": "rhf"
			},
			{
				"type": "unocc",
				"energy": 0.0789,
				"method": "rhf"
			}
		],
		"cosmo_sigma_profile": { 
			"-0.025": 0.0,
			"-0.024": 0.0,
			"-0.023": 0.0,
			"-0.022": 0.0,
			"-0.021": 0.0,
			"-0.02": 0.304745593983,
			"-0.019": 0.969007149637,
			"-0.018": 0.909960836096,
			"-0.017": 2.5513508996,
			"-0.016": 1.26038583829,
			"-0.015": 1.59515825437,
			"-0.014": 1.22669745104,
			"-0.013": 2.02648150961,
			"-0.012": 1.77146832596,
			"-0.011": 3.48554402658,
			"-0.01": 4.3213523694,
			"-0.009": 4.5389066638,
			"-0.008": 5.53890437203,
			"-0.007": 4.3458390259,
			"-0.006": 5.37421168067,
			"-0.005": 8.82913155874,
			"-0.004": 9.45370532062,
			"-0.003": 9.84638092189,
			"-0.002": 12.0358209425,
			"-0.001": 8.76585780274,
			"0.0": 6.17884146035,
			"0.001": 4.56966573867,
			"0.002": 3.45410026228,
			"0.003": 3.56011156201,
			"0.004": 3.32018671779,
			"0.005": 5.06415943705,
			"0.006": 4.84549510911,
			"0.007": 4.03396111117,
			"0.008": 3.77664161187,
			"0.009": 6.86657501346,
			"0.01": 10.6565712581,
			"0.011": 8.55695032622,
			"0.012": 4.63191274627,
			"0.013": 2.84834045895,
			"0.014": 1.58922505599,
			"0.015": 1.45965512182,
			"0.016": 0.950021188633,
			"0.017": 0.0992686317969,
			"0.018": 0.0,
			"0.019": 0.0,
			"0.02": 0.0,
			"0.021": 0.0,
			"0.022": 0.0,
			"0.023": 0.0,
			"0.024": 0.0,
			"0.025": 0.0
		}
	}
}
