{
	 "smiles": "ClC1=C(Cl)C(Cl)=C2N=CC=NC2=C1Cl", 
	 "Tm": 463.15, 
	 "num_atms": 16, 
	 "gaussian": { 
		 "optdone": 1, 
		 "sigma_profile": "yes", 
		 "theory": "DFT", 
		 "functional": "B3LYP", 
		 "basiset": "6-31G**", 
		 "properties": { 
			 "R2extent": 5071.5611, 
			 "electric_dipole_moment_norm": 2.29264078521, 
			 "electric_quadrupole_moment_norm": 8.97352537802, 
			 "total_energy": -2256.3005673, 
			 "HOMO_LUMO_gap": 0.15203, 
			 "cosmo_polarized_energy": -7.47, 
			 "cosmo_cavitation_energy": 27.75, 
			 "cosmo_dispersion_energy": -21.4, 
			 "cosmo_repulsion_energy": 1.66, 
			 "cosmo_total_nonelectrostatic_energy": 8.01, 
			 "SMD_solvation_energy": 1.42 
		},
		"coords": [
			{
				"x": 3.69812781,
				"y": -0.5966973845,
				"z": 2.2757398683,
				"element": "Cl" 
			},
			{
				"x": 2.2800480793,
				"y": -0.7076886794,
				"z": 1.2843144866,
				"element": "C" 
			},
			{
				"x": 1.2456730246,
				"y": -1.6315412124,
				"z": 1.6428606306,
				"element": "C" 
			},
			{
				"x": 1.439928582,
				"y": -2.6134259158,
				"z": 3.0586238345,
				"element": "Cl" 
			},
			{
				"x": 0.1022612081,
				"y": -1.7411248234,
				"z": 0.8690060008,
				"element": "C" 
			},
			{
				"x": -1.164310065,
				"y": -2.8497424216,
				"z": 1.2790013199,
				"element": "Cl" 
			},
			{
				"x": -0.0503706354,
				"y": -0.9294829862,
				"z": -0.29486659,
				"element": "C" 
			},
			{
				"x": -1.1734878832,
				"y": -1.0417422175,
				"z": -1.0492235651,
				"element": "N" 
			},
			{
				"x": -1.2619653996,
				"y": -0.2702406282,
				"z": -2.110259394,
				"element": "C" 
			},
			{
				"x": -0.2372476952,
				"y": 0.6451572109,
				"z": -2.4654056524,
				"element": "C" 
			},
			{
				"x": 0.861034598,
				"y": 0.7756906659,
				"z": -1.7543682977,
				"element": "N" 
			},
			{
				"x": 0.9811529297,
				"y": -0.0080633682,
				"z": -0.6523938029,
				"element": "C" 
			},
			{
				"x": 2.1512936518,
				"y": 0.0890815198,
				"z": 0.1587759755,
				"element": "C" 
			},
			{
				"x": 3.3862542022,
				"y": 1.2148071474,
				"z": -0.2983922373,
				"element": "Cl" 
			},
			{
				"x": -2.1603331562,
				"y": -0.3562326042,
				"z": -2.7185872603,
				"element": "H" 
			},
			{
				"x": -0.3386592511,
				"y": 1.2711456975,
				"z": -3.3499253166,
				"element": "H" 
			}
		],
		 "valence_orbital": [ 
			{
				"type": "occ",
				"energy": -0.32245,
				"method": "rhf"
			},
			{
				"type": "occ",
				"energy": -0.30283,
				"method": "rhf"
			},
			{
				"type": "occ",
				"energy": -0.2755,
				"method": "rhf"
			},
			{
				"type": "occ",
				"energy": -0.27325,
				"method": "rhf"
			},
			{
				"type": "occ",
				"energy": -0.2528,
				"method": "rhf"
			},
			{
				"type": "unocc",
				"energy": -0.10077,
				"method": "rhf"
			},
			{
				"type": "unocc",
				"energy": -0.05886,
				"method": "rhf"
			},
			{
				"type": "unocc",
				"energy": -0.03575,
				"method": "rhf"
			},
			{
				"type": "unocc",
				"energy": -0.02364,
				"method": "rhf"
			},
			{
				"type": "unocc",
				"energy": 0.02035,
				"method": "rhf"
			}
		],
		"cosmo_sigma_profile": { 
			"-0.025": 0.0,
			"-0.024": 0.0,
			"-0.023": 0.0,
			"-0.022": 0.0,
			"-0.021": 0.0,
			"-0.02": 0.0,
			"-0.019": 0.0,
			"-0.018": 0.0,
			"-0.017": 0.0,
			"-0.016": 0.0,
			"-0.015": 0.0,
			"-0.014": 0.0,
			"-0.013": 0.0,
			"-0.012": 0.0,
			"-0.011": 0.0,
			"-0.01": 0.0,
			"-0.009": 4.29035824078,
			"-0.008": 6.21287830829,
			"-0.007": 3.60719249935,
			"-0.006": 3.70734877743,
			"-0.005": 7.41031080395,
			"-0.004": 15.0264025139,
			"-0.003": 25.4209646093,
			"-0.002": 25.6773342865,
			"-0.001": 17.8845127053,
			"0.0": 16.521710202,
			"0.001": 18.0188498732,
			"0.002": 25.1041448119,
			"0.003": 30.738168867,
			"0.004": 13.5467313616,
			"0.005": 4.15662463595,
			"0.006": 3.0214189243,
			"0.007": 2.54840863921,
			"0.008": 2.47204688343,
			"0.009": 2.04078050452,
			"0.01": 2.11776348467,
			"0.011": 2.07935268015,
			"0.012": 1.8954868667,
			"0.013": 0.568091824633,
			"0.014": 0.0,
			"0.015": 0.0,
			"0.016": 0.0,
			"0.017": 0.0,
			"0.018": 0.0,
			"0.019": 0.0,
			"0.02": 0.0,
			"0.021": 0.0,
			"0.022": 0.0,
			"0.023": 0.0,
			"0.024": 0.0,
			"0.025": 0.0
		}
	}
}
