{
	 "smiles": "CN1C=C(C=O)C(=N1)C1=CC2=C(O1)C=CC=C2", 
	 "Tm": 425.15, 
	 "num_atms": 27, 
	 "gaussian": { 
		 "optdone": 1, 
		 "sigma_profile": "yes", 
		 "theory": "DFT", 
		 "functional": "B3LYP", 
		 "basiset": "6-31G**", 
		 "properties": { 
			 "R2extent": 5182.6355, 
			 "electric_dipole_moment_norm": 2.69387684017, 
			 "electric_quadrupole_moment_norm": 27.9195933278, 
			 "total_energy": -761.325150246, 
			 "HOMO_LUMO_gap": 0.1593, 
			 "cosmo_polarized_energy": -14.85, 
			 "cosmo_cavitation_energy": 32.54, 
			 "cosmo_dispersion_energy": -23.71, 
			 "cosmo_repulsion_energy": 1.81, 
			 "cosmo_total_nonelectrostatic_energy": 10.65, 
			 "SMD_solvation_energy": 6.22 
		},
		"coords": [
			{
				"x": 0.6333555048,
				"y": 4.366709299,
				"z": -0.930278463,
				"element": "C" 
			},
			{
				"x": 0.1596881116,
				"y": 2.9943083941,
				"z": -0.9834171074,
				"element": "N" 
			},
			{
				"x": -0.9627630071,
				"y": 2.5215065248,
				"z": -1.5571517977,
				"element": "C" 
			},
			{
				"x": -0.9806836639,
				"y": 1.1465197887,
				"z": -1.3462922873,
				"element": "C" 
			},
			{
				"x": -1.9881635529,
				"y": 0.2380853074,
				"z": -1.8864589185,
				"element": "C" 
			},
			{
				"x": -2.9896034715,
				"y": 0.6112982001,
				"z": -2.4776260124,
				"element": "O" 
			},
			{
				"x": 0.2156832451,
				"y": 0.8941609235,
				"z": -0.5992116685,
				"element": "C" 
			},
			{
				"x": 0.8964773927,
				"y": 2.0256078506,
				"z": -0.3888821668,
				"element": "N" 
			},
			{
				"x": 0.7117747882,
				"y": -0.366121082,
				"z": -0.0720859395,
				"element": "C" 
			},
			{
				"x": 0.0877741087,
				"y": -1.5375564384,
				"z": 0.2561210813,
				"element": "C" 
			},
			{
				"x": 1.1085877031,
				"y": -2.4212914871,
				"z": 0.7507883426,
				"element": "C" 
			},
			{
				"x": 2.3049057251,
				"y": -1.6807196446,
				"z": 0.6838898261,
				"element": "C" 
			},
			{
				"x": 2.0645845813,
				"y": -0.4320066829,
				"z": 0.1841306069,
				"element": "O" 
			},
			{
				"x": 3.5419209415,
				"y": -2.1775978128,
				"z": 1.0769966449,
				"element": "C" 
			},
			{
				"x": 3.558929022,
				"y": -3.4848732025,
				"z": 1.5612193468,
				"element": "C" 
			},
			{
				"x": 2.3798005009,
				"y": -4.2514349651,
				"z": 1.6437927183,
				"element": "C" 
			},
			{
				"x": 1.1510118553,
				"y": -3.7355371671,
				"z": 1.2445151306,
				"element": "C" 
			},
			{
				"x": 0.6963295953,
				"y": 4.6981528701,
				"z": 0.1089865948,
				"element": "H" 
			},
			{
				"x": 1.6242916146,
				"y": 4.4313343171,
				"z": -1.3852760686,
				"element": "H" 
			},
			{
				"x": -0.0640828292,
				"y": 5.003010319,
				"z": -1.4764245516,
				"element": "H" 
			},
			{
				"x": -1.6639443595,
				"y": 3.1501517297,
				"z": -2.0853653591,
				"element": "H" 
			},
			{
				"x": -1.7826398209,
				"y": -0.8426634858,
				"z": -1.7476009306,
				"element": "H" 
			},
			{
				"x": -0.971488081,
				"y": -1.7366734209,
				"z": 0.1896142285,
				"element": "H" 
			},
			{
				"x": 4.4397174787,
				"y": -1.5732490705,
				"z": 1.0083938106,
				"element": "H" 
			},
			{
				"x": 4.500490155,
				"y": -3.9203313688,
				"z": 1.8818073914,
				"element": "H" 
			},
			{
				"x": 2.4348190874,
				"y": -5.2658302325,
				"z": 2.0275096412,
				"element": "H" 
			},
			{
				"x": 0.2476273749,
				"y": -4.3342594631,
				"z": 1.3120059068,
				"element": "H" 
			}
		],
		 "valence_orbital": [ 
			{
				"type": "occ",
				"energy": -0.27811,
				"method": "rhf"
			},
			{
				"type": "occ",
				"energy": -0.2612,
				"method": "rhf"
			},
			{
				"type": "occ",
				"energy": -0.24975,
				"method": "rhf"
			},
			{
				"type": "occ",
				"energy": -0.2373,
				"method": "rhf"
			},
			{
				"type": "occ",
				"energy": -0.21326,
				"method": "rhf"
			},
			{
				"type": "unocc",
				"energy": -0.05396,
				"method": "rhf"
			},
			{
				"type": "unocc",
				"energy": -0.03147,
				"method": "rhf"
			},
			{
				"type": "unocc",
				"energy": 0.00779,
				"method": "rhf"
			},
			{
				"type": "unocc",
				"energy": 0.01942,
				"method": "rhf"
			},
			{
				"type": "unocc",
				"energy": 0.05823,
				"method": "rhf"
			}
		],
		"cosmo_sigma_profile": { 
			"-0.025": 0.0,
			"-0.024": 0.0,
			"-0.023": 0.0,
			"-0.022": 0.0,
			"-0.021": 0.0,
			"-0.02": 0.0,
			"-0.019": 0.0,
			"-0.018": 0.0,
			"-0.017": 0.0,
			"-0.016": 0.0,
			"-0.015": 0.0,
			"-0.014": 0.0,
			"-0.013": 0.0,
			"-0.012": 0.0,
			"-0.011": 0.906414277023,
			"-0.01": 2.62231485543,
			"-0.009": 3.1193456077,
			"-0.008": 5.59836828817,
			"-0.007": 10.4959988005,
			"-0.006": 16.8467950562,
			"-0.005": 20.5617302441,
			"-0.004": 23.9977588089,
			"-0.003": 17.689868982,
			"-0.002": 12.1348049726,
			"-0.001": 13.1708895137,
			"0.0": 16.7689640099,
			"0.001": 21.4012329626,
			"0.002": 17.7715274648,
			"0.003": 18.1006144219,
			"0.004": 14.1495499952,
			"0.005": 12.0284056531,
			"0.006": 4.75863121153,
			"0.007": 3.06276752439,
			"0.008": 3.6399021756,
			"0.009": 3.97362270015,
			"0.01": 3.67557814093,
			"0.011": 5.6707425757,
			"0.012": 5.33847742485,
			"0.013": 3.00844690948,
			"0.014": 1.42447694414,
			"0.015": 0.373717913311,
			"0.016": 0.0,
			"0.017": 0.0,
			"0.018": 0.0,
			"0.019": 0.0,
			"0.02": 0.0,
			"0.021": 0.0,
			"0.022": 0.0,
			"0.023": 0.0,
			"0.024": 0.0,
			"0.025": 0.0
		}
	}
}
