{
	 "smiles": "CCOC(=O)C1=C2CCCC(=O)C2=C(SCC2=CC=CC=C2)S1", 
	 "Tm": 413.15, 
	 "num_atms": 41, 
	 "gaussian": { 
		 "optdone": 1, 
		 "sigma_profile": "yes", 
		 "theory": "DFT", 
		 "functional": "B3LYP", 
		 "basiset": "6-31G**", 
		 "properties": { 
			 "R2extent": 9107.4237, 
			 "electric_dipole_moment_norm": 2.30061026034, 
			 "electric_quadrupole_moment_norm": 8.31375388859, 
			 "total_energy": -1718.83312254, 
			 "HOMO_LUMO_gap": 0.15143, 
			 "cosmo_polarized_energy": -12.64, 
			 "cosmo_cavitation_energy": 47.07, 
			 "cosmo_dispersion_energy": -32.48, 
			 "cosmo_repulsion_energy": 2.45, 
			 "cosmo_total_nonelectrostatic_energy": 17.05, 
			 "SMD_solvation_energy": 7.75 
		},
		"coords": [
			{
				"x": -4.776663651,
				"y": 1.7182977852,
				"z": -2.0479426801,
				"element": "C" 
			},
			{
				"x": -3.9523912018,
				"y": 0.5148929007,
				"z": -2.4632716849,
				"element": "C" 
			},
			{
				"x": -2.6532694921,
				"y": 0.6431336688,
				"z": -1.8415005294,
				"element": "O" 
			},
			{
				"x": -1.7670591038,
				"y": -0.34471638,
				"z": -2.1066669377,
				"element": "C" 
			},
			{
				"x": -2.0184259723,
				"y": -1.3010705636,
				"z": -2.8188988557,
				"element": "O" 
			},
			{
				"x": -0.4848237707,
				"y": -0.1101636911,
				"z": -1.4292634166,
				"element": "C" 
			},
			{
				"x": 0.6352472501,
				"y": -0.9176015709,
				"z": -1.4628866529,
				"element": "C" 
			},
			{
				"x": 0.7584629186,
				"y": -2.2141632201,
				"z": -2.2261267454,
				"element": "C" 
			},
			{
				"x": 1.9237276486,
				"y": -3.0654975138,
				"z": -1.7072421562,
				"element": "C" 
			},
			{
				"x": 3.2086236183,
				"y": -2.23395531,
				"z": -1.6026010438,
				"element": "C" 
			},
			{
				"x": 3.0478135223,
				"y": -1.0426339925,
				"z": -0.6659602911,
				"element": "C" 
			},
			{
				"x": 3.9726526287,
				"y": -0.6755981818,
				"z": 0.0489407329,
				"element": "O" 
			},
			{
				"x": 1.7262938511,
				"y": -0.3744636616,
				"z": -0.6995975587,
				"element": "C" 
			},
			{
				"x": 1.4062765023,
				"y": 0.8435746787,
				"z": -0.0920271813,
				"element": "C" 
			},
			{
				"x": 2.3608772921,
				"y": 2.0146895546,
				"z": 0.8130001083,
				"element": "S" 
			},
			{
				"x": 2.9474735618,
				"y": 1.0900617116,
				"z": 2.3201175086,
				"element": "C" 
			},
			{
				"x": 1.8525230178,
				"y": 0.4918508696,
				"z": 3.1584343096,
				"element": "C" 
			},
			{
				"x": 1.6339602951,
				"y": -0.8919712587,
				"z": 3.1396399778,
				"element": "C" 
			},
			{
				"x": 0.6265232734,
				"y": -1.4646476675,
				"z": 3.918894263,
				"element": "C" 
			},
			{
				"x": -0.1767203315,
				"y": -0.6589878621,
				"z": 4.7261233309,
				"element": "C" 
			},
			{
				"x": 0.0325303887,
				"y": 0.7228739382,
				"z": 4.7512900796,
				"element": "C" 
			},
			{
				"x": 1.0379970574,
				"y": 1.2925748628,
				"z": 3.9727405054,
				"element": "C" 
			},
			{
				"x": -0.225867775,
				"y": 1.3030552737,
				"z": -0.4393663618,
				"element": "S" 
			},
			{
				"x": -4.3046202611,
				"y": 2.6483095225,
				"z": -2.3771459736,
				"element": "H" 
			},
			{
				"x": -5.7718364186,
				"y": 1.6582533866,
				"z": -2.4993410419,
				"element": "H" 
			},
			{
				"x": -4.8930342118,
				"y": 1.7565728912,
				"z": -0.9611494375,
				"element": "H" 
			},
			{
				"x": -3.8191674037,
				"y": 0.4602265142,
				"z": -3.5483288587,
				"element": "H" 
			},
			{
				"x": -4.4054996634,
				"y": -0.4273112928,
				"z": -2.1391687525,
				"element": "H" 
			},
			{
				"x": 0.9187691811,
				"y": -1.9788446278,
				"z": -3.2882040027,
				"element": "H" 
			},
			{
				"x": -0.1882585186,
				"y": -2.7569055069,
				"z": -2.1913014801,
				"element": "H" 
			},
			{
				"x": 2.0815405248,
				"y": -3.9228563316,
				"z": -2.3696672531,
				"element": "H" 
			},
			{
				"x": 1.6723245236,
				"y": -3.4726535684,
				"z": -0.7194491164,
				"element": "H" 
			},
			{
				"x": 4.0612097623,
				"y": -2.8183857541,
				"z": -1.2470752363,
				"element": "H" 
			},
			{
				"x": 3.4753777263,
				"y": -1.8427128943,
				"z": -2.5959583194,
				"element": "H" 
			},
			{
				"x": 3.6583985208,
				"y": 0.3427686021,
				"z": 1.9704780687,
				"element": "H" 
			},
			{
				"x": 3.4853984619,
				"y": 1.8763413734,
				"z": 2.8595585249,
				"element": "H" 
			},
			{
				"x": 2.2658135876,
				"y": -1.5199609732,
				"z": 2.517676518,
				"element": "H" 
			},
			{
				"x": 0.4724392447,
				"y": -2.5398678742,
				"z": 3.8967512148,
				"element": "H" 
			},
			{
				"x": -0.9595121597,
				"y": -1.1030007739,
				"z": 5.3344244701,
				"element": "H" 
			},
			{
				"x": -0.587172511,
				"y": 1.3555818598,
				"z": 5.3804843232,
				"element": "H" 
			},
			{
				"x": 1.1940680869,
				"y": 2.3683110772,
				"z": 3.9913876318,
				"element": "H" 
			}
		],
		 "valence_orbital": [ 
			{
				"type": "occ",
				"energy": -0.26143,
				"method": "rhf"
			},
			{
				"type": "occ",
				"energy": -0.2513,
				"method": "rhf"
			},
			{
				"type": "occ",
				"energy": -0.24908,
				"method": "rhf"
			},
			{
				"type": "occ",
				"energy": -0.2447,
				"method": "rhf"
			},
			{
				"type": "occ",
				"energy": -0.22242,
				"method": "rhf"
			},
			{
				"type": "unocc",
				"energy": -0.07099,
				"method": "rhf"
			},
			{
				"type": "unocc",
				"energy": -0.03927,
				"method": "rhf"
			},
			{
				"type": "unocc",
				"energy": -0.01286,
				"method": "rhf"
			},
			{
				"type": "unocc",
				"energy": -0.00046,
				"method": "rhf"
			},
			{
				"type": "unocc",
				"energy": 0.0227,
				"method": "rhf"
			}
		],
		"cosmo_sigma_profile": { 
			"-0.025": 0.0,
			"-0.024": 0.0,
			"-0.023": 0.0,
			"-0.022": 0.0,
			"-0.021": 0.0,
			"-0.02": 0.0,
			"-0.019": 0.0,
			"-0.018": 0.0,
			"-0.017": 0.0,
			"-0.016": 0.0,
			"-0.015": 0.0,
			"-0.014": 0.0,
			"-0.013": 0.0,
			"-0.012": 0.0,
			"-0.011": 0.0,
			"-0.01": 0.0,
			"-0.009": 0.0,
			"-0.008": 0.458235267482,
			"-0.007": 2.71008987379,
			"-0.006": 11.0038736676,
			"-0.005": 26.049035236,
			"-0.004": 39.0234805673,
			"-0.003": 44.281024797,
			"-0.002": 39.2342138758,
			"-0.001": 36.6787040827,
			"0.0": 32.3527564934,
			"0.001": 26.0368916567,
			"0.002": 25.9163100493,
			"0.003": 20.3380706258,
			"0.004": 17.8020568611,
			"0.005": 17.4809029772,
			"0.006": 10.8826461403,
			"0.007": 3.91333547111,
			"0.008": 4.20848471119,
			"0.009": 3.96247398425,
			"0.01": 4.97558815924,
			"0.011": 4.55307324373,
			"0.012": 4.21279994977,
			"0.013": 1.24455784997,
			"0.014": 0.0299861674005,
			"0.015": 0.0,
			"0.016": 0.0,
			"0.017": 0.0,
			"0.018": 0.0,
			"0.019": 0.0,
			"0.02": 0.0,
			"0.021": 0.0,
			"0.022": 0.0,
			"0.023": 0.0,
			"0.024": 0.0,
			"0.025": 0.0
		}
	}
}
