{
	 "smiles": "CCOC(=O)C1=NC2=C(C=CC=C2)C(=O)N1", 
	 "Tm": 464.15, 
	 "num_atms": 26, 
	 "gaussian": { 
		 "optdone": 1, 
		 "sigma_profile": "yes", 
		 "theory": "DFT", 
		 "functional": "B3LYP", 
		 "basiset": "6-31G**", 
		 "properties": { 
			 "R2extent": 4947.9299, 
			 "electric_dipole_moment_norm": 3.68627465743, 
			 "electric_quadrupole_moment_norm": 14.2923006895, 
			 "total_energy": -760.416303741, 
			 "HOMO_LUMO_gap": 0.16293, 
			 "cosmo_polarized_energy": -13.55, 
			 "cosmo_cavitation_energy": 31.27, 
			 "cosmo_dispersion_energy": -23.08, 
			 "cosmo_repulsion_energy": 1.81, 
			 "cosmo_total_nonelectrostatic_energy": 10.01, 
			 "SMD_solvation_energy": 5.71 
		},
		"coords": [
			{
				"x": 5.479169944,
				"y": 0.7891631703,
				"z": -2.5799301702,
				"element": "C" 
			},
			{
				"x": 4.4966776601,
				"y": -0.3558280303,
				"z": -2.4368067256,
				"element": "C" 
			},
			{
				"x": 3.278928045,
				"y": 0.1888807642,
				"z": -1.8643015754,
				"element": "O" 
			},
			{
				"x": 2.2950642403,
				"y": -0.6819561937,
				"z": -1.6656483868,
				"element": "C" 
			},
			{
				"x": 2.3404012914,
				"y": -1.8721475672,
				"z": -1.9224739034,
				"element": "O" 
			},
			{
				"x": 1.0582996408,
				"y": -0.0569149493,
				"z": -1.0698754725,
				"element": "C" 
			},
			{
				"x": 0.9909569712,
				"y": 1.202968152,
				"z": -0.7903507825,
				"element": "N" 
			},
			{
				"x": -0.2052987368,
				"y": 1.6540656237,
				"z": -0.2450603151,
				"element": "C" 
			},
			{
				"x": -1.305738122,
				"y": 0.7946863295,
				"z": -0.0003333883,
				"element": "C" 
			},
			{
				"x": -2.4906416214,
				"y": 1.3011462919,
				"z": 0.5517591713,
				"element": "C" 
			},
			{
				"x": -2.5889800634,
				"y": 2.6503629804,
				"z": 0.8610683215,
				"element": "C" 
			},
			{
				"x": -1.5010124192,
				"y": 3.5084962431,
				"z": 0.6208483594,
				"element": "C" 
			},
			{
				"x": -0.323149717,
				"y": 3.0207454689,
				"z": 0.0751852989,
				"element": "C" 
			},
			{
				"x": -1.1994233363,
				"y": -0.6360862649,
				"z": -0.3290759037,
				"element": "C" 
			},
			{
				"x": -2.0662093013,
				"y": -1.4825094743,
				"z": -0.1704897948,
				"element": "O" 
			},
			{
				"x": 0.0489246614,
				"y": -0.9639568792,
				"z": -0.8692864921,
				"element": "N" 
			},
			{
				"x": 6.4147380695,
				"y": 0.4188535879,
				"z": -3.0101849061,
				"element": "H" 
			},
			{
				"x": 5.6997381072,
				"y": 1.2385319727,
				"z": -1.607866135,
				"element": "H" 
			},
			{
				"x": 5.0801855409,
				"y": 1.5664568069,
				"z": -3.2372842569,
				"element": "H" 
			},
			{
				"x": 4.8690555316,
				"y": -1.1440077436,
				"z": -1.7752160945,
				"element": "H" 
			},
			{
				"x": 4.2519984588,
				"y": -0.817438477,
				"z": -3.3983902944,
				"element": "H" 
			},
			{
				"x": -3.3113979178,
				"y": 0.612871006,
				"z": 0.7247172726,
				"element": "H" 
			},
			{
				"x": -3.505429486,
				"y": 3.0453374106,
				"z": 1.2887457674,
				"element": "H" 
			},
			{
				"x": -1.5840596253,
				"y": 4.5636275651,
				"z": 0.8650821883,
				"element": "H" 
			},
			{
				"x": 0.5275336697,
				"y": 3.6657751506,
				"z": -0.1178712349,
				"element": "H" 
			},
			{
				"x": 0.2244685147,
				"y": -1.9295229442,
				"z": -1.1305605474,
				"element": "H" 
			}
		],
		 "valence_orbital": [ 
			{
				"type": "occ",
				"energy": -0.29945,
				"method": "rhf"
			},
			{
				"type": "occ",
				"energy": -0.27958,
				"method": "rhf"
			},
			{
				"type": "occ",
				"energy": -0.26596,
				"method": "rhf"
			},
			{
				"type": "occ",
				"energy": -0.26518,
				"method": "rhf"
			},
			{
				"type": "occ",
				"energy": -0.23777,
				"method": "rhf"
			},
			{
				"type": "unocc",
				"energy": -0.07484,
				"method": "rhf"
			},
			{
				"type": "unocc",
				"energy": -0.04469,
				"method": "rhf"
			},
			{
				"type": "unocc",
				"energy": 0.00381,
				"method": "rhf"
			},
			{
				"type": "unocc",
				"energy": 0.04586,
				"method": "rhf"
			},
			{
				"type": "unocc",
				"energy": 0.0898,
				"method": "rhf"
			}
		],
		"cosmo_sigma_profile": { 
			"-0.025": 0.0,
			"-0.024": 0.0,
			"-0.023": 0.0,
			"-0.022": 0.0,
			"-0.021": 0.0,
			"-0.02": 0.0,
			"-0.019": 0.0,
			"-0.018": 0.0,
			"-0.017": 0.0,
			"-0.016": 0.0,
			"-0.015": 0.0,
			"-0.014": 0.24080248105,
			"-0.013": 0.760014368374,
			"-0.012": 0.72109357051,
			"-0.011": 0.549133525382,
			"-0.01": 0.883306805127,
			"-0.009": 0.67358740916,
			"-0.008": 0.700297483635,
			"-0.007": 6.12499222499,
			"-0.006": 15.3881015384,
			"-0.005": 25.5667008542,
			"-0.004": 25.402968667,
			"-0.003": 21.5785506834,
			"-0.002": 19.4138833729,
			"-0.001": 16.292447252,
			"0.0": 17.7399931659,
			"0.001": 16.2967070651,
			"0.002": 17.7992066686,
			"0.003": 14.2081821289,
			"0.004": 5.65453316942,
			"0.005": 4.26327988357,
			"0.006": 4.79638090576,
			"0.007": 4.48954876198,
			"0.008": 3.31833241495,
			"0.009": 3.76972032985,
			"0.01": 6.67320126991,
			"0.011": 4.23431422572,
			"0.012": 6.01752903149,
			"0.013": 4.64546023412,
			"0.014": 1.21575852498,
			"0.015": 0.652150820835,
			"0.016": 0.11675538277,
			"0.017": 0.0,
			"0.018": 0.0,
			"0.019": 0.0,
			"0.02": 0.0,
			"0.021": 0.0,
			"0.022": 0.0,
			"0.023": 0.0,
			"0.024": 0.0,
			"0.025": 0.0
		}
	}
}
