{
	 "smiles": "CC1=CC=C(O1)C(C1=CC=C(C)O1)C1=CC(Br)=CC(=C1O)[N+]([O-])=O", 
	 "Tm": 373.15, 
	 "num_atms": 38, 
	 "gaussian": { 
		 "optdone": 1, 
		 "sigma_profile": "yes", 
		 "theory": "DFT", 
		 "functional": "B3LYP", 
		 "basiset": "6-31G**", 
		 "properties": { 
			 "R2extent": 11133.7437, 
			 "electric_dipole_moment_norm": 3.77697740793, 
			 "electric_quadrupole_moment_norm": 17.8394464998, 
			 "total_energy": -3658.39571337, 
			 "HOMO_LUMO_gap": 0.10945, 
			 "cosmo_polarized_energy": -10.61, 
			 "cosmo_cavitation_energy": 46.14, 
			 "cosmo_dispersion_energy": -31.41, 
			 "cosmo_repulsion_energy": 2.47, 
			 "cosmo_total_nonelectrostatic_energy": 17.2, 
			 "SMD_solvation_energy": 9.88 
		},
		"coords": [
			{
				"x": -2.4831827955,
				"y": 2.0824308384,
				"z": -3.4406758561,
				"element": "C" 
			},
			{
				"x": -1.063478722,
				"y": 1.787468196,
				"z": -3.1055620975,
				"element": "C" 
			},
			{
				"x": 0.122186379,
				"y": 2.0023211362,
				"z": -3.743204041,
				"element": "C" 
			},
			{
				"x": 1.1515770767,
				"y": 1.4825185314,
				"z": -2.8898510024,
				"element": "C" 
			},
			{
				"x": 0.525266628,
				"y": 0.9802134145,
				"z": -1.7901917251,
				"element": "C" 
			},
			{
				"x": -0.8300987884,
				"y": 1.1636442971,
				"z": -1.9053679024,
				"element": "O" 
			},
			{
				"x": 1.0307659002,
				"y": 0.3382942667,
				"z": -0.5306261314,
				"element": "C" 
			},
			{
				"x": 0.5393049341,
				"y": -1.071451262,
				"z": -0.3565131179,
				"element": "C" 
			},
			{
				"x": -0.4769204975,
				"y": -1.8095503721,
				"z": -0.8858842515,
				"element": "C" 
			},
			{
				"x": -0.3911234217,
				"y": -3.1093134885,
				"z": -0.2825772089,
				"element": "C" 
			},
			{
				"x": 0.6675067866,
				"y": -3.0764620784,
				"z": 0.5755049479,
				"element": "C" 
			},
			{
				"x": 1.2850736932,
				"y": -4.0747312592,
				"z": 1.4904603498,
				"element": "C" 
			},
			{
				"x": 1.2455665206,
				"y": -1.8335253088,
				"z": 0.5397751032,
				"element": "O" 
			},
			{
				"x": 0.7323895649,
				"y": 1.2236164922,
				"z": 0.6883644494,
				"element": "C" 
			},
			{
				"x": -0.4416639855,
				"y": 1.0919843433,
				"z": 1.4149668498,
				"element": "C" 
			},
			{
				"x": -0.7192264691,
				"y": 1.9308006407,
				"z": 2.5049960575,
				"element": "C" 
			},
			{
				"x": -2.3511284361,
				"y": 1.7058428982,
				"z": 3.4674481886,
				"element": "Br" 
			},
			{
				"x": 0.1741876016,
				"y": 2.9087608297,
				"z": 2.8879654677,
				"element": "C" 
			},
			{
				"x": 1.3660014005,
				"y": 3.0498061225,
				"z": 2.1603895612,
				"element": "C" 
			},
			{
				"x": 1.6667664397,
				"y": 2.2225806431,
				"z": 1.0510031364,
				"element": "C" 
			},
			{
				"x": 2.7876843325,
				"y": 2.3324329502,
				"z": 0.33124539,
				"element": "O" 
			},
			{
				"x": 2.2901719733,
				"y": 4.0802333009,
				"z": 2.5831841207,
				"element": "N" 
			},
			{
				"x": 2.0045004237,
				"y": 4.7842624993,
				"z": 3.5433358319,
				"element": "O" 
			},
			{
				"x": 3.3611903344,
				"y": 4.214806226,
				"z": 1.9432506073,
				"element": "O" 
			},
			{
				"x": -3.0832367779,
				"y": 1.1667900511,
				"z": -3.4998761629,
				"element": "H" 
			},
			{
				"x": -2.5370950885,
				"y": 2.5879200853,
				"z": -4.4075725915,
				"element": "H" 
			},
			{
				"x": -2.947338941,
				"y": 2.7304561541,
				"z": -2.6883290428,
				"element": "H" 
			},
			{
				"x": 0.2492513181,
				"y": 2.4775535919,
				"z": -4.7055306181,
				"element": "H" 
			},
			{
				"x": 2.2173704174,
				"y": 1.4872836381,
				"z": -3.0674709391,
				"element": "H" 
			},
			{
				"x": 2.1199327779,
				"y": 0.2987476144,
				"z": -0.6331240113,
				"element": "H" 
			},
			{
				"x": -1.1947997937,
				"y": -1.4682544336,
				"z": -1.6160225012,
				"element": "H" 
			},
			{
				"x": -1.0346839826,
				"y": -3.9577532603,
				"z": -0.4671829123,
				"element": "H" 
			},
			{
				"x": 1.2641131554,
				"y": -3.732852901,
				"z": 2.5317285427,
				"element": "H" 
			},
			{
				"x": 2.3323526652,
				"y": -4.2656850256,
				"z": 1.2290497315,
				"element": "H" 
			},
			{
				"x": 0.7398529089,
				"y": -5.019399086,
				"z": 1.429803655,
				"element": "H" 
			},
			{
				"x": -1.1494964322,
				"y": 0.3205114863,
				"z": 1.1328538661,
				"element": "H" 
			},
			{
				"x": -0.0104757959,
				"y": 3.5657492078,
				"z": 3.726797484,
				"element": "H" 
			},
			{
				"x": 3.3085366957,
				"y": 3.0665490202,
				"z": 0.7434387727,
				"element": "H" 
			}
		],
		 "valence_orbital": [ 
			{
				"type": "occ",
				"energy": -0.27826,
				"method": "rhf"
			},
			{
				"type": "occ",
				"energy": -0.27531,
				"method": "rhf"
			},
			{
				"type": "occ",
				"energy": -0.24148,
				"method": "rhf"
			},
			{
				"type": "occ",
				"energy": -0.22041,
				"method": "rhf"
			},
			{
				"type": "occ",
				"energy": -0.2134,
				"method": "rhf"
			},
			{
				"type": "unocc",
				"energy": -0.10395,
				"method": "rhf"
			},
			{
				"type": "unocc",
				"energy": -0.02556,
				"method": "rhf"
			},
			{
				"type": "unocc",
				"energy": -0.01081,
				"method": "rhf"
			},
			{
				"type": "unocc",
				"energy": -0.0049,
				"method": "rhf"
			},
			{
				"type": "unocc",
				"energy": 0.00985,
				"method": "rhf"
			}
		],
		"cosmo_sigma_profile": { 
			"-0.025": 0.0,
			"-0.024": 0.0,
			"-0.023": 0.0,
			"-0.022": 0.0,
			"-0.021": 0.0,
			"-0.02": 0.0,
			"-0.019": 0.0,
			"-0.018": 0.0,
			"-0.017": 0.0,
			"-0.016": 0.0,
			"-0.015": 0.0,
			"-0.014": 0.0,
			"-0.013": 0.0,
			"-0.012": 0.0,
			"-0.011": 0.0399084447623,
			"-0.01": 0.473775397797,
			"-0.009": 0.874068589108,
			"-0.008": 3.57091406879,
			"-0.007": 6.73377215222,
			"-0.006": 13.8828290865,
			"-0.005": 23.7897582257,
			"-0.004": 28.4889177203,
			"-0.003": 30.5175391134,
			"-0.002": 32.3690083989,
			"-0.001": 39.7468882335,
			"0.0": 33.1621735652,
			"0.001": 25.6859837375,
			"0.002": 25.5157507209,
			"0.003": 26.3390088318,
			"0.004": 27.315311904,
			"0.005": 20.1440008788,
			"0.006": 17.070118779,
			"0.007": 7.86679404595,
			"0.008": 5.48522247846,
			"0.009": 3.33920069086,
			"0.01": 0.461908151616,
			"0.011": 0.0,
			"0.012": 0.0,
			"0.013": 0.0,
			"0.014": 0.0,
			"0.015": 0.0,
			"0.016": 0.0,
			"0.017": 0.0,
			"0.018": 0.0,
			"0.019": 0.0,
			"0.02": 0.0,
			"0.021": 0.0,
			"0.022": 0.0,
			"0.023": 0.0,
			"0.024": 0.0,
			"0.025": 0.0
		}
	}
}
