{
	 "smiles": "NC(C(O)=O)C1=CC=C(O)C=C1", 
	 "Tm": 513.15, 
	 "num_atms": 21, 
	 "gaussian": { 
		 "optdone": 1, 
		 "sigma_profile": "yes", 
		 "theory": "DFT", 
		 "functional": "B3LYP", 
		 "basiset": "6-31G**", 
		 "properties": { 
			 "R2extent": 2579.8806, 
			 "electric_dipole_moment_norm": 2.13070007509, 
			 "electric_quadrupole_moment_norm": 13.4092737096, 
			 "total_energy": -590.702985095, 
			 "HOMO_LUMO_gap": 0.20772, 
			 "cosmo_polarized_energy": -16.5, 
			 "cosmo_cavitation_energy": 25.61, 
			 "cosmo_dispersion_energy": -18.41, 
			 "cosmo_repulsion_energy": 1.49, 
			 "cosmo_total_nonelectrostatic_energy": 8.69, 
			 "SMD_solvation_energy": 4.6 
		},
		"coords": [
			{
				"x": -0.1178325557,
				"y": 1.011858693,
				"z": -2.467976387,
				"element": "N" 
			},
			{
				"x": 0.3362049034,
				"y": 0.2726845834,
				"z": -1.2904085076,
				"element": "C" 
			},
			{
				"x": 1.8227960076,
				"y": 0.560661925,
				"z": -1.1121075256,
				"element": "C" 
			},
			{
				"x": 2.482511987,
				"y": -0.4741582803,
				"z": -0.5539876483,
				"element": "O" 
			},
			{
				"x": 2.3575914909,
				"y": 1.6126467504,
				"z": -1.3942681784,
				"element": "O" 
			},
			{
				"x": -0.3817825655,
				"y": 0.5961750674,
				"z": 0.0234269411,
				"element": "C" 
			},
			{
				"x": -0.3923930242,
				"y": 1.9011788416,
				"z": 0.5330659992,
				"element": "C" 
			},
			{
				"x": -1.0670142464,
				"y": 2.2044965936,
				"z": 1.7131715644,
				"element": "C" 
			},
			{
				"x": -1.7478021385,
				"y": 1.1970125013,
				"z": 2.408024617,
				"element": "C" 
			},
			{
				"x": -2.4302793909,
				"y": 1.4316312497,
				"z": 3.5672585847,
				"element": "O" 
			},
			{
				"x": -1.7436147322,
				"y": -0.1112846583,
				"z": 1.9136789847,
				"element": "C" 
			},
			{
				"x": -1.0627174488,
				"y": -0.4000603779,
				"z": 0.7337367292,
				"element": "C" 
			},
			{
				"x": 0.320113435,
				"y": 1.9301358619,
				"z": -2.468335983,
				"element": "H" 
			},
			{
				"x": -1.1238068467,
				"y": 1.1451732996,
				"z": -2.4232883607,
				"element": "H" 
			},
			{
				"x": 0.2295508731,
				"y": -0.8027811889,
				"z": -1.4726426582,
				"element": "H" 
			},
			{
				"x": 3.399977911,
				"y": -0.1780835202,
				"z": -0.4274457251,
				"element": "H" 
			},
			{
				"x": 0.1402250326,
				"y": 2.6879563092,
				"z": 0.0058373176,
				"element": "H" 
			},
			{
				"x": -1.0630868071,
				"y": 3.2227521695,
				"z": 2.0972918681,
				"element": "H" 
			},
			{
				"x": -2.3524456753,
				"y": 2.3664501246,
				"z": 3.7978584802,
				"element": "H" 
			},
			{
				"x": -2.2760229151,
				"y": -0.8815390098,
				"z": 2.4617841355,
				"element": "H" 
			},
			{
				"x": -1.0632732944,
				"y": -1.4198069349,
				"z": 0.3567257523,
				"element": "H" 
			}
		],
		 "valence_orbital": [ 
			{
				"type": "occ",
				"energy": -0.32253,
				"method": "rhf"
			},
			{
				"type": "occ",
				"energy": -0.28322,
				"method": "rhf"
			},
			{
				"type": "occ",
				"energy": -0.25831,
				"method": "rhf"
			},
			{
				"type": "occ",
				"energy": -0.24507,
				"method": "rhf"
			},
			{
				"type": "occ",
				"energy": -0.21866,
				"method": "rhf"
			},
			{
				"type": "unocc",
				"energy": -0.01094,
				"method": "rhf"
			},
			{
				"type": "unocc",
				"energy": -0.00772,
				"method": "rhf"
			},
			{
				"type": "unocc",
				"energy": 0.0247,
				"method": "rhf"
			},
			{
				"type": "unocc",
				"energy": 0.06598,
				"method": "rhf"
			},
			{
				"type": "unocc",
				"energy": 0.07691,
				"method": "rhf"
			}
		],
		"cosmo_sigma_profile": { 
			"-0.025": 0.0,
			"-0.024": 0.0,
			"-0.023": 0.0,
			"-0.022": 0.0,
			"-0.021": 0.0,
			"-0.02": 0.0,
			"-0.019": 0.269661166628,
			"-0.018": 1.30228265366,
			"-0.017": 2.37981236536,
			"-0.016": 1.87870280613,
			"-0.015": 1.88652711816,
			"-0.014": 1.40259525471,
			"-0.013": 1.10700781078,
			"-0.012": 1.46591657971,
			"-0.011": 2.31249571922,
			"-0.01": 2.84382085369,
			"-0.009": 3.32097900734,
			"-0.008": 3.63323071282,
			"-0.007": 4.47682781453,
			"-0.006": 11.467544561,
			"-0.005": 12.0777773966,
			"-0.004": 12.7848035554,
			"-0.003": 11.1473474011,
			"-0.002": 8.99477023713,
			"-0.001": 8.9358272162,
			"0.0": 9.28499232978,
			"0.001": 9.21621067398,
			"0.002": 9.86056989405,
			"0.003": 13.5355468334,
			"0.004": 13.3014553729,
			"0.005": 14.7075194878,
			"0.006": 6.02697993128,
			"0.007": 6.16538823846,
			"0.008": 3.64744970158,
			"0.009": 4.80531282469,
			"0.01": 4.92957743917,
			"0.011": 6.80684579773,
			"0.012": 2.61964402625,
			"0.013": 0.737799332825,
			"0.014": 0.270799590303,
			"0.015": 0.543766948079,
			"0.016": 0.797249968441,
			"0.017": 0.669891400681,
			"0.018": 0.437340774901,
			"0.019": 0.167333462653,
			"0.02": 0.0,
			"0.021": 0.0,
			"0.022": 0.0,
			"0.023": 0.0,
			"0.024": 0.0,
			"0.025": 0.0
		}
	}
}
