{
	 "smiles": "NC1(CCC1)C1=NN=NN1", 
	 "Tm": 528.15, 
	 "num_atms": 19, 
	 "gaussian": { 
		 "optdone": 1, 
		 "sigma_profile": "yes", 
		 "theory": "DFT", 
		 "functional": "B3LYP", 
		 "basiset": "6-31G**", 
		 "properties": { 
			 "R2extent": 1407.014, 
			 "electric_dipole_moment_norm": 4.83740672778, 
			 "electric_quadrupole_moment_norm": 10.9911750796, 
			 "total_energy": -469.628683926, 
			 "HOMO_LUMO_gap": 0.23882, 
			 "cosmo_polarized_energy": -18.02, 
			 "cosmo_cavitation_energy": 22.2, 
			 "cosmo_dispersion_energy": -16.32, 
			 "cosmo_repulsion_energy": 1.33, 
			 "cosmo_total_nonelectrostatic_energy": 7.2, 
			 "SMD_solvation_energy": 1.01 
		},
		"coords": [
			{
				"x": 0.5620595436,
				"y": -2.2298656548,
				"z": 0.915967128,
				"element": "N" 
			},
			{
				"x": -0.0391549023,
				"y": -1.0757914855,
				"z": 0.2667045677,
				"element": "C" 
			},
			{
				"x": -1.586411315,
				"y": -0.9523573489,
				"z": 0.4840199468,
				"element": "C" 
			},
			{
				"x": -1.7879031963,
				"y": -0.8009000063,
				"z": -1.0469336984,
				"element": "C" 
			},
			{
				"x": -0.3266745835,
				"y": -1.2772260764,
				"z": -1.2604435161,
				"element": "C" 
			},
			{
				"x": 0.6996155467,
				"y": 0.2067295098,
				"z": 0.5624457827,
				"element": "C" 
			},
			{
				"x": 1.7690622851,
				"y": 0.321803297,
				"z": 1.3302398247,
				"element": "N" 
			},
			{
				"x": 2.1105476621,
				"y": 1.642464495,
				"z": 1.3271138048,
				"element": "N" 
			},
			{
				"x": 1.3026085469,
				"y": 2.3325196117,
				"z": 0.5967298756,
				"element": "N" 
			},
			{
				"x": 0.402664058,
				"y": 1.445190955,
				"z": 0.1035950521,
				"element": "N" 
			},
			{
				"x": 1.5367236593,
				"y": -2.3032034158,
				"z": 0.6259246378,
				"element": "H" 
			},
			{
				"x": 0.6075383751,
				"y": -2.0590375176,
				"z": 1.9200678069,
				"element": "H" 
			},
			{
				"x": -1.9365857664,
				"y": -0.1413317975,
				"z": 1.1286568996,
				"element": "H" 
			},
			{
				"x": -1.9687562851,
				"y": -1.9028213854,
				"z": 0.8621614889,
				"element": "H" 
			},
			{
				"x": -1.9538446537,
				"y": 0.2364069377,
				"z": -1.3595912253,
				"element": "H" 
			},
			{
				"x": -2.5733606709,
				"y": -1.4092166772,
				"z": -1.5009198202,
				"element": "H" 
			},
			{
				"x": 0.2963998858,
				"y": -0.7174431313,
				"z": -1.9636403799,
				"element": "H" 
			},
			{
				"x": -0.2663846647,
				"y": -2.3418673029,
				"z": -1.4959914788,
				"element": "H" 
			},
			{
				"x": -0.3375435248,
				"y": 1.7622469931,
				"z": -0.505106697,
				"element": "H" 
			}
		],
		 "valence_orbital": [ 
			{
				"type": "occ",
				"energy": -0.32437,
				"method": "rhf"
			},
			{
				"type": "occ",
				"energy": -0.29778,
				"method": "rhf"
			},
			{
				"type": "occ",
				"energy": -0.28864,
				"method": "rhf"
			},
			{
				"type": "occ",
				"energy": -0.28487,
				"method": "rhf"
			},
			{
				"type": "occ",
				"energy": -0.25579,
				"method": "rhf"
			},
			{
				"type": "unocc",
				"energy": -0.01697,
				"method": "rhf"
			},
			{
				"type": "unocc",
				"energy": 0.0222,
				"method": "rhf"
			},
			{
				"type": "unocc",
				"energy": 0.0376,
				"method": "rhf"
			},
			{
				"type": "unocc",
				"energy": 0.07376,
				"method": "rhf"
			},
			{
				"type": "unocc",
				"energy": 0.09005,
				"method": "rhf"
			}
		],
		"cosmo_sigma_profile": { 
			"-0.025": 0.0,
			"-0.024": 0.0,
			"-0.023": 0.0,
			"-0.022": 0.0,
			"-0.021": 0.0,
			"-0.02": 0.0,
			"-0.019": 0.014513673282,
			"-0.018": 0.853352522101,
			"-0.017": 1.08254045442,
			"-0.016": 1.32220236506,
			"-0.015": 0.920012709167,
			"-0.014": 1.28978529065,
			"-0.013": 1.99991944823,
			"-0.012": 1.1875680585,
			"-0.011": 0.871487580078,
			"-0.01": 2.87714574933,
			"-0.009": 3.11100816629,
			"-0.008": 3.54183341967,
			"-0.007": 3.90796522778,
			"-0.006": 4.59893444074,
			"-0.005": 7.29436698945,
			"-0.004": 14.678653586,
			"-0.003": 16.8549803461,
			"-0.002": 16.7486202646,
			"-0.001": 15.1864307512,
			"0.0": 13.0909399358,
			"0.001": 7.77982408417,
			"0.002": 4.37696051868,
			"0.003": 3.13499960588,
			"0.004": 3.29623289525,
			"0.005": 3.9119487902,
			"0.006": 3.02205406804,
			"0.007": 3.39180003914,
			"0.008": 6.2670931285,
			"0.009": 5.8813637627,
			"0.01": 4.71244556139,
			"0.011": 5.56632744341,
			"0.012": 4.43698658151,
			"0.013": 2.59004215107,
			"0.014": 2.20977842177,
			"0.015": 1.44667932189,
			"0.016": 0.241435061618,
			"0.017": 0.579229259224,
			"0.018": 0.237548492619,
			"0.019": 0.0363725074765,
			"0.02": 0.0,
			"0.021": 0.0,
			"0.022": 0.0,
			"0.023": 0.0,
			"0.024": 0.0,
			"0.025": 0.0
		}
	}
}
