{
	 "smiles": "CC(C)S(Cl)(=O)=O", 
	 "Tm": 226.15, 
	 "num_atms": 14, 
	 "gaussian": { 
		 "optdone": 1, 
		 "sigma_profile": "yes", 
		 "theory": "DFT", 
		 "functional": "B3LYP", 
		 "basiset": "6-31G**", 
		 "properties": { 
			 "R2extent": 2962.2544, 
			 "electric_dipole_moment_norm": 4.64263983311, 
			 "electric_quadrupole_moment_norm": 14.4287120288, 
			 "total_energy": -1127.31418049, 
			 "HOMO_LUMO_gap": 0.23131, 
			 "cosmo_polarized_energy": -9.3, 
			 "cosmo_cavitation_energy": 20.02, 
			 "cosmo_dispersion_energy": -15.35, 
			 "cosmo_repulsion_energy": 1.24, 
			 "cosmo_total_nonelectrostatic_energy": 5.91, 
			 "SMD_solvation_energy": 2.37 
		},
		"coords": [
			{
				"x": 1.5146725967,
				"y": 1.7630099014,
				"z": -1.86544368,
				"element": "C" 
			},
			{
				"x": 1.1662863841,
				"y": 0.3141279785,
				"z": -1.5393703777,
				"element": "C" 
			},
			{
				"x": 0.4220805468,
				"y": 0.1089220612,
				"z": -0.2237005612,
				"element": "C" 
			},
			{
				"x": 2.6735232293,
				"y": -0.7520505684,
				"z": -1.6105953481,
				"element": "S" 
			},
			{
				"x": 3.8540827489,
				"y": 0.0560191343,
				"z": -0.0093890196,
				"element": "Cl" 
			},
			{
				"x": 3.4014115481,
				"y": -0.4761281054,
				"z": -2.8444925885,
				"element": "O" 
			},
			{
				"x": 2.3202382912,
				"y": -2.1129724615,
				"z": -1.2213148541,
				"element": "O" 
			},
			{
				"x": 0.5829585525,
				"y": 2.329744705,
				"z": -1.9586804895,
				"element": "H" 
			},
			{
				"x": 2.063226339,
				"y": 1.8413317687,
				"z": -2.8059353553,
				"element": "H" 
			},
			{
				"x": 2.1102142426,
				"y": 2.2154243046,
				"z": -1.0683568777,
				"element": "H" 
			},
			{
				"x": 0.6027119137,
				"y": -0.1356651839,
				"z": -2.3675582214,
				"element": "H" 
			},
			{
				"x": -0.5340679547,
				"y": 0.6384657746,
				"z": -0.2814661567,
				"element": "H" 
			},
			{
				"x": 0.9872270265,
				"y": 0.5171994182,
				"z": 0.6180844716,
				"element": "H" 
			},
			{
				"x": 0.2219345353,
				"y": -0.9478287272,
				"z": -0.0371809418,
				"element": "H" 
			}
		],
		 "valence_orbital": [ 
			{
				"type": "occ",
				"energy": -0.36062,
				"method": "rhf"
			},
			{
				"type": "occ",
				"energy": -0.33847,
				"method": "rhf"
			},
			{
				"type": "occ",
				"energy": -0.33472,
				"method": "rhf"
			},
			{
				"type": "occ",
				"energy": -0.32281,
				"method": "rhf"
			},
			{
				"type": "occ",
				"energy": -0.31374,
				"method": "rhf"
			},
			{
				"type": "unocc",
				"energy": -0.08243,
				"method": "rhf"
			},
			{
				"type": "unocc",
				"energy": 0.03922,
				"method": "rhf"
			},
			{
				"type": "unocc",
				"energy": 0.06529,
				"method": "rhf"
			},
			{
				"type": "unocc",
				"energy": 0.07061,
				"method": "rhf"
			},
			{
				"type": "unocc",
				"energy": 0.07641,
				"method": "rhf"
			}
		],
		"cosmo_sigma_profile": { 
			"-0.025": 0.0,
			"-0.024": 0.0,
			"-0.023": 0.0,
			"-0.022": 0.0,
			"-0.021": 0.0,
			"-0.02": 0.0,
			"-0.019": 0.0,
			"-0.018": 0.0,
			"-0.017": 0.0,
			"-0.016": 0.0,
			"-0.015": 0.0,
			"-0.014": 0.0,
			"-0.013": 0.0,
			"-0.012": 0.179815056682,
			"-0.011": 1.32039771163,
			"-0.01": 1.78585025047,
			"-0.009": 2.03241542976,
			"-0.008": 2.16012111796,
			"-0.007": 3.94698321897,
			"-0.006": 7.27360435831,
			"-0.005": 9.31822033032,
			"-0.004": 13.0929784732,
			"-0.003": 13.2265922066,
			"-0.002": 16.6076045294,
			"-0.001": 14.7890761476,
			"0.0": 7.47384550156,
			"0.001": 7.15804171904,
			"0.002": 8.83270702939,
			"0.003": 9.54621200037,
			"0.004": 11.1674903782,
			"0.005": 4.23542551491,
			"0.006": 3.10382210647,
			"0.007": 3.89927283677,
			"0.008": 9.95772048164,
			"0.009": 8.01272457667,
			"0.01": 0.990959146065,
			"0.011": 0.0,
			"0.012": 0.0,
			"0.013": 0.0,
			"0.014": 0.0,
			"0.015": 0.0,
			"0.016": 0.0,
			"0.017": 0.0,
			"0.018": 0.0,
			"0.019": 0.0,
			"0.02": 0.0,
			"0.021": 0.0,
			"0.022": 0.0,
			"0.023": 0.0,
			"0.024": 0.0,
			"0.025": 0.0
		}
	}
}
