{
	 "smiles": "CCC(=O)C1=CC(O)=CC=C1O", 
	 "Tm": 370.35, 
	 "num_atms": 22, 
	 "gaussian": { 
		 "optdone": 1, 
		 "sigma_profile": "yes", 
		 "theory": "DFT", 
		 "functional": "B3LYP", 
		 "basiset": "6-31G**", 
		 "properties": { 
			 "R2extent": 2417.1584, 
			 "electric_dipole_moment_norm": 3.60372327461, 
			 "electric_quadrupole_moment_norm": 5.8431068491, 
			 "total_energy": -574.666207043, 
			 "HOMO_LUMO_gap": 0.145, 
			 "cosmo_polarized_energy": -12.46, 
			 "cosmo_cavitation_energy": 25.54, 
			 "cosmo_dispersion_energy": -19.17, 
			 "cosmo_repulsion_energy": 1.53, 
			 "cosmo_total_nonelectrostatic_energy": 7.89, 
			 "SMD_solvation_energy": 5.37 
		},
		"coords": [
			{
				"x": 0.7949333675,
				"y": -1.8776637183,
				"z": 3.1641400744,
				"element": "C" 
			},
			{
				"x": 0.2408910719,
				"y": -1.4445860583,
				"z": 1.8075761411,
				"element": "C" 
			},
			{
				"x": 0.7598305017,
				"y": -0.0884207112,
				"z": 1.3493197598,
				"element": "C" 
			},
			{
				"x": 1.5538118432,
				"y": 0.5304484371,
				"z": 2.077044455,
				"element": "O" 
			},
			{
				"x": 0.3220522757,
				"y": 0.4742572889,
				"z": 0.0616386339,
				"element": "C" 
			},
			{
				"x": -0.5820188265,
				"y": -0.2088139332,
				"z": -0.7876285368,
				"element": "C" 
			},
			{
				"x": -0.9814777519,
				"y": 0.3383609535,
				"z": -1.9955663922,
				"element": "C" 
			},
			{
				"x": -1.8526193918,
				"y": -0.275963667,
				"z": -2.8569825188,
				"element": "O" 
			},
			{
				"x": -0.4806857005,
				"y": 1.5947859246,
				"z": -2.3862495107,
				"element": "C" 
			},
			{
				"x": 0.4030571029,
				"y": 2.2817154065,
				"z": -1.5748787321,
				"element": "C" 
			},
			{
				"x": 0.8200728431,
				"y": 1.7408526858,
				"z": -0.3437433186,
				"element": "C" 
			},
			{
				"x": 1.6790896703,
				"y": 2.4552088678,
				"z": 0.3989182335,
				"element": "O" 
			},
			{
				"x": 0.5329507588,
				"y": -1.1577548888,
				"z": 3.9433961233,
				"element": "H" 
			},
			{
				"x": 1.8852151992,
				"y": -1.9469809704,
				"z": 3.1391487789,
				"element": "H" 
			},
			{
				"x": 0.3912614632,
				"y": -2.8549491875,
				"z": 3.4444472906,
				"element": "H" 
			},
			{
				"x": 0.487713061,
				"y": -2.1847945279,
				"z": 1.03472704,
				"element": "H" 
			},
			{
				"x": -0.8561438534,
				"y": -1.4004849406,
				"z": 1.8339474769,
				"element": "H" 
			},
			{
				"x": -0.9696616916,
				"y": -1.1783122897,
				"z": -0.4880328027,
				"element": "H" 
			},
			{
				"x": -2.1250471278,
				"y": -1.1237435618,
				"z": -2.4835256958,
				"element": "H" 
			},
			{
				"x": -0.8039298344,
				"y": 2.0091360086,
				"z": -3.3358525838,
				"element": "H" 
			},
			{
				"x": 0.7953683307,
				"y": 3.2502885067,
				"z": -1.8656367776,
				"element": "H" 
			},
			{
				"x": 1.8503366887,
				"y": 1.9165143753,
				"z": 1.2145928613,
				"element": "H" 
			}
		],
		 "valence_orbital": [ 
			{
				"type": "occ",
				"energy": -0.35239,
				"method": "rhf"
			},
			{
				"type": "occ",
				"energy": -0.30881,
				"method": "rhf"
			},
			{
				"type": "occ",
				"energy": -0.26597,
				"method": "rhf"
			},
			{
				"type": "occ",
				"energy": -0.263,
				"method": "rhf"
			},
			{
				"type": "occ",
				"energy": -0.20806,
				"method": "rhf"
			},
			{
				"type": "unocc",
				"energy": -0.06306,
				"method": "rhf"
			},
			{
				"type": "unocc",
				"energy": 0.01064,
				"method": "rhf"
			},
			{
				"type": "unocc",
				"energy": 0.03966,
				"method": "rhf"
			},
			{
				"type": "unocc",
				"energy": 0.06219,
				"method": "rhf"
			},
			{
				"type": "unocc",
				"energy": 0.08789,
				"method": "rhf"
			}
		],
		"cosmo_sigma_profile": { 
			"-0.025": 0.0,
			"-0.024": 0.0,
			"-0.023": 0.0,
			"-0.022": 0.0,
			"-0.021": 0.0,
			"-0.02": 0.0,
			"-0.019": 0.0,
			"-0.018": 0.495115551089,
			"-0.017": 1.35679262626,
			"-0.016": 0.5807439455,
			"-0.015": 1.52441840062,
			"-0.014": 1.03683186654,
			"-0.013": 0.97625554253,
			"-0.012": 0.829080722385,
			"-0.011": 0.736215228842,
			"-0.01": 1.24648402845,
			"-0.009": 1.44307664925,
			"-0.008": 1.48274296555,
			"-0.007": 3.6560459106,
			"-0.006": 10.6420225081,
			"-0.005": 11.0190207285,
			"-0.004": 11.3918676286,
			"-0.003": 14.0570829776,
			"-0.002": 18.4394357971,
			"-0.001": 15.7852415388,
			"0.0": 14.6801752502,
			"0.001": 14.1189555795,
			"0.002": 12.6267408792,
			"0.003": 19.5014494301,
			"0.004": 9.71696191755,
			"0.005": 5.56508820137,
			"0.006": 3.40758468073,
			"0.007": 4.43747956955,
			"0.008": 4.7462327715,
			"0.009": 3.95739031599,
			"0.01": 4.90097807658,
			"0.011": 5.29370244751,
			"0.012": 2.66561974812,
			"0.013": 0.00961229681683,
			"0.014": 0.0,
			"0.015": 0.0,
			"0.016": 0.0,
			"0.017": 0.0,
			"0.018": 0.0,
			"0.019": 0.0,
			"0.02": 0.0,
			"0.021": 0.0,
			"0.022": 0.0,
			"0.023": 0.0,
			"0.024": 0.0,
			"0.025": 0.0
		}
	}
}
