{
	 "smiles": "CSC1=C(F)C=C(C=C1)C(C)=O", 
	 "Tm": 345.15, 
	 "num_atms": 21, 
	 "gaussian": { 
		 "optdone": 1, 
		 "sigma_profile": "yes", 
		 "theory": "DFT", 
		 "functional": "B3LYP", 
		 "basiset": "6-31G**", 
		 "properties": { 
			 "R2extent": 2977.2661, 
			 "electric_dipole_moment_norm": 2.5610889149, 
			 "electric_quadrupole_moment_norm": 10.2020660756, 
			 "total_energy": -921.630548317, 
			 "HOMO_LUMO_gap": 0.16217, 
			 "cosmo_polarized_energy": -8.9, 
			 "cosmo_cavitation_energy": 26.98, 
			 "cosmo_dispersion_energy": -19.96, 
			 "cosmo_repulsion_energy": 1.52, 
			 "cosmo_total_nonelectrostatic_energy": 8.54, 
			 "SMD_solvation_energy": 5.84 
		},
		"coords": [
			{
				"x": 1.2901242545,
				"y": -0.6180478814,
				"z": 3.6838136533,
				"element": "C" 
			},
			{
				"x": 2.3389477298,
				"y": 0.21472442,
				"z": 2.4313905248,
				"element": "S" 
			},
			{
				"x": 1.336506701,
				"y": 0.1367701835,
				"z": 0.9623010074,
				"element": "C" 
			},
			{
				"x": 0.015279692,
				"y": 0.5990225035,
				"z": 0.9109143065,
				"element": "C" 
			},
			{
				"x": -0.5619363476,
				"y": 1.0871988203,
				"z": 2.0309258791,
				"element": "F" 
			},
			{
				"x": -0.7361973194,
				"y": 0.5823600427,
				"z": -0.2544282833,
				"element": "C" 
			},
			{
				"x": -0.15731027,
				"y": 0.1154240537,
				"z": -1.4429512915,
				"element": "C" 
			},
			{
				"x": 1.1723504624,
				"y": -0.3319009181,
				"z": -1.4212797752,
				"element": "C" 
			},
			{
				"x": 1.9010704292,
				"y": -0.3281165263,
				"z": -0.2379587689,
				"element": "C" 
			},
			{
				"x": -0.9048514588,
				"y": 0.0735612072,
				"z": -2.743089941,
				"element": "C" 
			},
			{
				"x": -2.3441954774,
				"y": 0.5571975816,
				"z": -2.7771399673,
				"element": "C" 
			},
			{
				"x": -0.3613703195,
				"y": -0.3428879537,
				"z": -3.7544943356,
				"element": "O" 
			},
			{
				"x": 1.885718224,
				"y": -0.6362252221,
				"z": 4.5990823848,
				"element": "H" 
			},
			{
				"x": 1.0686527724,
				"y": -1.6427699491,
				"z": 3.3797401034,
				"element": "H" 
			},
			{
				"x": 0.3693669315,
				"y": -0.0628754376,
				"z": 3.8565134904,
				"element": "H" 
			},
			{
				"x": -1.7548260022,
				"y": 0.9507996596,
				"z": -0.2124339827,
				"element": "H" 
			},
			{
				"x": 1.6076255864,
				"y": -0.6930241676,
				"z": -2.3463783927,
				"element": "H" 
			},
			{
				"x": 2.9223727747,
				"y": -0.695039462,
				"z": -0.2221983908,
				"element": "H" 
			},
			{
				"x": -2.7212377531,
				"y": 0.4580736828,
				"z": -3.795211735,
				"element": "H" 
			},
			{
				"x": -2.9726535636,
				"y": -0.0302002929,
				"z": -2.0984849182,
				"element": "H" 
			},
			{
				"x": -2.4150370463,
				"y": 1.6047556559,
				"z": -2.4639315676,
				"element": "H" 
			}
		],
		 "valence_orbital": [ 
			{
				"type": "occ",
				"energy": -0.33119,
				"method": "rhf"
			},
			{
				"type": "occ",
				"energy": -0.28241,
				"method": "rhf"
			},
			{
				"type": "occ",
				"energy": -0.26213,
				"method": "rhf"
			},
			{
				"type": "occ",
				"energy": -0.25462,
				"method": "rhf"
			},
			{
				"type": "occ",
				"energy": -0.22914,
				"method": "rhf"
			},
			{
				"type": "unocc",
				"energy": -0.06697,
				"method": "rhf"
			},
			{
				"type": "unocc",
				"energy": -0.01629,
				"method": "rhf"
			},
			{
				"type": "unocc",
				"energy": 0.01775,
				"method": "rhf"
			},
			{
				"type": "unocc",
				"energy": 0.04172,
				"method": "rhf"
			},
			{
				"type": "unocc",
				"energy": 0.06828,
				"method": "rhf"
			}
		],
		"cosmo_sigma_profile": { 
			"-0.025": 0.0,
			"-0.024": 0.0,
			"-0.023": 0.0,
			"-0.022": 0.0,
			"-0.021": 0.0,
			"-0.02": 0.0,
			"-0.019": 0.0,
			"-0.018": 0.0,
			"-0.017": 0.0,
			"-0.016": 0.0,
			"-0.015": 0.0,
			"-0.014": 0.0,
			"-0.013": 0.0,
			"-0.012": 0.0,
			"-0.011": 0.0,
			"-0.01": 0.0,
			"-0.009": 0.0322839856292,
			"-0.008": 1.71639059868,
			"-0.007": 7.14384396096,
			"-0.006": 14.2272061781,
			"-0.005": 14.8042422447,
			"-0.004": 14.6226662481,
			"-0.003": 16.819634311,
			"-0.002": 20.1235990263,
			"-0.001": 20.8976412698,
			"0.0": 16.2852030159,
			"0.001": 18.5804962186,
			"0.002": 16.850796109,
			"0.003": 13.0367819415,
			"0.004": 10.6038825247,
			"0.005": 6.37468470347,
			"0.006": 4.51870886508,
			"0.007": 4.23152543971,
			"0.008": 3.20157001024,
			"0.009": 3.2541021633,
			"0.01": 2.06736759068,
			"0.011": 3.27690335265,
			"0.012": 3.59476992602,
			"0.013": 1.09784645976,
			"0.014": 0.00325082613205,
			"0.015": 0.0,
			"0.016": 0.0,
			"0.017": 0.0,
			"0.018": 0.0,
			"0.019": 0.0,
			"0.02": 0.0,
			"0.021": 0.0,
			"0.022": 0.0,
			"0.023": 0.0,
			"0.024": 0.0,
			"0.025": 0.0
		}
	}
}
