{
	 "smiles": "CCN(CC)C1=C(C=C(C=C1)[N+]([O-])=O)C(O)=O", 
	 "Tm": 458.15, 
	 "num_atms": 31, 
	 "gaussian": { 
		 "optdone": 1, 
		 "sigma_profile": "yes", 
		 "theory": "DFT", 
		 "functional": "B3LYP", 
		 "basiset": "6-31G**", 
		 "properties": { 
			 "R2extent": 5827.2291, 
			 "electric_dipole_moment_norm": 8.71074068378, 
			 "electric_quadrupole_moment_norm": 20.6778989322, 
			 "total_energy": -837.920992844, 
			 "HOMO_LUMO_gap": 0.16467, 
			 "cosmo_polarized_energy": -18.33, 
			 "cosmo_cavitation_energy": 34.12, 
			 "cosmo_dispersion_energy": -23.84, 
			 "cosmo_repulsion_energy": 1.83, 
			 "cosmo_total_nonelectrostatic_energy": 12.11, 
			 "SMD_solvation_energy": 9.44 
		},
		"coords": [
			{
				"x": -2.6687852276,
				"y": -0.0830179162,
				"z": 0.6573880249,
				"element": "C" 
			},
			{
				"x": -1.2690166314,
				"y": -0.6764290694,
				"z": 0.4980139816,
				"element": "C" 
			},
			{
				"x": -0.2494038678,
				"y": 0.3524133806,
				"z": 0.1919770575,
				"element": "N" 
			},
			{
				"x": 0.0166115423,
				"y": 1.3247235747,
				"z": 1.2953557134,
				"element": "C" 
			},
			{
				"x": 0.608762192,
				"y": 0.7359881605,
				"z": 2.5780722635,
				"element": "C" 
			},
			{
				"x": 0.9532514184,
				"y": -0.1410156821,
				"z": -0.4268256735,
				"element": "C" 
			},
			{
				"x": 1.5770316083,
				"y": 0.6325390346,
				"z": -1.4356789908,
				"element": "C" 
			},
			{
				"x": 2.7657170008,
				"y": 0.1781556904,
				"z": -2.0126467521,
				"element": "C" 
			},
			{
				"x": 3.3046646354,
				"y": -1.0380301953,
				"z": -1.6153262201,
				"element": "C" 
			},
			{
				"x": 2.6890656343,
				"y": -1.8320923676,
				"z": -0.6503357587,
				"element": "C" 
			},
			{
				"x": 1.5173987676,
				"y": -1.3735668036,
				"z": -0.0592016742,
				"element": "C" 
			},
			{
				"x": 4.5531710725,
				"y": -1.5104951835,
				"z": -2.2359692996,
				"element": "N" 
			},
			{
				"x": 5.0820677611,
				"y": -0.786686026,
				"z": -3.0760137596,
				"element": "O" 
			},
			{
				"x": 4.9881910907,
				"y": -2.6029990707,
				"z": -1.8706765199,
				"element": "O" 
			},
			{
				"x": 1.0171069899,
				"y": 1.9190990323,
				"z": -2.0164185565,
				"element": "C" 
			},
			{
				"x": -0.2411962395,
				"y": 2.2284986048,
				"z": -1.679330198,
				"element": "O" 
			},
			{
				"x": 1.6688817275,
				"y": 2.6061485451,
				"z": -2.7717272389,
				"element": "O" 
			},
			{
				"x": -2.9519880306,
				"y": 0.4988889721,
				"z": -0.2249642648,
				"element": "H" 
			},
			{
				"x": -3.3948629307,
				"y": -0.8924790289,
				"z": 0.7792952293,
				"element": "H" 
			},
			{
				"x": -2.7515551204,
				"y": 0.562695872,
				"z": 1.5362148761,
				"element": "H" 
			},
			{
				"x": -1.2683992839,
				"y": -1.3778916836,
				"z": -0.3411345907,
				"element": "H" 
			},
			{
				"x": -1.0107991875,
				"y": -1.2544327316,
				"z": 1.3972638379,
				"element": "H" 
			},
			{
				"x": 0.6882248005,
				"y": 2.0866241547,
				"z": 0.8916518876,
				"element": "H" 
			},
			{
				"x": -0.9272032856,
				"y": 1.8326678592,
				"z": 1.512777306,
				"element": "H" 
			},
			{
				"x": 0.7913591912,
				"y": 1.5431724817,
				"z": 3.2943344092,
				"element": "H" 
			},
			{
				"x": -0.0663686035,
				"y": 0.020643408,
				"z": 3.0575782412,
				"element": "H" 
			},
			{
				"x": 1.5631792883,
				"y": 0.2359604946,
				"z": 2.3890916147,
				"element": "H" 
			},
			{
				"x": 3.2413382851,
				"y": 0.7750517002,
				"z": -2.7806779118,
				"element": "H" 
			},
			{
				"x": 3.1367134369,
				"y": -2.7774285242,
				"z": -0.3700206613,
				"element": "H" 
			},
			{
				"x": 1.0415973028,
				"y": -1.9754623415,
				"z": 0.7064500131,
				"element": "H" 
			},
			{
				"x": -0.5642553372,
				"y": 1.5329556588,
				"z": -1.0422163856,
				"element": "H" 
			}
		],
		 "valence_orbital": [ 
			{
				"type": "occ",
				"energy": -0.30259,
				"method": "rhf"
			},
			{
				"type": "occ",
				"energy": -0.29516,
				"method": "rhf"
			},
			{
				"type": "occ",
				"energy": -0.28683,
				"method": "rhf"
			},
			{
				"type": "occ",
				"energy": -0.27179,
				"method": "rhf"
			},
			{
				"type": "occ",
				"energy": -0.2603,
				"method": "rhf"
			},
			{
				"type": "unocc",
				"energy": -0.09563,
				"method": "rhf"
			},
			{
				"type": "unocc",
				"energy": -0.06129,
				"method": "rhf"
			},
			{
				"type": "unocc",
				"energy": -0.01792,
				"method": "rhf"
			},
			{
				"type": "unocc",
				"energy": 0.04647,
				"method": "rhf"
			},
			{
				"type": "unocc",
				"energy": 0.0544,
				"method": "rhf"
			}
		],
		"cosmo_sigma_profile": { 
			"-0.025": 0.0,
			"-0.024": 0.0,
			"-0.023": 0.0,
			"-0.022": 0.0,
			"-0.021": 0.0,
			"-0.02": 0.0,
			"-0.019": 0.0,
			"-0.018": 0.0,
			"-0.017": 0.0,
			"-0.016": 0.0,
			"-0.015": 0.0,
			"-0.014": 0.0,
			"-0.013": 0.0,
			"-0.012": 0.0,
			"-0.011": 0.0,
			"-0.01": 0.0,
			"-0.009": 0.211779168034,
			"-0.008": 3.29467363312,
			"-0.007": 6.27750025687,
			"-0.006": 11.8561500299,
			"-0.005": 20.299289225,
			"-0.004": 29.631226483,
			"-0.003": 33.4612742418,
			"-0.002": 30.2995943583,
			"-0.001": 28.3062563722,
			"0.0": 24.344061722,
			"0.001": 10.7775745565,
			"0.002": 4.32791050897,
			"0.003": 4.34006156644,
			"0.004": 4.4730467318,
			"0.005": 5.11505515328,
			"0.006": 5.77930059646,
			"0.007": 11.0212747833,
			"0.008": 9.61018641614,
			"0.009": 6.75467251471,
			"0.01": 6.42650971304,
			"0.011": 6.08406382626,
			"0.012": 5.16379704617,
			"0.013": 2.01448873075,
			"0.014": 0.259106144059,
			"0.015": 0.0,
			"0.016": 0.0,
			"0.017": 0.0,
			"0.018": 0.0,
			"0.019": 0.0,
			"0.02": 0.0,
			"0.021": 0.0,
			"0.022": 0.0,
			"0.023": 0.0,
			"0.024": 0.0,
			"0.025": 0.0
		}
	}
}
