{
	 "smiles": "CC(=O)NC1=C(C=C2C=CC=CC2=C1)C(O)=O", 
	 "Tm": 464.15, 
	 "num_atms": 28, 
	 "gaussian": { 
		 "optdone": 1, 
		 "sigma_profile": "yes", 
		 "theory": "DFT", 
		 "functional": "B3LYP", 
		 "basiset": "6-31G**", 
		 "properties": { 
			 "R2extent": 5203.2281, 
			 "electric_dipole_moment_norm": 3.26395382473, 
			 "electric_quadrupole_moment_norm": 13.4466902437, 
			 "total_energy": -782.484776633, 
			 "HOMO_LUMO_gap": 0.14524, 
			 "cosmo_polarized_energy": -16.84, 
			 "cosmo_cavitation_energy": 32.17, 
			 "cosmo_dispersion_energy": -23.68, 
			 "cosmo_repulsion_energy": 1.79, 
			 "cosmo_total_nonelectrostatic_energy": 10.28, 
			 "SMD_solvation_energy": 6.89 
		},
		"coords": [
			{
				"x": 0.742372506,
				"y": -2.8404522344,
				"z": 4.4479797213,
				"element": "C" 
			},
			{
				"x": -0.1904998077,
				"y": -2.4656224179,
				"z": 3.3064717282,
				"element": "C" 
			},
			{
				"x": -1.403294612,
				"y": -2.6029201723,
				"z": 3.3949971062,
				"element": "O" 
			},
			{
				"x": 0.4595307257,
				"y": -1.9479177685,
				"z": 2.2042999955,
				"element": "N" 
			},
			{
				"x": -0.0991012492,
				"y": -1.451536265,
				"z": 1.021888911,
				"element": "C" 
			},
			{
				"x": 0.7958968021,
				"y": -1.0703566372,
				"z": -0.0467641243,
				"element": "C" 
			},
			{
				"x": 0.2702600649,
				"y": -0.5105275135,
				"z": -1.2017479539,
				"element": "C" 
			},
			{
				"x": -1.1168063586,
				"y": -0.3394261545,
				"z": -1.3993758578,
				"element": "C" 
			},
			{
				"x": -1.655791609,
				"y": 0.2354981014,
				"z": -2.5827127499,
				"element": "C" 
			},
			{
				"x": -3.015921798,
				"y": 0.3673857597,
				"z": -2.7373054551,
				"element": "C" 
			},
			{
				"x": -3.8941501479,
				"y": -0.0685321894,
				"z": -1.7113449943,
				"element": "C" 
			},
			{
				"x": -3.4011548543,
				"y": -0.6236299351,
				"z": -0.5527817689,
				"element": "C" 
			},
			{
				"x": -1.9994491245,
				"y": -0.7739864599,
				"z": -0.3593805336,
				"element": "C" 
			},
			{
				"x": -1.4669426276,
				"y": -1.3184207884,
				"z": 0.8328858053,
				"element": "C" 
			},
			{
				"x": 2.2729730071,
				"y": -1.2427966818,
				"z": 0.0867379673,
				"element": "C" 
			},
			{
				"x": 2.9970167053,
				"y": -1.2802110453,
				"z": -1.0567475889,
				"element": "O" 
			},
			{
				"x": 2.863823607,
				"y": -1.3528690051,
				"z": 1.1478437023,
				"element": "O" 
			},
			{
				"x": 1.7815216501,
				"y": -2.9748769232,
				"z": 4.1367740744,
				"element": "H" 
			},
			{
				"x": 0.3753209807,
				"y": -3.7600425247,
				"z": 4.907470591,
				"element": "H" 
			},
			{
				"x": 0.707021343,
				"y": -2.0535046717,
				"z": 5.2090297641,
				"element": "H" 
			},
			{
				"x": 1.4718346305,
				"y": -1.852241122,
				"z": 2.2451634702,
				"element": "H" 
			},
			{
				"x": 0.9350263945,
				"y": -0.1449717488,
				"z": -1.9815653091,
				"element": "H" 
			},
			{
				"x": -0.9758863265,
				"y": 0.5663093559,
				"z": -3.3639702104,
				"element": "H" 
			},
			{
				"x": -3.4233078413,
				"y": 0.8046858758,
				"z": -3.6437548507,
				"element": "H" 
			},
			{
				"x": -4.9664551146,
				"y": 0.0407210149,
				"z": -1.8454751252,
				"element": "H" 
			},
			{
				"x": -4.0744943847,
				"y": -0.9533379505,
				"z": 0.2332314651,
				"element": "H" 
			},
			{
				"x": -2.1303603491,
				"y": -1.6351657065,
				"z": 1.6257485228,
				"element": "H" 
			},
			{
				"x": 2.4090177881,
				"y": -1.3692541921,
				"z": -1.8193963027,
				"element": "H" 
			}
		],
		 "valence_orbital": [ 
			{
				"type": "occ",
				"energy": -0.29275,
				"method": "rhf"
			},
			{
				"type": "occ",
				"energy": -0.28685,
				"method": "rhf"
			},
			{
				"type": "occ",
				"energy": -0.25143,
				"method": "rhf"
			},
			{
				"type": "occ",
				"energy": -0.24914,
				"method": "rhf"
			},
			{
				"type": "occ",
				"energy": -0.21686,
				"method": "rhf"
			},
			{
				"type": "unocc",
				"energy": -0.07162,
				"method": "rhf"
			},
			{
				"type": "unocc",
				"energy": -0.0394,
				"method": "rhf"
			},
			{
				"type": "unocc",
				"energy": 0.00634,
				"method": "rhf"
			},
			{
				"type": "unocc",
				"energy": 0.02351,
				"method": "rhf"
			},
			{
				"type": "unocc",
				"energy": 0.04036,
				"method": "rhf"
			}
		],
		"cosmo_sigma_profile": { 
			"-0.025": 0.0,
			"-0.024": 0.0,
			"-0.023": 0.0,
			"-0.022": 0.0,
			"-0.021": 0.0,
			"-0.02": 0.00912800877685,
			"-0.019": 0.589394104357,
			"-0.018": 0.935580586944,
			"-0.017": 1.12035242375,
			"-0.016": 0.626744613296,
			"-0.015": 0.737886164633,
			"-0.014": 1.08150060539,
			"-0.013": 1.35068591607,
			"-0.012": 0.795610580375,
			"-0.011": 1.13298639707,
			"-0.01": 1.22377925355,
			"-0.009": 1.92887843939,
			"-0.008": 3.48166872209,
			"-0.007": 6.76083903226,
			"-0.006": 15.1156069363,
			"-0.005": 17.072464216,
			"-0.004": 19.2034518828,
			"-0.003": 17.9229603479,
			"-0.002": 18.0150635411,
			"-0.001": 16.9005702876,
			"0.0": 13.2919582166,
			"0.001": 17.9452805147,
			"0.002": 19.7946465795,
			"0.003": 22.2628489368,
			"0.004": 14.6152761983,
			"0.005": 6.36532135994,
			"0.006": 4.06838855298,
			"0.007": 3.26570970365,
			"0.008": 5.17652523038,
			"0.009": 5.07792201678,
			"0.01": 6.22908004839,
			"0.011": 4.49561663012,
			"0.012": 4.74092395204,
			"0.013": 3.10975658503,
			"0.014": 1.57533409224,
			"0.015": 0.0917086960339,
			"0.016": 0.0,
			"0.017": 0.0,
			"0.018": 0.0,
			"0.019": 0.0,
			"0.02": 0.0,
			"0.021": 0.0,
			"0.022": 0.0,
			"0.023": 0.0,
			"0.024": 0.0,
			"0.025": 0.0
		}
	}
}
