{
	 "smiles": "OC(=O)C1=CC(OC(F)(F)F)=CC=C1", 
	 "Tm": 362.15, 
	 "num_atms": 19, 
	 "gaussian": { 
		 "optdone": 1, 
		 "sigma_profile": "yes", 
		 "theory": "DFT", 
		 "functional": "B3LYP", 
		 "basiset": "6-31G**", 
		 "properties": { 
			 "R2extent": 5036.0378, 
			 "electric_dipole_moment_norm": 0.12549860557, 
			 "electric_quadrupole_moment_norm": 12.4752075462, 
			 "total_energy": -833.075979524, 
			 "HOMO_LUMO_gap": 0.19788, 
			 "cosmo_polarized_energy": -8.42, 
			 "cosmo_cavitation_energy": 25.85, 
			 "cosmo_dispersion_energy": -18.73, 
			 "cosmo_repulsion_energy": 1.41, 
			 "cosmo_total_nonelectrostatic_energy": 8.53, 
			 "SMD_solvation_energy": 7.3 
		},
		"coords": [
			{
				"x": -0.6480866624,
				"y": -2.3696267355,
				"z": -0.8710517313,
				"element": "O" 
			},
			{
				"x": -1.7680102719,
				"y": -1.6167949046,
				"z": -0.996730237,
				"element": "C" 
			},
			{
				"x": -2.5712311761,
				"y": -1.7918855532,
				"z": -1.8906312687,
				"element": "O" 
			},
			{
				"x": -1.8952797074,
				"y": -0.5796306684,
				"z": 0.0643599094,
				"element": "C" 
			},
			{
				"x": -0.9323339491,
				"y": -0.4331566446,
				"z": 1.0670174275,
				"element": "C" 
			},
			{
				"x": -1.1012517658,
				"y": 0.5536867566,
				"z": 2.0348532654,
				"element": "C" 
			},
			{
				"x": -0.075789496,
				"y": 0.6016290262,
				"z": 2.9808892751,
				"element": "O" 
			},
			{
				"x": -0.0875423939,
				"y": 1.5066420998,
				"z": 3.9902590423,
				"element": "C" 
			},
			{
				"x": 1.008662768,
				"y": 1.3051199348,
				"z": 4.7173185291,
				"element": "F" 
			},
			{
				"x": -0.078573484,
				"y": 2.7782700091,
				"z": 3.5435794065,
				"element": "F" 
			},
			{
				"x": -1.1638515458,
				"y": 1.3735457135,
				"z": 4.79062468,
				"element": "F" 
			},
			{
				"x": -2.2129704764,
				"y": 1.3977397367,
				"z": 2.0216023548,
				"element": "C" 
			},
			{
				"x": -3.1663493185,
				"y": 1.2375276383,
				"z": 1.0117862195,
				"element": "C" 
			},
			{
				"x": -3.0175958649,
				"y": 0.2585229981,
				"z": 0.0353772868,
				"element": "C" 
			},
			{
				"x": -0.670190858,
				"y": -3.0044593647,
				"z": -1.6058552711,
				"element": "H" 
			},
			{
				"x": -0.0594538525,
				"y": -1.073035386,
				"z": 1.1030894846,
				"element": "H" 
			},
			{
				"x": -2.3445970147,
				"y": 2.1644184139,
				"z": 2.7733296403,
				"element": "H" 
			},
			{
				"x": -4.0324044844,
				"y": 1.8917435658,
				"z": 0.9978186287,
				"element": "H" 
			},
			{
				"x": -3.7501504462,
				"y": 0.1249433641,
				"z": -0.7523366418,
				"element": "H" 
			}
		],
		 "valence_orbital": [ 
			{
				"type": "occ",
				"energy": -0.36293,
				"method": "rhf"
			},
			{
				"type": "occ",
				"energy": -0.32648,
				"method": "rhf"
			},
			{
				"type": "occ",
				"energy": -0.28563,
				"method": "rhf"
			},
			{
				"type": "occ",
				"energy": -0.2772,
				"method": "rhf"
			},
			{
				"type": "occ",
				"energy": -0.25777,
				"method": "rhf"
			},
			{
				"type": "unocc",
				"energy": -0.05989,
				"method": "rhf"
			},
			{
				"type": "unocc",
				"energy": -0.01864,
				"method": "rhf"
			},
			{
				"type": "unocc",
				"energy": 0.04736,
				"method": "rhf"
			},
			{
				"type": "unocc",
				"energy": 0.06846,
				"method": "rhf"
			},
			{
				"type": "unocc",
				"energy": 0.08855,
				"method": "rhf"
			}
		],
		"cosmo_sigma_profile": { 
			"-0.025": 0.0,
			"-0.024": 0.0,
			"-0.023": 0.0,
			"-0.022": 0.0,
			"-0.021": 0.0,
			"-0.02": 0.0,
			"-0.019": 0.232329816095,
			"-0.018": 0.881999008059,
			"-0.017": 0.941251522086,
			"-0.016": 1.23556175141,
			"-0.015": 0.440425719312,
			"-0.014": 0.404341626105,
			"-0.013": 0.281620193111,
			"-0.012": 0.823701614875,
			"-0.011": 1.30958193072,
			"-0.01": 0.428586627958,
			"-0.009": 0.427120953986,
			"-0.008": 2.06743751419,
			"-0.007": 6.25166068089,
			"-0.006": 7.60837491773,
			"-0.005": 6.83339527868,
			"-0.004": 6.73580130109,
			"-0.003": 9.14407550798,
			"-0.002": 11.57607014,
			"-0.001": 17.9407015292,
			"0.0": 25.3221725815,
			"0.001": 35.7382835812,
			"0.002": 35.9422221115,
			"0.003": 9.39426388123,
			"0.004": 3.612517492,
			"0.005": 4.23857029678,
			"0.006": 2.98650187547,
			"0.007": 2.73784166717,
			"0.008": 1.77405801303,
			"0.009": 1.53928448531,
			"0.01": 1.9142989106,
			"0.011": 4.87875304125,
			"0.012": 2.33953060743,
			"0.013": 0.0,
			"0.014": 0.0,
			"0.015": 0.0,
			"0.016": 0.0,
			"0.017": 0.0,
			"0.018": 0.0,
			"0.019": 0.0,
			"0.02": 0.0,
			"0.021": 0.0,
			"0.022": 0.0,
			"0.023": 0.0,
			"0.024": 0.0,
			"0.025": 0.0
		}
	}
}
