{
	 "smiles": "ClC1=NN=C(C=C1)C1=CC=CC=C1", 
	 "Tm": 431.15, 
	 "num_atms": 20, 
	 "gaussian": { 
		 "optdone": 1, 
		 "sigma_profile": "yes", 
		 "theory": "DFT", 
		 "functional": "B3LYP", 
		 "basiset": "6-31G**", 
		 "properties": { 
			 "R2extent": 4502.8279, 
			 "electric_dipole_moment_norm": 4.48646125248, 
			 "electric_quadrupole_moment_norm": 17.7253484637, 
			 "total_energy": -954.939891037, 
			 "HOMO_LUMO_gap": 0.17973, 
			 "cosmo_polarized_energy": -11.39, 
			 "cosmo_cavitation_energy": 26.51, 
			 "cosmo_dispersion_energy": -20.01, 
			 "cosmo_repulsion_energy": 1.56, 
			 "cosmo_total_nonelectrostatic_energy": 8.07, 
			 "SMD_solvation_energy": 2.57 
		},
		"coords": [
			{
				"x": -3.145106759,
				"y": -3.7818194493,
				"z": -2.7078555878,
				"element": "Cl" 
			},
			{
				"x": -2.1340809197,
				"y": -2.8528873733,
				"z": -1.6215537427,
				"element": "C" 
			},
			{
				"x": -0.8275745628,
				"y": -2.9596111104,
				"z": -1.8004661675,
				"element": "N" 
			},
			{
				"x": -0.0037599384,
				"y": -2.2868613259,
				"z": -0.9991827807,
				"element": "N" 
			},
			{
				"x": -0.4831375157,
				"y": -1.4964718496,
				"z": -0.0233480629,
				"element": "C" 
			},
			{
				"x": -1.8717666365,
				"y": -1.3449692782,
				"z": 0.1748649103,
				"element": "C" 
			},
			{
				"x": -2.7305112483,
				"y": -2.0488122649,
				"z": -0.6425038944,
				"element": "C" 
			},
			{
				"x": 0.5269505639,
				"y": -0.7923106814,
				"z": 0.8047435918,
				"element": "C" 
			},
			{
				"x": 1.8354033967,
				"y": -0.6268818612,
				"z": 0.3191209961,
				"element": "C" 
			},
			{
				"x": 2.7930500145,
				"y": 0.0371049101,
				"z": 1.0810321874,
				"element": "C" 
			},
			{
				"x": 2.4656214192,
				"y": 0.5429637961,
				"z": 2.3415898766,
				"element": "C" 
			},
			{
				"x": 1.1719971539,
				"y": 0.374973716,
				"z": 2.8379024782,
				"element": "C" 
			},
			{
				"x": 0.2103510809,
				"y": -0.2875122998,
				"z": 2.0764430726,
				"element": "C" 
			},
			{
				"x": -2.2595010122,
				"y": -0.6766689524,
				"z": 0.9355093095,
				"element": "H" 
			},
			{
				"x": -3.8085255871,
				"y": -1.981321309,
				"z": -0.5523077124,
				"element": "H" 
			},
			{
				"x": 2.0817096541,
				"y": -1.0266386457,
				"z": -0.6577286193,
				"element": "H" 
			},
			{
				"x": 3.7982102681,
				"y": 0.1620323363,
				"z": 0.6890166016,
				"element": "H" 
			},
			{
				"x": 3.2142193279,
				"y": 1.0604675219,
				"z": 2.9343966405,
				"element": "H" 
			},
			{
				"x": 0.9113696138,
				"y": 0.7530548291,
				"z": 3.8220973421,
				"element": "H" 
			},
			{
				"x": -0.7822183135,
				"y": -0.4310307085,
				"z": 2.4925295611,
				"element": "H" 
			}
		],
		 "valence_orbital": [ 
			{
				"type": "occ",
				"energy": -0.31966,
				"method": "rhf"
			},
			{
				"type": "occ",
				"energy": -0.29497,
				"method": "rhf"
			},
			{
				"type": "occ",
				"energy": -0.26076,
				"method": "rhf"
			},
			{
				"type": "occ",
				"energy": -0.24486,
				"method": "rhf"
			},
			{
				"type": "occ",
				"energy": -0.24426,
				"method": "rhf"
			},
			{
				"type": "unocc",
				"energy": -0.06453,
				"method": "rhf"
			},
			{
				"type": "unocc",
				"energy": -0.0576,
				"method": "rhf"
			},
			{
				"type": "unocc",
				"energy": -0.00968,
				"method": "rhf"
			},
			{
				"type": "unocc",
				"energy": 0.01216,
				"method": "rhf"
			},
			{
				"type": "unocc",
				"energy": 0.02493,
				"method": "rhf"
			}
		],
		"cosmo_sigma_profile": { 
			"-0.025": 0.0,
			"-0.024": 0.0,
			"-0.023": 0.0,
			"-0.022": 0.0,
			"-0.021": 0.0,
			"-0.02": 0.0,
			"-0.019": 0.0,
			"-0.018": 0.0,
			"-0.017": 0.0,
			"-0.016": 0.0,
			"-0.015": 0.0,
			"-0.014": 0.0,
			"-0.013": 0.0,
			"-0.012": 0.0,
			"-0.011": 0.000229369283054,
			"-0.01": 2.12034119061,
			"-0.009": 4.91531387415,
			"-0.008": 5.17559873613,
			"-0.007": 4.57925778757,
			"-0.006": 10.0811500003,
			"-0.005": 11.5399458665,
			"-0.004": 15.271688447,
			"-0.003": 16.4861352154,
			"-0.002": 19.0761458738,
			"-0.001": 17.2386968973,
			"0.0": 14.1100182232,
			"0.001": 12.9897165047,
			"0.002": 14.5201877123,
			"0.003": 18.4716540358,
			"0.004": 20.155862961,
			"0.005": 10.1985960354,
			"0.006": 2.87202632985,
			"0.007": 2.70232975607,
			"0.008": 1.84234541519,
			"0.009": 2.24191445711,
			"0.01": 1.70938828157,
			"0.011": 1.86114523316,
			"0.012": 2.75927615894,
			"0.013": 2.5216314786,
			"0.014": 1.06091244694,
			"0.015": 0.228370281075,
			"0.016": 0.0,
			"0.017": 0.0,
			"0.018": 0.0,
			"0.019": 0.0,
			"0.02": 0.0,
			"0.021": 0.0,
			"0.022": 0.0,
			"0.023": 0.0,
			"0.024": 0.0,
			"0.025": 0.0
		}
	}
}
