{
	 "smiles": "CC1=CC(C)=C2CC(=O)OC2=C1", 
	 "Tm": 378.15, 
	 "num_atms": 22, 
	 "gaussian": { 
		 "optdone": 1, 
		 "sigma_profile": "yes", 
		 "theory": "DFT", 
		 "functional": "B3LYP", 
		 "basiset": "6-31G**", 
		 "properties": { 
			 "R2extent": 2746.3449, 
			 "electric_dipole_moment_norm": 4.22007332756, 
			 "electric_quadrupole_moment_norm": 10.9415434492, 
			 "total_energy": -537.562332136, 
			 "HOMO_LUMO_gap": 0.21372, 
			 "cosmo_polarized_energy": -9.04, 
			 "cosmo_cavitation_energy": 25.63, 
			 "cosmo_dispersion_energy": -18.9, 
			 "cosmo_repulsion_energy": 1.51, 
			 "cosmo_total_nonelectrostatic_energy": 8.24, 
			 "SMD_solvation_energy": 5.44 
		},
		"coords": [
			{
				"x": -2.2919215912,
				"y": 1.1727052295,
				"z": -2.5651326734,
				"element": "C" 
			},
			{
				"x": -1.9314142695,
				"y": 0.4508996063,
				"z": -1.2872859318,
				"element": "C" 
			},
			{
				"x": -2.7318544992,
				"y": -0.5934955891,
				"z": -0.8043619107,
				"element": "C" 
			},
			{
				"x": -2.4370030453,
				"y": -1.2921929922,
				"z": 0.3789094377,
				"element": "C" 
			},
			{
				"x": -3.3172861994,
				"y": -2.4126051051,
				"z": 0.8746857673,
				"element": "C" 
			},
			{
				"x": -1.2940563099,
				"y": -0.9061785544,
				"z": 1.0777308143,
				"element": "C" 
			},
			{
				"x": -0.6597159263,
				"y": -1.3943472073,
				"z": 2.3477437258,
				"element": "C" 
			},
			{
				"x": 0.5681051567,
				"y": -0.486687383,
				"z": 2.4783711974,
				"element": "C" 
			},
			{
				"x": 1.4122885428,
				"y": -0.4682867933,
				"z": 3.3289534677,
				"element": "O" 
			},
			{
				"x": 0.592387284,
				"y": 0.3900313706,
				"z": 1.4023676204,
				"element": "O" 
			},
			{
				"x": -0.5025187903,
				"y": 0.1336949804,
				"z": 0.5909320578,
				"element": "C" 
			},
			{
				"x": -0.7822298077,
				"y": 0.8283564731,
				"z": -0.5715550184,
				"element": "C" 
			},
			{
				"x": -1.4884780242,
				"y": 1.0942603502,
				"z": -3.3063716719,
				"element": "H" 
			},
			{
				"x": -2.4589327314,
				"y": 2.2408123437,
				"z": -2.3846753912,
				"element": "H" 
			},
			{
				"x": -3.201263602,
				"y": 0.7629717504,
				"z": -3.012428999,
				"element": "H" 
			},
			{
				"x": -3.6178465316,
				"y": -0.8755788133,
				"z": -1.3678317337,
				"element": "H" 
			},
			{
				"x": -3.7169006831,
				"y": -2.1959233621,
				"z": 1.8726872752,
				"element": "H" 
			},
			{
				"x": -4.1644261936,
				"y": -2.5790379302,
				"z": 0.2045594016,
				"element": "H" 
			},
			{
				"x": -2.7609155057,
				"y": -3.354469704,
				"z": 0.9519705801,
				"element": "H" 
			},
			{
				"x": -1.2836686306,
				"y": -1.2821061545,
				"z": 3.2425414295,
				"element": "H" 
			},
			{
				"x": -0.3299112075,
				"y": -2.4398552791,
				"z": 2.3212601582,
				"element": "H" 
			},
			{
				"x": -0.1358374349,
				"y": 1.6310327633,
				"z": -0.9108696028,
				"element": "H" 
			}
		],
		 "valence_orbital": [ 
			{
				"type": "occ",
				"energy": -0.34475,
				"method": "rhf"
			},
			{
				"type": "occ",
				"energy": -0.32088,
				"method": "rhf"
			},
			{
				"type": "occ",
				"energy": -0.27831,
				"method": "rhf"
			},
			{
				"type": "occ",
				"energy": -0.24606,
				"method": "rhf"
			},
			{
				"type": "occ",
				"energy": -0.23295,
				"method": "rhf"
			},
			{
				"type": "unocc",
				"energy": -0.01923,
				"method": "rhf"
			},
			{
				"type": "unocc",
				"energy": -0.00662,
				"method": "rhf"
			},
			{
				"type": "unocc",
				"energy": 0.01799,
				"method": "rhf"
			},
			{
				"type": "unocc",
				"energy": 0.08548,
				"method": "rhf"
			},
			{
				"type": "unocc",
				"energy": 0.09563,
				"method": "rhf"
			}
		],
		"cosmo_sigma_profile": { 
			"-0.025": 0.0,
			"-0.024": 0.0,
			"-0.023": 0.0,
			"-0.022": 0.0,
			"-0.021": 0.0,
			"-0.02": 0.0,
			"-0.019": 0.0,
			"-0.018": 0.0,
			"-0.017": 0.0,
			"-0.016": 0.0,
			"-0.015": 0.0,
			"-0.014": 0.0,
			"-0.013": 0.0,
			"-0.012": 0.0,
			"-0.011": 0.0,
			"-0.01": 0.0,
			"-0.009": 0.0,
			"-0.008": 3.1213622482,
			"-0.007": 6.93274430999,
			"-0.006": 7.09298842158,
			"-0.005": 12.2514356149,
			"-0.004": 22.6581048984,
			"-0.003": 19.9843259542,
			"-0.002": 17.6370379592,
			"-0.001": 17.2964622345,
			"0.0": 19.6436390489,
			"0.001": 12.9222750959,
			"0.002": 10.6044498921,
			"0.003": 8.79258918014,
			"0.004": 9.30991269189,
			"0.005": 9.54020289059,
			"0.006": 3.27658689515,
			"0.007": 2.91414133206,
			"0.008": 3.89144337309,
			"0.009": 3.96414776602,
			"0.01": 3.70686490614,
			"0.011": 6.01858332043,
			"0.012": 1.87769378405,
			"0.013": 0.0155542665601,
			"0.014": 0.0,
			"0.015": 0.0,
			"0.016": 0.0,
			"0.017": 0.0,
			"0.018": 0.0,
			"0.019": 0.0,
			"0.02": 0.0,
			"0.021": 0.0,
			"0.022": 0.0,
			"0.023": 0.0,
			"0.024": 0.0,
			"0.025": 0.0
		}
	}
}
