{
	 "smiles": "OC1=C(C=CC(OCC=C)=C1)C(=O)C1=CC=CC=C1", 
	 "Tm": 341.65, 
	 "num_atms": 33, 
	 "gaussian": { 
		 "optdone": 1, 
		 "sigma_profile": "yes", 
		 "theory": "DFT", 
		 "functional": "B3LYP", 
		 "basiset": "6-31G**", 
		 "properties": { 
			 "R2extent": 7040.5664, 
			 "electric_dipole_moment_norm": 5.06232095585, 
			 "electric_quadrupole_moment_norm": 13.2636146076, 
			 "total_energy": -843.787932091, 
			 "HOMO_LUMO_gap": 0.15993, 
			 "cosmo_polarized_energy": -11.8, 
			 "cosmo_cavitation_energy": 37.29, 
			 "cosmo_dispersion_energy": -27.02, 
			 "cosmo_repulsion_energy": 2.06, 
			 "cosmo_total_nonelectrostatic_energy": 12.33, 
			 "SMD_solvation_energy": 7.85 
		},
		"coords": [
			{
				"x": -2.8720823482,
				"y": -0.8294760349,
				"z": 1.670894969,
				"element": "O" 
			},
			{
				"x": -2.0651292992,
				"y": -0.7531668935,
				"z": 0.6077641442,
				"element": "C" 
			},
			{
				"x": -1.0681388493,
				"y": 0.2696913471,
				"z": 0.4884894681,
				"element": "C" 
			},
			{
				"x": -0.3150096466,
				"y": 0.3084055204,
				"z": -0.7028014403,
				"element": "C" 
			},
			{
				"x": -0.4752469723,
				"y": -0.6231611512,
				"z": -1.7148301346,
				"element": "C" 
			},
			{
				"x": -1.4291844085,
				"y": -1.6519249471,
				"z": -1.5530347271,
				"element": "C" 
			},
			{
				"x": -1.6795013085,
				"y": -2.6223237839,
				"z": -2.4686876527,
				"element": "O" 
			},
			{
				"x": -0.9664899043,
				"y": -2.6450813952,
				"z": -3.7156426993,
				"element": "C" 
			},
			{
				"x": 0.3894837947,
				"y": -3.2823202878,
				"z": -3.592256774,
				"element": "C" 
			},
			{
				"x": 0.7803057999,
				"y": -4.3259235102,
				"z": -4.322596025,
				"element": "C" 
			},
			{
				"x": -2.2127186506,
				"y": -1.7083517266,
				"z": -0.3996984207,
				"element": "C" 
			},
			{
				"x": -0.9152906626,
				"y": 1.2403498672,
				"z": 1.5745140513,
				"element": "C" 
			},
			{
				"x": -1.7564308919,
				"y": 1.303651392,
				"z": 2.4959300473,
				"element": "O" 
			},
			{
				"x": 0.2403883265,
				"y": 2.1929880343,
				"z": 1.6328279607,
				"element": "C" 
			},
			{
				"x": 1.5579652988,
				"y": 1.8119669544,
				"z": 1.3349276399,
				"element": "C" 
			},
			{
				"x": 2.6047178435,
				"y": 2.7228702122,
				"z": 1.4834913951,
				"element": "C" 
			},
			{
				"x": 2.3456074315,
				"y": 4.0235153135,
				"z": 1.9183118757,
				"element": "C" 
			},
			{
				"x": 1.0374717097,
				"y": 4.4068604213,
				"z": 2.2278857728,
				"element": "C" 
			},
			{
				"x": -0.0054764532,
				"y": 3.4933167155,
				"z": 2.101429678,
				"element": "C" 
			},
			{
				"x": -2.6684986416,
				"y": -0.0282753667,
				"z": 2.2261216981,
				"element": "H" 
			},
			{
				"x": 0.40321558,
				"y": 1.107785508,
				"z": -0.8433243135,
				"element": "H" 
			},
			{
				"x": 0.1281491638,
				"y": -0.5463516994,
				"z": -2.6100255473,
				"element": "H" 
			},
			{
				"x": -0.9000679138,
				"y": -1.6268600679,
				"z": -4.1211793167,
				"element": "H" 
			},
			{
				"x": -1.6001754247,
				"y": -3.2288469256,
				"z": -4.3880990689,
				"element": "H" 
			},
			{
				"x": 1.0685155449,
				"y": -2.8403686564,
				"z": -2.865273975,
				"element": "H" 
			},
			{
				"x": 0.1198138378,
				"y": -4.7940491425,
				"z": -5.0489832542,
				"element": "H" 
			},
			{
				"x": 1.7752092886,
				"y": -4.7498959817,
				"z": -4.2263069177,
				"element": "H" 
			},
			{
				"x": -2.9612979919,
				"y": -2.4843913172,
				"z": -0.2929947992,
				"element": "H" 
			},
			{
				"x": 1.7686499312,
				"y": 0.7955100237,
				"z": 1.01940663,
				"element": "H" 
			},
			{
				"x": 3.6227185194,
				"y": 2.4136899045,
				"z": 1.2650209094,
				"element": "H" 
			},
			{
				"x": 3.1606000245,
				"y": 4.7336460196,
				"z": 2.0253243408,
				"element": "H" 
			},
			{
				"x": 0.8336722043,
				"y": 5.4153246432,
				"z": 2.5758474309,
				"element": "H" 
			},
			{
				"x": -1.0214449315,
				"y": 3.7691970108,
				"z": 2.3636470548,
				"element": "H" 
			}
		],
		 "valence_orbital": [ 
			{
				"type": "occ",
				"energy": -0.26702,
				"method": "rhf"
			},
			{
				"type": "occ",
				"energy": -0.26121,
				"method": "rhf"
			},
			{
				"type": "occ",
				"energy": -0.25232,
				"method": "rhf"
			},
			{
				"type": "occ",
				"energy": -0.23337,
				"method": "rhf"
			},
			{
				"type": "occ",
				"energy": -0.22358,
				"method": "rhf"
			},
			{
				"type": "unocc",
				"energy": -0.06365,
				"method": "rhf"
			},
			{
				"type": "unocc",
				"energy": -0.01467,
				"method": "rhf"
			},
			{
				"type": "unocc",
				"energy": -0.00988,
				"method": "rhf"
			},
			{
				"type": "unocc",
				"energy": -0.00281,
				"method": "rhf"
			},
			{
				"type": "unocc",
				"energy": 0.0074,
				"method": "rhf"
			}
		],
		"cosmo_sigma_profile": { 
			"-0.025": 0.0,
			"-0.024": 0.0,
			"-0.023": 0.0,
			"-0.022": 0.0,
			"-0.021": 0.0,
			"-0.02": 0.0,
			"-0.019": 0.0,
			"-0.018": 0.0,
			"-0.017": 0.0,
			"-0.016": 0.0,
			"-0.015": 0.0,
			"-0.014": 0.0,
			"-0.013": 0.0,
			"-0.012": 0.0,
			"-0.011": 0.0,
			"-0.01": 0.0,
			"-0.009": 0.0573438605353,
			"-0.008": 1.31960566379,
			"-0.007": 5.16769807249,
			"-0.006": 20.5955996604,
			"-0.005": 27.673507933,
			"-0.004": 25.0165694131,
			"-0.003": 22.6756653614,
			"-0.002": 23.1395576392,
			"-0.001": 20.4401484527,
			"0.0": 19.3829922742,
			"0.001": 19.8794018637,
			"0.002": 23.1965166287,
			"0.003": 28.0254972939,
			"0.004": 21.9706713792,
			"0.005": 10.9701194095,
			"0.006": 6.67653444376,
			"0.007": 5.15938027815,
			"0.008": 4.32672696484,
			"0.009": 3.98858464861,
			"0.01": 3.85177597176,
			"0.011": 3.15267830228,
			"0.012": 2.05458861139,
			"0.013": 0.194832022297,
			"0.014": 0.0,
			"0.015": 0.0,
			"0.016": 0.0,
			"0.017": 0.0,
			"0.018": 0.0,
			"0.019": 0.0,
			"0.02": 0.0,
			"0.021": 0.0,
			"0.022": 0.0,
			"0.023": 0.0,
			"0.024": 0.0,
			"0.025": 0.0
		}
	}
}
