{
	 "smiles": "COC1=C(C=C(F)C(Br)=C1)S(Cl)(=O)=O", 
	 "Tm": 353.15, 
	 "num_atms": 19, 
	 "gaussian": { 
		 "optdone": 1, 
		 "sigma_profile": "yes", 
		 "theory": "DFT", 
		 "functional": "B3LYP", 
		 "basiset": "6-31G**", 
		 "properties": { 
			 "R2extent": 5981.9853, 
			 "electric_dipole_moment_norm": 5.22660498316, 
			 "electric_quadrupole_moment_norm": 9.67276770061, 
			 "total_energy": -4024.95304254, 
			 "HOMO_LUMO_gap": 0.16607, 
			 "cosmo_polarized_energy": -11.27, 
			 "cosmo_cavitation_energy": 29.9, 
			 "cosmo_dispersion_energy": -22.28, 
			 "cosmo_repulsion_energy": 1.7, 
			 "cosmo_total_nonelectrostatic_energy": 9.32, 
			 "SMD_solvation_energy": 4.09 
		},
		"coords": [
			{
				"x": -0.8005821532,
				"y": -1.9474512716,
				"z": -1.3550709644,
				"element": "C" 
			},
			{
				"x": -0.5978908552,
				"y": -1.2235430925,
				"z": -0.1437869416,
				"element": "O" 
			},
			{
				"x": 0.4021256348,
				"y": -0.3263509143,
				"z": -0.0732961869,
				"element": "C" 
			},
			{
				"x": 0.5660120002,
				"y": 0.3690287764,
				"z": 1.1444375136,
				"element": "C" 
			},
			{
				"x": 1.591937756,
				"y": 1.2957408758,
				"z": 1.3211569097,
				"element": "C" 
			},
			{
				"x": 2.4631449696,
				"y": 1.5517214013,
				"z": 0.2727709327,
				"element": "C" 
			},
			{
				"x": 3.445174158,
				"y": 2.447808693,
				"z": 0.4390820416,
				"element": "F" 
			},
			{
				"x": 2.3164202191,
				"y": 0.8836615046,
				"z": -0.9422322745,
				"element": "C" 
			},
			{
				"x": 3.5178533099,
				"y": 1.2496921257,
				"z": -2.3588415241,
				"element": "Br" 
			},
			{
				"x": 1.2960393362,
				"y": -0.0509486547,
				"z": -1.1165340928,
				"element": "C" 
			},
			{
				"x": -0.5586280079,
				"y": 0.1395716604,
				"z": 2.5154290638,
				"element": "S" 
			},
			{
				"x": -0.1053891926,
				"y": -1.8514791362,
				"z": 3.1123977481,
				"element": "Cl" 
			},
			{
				"x": -1.9401722932,
				"y": 0.1390956614,
				"z": 2.0593703865,
				"element": "O" 
			},
			{
				"x": -0.1139117411,
				"y": 0.9978731607,
				"z": 3.6074498002,
				"element": "O" 
			},
			{
				"x": 0.0742712431,
				"y": -2.5596591042,
				"z": -1.6025718981,
				"element": "H" 
			},
			{
				"x": -1.65683781,
				"y": -2.594256231,
				"z": -1.1670931908,
				"element": "H" 
			},
			{
				"x": -1.0282355329,
				"y": -1.2710622771,
				"z": -2.1868166518,
				"element": "H" 
			},
			{
				"x": 1.7078813656,
				"y": 1.8155399678,
				"z": 2.2645943948,
				"element": "H" 
			},
			{
				"x": 1.2094875934,
				"y": -0.5588831455,
				"z": -2.067245066,
				"element": "H" 
			}
		],
		 "valence_orbital": [ 
			{
				"type": "occ",
				"energy": -0.32684,
				"method": "rhf"
			},
			{
				"type": "occ",
				"energy": -0.31335,
				"method": "rhf"
			},
			{
				"type": "occ",
				"energy": -0.31248,
				"method": "rhf"
			},
			{
				"type": "occ",
				"energy": -0.2848,
				"method": "rhf"
			},
			{
				"type": "occ",
				"energy": -0.25678,
				"method": "rhf"
			},
			{
				"type": "unocc",
				"energy": -0.09071,
				"method": "rhf"
			},
			{
				"type": "unocc",
				"energy": -0.05765,
				"method": "rhf"
			},
			{
				"type": "unocc",
				"energy": -0.03013,
				"method": "rhf"
			},
			{
				"type": "unocc",
				"energy": -0.0221,
				"method": "rhf"
			},
			{
				"type": "unocc",
				"energy": 0.0453,
				"method": "rhf"
			}
		],
		"cosmo_sigma_profile": { 
			"-0.025": 0.0,
			"-0.024": 0.0,
			"-0.023": 0.0,
			"-0.022": 0.0,
			"-0.021": 0.0,
			"-0.02": 0.0,
			"-0.019": 0.0,
			"-0.018": 0.0,
			"-0.017": 0.0,
			"-0.016": 0.0,
			"-0.015": 0.0,
			"-0.014": 0.0,
			"-0.013": 0.0,
			"-0.012": 0.0,
			"-0.011": 0.0,
			"-0.01": 0.715458688841,
			"-0.009": 3.15974519516,
			"-0.008": 4.59663304926,
			"-0.007": 10.1954371377,
			"-0.006": 12.1979480204,
			"-0.005": 11.9900797125,
			"-0.004": 15.1218164797,
			"-0.003": 14.7776209329,
			"-0.002": 24.7763479774,
			"-0.001": 20.2282078344,
			"0.0": 15.5057490215,
			"0.001": 14.0136636283,
			"0.002": 19.0296402184,
			"0.003": 31.6272482324,
			"0.004": 14.6024251066,
			"0.005": 5.44694999206,
			"0.006": 4.60700681666,
			"0.007": 6.6023115537,
			"0.008": 10.4277543127,
			"0.009": 5.95692130424,
			"0.01": 0.828625865219,
			"0.011": 0.0,
			"0.012": 0.0,
			"0.013": 0.0,
			"0.014": 0.0,
			"0.015": 0.0,
			"0.016": 0.0,
			"0.017": 0.0,
			"0.018": 0.0,
			"0.019": 0.0,
			"0.02": 0.0,
			"0.021": 0.0,
			"0.022": 0.0,
			"0.023": 0.0,
			"0.024": 0.0,
			"0.025": 0.0
		}
	}
}
