{
	 "smiles": "OC(=O)CCC1=CSC2=C1C=CC=C2", 
	 "Tm": 414.15, 
	 "num_atms": 24, 
	 "gaussian": { 
		 "optdone": 1, 
		 "sigma_profile": "yes", 
		 "theory": "DFT", 
		 "functional": "B3LYP", 
		 "basiset": "6-31G**", 
		 "properties": { 
			 "R2extent": 3896.293, 
			 "electric_dipole_moment_norm": 1.67730066774, 
			 "electric_quadrupole_moment_norm": 13.1600725161, 
			 "total_energy": -973.855069712, 
			 "HOMO_LUMO_gap": 0.18904, 
			 "cosmo_polarized_energy": -11.36, 
			 "cosmo_cavitation_energy": 29.89, 
			 "cosmo_dispersion_energy": -21.91, 
			 "cosmo_repulsion_energy": 1.68, 
			 "cosmo_total_nonelectrostatic_energy": 9.67, 
			 "SMD_solvation_energy": 5.72 
		},
		"coords": [
			{
				"x": -0.4989257224,
				"y": 1.0769438668,
				"z": -4.2449692415,
				"element": "O" 
			},
			{
				"x": -0.5771299167,
				"y": 2.0791194167,
				"z": -3.3301104919,
				"element": "C" 
			},
			{
				"x": -0.8923387995,
				"y": 3.2081845905,
				"z": -3.6327096035,
				"element": "O" 
			},
			{
				"x": -0.2323033338,
				"y": 1.5916679747,
				"z": -1.940922179,
				"element": "C" 
			},
			{
				"x": -1.2016288916,
				"y": 0.4939321164,
				"z": -1.4336814772,
				"element": "C" 
			},
			{
				"x": -0.7961088034,
				"y": -0.0560218238,
				"z": -0.0911857381,
				"element": "C" 
			},
			{
				"x": -1.3789048181,
				"y": 0.2861875378,
				"z": 1.0902746811,
				"element": "C" 
			},
			{
				"x": -0.6671352197,
				"y": -0.4881720675,
				"z": 2.4883566213,
				"element": "S" 
			},
			{
				"x": 0.4838029417,
				"y": -1.3303277319,
				"z": 1.4629694493,
				"element": "C" 
			},
			{
				"x": 0.2902607629,
				"y": -0.9985482892,
				"z": 0.0992630741,
				"element": "C" 
			},
			{
				"x": 1.1222607521,
				"y": -1.5990991395,
				"z": -0.8651390683,
				"element": "C" 
			},
			{
				"x": 2.1091262152,
				"y": -2.4900928855,
				"z": -0.464272816,
				"element": "C" 
			},
			{
				"x": 2.2875182333,
				"y": -2.8020271987,
				"z": 0.8953826085,
				"element": "C" 
			},
			{
				"x": 1.4766860599,
				"y": -2.2278560009,
				"z": 1.8685566071,
				"element": "C" 
			},
			{
				"x": -0.7429039338,
				"y": 1.4726286494,
				"z": -5.0986119943,
				"element": "H" 
			},
			{
				"x": 0.7885894525,
				"y": 1.1942887239,
				"z": -1.9606090202,
				"element": "H" 
			},
			{
				"x": -0.2475175807,
				"y": 2.4550579917,
				"z": -1.2734126158,
				"element": "H" 
			},
			{
				"x": -2.2119748996,
				"y": 0.9116678652,
				"z": -1.3708421977,
				"element": "H" 
			},
			{
				"x": -1.2397803398,
				"y": -0.3140649975,
				"z": -2.1723328324,
				"element": "H" 
			},
			{
				"x": -2.2092694816,
				"y": 0.9657608626,
				"z": 1.2334307835,
				"element": "H" 
			},
			{
				"x": 0.9891135265,
				"y": -1.3697403297,
				"z": -1.9187397865,
				"element": "H" 
			},
			{
				"x": 2.750311056,
				"y": -2.9532255861,
				"z": -1.2083649295,
				"element": "H" 
			},
			{
				"x": 3.0647517114,
				"y": -3.5008288202,
				"z": 1.1900648007,
				"element": "H" 
			},
			{
				"x": 1.6112010293,
				"y": -2.4720347252,
				"z": 2.9179053662,
				"element": "H" 
			}
		],
		 "valence_orbital": [ 
			{
				"type": "occ",
				"energy": -0.32049,
				"method": "rhf"
			},
			{
				"type": "occ",
				"energy": -0.28354,
				"method": "rhf"
			},
			{
				"type": "occ",
				"energy": -0.27214,
				"method": "rhf"
			},
			{
				"type": "occ",
				"energy": -0.23793,
				"method": "rhf"
			},
			{
				"type": "occ",
				"energy": -0.21718,
				"method": "rhf"
			},
			{
				"type": "unocc",
				"energy": -0.02814,
				"method": "rhf"
			},
			{
				"type": "unocc",
				"energy": -0.0051,
				"method": "rhf"
			},
			{
				"type": "unocc",
				"energy": 0.00469,
				"method": "rhf"
			},
			{
				"type": "unocc",
				"energy": 0.02185,
				"method": "rhf"
			},
			{
				"type": "unocc",
				"energy": 0.04446,
				"method": "rhf"
			}
		],
		"cosmo_sigma_profile": { 
			"-0.025": 0.0,
			"-0.024": 0.0,
			"-0.023": 0.0,
			"-0.022": 0.0,
			"-0.021": 0.0,
			"-0.02": 0.0,
			"-0.019": 0.0100005992834,
			"-0.018": 0.568749522288,
			"-0.017": 0.868702945708,
			"-0.016": 0.579610130071,
			"-0.015": 1.19675289744,
			"-0.014": 1.13571761869,
			"-0.013": 0.0834505639144,
			"-0.012": 0.422025535487,
			"-0.011": 0.764233816602,
			"-0.01": 1.06591853912,
			"-0.009": 1.17350653478,
			"-0.008": 2.2025622711,
			"-0.007": 4.19208765889,
			"-0.006": 10.5429241864,
			"-0.005": 21.578018359,
			"-0.004": 21.4496514678,
			"-0.003": 18.0119490662,
			"-0.002": 16.2474024155,
			"-0.001": 15.4231268801,
			"0.0": 11.9159141921,
			"0.001": 11.8283919962,
			"0.002": 15.6461642847,
			"0.003": 19.0117051711,
			"0.004": 21.3990047328,
			"0.005": 16.8284935996,
			"0.006": 7.07976714801,
			"0.007": 1.93426715558,
			"0.008": 2.99461722755,
			"0.009": 2.27776614184,
			"0.01": 2.10836172733,
			"0.011": 3.89787523934,
			"0.012": 4.61175935918,
			"0.013": 1.21966835353,
			"0.014": 0.0113588097456,
			"0.015": 0.0,
			"0.016": 0.0,
			"0.017": 0.0,
			"0.018": 0.0,
			"0.019": 0.0,
			"0.02": 0.0,
			"0.021": 0.0,
			"0.022": 0.0,
			"0.023": 0.0,
			"0.024": 0.0,
			"0.025": 0.0
		}
	}
}
