{
	 "smiles": "CC1=NC2=C(C=CC=C2)N1CCO", 
	 "Tm": 421.15, 
	 "num_atms": 25, 
	 "gaussian": { 
		 "optdone": 1, 
		 "sigma_profile": "yes", 
		 "theory": "DFT", 
		 "functional": "B3LYP", 
		 "basiset": "6-31G**", 
		 "properties": { 
			 "R2extent": 2552.2933, 
			 "electric_dipole_moment_norm": 2.90027385776, 
			 "electric_quadrupole_moment_norm": 8.34069919431, 
			 "total_energy": -573.034156993, 
			 "HOMO_LUMO_gap": 0.20602, 
			 "cosmo_polarized_energy": -13.91, 
			 "cosmo_cavitation_energy": 27.71, 
			 "cosmo_dispersion_energy": -20.09, 
			 "cosmo_repulsion_energy": 1.58, 
			 "cosmo_total_nonelectrostatic_energy": 9.2, 
			 "SMD_solvation_energy": 2.56 
		},
		"coords": [
			{
				"x": 1.7961650971,
				"y": -2.213046246,
				"z": -0.1004620461,
				"element": "C" 
			},
			{
				"x": 0.4967071048,
				"y": -1.5550729186,
				"z": -0.4386294575,
				"element": "C" 
			},
			{
				"x": -0.5225838786,
				"y": -2.1650753801,
				"z": -0.9978386556,
				"element": "N" 
			},
			{
				"x": -1.4975725825,
				"y": -1.1897623927,
				"z": -1.1481165615,
				"element": "C" 
			},
			{
				"x": -1.0309300081,
				"y": 0.0504254349,
				"z": -0.6519836392,
				"element": "C" 
			},
			{
				"x": -1.8098535919,
				"y": 1.2096263079,
				"z": -0.6794404068,
				"element": "C" 
			},
			{
				"x": -3.0870930949,
				"y": 1.0958018722,
				"z": -1.2265553974,
				"element": "C" 
			},
			{
				"x": -3.5672847118,
				"y": -0.1313106239,
				"z": -1.7244095444,
				"element": "C" 
			},
			{
				"x": -2.7842545058,
				"y": -1.281932898,
				"z": -1.6922550841,
				"element": "C" 
			},
			{
				"x": 0.2594730167,
				"y": -0.2046284457,
				"z": -0.2019979544,
				"element": "N" 
			},
			{
				"x": 1.1385106826,
				"y": 0.7462438753,
				"z": 0.462728347,
				"element": "C" 
			},
			{
				"x": 0.8248784116,
				"y": 0.8909530802,
				"z": 1.9581301356,
				"element": "C" 
			},
			{
				"x": 0.9765182148,
				"y": -0.3306164836,
				"z": 2.6620126066,
				"element": "O" 
			},
			{
				"x": 1.6981775383,
				"y": -3.2815977241,
				"z": -0.2938598476,
				"element": "H" 
			},
			{
				"x": 2.065208401,
				"y": -2.0542279775,
				"z": 0.9482847291,
				"element": "H" 
			},
			{
				"x": 2.6162960862,
				"y": -1.8252396264,
				"z": -0.7173707133,
				"element": "H" 
			},
			{
				"x": -1.4477308653,
				"y": 2.1597798646,
				"z": -0.2978533138,
				"element": "H" 
			},
			{
				"x": -3.7255655887,
				"y": 1.973355557,
				"z": -1.2686364338,
				"element": "H" 
			},
			{
				"x": -4.5690113602,
				"y": -0.1761298956,
				"z": -2.1415451599,
				"element": "H" 
			},
			{
				"x": -3.1471307869,
				"y": -2.2300206388,
				"z": -2.076146895,
				"element": "H" 
			},
			{
				"x": 2.1694028737,
				"y": 0.4062148028,
				"z": 0.3384363817,
				"element": "H" 
			},
			{
				"x": 1.0484345005,
				"y": 1.7182371914,
				"z": -0.0362908344,
				"element": "H" 
			},
			{
				"x": -0.1848941771,
				"y": 1.3065285798,
				"z": 2.0879528528,
				"element": "H" 
			},
			{
				"x": 1.5346681454,
				"y": 1.5975101877,
				"z": 2.4011332187,
				"element": "H" 
			},
			{
				"x": 0.2345650791,
				"y": -0.9017155026,
				"z": 2.4228136731,
				"element": "H" 
			}
		],
		 "valence_orbital": [ 
			{
				"type": "occ",
				"energy": -0.29982,
				"method": "rhf"
			},
			{
				"type": "occ",
				"energy": -0.28195,
				"method": "rhf"
			},
			{
				"type": "occ",
				"energy": -0.26406,
				"method": "rhf"
			},
			{
				"type": "occ",
				"energy": -0.22183,
				"method": "rhf"
			},
			{
				"type": "occ",
				"energy": -0.21826,
				"method": "rhf"
			},
			{
				"type": "unocc",
				"energy": -0.01224,
				"method": "rhf"
			},
			{
				"type": "unocc",
				"energy": 0.0222,
				"method": "rhf"
			},
			{
				"type": "unocc",
				"energy": 0.05484,
				"method": "rhf"
			},
			{
				"type": "unocc",
				"energy": 0.06558,
				"method": "rhf"
			},
			{
				"type": "unocc",
				"energy": 0.08879,
				"method": "rhf"
			}
		],
		"cosmo_sigma_profile": { 
			"-0.025": 0.0,
			"-0.024": 0.0,
			"-0.023": 0.0,
			"-0.022": 0.0,
			"-0.021": 0.0,
			"-0.02": 0.0,
			"-0.019": 0.0,
			"-0.018": 0.0,
			"-0.017": 0.0,
			"-0.016": 0.0,
			"-0.015": 0.411205473492,
			"-0.014": 0.729655603833,
			"-0.013": 0.597141398163,
			"-0.012": 1.1602397204,
			"-0.011": 0.677574796719,
			"-0.01": 1.79079918266,
			"-0.009": 1.23176390546,
			"-0.008": 0.678314298344,
			"-0.007": 4.90799908132,
			"-0.006": 14.2320297253,
			"-0.005": 21.8253610552,
			"-0.004": 21.4245437985,
			"-0.003": 20.9353839538,
			"-0.002": 16.8910209766,
			"-0.001": 14.9273219094,
			"0.0": 10.9430344774,
			"0.001": 8.52431303643,
			"0.002": 8.91941322717,
			"0.003": 8.86605689529,
			"0.004": 10.4001332014,
			"0.005": 12.1708005016,
			"0.006": 11.3637052183,
			"0.007": 5.2553331022,
			"0.008": 2.97189328936,
			"0.009": 2.25003602167,
			"0.01": 1.93782210742,
			"0.011": 2.3677379685,
			"0.012": 2.37461199173,
			"0.013": 2.72700845281,
			"0.014": 2.41853647827,
			"0.015": 0.63344997052,
			"0.016": 1.22887501394,
			"0.017": 0.897432369964,
			"0.018": 0.648802620711,
			"0.019": 0.0,
			"0.02": 0.0,
			"0.021": 0.0,
			"0.022": 0.0,
			"0.023": 0.0,
			"0.024": 0.0,
			"0.025": 0.0
		}
	}
}
