{
	 "smiles": "FC(F)(F)C1=CC(=C(Cl)C=C1)C(F)(F)F", 
	 "Tm": 214.15, 
	 "num_atms": 18, 
	 "gaussian": { 
		 "optdone": 1, 
		 "sigma_profile": "yes", 
		 "theory": "DFT", 
		 "functional": "B3LYP", 
		 "basiset": "6-31G**", 
		 "properties": { 
			 "R2extent": 4324.7414, 
			 "electric_dipole_moment_norm": 1.96817209359, 
			 "electric_quadrupole_moment_norm": 6.09000375451, 
			 "total_energy": -1365.90179959, 
			 "HOMO_LUMO_gap": 0.21862, 
			 "cosmo_polarized_energy": -4.42, 
			 "cosmo_cavitation_energy": 27.2, 
			 "cosmo_dispersion_energy": -19.05, 
			 "cosmo_repulsion_energy": 1.37, 
			 "cosmo_total_nonelectrostatic_energy": 9.52, 
			 "SMD_solvation_energy": 6.7 
		},
		"coords": [
			{
				"x": -1.0740829388,
				"y": -2.8776910677,
				"z": -1.6115118828,
				"element": "F" 
			},
			{
				"x": -1.7739989287,
				"y": -2.1097386442,
				"z": -0.7467744325,
				"element": "C" 
			},
			{
				"x": -2.2904163083,
				"y": -2.9345985413,
				"z": 0.1879698938,
				"element": "F" 
			},
			{
				"x": -2.8027581223,
				"y": -1.5739058588,
				"z": -1.4383127013,
				"element": "F" 
			},
			{
				"x": -0.9063997282,
				"y": -1.0427593074,
				"z": -0.1322472765,
				"element": "C" 
			},
			{
				"x": -0.2274981523,
				"y": -1.2985940477,
				"z": 1.0578623834,
				"element": "C" 
			},
			{
				"x": 0.6224512883,
				"y": -0.3419562775,
				"z": 1.616405774,
				"element": "C" 
			},
			{
				"x": 0.7823178201,
				"y": 0.8865422678,
				"z": 0.9552652781,
				"element": "C" 
			},
			{
				"x": 1.8256892811,
				"y": 2.1395978518,
				"z": 1.5866452484,
				"element": "Cl" 
			},
			{
				"x": 0.102349665,
				"y": 1.1459949383,
				"z": -0.2354435357,
				"element": "C" 
			},
			{
				"x": -0.7412728732,
				"y": 0.1822696452,
				"z": -0.7796149381,
				"element": "C" 
			},
			{
				"x": 1.3354994302,
				"y": -0.6596248219,
				"z": 2.913379385,
				"element": "C" 
			},
			{
				"x": 2.6744769604,
				"y": -0.6165199169,
				"z": 2.7696387885,
				"element": "F" 
			},
			{
				"x": 1.020826837,
				"y": -1.8979863496,
				"z": 3.3518668218,
				"element": "F" 
			},
			{
				"x": 1.001884856,
				"y": 0.2055318676,
				"z": 3.891020903,
				"element": "F" 
			},
			{
				"x": -0.3622605044,
				"y": -2.2449296308,
				"z": 1.5655588905,
				"element": "H" 
			},
			{
				"x": 0.2366965397,
				"y": 2.1030251799,
				"z": -0.7260636539,
				"element": "H" 
			},
			{
				"x": -1.2755051215,
				"y": 0.3876427133,
				"z": -1.7007449456,
				"element": "H" 
			}
		],
		 "valence_orbital": [ 
			{
				"type": "occ",
				"energy": -0.37934,
				"method": "rhf"
			},
			{
				"type": "occ",
				"energy": -0.35893,
				"method": "rhf"
			},
			{
				"type": "occ",
				"energy": -0.33154,
				"method": "rhf"
			},
			{
				"type": "occ",
				"energy": -0.2976,
				"method": "rhf"
			},
			{
				"type": "occ",
				"energy": -0.27787,
				"method": "rhf"
			},
			{
				"type": "unocc",
				"energy": -0.05925,
				"method": "rhf"
			},
			{
				"type": "unocc",
				"energy": -0.048,
				"method": "rhf"
			},
			{
				"type": "unocc",
				"energy": 0.00964,
				"method": "rhf"
			},
			{
				"type": "unocc",
				"energy": 0.08332,
				"method": "rhf"
			},
			{
				"type": "unocc",
				"energy": 0.10085,
				"method": "rhf"
			}
		],
		"cosmo_sigma_profile": { 
			"-0.025": 0.0,
			"-0.024": 0.0,
			"-0.023": 0.0,
			"-0.022": 0.0,
			"-0.021": 0.0,
			"-0.02": 0.0,
			"-0.019": 0.0,
			"-0.018": 0.0,
			"-0.017": 0.0,
			"-0.016": 0.0,
			"-0.015": 0.0,
			"-0.014": 0.0,
			"-0.013": 0.0,
			"-0.012": 0.0,
			"-0.011": 0.0,
			"-0.01": 0.0,
			"-0.009": 1.71271966738,
			"-0.008": 4.44962053384,
			"-0.007": 5.61593059633,
			"-0.006": 4.67460333615,
			"-0.005": 6.18749508596,
			"-0.004": 8.78575664909,
			"-0.003": 9.83775556307,
			"-0.002": 12.8132495541,
			"-0.001": 26.6046575535,
			"0.0": 24.3666995617,
			"0.001": 20.9291254403,
			"0.002": 49.2713992657,
			"0.003": 41.0864386738,
			"0.004": 5.43549303914,
			"0.005": 0.0,
			"0.006": 0.0,
			"0.007": 0.0,
			"0.008": 0.0,
			"0.009": 0.0,
			"0.01": 0.0,
			"0.011": 0.0,
			"0.012": 0.0,
			"0.013": 0.0,
			"0.014": 0.0,
			"0.015": 0.0,
			"0.016": 0.0,
			"0.017": 0.0,
			"0.018": 0.0,
			"0.019": 0.0,
			"0.02": 0.0,
			"0.021": 0.0,
			"0.022": 0.0,
			"0.023": 0.0,
			"0.024": 0.0,
			"0.025": 0.0
		}
	}
}
