{
	 "smiles": "CCCCCSC1=NC=CC=C1C(O)=O", 
	 "Tm": 392.15, 
	 "num_atms": 30, 
	 "gaussian": { 
		 "optdone": 1, 
		 "sigma_profile": "yes", 
		 "theory": "DFT", 
		 "functional": "B3LYP", 
		 "basiset": "6-31G**", 
		 "properties": { 
			 "R2extent": 5132.4246, 
			 "electric_dipole_moment_norm": 2.42518344255, 
			 "electric_quadrupole_moment_norm": 9.92269997581, 
			 "total_energy": -1031.62430478, 
			 "HOMO_LUMO_gap": 0.16093, 
			 "cosmo_polarized_energy": -11.71, 
			 "cosmo_cavitation_energy": 34.54, 
			 "cosmo_dispersion_energy": -25.31, 
			 "cosmo_repulsion_energy": 1.99, 
			 "cosmo_total_nonelectrostatic_energy": 11.22, 
			 "SMD_solvation_energy": 5.83 
		},
		"coords": [
			{
				"x": 4.5689810736,
				"y": -0.7019870628,
				"z": 0.7420839465,
				"element": "C" 
			},
			{
				"x": 3.2506322207,
				"y": -0.6616505756,
				"z": 1.5221249903,
				"element": "C" 
			},
			{
				"x": 2.265814862,
				"y": -1.7526807218,
				"z": 1.0805640211,
				"element": "C" 
			},
			{
				"x": 0.9633101444,
				"y": -1.8113293373,
				"z": 1.8976777912,
				"element": "C" 
			},
			{
				"x": 0.0732571956,
				"y": -0.5615828992,
				"z": 1.8444309777,
				"element": "C" 
			},
			{
				"x": -0.5625318178,
				"y": -0.3256341997,
				"z": 0.1308220235,
				"element": "S" 
			},
			{
				"x": -1.5632098361,
				"y": 1.1233351932,
				"z": 0.3500695095,
				"element": "C" 
			},
			{
				"x": -1.6045891587,
				"y": 1.654210968,
				"z": 1.5806562117,
				"element": "N" 
			},
			{
				"x": -2.3434611773,
				"y": 2.7451630665,
				"z": 1.7958473486,
				"element": "C" 
			},
			{
				"x": -3.0910051833,
				"y": 3.3836026532,
				"z": 0.8080912633,
				"element": "C" 
			},
			{
				"x": -3.0557714387,
				"y": 2.8421560441,
				"z": -0.471598544,
				"element": "C" 
			},
			{
				"x": -2.2905501759,
				"y": 1.6990272291,
				"z": -0.7311890434,
				"element": "C" 
			},
			{
				"x": -2.2506954346,
				"y": 1.1219089098,
				"z": -2.0917315412,
				"element": "C" 
			},
			{
				"x": -3.0101652733,
				"y": 1.810258945,
				"z": -2.9848989121,
				"element": "O" 
			},
			{
				"x": -1.6180340023,
				"y": 0.1365305197,
				"z": -2.4206406178,
				"element": "O" 
			},
			{
				"x": 5.0780645116,
				"y": -1.6638680544,
				"z": 0.8730636527,
				"element": "H" 
			},
			{
				"x": 5.254638438,
				"y": 0.0851247803,
				"z": 1.0726976644,
				"element": "H" 
			},
			{
				"x": 4.3967018855,
				"y": -0.5637723553,
				"z": -0.3312951764,
				"element": "H" 
			},
			{
				"x": 2.7916122091,
				"y": 0.3271623783,
				"z": 1.3981992758,
				"element": "H" 
			},
			{
				"x": 3.4560608005,
				"y": -0.7719456402,
				"z": 2.5962682337,
				"element": "H" 
			},
			{
				"x": 2.0317412556,
				"y": -1.6188416123,
				"z": 0.0164735865,
				"element": "H" 
			},
			{
				"x": 2.7607175436,
				"y": -2.730013346,
				"z": 1.1604039752,
				"element": "H" 
			},
			{
				"x": 1.212716505,
				"y": -1.9786748731,
				"z": 2.9545077079,
				"element": "H" 
			},
			{
				"x": 0.3776211318,
				"y": -2.6836746754,
				"z": 1.5820095254,
				"element": "H" 
			},
			{
				"x": -0.7816029869,
				"y": -0.667541736,
				"z": 2.5152588531,
				"element": "H" 
			},
			{
				"x": 0.6116190038,
				"y": 0.3381903359,
				"z": 2.1476767773,
				"element": "H" 
			},
			{
				"x": -2.3343941435,
				"y": 3.1263237745,
				"z": 2.8159801888,
				"element": "H" 
			},
			{
				"x": -3.6757573605,
				"y": 4.2682171395,
				"z": 1.0349260552,
				"element": "H" 
			},
			{
				"x": -3.6152947989,
				"y": 3.2918958165,
				"z": -1.2836542544,
				"element": "H" 
			},
			{
				"x": -2.9046259929,
				"y": 1.3422893354,
				"z": -3.8291254902,
				"element": "H" 
			}
		],
		 "valence_orbital": [ 
			{
				"type": "occ",
				"energy": -0.30164,
				"method": "rhf"
			},
			{
				"type": "occ",
				"energy": -0.28788,
				"method": "rhf"
			},
			{
				"type": "occ",
				"energy": -0.27111,
				"method": "rhf"
			},
			{
				"type": "occ",
				"energy": -0.26363,
				"method": "rhf"
			},
			{
				"type": "occ",
				"energy": -0.2198,
				"method": "rhf"
			},
			{
				"type": "unocc",
				"energy": -0.05887,
				"method": "rhf"
			},
			{
				"type": "unocc",
				"energy": -0.02487,
				"method": "rhf"
			},
			{
				"type": "unocc",
				"energy": 0.0464,
				"method": "rhf"
			},
			{
				"type": "unocc",
				"energy": 0.0511,
				"method": "rhf"
			},
			{
				"type": "unocc",
				"energy": 0.07672,
				"method": "rhf"
			}
		],
		"cosmo_sigma_profile": { 
			"-0.025": 0.0,
			"-0.024": 0.0,
			"-0.023": 0.0,
			"-0.022": 0.0,
			"-0.021": 0.0,
			"-0.02": 0.0,
			"-0.019": 0.153250070549,
			"-0.018": 0.771850182116,
			"-0.017": 0.912546954487,
			"-0.016": 0.667109602911,
			"-0.015": 0.853374864931,
			"-0.014": 0.648104496867,
			"-0.013": 0.451742303287,
			"-0.012": 1.02862085159,
			"-0.011": 1.25512589854,
			"-0.01": 0.352000391531,
			"-0.009": 0.350754594396,
			"-0.008": 1.41339291505,
			"-0.007": 6.90695929469,
			"-0.006": 7.99151467805,
			"-0.005": 6.53271119223,
			"-0.004": 8.23343197365,
			"-0.003": 19.9019797693,
			"-0.002": 31.3187533229,
			"-0.001": 38.151457947,
			"0.0": 38.4051171633,
			"0.001": 34.6141034616,
			"0.002": 19.7788453616,
			"0.003": 7.40757773077,
			"0.004": 5.95034879387,
			"0.005": 6.85101664167,
			"0.006": 6.08876278836,
			"0.007": 5.29984494252,
			"0.008": 4.58651037185,
			"0.009": 4.57253408407,
			"0.01": 2.93038965998,
			"0.011": 5.10099631834,
			"0.012": 3.89696309287,
			"0.013": 0.0,
			"0.014": 0.0,
			"0.015": 0.0,
			"0.016": 0.0,
			"0.017": 0.0,
			"0.018": 0.0,
			"0.019": 0.0,
			"0.02": 0.0,
			"0.021": 0.0,
			"0.022": 0.0,
			"0.023": 0.0,
			"0.024": 0.0,
			"0.025": 0.0
		}
	}
}
