{
	 "smiles": "CC1=C(C=C(C=C1)S(=O)(=O)N1CCCC1)C(O)=O", 
	 "Tm": 452.15, 
	 "num_atms": 33, 
	 "gaussian": { 
		 "optdone": 1, 
		 "sigma_profile": "yes", 
		 "theory": "DFT", 
		 "functional": "B3LYP", 
		 "basiset": "6-31G**", 
		 "properties": { 
			 "R2extent": 5818.7426, 
			 "electric_dipole_moment_norm": 5.05712857361, 
			 "electric_quadrupole_moment_norm": 24.1960936541, 
			 "total_energy": -1220.10539398, 
			 "HOMO_LUMO_gap": 0.18333, 
			 "cosmo_polarized_energy": -17.98, 
			 "cosmo_cavitation_energy": 36.68, 
			 "cosmo_dispersion_energy": -26.45, 
			 "cosmo_repulsion_energy": 2.01, 
			 "cosmo_total_nonelectrostatic_energy": 12.25, 
			 "SMD_solvation_energy": 5.21 
		},
		"coords": [
			{
				"x": 1.0449654439,
				"y": -3.4046336886,
				"z": 0.5087302639,
				"element": "C" 
			},
			{
				"x": 0.7661698887,
				"y": -1.9995006282,
				"z": 0.03617708,
				"element": "C" 
			},
			{
				"x": 0.2888305007,
				"y": -0.9663877923,
				"z": 0.8819964267,
				"element": "C" 
			},
			{
				"x": 0.0561705567,
				"y": 0.3184713728,
				"z": 0.3675806035,
				"element": "C" 
			},
			{
				"x": 0.2862740519,
				"y": 0.5885648149,
				"z": -0.9785706388,
				"element": "C" 
			},
			{
				"x": 0.7680168608,
				"y": -0.411429085,
				"z": -1.8262339014,
				"element": "C" 
			},
			{
				"x": 0.9983497386,
				"y": -1.6838879891,
				"z": -1.3106806042,
				"element": "C" 
			},
			{
				"x": -0.068774991,
				"y": 2.226352793,
				"z": -1.6345990557,
				"element": "S" 
			},
			{
				"x": 0.0708750234,
				"y": 3.1749712762,
				"z": -0.5281398736,
				"element": "O" 
			},
			{
				"x": 0.6822538166,
				"y": 2.3519147146,
				"z": -2.8855456779,
				"element": "O" 
			},
			{
				"x": -1.6788022505,
				"y": 2.2263262469,
				"z": -2.0515917486,
				"element": "N" 
			},
			{
				"x": -2.1441904874,
				"y": 1.4855411634,
				"z": -3.2486897603,
				"element": "C" 
			},
			{
				"x": -3.6353243041,
				"y": 1.2187819636,
				"z": -2.9527232269,
				"element": "C" 
			},
			{
				"x": -4.0017039509,
				"y": 2.2456870792,
				"z": -1.8655974918,
				"element": "C" 
			},
			{
				"x": -2.7271531859,
				"y": 2.3199679605,
				"z": -1.0187337708,
				"element": "C" 
			},
			{
				"x": 0.0347201984,
				"y": -1.2150825112,
				"z": 2.3291968394,
				"element": "C" 
			},
			{
				"x": -0.4418403965,
				"y": -0.1196416088,
				"z": 2.9737947948,
				"element": "O" 
			},
			{
				"x": 0.2141787722,
				"y": -2.2649918589,
				"z": 2.9164253581,
				"element": "O" 
			},
			{
				"x": 1.7994320297,
				"y": -3.4174916145,
				"z": 1.2996326078,
				"element": "H" 
			},
			{
				"x": 1.3938792266,
				"y": -4.0193935348,
				"z": -0.325050017,
				"element": "H" 
			},
			{
				"x": 0.1538635574,
				"y": -3.8660407721,
				"z": 0.9423366965,
				"element": "H" 
			},
			{
				"x": -0.2761650383,
				"y": 1.1102838987,
				"z": 1.0267396081,
				"element": "H" 
			},
			{
				"x": 0.9838400967,
				"y": -0.1799263548,
				"z": -2.8636748251,
				"element": "H" 
			},
			{
				"x": 1.3797825894,
				"y": -2.45959741,
				"z": -1.9684137493,
				"element": "H" 
			},
			{
				"x": -1.9934034814,
				"y": 2.1053457356,
				"z": -4.1370417038,
				"element": "H" 
			},
			{
				"x": -1.588957457,
				"y": 0.5515369156,
				"z": -3.3938269054,
				"element": "H" 
			},
			{
				"x": -4.2532550849,
				"y": 1.3050970879,
				"z": -3.8501852579,
				"element": "H" 
			},
			{
				"x": -3.7611961003,
				"y": 0.2036316866,
				"z": -2.5607220749,
				"element": "H" 
			},
			{
				"x": -4.8753781725,
				"y": 1.9532563975,
				"z": -1.2770183559,
				"element": "H" 
			},
			{
				"x": -4.2030361032,
				"y": 3.2243118355,
				"z": -2.3137737064,
				"element": "H" 
			},
			{
				"x": -2.6182059676,
				"y": 3.2504288402,
				"z": -0.4598104619,
				"element": "H" 
			},
			{
				"x": -2.6815189603,
				"y": 1.4776795735,
				"z": -0.3102406209,
				"element": "H" 
			},
			{
				"x": -0.5570964198,
				"y": -0.3905465081,
				"z": 3.8991531497,
				"element": "H" 
			}
		],
		 "valence_orbital": [ 
			{
				"type": "occ",
				"energy": -0.29727,
				"method": "rhf"
			},
			{
				"type": "occ",
				"energy": -0.28337,
				"method": "rhf"
			},
			{
				"type": "occ",
				"energy": -0.27792,
				"method": "rhf"
			},
			{
				"type": "occ",
				"energy": -0.27337,
				"method": "rhf"
			},
			{
				"type": "occ",
				"energy": -0.24721,
				"method": "rhf"
			},
			{
				"type": "unocc",
				"energy": -0.06388,
				"method": "rhf"
			},
			{
				"type": "unocc",
				"energy": -0.03578,
				"method": "rhf"
			},
			{
				"type": "unocc",
				"energy": 0.03491,
				"method": "rhf"
			},
			{
				"type": "unocc",
				"energy": 0.061,
				"method": "rhf"
			},
			{
				"type": "unocc",
				"energy": 0.07398,
				"method": "rhf"
			}
		],
		"cosmo_sigma_profile": { 
			"-0.025": 0.0,
			"-0.024": 0.0,
			"-0.023": 0.0,
			"-0.022": 0.0,
			"-0.021": 0.0,
			"-0.02": 0.0,
			"-0.019": 0.156641871842,
			"-0.018": 0.59717185726,
			"-0.017": 1.23381299416,
			"-0.016": 0.509452770684,
			"-0.015": 0.674522403159,
			"-0.014": 0.914616465303,
			"-0.013": 0.576956081855,
			"-0.012": 0.421679829433,
			"-0.011": 1.09146814638,
			"-0.01": 0.743850861912,
			"-0.009": 0.219415362527,
			"-0.008": 0.980014197552,
			"-0.007": 5.29341185654,
			"-0.006": 6.29835769825,
			"-0.005": 13.5072399172,
			"-0.004": 32.384202698,
			"-0.003": 37.3685638306,
			"-0.002": 33.3045014063,
			"-0.001": 27.9752431049,
			"0.0": 24.066358467,
			"0.001": 18.421972762,
			"0.002": 12.6165741748,
			"0.003": 6.93760749375,
			"0.004": 5.80386167949,
			"0.005": 7.12113041813,
			"0.006": 8.17609303764,
			"0.007": 6.26619060318,
			"0.008": 4.40456487053,
			"0.009": 5.51745684126,
			"0.01": 8.31149140369,
			"0.011": 11.2628986769,
			"0.012": 6.57761895351,
			"0.013": 0.0156219481023,
			"0.014": 0.0,
			"0.015": 0.0,
			"0.016": 0.0,
			"0.017": 0.0,
			"0.018": 0.0,
			"0.019": 0.0,
			"0.02": 0.0,
			"0.021": 0.0,
			"0.022": 0.0,
			"0.023": 0.0,
			"0.024": 0.0,
			"0.025": 0.0
		}
	}
}
