{
	 "smiles": "CSC(SC)=C(C#N)C(=O)C1=CC=C(Cl)C=C1", 
	 "Tm": 356.15, 
	 "num_atms": 27, 
	 "gaussian": { 
		 "optdone": 1, 
		 "sigma_profile": "yes", 
		 "theory": "DFT", 
		 "functional": "B3LYP", 
		 "basiset": "6-31G**", 
		 "properties": { 
			 "R2extent": 7116.803, 
			 "electric_dipole_moment_norm": 3.24545578617, 
			 "electric_quadrupole_moment_norm": 11.0753755476, 
			 "total_energy": -1849.8009515, 
			 "HOMO_LUMO_gap": 0.1542, 
			 "cosmo_polarized_energy": -12.49, 
			 "cosmo_cavitation_energy": 37.67, 
			 "cosmo_dispersion_energy": -26.24, 
			 "cosmo_repulsion_energy": 1.98, 
			 "cosmo_total_nonelectrostatic_energy": 13.41, 
			 "SMD_solvation_energy": 7.93 
		},
		"coords": [
			{
				"x": -1.009833259,
				"y": 3.8598998123,
				"z": -2.2135783036,
				"element": "C" 
			},
			{
				"x": -1.5442236343,
				"y": 2.1637270267,
				"z": -1.7751969413,
				"element": "S" 
			},
			{
				"x": -0.1075747666,
				"y": 1.179232693,
				"z": -2.1271828493,
				"element": "C" 
			},
			{
				"x": 0.3736796718,
				"y": 1.2048789654,
				"z": -3.8238372805,
				"element": "S" 
			},
			{
				"x": 2.1864045087,
				"y": 0.9302105709,
				"z": -3.8288215326,
				"element": "C" 
			},
			{
				"x": 0.4000479063,
				"y": 0.3744296425,
				"z": -1.1420060174,
				"element": "C" 
			},
			{
				"x": 1.246620742,
				"y": -0.7319388996,
				"z": -1.4400785425,
				"element": "C" 
			},
			{
				"x": 1.9254539551,
				"y": -1.6545335866,
				"z": -1.6602135169,
				"element": "N" 
			},
			{
				"x": 0.1755565626,
				"y": 0.6620139485,
				"z": 0.3419609089,
				"element": "C" 
			},
			{
				"x": 0.4836985001,
				"y": 1.75388163,
				"z": 0.7902509724,
				"element": "O" 
			},
			{
				"x": -0.3682372293,
				"y": -0.4197586927,
				"z": 1.2095781635,
				"element": "C" 
			},
			{
				"x": -0.3272488383,
				"y": -0.2318077513,
				"z": 2.6010957879,
				"element": "C" 
			},
			{
				"x": -0.8429143148,
				"y": -1.1913036098,
				"z": 3.4628693402,
				"element": "C" 
			},
			{
				"x": -1.4144610909,
				"y": -2.3480660267,
				"z": 2.9241592588,
				"element": "C" 
			},
			{
				"x": -2.0695363612,
				"y": -3.5628737892,
				"z": 4.0039461758,
				"element": "Cl" 
			},
			{
				"x": -1.4763583905,
				"y": -2.5541947468,
				"z": 1.545703752,
				"element": "C" 
			},
			{
				"x": -0.9501621924,
				"y": -1.5866910965,
				"z": 0.6928475913,
				"element": "C" 
			},
			{
				"x": -0.6133292785,
				"y": 3.8939112474,
				"z": -3.2282828807,
				"element": "H" 
			},
			{
				"x": -1.9076628361,
				"y": 4.4784806802,
				"z": -2.1509454765,
				"element": "H" 
			},
			{
				"x": -0.27007646,
				"y": 4.2106962971,
				"z": -1.4924485118,
				"element": "H" 
			},
			{
				"x": 2.5225915779,
				"y": 1.2962430496,
				"z": -4.8014810954,
				"element": "H" 
			},
			{
				"x": 2.4426748779,
				"y": -0.1220950329,
				"z": -3.715677622,
				"element": "H" 
			},
			{
				"x": 2.654938606,
				"y": 1.5201858369,
				"z": -3.0391441144,
				"element": "H" 
			},
			{
				"x": 0.1157519043,
				"y": 0.67988994,
				"z": 2.9872311646,
				"element": "H" 
			},
			{
				"x": -0.8080967141,
				"y": -1.053304823,
				"z": 4.5376986406,
				"element": "H" 
			},
			{
				"x": -1.9290081924,
				"y": -3.4561542224,
				"z": 1.1500585544,
				"element": "H" 
			},
			{
				"x": -1.0042952544,
				"y": -1.7444590631,
				"z": -0.3789056259,
				"element": "H" 
			}
		],
		 "valence_orbital": [ 
			{
				"type": "occ",
				"energy": -0.27702,
				"method": "rhf"
			},
			{
				"type": "occ",
				"energy": -0.27463,
				"method": "rhf"
			},
			{
				"type": "occ",
				"energy": -0.25991,
				"method": "rhf"
			},
			{
				"type": "occ",
				"energy": -0.2567,
				"method": "rhf"
			},
			{
				"type": "occ",
				"energy": -0.24154,
				"method": "rhf"
			},
			{
				"type": "unocc",
				"energy": -0.08734,
				"method": "rhf"
			},
			{
				"type": "unocc",
				"energy": -0.06494,
				"method": "rhf"
			},
			{
				"type": "unocc",
				"energy": -0.02626,
				"method": "rhf"
			},
			{
				"type": "unocc",
				"energy": 0.00253,
				"method": "rhf"
			},
			{
				"type": "unocc",
				"energy": 0.01856,
				"method": "rhf"
			}
		],
		"cosmo_sigma_profile": { 
			"-0.025": 0.0,
			"-0.024": 0.0,
			"-0.023": 0.0,
			"-0.022": 0.0,
			"-0.021": 0.0,
			"-0.02": 0.0,
			"-0.019": 0.0,
			"-0.018": 0.0,
			"-0.017": 0.0,
			"-0.016": 0.0,
			"-0.015": 0.0,
			"-0.014": 0.0,
			"-0.013": 0.0,
			"-0.012": 0.0,
			"-0.011": 0.0,
			"-0.01": 0.0,
			"-0.009": 0.114393503894,
			"-0.008": 6.40227284477,
			"-0.007": 13.9846987787,
			"-0.006": 16.276242522,
			"-0.005": 16.6452249487,
			"-0.004": 20.875509672,
			"-0.003": 26.8291318229,
			"-0.002": 25.0235915193,
			"-0.001": 20.5224453858,
			"0.0": 23.8262026173,
			"0.001": 31.6470204085,
			"0.002": 25.7272360037,
			"0.003": 19.6869199609,
			"0.004": 18.0340983554,
			"0.005": 8.47568809633,
			"0.006": 5.96196544087,
			"0.007": 4.85022477285,
			"0.008": 4.71386056232,
			"0.009": 4.5864663526,
			"0.01": 6.23524952988,
			"0.011": 4.77110162121,
			"0.012": 2.6134114851,
			"0.013": 0.811301658973,
			"0.014": 0.0,
			"0.015": 0.0,
			"0.016": 0.0,
			"0.017": 0.0,
			"0.018": 0.0,
			"0.019": 0.0,
			"0.02": 0.0,
			"0.021": 0.0,
			"0.022": 0.0,
			"0.023": 0.0,
			"0.024": 0.0,
			"0.025": 0.0
		}
	}
}
