{
	 "smiles": "O=C(NC1(CCCCC1)C#N)C1=CC=CC=C1", 
	 "Tm": 409.15, 
	 "num_atms": 33, 
	 "gaussian": { 
		 "optdone": 1, 
		 "sigma_profile": "yes", 
		 "theory": "DFT", 
		 "functional": "B3LYP", 
		 "basiset": "6-31G**", 
		 "properties": { 
			 "R2extent": 4837.2761, 
			 "electric_dipole_moment_norm": 5.31711420415, 
			 "electric_quadrupole_moment_norm": 15.6127881043, 
			 "total_energy": -727.84586516, 
			 "HOMO_LUMO_gap": 0.20902, 
			 "cosmo_polarized_energy": -14.06, 
			 "cosmo_cavitation_energy": 34.77, 
			 "cosmo_dispersion_energy": -23.78, 
			 "cosmo_repulsion_energy": 1.86, 
			 "cosmo_total_nonelectrostatic_energy": 12.84, 
			 "SMD_solvation_energy": 6.27 
		},
		"coords": [
			{
				"x": 2.5567522754,
				"y": 1.1993803615,
				"z": 3.4139966737,
				"element": "O" 
			},
			{
				"x": 1.9502592019,
				"y": 1.1120568802,
				"z": 2.3533264427,
				"element": "C" 
			},
			{
				"x": 2.5571981384,
				"y": 0.4891573234,
				"z": 1.2676004746,
				"element": "N" 
			},
			{
				"x": 1.9583762226,
				"y": -0.3810500915,
				"z": 0.2147569689,
				"element": "C" 
			},
			{
				"x": 1.4313208217,
				"y": 0.4004965124,
				"z": -1.0161853308,
				"element": "C" 
			},
			{
				"x": 1.044542387,
				"y": -0.5389751436,
				"z": -2.180922217,
				"element": "C" 
			},
			{
				"x": 0.4125697233,
				"y": -1.8682903657,
				"z": -1.6940001112,
				"element": "C" 
			},
			{
				"x": -0.2159455786,
				"y": -1.7080218377,
				"z": -0.3041151218,
				"element": "C" 
			},
			{
				"x": 0.8282640345,
				"y": -1.3208314025,
				"z": 0.766479125,
				"element": "C" 
			},
			{
				"x": 3.093768649,
				"y": -1.2174326782,
				"z": -0.2423979964,
				"element": "C" 
			},
			{
				"x": 3.9836021594,
				"y": -1.8727948152,
				"z": -0.597974837,
				"element": "N" 
			},
			{
				"x": 0.5992814029,
				"y": 1.7502584211,
				"z": 2.2047730618,
				"element": "C" 
			},
			{
				"x": 0.3125246542,
				"y": 2.661257718,
				"z": 1.1794071431,
				"element": "C" 
			},
			{
				"x": -0.9182634798,
				"y": 3.3201175314,
				"z": 1.1491497371,
				"element": "C" 
			},
			{
				"x": -1.8728704407,
				"y": 3.0666124312,
				"z": 2.1352384253,
				"element": "C" 
			},
			{
				"x": -1.5845999716,
				"y": 2.1729634467,
				"z": 3.1705357902,
				"element": "C" 
			},
			{
				"x": -0.3475088836,
				"y": 1.5338518242,
				"z": 3.2168516364,
				"element": "C" 
			},
			{
				"x": 3.4817221813,
				"y": 0.1876193698,
				"z": 1.5566889958,
				"element": "H" 
			},
			{
				"x": 2.1872352863,
				"y": 1.1258206034,
				"z": -1.3313280242,
				"element": "H" 
			},
			{
				"x": 0.556531651,
				"y": 0.964602283,
				"z": -0.6867105471,
				"element": "H" 
			},
			{
				"x": 0.3412102261,
				"y": -0.0010280265,
				"z": -2.8259332559,
				"element": "H" 
			},
			{
				"x": 1.9260914267,
				"y": -0.7536190838,
				"z": -2.7932651376,
				"element": "H" 
			},
			{
				"x": 1.1782934312,
				"y": -2.6514065164,
				"z": -1.6529796222,
				"element": "H" 
			},
			{
				"x": -0.3390405396,
				"y": -2.2120410446,
				"z": -2.41217929,
				"element": "H" 
			},
			{
				"x": -0.9969378978,
				"y": -0.9386085623,
				"z": -0.3471305313,
				"element": "H" 
			},
			{
				"x": -0.7157375015,
				"y": -2.6327464905,
				"z": 0.0031673602,
				"element": "H" 
			},
			{
				"x": 1.2938723046,
				"y": -2.2131607407,
				"z": 1.1964004051,
				"element": "H" 
			},
			{
				"x": 0.3278101134,
				"y": -0.7990060992,
				"z": 1.5845666013,
				"element": "H" 
			},
			{
				"x": 1.0645875331,
				"y": 2.8805589207,
				"z": 0.429073808,
				"element": "H" 
			},
			{
				"x": -1.1266905046,
				"y": 4.0367905461,
				"z": 0.3601024828,
				"element": "H" 
			},
			{
				"x": -2.83295108,
				"y": 3.5736259051,
				"z": 2.1057761457,
				"element": "H" 
			},
			{
				"x": -2.318707773,
				"y": 1.9859202051,
				"z": 3.9487036233,
				"element": "H" 
			},
			{
				"x": -0.0984601733,
				"y": 0.8672226151,
				"z": 4.0364271217,
				"element": "H" 
			}
		],
		 "valence_orbital": [ 
			{
				"type": "occ",
				"energy": -0.31978,
				"method": "rhf"
			},
			{
				"type": "occ",
				"energy": -0.27626,
				"method": "rhf"
			},
			{
				"type": "occ",
				"energy": -0.26761,
				"method": "rhf"
			},
			{
				"type": "occ",
				"energy": -0.2649,
				"method": "rhf"
			},
			{
				"type": "occ",
				"energy": -0.24853,
				"method": "rhf"
			},
			{
				"type": "unocc",
				"energy": -0.03951,
				"method": "rhf"
			},
			{
				"type": "unocc",
				"energy": -0.01856,
				"method": "rhf"
			},
			{
				"type": "unocc",
				"energy": 0.00821,
				"method": "rhf"
			},
			{
				"type": "unocc",
				"energy": 0.02609,
				"method": "rhf"
			},
			{
				"type": "unocc",
				"energy": 0.03965,
				"method": "rhf"
			}
		],
		"cosmo_sigma_profile": { 
			"-0.025": 0.0,
			"-0.024": 0.0,
			"-0.023": 0.0,
			"-0.022": 0.0,
			"-0.021": 0.0,
			"-0.02": 0.0,
			"-0.019": 0.0,
			"-0.018": 0.0,
			"-0.017": 0.0,
			"-0.016": 0.0,
			"-0.015": 0.0,
			"-0.014": 0.0166844139891,
			"-0.013": 0.62786521386,
			"-0.012": 0.772231479973,
			"-0.011": 1.20884507009,
			"-0.01": 0.865136436601,
			"-0.009": 0.747383446362,
			"-0.008": 0.989745948113,
			"-0.007": 2.18216613346,
			"-0.006": 11.1197266766,
			"-0.005": 17.147483929,
			"-0.004": 25.2738891479,
			"-0.003": 36.4050122533,
			"-0.002": 33.8181071147,
			"-0.001": 29.1637166739,
			"0.0": 21.872049475,
			"0.001": 13.1223264732,
			"0.002": 10.9677049041,
			"0.003": 11.3851580161,
			"0.004": 12.7331051362,
			"0.005": 5.68467621517,
			"0.006": 4.72213187909,
			"0.007": 3.44285985656,
			"0.008": 4.61128886398,
			"0.009": 3.87487003038,
			"0.01": 4.97232178705,
			"0.011": 4.63027600711,
			"0.012": 5.98177317272,
			"0.013": 5.3460584004,
			"0.014": 0.939932358058,
			"0.015": 0.0,
			"0.016": 0.0,
			"0.017": 0.0,
			"0.018": 0.0,
			"0.019": 0.0,
			"0.02": 0.0,
			"0.021": 0.0,
			"0.022": 0.0,
			"0.023": 0.0,
			"0.024": 0.0,
			"0.025": 0.0
		}
	}
}
