{
	 "smiles": "CC1=C2N=C(C=C(O)C2=CC=C1)C(F)(F)F", 
	 "Tm": 403.15, 
	 "num_atms": 24, 
	 "gaussian": { 
		 "optdone": 1, 
		 "sigma_profile": "yes", 
		 "theory": "DFT", 
		 "functional": "B3LYP", 
		 "basiset": "6-31G**", 
		 "properties": { 
			 "R2extent": 4259.3666, 
			 "electric_dipole_moment_norm": 3.41514059593, 
			 "electric_quadrupole_moment_norm": 14.0818475304, 
			 "total_energy": -853.508489658, 
			 "HOMO_LUMO_gap": 0.17108, 
			 "cosmo_polarized_energy": -11.07, 
			 "cosmo_cavitation_energy": 29.63, 
			 "cosmo_dispersion_energy": -21.14, 
			 "cosmo_repulsion_energy": 1.57, 
			 "cosmo_total_nonelectrostatic_energy": 10.06, 
			 "SMD_solvation_energy": 5.56 
		},
		"coords": [
			{
				"x": -3.3241942676,
				"y": -1.2496483154,
				"z": 0.2812073979,
				"element": "C" 
			},
			{
				"x": -2.0603840117,
				"y": -1.0544361495,
				"z": -0.5132214882,
				"element": "C" 
			},
			{
				"x": -1.1730687975,
				"y": 0.0185982306,
				"z": -0.1785443045,
				"element": "C" 
			},
			{
				"x": -1.513605325,
				"y": 0.8312695962,
				"z": 0.8609742047,
				"element": "N" 
			},
			{
				"x": -0.6946690786,
				"y": 1.8151291064,
				"z": 1.1632793131,
				"element": "C" 
			},
			{
				"x": 0.5137924536,
				"y": 2.0985266675,
				"z": 0.4953445199,
				"element": "C" 
			},
			{
				"x": 0.8729237522,
				"y": 1.2830422182,
				"z": -0.560938795,
				"element": "C" 
			},
			{
				"x": 2.0093074625,
				"y": 1.4550538444,
				"z": -1.2792593598,
				"element": "O" 
			},
			{
				"x": 0.0269697437,
				"y": 0.2004382005,
				"z": -0.9366716866,
				"element": "C" 
			},
			{
				"x": 0.3334700506,
				"y": -0.6742798232,
				"z": -2.0088673865,
				"element": "C" 
			},
			{
				"x": -0.533364617,
				"y": -1.6984268342,
				"z": -2.3126815174,
				"element": "C" 
			},
			{
				"x": -1.7215364836,
				"y": -1.8824532913,
				"z": -1.5658786181,
				"element": "C" 
			},
			{
				"x": -1.1353858311,
				"y": 2.6791314985,
				"z": 2.3320617695,
				"element": "C" 
			},
			{
				"x": -1.2475248921,
				"y": 1.957530656,
				"z": 3.4628289476,
				"element": "F" 
			},
			{
				"x": -2.3293458681,
				"y": 3.2539999447,
				"z": 2.0971245406,
				"element": "F" 
			},
			{
				"x": -0.2476240181,
				"y": 3.6746720966,
				"z": 2.5743359766,
				"element": "F" 
			},
			{
				"x": -3.8909990417,
				"y": -2.106233885,
				"z": -0.0930432961,
				"element": "H" 
			},
			{
				"x": -3.9597662329,
				"y": -0.3597661438,
				"z": 0.2344235554,
				"element": "H" 
			},
			{
				"x": -3.1020502832,
				"y": -1.4104732551,
				"z": 1.3407995799,
				"element": "H" 
			},
			{
				"x": 1.1333636941,
				"y": 2.9315763335,
				"z": 0.8083367969,
				"element": "H" 
			},
			{
				"x": 2.4978974174,
				"y": 2.2144872579,
				"z": -0.9339961268,
				"element": "H" 
			},
			{
				"x": 1.2467163289,
				"y": -0.5219429653,
				"z": -2.5725375939,
				"element": "H" 
			},
			{
				"x": -0.3094231889,
				"y": -2.3752536244,
				"z": -3.1319823434,
				"element": "H" 
			},
			{
				"x": -2.3874989661,
				"y": -2.7002413639,
				"z": -1.8288940859,
				"element": "H" 
			}
		],
		 "valence_orbital": [ 
			{
				"type": "occ",
				"energy": -0.34473,
				"method": "rhf"
			},
			{
				"type": "occ",
				"energy": -0.27989,
				"method": "rhf"
			},
			{
				"type": "occ",
				"energy": -0.26799,
				"method": "rhf"
			},
			{
				"type": "occ",
				"energy": -0.26118,
				"method": "rhf"
			},
			{
				"type": "occ",
				"energy": -0.22732,
				"method": "rhf"
			},
			{
				"type": "unocc",
				"energy": -0.05624,
				"method": "rhf"
			},
			{
				"type": "unocc",
				"energy": -0.02807,
				"method": "rhf"
			},
			{
				"type": "unocc",
				"energy": 0.02099,
				"method": "rhf"
			},
			{
				"type": "unocc",
				"energy": 0.04995,
				"method": "rhf"
			},
			{
				"type": "unocc",
				"energy": 0.07763,
				"method": "rhf"
			}
		],
		"cosmo_sigma_profile": { 
			"-0.025": 0.0,
			"-0.024": 0.0,
			"-0.023": 0.0,
			"-0.022": 0.0,
			"-0.021": 0.0,
			"-0.02": 0.0214896342151,
			"-0.019": 1.04590706222,
			"-0.018": 1.28672719674,
			"-0.017": 1.10784746912,
			"-0.016": 1.15223717444,
			"-0.015": 0.993134313681,
			"-0.014": 1.03895055505,
			"-0.013": 0.947252464582,
			"-0.012": 0.876846643582,
			"-0.011": 1.31016271551,
			"-0.01": 0.912227006558,
			"-0.009": 1.08677495618,
			"-0.008": 1.29416865764,
			"-0.007": 1.53954945241,
			"-0.006": 6.22985814043,
			"-0.005": 8.97555624179,
			"-0.004": 12.3544427931,
			"-0.003": 12.1542214259,
			"-0.002": 14.3631710629,
			"-0.001": 15.4704898179,
			"0.0": 25.5040789386,
			"0.001": 23.5355440705,
			"0.002": 31.1123136014,
			"0.003": 37.3585931543,
			"0.004": 15.3382561272,
			"0.005": 5.20814352314,
			"0.006": 3.62545225971,
			"0.007": 4.50248798824,
			"0.008": 3.21414135587,
			"0.009": 2.06924554993,
			"0.01": 0.671781342295,
			"0.011": 0.903149216396,
			"0.012": 0.0932720375548,
			"0.013": 0.0,
			"0.014": 0.0,
			"0.015": 0.0,
			"0.016": 0.0,
			"0.017": 0.0,
			"0.018": 0.0,
			"0.019": 0.0,
			"0.02": 0.0,
			"0.021": 0.0,
			"0.022": 0.0,
			"0.023": 0.0,
			"0.024": 0.0,
			"0.025": 0.0
		}
	}
}
