{
	 "smiles": "CC1(C)C2CCC1(C)C(=O)C2(Br)CBr", 
	 "Tm": 382.15, 
	 "num_atms": 30, 
	 "gaussian": { 
		 "optdone": 1, 
		 "sigma_profile": "yes", 
		 "theory": "DFT", 
		 "functional": "B3LYP", 
		 "basiset": "6-31G**", 
		 "properties": { 
			 "R2extent": 6026.9235, 
			 "electric_dipole_moment_norm": 5.24558320113, 
			 "electric_quadrupole_moment_norm": 11.4527366769, 
			 "total_energy": -5646.83671316, 
			 "HOMO_LUMO_gap": 0.18852, 
			 "cosmo_polarized_energy": -12.75, 
			 "cosmo_cavitation_energy": 32.37, 
			 "cosmo_dispersion_energy": -23.62, 
			 "cosmo_repulsion_energy": 1.79, 
			 "cosmo_total_nonelectrostatic_energy": 10.54, 
			 "SMD_solvation_energy": 3.64 
		},
		"coords": [
			{
				"x": -1.9957226527,
				"y": -1.1691900433,
				"z": 1.5881296059,
				"element": "C" 
			},
			{
				"x": -0.9185251692,
				"y": -1.0900506172,
				"z": 0.4881507771,
				"element": "C" 
			},
			{
				"x": -0.5111899035,
				"y": -2.546281733,
				"z": 0.1826233763,
				"element": "C" 
			},
			{
				"x": -1.2749442218,
				"y": -0.2666038262,
				"z": -0.8114083774,
				"element": "C" 
			},
			{
				"x": 0.0686398953,
				"y": -0.3467548525,
				"z": -1.5832673528,
				"element": "C" 
			},
			{
				"x": 1.1202065625,
				"y": -0.1321325147,
				"z": -0.4542890811,
				"element": "C" 
			},
			{
				"x": 0.2789030066,
				"y": -0.1487307042,
				"z": 0.8672049572,
				"element": "C" 
			},
			{
				"x": 1.0762387186,
				"y": -0.4251891613,
				"z": 2.1304160533,
				"element": "C" 
			},
			{
				"x": -0.4587436659,
				"y": 1.2020704192,
				"z": 0.9059084068,
				"element": "C" 
			},
			{
				"x": -0.3020240776,
				"y": 2.0905519831,
				"z": 1.7055531881,
				"element": "O" 
			},
			{
				"x": -1.4475558326,
				"y": 1.2020440253,
				"z": -0.305350675,
				"element": "C" 
			},
			{
				"x": -3.3378470169,
				"y": 1.5265221261,
				"z": 0.2602011516,
				"element": "Br" 
			},
			{
				"x": -1.1222351324,
				"y": 2.279479796,
				"z": -1.3452877938,
				"element": "C" 
			},
			{
				"x": -1.2875225519,
				"y": 4.1466693201,
				"z": -0.7408401082,
				"element": "Br" 
			},
			{
				"x": -2.916012606,
				"y": -1.615922083,
				"z": 1.1992672949,
				"element": "H" 
			},
			{
				"x": -2.2604959436,
				"y": -0.2068263225,
				"z": 2.0252332976,
				"element": "H" 
			},
			{
				"x": -1.635930256,
				"y": -1.8092128281,
				"z": 2.4005286604,
				"element": "H" 
			},
			{
				"x": -1.3576296792,
				"y": -3.0855185969,
				"z": -0.2579325412,
				"element": "H" 
			},
			{
				"x": 0.337066577,
				"y": -2.650672845,
				"z": -0.4947760434,
				"element": "H" 
			},
			{
				"x": -0.2479883686,
				"y": -3.0617238828,
				"z": 1.1112564127,
				"element": "H" 
			},
			{
				"x": -2.1390772211,
				"y": -0.6222478675,
				"z": -1.3759238977,
				"element": "H" 
			},
			{
				"x": 0.1513445577,
				"y": 0.3734872338,
				"z": -2.3981427569,
				"element": "H" 
			},
			{
				"x": 0.1689595923,
				"y": -1.3304423922,
				"z": -2.0453840861,
				"element": "H" 
			},
			{
				"x": 1.6787327724,
				"y": 0.8037914689,
				"z": -0.5626643755,
				"element": "H" 
			},
			{
				"x": 1.8626145858,
				"y": -0.9352657513,
				"z": -0.4278399307,
				"element": "H" 
			},
			{
				"x": 0.4336115144,
				"y": -0.4290756417,
				"z": 3.0152122428,
				"element": "H" 
			},
			{
				"x": 1.5873805279,
				"y": -1.3912201835,
				"z": 2.0674340964,
				"element": "H" 
			},
			{
				"x": 1.8307697753,
				"y": 0.3521714191,
				"z": 2.2836895257,
				"element": "H" 
			},
			{
				"x": -1.7825387417,
				"y": 2.1899535756,
				"z": -2.2073154269,
				"element": "H" 
			},
			{
				"x": -0.0866850452,
				"y": 2.2085204797,
				"z": -1.6687865998,
				"element": "H" 
			}
		],
		 "valence_orbital": [ 
			{
				"type": "occ",
				"energy": -0.28168,
				"method": "rhf"
			},
			{
				"type": "occ",
				"energy": -0.27924,
				"method": "rhf"
			},
			{
				"type": "occ",
				"energy": -0.27474,
				"method": "rhf"
			},
			{
				"type": "occ",
				"energy": -0.26018,
				"method": "rhf"
			},
			{
				"type": "occ",
				"energy": -0.24294,
				"method": "rhf"
			},
			{
				"type": "unocc",
				"energy": -0.05442,
				"method": "rhf"
			},
			{
				"type": "unocc",
				"energy": -0.0048,
				"method": "rhf"
			},
			{
				"type": "unocc",
				"energy": 0.0224,
				"method": "rhf"
			},
			{
				"type": "unocc",
				"energy": 0.06356,
				"method": "rhf"
			},
			{
				"type": "unocc",
				"energy": 0.08844,
				"method": "rhf"
			}
		],
		"cosmo_sigma_profile": { 
			"-0.025": 0.0,
			"-0.024": 0.0,
			"-0.023": 0.0,
			"-0.022": 0.0,
			"-0.021": 0.0,
			"-0.02": 0.0,
			"-0.019": 0.0,
			"-0.018": 0.0,
			"-0.017": 0.0,
			"-0.016": 0.0,
			"-0.015": 0.0,
			"-0.014": 0.0,
			"-0.013": 0.0,
			"-0.012": 0.0,
			"-0.011": 0.00773645082523,
			"-0.01": 0.28324008355,
			"-0.009": 2.36390113802,
			"-0.008": 5.00847731457,
			"-0.007": 4.84639462397,
			"-0.006": 5.71324813781,
			"-0.005": 9.85750689579,
			"-0.004": 17.0094289382,
			"-0.003": 33.960319301,
			"-0.002": 32.7633183544,
			"-0.001": 26.890342419,
			"0.0": 25.2052055855,
			"0.001": 18.4291136497,
			"0.002": 8.3684045459,
			"0.003": 10.8474369517,
			"0.004": 10.1254576543,
			"0.005": 12.2271660762,
			"0.006": 9.41912399908,
			"0.007": 6.05411520639,
			"0.008": 4.66616443839,
			"0.009": 2.95420983212,
			"0.01": 4.32193021951,
			"0.011": 4.70293707535,
			"0.012": 1.58601786756,
			"0.013": 0.0,
			"0.014": 0.0,
			"0.015": 0.0,
			"0.016": 0.0,
			"0.017": 0.0,
			"0.018": 0.0,
			"0.019": 0.0,
			"0.02": 0.0,
			"0.021": 0.0,
			"0.022": 0.0,
			"0.023": 0.0,
			"0.024": 0.0,
			"0.025": 0.0
		}
	}
}
