{
	 "smiles": "OC(=O)C=CSCC1=CC=CO1", 
	 "Tm": 393.15, 
	 "num_atms": 20, 
	 "gaussian": { 
		 "optdone": 1, 
		 "sigma_profile": "yes", 
		 "theory": "DFT", 
		 "functional": "B3LYP", 
		 "basiset": "6-31G**", 
		 "properties": { 
			 "R2extent": 3119.5755, 
			 "electric_dipole_moment_norm": 6.22531594299, 
			 "electric_quadrupole_moment_norm": 17.1798960358, 
			 "total_energy": -933.486356604, 
			 "HOMO_LUMO_gap": 0.18688, 
			 "cosmo_polarized_energy": -17.64, 
			 "cosmo_cavitation_energy": 27.27, 
			 "cosmo_dispersion_energy": -19.49, 
			 "cosmo_repulsion_energy": 1.54, 
			 "cosmo_total_nonelectrostatic_energy": 9.32, 
			 "SMD_solvation_energy": 6.76 
		},
		"coords": [
			{
				"x": -0.8283437901,
				"y": -1.4510352144,
				"z": -2.4772052685,
				"element": "O" 
			},
			{
				"x": 0.5330947651,
				"y": -1.4268176013,
				"z": -2.5835976109,
				"element": "C" 
			},
			{
				"x": 1.0820416544,
				"y": -2.0539171104,
				"z": -3.4597201457,
				"element": "O" 
			},
			{
				"x": 1.2831520294,
				"y": -0.6308046183,
				"z": -1.5804186474,
				"element": "C" 
			},
			{
				"x": 0.80108459,
				"y": -0.2929362775,
				"z": -0.3710995659,
				"element": "C" 
			},
			{
				"x": 1.6730117874,
				"y": 0.6622656816,
				"z": 0.8128273787,
				"element": "S" 
			},
			{
				"x": 0.7029476656,
				"y": 0.2804731452,
				"z": 2.3606262774,
				"element": "C" 
			},
			{
				"x": -0.7453939087,
				"y": 0.578862014,
				"z": 2.2918022102,
				"element": "C" 
			},
			{
				"x": -1.8552989391,
				"y": -0.2158962871,
				"z": 2.1962420248,
				"element": "C" 
			},
			{
				"x": -2.9856171342,
				"y": 0.6648434272,
				"z": 2.1508520411,
				"element": "C" 
			},
			{
				"x": -2.4795791479,
				"y": 1.926544528,
				"z": 2.2169895016,
				"element": "C" 
			},
			{
				"x": -1.1195432196,
				"y": 1.8936429121,
				"z": 2.3026685859,
				"element": "O" 
			},
			{
				"x": -1.1245131986,
				"y": -0.7458521415,
				"z": -1.8851825532,
				"element": "H" 
			},
			{
				"x": 2.3046404529,
				"y": -0.4036654855,
				"z": -1.8683356913,
				"element": "H" 
			},
			{
				"x": -0.2007881357,
				"y": -0.5857334898,
				"z": -0.0576072728,
				"element": "H" 
			},
			{
				"x": 1.1983209552,
				"y": 0.8933110714,
				"z": 3.1187281582,
				"element": "H" 
			},
			{
				"x": 0.8559616495,
				"y": -0.7697632022,
				"z": 2.6151594106,
				"element": "H" 
			},
			{
				"x": -1.8659893999,
				"y": -1.2969275,
				"z": 2.1819509049,
				"element": "H" 
			},
			{
				"x": -4.0283834014,
				"y": 0.3909920587,
				"z": 2.0830342058,
				"element": "H" 
			},
			{
				"x": -2.9261052743,
				"y": 2.9087140896,
				"z": 2.2207860566,
				"element": "H" 
			}
		],
		 "valence_orbital": [ 
			{
				"type": "occ",
				"energy": -0.30902,
				"method": "rhf"
			},
			{
				"type": "occ",
				"energy": -0.2988,
				"method": "rhf"
			},
			{
				"type": "occ",
				"energy": -0.26685,
				"method": "rhf"
			},
			{
				"type": "occ",
				"energy": -0.24478,
				"method": "rhf"
			},
			{
				"type": "occ",
				"energy": -0.23725,
				"method": "rhf"
			},
			{
				"type": "unocc",
				"energy": -0.05037,
				"method": "rhf"
			},
			{
				"type": "unocc",
				"energy": -0.02502,
				"method": "rhf"
			},
			{
				"type": "unocc",
				"energy": 0.02254,
				"method": "rhf"
			},
			{
				"type": "unocc",
				"energy": 0.04173,
				"method": "rhf"
			},
			{
				"type": "unocc",
				"energy": 0.06705,
				"method": "rhf"
			}
		],
		"cosmo_sigma_profile": { 
			"-0.025": 0.0,
			"-0.024": 0.0,
			"-0.023": 0.0,
			"-0.022": 0.0,
			"-0.021": 0.0,
			"-0.02": 0.0,
			"-0.019": 0.0,
			"-0.018": 0.444077597956,
			"-0.017": 0.987869956265,
			"-0.016": 0.758867196916,
			"-0.015": 1.12451245943,
			"-0.014": 1.11947412878,
			"-0.013": 0.653741358705,
			"-0.012": 0.63725457314,
			"-0.011": 1.32345661203,
			"-0.01": 0.925118586415,
			"-0.009": 2.73079192009,
			"-0.008": 9.41689335615,
			"-0.007": 14.2705466197,
			"-0.006": 12.3120974284,
			"-0.005": 12.2611885415,
			"-0.004": 12.9611389581,
			"-0.003": 11.1215011872,
			"-0.002": 11.7819628592,
			"-0.001": 10.5164051809,
			"0.0": 11.2122615383,
			"0.001": 12.1541358927,
			"0.002": 14.896717865,
			"0.003": 14.6834686193,
			"0.004": 11.4966321642,
			"0.005": 10.3806370725,
			"0.006": 8.0258349698,
			"0.007": 5.37393423912,
			"0.008": 3.99028275671,
			"0.009": 2.88665775552,
			"0.01": 4.4849291765,
			"0.011": 4.84248168908,
			"0.012": 6.35554185254,
			"0.013": 3.81114224097,
			"0.014": 0.523803331936,
			"0.015": 0.0,
			"0.016": 0.0,
			"0.017": 0.0,
			"0.018": 0.0,
			"0.019": 0.0,
			"0.02": 0.0,
			"0.021": 0.0,
			"0.022": 0.0,
			"0.023": 0.0,
			"0.024": 0.0,
			"0.025": 0.0
		}
	}
}
