{
	 "smiles": "[O-][N+](=O)C1=NNC=N1", 
	 "Tm": 486.15, 
	 "num_atms": 10, 
	 "gaussian": { 
		 "optdone": 1, 
		 "sigma_profile": "yes", 
		 "theory": "DFT", 
		 "functional": "B3LYP", 
		 "basiset": "6-31G**", 
		 "properties": { 
			 "R2extent": 980.3153, 
			 "electric_dipole_moment_norm": 6.82570309712, 
			 "electric_quadrupole_moment_norm": 4.80035902928, 
			 "total_energy": -446.731801133, 
			 "HOMO_LUMO_gap": 0.20341, 
			 "cosmo_polarized_energy": -19.34, 
			 "cosmo_cavitation_energy": 15.96, 
			 "cosmo_dispersion_energy": -12.09, 
			 "cosmo_repulsion_energy": 1.03, 
			 "cosmo_total_nonelectrostatic_energy": 4.9, 
			 "SMD_solvation_energy": 3.25 
		},
		"coords": [
			{
				"x": -1.1265028011,
				"y": -2.2652876196,
				"z": -1.5647175494,
				"element": "O" 
			},
			{
				"x": -1.0756650805,
				"y": -1.9874592257,
				"z": -0.3726961015,
				"element": "N" 
			},
			{
				"x": -1.3933684189,
				"y": -2.7140482922,
				"z": 0.5631859024,
				"element": "O" 
			},
			{
				"x": -0.5853239332,
				"y": -0.6515545433,
				"z": -0.032028096,
				"element": "C" 
			},
			{
				"x": -0.4970815046,
				"y": -0.2656527198,
				"z": 1.2305217033,
				"element": "N" 
			},
			{
				"x": -0.0171339709,
				"y": 0.9829862097,
				"z": 1.0786250031,
				"element": "N" 
			},
			{
				"x": 0.1538342593,
				"y": 1.2757160168,
				"z": -0.2359874808,
				"element": "C" 
			},
			{
				"x": -0.2038521231,
				"y": 0.2420134413,
				"z": -0.9730057039,
				"element": "N" 
			},
			{
				"x": 0.1610139664,
				"y": 1.551959532,
				"z": 1.8951124044,
				"element": "H" 
			},
			{
				"x": 0.5292796065,
				"y": 2.2237272009,
				"z": -0.5948100815,
				"element": "H" 
			}
		],
		 "valence_orbital": [ 
			{
				"type": "occ",
				"energy": -0.32346,
				"method": "rhf"
			},
			{
				"type": "occ",
				"energy": -0.31374,
				"method": "rhf"
			},
			{
				"type": "occ",
				"energy": -0.31056,
				"method": "rhf"
			},
			{
				"type": "occ",
				"energy": -0.30814,
				"method": "rhf"
			},
			{
				"type": "occ",
				"energy": -0.29278,
				"method": "rhf"
			},
			{
				"type": "unocc",
				"energy": -0.08937,
				"method": "rhf"
			},
			{
				"type": "unocc",
				"energy": -0.027,
				"method": "rhf"
			},
			{
				"type": "unocc",
				"energy": 0.04319,
				"method": "rhf"
			},
			{
				"type": "unocc",
				"energy": 0.04649,
				"method": "rhf"
			},
			{
				"type": "unocc",
				"energy": 0.10017,
				"method": "rhf"
			}
		],
		"cosmo_sigma_profile": { 
			"-0.025": 0.0,
			"-0.024": 0.0,
			"-0.023": 0.0,
			"-0.022": 0.0,
			"-0.021": 0.0,
			"-0.02": 0.65911151718,
			"-0.019": 2.29361688703,
			"-0.018": 1.31493772516,
			"-0.017": 1.27749386841,
			"-0.016": 1.04171016103,
			"-0.015": 1.60131550607,
			"-0.014": 1.4393535558,
			"-0.013": 1.5030868509,
			"-0.012": 3.44162955179,
			"-0.011": 2.94531402034,
			"-0.01": 2.34901582606,
			"-0.009": 1.98931679124,
			"-0.008": 3.19272361403,
			"-0.007": 2.9679710611,
			"-0.006": 4.19990249948,
			"-0.005": 4.52474008689,
			"-0.004": 8.19894270188,
			"-0.003": 6.0697281299,
			"-0.002": 4.65898687871,
			"-0.001": 3.89411844612,
			"0.0": 3.43786646343,
			"0.001": 3.62049615532,
			"0.002": 3.41957038896,
			"0.003": 3.85573769671,
			"0.004": 4.34771470498,
			"0.005": 4.58989126303,
			"0.006": 6.58136603671,
			"0.007": 12.4699815449,
			"0.008": 8.86708607182,
			"0.009": 6.17829508529,
			"0.01": 3.17599970188,
			"0.011": 3.16431165054,
			"0.012": 3.05702399706,
			"0.013": 1.47334907464,
			"0.014": 1.15373769061,
			"0.015": 0.0582465030201,
			"0.016": 0.0,
			"0.017": 0.0,
			"0.018": 0.0,
			"0.019": 0.0,
			"0.02": 0.0,
			"0.021": 0.0,
			"0.022": 0.0,
			"0.023": 0.0,
			"0.024": 0.0,
			"0.025": 0.0
		}
	}
}
