{
	 "smiles": "CN(C)C1=CC=NC=C1", 
	 "Tm": 385.15, 
	 "num_atms": 19, 
	 "gaussian": { 
		 "optdone": 1, 
		 "sigma_profile": "yes", 
		 "theory": "DFT", 
		 "functional": "B3LYP", 
		 "basiset": "6-31G**", 
		 "properties": { 
			 "R2extent": 1657.0517, 
			 "electric_dipole_moment_norm": 4.54553061699, 
			 "electric_quadrupole_moment_norm": 9.76051858151, 
			 "total_energy": -382.263434347, 
			 "HOMO_LUMO_gap": 0.21098, 
			 "cosmo_polarized_energy": -9.19, 
			 "cosmo_cavitation_energy": 21.54, 
			 "cosmo_dispersion_energy": -16.2, 
			 "cosmo_repulsion_energy": 1.3, 
			 "cosmo_total_nonelectrostatic_energy": 6.65, 
			 "SMD_solvation_energy": 2.15 
		},
		"coords": [
			{
				"x": -0.5926596229,
				"y": -1.8968518652,
				"z": -1.1602997566,
				"element": "C" 
			},
			{
				"x": -0.7095110257,
				"y": -0.4478423508,
				"z": -1.1384295315,
				"element": "N" 
			},
			{
				"x": -2.0041321504,
				"y": 0.1540794495,
				"z": -0.8637964046,
				"element": "C" 
			},
			{
				"x": 0.4283017645,
				"y": 0.3295576578,
				"z": -1.0992443372,
				"element": "C" 
			},
			{
				"x": 1.7225352621,
				"y": -0.2265288299,
				"z": -1.2221589269,
				"element": "C" 
			},
			{
				"x": 2.8304249452,
				"y": 0.6125870048,
				"z": -1.1960329049,
				"element": "C" 
			},
			{
				"x": 2.7844307922,
				"y": 1.9445267871,
				"z": -1.0540107247,
				"element": "N" 
			},
			{
				"x": 1.5556970099,
				"y": 2.464816665,
				"z": -0.9280949294,
				"element": "C" 
			},
			{
				"x": 0.3737189466,
				"y": 1.7333426892,
				"z": -0.9386757809,
				"element": "C" 
			},
			{
				"x": -1.5890643336,
				"y": -2.3354139568,
				"z": -1.2288174933,
				"element": "H" 
			},
			{
				"x": -0.1037716819,
				"y": -2.2955237128,
				"z": -0.2590349707,
				"element": "H" 
			},
			{
				"x": -0.0211182747,
				"y": -2.2345596726,
				"z": -2.0326779926,
				"element": "H" 
			},
			{
				"x": -2.0721963933,
				"y": 0.565077,
				"z": 0.154374632,
				"element": "H" 
			},
			{
				"x": -2.7819898461,
				"y": -0.6020759252,
				"z": -0.9779064542,
				"element": "H" 
			},
			{
				"x": -2.2221870493,
				"y": 0.9632465371,
				"z": -1.5705203825,
				"element": "H" 
			},
			{
				"x": 1.8720379515,
				"y": -1.293101543,
				"z": -1.3346954589,
				"element": "H" 
			},
			{
				"x": 3.8244175335,
				"y": 0.1771365009,
				"z": -1.293676859,
				"element": "H" 
			},
			{
				"x": 1.5056590911,
				"y": 3.5464041276,
				"z": -0.806290907,
				"element": "H" 
			},
			{
				"x": -0.5687929187,
				"y": 2.2535234375,
				"z": -0.8217108171,
				"element": "H" 
			}
		],
		 "valence_orbital": [ 
			{
				"type": "occ",
				"energy": -0.34279,
				"method": "rhf"
			},
			{
				"type": "occ",
				"energy": -0.30625,
				"method": "rhf"
			},
			{
				"type": "occ",
				"energy": -0.24778,
				"method": "rhf"
			},
			{
				"type": "occ",
				"energy": -0.23805,
				"method": "rhf"
			},
			{
				"type": "occ",
				"energy": -0.20641,
				"method": "rhf"
			},
			{
				"type": "unocc",
				"energy": 0.00457,
				"method": "rhf"
			},
			{
				"type": "unocc",
				"energy": 0.00751,
				"method": "rhf"
			},
			{
				"type": "unocc",
				"energy": 0.0813,
				"method": "rhf"
			},
			{
				"type": "unocc",
				"energy": 0.10023,
				"method": "rhf"
			},
			{
				"type": "unocc",
				"energy": 0.11965,
				"method": "rhf"
			}
		],
		"cosmo_sigma_profile": { 
			"-0.025": 0.0,
			"-0.024": 0.0,
			"-0.023": 0.0,
			"-0.022": 0.0,
			"-0.021": 0.0,
			"-0.02": 0.0,
			"-0.019": 0.0,
			"-0.018": 0.0,
			"-0.017": 0.0,
			"-0.016": 0.0,
			"-0.015": 0.0,
			"-0.014": 0.0,
			"-0.013": 0.0,
			"-0.012": 0.0,
			"-0.011": 0.0,
			"-0.01": 0.0,
			"-0.009": 0.0,
			"-0.008": 0.0616896948873,
			"-0.007": 1.77415640567,
			"-0.006": 7.3116058596,
			"-0.005": 16.1822638176,
			"-0.004": 20.0190259095,
			"-0.003": 19.7710953706,
			"-0.002": 22.2805126565,
			"-0.001": 13.003361577,
			"0.0": 7.59335687046,
			"0.001": 8.15740924297,
			"0.002": 6.57591833964,
			"0.003": 6.89378711239,
			"0.004": 12.7676513556,
			"0.005": 11.4907177744,
			"0.006": 2.83096561093,
			"0.007": 1.88105974304,
			"0.008": 0.894751658124,
			"0.009": 1.56972495125,
			"0.01": 2.40619266192,
			"0.011": 0.541821214695,
			"0.012": 0.479207254199,
			"0.013": 1.00099105239,
			"0.014": 1.42014345954,
			"0.015": 1.0715564236,
			"0.016": 1.1098422941,
			"0.017": 0.451281798936,
			"0.018": 1.11769227558,
			"0.019": 0.00620947305281,
			"0.02": 0.0,
			"0.021": 0.0,
			"0.022": 0.0,
			"0.023": 0.0,
			"0.024": 0.0,
			"0.025": 0.0
		}
	}
}
