{
	 "smiles": "NC(=O)C1CCCCC1", 
	 "Tm": 461.15, 
	 "num_atms": 22, 
	 "gaussian": { 
		 "optdone": 1, 
		 "sigma_profile": "yes", 
		 "theory": "DFT", 
		 "functional": "B3LYP", 
		 "basiset": "6-31G**", 
		 "properties": { 
			 "R2extent": 1351.2057, 
			 "electric_dipole_moment_norm": 3.71713870874, 
			 "electric_quadrupole_moment_norm": 14.6690453483, 
			 "total_energy": -404.579486454, 
			 "HOMO_LUMO_gap": 0.27294, 
			 "cosmo_polarized_energy": -11.62, 
			 "cosmo_cavitation_energy": 22.79, 
			 "cosmo_dispersion_energy": -17.09, 
			 "cosmo_repulsion_energy": 1.41, 
			 "cosmo_total_nonelectrostatic_energy": 7.11, 
			 "SMD_solvation_energy": 3.83 
		},
		"coords": [
			{
				"x": -0.5268894096,
				"y": 2.0865396553,
				"z": -1.5975737478,
				"element": "N" 
			},
			{
				"x": 0.0496827062,
				"y": 0.9006420786,
				"z": -1.969324828,
				"element": "C" 
			},
			{
				"x": 0.7412351673,
				"y": 0.8116858426,
				"z": -2.9749768542,
				"element": "O" 
			},
			{
				"x": -0.1624811824,
				"y": -0.2987689703,
				"z": -1.0406973919,
				"element": "C" 
			},
			{
				"x": 1.0959552582,
				"y": -0.4441543468,
				"z": -0.1372541966,
				"element": "C" 
			},
			{
				"x": 0.8164285341,
				"y": -1.3917598741,
				"z": 1.0351967108,
				"element": "C" 
			},
			{
				"x": -0.2627165002,
				"y": -0.8138983044,
				"z": 1.9856632772,
				"element": "C" 
			},
			{
				"x": -1.2351339121,
				"y": 0.1416348842,
				"z": 1.2556413644,
				"element": "C" 
			},
			{
				"x": -1.4684950582,
				"y": -0.3052847554,
				"z": -0.1962900703,
				"element": "C" 
			},
			{
				"x": -0.3226634089,
				"y": 2.8998627589,
				"z": -2.1580813509,
				"element": "H" 
			},
			{
				"x": -1.0491443721,
				"y": 2.2007183236,
				"z": -0.7453454336,
				"element": "H" 
			},
			{
				"x": -0.1803807916,
				"y": -1.1568736186,
				"z": -1.7200735079,
				"element": "H" 
			},
			{
				"x": 1.9329255683,
				"y": -0.7941341582,
				"z": -0.7479054428,
				"element": "H" 
			},
			{
				"x": 1.3889602949,
				"y": 0.5396970009,
				"z": 0.2532257058,
				"element": "H" 
			},
			{
				"x": 1.7388849603,
				"y": -1.5948091373,
				"z": 1.5900854753,
				"element": "H" 
			},
			{
				"x": 0.484002763,
				"y": -2.3580141666,
				"z": 0.6340766573,
				"element": "H" 
			},
			{
				"x": -0.8270267465,
				"y": -1.6369565435,
				"z": 2.4397286869,
				"element": "H" 
			},
			{
				"x": 0.214861225,
				"y": -0.2771988379,
				"z": 2.8136926927,
				"element": "H" 
			},
			{
				"x": -2.1870799616,
				"y": 0.1970343703,
				"z": 1.795262891,
				"element": "H" 
			},
			{
				"x": -0.822416049,
				"y": 1.1600155154,
				"z": 1.2685818449,
				"element": "H" 
			},
			{
				"x": -2.2417499739,
				"y": 0.3035901174,
				"z": -0.6784677853,
				"element": "H" 
			},
			{
				"x": -1.8683591112,
				"y": -1.326267834,
				"z": -0.1812646969,
				"element": "H" 
			}
		],
		 "valence_orbital": [ 
			{
				"type": "occ",
				"energy": -0.31664,
				"method": "rhf"
			},
			{
				"type": "occ",
				"energy": -0.30603,
				"method": "rhf"
			},
			{
				"type": "occ",
				"energy": -0.30357,
				"method": "rhf"
			},
			{
				"type": "occ",
				"energy": -0.25899,
				"method": "rhf"
			},
			{
				"type": "occ",
				"energy": -0.23485,
				"method": "rhf"
			},
			{
				"type": "unocc",
				"energy": 0.03809,
				"method": "rhf"
			},
			{
				"type": "unocc",
				"energy": 0.05937,
				"method": "rhf"
			},
			{
				"type": "unocc",
				"energy": 0.08889,
				"method": "rhf"
			},
			{
				"type": "unocc",
				"energy": 0.10624,
				"method": "rhf"
			},
			{
				"type": "unocc",
				"energy": 0.12688,
				"method": "rhf"
			}
		],
		"cosmo_sigma_profile": { 
			"-0.025": 0.0,
			"-0.024": 0.0,
			"-0.023": 0.0,
			"-0.022": 0.0,
			"-0.021": 0.0,
			"-0.02": 0.0,
			"-0.019": 0.0,
			"-0.018": 0.0,
			"-0.017": 0.0,
			"-0.016": 0.0,
			"-0.015": 0.0,
			"-0.014": 0.230068410323,
			"-0.013": 1.26426378172,
			"-0.012": 2.31531698768,
			"-0.011": 1.85828259915,
			"-0.01": 2.34900204949,
			"-0.009": 2.62015713787,
			"-0.008": 2.00265274519,
			"-0.007": 2.21277580591,
			"-0.006": 2.47791667156,
			"-0.005": 2.10022771231,
			"-0.004": 3.29735043962,
			"-0.003": 15.6158767833,
			"-0.002": 29.4508517298,
			"-0.001": 30.4560318748,
			"0.0": 25.0202021813,
			"0.001": 16.7809920213,
			"0.002": 5.09865079683,
			"0.003": 2.98606235875,
			"0.004": 2.93259895436,
			"0.005": 2.10632397484,
			"0.006": 2.27293635382,
			"0.007": 1.1325471083,
			"0.008": 1.03962339001,
			"0.009": 1.51337145527,
			"0.01": 1.9880361152,
			"0.011": 0.8211875395,
			"0.012": 1.2145740984,
			"0.013": 2.47413094849,
			"0.014": 5.12279877562,
			"0.015": 4.07845808094,
			"0.016": 0.672222082322,
			"0.017": 0.0,
			"0.018": 0.0,
			"0.019": 0.0,
			"0.02": 0.0,
			"0.021": 0.0,
			"0.022": 0.0,
			"0.023": 0.0,
			"0.024": 0.0,
			"0.025": 0.0
		}
	}
}
