{
	 "smiles": "CC1=CC=C2C(O)=C(C(=O)NC2=C1)C1=CC=CC=C1", 
	 "Tm": 573.15, 
	 "num_atms": 32, 
	 "gaussian": { 
		 "optdone": 1, 
		 "sigma_profile": "yes", 
		 "theory": "DFT", 
		 "functional": "B3LYP", 
		 "basiset": "6-31G**", 
		 "properties": { 
			 "R2extent": 6908.9913, 
			 "electric_dipole_moment_norm": 5.86455913688, 
			 "electric_quadrupole_moment_norm": 20.3146057633, 
			 "total_energy": -822.769449996, 
			 "HOMO_LUMO_gap": 0.15201, 
			 "cosmo_polarized_energy": -19.28, 
			 "cosmo_cavitation_energy": 35.44, 
			 "cosmo_dispersion_energy": -26.26, 
			 "cosmo_repulsion_energy": 1.98, 
			 "cosmo_total_nonelectrostatic_energy": 11.15, 
			 "SMD_solvation_energy": 6.42 
		},
		"coords": [
			{
				"x": -2.93518634,
				"y": 4.57119542,
				"z": -1.2722158896,
				"element": "C" 
			},
			{
				"x": -2.1390838597,
				"y": 3.3922340283,
				"z": -0.7681524058,
				"element": "C" 
			},
			{
				"x": -2.354495886,
				"y": 2.105772674,
				"z": -1.3049795721,
				"element": "C" 
			},
			{
				"x": -1.6232089495,
				"y": 1.0203155047,
				"z": -0.8539969339,
				"element": "C" 
			},
			{
				"x": -0.6370365502,
				"y": 1.1622368711,
				"z": 0.1431777187,
				"element": "C" 
			},
			{
				"x": 0.1785639928,
				"y": 0.0716580543,
				"z": 0.6447517399,
				"element": "C" 
			},
			{
				"x": 0.0424797463,
				"y": -1.1569317371,
				"z": 0.0732948805,
				"element": "O" 
			},
			{
				"x": 1.0780453566,
				"y": 0.229012909,
				"z": 1.6743815598,
				"element": "C" 
			},
			{
				"x": 1.267345871,
				"y": 1.5672809516,
				"z": 2.257020446,
				"element": "C" 
			},
			{
				"x": 2.0507045291,
				"y": 1.85423533,
				"z": 3.1585637653,
				"element": "O" 
			},
			{
				"x": 0.4864953057,
				"y": 2.5857556283,
				"z": 1.6999521137,
				"element": "N" 
			},
			{
				"x": -0.4421623087,
				"y": 2.4468768154,
				"z": 0.6979281518,
				"element": "C" 
			},
			{
				"x": -1.1868038757,
				"y": 3.544646517,
				"z": 0.2332095047,
				"element": "C" 
			},
			{
				"x": 1.8915871494,
				"y": -0.8915932744,
				"z": 2.2104267251,
				"element": "C" 
			},
			{
				"x": 3.2554195525,
				"y": -0.7127448878,
				"z": 2.5042622768,
				"element": "C" 
			},
			{
				"x": 4.0214859622,
				"y": -1.7664699532,
				"z": 2.9989025571,
				"element": "C" 
			},
			{
				"x": 3.4431808619,
				"y": -3.0171607798,
				"z": 3.2231937508,
				"element": "C" 
			},
			{
				"x": 2.0878897982,
				"y": -3.2047413071,
				"z": 2.9480312523,
				"element": "C" 
			},
			{
				"x": 1.3207236033,
				"y": -2.1543617125,
				"z": 2.4470489208,
				"element": "C" 
			},
			{
				"x": -4.0118810307,
				"y": 4.3877002174,
				"z": -1.1846380582,
				"element": "H" 
			},
			{
				"x": -2.7276209612,
				"y": 4.7629525865,
				"z": -2.3314115458,
				"element": "H" 
			},
			{
				"x": -2.7023694531,
				"y": 5.4823932099,
				"z": -0.715311269,
				"element": "H" 
			},
			{
				"x": -3.1101625452,
				"y": 1.9647310464,
				"z": -2.0723167181,
				"element": "H" 
			},
			{
				"x": -1.850004512,
				"y": 0.0401026218,
				"z": -1.2668841331,
				"element": "H" 
			},
			{
				"x": -0.3770059195,
				"y": -1.0652693476,
				"z": -0.7915100327,
				"element": "H" 
			},
			{
				"x": 0.6456613285,
				"y": 3.4932797274,
				"z": 2.118981365,
				"element": "H" 
			},
			{
				"x": -1.0116234779,
				"y": 4.5234709875,
				"z": 0.6729870333,
				"element": "H" 
			},
			{
				"x": 3.7075526043,
				"y": 0.2596043722,
				"z": 2.3547954219,
				"element": "H" 
			},
			{
				"x": 5.0744492758,
				"y": -1.6068222067,
				"z": 3.2140529197,
				"element": "H" 
			},
			{
				"x": 4.0415767519,
				"y": -3.8358632264,
				"z": 3.6132290791,
				"element": "H" 
			},
			{
				"x": 1.6230334053,
				"y": -4.1704658173,
				"z": 3.1267770028,
				"element": "H" 
			},
			{
				"x": 0.2682505749,
				"y": -2.3118312226,
				"z": 2.2406483732,
				"element": "H" 
			}
		],
		 "valence_orbital": [ 
			{
				"type": "occ",
				"energy": -0.25617,
				"method": "rhf"
			},
			{
				"type": "occ",
				"energy": -0.24996,
				"method": "rhf"
			},
			{
				"type": "occ",
				"energy": -0.23157,
				"method": "rhf"
			},
			{
				"type": "occ",
				"energy": -0.23041,
				"method": "rhf"
			},
			{
				"type": "occ",
				"energy": -0.2046,
				"method": "rhf"
			},
			{
				"type": "unocc",
				"energy": -0.05259,
				"method": "rhf"
			},
			{
				"type": "unocc",
				"energy": -0.01588,
				"method": "rhf"
			},
			{
				"type": "unocc",
				"energy": 0.01362,
				"method": "rhf"
			},
			{
				"type": "unocc",
				"energy": 0.01686,
				"method": "rhf"
			},
			{
				"type": "unocc",
				"energy": 0.02147,
				"method": "rhf"
			}
		],
		"cosmo_sigma_profile": { 
			"-0.025": 0.0,
			"-0.024": 0.0,
			"-0.023": 0.0,
			"-0.022": 0.0,
			"-0.021": 0.0,
			"-0.02": 0.0,
			"-0.019": 0.038360864003,
			"-0.018": 0.689009818267,
			"-0.017": 1.02619306961,
			"-0.016": 0.853245286487,
			"-0.015": 1.76979480529,
			"-0.014": 1.62508047929,
			"-0.013": 1.91560457126,
			"-0.012": 2.87953854067,
			"-0.011": 2.96162368765,
			"-0.01": 1.77992413328,
			"-0.009": 1.49894619425,
			"-0.008": 2.6812124708,
			"-0.007": 3.21430190024,
			"-0.006": 7.76098369682,
			"-0.005": 16.0841022854,
			"-0.004": 20.6116938714,
			"-0.003": 22.605302546,
			"-0.002": 19.3425344227,
			"-0.001": 22.9924645397,
			"0.0": 25.408229703,
			"0.001": 21.8977216932,
			"0.002": 18.1084873371,
			"0.003": 17.4164157964,
			"0.004": 17.4262399078,
			"0.005": 10.9507214917,
			"0.006": 12.5947045764,
			"0.007": 5.89993844353,
			"0.008": 2.6067408127,
			"0.009": 3.98417577768,
			"0.01": 2.08717048348,
			"0.011": 1.18669608067,
			"0.012": 2.06073377627,
			"0.013": 2.60856847589,
			"0.014": 5.52609288715,
			"0.015": 1.2950129399,
			"0.016": 0.0,
			"0.017": 0.0,
			"0.018": 0.0,
			"0.019": 0.0,
			"0.02": 0.0,
			"0.021": 0.0,
			"0.022": 0.0,
			"0.023": 0.0,
			"0.024": 0.0,
			"0.025": 0.0
		}
	}
}
