{
	 "smiles": "CC1=NN(CC2=CC(Br)=CC=C2)C(C)=C1C(O)=O", 
	 "Tm": 448.15, 
	 "num_atms": 31, 
	 "gaussian": { 
		 "optdone": 1, 
		 "sigma_profile": "yes", 
		 "theory": "DFT", 
		 "functional": "B3LYP", 
		 "basiset": "6-31G**", 
		 "properties": { 
			 "R2extent": 9459.7924, 
			 "electric_dipole_moment_norm": 4.30383100621, 
			 "electric_quadrupole_moment_norm": 23.9631482354, 
			 "total_energy": -3334.58140404, 
			 "HOMO_LUMO_gap": 0.21818, 
			 "cosmo_polarized_energy": -18.97, 
			 "cosmo_cavitation_energy": 37.48, 
			 "cosmo_dispersion_energy": -26.5, 
			 "cosmo_repulsion_energy": 2.06, 
			 "cosmo_total_nonelectrostatic_energy": 13.04, 
			 "SMD_solvation_energy": 5.23 
		},
		"coords": [
			{
				"x": -1.5408039736,
				"y": -3.2315207136,
				"z": -0.8831579838,
				"element": "C" 
			},
			{
				"x": -0.430387375,
				"y": -2.3604069728,
				"z": -0.3875535098,
				"element": "C" 
			},
			{
				"x": 0.2627427608,
				"y": -1.5986090173,
				"z": -1.2246409507,
				"element": "N" 
			},
			{
				"x": 1.1799494765,
				"y": -0.948210293,
				"z": -0.4513057878,
				"element": "N" 
			},
			{
				"x": 2.0410783465,
				"y": 0.0462224431,
				"z": -1.0797128068,
				"element": "C" 
			},
			{
				"x": 1.520022441,
				"y": 1.4700290414,
				"z": -0.9649564819,
				"element": "C" 
			},
			{
				"x": 2.3871424673,
				"y": 2.4990251865,
				"z": -0.5838772081,
				"element": "C" 
			},
			{
				"x": 1.9139163618,
				"y": 3.8092598508,
				"z": -0.5137320531,
				"element": "C" 
			},
			{
				"x": 3.1108331236,
				"y": 5.2048897232,
				"z": 0.0107300412,
				"element": "Br" 
			},
			{
				"x": 0.5890175922,
				"y": 4.1166939928,
				"z": -0.810388485,
				"element": "C" 
			},
			{
				"x": -0.2717642494,
				"y": 3.0825466557,
				"z": -1.1876301778,
				"element": "C" 
			},
			{
				"x": 0.1850400402,
				"y": 1.7685000829,
				"z": -1.2676767513,
				"element": "C" 
			},
			{
				"x": 1.0879009244,
				"y": -1.275336054,
				"z": 0.8632101929,
				"element": "C" 
			},
			{
				"x": 1.9514611322,
				"y": -0.6343259428,
				"z": 1.9077016767,
				"element": "C" 
			},
			{
				"x": 0.0550026762,
				"y": -2.214718115,
				"z": 0.9475764683,
				"element": "C" 
			},
			{
				"x": -0.5054310629,
				"y": -2.9049977633,
				"z": 2.1227192077,
				"element": "C" 
			},
			{
				"x": 0.3154970457,
				"y": -3.0387578744,
				"z": 3.2116348438,
				"element": "O" 
			},
			{
				"x": -1.6295684513,
				"y": -3.3504768303,
				"z": 2.1718726337,
				"element": "O" 
			},
			{
				"x": -2.4827311381,
				"y": -2.9746956396,
				"z": -0.3917701556,
				"element": "H" 
			},
			{
				"x": -1.6443957689,
				"y": -3.1139904461,
				"z": -1.9639075659,
				"element": "H" 
			},
			{
				"x": -1.3486018452,
				"y": -4.2850214684,
				"z": -0.6560304557,
				"element": "H" 
			},
			{
				"x": 2.1101389945,
				"y": -0.2540690102,
				"z": -2.1286863959,
				"element": "H" 
			},
			{
				"x": 3.0431945886,
				"y": -0.0266352564,
				"z": -0.6474883069,
				"element": "H" 
			},
			{
				"x": 3.4247800612,
				"y": 2.2869462904,
				"z": -0.3463725775,
				"element": "H" 
			},
			{
				"x": 0.237023882,
				"y": 5.1398519517,
				"z": -0.7468466193,
				"element": "H" 
			},
			{
				"x": -1.3072664325,
				"y": 3.3108090347,
				"z": -1.421847308,
				"element": "H" 
			},
			{
				"x": -0.48579679,
				"y": 0.9676390037,
				"z": -1.5627079406,
				"element": "H" 
			},
			{
				"x": 2.9727499156,
				"y": -1.0370968764,
				"z": 1.9047696123,
				"element": "H" 
			},
			{
				"x": 2.0251117467,
				"y": 0.4455319878,
				"z": 1.7487300033,
				"element": "H" 
			},
			{
				"x": 1.5257961865,
				"y": -0.7872558753,
				"z": 2.9013978772,
				"element": "H" 
			},
			{
				"x": 1.228947323,
				"y": -2.8541210956,
				"z": 2.9557469644,
				"element": "H" 
			}
		],
		 "valence_orbital": [ 
			{
				"type": "occ",
				"energy": -0.27418,
				"method": "rhf"
			},
			{
				"type": "occ",
				"energy": -0.27033,
				"method": "rhf"
			},
			{
				"type": "occ",
				"energy": -0.25702,
				"method": "rhf"
			},
			{
				"type": "occ",
				"energy": -0.25482,
				"method": "rhf"
			},
			{
				"type": "occ",
				"energy": -0.24926,
				"method": "rhf"
			},
			{
				"type": "unocc",
				"energy": -0.03108,
				"method": "rhf"
			},
			{
				"type": "unocc",
				"energy": -0.02654,
				"method": "rhf"
			},
			{
				"type": "unocc",
				"energy": -0.0233,
				"method": "rhf"
			},
			{
				"type": "unocc",
				"energy": -0.00219,
				"method": "rhf"
			},
			{
				"type": "unocc",
				"energy": 0.01452,
				"method": "rhf"
			}
		],
		"cosmo_sigma_profile": { 
			"-0.025": 0.0,
			"-0.024": 0.0,
			"-0.023": 0.0,
			"-0.022": 0.0,
			"-0.021": 0.0,
			"-0.02": 0.0,
			"-0.019": 0.0,
			"-0.018": 0.103577958102,
			"-0.017": 0.632408383731,
			"-0.016": 1.05122894585,
			"-0.015": 0.899475477649,
			"-0.014": 0.50266415447,
			"-0.013": 0.765401036542,
			"-0.012": 1.10050122889,
			"-0.011": 1.2811849342,
			"-0.01": 1.1040215328,
			"-0.009": 1.02137702014,
			"-0.008": 4.93562656211,
			"-0.007": 12.0216091874,
			"-0.006": 16.0490004604,
			"-0.005": 16.6295583721,
			"-0.004": 22.2008417957,
			"-0.003": 21.8357645852,
			"-0.002": 23.0544714722,
			"-0.001": 19.567922078,
			"0.0": 22.7689853447,
			"0.001": 20.6434389984,
			"0.002": 24.3027425485,
			"0.003": 23.3819752912,
			"0.004": 19.4198508531,
			"0.005": 10.2296489766,
			"0.006": 4.09581974333,
			"0.007": 4.0261922121,
			"0.008": 2.72506873132,
			"0.009": 4.24671319963,
			"0.01": 5.1978036428,
			"0.011": 5.67075009082,
			"0.012": 5.94118267491,
			"0.013": 3.03177754989,
			"0.014": 1.19824890245,
			"0.015": 0.36825929571,
			"0.016": 0.0,
			"0.017": 0.0,
			"0.018": 0.0,
			"0.019": 0.0,
			"0.02": 0.0,
			"0.021": 0.0,
			"0.022": 0.0,
			"0.023": 0.0,
			"0.024": 0.0,
			"0.025": 0.0
		}
	}
}
