{
	 "smiles": "BrC1=CC(OC2=CC=C(Br)C(Br)=C2)=CC=C1", 
	 "Tm": 293.15, 
	 "num_atms": 23, 
	 "gaussian": { 
		 "optdone": 1, 
		 "sigma_profile": "yes", 
		 "theory": "DFT", 
		 "functional": "B3LYP", 
		 "basiset": "6-31G**", 
		 "properties": { 
			 "R2extent": 10670.5971, 
			 "electric_dipole_moment_norm": 2.58492039336, 
			 "electric_quadrupole_moment_norm": 10.055848549, 
			 "total_energy": -8250.91614279, 
			 "HOMO_LUMO_gap": 0.1983, 
			 "cosmo_polarized_energy": -6.68, 
			 "cosmo_cavitation_energy": 35.08, 
			 "cosmo_dispersion_energy": -26.14, 
			 "cosmo_repulsion_energy": 2.06, 
			 "cosmo_total_nonelectrostatic_energy": 11.01, 
			 "SMD_solvation_energy": 2.82 
		},
		"coords": [
			{
				"x": 3.6306966676,
				"y": -1.5719666595,
				"z": -2.764087898,
				"element": "Br" 
			},
			{
				"x": 2.045870759,
				"y": -2.1859200811,
				"z": -1.8899889153,
				"element": "C" 
			},
			{
				"x": 1.0286751258,
				"y": -1.2725381218,
				"z": -1.6236553879,
				"element": "C" 
			},
			{
				"x": -0.1253198924,
				"y": -1.7331095704,
				"z": -0.9824437686,
				"element": "C" 
			},
			{
				"x": -1.2096076615,
				"y": -0.9072944685,
				"z": -0.7527789969,
				"element": "O" 
			},
			{
				"x": -1.0439605524,
				"y": 0.3640271899,
				"z": -0.2515996493,
				"element": "C" 
			},
			{
				"x": -1.9880707457,
				"y": 1.3176109763,
				"z": -0.6389108714,
				"element": "C" 
			},
			{
				"x": -1.9199026052,
				"y": 2.601566764,
				"z": -0.110770601,
				"element": "C" 
			},
			{
				"x": -0.9155275582,
				"y": 2.9511440548,
				"z": 0.7965032575,
				"element": "C" 
			},
			{
				"x": -0.8807287544,
				"y": 4.7312200837,
				"z": 1.462222067,
				"element": "Br" 
			},
			{
				"x": 0.0238050835,
				"y": 1.9876489429,
				"z": 1.1799966665,
				"element": "C" 
			},
			{
				"x": 1.4149123392,
				"y": 2.3722152213,
				"z": 2.4183671193,
				"element": "Br" 
			},
			{
				"x": -0.0409913122,
				"y": 0.6928923924,
				"z": 0.6617843205,
				"element": "C" 
			},
			{
				"x": -0.2660088232,
				"y": -3.0752168331,
				"z": -0.6274589095,
				"element": "C" 
			},
			{
				"x": 0.7661230971,
				"y": -3.9667742092,
				"z": -0.916666495,
				"element": "C" 
			},
			{
				"x": 1.9342225352,
				"y": -3.5324759824,
				"z": -1.5456846991,
				"element": "C" 
			},
			{
				"x": 1.1262240823,
				"y": -0.2326447577,
				"z": -1.9097638109,
				"element": "H" 
			},
			{
				"x": -2.7634258623,
				"y": 1.0414737514,
				"z": -1.3447093471,
				"element": "H" 
			},
			{
				"x": -2.6466492264,
				"y": 3.3495268948,
				"z": -0.4059105484,
				"element": "H" 
			},
			{
				"x": 0.6847423491,
				"y": -0.0469128558,
				"z": 0.9745878528,
				"element": "H" 
			},
			{
				"x": -1.177924851,
				"y": -3.3983234909,
				"z": -0.1377859373,
				"element": "H" 
			},
			{
				"x": 0.6641721364,
				"y": -5.0126567314,
				"z": -0.6436326097,
				"element": "H" 
			},
			{
				"x": 2.7401736697,
				"y": -4.2222925095,
				"z": -1.7653128382,
				"element": "H" 
			}
		],
		 "valence_orbital": [ 
			{
				"type": "occ",
				"energy": -0.27983,
				"method": "rhf"
			},
			{
				"type": "occ",
				"energy": -0.27053,
				"method": "rhf"
			},
			{
				"type": "occ",
				"energy": -0.25796,
				"method": "rhf"
			},
			{
				"type": "occ",
				"energy": -0.25111,
				"method": "rhf"
			},
			{
				"type": "occ",
				"energy": -0.23326,
				"method": "rhf"
			},
			{
				"type": "unocc",
				"energy": -0.03496,
				"method": "rhf"
			},
			{
				"type": "unocc",
				"energy": -0.02977,
				"method": "rhf"
			},
			{
				"type": "unocc",
				"energy": -0.02425,
				"method": "rhf"
			},
			{
				"type": "unocc",
				"energy": -0.02159,
				"method": "rhf"
			},
			{
				"type": "unocc",
				"energy": -0.01114,
				"method": "rhf"
			}
		],
		"cosmo_sigma_profile": { 
			"-0.025": 0.0,
			"-0.024": 0.0,
			"-0.023": 0.0,
			"-0.022": 0.0,
			"-0.021": 0.0,
			"-0.02": 0.0,
			"-0.019": 0.0,
			"-0.018": 0.0,
			"-0.017": 0.0,
			"-0.016": 0.0,
			"-0.015": 0.0,
			"-0.014": 0.0,
			"-0.013": 0.0,
			"-0.012": 0.0,
			"-0.011": 0.0,
			"-0.01": 0.0,
			"-0.009": 0.0,
			"-0.008": 3.57385602679,
			"-0.007": 11.1338959123,
			"-0.006": 12.6022685185,
			"-0.005": 15.8887640778,
			"-0.004": 15.3408222832,
			"-0.003": 16.0828055584,
			"-0.002": 16.9731238901,
			"-0.001": 18.501591143,
			"0.0": 26.151990154,
			"0.001": 39.6980946643,
			"0.002": 37.2827302594,
			"0.003": 31.9591629899,
			"0.004": 32.3520209484,
			"0.005": 11.2588082814,
			"0.006": 2.21714201001,
			"0.007": 1.00999073861,
			"0.008": 0.620658030928,
			"0.009": 0.0,
			"0.01": 0.0,
			"0.011": 0.0,
			"0.012": 0.0,
			"0.013": 0.0,
			"0.014": 0.0,
			"0.015": 0.0,
			"0.016": 0.0,
			"0.017": 0.0,
			"0.018": 0.0,
			"0.019": 0.0,
			"0.02": 0.0,
			"0.021": 0.0,
			"0.022": 0.0,
			"0.023": 0.0,
			"0.024": 0.0,
			"0.025": 0.0
		}
	}
}
