{
	 "smiles": "CC1=CC(Br)=CC=C1", 
	 "Tm": 233.25, 
	 "num_atms": 15, 
	 "gaussian": { 
		 "optdone": 1, 
		 "sigma_profile": "yes", 
		 "theory": "DFT", 
		 "functional": "B3LYP", 
		 "basiset": "6-31G**", 
		 "properties": { 
			 "R2extent": 4432.3188, 
			 "electric_dipole_moment_norm": 2.10290295782, 
			 "electric_quadrupole_moment_norm": 9.41438393258, 
			 "total_energy": -2842.37542603, 
			 "HOMO_LUMO_gap": 0.22713, 
			 "cosmo_polarized_energy": -3.71, 
			 "cosmo_cavitation_energy": 20.85, 
			 "cosmo_dispersion_energy": -15.93, 
			 "cosmo_repulsion_energy": 1.32, 
			 "cosmo_total_nonelectrostatic_energy": 6.25, 
			 "SMD_solvation_energy": 2.55 
		},
		"coords": [
			{
				"x": -0.6229009821,
				"y": 2.6473773795,
				"z": 1.2990172098,
				"element": "C" 
			},
			{
				"x": -1.1813853745,
				"y": 1.5355364404,
				"z": 0.4417014291,
				"element": "C" 
			},
			{
				"x": -2.4037247781,
				"y": 1.6997939805,
				"z": -0.223699865,
				"element": "C" 
			},
			{
				"x": -2.8970073041,
				"y": 0.6814026211,
				"z": -1.0358366638,
				"element": "C" 
			},
			{
				"x": -4.5711932737,
				"y": 0.9317361635,
				"z": -1.9312386868,
				"element": "Br" 
			},
			{
				"x": -2.2048493916,
				"y": -0.5152027662,
				"z": -1.2081034477,
				"element": "C" 
			},
			{
				"x": -0.9893726253,
				"y": -0.6795705499,
				"z": -0.5422052988,
				"element": "C" 
			},
			{
				"x": -0.4835905474,
				"y": 0.3321392775,
				"z": 0.2739468927,
				"element": "C" 
			},
			{
				"x": 0.006157647,
				"y": 3.3235437187,
				"z": 0.7068072961,
				"element": "H" 
			},
			{
				"x": -0.0033307526,
				"y": 2.2524091703,
				"z": 2.1094765824,
				"element": "H" 
			},
			{
				"x": -1.4202734873,
				"y": 3.2503587876,
				"z": 1.7430585984,
				"element": "H" 
			},
			{
				"x": -2.9694319455,
				"y": 2.618325317,
				"z": -0.1075259297,
				"element": "H" 
			},
			{
				"x": -2.6073466164,
				"y": -1.2969247967,
				"z": -1.8417280437,
				"element": "H" 
			},
			{
				"x": -0.4378768542,
				"y": -1.6078780283,
				"z": -0.660829911,
				"element": "H" 
			},
			{
				"x": 0.4625262856,
				"y": 0.187153285,
				"z": 0.788659838,
				"element": "H" 
			}
		],
		 "valence_orbital": [ 
			{
				"type": "occ",
				"energy": -0.34652,
				"method": "rhf"
			},
			{
				"type": "occ",
				"energy": -0.30619,
				"method": "rhf"
			},
			{
				"type": "occ",
				"energy": -0.2834,
				"method": "rhf"
			},
			{
				"type": "occ",
				"energy": -0.25344,
				"method": "rhf"
			},
			{
				"type": "occ",
				"energy": -0.23828,
				"method": "rhf"
			},
			{
				"type": "unocc",
				"energy": -0.01115,
				"method": "rhf"
			},
			{
				"type": "unocc",
				"energy": -0.00963,
				"method": "rhf"
			},
			{
				"type": "unocc",
				"energy": 0.01045,
				"method": "rhf"
			},
			{
				"type": "unocc",
				"energy": 0.10057,
				"method": "rhf"
			},
			{
				"type": "unocc",
				"energy": 0.11944,
				"method": "rhf"
			}
		],
		"cosmo_sigma_profile": { 
			"-0.025": 0.0,
			"-0.024": 0.0,
			"-0.023": 0.0,
			"-0.022": 0.0,
			"-0.021": 0.0,
			"-0.02": 0.0,
			"-0.019": 0.0,
			"-0.018": 0.0,
			"-0.017": 0.0,
			"-0.016": 0.0,
			"-0.015": 0.0,
			"-0.014": 0.0,
			"-0.013": 0.0,
			"-0.012": 0.0,
			"-0.011": 0.0,
			"-0.01": 0.0,
			"-0.009": 0.0,
			"-0.008": 0.0,
			"-0.007": 1.09584794662,
			"-0.006": 6.92664615802,
			"-0.005": 10.6078274636,
			"-0.004": 16.1912585299,
			"-0.003": 12.8235385828,
			"-0.002": 14.7922987025,
			"-0.001": 13.9652542343,
			"0.0": 15.4346162094,
			"0.001": 11.6831295065,
			"0.002": 13.4874155966,
			"0.003": 17.4830193779,
			"0.004": 19.6060973247,
			"0.005": 15.198817648,
			"0.006": 0.307982562237,
			"0.007": 0.0,
			"0.008": 0.0,
			"0.009": 0.0,
			"0.01": 0.0,
			"0.011": 0.0,
			"0.012": 0.0,
			"0.013": 0.0,
			"0.014": 0.0,
			"0.015": 0.0,
			"0.016": 0.0,
			"0.017": 0.0,
			"0.018": 0.0,
			"0.019": 0.0,
			"0.02": 0.0,
			"0.021": 0.0,
			"0.022": 0.0,
			"0.023": 0.0,
			"0.024": 0.0,
			"0.025": 0.0
		}
	}
}
