{
	 "smiles": "CC1=CC(=CC=C1N=C=O)C1=CC(C)=C(C=C1)N=C=O", 
	 "Tm": 344.15, 
	 "num_atms": 32, 
	 "gaussian": { 
		 "optdone": 1, 
		 "sigma_profile": "yes", 
		 "theory": "DFT", 
		 "functional": "B3LYP", 
		 "basiset": "6-31G**", 
		 "properties": { 
			 "R2extent": 10477.745, 
			 "electric_dipole_moment_norm": 0.412090633235, 
			 "electric_quadrupole_moment_norm": 32.7469768672, 
			 "total_energy": -876.911035488, 
			 "HOMO_LUMO_gap": 0.16863, 
			 "cosmo_polarized_energy": -8.28, 
			 "cosmo_cavitation_energy": 39.21, 
			 "cosmo_dispersion_energy": -27.11, 
			 "cosmo_repulsion_energy": 2.08, 
			 "cosmo_total_nonelectrostatic_energy": 14.18, 
			 "SMD_solvation_energy": 11.47 
		},
		"coords": [
			{
				"x": -2.2747737096,
				"y": -3.0290231627,
				"z": 1.938679032,
				"element": "C" 
			},
			{
				"x": -1.3194775327,
				"y": -3.0145038019,
				"z": 0.7728098426,
				"element": "C" 
			},
			{
				"x": -0.9552331638,
				"y": -1.8228125874,
				"z": 0.143576726,
				"element": "C" 
			},
			{
				"x": -0.0604385476,
				"y": -1.7788462584,
				"z": -0.9386800961,
				"element": "C" 
			},
			{
				"x": 0.4807862913,
				"y": -2.9931858984,
				"z": -1.3917008342,
				"element": "C" 
			},
			{
				"x": 0.1383991914,
				"y": -4.1954948564,
				"z": -0.7847214936,
				"element": "C" 
			},
			{
				"x": -0.7573721132,
				"y": -4.2129192536,
				"z": 0.2923955637,
				"element": "C" 
			},
			{
				"x": -1.1196644451,
				"y": -5.4087479396,
				"z": 0.9213463992,
				"element": "N" 
			},
			{
				"x": -0.9109937513,
				"y": -6.5982449906,
				"z": 0.8645294379,
				"element": "C" 
			},
			{
				"x": -0.7953511151,
				"y": -7.7705549023,
				"z": 0.9163828385,
				"element": "O" 
			},
			{
				"x": 0.2989223492,
				"y": -0.491206918,
				"z": -1.5807919832,
				"element": "C" 
			},
			{
				"x": 1.6023509534,
				"y": -0.2549251712,
				"z": -2.0488953909,
				"element": "C" 
			},
			{
				"x": 1.9785255056,
				"y": 0.9425057953,
				"z": -2.6599560377,
				"element": "C" 
			},
			{
				"x": 3.3878785244,
				"y": 1.170817609,
				"z": -3.1433199012,
				"element": "C" 
			},
			{
				"x": 1.0004741385,
				"y": 1.9452593546,
				"z": -2.8044455781,
				"element": "C" 
			},
			{
				"x": -0.3061154133,
				"y": 1.7344698036,
				"z": -2.3448045226,
				"element": "C" 
			},
			{
				"x": -0.6508932383,
				"y": 0.5309253234,
				"z": -1.7416555357,
				"element": "C" 
			},
			{
				"x": 1.3744388078,
				"y": 3.1467324346,
				"z": -3.4155474897,
				"element": "N" 
			},
			{
				"x": 0.9150631661,
				"y": 4.218321411,
				"z": -3.735439618,
				"element": "C" 
			},
			{
				"x": 0.59375702,
				"y": 5.2939176938,
				"z": -4.0963170784,
				"element": "O" 
			},
			{
				"x": -1.8081663685,
				"y": -3.4626851427,
				"z": 2.8298204385,
				"element": "H" 
			},
			{
				"x": -3.1587223907,
				"y": -3.6379025845,
				"z": 1.7196372237,
				"element": "H" 
			},
			{
				"x": -2.6076963933,
				"y": -2.0175158218,
				"z": 2.1840438977,
				"element": "H" 
			},
			{
				"x": -1.3640284029,
				"y": -0.8926228735,
				"z": 0.52804056,
				"element": "H" 
			},
			{
				"x": 1.1535258408,
				"y": -3.001230699,
				"z": -2.2435081762,
				"element": "H" 
			},
			{
				"x": 0.5540697425,
				"y": -5.1308337942,
				"z": -1.1480565847,
				"element": "H" 
			},
			{
				"x": 2.3597923669,
				"y": -1.0211035649,
				"z": -1.90950921,
				"element": "H" 
			},
			{
				"x": 4.014780006,
				"y": 0.2974320744,
				"z": -2.9474061295,
				"element": "H" 
			},
			{
				"x": 3.8420262146,
				"y": 2.0371454347,
				"z": -2.6502145646,
				"element": "H" 
			},
			{
				"x": 3.4099557488,
				"y": 1.3751096555,
				"z": -4.2193517761,
				"element": "H" 
			},
			{
				"x": -1.0496163358,
				"y": 2.5155919484,
				"z": -2.4740563494,
				"element": "H" 
			},
			{
				"x": -1.6749029461,
				"y": 0.3736316829,
				"z": -1.4177836099,
				"element": "H" 
			}
		],
		 "valence_orbital": [ 
			{
				"type": "occ",
				"energy": -0.30722,
				"method": "rhf"
			},
			{
				"type": "occ",
				"energy": -0.26053,
				"method": "rhf"
			},
			{
				"type": "occ",
				"energy": -0.25854,
				"method": "rhf"
			},
			{
				"type": "occ",
				"energy": -0.25093,
				"method": "rhf"
			},
			{
				"type": "occ",
				"energy": -0.21664,
				"method": "rhf"
			},
			{
				"type": "unocc",
				"energy": -0.04801,
				"method": "rhf"
			},
			{
				"type": "unocc",
				"energy": -0.01594,
				"method": "rhf"
			},
			{
				"type": "unocc",
				"energy": -0.01051,
				"method": "rhf"
			},
			{
				"type": "unocc",
				"energy": -0.00361,
				"method": "rhf"
			},
			{
				"type": "unocc",
				"energy": 0.01153,
				"method": "rhf"
			}
		],
		"cosmo_sigma_profile": { 
			"-0.025": 0.0,
			"-0.024": 0.0,
			"-0.023": 0.0,
			"-0.022": 0.0,
			"-0.021": 0.0,
			"-0.02": 0.0,
			"-0.019": 0.0,
			"-0.018": 0.0,
			"-0.017": 0.0,
			"-0.016": 0.0,
			"-0.015": 0.0,
			"-0.014": 0.0,
			"-0.013": 0.0,
			"-0.012": 0.0,
			"-0.011": 0.0,
			"-0.01": 0.0,
			"-0.009": 0.000332257417514,
			"-0.008": 2.32808276972,
			"-0.007": 5.82813714603,
			"-0.006": 11.4775793573,
			"-0.005": 20.8147978227,
			"-0.004": 22.8955561894,
			"-0.003": 25.7851552127,
			"-0.002": 29.6379108586,
			"-0.001": 27.6625291924,
			"0.0": 32.8791284196,
			"0.001": 24.9244867287,
			"0.002": 25.3339788376,
			"0.003": 26.2561873064,
			"0.004": 24.6653991611,
			"0.005": 9.64033642643,
			"0.006": 5.40588068985,
			"0.007": 12.0587565606,
			"0.008": 8.4489193005,
			"0.009": 0.0,
			"0.01": 0.0,
			"0.011": 0.0,
			"0.012": 0.0,
			"0.013": 0.0,
			"0.014": 0.0,
			"0.015": 0.0,
			"0.016": 0.0,
			"0.017": 0.0,
			"0.018": 0.0,
			"0.019": 0.0,
			"0.02": 0.0,
			"0.021": 0.0,
			"0.022": 0.0,
			"0.023": 0.0,
			"0.024": 0.0,
			"0.025": 0.0
		}
	}
}
