{
	 "smiles": "NC1=NC(=CO1)C1=C(F)C=CC=C1F", 
	 "Tm": 413.15, 
	 "num_atms": 20, 
	 "gaussian": { 
		 "optdone": 1, 
		 "sigma_profile": "yes", 
		 "theory": "DFT", 
		 "functional": "B3LYP", 
		 "basiset": "6-31G**", 
		 "properties": { 
			 "R2extent": 3492.5232, 
			 "electric_dipole_moment_norm": 1.23736006482, 
			 "electric_quadrupole_moment_norm": 21.4623201856, 
			 "total_energy": -730.956356269, 
			 "HOMO_LUMO_gap": 0.17353, 
			 "cosmo_polarized_energy": -11.84, 
			 "cosmo_cavitation_energy": 25.7, 
			 "cosmo_dispersion_energy": -19.27, 
			 "cosmo_repulsion_energy": 1.47, 
			 "cosmo_total_nonelectrostatic_energy": 7.9, 
			 "SMD_solvation_energy": 4.76 
		},
		"coords": [
			{
				"x": 4.5324027092,
				"y": 1.3459897393,
				"z": 1.9932814769,
				"element": "N" 
			},
			{
				"x": 3.378757984,
				"y": 0.9136447514,
				"z": 1.3893249069,
				"element": "C" 
			},
			{
				"x": 2.3853608149,
				"y": 0.2786432651,
				"z": 1.9286186827,
				"element": "N" 
			},
			{
				"x": 1.4490242808,
				"y": 0.1634140101,
				"z": 0.8905351795,
				"element": "C" 
			},
			{
				"x": 1.9638486946,
				"y": 0.7447215387,
				"z": -0.2320988091,
				"element": "C" 
			},
			{
				"x": 3.2163956415,
				"y": 1.23677761,
				"z": 0.0819627908,
				"element": "O" 
			},
			{
				"x": 0.1513709471,
				"y": -0.4963603282,
				"z": 1.0679679257,
				"element": "C" 
			},
			{
				"x": -0.2820156554,
				"y": -1.0674536436,
				"z": 2.2808953895,
				"element": "C" 
			},
			{
				"x": 0.5116749085,
				"y": -1.0265072136,
				"z": 3.3614229133,
				"element": "F" 
			},
			{
				"x": -1.5180120003,
				"y": -1.6890064727,
				"z": 2.4299144732,
				"element": "C" 
			},
			{
				"x": -2.3868559028,
				"y": -1.7639790701,
				"z": 1.3442898788,
				"element": "C" 
			},
			{
				"x": -2.0123677066,
				"y": -1.2164935913,
				"z": 0.1172908215,
				"element": "C" 
			},
			{
				"x": -0.7723551113,
				"y": -0.6067384422,
				"z": 0.0129334251,
				"element": "C" 
			},
			{
				"x": -0.4344568277,
				"y": -0.0837976162,
				"z": -1.1901894184,
				"element": "F" 
			},
			{
				"x": 4.7156137519,
				"y": 0.8820086973,
				"z": 2.8716880215,
				"element": "H" 
			},
			{
				"x": 5.3366457157,
				"y": 1.4159765301,
				"z": 1.3854580786,
				"element": "H" 
			},
			{
				"x": 1.6333358598,
				"y": 0.8904571555,
				"z": -1.2430669742,
				"element": "H" 
			},
			{
				"x": -1.7725013744,
				"y": -2.1021198988,
				"z": 3.399330576,
				"element": "H" 
			},
			{
				"x": -3.3525491888,
				"y": -2.2467782573,
				"z": 1.4522281947,
				"element": "H" 
			},
			{
				"x": -2.6561175407,
				"y": -1.2515987633,
				"z": -0.753987533,
				"element": "H" 
			}
		],
		 "valence_orbital": [ 
			{
				"type": "occ",
				"energy": -0.3202,
				"method": "rhf"
			},
			{
				"type": "occ",
				"energy": -0.27712,
				"method": "rhf"
			},
			{
				"type": "occ",
				"energy": -0.25507,
				"method": "rhf"
			},
			{
				"type": "occ",
				"energy": -0.24415,
				"method": "rhf"
			},
			{
				"type": "occ",
				"energy": -0.20304,
				"method": "rhf"
			},
			{
				"type": "unocc",
				"energy": -0.02951,
				"method": "rhf"
			},
			{
				"type": "unocc",
				"energy": 0.00216,
				"method": "rhf"
			},
			{
				"type": "unocc",
				"energy": 0.03673,
				"method": "rhf"
			},
			{
				"type": "unocc",
				"energy": 0.07446,
				"method": "rhf"
			},
			{
				"type": "unocc",
				"energy": 0.0816,
				"method": "rhf"
			}
		],
		"cosmo_sigma_profile": { 
			"-0.025": 0.0,
			"-0.024": 0.0,
			"-0.023": 0.0,
			"-0.022": 0.0,
			"-0.021": 0.0,
			"-0.02": 0.0,
			"-0.019": 0.0,
			"-0.018": 0.0,
			"-0.017": 0.0,
			"-0.016": 0.0,
			"-0.015": 0.465699627515,
			"-0.014": 2.36107158827,
			"-0.013": 2.62498839137,
			"-0.012": 2.50509715209,
			"-0.011": 2.57370826719,
			"-0.01": 1.59452407225,
			"-0.009": 2.42631253328,
			"-0.008": 3.6713171424,
			"-0.007": 8.37584820681,
			"-0.006": 8.86835638041,
			"-0.005": 8.70308099627,
			"-0.004": 6.72227992193,
			"-0.003": 8.37962190736,
			"-0.002": 8.16516046883,
			"-0.001": 7.72614913352,
			"0.0": 19.2168249789,
			"0.001": 26.0519078621,
			"0.002": 22.0328251306,
			"0.003": 20.2255715077,
			"0.004": 14.9182629579,
			"0.005": 7.25513981756,
			"0.006": 4.8183669673,
			"0.007": 4.09895917462,
			"0.008": 2.32712935628,
			"0.009": 1.75718115627,
			"0.01": 2.91088927942,
			"0.011": 1.21968290193,
			"0.012": 1.66159515632,
			"0.013": 1.32470435274,
			"0.014": 1.50525925934,
			"0.015": 0.702116500618,
			"0.016": 0.0,
			"0.017": 0.0,
			"0.018": 0.0,
			"0.019": 0.0,
			"0.02": 0.0,
			"0.021": 0.0,
			"0.022": 0.0,
			"0.023": 0.0,
			"0.024": 0.0,
			"0.025": 0.0
		}
	}
}
