{
	 "smiles": "CC(=C)C(=O)OC1=CC=C(C=C1)C(C)(C)C1=CC=C(OC(=O)C(C)=C)C=C1", 
	 "Tm": 346.15, 
	 "num_atms": 51, 
	 "gaussian": { 
		 "optdone": 1, 
		 "sigma_profile": "yes", 
		 "theory": "DFT", 
		 "functional": "B3LYP", 
		 "basiset": "6-31G**", 
		 "properties": { 
			 "R2extent": 17513.028, 
			 "electric_dipole_moment_norm": 1.93307467781, 
			 "electric_quadrupole_moment_norm": 16.8065014506, 
			 "total_energy": -1191.79847821, 
			 "HOMO_LUMO_gap": 0.17724, 
			 "cosmo_polarized_energy": -13.65, 
			 "cosmo_cavitation_energy": 55.29, 
			 "cosmo_dispersion_energy": -37.12, 
			 "cosmo_repulsion_energy": 2.8, 
			 "cosmo_total_nonelectrostatic_energy": 20.97, 
			 "SMD_solvation_energy": 12.86 
		},
		"coords": [
			{
				"x": 5.7613886203,
				"y": 4.7595110774,
				"z": -0.7399259101,
				"element": "C" 
			},
			{
				"x": 5.7034334953,
				"y": 3.6270650953,
				"z": 0.250948207,
				"element": "C" 
			},
			{
				"x": 6.6779780929,
				"y": 3.3477483015,
				"z": 1.1262127288,
				"element": "C" 
			},
			{
				"x": 4.4479957649,
				"y": 2.8196089588,
				"z": 0.1952109483,
				"element": "C" 
			},
			{
				"x": 3.5315362296,
				"y": 3.0579518826,
				"z": -0.5605854928,
				"element": "O" 
			},
			{
				"x": 4.454051209,
				"y": 1.7833594232,
				"z": 1.0893708169,
				"element": "O" 
			},
			{
				"x": 3.3644358215,
				"y": 0.9177111676,
				"z": 1.190726248,
				"element": "C" 
			},
			{
				"x": 2.0457607436,
				"y": 1.3633649923,
				"z": 1.2961511711,
				"element": "C" 
			},
			{
				"x": 1.0317082336,
				"y": 0.4265768296,
				"z": 1.4725755756,
				"element": "C" 
			},
			{
				"x": 1.2940645869,
				"y": -0.951667051,
				"z": 1.5559356599,
				"element": "C" 
			},
			{
				"x": 2.6282064404,
				"y": -1.3627979484,
				"z": 1.4516490452,
				"element": "C" 
			},
			{
				"x": 3.6594308883,
				"y": -0.4385384903,
				"z": 1.2679368554,
				"element": "C" 
			},
			{
				"x": 0.1291853433,
				"y": -1.9298816763,
				"z": 1.8090858296,
				"element": "C" 
			},
			{
				"x": -0.340687935,
				"y": -1.726761633,
				"z": 3.2699756854,
				"element": "C" 
			},
			{
				"x": 0.5608829892,
				"y": -3.408999475,
				"z": 1.6607454681,
				"element": "C" 
			},
			{
				"x": -0.9982543933,
				"y": -1.672272383,
				"z": 0.7891698837,
				"element": "C" 
			},
			{
				"x": -2.3420136574,
				"y": -1.5305231478,
				"z": 1.1551707268,
				"element": "C" 
			},
			{
				"x": -3.352998694,
				"y": -1.3506716589,
				"z": 0.2063375437,
				"element": "C" 
			},
			{
				"x": -3.0131749803,
				"y": -1.318483021,
				"z": -1.1432316706,
				"element": "C" 
			},
			{
				"x": -3.9255577283,
				"y": -1.0700249419,
				"z": -2.1691363174,
				"element": "O" 
			},
			{
				"x": -5.1816845503,
				"y": -1.6150260703,
				"z": -2.1703437548,
				"element": "C" 
			},
			{
				"x": -5.6090985052,
				"y": -2.3419568742,
				"z": -1.3013710207,
				"element": "O" 
			},
			{
				"x": -5.9316000109,
				"y": -1.1830436609,
				"z": -3.3929978425,
				"element": "C" 
			},
			{
				"x": -5.2668390772,
				"y": -0.2620163027,
				"z": -4.3828849555,
				"element": "C" 
			},
			{
				"x": -7.1767595029,
				"y": -1.65556078,
				"z": -3.5326974785,
				"element": "C" 
			},
			{
				"x": -1.6823507712,
				"y": -1.4505886459,
				"z": -1.5412046861,
				"element": "C" 
			},
			{
				"x": -0.6914799338,
				"y": -1.6235357966,
				"z": -0.5812695551,
				"element": "C" 
			},
			{
				"x": 6.7007583689,
				"y": 5.3096166974,
				"z": -0.6481100869,
				"element": "H" 
			},
			{
				"x": 4.9279794629,
				"y": 5.4531122923,
				"z": -0.5882907492,
				"element": "H" 
			},
			{
				"x": 5.6684743584,
				"y": 4.38599693,
				"z": -1.7649276007,
				"element": "H" 
			},
			{
				"x": 6.5965111829,
				"y": 2.5231632608,
				"z": 1.8240731036,
				"element": "H" 
			},
			{
				"x": 7.583796071,
				"y": 3.9461802508,
				"z": 1.1608308943,
				"element": "H" 
			},
			{
				"x": 1.8162206988,
				"y": 2.4187279201,
				"z": 1.2256999927,
				"element": "H" 
			},
			{
				"x": 0.0055854548,
				"y": 0.7770159287,
				"z": 1.5351500009,
				"element": "H" 
			},
			{
				"x": 2.8860295106,
				"y": -2.4140992823,
				"z": 1.5095054398,
				"element": "H" 
			},
			{
				"x": 4.6920770486,
				"y": -0.7620637183,
				"z": 1.186482,
				"element": "H" 
			},
			{
				"x": -1.1190391507,
				"y": -2.4464537966,
				"z": 3.5439867036,
				"element": "H" 
			},
			{
				"x": 0.5038549598,
				"y": -1.875714786,
				"z": 3.9490374802,
				"element": "H" 
			},
			{
				"x": -0.728491724,
				"y": -0.7179850871,
				"z": 3.4381020906,
				"element": "H" 
			},
			{
				"x": -0.3073781114,
				"y": -4.0585492689,
				"z": 1.8039090987,
				"element": "H" 
			},
			{
				"x": 1.3104052169,
				"y": -3.6848075259,
				"z": 2.4100389355,
				"element": "H" 
			},
			{
				"x": 0.9711075224,
				"y": -3.6171250831,
				"z": 0.6683837174,
				"element": "H" 
			},
			{
				"x": -2.6295430588,
				"y": -1.5561582968,
				"z": 2.2001045733,
				"element": "H" 
			},
			{
				"x": -4.3842596051,
				"y": -1.2509139683,
				"z": 0.5161907194,
				"element": "H" 
			},
			{
				"x": -4.9714821846,
				"y": 0.6810652619,
				"z": -3.9115929792,
				"element": "H" 
			},
			{
				"x": -5.9420935334,
				"y": -0.0395025311,
				"z": -5.212926171,
				"element": "H" 
			},
			{
				"x": -4.3525062272,
				"y": -0.7080275795,
				"z": -4.7875484434,
				"element": "H" 
			},
			{
				"x": -7.78795865,
				"y": -1.3931906784,
				"z": -4.3906793009,
				"element": "H" 
			},
			{
				"x": -7.6017781068,
				"y": -2.3162468167,
				"z": -2.7849677667,
				"element": "H" 
			},
			{
				"x": -1.4392719557,
				"y": -1.4070388924,
				"z": -2.597857158,
				"element": "H" 
			},
			{
				"x": 0.3424437329,
				"y": -1.7083494016,
				"z": -0.9024482032,
				"element": "H" 
			}
		],
		 "valence_orbital": [ 
			{
				"type": "occ",
				"energy": -0.26823,
				"method": "rhf"
			},
			{
				"type": "occ",
				"energy": -0.25236,
				"method": "rhf"
			},
			{
				"type": "occ",
				"energy": -0.24918,
				"method": "rhf"
			},
			{
				"type": "occ",
				"energy": -0.23959,
				"method": "rhf"
			},
			{
				"type": "occ",
				"energy": -0.22452,
				"method": "rhf"
			},
			{
				"type": "unocc",
				"energy": -0.04728,
				"method": "rhf"
			},
			{
				"type": "unocc",
				"energy": -0.04528,
				"method": "rhf"
			},
			{
				"type": "unocc",
				"energy": -0.00754,
				"method": "rhf"
			},
			{
				"type": "unocc",
				"energy": -0.00022,
				"method": "rhf"
			},
			{
				"type": "unocc",
				"energy": 0.00186,
				"method": "rhf"
			}
		],
		"cosmo_sigma_profile": { 
			"-0.025": 0.0,
			"-0.024": 0.0,
			"-0.023": 0.0,
			"-0.022": 0.0,
			"-0.021": 0.0,
			"-0.02": 0.0,
			"-0.019": 0.0,
			"-0.018": 0.0,
			"-0.017": 0.0,
			"-0.016": 0.0,
			"-0.015": 0.0,
			"-0.014": 0.0,
			"-0.013": 0.0,
			"-0.012": 0.0,
			"-0.011": 0.0,
			"-0.01": 0.0,
			"-0.009": 0.0,
			"-0.008": 0.0,
			"-0.007": 2.44766103272,
			"-0.006": 12.4596328376,
			"-0.005": 25.7721685072,
			"-0.004": 39.9647158476,
			"-0.003": 50.9198529656,
			"-0.002": 44.6574927293,
			"-0.001": 45.8698610064,
			"0.0": 45.7639420512,
			"0.001": 35.8363047715,
			"0.002": 30.0849880219,
			"0.003": 30.8002718045,
			"0.004": 24.6254926588,
			"0.005": 16.8932008269,
			"0.006": 5.30951919834,
			"0.007": 2.9319235531,
			"0.008": 3.44337646814,
			"0.009": 4.58796232856,
			"0.01": 4.12059908223,
			"0.011": 7.83851447387,
			"0.012": 4.22616908351,
			"0.013": 0.0,
			"0.014": 0.0,
			"0.015": 0.0,
			"0.016": 0.0,
			"0.017": 0.0,
			"0.018": 0.0,
			"0.019": 0.0,
			"0.02": 0.0,
			"0.021": 0.0,
			"0.022": 0.0,
			"0.023": 0.0,
			"0.024": 0.0,
			"0.025": 0.0
		}
	}
}
