{
	 "smiles": "CC1=CC=C(C=C1)C1=CNN=C1", 
	 "Tm": 491.15, 
	 "num_atms": 22, 
	 "gaussian": { 
		 "optdone": 1, 
		 "sigma_profile": "yes", 
		 "theory": "DFT", 
		 "functional": "B3LYP", 
		 "basiset": "6-31G**", 
		 "properties": { 
			 "R2extent": 3226.3878, 
			 "electric_dipole_moment_norm": 2.24639058269, 
			 "electric_quadrupole_moment_norm": 15.2417465607, 
			 "total_energy": -496.581729493, 
			 "HOMO_LUMO_gap": 0.19845, 
			 "cosmo_polarized_energy": -11.09, 
			 "cosmo_cavitation_energy": 25.91, 
			 "cosmo_dispersion_energy": -19.19, 
			 "cosmo_repulsion_energy": 1.51, 
			 "cosmo_total_nonelectrostatic_energy": 8.24, 
			 "SMD_solvation_energy": 3.78 
		},
		"coords": [
			{
				"x": 0.4819359781,
				"y": 3.0159781991,
				"z": -0.5473622127,
				"element": "C" 
			},
			{
				"x": 0.5481798229,
				"y": 1.5258022417,
				"z": -0.3098783578,
				"element": "C" 
			},
			{
				"x": 1.6253898356,
				"y": 0.947214587,
				"z": 0.3738542833,
				"element": "C" 
			},
			{
				"x": 1.7062041555,
				"y": -0.4301238465,
				"z": 0.5650486413,
				"element": "C" 
			},
			{
				"x": 0.7019434265,
				"y": -1.2884862113,
				"z": 0.0873289973,
				"element": "C" 
			},
			{
				"x": -0.3838899882,
				"y": -0.7065531407,
				"z": -0.5885884704,
				"element": "C" 
			},
			{
				"x": -0.4544003627,
				"y": 0.6701091047,
				"z": -0.7857210115,
				"element": "C" 
			},
			{
				"x": 0.7863295836,
				"y": -2.7405420774,
				"z": 0.2952932934,
				"element": "C" 
			},
			{
				"x": 0.2068191794,
				"y": -3.7511833625,
				"z": -0.4613730747,
				"element": "C" 
			},
			{
				"x": 0.5657956,
				"y": -4.9250817481,
				"z": 0.1176375363,
				"element": "N" 
			},
			{
				"x": 1.3435557456,
				"y": -4.7663592747,
				"z": 1.209691954,
				"element": "N" 
			},
			{
				"x": 1.4797075343,
				"y": -3.4478403016,
				"z": 1.3172606591,
				"element": "C" 
			},
			{
				"x": -0.5530827505,
				"y": 3.3667937316,
				"z": -0.6055211474,
				"element": "H" 
			},
			{
				"x": 0.9712062037,
				"y": 3.2917653418,
				"z": -1.4904016639,
				"element": "H" 
			},
			{
				"x": 0.9827147813,
				"y": 3.5718272945,
				"z": 0.251301035,
				"element": "H" 
			},
			{
				"x": 2.4185291859,
				"y": 1.5847231316,
				"z": 0.7576394366,
				"element": "H" 
			},
			{
				"x": 2.5667514253,
				"y": -0.8473364904,
				"z": 1.080106057,
				"element": "H" 
			},
			{
				"x": -1.1942535393,
				"y": -1.3377486258,
				"z": -0.9431142643,
				"element": "H" 
			},
			{
				"x": -1.3108770757,
				"y": 1.0898501361,
				"z": -1.308345712,
				"element": "H" 
			},
			{
				"x": -0.3965829308,
				"y": -3.7181721327,
				"z": -1.3565902149,
				"element": "H" 
			},
			{
				"x": 0.3257593156,
				"y": -5.8576576725,
				"z": -0.179758906,
				"element": "H" 
			},
			{
				"x": 2.0537648739,
				"y": -3.0375788838,
				"z": 2.1372931423,
				"element": "H" 
			}
		],
		 "valence_orbital": [ 
			{
				"type": "occ",
				"energy": -0.28682,
				"method": "rhf"
			},
			{
				"type": "occ",
				"energy": -0.27456,
				"method": "rhf"
			},
			{
				"type": "occ",
				"energy": -0.25367,
				"method": "rhf"
			},
			{
				"type": "occ",
				"energy": -0.24571,
				"method": "rhf"
			},
			{
				"type": "occ",
				"energy": -0.20917,
				"method": "rhf"
			},
			{
				"type": "unocc",
				"energy": -0.01072,
				"method": "rhf"
			},
			{
				"type": "unocc",
				"energy": 0.00195,
				"method": "rhf"
			},
			{
				"type": "unocc",
				"energy": 0.02471,
				"method": "rhf"
			},
			{
				"type": "unocc",
				"energy": 0.07975,
				"method": "rhf"
			},
			{
				"type": "unocc",
				"energy": 0.08791,
				"method": "rhf"
			}
		],
		"cosmo_sigma_profile": { 
			"-0.025": 0.0,
			"-0.024": 0.0,
			"-0.023": 0.0,
			"-0.022": 0.0,
			"-0.021": 0.0,
			"-0.02": 0.0,
			"-0.019": 0.0,
			"-0.018": 0.0,
			"-0.017": 0.301303764615,
			"-0.016": 1.70215272319,
			"-0.015": 1.43479606427,
			"-0.014": 1.25040709268,
			"-0.013": 1.02524011808,
			"-0.012": 0.713961733883,
			"-0.011": 1.21628496139,
			"-0.01": 1.01441259593,
			"-0.009": 2.5038939711,
			"-0.008": 3.19886924908,
			"-0.007": 3.72736294508,
			"-0.006": 6.37056078784,
			"-0.005": 11.236498839,
			"-0.004": 16.4441004618,
			"-0.003": 16.6314345523,
			"-0.002": 13.8646517497,
			"-0.001": 14.1591535966,
			"0.0": 16.4392369544,
			"0.001": 12.6813773581,
			"0.002": 10.7865970853,
			"0.003": 11.1036148901,
			"0.004": 16.8115630482,
			"0.005": 15.7630378333,
			"0.006": 11.4936506248,
			"0.007": 3.25063869025,
			"0.008": 1.57077368118,
			"0.009": 1.33168555753,
			"0.01": 1.89883709288,
			"0.011": 1.33680020563,
			"0.012": 1.18838474014,
			"0.013": 0.985719109193,
			"0.014": 1.30426381523,
			"0.015": 1.13239943049,
			"0.016": 0.792865419361,
			"0.017": 0.0764972765174,
			"0.018": 0.0,
			"0.019": 0.0,
			"0.02": 0.0,
			"0.021": 0.0,
			"0.022": 0.0,
			"0.023": 0.0,
			"0.024": 0.0,
			"0.025": 0.0
		}
	}
}
