{
	 "smiles": "COC1=C(NC(=O)CC(=O)NC2=C(OC)C=CC(Cl)=C2)C=C(Cl)C=C1", 
	 "Tm": 372.65, 
	 "num_atms": 41, 
	 "gaussian": { 
		 "optdone": 1, 
		 "sigma_profile": "yes", 
		 "theory": "DFT", 
		 "functional": "B3LYP", 
		 "basiset": "6-31G**", 
		 "properties": { 
			 "R2extent": 10182.2556, 
			 "electric_dipole_moment_norm": 6.61375262767, 
			 "electric_quadrupole_moment_norm": 26.6262174334, 
			 "total_energy": -1988.23167398, 
			 "HOMO_LUMO_gap": 0.18784, 
			 "cosmo_polarized_energy": -24.84, 
			 "cosmo_cavitation_energy": 49.75, 
			 "cosmo_dispersion_energy": -31.17, 
			 "cosmo_repulsion_energy": 2.41, 
			 "cosmo_total_nonelectrostatic_energy": 20.99, 
			 "SMD_solvation_energy": 10.41 
		},
		"coords": [
			{
				"x": 0.165046247,
				"y": 2.9789223505,
				"z": 1.621243718,
				"element": "C" 
			},
			{
				"x": -0.4714238622,
				"y": 2.2323297638,
				"z": 0.5906592671,
				"element": "O" 
			},
			{
				"x": -1.4472109049,
				"y": 1.3486672634,
				"z": 0.9386273884,
				"element": "C" 
			},
			{
				"x": -2.0838006181,
				"y": 0.663816592,
				"z": -0.1231846291,
				"element": "C" 
			},
			{
				"x": -1.7497304631,
				"y": 0.9420239897,
				"z": -1.4746043142,
				"element": "N" 
			},
			{
				"x": -0.6032556067,
				"y": 0.6088722644,
				"z": -2.16837769,
				"element": "C" 
			},
			{
				"x": -0.4877430144,
				"y": 0.8884678665,
				"z": -3.3502527159,
				"element": "O" 
			},
			{
				"x": 0.5013141785,
				"y": -0.0909351631,
				"z": -1.3860326411,
				"element": "C" 
			},
			{
				"x": 0.0901768328,
				"y": -1.4798834617,
				"z": -0.907874704,
				"element": "C" 
			},
			{
				"x": -0.7871159253,
				"y": -2.1346332349,
				"z": -1.4494730474,
				"element": "O" 
			},
			{
				"x": 0.7582604097,
				"y": -1.9780858781,
				"z": 0.1928934607,
				"element": "N" 
			},
			{
				"x": 1.8263787321,
				"y": -1.3933892448,
				"z": 0.9219136592,
				"element": "C" 
			},
			{
				"x": 3.1051835642,
				"y": -1.2357677717,
				"z": 0.3360485766,
				"element": "C" 
			},
			{
				"x": 3.2255511699,
				"y": -1.6372529891,
				"z": -0.9556130939,
				"element": "O" 
			},
			{
				"x": 4.4959561604,
				"y": -1.5293172121,
				"z": -1.5876864527,
				"element": "C" 
			},
			{
				"x": 4.1450995911,
				"y": -0.6895649675,
				"z": 1.0971138692,
				"element": "C" 
			},
			{
				"x": 3.9361826138,
				"y": -0.3195837433,
				"z": 2.4274801423,
				"element": "C" 
			},
			{
				"x": 2.6788050632,
				"y": -0.488393437,
				"z": 2.9972068793,
				"element": "C" 
			},
			{
				"x": 2.4024676475,
				"y": -0.0139831733,
				"z": 4.6692164162,
				"element": "Cl" 
			},
			{
				"x": 1.6257903763,
				"y": -1.017335572,
				"z": 2.2512477621,
				"element": "C" 
			},
			{
				"x": -3.1005746801,
				"y": -0.250484101,
				"z": 0.1598623515,
				"element": "C" 
			},
			{
				"x": -3.4920100311,
				"y": -0.4802061408,
				"z": 1.4775256839,
				"element": "C" 
			},
			{
				"x": -4.7811754594,
				"y": -1.6276611308,
				"z": 1.8123096737,
				"element": "Cl" 
			},
			{
				"x": -2.8643473889,
				"y": 0.1799003396,
				"z": 2.5289531463,
				"element": "C" 
			},
			{
				"x": -1.8381620559,
				"y": 1.0873569517,
				"z": 2.2573527469,
				"element": "C" 
			},
			{
				"x": 0.7054295546,
				"y": 2.3261608785,
				"z": 2.3174761904,
				"element": "H" 
			},
			{
				"x": -0.5571019035,
				"y": 3.5877298944,
				"z": 2.1787942021,
				"element": "H" 
			},
			{
				"x": 0.8750855802,
				"y": 3.634996681,
				"z": 1.1165124354,
				"element": "H" 
			},
			{
				"x": -2.4816431935,
				"y": 1.2967147816,
				"z": -2.0775207005,
				"element": "H" 
			},
			{
				"x": 0.8287031698,
				"y": 0.5362398586,
				"z": -0.5527793052,
				"element": "H" 
			},
			{
				"x": 1.3423980318,
				"y": -0.2043727492,
				"z": -2.073509389,
				"element": "H" 
			},
			{
				"x": 0.4186777715,
				"y": -2.8869398509,
				"z": 0.4842987958,
				"element": "H" 
			},
			{
				"x": 4.8292277062,
				"y": -0.4859405987,
				"z": -1.6453856189,
				"element": "H" 
			},
			{
				"x": 4.3592416046,
				"y": -1.9204266798,
				"z": -2.5960966057,
				"element": "H" 
			},
			{
				"x": 5.2542453371,
				"y": -2.1255959896,
				"z": -1.0657179991,
				"element": "H" 
			},
			{
				"x": 5.1305478301,
				"y": -0.5591822904,
				"z": 0.6670749692,
				"element": "H" 
			},
			{
				"x": 4.7497270833,
				"y": 0.0960294301,
				"z": 3.0114620942,
				"element": "H" 
			},
			{
				"x": 0.6395802601,
				"y": -1.133334275,
				"z": 2.6866159514,
				"element": "H" 
			},
			{
				"x": -3.5618267655,
				"y": -0.7906489299,
				"z": -0.6585345618,
				"element": "H" 
			},
			{
				"x": -3.1697623067,
				"y": -0.007134365,
				"z": 3.5523942517,
				"element": "H" 
			},
			{
				"x": -1.3623923364,
				"y": 1.6009240438,
				"z": 3.0837598369,
				"element": "H" 
			}
		],
		 "valence_orbital": [ 
			{
				"type": "occ",
				"energy": -0.25361,
				"method": "rhf"
			},
			{
				"type": "occ",
				"energy": -0.25006,
				"method": "rhf"
			},
			{
				"type": "occ",
				"energy": -0.24295,
				"method": "rhf"
			},
			{
				"type": "occ",
				"energy": -0.23449,
				"method": "rhf"
			},
			{
				"type": "occ",
				"energy": -0.22468,
				"method": "rhf"
			},
			{
				"type": "unocc",
				"energy": -0.03684,
				"method": "rhf"
			},
			{
				"type": "unocc",
				"energy": -0.02668,
				"method": "rhf"
			},
			{
				"type": "unocc",
				"energy": -0.01738,
				"method": "rhf"
			},
			{
				"type": "unocc",
				"energy": -0.00706,
				"method": "rhf"
			},
			{
				"type": "unocc",
				"energy": 0.01591,
				"method": "rhf"
			}
		],
		"cosmo_sigma_profile": { 
			"-0.025": 0.0,
			"-0.024": 0.0,
			"-0.023": 0.0,
			"-0.022": 0.0,
			"-0.021": 0.0,
			"-0.02": 0.0,
			"-0.019": 0.0,
			"-0.018": 0.0,
			"-0.017": 0.0,
			"-0.016": 0.0,
			"-0.015": 0.268632794343,
			"-0.014": 2.35113399012,
			"-0.013": 1.77423646319,
			"-0.012": 1.74038184631,
			"-0.011": 2.01261303167,
			"-0.01": 2.20963025179,
			"-0.009": 1.85217935595,
			"-0.008": 4.96322241576,
			"-0.007": 14.8094903982,
			"-0.006": 25.6664010457,
			"-0.005": 23.4572866062,
			"-0.004": 28.3193318342,
			"-0.003": 28.3185001073,
			"-0.002": 27.6298373086,
			"-0.001": 30.4215423678,
			"0.0": 27.1450307144,
			"0.001": 27.5132073125,
			"0.002": 32.7696765365,
			"0.003": 28.3871276692,
			"0.004": 23.2745131473,
			"0.005": 19.1397918735,
			"0.006": 6.00323723786,
			"0.007": 5.45275773229,
			"0.008": 4.89351974375,
			"0.009": 4.59067013393,
			"0.01": 3.48303400849,
			"0.011": 3.16598249162,
			"0.012": 5.41125049418,
			"0.013": 9.9952490097,
			"0.014": 3.74782405393,
			"0.015": 0.0477932137639,
			"0.016": 0.0,
			"0.017": 0.0,
			"0.018": 0.0,
			"0.019": 0.0,
			"0.02": 0.0,
			"0.021": 0.0,
			"0.022": 0.0,
			"0.023": 0.0,
			"0.024": 0.0,
			"0.0": 0.0
		}
	}
}
