{
	 "smiles": "FC(F)(F)C1=NNC(=O)C1=NNC1=CC=CC=C1", 
	 "Tm": 459.15, 
	 "num_atms": 25, 
	 "gaussian": { 
		 "optdone": 1, 
		 "sigma_profile": "yes", 
		 "theory": "DFT", 
		 "functional": "B3LYP", 
		 "basiset": "6-31G**", 
		 "properties": { 
			 "R2extent": 7294.301, 
			 "electric_dipole_moment_norm": 3.50008539896, 
			 "electric_quadrupole_moment_norm": 16.2076910428, 
			 "total_energy": -978.986442817, 
			 "HOMO_LUMO_gap": 0.12389, 
			 "cosmo_polarized_energy": -12.07, 
			 "cosmo_cavitation_energy": 32.55, 
			 "cosmo_dispersion_energy": -23.06, 
			 "cosmo_repulsion_energy": 1.72, 
			 "cosmo_total_nonelectrostatic_energy": 11.21, 
			 "SMD_solvation_energy": 5.89 
		},
		"coords": [
			{
				"x": -1.7817842967,
				"y": 2.828355358,
				"z": 2.8603494028,
				"element": "F" 
			},
			{
				"x": -2.5004346304,
				"y": 3.5138728317,
				"z": 1.9442527865,
				"element": "C" 
			},
			{
				"x": -3.4887011416,
				"y": 4.1543456936,
				"z": 2.583769981,
				"element": "F" 
			},
			{
				"x": -1.6761842161,
				"y": 4.4404059813,
				"z": 1.4080937857,
				"element": "F" 
			},
			{
				"x": -3.0240101928,
				"y": 2.5929712986,
				"z": 0.8835398516,
				"element": "C" 
			},
			{
				"x": -4.3050139897,
				"y": 2.4644411115,
				"z": 0.6695285132,
				"element": "N" 
			},
			{
				"x": -4.4391051695,
				"y": 1.5534548727,
				"z": -0.354772254,
				"element": "N" 
			},
			{
				"x": -3.2442549874,
				"y": 1.0640777177,
				"z": -0.8346874638,
				"element": "C" 
			},
			{
				"x": -3.0565137826,
				"y": 0.242765834,
				"z": -1.7412428775,
				"element": "O" 
			},
			{
				"x": -2.2491558478,
				"y": 1.7604939443,
				"z": -0.0025941604,
				"element": "C" 
			},
			{
				"x": -0.9400793114,
				"y": 1.6400962244,
				"z": -0.0654121442,
				"element": "N" 
			},
			{
				"x": -0.4616663219,
				"y": 0.8151848091,
				"z": -0.9593630109,
				"element": "N" 
			},
			{
				"x": 0.9193207658,
				"y": 0.6098607199,
				"z": -1.1141416824,
				"element": "C" 
			},
			{
				"x": 1.8561080988,
				"y": 1.2806795457,
				"z": -0.3162767823,
				"element": "C" 
			},
			{
				"x": 3.211666644,
				"y": 1.0365473231,
				"z": -0.5156616599,
				"element": "C" 
			},
			{
				"x": 3.6412156996,
				"y": 0.1362386343,
				"z": -1.4959683302,
				"element": "C" 
			},
			{
				"x": 2.6991721752,
				"y": -0.5263975014,
				"z": -2.2850140069,
				"element": "C" 
			},
			{
				"x": 1.3381432281,
				"y": -0.2942321341,
				"z": -2.0992975202,
				"element": "C" 
			},
			{
				"x": -5.363105133,
				"y": 1.3103902843,
				"z": -0.6778388225,
				"element": "H" 
			},
			{
				"x": -1.1311728428,
				"y": 0.3118350344,
				"z": -1.5573868919,
				"element": "H" 
			},
			{
				"x": 1.5119592553,
				"y": 1.9759036675,
				"z": 0.4399375487,
				"element": "H" 
			},
			{
				"x": 3.9397513631,
				"y": 1.5549223496,
				"z": 0.1010905607,
				"element": "H" 
			},
			{
				"x": 4.7011360882,
				"y": -0.0462238908,
				"z": -1.6425183212,
				"element": "H" 
			},
			{
				"x": 3.0213888182,
				"y": -1.2273577537,
				"z": -3.0489408751,
				"element": "H" 
			},
			{
				"x": 0.6021197275,
				"y": -0.8083319556,
				"z": -2.7117456268,
				"element": "H" 
			}
		],
		 "valence_orbital": [ 
			{
				"type": "occ",
				"energy": -0.31231,
				"method": "rhf"
			},
			{
				"type": "occ",
				"energy": -0.26982,
				"method": "rhf"
			},
			{
				"type": "occ",
				"energy": -0.26633,
				"method": "rhf"
			},
			{
				"type": "occ",
				"energy": -0.26456,
				"method": "rhf"
			},
			{
				"type": "occ",
				"energy": -0.2252,
				"method": "rhf"
			},
			{
				"type": "unocc",
				"energy": -0.10131,
				"method": "rhf"
			},
			{
				"type": "unocc",
				"energy": -0.01911,
				"method": "rhf"
			},
			{
				"type": "unocc",
				"energy": -0.00089,
				"method": "rhf"
			},
			{
				"type": "unocc",
				"energy": 0.00939,
				"method": "rhf"
			},
			{
				"type": "unocc",
				"energy": 0.08054,
				"method": "rhf"
			}
		],
		"cosmo_sigma_profile": { 
			"-0.025": 0.0,
			"-0.024": 0.0,
			"-0.023": 0.0,
			"-0.022": 0.0,
			"-0.021": 0.0,
			"-0.02": 0.0,
			"-0.019": 0.0,
			"-0.018": 0.0,
			"-0.017": 1.09149778068,
			"-0.016": 1.18816459782,
			"-0.015": 1.39556613868,
			"-0.014": 0.946589946523,
			"-0.013": 0.946079001324,
			"-0.012": 1.35951304546,
			"-0.011": 2.40092383474,
			"-0.01": 1.67448247466,
			"-0.009": 1.69388052861,
			"-0.008": 2.59661299266,
			"-0.007": 5.97929687993,
			"-0.006": 11.3659775979,
			"-0.005": 12.9465555867,
			"-0.004": 14.2532921534,
			"-0.003": 14.4031833129,
			"-0.002": 17.3204793495,
			"-0.001": 17.9913854702,
			"0.0": 18.0007185772,
			"0.001": 20.00120232,
			"0.002": 34.091418329,
			"0.003": 33.4189235368,
			"0.004": 18.672385492,
			"0.005": 7.15777451269,
			"0.006": 3.31932571659,
			"0.007": 1.42073544716,
			"0.008": 2.59124679587,
			"0.009": 3.43861029348,
			"0.01": 2.35729149974,
			"0.011": 3.21113041396,
			"0.012": 3.57332456855,
			"0.013": 1.77056096374,
			"0.014": 0.024666939518,
			"0.015": 0.0,
			"0.016": 0.0,
			"0.017": 0.0,
			"0.018": 0.0,
			"0.019": 0.0,
			"0.02": 0.0,
			"0.021": 0.0,
			"0.022": 0.0,
			"0.023": 0.0,
			"0.024": 0.0,
			"0.025": 0.0
		}
	}
}
