{
	 "smiles": "BrC(N(=O)=O)(N(=O)=O)N(=O)=O", 
	 "Tm": 290.65, 
	 "num_atms": 11, 
	 "gaussian": { 
		 "optdone": 1, 
		 "sigma_profile": "yes", 
		 "theory": "DFT", 
		 "functional": "B3LYP", 
		 "basiset": "6-31G**", 
		 "properties": { 
			 "R2extent": 2777.0705, 
			 "electric_dipole_moment_norm": 2.58240171933, 
			 "electric_quadrupole_moment_norm": 10.4828395061, 
			 "total_energy": -3224.72711326, 
			 "HOMO_LUMO_gap": 0.20765, 
			 "cosmo_polarized_energy": -6.9, 
			 "cosmo_cavitation_energy": 20.96, 
			 "cosmo_dispersion_energy": -14.76, 
			 "cosmo_repulsion_energy": 1.19, 
			 "cosmo_total_nonelectrostatic_energy": 7.39, 
			 "SMD_solvation_energy": 9.0 
		},
		"coords": [
			{
				"x": -3.1721932284,
				"y": -0.5384490676,
				"z": 0.4370129668,
				"element": "Br" 
			},
			{
				"x": -1.435312187,
				"y": 0.2147830208,
				"z": 0.4281959407,
				"element": "C" 
			},
			{
				"x": -1.3882931845,
				"y": 1.5675884571,
				"z": -0.3365759288,
				"element": "N" 
			},
			{
				"x": -1.9964388408,
				"y": 1.5981673487,
				"z": -1.385864338,
				"element": "O" 
			},
			{
				"x": -0.7257566158,
				"y": 2.4414404367,
				"z": 0.1901343032,
				"element": "O" 
			},
			{
				"x": -0.3957702626,
				"y": -0.7199576759,
				"z": -0.2521479541,
				"element": "N" 
			},
			{
				"x": 0.3996083811,
				"y": -0.1669666398,
				"z": -0.9880974292,
				"element": "O" 
			},
			{
				"x": -0.4741703434,
				"y": -1.894127774,
				"z": 0.0427947044,
				"element": "O" 
			},
			{
				"x": -0.9120255688,
				"y": 0.4949829787,
				"z": 1.8651540701,
				"element": "N" 
			},
			{
				"x": 0.2530312419,
				"y": 0.2050423981,
				"z": 2.0615411741,
				"element": "O" 
			},
			{
				"x": -1.7135793916,
				"y": 0.9937965171,
				"z": 2.6270524909,
				"element": "O" 
			}
		],
		 "valence_orbital": [ 
			{
				"type": "occ",
				"energy": -0.35492,
				"method": "rhf"
			},
			{
				"type": "occ",
				"energy": -0.34839,
				"method": "rhf"
			},
			{
				"type": "occ",
				"energy": -0.34838,
				"method": "rhf"
			},
			{
				"type": "occ",
				"energy": -0.34056,
				"method": "rhf"
			},
			{
				"type": "occ",
				"energy": -0.34056,
				"method": "rhf"
			},
			{
				"type": "unocc",
				"energy": -0.13291,
				"method": "rhf"
			},
			{
				"type": "unocc",
				"energy": -0.12988,
				"method": "rhf"
			},
			{
				"type": "unocc",
				"energy": -0.12986,
				"method": "rhf"
			},
			{
				"type": "unocc",
				"energy": -0.05348,
				"method": "rhf"
			},
			{
				"type": "unocc",
				"energy": 0.03099,
				"method": "rhf"
			}
		],
		"cosmo_sigma_profile": { 
			"-0.025": 0.0,
			"-0.024": 0.0,
			"-0.023": 0.0,
			"-0.022": 0.0,
			"-0.021": 0.0,
			"-0.02": 0.0,
			"-0.019": 0.0,
			"-0.018": 0.0,
			"-0.017": 0.0,
			"-0.016": 0.0,
			"-0.015": 0.0,
			"-0.014": 0.0,
			"-0.013": 0.155053781627,
			"-0.012": 1.52665982084,
			"-0.011": 1.9335097276,
			"-0.01": 3.12878418609,
			"-0.009": 3.53473068806,
			"-0.008": 3.52438237539,
			"-0.007": 3.50702814384,
			"-0.006": 5.60264656696,
			"-0.005": 5.61937311845,
			"-0.004": 4.34729367937,
			"-0.003": 8.48967444619,
			"-0.002": 13.1416935944,
			"-0.001": 14.2674958723,
			"0.0": 13.5432583703,
			"0.001": 11.1542281029,
			"0.002": 14.6564823473,
			"0.003": 19.1067796052,
			"0.004": 25.88971774,
			"0.005": 13.3538783327,
			"0.006": 5.48798009145,
			"0.007": 0.0143287950732,
			"0.008": 0.0,
			"0.009": 0.0,
			"0.01": 0.0,
			"0.011": 0.0,
			"0.012": 0.0,
			"0.013": 0.0,
			"0.014": 0.0,
			"0.015": 0.0,
			"0.016": 0.0,
			"0.017": 0.0,
			"0.018": 0.0,
			"0.019": 0.0,
			"0.02": 0.0,
			"0.021": 0.0,
			"0.022": 0.0,
			"0.023": 0.0,
			"0.024": 0.0,
			"0.025": 0.0
		}
	}
}
