{
	 "smiles": "FC(Cl)(Cl)C(Cl)Cl", 
	 "Tm": 190.55, 
	 "num_atms": 8, 
	 "gaussian": { 
		 "optdone": 1, 
		 "sigma_profile": "yes", 
		 "theory": "DFT", 
		 "functional": "B3LYP", 
		 "basiset": "6-31G**", 
		 "properties": { 
			 "R2extent": 2246.1224, 
			 "electric_dipole_moment_norm": 1.27134870905, 
			 "electric_quadrupole_moment_norm": 2.59737708468, 
			 "total_energy": -2017.39682807, 
			 "HOMO_LUMO_gap": 0.26779, 
			 "cosmo_polarized_energy": -3.93, 
			 "cosmo_cavitation_energy": 19.33, 
			 "cosmo_dispersion_energy": -14.65, 
			 "cosmo_repulsion_energy": 1.22, 
			 "cosmo_total_nonelectrostatic_energy": 5.9, 
			 "SMD_solvation_energy": 2.41 
		},
		"coords": [
			{
				"x": 0.819131202,
				"y": 1.8296143791,
				"z": -0.5971615062,
				"element": "F" 
			},
			{
				"x": -0.0129348857,
				"y": 0.8235451872,
				"z": -0.9016166729,
				"element": "C" 
			},
			{
				"x": -1.6515958225,
				"y": 1.4969069868,
				"z": -1.203383438,
				"element": "Cl" 
			},
			{
				"x": -0.0970152293,
				"y": -0.3030521674,
				"z": 0.4960210479,
				"element": "Cl" 
			},
			{
				"x": 0.493102053,
				"y": 0.0700070571,
				"z": -2.1625189008,
				"element": "C" 
			},
			{
				"x": 2.109336716,
				"y": -0.6434769569,
				"z": -1.8705054978,
				"element": "Cl" 
			},
			{
				"x": 0.5483529578,
				"y": 1.1653452259,
				"z": -3.5780495986,
				"element": "Cl" 
			},
			{
				"x": -0.1932769913,
				"y": -0.7413897118,
				"z": -2.3945854337,
				"element": "H" 
			}
		],
		 "valence_orbital": [ 
			{
				"type": "occ",
				"energy": -0.34962,
				"method": "rhf"
			},
			{
				"type": "occ",
				"energy": -0.34364,
				"method": "rhf"
			},
			{
				"type": "occ",
				"energy": -0.33458,
				"method": "rhf"
			},
			{
				"type": "occ",
				"energy": -0.3292,
				"method": "rhf"
			},
			{
				"type": "occ",
				"energy": -0.31233,
				"method": "rhf"
			},
			{
				"type": "unocc",
				"energy": -0.04454,
				"method": "rhf"
			},
			{
				"type": "unocc",
				"energy": -0.03408,
				"method": "rhf"
			},
			{
				"type": "unocc",
				"energy": -0.02488,
				"method": "rhf"
			},
			{
				"type": "unocc",
				"energy": 0.04407,
				"method": "rhf"
			},
			{
				"type": "unocc",
				"energy": 0.07293,
				"method": "rhf"
			}
		],
		"cosmo_sigma_profile": { 
			"-0.025": 0.0,
			"-0.024": 0.0,
			"-0.023": 0.0,
			"-0.022": 0.0,
			"-0.021": 0.0,
			"-0.02": 0.0,
			"-0.019": 0.0,
			"-0.018": 0.0,
			"-0.017": 0.0,
			"-0.016": 0.0,
			"-0.015": 0.0,
			"-0.014": 0.0,
			"-0.013": 1.56153839171,
			"-0.012": 1.97840792516,
			"-0.011": 2.03663030998,
			"-0.01": 1.43859167209,
			"-0.009": 1.36397504462,
			"-0.008": 1.42581819828,
			"-0.007": 0.695809521026,
			"-0.006": 0.97033183429,
			"-0.005": 2.89105699132,
			"-0.004": 6.43689800759,
			"-0.003": 7.71118177821,
			"-0.002": 8.78259976107,
			"-0.001": 10.8776320893,
			"0.0": 16.1042054986,
			"0.001": 30.2614799223,
			"0.002": 35.3304966469,
			"0.003": 28.2829408784,
			"0.004": 5.25415048719,
			"0.005": 0.0,
			"0.006": 0.0,
			"0.007": 0.0,
			"0.008": 0.0,
			"0.009": 0.0,
			"0.01": 0.0,
			"0.011": 0.0,
			"0.012": 0.0,
			"0.013": 0.0,
			"0.014": 0.0,
			"0.015": 0.0,
			"0.016": 0.0,
			"0.017": 0.0,
			"0.018": 0.0,
			"0.019": 0.0,
			"0.02": 0.0,
			"0.021": 0.0,
			"0.022": 0.0,
			"0.023": 0.0,
			"0.024": 0.0,
			"0.025": 0.0
		}
	}
}
