{
	 "smiles": "N#CC1CN(C1)C(C1=CC=CC=C1)C1=CC=CC=C1", 
	 "Tm": 427.15, 
	 "num_atms": 35, 
	 "gaussian": { 
		 "optdone": 1, 
		 "sigma_profile": "yes", 
		 "theory": "DFT", 
		 "functional": "B3LYP", 
		 "basiset": "6-31G**", 
		 "properties": { 
			 "R2extent": 5637.2064, 
			 "electric_dipole_moment_norm": 4.81614811545, 
			 "electric_quadrupole_moment_norm": 24.9593517724, 
			 "total_energy": -766.89691328, 
			 "HOMO_LUMO_gap": 0.21246, 
			 "cosmo_polarized_energy": -12.53, 
			 "cosmo_cavitation_energy": 38.11, 
			 "cosmo_dispersion_energy": -25.76, 
			 "cosmo_repulsion_energy": 2.0, 
			 "cosmo_total_nonelectrostatic_energy": 14.35, 
			 "SMD_solvation_energy": 6.39 
		},
		"coords": [
			{
				"x": -4.1156642221,
				"y": 2.0088059452,
				"z": -3.8531790556,
				"element": "N" 
			},
			{
				"x": -2.9914276893,
				"y": 1.9109531492,
				"z": -3.5786346679,
				"element": "C" 
			},
			{
				"x": -1.5774622869,
				"y": 1.7969407623,
				"z": -3.2408060473,
				"element": "C" 
			},
			{
				"x": -1.0321761447,
				"y": 0.3359358889,
				"z": -3.1949852378,
				"element": "C" 
			},
			{
				"x": -1.2032001936,
				"y": 0.3557656408,
				"z": -1.733714627,
				"element": "N" 
			},
			{
				"x": -1.2658028007,
				"y": 1.8299774538,
				"z": -1.7124339414,
				"element": "C" 
			},
			{
				"x": -0.3140738241,
				"y": -0.4267898228,
				"z": -0.8614699899,
				"element": "C" 
			},
			{
				"x": 1.1487171041,
				"y": 0.01222058,
				"z": -0.9398222527,
				"element": "C" 
			},
			{
				"x": 2.0282673383,
				"y": -0.6519547025,
				"z": -1.8063888045,
				"element": "C" 
			},
			{
				"x": 3.3476981575,
				"y": -0.2220948469,
				"z": -1.9651676802,
				"element": "C" 
			},
			{
				"x": 3.8101387477,
				"y": 0.8871089873,
				"z": -1.2566482663,
				"element": "C" 
			},
			{
				"x": 2.9478747662,
				"y": 1.5561466416,
				"z": -0.384754315,
				"element": "C" 
			},
			{
				"x": 1.6312685658,
				"y": 1.12199848,
				"z": -0.2264615351,
				"element": "C" 
			},
			{
				"x": -0.8809339157,
				"y": -0.503750651,
				"z": 0.5600332337,
				"element": "C" 
			},
			{
				"x": -2.2362752283,
				"y": -0.2459324543,
				"z": 0.8037506338,
				"element": "C" 
			},
			{
				"x": -2.7673051524,
				"y": -0.3760582613,
				"z": 2.0885585621,
				"element": "C" 
			},
			{
				"x": -1.9550788131,
				"y": -0.7769233342,
				"z": 3.1495778678,
				"element": "C" 
			},
			{
				"x": -0.606499623,
				"y": -1.0510678608,
				"z": 2.9142863929,
				"element": "C" 
			},
			{
				"x": -0.0746720786,
				"y": -0.9143743513,
				"z": 1.6318141435,
				"element": "C" 
			},
			{
				"x": -1.0011375971,
				"y": 2.4947029297,
				"z": -3.8525708287,
				"element": "H" 
			},
			{
				"x": 0.0147934849,
				"y": 0.3082451605,
				"z": -3.5326111937,
				"element": "H" 
			},
			{
				"x": -1.6072423533,
				"y": -0.4355157847,
				"z": -3.7174535068,
				"element": "H" 
			},
			{
				"x": -2.0273544887,
				"y": 2.2513229241,
				"z": -1.0498289424,
				"element": "H" 
			},
			{
				"x": -0.3030211119,
				"y": 2.3275351387,
				"z": -1.5302293276,
				"element": "H" 
			},
			{
				"x": -0.3603060916,
				"y": -1.4441245008,
				"z": -1.2779235308,
				"element": "H" 
			},
			{
				"x": 1.6787327664,
				"y": -1.5244630522,
				"z": -2.3539347544,
				"element": "H" 
			},
			{
				"x": 4.0130058702,
				"y": -0.757261292,
				"z": -2.6368577405,
				"element": "H" 
			},
			{
				"x": 4.8360758325,
				"y": 1.2233335202,
				"z": -1.3754531527,
				"element": "H" 
			},
			{
				"x": 3.3029942607,
				"y": 2.4140814866,
				"z": 0.1793411928,
				"element": "H" 
			},
			{
				"x": 0.9789626709,
				"y": 1.6308808329,
				"z": 0.4771454782,
				"element": "H" 
			},
			{
				"x": -2.8724317227,
				"y": 0.0433798449,
				"z": -0.0254674908,
				"element": "H" 
			},
			{
				"x": -3.8200779705,
				"y": -0.1665808618,
				"z": 2.2569025918,
				"element": "H" 
			},
			{
				"x": -2.3682751967,
				"y": -0.8783758367,
				"z": 4.1490875852,
				"element": "H" 
			},
			{
				"x": 0.0355880216,
				"y": -1.3708707053,
				"z": 3.7303617243,
				"element": "H" 
			},
			{
				"x": 0.9763009183,
				"y": -1.128397048,
				"z": 1.463537483,
				"element": "H" 
			}
		],
		 "valence_orbital": [ 
			{
				"type": "occ",
				"energy": -0.26069,
				"method": "rhf"
			},
			{
				"type": "occ",
				"energy": -0.26027,
				"method": "rhf"
			},
			{
				"type": "occ",
				"energy": -0.24756,
				"method": "rhf"
			},
			{
				"type": "occ",
				"energy": -0.24171,
				"method": "rhf"
			},
			{
				"type": "occ",
				"energy": -0.22933,
				"method": "rhf"
			},
			{
				"type": "unocc",
				"energy": -0.01687,
				"method": "rhf"
			},
			{
				"type": "unocc",
				"energy": -0.0133,
				"method": "rhf"
			},
			{
				"type": "unocc",
				"energy": -0.00406,
				"method": "rhf"
			},
			{
				"type": "unocc",
				"energy": 0.00285,
				"method": "rhf"
			},
			{
				"type": "unocc",
				"energy": 0.03241,
				"method": "rhf"
			}
		],
		"cosmo_sigma_profile": { 
			"-0.025": 0.0,
			"-0.024": 0.0,
			"-0.023": 0.0,
			"-0.022": 0.0,
			"-0.021": 0.0,
			"-0.02": 0.0,
			"-0.019": 0.0,
			"-0.018": 0.0,
			"-0.017": 0.0,
			"-0.016": 0.0,
			"-0.015": 0.0,
			"-0.014": 0.0,
			"-0.013": 0.0,
			"-0.012": 0.0,
			"-0.011": 0.0,
			"-0.01": 0.0,
			"-0.009": 0.379275423508,
			"-0.008": 3.23404952529,
			"-0.007": 3.26619930196,
			"-0.006": 11.2214836526,
			"-0.005": 28.3219263231,
			"-0.004": 36.024001025,
			"-0.003": 35.3841474615,
			"-0.002": 26.2064684458,
			"-0.001": 18.6679094691,
			"0.0": 17.6437626296,
			"0.001": 15.0432884749,
			"0.002": 16.2791100899,
			"0.003": 17.874646773,
			"0.004": 18.492921427,
			"0.005": 16.1412169824,
			"0.006": 16.0087859323,
			"0.007": 4.96444527858,
			"0.008": 3.47319513588,
			"0.009": 4.14978681746,
			"0.01": 3.07883578486,
			"0.011": 3.19721130874,
			"0.012": 2.49102711478,
			"0.013": 2.23957987329,
			"0.014": 0.374749830383,
			"0.015": 0.0,
			"0.016": 0.0,
			"0.017": 0.0,
			"0.018": 0.0,
			"0.019": 0.0,
			"0.02": 0.0,
			"0.021": 0.0,
			"0.022": 0.0,
			"0.023": 0.0,
			"0.024": 0.0,
			"0.025": 0.0
		}
	}
}
