{
	 "smiles": "OC(=O)CC1=C(F)C=CC=C1F", 
	 "Tm": 374.15, 
	 "num_atms": 18, 
	 "gaussian": { 
		 "optdone": 1, 
		 "sigma_profile": "yes", 
		 "theory": "DFT", 
		 "functional": "B3LYP", 
		 "basiset": "6-31G**", 
		 "properties": { 
			 "R2extent": 2361.1609, 
			 "electric_dipole_moment_norm": 1.08655829572, 
			 "electric_quadrupole_moment_norm": 10.4693392413, 
			 "total_energy": -658.600306133, 
			 "HOMO_LUMO_gap": 0.23276, 
			 "cosmo_polarized_energy": -10.19, 
			 "cosmo_cavitation_energy": 24.03, 
			 "cosmo_dispersion_energy": -16.89, 
			 "cosmo_repulsion_energy": 1.33, 
			 "cosmo_total_nonelectrostatic_energy": 8.46, 
			 "SMD_solvation_energy": 6.27 
		},
		"coords": [
			{
				"x": 0.7644833434,
				"y": -3.5047924267,
				"z": -2.5170453853,
				"element": "O" 
			},
			{
				"x": 0.2818536297,
				"y": -2.4507880326,
				"z": -1.8155362452,
				"element": "C" 
			},
			{
				"x": -0.8594031846,
				"y": -2.3867778049,
				"z": -1.4238465862,
				"element": "O" 
			},
			{
				"x": 1.3701933778,
				"y": -1.4059476677,
				"z": -1.612116808,
				"element": "C" 
			},
			{
				"x": 0.9017405577,
				"y": -0.2064139896,
				"z": -0.8387771218,
				"element": "C" 
			},
			{
				"x": 0.9809227905,
				"y": -0.144743281,
				"z": 0.5527541847,
				"element": "C" 
			},
			{
				"x": 1.5099549467,
				"y": -1.2054549564,
				"z": 1.2008917441,
				"element": "F" 
			},
			{
				"x": 0.5548819728,
				"y": 0.9504258207,
				"z": 1.2939748951,
				"element": "C" 
			},
			{
				"x": 0.0115984121,
				"y": 2.0414300676,
				"z": 0.6142595939,
				"element": "C" 
			},
			{
				"x": -0.0968228608,
				"y": 2.0310495985,
				"z": -0.7769953303,
				"element": "C" 
			},
			{
				"x": 0.3456087802,
				"y": 0.9087258016,
				"z": -1.4661598178,
				"element": "C" 
			},
			{
				"x": 0.2467987156,
				"y": 0.8892012471,
				"z": -2.8133450152,
				"element": "F" 
			},
			{
				"x": 0.0251844706,
				"y": -4.1287246554,
				"z": -2.6104930742,
				"element": "H" 
			},
			{
				"x": 2.2045693087,
				"y": -1.895279927,
				"z": -1.1008201134,
				"element": "H" 
			},
			{
				"x": 1.7329243069,
				"y": -1.1119368795,
				"z": -2.6015815046,
				"element": "H" 
			},
			{
				"x": 0.6482310931,
				"y": 0.9330414317,
				"z": 2.3736454587,
				"element": "H" 
			},
			{
				"x": -0.3301892042,
				"y": 2.9065966532,
				"z": 1.1732558604,
				"element": "H" 
			},
			{
				"x": -0.5166304562,
				"y": 2.8645890004,
				"z": -1.3280647348,
				"element": "H" 
			}
		],
		 "valence_orbital": [ 
			{
				"type": "occ",
				"energy": -0.35466,
				"method": "rhf"
			},
			{
				"type": "occ",
				"energy": -0.32199,
				"method": "rhf"
			},
			{
				"type": "occ",
				"energy": -0.27998,
				"method": "rhf"
			},
			{
				"type": "occ",
				"energy": -0.25658,
				"method": "rhf"
			},
			{
				"type": "occ",
				"energy": -0.2491,
				"method": "rhf"
			},
			{
				"type": "unocc",
				"energy": -0.01634,
				"method": "rhf"
			},
			{
				"type": "unocc",
				"energy": -0.00353,
				"method": "rhf"
			},
			{
				"type": "unocc",
				"energy": 0.0099,
				"method": "rhf"
			},
			{
				"type": "unocc",
				"energy": 0.06907,
				"method": "rhf"
			},
			{
				"type": "unocc",
				"energy": 0.08413,
				"method": "rhf"
			}
		],
		"cosmo_sigma_profile": { 
			"-0.025": 0.0,
			"-0.024": 0.0,
			"-0.023": 0.0,
			"-0.022": 0.0,
			"-0.021": 0.0,
			"-0.02": 0.0,
			"-0.019": 0.0606147769209,
			"-0.018": 0.749367288214,
			"-0.017": 1.11727732282,
			"-0.016": 0.752695054102,
			"-0.015": 1.03887351346,
			"-0.014": 0.673005906167,
			"-0.013": 0.291078204849,
			"-0.012": 0.427238166888,
			"-0.011": 1.30028402876,
			"-0.01": 0.654011073079,
			"-0.009": 0.590993652227,
			"-0.008": 2.16899425778,
			"-0.007": 8.2067428991,
			"-0.006": 9.92903590397,
			"-0.005": 12.6001319138,
			"-0.004": 10.4953678993,
			"-0.003": 10.6774857117,
			"-0.002": 9.51684777868,
			"-0.001": 9.64401115549,
			"0.0": 14.1155826633,
			"0.001": 16.5796543007,
			"0.002": 15.928575886,
			"0.003": 20.3406227657,
			"0.004": 18.0369680378,
			"0.005": 4.51900747505,
			"0.006": 3.11635545387,
			"0.007": 3.04891136785,
			"0.008": 2.05712117183,
			"0.009": 3.68824286115,
			"0.01": 3.19050774586,
			"0.011": 4.43463897812,
			"0.012": 2.4302359633,
			"0.013": 0.0,
			"0.014": 0.0,
			"0.015": 0.0,
			"0.016": 0.0,
			"0.017": 0.0,
			"0.018": 0.0,
			"0.019": 0.0,
			"0.02": 0.0,
			"0.021": 0.0,
			"0.022": 0.0,
			"0.023": 0.0,
			"0.024": 0.0,
			"0.025": 0.0
		}
	}
}
