{
	 "smiles": "CS(=O)(=O)C1=C(Cl)C(C2=CC=C(Cl)C=C2)=C(C#N)C(Br)=N1", 
	 "Tm": 431.15, 
	 "num_atms": 28, 
	 "gaussian": { 
		 "optdone": 1, 
		 "sigma_profile": "yes", 
		 "theory": "DFT", 
		 "functional": "B3LYP", 
		 "basiset": "6-31G**", 
		 "properties": { 
			 "R2extent": 12607.5551, 
			 "electric_dipole_moment_norm": 1.72241331277, 
			 "electric_quadrupole_moment_norm": 30.563996145, 
			 "total_energy": -4649.42035991, 
			 "HOMO_LUMO_gap": 0.1613, 
			 "cosmo_polarized_energy": -19.77, 
			 "cosmo_cavitation_energy": 42.19, 
			 "cosmo_dispersion_energy": -29.04, 
			 "cosmo_repulsion_energy": 2.22, 
			 "cosmo_total_nonelectrostatic_energy": 15.37, 
			 "SMD_solvation_energy": 5.52 
		},
		"coords": [
			{
				"x": 3.0201075933,
				"y": 2.2321517139,
				"z": -4.505106302,
				"element": "C" 
			},
			{
				"x": 2.9068368511,
				"y": 0.9099854439,
				"z": -3.2845802598,
				"element": "S" 
			},
			{
				"x": 3.8558979831,
				"y": 1.1985446457,
				"z": -2.2027027482,
				"element": "O" 
			},
			{
				"x": 2.936053687,
				"y": -0.3752590362,
				"z": -3.9929211315,
				"element": "O" 
			},
			{
				"x": 1.2134193993,
				"y": 1.1242420669,
				"z": -2.6028682751,
				"element": "C" 
			},
			{
				"x": 0.7004375736,
				"y": 0.2868899968,
				"z": -1.6026516033,
				"element": "C" 
			},
			{
				"x": 1.6427844637,
				"y": -1.0110049897,
				"z": -0.9450955408,
				"element": "Cl" 
			},
			{
				"x": -0.6045039787,
				"y": 0.5184996145,
				"z": -1.1359146716,
				"element": "C" 
			},
			{
				"x": -1.2276963162,
				"y": -0.324568383,
				"z": -0.0740525641,
				"element": "C" 
			},
			{
				"x": -1.0934463853,
				"y": 0.0266772322,
				"z": 1.2750028952,
				"element": "C" 
			},
			{
				"x": -1.6835595943,
				"y": -0.7510174592,
				"z": 2.269347906,
				"element": "C" 
			},
			{
				"x": -2.4110742111,
				"y": -1.8841427678,
				"z": 1.9058371845,
				"element": "C" 
			},
			{
				"x": -3.1548464428,
				"y": -2.8664387583,
				"z": 3.1520303228,
				"element": "Cl" 
			},
			{
				"x": -2.5570871351,
				"y": -2.2486981205,
				"z": 0.5674884942,
				"element": "C" 
			},
			{
				"x": -1.9634144477,
				"y": -1.4649271488,
				"z": -0.4199359456,
				"element": "C" 
			},
			{
				"x": -1.3260062691,
				"y": 1.5902681082,
				"z": -1.7081971239,
				"element": "C" 
			},
			{
				"x": -2.6594843257,
				"y": 1.8722457073,
				"z": -1.2712078591,
				"element": "C" 
			},
			{
				"x": -3.7421237492,
				"y": 2.0970095032,
				"z": -0.9125390404,
				"element": "N" 
			},
			{
				"x": -0.7034224431,
				"y": 2.3634332311,
				"z": -2.7083445382,
				"element": "C" 
			},
			{
				"x": -1.6251513216,
				"y": 3.8160771821,
				"z": -3.5132223458,
				"element": "Br" 
			},
			{
				"x": 0.5229848704,
				"y": 2.1279897631,
				"z": -3.131245924,
				"element": "N" 
			},
			{
				"x": 4.0239279739,
				"y": 2.1170417496,
				"z": -4.9197925911,
				"element": "H" 
			},
			{
				"x": 2.2636157141,
				"y": 2.0928913573,
				"z": -5.275695584,
				"element": "H" 
			},
			{
				"x": 2.9104398233,
				"y": 3.1992803712,
				"z": -4.0171241767,
				"element": "H" 
			},
			{
				"x": -0.5258058582,
				"y": 0.9092935118,
				"z": 1.5530937014,
				"element": "H" 
			},
			{
				"x": -1.5819561958,
				"y": -0.4808514999,
				"z": 3.3142528943,
				"element": "H" 
			},
			{
				"x": -3.1278856679,
				"y": -3.1313470439,
				"z": 0.3024264185,
				"element": "H" 
			},
			{
				"x": -2.0738415908,
				"y": -1.7449659917,
				"z": -1.462981592,
				"element": "H" 
			}
		],
		 "valence_orbital": [ 
			{
				"type": "occ",
				"energy": -0.31179,
				"method": "rhf"
			},
			{
				"type": "occ",
				"energy": -0.29685,
				"method": "rhf"
			},
			{
				"type": "occ",
				"energy": -0.28585,
				"method": "rhf"
			},
			{
				"type": "occ",
				"energy": -0.28202,
				"method": "rhf"
			},
			{
				"type": "occ",
				"energy": -0.26702,
				"method": "rhf"
			},
			{
				"type": "unocc",
				"energy": -0.10572,
				"method": "rhf"
			},
			{
				"type": "unocc",
				"energy": -0.0811,
				"method": "rhf"
			},
			{
				"type": "unocc",
				"energy": -0.04441,
				"method": "rhf"
			},
			{
				"type": "unocc",
				"energy": -0.03545,
				"method": "rhf"
			},
			{
				"type": "unocc",
				"energy": -0.02488,
				"method": "rhf"
			}
		],
		"cosmo_sigma_profile": { 
			"-0.025": 0.0,
			"-0.024": 0.0,
			"-0.023": 0.0,
			"-0.022": 0.0,
			"-0.021": 0.0,
			"-0.02": 0.0,
			"-0.019": 0.0,
			"-0.018": 0.0,
			"-0.017": 0.0,
			"-0.016": 0.0,
			"-0.015": 0.0,
			"-0.014": 0.0,
			"-0.013": 0.0,
			"-0.012": 0.0,
			"-0.011": 0.0896490705794,
			"-0.01": 1.18835282962,
			"-0.009": 4.58655350992,
			"-0.008": 15.8609401374,
			"-0.007": 20.9288844988,
			"-0.006": 22.5761427461,
			"-0.005": 20.7472082071,
			"-0.004": 20.152196864,
			"-0.003": 16.6353576957,
			"-0.002": 17.6381136849,
			"-0.001": 17.3201233888,
			"0.0": 22.1010197387,
			"0.001": 29.8172699926,
			"0.002": 38.9743700473,
			"0.003": 21.8984458531,
			"0.004": 17.3223592211,
			"0.005": 8.97458977673,
			"0.006": 5.9714020034,
			"0.007": 6.92295923416,
			"0.008": 6.76673037252,
			"0.009": 6.70879384665,
			"0.01": 13.9870795734,
			"0.011": 10.6529673848,
			"0.012": 0.815991546578,
			"0.013": 0.0,
			"0.014": 0.0,
			"0.015": 0.0,
			"0.016": 0.0,
			"0.017": 0.0,
			"0.018": 0.0,
			"0.019": 0.0,
			"0.02": 0.0,
			"0.021": 0.0,
			"0.022": 0.0,
			"0.023": 0.0,
			"0.024": 0.0,
			"0.025": 0.0
		}
	}
}
