{
	 "smiles": "CC1=CC(O)=C(Cl)C(C)=C1Cl", 
	 "Tm": 368.65, 
	 "num_atms": 19, 
	 "gaussian": { 
		 "optdone": 1, 
		 "sigma_profile": "yes", 
		 "theory": "DFT", 
		 "functional": "B3LYP", 
		 "basiset": "6-31G**", 
		 "properties": { 
			 "R2extent": 2835.6478, 
			 "electric_dipole_moment_norm": 0.306208491065, 
			 "electric_quadrupole_moment_norm": 5.5751405498, 
			 "total_energy": -1305.29338263, 
			 "HOMO_LUMO_gap": 0.20883, 
			 "cosmo_polarized_energy": -5.08, 
			 "cosmo_cavitation_energy": 25.3, 
			 "cosmo_dispersion_energy": -19.21, 
			 "cosmo_repulsion_energy": 1.52, 
			 "cosmo_total_nonelectrostatic_energy": 7.62, 
			 "SMD_solvation_energy": 4.27 
		},
		"coords": [
			{
				"x": -0.339261786,
				"y": 3.2964822906,
				"z": 0.623535364,
				"element": "C" 
			},
			{
				"x": -0.8658846415,
				"y": 1.8947015272,
				"z": 0.4515723284,
				"element": "C" 
			},
			{
				"x": -2.2270881557,
				"y": 1.632007292,
				"z": 0.602433687,
				"element": "C" 
			},
			{
				"x": -2.7448801633,
				"y": 0.3453274231,
				"z": 0.4496013265,
				"element": "C" 
			},
			{
				"x": -4.0792715588,
				"y": 0.1751110083,
				"z": 0.6129023222,
				"element": "O" 
			},
			{
				"x": -1.8653910935,
				"y": -0.7019770466,
				"z": 0.1365250061,
				"element": "C" 
			},
			{
				"x": -2.5861507117,
				"y": -2.3091674343,
				"z": -0.0438111006,
				"element": "Cl" 
			},
			{
				"x": -0.486922597,
				"y": -0.5010811334,
				"z": -0.027723861,
				"element": "C" 
			},
			{
				"x": 0.4648968368,
				"y": -1.6202967361,
				"z": -0.3640292156,
				"element": "C" 
			},
			{
				"x": -0.0251861859,
				"y": 0.8152010911,
				"z": 0.1385183821,
				"element": "C" 
			},
			{
				"x": 1.7025316346,
				"y": 1.1263156995,
				"z": -0.0568542494,
				"element": "Cl" 
			},
			{
				"x": 0.4024316673,
				"y": 3.3462146521,
				"z": 1.427609353,
				"element": "H" 
			},
			{
				"x": -1.1517530644,
				"y": 3.9867723455,
				"z": 0.8614693508,
				"element": "H" 
			},
			{
				"x": 0.1574912998,
				"y": 3.6485956565,
				"z": -0.28656543,
				"element": "H" 
			},
			{
				"x": -2.9186765483,
				"y": 2.4321304673,
				"z": 0.8443757317,
				"element": "H" 
			},
			{
				"x": -4.2945434008,
				"y": -0.7606361053,
				"z": 0.4784745253,
				"element": "H" 
			},
			{
				"x": -0.0518068124,
				"y": -2.5740304705,
				"z": -0.4586916332,
				"element": "H" 
			},
			{
				"x": 1.2333848719,
				"y": -1.716710598,
				"z": 0.4094576707,
				"element": "H" 
			},
			{
				"x": 0.985680409,
				"y": -1.412459929,
				"z": -1.304099558,
				"element": "H" 
			}
		],
		 "valence_orbital": [ 
			{
				"type": "occ",
				"energy": -0.33386,
				"method": "rhf"
			},
			{
				"type": "occ",
				"energy": -0.31226,
				"method": "rhf"
			},
			{
				"type": "occ",
				"energy": -0.30941,
				"method": "rhf"
			},
			{
				"type": "occ",
				"energy": -0.2504,
				"method": "rhf"
			},
			{
				"type": "occ",
				"energy": -0.22457,
				"method": "rhf"
			},
			{
				"type": "unocc",
				"energy": -0.01574,
				"method": "rhf"
			},
			{
				"type": "unocc",
				"energy": -0.00597,
				"method": "rhf"
			},
			{
				"type": "unocc",
				"energy": 0.00404,
				"method": "rhf"
			},
			{
				"type": "unocc",
				"energy": 0.05071,
				"method": "rhf"
			},
			{
				"type": "unocc",
				"energy": 0.08701,
				"method": "rhf"
			}
		],
		"cosmo_sigma_profile": { 
			"-0.025": 0.0,
			"-0.024": 0.0,
			"-0.023": 0.0,
			"-0.022": 0.0,
			"-0.021": 0.0,
			"-0.02": 0.0,
			"-0.019": 0.0,
			"-0.018": 0.0,
			"-0.017": 0.0,
			"-0.016": 0.0,
			"-0.015": 0.404539601379,
			"-0.014": 0.686020027203,
			"-0.013": 0.410925557919,
			"-0.012": 0.887303260251,
			"-0.011": 0.567603358652,
			"-0.01": 1.08234387113,
			"-0.009": 0.782919137959,
			"-0.008": 1.0951654447,
			"-0.007": 1.94495554831,
			"-0.006": 3.9121629553,
			"-0.005": 7.32111380362,
			"-0.004": 11.2396727386,
			"-0.003": 14.4723034467,
			"-0.002": 16.7729712043,
			"-0.001": 27.0645058274,
			"0.0": 23.704616613,
			"0.001": 20.8216107413,
			"0.002": 22.8007694606,
			"0.003": 22.260576666,
			"0.004": 12.5299640583,
			"0.005": 6.12623155399,
			"0.006": 1.46140817622,
			"0.007": 1.17011346682,
			"0.008": 2.06106190914,
			"0.009": 0.828610216842,
			"0.01": 2.3533632879,
			"0.011": 0.57217972449,
			"0.012": 0.0,
			"0.013": 0.0,
			"0.014": 0.0,
			"0.015": 0.0,
			"0.016": 0.0,
			"0.017": 0.0,
			"0.018": 0.0,
			"0.019": 0.0,
			"0.02": 0.0,
			"0.021": 0.0,
			"0.022": 0.0,
			"0.023": 0.0,
			"0.024": 0.0,
			"0.025": 0.0
		}
	}
}
