{
	 "smiles": "C[C@]12CC[C@H]3[C@@H](CC(=O)C4=CC(=O)CC[C@]34C)[C@@H]1CCC2=O", 
	 "Tm": 495.0, 
	 "num_atms": 46, 
	 "gaussian": { 
		 "optdone": 1, 
		 "sigma_profile": "yes", 
		 "theory": "DFT", 
		 "functional": "B3LYP", 
		 "basiset": "6-31G**", 
		 "properties": { 
			 "R2extent": 7552.325, 
			 "electric_dipole_moment_norm": 3.43862711849, 
			 "electric_quadrupole_moment_norm": 35.3503498949, 
			 "total_energy": -964.157757461, 
			 "HOMO_LUMO_gap": 0.15183, 
			 "cosmo_polarized_energy": -19.59, 
			 "cosmo_cavitation_energy": 42.44, 
			 "cosmo_dispersion_energy": -29.54, 
			 "cosmo_repulsion_energy": 2.17, 
			 "cosmo_total_nonelectrostatic_energy": 15.07, 
			 "SMD_solvation_energy": 7.87 
		},
		"coords": [
			{
				"x": 1.1038293709,
				"y": 2.2776088388,
				"z": 1.7803460986,
				"element": "C" 
			},
			{
				"x": 1.7232125174,
				"y": 1.7561285577,
				"z": 0.4565151278,
				"element": "C" 
			},
			{
				"x": 0.9623485226,
				"y": 2.2899321968,
				"z": -0.759763335,
				"element": "C" 
			},
			{
				"x": -0.4378360703,
				"y": 1.6462503858,
				"z": -0.8457796601,
				"element": "C" 
			},
			{
				"x": -0.4272940663,
				"y": 0.0955940396,
				"z": -0.79801339,
				"element": "C" 
			},
			{
				"x": 0.4269856643,
				"y": -0.4625035018,
				"z": 0.3772392285,
				"element": "C" 
			},
			{
				"x": 0.5648973533,
				"y": -1.9888536731,
				"z": 0.2628426209,
				"element": "C" 
			},
			{
				"x": -0.7319073473,
				"y": -2.7359125172,
				"z": 0.0166107474,
				"element": "C" 
			},
			{
				"x": -0.9064651589,
				"y": -3.8646537473,
				"z": 0.4446456489,
				"element": "O" 
			},
			{
				"x": -1.7611826306,
				"y": -2.0582837086,
				"z": -0.8525268324,
				"element": "C" 
			},
			{
				"x": -2.5630695661,
				"y": -2.8605365992,
				"z": -1.5835904023,
				"element": "C" 
			},
			{
				"x": -3.6307028745,
				"y": -2.3604048923,
				"z": -2.4760155568,
				"element": "C" 
			},
			{
				"x": -4.3030706309,
				"y": -3.1251146113,
				"z": -3.1516491496,
				"element": "O" 
			},
			{
				"x": -3.8642517128,
				"y": -0.8593286175,
				"z": -2.464326601,
				"element": "C" 
			},
			{
				"x": -2.5911223675,
				"y": -0.0673019636,
				"z": -2.1384357616,
				"element": "C" 
			},
			{
				"x": -1.8682635149,
				"y": -0.5317326875,
				"z": -0.845925802,
				"element": "C" 
			},
			{
				"x": -2.7084414145,
				"y": -0.1407799206,
				"z": 0.4003536124,
				"element": "C" 
			},
			{
				"x": 1.8020309844,
				"y": 0.2155595519,
				"z": 0.358865753,
				"element": "C" 
			},
			{
				"x": 2.8969711068,
				"y": -0.1798151221,
				"z": 1.3723847577,
				"element": "C" 
			},
			{
				"x": 3.9593395403,
				"y": 0.9271134914,
				"z": 1.1715490098,
				"element": "C" 
			},
			{
				"x": 3.2115259543,
				"y": 2.1186828193,
				"z": 0.5411712772,
				"element": "C" 
			},
			{
				"x": 3.7174556331,
				"y": 3.1578311257,
				"z": 0.1776300763,
				"element": "O" 
			},
			{
				"x": 1.6386038661,
				"y": 1.9147548521,
				"z": 2.6632307021,
				"element": "H" 
			},
			{
				"x": 0.0569292691,
				"y": 1.9847650299,
				"z": 1.8904801296,
				"element": "H" 
			},
			{
				"x": 1.1526164855,
				"y": 3.3708079359,
				"z": 1.792427033,
				"element": "H" 
			},
			{
				"x": 1.5329529628,
				"y": 2.0584946196,
				"z": -1.6684346808,
				"element": "H" 
			},
			{
				"x": 0.8727196726,
				"y": 3.380873506,
				"z": -0.7198800325,
				"element": "H" 
			},
			{
				"x": -0.9132238661,
				"y": 1.9777921457,
				"z": -1.7737417577,
				"element": "H" 
			},
			{
				"x": -1.0591387691,
				"y": 2.0375557808,
				"z": -0.0329023843,
				"element": "H" 
			},
			{
				"x": 0.0757243168,
				"y": -0.2429654559,
				"z": -1.718989517,
				"element": "H" 
			},
			{
				"x": -0.066996381,
				"y": -0.2314708764,
				"z": 1.3299097279,
				"element": "H" 
			},
			{
				"x": 1.048353666,
				"y": -2.4329712632,
				"z": 1.1372721069,
				"element": "H" 
			},
			{
				"x": 1.2078279006,
				"y": -2.2175522017,
				"z": -0.6028715097,
				"element": "H" 
			},
			{
				"x": -2.445152244,
				"y": -3.9388302588,
				"z": -1.5255829821,
				"element": "H" 
			},
			{
				"x": -4.2829271651,
				"y": -0.5674185594,
				"z": -3.431697259,
				"element": "H" 
			},
			{
				"x": -4.6460652347,
				"y": -0.6615773349,
				"z": -1.718032789,
				"element": "H" 
			},
			{
				"x": -1.891437291,
				"y": -0.167817216,
				"z": -2.9787335273,
				"element": "H" 
			},
			{
				"x": -2.839697742,
				"y": 0.9956046646,
				"z": -2.0633280148,
				"element": "H" 
			},
			{
				"x": -3.6992077982,
				"y": -0.6004687581,
				"z": 0.3567127166,
				"element": "H" 
			},
			{
				"x": -2.2447479793,
				"y": -0.4801524614,
				"z": 1.3311260199,
				"element": "H" 
			},
			{
				"x": -2.8450106937,
				"y": 0.9425884558,
				"z": 0.464896697,
				"element": "H" 
			},
			{
				"x": 2.2276165497,
				"y": 0.0050518865,
				"z": -0.6382828073,
				"element": "H" 
			},
			{
				"x": 3.2997518997,
				"y": -1.1797579272,
				"z": 1.1898783663,
				"element": "H" 
			},
			{
				"x": 2.5070725955,
				"y": -0.1720162989,
				"z": 2.3964317473,
				"element": "H" 
			},
			{
				"x": 4.7436929292,
				"y": 0.6183016903,
				"z": 0.4705434805,
				"element": "H" 
			},
			{
				"x": 4.4690537582,
				"y": 1.2397286,
				"z": 2.0882410667,
				"element": "H" 
			}
		],
		 "valence_orbital": [ 
			{
				"type": "occ",
				"energy": -0.30467,
				"method": "rhf"
			},
			{
				"type": "occ",
				"energy": -0.27755,
				"method": "rhf"
			},
			{
				"type": "occ",
				"energy": -0.25939,
				"method": "rhf"
			},
			{
				"type": "occ",
				"energy": -0.24409,
				"method": "rhf"
			},
			{
				"type": "occ",
				"energy": -0.23928,
				"method": "rhf"
			},
			{
				"type": "unocc",
				"energy": -0.08745,
				"method": "rhf"
			},
			{
				"type": "unocc",
				"energy": -0.0226,
				"method": "rhf"
			},
			{
				"type": "unocc",
				"energy": -0.00017,
				"method": "rhf"
			},
			{
				"type": "unocc",
				"energy": 0.05187,
				"method": "rhf"
			},
			{
				"type": "unocc",
				"energy": 0.06628,
				"method": "rhf"
			}
		],
		"cosmo_sigma_profile": { 
			"-0.025": 0.0,
			"-0.024": 0.0,
			"-0.023": 0.0,
			"-0.022": 0.0,
			"-0.021": 0.0,
			"-0.02": 0.0,
			"-0.019": 0.0,
			"-0.018": 0.0,
			"-0.017": 0.0,
			"-0.016": 0.0,
			"-0.015": 0.0,
			"-0.014": 0.0,
			"-0.013": 0.0,
			"-0.012": 0.0,
			"-0.011": 0.0,
			"-0.01": 0.0,
			"-0.009": 0.0,
			"-0.008": 0.00722952910224,
			"-0.007": 1.12280586187,
			"-0.006": 9.77524885181,
			"-0.005": 22.5953263046,
			"-0.004": 44.1974013819,
			"-0.003": 54.9036553195,
			"-0.002": 46.0819244537,
			"-0.001": 34.3096668817,
			"0.0": 27.2242942579,
			"0.001": 12.9168680085,
			"0.002": 5.82902233435,
			"0.003": 5.07412071429,
			"0.004": 4.23520110637,
			"0.005": 5.17476321299,
			"0.006": 4.15930897905,
			"0.007": 5.23871650926,
			"0.008": 5.36874682629,
			"0.009": 3.86704161888,
			"0.01": 7.19335180921,
			"0.011": 9.91619172236,
			"0.012": 12.708116027,
			"0.013": 6.47600044753,
			"0.014": 0.680294226894,
			"0.015": 0.0,
			"0.016": 0.0,
			"0.017": 0.0,
			"0.018": 0.0,
			"0.019": 0.0,
			"0.02": 0.0,
			"0.021": 0.0,
			"0.022": 0.0,
			"0.023": 0.0,
			"0.024": 0.0,
			"0.025": 0.0
		}
	}
}
