{
	 "smiles": "CC1=NOC(NS(=O)(=O)C2=CC=C(N)C=C2)=C1C", 
	 "Tm": 466.27, 
	 "num_atms": 31, 
	 "gaussian": { 
		 "optdone": 1, 
		 "sigma_profile": "yes", 
		 "theory": "DFT", 
		 "functional": "B3LYP", 
		 "basiset": "6-31G**", 
		 "properties": { 
			 "R2extent": 5818.5085, 
			 "electric_dipole_moment_norm": 8.59857851682, 
			 "electric_quadrupole_moment_norm": 26.782156472, 
			 "total_energy": -1215.00858583, 
			 "HOMO_LUMO_gap": 0.18919, 
			 "cosmo_polarized_energy": -26.15, 
			 "cosmo_cavitation_energy": 36.94, 
			 "cosmo_dispersion_energy": -26.02, 
			 "cosmo_repulsion_energy": 2.01, 
			 "cosmo_total_nonelectrostatic_energy": 12.93, 
			 "SMD_solvation_energy": 5.17 
		},
		"coords": [
			{
				"x": 3.439286563,
				"y": -2.2996748387,
				"z": 0.8857696619,
				"element": "C" 
			},
			{
				"x": 2.7913393663,
				"y": -1.0099049004,
				"z": 0.4879866392,
				"element": "C" 
			},
			{
				"x": 3.1405131071,
				"y": -0.4280720698,
				"z": -0.637854048,
				"element": "N" 
			},
			{
				"x": 2.3618890699,
				"y": 0.7508980247,
				"z": -0.7033227405,
				"element": "O" 
			},
			{
				"x": 1.5709823776,
				"y": 0.7980573678,
				"z": 0.3812613795,
				"element": "C" 
			},
			{
				"x": 0.7478988907,
				"y": 1.9007836106,
				"z": 0.5283537608,
				"element": "N" 
			},
			{
				"x": -0.0394910839,
				"y": 2.7325592502,
				"z": -0.7686035205,
				"element": "S" 
			},
			{
				"x": 1.0014427955,
				"y": 3.3631232917,
				"z": -1.5687526629,
				"element": "O" 
			},
			{
				"x": -1.0565376965,
				"y": 3.5015537752,
				"z": -0.0480124566,
				"element": "O" 
			},
			{
				"x": -0.8372909316,
				"y": 1.490035737,
				"z": -1.7542688795,
				"element": "C" 
			},
			{
				"x": -2.1624933015,
				"y": 1.135870701,
				"z": -1.4761104511,
				"element": "C" 
			},
			{
				"x": -2.7890230929,
				"y": 0.1629115034,
				"z": -2.2409239666,
				"element": "C" 
			},
			{
				"x": -2.1014664374,
				"y": -0.474339682,
				"z": -3.2950963553,
				"element": "C" 
			},
			{
				"x": -2.7395530911,
				"y": -1.4091113864,
				"z": -4.0859493983,
				"element": "N" 
			},
			{
				"x": -0.7681674294,
				"y": -0.100069859,
				"z": -3.5615572513,
				"element": "C" 
			},
			{
				"x": -0.1400860569,
				"y": 0.8754778676,
				"z": -2.8015774519,
				"element": "C" 
			},
			{
				"x": 1.7763668527,
				"y": -0.2880999788,
				"z": 1.1918705157,
				"element": "C" 
			},
			{
				"x": 1.1131164059,
				"y": -0.6354125659,
				"z": 2.4887525028,
				"element": "C" 
			},
			{
				"x": 4.1442983016,
				"y": -2.6159770536,
				"z": 0.1144843933,
				"element": "H" 
			},
			{
				"x": 2.692695152,
				"y": -3.0896961734,
				"z": 1.0231679935,
				"element": "H" 
			},
			{
				"x": 3.9814683273,
				"y": -2.1913910324,
				"z": 1.8314006659,
				"element": "H" 
			},
			{
				"x": 0.1616009496,
				"y": 1.9005777821,
				"z": 1.3549253835,
				"element": "H" 
			},
			{
				"x": -2.6980527855,
				"y": 1.6386109704,
				"z": -0.6779263005,
				"element": "H" 
			},
			{
				"x": -3.8227156579,
				"y": -0.1033684111,
				"z": -2.0372248374,
				"element": "H" 
			},
			{
				"x": -3.5684410476,
				"y": -1.8463578013,
				"z": -3.7126503184,
				"element": "H" 
			},
			{
				"x": -2.159594485,
				"y": -2.0257768829,
				"z": -4.6346896441,
				"element": "H" 
			},
			{
				"x": -0.2312872256,
				"y": -0.5754642703,
				"z": -4.3778465549,
				"element": "H" 
			},
			{
				"x": 0.8828298526,
				"y": 1.1648246829,
				"z": -3.0125982322,
				"element": "H" 
			},
			{
				"x": 0.1529322734,
				"y": -0.1190462518,
				"z": 2.5999090619,
				"element": "H" 
			},
			{
				"x": 1.7274678677,
				"y": -0.370357283,
				"z": 3.3581445585,
				"element": "H" 
			},
			{
				"x": 0.9061721698,
				"y": -1.7088641238,
				"z": 2.5524385533,
				"element": "H" 
			}
		],
		 "valence_orbital": [ 
			{
				"type": "occ",
				"energy": -0.29593,
				"method": "rhf"
			},
			{
				"type": "occ",
				"energy": -0.27949,
				"method": "rhf"
			},
			{
				"type": "occ",
				"energy": -0.26965,
				"method": "rhf"
			},
			{
				"type": "occ",
				"energy": -0.23199,
				"method": "rhf"
			},
			{
				"type": "occ",
				"energy": -0.21902,
				"method": "rhf"
			},
			{
				"type": "unocc",
				"energy": -0.02983,
				"method": "rhf"
			},
			{
				"type": "unocc",
				"energy": -0.01843,
				"method": "rhf"
			},
			{
				"type": "unocc",
				"energy": 0.00307,
				"method": "rhf"
			},
			{
				"type": "unocc",
				"energy": 0.04638,
				"method": "rhf"
			},
			{
				"type": "unocc",
				"energy": 0.05443,
				"method": "rhf"
			}
		],
		"cosmo_sigma_profile": { 
			"-0.025": 0.0,
			"-0.024": 0.0,
			"-0.023": 0.0,
			"-0.022": 0.0,
			"-0.021": 0.0,
			"-0.02": 0.0,
			"-0.019": 0.0,
			"-0.018": 0.0,
			"-0.017": 0.0,
			"-0.016": 0.103962871051,
			"-0.015": 0.641880933726,
			"-0.014": 1.61383075373,
			"-0.013": 4.59268489014,
			"-0.012": 4.83760646655,
			"-0.011": 4.52860576182,
			"-0.01": 4.89921495044,
			"-0.009": 3.68575640507,
			"-0.008": 4.83549341029,
			"-0.007": 7.02826759156,
			"-0.006": 11.384652392,
			"-0.005": 19.0842393209,
			"-0.004": 17.3503194604,
			"-0.003": 19.3687515755,
			"-0.002": 21.1237552132,
			"-0.001": 21.8177993898,
			"0.0": 14.7161502222,
			"0.001": 17.712687322,
			"0.002": 18.0645207399,
			"0.003": 19.1509753609,
			"0.004": 14.0157666794,
			"0.005": 6.46792428154,
			"0.006": 6.4786839258,
			"0.007": 7.82913191338,
			"0.008": 6.97440690189,
			"0.009": 7.95686338885,
			"0.01": 12.3487002162,
			"0.011": 10.0387540743,
			"0.012": 1.70223248704,
			"0.013": 1.17812121279,
			"0.014": 1.51283633496,
			"0.015": 0.69609988371,
			"0.016": 0.0,
			"0.017": 0.0,
			"0.018": 0.0,
			"0.019": 0.0,
			"0.02": 0.0,
			"0.021": 0.0,
			"0.022": 0.0,
			"0.023": 0.0,
			"0.024": 0.0,
			"0.025": 0.0
		}
	}
}
