{
	 "smiles": "CC(=O)C1=CN(N=N1)C1=CC=CC=C1", 
	 "Tm": 376.15, 
	 "num_atms": 23, 
	 "gaussian": { 
		 "optdone": 1, 
		 "sigma_profile": "yes", 
		 "theory": "DFT", 
		 "functional": "B3LYP", 
		 "basiset": "6-31G**", 
		 "properties": { 
			 "R2extent": 4027.6051, 
			 "electric_dipole_moment_norm": 3.67611766134, 
			 "electric_quadrupole_moment_norm": 5.85075885676, 
			 "total_energy": -625.928072323, 
			 "HOMO_LUMO_gap": 0.19313, 
			 "cosmo_polarized_energy": -12.34, 
			 "cosmo_cavitation_energy": 28.19, 
			 "cosmo_dispersion_energy": -20.68, 
			 "cosmo_repulsion_energy": 1.6, 
			 "cosmo_total_nonelectrostatic_energy": 9.11, 
			 "SMD_solvation_energy": 4.62 
		},
		"coords": [
			{
				"x": 2.904667595,
				"y": -4.6211176182,
				"z": 0.2387207884,
				"element": "C" 
			},
			{
				"x": 2.7651642065,
				"y": -3.194717084,
				"z": -0.2436056422,
				"element": "C" 
			},
			{
				"x": 3.6874647942,
				"y": -2.5687713819,
				"z": -0.7456867058,
				"element": "O" 
			},
			{
				"x": 1.4400836213,
				"y": -2.5544583803,
				"z": -0.0874700729,
				"element": "C" 
			},
			{
				"x": 1.0827270867,
				"y": -1.2714166967,
				"z": -0.4528557024,
				"element": "C" 
			},
			{
				"x": -0.2218020018,
				"y": -1.166152545,
				"z": -0.1065095434,
				"element": "N" 
			},
			{
				"x": -0.6551492784,
				"y": -2.3429288732,
				"z": 0.4531752501,
				"element": "N" 
			},
			{
				"x": 0.3437598522,
				"y": -3.1655434192,
				"z": 0.4603020074,
				"element": "N" 
			},
			{
				"x": -1.119222052,
				"y": -0.0656893354,
				"z": -0.2454956101,
				"element": "C" 
			},
			{
				"x": -2.440189327,
				"y": -0.2035227061,
				"z": 0.1950162862,
				"element": "C" 
			},
			{
				"x": -3.3183767466,
				"y": 0.8694848162,
				"z": 0.0604152174,
				"element": "C" 
			},
			{
				"x": -2.8925406238,
				"y": 2.0723127069,
				"z": -0.506759572,
				"element": "C" 
			},
			{
				"x": -1.5730974294,
				"y": 2.1982752164,
				"z": -0.9424627857,
				"element": "C" 
			},
			{
				"x": -0.6813714362,
				"y": 1.1339028813,
				"z": -0.8150238431,
				"element": "C" 
			},
			{
				"x": 3.9251511445,
				"y": -4.9626503952,
				"z": 0.0627911793,
				"element": "H" 
			},
			{
				"x": 2.6609003768,
				"y": -4.6879621842,
				"z": 1.3042269823,
				"element": "H" 
			},
			{
				"x": 2.1926290903,
				"y": -5.2700877251,
				"z": -0.2818895845,
				"element": "H" 
			},
			{
				"x": 1.6608031127,
				"y": -0.4875026099,
				"z": -0.9111001954,
				"element": "H" 
			},
			{
				"x": -2.7586215683,
				"y": -1.1407114268,
				"z": 0.6329861998,
				"element": "H" 
			},
			{
				"x": -4.3430141644,
				"y": 0.760948441,
				"z": 0.4027028623,
				"element": "H" 
			},
			{
				"x": -3.5826481151,
				"y": 2.9040688415,
				"z": -0.6083364666,
				"element": "H" 
			},
			{
				"x": -1.2294283385,
				"y": 3.1280696263,
				"z": -1.3851757365,
				"element": "H" 
			},
			{
				"x": 0.3405102013,
				"y": 1.2480698515,
				"z": -1.1585653126,
				"element": "H" 
			}
		],
		 "valence_orbital": [ 
			{
				"type": "occ",
				"energy": -0.28184,
				"method": "rhf"
			},
			{
				"type": "occ",
				"energy": -0.27906,
				"method": "rhf"
			},
			{
				"type": "occ",
				"energy": -0.27177,
				"method": "rhf"
			},
			{
				"type": "occ",
				"energy": -0.25128,
				"method": "rhf"
			},
			{
				"type": "occ",
				"energy": -0.25065,
				"method": "rhf"
			},
			{
				"type": "unocc",
				"energy": -0.05752,
				"method": "rhf"
			},
			{
				"type": "unocc",
				"energy": -0.03814,
				"method": "rhf"
			},
			{
				"type": "unocc",
				"energy": -0.02142,
				"method": "rhf"
			},
			{
				"type": "unocc",
				"energy": 0.01748,
				"method": "rhf"
			},
			{
				"type": "unocc",
				"energy": 0.07006,
				"method": "rhf"
			}
		],
		"cosmo_sigma_profile": { 
			"-0.025": 0.0,
			"-0.024": 0.0,
			"-0.023": 0.0,
			"-0.022": 0.0,
			"-0.021": 0.0,
			"-0.02": 0.0,
			"-0.019": 0.0,
			"-0.018": 0.0,
			"-0.017": 0.0,
			"-0.016": 0.0,
			"-0.015": 0.0,
			"-0.014": 0.0,
			"-0.013": 0.333280303371,
			"-0.012": 1.65908369026,
			"-0.011": 1.96732634866,
			"-0.01": 1.718245155,
			"-0.009": 1.54736997214,
			"-0.008": 2.19133428336,
			"-0.007": 4.51593737754,
			"-0.006": 13.45126221,
			"-0.005": 18.3480702456,
			"-0.004": 17.1235938097,
			"-0.003": 17.1332197449,
			"-0.002": 19.6585947906,
			"-0.001": 20.232272231,
			"0.0": 16.1533534936,
			"0.001": 12.3703077486,
			"0.002": 12.7664267711,
			"0.003": 14.5508724822,
			"0.004": 13.0304398247,
			"0.005": 4.03880106736,
			"0.006": 3.63943688084,
			"0.007": 3.27299389616,
			"0.008": 3.93155762311,
			"0.009": 5.84354194972,
			"0.01": 5.40414073865,
			"0.011": 5.16706164907,
			"0.012": 4.22100505005,
			"0.013": 2.11437297514,
			"0.014": 0.36559361839,
			"0.015": 0.0,
			"0.016": 0.0,
			"0.017": 0.0,
			"0.018": 0.0,
			"0.019": 0.0,
			"0.02": 0.0,
			"0.021": 0.0,
			"0.022": 0.0,
			"0.023": 0.0,
			"0.024": 0.0,
			"0.025": 0.0
		}
	}
}
