{
	 "smiles": "OC(=O)C1=C(C=CS1)S(=O)(=O)NCC1=CC=CS1", 
	 "Tm": 412.15, 
	 "num_atms": 27, 
	 "gaussian": { 
		 "optdone": 1, 
		 "sigma_profile": "yes", 
		 "theory": "DFT", 
		 "functional": "B3LYP", 
		 "basiset": "6-31G**", 
		 "properties": { 
			 "R2extent": 7524.047, 
			 "electric_dipole_moment_norm": 6.82088253967, 
			 "electric_quadrupole_moment_norm": 25.8457525037, 
			 "total_energy": -1936.58369729, 
			 "HOMO_LUMO_gap": 0.15752, 
			 "cosmo_polarized_energy": -26.79, 
			 "cosmo_cavitation_energy": 36.63, 
			 "cosmo_dispersion_energy": -27.19, 
			 "cosmo_repulsion_energy": 1.96, 
			 "cosmo_total_nonelectrostatic_energy": 11.41, 
			 "SMD_solvation_energy": 6.39 
		},
		"coords": [
			{
				"x": -3.7530734337,
				"y": -1.4392448112,
				"z": -0.8350033251,
				"element": "O" 
			},
			{
				"x": -2.995938137,
				"y": -0.3325906905,
				"z": -0.6069773147,
				"element": "C" 
			},
			{
				"x": -3.1983821592,
				"y": 0.3705563535,
				"z": 0.3482633005,
				"element": "O" 
			},
			{
				"x": -1.9573947573,
				"y": -0.0356329408,
				"z": -1.6361805911,
				"element": "C" 
			},
			{
				"x": -0.7513794625,
				"y": 0.6166329489,
				"z": -1.4852667258,
				"element": "C" 
			},
			{
				"x": -0.0427874773,
				"y": 0.7911170584,
				"z": -2.7102022405,
				"element": "C" 
			},
			{
				"x": -0.7140213515,
				"y": 0.2695508221,
				"z": -3.7814709138,
				"element": "C" 
			},
			{
				"x": -2.2214165123,
				"y": -0.4325968874,
				"z": -3.3168553604,
				"element": "S" 
			},
			{
				"x": -0.1173554417,
				"y": 1.2021846718,
				"z": 0.0988010993,
				"element": "S" 
			},
			{
				"x": -0.6535214399,
				"y": 2.5369731476,
				"z": 0.3575874973,
				"element": "O" 
			},
			{
				"x": -0.2498280846,
				"y": 0.0923166783,
				"z": 1.0454150629,
				"element": "O" 
			},
			{
				"x": 1.5196549864,
				"y": 1.4309853232,
				"z": -0.2673786806,
				"element": "N" 
			},
			{
				"x": 2.5130152922,
				"y": 0.4732958358,
				"z": 0.2759765321,
				"element": "C" 
			},
			{
				"x": 3.0595268988,
				"y": 0.8348238677,
				"z": 1.630335424,
				"element": "C" 
			},
			{
				"x": 2.4753736754,
				"y": 0.6724276083,
				"z": 2.8608622304,
				"element": "C" 
			},
			{
				"x": 3.2725149378,
				"y": 1.1758981157,
				"z": 3.9319569272,
				"element": "C" 
			},
			{
				"x": 4.4541242011,
				"y": 1.7198750367,
				"z": 3.5078342185,
				"element": "C" 
			},
			{
				"x": 4.6128202012,
				"y": 1.6239581414,
				"z": 1.7850298768,
				"element": "S" 
			},
			{
				"x": -3.3460314483,
				"y": -2.004600871,
				"z": -1.5075460705,
				"element": "H" 
			},
			{
				"x": 0.9244799759,
				"y": 1.2710094735,
				"z": -2.7669855248,
				"element": "H" 
			},
			{
				"x": -0.4153388506,
				"y": 0.2712057196,
				"z": -4.8207387726,
				"element": "H" 
			},
			{
				"x": 1.7368105446,
				"y": 2.4036464655,
				"z": -0.06183921,
				"element": "H" 
			},
			{
				"x": 3.3226381786,
				"y": 0.398368117,
				"z": -0.4571519851,
				"element": "H" 
			},
			{
				"x": 2.0263765333,
				"y": -0.5032268592,
				"z": 0.3235557348,
				"element": "H" 
			},
			{
				"x": 1.498682601,
				"y": 0.2180834917,
				"z": 2.9825292219,
				"element": "H" 
			},
			{
				"x": 2.9783991848,
				"y": 1.132207371,
				"z": 4.9744511995,
				"element": "H" 
			},
			{
				"x": 5.242351345,
				"y": 2.1628768124,
				"z": 4.1004983898,
				"element": "H" 
			}
		],
		 "valence_orbital": [ 
			{
				"type": "occ",
				"energy": -0.28768,
				"method": "rhf"
			},
			{
				"type": "occ",
				"energy": -0.27947,
				"method": "rhf"
			},
			{
				"type": "occ",
				"energy": -0.2687,
				"method": "rhf"
			},
			{
				"type": "occ",
				"energy": -0.2551,
				"method": "rhf"
			},
			{
				"type": "occ",
				"energy": -0.23541,
				"method": "rhf"
			},
			{
				"type": "unocc",
				"energy": -0.07789,
				"method": "rhf"
			},
			{
				"type": "unocc",
				"energy": -0.02276,
				"method": "rhf"
			},
			{
				"type": "unocc",
				"energy": -0.0176,
				"method": "rhf"
			},
			{
				"type": "unocc",
				"energy": 0.00263,
				"method": "rhf"
			},
			{
				"type": "unocc",
				"energy": 0.01975,
				"method": "rhf"
			}
		],
		"cosmo_sigma_profile": { 
			"-0.025": 0.0,
			"-0.024": 0.0,
			"-0.023": 0.0,
			"-0.022": 0.0,
			"-0.021": 0.0,
			"-0.02": 0.0,
			"-0.019": 0.366998776904,
			"-0.018": 1.02876448207,
			"-0.017": 1.00843993404,
			"-0.016": 0.890948111015,
			"-0.015": 0.816594256315,
			"-0.014": 1.45294560806,
			"-0.013": 2.04517661384,
			"-0.012": 1.86893593258,
			"-0.011": 2.5483043427,
			"-0.01": 3.96368400153,
			"-0.009": 4.45230365895,
			"-0.008": 7.40113512269,
			"-0.007": 11.3332458482,
			"-0.006": 15.7741107235,
			"-0.005": 16.2863993902,
			"-0.004": 15.8239494103,
			"-0.003": 18.5254204349,
			"-0.002": 15.5601980671,
			"-0.001": 21.7025664332,
			"0.0": 22.8730528586,
			"0.001": 18.5249031584,
			"0.002": 17.3822400718,
			"0.003": 13.8864663261,
			"0.004": 14.8298428435,
			"0.005": 12.0393897138,
			"0.006": 6.32116511116,
			"0.007": 5.3846188069,
			"0.008": 6.17104350161,
			"0.009": 8.83897202571,
			"0.01": 13.2280808737,
			"0.011": 13.2633893547,
			"0.012": 2.66817911209,
			"0.013": 0.0,
			"0.014": 0.0,
			"0.015": 0.0,
			"0.016": 0.0,
			"0.017": 0.0,
			"0.018": 0.0,
			"0.019": 0.0,
			"0.02": 0.0,
			"0.021": 0.0,
			"0.022": 0.0,
			"0.023": 0.0,
			"0.024": 0.0,
			"0.025": 0.0
		}
	}
}
