{
	 "smiles": "CC1=CC=C(C=C1)C1=NC(CC(O)=O)=CS1", 
	 "Tm": 413.15, 
	 "num_atms": 27, 
	 "gaussian": { 
		 "optdone": 1, 
		 "sigma_profile": "yes", 
		 "theory": "DFT", 
		 "functional": "B3LYP", 
		 "basiset": "6-31G**", 
		 "properties": { 
			 "R2extent": 5323.3344, 
			 "electric_dipole_moment_norm": 6.61103659497, 
			 "electric_quadrupole_moment_norm": 27.7367034499, 
			 "total_energy": -1067.31875213, 
			 "HOMO_LUMO_gap": 0.1624, 
			 "cosmo_polarized_energy": -13.74, 
			 "cosmo_cavitation_energy": 33.01, 
			 "cosmo_dispersion_energy": -24.46, 
			 "cosmo_repulsion_energy": 1.85, 
			 "cosmo_total_nonelectrostatic_energy": 10.4, 
			 "SMD_solvation_energy": 6.15 
		},
		"coords": [
			{
				"x": 4.7106677451,
				"y": 1.5905066991,
				"z": -1.7740117301,
				"element": "C" 
			},
			{
				"x": 3.3227318634,
				"y": 1.3720025986,
				"z": -1.2233714107,
				"element": "C" 
			},
			{
				"x": 2.5002279051,
				"y": 0.3553678042,
				"z": -1.7351841708,
				"element": "C" 
			},
			{
				"x": 1.2215540482,
				"y": 0.141711969,
				"z": -1.2370870173,
				"element": "C" 
			},
			{
				"x": 0.7170921606,
				"y": 0.9446477535,
				"z": -0.1973652063,
				"element": "C" 
			},
			{
				"x": 1.5351845485,
				"y": 1.9604993663,
				"z": 0.3194365969,
				"element": "C" 
			},
			{
				"x": 2.8145127295,
				"y": 2.1683809993,
				"z": -0.1895455831,
				"element": "C" 
			},
			{
				"x": -0.634466688,
				"y": 0.7015354347,
				"z": 0.3152347305,
				"element": "C" 
			},
			{
				"x": -1.3539241138,
				"y": -0.3611934134,
				"z": 0.0403613195,
				"element": "N" 
			},
			{
				"x": -2.5912710563,
				"y": -0.342611292,
				"z": 0.6505216567,
				"element": "C" 
			},
			{
				"x": -3.5271617229,
				"y": -1.4959990813,
				"z": 0.412848441,
				"element": "C" 
			},
			{
				"x": -2.9239472772,
				"y": -2.904065632,
				"z": 0.581099539,
				"element": "C" 
			},
			{
				"x": -1.6575992817,
				"y": -3.0593387869,
				"z": 0.1647661728,
				"element": "O" 
			},
			{
				"x": -3.5782418852,
				"y": -3.826339449,
				"z": 1.0053046023,
				"element": "O" 
			},
			{
				"x": -2.833542994,
				"y": 0.7637024891,
				"z": 1.4142085388,
				"element": "C" 
			},
			{
				"x": -1.4747168243,
				"y": 1.8383729762,
				"z": 1.3634171036,
				"element": "S" 
			},
			{
				"x": 5.2080037648,
				"y": 2.432630952,
				"z": -1.285802632,
				"element": "H" 
			},
			{
				"x": 4.6828636734,
				"y": 1.7941609717,
				"z": -2.8505106653,
				"element": "H" 
			},
			{
				"x": 5.3373528417,
				"y": 0.702465516,
				"z": -1.632163199,
				"element": "H" 
			},
			{
				"x": 2.8688073821,
				"y": -0.2757413793,
				"z": -2.5400033127,
				"element": "H" 
			},
			{
				"x": 0.5956987407,
				"y": -0.6412708788,
				"z": -1.6507147954,
				"element": "H" 
			},
			{
				"x": 1.1808489566,
				"y": 2.5865544809,
				"z": 1.1338110858,
				"element": "H" 
			},
			{
				"x": 3.4312755494,
				"y": 2.9592361657,
				"z": 0.2286843853,
				"element": "H" 
			},
			{
				"x": -4.3980682088,
				"y": -1.4381152803,
				"z": 1.0663894328,
				"element": "H" 
			},
			{
				"x": -3.8970694181,
				"y": -1.4489372118,
				"z": -0.6217079117,
				"element": "H" 
			},
			{
				"x": -1.2806503162,
				"y": -2.1827343442,
				"z": -0.0844453174,
				"element": "H" 
			},
			{
				"x": -3.7159621223,
				"y": 1.0033705727,
				"z": 1.9896293469,
				"element": "H" 
			}
		],
		 "valence_orbital": [ 
			{
				"type": "occ",
				"energy": -0.29546,
				"method": "rhf"
			},
			{
				"type": "occ",
				"energy": -0.28777,
				"method": "rhf"
			},
			{
				"type": "occ",
				"energy": -0.26774,
				"method": "rhf"
			},
			{
				"type": "occ",
				"energy": -0.25463,
				"method": "rhf"
			},
			{
				"type": "occ",
				"energy": -0.23123,
				"method": "rhf"
			},
			{
				"type": "unocc",
				"energy": -0.06883,
				"method": "rhf"
			},
			{
				"type": "unocc",
				"energy": -0.01865,
				"method": "rhf"
			},
			{
				"type": "unocc",
				"energy": 0.00155,
				"method": "rhf"
			},
			{
				"type": "unocc",
				"energy": 0.00656,
				"method": "rhf"
			},
			{
				"type": "unocc",
				"energy": 0.02624,
				"method": "rhf"
			}
		],
		"cosmo_sigma_profile": { 
			"-0.025": 0.0,
			"-0.024": 0.0,
			"-0.023": 0.0,
			"-0.022": 0.0,
			"-0.021": 0.0,
			"-0.02": 0.0,
			"-0.019": 0.0,
			"-0.018": 0.0,
			"-0.017": 0.0,
			"-0.016": 0.0,
			"-0.015": 0.0,
			"-0.014": 0.0,
			"-0.013": 0.0,
			"-0.012": 0.0,
			"-0.011": 0.0,
			"-0.01": 0.610970486181,
			"-0.009": 2.38132214505,
			"-0.008": 5.04807405143,
			"-0.007": 7.86514316878,
			"-0.006": 12.4068861134,
			"-0.005": 17.7193782793,
			"-0.004": 22.8188306999,
			"-0.003": 21.874617979,
			"-0.002": 20.5717551276,
			"-0.001": 21.8394664925,
			"0.0": 26.4552281589,
			"0.001": 22.5667484697,
			"0.002": 19.3898668113,
			"0.003": 14.4479788884,
			"0.004": 13.1335090929,
			"0.005": 6.95589383621,
			"0.006": 2.71975819093,
			"0.007": 1.76099772774,
			"0.008": 2.70606023018,
			"0.009": 2.67373259948,
			"0.01": 4.20490503439,
			"0.011": 5.24428358346,
			"0.012": 6.59279485756,
			"0.013": 3.63410378557,
			"0.014": 0.614856773101,
			"0.015": 0.0,
			"0.016": 0.0,
			"0.017": 0.0,
			"0.018": 0.0,
			"0.019": 0.0,
			"0.02": 0.0,
			"0.021": 0.0,
			"0.022": 0.0,
			"0.023": 0.0,
			"0.024": 0.0,
			"0.025": 0.0
		}
	}
}
