{
	 "smiles": "CC(C)C1=NOC2=C1C(=CC(=N2)C1=CC=CO1)C(O)=O", 
	 "Tm": 498.15, 
	 "num_atms": 32, 
	 "gaussian": { 
		 "optdone": 1, 
		 "sigma_profile": "yes", 
		 "theory": "DFT", 
		 "functional": "B3LYP", 
		 "basiset": "6-31G**", 
		 "properties": { 
			 "R2extent": 7008.2382, 
			 "electric_dipole_moment_norm": 4.9258146981, 
			 "electric_quadrupole_moment_norm": 21.4966752718, 
			 "total_energy": -951.072465434, 
			 "HOMO_LUMO_gap": 0.14047, 
			 "cosmo_polarized_energy": -17.79, 
			 "cosmo_cavitation_energy": 36.72, 
			 "cosmo_dispersion_energy": -26.41, 
			 "cosmo_repulsion_energy": 2.0, 
			 "cosmo_total_nonelectrostatic_energy": 12.31, 
			 "SMD_solvation_energy": 6.71 
		},
		"coords": [
			{
				"x": 1.1249553002,
				"y": -3.1673033789,
				"z": -0.6133593158,
				"element": "C" 
			},
			{
				"x": 1.3745810395,
				"y": -2.6688701426,
				"z": 0.8260290449,
				"element": "C" 
			},
			{
				"x": 2.7505773628,
				"y": -3.1216664675,
				"z": 1.3349889693,
				"element": "C" 
			},
			{
				"x": 1.205054742,
				"y": -1.1690389713,
				"z": 0.8928514641,
				"element": "C" 
			},
			{
				"x": 2.2597939818,
				"y": -0.3981620463,
				"z": 1.0003977936,
				"element": "N" 
			},
			{
				"x": 1.8331681244,
				"y": 0.9471356918,
				"z": 0.9983631937,
				"element": "O" 
			},
			{
				"x": 0.4905631925,
				"y": 0.9560662404,
				"z": 0.8899315534,
				"element": "C" 
			},
			{
				"x": 0.0056340345,
				"y": -0.3640475222,
				"z": 0.8228058996,
				"element": "C" 
			},
			{
				"x": -1.3907357801,
				"y": -0.5061567444,
				"z": 0.6961739273,
				"element": "C" 
			},
			{
				"x": -2.1465735387,
				"y": 0.6647896707,
				"z": 0.6599221827,
				"element": "C" 
			},
			{
				"x": -1.5219944839,
				"y": 1.9344867793,
				"z": 0.7489490643,
				"element": "C" 
			},
			{
				"x": -0.1909836395,
				"y": 2.0869045838,
				"z": 0.8603202695,
				"element": "N" 
			},
			{
				"x": -2.307170484,
				"y": 3.1555067642,
				"z": 0.725043872,
				"element": "C" 
			},
			{
				"x": -1.9602641954,
				"y": 4.4796948583,
				"z": 0.8054051853,
				"element": "C" 
			},
			{
				"x": -3.1759071678,
				"y": 5.2214436263,
				"z": 0.7264389343,
				"element": "C" 
			},
			{
				"x": -4.1765598384,
				"y": 4.3015127585,
				"z": 0.6037320074,
				"element": "C" 
			},
			{
				"x": -3.6689007364,
				"y": 3.0399236153,
				"z": 0.6003184159,
				"element": "O" 
			},
			{
				"x": -2.0775015864,
				"y": -1.8437685149,
				"z": 0.6732104985,
				"element": "C" 
			},
			{
				"x": -3.1810528294,
				"y": -1.9247639426,
				"z": -0.1098205501,
				"element": "O" 
			},
			{
				"x": -1.7141506857,
				"y": -2.7972692408,
				"z": 1.3184633016,
				"element": "O" 
			},
			{
				"x": 1.8757102171,
				"y": -2.7611967228,
				"z": -1.2996853736,
				"element": "H" 
			},
			{
				"x": 1.1870009424,
				"y": -4.2593345846,
				"z": -0.645465846,
				"element": "H" 
			},
			{
				"x": 0.1352658709,
				"y": -2.8825022266,
				"z": -0.9816431184,
				"element": "H" 
			},
			{
				"x": 0.5956415259,
				"y": -3.0972272551,
				"z": 1.4639798772,
				"element": "H" 
			},
			{
				"x": 3.5573609261,
				"y": -2.7217276898,
				"z": 0.7144184676,
				"element": "H" 
			},
			{
				"x": 2.808015426,
				"y": -4.2142868283,
				"z": 1.3127273561,
				"element": "H" 
			},
			{
				"x": 2.9263564227,
				"y": -2.7888334567,
				"z": 2.3615802388,
				"element": "H" 
			},
			{
				"x": -3.2290364946,
				"y": 0.6277164474,
				"z": 0.6119824075,
				"element": "H" 
			},
			{
				"x": -0.9540412493,
				"y": 4.856231242,
				"z": 0.9092073236,
				"element": "H" 
			},
			{
				"x": -3.2919069276,
				"y": 6.2950197165,
				"z": 0.757560262,
				"element": "H" 
			},
			{
				"x": -5.2491389732,
				"y": 4.3769149629,
				"z": 0.5133881851,
				"element": "H" 
			},
			{
				"x": -3.2708604984,
				"y": -1.1214912217,
				"z": -0.6430154914,
				"element": "H" 
			}
		],
		 "valence_orbital": [ 
			{
				"type": "occ",
				"energy": -0.29966,
				"method": "rhf"
			},
			{
				"type": "occ",
				"energy": -0.29167,
				"method": "rhf"
			},
			{
				"type": "occ",
				"energy": -0.28523,
				"method": "rhf"
			},
			{
				"type": "occ",
				"energy": -0.27499,
				"method": "rhf"
			},
			{
				"type": "occ",
				"energy": -0.23131,
				"method": "rhf"
			},
			{
				"type": "unocc",
				"energy": -0.09084,
				"method": "rhf"
			},
			{
				"type": "unocc",
				"energy": -0.04957,
				"method": "rhf"
			},
			{
				"type": "unocc",
				"energy": 0.00553,
				"method": "rhf"
			},
			{
				"type": "unocc",
				"energy": 0.0174,
				"method": "rhf"
			},
			{
				"type": "unocc",
				"energy": 0.03049,
				"method": "rhf"
			}
		],
		"cosmo_sigma_profile": { 
			"-0.025": 0.0,
			"-0.024": 0.0,
			"-0.023": 0.0,
			"-0.022": 0.0,
			"-0.021": 0.0,
			"-0.02": 0.084824177634,
			"-0.019": 0.917858338146,
			"-0.018": 0.575687915821,
			"-0.017": 1.34843534032,
			"-0.016": 0.799671440402,
			"-0.015": 0.82590957892,
			"-0.014": 1.34444029784,
			"-0.013": 1.28563973631,
			"-0.012": 1.08937314379,
			"-0.011": 0.867638838482,
			"-0.01": 2.02436528568,
			"-0.009": 3.06959129981,
			"-0.008": 6.64878024805,
			"-0.007": 6.89923204277,
			"-0.006": 7.2697462837,
			"-0.005": 8.3235487789,
			"-0.004": 12.1897970863,
			"-0.003": 25.5898609196,
			"-0.002": 35.5347435971,
			"-0.001": 27.70652381,
			"0.0": 25.3652266451,
			"0.001": 25.2372477799,
			"0.002": 16.055774149,
			"0.003": 15.8847839222,
			"0.004": 12.4788715816,
			"0.005": 7.62615768002,
			"0.006": 6.70166443123,
			"0.007": 9.29532264744,
			"0.008": 9.51829961539,
			"0.009": 8.02189520109,
			"0.01": 6.02617800344,
			"0.011": 4.57275680577,
			"0.012": 2.38903185746,
			"0.013": 0.495173378637,
			"0.014": 0.0,
			"0.015": 0.0,
			"0.016": 0.0,
			"0.017": 0.0,
			"0.018": 0.0,
			"0.019": 0.0,
			"0.02": 0.0,
			"0.021": 0.0,
			"0.022": 0.0,
			"0.023": 0.0,
			"0.024": 0.0,
			"0.025": 0.0
		}
	}
}
