{
	 "smiles": "CC(O)C(NC(=O)C1CCCC1)C(O)=O", 
	 "Tm": 419.15, 
	 "num_atms": 32, 
	 "gaussian": { 
		 "optdone": 1, 
		 "sigma_profile": "yes", 
		 "theory": "DFT", 
		 "functional": "B3LYP", 
		 "basiset": "6-31G**", 
		 "properties": { 
			 "R2extent": 4200.4984, 
			 "electric_dipole_moment_norm": 2.28267415546, 
			 "electric_quadrupole_moment_norm": 12.3311331766, 
			 "total_energy": -746.992615661, 
			 "HOMO_LUMO_gap": 0.23953, 
			 "cosmo_polarized_energy": -16.74, 
			 "cosmo_cavitation_energy": 33.84, 
			 "cosmo_dispersion_energy": -23.39, 
			 "cosmo_repulsion_energy": 1.88, 
			 "cosmo_total_nonelectrostatic_energy": 12.33, 
			 "SMD_solvation_energy": 6.9 
		},
		"coords": [
			{
				"x": -2.9122985263,
				"y": -0.153508582,
				"z": -2.3429196617,
				"element": "C" 
			},
			{
				"x": -2.2192272173,
				"y": -0.0846788622,
				"z": -0.9900618929,
				"element": "C" 
			},
			{
				"x": -3.1593425224,
				"y": 0.4113764225,
				"z": -0.0463985693,
				"element": "O" 
			},
			{
				"x": -0.9191524859,
				"y": 0.7755587011,
				"z": -0.9520635845,
				"element": "C" 
			},
			{
				"x": -0.2458259447,
				"y": 0.6035052779,
				"z": 0.3284884057,
				"element": "N" 
			},
			{
				"x": 0.6479162601,
				"y": -0.4267417053,
				"z": 0.5154638737,
				"element": "C" 
			},
			{
				"x": 0.7628048827,
				"y": -1.3291168381,
				"z": -0.3070027692,
				"element": "O" 
			},
			{
				"x": 1.4823757186,
				"y": -0.3674665305,
				"z": 1.79143546,
				"element": "C" 
			},
			{
				"x": 0.6930680504,
				"y": -0.1104460678,
				"z": 3.1203659264,
				"element": "C" 
			},
			{
				"x": 1.4134304028,
				"y": 1.0608895793,
				"z": 3.8337880169,
				"element": "C" 
			},
			{
				"x": 2.8274832388,
				"y": 1.0676659984,
				"z": 3.2306009789,
				"element": "C" 
			},
			{
				"x": 2.5742012312,
				"y": 0.7410494523,
				"z": 1.7514780961,
				"element": "C" 
			},
			{
				"x": -1.1951349869,
				"y": 2.2637528166,
				"z": -1.1037386218,
				"element": "C" 
			},
			{
				"x": -1.6060250556,
				"y": 2.5951589096,
				"z": -2.3409715759,
				"element": "O" 
			},
			{
				"x": -1.0553643544,
				"y": 3.080532673,
				"z": -0.2158342353,
				"element": "O" 
			},
			{
				"x": -2.2243685673,
				"y": -0.5177220484,
				"z": -3.1118296381,
				"element": "H" 
			},
			{
				"x": -3.2907095109,
				"y": 0.8242447104,
				"z": -2.6462526962,
				"element": "H" 
			},
			{
				"x": -3.7553957085,
				"y": -0.846238699,
				"z": -2.2761480367,
				"element": "H" 
			},
			{
				"x": -1.8823333702,
				"y": -1.0939327325,
				"z": -0.7143050608,
				"element": "H" 
			},
			{
				"x": -2.7315663869,
				"y": 0.3817500046,
				"z": 0.8208977645,
				"element": "H" 
			},
			{
				"x": -0.2607311548,
				"y": 0.4386704303,
				"z": -1.7615043349,
				"element": "H" 
			},
			{
				"x": -0.1838881737,
				"y": 1.4426882007,
				"z": 0.8927945422,
				"element": "H" 
			},
			{
				"x": 1.9731279016,
				"y": -1.3424433429,
				"z": 1.8393478281,
				"element": "H" 
			},
			{
				"x": -0.3630637156,
				"y": 0.1087876854,
				"z": 2.9385977178,
				"element": "H" 
			},
			{
				"x": 0.7191903452,
				"y": -1.01485878,
				"z": 3.7356896132,
				"element": "H" 
			},
			{
				"x": 0.9145508652,
				"y": 2.0104637006,
				"z": 3.6019745502,
				"element": "H" 
			},
			{
				"x": 1.408146549,
				"y": 0.9560351639,
				"z": 4.9229087731,
				"element": "H" 
			},
			{
				"x": 3.3544315747,
				"y": 2.0161305781,
				"z": 3.3752947299,
				"element": "H" 
			},
			{
				"x": 3.4382538081,
				"y": 0.2787519855,
				"z": 3.6880759369,
				"element": "H" 
			},
			{
				"x": 3.4670988067,
				"y": 0.4169702431,
				"z": 1.2094096636,
				"element": "H" 
			},
			{
				"x": 2.1918832231,
				"y": 1.6343355316,
				"z": 1.2403642571,
				"element": "H" 
			},
			{
				"x": -1.7832351767,
				"y": 3.5513361238,
				"z": -2.3253454569,
				"element": "H" 
			}
		],
		 "valence_orbital": [ 
			{
				"type": "occ",
				"energy": -0.32154,
				"method": "rhf"
			},
			{
				"type": "occ",
				"energy": -0.29882,
				"method": "rhf"
			},
			{
				"type": "occ",
				"energy": -0.28113,
				"method": "rhf"
			},
			{
				"type": "occ",
				"energy": -0.25296,
				"method": "rhf"
			},
			{
				"type": "occ",
				"energy": -0.2469,
				"method": "rhf"
			},
			{
				"type": "unocc",
				"energy": -0.00737,
				"method": "rhf"
			},
			{
				"type": "unocc",
				"energy": 0.01964,
				"method": "rhf"
			},
			{
				"type": "unocc",
				"energy": 0.05848,
				"method": "rhf"
			},
			{
				"type": "unocc",
				"energy": 0.06489,
				"method": "rhf"
			},
			{
				"type": "unocc",
				"energy": 0.0774,
				"method": "rhf"
			}
		],
		"cosmo_sigma_profile": { 
			"-0.025": 0.0,
			"-0.024": 0.0,
			"-0.023": 0.0,
			"-0.022": 0.0,
			"-0.021": 0.0,
			"-0.02": 0.0149862114248,
			"-0.019": 0.630467630098,
			"-0.018": 0.843506656835,
			"-0.017": 0.965388221516,
			"-0.016": 0.811446232414,
			"-0.015": 0.831230245856,
			"-0.014": 0.371938457111,
			"-0.013": 1.4314685701,
			"-0.012": 1.64185359676,
			"-0.011": 1.65922181061,
			"-0.01": 1.89128252141,
			"-0.009": 2.05746799726,
			"-0.008": 3.57180353719,
			"-0.007": 5.11503879784,
			"-0.006": 6.15025572202,
			"-0.005": 8.47784261379,
			"-0.004": 13.2385943046,
			"-0.003": 28.4804712271,
			"-0.002": 35.0250693165,
			"-0.001": 32.4754435426,
			"0.0": 26.8872666594,
			"0.001": 21.674711929,
			"0.002": 6.69336777754,
			"0.003": 5.63654064862,
			"0.004": 5.48875075142,
			"0.005": 6.07600698774,
			"0.006": 4.82202656488,
			"0.007": 4.54663500647,
			"0.008": 5.34095078733,
			"0.009": 4.65490723098,
			"0.01": 4.89594341581,
			"0.011": 5.98416023641,
			"0.012": 3.11460228463,
			"0.013": 5.51098016841,
			"0.014": 4.55463073334,
			"0.015": 0.988324055951,
			"0.016": 0.0,
			"0.017": 0.0,
			"0.018": 0.0,
			"0.019": 0.0,
			"0.02": 0.0,
			"0.021": 0.0,
			"0.022": 0.0,
			"0.023": 0.0,
			"0.024": 0.0,
			"0.025": 0.0
		}
	}
}
