{
	 "smiles": "CCC1=CC(C(=O)C2=CC=C(OC)C=C2)=C(N)S1", 
	 "Tm": 374.15, 
	 "num_atms": 33, 
	 "gaussian": { 
		 "optdone": 1, 
		 "sigma_profile": "yes", 
		 "theory": "DFT", 
		 "functional": "B3LYP", 
		 "basiset": "6-31G**", 
		 "properties": { 
			 "R2extent": 7232.4606, 
			 "electric_dipole_moment_norm": 2.8927314929, 
			 "electric_quadrupole_moment_norm": 15.6173375538, 
			 "total_energy": -1145.9133555, 
			 "HOMO_LUMO_gap": 0.1492, 
			 "cosmo_polarized_energy": -13.06, 
			 "cosmo_cavitation_energy": 37.92, 
			 "cosmo_dispersion_energy": -27.99, 
			 "cosmo_repulsion_energy": 2.14, 
			 "cosmo_total_nonelectrostatic_energy": 12.07, 
			 "SMD_solvation_energy": 6.99 
		},
		"coords": [
			{
				"x": 0.2956873919,
				"y": -0.7439080985,
				"z": 4.8866691158,
				"element": "C" 
			},
			{
				"x": 1.4062311977,
				"y": -0.7738454348,
				"z": 3.8214965245,
				"element": "C" 
			},
			{
				"x": 1.345748862,
				"y": 0.3515937094,
				"z": 2.8298339355,
				"element": "C" 
			},
			{
				"x": 1.0970199647,
				"y": 0.3113683417,
				"z": 1.4963534362,
				"element": "C" 
			},
			{
				"x": 1.1259696672,
				"y": 1.5890101929,
				"z": 0.8199969512,
				"element": "C" 
			},
			{
				"x": 0.9555705943,
				"y": 1.8722644543,
				"z": -0.6019008489,
				"element": "C" 
			},
			{
				"x": 1.2396802558,
				"y": 2.9917524487,
				"z": -1.0732424853,
				"element": "O" 
			},
			{
				"x": 0.4473452313,
				"y": 0.823616385,
				"z": -1.5413370255,
				"element": "C" 
			},
			{
				"x": -0.5249871292,
				"y": -0.1218951721,
				"z": -1.1950309222,
				"element": "C" 
			},
			{
				"x": -1.0185131345,
				"y": -1.0333735602,
				"z": -2.131501952,
				"element": "C" 
			},
			{
				"x": -0.5264708282,
				"y": -1.0122996528,
				"z": -3.4421799108,
				"element": "C" 
			},
			{
				"x": -0.9224094278,
				"y": -1.8595963451,
				"z": -4.4320822097,
				"element": "O" 
			},
			{
				"x": -1.9011906749,
				"y": -2.8419530421,
				"z": -4.1290609299,
				"element": "C" 
			},
			{
				"x": 0.4393493474,
				"y": -0.0585671007,
				"z": -3.8072796902,
				"element": "C" 
			},
			{
				"x": 0.9029098622,
				"y": 0.8519890867,
				"z": -2.8730837584,
				"element": "C" 
			},
			{
				"x": 1.4432193426,
				"y": 2.6225240518,
				"z": 1.7133555098,
				"element": "C" 
			},
			{
				"x": 1.5548057634,
				"y": 3.9373099329,
				"z": 1.4120328179,
				"element": "N" 
			},
			{
				"x": 1.6392747708,
				"y": 2.0268498449,
				"z": 3.3471077891,
				"element": "S" 
			},
			{
				"x": -0.6933257889,
				"y": -0.7765052062,
				"z": 4.4194970152,
				"element": "H" 
			},
			{
				"x": 0.3479588198,
				"y": 0.1676271931,
				"z": 5.4910380119,
				"element": "H" 
			},
			{
				"x": 0.3853511942,
				"y": -1.599530828,
				"z": 5.5640647783,
				"element": "H" 
			},
			{
				"x": 1.3434197832,
				"y": -1.7094701084,
				"z": 3.2533120671,
				"element": "H" 
			},
			{
				"x": 2.3843508253,
				"y": -0.7858548279,
				"z": 4.3217872968,
				"element": "H" 
			},
			{
				"x": 0.9338804224,
				"y": -0.6256171802,
				"z": 0.9779519501,
				"element": "H" 
			},
			{
				"x": -0.9372069976,
				"y": -0.1314264399,
				"z": -0.191611426,
				"element": "H" 
			},
			{
				"x": -1.7841042686,
				"y": -1.7396446186,
				"z": -1.8332154669,
				"element": "H" 
			},
			{
				"x": -2.8494404004,
				"y": -2.3857787311,
				"z": -3.8173963934,
				"element": "H" 
			},
			{
				"x": -1.5572187712,
				"y": -3.5268121118,
				"z": -3.3434640343,
				"element": "H" 
			},
			{
				"x": -2.0594092977,
				"y": -3.4035918584,
				"z": -5.0508804491,
				"element": "H" 
			},
			{
				"x": 0.798729802,
				"y": -0.0533066573,
				"z": -4.831185042,
				"element": "H" 
			},
			{
				"x": 1.6280386556,
				"y": 1.6082784284,
				"z": -3.1541798529,
				"element": "H" 
			},
			{
				"x": 1.5916693052,
				"y": 4.1142988247,
				"z": 0.408265185,
				"element": "H" 
			},
			{
				"x": 1.9938656601,
				"y": 4.5718940794,
				"z": 2.0591700131,
				"element": "H" 
			}
		],
		 "valence_orbital": [ 
			{
				"type": "occ",
				"energy": -0.25369,
				"method": "rhf"
			},
			{
				"type": "occ",
				"energy": -0.2493,
				"method": "rhf"
			},
			{
				"type": "occ",
				"energy": -0.23984,
				"method": "rhf"
			},
			{
				"type": "occ",
				"energy": -0.22078,
				"method": "rhf"
			},
			{
				"type": "occ",
				"energy": -0.18985,
				"method": "rhf"
			},
			{
				"type": "unocc",
				"energy": -0.04065,
				"method": "rhf"
			},
			{
				"type": "unocc",
				"energy": -0.0029,
				"method": "rhf"
			},
			{
				"type": "unocc",
				"energy": 0.007,
				"method": "rhf"
			},
			{
				"type": "unocc",
				"energy": 0.01487,
				"method": "rhf"
			},
			{
				"type": "unocc",
				"energy": 0.03086,
				"method": "rhf"
			}
		],
		"cosmo_sigma_profile": { 
			"-0.025": 0.0,
			"-0.024": 0.0,
			"-0.023": 0.0,
			"-0.022": 0.0,
			"-0.021": 0.0,
			"-0.02": 0.0,
			"-0.019": 0.0,
			"-0.018": 0.0,
			"-0.017": 0.0,
			"-0.016": 0.0,
			"-0.015": 0.495573666248,
			"-0.014": 1.63536729575,
			"-0.013": 1.16899866172,
			"-0.012": 1.07738016651,
			"-0.011": 1.52603108106,
			"-0.01": 1.07076606557,
			"-0.009": 2.15559478401,
			"-0.008": 2.21402532062,
			"-0.007": 2.24770588657,
			"-0.006": 11.5335471039,
			"-0.005": 19.1351979406,
			"-0.004": 24.7588671562,
			"-0.003": 27.7658955421,
			"-0.002": 22.7897369831,
			"-0.001": 24.675097228,
			"0.0": 22.7624657704,
			"0.001": 23.1006987542,
			"0.002": 19.4889696808,
			"0.003": 25.6750230237,
			"0.004": 27.0327896986,
			"0.005": 14.9610921294,
			"0.006": 5.80564698781,
			"0.007": 4.0226002905,
			"0.008": 3.94142687469,
			"0.009": 3.15836293236,
			"0.01": 2.80968111073,
			"0.011": 1.94808638491,
			"0.012": 1.78879355162,
			"0.013": 1.3273326649,
			"0.014": 1.1949378195,
			"0.015": 0.0535826929501,
			"0.016": 0.0,
			"0.017": 0.0,
			"0.018": 0.0,
			"0.019": 0.0,
			"0.02": 0.0,
			"0.021": 0.0,
			"0.022": 0.0,
			"0.023": 0.0,
			"0.024": 0.0,
			"0.025": 0.0
		}
	}
}
