{
	 "smiles": "NC(=O)C1=C(N)C2=C(S1)C=CC=C2", 
	 "Tm": 491.15, 
	 "num_atms": 21, 
	 "gaussian": { 
		 "optdone": 1, 
		 "sigma_profile": "yes", 
		 "theory": "DFT", 
		 "functional": "B3LYP", 
		 "basiset": "6-31G**", 
		 "properties": { 
			 "R2extent": 3126.3013, 
			 "electric_dipole_moment_norm": 4.82682826813, 
			 "electric_quadrupole_moment_norm": 20.2350589035, 
			 "total_energy": -930.717242588, 
			 "HOMO_LUMO_gap": 0.15472, 
			 "cosmo_polarized_energy": -17.79, 
			 "cosmo_cavitation_energy": 26.28, 
			 "cosmo_dispersion_energy": -20.38, 
			 "cosmo_repulsion_energy": 1.55, 
			 "cosmo_total_nonelectrostatic_energy": 7.45, 
			 "SMD_solvation_energy": 4.66 
		},
		"coords": [
			{
				"x": -2.1215415513,
				"y": -0.7002458723,
				"z": 3.5270767746,
				"element": "N" 
			},
			{
				"x": -0.7591192881,
				"y": -0.9438038347,
				"z": 3.3408204559,
				"element": "C" 
			},
			{
				"x": -0.105125366,
				"y": -1.5919602339,
				"z": 4.1498637974,
				"element": "O" 
			},
			{
				"x": -0.1784820608,
				"y": -0.4039984246,
				"z": 2.1045556246,
				"element": "C" 
			},
			{
				"x": -0.7960175222,
				"y": 0.0798638715,
				"z": 0.9686860606,
				"element": "C" 
			},
			{
				"x": -2.1711892189,
				"y": 0.1731594732,
				"z": 0.7698764567,
				"element": "N" 
			},
			{
				"x": 0.1580191548,
				"y": 0.5279328457,
				"z": -0.023838884,
				"element": "C" 
			},
			{
				"x": 1.4942323356,
				"y": 0.3306992938,
				"z": 0.4011099112,
				"element": "C" 
			},
			{
				"x": 1.583405479,
				"y": -0.3924466622,
				"z": 1.9900381926,
				"element": "S" 
			},
			{
				"x": 2.5709539622,
				"y": 0.6937755489,
				"z": -0.4176820589,
				"element": "C" 
			},
			{
				"x": 2.3053421542,
				"y": 1.2569830245,
				"z": -1.6598120304,
				"element": "C" 
			},
			{
				"x": 0.9817681918,
				"y": 1.46367315,
				"z": -2.0921894723,
				"element": "C" 
			},
			{
				"x": -0.0870793382,
				"y": 1.104619101,
				"z": -1.2840614732,
				"element": "C" 
			},
			{
				"x": -2.4292725066,
				"y": -0.9677661276,
				"z": 4.4544722919,
				"element": "H" 
			},
			{
				"x": -2.4676546223,
				"y": 0.2020640116,
				"z": 3.221402432,
				"element": "H" 
			},
			{
				"x": -2.7048300922,
				"y": -0.5258149965,
				"z": 1.2748832761,
				"element": "H" 
			},
			{
				"x": -2.4417725055,
				"y": 0.2150307456,
				"z": -0.2040019947,
				"element": "H" 
			},
			{
				"x": 3.5931354149,
				"y": 0.5385960583,
				"z": -0.0864550955,
				"element": "H" 
			},
			{
				"x": 3.130890758,
				"y": 1.5441985588,
				"z": -2.304257493,
				"element": "H" 
			},
			{
				"x": 0.7977934163,
				"y": 1.9118447882,
				"z": -3.0637418335,
				"element": "H" 
			},
			{
				"x": -1.1041567948,
				"y": 1.2850956806,
				"z": -1.6227449381,
				"element": "H" 
			}
		],
		 "valence_orbital": [ 
			{
				"type": "occ",
				"energy": -0.27958,
				"method": "rhf"
			},
			{
				"type": "occ",
				"energy": -0.26715,
				"method": "rhf"
			},
			{
				"type": "occ",
				"energy": -0.25243,
				"method": "rhf"
			},
			{
				"type": "occ",
				"energy": -0.23756,
				"method": "rhf"
			},
			{
				"type": "occ",
				"energy": -0.20283,
				"method": "rhf"
			},
			{
				"type": "unocc",
				"energy": -0.04811,
				"method": "rhf"
			},
			{
				"type": "unocc",
				"energy": -0.00822,
				"method": "rhf"
			},
			{
				"type": "unocc",
				"energy": 0.02049,
				"method": "rhf"
			},
			{
				"type": "unocc",
				"energy": 0.03099,
				"method": "rhf"
			},
			{
				"type": "unocc",
				"energy": 0.06239,
				"method": "rhf"
			}
		],
		"cosmo_sigma_profile": { 
			"-0.025": 0.0,
			"-0.024": 0.0,
			"-0.023": 0.0,
			"-0.022": 0.0,
			"-0.021": 0.0,
			"-0.02": 0.0,
			"-0.019": 0.0,
			"-0.018": 0.0,
			"-0.017": 0.0,
			"-0.016": 0.0,
			"-0.015": 0.0,
			"-0.014": 0.534659456711,
			"-0.013": 2.60267620422,
			"-0.012": 4.7212801783,
			"-0.011": 4.77289046802,
			"-0.01": 3.96930764222,
			"-0.009": 5.07288232201,
			"-0.008": 4.40018438569,
			"-0.007": 7.01064015923,
			"-0.006": 12.087661948,
			"-0.005": 10.1316311673,
			"-0.004": 11.2933956321,
			"-0.003": 9.66894554703,
			"-0.002": 8.16070189995,
			"-0.001": 8.92867241823,
			"0.0": 9.42710400334,
			"0.001": 11.4504161175,
			"0.002": 15.9860699843,
			"0.003": 20.5080624413,
			"0.004": 19.7063510053,
			"0.005": 11.2609109188,
			"0.006": 6.40382096711,
			"0.007": 3.27494680524,
			"0.008": 3.15840784597,
			"0.009": 2.24794983217,
			"0.01": 1.69851603528,
			"0.011": 2.47073237115,
			"0.012": 2.27371920463,
			"0.013": 5.30278095648,
			"0.014": 3.46733706279,
			"0.015": 0.21685295461,
			"0.016": 0.0,
			"0.017": 0.0,
			"0.018": 0.0,
			"0.019": 0.0,
			"0.02": 0.0,
			"0.021": 0.0,
			"0.022": 0.0,
			"0.023": 0.0,
			"0.024": 0.0,
			"0.025": 0.0
		}
	}
}
