{
	 "smiles": "CC1=C(C)C2=C(S1)N=C(CCl)NC2=O", 
	 "Tm": 464.15, 
	 "num_atms": 23, 
	 "gaussian": { 
		 "optdone": 1, 
		 "sigma_profile": "yes", 
		 "theory": "DFT", 
		 "functional": "B3LYP", 
		 "basiset": "6-31G**", 
		 "properties": { 
			 "R2extent": 4729.8207, 
			 "electric_dipole_moment_norm": 2.03341899519, 
			 "electric_quadrupole_moment_norm": 12.1697589652, 
			 "total_energy": -1391.52206123, 
			 "HOMO_LUMO_gap": 0.1607, 
			 "cosmo_polarized_energy": -12.24, 
			 "cosmo_cavitation_energy": 30.16, 
			 "cosmo_dispersion_energy": -22.81, 
			 "cosmo_repulsion_energy": 1.76, 
			 "cosmo_total_nonelectrostatic_energy": 9.1, 
			 "SMD_solvation_energy": 3.34 
		},
		"coords": [
			{
				"x": -1.7330016613,
				"y": -2.4533862673,
				"z": 2.6942741829,
				"element": "C" 
			},
			{
				"x": -0.7492189674,
				"y": -1.7809244822,
				"z": 1.7768850817,
				"element": "C" 
			},
			{
				"x": -0.9737471354,
				"y": -0.7494232345,
				"z": 0.8985994839,
				"element": "C" 
			},
			{
				"x": -2.3033638411,
				"y": -0.0782087863,
				"z": 0.6851384593,
				"element": "C" 
			},
			{
				"x": 0.2255901495,
				"y": -0.3820374824,
				"z": 0.1973625664,
				"element": "C" 
			},
			{
				"x": 1.3386977046,
				"y": -1.1409727827,
				"z": 0.5527229884,
				"element": "C" 
			},
			{
				"x": 0.9242212119,
				"y": -2.3216827472,
				"z": 1.7620199973,
				"element": "S" 
			},
			{
				"x": 2.6027500476,
				"y": -1.0262373835,
				"z": 0.0510818542,
				"element": "N" 
			},
			{
				"x": 2.7535143355,
				"y": -0.0908924928,
				"z": -0.8426709988,
				"element": "C" 
			},
			{
				"x": 4.1371494835,
				"y": 0.1617386132,
				"z": -1.3751270473,
				"element": "C" 
			},
			{
				"x": 4.1775276413,
				"y": 0.3559706255,
				"z": -3.1826135996,
				"element": "Cl" 
			},
			{
				"x": 1.7346001711,
				"y": 0.7160820048,
				"z": -1.2667507282,
				"element": "N" 
			},
			{
				"x": 0.3934617697,
				"y": 0.6485804691,
				"z": -0.8121199314,
				"element": "C" 
			},
			{
				"x": -0.4496520276,
				"y": 1.4070228685,
				"z": -1.2717635719,
				"element": "O" 
			},
			{
				"x": -2.1659629663,
				"y": -1.740713095,
				"z": 3.4051250711,
				"element": "H" 
			},
			{
				"x": -1.2602354388,
				"y": -3.2495809734,
				"z": 3.2749527596,
				"element": "H" 
			},
			{
				"x": -2.5586382689,
				"y": -2.9029489448,
				"z": 2.1314788615,
				"element": "H" 
			},
			{
				"x": -2.6252366197,
				"y": -0.1691727137,
				"z": -0.3566602458,
				"element": "H" 
			},
			{
				"x": -3.0746311181,
				"y": -0.5108115649,
				"z": 1.3266494352,
				"element": "H" 
			},
			{
				"x": -2.2389622558,
				"y": 0.9942123927,
				"z": 0.8922855406,
				"element": "H" 
			},
			{
				"x": 4.5557877114,
				"y": 1.0846994977,
				"z": -0.9668594016,
				"element": "H" 
			},
			{
				"x": 4.770181786,
				"y": -0.6818606426,
				"z": -1.1092205364,
				"element": "H" 
			},
			{
				"x": 1.9003682882,
				"y": 1.3857471219,
				"z": -2.010390221,
				"element": "H" 
			}
		],
		 "valence_orbital": [ 
			{
				"type": "occ",
				"energy": -0.29412,
				"method": "rhf"
			},
			{
				"type": "occ",
				"energy": -0.29265,
				"method": "rhf"
			},
			{
				"type": "occ",
				"energy": -0.26499,
				"method": "rhf"
			},
			{
				"type": "occ",
				"energy": -0.2569,
				"method": "rhf"
			},
			{
				"type": "occ",
				"energy": -0.21738,
				"method": "rhf"
			},
			{
				"type": "unocc",
				"energy": -0.05668,
				"method": "rhf"
			},
			{
				"type": "unocc",
				"energy": -0.01249,
				"method": "rhf"
			},
			{
				"type": "unocc",
				"energy": 0.00702,
				"method": "rhf"
			},
			{
				"type": "unocc",
				"energy": 0.01422,
				"method": "rhf"
			},
			{
				"type": "unocc",
				"energy": 0.03004,
				"method": "rhf"
			}
		],
		"cosmo_sigma_profile": { 
			"-0.025": 0.0,
			"-0.024": 0.0,
			"-0.023": 0.0,
			"-0.022": 0.0,
			"-0.021": 0.0,
			"-0.02": 0.0,
			"-0.019": 0.0,
			"-0.018": 0.0,
			"-0.017": 0.0,
			"-0.016": 0.0,
			"-0.015": 0.26114350455,
			"-0.014": 0.788253996434,
			"-0.013": 1.01052569929,
			"-0.012": 0.748459539623,
			"-0.011": 1.37507216269,
			"-0.01": 2.54145021311,
			"-0.009": 4.94209184334,
			"-0.008": 4.47512820614,
			"-0.007": 4.6856541225,
			"-0.006": 6.4418262721,
			"-0.005": 9.49762045497,
			"-0.004": 16.9846228816,
			"-0.003": 18.3462589879,
			"-0.002": 21.5063661661,
			"-0.001": 21.9583742297,
			"0.0": 23.0168039564,
			"0.001": 21.3719214662,
			"0.002": 20.8109746936,
			"0.003": 16.1011966995,
			"0.004": 12.4063879917,
			"0.005": 9.96948781668,
			"0.006": 4.01142826648,
			"0.007": 2.93589833464,
			"0.008": 1.73191605613,
			"0.009": 2.75065754255,
			"0.01": 2.23453405096,
			"0.011": 2.48542709237,
			"0.012": 3.84562016839,
			"0.013": 4.89267703518,
			"0.014": 0.548053648039,
			"0.015": 0.0,
			"0.016": 0.0,
			"0.017": 0.0,
			"0.018": 0.0,
			"0.019": 0.0,
			"0.02": 0.0,
			"0.021": 0.0,
			"0.022": 0.0,
			"0.023": 0.0,
			"0.024": 0.0,
			"0.025": 0.0
		}
	}
}
