{
	 "smiles": "NC1=CC(CN2CCOCC2)=CC=C1", 
	 "Tm": 347.15, 
	 "num_atms": 30, 
	 "gaussian": { 
		 "optdone": 1, 
		 "sigma_profile": "yes", 
		 "theory": "DFT", 
		 "functional": "B3LYP", 
		 "basiset": "6-31G**", 
		 "properties": { 
			 "R2extent": 3883.9051, 
			 "electric_dipole_moment_norm": 2.40959997717, 
			 "electric_quadrupole_moment_norm": 10.0640733617, 
			 "total_energy": -613.510905577, 
			 "HOMO_LUMO_gap": 0.20245, 
			 "cosmo_polarized_energy": -11.39, 
			 "cosmo_cavitation_energy": 31.32, 
			 "cosmo_dispersion_energy": -22.87, 
			 "cosmo_repulsion_energy": 1.82, 
			 "cosmo_total_nonelectrostatic_energy": 10.27, 
			 "SMD_solvation_energy": 3.49 
		},
		"coords": [
			{
				"x": -2.2210203605,
				"y": -3.7807833929,
				"z": 0.0042738868,
				"element": "N" 
			},
			{
				"x": -1.2265142709,
				"y": -2.9432483875,
				"z": 0.5183737525,
				"element": "C" 
			},
			{
				"x": -0.8740418299,
				"y": -1.7604020463,
				"z": -0.149483175,
				"element": "C" 
			},
			{
				"x": 0.0732301751,
				"y": -0.8839111709,
				"z": 0.386478968,
				"element": "C" 
			},
			{
				"x": 0.4777171478,
				"y": 0.3621633637,
				"z": -0.3848588115,
				"element": "C" 
			},
			{
				"x": -0.6527524875,
				"y": 1.041148926,
				"z": -1.0116338269,
				"element": "N" 
			},
			{
				"x": -1.568476203,
				"y": 1.6251257452,
				"z": -0.0218922443,
				"element": "C" 
			},
			{
				"x": -2.4940314687,
				"y": 2.6325310519,
				"z": -0.6905805868,
				"element": "C" 
			},
			{
				"x": -1.7883137983,
				"y": 3.7488061977,
				"z": -1.2356537423,
				"element": "O" 
			},
			{
				"x": -0.4463110809,
				"y": 3.4567199889,
				"z": -1.6184039685,
				"element": "C" 
			},
			{
				"x": -0.2878557056,
				"y": 2.0046473468,
				"z": -2.0683886058,
				"element": "C" 
			},
			{
				"x": 0.6804192687,
				"y": -1.1882552459,
				"z": 1.6096575471,
				"element": "C" 
			},
			{
				"x": 0.3408186876,
				"y": -2.3679772737,
				"z": 2.2756820254,
				"element": "C" 
			},
			{
				"x": -0.602157878,
				"y": -3.2418306614,
				"z": 1.7429856487,
				"element": "C" 
			},
			{
				"x": -2.1635907055,
				"y": -4.7449844557,
				"z": 0.3024371315,
				"element": "H" 
			},
			{
				"x": -2.3656765714,
				"y": -3.7059122493,
				"z": -0.9933881111,
				"element": "H" 
			},
			{
				"x": -1.3520626332,
				"y": -1.5011011581,
				"z": -1.090899478,
				"element": "H" 
			},
			{
				"x": 1.0470848536,
				"y": 1.0279813759,
				"z": 0.2938038098,
				"element": "H" 
			},
			{
				"x": 1.1695842859,
				"y": 0.0678780702,
				"z": -1.1849027202,
				"element": "H" 
			},
			{
				"x": -2.1590715672,
				"y": 0.8288475108,
				"z": 0.4446928419,
				"element": "H" 
			},
			{
				"x": -1.0204399865,
				"y": 2.1348235287,
				"z": 0.7936093073,
				"element": "H" 
			},
			{
				"x": -3.0723233477,
				"y": 2.1279150276,
				"z": -1.4804518968,
				"element": "H" 
			},
			{
				"x": -3.2053162989,
				"y": 3.0331541318,
				"z": 0.0392384205,
				"element": "H" 
			},
			{
				"x": -0.1940820844,
				"y": 4.1423549122,
				"z": -2.435282576,
				"element": "H" 
			},
			{
				"x": 0.242887473,
				"y": 3.6677866984,
				"z": -0.7845980394,
				"element": "H" 
			},
			{
				"x": 0.7459576492,
				"y": 1.8304009337,
				"z": -2.3853122009,
				"element": "H" 
			},
			{
				"x": -0.9226097597,
				"y": 1.8427976463,
				"z": -2.9509750778,
				"element": "H" 
			},
			{
				"x": 1.4124723421,
				"y": -0.5083603274,
				"z": 2.0368101435,
				"element": "H" 
			},
			{
				"x": 0.8122568372,
				"y": -2.6078189132,
				"z": 3.2250429451,
				"element": "H" 
			},
			{
				"x": -0.8683806826,
				"y": -4.1524971735,
				"z": 2.2743186332,
				"element": "H" 
			}
		],
		 "valence_orbital": [ 
			{
				"type": "occ",
				"energy": -0.29503,
				"method": "rhf"
			},
			{
				"type": "occ",
				"energy": -0.24155,
				"method": "rhf"
			},
			{
				"type": "occ",
				"energy": -0.23594,
				"method": "rhf"
			},
			{
				"type": "occ",
				"energy": -0.20569,
				"method": "rhf"
			},
			{
				"type": "occ",
				"energy": -0.19777,
				"method": "rhf"
			},
			{
				"type": "unocc",
				"energy": 0.00468,
				"method": "rhf"
			},
			{
				"type": "unocc",
				"energy": 0.0224,
				"method": "rhf"
			},
			{
				"type": "unocc",
				"energy": 0.0834,
				"method": "rhf"
			},
			{
				"type": "unocc",
				"energy": 0.0884,
				"method": "rhf"
			},
			{
				"type": "unocc",
				"energy": 0.10931,
				"method": "rhf"
			}
		],
		"cosmo_sigma_profile": { 
			"-0.025": 0.0,
			"-0.024": 0.0,
			"-0.023": 0.0,
			"-0.022": 0.0,
			"-0.021": 0.0,
			"-0.02": 0.0,
			"-0.019": 0.0,
			"-0.018": 0.0,
			"-0.017": 0.0,
			"-0.016": 0.0,
			"-0.015": 0.0,
			"-0.014": 0.0,
			"-0.013": 0.0451794151257,
			"-0.012": 1.7896267083,
			"-0.011": 2.6411416113,
			"-0.01": 2.2941954347,
			"-0.009": 3.22830060359,
			"-0.008": 2.80884022749,
			"-0.007": 3.17994091708,
			"-0.006": 3.46061340303,
			"-0.005": 12.1989521621,
			"-0.004": 19.4996021236,
			"-0.003": 33.7405633985,
			"-0.002": 33.5816135426,
			"-0.001": 20.9167709969,
			"0.0": 14.1371195834,
			"0.001": 10.6609448568,
			"0.002": 10.7512857795,
			"0.003": 9.49165256129,
			"0.004": 9.99096800191,
			"0.005": 9.13843207398,
			"0.006": 11.3210547494,
			"0.007": 9.12141770522,
			"0.008": 5.11473540615,
			"0.009": 3.00991311365,
			"0.01": 2.66131334785,
			"0.011": 3.03594526617,
			"0.012": 1.6745729985,
			"0.013": 2.16912005231,
			"0.014": 2.20870863948,
			"0.015": 0.607532832174,
			"0.016": 0.0,
			"0.017": 0.0,
			"0.018": 0.0,
			"0.019": 0.0,
			"0.02": 0.0,
			"0.021": 0.0,
			"0.022": 0.0,
			"0.023": 0.0,
			"0.024": 0.0,
			"0.025": 0.0
		}
	}
}
