{
	 "smiles": "NC1=CC=C(CC(=NO)C2=CC=C(N)C=C2)C=C1", 
	 "Tm": 419.15, 
	 "num_atms": 33, 
	 "gaussian": { 
		 "optdone": 1, 
		 "sigma_profile": "yes", 
		 "theory": "DFT", 
		 "functional": "B3LYP", 
		 "basiset": "6-31G**", 
		 "properties": { 
			 "R2extent": 5872.4328, 
			 "electric_dipole_moment_norm": 3.18699158141, 
			 "electric_quadrupole_moment_norm": 17.0915697907, 
			 "total_energy": -781.959808508, 
			 "HOMO_LUMO_gap": 0.17221, 
			 "cosmo_polarized_energy": -19.67, 
			 "cosmo_cavitation_energy": 36.64, 
			 "cosmo_dispersion_energy": -26.26, 
			 "cosmo_repulsion_energy": 2.06, 
			 "cosmo_total_nonelectrostatic_energy": 12.44, 
			 "SMD_solvation_energy": 5.97 
		},
		"coords": [
			{
				"x": -2.940424731,
				"y": 2.7941643685,
				"z": -3.8567288815,
				"element": "N" 
			},
			{
				"x": -2.5325143041,
				"y": 1.9459729714,
				"z": -2.821352192,
				"element": "C" 
			},
			{
				"x": -3.0952126329,
				"y": 2.048333445,
				"z": -1.5394921263,
				"element": "C" 
			},
			{
				"x": -2.721376283,
				"y": 1.1627683699,
				"z": -0.5301730086,
				"element": "C" 
			},
			{
				"x": -1.7811489079,
				"y": 0.1494262469,
				"z": -0.7531745438,
				"element": "C" 
			},
			{
				"x": -1.4199583289,
				"y": -0.8429574684,
				"z": 0.3444385633,
				"element": "C" 
			},
			{
				"x": 0.0710358048,
				"y": -1.1302385732,
				"z": 0.4985857928,
				"element": "C" 
			},
			{
				"x": 0.4076446463,
				"y": -2.2245425803,
				"z": -0.1018100476,
				"element": "N" 
			},
			{
				"x": 1.783645508,
				"y": -2.5251475132,
				"z": -0.0466053474,
				"element": "O" 
			},
			{
				"x": 0.9178810196,
				"y": -0.1989512263,
				"z": 1.2784834753,
				"element": "C" 
			},
			{
				"x": 2.1145673959,
				"y": -0.5897393252,
				"z": 1.915927399,
				"element": "C" 
			},
			{
				"x": 2.8474328729,
				"y": 0.30038474,
				"z": 2.6891824064,
				"element": "C" 
			},
			{
				"x": 2.4308434498,
				"y": 1.6331255567,
				"z": 2.8532064121,
				"element": "C" 
			},
			{
				"x": 3.2003308073,
				"y": 2.5400823311,
				"z": 3.5748419435,
				"element": "N" 
			},
			{
				"x": 1.2411549445,
				"y": 2.0346899889,
				"z": 2.2216144313,
				"element": "C" 
			},
			{
				"x": 0.5040645075,
				"y": 1.1358618624,
				"z": 1.4625284993,
				"element": "C" 
			},
			{
				"x": -1.2257398408,
				"y": 0.0512224832,
				"z": -2.0363417643,
				"element": "C" 
			},
			{
				"x": -1.5898917679,
				"y": 0.9290728044,
				"z": -3.0523759418,
				"element": "C" 
			},
			{
				"x": -3.3115561577,
				"y": 3.6844918132,
				"z": -3.5537094803,
				"element": "H" 
			},
			{
				"x": -2.2645658983,
				"y": 2.9093220497,
				"z": -4.5998671978,
				"element": "H" 
			},
			{
				"x": -3.8303188299,
				"y": 2.8236492597,
				"z": -1.3358474699,
				"element": "H" 
			},
			{
				"x": -3.1748327476,
				"y": 1.2643549281,
				"z": 0.4537060146,
				"element": "H" 
			},
			{
				"x": -1.8987814174,
				"y": -1.804497553,
				"z": 0.1301989323,
				"element": "H" 
			},
			{
				"x": -1.8225835524,
				"y": -0.4902255492,
				"z": 1.3000893534,
				"element": "H" 
			},
			{
				"x": 1.8187199394,
				"y": -3.3473000867,
				"z": -0.5521353523,
				"element": "H" 
			},
			{
				"x": 2.4645772767,
				"y": -1.6066778583,
				"z": 1.8121331127,
				"element": "H" 
			},
			{
				"x": 3.7620639183,
				"y": -0.0363838659,
				"z": 3.1718165013,
				"element": "H" 
			},
			{
				"x": 2.7091239352,
				"y": 3.3483343282,
				"z": 3.9297901759,
				"element": "H" 
			},
			{
				"x": 3.8279844814,
				"y": 2.1380224653,
				"z": 4.2567312019,
				"element": "H" 
			},
			{
				"x": 0.897516322,
				"y": 3.0610703663,
				"z": 2.3268286752,
				"element": "H" 
			},
			{
				"x": -0.4040690148,
				"y": 1.4874579331,
				"z": 0.9865317735,
				"element": "H" 
			},
			{
				"x": -0.4949509435,
				"y": -0.7265583001,
				"z": -2.2380827907,
				"element": "H" 
			},
			{
				"x": -1.1443614715,
				"y": 0.8282115878,
				"z": -4.0395385192,
				"element": "H" 
			}
		],
		 "valence_orbital": [ 
			{
				"type": "occ",
				"energy": -0.24611,
				"method": "rhf"
			},
			{
				"type": "occ",
				"energy": -0.24173,
				"method": "rhf"
			},
			{
				"type": "occ",
				"energy": -0.23835,
				"method": "rhf"
			},
			{
				"type": "occ",
				"energy": -0.19526,
				"method": "rhf"
			},
			{
				"type": "occ",
				"energy": -0.19005,
				"method": "rhf"
			},
			{
				"type": "unocc",
				"energy": -0.01784,
				"method": "rhf"
			},
			{
				"type": "unocc",
				"energy": 0.00624,
				"method": "rhf"
			},
			{
				"type": "unocc",
				"energy": 0.01078,
				"method": "rhf"
			},
			{
				"type": "unocc",
				"energy": 0.02535,
				"method": "rhf"
			},
			{
				"type": "unocc",
				"energy": 0.06373,
				"method": "rhf"
			}
		],
		"cosmo_sigma_profile": { 
			"-0.025": 0.0,
			"-0.024": 0.0,
			"-0.023": 0.0,
			"-0.022": 0.0,
			"-0.021": 0.0,
			"-0.02": 0.0,
			"-0.019": 0.0,
			"-0.018": 0.0,
			"-0.017": 0.517162520774,
			"-0.016": 1.08634540459,
			"-0.015": 0.875874271829,
			"-0.014": 0.640236759245,
			"-0.013": 1.73924138651,
			"-0.012": 5.8621883805,
			"-0.011": 6.02344326496,
			"-0.01": 5.61634233696,
			"-0.009": 7.56746375052,
			"-0.008": 6.40955766558,
			"-0.007": 6.69665592774,
			"-0.006": 9.6021356859,
			"-0.005": 12.7213477195,
			"-0.004": 16.4117205304,
			"-0.003": 18.0010663292,
			"-0.002": 16.0997078035,
			"-0.001": 17.2379530454,
			"0.0": 13.5314543067,
			"0.001": 14.1423786051,
			"0.002": 16.2799291849,
			"0.003": 17.9269679652,
			"0.004": 18.2130222573,
			"0.005": 21.3846933597,
			"0.006": 22.511943307,
			"0.007": 12.0954392606,
			"0.008": 5.45445651165,
			"0.009": 4.05626067951,
			"0.01": 2.71644227344,
			"0.011": 3.03022218862,
			"0.012": 1.82254938719,
			"0.013": 2.27937568731,
			"0.014": 1.20791265414,
			"0.015": 0.390152304722,
			"0.016": 0.0422380228287,
			"0.017": 0.0,
			"0.018": 0.0,
			"0.019": 0.0,
			"0.02": 0.0,
			"0.021": 0.0,
			"0.022": 0.0,
			"0.023": 0.0,
			"0.024": 0.0,
			"0.025": 0.0
		}
	}
}
