{
	 "smiles": "COC(=O)C(Cl)C1=CC(=CC=C1)C#N", 
	 "Tm": 323.15, 
	 "num_atms": 22, 
	 "gaussian": { 
		 "optdone": 1, 
		 "sigma_profile": "yes", 
		 "theory": "DFT", 
		 "functional": "B3LYP", 
		 "basiset": "6-31G**", 
		 "properties": { 
			 "R2extent": 3852.0633, 
			 "electric_dipole_moment_norm": 3.8584929882, 
			 "electric_quadrupole_moment_norm": 21.9246304532, 
			 "total_energy": -1051.26409232, 
			 "HOMO_LUMO_gap": 0.20203, 
			 "cosmo_polarized_energy": -13.4, 
			 "cosmo_cavitation_energy": 30.09, 
			 "cosmo_dispersion_energy": -20.8, 
			 "cosmo_repulsion_energy": 1.67, 
			 "cosmo_total_nonelectrostatic_energy": 10.96, 
			 "SMD_solvation_energy": 7.72 
		},
		"coords": [
			{
				"x": 2.3109934372,
				"y": 1.7622368798,
				"z": -2.5811841123,
				"element": "C" 
			},
			{
				"x": 1.4233895797,
				"y": 0.7343549875,
				"z": -2.096609651,
				"element": "O" 
			},
			{
				"x": 0.3657782042,
				"y": 1.1725211878,
				"z": -1.3952601691,
				"element": "C" 
			},
			{
				"x": 0.1406449431,
				"y": 2.333832185,
				"z": -1.1425282983,
				"element": "O" 
			},
			{
				"x": -0.5055435519,
				"y": -0.0141472216,
				"z": -0.9710287183,
				"element": "C" 
			},
			{
				"x": -1.9790393336,
				"y": -0.0000711433,
				"z": -2.0686155699,
				"element": "Cl" 
			},
			{
				"x": -0.9015722563,
				"y": 0.0065848141,
				"z": 0.4825739177,
				"element": "C" 
			},
			{
				"x": -0.6296381365,
				"y": -1.1139919009,
				"z": 1.2690099775,
				"element": "C" 
			},
			{
				"x": -0.9795029871,
				"y": -1.1260324796,
				"z": 2.6294473029,
				"element": "C" 
			},
			{
				"x": -1.6092177993,
				"y": -0.0099531388,
				"z": 3.2013289376,
				"element": "C" 
			},
			{
				"x": -1.8812460396,
				"y": 1.1047247621,
				"z": 2.4099881073,
				"element": "C" 
			},
			{
				"x": -1.5333743922,
				"y": 1.1188139375,
				"z": 1.0606654154,
				"element": "C" 
			},
			{
				"x": -0.6913792112,
				"y": -2.2812864428,
				"z": 3.4294254162,
				"element": "C" 
			},
			{
				"x": -0.45541634,
				"y": -3.2175190312,
				"z": 4.0781022918,
				"element": "N" 
			},
			{
				"x": 3.1016845424,
				"y": 1.2364454636,
				"z": -3.1146359106,
				"element": "H" 
			},
			{
				"x": 2.7207679677,
				"y": 2.3349057692,
				"z": -1.7461778447,
				"element": "H" 
			},
			{
				"x": 1.7755143025,
				"y": 2.4390955855,
				"z": -3.2506607341,
				"element": "H" 
			},
			{
				"x": 0.016692774,
				"y": -0.937594118,
				"z": -1.215210872,
				"element": "H" 
			},
			{
				"x": -0.1472931879,
				"y": -1.9852825898,
				"z": 0.8370042338,
				"element": "H" 
			},
			{
				"x": -1.879136476,
				"y": -0.0255482318,
				"z": 4.2518298513,
				"element": "H" 
			},
			{
				"x": -2.3684751811,
				"y": 1.9694499298,
				"z": 2.8491634199,
				"element": "H" 
			},
			{
				"x": -1.7369308581,
				"y": 1.9898607958,
				"z": 0.4494730088,
				"element": "H" 
			}
		],
		 "valence_orbital": [ 
			{
				"type": "occ",
				"energy": -0.32333,
				"method": "rhf"
			},
			{
				"type": "occ",
				"energy": -0.31432,
				"method": "rhf"
			},
			{
				"type": "occ",
				"energy": -0.29376,
				"method": "rhf"
			},
			{
				"type": "occ",
				"energy": -0.28062,
				"method": "rhf"
			},
			{
				"type": "occ",
				"energy": -0.27047,
				"method": "rhf"
			},
			{
				"type": "unocc",
				"energy": -0.06844,
				"method": "rhf"
			},
			{
				"type": "unocc",
				"energy": -0.05032,
				"method": "rhf"
			},
			{
				"type": "unocc",
				"energy": -0.01741,
				"method": "rhf"
			},
			{
				"type": "unocc",
				"energy": 0.029,
				"method": "rhf"
			},
			{
				"type": "unocc",
				"energy": 0.03848,
				"method": "rhf"
			}
		],
		"cosmo_sigma_profile": { 
			"-0.025": 0.0,
			"-0.024": 0.0,
			"-0.023": 0.0,
			"-0.022": 0.0,
			"-0.021": 0.0,
			"-0.02": 0.0,
			"-0.019": 0.0,
			"-0.018": 0.0,
			"-0.017": 0.0,
			"-0.016": 0.0,
			"-0.015": 0.0,
			"-0.014": 0.0,
			"-0.013": 0.0,
			"-0.012": 0.0,
			"-0.011": 0.908947205086,
			"-0.01": 2.43069889911,
			"-0.009": 3.09586106116,
			"-0.008": 5.98220119369,
			"-0.007": 11.626264003,
			"-0.006": 16.817331709,
			"-0.005": 15.9090768585,
			"-0.004": 17.0365319672,
			"-0.003": 14.5176296208,
			"-0.002": 13.7751058453,
			"-0.001": 16.5704022944,
			"0.0": 16.407130578,
			"0.001": 18.6429242393,
			"0.002": 16.1830010084,
			"0.003": 11.9595320074,
			"0.004": 12.8605349335,
			"0.005": 13.5020183105,
			"0.006": 5.33795591781,
			"0.007": 5.5943248765,
			"0.008": 5.01945426264,
			"0.009": 5.67091202258,
			"0.01": 5.75683007782,
			"0.011": 4.95086876334,
			"0.012": 2.42615728308,
			"0.013": 1.17213011524,
			"0.014": 0.0137770575961,
			"0.015": 0.0,
			"0.016": 0.0,
			"0.017": 0.0,
			"0.018": 0.0,
			"0.019": 0.0,
			"0.02": 0.0,
			"0.021": 0.0,
			"0.022": 0.0,
			"0.023": 0.0,
			"0.024": 0.0,
			"0.025": 0.0
		}
	}
}
