{
	 "smiles": "[O-][N+](=O)C1=CC(Cl)=C(Cl)C(Cl)=C1", 
	 "Tm": 344.35, 
	 "num_atms": 14, 
	 "gaussian": { 
		 "optdone": 1, 
		 "sigma_profile": "yes", 
		 "theory": "DFT", 
		 "functional": "B3LYP", 
		 "basiset": "6-31G**", 
		 "properties": { 
			 "R2extent": 4278.2524, 
			 "electric_dipole_moment_norm": 1.91352592614, 
			 "electric_quadrupole_moment_norm": 11.1817195493, 
			 "total_energy": -1815.50491134, 
			 "HOMO_LUMO_gap": 0.17258, 
			 "cosmo_polarized_energy": -6.43, 
			 "cosmo_cavitation_energy": 24.99, 
			 "cosmo_dispersion_energy": -18.84, 
			 "cosmo_repulsion_energy": 1.5, 
			 "cosmo_total_nonelectrostatic_energy": 7.65, 
			 "SMD_solvation_energy": 5.86 
		},
		"coords": [
			{
				"x": 1.9911681229,
				"y": 3.6063359309,
				"z": -0.7856434812,
				"element": "O" 
			},
			{
				"x": 0.835344424,
				"y": 3.5156388326,
				"z": -1.1924874558,
				"element": "N" 
			},
			{
				"x": 0.3316865858,
				"y": 4.2198368584,
				"z": -2.0643313495,
				"element": "O" 
			},
			{
				"x": -0.0167987223,
				"y": 2.476945641,
				"z": -0.5849289056,
				"element": "C" 
			},
			{
				"x": -1.328664655,
				"y": 2.3492486825,
				"z": -1.0235108164,
				"element": "C" 
			},
			{
				"x": -2.1287368151,
				"y": 1.3671661313,
				"z": -0.4467335519,
				"element": "C" 
			},
			{
				"x": -3.771375361,
				"y": 1.2124098579,
				"z": -1.000796665,
				"element": "Cl" 
			},
			{
				"x": -1.62149634,
				"y": 0.5208936291,
				"z": 0.5591202729,
				"element": "C" 
			},
			{
				"x": -2.6206974099,
				"y": -0.6970932524,
				"z": 1.2714417384,
				"element": "Cl" 
			},
			{
				"x": -0.2850041499,
				"y": 0.6854317583,
				"z": 0.9737645751,
				"element": "C" 
			},
			{
				"x": 0.3982628123,
				"y": -0.3293658672,
				"z": 2.2117196501,
				"element": "Cl" 
			},
			{
				"x": 0.5236708247,
				"y": 1.6643389203,
				"z": 0.4036158068,
				"element": "C" 
			},
			{
				"x": -1.7110438939,
				"y": 3.0026011571,
				"z": -1.7961778014,
				"element": "H" 
			},
			{
				"x": 1.5505845773,
				"y": 1.7966117203,
				"z": 0.7167479835,
				"element": "H" 
			}
		],
		 "valence_orbital": [ 
			{
				"type": "occ",
				"energy": -0.32752,
				"method": "rhf"
			},
			{
				"type": "occ",
				"energy": -0.3262,
				"method": "rhf"
			},
			{
				"type": "occ",
				"energy": -0.3115,
				"method": "rhf"
			},
			{
				"type": "occ",
				"energy": -0.28601,
				"method": "rhf"
			},
			{
				"type": "occ",
				"energy": -0.28442,
				"method": "rhf"
			},
			{
				"type": "unocc",
				"energy": -0.11184,
				"method": "rhf"
			},
			{
				"type": "unocc",
				"energy": -0.05983,
				"method": "rhf"
			},
			{
				"type": "unocc",
				"energy": -0.0384,
				"method": "rhf"
			},
			{
				"type": "unocc",
				"energy": -0.02977,
				"method": "rhf"
			},
			{
				"type": "unocc",
				"energy": 0.02577,
				"method": "rhf"
			}
		],
		"cosmo_sigma_profile": { 
			"-0.025": 0.0,
			"-0.024": 0.0,
			"-0.023": 0.0,
			"-0.022": 0.0,
			"-0.021": 0.0,
			"-0.02": 0.0,
			"-0.019": 0.0,
			"-0.018": 0.0,
			"-0.017": 0.0,
			"-0.016": 0.0,
			"-0.015": 0.0,
			"-0.014": 0.0,
			"-0.013": 0.0,
			"-0.012": 0.0,
			"-0.011": 0.0,
			"-0.01": 0.18897757755,
			"-0.009": 2.16818417102,
			"-0.008": 2.7422050921,
			"-0.007": 5.36262060806,
			"-0.006": 4.55237349084,
			"-0.005": 6.33671303829,
			"-0.004": 14.3151813197,
			"-0.003": 26.6477763377,
			"-0.002": 23.8984423314,
			"-0.001": 14.2427145661,
			"0.0": 13.0618245808,
			"0.001": 15.9417248881,
			"0.002": 23.063964897,
			"0.003": 24.2722943214,
			"0.004": 6.05878100918,
			"0.005": 3.47281580653,
			"0.006": 6.60274186358,
			"0.007": 8.00932069232,
			"0.008": 4.55301310918,
			"0.009": 2.92272963443,
			"0.01": 0.360135391846,
			"0.011": 0.0,
			"0.012": 0.0,
			"0.013": 0.0,
			"0.014": 0.0,
			"0.015": 0.0,
			"0.016": 0.0,
			"0.017": 0.0,
			"0.018": 0.0,
			"0.019": 0.0,
			"0.02": 0.0,
			"0.021": 0.0,
			"0.022": 0.0,
			"0.023": 0.0,
			"0.024": 0.0,
			"0.025": 0.0
		}
	}
}
