{
	 "smiles": "[O-][N+](=O)C1=CC(=CC(=C1)C1=NC=CO1)[N+]([O-])=O", 
	 "Tm": 403.15, 
	 "num_atms": 22, 
	 "gaussian": { 
		 "optdone": 1, 
		 "sigma_profile": "yes", 
		 "theory": "DFT", 
		 "functional": "B3LYP", 
		 "basiset": "6-31G**", 
		 "properties": { 
			 "R2extent": 6254.1475, 
			 "electric_dipole_moment_norm": 5.48186285399, 
			 "electric_quadrupole_moment_norm": 16.3605789366, 
			 "total_energy": -886.122310941, 
			 "HOMO_LUMO_gap": 0.1447, 
			 "cosmo_polarized_energy": -13.09, 
			 "cosmo_cavitation_energy": 29.67, 
			 "cosmo_dispersion_energy": -21.54, 
			 "cosmo_repulsion_energy": 1.64, 
			 "cosmo_total_nonelectrostatic_energy": 9.77, 
			 "SMD_solvation_energy": 9.23 
		},
		"coords": [
			{
				"x": 2.1427446992,
				"y": 3.7346312669,
				"z": 4.043984204,
				"element": "O" 
			},
			{
				"x": 1.0842142809,
				"y": 3.5737566673,
				"z": 3.4421861474,
				"element": "N" 
			},
			{
				"x": 0.1558141528,
				"y": 4.3767538652,
				"z": 3.4080143402,
				"element": "O" 
			},
			{
				"x": 0.914475504,
				"y": 2.3077054176,
				"z": 2.6981405379,
				"element": "C" 
			},
			{
				"x": 1.9524620485,
				"y": 1.3810369591,
				"z": 2.721597585,
				"element": "C" 
			},
			{
				"x": 1.7566921831,
				"y": 0.2029411132,
				"z": 2.0107394021,
				"element": "C" 
			},
			{
				"x": 0.5898454146,
				"y": -0.0634452439,
				"z": 1.3012354734,
				"element": "C" 
			},
			{
				"x": -0.4361662033,
				"y": 0.8913984716,
				"z": 1.2982777969,
				"element": "C" 
			},
			{
				"x": -0.2706423772,
				"y": 2.0920930745,
				"z": 2.0062328938,
				"element": "C" 
			},
			{
				"x": -1.6809210406,
				"y": 0.6641694612,
				"z": 0.570974156,
				"element": "C" 
			},
			{
				"x": -2.7102318028,
				"y": 1.458285213,
				"z": 0.4823471884,
				"element": "N" 
			},
			{
				"x": -3.6115255005,
				"y": 0.7756160565,
				"z": -0.314933955,
				"element": "C" 
			},
			{
				"x": -3.0739199978,
				"y": -0.4192537357,
				"z": -0.6760588636,
				"element": "C" 
			},
			{
				"x": -1.8302118471,
				"y": -0.5051354441,
				"z": -0.1127567682,
				"element": "O" 
			},
			{
				"x": 2.8337681088,
				"y": -0.8084239161,
				"z": 2.0091771301,
				"element": "N" 
			},
			{
				"x": 3.8526496467,
				"y": -0.547959258,
				"z": 2.6429378518,
				"element": "O" 
			},
			{
				"x": 2.6361923513,
				"y": -1.8414212978,
				"z": 1.373623476,
				"element": "O" 
			},
			{
				"x": 2.8670250187,
				"y": 1.5688256899,
				"z": 3.2666729054,
				"element": "H" 
			},
			{
				"x": 0.4924865964,
				"y": -0.9986054175,
				"z": 0.765309666,
				"element": "H" 
			},
			{
				"x": -1.0539233866,
				"y": 2.8395297872,
				"z": 2.0136381044,
				"element": "H" 
			},
			{
				"x": -4.5756872074,
				"y": 1.1897538181,
				"z": -0.5701529948,
				"element": "H" 
			},
			{
				"x": -3.3965406417,
				"y": -1.257452548,
				"z": -1.2715862773,
				"element": "H" 
			}
		],
		 "valence_orbital": [ 
			{
				"type": "occ",
				"energy": -0.31713,
				"method": "rhf"
			},
			{
				"type": "occ",
				"energy": -0.31424,
				"method": "rhf"
			},
			{
				"type": "occ",
				"energy": -0.31107,
				"method": "rhf"
			},
			{
				"type": "occ",
				"energy": -0.30919,
				"method": "rhf"
			},
			{
				"type": "occ",
				"energy": -0.25936,
				"method": "rhf"
			},
			{
				"type": "unocc",
				"energy": -0.11466,
				"method": "rhf"
			},
			{
				"type": "unocc",
				"energy": -0.10677,
				"method": "rhf"
			},
			{
				"type": "unocc",
				"energy": -0.07165,
				"method": "rhf"
			},
			{
				"type": "unocc",
				"energy": -0.01145,
				"method": "rhf"
			},
			{
				"type": "unocc",
				"energy": 0.00615,
				"method": "rhf"
			}
		],
		"cosmo_sigma_profile": { 
			"-0.025": 0.0,
			"-0.024": 0.0,
			"-0.023": 0.0,
			"-0.022": 0.0,
			"-0.021": 0.0,
			"-0.02": 0.0,
			"-0.019": 0.0,
			"-0.018": 0.0,
			"-0.017": 0.0,
			"-0.016": 0.0,
			"-0.015": 0.0,
			"-0.014": 0.0,
			"-0.013": 0.0,
			"-0.012": 0.0,
			"-0.011": 0.912339588409,
			"-0.01": 2.103611067,
			"-0.009": 2.99409279659,
			"-0.008": 6.58276964591,
			"-0.007": 7.80448087489,
			"-0.006": 11.8453471037,
			"-0.005": 13.4528403223,
			"-0.004": 22.2444245,
			"-0.003": 29.9849576663,
			"-0.002": 17.8562544014,
			"-0.001": 10.893978518,
			"0.0": 13.6368006034,
			"0.001": 11.0221796885,
			"0.002": 11.6874282935,
			"0.003": 8.19455271296,
			"0.004": 8.2790161371,
			"0.005": 9.24087146965,
			"0.006": 14.8348870028,
			"0.007": 16.7214361828,
			"0.008": 10.1241921326,
			"0.009": 6.28436330757,
			"0.01": 1.53163543631,
			"0.011": 0.879148815819,
			"0.012": 1.10671354889,
			"0.013": 0.584738765439,
			"0.014": 0.0054755311202,
			"0.015": 0.0,
			"0.016": 0.0,
			"0.017": 0.0,
			"0.018": 0.0,
			"0.019": 0.0,
			"0.02": 0.0,
			"0.021": 0.0,
			"0.022": 0.0,
			"0.023": 0.0,
			"0.024": 0.0,
			"0.025": 0.0
		}
	}
}
