{
	 "smiles": "NC(=N)NCCCC(NC(=O)OCC1=CC=CC=C1)C(O)=O", 
	 "Tm": 447.15, 
	 "num_atms": 42, 
	 "gaussian": { 
		 "optdone": 1, 
		 "sigma_profile": "yes", 
		 "theory": "DFT", 
		 "functional": "B3LYP", 
		 "basiset": "6-31G**", 
		 "properties": { 
			 "R2extent": 9346.4604, 
			 "electric_dipole_moment_norm": 6.08248705876, 
			 "electric_quadrupole_moment_norm": 27.2119412573, 
			 "total_energy": -1065.4850824, 
			 "HOMO_LUMO_gap": 0.23304, 
			 "cosmo_polarized_energy": -27.93, 
			 "cosmo_cavitation_energy": 45.71, 
			 "cosmo_dispersion_energy": -29.93, 
			 "cosmo_repulsion_energy": 2.35, 
			 "cosmo_total_nonelectrostatic_energy": 18.14, 
			 "SMD_solvation_energy": 8.07 
		},
		"coords": [
			{
				"x": -1.0438752463,
				"y": -0.824950293,
				"z": 4.6469687879,
				"element": "N" 
			},
			{
				"x": -1.673280302,
				"y": -0.4120405567,
				"z": 3.4862771625,
				"element": "C" 
			},
			{
				"x": -2.8626114001,
				"y": 0.0538670561,
				"z": 3.5064677751,
				"element": "N" 
			},
			{
				"x": -0.843390519,
				"y": -0.5805691111,
				"z": 2.3255610982,
				"element": "N" 
			},
			{
				"x": 0.4712852,
				"y": 0.1174526088,
				"z": 2.3312028614,
				"element": "C" 
			},
			{
				"x": 1.2689633809,
				"y": -0.1371970678,
				"z": 1.0482257961,
				"element": "C" 
			},
			{
				"x": 1.9353506703,
				"y": -1.5134244349,
				"z": 0.8744628252,
				"element": "C" 
			},
			{
				"x": 1.0075929444,
				"y": -2.7162172498,
				"z": 0.4911860529,
				"element": "C" 
			},
			{
				"x": 1.5759373323,
				"y": -3.542110246,
				"z": -0.5555195247,
				"element": "N" 
			},
			{
				"x": 1.5739230497,
				"y": -3.2423982481,
				"z": -1.8834321652,
				"element": "C" 
			},
			{
				"x": 1.9808657164,
				"y": -3.967371012,
				"z": -2.7720056848,
				"element": "O" 
			},
			{
				"x": 1.0512471487,
				"y": -1.9932994611,
				"z": -2.089445222,
				"element": "O" 
			},
			{
				"x": 1.0017969809,
				"y": -1.5713210326,
				"z": -3.4726974253,
				"element": "C" 
			},
			{
				"x": 0.1236002837,
				"y": -0.3504658331,
				"z": -3.5505215411,
				"element": "C" 
			},
			{
				"x": -1.2709730902,
				"y": -0.478466848,
				"z": -3.4833736245,
				"element": "C" 
			},
			{
				"x": -2.0910733541,
				"y": 0.647388974,
				"z": -3.5423644544,
				"element": "C" 
			},
			{
				"x": -1.5254802899,
				"y": 1.9190157934,
				"z": -3.6724568965,
				"element": "C" 
			},
			{
				"x": -0.1386629398,
				"y": 2.0572862435,
				"z": -3.7413461028,
				"element": "C" 
			},
			{
				"x": 0.6796994599,
				"y": 0.9272501118,
				"z": -3.6780688414,
				"element": "C" 
			},
			{
				"x": 0.7684477318,
				"y": -3.6371971557,
				"z": 1.6998047281,
				"element": "C" 
			},
			{
				"x": -0.0107512562,
				"y": -3.1292878605,
				"z": 2.6594959354,
				"element": "O" 
			},
			{
				"x": 1.2773882304,
				"y": -4.7322976388,
				"z": 1.7939420412,
				"element": "O" 
			},
			{
				"x": -0.4905347689,
				"y": -1.6709102128,
				"z": 4.5735994608,
				"element": "H" 
			},
			{
				"x": -1.6717672233,
				"y": -0.8188854826,
				"z": 5.4398639694,
				"element": "H" 
			},
			{
				"x": -3.1363758439,
				"y": 0.4337722583,
				"z": 2.6004188175,
				"element": "H" 
			},
			{
				"x": -1.3735437095,
				"y": -0.3099601904,
				"z": 1.5010010454,
				"element": "H" 
			},
			{
				"x": 0.3162250568,
				"y": 1.1974156139,
				"z": 2.4587846216,
				"element": "H" 
			},
			{
				"x": 1.0291849889,
				"y": -0.2293498284,
				"z": 3.204482259,
				"element": "H" 
			},
			{
				"x": 2.0669493075,
				"y": 0.6148064578,
				"z": 1.0304436902,
				"element": "H" 
			},
			{
				"x": 0.6452178302,
				"y": 0.0747609246,
				"z": 0.168656323,
				"element": "H" 
			},
			{
				"x": 2.5234884213,
				"y": -1.761534038,
				"z": 1.7671583751,
				"element": "H" 
			},
			{
				"x": 2.6518596337,
				"y": -1.4230323225,
				"z": 0.0549775759,
				"element": "H" 
			},
			{
				"x": 0.0429447075,
				"y": -2.3206191827,
				"z": 0.1509047501,
				"element": "H" 
			},
			{
				"x": 1.8749646961,
				"y": -4.4707220324,
				"z": -0.2851987785,
				"element": "H" 
			},
			{
				"x": 2.0184944056,
				"y": -1.3566277807,
				"z": -3.8168812652,
				"element": "H" 
			},
			{
				"x": 0.6143630281,
				"y": -2.3961636753,
				"z": -4.0764197472,
				"element": "H" 
			},
			{
				"x": -1.7118178208,
				"y": -1.4676996647,
				"z": -3.3888602172,
				"element": "H" 
			},
			{
				"x": -3.1705547504,
				"y": 0.5341347213,
				"z": -3.4962071094,
				"element": "H" 
			},
			{
				"x": -2.1640793804,
				"y": 2.7961302297,
				"z": -3.7258519943,
				"element": "H" 
			},
			{
				"x": 0.3064736888,
				"y": 3.0425079042,
				"z": -3.8469051543,
				"element": "H" 
			},
			{
				"x": 1.7599363772,
				"y": 1.0366603662,
				"z": -3.7334364607,
				"element": "H" 
			},
			{
				"x": -0.3923283763,
				"y": -2.241630804,
				"z": 2.3901062574,
				"element": "H" 
			}
		],
		 "valence_orbital": [ 
			{
				"type": "occ",
				"energy": -0.27082,
				"method": "rhf"
			},
			{
				"type": "occ",
				"energy": -0.26299,
				"method": "rhf"
			},
			{
				"type": "occ",
				"energy": -0.25642,
				"method": "rhf"
			},
			{
				"type": "occ",
				"energy": -0.25448,
				"method": "rhf"
			},
			{
				"type": "occ",
				"energy": -0.25362,
				"method": "rhf"
			},
			{
				"type": "unocc",
				"energy": -0.02058,
				"method": "rhf"
			},
			{
				"type": "unocc",
				"energy": -0.01366,
				"method": "rhf"
			},
			{
				"type": "unocc",
				"energy": 0.00705,
				"method": "rhf"
			},
			{
				"type": "unocc",
				"energy": 0.02046,
				"method": "rhf"
			},
			{
				"type": "unocc",
				"energy": 0.04642,
				"method": "rhf"
			}
		],
		"cosmo_sigma_profile": { 
			"-0.025": 0.0,
			"-0.024": 0.0,
			"-0.023": 0.0,
			"-0.022": 0.0,
			"-0.021": 0.0,
			"-0.02": 0.0,
			"-0.019": 0.0,
			"-0.018": 0.0,
			"-0.017": 0.0,
			"-0.016": 0.0,
			"-0.015": 0.0,
			"-0.014": 1.34550011185,
			"-0.013": 2.06322027588,
			"-0.012": 3.08247709682,
			"-0.011": 3.84877620195,
			"-0.01": 5.98830423938,
			"-0.009": 6.99570016019,
			"-0.008": 5.85140962287,
			"-0.007": 6.36807838784,
			"-0.006": 17.1902808024,
			"-0.005": 31.4443080737,
			"-0.004": 34.188843437,
			"-0.003": 31.485164245,
			"-0.002": 25.6172055785,
			"-0.001": 21.4989110135,
			"0.0": 18.6270689683,
			"0.001": 16.8967727373,
			"0.002": 14.5048042998,
			"0.003": 15.8394360732,
			"0.004": 16.7663011263,
			"0.005": 16.7609155379,
			"0.006": 8.86478726065,
			"0.007": 5.06584756114,
			"0.008": 5.59018564781,
			"0.009": 5.50018401784,
			"0.01": 6.98522841861,
			"0.011": 8.57067436914,
			"0.012": 6.45522807065,
			"0.013": 8.44818279203,
			"0.014": 3.42535134661,
			"0.015": 1.05665230172,
			"0.016": 1.26539908281,
			"0.017": 1.04860857122,
			"0.018": 0.837392243696,
			"0.019": 0.360470584514,
			"0.02": 0.0,
			"0.021": 0.0,
			"0.022": 0.0,
			"0.023": 0.0,
			"0.024": 0.0,
			"0.025": 0.0
		}
	}
}
