{
	 "smiles": "OS(=O)(=O)C1=CC=CN=C1", 
	 "Tm": 573.15, 
	 "num_atms": 15, 
	 "gaussian": { 
		 "optdone": 1, 
		 "sigma_profile": "yes", 
		 "theory": "DFT", 
		 "functional": "B3LYP", 
		 "basiset": "6-31G**", 
		 "properties": { 
			 "R2extent": 2430.4021, 
			 "electric_dipole_moment_norm": 3.17755598062, 
			 "electric_quadrupole_moment_norm": 15.5311209406, 
			 "total_energy": -872.072549662, 
			 "HOMO_LUMO_gap": 0.21638, 
			 "cosmo_polarized_energy": -14.37, 
			 "cosmo_cavitation_energy": 21.17, 
			 "cosmo_dispersion_energy": -16.48, 
			 "cosmo_repulsion_energy": 1.28, 
			 "cosmo_total_nonelectrostatic_energy": 5.97, 
			 "SMD_solvation_energy": 1.46 
		},
		"coords": [
			{
				"x": -3.4909513358,
				"y": -1.1399365775,
				"z": -0.0945748042,
				"element": "O" 
			},
			{
				"x": -2.4845357367,
				"y": -1.2664376386,
				"z": -1.3895013432,
				"element": "S" 
			},
			{
				"x": -2.5208891227,
				"y": -2.6514528026,
				"z": -1.8335927955,
				"element": "O" 
			},
			{
				"x": -2.8120529156,
				"y": -0.1535242382,
				"z": -2.2798161643,
				"element": "O" 
			},
			{
				"x": -0.9026407383,
				"y": -0.9657104827,
				"z": -0.62243972,
				"element": "C" 
			},
			{
				"x": -0.1790846421,
				"y": -2.0287529951,
				"z": -0.0823847626,
				"element": "C" 
			},
			{
				"x": 1.0475368949,
				"y": -1.736074847,
				"z": 0.5071748421,
				"element": "C" 
			},
			{
				"x": 1.4821854796,
				"y": -0.4081394946,
				"z": 0.52190375,
				"element": "C" 
			},
			{
				"x": 0.7934097052,
				"y": 0.6110865731,
				"z": -0.0085000879,
				"element": "N" 
			},
			{
				"x": -0.3843337165,
				"y": 0.3314549035,
				"z": -0.5746460082,
				"element": "C" 
			},
			{
				"x": -4.1190177874,
				"y": -0.427436979,
				"z": -0.3031241898,
				"element": "H" 
			},
			{
				"x": -0.5649564872,
				"y": -3.0409522024,
				"z": -0.1381823284,
				"element": "H" 
			},
			{
				"x": 1.6587346997,
				"y": -2.519099413,
				"z": 0.9434812264,
				"element": "H" 
			},
			{
				"x": 2.4357382321,
				"y": -0.1502002594,
				"z": 0.9783797817,
				"element": "H" 
			},
			{
				"x": -0.9316425293,
				"y": 1.1582764537,
				"z": -1.019677396,
				"element": "H" 
			}
		],
		 "valence_orbital": [ 
			{
				"type": "occ",
				"energy": -0.33601,
				"method": "rhf"
			},
			{
				"type": "occ",
				"energy": -0.31925,
				"method": "rhf"
			},
			{
				"type": "occ",
				"energy": -0.31339,
				"method": "rhf"
			},
			{
				"type": "occ",
				"energy": -0.29241,
				"method": "rhf"
			},
			{
				"type": "occ",
				"energy": -0.27912,
				"method": "rhf"
			},
			{
				"type": "unocc",
				"energy": -0.06274,
				"method": "rhf"
			},
			{
				"type": "unocc",
				"energy": -0.04786,
				"method": "rhf"
			},
			{
				"type": "unocc",
				"energy": 0.03156,
				"method": "rhf"
			},
			{
				"type": "unocc",
				"energy": 0.06287,
				"method": "rhf"
			},
			{
				"type": "unocc",
				"energy": 0.0767,
				"method": "rhf"
			}
		],
		"cosmo_sigma_profile": { 
			"-0.025": 0.0,
			"-0.024": 0.0,
			"-0.023": 0.0,
			"-0.022": 0.0,
			"-0.021": 0.0,
			"-0.02": 0.593146768462,
			"-0.019": 0.983753206867,
			"-0.018": 0.594802745302,
			"-0.017": 0.972626092423,
			"-0.016": 1.31413726879,
			"-0.015": 0.425195077196,
			"-0.014": 0.245480225802,
			"-0.013": 0.816471837339,
			"-0.012": 1.516681998,
			"-0.011": 0.5597335453,
			"-0.01": 0.517089143492,
			"-0.009": 2.73170407808,
			"-0.008": 7.78232149784,
			"-0.007": 9.84573410978,
			"-0.006": 8.95595005119,
			"-0.005": 7.26690490499,
			"-0.004": 7.28668756266,
			"-0.003": 7.64469473882,
			"-0.002": 10.326908348,
			"-0.001": 15.2718196314,
			"0.0": 12.9640745211,
			"0.001": 8.37242064583,
			"0.002": 5.6398160343,
			"0.003": 5.05534522318,
			"0.004": 4.40329796624,
			"0.005": 4.16134164036,
			"0.006": 5.36531645123,
			"0.007": 6.81143306177,
			"0.008": 6.97353348309,
			"0.009": 10.1912152349,
			"0.01": 9.34040838798,
			"0.011": 2.17483591902,
			"0.012": 0.977783824952,
			"0.013": 0.722349306618,
			"0.014": 0.859332512058,
			"0.015": 0.645125434262,
			"0.016": 0.0116177753598,
			"0.017": 0.0,
			"0.018": 0.0,
			"0.019": 0.0,
			"0.02": 0.0,
			"0.021": 0.0,
			"0.022": 0.0,
			"0.023": 0.0,
			"0.024": 0.0,
			"0.025": 0.0
		}
	}
}
