{
	 "smiles": "CC(C)CN1C(=O)N(C)C(=O)C2=C1N=C(CC(C)(C)C)N=C2S", 
	 "Tm": 463.15, 
	 "num_atms": 47, 
	 "gaussian": { 
		 "optdone": 1, 
		 "sigma_profile": "yes", 
		 "theory": "DFT", 
		 "functional": "B3LYP", 
		 "basiset": "6-31G**", 
		 "properties": { 
			 "R2extent": 9525.402, 
			 "electric_dipole_moment_norm": 2.17599817555, 
			 "electric_quadrupole_moment_norm": 10.7906102487, 
			 "total_energy": -1391.90104509, 
			 "HOMO_LUMO_gap": 0.18003, 
			 "cosmo_polarized_energy": -10.86, 
			 "cosmo_cavitation_energy": 48.07, 
			 "cosmo_dispersion_energy": -32.55, 
			 "cosmo_repulsion_energy": 2.41, 
			 "cosmo_total_nonelectrostatic_energy": 17.92, 
			 "SMD_solvation_energy": 7.04 
		},
		"coords": [
			{
				"x": -2.9549736832,
				"y": 1.2567090854,
				"z": -0.0853514852,
				"element": "C" 
			},
			{
				"x": -3.7114854487,
				"y": 0.1823648537,
				"z": 0.708962136,
				"element": "C" 
			},
			{
				"x": -4.3040400442,
				"y": 0.7688068481,
				"z": 1.9988380752,
				"element": "C" 
			},
			{
				"x": -2.8930425594,
				"y": -1.1086392586,
				"z": 0.9355002999,
				"element": "C" 
			},
			{
				"x": -1.6803865528,
				"y": -0.963984905,
				"z": 1.7812006035,
				"element": "N" 
			},
			{
				"x": -1.8381359196,
				"y": -1.1911078797,
				"z": 3.1502327917,
				"element": "C" 
			},
			{
				"x": -2.9103690674,
				"y": -1.4987775223,
				"z": 3.6442585984,
				"element": "O" 
			},
			{
				"x": -0.7013039313,
				"y": -1.0407699651,
				"z": 3.9491146967,
				"element": "N" 
			},
			{
				"x": -0.9152362534,
				"y": -1.2353860376,
				"z": 5.3902665918,
				"element": "C" 
			},
			{
				"x": 0.5851467556,
				"y": -0.7530760866,
				"z": 3.4880084073,
				"element": "C" 
			},
			{
				"x": 1.5115530647,
				"y": -0.6319092642,
				"z": 4.2942579671,
				"element": "O" 
			},
			{
				"x": 0.7135043797,
				"y": -0.6368269481,
				"z": 2.0347787012,
				"element": "C" 
			},
			{
				"x": -0.4322215283,
				"y": -0.7616261714,
				"z": 1.2138947998,
				"element": "C" 
			},
			{
				"x": -0.3765702811,
				"y": -0.6952746594,
				"z": -0.1202909817,
				"element": "N" 
			},
			{
				"x": 0.8276997687,
				"y": -0.4924824248,
				"z": -0.6705240246,
				"element": "C" 
			},
			{
				"x": 0.899093978,
				"y": -0.4256811802,
				"z": -2.1736790854,
				"element": "C" 
			},
			{
				"x": 1.1971577592,
				"y": -1.774940374,
				"z": -2.9064996957,
				"element": "C" 
			},
			{
				"x": 1.1992034474,
				"y": -1.4755305099,
				"z": -4.4185585877,
				"element": "C" 
			},
			{
				"x": 2.5755716153,
				"y": -2.3277178088,
				"z": -2.4995835059,
				"element": "C" 
			},
			{
				"x": 0.1050238747,
				"y": -2.8164601674,
				"z": -2.600325189,
				"element": "C" 
			},
			{
				"x": 1.9741906597,
				"y": -0.3379645138,
				"z": 0.0032578884,
				"element": "N" 
			},
			{
				"x": 1.9322177677,
				"y": -0.4105964629,
				"z": 1.3386880705,
				"element": "C" 
			},
			{
				"x": 3.5115572562,
				"y": -0.1976687863,
				"z": 2.0829427546,
				"element": "S" 
			},
			{
				"x": -3.62068134,
				"y": 2.0963840632,
				"z": -0.3120500076,
				"element": "H" 
			},
			{
				"x": -2.1104952199,
				"y": 1.6551264592,
				"z": 0.4877995364,
				"element": "H" 
			},
			{
				"x": -2.5604124378,
				"y": 0.8643763892,
				"z": -1.0260657172,
				"element": "H" 
			},
			{
				"x": -4.5520282295,
				"y": -0.1580392121,
				"z": 0.085374719,
				"element": "H" 
			},
			{
				"x": -3.5200186926,
				"y": 1.1684969794,
				"z": 2.6514285546,
				"element": "H" 
			},
			{
				"x": -4.8575892137,
				"y": 0.0205377551,
				"z": 2.5709010596,
				"element": "H" 
			},
			{
				"x": -4.9803981247,
				"y": 1.5961426142,
				"z": 1.7587575052,
				"element": "H" 
			},
			{
				"x": -3.516322791,
				"y": -1.8506043839,
				"z": 1.4353528339,
				"element": "H" 
			},
			{
				"x": -2.5546358778,
				"y": -1.5027055904,
				"z": -0.0217118565,
				"element": "H" 
			},
			{
				"x": -1.244154595,
				"y": -2.2589012907,
				"z": 5.5811029106,
				"element": "H" 
			},
			{
				"x": 0.0278916127,
				"y": -1.0372696056,
				"z": 5.8920114279,
				"element": "H" 
			},
			{
				"x": -1.6917086598,
				"y": -0.5530697646,
				"z": 5.7395512869,
				"element": "H" 
			},
			{
				"x": -0.0578159702,
				"y": -0.0392429194,
				"z": -2.5386609159,
				"element": "H" 
			},
			{
				"x": 1.6857733374,
				"y": 0.2883311047,
				"z": -2.4370226206,
				"element": "H" 
			},
			{
				"x": 1.9650618622,
				"y": -0.7354978626,
				"z": -4.6763334319,
				"element": "H" 
			},
			{
				"x": 1.4079669355,
				"y": -2.3855698041,
				"z": -4.9916586564,
				"element": "H" 
			},
			{
				"x": 0.2295386414,
				"y": -1.0867890839,
				"z": -4.7498545412,
				"element": "H" 
			},
			{
				"x": 3.371277864,
				"y": -1.6055547488,
				"z": -2.710365208,
				"element": "H" 
			},
			{
				"x": 2.7946347864,
				"y": -3.24487488,
				"z": -3.0579320202,
				"element": "H" 
			},
			{
				"x": 2.6230647272,
				"y": -2.5632224543,
				"z": -1.4328052934,
				"element": "H" 
			},
			{
				"x": 0.2893737142,
				"y": -3.7367289538,
				"z": -3.1657508298,
				"element": "H" 
			},
			{
				"x": 0.0777685563,
				"y": -3.0778081104,
				"z": -1.5382283913,
				"element": "H" 
			},
			{
				"x": -0.8882274474,
				"y": -2.4455025572,
				"z": -2.8763389062,
				"element": "H" 
			},
			{
				"x": 3.0470815046,
				"y": -0.3256740043,
				"z": 3.3534087351,
				"element": "H" 
			}
		],
		 "valence_orbital": [ 
			{
				"type": "occ",
				"energy": -0.28829,
				"method": "rhf"
			},
			{
				"type": "occ",
				"energy": -0.27774,
				"method": "rhf"
			},
			{
				"type": "occ",
				"energy": -0.26323,
				"method": "rhf"
			},
			{
				"type": "occ",
				"energy": -0.25949,
				"method": "rhf"
			},
			{
				"type": "occ",
				"energy": -0.24958,
				"method": "rhf"
			},
			{
				"type": "unocc",
				"energy": -0.06955,
				"method": "rhf"
			},
			{
				"type": "unocc",
				"energy": -0.04307,
				"method": "rhf"
			},
			{
				"type": "unocc",
				"energy": 0.00094,
				"method": "rhf"
			},
			{
				"type": "unocc",
				"energy": 0.03274,
				"method": "rhf"
			},
			{
				"type": "unocc",
				"energy": 0.04713,
				"method": "rhf"
			}
		],
		"cosmo_sigma_profile": { 
			"-0.025": 0.0,
			"-0.024": 0.0,
			"-0.023": 0.0,
			"-0.022": 0.0,
			"-0.021": 0.0,
			"-0.02": 0.0,
			"-0.019": 0.0,
			"-0.018": 0.0,
			"-0.017": 0.0,
			"-0.016": 0.0,
			"-0.015": 0.0,
			"-0.014": 0.0,
			"-0.013": 0.0,
			"-0.012": 0.0,
			"-0.011": 0.0,
			"-0.01": 0.0,
			"-0.009": 0.122401960345,
			"-0.008": 1.21352998886,
			"-0.007": 2.38437605536,
			"-0.006": 6.33842759751,
			"-0.005": 10.4268528538,
			"-0.004": 24.8984189797,
			"-0.003": 52.6665225641,
			"-0.002": 59.224537545,
			"-0.001": 43.5442064793,
			"0.0": 36.8666125429,
			"0.001": 42.2824978194,
			"0.002": 27.7676741843,
			"0.003": 12.154668867,
			"0.004": 10.6309796658,
			"0.005": 10.89112422,
			"0.006": 10.0717575325,
			"0.007": 7.07097950059,
			"0.008": 4.15531246309,
			"0.009": 4.13223040012,
			"0.01": 5.10722177495,
			"0.011": 3.18989031855,
			"0.012": 3.08950362175,
			"0.013": 0.576764215038,
			"0.014": 0.0,
			"0.015": 0.0,
			"0.016": 0.0,
			"0.017": 0.0,
			"0.018": 0.0,
			"0.019": 0.0,
			"0.02": 0.0,
			"0.021": 0.0,
			"0.022": 0.0,
			"0.023": 0.0,
			"0.024": 0.0,
			"0.025": 0.0
		}
	}
}
