{
	 "smiles": "CC1=C2C=CC=CC2=NC(O)=C1C(O)=O", 
	 "Tm": 528.15, 
	 "num_atms": 24, 
	 "gaussian": { 
		 "optdone": 1, 
		 "sigma_profile": "yes", 
		 "theory": "DFT", 
		 "functional": "B3LYP", 
		 "basiset": "6-31G**", 
		 "properties": { 
			 "R2extent": 3259.5032, 
			 "electric_dipole_moment_norm": 4.70321024514, 
			 "electric_quadrupole_moment_norm": 17.0935205189, 
			 "total_energy": -705.050234056, 
			 "HOMO_LUMO_gap": 0.1679, 
			 "cosmo_polarized_energy": -13.64, 
			 "cosmo_cavitation_energy": 27.46, 
			 "cosmo_dispersion_energy": -21.03, 
			 "cosmo_repulsion_energy": 1.6, 
			 "cosmo_total_nonelectrostatic_energy": 8.03, 
			 "SMD_solvation_energy": 4.56 
		},
		"coords": [
			{
				"x": 0.5962916092,
				"y": 0.1863062293,
				"z": 2.0506525534,
				"element": "C" 
			},
			{
				"x": 0.4572317844,
				"y": 0.1609453908,
				"z": 0.5484376435,
				"element": "C" 
			},
			{
				"x": -0.8286623834,
				"y": 0.4440016869,
				"z": -0.0319841517,
				"element": "C" 
			},
			{
				"x": -1.9666151851,
				"y": 0.8207525693,
				"z": 0.7333048147,
				"element": "C" 
			},
			{
				"x": -3.1740469805,
				"y": 1.0941766317,
				"z": 0.1271051911,
				"element": "C" 
			},
			{
				"x": -3.3072365374,
				"y": 0.9993441452,
				"z": -1.2766425059,
				"element": "C" 
			},
			{
				"x": -2.2263897048,
				"y": 0.641892401,
				"z": -2.0520316597,
				"element": "C" 
			},
			{
				"x": -0.9739574919,
				"y": 0.3662054448,
				"z": -1.4509319114,
				"element": "C" 
			},
			{
				"x": 0.0682069554,
				"y": 0.0255799491,
				"z": -2.2628133018,
				"element": "N" 
			},
			{
				"x": 1.2227797053,
				"y": -0.2039502962,
				"z": -1.7065063186,
				"element": "C" 
			},
			{
				"x": 2.2336569966,
				"y": -0.544016561,
				"z": -2.5627464497,
				"element": "O" 
			},
			{
				"x": 1.521903211,
				"y": -0.1396995744,
				"z": -0.3052665004,
				"element": "C" 
			},
			{
				"x": 2.9219084822,
				"y": -0.3543290758,
				"z": 0.2257167317,
				"element": "C" 
			},
			{
				"x": 3.7887645136,
				"y": -1.0381655924,
				"z": -0.5442828296,
				"element": "O" 
			},
			{
				"x": 3.2798198616,
				"y": 0.0515093653,
				"z": 1.3114477438,
				"element": "O" 
			},
			{
				"x": 1.440917427,
				"y": -0.4062441867,
				"z": 2.3894340243,
				"element": "H" 
			},
			{
				"x": -0.317198611,
				"y": -0.1766152292,
				"z": 2.5258361461,
				"element": "H" 
			},
			{
				"x": 0.77586144,
				"y": 1.2096469451,
				"z": 2.4006917411,
				"element": "H" 
			},
			{
				"x": -1.8847584578,
				"y": 0.9122642551,
				"z": 1.8096547741,
				"element": "H" 
			},
			{
				"x": -4.027610834,
				"y": 1.3859053971,
				"z": 0.7313048445,
				"element": "H" 
			},
			{
				"x": -4.2646372069,
				"y": 1.212609238,
				"z": -1.7430248959,
				"element": "H" 
			},
			{
				"x": -2.2951788424,
				"y": 0.5655690451,
				"z": -3.1320344565,
				"element": "H" 
			},
			{
				"x": 1.8375719556,
				"y": -0.5665060004,
				"z": -3.4492918802,
				"element": "H" 
			},
			{
				"x": 3.4203782934,
				"y": -1.1879821778,
				"z": -1.4332293468,
				"element": "H" 
			}
		],
		 "valence_orbital": [ 
			{
				"type": "occ",
				"energy": -0.3009,
				"method": "rhf"
			},
			{
				"type": "occ",
				"energy": -0.29513,
				"method": "rhf"
			},
			{
				"type": "occ",
				"energy": -0.26313,
				"method": "rhf"
			},
			{
				"type": "occ",
				"energy": -0.25498,
				"method": "rhf"
			},
			{
				"type": "occ",
				"energy": -0.24018,
				"method": "rhf"
			},
			{
				"type": "unocc",
				"energy": -0.07228,
				"method": "rhf"
			},
			{
				"type": "unocc",
				"energy": -0.03262,
				"method": "rhf"
			},
			{
				"type": "unocc",
				"energy": 0.00815,
				"method": "rhf"
			},
			{
				"type": "unocc",
				"energy": 0.02794,
				"method": "rhf"
			},
			{
				"type": "unocc",
				"energy": 0.06394,
				"method": "rhf"
			}
		],
		"cosmo_sigma_profile": { 
			"-0.025": 0.0,
			"-0.024": 0.0,
			"-0.023": 0.0,
			"-0.022": 0.0,
			"-0.021": 0.0,
			"-0.02": 0.0,
			"-0.019": 0.113301920098,
			"-0.018": 0.65073553124,
			"-0.017": 0.978997321543,
			"-0.016": 0.646229271065,
			"-0.015": 0.321102596054,
			"-0.014": 0.474442375742,
			"-0.013": 1.1296385493,
			"-0.012": 0.717631447532,
			"-0.011": 0.613170122551,
			"-0.01": 1.33445688513,
			"-0.009": 1.5233594914,
			"-0.008": 2.11009537301,
			"-0.007": 5.07282910877,
			"-0.006": 11.4870198296,
			"-0.005": 13.8313346549,
			"-0.004": 16.0209795526,
			"-0.003": 16.1458134738,
			"-0.002": 17.4118991932,
			"-0.001": 20.8280242269,
			"0.0": 18.6086414625,
			"0.001": 12.588554825,
			"0.002": 13.868790972,
			"0.003": 14.96645445,
			"0.004": 11.9208390074,
			"0.005": 5.06324901034,
			"0.006": 3.46350804633,
			"0.007": 2.94590701245,
			"0.008": 4.06698129308,
			"0.009": 4.04849598412,
			"0.01": 4.44119728872,
			"0.011": 5.9574630551,
			"0.012": 4.33858574576,
			"0.013": 2.28978130212,
			"0.014": 0.346002923591,
			"0.015": 0.0,
			"0.016": 0.0,
			"0.017": 0.0,
			"0.018": 0.0,
			"0.019": 0.0,
			"0.02": 0.0,
			"0.021": 0.0,
			"0.022": 0.0,
			"0.023": 0.0,
			"0.024": 0.0,
			"0.025": 0.0
		}
	}
}
