{
	 "smiles": "NNC(=S)NCC(N)=O", 
	 "Tm": 427.15, 
	 "num_atms": 17, 
	 "gaussian": { 
		 "optdone": 1, 
		 "sigma_profile": "yes", 
		 "theory": "DFT", 
		 "functional": "B3LYP", 
		 "basiset": "6-31G**", 
		 "properties": { 
			 "R2extent": 2578.5072, 
			 "electric_dipole_moment_norm": 8.13331799022, 
			 "electric_quadrupole_moment_norm": 16.8149021576, 
			 "total_energy": -811.543545402, 
			 "HOMO_LUMO_gap": 0.19127, 
			 "cosmo_polarized_energy": -27.52, 
			 "cosmo_cavitation_energy": 22.47, 
			 "cosmo_dispersion_energy": -17.21, 
			 "cosmo_repulsion_energy": 1.4, 
			 "cosmo_total_nonelectrostatic_energy": 6.67, 
			 "SMD_solvation_energy": 3.61 
		},
		"coords": [
			{
				"x": -0.2793594151,
				"y": 0.3837724888,
				"z": -2.9287854306,
				"element": "N" 
			},
			{
				"x": -0.910109977,
				"y": -0.8806476221,
				"z": -3.052370109,
				"element": "N" 
			},
			{
				"x": -1.7164123836,
				"y": -1.457290677,
				"z": -2.1140491894,
				"element": "C" 
			},
			{
				"x": -2.9777743009,
				"y": -2.4759091424,
				"z": -2.5683017161,
				"element": "S" 
			},
			{
				"x": -1.4858537685,
				"y": -1.1813508398,
				"z": -0.7900244003,
				"element": "N" 
			},
			{
				"x": -0.2122685286,
				"y": -0.9076626115,
				"z": -0.1520587286,
				"element": "C" 
			},
			{
				"x": -0.1055672473,
				"y": 0.5281950892,
				"z": 0.4010475484,
				"element": "C" 
			},
			{
				"x": 0.5863460051,
				"y": 0.637476687,
				"z": 1.5671662684,
				"element": "N" 
			},
			{
				"x": -0.5677165907,
				"y": 1.4970075032,
				"z": -0.1863738355,
				"element": "O" 
			},
			{
				"x": -0.7077331996,
				"y": 0.9202183183,
				"z": -2.1714237021,
				"element": "H" 
			},
			{
				"x": 0.7018991672,
				"y": 0.2508238497,
				"z": -2.6965907595,
				"element": "H" 
			},
			{
				"x": -1.2349520532,
				"y": -1.067116172,
				"z": -3.9926509081,
				"element": "H" 
			},
			{
				"x": -2.1891205417,
				"y": -1.6078047933,
				"z": -0.203668855,
				"element": "H" 
			},
			{
				"x": -0.0548382196,
				"y": -1.6368929487,
				"z": 0.6521747418,
				"element": "H" 
			},
			{
				"x": 0.6032856211,
				"y": -1.057861396,
				"z": -0.8646487395,
				"element": "H" 
			},
			{
				"x": 0.8883503975,
				"y": -0.1630008859,
				"z": 2.098527045,
				"element": "H" 
			},
			{
				"x": 0.703925035,
				"y": 1.5571431528,
				"z": 1.9664307699,
				"element": "H" 
			}
		],
		 "valence_orbital": [ 
			{
				"type": "occ",
				"energy": -0.29383,
				"method": "rhf"
			},
			{
				"type": "occ",
				"energy": -0.28628,
				"method": "rhf"
			},
			{
				"type": "occ",
				"energy": -0.24831,
				"method": "rhf"
			},
			{
				"type": "occ",
				"energy": -0.21088,
				"method": "rhf"
			},
			{
				"type": "occ",
				"energy": -0.19896,
				"method": "rhf"
			},
			{
				"type": "unocc",
				"energy": -0.00769,
				"method": "rhf"
			},
			{
				"type": "unocc",
				"energy": -0.00617,
				"method": "rhf"
			},
			{
				"type": "unocc",
				"energy": 0.04155,
				"method": "rhf"
			},
			{
				"type": "unocc",
				"energy": 0.06886,
				"method": "rhf"
			},
			{
				"type": "unocc",
				"energy": 0.07203,
				"method": "rhf"
			}
		],
		"cosmo_sigma_profile": { 
			"-0.025": 0.0,
			"-0.024": 0.0,
			"-0.023": 0.0,
			"-0.022": 0.0,
			"-0.021": 0.0,
			"-0.02": 0.0,
			"-0.019": 0.0,
			"-0.018": 0.0,
			"-0.017": 0.0,
			"-0.016": 0.0813513609474,
			"-0.015": 1.98752661508,
			"-0.014": 4.45382908619,
			"-0.013": 4.47726118494,
			"-0.012": 6.9906148296,
			"-0.011": 5.47568001335,
			"-0.01": 7.73849389313,
			"-0.009": 6.31019873058,
			"-0.008": 6.5864503096,
			"-0.007": 5.96042037162,
			"-0.006": 6.36135316365,
			"-0.005": 6.70029368294,
			"-0.004": 6.65243691175,
			"-0.003": 4.41741623007,
			"-0.002": 5.51078971507,
			"-0.001": 6.67280282178,
			"0.0": 6.15736782478,
			"0.001": 5.95354482649,
			"0.002": 6.68771067728,
			"0.003": 5.55593941341,
			"0.004": 7.74518942267,
			"0.005": 5.80376225749,
			"0.006": 5.53654488605,
			"0.007": 5.18624113886,
			"0.008": 5.00329943044,
			"0.009": 5.46995812618,
			"0.01": 7.85093877261,
			"0.011": 10.5339879626,
			"0.012": 9.36633922796,
			"0.013": 4.00433056247,
			"0.014": 1.10869415442,
			"0.015": 0.827003268944,
			"0.016": 0.322768199096,
			"0.017": 0.0,
			"0.018": 0.0,
			"0.019": 0.0,
			"0.02": 0.0,
			"0.021": 0.0,
			"0.022": 0.0,
			"0.023": 0.0,
			"0.024": 0.0,
			"0.025": 0.0
		}
	}
}
