{
	 "smiles": "N#CC(C#N)=C1SC2=NC3=CC=CC=C3N=C2S1", 
	 "Tm": 494.15, 
	 "num_atms": 22, 
	 "gaussian": { 
		 "optdone": 1, 
		 "sigma_profile": "yes", 
		 "theory": "DFT", 
		 "functional": "B3LYP", 
		 "basiset": "6-31G**", 
		 "properties": { 
			 "R2extent": 6407.6716, 
			 "electric_dipole_moment_norm": 8.57291207584, 
			 "electric_quadrupole_moment_norm": 11.7321692781, 
			 "total_energy": -1475.00778219, 
			 "HOMO_LUMO_gap": 0.13813, 
			 "cosmo_polarized_energy": -13.45, 
			 "cosmo_cavitation_energy": 33.12, 
			 "cosmo_dispersion_energy": -24.35, 
			 "cosmo_repulsion_energy": 1.75, 
			 "cosmo_total_nonelectrostatic_energy": 10.53, 
			 "SMD_solvation_energy": 4.2 
		},
		"coords": [
			{
				"x": -2.2994451956,
				"y": -4.5110051299,
				"z": -3.1963473215,
				"element": "N" 
			},
			{
				"x": -1.3006538737,
				"y": -4.0791633745,
				"z": -2.7812685348,
				"element": "C" 
			},
			{
				"x": -0.0947581157,
				"y": -3.5246731868,
				"z": -2.2598820771,
				"element": "C" 
			},
			{
				"x": 1.1318401087,
				"y": -4.2130223272,
				"z": -2.4950532759,
				"element": "C" 
			},
			{
				"x": 2.1468801373,
				"y": -4.7556362912,
				"z": -2.673148522,
				"element": "N" 
			},
			{
				"x": -0.1143245884,
				"y": -2.3480357367,
				"z": -1.543617171,
				"element": "C" 
			},
			{
				"x": 1.3609116062,
				"y": -1.6461460408,
				"z": -0.8914268126,
				"element": "S" 
			},
			{
				"x": 0.5606449268,
				"y": -0.2448701128,
				"z": -0.1561135893,
				"element": "C" 
			},
			{
				"x": 1.2416799528,
				"y": 0.6537768719,
				"z": 0.4960109955,
				"element": "N" 
			},
			{
				"x": 0.5282220061,
				"y": 1.6950292364,
				"z": 1.024390886,
				"element": "C" 
			},
			{
				"x": 1.2023034748,
				"y": 2.7088304094,
				"z": 1.7458169759,
				"element": "C" 
			},
			{
				"x": 0.4864610177,
				"y": 3.7591830323,
				"z": 2.2793964393,
				"element": "C" 
			},
			{
				"x": -0.9189826911,
				"y": 3.8364842797,
				"z": 2.1140943066,
				"element": "C" 
			},
			{
				"x": -1.6012864053,
				"y": 2.8630310428,
				"z": 1.41608354,
				"element": "C" 
			},
			{
				"x": -0.8923399434,
				"y": 1.7731555593,
				"z": 0.8573134364,
				"element": "C" 
			},
			{
				"x": -1.5725458318,
				"y": 0.8085573511,
				"z": 0.1650179556,
				"element": "N" 
			},
			{
				"x": -0.8604427972,
				"y": -0.1667047148,
				"z": -0.323270997,
				"element": "C" 
			},
			{
				"x": -1.6156010007,
				"y": -1.4824243582,
				"z": -1.2416009137,
				"element": "S" 
			},
			{
				"x": 2.2781356096,
				"y": 2.627468065,
				"z": 1.8587937998,
				"element": "H" 
			},
			{
				"x": 1.0011022764,
				"y": 4.5382470977,
				"z": 2.8332826917,
				"element": "H" 
			},
			{
				"x": -1.4604175064,
				"y": 4.6736366253,
				"z": 2.543759121,
				"element": "H" 
			},
			{
				"x": -2.6763831673,
				"y": 2.899981702,
				"z": 1.2760690671,
				"element": "H" 
			}
		],
		 "valence_orbital": [ 
			{
				"type": "occ",
				"energy": -0.31876,
				"method": "rhf"
			},
			{
				"type": "occ",
				"energy": -0.29999,
				"method": "rhf"
			},
			{
				"type": "occ",
				"energy": -0.28925,
				"method": "rhf"
			},
			{
				"type": "occ",
				"energy": -0.26868,
				"method": "rhf"
			},
			{
				"type": "occ",
				"energy": -0.24749,
				"method": "rhf"
			},
			{
				"type": "unocc",
				"energy": -0.10936,
				"method": "rhf"
			},
			{
				"type": "unocc",
				"energy": -0.0839,
				"method": "rhf"
			},
			{
				"type": "unocc",
				"energy": -0.06038,
				"method": "rhf"
			},
			{
				"type": "unocc",
				"energy": -0.05672,
				"method": "rhf"
			},
			{
				"type": "unocc",
				"energy": -0.02046,
				"method": "rhf"
			}
		],
		"cosmo_sigma_profile": { 
			"-0.025": 0.0,
			"-0.024": 0.0,
			"-0.023": 0.0,
			"-0.022": 0.0,
			"-0.021": 0.0,
			"-0.02": 0.0,
			"-0.019": 0.0,
			"-0.018": 0.0,
			"-0.017": 0.0,
			"-0.016": 0.0,
			"-0.015": 0.0,
			"-0.014": 0.0,
			"-0.013": 0.0,
			"-0.012": 0.0,
			"-0.011": 0.0,
			"-0.01": 0.176549346899,
			"-0.009": 1.14096085166,
			"-0.008": 2.21965080011,
			"-0.007": 9.62123699842,
			"-0.006": 14.9689079422,
			"-0.005": 19.9721406214,
			"-0.004": 24.3178859943,
			"-0.003": 21.7436711954,
			"-0.002": 24.8522943896,
			"-0.001": 27.6105795684,
			"0.0": 24.0077522725,
			"0.001": 21.0287872911,
			"0.002": 16.7798346245,
			"0.003": 10.4740126111,
			"0.004": 6.55987654362,
			"0.005": 5.47593851573,
			"0.006": 8.24693954474,
			"0.007": 7.77569825932,
			"0.008": 7.16874168252,
			"0.009": 7.06374141717,
			"0.01": 6.85188196321,
			"0.011": 5.26819596244,
			"0.012": 2.57006472888,
			"0.013": 0.0108777238244,
			"0.014": 0.0,
			"0.015": 0.0,
			"0.016": 0.0,
			"0.017": 0.0,
			"0.018": 0.0,
			"0.019": 0.0,
			"0.02": 0.0,
			"0.021": 0.0,
			"0.022": 0.0,
			"0.023": 0.0,
			"0.024": 0.0,
			"0.025": 0.0
		}
	}
}
