{
	 "smiles": "CN1C=NC(=C1)S(Cl)(=O)=O", 
	 "Tm": 360.65, 
	 "num_atms": 15, 
	 "gaussian": { 
		 "optdone": 1, 
		 "sigma_profile": "yes", 
		 "theory": "DFT", 
		 "functional": "B3LYP", 
		 "basiset": "6-31G**", 
		 "properties": { 
			 "R2extent": 3128.2377, 
			 "electric_dipole_moment_norm": 8.68987086555, 
			 "electric_quadrupole_moment_norm": 12.2818297497, 
			 "total_energy": -1273.68584253, 
			 "HOMO_LUMO_gap": 0.19716, 
			 "cosmo_polarized_energy": -17.87, 
			 "cosmo_cavitation_energy": 23.29, 
			 "cosmo_dispersion_energy": -17.64, 
			 "cosmo_repulsion_energy": 1.39, 
			 "cosmo_total_nonelectrostatic_energy": 7.04, 
			 "SMD_solvation_energy": 1.89 
		},
		"coords": [
			{
				"x": 0.8244253491,
				"y": -0.4824486856,
				"z": -3.0070539495,
				"element": "C" 
			},
			{
				"x": 1.2272640674,
				"y": -0.7274717513,
				"z": -1.6271769381,
				"element": "N" 
			},
			{
				"x": 2.4975300342,
				"y": -1.0056260752,
				"z": -1.180417719,
				"element": "C" 
			},
			{
				"x": 2.5496346682,
				"y": -1.1643181565,
				"z": 0.1218359229,
				"element": "N" 
			},
			{
				"x": 1.261673439,
				"y": -0.9771760284,
				"z": 0.5277698051,
				"element": "C" 
			},
			{
				"x": 0.4139464227,
				"y": -0.7108123878,
				"z": -0.5250330622,
				"element": "C" 
			},
			{
				"x": 0.7612921596,
				"y": -1.0503329245,
				"z": 2.2155285743,
				"element": "S" 
			},
			{
				"x": 0.8856658034,
				"y": -3.1388605554,
				"z": 2.6118418792,
				"element": "Cl" 
			},
			{
				"x": -0.6566331422,
				"y": -0.706173301,
				"z": 2.2595103285,
				"element": "O" 
			},
			{
				"x": 1.7450806276,
				"y": -0.4135046732,
				"z": 3.0763728914,
				"element": "O" 
			},
			{
				"x": 0.0521144941,
				"y": -1.1935843155,
				"z": -3.3104076827,
				"element": "H" 
			},
			{
				"x": 0.4446047467,
				"y": 0.5361445092,
				"z": -3.1213541345,
				"element": "H" 
			},
			{
				"x": 1.6939330368,
				"y": -0.609836536,
				"z": -3.6534111591,
				"element": "H" 
			},
			{
				"x": 3.3371540527,
				"y": -1.0771300854,
				"z": -1.8585876141,
				"element": "H" 
			},
			{
				"x": -0.6457857593,
				"y": -0.5161690333,
				"z": -0.5656171422,
				"element": "H" 
			}
		],
		 "valence_orbital": [ 
			{
				"type": "occ",
				"energy": -0.32769,
				"method": "rhf"
			},
			{
				"type": "occ",
				"energy": -0.3094,
				"method": "rhf"
			},
			{
				"type": "occ",
				"energy": -0.30775,
				"method": "rhf"
			},
			{
				"type": "occ",
				"energy": -0.30305,
				"method": "rhf"
			},
			{
				"type": "occ",
				"energy": -0.27201,
				"method": "rhf"
			},
			{
				"type": "unocc",
				"energy": -0.07485,
				"method": "rhf"
			},
			{
				"type": "unocc",
				"energy": -0.01735,
				"method": "rhf"
			},
			{
				"type": "unocc",
				"energy": 0.00674,
				"method": "rhf"
			},
			{
				"type": "unocc",
				"energy": 0.06069,
				"method": "rhf"
			},
			{
				"type": "unocc",
				"energy": 0.07311,
				"method": "rhf"
			}
		],
		"cosmo_sigma_profile": { 
			"-0.025": 0.0,
			"-0.024": 0.0,
			"-0.023": 0.0,
			"-0.022": 0.0,
			"-0.021": 0.0,
			"-0.02": 0.0,
			"-0.019": 0.0,
			"-0.018": 0.0,
			"-0.017": 0.0,
			"-0.016": 0.0,
			"-0.015": 0.0,
			"-0.014": 0.0,
			"-0.013": 0.0,
			"-0.012": 0.222009271036,
			"-0.011": 3.28676721941,
			"-0.01": 5.03858114645,
			"-0.009": 4.22757568607,
			"-0.008": 7.4913475157,
			"-0.007": 11.2043941027,
			"-0.006": 9.02827076874,
			"-0.005": 10.7997157659,
			"-0.004": 13.2747337737,
			"-0.003": 7.74385423114,
			"-0.002": 8.71691189006,
			"-0.001": 10.2621371489,
			"0.0": 8.05107829839,
			"0.001": 8.54925009288,
			"0.002": 9.45359881655,
			"0.003": 15.451979644,
			"0.004": 13.5631698962,
			"0.005": 4.55583013916,
			"0.006": 5.23572868656,
			"0.007": 6.53288997225,
			"0.008": 13.3428652923,
			"0.009": 7.73177807095,
			"0.01": 1.35668622022,
			"0.011": 1.37565088599,
			"0.012": 1.09813244514,
			"0.013": 0.792808327029,
			"0.014": 0.866808877387,
			"0.015": 0.370495993208,
			"0.016": 0.0,
			"0.017": 0.0,
			"0.018": 0.0,
			"0.019": 0.0,
			"0.02": 0.0,
			"0.021": 0.0,
			"0.022": 0.0,
			"0.023": 0.0,
			"0.024": 0.0,
			"0.025": 0.0
		}
	}
}
