{
	 "smiles": "CC1=CC(C)=C(CS)C(C)=C1", 
	 "Tm": 320.15, 
	 "num_atms": 25, 
	 "gaussian": { 
		 "optdone": 1, 
		 "sigma_profile": "yes", 
		 "theory": "DFT", 
		 "functional": "B3LYP", 
		 "basiset": "6-31G**", 
		 "properties": { 
			 "R2extent": 2715.9928, 
			 "electric_dipole_moment_norm": 1.79014052242, 
			 "electric_quadrupole_moment_norm": 6.1443781093, 
			 "total_energy": -787.710275021, 
			 "HOMO_LUMO_gap": 0.21282, 
			 "cosmo_polarized_energy": -6.08, 
			 "cosmo_cavitation_energy": 28.4, 
			 "cosmo_dispersion_energy": -20.75, 
			 "cosmo_repulsion_energy": 1.61, 
			 "cosmo_total_nonelectrostatic_energy": 9.26, 
			 "SMD_solvation_energy": 4.27 
		},
		"coords": [
			{
				"x": 4.2180432651,
				"y": -1.1194648524,
				"z": 2.0999617472,
				"element": "C" 
			},
			{
				"x": 2.9451093444,
				"y": -0.7629227474,
				"z": 1.3689996355,
				"element": "C" 
			},
			{
				"x": 2.7669683056,
				"y": -1.1064594053,
				"z": 0.0254437477,
				"element": "C" 
			},
			{
				"x": 1.5868734074,
				"y": -0.8147947902,
				"z": -0.663703115,
				"element": "C" 
			},
			{
				"x": 1.456535102,
				"y": -1.2170054099,
				"z": -2.1151534944,
				"element": "C" 
			},
			{
				"x": 0.5400060686,
				"y": -0.1481784422,
				"z": 0.0105890978,
				"element": "C" 
			},
			{
				"x": -0.7435973222,
				"y": 0.1801423567,
				"z": -0.7074735212,
				"element": "C" 
			},
			{
				"x": -1.9769715052,
				"y": -1.2191490544,
				"z": -0.7779298616,
				"element": "S" 
			},
			{
				"x": 0.7019961072,
				"y": 0.2101205341,
				"z": 1.3657569089,
				"element": "C" 
			},
			{
				"x": -0.3816828626,
				"y": 0.9386629659,
				"z": 2.133213799,
				"element": "C" 
			},
			{
				"x": 1.8998327775,
				"y": -0.1024608223,
				"z": 2.0181778006,
				"element": "C" 
			},
			{
				"x": 4.3818750802,
				"y": -0.4655861013,
				"z": 2.961662966,
				"element": "H" 
			},
			{
				"x": 5.0914069037,
				"y": -1.0419500823,
				"z": 1.4446474447,
				"element": "H" 
			},
			{
				"x": 4.185632565,
				"y": -2.1506219925,
				"z": 2.4740745002,
				"element": "H" 
			},
			{
				"x": 3.5694397057,
				"y": -1.6168800571,
				"z": -0.5031258551,
				"element": "H" 
			},
			{
				"x": 1.3448831178,
				"y": -0.3451434305,
				"z": -2.7722502565,
				"element": "H" 
			},
			{
				"x": 2.3429878847,
				"y": -1.763392849,
				"z": -2.4473557557,
				"element": "H" 
			},
			{
				"x": 0.5827132699,
				"y": -1.8570995523,
				"z": -2.276766899,
				"element": "H" 
			},
			{
				"x": -0.5690392945,
				"y": 0.4084671732,
				"z": -1.7610655324,
				"element": "H" 
			},
			{
				"x": -1.2439522047,
				"y": 1.0431263715,
				"z": -0.2686840658,
				"element": "H" 
			},
			{
				"x": -1.9510189455,
				"y": -1.515695142,
				"z": 0.5364073677,
				"element": "H" 
			},
			{
				"x": -0.5440271232,
				"y": 1.9532100972,
				"z": 1.74872532,
				"element": "H" 
			},
			{
				"x": -0.1109692245,
				"y": 1.0306486787,
				"z": 3.1881413589,
				"element": "H" 
			},
			{
				"x": -1.34703279,
				"y": 0.4224280459,
				"z": 2.085182432,
				"element": "H" 
			},
			{
				"x": 2.017588368,
				"y": 0.1803985076,
				"z": 3.0621242307,
				"element": "H" 
			}
		],
		 "valence_orbital": [ 
			{
				"type": "occ",
				"energy": -0.32816,
				"method": "rhf"
			},
			{
				"type": "occ",
				"energy": -0.31899,
				"method": "rhf"
			},
			{
				"type": "occ",
				"energy": -0.23836,
				"method": "rhf"
			},
			{
				"type": "occ",
				"energy": -0.23427,
				"method": "rhf"
			},
			{
				"type": "occ",
				"energy": -0.22359,
				"method": "rhf"
			},
			{
				"type": "unocc",
				"energy": -0.01077,
				"method": "rhf"
			},
			{
				"type": "unocc",
				"energy": 0.00647,
				"method": "rhf"
			},
			{
				"type": "unocc",
				"energy": 0.03169,
				"method": "rhf"
			},
			{
				"type": "unocc",
				"energy": 0.07443,
				"method": "rhf"
			},
			{
				"type": "unocc",
				"energy": 0.09679,
				"method": "rhf"
			}
		],
		"cosmo_sigma_profile": { 
			"-0.025": 0.0,
			"-0.024": 0.0,
			"-0.023": 0.0,
			"-0.022": 0.0,
			"-0.021": 0.0,
			"-0.02": 0.0,
			"-0.019": 0.0,
			"-0.018": 0.0,
			"-0.017": 0.0,
			"-0.016": 0.0,
			"-0.015": 0.0,
			"-0.014": 0.0,
			"-0.013": 0.0,
			"-0.012": 0.0,
			"-0.011": 0.0,
			"-0.01": 0.0,
			"-0.009": 0.243322593563,
			"-0.008": 1.54943585438,
			"-0.007": 2.27499418814,
			"-0.006": 4.7118122341,
			"-0.005": 10.1242428938,
			"-0.004": 23.2426076515,
			"-0.003": 25.8220419135,
			"-0.002": 22.5548339365,
			"-0.001": 22.2698673105,
			"0.0": 28.1432248318,
			"0.001": 18.683262731,
			"0.002": 10.2023690005,
			"0.003": 9.40966852073,
			"0.004": 10.2728604438,
			"0.005": 10.5499308103,
			"0.006": 10.0331084151,
			"0.007": 8.25215636595,
			"0.008": 2.29794917487,
			"0.009": 2.59345106627,
			"0.01": 1.30379254834,
			"0.011": 0.79862414432,
			"0.012": 0.0,
			"0.013": 0.0,
			"0.014": 0.0,
			"0.015": 0.0,
			"0.016": 0.0,
			"0.017": 0.0,
			"0.018": 0.0,
			"0.019": 0.0,
			"0.02": 0.0,
			"0.021": 0.0,
			"0.022": 0.0,
			"0.023": 0.0,
			"0.024": 0.0,
			"0.025": 0.0
		}
	}
}
