{
	 "smiles": "OC(=O)C1=CC=C(C=C1)C1=CSC=N1", 
	 "Tm": 552.15, 
	 "num_atms": 21, 
	 "gaussian": { 
		 "optdone": 1, 
		 "sigma_profile": "yes", 
		 "theory": "DFT", 
		 "functional": "B3LYP", 
		 "basiset": "6-31G**", 
		 "properties": { 
			 "R2extent": 4505.6859, 
			 "electric_dipole_moment_norm": 5.36298080082, 
			 "electric_quadrupole_moment_norm": 19.0981950867, 
			 "total_energy": -988.671140319, 
			 "HOMO_LUMO_gap": 0.17041, 
			 "cosmo_polarized_energy": -16.53, 
			 "cosmo_cavitation_energy": 27.77, 
			 "cosmo_dispersion_energy": -21.3, 
			 "cosmo_repulsion_energy": 1.59, 
			 "cosmo_total_nonelectrostatic_energy": 8.06, 
			 "SMD_solvation_energy": 4.96 
		},
		"coords": [
			{
				"x": 3.8019470846,
				"y": 1.3030611555,
				"z": -3.126717019,
				"element": "O" 
			},
			{
				"x": 2.4433105613,
				"y": 1.3721889356,
				"z": -3.0927867927,
				"element": "C" 
			},
			{
				"x": 1.8387149223,
				"y": 1.8060272181,
				"z": -4.0458322615,
				"element": "O" 
			},
			{
				"x": 1.7729488866,
				"y": 0.8904017181,
				"z": -1.8433650761,
				"element": "C" 
			},
			{
				"x": 2.429441685,
				"y": 0.767887028,
				"z": -0.6107049498,
				"element": "C" 
			},
			{
				"x": 1.7462564627,
				"y": 0.3256022909,
				"z": 0.5177232986,
				"element": "C" 
			},
			{
				"x": 0.3838625969,
				"y": -0.0080702221,
				"z": 0.4442579572,
				"element": "C" 
			},
			{
				"x": -0.2737972574,
				"y": 0.1301046126,
				"z": -0.7917288488,
				"element": "C" 
			},
			{
				"x": 0.4071415205,
				"y": 0.5799834717,
				"z": -1.9141408931,
				"element": "C" 
			},
			{
				"x": -0.3156849427,
				"y": -0.4818748633,
				"z": 1.6529746333,
				"element": "C" 
			},
			{
				"x": -1.6424400366,
				"y": -0.8308061775,
				"z": 1.7527951675,
				"element": "C" 
			},
			{
				"x": -2.0244733913,
				"y": -1.326881886,
				"z": 3.3620484669,
				"element": "S" 
			},
			{
				"x": -0.3587128662,
				"y": -1.030050574,
				"z": 3.8006689014,
				"element": "C" 
			},
			{
				"x": 0.3955967415,
				"y": -0.6045263938,
				"z": 2.8364260101,
				"element": "N" 
			},
			{
				"x": 4.129251544,
				"y": 0.7943777209,
				"z": -2.3722087886,
				"element": "H" 
			},
			{
				"x": 3.4736737297,
				"y": 1.0532633982,
				"z": -0.5038848523,
				"element": "H" 
			},
			{
				"x": 2.2533646899,
				"y": 0.2385876718,
				"z": 1.4714189154,
				"element": "H" 
			},
			{
				"x": -1.3278824442,
				"y": -0.1136164168,
				"z": -0.879355444,
				"element": "H" 
			},
			{
				"x": -0.0997081797,
				"y": 0.6984244667,
				"z": -2.8656451755,
				"element": "H" 
			},
			{
				"x": -2.4042346619,
				"y": -0.823631198,
				"z": 0.9877122258,
				"element": "H" 
			},
			{
				"x": -0.015176645,
				"y": -1.2000519565,
				"z": 4.8141445252,
				"element": "H" 
			}
		],
		 "valence_orbital": [ 
			{
				"type": "occ",
				"energy": -0.2944,
				"method": "rhf"
			},
			{
				"type": "occ",
				"energy": -0.29089,
				"method": "rhf"
			},
			{
				"type": "occ",
				"energy": -0.27271,
				"method": "rhf"
			},
			{
				"type": "occ",
				"energy": -0.26852,
				"method": "rhf"
			},
			{
				"type": "occ",
				"energy": -0.23737,
				"method": "rhf"
			},
			{
				"type": "unocc",
				"energy": -0.06696,
				"method": "rhf"
			},
			{
				"type": "unocc",
				"energy": -0.03512,
				"method": "rhf"
			},
			{
				"type": "unocc",
				"energy": -0.01789,
				"method": "rhf"
			},
			{
				"type": "unocc",
				"energy": 0.00322,
				"method": "rhf"
			},
			{
				"type": "unocc",
				"energy": 0.02246,
				"method": "rhf"
			}
		],
		"cosmo_sigma_profile": { 
			"-0.025": 0.0,
			"-0.024": 0.0,
			"-0.023": 0.0,
			"-0.022": 0.0,
			"-0.021": 0.0,
			"-0.02": 0.0,
			"-0.019": 0.1366474409,
			"-0.018": 0.676507037359,
			"-0.017": 1.19884552735,
			"-0.016": 0.994906531229,
			"-0.015": 0.806325992147,
			"-0.014": 0.794821053085,
			"-0.013": 1.16157659494,
			"-0.012": 1.46812530596,
			"-0.011": 1.28231676739,
			"-0.01": 5.08959051399,
			"-0.009": 6.2803122481,
			"-0.008": 5.7776342938,
			"-0.007": 7.29216450964,
			"-0.006": 7.92839244605,
			"-0.005": 10.1597053129,
			"-0.004": 9.55042035799,
			"-0.003": 9.51436424333,
			"-0.002": 11.5254615699,
			"-0.001": 12.5204361458,
			"0.0": 17.1250657435,
			"0.001": 22.8211105098,
			"0.002": 26.5551865081,
			"0.003": 20.1340742061,
			"0.004": 5.84657129697,
			"0.005": 4.57266536952,
			"0.006": 2.89678127733,
			"0.007": 4.26032401847,
			"0.008": 4.74779058497,
			"0.009": 3.72310352661,
			"0.01": 6.0342458259,
			"0.011": 6.26034094528,
			"0.012": 5.51636070418,
			"0.013": 1.80012715009,
			"0.014": 0.118593627326,
			"0.015": 0.0,
			"0.016": 0.0,
			"0.017": 0.0,
			"0.018": 0.0,
			"0.019": 0.0,
			"0.02": 0.0,
			"0.021": 0.0,
			"0.022": 0.0,
			"0.023": 0.0,
			"0.024": 0.0,
			"0.025": 0.0
		}
	}
}
