{
	 "smiles": "O=CC1=CC=CC=C1C#N", 
	 "Tm": 379.15, 
	 "num_atms": 15, 
	 "gaussian": { 
		 "optdone": 1, 
		 "sigma_profile": "yes", 
		 "theory": "DFT", 
		 "functional": "B3LYP", 
		 "basiset": "6-31G**", 
		 "properties": { 
			 "R2extent": 1358.233, 
			 "electric_dipole_moment_norm": 6.81551716746, 
			 "electric_quadrupole_moment_norm": 7.55019793383, 
			 "total_energy": -437.806662027, 
			 "HOMO_LUMO_gap": 0.17657, 
			 "cosmo_polarized_energy": -15.16, 
			 "cosmo_cavitation_energy": 20.9, 
			 "cosmo_dispersion_energy": -14.72, 
			 "cosmo_repulsion_energy": 1.18, 
			 "cosmo_total_nonelectrostatic_energy": 7.36, 
			 "SMD_solvation_energy": 5.89 
		},
		"coords": [
			{
				"x": 2.7863724946,
				"y": -0.8862875716,
				"z": 0.3305912768,
				"element": "O" 
			},
			{
				"x": 2.1128367198,
				"y": -0.8021118778,
				"z": -0.6743010511,
				"element": "C" 
			},
			{
				"x": 0.7000058471,
				"y": -0.3486961836,
				"z": -0.7221602946,
				"element": "C" 
			},
			{
				"x": 0.0626798366,
				"y": -0.3085766486,
				"z": -1.9667581977,
				"element": "C" 
			},
			{
				"x": -1.2624535706,
				"y": 0.106707159,
				"z": -2.0856074943,
				"element": "C" 
			},
			{
				"x": -1.9681177534,
				"y": 0.489780152,
				"z": -0.9440404644,
				"element": "C" 
			},
			{
				"x": -1.3520216824,
				"y": 0.4574481091,
				"z": 0.3070638591,
				"element": "C" 
			},
			{
				"x": -0.0182639875,
				"y": 0.0403847287,
				"z": 0.4333033517,
				"element": "C" 
			},
			{
				"x": 0.5503367568,
				"y": 0.0326982417,
				"z": 1.7521675315,
				"element": "C" 
			},
			{
				"x": 0.8870399251,
				"y": 0.0727429458,
				"z": 2.8645948738,
				"element": "N" 
			},
			{
				"x": 2.5298103374,
				"y": -1.0716233629,
				"z": -1.6697911714,
				"element": "H" 
			},
			{
				"x": 0.6216000314,
				"y": -0.6091558975,
				"z": -2.8495275531,
				"element": "H" 
			},
			{
				"x": -1.7414096843,
				"y": 0.1316879853,
				"z": -3.0593457642,
				"element": "H" 
			},
			{
				"x": -3.0007541938,
				"y": 0.8151268783,
				"z": -1.0236207339,
				"element": "H" 
			},
			{
				"x": -1.8973610767,
				"y": 0.7544753422,
				"z": 1.1964318317,
				"element": "H" 
			}
		],
		 "valence_orbital": [ 
			{
				"type": "occ",
				"energy": -0.35397,
				"method": "rhf"
			},
			{
				"type": "occ",
				"energy": -0.33318,
				"method": "rhf"
			},
			{
				"type": "occ",
				"energy": -0.29056,
				"method": "rhf"
			},
			{
				"type": "occ",
				"energy": -0.27789,
				"method": "rhf"
			},
			{
				"type": "occ",
				"energy": -0.26784,
				"method": "rhf"
			},
			{
				"type": "unocc",
				"energy": -0.09127,
				"method": "rhf"
			},
			{
				"type": "unocc",
				"energy": -0.05224,
				"method": "rhf"
			},
			{
				"type": "unocc",
				"energy": 0.01717,
				"method": "rhf"
			},
			{
				"type": "unocc",
				"energy": 0.03799,
				"method": "rhf"
			},
			{
				"type": "unocc",
				"energy": 0.06972,
				"method": "rhf"
			}
		],
		"cosmo_sigma_profile": { 
			"-0.025": 0.0,
			"-0.024": 0.0,
			"-0.023": 0.0,
			"-0.022": 0.0,
			"-0.021": 0.0,
			"-0.02": 0.0,
			"-0.019": 0.0,
			"-0.018": 0.0,
			"-0.017": 0.0,
			"-0.016": 0.0,
			"-0.015": 0.0,
			"-0.014": 0.0,
			"-0.013": 0.0,
			"-0.012": 0.0,
			"-0.011": 0.0,
			"-0.01": 0.180748615525,
			"-0.009": 2.70601808326,
			"-0.008": 9.9798958297,
			"-0.007": 13.6342754466,
			"-0.006": 11.2453106925,
			"-0.005": 9.36460513065,
			"-0.004": 9.41770632622,
			"-0.003": 10.0603245617,
			"-0.002": 12.3826335397,
			"-0.001": 11.4541952102,
			"0.0": 14.2286754799,
			"0.001": 13.6880320593,
			"0.002": 4.10503004346,
			"0.003": 3.01046314004,
			"0.004": 2.97293718911,
			"0.005": 2.95724829624,
			"0.006": 3.15171254809,
			"0.007": 3.90655229346,
			"0.008": 4.78954544103,
			"0.009": 6.40951993408,
			"0.01": 7.79238516966,
			"0.011": 7.28589393903,
			"0.012": 3.7396600892,
			"0.013": 1.24723336747,
			"0.014": 0.0,
			"0.015": 0.0,
			"0.016": 0.0,
			"0.017": 0.0,
			"0.018": 0.0,
			"0.019": 0.0,
			"0.02": 0.0,
			"0.021": 0.0,
			"0.022": 0.0,
			"0.023": 0.0,
			"0.024": 0.0,
			"0.025": 0.0
		}
	}
}
