{
	 "smiles": "OCCCCCCCO", 
	 "Tm": 293.35, 
	 "num_atms": 25, 
	 "gaussian": { 
		 "optdone": 1, 
		 "sigma_profile": "yes", 
		 "theory": "DFT", 
		 "functional": "B3LYP", 
		 "basiset": "6-31G**", 
		 "properties": { 
			 "R2extent": 2139.809, 
			 "electric_dipole_moment_norm": 2.93114012459, 
			 "electric_quadrupole_moment_norm": 9.06978706751, 
			 "total_energy": -426.821004627, 
			 "HOMO_LUMO_gap": 0.33219, 
			 "cosmo_polarized_energy": -11.2, 
			 "cosmo_cavitation_energy": 26.14, 
			 "cosmo_dispersion_energy": -18.78, 
			 "cosmo_repulsion_energy": 1.6, 
			 "cosmo_total_nonelectrostatic_energy": 8.96, 
			 "SMD_solvation_energy": 3.9 
		},
		"coords": [
			{
				"x": 1.9835404992,
				"y": 3.7117859692,
				"z": -0.2040378231,
				"element": "O" 
			},
			{
				"x": 0.6730250661,
				"y": 3.2067433128,
				"z": -0.4342221179,
				"element": "C" 
			},
			{
				"x": 0.81576393,
				"y": 1.8402644389,
				"z": -1.0959043827,
				"element": "C" 
			},
			{
				"x": -0.5171258395,
				"y": 1.199728579,
				"z": -1.5159546478,
				"element": "C" 
			},
			{
				"x": -1.4983420925,
				"y": 0.8671387089,
				"z": -0.3759892838,
				"element": "C" 
			},
			{
				"x": -1.0233917834,
				"y": -0.1346892111,
				"z": 0.6943110767,
				"element": "C" 
			},
			{
				"x": -0.7943831146,
				"y": -1.5856337626,
				"z": 0.2166566766,
				"element": "C" 
			},
			{
				"x": 0.6261155783,
				"y": -1.9050312688,
				"z": -0.2620382119,
				"element": "C" 
			},
			{
				"x": 0.8007191027,
				"y": -3.2863288599,
				"z": -0.5550439787,
				"element": "O" 
			},
			{
				"x": 1.9033595637,
				"y": 4.5627673977,
				"z": 0.243846236,
				"element": "H" 
			},
			{
				"x": 0.0954583422,
				"y": 3.8773265898,
				"z": -1.0936132621,
				"element": "H" 
			},
			{
				"x": 0.1129778218,
				"y": 3.120883211,
				"z": 0.5105501302,
				"element": "H" 
			},
			{
				"x": 1.4502480492,
				"y": 1.9672752484,
				"z": -1.9811939365,
				"element": "H" 
			},
			{
				"x": 1.3701511136,
				"y": 1.1832402988,
				"z": -0.4155601308,
				"element": "H" 
			},
			{
				"x": -1.0267142171,
				"y": 1.8740538208,
				"z": -2.2181381536,
				"element": "H" 
			},
			{
				"x": -0.3025854344,
				"y": 0.289943352,
				"z": -2.0896601858,
				"element": "H" 
			},
			{
				"x": -2.4230515904,
				"y": 0.4783254341,
				"z": -0.8240402289,
				"element": "H" 
			},
			{
				"x": -1.787546006,
				"y": 1.7966081161,
				"z": 0.1315494638,
				"element": "H" 
			},
			{
				"x": -0.1132417467,
				"y": 0.2368388266,
				"z": 1.1846611874,
				"element": "H" 
			},
			{
				"x": -1.7887877649,
				"y": -0.1514207726,
				"z": 1.4794158368,
				"element": "H" 
			},
			{
				"x": -1.0111850499,
				"y": -2.280907204,
				"z": 1.0360991284,
				"element": "H" 
			},
			{
				"x": -1.5101098467,
				"y": -1.8262753222,
				"z": -0.5843694261,
				"element": "H" 
			},
			{
				"x": 1.341413488,
				"y": -1.6821022614,
				"z": 0.5376293521,
				"element": "H" 
			},
			{
				"x": 0.9061211554,
				"y": -1.2811924518,
				"z": -1.1241635661,
				"element": "H" 
			},
			{
				"x": 0.2116707759,
				"y": -3.5059421897,
				"z": -1.2883897522,
				"element": "H" 
			}
		],
		 "valence_orbital": [ 
			{
				"type": "occ",
				"energy": -0.32,
				"method": "rhf"
			},
			{
				"type": "occ",
				"energy": -0.31237,
				"method": "rhf"
			},
			{
				"type": "occ",
				"energy": -0.3039,
				"method": "rhf"
			},
			{
				"type": "occ",
				"energy": -0.26318,
				"method": "rhf"
			},
			{
				"type": "occ",
				"energy": -0.25961,
				"method": "rhf"
			},
			{
				"type": "unocc",
				"energy": 0.07258,
				"method": "rhf"
			},
			{
				"type": "unocc",
				"energy": 0.07512,
				"method": "rhf"
			},
			{
				"type": "unocc",
				"energy": 0.08117,
				"method": "rhf"
			},
			{
				"type": "unocc",
				"energy": 0.10961,
				"method": "rhf"
			},
			{
				"type": "unocc",
				"energy": 0.11629,
				"method": "rhf"
			}
		],
		"cosmo_sigma_profile": { 
			"-0.025": 0.0,
			"-0.024": 0.0,
			"-0.023": 0.0,
			"-0.022": 0.0,
			"-0.021": 0.0,
			"-0.02": 0.0,
			"-0.019": 0.0,
			"-0.018": 0.0,
			"-0.017": 0.0,
			"-0.016": 0.146741445413,
			"-0.015": 1.45320273496,
			"-0.014": 2.22117647289,
			"-0.013": 1.81750882153,
			"-0.012": 1.77709036183,
			"-0.011": 1.53978359743,
			"-0.01": 1.61396676205,
			"-0.009": 1.49546062131,
			"-0.008": 1.92003964269,
			"-0.007": 1.68590585101,
			"-0.006": 2.12902119273,
			"-0.005": 2.46054305603,
			"-0.004": 3.82898321124,
			"-0.003": 18.5302770659,
			"-0.002": 35.7677996791,
			"-0.001": 33.9972020973,
			"0.0": 27.5889370671,
			"0.001": 17.6848831963,
			"0.002": 5.1559121514,
			"0.003": 3.03818429526,
			"0.004": 2.60318587776,
			"0.005": 2.40453229842,
			"0.006": 2.85017051765,
			"0.007": 2.81611969057,
			"0.008": 2.95402988806,
			"0.009": 2.69005665717,
			"0.01": 2.02410793753,
			"0.011": 1.79867023715,
			"0.012": 3.16099343378,
			"0.013": 3.38750507769,
			"0.014": 4.07610470828,
			"0.015": 3.37719173811,
			"0.016": 0.0258562163558,
			"0.017": 0.0,
			"0.018": 0.0,
			"0.019": 0.0,
			"0.02": 0.0,
			"0.021": 0.0,
			"0.022": 0.0,
			"0.023": 0.0,
			"0.024": 0.0,
			"0.025": 0.0
		}
	}
}
