{
	 "smiles": "CC1=NN(C(N)=C1)C1=NC=NC(Cl)=C1", 
	 "Tm": 445.15, 
	 "num_atms": 22, 
	 "gaussian": { 
		 "optdone": 1, 
		 "sigma_profile": "yes", 
		 "theory": "DFT", 
		 "functional": "B3LYP", 
		 "basiset": "6-31G**", 
		 "properties": { 
			 "R2extent": 4274.0735, 
			 "electric_dipole_moment_norm": 4.73305218543, 
			 "electric_quadrupole_moment_norm": 14.207798769, 
			 "total_energy": -1043.59717935, 
			 "HOMO_LUMO_gap": 0.17048, 
			 "cosmo_polarized_energy": -17.51, 
			 "cosmo_cavitation_energy": 28.64, 
			 "cosmo_dispersion_energy": -21.38, 
			 "cosmo_repulsion_energy": 1.7, 
			 "cosmo_total_nonelectrostatic_energy": 8.97, 
			 "SMD_solvation_energy": 1.49 
		},
		"coords": [
			{
				"x": -0.3416454262,
				"y": 2.6407210825,
				"z": -2.9224501855,
				"element": "C" 
			},
			{
				"x": -0.3172414495,
				"y": 1.2188175215,
				"z": -2.4544391191,
				"element": "C" 
			},
			{
				"x": -0.4737095819,
				"y": 0.938454975,
				"z": -1.1735465481,
				"element": "N" 
			},
			{
				"x": -0.3764769311,
				"y": -0.4375581,
				"z": -1.0960351378,
				"element": "N" 
			},
			{
				"x": -0.1912098262,
				"y": -1.0008059513,
				"z": -2.3488507298,
				"element": "C" 
			},
			{
				"x": -0.047579445,
				"y": -2.3742387691,
				"z": -2.550059626,
				"element": "N" 
			},
			{
				"x": -0.144544608,
				"y": 0.043058991,
				"z": -3.2424795062,
				"element": "C" 
			},
			{
				"x": -0.4534169751,
				"y": -1.0625470344,
				"z": 0.1576084706,
				"element": "C" 
			},
			{
				"x": -1.1558430855,
				"y": -0.4276900823,
				"z": 1.1053329337,
				"element": "N" 
			},
			{
				"x": -1.2135913949,
				"y": -1.0249793712,
				"z": 2.2911412911,
				"element": "C" 
			},
			{
				"x": -0.6685880004,
				"y": -2.1993045385,
				"z": 2.6422798991,
				"element": "N" 
			},
			{
				"x": 0.0254061604,
				"y": -2.7943267175,
				"z": 1.6858111119,
				"element": "C" 
			},
			{
				"x": 0.787760037,
				"y": -4.3239385605,
				"z": 2.0884435665,
				"element": "Cl" 
			},
			{
				"x": 0.1948279888,
				"y": -2.2827774935,
				"z": 0.4032252003,
				"element": "C" 
			},
			{
				"x": -1.1405523814,
				"y": 2.8028059031,
				"z": -3.6547414274,
				"element": "H" 
			},
			{
				"x": -0.5078264125,
				"y": 3.3061879708,
				"z": -2.0730950546,
				"element": "H" 
			},
			{
				"x": 0.6034066988,
				"y": 2.915742797,
				"z": -3.403854533,
				"element": "H" 
			},
			{
				"x": -0.0323127534,
				"y": -2.6021997124,
				"z": -3.5365301275,
				"element": "H" 
			},
			{
				"x": -0.7463146468,
				"y": -2.9377614961,
				"z": -2.0762558546,
				"element": "H" 
			},
			{
				"x": -0.0283208546,
				"y": -0.0293504273,
				"z": -4.3142314736,
				"element": "H" 
			},
			{
				"x": -1.7762727577,
				"y": -0.5095100781,
				"z": 3.0662700941,
				"element": "H" 
			},
			{
				"x": 0.8042456453,
				"y": -2.7780009088,
				"z": -0.3394432442,
				"element": "H" 
			}
		],
		 "valence_orbital": [ 
			{
				"type": "occ",
				"energy": -0.29028,
				"method": "rhf"
			},
			{
				"type": "occ",
				"energy": -0.28685,
				"method": "rhf"
			},
			{
				"type": "occ",
				"energy": -0.26836,
				"method": "rhf"
			},
			{
				"type": "occ",
				"energy": -0.24734,
				"method": "rhf"
			},
			{
				"type": "occ",
				"energy": -0.22341,
				"method": "rhf"
			},
			{
				"type": "unocc",
				"energy": -0.05293,
				"method": "rhf"
			},
			{
				"type": "unocc",
				"energy": -0.0432,
				"method": "rhf"
			},
			{
				"type": "unocc",
				"energy": 0.02336,
				"method": "rhf"
			},
			{
				"type": "unocc",
				"energy": 0.03186,
				"method": "rhf"
			},
			{
				"type": "unocc",
				"energy": 0.05995,
				"method": "rhf"
			}
		],
		"cosmo_sigma_profile": { 
			"-0.025": 0.0,
			"-0.024": 0.0,
			"-0.023": 0.0,
			"-0.022": 0.0,
			"-0.021": 0.0,
			"-0.02": 0.0,
			"-0.019": 0.0,
			"-0.018": 0.0,
			"-0.017": 0.0,
			"-0.016": 0.0,
			"-0.015": 0.0,
			"-0.014": 1.34910385965,
			"-0.013": 3.40470306293,
			"-0.012": 2.9081802053,
			"-0.011": 3.45127215763,
			"-0.01": 2.78381568824,
			"-0.009": 3.22951917061,
			"-0.008": 4.77826577196,
			"-0.007": 5.91460736212,
			"-0.006": 6.57776160465,
			"-0.005": 9.20488719268,
			"-0.004": 14.0514047942,
			"-0.003": 18.1468469207,
			"-0.002": 22.3414454412,
			"-0.001": 20.2220955035,
			"0.0": 16.0675952332,
			"0.001": 12.2626155634,
			"0.002": 13.6517257157,
			"0.003": 16.1135671088,
			"0.004": 14.3900452398,
			"0.005": 8.4505700974,
			"0.006": 4.59245905381,
			"0.007": 3.65742105068,
			"0.008": 3.86157685284,
			"0.009": 3.43083905493,
			"0.01": 2.94509512382,
			"0.011": 2.73641065051,
			"0.012": 2.17966537451,
			"0.013": 2.36279113532,
			"0.014": 2.10946959132,
			"0.015": 0.650410072176,
			"0.016": 1.13659242197,
			"0.017": 1.45731685071,
			"0.018": 1.02802048692,
			"0.019": 0.610690783903,
			"0.02": 0.0,
			"0.021": 0.0,
			"0.022": 0.0,
			"0.023": 0.0,
			"0.024": 0.0,
			"0.025": 0.0
		}
	}
}
