{
	 "smiles": "FC(F)(Br)C(F)(F)Br", 
	 "Tm": 163.15, 
	 "num_atms": 8, 
	 "gaussian": { 
		 "optdone": 1, 
		 "sigma_profile": "yes", 
		 "theory": "DFT", 
		 "functional": "B3LYP", 
		 "basiset": "6-31G**", 
		 "properties": { 
			 "R2extent": 2217.8242, 
			 "electric_dipole_moment_norm": 0.394133454556, 
			 "electric_quadrupole_moment_norm": 1.55384738955, 
			 "total_energy": -5618.34932694, 
			 "HOMO_LUMO_gap": 0.26429, 
			 "cosmo_polarized_energy": -1.23, 
			 "cosmo_cavitation_energy": 18.72, 
			 "cosmo_dispersion_energy": -13.97, 
			 "cosmo_repulsion_energy": 1.09, 
			 "cosmo_total_nonelectrostatic_energy": 5.83, 
			 "SMD_solvation_energy": 2.57 
		},
		"coords": [
			{
				"x": -0.9658216445,
				"y": -1.2217442518,
				"z": 1.4124112437,
				"element": "F" 
			},
			{
				"x": -1.1357751374,
				"y": -0.2490022331,
				"z": 0.501737343,
				"element": "C" 
			},
			{
				"x": -1.5435568298,
				"y": -0.8037723553,
				"z": -0.6454401695,
				"element": "F" 
			},
			{
				"x": -2.4854259113,
				"y": 1.0033541398,
				"z": 1.1526354448,
				"element": "Br" 
			},
			{
				"x": 0.2487073857,
				"y": 0.4270998042,
				"z": 0.2866609681,
				"element": "C" 
			},
			{
				"x": 0.6376462488,
				"y": 1.017248976,
				"z": 1.4226668069,
				"element": "F" 
			},
			{
				"x": 1.1241869563,
				"y": -0.5467108968,
				"z": -0.0127906789,
				"element": "F" 
			},
			{
				"x": 0.2252389322,
				"y": 1.730926817,
				"z": -1.1669809581,
				"element": "Br" 
			}
		],
		 "valence_orbital": [ 
			{
				"type": "occ",
				"energy": -0.36521,
				"method": "rhf"
			},
			{
				"type": "occ",
				"energy": -0.3299,
				"method": "rhf"
			},
			{
				"type": "occ",
				"energy": -0.32172,
				"method": "rhf"
			},
			{
				"type": "occ",
				"energy": -0.31325,
				"method": "rhf"
			},
			{
				"type": "occ",
				"energy": -0.30575,
				"method": "rhf"
			},
			{
				"type": "unocc",
				"energy": -0.04146,
				"method": "rhf"
			},
			{
				"type": "unocc",
				"energy": -0.0356,
				"method": "rhf"
			},
			{
				"type": "unocc",
				"energy": 0.07318,
				"method": "rhf"
			},
			{
				"type": "unocc",
				"energy": 0.08873,
				"method": "rhf"
			},
			{
				"type": "unocc",
				"energy": 0.15454,
				"method": "rhf"
			}
		],
		"cosmo_sigma_profile": { 
			"-0.025": 0.0,
			"-0.024": 0.0,
			"-0.023": 0.0,
			"-0.022": 0.0,
			"-0.021": 0.0,
			"-0.02": 0.0,
			"-0.019": 0.0,
			"-0.018": 0.0,
			"-0.017": 0.0,
			"-0.016": 0.0,
			"-0.015": 0.0,
			"-0.014": 0.0,
			"-0.013": 0.0,
			"-0.012": 0.0,
			"-0.011": 0.0,
			"-0.01": 0.0,
			"-0.009": 0.0,
			"-0.008": 0.00326916096861,
			"-0.007": 1.69172925388,
			"-0.006": 2.65764517332,
			"-0.005": 2.85467883367,
			"-0.004": 4.44230159725,
			"-0.003": 6.49407180403,
			"-0.002": 11.8456116485,
			"-0.001": 15.7845597549,
			"0.0": 28.3792439648,
			"0.001": 51.521131352,
			"0.002": 27.5912398507,
			"0.003": 3.78210276197,
			"0.004": 0.0,
			"0.005": 0.0,
			"0.006": 0.0,
			"0.007": 0.0,
			"0.008": 0.0,
			"0.009": 0.0,
			"0.01": 0.0,
			"0.011": 0.0,
			"0.012": 0.0,
			"0.013": 0.0,
			"0.014": 0.0,
			"0.015": 0.0,
			"0.016": 0.0,
			"0.017": 0.0,
			"0.018": 0.0,
			"0.019": 0.0,
			"0.02": 0.0,
			"0.021": 0.0,
			"0.022": 0.0,
			"0.023": 0.0,
			"0.024": 0.0,
			"0.025": 0.0
		}
	}
}
