{
	 "smiles": "CSC1=C(Br)C(C2=CC=CC=C2)=C(C#N)C(NS(=O)(=O)C2=CC=C(C)C=C2)=N1", 
	 "Tm": 487.15, 
	 "num_atms": 44, 
	 "gaussian": { 
		 "optdone": 1, 
		 "sigma_profile": "yes", 
		 "theory": "DFT", 
		 "functional": "B3LYP", 
		 "basiset": "6-31G**", 
		 "properties": { 
			 "R2extent": 14216.5501, 
			 "electric_dipole_moment_norm": 7.99371970112, 
			 "electric_quadrupole_moment_norm": 41.5402852281, 
			 "total_energy": -4454.17004078, 
			 "HOMO_LUMO_gap": 0.16828, 
			 "cosmo_polarized_energy": -25.13, 
			 "cosmo_cavitation_energy": 54.65, 
			 "cosmo_dispersion_energy": -35.58, 
			 "cosmo_repulsion_energy": 2.64, 
			 "cosmo_total_nonelectrostatic_energy": 21.71, 
			 "SMD_solvation_energy": 7.77 
		},
		"coords": [
			{
				"x": 0.1121833935,
				"y": -3.6060630301,
				"z": -1.9079582881,
				"element": "C" 
			},
			{
				"x": 1.327425272,
				"y": -2.3260086827,
				"z": -2.3694384961,
				"element": "S" 
			},
			{
				"x": 0.5077998932,
				"y": -0.868812824,
				"z": -1.7822297383,
				"element": "C" 
			},
			{
				"x": 1.1250560847,
				"y": 0.3948980265,
				"z": -1.9091690839,
				"element": "C" 
			},
			{
				"x": 2.8816639997,
				"y": 0.4780244709,
				"z": -2.6395207378,
				"element": "Br" 
			},
			{
				"x": 0.4598224169,
				"y": 1.5494470882,
				"z": -1.4860052564,
				"element": "C" 
			},
			{
				"x": 1.0339746841,
				"y": 2.9165209133,
				"z": -1.6196295481,
				"element": "C" 
			},
			{
				"x": 1.3248514345,
				"y": 3.4548685925,
				"z": -2.8816639315,
				"element": "C" 
			},
			{
				"x": 1.8352175225,
				"y": 4.7468191401,
				"z": -2.9921970508,
				"element": "C" 
			},
			{
				"x": 2.0706026737,
				"y": 5.5089294336,
				"z": -1.8459721093,
				"element": "C" 
			},
			{
				"x": 1.7836522113,
				"y": 4.9786586058,
				"z": -0.5874636059,
				"element": "C" 
			},
			{
				"x": 1.2597857211,
				"y": 3.6917017324,
				"z": -0.4730153135,
				"element": "C" 
			},
			{
				"x": -0.8288234162,
				"y": 1.3804591854,
				"z": -0.9126822419,
				"element": "C" 
			},
			{
				"x": -1.6413501819,
				"y": 2.5151699261,
				"z": -0.5963298488,
				"element": "C" 
			},
			{
				"x": -2.3099453127,
				"y": 3.4454839076,
				"z": -0.3974061034,
				"element": "N" 
			},
			{
				"x": -1.328203648,
				"y": 0.0739709783,
				"z": -0.755948768,
				"element": "C" 
			},
			{
				"x": -2.5905518253,
				"y": -0.144672722,
				"z": -0.1574130702,
				"element": "N" 
			},
			{
				"x": -2.7265371168,
				"y": -0.1037853893,
				"z": 1.5681968554,
				"element": "S" 
			},
			{
				"x": -1.9023745804,
				"y": 1.0162558013,
				"z": 2.0121126696,
				"element": "O" 
			},
			{
				"x": -4.1593812026,
				"y": -0.2039892964,
				"z": 1.825167554,
				"element": "O" 
			},
			{
				"x": -1.9591348056,
				"y": -1.6223359453,
				"z": 2.1346741196,
				"element": "C" 
			},
			{
				"x": -2.746600601,
				"y": -2.7619435969,
				"z": 2.3121440085,
				"element": "C" 
			},
			{
				"x": -2.1392590251,
				"y": -3.946344272,
				"z": 2.7238852673,
				"element": "C" 
			},
			{
				"x": -0.7584950049,
				"y": -4.0095826832,
				"z": 2.9635351501,
				"element": "C" 
			},
			{
				"x": -0.115822794,
				"y": -5.2881963729,
				"z": 3.4437533993,
				"element": "C" 
			},
			{
				"x": 0.005954144,
				"y": -2.847145396,
				"z": 2.7813231741,
				"element": "C" 
			},
			{
				"x": -0.5830474133,
				"y": -1.6528854486,
				"z": 2.3715265864,
				"element": "C" 
			},
			{
				"x": -0.6841147495,
				"y": -1.005166256,
				"z": -1.1992220738,
				"element": "N" 
			},
			{
				"x": -0.835005086,
				"y": -3.4489309285,
				"z": -2.4244624568,
				"element": "H" 
			},
			{
				"x": 0.5580124268,
				"y": -4.5508047714,
				"z": -2.2267277722,
				"element": "H" 
			},
			{
				"x": -0.0527749449,
				"y": -3.6127031357,
				"z": -0.8302534242,
				"element": "H" 
			},
			{
				"x": 1.1406709922,
				"y": 2.865585974,
				"z": -3.7741409155,
				"element": "H" 
			},
			{
				"x": 2.0472097707,
				"y": 5.1583879016,
				"z": -3.9744606744,
				"element": "H" 
			},
			{
				"x": 2.4712741796,
				"y": 6.5144885056,
				"z": -1.9342994825,
				"element": "H" 
			},
			{
				"x": 1.9592797607,
				"y": 5.5679992044,
				"z": 0.3072862275,
				"element": "H" 
			},
			{
				"x": 1.0266456678,
				"y": 3.2850265623,
				"z": 0.5062039653,
				"element": "H" 
			},
			{
				"x": -3.0044277633,
				"y": -1.0126737516,
				"z": -0.4926606122,
				"element": "H" 
			},
			{
				"x": -3.8175402821,
				"y": -2.710222568,
				"z": 2.1472520755,
				"element": "H" 
			},
			{
				"x": -2.7484448811,
				"y": -4.8345596467,
				"z": 2.8687286104,
				"element": "H" 
			},
			{
				"x": -0.1146699717,
				"y": -5.3353583259,
				"z": 4.5397390755,
				"element": "H" 
			},
			{
				"x": 0.9244738025,
				"y": -5.3624897997,
				"z": 3.1142891996,
				"element": "H" 
			},
			{
				"x": -0.6542097182,
				"y": -6.1684902005,
				"z": 3.0811513625,
				"element": "H" 
			},
			{
				"x": 1.0757691545,
				"y": -2.8753656055,
				"z": 2.969999263,
				"element": "H" 
			},
			{
				"x": 0.0083891186,
				"y": -0.751765301,
				"z": 2.2534020398,
				"element": "H" 
			}
		],
		 "valence_orbital": [ 
			{
				"type": "occ",
				"energy": -0.27673,
				"method": "rhf"
			},
			{
				"type": "occ",
				"energy": -0.26769,
				"method": "rhf"
			},
			{
				"type": "occ",
				"energy": -0.25814,
				"method": "rhf"
			},
			{
				"type": "occ",
				"energy": -0.25322,
				"method": "rhf"
			},
			{
				"type": "occ",
				"energy": -0.23584,
				"method": "rhf"
			},
			{
				"type": "unocc",
				"energy": -0.06756,
				"method": "rhf"
			},
			{
				"type": "unocc",
				"energy": -0.06357,
				"method": "rhf"
			},
			{
				"type": "unocc",
				"energy": -0.04132,
				"method": "rhf"
			},
			{
				"type": "unocc",
				"energy": -0.02962,
				"method": "rhf"
			},
			{
				"type": "unocc",
				"energy": -0.01637,
				"method": "rhf"
			}
		],
		"cosmo_sigma_profile": { 
			"-0.025": 0.0,
			"-0.024": 0.0,
			"-0.023": 0.0,
			"-0.022": 0.0,
			"-0.021": 0.0,
			"-0.02": 0.0,
			"-0.019": 0.0,
			"-0.018": 0.0,
			"-0.017": 0.0,
			"-0.016": 0.392358605275,
			"-0.015": 0.917150964936,
			"-0.014": 1.01077823571,
			"-0.013": 1.10432553333,
			"-0.012": 0.61750690906,
			"-0.011": 1.40325628836,
			"-0.01": 0.981522402769,
			"-0.009": 0.80735434361,
			"-0.008": 2.0172225394,
			"-0.007": 10.1068939017,
			"-0.006": 26.4941051238,
			"-0.005": 33.5277040521,
			"-0.004": 35.0452513255,
			"-0.003": 38.0560121017,
			"-0.002": 36.8578664298,
			"-0.001": 33.1895691679,
			"0.0": 31.2156535224,
			"0.001": 28.3227447333,
			"0.002": 30.977393571,
			"0.003": 30.1004635882,
			"0.004": 26.6352604996,
			"0.005": 16.6399924764,
			"0.006": 9.95124175952,
			"0.007": 7.78452254419,
			"0.008": 7.60818622114,
			"0.009": 10.1750342798,
			"0.01": 11.8975855134,
			"0.011": 6.08266019958,
			"0.012": 2.44351171212,
			"0.013": 0.935955618516,
			"0.014": 0.0,
			"0.015": 0.0,
			"0.016": 0.0,
			"0.017": 0.0,
			"0.018": 0.0,
			"0.019": 0.0,
			"0.02": 0.0,
			"0.021": 0.0,
			"0.022": 0.0,
			"0.023": 0.0,
			"0.024": 0.0,
			"0.025": 0.0
		}
	}
}
