{
	 "smiles": "ClCC1=CSC(=N1)C1=CC=CS1", 
	 "Tm": 327.15, 
	 "num_atms": 18, 
	 "gaussian": { 
		 "optdone": 1, 
		 "sigma_profile": "yes", 
		 "theory": "DFT", 
		 "functional": "B3LYP", 
		 "basiset": "6-31G**", 
		 "properties": { 
			 "R2extent": 5565.2457, 
			 "electric_dipole_moment_norm": 2.5737126821, 
			 "electric_quadrupole_moment_norm": 12.0222204759, 
			 "total_energy": -1619.76837855, 
			 "HOMO_LUMO_gap": 0.15597, 
			 "cosmo_polarized_energy": -9.26, 
			 "cosmo_cavitation_energy": 27.73, 
			 "cosmo_dispersion_energy": -21.47, 
			 "cosmo_repulsion_energy": 1.64, 
			 "cosmo_total_nonelectrostatic_energy": 7.9, 
			 "SMD_solvation_energy": 2.87 
		},
		"coords": [
			{
				"x": 3.2769114524,
				"y": 2.0988213633,
				"z": 0.4432855277,
				"element": "Cl" 
			},
			{
				"x": 3.2140783799,
				"y": 1.3267380108,
				"z": -1.2185318584,
				"element": "C" 
			},
			{
				"x": 1.8990294267,
				"y": 1.5292613202,
				"z": -1.8917412498,
				"element": "C" 
			},
			{
				"x": 1.6420203019,
				"y": 2.4791506635,
				"z": -2.8452857099,
				"element": "C" 
			},
			{
				"x": -0.0027539393,
				"y": 2.3732555737,
				"z": -3.3675294869,
				"element": "S" 
			},
			{
				"x": -0.233507777,
				"y": 1.023780324,
				"z": -2.2436207191,
				"element": "C" 
			},
			{
				"x": 0.8408743143,
				"y": 0.7166158197,
				"z": -1.564051747,
				"element": "N" 
			},
			{
				"x": -1.4979166996,
				"y": 0.325701642,
				"z": -2.0963809436,
				"element": "C" 
			},
			{
				"x": -1.7612532882,
				"y": -0.6940395789,
				"z": -1.2067134432,
				"element": "C" 
			},
			{
				"x": -3.0939151222,
				"y": -1.1798243449,
				"z": -1.2942826268,
				"element": "C" 
			},
			{
				"x": -3.8354275944,
				"y": -0.5305151288,
				"z": -2.2457315419,
				"element": "C" 
			},
			{
				"x": -2.9140213646,
				"y": 0.6913488064,
				"z": -3.0568075832,
				"element": "S" 
			},
			{
				"x": 4.030914793,
				"y": 1.7716082424,
				"z": -1.7854521912,
				"element": "H" 
			},
			{
				"x": 3.4049924701,
				"y": 0.2666932014,
				"z": -1.0547598526,
				"element": "H" 
			},
			{
				"x": 2.3128151415,
				"y": 3.2228494228,
				"z": -3.2512690839,
				"element": "H" 
			},
			{
				"x": -1.0086141523,
				"y": -1.0626047007,
				"z": -0.5211054679,
				"element": "H" 
			},
			{
				"x": -3.4875947435,
				"y": -1.9778568242,
				"z": -0.6755411571,
				"element": "H" 
			},
			{
				"x": -4.8678315987,
				"y": -0.6934838125,
				"z": -2.5220808652,
				"element": "H" 
			}
		],
		 "valence_orbital": [ 
			{
				"type": "occ",
				"energy": -0.2915,
				"method": "rhf"
			},
			{
				"type": "occ",
				"energy": -0.28418,
				"method": "rhf"
			},
			{
				"type": "occ",
				"energy": -0.27711,
				"method": "rhf"
			},
			{
				"type": "occ",
				"energy": -0.26287,
				"method": "rhf"
			},
			{
				"type": "occ",
				"energy": -0.2208,
				"method": "rhf"
			},
			{
				"type": "unocc",
				"energy": -0.06483,
				"method": "rhf"
			},
			{
				"type": "unocc",
				"energy": -0.01624,
				"method": "rhf"
			},
			{
				"type": "unocc",
				"energy": -0.01103,
				"method": "rhf"
			},
			{
				"type": "unocc",
				"energy": 0.02149,
				"method": "rhf"
			},
			{
				"type": "unocc",
				"energy": 0.04699,
				"method": "rhf"
			}
		],
		"cosmo_sigma_profile": { 
			"-0.025": 0.0,
			"-0.024": 0.0,
			"-0.023": 0.0,
			"-0.022": 0.0,
			"-0.021": 0.0,
			"-0.02": 0.0,
			"-0.019": 0.0,
			"-0.018": 0.0,
			"-0.017": 0.0,
			"-0.016": 0.0,
			"-0.015": 0.0,
			"-0.014": 0.0,
			"-0.013": 0.0,
			"-0.012": 0.0,
			"-0.011": 0.0,
			"-0.01": 1.30079279354,
			"-0.009": 5.25921765695,
			"-0.008": 8.4132602681,
			"-0.007": 9.92982852457,
			"-0.006": 10.3842879258,
			"-0.005": 10.342392739,
			"-0.004": 10.0679589764,
			"-0.003": 10.4006060833,
			"-0.002": 12.293138831,
			"-0.001": 13.7699083771,
			"0.0": 19.9592801395,
			"0.001": 22.320963771,
			"0.002": 23.858825837,
			"0.003": 22.4873031702,
			"0.004": 15.1222734889,
			"0.005": 9.33689904193,
			"0.006": 11.3598735935,
			"0.007": 8.3985691492,
			"0.008": 1.28996680118,
			"0.009": 1.22018115285,
			"0.01": 0.960549869487,
			"0.011": 0.875817733917,
			"0.012": 0.508149831761,
			"0.013": 0.0,
			"0.014": 0.0,
			"0.015": 0.0,
			"0.016": 0.0,
			"0.017": 0.0,
			"0.018": 0.0,
			"0.019": 0.0,
			"0.02": 0.0,
			"0.021": 0.0,
			"0.022": 0.0,
			"0.023": 0.0,
			"0.024": 0.0,
			"0.025": 0.0
		}
	}
}
