{
	 "smiles": "CC(C)(C)OC(=O)N1CCC(C(N)C1)C1=CC=C(C=C1)C(F)(F)F", 
	 "Tm": 351.15, 
	 "num_atms": 47, 
	 "gaussian": { 
		 "optdone": 1, 
		 "sigma_profile": "yes", 
		 "theory": "DFT", 
		 "functional": "B3LYP", 
		 "basiset": "6-31G**", 
		 "properties": { 
			 "R2extent": 13254.8688, 
			 "electric_dipole_moment_norm": 3.01554953201, 
			 "electric_quadrupole_moment_norm": 19.4917341132, 
			 "total_energy": -1221.19094852, 
			 "HOMO_LUMO_gap": 0.19984, 
			 "cosmo_polarized_energy": -12.62, 
			 "cosmo_cavitation_energy": 48.15, 
			 "cosmo_dispersion_energy": -32.91, 
			 "cosmo_repulsion_energy": 2.45, 
			 "cosmo_total_nonelectrostatic_energy": 17.69, 
			 "SMD_solvation_energy": 8.6 
		},
		"coords": [
			{
				"x": -2.802695386,
				"y": 4.193964541,
				"z": 3.5275832473,
				"element": "C" 
			},
			{
				"x": -1.2704021195,
				"y": 4.1692228808,
				"z": 3.530932859,
				"element": "C" 
			},
			{
				"x": -0.7369143774,
				"y": 3.8777040764,
				"z": 4.9363634847,
				"element": "C" 
			},
			{
				"x": -0.666294285,
				"y": 5.4653534999,
				"z": 2.9800415636,
				"element": "C" 
			},
			{
				"x": -0.7822375947,
				"y": 3.0145981672,
				"z": 2.760365121,
				"element": "O" 
			},
			{
				"x": -1.0462205143,
				"y": 2.9015629768,
				"z": 1.4349049438,
				"element": "C" 
			},
			{
				"x": -1.6991963552,
				"y": 3.6988341368,
				"z": 0.7741987344,
				"element": "O" 
			},
			{
				"x": -0.4772030266,
				"y": 1.7673032527,
				"z": 0.9111758964,
				"element": "N" 
			},
			{
				"x": 0.2749553244,
				"y": 0.7757897714,
				"z": 1.6736000932,
				"element": "C" 
			},
			{
				"x": 1.5975948597,
				"y": 0.4196656478,
				"z": 0.967819105,
				"element": "C" 
			},
			{
				"x": 1.5046468836,
				"y": 0.1375533468,
				"z": -0.5535835678,
				"element": "C" 
			},
			{
				"x": 0.647150719,
				"y": 1.2555272211,
				"z": -1.2251365608,
				"element": "C" 
			},
			{
				"x": 0.5202923413,
				"y": 1.0384010961,
				"z": -2.6649184592,
				"element": "N" 
			},
			{
				"x": -0.6943210744,
				"y": 1.4448669565,
				"z": -0.4949845415,
				"element": "C" 
			},
			{
				"x": 1.0877999463,
				"y": -1.2773916051,
				"z": -0.9497836942,
				"element": "C" 
			},
			{
				"x": 0.3001831878,
				"y": -2.1219030774,
				"z": -0.1530755035,
				"element": "C" 
			},
			{
				"x": -0.0342222109,
				"y": -3.4108999436,
				"z": -0.5695731383,
				"element": "C" 
			},
			{
				"x": 0.4155576628,
				"y": -3.8875557856,
				"z": -1.8005487272,
				"element": "C" 
			},
			{
				"x": 1.2083278442,
				"y": -3.067418132,
				"z": -2.608316995,
				"element": "C" 
			},
			{
				"x": 1.5406330231,
				"y": -1.7851307126,
				"z": -2.1822569629,
				"element": "C" 
			},
			{
				"x": 0.0111711238,
				"y": -5.253581849,
				"z": -2.2801418663,
				"element": "C" 
			},
			{
				"x": -0.2339009638,
				"y": -6.0988239376,
				"z": -1.2538293648,
				"element": "F" 
			},
			{
				"x": 0.9651949919,
				"y": -5.8188499214,
				"z": -3.0536835123,
				"element": "F" 
			},
			{
				"x": -1.1184020844,
				"y": -5.2078365776,
				"z": -3.0268521617,
				"element": "F" 
			},
			{
				"x": -3.198155167,
				"y": 3.2397711837,
				"z": 3.890317912,
				"element": "H" 
			},
			{
				"x": -3.1585225325,
				"y": 4.9846752353,
				"z": 4.1961884092,
				"element": "H" 
			},
			{
				"x": -3.1872673111,
				"y": 4.3785423107,
				"z": 2.5246053777,
				"element": "H" 
			},
			{
				"x": -1.0370830713,
				"y": 4.6732905895,
				"z": 5.6247034834,
				"element": "H" 
			},
			{
				"x": 0.3555916616,
				"y": 3.8191051924,
				"z": 4.9313947616,
				"element": "H" 
			},
			{
				"x": -1.1323204159,
				"y": 2.9289085895,
				"z": 5.310883695,
				"element": "H" 
			},
			{
				"x": -1.0283405944,
				"y": 5.6665073831,
				"z": 1.9718359248,
				"element": "H" 
			},
			{
				"x": -0.9400440945,
				"y": 6.3030885777,
				"z": 3.6297433371,
				"element": "H" 
			},
			{
				"x": 0.4261123267,
				"y": 5.3959797927,
				"z": 2.9590055825,
				"element": "H" 
			},
			{
				"x": -0.3519947134,
				"y": -0.1150157369,
				"z": 1.8186575838,
				"element": "H" 
			},
			{
				"x": 0.4848247151,
				"y": 1.1803014627,
				"z": 2.6618648662,
				"element": "H" 
			},
			{
				"x": 2.275347301,
				"y": 1.2716793793,
				"z": 1.0984359772,
				"element": "H" 
			},
			{
				"x": 2.0592909038,
				"y": -0.4315114726,
				"z": 1.4811188738,
				"element": "H" 
			},
			{
				"x": 2.5142565868,
				"y": 0.2649800851,
				"z": -0.9606219664,
				"element": "H" 
			},
			{
				"x": 1.210693805,
				"y": 2.1884519368,
				"z": -1.0922277971,
				"element": "H" 
			},
			{
				"x": -0.0942490146,
				"y": 0.2489026905,
				"z": -2.8516923126,
				"element": "H" 
			},
			{
				"x": 0.090814042,
				"y": 1.8528291843,
				"z": -3.0974374237,
				"element": "H" 
			},
			{
				"x": -1.2977641141,
				"y": 0.5266926947,
				"z": -0.5805705714,
				"element": "H" 
			},
			{
				"x": -1.2603325515,
				"y": 2.2645891766,
				"z": -0.938691082,
				"element": "H" 
			},
			{
				"x": -0.052307269,
				"y": -1.7903033303,
				"z": 0.8155735618,
				"element": "H" 
			},
			{
				"x": -0.6359866214,
				"y": -4.0488017685,
				"z": 0.0689568955,
				"element": "H" 
			},
			{
				"x": 1.5771637393,
				"y": -3.4390393939,
				"z": -3.5586242996,
				"element": "H" 
			},
			{
				"x": 2.1579744735,
				"y": -1.154579792,
				"z": -2.8136207816,
				"element": "H" 
			}
		],
		 "valence_orbital": [ 
			{
				"type": "occ",
				"energy": -0.26576,
				"method": "rhf"
			},
			{
				"type": "occ",
				"energy": -0.26181,
				"method": "rhf"
			},
			{
				"type": "occ",
				"energy": -0.25823,
				"method": "rhf"
			},
			{
				"type": "occ",
				"energy": -0.25781,
				"method": "rhf"
			},
			{
				"type": "occ",
				"energy": -0.2274,
				"method": "rhf"
			},
			{
				"type": "unocc",
				"energy": -0.02756,
				"method": "rhf"
			},
			{
				"type": "unocc",
				"energy": -0.01644,
				"method": "rhf"
			},
			{
				"type": "unocc",
				"energy": 0.05193,
				"method": "rhf"
			},
			{
				"type": "unocc",
				"energy": 0.0724,
				"method": "rhf"
			},
			{
				"type": "unocc",
				"energy": 0.08327,
				"method": "rhf"
			}
		],
		"cosmo_sigma_profile": { 
			"-0.025": 0.0,
			"-0.024": 0.0,
			"-0.023": 0.0,
			"-0.022": 0.0,
			"-0.021": 0.0,
			"-0.02": 0.0,
			"-0.019": 0.0,
			"-0.018": 0.0,
			"-0.017": 0.0,
			"-0.016": 0.0,
			"-0.015": 0.0,
			"-0.014": 0.0,
			"-0.013": 0.0,
			"-0.012": 0.0,
			"-0.011": 0.0,
			"-0.01": 1.2049843973,
			"-0.009": 1.53675225294,
			"-0.008": 3.1160245456,
			"-0.007": 5.99641759981,
			"-0.006": 9.24172896102,
			"-0.005": 13.0370108554,
			"-0.004": 29.9784306797,
			"-0.003": 43.6087194962,
			"-0.002": 36.2159274386,
			"-0.001": 34.7837615616,
			"0.0": 39.6575145432,
			"0.001": 39.1872884623,
			"0.002": 27.5209671049,
			"0.003": 44.3878175415,
			"0.004": 17.9347846181,
			"0.005": 5.03745854316,
			"0.006": 3.81511570355,
			"0.007": 2.87023108685,
			"0.008": 2.6989852485,
			"0.009": 1.90949135222,
			"0.01": 1.85979495095,
			"0.011": 2.10137164984,
			"0.012": 2.35444071581,
			"0.013": 3.37565249476,
			"0.014": 2.13113096882,
			"0.015": 0.441913785043,
			"0.016": 0.602062608395,
			"0.017": 0.367490612766,
			"0.018": 0.0334845480712,
			"0.019": 0.0,
			"0.02": 0.0,
			"0.021": 0.0,
			"0.022": 0.0,
			"0.023": 0.0,
			"0.024": 0.0,
			"0.025": 0.0
		}
	}
}
