{
	 "smiles": "OC1=C(NC2=CC(=CC=C12)[N+]([O-])=O)C1=CC=C(C=C1)C1=C(O)C2=C(N1)C=C(C=C2)[N+]([O-])=O", 
	 "Tm": 633.15, 
	 "num_atms": 46, 
	 "gaussian": { 
		 "optdone": 1, 
		 "sigma_profile": "yes", 
		 "theory": "DFT", 
		 "functional": "B3LYP", 
		 "basiset": "6-31G**", 
		 "properties": { 
			 "R2extent": 29339.3048, 
			 "electric_dipole_moment_norm": 4.46084078286, 
			 "electric_quadrupole_moment_norm": 87.9383622905, 
			 "total_energy": -1516.94127592, 
			 "HOMO_LUMO_gap": 0.10761, 
			 "cosmo_polarized_energy": -33.92, 
			 "cosmo_cavitation_energy": 53.24, 
			 "cosmo_dispersion_energy": -38.88, 
			 "cosmo_repulsion_energy": 2.8, 
			 "cosmo_total_nonelectrostatic_energy": 17.16, 
			 "SMD_solvation_energy": 12.74 
		},
		"coords": [
			{
				"x": -0.5743206578,
				"y": -1.9809916215,
				"z": 4.2813064387,
				"element": "O" 
			},
			{
				"x": -1.7615193164,
				"y": -1.456544473,
				"z": 3.8589848684,
				"element": "C" 
			},
			{
				"x": -1.9430001357,
				"y": -0.8319441668,
				"z": 2.6301169042,
				"element": "C" 
			},
			{
				"x": -3.2718029928,
				"y": -0.4037848152,
				"z": 2.5732943912,
				"element": "N" 
			},
			{
				"x": -3.9351297482,
				"y": -0.777093834,
				"z": 3.7175652765,
				"element": "C" 
			},
			{
				"x": -5.2648093834,
				"y": -0.5947959823,
				"z": 4.0849195434,
				"element": "C" 
			},
			{
				"x": -5.6328967494,
				"y": -1.0778598553,
				"z": 5.3364844131,
				"element": "C" 
			},
			{
				"x": -4.7351865726,
				"y": -1.7212230529,
				"z": 6.212653125,
				"element": "C" 
			},
			{
				"x": -3.417537264,
				"y": -1.9002975481,
				"z": 5.8312871038,
				"element": "C" 
			},
			{
				"x": -2.9983323656,
				"y": -1.4340300632,
				"z": 4.5689084217,
				"element": "C" 
			},
			{
				"x": -7.0238857128,
				"y": -0.9042824727,
				"z": 5.7604219689,
				"element": "N" 
			},
			{
				"x": -7.7976764113,
				"y": -0.3445344109,
				"z": 4.9797289738,
				"element": "O" 
			},
			{
				"x": -7.3427098868,
				"y": -1.3272783953,
				"z": 6.8730795597,
				"element": "O" 
			},
			{
				"x": -1.0034525235,
				"y": -0.5726868724,
				"z": 1.5484816134,
				"element": "C" 
			},
			{
				"x": 0.2163957391,
				"y": -1.2744517307,
				"z": 1.4572167826,
				"element": "C" 
			},
			{
				"x": 1.1050312693,
				"y": -1.0290297096,
				"z": 0.4191850407,
				"element": "C" 
			},
			{
				"x": 0.8157294547,
				"y": -0.0846453701,
				"z": -0.5884499053,
				"element": "C" 
			},
			{
				"x": -0.3989413993,
				"y": 0.6219321224,
				"z": -0.4912629744,
				"element": "C" 
			},
			{
				"x": -1.2809647017,
				"y": 0.3886378562,
				"z": 0.5547782826,
				"element": "C" 
			},
			{
				"x": 1.7464495566,
				"y": 0.1524782271,
				"z": -1.6839433704,
				"element": "C" 
			},
			{
				"x": 2.6247676537,
				"y": -0.7209857874,
				"z": -2.3100895532,
				"element": "C" 
			},
			{
				"x": 2.831197411,
				"y": -2.0456003883,
				"z": -2.0652419424,
				"element": "O" 
			},
			{
				"x": 3.3000039224,
				"y": -0.0139070343,
				"z": -3.3486611717,
				"element": "C" 
			},
			{
				"x": 2.793562259,
				"y": 1.3175094102,
				"z": -3.3219058279,
				"element": "C" 
			},
			{
				"x": 1.8229543284,
				"y": 1.382908563,
				"z": -2.3458549532,
				"element": "N" 
			},
			{
				"x": 3.2595346646,
				"y": 2.2998037467,
				"z": -4.1910891415,
				"element": "C" 
			},
			{
				"x": 4.2370445135,
				"y": 1.9055079136,
				"z": -5.0991390431,
				"element": "C" 
			},
			{
				"x": 4.7462192371,
				"y": 0.5924281256,
				"z": -5.1703899212,
				"element": "C" 
			},
			{
				"x": 4.2767340941,
				"y": -0.3723892742,
				"z": -4.2964583829,
				"element": "C" 
			},
			{
				"x": 4.7542783062,
				"y": 2.9110078114,
				"z": -6.0308643334,
				"element": "N" 
			},
			{
				"x": 4.302335234,
				"y": 4.0564312098,
				"z": -5.9520039095,
				"element": "O" 
			},
			{
				"x": 5.6118397222,
				"y": 2.5573256774,
				"z": -6.8419544482,
				"element": "O" 
			},
			{
				"x": -0.6198969398,
				"y": -2.1436467631,
				"z": 5.2317896474,
				"element": "H" 
			},
			{
				"x": -3.7291767661,
				"y": -0.1143935575,
				"z": 1.7237473107,
				"element": "H" 
			},
			{
				"x": -5.9968792709,
				"y": -0.1041160165,
				"z": 3.4556656019,
				"element": "H" 
			},
			{
				"x": -5.1034213765,
				"y": -2.0671555368,
				"z": 7.1693946775,
				"element": "H" 
			},
			{
				"x": -2.7280578567,
				"y": -2.4066581281,
				"z": 6.5015423729,
				"element": "H" 
			},
			{
				"x": 0.4681886467,
				"y": -2.0036516596,
				"z": 2.2173455049,
				"element": "H" 
			},
			{
				"x": 2.0599437526,
				"y": -1.5466308212,
				"z": 0.4104933162,
				"element": "H" 
			},
			{
				"x": -0.6625701452,
				"y": 1.3466761545,
				"z": -1.2560594105,
				"element": "H" 
			},
			{
				"x": -2.1907265176,
				"y": 0.9798367239,
				"z": 0.6065118223,
				"element": "H" 
			},
			{
				"x": 2.0891904698,
				"y": -2.3927143089,
				"z": -1.5511614555,
				"element": "H" 
			},
			{
				"x": 1.4828971262,
				"y": 2.2429716563,
				"z": -1.9444278799,
				"element": "H" 
			},
			{
				"x": 2.8985940098,
				"y": 3.3206620684,
				"z": -4.1901292361,
				"element": "H" 
			},
			{
				"x": 5.5005449103,
				"y": 0.3694481633,
				"z": -5.9133727785,
				"element": "H" 
			},
			{
				"x": 4.6574584133,
				"y": -1.3873417797,
				"z": -4.3336433227,
				"element": "H" 
			}
		],
		 "valence_orbital": [ 
			{
				"type": "occ",
				"energy": -0.27999,
				"method": "rhf"
			},
			{
				"type": "occ",
				"energy": -0.25662,
				"method": "rhf"
			},
			{
				"type": "occ",
				"energy": -0.24348,
				"method": "rhf"
			},
			{
				"type": "occ",
				"energy": -0.22292,
				"method": "rhf"
			},
			{
				"type": "occ",
				"energy": -0.20343,
				"method": "rhf"
			},
			{
				"type": "unocc",
				"energy": -0.09582,
				"method": "rhf"
			},
			{
				"type": "unocc",
				"energy": -0.08183,
				"method": "rhf"
			},
			{
				"type": "unocc",
				"energy": -0.05372,
				"method": "rhf"
			},
			{
				"type": "unocc",
				"energy": -0.03534,
				"method": "rhf"
			},
			{
				"type": "unocc",
				"energy": -0.02577,
				"method": "rhf"
			}
		],
		"cosmo_sigma_profile": { 
			"-0.025": 0.0,
			"-0.024": 0.0,
			"-0.023": 0.0,
			"-0.022": 0.0,
			"-0.021": 0.0,
			"-0.02": 0.0,
			"-0.019": 0.0,
			"-0.018": 0.423015801648,
			"-0.017": 1.15657766832,
			"-0.016": 3.37650717321,
			"-0.015": 5.0175217023,
			"-0.014": 4.85314578455,
			"-0.013": 3.80782333299,
			"-0.012": 5.47875856254,
			"-0.011": 5.4804295654,
			"-0.01": 5.83124197213,
			"-0.009": 5.29369907879,
			"-0.008": 7.68393402129,
			"-0.007": 11.302347803,
			"-0.006": 14.3220569314,
			"-0.005": 17.7524897209,
			"-0.004": 17.9562597874,
			"-0.003": 16.1597618555,
			"-0.002": 19.9064083709,
			"-0.001": 20.7760839901,
			"0.0": 27.9153716302,
			"0.001": 39.522561905,
			"0.002": 52.4570453911,
			"0.003": 38.8131297535,
			"0.004": 22.1011298458,
			"0.005": 9.04065785183,
			"0.006": 9.54692852742,
			"0.007": 11.148868034,
			"0.008": 22.0066540185,
			"0.009": 14.7692603886,
			"0.01": 9.97022673997,
			"0.011": 4.96033154239,
			"0.012": 0.0319095763841,
			"0.013": 0.0,
			"0.014": 0.0,
			"0.015": 0.0,
			"0.016": 0.0,
			"0.017": 0.0,
			"0.018": 0.0,
			"0.019": 0.0,
			"0.02": 0.0,
			"0.021": 0.0,
			"0.022": 0.0,
			"0.023": 0.0,
			"0.024": 0.0,
			"0.025": 0.0
		}
	}
}
