{
	 "smiles": "CN(CC(O)=O)C(=O)C1=CC=C(Br)S1", 
	 "Tm": 388.15, 
	 "num_atms": 22, 
	 "gaussian": { 
		 "optdone": 1, 
		 "sigma_profile": "yes", 
		 "theory": "DFT", 
		 "functional": "B3LYP", 
		 "basiset": "6-31G**", 
		 "properties": { 
			 "R2extent": 7033.8022, 
			 "electric_dipole_moment_norm": 4.83461854235, 
			 "electric_quadrupole_moment_norm": 16.1886062967, 
			 "total_energy": -3559.67386858, 
			 "HOMO_LUMO_gap": 0.18388, 
			 "cosmo_polarized_energy": -21.6, 
			 "cosmo_cavitation_energy": 30.64, 
			 "cosmo_dispersion_energy": -22.7, 
			 "cosmo_repulsion_energy": 1.76, 
			 "cosmo_total_nonelectrostatic_energy": 9.7, 
			 "SMD_solvation_energy": 5.66 
		},
		"coords": [
			{
				"x": 0.1275436154,
				"y": -0.1223964918,
				"z": -2.4783561316,
				"element": "C" 
			},
			{
				"x": -0.142035808,
				"y": 0.1750133041,
				"z": -1.0749295306,
				"element": "N" 
			},
			{
				"x": -1.3686026964,
				"y": 0.8843758877,
				"z": -0.8075080866,
				"element": "C" 
			},
			{
				"x": -2.6203436256,
				"y": -0.0059917672,
				"z": -0.8318367562,
				"element": "C" 
			},
			{
				"x": -3.7943670304,
				"y": 0.6654669523,
				"z": -0.9337477385,
				"element": "O" 
			},
			{
				"x": -2.603044953,
				"y": -1.2051666833,
				"z": -0.7287374122,
				"element": "O" 
			},
			{
				"x": 0.8916985197,
				"y": 0.0259675141,
				"z": -0.1655899729,
				"element": "C" 
			},
			{
				"x": 2.0462009088,
				"y": -0.1854464073,
				"z": -0.5253904196,
				"element": "O" 
			},
			{
				"x": 0.5566002997,
				"y": 0.0875636004,
				"z": 1.2816122872,
				"element": "C" 
			},
			{
				"x": -0.5337237286,
				"y": -0.3952397448,
				"z": 1.9705165552,
				"element": "C" 
			},
			{
				"x": -0.4055191224,
				"y": -0.2796496352,
				"z": 3.3831375243,
				"element": "C" 
			},
			{
				"x": 0.792407532,
				"y": 0.2828483346,
				"z": 3.7383399769,
				"element": "C" 
			},
			{
				"x": 1.3813428828,
				"y": 0.6480837967,
				"z": 5.4905743682,
				"element": "Br" 
			},
			{
				"x": 1.7966888135,
				"y": 0.6560925853,
				"z": 2.374555513,
				"element": "S" 
			},
			{
				"x": 0.2402684705,
				"y": 0.799122383,
				"z": -3.0653447011,
				"element": "H" 
			},
			{
				"x": -0.6956149014,
				"y": -0.7134180283,
				"z": -2.8912693002,
				"element": "H" 
			},
			{
				"x": 1.0548486764,
				"y": -0.6883690649,
				"z": -2.5400733511,
				"element": "H" 
			},
			{
				"x": -1.4888830952,
				"y": 1.6938825807,
				"z": -1.545350681,
				"element": "H" 
			},
			{
				"x": -1.3207951748,
				"y": 1.357451353,
				"z": 0.1780272347,
				"element": "H" 
			},
			{
				"x": -3.6411783181,
				"y": 1.616925673,
				"z": -1.0306670327,
				"element": "H" 
			},
			{
				"x": -1.3790486888,
				"y": -0.8646273775,
				"z": 1.4802088203,
				"element": "H" 
			},
			{
				"x": -1.1519425762,
				"y": -0.6018887643,
				"z": 4.0980288345,
				"element": "H" 
			}
		],
		 "valence_orbital": [ 
			{
				"type": "occ",
				"energy": -0.2968,
				"method": "rhf"
			},
			{
				"type": "occ",
				"energy": -0.2756,
				"method": "rhf"
			},
			{
				"type": "occ",
				"energy": -0.26683,
				"method": "rhf"
			},
			{
				"type": "occ",
				"energy": -0.25467,
				"method": "rhf"
			},
			{
				"type": "occ",
				"energy": -0.23867,
				"method": "rhf"
			},
			{
				"type": "unocc",
				"energy": -0.05479,
				"method": "rhf"
			},
			{
				"type": "unocc",
				"energy": -0.01257,
				"method": "rhf"
			},
			{
				"type": "unocc",
				"energy": -0.00895,
				"method": "rhf"
			},
			{
				"type": "unocc",
				"energy": 0.01076,
				"method": "rhf"
			},
			{
				"type": "unocc",
				"energy": 0.0247,
				"method": "rhf"
			}
		],
		"cosmo_sigma_profile": { 
			"-0.025": 0.0,
			"-0.024": 0.0,
			"-0.023": 0.0,
			"-0.022": 0.0,
			"-0.021": 0.0,
			"-0.02": 0.723673292752,
			"-0.019": 1.08826774391,
			"-0.018": 1.36367362926,
			"-0.017": 1.09668121809,
			"-0.016": 1.18654942969,
			"-0.015": 1.41314120133,
			"-0.014": 1.09847425477,
			"-0.013": 0.825839167196,
			"-0.012": 1.63316999238,
			"-0.011": 1.8341329384,
			"-0.01": 2.03769127738,
			"-0.009": 2.45637925205,
			"-0.008": 5.55310956246,
			"-0.007": 8.59222683804,
			"-0.006": 10.9513579986,
			"-0.005": 13.0718515485,
			"-0.004": 12.7679958448,
			"-0.003": 12.2672268216,
			"-0.002": 15.9426291461,
			"-0.001": 16.0236879279,
			"0.0": 19.2571830371,
			"0.001": 22.58829938,
			"0.002": 22.3752645432,
			"0.003": 19.626348303,
			"0.004": 7.63496826029,
			"0.005": 3.96709804645,
			"0.006": 3.9739320751,
			"0.007": 4.60582846989,
			"0.008": 4.98265918386,
			"0.009": 5.03397030241,
			"0.01": 6.51985109953,
			"0.011": 6.67551031977,
			"0.012": 6.0476489316,
			"0.013": 4.63405090278,
			"0.014": 0.366142701911,
			"0.015": 0.0,
			"0.016": 0.0,
			"0.017": 0.0,
			"0.018": 0.0,
			"0.019": 0.0,
			"0.02": 0.0,
			"0.021": 0.0,
			"0.022": 0.0,
			"0.023": 0.0,
			"0.024": 0.0,
			"0.025": 0.0
		}
	}
}
