{
	 "smiles": "CCC1=CC=C(I)C=C1", 
	 "Tm": 256.15, 
	 "num_atms": 18, 
	 "gaussian": { 
		 "optdone": 1, 
		 "sigma_profile": "no", 
		 "theory": "DFT", 
		 "functional": "B3LYP", 
		 "basiset": "6-31G**", 
		 "properties": { 
			 "R2extent": 1910.9096, 
			 "electric_dipole_moment_norm": 2.30931629276, 
			 "electric_quadrupole_moment_norm": 6.66107702027, 
			 "total_energy": -321.671846913, 
			 "HOMO_LUMO_gap": 0.19739, 
			 "cosmo_polarized_energy": -105581.37, 
			 "cosmo_cavitation_energy": 24.49, 
			 "cosmo_dispersion_energy": -19.25, 
			 "cosmo_repulsion_energy": 1.55, 
			 "cosmo_total_nonelectrostatic_energy": 6.78, 
			 "SMD_solvation_energy": 3.26 
		},
		"coords": [
			{
				"x": 1.1520801594,
				"y": -0.52956161,
				"z": 2.2857821936,
				"element": "C" 
			},
			{
				"x": 1.9804891458,
				"y": -0.7410701627,
				"z": 1.0057338224,
				"element": "C" 
			},
			{
				"x": 1.4369869396,
				"y": 0.0279091415,
				"z": -0.179643,
				"element": "C" 
			},
			{
				"x": 1.854658495,
				"y": 1.3390375508,
				"z": -0.4421672629,
				"element": "C" 
			},
			{
				"x": 1.3325836906,
				"y": 2.0710204593,
				"z": -1.5097184232,
				"element": "C" 
			},
			{
				"x": 0.3728036059,
				"y": 1.481547688,
				"z": -2.3333945177,
				"element": "C" 
			},
			{
				"x": -0.4276534926,
				"y": 2.5786561738,
				"z": -3.9652243976,
				"element": "I" 
			},
			{
				"x": -0.0622354228,
				"y": 0.1765701322,
				"z": -2.0991477774,
				"element": "C" 
			},
			{
				"x": 0.4737155157,
				"y": -0.5365863852,
				"z": -1.0257485269,
				"element": "C" 
			},
			{
				"x": 1.1320815146,
				"y": 0.5274458329,
				"z": 2.570297024,
				"element": "H" 
			},
			{
				"x": 1.572067007,
				"y": -1.0986462866,
				"z": 3.1216197434,
				"element": "H" 
			},
			{
				"x": 0.1161824318,
				"y": -0.8529120076,
				"z": 2.1409535125,
				"element": "H" 
			},
			{
				"x": 3.0175404459,
				"y": -0.4380851435,
				"z": 1.1924436467,
				"element": "H" 
			},
			{
				"x": 2.0072354773,
				"y": -1.8104796118,
				"z": 0.7653540355,
				"element": "H" 
			},
			{
				"x": 2.6057362608,
				"y": 1.8004035678,
				"z": 0.1947784529,
				"element": "H" 
			},
			{
				"x": 1.6743411683,
				"y": 3.0831468041,
				"z": -1.6957069736,
				"element": "H" 
			},
			{
				"x": -0.8039720333,
				"y": -0.2828640435,
				"z": -2.7429945881,
				"element": "H" 
			},
			{
				"x": 0.1353590909,
				"y": -1.5549320996,
				"z": -0.8492169635,
				"element": "H" 
			}
		],
		 "valence_orbital": [ 
			{
				"type": "occ",
				"energy": -0.33123,
				"method": "rhf"
			},
			{
				"type": "occ",
				"energy": -0.28737,
				"method": "rhf"
			},
			{
				"type": "occ",
				"energy": -0.26512,
				"method": "rhf"
			},
			{
				"type": "occ",
				"energy": -0.26078,
				"method": "rhf"
			},
			{
				"type": "occ",
				"energy": -0.23272,
				"method": "rhf"
			},
			{
				"type": "unocc",
				"energy": -0.03533,
				"method": "rhf"
			},
			{
				"type": "unocc",
				"energy": -0.01429,
				"method": "rhf"
			},
			{
				"type": "unocc",
				"energy": -0.01236,
				"method": "rhf"
			},
			{
				"type": "unocc",
				"energy": 0.045,
				"method": "rhf"
			},
			{
				"type": "unocc",
				"energy": 0.05271,
				"method": "rhf"
			}
		],
		"cosmo_sigma_profile": { 
			"0.0": 0.0,
			"0.0": 0.0,
			"0.0": 0.0,
			"0.0": 0.0,
			"0.0": 0.0,
			"0.0": 0.0,
			"0.0": 0.0,
			"0.0": 0.0,
			"0.0": 0.0,
			"0.0": 0.0,
			"0.0": 0.0,
			"0.0": 0.0,
			"0.0": 0.0,
			"0.0": 0.0,
			"0.0": 0.0,
			"0.0": 0.0,
			"0.0": 0.0,
			"0.0": 0.0,
			"0.0": 0.0,
			"0.0": 0.0,
			"0.0": 0.0,
			"0.0": 0.0,
			"0.0": 0.0,
			"0.0": 0.0,
			"0.0": 0.0,
			"0.0": 0.0,
			"0.0": 0.0,
			"0.0": 0.0,
			"0.0": 0.0,
			"0.0": 0.0,
			"0.0": 0.0,
			"0.0": 0.0,
			"0.0": 0.0,
			"0.0": 0.0,
			"0.0": 0.0,
			"0.0": 0.0,
			"0.0": 0.0,
			"0.0": 0.0,
			"0.0": 0.0,
			"0.0": 0.0,
			"0.0": 0.0,
			"0.0": 0.0,
			"0.0": 0.0,
			"0.0": 0.0,
			"0.0": 0.0,
			"0.0": 0.0,
			"0.0": 0.0,
			"0.0": 0.0,
			"0.0": 0.0,
			"0.0": 0.0,
			"0.0": 0.0
		}
	}
}
