{
	 "smiles": "N#CCC1=NCCN1", 
	 "Tm": 358.15, 
	 "num_atms": 15, 
	 "gaussian": { 
		 "optdone": 1, 
		 "sigma_profile": "yes", 
		 "theory": "DFT", 
		 "functional": "B3LYP", 
		 "basiset": "6-31G**", 
		 "properties": { 
			 "R2extent": 1615.9236, 
			 "electric_dipole_moment_norm": 2.53500953844, 
			 "electric_quadrupole_moment_norm": 14.562296768, 
			 "total_energy": -358.973523522, 
			 "HOMO_LUMO_gap": 0.23792, 
			 "cosmo_polarized_energy": -12.26, 
			 "cosmo_cavitation_energy": 19.34, 
			 "cosmo_dispersion_energy": -14.09, 
			 "cosmo_repulsion_energy": 1.2, 
			 "cosmo_total_nonelectrostatic_energy": 6.46, 
			 "SMD_solvation_energy": -0.07 
		},
		"coords": [
			{
				"x": -1.229693278,
				"y": 3.9260068147,
				"z": -1.6323596996,
				"element": "N" 
			},
			{
				"x": -1.1020026715,
				"y": 2.8740200151,
				"z": -2.1057898008,
				"element": "C" 
			},
			{
				"x": -0.9162701164,
				"y": 1.5306842156,
				"z": -2.6638080057,
				"element": "C" 
			},
			{
				"x": -0.8502236008,
				"y": 0.4567689383,
				"z": -1.599507424,
				"element": "C" 
			},
			{
				"x": -1.4412614065,
				"y": -0.6706817897,
				"z": -1.7311397882,
				"element": "N" 
			},
			{
				"x": -1.0556910697,
				"y": -1.465166666,
				"z": -0.5481899888,
				"element": "C" 
			},
			{
				"x": -0.3863841723,
				"y": -0.4655123923,
				"z": 0.4372864988,
				"element": "C" 
			},
			{
				"x": -0.046514343,
				"y": 0.6363958764,
				"z": -0.4791924599,
				"element": "N" 
			},
			{
				"x": -1.7375264818,
				"y": 1.2861327824,
				"z": -3.341831452,
				"element": "H" 
			},
			{
				"x": 0.0134545694,
				"y": 1.5268278155,
				"z": -3.2469578473,
				"element": "H" 
			},
			{
				"x": -0.3501484829,
				"y": -2.2455258017,
				"z": -0.8619354594,
				"element": "H" 
			},
			{
				"x": -1.9280463541,
				"y": -1.9666689291,
				"z": -0.1193892197,
				"element": "H" 
			},
			{
				"x": 0.5053801785,
				"y": -0.8706740989,
				"z": 0.9229448507,
				"element": "H" 
			},
			{
				"x": -1.0857998258,
				"y": -0.1333564484,
				"z": 1.2169805085,
				"element": "H" 
			},
			{
				"x": 0.0265270548,
				"y": 1.5722496682,
				"z": -0.0982107127,
				"element": "H" 
			}
		],
		 "valence_orbital": [ 
			{
				"type": "occ",
				"energy": -0.34644,
				"method": "rhf"
			},
			{
				"type": "occ",
				"energy": -0.33742,
				"method": "rhf"
			},
			{
				"type": "occ",
				"energy": -0.33266,
				"method": "rhf"
			},
			{
				"type": "occ",
				"energy": -0.27367,
				"method": "rhf"
			},
			{
				"type": "occ",
				"energy": -0.23232,
				"method": "rhf"
			},
			{
				"type": "unocc",
				"energy": 0.0056,
				"method": "rhf"
			},
			{
				"type": "unocc",
				"energy": 0.02424,
				"method": "rhf"
			},
			{
				"type": "unocc",
				"energy": 0.03653,
				"method": "rhf"
			},
			{
				"type": "unocc",
				"energy": 0.07621,
				"method": "rhf"
			},
			{
				"type": "unocc",
				"energy": 0.09928,
				"method": "rhf"
			}
		],
		"cosmo_sigma_profile": { 
			"-0.025": 0.0,
			"-0.024": 0.0,
			"-0.023": 0.0,
			"-0.022": 0.0,
			"-0.021": 0.0,
			"-0.02": 0.0,
			"-0.019": 0.0,
			"-0.018": 0.0,
			"-0.017": 0.0,
			"-0.016": 0.0,
			"-0.015": 0.0,
			"-0.014": 0.0,
			"-0.013": 0.408221512176,
			"-0.012": 1.00903218581,
			"-0.011": 1.04340392237,
			"-0.01": 3.71766247368,
			"-0.009": 5.51511020548,
			"-0.008": 5.21968598485,
			"-0.007": 6.41729186588,
			"-0.006": 5.96725244829,
			"-0.005": 8.82682191822,
			"-0.004": 16.561270873,
			"-0.003": 15.0314539875,
			"-0.002": 13.6297209295,
			"-0.001": 8.02821699721,
			"0.0": 3.80459383685,
			"0.001": 4.76139978633,
			"0.002": 4.58852399119,
			"0.003": 5.43697334708,
			"0.004": 3.60129693883,
			"0.005": 3.58241429186,
			"0.006": 4.77891611976,
			"0.007": 4.37892791053,
			"0.008": 4.08446263788,
			"0.009": 5.62377566832,
			"0.01": 3.92129913137,
			"0.011": 4.55533184017,
			"0.012": 3.1505593074,
			"0.013": 1.85808584964,
			"0.014": 1.24271616419,
			"0.015": 1.00233602451,
			"0.016": 0.514668357129,
			"0.017": 1.26434135999,
			"0.018": 0.40081570808,
			"0.019": 0.0,
			"0.02": 0.0,
			"0.021": 0.0,
			"0.022": 0.0,
			"0.023": 0.0,
			"0.024": 0.0,
			"0.025": 0.0
		}
	}
}
