{
	 "smiles": "OC(=O)C=CC1=CSC(Br)=C1", 
	 "Tm": 461.15, 
	 "num_atms": 16, 
	 "gaussian": { 
		 "optdone": 1, 
		 "sigma_profile": "yes", 
		 "theory": "DFT", 
		 "functional": "B3LYP", 
		 "basiset": "6-31G**", 
		 "properties": { 
			 "R2extent": 7447.8902, 
			 "electric_dipole_moment_norm": 1.2380067205, 
			 "electric_quadrupole_moment_norm": 11.0409275063, 
			 "total_energy": -3389.76727743, 
			 "HOMO_LUMO_gap": 0.1594, 
			 "cosmo_polarized_energy": -9.79, 
			 "cosmo_cavitation_energy": 25.2, 
			 "cosmo_dispersion_energy": -19.59, 
			 "cosmo_repulsion_energy": 1.53, 
			 "cosmo_total_nonelectrostatic_energy": 7.15, 
			 "SMD_solvation_energy": 4.51 
		},
		"coords": [
			{
				"x": 1.7089203379,
				"y": -1.2723416269,
				"z": 0.1846278428,
				"element": "O" 
			},
			{
				"x": 1.5724761543,
				"y": 0.0765275836,
				"z": 0.3090878708,
				"element": "C" 
			},
			{
				"x": 2.5389104326,
				"y": 0.7834271247,
				"z": 0.526878343,
				"element": "O" 
			},
			{
				"x": 0.211995223,
				"y": 0.6191569787,
				"z": 0.1671173314,
				"element": "C" 
			},
			{
				"x": -1.0011720375,
				"y": 0.0665765085,
				"z": -0.070368215,
				"element": "C" 
			},
			{
				"x": -1.5270856074,
				"y": -1.2782013346,
				"z": -0.2913749258,
				"element": "C" 
			},
			{
				"x": -0.8731905768,
				"y": -2.494751985,
				"z": -0.3235129098,
				"element": "C" 
			},
			{
				"x": -1.9420948455,
				"y": -3.8139997864,
				"z": -0.6220748188,
				"element": "S" 
			},
			{
				"x": -3.3084480352,
				"y": -2.7369866453,
				"z": -0.710457248,
				"element": "C" 
			},
			{
				"x": -5.0420920412,
				"y": -3.3982804109,
				"z": -1.0380399151,
				"element": "Br" 
			},
			{
				"x": -2.9444455374,
				"y": -1.439975416,
				"z": -0.5187417646,
				"element": "C" 
			},
			{
				"x": 2.6584428713,
				"y": -1.4409464131,
				"z": 0.3060915757,
				"element": "H" 
			},
			{
				"x": 0.2343699133,
				"y": 1.6976288027,
				"z": 0.28568278,
				"element": "H" 
			},
			{
				"x": -1.7988488159,
				"y": 0.8081242625,
				"z": -0.1085638783,
				"element": "H" 
			},
			{
				"x": 0.1800621675,
				"y": -2.6736479973,
				"z": -0.1862449137,
				"element": "H" 
			},
			{
				"x": -3.6476996031,
				"y": -0.6161096452,
				"z": -0.5356071546,
				"element": "H" 
			}
		],
		 "valence_orbital": [ 
			{
				"type": "occ",
				"energy": -0.30691,
				"method": "rhf"
			},
			{
				"type": "occ",
				"energy": -0.30378,
				"method": "rhf"
			},
			{
				"type": "occ",
				"energy": -0.27896,
				"method": "rhf"
			},
			{
				"type": "occ",
				"energy": -0.25921,
				"method": "rhf"
			},
			{
				"type": "occ",
				"energy": -0.23372,
				"method": "rhf"
			},
			{
				"type": "unocc",
				"energy": -0.07432,
				"method": "rhf"
			},
			{
				"type": "unocc",
				"energy": -0.01917,
				"method": "rhf"
			},
			{
				"type": "unocc",
				"energy": -0.01092,
				"method": "rhf"
			},
			{
				"type": "unocc",
				"energy": 0.01077,
				"method": "rhf"
			},
			{
				"type": "unocc",
				"energy": 0.04857,
				"method": "rhf"
			}
		],
		"cosmo_sigma_profile": { 
			"-0.025": 0.0,
			"-0.024": 0.0,
			"-0.023": 0.0,
			"-0.022": 0.0,
			"-0.021": 0.0,
			"-0.02": 0.0,
			"-0.019": 0.0200279860818,
			"-0.018": 0.531241222988,
			"-0.017": 0.931023073999,
			"-0.016": 0.63958047528,
			"-0.015": 1.34758465771,
			"-0.014": 0.497012577373,
			"-0.013": 0.309194838455,
			"-0.012": 0.726262341431,
			"-0.011": 1.01242027279,
			"-0.01": 0.530312782622,
			"-0.009": 1.76263041533,
			"-0.008": 5.09080714883,
			"-0.007": 7.08797883314,
			"-0.006": 9.26325583521,
			"-0.005": 6.53797126407,
			"-0.004": 7.43974117476,
			"-0.003": 8.27667352021,
			"-0.002": 12.3288015315,
			"-0.001": 15.3644105519,
			"0.0": 20.4956366739,
			"0.001": 25.5487730998,
			"0.002": 31.7159872645,
			"0.003": 24.7177490618,
			"0.004": 7.35434785704,
			"0.005": 2.05678294837,
			"0.006": 1.28436810234,
			"0.007": 1.05556751001,
			"0.008": 1.53198287958,
			"0.009": 0.978013742925,
			"0.01": 1.83806631641,
			"0.011": 3.09798110905,
			"0.012": 5.17898260073,
			"0.013": 1.88252340302,
			"0.014": 0.0227466978741,
			"0.015": 0.0,
			"0.016": 0.0,
			"0.017": 0.0,
			"0.018": 0.0,
			"0.019": 0.0,
			"0.02": 0.0,
			"0.021": 0.0,
			"0.022": 0.0,
			"0.023": 0.0,
			"0.024": 0.0,
			"0.025": 0.0
		}
	}
}
