{
	 "smiles": "CCCC1=NC2=C(C=CC=C2)C(O)=C1", 
	 "Tm": 442.15, 
	 "num_atms": 27, 
	 "gaussian": { 
		 "optdone": 1, 
		 "sigma_profile": "yes", 
		 "theory": "DFT", 
		 "functional": "B3LYP", 
		 "basiset": "6-31G**", 
		 "properties": { 
			 "R2extent": 3406.1365, 
			 "electric_dipole_moment_norm": 2.14509966668, 
			 "electric_quadrupole_moment_norm": 9.22460000434, 
			 "total_energy": -595.107538898, 
			 "HOMO_LUMO_gap": 0.17537, 
			 "cosmo_polarized_energy": -10.86, 
			 "cosmo_cavitation_energy": 29.86, 
			 "cosmo_dispersion_energy": -21.77, 
			 "cosmo_repulsion_energy": 1.72, 
			 "cosmo_total_nonelectrostatic_energy": 9.81, 
			 "SMD_solvation_energy": 3.74 
		},
		"coords": [
			{
				"x": -2.7067038418,
				"y": 2.7262128011,
				"z": 2.0115471441,
				"element": "C" 
			},
			{
				"x": -1.2264612282,
				"y": 2.9711643294,
				"z": 2.3199622255,
				"element": "C" 
			},
			{
				"x": -0.5225890514,
				"y": 1.7665040769,
				"z": 2.9753132237,
				"element": "C" 
			},
			{
				"x": -0.3985522585,
				"y": 0.5708725758,
				"z": 2.0516217585,
				"element": "C" 
			},
			{
				"x": 0.3080357552,
				"y": 0.7500878075,
				"z": 0.9443768567,
				"element": "N" 
			},
			{
				"x": 0.442744335,
				"y": -0.3009133166,
				"z": 0.0902427195,
				"element": "C" 
			},
			{
				"x": -0.1369622036,
				"y": -1.5900054931,
				"z": 0.3259870707,
				"element": "C" 
			},
			{
				"x": 0.0630258075,
				"y": -2.625417385,
				"z": -0.6240306928,
				"element": "C" 
			},
			{
				"x": 0.804160281,
				"y": -2.4028868252,
				"z": -1.763543667,
				"element": "C" 
			},
			{
				"x": 1.3779953434,
				"y": -1.1304988271,
				"z": -2.0001825939,
				"element": "C" 
			},
			{
				"x": 1.2016288842,
				"y": -0.1078085389,
				"z": -1.0964431919,
				"element": "C" 
			},
			{
				"x": -0.8909525757,
				"y": -1.7365423339,
				"z": 1.5295584408,
				"element": "C" 
			},
			{
				"x": -1.4974971167,
				"y": -2.8994768931,
				"z": 1.8793206066,
				"element": "O" 
			},
			{
				"x": -1.016995266,
				"y": -0.6587297046,
				"z": 2.3816599545,
				"element": "C" 
			},
			{
				"x": -2.8368264119,
				"y": 1.8868701024,
				"z": 1.3203374447,
				"element": "H" 
			},
			{
				"x": -3.2709602969,
				"y": 2.4957802418,
				"z": 2.9230899696,
				"element": "H" 
			},
			{
				"x": -3.1648832338,
				"y": 3.6081603861,
				"z": 1.552028854,
				"element": "H" 
			},
			{
				"x": -1.128577642,
				"y": 3.8365858919,
				"z": 2.9871612677,
				"element": "H" 
			},
			{
				"x": -0.6882657259,
				"y": 3.2171290901,
				"z": 1.3981751444,
				"element": "H" 
			},
			{
				"x": -1.052024231,
				"y": 1.4748260835,
				"z": 3.8902059373,
				"element": "H" 
			},
			{
				"x": 0.4894892495,
				"y": 2.0686978279,
				"z": 3.2708320784,
				"element": "H" 
			},
			{
				"x": -0.3647751796,
				"y": -3.6145981896,
				"z": -0.4687558649,
				"element": "H" 
			},
			{
				"x": 0.9495714433,
				"y": -3.2037568798,
				"z": -2.4820949152,
				"element": "H" 
			},
			{
				"x": 1.9605978966,
				"y": -0.9656342303,
				"z": -2.9019310119,
				"element": "H" 
			},
			{
				"x": 1.6313079691,
				"y": 0.8760308298,
				"z": -1.2539596329,
				"element": "H" 
			},
			{
				"x": -1.3418921414,
				"y": -3.5706258055,
				"z": 1.2031234615,
				"element": "H" 
			},
			{
				"x": -1.5895385602,
				"y": -0.7681276215,
				"z": 3.2959974122,
				"element": "H" 
			}
		],
		 "valence_orbital": [ 
			{
				"type": "occ",
				"energy": -0.31988,
				"method": "rhf"
			},
			{
				"type": "occ",
				"energy": -0.27678,
				"method": "rhf"
			},
			{
				"type": "occ",
				"energy": -0.24788,
				"method": "rhf"
			},
			{
				"type": "occ",
				"energy": -0.24587,
				"method": "rhf"
			},
			{
				"type": "occ",
				"energy": -0.21993,
				"method": "rhf"
			},
			{
				"type": "unocc",
				"energy": -0.04456,
				"method": "rhf"
			},
			{
				"type": "unocc",
				"energy": -0.01279,
				"method": "rhf"
			},
			{
				"type": "unocc",
				"energy": 0.02827,
				"method": "rhf"
			},
			{
				"type": "unocc",
				"energy": 0.05065,
				"method": "rhf"
			},
			{
				"type": "unocc",
				"energy": 0.09128,
				"method": "rhf"
			}
		],
		"cosmo_sigma_profile": { 
			"-0.025": 0.0,
			"-0.024": 0.0,
			"-0.023": 0.0,
			"-0.022": 0.0,
			"-0.021": 0.0,
			"-0.02": 0.0,
			"-0.019": 0.215481875328,
			"-0.018": 0.836652912522,
			"-0.017": 0.857648872462,
			"-0.016": 0.87458056503,
			"-0.015": 1.33388826232,
			"-0.014": 0.481634651779,
			"-0.013": 0.908385324817,
			"-0.012": 1.01172711779,
			"-0.011": 1.55811029047,
			"-0.01": 1.14419753353,
			"-0.009": 0.600751950749,
			"-0.008": 0.975479183225,
			"-0.007": 2.3549097112,
			"-0.006": 7.46142304318,
			"-0.005": 10.774288167,
			"-0.004": 11.7436732552,
			"-0.003": 14.4453034321,
			"-0.002": 20.4462530879,
			"-0.001": 21.9586763837,
			"0.0": 26.6150189274,
			"0.001": 26.33850347,
			"0.002": 22.3551396608,
			"0.003": 17.7322579602,
			"0.004": 15.2673165373,
			"0.005": 8.18475533949,
			"0.006": 3.90568146145,
			"0.007": 2.47892762142,
			"0.008": 2.8808563125,
			"0.009": 3.17928181555,
			"0.01": 3.33048431395,
			"0.011": 1.19584046926,
			"0.012": 0.481077594391,
			"0.013": 1.37274839006,
			"0.014": 0.422824968918,
			"0.015": 0.455951806976,
			"0.016": 0.374937227024,
			"0.017": 0.0,
			"0.018": 0.0,
			"0.019": 0.0,
			"0.02": 0.0,
			"0.021": 0.0,
			"0.022": 0.0,
			"0.023": 0.0,
			"0.024": 0.0,
			"0.025": 0.0
		}
	}
}
