{
	 "smiles": "CC(Br)C1=CC=C(C=C1)C(O)=O", 
	 "Tm": 428.65, 
	 "num_atms": 21, 
	 "gaussian": { 
		 "optdone": 1, 
		 "sigma_profile": "yes", 
		 "theory": "DFT", 
		 "functional": "B3LYP", 
		 "basiset": "6-31G**", 
		 "properties": { 
			 "R2extent": 4751.2438, 
			 "electric_dipole_moment_norm": 4.17644034795, 
			 "electric_quadrupole_moment_norm": 17.9619355302, 
			 "total_energy": -3070.25335267, 
			 "HOMO_LUMO_gap": 0.19637, 
			 "cosmo_polarized_energy": -16.15, 
			 "cosmo_cavitation_energy": 27.44, 
			 "cosmo_dispersion_energy": -20.11, 
			 "cosmo_repulsion_energy": 1.61, 
			 "cosmo_total_nonelectrostatic_energy": 8.94, 
			 "SMD_solvation_energy": 4.69 
		},
		"coords": [
			{
				"x": -1.9931101039,
				"y": 0.4136283221,
				"z": -2.8589460238,
				"element": "C" 
			},
			{
				"x": -0.8694306411,
				"y": -0.5155159013,
				"z": -2.4158723711,
				"element": "C" 
			},
			{
				"x": 0.2677199851,
				"y": -0.9648170756,
				"z": -4.0209648127,
				"element": "Br" 
			},
			{
				"x": 0.0042002193,
				"y": 0.020891147,
				"z": -1.3129513119,
				"element": "C" 
			},
			{
				"x": 0.1629678062,
				"y": -0.7187816749,
				"z": -0.1353248379,
				"element": "C" 
			},
			{
				"x": 0.9359314874,
				"y": -0.228123574,
				"z": 0.9165187601,
				"element": "C" 
			},
			{
				"x": 1.5671092284,
				"y": 1.016814412,
				"z": 0.8084468267,
				"element": "C" 
			},
			{
				"x": 1.3962554899,
				"y": 1.7678976001,
				"z": -0.3643012076,
				"element": "C" 
			},
			{
				"x": 0.6348917372,
				"y": 1.2717330309,
				"z": -1.4138402338,
				"element": "C" 
			},
			{
				"x": 2.3955378687,
				"y": 1.6145084488,
				"z": 1.9061539612,
				"element": "C" 
			},
			{
				"x": 2.9085088252,
				"y": 0.7524327856,
				"z": 2.8248312244,
				"element": "O" 
			},
			{
				"x": 2.6144718841,
				"y": 2.7990827277,
				"z": 1.9999967125,
				"element": "O" 
			},
			{
				"x": -1.6067760439,
				"y": 1.3653149218,
				"z": -3.2310361099,
				"element": "H" 
			},
			{
				"x": -2.646989309,
				"y": 0.6204101711,
				"z": -2.003541671,
				"element": "H" 
			},
			{
				"x": -2.5870985874,
				"y": -0.0483248586,
				"z": -3.6505056272,
				"element": "H" 
			},
			{
				"x": -1.2685774913,
				"y": -1.4890444078,
				"z": -2.1315692403,
				"element": "H" 
			},
			{
				"x": -0.327490858,
				"y": -1.6832224784,
				"z": -0.0354254619,
				"element": "H" 
			},
			{
				"x": 1.0050388627,
				"y": -0.8118106652,
				"z": 1.8313421269,
				"element": "H" 
			},
			{
				"x": 1.8759857481,
				"y": 2.7384114442,
				"z": -0.4298941604,
				"element": "H" 
			},
			{
				"x": 0.5389731966,
				"y": 1.8502596925,
				"z": -2.3273556431,
				"element": "H" 
			},
			{
				"x": 2.7968806956,
				"y": -0.1604440679,
				"z": 2.5255391008,
				"element": "H" 
			}
		],
		 "valence_orbital": [ 
			{
				"type": "occ",
				"energy": -0.28823,
				"method": "rhf"
			},
			{
				"type": "occ",
				"energy": -0.28099,
				"method": "rhf"
			},
			{
				"type": "occ",
				"energy": -0.27883,
				"method": "rhf"
			},
			{
				"type": "occ",
				"energy": -0.27346,
				"method": "rhf"
			},
			{
				"type": "occ",
				"energy": -0.26294,
				"method": "rhf"
			},
			{
				"type": "unocc",
				"energy": -0.06657,
				"method": "rhf"
			},
			{
				"type": "unocc",
				"energy": -0.02897,
				"method": "rhf"
			},
			{
				"type": "unocc",
				"energy": -0.00796,
				"method": "rhf"
			},
			{
				"type": "unocc",
				"energy": 0.04867,
				"method": "rhf"
			},
			{
				"type": "unocc",
				"energy": 0.05703,
				"method": "rhf"
			}
		],
		"cosmo_sigma_profile": { 
			"-0.025": 0.0,
			"-0.024": 0.0,
			"-0.023": 0.0,
			"-0.022": 0.0,
			"-0.021": 0.0,
			"-0.02": 0.0,
			"-0.019": 0.277735564565,
			"-0.018": 0.816652881907,
			"-0.017": 1.043190089,
			"-0.016": 1.06352833591,
			"-0.015": 0.711715266026,
			"-0.014": 0.93205922197,
			"-0.013": 1.28001941308,
			"-0.012": 1.29525993119,
			"-0.011": 1.18954841335,
			"-0.01": 0.810368046327,
			"-0.009": 1.66773695263,
			"-0.008": 4.9138226826,
			"-0.007": 8.75526152335,
			"-0.006": 10.8594188438,
			"-0.005": 13.5942187076,
			"-0.004": 13.1141329688,
			"-0.003": 14.766841179,
			"-0.002": 13.8002445293,
			"-0.001": 16.0936313323,
			"0.0": 13.5155865316,
			"0.001": 10.5698161047,
			"0.002": 15.8347352626,
			"0.003": 16.8689453932,
			"0.004": 7.90748950674,
			"0.005": 10.2379748425,
			"0.006": 12.6973626113,
			"0.007": 4.0409115234,
			"0.008": 3.03289386245,
			"0.009": 3.53481796856,
			"0.01": 4.97576935429,
			"0.011": 4.98239846893,
			"0.012": 4.7346040927,
			"0.013": 1.49561648918,
			"0.014": 0.0436291373087,
			"0.015": 0.0,
			"0.016": 0.0,
			"0.017": 0.0,
			"0.018": 0.0,
			"0.019": 0.0,
			"0.02": 0.0,
			"0.021": 0.0,
			"0.022": 0.0,
			"0.023": 0.0,
			"0.024": 0.0,
			"0.025": 0.0
		}
	}
}
