{
	 "smiles": "CC1=CC(Br)=C(I)C(Br)=C1", 
	 "Tm": 343.65, 
	 "num_atms": 15, 
	 "gaussian": { 
		 "optdone": 1, 
		 "sigma_profile": "no", 
		 "theory": "DFT", 
		 "functional": "B3LYP", 
		 "basiset": "6-31G**", 
		 "properties": { 
			 "R2extent": 6858.1774, 
			 "electric_dipole_moment_norm": 2.87130990839, 
			 "electric_quadrupole_moment_norm": 3.57751131934, 
			 "total_energy": -5423.94727267, 
			 "HOMO_LUMO_gap": 0.18296, 
			 "cosmo_polarized_energy": -81675.96, 
			 "cosmo_cavitation_energy": 26.34, 
			 "cosmo_dispersion_energy": -21.42, 
			 "cosmo_repulsion_energy": 1.69, 
			 "cosmo_total_nonelectrostatic_energy": 6.61, 
			 "SMD_solvation_energy": 1.67 
		},
		"coords": [
			{
				"x": 0.4607672092,
				"y": -0.1713606834,
				"z": 1.1466509182,
				"element": "C" 
			},
			{
				"x": -0.449614923,
				"y": 0.5642413695,
				"z": 0.1933016016,
				"element": "C" 
			},
			{
				"x": -0.9404224938,
				"y": 1.833912157,
				"z": 0.5051142719,
				"element": "C" 
			},
			{
				"x": -1.7575041662,
				"y": 2.5274760493,
				"z": -0.3872405201,
				"element": "C" 
			},
			{
				"x": -2.3513840959,
				"y": 4.250535859,
				"z": 0.1748965241,
				"element": "Br" 
			},
			{
				"x": -2.1189198233,
				"y": 1.9751203934,
				"z": -1.6285552899,
				"element": "C" 
			},
			{
				"x": -3.3559671163,
				"y": 3.0188782044,
				"z": -2.9765414762,
				"element": "I" 
			},
			{
				"x": -1.6221775429,
				"y": 0.6949980305,
				"z": -1.9303595723,
				"element": "C" 
			},
			{
				"x": -2.022973927,
				"y": -0.195230515,
				"z": -3.5687661139,
				"element": "Br" 
			},
			{
				"x": -0.805299827,
				"y": 0.0043239238,
				"z": -1.0355743103,
				"element": "C" 
			},
			{
				"x": 0.2511100042,
				"y": 0.0984366288,
				"z": 2.1854022419,
				"element": "H" 
			},
			{
				"x": 0.3512597668,
				"y": -1.2546728138,
				"z": 1.045678851,
				"element": "H" 
			},
			{
				"x": 1.5118521766,
				"y": 0.0722775903,
				"z": 0.9497652819,
				"element": "H" 
			},
			{
				"x": -0.6898155519,
				"y": 2.2973195774,
				"z": 1.45273968,
				"element": "H" 
			},
			{
				"x": -0.4476096894,
				"y": -0.9820557711,
				"z": -1.3088120878,
				"element": "H" 
			}
		],
		 "valence_orbital": [ 
			{
				"type": "occ",
				"energy": -0.29988,
				"method": "rhf"
			},
			{
				"type": "occ",
				"energy": -0.29159,
				"method": "rhf"
			},
			{
				"type": "occ",
				"energy": -0.25361,
				"method": "rhf"
			},
			{
				"type": "occ",
				"energy": -0.25078,
				"method": "rhf"
			},
			{
				"type": "occ",
				"energy": -0.24442,
				"method": "rhf"
			},
			{
				"type": "unocc",
				"energy": -0.06146,
				"method": "rhf"
			},
			{
				"type": "unocc",
				"energy": -0.03309,
				"method": "rhf"
			},
			{
				"type": "unocc",
				"energy": -0.0326,
				"method": "rhf"
			},
			{
				"type": "unocc",
				"energy": 0.0058,
				"method": "rhf"
			},
			{
				"type": "unocc",
				"energy": 0.01769,
				"method": "rhf"
			}
		],
		"cosmo_sigma_profile": { 
			"0.0": 0.0,
			"0.0": 0.0,
			"0.0": 0.0,
			"0.0": 0.0,
			"0.0": 0.0,
			"0.0": 0.0,
			"0.0": 0.0,
			"0.0": 0.0,
			"0.0": 0.0,
			"0.0": 0.0,
			"0.0": 0.0,
			"0.0": 0.0,
			"0.0": 0.0,
			"0.0": 0.0,
			"0.0": 0.0,
			"0.0": 0.0,
			"0.0": 0.0,
			"0.0": 0.0,
			"0.0": 0.0,
			"0.0": 0.0,
			"0.0": 0.0,
			"0.0": 0.0,
			"0.0": 0.0,
			"0.0": 0.0,
			"0.0": 0.0,
			"0.0": 0.0,
			"0.0": 0.0,
			"0.0": 0.0,
			"0.0": 0.0,
			"0.0": 0.0,
			"0.0": 0.0,
			"0.0": 0.0,
			"0.0": 0.0,
			"0.0": 0.0,
			"0.0": 0.0,
			"0.0": 0.0,
			"0.0": 0.0,
			"0.0": 0.0,
			"0.0": 0.0,
			"0.0": 0.0,
			"0.0": 0.0,
			"0.0": 0.0,
			"0.0": 0.0,
			"0.0": 0.0,
			"0.0": 0.0,
			"0.0": 0.0,
			"0.0": 0.0,
			"0.0": 0.0,
			"0.0": 0.0,
			"0.0": 0.0,
			"0.0": 0.0
		}
	}
}
