{
	 "smiles": "OCC=CCO", 
	 "Tm": 278.65, 
	 "num_atms": 14, 
	 "gaussian": { 
		 "optdone": 1, 
		 "sigma_profile": "yes", 
		 "theory": "DFT", 
		 "functional": "B3LYP", 
		 "basiset": "6-31G**", 
		 "properties": { 
			 "R2extent": 803.366, 
			 "electric_dipole_moment_norm": 2.08284363551, 
			 "electric_quadrupole_moment_norm": 6.62933413248, 
			 "total_energy": -307.643484764, 
			 "HOMO_LUMO_gap": 0.25097, 
			 "cosmo_polarized_energy": -9.94, 
			 "cosmo_cavitation_energy": 17.27, 
			 "cosmo_dispersion_energy": -12.85, 
			 "cosmo_repulsion_energy": 1.15, 
			 "cosmo_total_nonelectrostatic_energy": 5.57, 
			 "SMD_solvation_energy": 3.39 
		},
		"coords": [
			{
				"x": 2.4373904471,
				"y": -0.557162732,
				"z": 0.0330545173,
				"element": "O" 
			},
			{
				"x": 1.1350373203,
				"y": -1.018502081,
				"z": -0.3287009901,
				"element": "C" 
			},
			{
				"x": 0.2180110644,
				"y": 0.1423112385,
				"z": -0.6271273952,
				"element": "C" 
			},
			{
				"x": -1.0512532521,
				"y": 0.33874809,
				"z": -0.2480638682,
				"element": "C" 
			},
			{
				"x": -1.9589253394,
				"y": -0.5643342082,
				"z": 0.5541502747,
				"element": "C" 
			},
			{
				"x": -1.6178387401,
				"y": -1.9441446746,
				"z": 0.5639150911,
				"element": "O" 
			},
			{
				"x": 2.3419696756,
				"y": -0.0501058908,
				"z": 0.8498700711,
				"element": "H" 
			},
			{
				"x": 1.2917983501,
				"y": -1.6161307302,
				"z": -1.2361845103,
				"element": "H" 
			},
			{
				"x": 0.7054312473,
				"y": -1.6783375506,
				"z": 0.4318540458,
				"element": "H" 
			},
			{
				"x": 0.6971905165,
				"y": 0.9224857816,
				"z": -1.2191819697,
				"element": "H" 
			},
			{
				"x": -1.5243857165,
				"y": 1.2756859109,
				"z": -0.5445313963,
				"element": "H" 
			},
			{
				"x": -1.9541055263,
				"y": -0.2552502613,
				"z": 1.6081226138,
				"element": "H" 
			},
			{
				"x": -2.9939345825,
				"y": -0.4179667618,
				"z": 0.2026564273,
				"element": "H" 
			},
			{
				"x": -1.6235854643,
				"y": -2.2477961306,
				"z": -0.3536329111,
				"element": "H" 
			}
		],
		 "valence_orbital": [ 
			{
				"type": "occ",
				"energy": -0.3399,
				"method": "rhf"
			},
			{
				"type": "occ",
				"energy": -0.32222,
				"method": "rhf"
			},
			{
				"type": "occ",
				"energy": -0.28408,
				"method": "rhf"
			},
			{
				"type": "occ",
				"energy": -0.27115,
				"method": "rhf"
			},
			{
				"type": "occ",
				"energy": -0.24496,
				"method": "rhf"
			},
			{
				"type": "unocc",
				"energy": 0.00601,
				"method": "rhf"
			},
			{
				"type": "unocc",
				"energy": 0.07306,
				"method": "rhf"
			},
			{
				"type": "unocc",
				"energy": 0.09864,
				"method": "rhf"
			},
			{
				"type": "unocc",
				"energy": 0.11348,
				"method": "rhf"
			},
			{
				"type": "unocc",
				"energy": 0.13949,
				"method": "rhf"
			}
		],
		"cosmo_sigma_profile": { 
			"-0.025": 0.0,
			"-0.024": 0.0,
			"-0.023": 0.0,
			"-0.022": 0.0,
			"-0.021": 0.0,
			"-0.02": 0.0,
			"-0.019": 0.0,
			"-0.018": 0.0,
			"-0.017": 0.0,
			"-0.016": 0.0822249027572,
			"-0.015": 1.29321281916,
			"-0.014": 1.79713474134,
			"-0.013": 1.91117034706,
			"-0.012": 1.37156748182,
			"-0.011": 1.50732389632,
			"-0.01": 1.68729287641,
			"-0.009": 1.96079890771,
			"-0.008": 1.50775315753,
			"-0.007": 2.01771339283,
			"-0.006": 2.13380668886,
			"-0.005": 7.08855562002,
			"-0.004": 14.9666143385,
			"-0.003": 13.0221066321,
			"-0.002": 11.0488091612,
			"-0.001": 9.73903463604,
			"0.0": 9.73522068002,
			"0.001": 6.5665220711,
			"0.002": 4.97897233037,
			"0.003": 4.59504607985,
			"0.004": 5.53792935289,
			"0.005": 3.57907785796,
			"0.006": 4.16564730908,
			"0.007": 2.60384919454,
			"0.008": 1.77288281873,
			"0.009": 2.03487617709,
			"0.01": 2.53149911813,
			"0.011": 2.16523313402,
			"0.012": 2.94424273467,
			"0.013": 2.81102588591,
			"0.014": 3.99332912488,
			"0.015": 1.3067027911,
			"0.016": 0.0,
			"0.017": 0.0,
			"0.018": 0.0,
			"0.019": 0.0,
			"0.02": 0.0,
			"0.021": 0.0,
			"0.022": 0.0,
			"0.023": 0.0,
			"0.024": 0.0,
			"0.025": 0.0
		}
	}
}
