{
	 "smiles": "C[Si](C)(C)O[Si](C)(C)O[Si](C)(C)O[Si](C)(C)O[Si](C)(C)O[Si](C)(C)C", 
	 "Tm": 214.15, 
	 "num_atms": 67, 
	 "gaussian": { 
		 "optdone": 1, 
		 "sigma_profile": "yes", 
		 "theory": "DFT", 
		 "functional": "B3LYP", 
		 "basiset": "6-31G**", 
		 "properties": { 
			 "R2extent": 16192.7322, 
			 "electric_dipole_moment_norm": 2.23130914263, 
			 "electric_quadrupole_moment_norm": 4.07362845876, 
			 "total_energy": -2672.59393853, 
			 "HOMO_LUMO_gap": 0.29852, 
			 "cosmo_polarized_energy": -7.29, 
			 "cosmo_cavitation_energy": 79.52, 
			 "cosmo_dispersion_energy": -33.22, 
			 "cosmo_repulsion_energy": 3.04, 
			 "cosmo_total_nonelectrostatic_energy": 49.34, 
			 "SMD_solvation_energy": 18.68 
		},
		"coords": [
			{
				"x": 2.9616379465,
				"y": 1.8407756917,
				"z": -0.3652082849,
				"element": "C" 
			},
			{
				"x": 2.2750754722,
				"y": 3.5565636313,
				"z": -0.7454987017,
				"element": "Si" 
			},
			{
				"x": 1.1840481504,
				"y": 3.4961721751,
				"z": -2.2810744983,
				"element": "C" 
			},
			{
				"x": 3.6850779836,
				"y": 4.7824747079,
				"z": -0.9883305434,
				"element": "C" 
			},
			{
				"x": 1.3762046984,
				"y": 4.0962861571,
				"z": 0.5479832213,
				"element": "O" 
			},
			{
				"x": 0.190434599,
				"y": 3.9692632588,
				"z": 1.6874163033,
				"element": "Si" 
			},
			{
				"x": 0.0242486649,
				"y": 5.6346725808,
				"z": 2.5278182917,
				"element": "C" 
			},
			{
				"x": 0.615484962,
				"y": 2.5893161413,
				"z": 2.8872630716,
				"element": "C" 
			},
			{
				"x": -1.2658004501,
				"y": 3.629197015,
				"z": 0.9740863837,
				"element": "O" 
			},
			{
				"x": -2.3404694911,
				"y": 2.6666791354,
				"z": 0.1750782502,
				"element": "Si" 
			},
			{
				"x": -3.0656732949,
				"y": 3.6435188298,
				"z": -1.2489734525,
				"element": "C" 
			},
			{
				"x": -3.654127543,
				"y": 2.1054249099,
				"z": 1.3942213895,
				"element": "C" 
			},
			{
				"x": -1.5566062989,
				"y": 1.3523947131,
				"z": -0.4647827553,
				"element": "O" 
			},
			{
				"x": -1.1865488435,
				"y": -0.256942908,
				"z": -0.5174343225,
				"element": "Si" 
			},
			{
				"x": -0.2583831026,
				"y": -0.5775420434,
				"z": -2.112796084,
				"element": "C" 
			},
			{
				"x": -2.7552486637,
				"y": -1.2841386841,
				"z": -0.4019092903,
				"element": "C" 
			},
			{
				"x": -0.196424583,
				"y": -0.5920050225,
				"z": 0.7752166628,
				"element": "O" 
			},
			{
				"x": 0.3635072763,
				"y": -1.8163281709,
				"z": 1.7443411532,
				"element": "Si" 
			},
			{
				"x": -0.7771997255,
				"y": -2.0009154044,
				"z": 3.2226347666,
				"element": "C" 
			},
			{
				"x": 2.1152050859,
				"y": -1.3845643474,
				"z": 2.2560750995,
				"element": "C" 
			},
			{
				"x": 0.3401046273,
				"y": -3.2230648041,
				"z": 0.876280945,
				"element": "O" 
			},
			{
				"x": 0.9236411095,
				"y": -4.7019166028,
				"z": 0.382207808,
				"element": "Si" 
			},
			{
				"x": 2.41107501,
				"y": -4.437036559,
				"z": -0.7456709107,
				"element": "C" 
			},
			{
				"x": 1.4280215646,
				"y": -5.7156931256,
				"z": 1.8911341259,
				"element": "C" 
			},
			{
				"x": -0.4642413875,
				"y": -5.5660992318,
				"z": -0.5523942479,
				"element": "C" 
			},
			{
				"x": 3.5471036305,
				"y": 1.4533941461,
				"z": -1.2074886634,
				"element": "H" 
			},
			{
				"x": 3.6182740798,
				"y": 1.8633017323,
				"z": 0.5115590331,
				"element": "H" 
			},
			{
				"x": 2.1566952419,
				"y": 1.1271737649,
				"z": -0.158773836,
				"element": "H" 
			},
			{
				"x": 0.7697913635,
				"y": 4.4847308163,
				"z": -2.5079589175,
				"element": "H" 
			},
			{
				"x": 1.7490782653,
				"y": 3.1626777891,
				"z": -3.1594015834,
				"element": "H" 
			},
			{
				"x": 0.3465757952,
				"y": 2.8055609749,
				"z": -2.1370743812,
				"element": "H" 
			},
			{
				"x": 4.315741938,
				"y": 4.8416996851,
				"z": -0.094749586,
				"element": "H" 
			},
			{
				"x": 3.3019381809,
				"y": 5.7881993348,
				"z": -1.1916133184,
				"element": "H" 
			},
			{
				"x": 4.3246795812,
				"y": 4.4920860716,
				"z": -1.8298579889,
				"element": "H" 
			},
			{
				"x": 0.9620848069,
				"y": 5.9285397596,
				"z": 3.0109963449,
				"element": "H" 
			},
			{
				"x": -0.7602049718,
				"y": 5.6170666468,
				"z": 3.2918802079,
				"element": "H" 
			},
			{
				"x": -0.2340385967,
				"y": 6.408989959,
				"z": 1.7982676432,
				"element": "H" 
			},
			{
				"x": 0.622487535,
				"y": 1.6281671366,
				"z": 2.362663904,
				"element": "H" 
			},
			{
				"x": 1.6009390152,
				"y": 2.740613057,
				"z": 3.3408875872,
				"element": "H" 
			},
			{
				"x": -0.1218467725,
				"y": 2.5266407643,
				"z": 3.6954226803,
				"element": "H" 
			},
			{
				"x": -3.8020632497,
				"y": 3.0516265117,
				"z": -1.8033725754,
				"element": "H" 
			},
			{
				"x": -3.5612244247,
				"y": 4.5528000897,
				"z": -0.8927364662,
				"element": "H" 
			},
			{
				"x": -2.2788538013,
				"y": 3.9420650319,
				"z": -1.9490516151,
				"element": "H" 
			},
			{
				"x": -4.4123906028,
				"y": 1.4802159367,
				"z": 0.9103270534,
				"element": "H" 
			},
			{
				"x": -4.1646395408,
				"y": 2.9662385696,
				"z": 1.8394173617,
				"element": "H" 
			},
			{
				"x": -3.2102252425,
				"y": 1.5253042658,
				"z": 2.2104153583,
				"element": "H" 
			},
			{
				"x": 0.0320806407,
				"y": -1.6308538419,
				"z": -2.1901118664,
				"element": "H" 
			},
			{
				"x": -0.8720182537,
				"y": -0.3304413795,
				"z": -2.9856898477,
				"element": "H" 
			},
			{
				"x": 0.6528095194,
				"y": 0.0268627193,
				"z": -2.1614147667,
				"element": "H" 
			},
			{
				"x": -3.4316436177,
				"y": -1.0712094595,
				"z": -1.2370113877,
				"element": "H" 
			},
			{
				"x": -2.5214916385,
				"y": -2.3540752342,
				"z": -0.4233067757,
				"element": "H" 
			},
			{
				"x": -3.2971291133,
				"y": -1.0793254747,
				"z": 0.527492893,
				"element": "H" 
			},
			{
				"x": -0.8421390405,
				"y": -1.0667481398,
				"z": 3.7906478237,
				"element": "H" 
			},
			{
				"x": -1.7888175686,
				"y": -2.2713546066,
				"z": 2.9022149855,
				"element": "H" 
			},
			{
				"x": -0.4228801899,
				"y": -2.7837724453,
				"z": 3.902264545,
				"element": "H" 
			},
			{
				"x": 2.13928156,
				"y": -0.4448363779,
				"z": 2.8177377183,
				"element": "H" 
			},
			{
				"x": 2.5494599068,
				"y": -2.1648509931,
				"z": 2.8911080312,
				"element": "H" 
			},
			{
				"x": 2.7602833243,
				"y": -1.2626288931,
				"z": 1.3798108411,
				"element": "H" 
			},
			{
				"x": 2.803257882,
				"y": -5.391030458,
				"z": -1.1167010911,
				"element": "H" 
			},
			{
				"x": 2.1452565916,
				"y": -3.8261581463,
				"z": -1.615242863,
				"element": "H" 
			},
			{
				"x": 3.2250108625,
				"y": -3.9272460609,
				"z": -0.2186579831,
				"element": "H" 
			},
			{
				"x": 0.5829881627,
				"y": -5.861875485,
				"z": 2.5727447058,
				"element": "H" 
			},
			{
				"x": 1.7922829835,
				"y": -6.7069827005,
				"z": 1.5975460593,
				"element": "H" 
			},
			{
				"x": 2.2296729082,
				"y": -5.2246949861,
				"z": 2.4540896263,
				"element": "H" 
			},
			{
				"x": -0.7804358331,
				"y": -4.979668852,
				"z": -1.4219040442,
				"element": "H" 
			},
			{
				"x": -0.1485174423,
				"y": -6.5517031267,
				"z": -0.9132278128,
				"element": "H" 
			},
			{
				"x": -1.3410576413,
				"y": -5.7108901454,
				"z": 0.0878685862,
				"element": "H" 
			}
		],
		 "valence_orbital": [ 
			{
				"type": "occ",
				"energy": -0.2783,
				"method": "rhf"
			},
			{
				"type": "occ",
				"energy": -0.27487,
				"method": "rhf"
			},
			{
				"type": "occ",
				"energy": -0.26789,
				"method": "rhf"
			},
			{
				"type": "occ",
				"energy": -0.2652,
				"method": "rhf"
			},
			{
				"type": "occ",
				"energy": -0.25957,
				"method": "rhf"
			},
			{
				"type": "unocc",
				"energy": 0.03895,
				"method": "rhf"
			},
			{
				"type": "unocc",
				"energy": 0.06126,
				"method": "rhf"
			},
			{
				"type": "unocc",
				"energy": 0.0692,
				"method": "rhf"
			},
			{
				"type": "unocc",
				"energy": 0.07476,
				"method": "rhf"
			},
			{
				"type": "unocc",
				"energy": 0.0758,
				"method": "rhf"
			}
		],
		"cosmo_sigma_profile": { 
			"-0.025": 0.0,
			"-0.024": 0.0,
			"-0.023": 0.0,
			"-0.022": 0.0,
			"-0.021": 0.0,
			"-0.02": 0.0,
			"-0.019": 0.0,
			"-0.018": 0.0,
			"-0.017": 0.0,
			"-0.016": 0.0,
			"-0.015": 0.0,
			"-0.014": 0.0,
			"-0.013": 0.0,
			"-0.012": 0.0,
			"-0.011": 0.0,
			"-0.01": 0.0,
			"-0.009": 0.0,
			"-0.008": 0.0,
			"-0.007": 0.0,
			"-0.006": 0.0,
			"-0.005": 0.0919878417724,
			"-0.004": 22.2009702301,
			"-0.003": 63.4225855101,
			"-0.002": 79.9312547766,
			"-0.001": 95.0026367025,
			"0.0": 86.2659579622,
			"0.001": 102.571820501,
			"0.002": 62.4297019883,
			"0.003": 36.3810032581,
			"0.004": 13.7238995786,
			"0.005": 8.92050782376,
			"0.006": 5.24429533684,
			"0.007": 3.49597339892,
			"0.008": 2.70069415656,
			"0.009": 1.41532568952,
			"0.01": 0.585308849295,
			"0.011": 0.0,
			"0.012": 0.0,
			"0.013": 0.0,
			"0.014": 0.0,
			"0.015": 0.0,
			"0.016": 0.0,
			"0.017": 0.0,
			"0.018": 0.0,
			"0.019": 0.0,
			"0.02": 0.0,
			"0.021": 0.0,
			"0.022": 0.0,
			"0.023": 0.0,
			"0.024": 0.0,
			"0.025": 0.0
		}
	}
}
