{
	 "smiles": "SC1=C(C#N)C2=C(CCCC2)C(CCC2=CC=CC=C2)=N1", 
	 "Tm": 498.15, 
	 "num_atms": 39, 
	 "gaussian": { 
		 "optdone": 1, 
		 "sigma_profile": "yes", 
		 "theory": "DFT", 
		 "functional": "B3LYP", 
		 "basiset": "6-31G**", 
		 "properties": { 
			 "R2extent": 7650.5576, 
			 "electric_dipole_moment_norm": 5.63972479825, 
			 "electric_quadrupole_moment_norm": 30.6240843066, 
			 "total_energy": -1204.46645274, 
			 "HOMO_LUMO_gap": 0.17418, 
			 "cosmo_polarized_energy": -12.06, 
			 "cosmo_cavitation_energy": 43.0, 
			 "cosmo_dispersion_energy": -28.73, 
			 "cosmo_repulsion_energy": 2.19, 
			 "cosmo_total_nonelectrostatic_energy": 16.45, 
			 "SMD_solvation_energy": 5.56 
		},
		"coords": [
			{
				"x": 1.5984164182,
				"y": 4.6019406862,
				"z": -2.5215983934,
				"element": "S" 
			},
			{
				"x": 1.1238576039,
				"y": 3.352401517,
				"z": -1.341664805,
				"element": "C" 
			},
			{
				"x": -0.0674338252,
				"y": 3.4985958183,
				"z": -0.60135059,
				"element": "C" 
			},
			{
				"x": -0.908055725,
				"y": 4.6379494024,
				"z": -0.7957413071,
				"element": "C" 
			},
			{
				"x": -1.594709496,
				"y": 5.5652104635,
				"z": -0.9529041474,
				"element": "N" 
			},
			{
				"x": -0.4152887756,
				"y": 2.5014368042,
				"z": 0.334619011,
				"element": "C" 
			},
			{
				"x": 0.4458347303,
				"y": 1.4038252092,
				"z": 0.5021602709,
				"element": "C" 
			},
			{
				"x": 0.1276307594,
				"y": 0.3036173256,
				"z": 1.5037193986,
				"element": "C" 
			},
			{
				"x": -0.9779505549,
				"y": 0.6753579115,
				"z": 2.5008651059,
				"element": "C" 
			},
			{
				"x": -2.1539602641,
				"y": 1.3371934756,
				"z": 1.7814569442,
				"element": "C" 
			},
			{
				"x": -1.6969348282,
				"y": 2.6461881172,
				"z": 1.1309446542,
				"element": "C" 
			},
			{
				"x": 1.5991239329,
				"y": 1.3434412332,
				"z": -0.3094256497,
				"element": "C" 
			},
			{
				"x": 2.5775177351,
				"y": 0.1873128041,
				"z": -0.2891626219,
				"element": "C" 
			},
			{
				"x": 2.4944149714,
				"y": -0.6883505091,
				"z": -1.5692262198,
				"element": "C" 
			},
			{
				"x": 1.1951438436,
				"y": -1.4533839444,
				"z": -1.7064443322,
				"element": "C" 
			},
			{
				"x": 0.1288447732,
				"y": -0.9392424717,
				"z": -2.4573067836,
				"element": "C" 
			},
			{
				"x": -1.0795369393,
				"y": -1.6321573231,
				"z": -2.5551885091,
				"element": "C" 
			},
			{
				"x": -1.2415910086,
				"y": -2.8556443041,
				"z": -1.9031061495,
				"element": "C" 
			},
			{
				"x": -0.1857749811,
				"y": -3.3827890441,
				"z": -1.1557813773,
				"element": "C" 
			},
			{
				"x": 1.0198157603,
				"y": -2.6864739576,
				"z": -1.0606283063,
				"element": "C" 
			},
			{
				"x": 1.9198800913,
				"y": 2.2996901765,
				"z": -1.1977109444,
				"element": "N" 
			},
			{
				"x": 2.7216047846,
				"y": 3.9493299234,
				"z": -2.8759240021,
				"element": "H" 
			},
			{
				"x": -0.1657537018,
				"y": -0.5998150487,
				"z": 0.9526092828,
				"element": "H" 
			},
			{
				"x": 1.0348179239,
				"y": 0.0353689231,
				"z": 2.0559673314,
				"element": "H" 
			},
			{
				"x": -1.3001444313,
				"y": -0.2231120582,
				"z": 3.0379906103,
				"element": "H" 
			},
			{
				"x": -0.5809600092,
				"y": 1.3682288129,
				"z": 3.2550458658,
				"element": "H" 
			},
			{
				"x": -2.545065324,
				"y": 0.6571236875,
				"z": 1.0134579191,
				"element": "H" 
			},
			{
				"x": -2.9767589349,
				"y": 1.540611275,
				"z": 2.4748476656,
				"element": "H" 
			},
			{
				"x": -1.5315188386,
				"y": 3.4047657245,
				"z": 1.9096879281,
				"element": "H" 
			},
			{
				"x": -2.4801912156,
				"y": 3.0569706518,
				"z": 0.4851455593,
				"element": "H" 
			},
			{
				"x": 3.5867196877,
				"y": 0.6099492393,
				"z": -0.2343411371,
				"element": "H" 
			},
			{
				"x": 2.4347254317,
				"y": -0.4432848896,
				"z": 0.5906164637,
				"element": "H" 
			},
			{
				"x": 3.3353382204,
				"y": -1.3912375236,
				"z": -1.549477953,
				"element": "H" 
			},
			{
				"x": 2.6409767738,
				"y": -0.0347341539,
				"z": -2.4349123811,
				"element": "H" 
			},
			{
				"x": 0.2495984412,
				"y": 0.0101943379,
				"z": -2.9724888312,
				"element": "H" 
			},
			{
				"x": -1.8919429233,
				"y": -1.2177445885,
				"z": -3.1456970342,
				"element": "H" 
			},
			{
				"x": -2.1794044011,
				"y": -3.397956603,
				"z": -1.9823732447,
				"element": "H" 
			},
			{
				"x": -0.2985009391,
				"y": -4.3393868429,
				"z": -0.652953291,
				"element": "H" 
			},
			{
				"x": 1.8403152341,
				"y": -3.1079902578,
				"z": -0.4837259994,
				"element": "H" 
			}
		],
		 "valence_orbital": [ 
			{
				"type": "occ",
				"energy": -0.2756,
				"method": "rhf"
			},
			{
				"type": "occ",
				"energy": -0.26977,
				"method": "rhf"
			},
			{
				"type": "occ",
				"energy": -0.25412,
				"method": "rhf"
			},
			{
				"type": "occ",
				"energy": -0.24618,
				"method": "rhf"
			},
			{
				"type": "occ",
				"energy": -0.23181,
				"method": "rhf"
			},
			{
				"type": "unocc",
				"energy": -0.05763,
				"method": "rhf"
			},
			{
				"type": "unocc",
				"energy": -0.0279,
				"method": "rhf"
			},
			{
				"type": "unocc",
				"energy": -0.00675,
				"method": "rhf"
			},
			{
				"type": "unocc",
				"energy": -0.00479,
				"method": "rhf"
			},
			{
				"type": "unocc",
				"energy": 0.00564,
				"method": "rhf"
			}
		],
		"cosmo_sigma_profile": { 
			"-0.025": 0.0,
			"-0.024": 0.0,
			"-0.023": 0.0,
			"-0.022": 0.0,
			"-0.021": 0.0,
			"-0.02": 0.0,
			"-0.019": 0.0,
			"-0.018": 0.0,
			"-0.017": 0.0,
			"-0.016": 0.0,
			"-0.015": 0.0,
			"-0.014": 0.0,
			"-0.013": 0.0,
			"-0.012": 0.0714813674591,
			"-0.011": 0.973145155876,
			"-0.01": 1.35767024675,
			"-0.009": 1.19832617949,
			"-0.008": 1.38246578988,
			"-0.007": 1.00383085661,
			"-0.006": 3.06681346363,
			"-0.005": 18.6421188691,
			"-0.004": 29.3354779577,
			"-0.003": 42.2723207511,
			"-0.002": 43.8731972213,
			"-0.001": 44.025073196,
			"0.0": 32.7239403042,
			"0.001": 18.968696662,
			"0.002": 19.4969246528,
			"0.003": 19.7428793682,
			"0.004": 16.7746370385,
			"0.005": 12.6672858421,
			"0.006": 11.2092544046,
			"0.007": 6.37958836689,
			"0.008": 3.904192788,
			"0.009": 4.1402251994,
			"0.01": 3.58080968687,
			"0.011": 3.04056865759,
			"0.012": 2.47618618886,
			"0.013": 1.06621325607,
			"0.014": 0.0,
			"0.015": 0.0,
			"0.016": 0.0,
			"0.017": 0.0,
			"0.018": 0.0,
			"0.019": 0.0,
			"0.02": 0.0,
			"0.021": 0.0,
			"0.022": 0.0,
			"0.023": 0.0,
			"0.024": 0.0,
			"0.025": 0.0
		}
	}
}
