{
	 "smiles": "CC(C)(C)OC(=O)N1CC(C1)OCCC(O)=O", 
	 "Tm": 326.15, 
	 "num_atms": 36, 
	 "gaussian": { 
		 "optdone": 1, 
		 "sigma_profile": "yes", 
		 "theory": "DFT", 
		 "functional": "B3LYP", 
		 "basiset": "6-31G**", 
		 "properties": { 
			 "R2extent": 7715.3106, 
			 "electric_dipole_moment_norm": 1.98512917716, 
			 "electric_quadrupole_moment_norm": 16.4550325004, 
			 "total_energy": -861.501501712, 
			 "HOMO_LUMO_gap": 0.24132, 
			 "cosmo_polarized_energy": -17.07, 
			 "cosmo_cavitation_energy": 39.28, 
			 "cosmo_dispersion_energy": -27.14, 
			 "cosmo_repulsion_energy": 2.19, 
			 "cosmo_total_nonelectrostatic_energy": 14.33, 
			 "SMD_solvation_energy": 7.61 
		},
		"coords": [
			{
				"x": 2.9472289313,
				"y": 2.3018919398,
				"z": -2.9708792917,
				"element": "C" 
			},
			{
				"x": 3.2670309934,
				"y": 1.0413988924,
				"z": -2.159493418,
				"element": "C" 
			},
			{
				"x": 3.6272857585,
				"y": -0.1483899806,
				"z": -3.055896906,
				"element": "C" 
			},
			{
				"x": 4.381325638,
				"y": 1.3155194787,
				"z": -1.146020954,
				"element": "C" 
			},
			{
				"x": 2.1278807194,
				"y": 0.6947175252,
				"z": -1.2975923171,
				"element": "O" 
			},
			{
				"x": 0.9262821001,
				"y": 0.3657272235,
				"z": -1.8343590252,
				"element": "C" 
			},
			{
				"x": 0.6340549109,
				"y": 0.341358095,
				"z": -3.0210963465,
				"element": "O" 
			},
			{
				"x": 0.0521159552,
				"y": 0.0401730205,
				"z": -0.8406037541,
				"element": "N" 
			},
			{
				"x": 0.0517044641,
				"y": 0.3815477474,
				"z": 0.5883778564,
				"element": "C" 
			},
			{
				"x": -1.4954378454,
				"y": 0.3269733052,
				"z": 0.5604866659,
				"element": "C" 
			},
			{
				"x": -1.4056859463,
				"y": -0.0205164367,
				"z": -0.9623039663,
				"element": "C" 
			},
			{
				"x": -1.9932749343,
				"y": -0.6765847156,
				"z": 1.4076544751,
				"element": "O" 
			},
			{
				"x": -3.4104487097,
				"y": -0.7766815394,
				"z": 1.4106030823,
				"element": "C" 
			},
			{
				"x": -3.7988066383,
				"y": -1.7367402468,
				"z": 2.5236225475,
				"element": "C" 
			},
			{
				"x": -3.5623420752,
				"y": -1.1341135816,
				"z": 3.8952854124,
				"element": "C" 
			},
			{
				"x": -3.2945371057,
				"y": -2.0838089883,
				"z": 4.8205742502,
				"element": "O" 
			},
			{
				"x": -3.6347091361,
				"y": 0.0439971317,
				"z": 4.1662786068,
				"element": "O" 
			},
			{
				"x": 2.1367755341,
				"y": 2.1151105342,
				"z": -3.6757542725,
				"element": "H" 
			},
			{
				"x": 3.8360459543,
				"y": 2.6180828884,
				"z": -3.5267715028,
				"element": "H" 
			},
			{
				"x": 2.6565635858,
				"y": 3.1193528987,
				"z": -2.3030571373,
				"element": "H" 
			},
			{
				"x": 4.5415664893,
				"y": 0.075388993,
				"z": -3.6153465234,
				"element": "H" 
			},
			{
				"x": 3.8106179276,
				"y": -1.0396845206,
				"z": -2.4474165729,
				"element": "H" 
			},
			{
				"x": 2.8238745442,
				"y": -0.3608304083,
				"z": -3.7616429451,
				"element": "H" 
			},
			{
				"x": 4.1024825771,
				"y": 2.1356699513,
				"z": -0.477823414,
				"element": "H" 
			},
			{
				"x": 5.3039093981,
				"y": 1.5906075833,
				"z": -1.6659175899,
				"element": "H" 
			},
			{
				"x": 4.5769374635,
				"y": 0.4274142074,
				"z": -0.5381039478,
				"element": "H" 
			},
			{
				"x": 0.4928010784,
				"y": 1.3567684175,
				"z": 0.817543891,
				"element": "H" 
			},
			{
				"x": 0.4982619586,
				"y": -0.3834077132,
				"z": 1.2316560619,
				"element": "H" 
			},
			{
				"x": -1.9883353275,
				"y": 1.2871343493,
				"z": 0.7643898324,
				"element": "H" 
			},
			{
				"x": -1.8200699877,
				"y": 0.7188586534,
				"z": -1.6562236738,
				"element": "H" 
			},
			{
				"x": -1.7870289333,
				"y": -1.0150728803,
				"z": -1.220006824,
				"element": "H" 
			},
			{
				"x": -3.778040774,
				"y": -1.1509875576,
				"z": 0.4431122344,
				"element": "H" 
			},
			{
				"x": -3.8636156834,
				"y": 0.2074802745,
				"z": 1.5967465313,
				"element": "H" 
			},
			{
				"x": -4.8678755708,
				"y": -1.9741126237,
				"z": 2.451168745,
				"element": "H" 
			},
			{
				"x": -3.250857648,
				"y": -2.6778240744,
				"z": 2.4317825752,
				"element": "H" 
			},
			{
				"x": -3.1919796659,
				"y": -1.6161178432,
				"z": 5.666927615,
				"element": "H" 
			}
		],
		 "valence_orbital": [ 
			{
				"type": "occ",
				"energy": -0.28143,
				"method": "rhf"
			},
			{
				"type": "occ",
				"energy": -0.28029,
				"method": "rhf"
			},
			{
				"type": "occ",
				"energy": -0.26748,
				"method": "rhf"
			},
			{
				"type": "occ",
				"energy": -0.25528,
				"method": "rhf"
			},
			{
				"type": "occ",
				"energy": -0.23559,
				"method": "rhf"
			},
			{
				"type": "unocc",
				"energy": 0.00573,
				"method": "rhf"
			},
			{
				"type": "unocc",
				"energy": 0.04954,
				"method": "rhf"
			},
			{
				"type": "unocc",
				"energy": 0.07556,
				"method": "rhf"
			},
			{
				"type": "unocc",
				"energy": 0.08449,
				"method": "rhf"
			},
			{
				"type": "unocc",
				"energy": 0.08706,
				"method": "rhf"
			}
		],
		"cosmo_sigma_profile": { 
			"-0.025": 0.0,
			"-0.024": 0.0,
			"-0.023": 0.0,
			"-0.022": 0.0,
			"-0.021": 0.0,
			"-0.02": 0.0,
			"-0.019": 0.0209958949507,
			"-0.018": 0.676881504237,
			"-0.017": 0.907875873652,
			"-0.016": 0.976015850265,
			"-0.015": 0.833124452429,
			"-0.014": 0.682334980601,
			"-0.013": 0.262423831616,
			"-0.012": 0.692348100096,
			"-0.011": 1.38374457525,
			"-0.01": 0.560723350016,
			"-0.009": 0.385481190039,
			"-0.008": 1.67012829932,
			"-0.007": 4.08144065374,
			"-0.006": 7.41578183757,
			"-0.005": 26.3823625251,
			"-0.004": 32.6315480075,
			"-0.003": 34.3702207631,
			"-0.002": 24.284847768,
			"-0.001": 24.0722074439,
			"0.0": 27.7271653718,
			"0.001": 25.2843755168,
			"0.002": 12.1891201587,
			"0.003": 9.34495385382,
			"0.004": 9.37396215919,
			"0.005": 8.71201886814,
			"0.006": 7.6055145242,
			"0.007": 8.49999537954,
			"0.008": 7.60554516075,
			"0.009": 5.37253741467,
			"0.01": 4.87898893133,
			"0.011": 4.80840016037,
			"0.012": 6.65089419761,
			"0.013": 3.04167378698,
			"0.014": 2.45991032723,
			"0.015": 0.0784491205618,
			"0.016": 0.0,
			"0.017": 0.0,
			"0.018": 0.0,
			"0.019": 0.0,
			"0.02": 0.0,
			"0.021": 0.0,
			"0.022": 0.0,
			"0.023": 0.0,
			"0.024": 0.0,
			"0.025": 0.0
		}
	}
}
