{
	 "smiles": "CC1=CC=C(C=C1)S(=O)(=O)NC(CCl)C1=CC=CC=C1", 
	 "Tm": 448.15, 
	 "num_atms": 36, 
	 "gaussian": { 
		 "optdone": 1, 
		 "sigma_profile": "yes", 
		 "theory": "DFT", 
		 "functional": "B3LYP", 
		 "basiset": "6-31G**", 
		 "properties": { 
			 "R2extent": 6830.3616, 
			 "electric_dipole_moment_norm": 4.99286994423, 
			 "electric_quadrupole_moment_norm": 17.4691233512, 
			 "total_energy": -1644.75694894, 
			 "HOMO_LUMO_gap": 0.21434, 
			 "cosmo_polarized_energy": -16.49, 
			 "cosmo_cavitation_energy": 41.41, 
			 "cosmo_dispersion_energy": -28.36, 
			 "cosmo_repulsion_energy": 2.16, 
			 "cosmo_total_nonelectrostatic_energy": 15.21, 
			 "SMD_solvation_energy": 5.3 
		},
		"coords": [
			{
				"x": 0.6388987621,
				"y": 4.2722852477,
				"z": -3.096185936,
				"element": "C" 
			},
			{
				"x": 0.8662838955,
				"y": 3.1358677756,
				"z": -2.128717605,
				"element": "C" 
			},
			{
				"x": 0.7372776334,
				"y": 1.8030199727,
				"z": -2.5427588692,
				"element": "C" 
			},
			{
				"x": 0.9764820415,
				"y": 0.746369547,
				"z": -1.6658899236,
				"element": "C" 
			},
			{
				"x": 1.3439968257,
				"y": 1.0309383239,
				"z": -0.3507943292,
				"element": "C" 
			},
			{
				"x": 1.4850137434,
				"y": 2.3483876249,
				"z": 0.0905773496,
				"element": "C" 
			},
			{
				"x": 1.2423241396,
				"y": 3.3898523063,
				"z": -0.8010601594,
				"element": "C" 
			},
			{
				"x": 1.6720673316,
				"y": -0.3049089195,
				"z": 0.7943303864,
				"element": "S" 
			},
			{
				"x": 2.0086734576,
				"y": -1.497181385,
				"z": 0.0069570133,
				"element": "O" 
			},
			{
				"x": 2.5669453748,
				"y": 0.2099715185,
				"z": 1.8377542188,
				"element": "O" 
			},
			{
				"x": 0.1994193349,
				"y": -0.5594711895,
				"z": 1.6030593095,
				"element": "N" 
			},
			{
				"x": -0.6923676753,
				"y": -1.7109334951,
				"z": 1.3189893224,
				"element": "C" 
			},
			{
				"x": -0.0249698984,
				"y": -3.0386903972,
				"z": 1.7129136222,
				"element": "C" 
			},
			{
				"x": -1.2292312782,
				"y": -4.394747755,
				"z": 1.7941650487,
				"element": "Cl" 
			},
			{
				"x": -1.2713037371,
				"y": -1.6343561494,
				"z": -0.0901663872,
				"element": "C" 
			},
			{
				"x": -0.9053483149,
				"y": -2.5086003405,
				"z": -1.118961944,
				"element": "C" 
			},
			{
				"x": -1.4721803277,
				"y": -2.3839217837,
				"z": -2.3900827044,
				"element": "C" 
			},
			{
				"x": -2.4098491035,
				"y": -1.384198612,
				"z": -2.6487416723,
				"element": "C" 
			},
			{
				"x": -2.7815786613,
				"y": -0.5066706181,
				"z": -1.6272836097,
				"element": "C" 
			},
			{
				"x": -2.2170440963,
				"y": -0.6351638087,
				"z": -0.3600611483,
				"element": "C" 
			},
			{
				"x": 0.2414100993,
				"y": 5.156533876,
				"z": -2.5892800821,
				"element": "H" 
			},
			{
				"x": -0.059468703,
				"y": 3.9898168008,
				"z": -3.8890904938,
				"element": "H" 
			},
			{
				"x": 1.5784523794,
				"y": 4.5689620352,
				"z": -3.5787848395,
				"element": "H" 
			},
			{
				"x": 0.4472004122,
				"y": 1.5864351153,
				"z": -3.5673250078,
				"element": "H" 
			},
			{
				"x": 0.8800447977,
				"y": -0.2820568452,
				"z": -1.9937633009,
				"element": "H" 
			},
			{
				"x": 1.7947975863,
				"y": 2.5473608564,
				"z": 1.1105601129,
				"element": "H" 
			},
			{
				"x": 1.3520719669,
				"y": 4.4169214614,
				"z": -0.4629368984,
				"element": "H" 
			},
			{
				"x": 0.3796190079,
				"y": -0.4134508578,
				"z": 2.5931575368,
				"element": "H" 
			},
			{
				"x": -1.5274041732,
				"y": -1.559802659,
				"z": 2.0134687037,
				"element": "H" 
			},
			{
				"x": 0.7625179408,
				"y": -3.3294308634,
				"z": 1.0211220354,
				"element": "H" 
			},
			{
				"x": 0.4009828407,
				"y": -2.9510274361,
				"z": 2.7135761818,
				"element": "H" 
			},
			{
				"x": -0.178133115,
				"y": -3.2918189953,
				"z": -0.9408512129,
				"element": "H" 
			},
			{
				"x": -1.1801358017,
				"y": -3.0746236337,
				"z": -3.1758225563,
				"element": "H" 
			},
			{
				"x": -2.8524871675,
				"y": -1.2923245561,
				"z": -3.6364942941,
				"element": "H" 
			},
			{
				"x": -3.5136340895,
				"y": 0.2732666776,
				"z": -1.8159965717,
				"element": "H" 
			},
			{
				"x": -2.5044434284,
				"y": 0.051791161,
				"z": 0.4317187042,
				"element": "H" 
			}
		],
		 "valence_orbital": [ 
			{
				"type": "occ",
				"energy": -0.28407,
				"method": "rhf"
			},
			{
				"type": "occ",
				"energy": -0.26661,
				"method": "rhf"
			},
			{
				"type": "occ",
				"energy": -0.25493,
				"method": "rhf"
			},
			{
				"type": "occ",
				"energy": -0.25446,
				"method": "rhf"
			},
			{
				"type": "occ",
				"energy": -0.24953,
				"method": "rhf"
			},
			{
				"type": "unocc",
				"energy": -0.03519,
				"method": "rhf"
			},
			{
				"type": "unocc",
				"energy": -0.01756,
				"method": "rhf"
			},
			{
				"type": "unocc",
				"energy": -0.01507,
				"method": "rhf"
			},
			{
				"type": "unocc",
				"energy": -0.00523,
				"method": "rhf"
			},
			{
				"type": "unocc",
				"energy": 0.02414,
				"method": "rhf"
			}
		],
		"cosmo_sigma_profile": { 
			"-0.025": 0.0,
			"-0.024": 0.0,
			"-0.023": 0.0,
			"-0.022": 0.0,
			"-0.021": 0.0,
			"-0.02": 0.0,
			"-0.019": 0.0,
			"-0.018": 0.0,
			"-0.017": 0.0,
			"-0.016": 0.0171998165047,
			"-0.015": 0.618630080853,
			"-0.014": 1.22276763994,
			"-0.013": 1.31474738879,
			"-0.012": 1.88304649799,
			"-0.011": 1.02556413631,
			"-0.01": 1.51023356777,
			"-0.009": 2.724099124,
			"-0.008": 2.55614385245,
			"-0.007": 6.60850666123,
			"-0.006": 17.490832374,
			"-0.005": 25.3257895748,
			"-0.004": 27.5774670512,
			"-0.003": 23.4735050829,
			"-0.002": 21.4792337013,
			"-0.001": 24.3061249803,
			"0.0": 22.1043714056,
			"0.001": 19.2529500874,
			"0.002": 22.055829583,
			"0.003": 26.9457673409,
			"0.004": 21.5518735139,
			"0.005": 17.6533889008,
			"0.006": 15.9623301288,
			"0.007": 5.21553014467,
			"0.008": 3.14500475513,
			"0.009": 3.30823466074,
			"0.01": 5.87731071441,
			"0.011": 6.98998450102,
			"0.012": 2.0964405753,
			"0.013": 0.0,
			"0.014": 0.0,
			"0.015": 0.0,
			"0.016": 0.0,
			"0.017": 0.0,
			"0.018": 0.0,
			"0.019": 0.0,
			"0.02": 0.0,
			"0.021": 0.0,
			"0.022": 0.0,
			"0.023": 0.0,
			"0.024": 0.0,
			"0.025": 0.0
		}
	}
}
