{
	 "smiles": "CC1=NC(=O)C=CN1", 
	 "Tm": 487.15, 
	 "num_atms": 14, 
	 "gaussian": { 
		 "optdone": 1, 
		 "sigma_profile": "yes", 
		 "theory": "DFT", 
		 "functional": "B3LYP", 
		 "basiset": "6-31G**", 
		 "properties": { 
			 "R2extent": 2970.5122, 
			 "electric_dipole_moment_norm": 7.62098137709, 
			 "electric_quadrupole_moment_norm": 28.0260668759, 
			 "total_energy": -378.872478158, 
			 "HOMO_LUMO_gap": 0.20509, 
			 "cosmo_polarized_energy": -24.81, 
			 "cosmo_cavitation_energy": 18.22, 
			 "cosmo_dispersion_energy": -13.79, 
			 "cosmo_repulsion_energy": 1.16, 
			 "cosmo_total_nonelectrostatic_energy": 5.59, 
			 "SMD_solvation_energy": 2.94 
		},
		"coords": [
			{
				"x": 2.8072546247,
				"y": 0.7861543747,
				"z": 0.7465956764,
				"element": "C" 
			},
			{
				"x": 2.6347470452,
				"y": 0.5079606994,
				"z": -0.7235651615,
				"element": "C" 
			},
			{
				"x": 2.7803005209,
				"y": 1.4506666122,
				"z": -1.5948221304,
				"element": "N" 
			},
			{
				"x": 2.6155325564,
				"y": 1.1784839183,
				"z": -2.9795925733,
				"element": "C" 
			},
			{
				"x": 2.7507252061,
				"y": 2.0640407149,
				"z": -3.8102907655,
				"element": "O" 
			},
			{
				"x": 2.278124058,
				"y": -0.2070771862,
				"z": -3.3393248226,
				"element": "C" 
			},
			{
				"x": 2.1405774766,
				"y": -1.1441188935,
				"z": -2.37920533,
				"element": "C" 
			},
			{
				"x": 2.318427947,
				"y": -0.7939459311,
				"z": -1.0561039731,
				"element": "N" 
			},
			{
				"x": 3.6131301339,
				"y": 0.176810003,
				"z": 1.1720670565,
				"element": "H" 
			},
			{
				"x": 1.8885606263,
				"y": 0.5625554956,
				"z": 1.3013649129,
				"element": "H" 
			},
			{
				"x": 3.0524515183,
				"y": 1.8394832451,
				"z": 0.8746214237,
				"element": "H" 
			},
			{
				"x": 2.1446579172,
				"y": -0.4515471226,
				"z": -4.3859954245,
				"element": "H" 
			},
			{
				"x": 1.8937627152,
				"y": -2.1830176659,
				"z": -2.5690554822,
				"element": "H" 
			},
			{
				"x": 2.2178476541,
				"y": -1.4871482638,
				"z": -0.3298934066,
				"element": "H" 
			}
		],
		 "valence_orbital": [ 
			{
				"type": "occ",
				"energy": -0.36752,
				"method": "rhf"
			},
			{
				"type": "occ",
				"energy": -0.30325,
				"method": "rhf"
			},
			{
				"type": "occ",
				"energy": -0.26971,
				"method": "rhf"
			},
			{
				"type": "occ",
				"energy": -0.23547,
				"method": "rhf"
			},
			{
				"type": "occ",
				"energy": -0.22751,
				"method": "rhf"
			},
			{
				"type": "unocc",
				"energy": -0.02242,
				"method": "rhf"
			},
			{
				"type": "unocc",
				"energy": -0.01748,
				"method": "rhf"
			},
			{
				"type": "unocc",
				"energy": 0.04472,
				"method": "rhf"
			},
			{
				"type": "unocc",
				"energy": 0.10391,
				"method": "rhf"
			},
			{
				"type": "unocc",
				"energy": 0.11923,
				"method": "rhf"
			}
		],
		"cosmo_sigma_profile": { 
			"-0.025": 0.0,
			"-0.024": 0.0,
			"-0.023": 0.0,
			"-0.022": 0.0,
			"-0.021": 0.0,
			"-0.02": 0.0,
			"-0.019": 0.0,
			"-0.018": 0.128638271781,
			"-0.017": 1.6357031946,
			"-0.016": 1.64748261155,
			"-0.015": 1.7098873022,
			"-0.014": 1.16342654386,
			"-0.013": 1.66798374346,
			"-0.012": 1.64674614142,
			"-0.011": 1.70716664195,
			"-0.01": 3.27777972321,
			"-0.009": 3.12268620444,
			"-0.008": 3.41244713265,
			"-0.007": 5.77807806253,
			"-0.006": 8.29615283765,
			"-0.005": 8.76192295145,
			"-0.004": 8.3824265421,
			"-0.003": 8.48721640709,
			"-0.002": 12.296720066,
			"-0.001": 11.1458391166,
			"0.0": 6.35205625892,
			"0.001": 5.91047179749,
			"0.002": 6.03555361696,
			"0.003": 4.30834939131,
			"0.004": 2.12087352669,
			"0.005": 1.98728994866,
			"0.006": 2.34845940924,
			"0.007": 2.02192007218,
			"0.008": 1.69248868766,
			"0.009": 2.28783163098,
			"0.01": 1.64315364658,
			"0.011": 1.83392808879,
			"0.012": 2.7721986786,
			"0.013": 2.77047830772,
			"0.014": 6.23609766514,
			"0.015": 4.93426424294,
			"0.016": 3.11342881399,
			"0.017": 2.37549335798,
			"0.018": 0.305484232712,
			"0.019": 0.0,
			"0.02": 0.0,
			"0.021": 0.0,
			"0.022": 0.0,
			"0.023": 0.0,
			"0.024": 0.0,
			"0.025": 0.0
		}
	}
}
