{
	 "smiles": "CNC(=O)C(Br)CC1=CC=CC=C1", 
	 "Tm": 377.15, 
	 "num_atms": 25, 
	 "gaussian": { 
		 "optdone": 1, 
		 "sigma_profile": "yes", 
		 "theory": "DFT", 
		 "functional": "B3LYP", 
		 "basiset": "6-31G**", 
		 "properties": { 
			 "R2extent": 5004.1747, 
			 "electric_dipole_moment_norm": 3.16698060619, 
			 "electric_quadrupole_moment_norm": 5.05968624917, 
			 "total_energy": -3089.6998737, 
			 "HOMO_LUMO_gap": 0.20333, 
			 "cosmo_polarized_energy": -12.06, 
			 "cosmo_cavitation_energy": 30.69, 
			 "cosmo_dispersion_energy": -21.95, 
			 "cosmo_repulsion_energy": 1.77, 
			 "cosmo_total_nonelectrostatic_energy": 10.51, 
			 "SMD_solvation_energy": 4.07 
		},
		"coords": [
			{
				"x": -2.1254980802,
				"y": 1.5908158852,
				"z": 0.8780943288,
				"element": "C" 
			},
			{
				"x": -0.7309963062,
				"y": 1.3830378513,
				"z": 1.2316790653,
				"element": "N" 
			},
			{
				"x": -0.019113929,
				"y": 0.320387041,
				"z": 0.7633786651,
				"element": "C" 
			},
			{
				"x": -0.4433982265,
				"y": -0.4666984066,
				"z": -0.0738260274,
				"element": "O" 
			},
			{
				"x": 1.396482177,
				"y": 0.1955277025,
				"z": 1.3472329791,
				"element": "C" 
			},
			{
				"x": 1.1915734134,
				"y": -0.6239137264,
				"z": 3.1715338091,
				"element": "Br" 
			},
			{
				"x": 2.3351114391,
				"y": -0.6516418954,
				"z": 0.4876695232,
				"element": "C" 
			},
			{
				"x": 2.8209970807,
				"y": 0.1164709515,
				"z": -0.7300238457,
				"element": "C" 
			},
			{
				"x": 4.0060652868,
				"y": 0.8631474048,
				"z": -0.6610626705,
				"element": "C" 
			},
			{
				"x": 4.4641376428,
				"y": 1.5831227671,
				"z": -1.7650455197,
				"element": "C" 
			},
			{
				"x": 3.7401179869,
				"y": 1.5657362276,
				"z": -2.958658112,
				"element": "C" 
			},
			{
				"x": 2.5585324241,
				"y": 0.8261446734,
				"z": -3.0382769497,
				"element": "C" 
			},
			{
				"x": 2.0998494119,
				"y": 0.1085038778,
				"z": -1.9325181823,
				"element": "C" 
			},
			{
				"x": -2.802793989,
				"y": 1.2346952074,
				"z": 1.6639440404,
				"element": "H" 
			},
			{
				"x": -2.3237652416,
				"y": 1.0278601416,
				"z": -0.0339825479,
				"element": "H" 
			},
			{
				"x": -2.3162404464,
				"y": 2.6528574249,
				"z": 0.6988351846,
				"element": "H" 
			},
			{
				"x": -0.3617614562,
				"y": 1.8828779456,
				"z": 2.0275638989,
				"element": "H" 
			},
			{
				"x": 1.8260436006,
				"y": 1.176235086,
				"z": 1.5573090698,
				"element": "H" 
			},
			{
				"x": 3.1905686121,
				"y": -0.9480639614,
				"z": 1.1000406174,
				"element": "H" 
			},
			{
				"x": 1.7986530014,
				"y": -1.5558804674,
				"z": 0.1908486015,
				"element": "H" 
			},
			{
				"x": 4.5811847734,
				"y": 0.8702658577,
				"z": 0.2624385081,
				"element": "H" 
			},
			{
				"x": 5.3880128944,
				"y": 2.1505856266,
				"z": -1.6950193007,
				"element": "H" 
			},
			{
				"x": 4.096366374,
				"y": 2.1217531308,
				"z": -3.8212683546,
				"element": "H" 
			},
			{
				"x": 1.9913292061,
				"y": 0.8057335499,
				"z": -3.9647603108,
				"element": "H" 
			},
			{
				"x": 1.1740423504,
				"y": -0.4548598955,
				"z": -1.9877264701,
				"element": "H" 
			}
		],
		 "valence_orbital": [ 
			{
				"type": "occ",
				"energy": -0.28266,
				"method": "rhf"
			},
			{
				"type": "occ",
				"energy": -0.26153,
				"method": "rhf"
			},
			{
				"type": "occ",
				"energy": -0.25809,
				"method": "rhf"
			},
			{
				"type": "occ",
				"energy": -0.24804,
				"method": "rhf"
			},
			{
				"type": "occ",
				"energy": -0.24257,
				"method": "rhf"
			},
			{
				"type": "unocc",
				"energy": -0.03924,
				"method": "rhf"
			},
			{
				"type": "unocc",
				"energy": -0.00026,
				"method": "rhf"
			},
			{
				"type": "unocc",
				"energy": 0.00257,
				"method": "rhf"
			},
			{
				"type": "unocc",
				"energy": 0.04934,
				"method": "rhf"
			},
			{
				"type": "unocc",
				"energy": 0.07586,
				"method": "rhf"
			}
		],
		"cosmo_sigma_profile": { 
			"-0.025": 0.0,
			"-0.024": 0.0,
			"-0.023": 0.0,
			"-0.022": 0.0,
			"-0.021": 0.0,
			"-0.02": 0.0,
			"-0.019": 0.0,
			"-0.018": 0.0,
			"-0.017": 0.0,
			"-0.016": 0.0,
			"-0.015": 0.246973495924,
			"-0.014": 1.40018923927,
			"-0.013": 1.10867998052,
			"-0.012": 1.59603754524,
			"-0.011": 1.44015915514,
			"-0.01": 1.42757683353,
			"-0.009": 2.06372407949,
			"-0.008": 1.93777877351,
			"-0.007": 1.7413546794,
			"-0.006": 7.63726093207,
			"-0.005": 20.2644516232,
			"-0.004": 18.5672215295,
			"-0.003": 23.9816614181,
			"-0.002": 21.0439903819,
			"-0.001": 17.4109406173,
			"0.0": 14.4140054921,
			"0.001": 14.3467581212,
			"0.002": 14.4551566253,
			"0.003": 15.8750780529,
			"0.004": 18.2049863247,
			"0.005": 20.4093844652,
			"0.006": 13.2358841226,
			"0.007": 1.91735834188,
			"0.008": 1.35967830199,
			"0.009": 1.73396396662,
			"0.01": 1.17079465934,
			"0.011": 1.60426962535,
			"0.012": 2.32545730666,
			"0.013": 3.01330331289,
			"0.014": 0.226769290237,
			"0.015": 0.0,
			"0.016": 0.0,
			"0.017": 0.0,
			"0.018": 0.0,
			"0.019": 0.0,
			"0.02": 0.0,
			"0.021": 0.0,
			"0.022": 0.0,
			"0.023": 0.0,
			"0.024": 0.0,
			"0.025": 0.0
		}
	}
}
