{
	 "smiles": "NC(=O)CC1=C(Cl)C=CC=C1Cl", 
	 "Tm": 490.15, 
	 "num_atms": 19, 
	 "gaussian": { 
		 "optdone": 1, 
		 "sigma_profile": "yes", 
		 "theory": "DFT", 
		 "functional": "B3LYP", 
		 "basiset": "6-31G**", 
		 "properties": { 
			 "R2extent": 2939.6372, 
			 "electric_dipole_moment_norm": 2.6409720805, 
			 "electric_quadrupole_moment_norm": 22.2010735108, 
			 "total_energy": -1359.44750279, 
			 "HOMO_LUMO_gap": 0.22566, 
			 "cosmo_polarized_energy": -15.13, 
			 "cosmo_cavitation_energy": 26.85, 
			 "cosmo_dispersion_energy": -19.35, 
			 "cosmo_repulsion_energy": 1.57, 
			 "cosmo_total_nonelectrostatic_energy": 9.06, 
			 "SMD_solvation_energy": 4.78 
		},
		"coords": [
			{
				"x": 0.6378793875,
				"y": -4.045246039,
				"z": -0.5677541062,
				"element": "N" 
			},
			{
				"x": 0.6952740813,
				"y": -2.7371239847,
				"z": -0.1704827283,
				"element": "C" 
			},
			{
				"x": 0.6577789684,
				"y": -2.4003108444,
				"z": 0.9999393029,
				"element": "O" 
			},
			{
				"x": 0.8804143728,
				"y": -1.7400691959,
				"z": -1.3297526285,
				"element": "C" 
			},
			{
				"x": 0.5692886563,
				"y": -0.3237246975,
				"z": -0.927624425,
				"element": "C" 
			},
			{
				"x": -0.7379584283,
				"y": 0.1892262541,
				"z": -0.9754839976,
				"element": "C" 
			},
			{
				"x": -2.0612810078,
				"y": -0.8445345443,
				"z": -1.5134598146,
				"element": "Cl" 
			},
			{
				"x": -1.0541701043,
				"y": 1.4951787564,
				"z": -0.6086810904,
				"element": "C" 
			},
			{
				"x": -0.0381457583,
				"y": 2.3394731936,
				"z": -0.167855087,
				"element": "C" 
			},
			{
				"x": 1.2733299413,
				"y": 1.8778400837,
				"z": -0.0957900431,
				"element": "C" 
			},
			{
				"x": 1.5566495791,
				"y": 0.5654835801,
				"z": -0.4706244136,
				"element": "C" 
			},
			{
				"x": 3.2324561896,
				"y": 0.0386083379,
				"z": -0.3552770732,
				"element": "Cl" 
			},
			{
				"x": 0.5119882829,
				"y": -4.3077757514,
				"z": -1.5318757126,
				"element": "H" 
			},
			{
				"x": 0.4697700015,
				"y": -4.7393371761,
				"z": 0.1449554083,
				"element": "H" 
			},
			{
				"x": 0.2536970865,
				"y": -2.0368824407,
				"z": -2.1756550854,
				"element": "H" 
			},
			{
				"x": 1.9215843485,
				"y": -1.8147297335,
				"z": -1.6569274148,
				"element": "H" 
			},
			{
				"x": -2.0811606134,
				"y": 1.8362836358,
				"z": -0.6666843293,
				"element": "H" 
			},
			{
				"x": -0.269792717,
				"y": 3.3593272738,
				"z": 0.1226882033,
				"element": "H" 
			},
			{
				"x": 2.0742977332,
				"y": 2.521013292,
				"z": 0.249445035,
				"element": "H" 
			}
		],
		 "valence_orbital": [ 
			{
				"type": "occ",
				"energy": -0.31315,
				"method": "rhf"
			},
			{
				"type": "occ",
				"energy": -0.2701,
				"method": "rhf"
			},
			{
				"type": "occ",
				"energy": -0.26028,
				"method": "rhf"
			},
			{
				"type": "occ",
				"energy": -0.24866,
				"method": "rhf"
			},
			{
				"type": "occ",
				"energy": -0.24813,
				"method": "rhf"
			},
			{
				"type": "unocc",
				"energy": -0.02247,
				"method": "rhf"
			},
			{
				"type": "unocc",
				"energy": -0.02052,
				"method": "rhf"
			},
			{
				"type": "unocc",
				"energy": 0.00598,
				"method": "rhf"
			},
			{
				"type": "unocc",
				"energy": 0.02885,
				"method": "rhf"
			},
			{
				"type": "unocc",
				"energy": 0.05185,
				"method": "rhf"
			}
		],
		"cosmo_sigma_profile": { 
			"-0.025": 0.0,
			"-0.024": 0.0,
			"-0.023": 0.0,
			"-0.022": 0.0,
			"-0.021": 0.0,
			"-0.02": 0.0,
			"-0.019": 0.0,
			"-0.018": 0.0,
			"-0.017": 0.0,
			"-0.016": 0.0,
			"-0.015": 0.285731672856,
			"-0.014": 1.74830874786,
			"-0.013": 3.25374563853,
			"-0.012": 1.93895346887,
			"-0.011": 2.55285466904,
			"-0.01": 3.29193557333,
			"-0.009": 2.28331766367,
			"-0.008": 3.68850873194,
			"-0.007": 8.20490422131,
			"-0.006": 10.1346060458,
			"-0.005": 10.5994927044,
			"-0.004": 8.93576114947,
			"-0.003": 11.1474099579,
			"-0.002": 11.2138765321,
			"-0.001": 12.3027157513,
			"0.0": 13.5943573562,
			"0.001": 21.5856151843,
			"0.002": 22.4816654886,
			"0.003": 22.6094443933,
			"0.004": 16.0556918989,
			"0.005": 6.84559614655,
			"0.006": 3.51289577117,
			"0.007": 2.87509712849,
			"0.008": 1.72176289855,
			"0.009": 1.13700310585,
			"0.01": 1.82494119655,
			"0.011": 1.97528410232,
			"0.012": 2.29201136041,
			"0.013": 4.60842874606,
			"0.014": 3.52706001466,
			"0.015": 0.269986405706,
			"0.016": 0.0,
			"0.017": 0.0,
			"0.018": 0.0,
			"0.019": 0.0,
			"0.02": 0.0,
			"0.021": 0.0,
			"0.022": 0.0,
			"0.023": 0.0,
			"0.024": 0.0,
			"0.025": 0.0
		}
	}
}
