{
	 "smiles": "CC1(C)C2CCC1(C)C(N=C(/C(=O)C1=CC=CC=C1)C1=CC=CC=C1)C2N=C(/C(=O)C1=CC=CC=C1)C1=CC=CC=C1", 
	 "Tm": 463.15, 
	 "num_atms": 78, 
	 "gaussian": { 
		 "optdone": 1, 
		 "sigma_profile": "yes", 
		 "theory": "DFT", 
		 "functional": "B3LYP", 
		 "basiset": "6-31G**", 
		 "properties": { 
			 "R2extent": 21989.4741, 
			 "electric_dipole_moment_norm": 5.07249770626, 
			 "electric_quadrupole_moment_norm": 8.09816500079, 
			 "total_energy": -1729.6633831, 
			 "HOMO_LUMO_gap": 0.1429, 
			 "cosmo_polarized_energy": -17.99, 
			 "cosmo_cavitation_energy": 76.93, 
			 "cosmo_dispersion_energy": -45.3, 
			 "cosmo_repulsion_energy": 3.36, 
			 "cosmo_total_nonelectrostatic_energy": 34.99, 
			 "SMD_solvation_energy": 11.43 
		},
		"coords": [
			{
				"x": 1.4318761649,
				"y": -0.7018306492,
				"z": -2.621027324,
				"element": "C" 
			},
			{
				"x": 0.8434342749,
				"y": -1.7728135,
				"z": -1.6797069083,
				"element": "C" 
			},
			{
				"x": 1.1018944451,
				"y": -3.1301778485,
				"z": -2.3625189829,
				"element": "C" 
			},
			{
				"x": 1.3633608659,
				"y": -1.7062640132,
				"z": -0.2113583468,
				"element": "C" 
			},
			{
				"x": 0.5279295087,
				"y": -2.7948910253,
				"z": 0.498643106,
				"element": "C" 
			},
			{
				"x": -0.8625855863,
				"y": -2.6677795086,
				"z": -0.1915053133,
				"element": "C" 
			},
			{
				"x": -0.656994344,
				"y": -1.5504456946,
				"z": -1.2518866375,
				"element": "C" 
			},
			{
				"x": -1.7057948918,
				"y": -1.5356102031,
				"z": -2.3565574947,
				"element": "C" 
			},
			{
				"x": -0.5492341298,
				"y": -0.1917023278,
				"z": -0.4743978591,
				"element": "C" 
			},
			{
				"x": -1.639631055,
				"y": 0.0232470152,
				"z": 0.451535003,
				"element": "N" 
			},
			{
				"x": -2.5465951775,
				"y": 0.9001825238,
				"z": 0.2402736803,
				"element": "C" 
			},
			{
				"x": -2.6584942499,
				"y": 1.7599752005,
				"z": -1.0247764493,
				"element": "C" 
			},
			{
				"x": -3.4089979059,
				"y": 1.3784419299,
				"z": -1.9155874526,
				"element": "O" 
			},
			{
				"x": -1.9017749951,
				"y": 3.0375771428,
				"z": -1.1245924909,
				"element": "C" 
			},
			{
				"x": -2.1241491897,
				"y": 3.8555624956,
				"z": -2.2465399464,
				"element": "C" 
			},
			{
				"x": -1.4379948832,
				"y": 5.0565798443,
				"z": -2.3816832393,
				"element": "C" 
			},
			{
				"x": -0.5152674767,
				"y": 5.4474699004,
				"z": -1.4034876296,
				"element": "C" 
			},
			{
				"x": -0.28234068,
				"y": 4.6365147033,
				"z": -0.2916449685,
				"element": "C" 
			},
			{
				"x": -0.9788677128,
				"y": 3.4365767783,
				"z": -0.1463986702,
				"element": "C" 
			},
			{
				"x": -3.6238046117,
				"y": 1.088834407,
				"z": 1.2540502517,
				"element": "C" 
			},
			{
				"x": -4.8337326512,
				"y": 1.728839435,
				"z": 0.9420587022,
				"element": "C" 
			},
			{
				"x": -5.8169293335,
				"y": 1.8930170472,
				"z": 1.9188059119,
				"element": "C" 
			},
			{
				"x": -5.6026416779,
				"y": 1.428731372,
				"z": 3.2165939367,
				"element": "C" 
			},
			{
				"x": -4.3981020983,
				"y": 0.7932972277,
				"z": 3.5356159466,
				"element": "C" 
			},
			{
				"x": -3.4166636643,
				"y": 0.623416255,
				"z": 2.564506048,
				"element": "C" 
			},
			{
				"x": 0.8576759974,
				"y": -0.3116097075,
				"z": 0.2619324939,
				"element": "C" 
			},
			{
				"x": 0.7512130836,
				"y": -0.2315852037,
				"z": 1.7061169086,
				"element": "N" 
			},
			{
				"x": 1.376174601,
				"y": 0.6529412843,
				"z": 2.3848504735,
				"element": "C" 
			},
			{
				"x": 2.2534480887,
				"y": 1.7422536241,
				"z": 1.7579888167,
				"element": "C" 
			},
			{
				"x": 1.7599542036,
				"y": 2.8355810473,
				"z": 1.5079973191,
				"element": "O" 
			},
			{
				"x": 3.6868181216,
				"y": 1.4424115229,
				"z": 1.4825232792,
				"element": "C" 
			},
			{
				"x": 4.4741348469,
				"y": 2.4313010688,
				"z": 0.8695591725,
				"element": "C" 
			},
			{
				"x": 5.8168643865,
				"y": 2.1892186766,
				"z": 0.6009497328,
				"element": "C" 
			},
			{
				"x": 6.3871997934,
				"y": 0.9584731585,
				"z": 0.9451731035,
				"element": "C" 
			},
			{
				"x": 5.6120662,
				"y": -0.0286797439,
				"z": 1.5574563709,
				"element": "C" 
			},
			{
				"x": 4.2646474591,
				"y": 0.2100165094,
				"z": 1.8258593981,
				"element": "C" 
			},
			{
				"x": 1.2449639008,
				"y": 0.6828018294,
				"z": 3.8689438551,
				"element": "C" 
			},
			{
				"x": 1.7779136125,
				"y": 1.7345682707,
				"z": 4.6310201442,
				"element": "C" 
			},
			{
				"x": 1.6491345174,
				"y": 1.7387645459,
				"z": 6.0206913309,
				"element": "C" 
			},
			{
				"x": 0.9889467778,
				"y": 0.6941819604,
				"z": 6.6670653259,
				"element": "C" 
			},
			{
				"x": 0.452562377,
				"y": -0.3569094625,
				"z": 5.9154257439,
				"element": "C" 
			},
			{
				"x": 0.5785450562,
				"y": -0.3639683849,
				"z": 4.5303753601,
				"element": "C" 
			},
			{
				"x": 0.9476173897,
				"y": -0.7484067491,
				"z": -3.602549373,
				"element": "H" 
			},
			{
				"x": 2.5000239733,
				"y": -0.8904772364,
				"z": -2.7790874357,
				"element": "H" 
			},
			{
				"x": 1.3354269107,
				"y": 0.3242973966,
				"z": -2.2620303397,
				"element": "H" 
			},
			{
				"x": 2.1797758137,
				"y": -3.2978194517,
				"z": -2.4714927697,
				"element": "H" 
			},
			{
				"x": 0.6701425059,
				"y": -3.1388812715,
				"z": -3.3692450975,
				"element": "H" 
			},
			{
				"x": 0.689023101,
				"y": -3.9829608476,
				"z": -1.8220439032,
				"element": "H" 
			},
			{
				"x": 2.4460674868,
				"y": -1.8196747596,
				"z": -0.0889404389,
				"element": "H" 
			},
			{
				"x": 0.4748835873,
				"y": -2.6180412679,
				"z": 1.573058826,
				"element": "H" 
			},
			{
				"x": 0.9720803193,
				"y": -3.7829896517,
				"z": 0.346296297,
				"element": "H" 
			},
			{
				"x": -1.6498407837,
				"y": -2.3906694655,
				"z": 0.5114860951,
				"element": "H" 
			},
			{
				"x": -1.1663447699,
				"y": -3.6016497427,
				"z": -0.675285897,
				"element": "H" 
			},
			{
				"x": -2.7024968574,
				"y": -1.3319934255,
				"z": -1.9537422739,
				"element": "H" 
			},
			{
				"x": -1.7439291896,
				"y": -2.5023480408,
				"z": -2.8705782338,
				"element": "H" 
			},
			{
				"x": -1.4997298144,
				"y": -0.7615750546,
				"z": -3.1037506608,
				"element": "H" 
			},
			{
				"x": -0.4762484869,
				"y": 0.6180960729,
				"z": -1.2113443536,
				"element": "H" 
			},
			{
				"x": -2.8391183168,
				"y": 3.5238342818,
				"z": -2.9922940546,
				"element": "H" 
			},
			{
				"x": -1.6146878708,
				"y": 5.6893740151,
				"z": -3.2467319693,
				"element": "H" 
			},
			{
				"x": 0.024394461,
				"y": 6.3842180116,
				"z": -1.5134183704,
				"element": "H" 
			},
			{
				"x": 0.4471888443,
				"y": 4.9191469735,
				"z": 0.4592998975,
				"element": "H" 
			},
			{
				"x": -0.7823903947,
				"y": 2.812332586,
				"z": 0.71847919,
				"element": "H" 
			},
			{
				"x": -5.0197654137,
				"y": 2.0774949446,
				"z": -0.0679521169,
				"element": "H" 
			},
			{
				"x": -6.7520675923,
				"y": 2.3824223663,
				"z": 1.6620532779,
				"element": "H" 
			},
			{
				"x": -6.3671176169,
				"y": 1.5624048503,
				"z": 3.9768989819,
				"element": "H" 
			},
			{
				"x": -4.2233449601,
				"y": 0.4352079765,
				"z": 4.5463748765,
				"element": "H" 
			},
			{
				"x": -2.4746740906,
				"y": 0.1379609563,
				"z": 2.7952512264,
				"element": "H" 
			},
			{
				"x": 1.5147059545,
				"y": 0.4681523983,
				"z": -0.1427356551,
				"element": "H" 
			},
			{
				"x": 4.0070695847,
				"y": 3.3767698237,
				"z": 0.6141528377,
				"element": "H" 
			},
			{
				"x": 6.4226305442,
				"y": 2.9543806894,
				"z": 0.1244701724,
				"element": "H" 
			},
			{
				"x": 7.4364252347,
				"y": 0.7704042531,
				"z": 0.7357733986,
				"element": "H" 
			},
			{
				"x": 6.0567305214,
				"y": -0.9821946227,
				"z": 1.82585074,
				"element": "H" 
			},
			{
				"x": 3.6623408067,
				"y": -0.5568776828,
				"z": 2.3024855967,
				"element": "H" 
			},
			{
				"x": 2.2796076735,
				"y": 2.5636696713,
				"z": 4.142735066,
				"element": "H" 
			},
			{
				"x": 2.0628948272,
				"y": 2.5618724187,
				"z": 6.5959627682,
				"element": "H" 
			},
			{
				"x": 0.8905649795,
				"y": 0.6972487588,
				"z": 7.748876392,
				"element": "H" 
			},
			{
				"x": -0.0633855388,
				"y": -1.1729847986,
				"z": 6.4135440917,
				"element": "H" 
			},
			{
				"x": 0.1664852087,
				"y": -1.1703538794,
				"z": 3.9340315095,
				"element": "H" 
			}
		],
		 "valence_orbital": [ 
			{
				"type": "occ",
				"energy": -0.24431,
				"method": "rhf"
			},
			{
				"type": "occ",
				"energy": -0.23851,
				"method": "rhf"
			},
			{
				"type": "occ",
				"energy": -0.23422,
				"method": "rhf"
			},
			{
				"type": "occ",
				"energy": -0.22919,
				"method": "rhf"
			},
			{
				"type": "occ",
				"energy": -0.21531,
				"method": "rhf"
			},
			{
				"type": "unocc",
				"energy": -0.07241,
				"method": "rhf"
			},
			{
				"type": "unocc",
				"energy": -0.05922,
				"method": "rhf"
			},
			{
				"type": "unocc",
				"energy": -0.0466,
				"method": "rhf"
			},
			{
				"type": "unocc",
				"energy": -0.03558,
				"method": "rhf"
			},
			{
				"type": "unocc",
				"energy": -0.0185,
				"method": "rhf"
			}
		],
		"cosmo_sigma_profile": { 
			"-0.025": 0.0,
			"-0.024": 0.0,
			"-0.023": 0.0,
			"-0.022": 0.0,
			"-0.021": 0.0,
			"-0.02": 0.0,
			"-0.019": 0.0,
			"-0.018": 0.0,
			"-0.017": 0.0,
			"-0.016": 0.0,
			"-0.015": 0.0,
			"-0.014": 0.0,
			"-0.013": 0.0,
			"-0.012": 0.0,
			"-0.011": 0.0,
			"-0.01": 0.0,
			"-0.009": 0.0,
			"-0.008": 0.0,
			"-0.007": 4.79755152714,
			"-0.006": 28.0106822622,
			"-0.005": 37.9289646101,
			"-0.004": 41.8487200227,
			"-0.003": 45.7207558774,
			"-0.002": 63.3468634081,
			"-0.001": 60.6596993777,
			"0.0": 59.1738507534,
			"0.001": 61.8004775036,
			"0.002": 57.9063493723,
			"0.003": 52.052994777,
			"0.004": 42.4910375319,
			"0.005": 24.6704068347,
			"0.006": 7.43155516728,
			"0.007": 6.3233282994,
			"0.008": 4.85988567999,
			"0.009": 3.2121017587,
			"0.01": 2.75170907639,
			"0.011": 3.42538344024,
			"0.012": 1.30643051976,
			"0.013": 0.666825717631,
			"0.014": 0.217310303018,
			"0.015": 0.405650171435,
			"0.016": 0.0249517208025,
			"0.017": 0.0,
			"0.018": 0.0,
			"0.019": 0.0,
			"0.02": 0.0,
			"0.021": 0.0,
			"0.022": 0.0,
			"0.023": 0.0,
			"0.024": 0.0,
			"0.025": 0.0
		}
	}
}
