{
	 "smiles": "CC(=O)C(=NO)C(=O)C1=CC=CC=C1", 
	 "Tm": 402.15, 
	 "num_atms": 23, 
	 "gaussian": { 
		 "optdone": 1, 
		 "sigma_profile": "yes", 
		 "theory": "DFT", 
		 "functional": "B3LYP", 
		 "basiset": "6-31G**", 
		 "properties": { 
			 "R2extent": 2983.9082, 
			 "electric_dipole_moment_norm": 4.30335121272, 
			 "electric_quadrupole_moment_norm": 12.434664556, 
			 "total_energy": -666.836329328, 
			 "HOMO_LUMO_gap": 0.17703, 
			 "cosmo_polarized_energy": -15.44, 
			 "cosmo_cavitation_energy": 28.95, 
			 "cosmo_dispersion_energy": -19.98, 
			 "cosmo_repulsion_energy": 1.62, 
			 "cosmo_total_nonelectrostatic_energy": 10.58, 
			 "SMD_solvation_energy": 6.62 
		},
		"coords": [
			{
				"x": 0.6050497051,
				"y": 1.7423710314,
				"z": 3.8647745267,
				"element": "C" 
			},
			{
				"x": 0.5504058816,
				"y": 0.6984095311,
				"z": 2.7715631902,
				"element": "C" 
			},
			{
				"x": 1.1075173347,
				"y": -0.3824554519,
				"z": 2.8586168273,
				"element": "O" 
			},
			{
				"x": -0.2223861321,
				"y": 1.0110508091,
				"z": 1.5223117376,
				"element": "C" 
			},
			{
				"x": -0.6868260795,
				"y": 2.2010215114,
				"z": 1.3939510388,
				"element": "N" 
			},
			{
				"x": -1.3557409128,
				"y": 2.3751366043,
				"z": 0.189641529,
				"element": "O" 
			},
			{
				"x": -0.4699290033,
				"y": -0.1360516148,
				"z": 0.5453124786,
				"element": "C" 
			},
			{
				"x": -1.3873192687,
				"y": -0.8984193518,
				"z": 0.7955261277,
				"element": "O" 
			},
			{
				"x": 0.4106548189,
				"y": -0.2796821629,
				"z": -0.6411592769,
				"element": "C" 
			},
			{
				"x": 1.4316699235,
				"y": 0.6389055715,
				"z": -0.9222330668,
				"element": "C" 
			},
			{
				"x": 2.2383706103,
				"y": 0.4655911956,
				"z": -2.0458101773,
				"element": "C" 
			},
			{
				"x": 2.0291964237,
				"y": -0.6255606585,
				"z": -2.8918657406,
				"element": "C" 
			},
			{
				"x": 1.0111058537,
				"y": -1.5451695425,
				"z": -2.61642969,
				"element": "C" 
			},
			{
				"x": 0.2045522187,
				"y": -1.3737539775,
				"z": -1.4967294989,
				"element": "C" 
			},
			{
				"x": 0.9322154835,
				"y": 2.7081396337,
				"z": 3.4702825522,
				"element": "H" 
			},
			{
				"x": 1.2840630715,
				"y": 1.3981548398,
				"z": 4.645642449,
				"element": "H" 
			},
			{
				"x": -0.3947172192,
				"y": 1.8945342174,
				"z": 4.2852842014,
				"element": "H" 
			},
			{
				"x": -1.6560205138,
				"y": 3.2937765387,
				"z": 0.2370782183,
				"element": "H" 
			},
			{
				"x": 1.5920838397,
				"y": 1.4889651312,
				"z": -0.266068784,
				"element": "H" 
			},
			{
				"x": 3.0286209047,
				"y": 1.1784577253,
				"z": -2.2613078134,
				"element": "H" 
			},
			{
				"x": 2.6595311196,
				"y": -0.7610077358,
				"z": -3.766224668,
				"element": "H" 
			},
			{
				"x": 0.8518131226,
				"y": -2.3930548796,
				"z": -3.2760443526,
				"element": "H" 
			},
			{
				"x": -0.5911111824,
				"y": -2.0718589651,
				"z": -1.2587118085,
				"element": "H" 
			}
		],
		 "valence_orbital": [ 
			{
				"type": "occ",
				"energy": -0.28461,
				"method": "rhf"
			},
			{
				"type": "occ",
				"energy": -0.26842,
				"method": "rhf"
			},
			{
				"type": "occ",
				"energy": -0.2637,
				"method": "rhf"
			},
			{
				"type": "occ",
				"energy": -0.26119,
				"method": "rhf"
			},
			{
				"type": "occ",
				"energy": -0.24833,
				"method": "rhf"
			},
			{
				"type": "unocc",
				"energy": -0.0713,
				"method": "rhf"
			},
			{
				"type": "unocc",
				"energy": -0.06351,
				"method": "rhf"
			},
			{
				"type": "unocc",
				"energy": -0.0118,
				"method": "rhf"
			},
			{
				"type": "unocc",
				"energy": 0.03168,
				"method": "rhf"
			},
			{
				"type": "unocc",
				"energy": 0.0432,
				"method": "rhf"
			}
		],
		"cosmo_sigma_profile": { 
			"-0.025": 0.0,
			"-0.024": 0.0,
			"-0.023": 0.0,
			"-0.022": 0.0,
			"-0.021": 0.0,
			"-0.02": 0.0418824186674,
			"-0.019": 0.742208201757,
			"-0.018": 1.08647376278,
			"-0.017": 1.42142598486,
			"-0.016": 0.782184715315,
			"-0.015": 0.324485438024,
			"-0.014": 0.604266021965,
			"-0.013": 0.749699613697,
			"-0.012": 0.707779607503,
			"-0.011": 0.845850417561,
			"-0.01": 1.05060203789,
			"-0.009": 0.510029932856,
			"-0.008": 0.224782162827,
			"-0.007": 7.36669669799,
			"-0.006": 16.113184971,
			"-0.005": 19.0966503308,
			"-0.004": 16.5720476139,
			"-0.003": 13.521267506,
			"-0.002": 14.949489045,
			"-0.001": 14.5241793288,
			"0.0": 11.5118388063,
			"0.001": 13.7403601227,
			"0.002": 15.8007874791,
			"0.003": 21.5525629709,
			"0.004": 11.446055721,
			"0.005": 7.90161629472,
			"0.006": 6.58177568085,
			"0.007": 6.68091345563,
			"0.008": 4.50425532385,
			"0.009": 4.92279160108,
			"0.01": 7.13831226017,
			"0.011": 6.42488092268,
			"0.012": 1.71133829763,
			"0.013": 0.07704947818,
			"0.014": 0.0,
			"0.015": 0.0,
			"0.016": 0.0,
			"0.017": 0.0,
			"0.018": 0.0,
			"0.019": 0.0,
			"0.02": 0.0,
			"0.021": 0.0,
			"0.022": 0.0,
			"0.023": 0.0,
			"0.024": 0.0,
			"0.025": 0.0
		}
	}
}
