{
	 "smiles": "OC(=O)C1=CC2=CC=CC=C2C=C1O", 
	 "Tm": 494.15, 
	 "num_atms": 22, 
	 "gaussian": { 
		 "optdone": 1, 
		 "sigma_profile": "yes", 
		 "theory": "DFT", 
		 "functional": "B3LYP", 
		 "basiset": "6-31G**", 
		 "properties": { 
			 "R2extent": 2959.8766, 
			 "electric_dipole_moment_norm": 4.55316168173, 
			 "electric_quadrupole_moment_norm": 10.6797113571, 
			 "total_energy": -649.689885643, 
			 "HOMO_LUMO_gap": 0.14152, 
			 "cosmo_polarized_energy": -14.18, 
			 "cosmo_cavitation_energy": 26.02, 
			 "cosmo_dispersion_energy": -19.88, 
			 "cosmo_repulsion_energy": 1.51, 
			 "cosmo_total_nonelectrostatic_energy": 7.66, 
			 "SMD_solvation_energy": 5.54 
		},
		"coords": [
			{
				"x": -1.4422154953,
				"y": 2.1574477095,
				"z": 2.9030259383,
				"element": "O" 
			},
			{
				"x": -1.7330970868,
				"y": 0.9520437381,
				"z": 2.3724505519,
				"element": "C" 
			},
			{
				"x": -2.6852334979,
				"y": 0.3328974483,
				"z": 2.8318573446,
				"element": "O" 
			},
			{
				"x": -0.8994573143,
				"y": 0.4383542864,
				"z": 1.2593777474,
				"element": "C" 
			},
			{
				"x": 0.3009113315,
				"y": 1.0304902293,
				"z": 0.887227904,
				"element": "C" 
			},
			{
				"x": 1.0770871044,
				"y": 0.5491562272,
				"z": -0.1860060696,
				"element": "C" 
			},
			{
				"x": 2.3062722852,
				"y": 1.1567328066,
				"z": -0.5695738264,
				"element": "C" 
			},
			{
				"x": 3.0316517177,
				"y": 0.6643142826,
				"z": -1.6269441713,
				"element": "C" 
			},
			{
				"x": 2.5583062498,
				"y": -0.4643722773,
				"z": -2.348260155,
				"element": "C" 
			},
			{
				"x": 1.3780490106,
				"y": -1.0778660183,
				"z": -2.0015135342,
				"element": "C" 
			},
			{
				"x": 0.5988114278,
				"y": -0.5957911248,
				"z": -0.9106220678,
				"element": "C" 
			},
			{
				"x": -0.6080066992,
				"y": -1.210437884,
				"z": -0.515914113,
				"element": "C" 
			},
			{
				"x": -1.3500445141,
				"y": -0.7333870043,
				"z": 0.552465841,
				"element": "C" 
			},
			{
				"x": -2.4774792839,
				"y": -1.3771624018,
				"z": 0.8941151637,
				"element": "O" 
			},
			{
				"x": -0.7727911968,
				"y": 2.6102044035,
				"z": 2.3723833063,
				"element": "H" 
			},
			{
				"x": 0.6980213552,
				"y": 1.8782976971,
				"z": 1.443328023,
				"element": "H" 
			},
			{
				"x": 2.6602488928,
				"y": 2.0201407196,
				"z": -0.011511181,
				"element": "H" 
			},
			{
				"x": 3.9670177006,
				"y": 1.1335949186,
				"z": -1.9157816821,
				"element": "H" 
			},
			{
				"x": 3.1401313934,
				"y": -0.8451250708,
				"z": -3.1827988916,
				"element": "H" 
			},
			{
				"x": 1.0223427894,
				"y": -1.9425281967,
				"z": -2.5547765136,
				"element": "H" 
			},
			{
				"x": -0.9733217467,
				"y": -2.0871975709,
				"z": -1.0410153418,
				"element": "H" 
			},
			{
				"x": -2.8281044234,
				"y": -0.9391069179,
				"z": 1.7062857273,
				"element": "H" 
			}
		],
		 "valence_orbital": [ 
			{
				"type": "occ",
				"energy": -0.32278,
				"method": "rhf"
			},
			{
				"type": "occ",
				"energy": -0.29308,
				"method": "rhf"
			},
			{
				"type": "occ",
				"energy": -0.29118,
				"method": "rhf"
			},
			{
				"type": "occ",
				"energy": -0.25184,
				"method": "rhf"
			},
			{
				"type": "occ",
				"energy": -0.2159,
				"method": "rhf"
			},
			{
				"type": "unocc",
				"energy": -0.07438,
				"method": "rhf"
			},
			{
				"type": "unocc",
				"energy": -0.02639,
				"method": "rhf"
			},
			{
				"type": "unocc",
				"energy": 0.00875,
				"method": "rhf"
			},
			{
				"type": "unocc",
				"energy": 0.03297,
				"method": "rhf"
			},
			{
				"type": "unocc",
				"energy": 0.04613,
				"method": "rhf"
			}
		],
		"cosmo_sigma_profile": { 
			"-0.025": 0.0,
			"-0.024": 0.0,
			"-0.023": 0.0,
			"-0.022": 0.0,
			"-0.021": 0.0,
			"-0.02": 0.22513786905,
			"-0.019": 1.00692945158,
			"-0.018": 1.07581977309,
			"-0.017": 0.497454368223,
			"-0.016": 1.17131933701,
			"-0.015": 0.894814426431,
			"-0.014": 1.26752635873,
			"-0.013": 1.03544144944,
			"-0.012": 0.842881945817,
			"-0.011": 1.16422617238,
			"-0.01": 1.42020403851,
			"-0.009": 1.70755220833,
			"-0.008": 2.30155887778,
			"-0.007": 4.35087252445,
			"-0.006": 12.5954450665,
			"-0.005": 12.051427289,
			"-0.004": 15.0585835688,
			"-0.003": 12.6765058269,
			"-0.002": 11.0553165617,
			"-0.001": 10.4234982067,
			"0.0": 11.3048050395,
			"0.001": 12.6787336391,
			"0.002": 17.5321415781,
			"0.003": 22.0439144371,
			"0.004": 16.2486660184,
			"0.005": 7.24260986075,
			"0.006": 3.64309089931,
			"0.007": 4.12494314527,
			"0.008": 4.28615372901,
			"0.009": 5.29813508493,
			"0.01": 5.3736360603,
			"0.011": 4.413253925,
			"0.012": 2.15173615378,
			"0.013": 0.17759142605,
			"0.014": 0.0,
			"0.015": 0.0,
			"0.016": 0.0,
			"0.017": 0.0,
			"0.018": 0.0,
			"0.019": 0.0,
			"0.02": 0.0,
			"0.021": 0.0,
			"0.022": 0.0,
			"0.023": 0.0,
			"0.024": 0.0,
			"0.025": 0.0
		}
	}
}
