{
	 "smiles": "CCC1=NC2=C(C=CC=C2)N1CC(O)=O", 
	 "Tm": 506.15, 
	 "num_atms": 27, 
	 "gaussian": { 
		 "optdone": 1, 
		 "sigma_profile": "yes", 
		 "theory": "DFT", 
		 "functional": "B3LYP", 
		 "basiset": "6-31G**", 
		 "properties": { 
			 "R2extent": 3911.6125, 
			 "electric_dipole_moment_norm": 2.27790834978, 
			 "electric_quadrupole_moment_norm": 20.7535390348, 
			 "total_energy": -686.378765263, 
			 "HOMO_LUMO_gap": 0.20554, 
			 "cosmo_polarized_energy": -18.09, 
			 "cosmo_cavitation_energy": 30.84, 
			 "cosmo_dispersion_energy": -21.62, 
			 "cosmo_repulsion_energy": 1.7, 
			 "cosmo_total_nonelectrostatic_energy": 10.92, 
			 "SMD_solvation_energy": 4.35 
		},
		"coords": [
			{
				"x": -2.0263701332,
				"y": -1.8993145102,
				"z": 0.9350281775,
				"element": "C" 
			},
			{
				"x": -2.1666769608,
				"y": -0.4217246727,
				"z": 1.3501997161,
				"element": "C" 
			},
			{
				"x": -1.3213272489,
				"y": 0.5064449324,
				"z": 0.5299750171,
				"element": "C" 
			},
			{
				"x": -1.739442665,
				"y": 1.1348939032,
				"z": -0.540476845,
				"element": "N" 
			},
			{
				"x": -0.6440768736,
				"y": 1.8450477727,
				"z": -1.012954543,
				"element": "C" 
			},
			{
				"x": 0.4770432335,
				"y": 1.6298830737,
				"z": -0.1800564115,
				"element": "C" 
			},
			{
				"x": 1.717154069,
				"y": 2.2269094937,
				"z": -0.4149535009,
				"element": "C" 
			},
			{
				"x": 1.8085147377,
				"y": 3.0554285751,
				"z": -1.532439964,
				"element": "C" 
			},
			{
				"x": 0.7021608985,
				"y": 3.2806218894,
				"z": -2.374712941,
				"element": "C" 
			},
			{
				"x": -0.5310861115,
				"y": 2.684381336,
				"z": -2.1276655981,
				"element": "C" 
			},
			{
				"x": 0.0223249257,
				"y": 0.7662207701,
				"z": 0.8185089069,
				"element": "N" 
			},
			{
				"x": 0.8266736341,
				"y": 0.2206358168,
				"z": 1.8934488049,
				"element": "C" 
			},
			{
				"x": 0.9546428817,
				"y": 1.1032604367,
				"z": 3.1497403644,
				"element": "C" 
			},
			{
				"x": 0.3319817134,
				"y": 2.295992733,
				"z": 3.1191579557,
				"element": "O" 
			},
			{
				"x": 1.5811747292,
				"y": 0.7283664922,
				"z": 4.1077489504,
				"element": "O" 
			},
			{
				"x": -2.6932051308,
				"y": -2.5277154314,
				"z": 1.5327099324,
				"element": "H" 
			},
			{
				"x": -1.0049919443,
				"y": -2.2698883988,
				"z": 1.0720283612,
				"element": "H" 
			},
			{
				"x": -2.2882185059,
				"y": -2.0236013308,
				"z": -0.1191759785,
				"element": "H" 
			},
			{
				"x": -1.9393634044,
				"y": -0.3055864383,
				"z": 2.4167100906,
				"element": "H" 
			},
			{
				"x": -3.2022728652,
				"y": -0.1021898945,
				"z": 1.2090348769,
				"element": "H" 
			},
			{
				"x": 2.5726195014,
				"y": 2.0650869393,
				"z": 0.2340328964,
				"element": "H" 
			},
			{
				"x": 2.754236749,
				"y": 3.5398650033,
				"z": -1.7554982169,
				"element": "H" 
			},
			{
				"x": 0.8177990697,
				"y": 3.9353985871,
				"z": -3.2331295893,
				"element": "H" 
			},
			{
				"x": -1.3875778613,
				"y": 2.8545441019,
				"z": -2.7717380386,
				"element": "H" 
			},
			{
				"x": 0.4191996281,
				"y": -0.7386171368,
				"z": 2.2176121673,
				"element": "H" 
			},
			{
				"x": 1.8397181389,
				"y": 0.0232723577,
				"z": 1.5299843004,
				"element": "H" 
			},
			{
				"x": -0.0958342048,
				"y": 2.4220835994,
				"z": 2.2565811087,
				"element": "H" 
			}
		],
		 "valence_orbital": [ 
			{
				"type": "occ",
				"energy": -0.31822,
				"method": "rhf"
			},
			{
				"type": "occ",
				"energy": -0.28397,
				"method": "rhf"
			},
			{
				"type": "occ",
				"energy": -0.27837,
				"method": "rhf"
			},
			{
				"type": "occ",
				"energy": -0.23791,
				"method": "rhf"
			},
			{
				"type": "occ",
				"energy": -0.23342,
				"method": "rhf"
			},
			{
				"type": "unocc",
				"energy": -0.02788,
				"method": "rhf"
			},
			{
				"type": "unocc",
				"energy": -0.00515,
				"method": "rhf"
			},
			{
				"type": "unocc",
				"energy": 0.00712,
				"method": "rhf"
			},
			{
				"type": "unocc",
				"energy": 0.03747,
				"method": "rhf"
			},
			{
				"type": "unocc",
				"energy": 0.05617,
				"method": "rhf"
			}
		],
		"cosmo_sigma_profile": { 
			"-0.025": 0.0,
			"-0.024": 0.0,
			"-0.023": 0.0,
			"-0.022": 0.0,
			"-0.021": 0.0,
			"-0.02": 0.0,
			"-0.019": 0.0,
			"-0.018": 0.0,
			"-0.017": 0.0,
			"-0.016": 0.28797393239,
			"-0.015": 0.519183885932,
			"-0.014": 1.00659911804,
			"-0.013": 0.888330056222,
			"-0.012": 1.15120494739,
			"-0.011": 1.48440937407,
			"-0.01": 2.55677212656,
			"-0.009": 7.53826973924,
			"-0.008": 7.89496049127,
			"-0.007": 8.51514166086,
			"-0.006": 10.4583793073,
			"-0.005": 16.0666344332,
			"-0.004": 16.0841636527,
			"-0.003": 19.1862560447,
			"-0.002": 19.8949936851,
			"-0.001": 16.8014727989,
			"0.0": 16.2800680331,
			"0.001": 9.81833627656,
			"0.002": 9.42315091284,
			"0.003": 9.30593273344,
			"0.004": 12.4558819202,
			"0.005": 12.8723647327,
			"0.006": 7.80170938819,
			"0.007": 4.82970082336,
			"0.008": 4.4995384202,
			"0.009": 5.56321367981,
			"0.01": 5.22907829049,
			"0.011": 5.67891223994,
			"0.012": 5.64247414823,
			"0.013": 1.72280849695,
			"0.014": 0.920855586941,
			"0.015": 1.03185225153,
			"0.016": 0.904181129838,
			"0.017": 0.68532579135,
			"0.018": 0.22571436948,
			"0.019": 0.0,
			"0.02": 0.0,
			"0.021": 0.0,
			"0.022": 0.0,
			"0.023": 0.0,
			"0.024": 0.0,
			"0.025": 0.0
		}
	}
}
