{
	 "smiles": "CC(=O)CCC1=CC=C(OCC(O)=O)C=C1", 
	 "Tm": 380.15, 
	 "num_atms": 30, 
	 "gaussian": { 
		 "optdone": 1, 
		 "sigma_profile": "yes", 
		 "theory": "DFT", 
		 "functional": "B3LYP", 
		 "basiset": "6-31G**", 
		 "properties": { 
			 "R2extent": 5767.5904, 
			 "electric_dipole_moment_norm": 6.14810118411, 
			 "electric_quadrupole_moment_norm": 20.188757593, 
			 "total_energy": -766.608928638, 
			 "HOMO_LUMO_gap": 0.21352, 
			 "cosmo_polarized_energy": -19.17, 
			 "cosmo_cavitation_energy": 34.29, 
			 "cosmo_dispersion_energy": -23.69, 
			 "cosmo_repulsion_energy": 1.89, 
			 "cosmo_total_nonelectrostatic_energy": 12.48, 
			 "SMD_solvation_energy": 7.75 
		},
		"coords": [
			{
				"x": 2.2848595222,
				"y": -2.1980857378,
				"z": 0.7803782311,
				"element": "C" 
			},
			{
				"x": 2.6428934154,
				"y": -0.7544121789,
				"z": 1.0936166077,
				"element": "C" 
			},
			{
				"x": 3.4102179226,
				"y": -0.1263061561,
				"z": 0.3899086724,
				"element": "O" 
			},
			{
				"x": 2.0276839498,
				"y": -0.1241037817,
				"z": 2.3412908667,
				"element": "C" 
			},
			{
				"x": 0.4967537562,
				"y": -0.2813006422,
				"z": 2.4882001211,
				"element": "C" 
			},
			{
				"x": -0.3109362683,
				"y": 0.3496366878,
				"z": 1.3700310285,
				"element": "C" 
			},
			{
				"x": -0.2467888301,
				"y": 1.7249036514,
				"z": 1.1160286633,
				"element": "C" 
			},
			{
				"x": -0.988546592,
				"y": 2.3195860113,
				"z": 0.0937648158,
				"element": "C" 
			},
			{
				"x": -1.8237001587,
				"y": 1.5239348424,
				"z": -0.6959807137,
				"element": "C" 
			},
			{
				"x": -2.5906720629,
				"y": 2.0010812026,
				"z": -1.7462705397,
				"element": "O" 
			},
			{
				"x": -2.8386192662,
				"y": 3.4016765252,
				"z": -1.820239912,
				"element": "C" 
			},
			{
				"x": -1.74946227,
				"y": 4.1611915861,
				"z": -2.5872094779,
				"element": "C" 
			},
			{
				"x": -0.9607116221,
				"y": 3.3871558145,
				"z": -3.3540138339,
				"element": "O" 
			},
			{
				"x": -1.6437508314,
				"y": 5.3609187142,
				"z": -2.5367785088,
				"element": "O" 
			},
			{
				"x": -1.9077931271,
				"y": 0.1497737325,
				"z": -0.4618320846,
				"element": "C" 
			},
			{
				"x": -1.1558879186,
				"y": -0.4230419771,
				"z": 0.5604055928,
				"element": "C" 
			},
			{
				"x": 2.9817048019,
				"y": -2.5902448968,
				"z": 0.0382864957,
				"element": "H" 
			},
			{
				"x": 1.2706693375,
				"y": -2.2427569131,
				"z": 0.366391931,
				"element": "H" 
			},
			{
				"x": 2.2979650138,
				"y": -2.8245294306,
				"z": 1.6789531564,
				"element": "H" 
			},
			{
				"x": 2.507415239,
				"y": -0.5915661507,
				"z": 3.2135442735,
				"element": "H" 
			},
			{
				"x": 2.317192452,
				"y": 0.9302049982,
				"z": 2.3401179621,
				"element": "H" 
			},
			{
				"x": 0.2391072324,
				"y": -1.3433006523,
				"z": 2.5650710742,
				"element": "H" 
			},
			{
				"x": 0.2087919753,
				"y": 0.167678555,
				"z": 3.447206368,
				"element": "H" 
			},
			{
				"x": 0.3974813984,
				"y": 2.35607889,
				"z": 1.7221999065,
				"element": "H" 
			},
			{
				"x": -0.8948293424,
				"y": 3.3861819211,
				"z": -0.0776356829,
				"element": "H" 
			},
			{
				"x": -3.7768714288,
				"y": 3.5137437695,
				"z": -2.3731172171,
				"element": "H" 
			},
			{
				"x": -2.9670978531,
				"y": 3.8541311734,
				"z": -0.8334530423,
				"element": "H" 
			},
			{
				"x": -1.2265325093,
				"y": 2.4603922637,
				"z": -3.217946069,
				"element": "H" 
			},
			{
				"x": -2.5678335873,
				"y": -0.4490667434,
				"z": -1.0807978709,
				"element": "H" 
			},
			{
				"x": -1.2408023484,
				"y": -1.4918550782,
				"z": 0.7410791859,
				"element": "H" 
			}
		],
		 "valence_orbital": [ 
			{
				"type": "occ",
				"energy": -0.31845,
				"method": "rhf"
			},
			{
				"type": "occ",
				"energy": -0.27549,
				"method": "rhf"
			},
			{
				"type": "occ",
				"energy": -0.26721,
				"method": "rhf"
			},
			{
				"type": "occ",
				"energy": -0.24542,
				"method": "rhf"
			},
			{
				"type": "occ",
				"energy": -0.23553,
				"method": "rhf"
			},
			{
				"type": "unocc",
				"energy": -0.02201,
				"method": "rhf"
			},
			{
				"type": "unocc",
				"energy": -0.0156,
				"method": "rhf"
			},
			{
				"type": "unocc",
				"energy": -0.00677,
				"method": "rhf"
			},
			{
				"type": "unocc",
				"energy": 0.00362,
				"method": "rhf"
			},
			{
				"type": "unocc",
				"energy": 0.0663,
				"method": "rhf"
			}
		],
		"cosmo_sigma_profile": { 
			"-0.025": 0.0,
			"-0.024": 0.0,
			"-0.023": 0.0,
			"-0.022": 0.0,
			"-0.021": 0.0,
			"-0.02": 0.0,
			"-0.019": 0.0,
			"-0.018": 0.0,
			"-0.017": 0.0,
			"-0.016": 0.211954532572,
			"-0.015": 0.663491486208,
			"-0.014": 0.546932464514,
			"-0.013": 0.448794506865,
			"-0.012": 0.836684972739,
			"-0.011": 0.909961607706,
			"-0.01": 1.75885997624,
			"-0.009": 4.79911751292,
			"-0.008": 5.79913134767,
			"-0.007": 6.62678264767,
			"-0.006": 17.7602781037,
			"-0.005": 25.4700242024,
			"-0.004": 24.3063959631,
			"-0.003": 21.9852681819,
			"-0.002": 20.8235569339,
			"-0.001": 18.5061727179,
			"0.0": 13.5586888073,
			"0.001": 10.8961392799,
			"0.002": 10.6495567941,
			"0.003": 11.8179133562,
			"0.004": 13.0947233188,
			"0.005": 10.4501140377,
			"0.006": 4.56166202642,
			"0.007": 4.78031283019,
			"0.008": 5.48811612309,
			"0.009": 6.41751964737,
			"0.01": 6.70144818157,
			"0.011": 7.6253199089,
			"0.012": 8.98471388396,
			"0.013": 4.1228987475,
			"0.014": 0.417900572867,
			"0.015": 0.0,
			"0.016": 0.0,
			"0.017": 0.0,
			"0.018": 0.0,
			"0.019": 0.0,
			"0.02": 0.0,
			"0.021": 0.0,
			"0.022": 0.0,
			"0.023": 0.0,
			"0.024": 0.0,
			"0.025": 0.0
		}
	}
}
