{
	 "smiles": "COC1CCC=CO1", 
	 "Tm": 289.15, 
	 "num_atms": 18, 
	 "gaussian": { 
		 "optdone": 1, 
		 "sigma_profile": "yes", 
		 "theory": "DFT", 
		 "functional": "B3LYP", 
		 "basiset": "6-31G**", 
		 "properties": { 
			 "R2extent": 1352.3716, 
			 "electric_dipole_moment_norm": 1.70120984596, 
			 "electric_quadrupole_moment_norm": 5.37447237503, 
			 "total_energy": -385.070219469, 
			 "HOMO_LUMO_gap": 0.2552, 
			 "cosmo_polarized_energy": -5.47, 
			 "cosmo_cavitation_energy": 19.51, 
			 "cosmo_dispersion_energy": -15.1, 
			 "cosmo_repulsion_energy": 1.26, 
			 "cosmo_total_nonelectrostatic_energy": 5.67, 
			 "SMD_solvation_energy": 4.07 
		},
		"coords": [
			{
				"x": -1.5178134441,
				"y": 0.5098454299,
				"z": -2.904308342,
				"element": "C" 
			},
			{
				"x": -1.5061628736,
				"y": 1.6923782224,
				"z": -2.1159589697,
				"element": "O" 
			},
			{
				"x": -1.344941936,
				"y": 1.5666731459,
				"z": -0.7260071391,
				"element": "C" 
			},
			{
				"x": 0.0592876379,
				"y": 1.1573459675,
				"z": -0.2523134125,
				"element": "C" 
			},
			{
				"x": 0.33689735,
				"y": -0.3553337508,
				"z": -0.2799394466,
				"element": "C" 
			},
			{
				"x": -0.8683050154,
				"y": -1.0947795069,
				"z": 0.2299319792,
				"element": "C" 
			},
			{
				"x": -2.0720753723,
				"y": -0.5166089525,
				"z": 0.2625703253,
				"element": "C" 
			},
			{
				"x": -2.3795161665,
				"y": 0.7487039319,
				"z": -0.1605346585,
				"element": "O" 
			},
			{
				"x": -0.5233096617,
				"y": 0.0540733561,
				"z": -2.9938541499,
				"element": "H" 
			},
			{
				"x": -1.8470766452,
				"y": 0.8149348965,
				"z": -3.9003800182,
				"element": "H" 
			},
			{
				"x": -2.2202233014,
				"y": -0.2330524365,
				"z": -2.5123912735,
				"element": "H" 
			},
			{
				"x": -1.5599319345,
				"y": 2.5753422091,
				"z": -0.360828758,
				"element": "H" 
			},
			{
				"x": 0.1520794288,
				"y": 1.5060068842,
				"z": 0.783054018,
				"element": "H" 
			},
			{
				"x": 0.786158854,
				"y": 1.7176962834,
				"z": -0.8480146377,
				"element": "H" 
			},
			{
				"x": 0.6034453745,
				"y": -0.6889152092,
				"z": -1.2919714586,
				"element": "H" 
			},
			{
				"x": 1.2136205934,
				"y": -0.5749003226,
				"z": 0.3422117982,
				"element": "H" 
			},
			{
				"x": -0.7730444406,
				"y": -2.1127559028,
				"z": 0.5930479271,
				"element": "H" 
			},
			{
				"x": -2.9614884473,
				"y": -1.0082542458,
				"z": 0.6448862165,
				"element": "H" 
			}
		],
		 "valence_orbital": [ 
			{
				"type": "occ",
				"energy": -0.33496,
				"method": "rhf"
			},
			{
				"type": "occ",
				"energy": -0.32172,
				"method": "rhf"
			},
			{
				"type": "occ",
				"energy": -0.31274,
				"method": "rhf"
			},
			{
				"type": "occ",
				"energy": -0.26052,
				"method": "rhf"
			},
			{
				"type": "occ",
				"energy": -0.21669,
				"method": "rhf"
			},
			{
				"type": "unocc",
				"energy": 0.03851,
				"method": "rhf"
			},
			{
				"type": "unocc",
				"energy": 0.08149,
				"method": "rhf"
			},
			{
				"type": "unocc",
				"energy": 0.11376,
				"method": "rhf"
			},
			{
				"type": "unocc",
				"energy": 0.12701,
				"method": "rhf"
			},
			{
				"type": "unocc",
				"energy": 0.13238,
				"method": "rhf"
			}
		],
		"cosmo_sigma_profile": { 
			"-0.025": 0.0,
			"-0.024": 0.0,
			"-0.023": 0.0,
			"-0.022": 0.0,
			"-0.021": 0.0,
			"-0.02": 0.0,
			"-0.019": 0.0,
			"-0.018": 0.0,
			"-0.017": 0.0,
			"-0.016": 0.0,
			"-0.015": 0.0,
			"-0.014": 0.0,
			"-0.013": 0.0,
			"-0.012": 0.0,
			"-0.011": 0.0,
			"-0.01": 0.0,
			"-0.009": 0.0,
			"-0.008": 0.0,
			"-0.007": 1.05531262149,
			"-0.006": 3.52877168105,
			"-0.005": 9.82686051229,
			"-0.004": 17.0102233364,
			"-0.003": 20.0632983978,
			"-0.002": 22.6291674074,
			"-0.001": 16.1883974811,
			"0.0": 12.3879478859,
			"0.001": 7.03070810676,
			"0.002": 6.83444030827,
			"0.003": 4.70295905055,
			"0.004": 6.03069962914,
			"0.005": 4.85111384223,
			"0.006": 3.65759328743,
			"0.007": 2.91083097162,
			"0.008": 2.48301338136,
			"0.009": 3.09386538972,
			"0.01": 2.46280628348,
			"0.011": 3.06059659393,
			"0.012": 2.0719201406,
			"0.013": 0.749860993341,
			"0.014": 0.0,
			"0.015": 0.0,
			"0.016": 0.0,
			"0.017": 0.0,
			"0.018": 0.0,
			"0.019": 0.0,
			"0.02": 0.0,
			"0.021": 0.0,
			"0.022": 0.0,
			"0.023": 0.0,
			"0.024": 0.0,
			"0.025": 0.0
		}
	}
}
