{
	 "smiles": "NC(=S)C1CCN(CC1)C(=O)OCC1=CC=CC=C1", 
	 "Tm": 402.15, 
	 "num_atms": 37, 
	 "gaussian": { 
		 "optdone": 1, 
		 "sigma_profile": "yes", 
		 "theory": "DFT", 
		 "functional": "B3LYP", 
		 "basiset": "6-31G**", 
		 "properties": { 
			 "R2extent": 9975.8799, 
			 "electric_dipole_moment_norm": 3.85815270175, 
			 "electric_quadrupole_moment_norm": 28.9808515827, 
			 "total_energy": -1202.51316367, 
			 "HOMO_LUMO_gap": 0.17441, 
			 "cosmo_polarized_energy": -22.4, 
			 "cosmo_cavitation_energy": 41.45, 
			 "cosmo_dispersion_energy": -29.6, 
			 "cosmo_repulsion_energy": 2.27, 
			 "cosmo_total_nonelectrostatic_energy": 14.12, 
			 "SMD_solvation_energy": 6.03 
		},
		"coords": [
			{
				"x": 0.3661927921,
				"y": -0.6577036287,
				"z": -5.5092229978,
				"element": "N" 
			},
			{
				"x": 0.5908546447,
				"y": 0.6577621545,
				"z": -5.3197875906,
				"element": "C" 
			},
			{
				"x": 0.2728948376,
				"y": 1.7860551276,
				"z": -6.500927438,
				"element": "S" 
			},
			{
				"x": 1.1366598916,
				"y": 1.0382480473,
				"z": -3.9488614311,
				"element": "C" 
			},
			{
				"x": 0.1017326752,
				"y": 0.7942506123,
				"z": -2.8258951279,
				"element": "C" 
			},
			{
				"x": 0.6619288604,
				"y": 1.2260848117,
				"z": -1.4635057564,
				"element": "C" 
			},
			{
				"x": 1.94732838,
				"y": 0.5794939826,
				"z": -1.2070724092,
				"element": "N" 
			},
			{
				"x": 2.9735631988,
				"y": 0.7772394078,
				"z": -2.2269411156,
				"element": "C" 
			},
			{
				"x": 2.4655380508,
				"y": 0.3292186266,
				"z": -3.6030162629,
				"element": "C" 
			},
			{
				"x": 2.2719239126,
				"y": -0.0885252813,
				"z": -0.0569989108,
				"element": "C" 
			},
			{
				"x": 3.359168683,
				"y": -0.5950044362,
				"z": 0.1735046143,
				"element": "O" 
			},
			{
				"x": 1.223311339,
				"y": -0.1355136795,
				"z": 0.810944619,
				"element": "O" 
			},
			{
				"x": 1.4858188242,
				"y": -0.8428919783,
				"z": 2.0433956287,
				"element": "C" 
			},
			{
				"x": 0.3266760758,
				"y": -0.61191385,
				"z": 2.9777231783,
				"element": "C" 
			},
			{
				"x": -0.363915049,
				"y": -1.6931927441,
				"z": 3.5338470009,
				"element": "C" 
			},
			{
				"x": -1.4153425992,
				"y": -1.4822335187,
				"z": 4.4291400223,
				"element": "C" 
			},
			{
				"x": -1.7926456768,
				"y": -0.1831737644,
				"z": 4.7683693956,
				"element": "C" 
			},
			{
				"x": -1.1122750362,
				"y": 0.9039735029,
				"z": 4.2119733145,
				"element": "C" 
			},
			{
				"x": -0.0576451075,
				"y": 0.6905274846,
				"z": 3.3265744881,
				"element": "C" 
			},
			{
				"x": 0.5647326997,
				"y": -1.3462813364,
				"z": -4.7985956932,
				"element": "H" 
			},
			{
				"x": -0.0024593818,
				"y": -0.968483737,
				"z": -6.396222518,
				"element": "H" 
			},
			{
				"x": 1.3310964921,
				"y": 2.1139954151,
				"z": -3.9976142571,
				"element": "H" 
			},
			{
				"x": -0.8163667804,
				"y": 1.3525028044,
				"z": -3.0382549347,
				"element": "H" 
			},
			{
				"x": -0.1649718894,
				"y": -0.2692605555,
				"z": -2.7776612466,
				"element": "H" 
			},
			{
				"x": -0.0290275186,
				"y": 0.9710493225,
				"z": -0.6624185134,
				"element": "H" 
			},
			{
				"x": 0.7980829037,
				"y": 2.3188282909,
				"z": -1.4552119835,
				"element": "H" 
			},
			{
				"x": 3.8557721581,
				"y": 0.2138711944,
				"z": -1.9236072734,
				"element": "H" 
			},
			{
				"x": 3.2475180139,
				"y": 1.8429196695,
				"z": -2.2663280651,
				"element": "H" 
			},
			{
				"x": 2.3323456459,
				"y": -0.7603782165,
				"z": -3.5861138721,
				"element": "H" 
			},
			{
				"x": 3.21994454,
				"y": 0.5533803907,
				"z": -4.3650034743,
				"element": "H" 
			},
			{
				"x": 2.4283030393,
				"y": -0.4741734258,
				"z": 2.4604617992,
				"element": "H" 
			},
			{
				"x": 1.6186166604,
				"y": -1.9079781176,
				"z": 1.8290913042,
				"element": "H" 
			},
			{
				"x": -0.0774958644,
				"y": -2.7070609641,
				"z": 3.2654077585,
				"element": "H" 
			},
			{
				"x": -1.9412349046,
				"y": -2.3321139474,
				"z": 4.8546719433,
				"element": "H" 
			},
			{
				"x": -2.6122928921,
				"y": -0.016224282,
				"z": 5.4613250769,
				"element": "H" 
			},
			{
				"x": -1.4023364473,
				"y": 1.9179434999,
				"z": 4.4725619572,
				"element": "H" 
			},
			{
				"x": 0.4698048283,
				"y": 1.5359631182,
				"z": 2.8937687706,
				"element": "H" 
			}
		],
		 "valence_orbital": [ 
			{
				"type": "occ",
				"energy": -0.25577,
				"method": "rhf"
			},
			{
				"type": "occ",
				"energy": -0.25019,
				"method": "rhf"
			},
			{
				"type": "occ",
				"energy": -0.24427,
				"method": "rhf"
			},
			{
				"type": "occ",
				"energy": -0.23304,
				"method": "rhf"
			},
			{
				"type": "occ",
				"energy": -0.20718,
				"method": "rhf"
			},
			{
				"type": "unocc",
				"energy": -0.03277,
				"method": "rhf"
			},
			{
				"type": "unocc",
				"energy": -0.01253,
				"method": "rhf"
			},
			{
				"type": "unocc",
				"energy": -0.00595,
				"method": "rhf"
			},
			{
				"type": "unocc",
				"energy": 0.04548,
				"method": "rhf"
			},
			{
				"type": "unocc",
				"energy": 0.05051,
				"method": "rhf"
			}
		],
		"cosmo_sigma_profile": { 
			"-0.025": 0.0,
			"-0.024": 0.0,
			"-0.023": 0.0,
			"-0.022": 0.0,
			"-0.021": 0.0,
			"-0.02": 0.0,
			"-0.019": 0.0,
			"-0.018": 0.0,
			"-0.017": 0.0,
			"-0.016": 0.0927533888837,
			"-0.015": 1.37802624354,
			"-0.014": 3.04442803243,
			"-0.013": 2.86345051801,
			"-0.012": 2.56753254175,
			"-0.011": 2.30262992196,
			"-0.01": 2.53059904348,
			"-0.009": 2.40653526946,
			"-0.008": 1.4950359745,
			"-0.007": 2.11563581707,
			"-0.006": 11.2379854772,
			"-0.005": 24.6773070784,
			"-0.004": 37.2770460505,
			"-0.003": 36.1378824831,
			"-0.002": 25.8773010534,
			"-0.001": 23.2963395075,
			"0.0": 18.7709607395,
			"0.001": 14.7219193329,
			"0.002": 13.7613973013,
			"0.003": 13.1431121201,
			"0.004": 15.3933106625,
			"0.005": 16.0991979284,
			"0.006": 13.1660516307,
			"0.007": 6.45069166344,
			"0.008": 5.5832278563,
			"0.009": 7.31542138015,
			"0.01": 7.43287553538,
			"0.011": 5.67770411835,
			"0.012": 5.12754470646,
			"0.013": 5.55789036061,
			"0.014": 1.88336332553,
			"0.015": 0.0,
			"0.016": 0.0,
			"0.017": 0.0,
			"0.018": 0.0,
			"0.019": 0.0,
			"0.02": 0.0,
			"0.021": 0.0,
			"0.022": 0.0,
			"0.023": 0.0,
			"0.024": 0.0,
			"0.025": 0.0
		}
	}
}
