{
	 "smiles": "NC1=CC=CC(O)=C1", 
	 "Tm": 397.15, 
	 "num_atms": 15, 
	 "gaussian": { 
		 "optdone": 1, 
		 "sigma_profile": "yes", 
		 "theory": "DFT", 
		 "functional": "B3LYP", 
		 "basiset": "6-31G**", 
		 "properties": { 
			 "R2extent": 1137.3534, 
			 "electric_dipole_moment_norm": 2.73361228048, 
			 "electric_quadrupole_moment_norm": 8.343326218, 
			 "total_energy": -362.82980852, 
			 "HOMO_LUMO_gap": 0.20942, 
			 "cosmo_polarized_energy": -12.45, 
			 "cosmo_cavitation_energy": 18.72, 
			 "cosmo_dispersion_energy": -14.25, 
			 "cosmo_repulsion_energy": 1.19, 
			 "cosmo_total_nonelectrostatic_energy": 5.66, 
			 "SMD_solvation_energy": 3.56 
		},
		"coords": [
			{
				"x": 0.9652497611,
				"y": -1.2256472327,
				"z": 1.0977494845,
				"element": "N" 
			},
			{
				"x": -0.0867402546,
				"y": -0.5384094058,
				"z": 0.485359226,
				"element": "C" 
			},
			{
				"x": -0.9845478431,
				"y": 0.2261121294,
				"z": 1.2488516471,
				"element": "C" 
			},
			{
				"x": -2.0612243012,
				"y": 0.8556174574,
				"z": 0.6261237236,
				"element": "C" 
			},
			{
				"x": -2.2746931342,
				"y": 0.7490745509,
				"z": -0.7461780332,
				"element": "C" 
			},
			{
				"x": -1.3791539416,
				"y": -0.0136699863,
				"z": -1.5040300989,
				"element": "C" 
			},
			{
				"x": -1.611422587,
				"y": -0.1006834126,
				"z": -2.8493740209,
				"element": "O" 
			},
			{
				"x": -0.2938936357,
				"y": -0.6513479385,
				"z": -0.8993033762,
				"element": "C" 
			},
			{
				"x": 1.7554892908,
				"y": -1.4214966437,
				"z": 0.4983570675,
				"element": "H" 
			},
			{
				"x": 1.2594976354,
				"y": -0.8419446249,
				"z": 1.9855585294,
				"element": "H" 
			},
			{
				"x": -0.8373721408,
				"y": 0.3174596371,
				"z": 2.3214533287,
				"element": "H" 
			},
			{
				"x": -2.7484590028,
				"y": 1.4459163179,
				"z": 1.2262658482,
				"element": "H" 
			},
			{
				"x": -3.1084205683,
				"y": 1.2358266351,
				"z": -1.239049344,
				"element": "H" 
			},
			{
				"x": -0.9366961046,
				"y": -0.6639312889,
				"z": -3.2496311636,
				"element": "H" 
			},
			{
				"x": 0.3918868267,
				"y": -1.2462761942,
				"z": -1.5009528183,
				"element": "H" 
			}
		],
		 "valence_orbital": [ 
			{
				"type": "occ",
				"energy": -0.3517,
				"method": "rhf"
			},
			{
				"type": "occ",
				"energy": -0.3397,
				"method": "rhf"
			},
			{
				"type": "occ",
				"energy": -0.28875,
				"method": "rhf"
			},
			{
				"type": "occ",
				"energy": -0.22247,
				"method": "rhf"
			},
			{
				"type": "occ",
				"energy": -0.19516,
				"method": "rhf"
			},
			{
				"type": "unocc",
				"energy": 0.01426,
				"method": "rhf"
			},
			{
				"type": "unocc",
				"energy": 0.02968,
				"method": "rhf"
			},
			{
				"type": "unocc",
				"energy": 0.07574,
				"method": "rhf"
			},
			{
				"type": "unocc",
				"energy": 0.08204,
				"method": "rhf"
			},
			{
				"type": "unocc",
				"energy": 0.11043,
				"method": "rhf"
			}
		],
		"cosmo_sigma_profile": { 
			"-0.025": 0.0,
			"-0.024": 0.0,
			"-0.023": 0.0,
			"-0.022": 0.0,
			"-0.021": 0.0,
			"-0.02": 0.0,
			"-0.019": 0.0,
			"-0.018": 0.125215086887,
			"-0.017": 0.897330006394,
			"-0.016": 1.12022587155,
			"-0.015": 1.08444593019,
			"-0.014": 0.908276324894,
			"-0.013": 0.964455656256,
			"-0.012": 2.96414052032,
			"-0.011": 3.28697016044,
			"-0.01": 3.86375300325,
			"-0.009": 4.64976286736,
			"-0.008": 4.00681140118,
			"-0.007": 4.7151582013,
			"-0.006": 4.04042761088,
			"-0.005": 7.45206038659,
			"-0.004": 7.8643187598,
			"-0.003": 7.20461770324,
			"-0.002": 7.74826006623,
			"-0.001": 5.07219535681,
			"0.0": 6.16963493112,
			"0.001": 5.84397465712,
			"0.002": 5.27657282982,
			"0.003": 5.94927344012,
			"0.004": 8.68055664334,
			"0.005": 9.87033825485,
			"0.006": 11.4563048474,
			"0.007": 11.9014446139,
			"0.008": 3.51266490569,
			"0.009": 1.99316809605,
			"0.01": 2.46718227982,
			"0.011": 2.95348995538,
			"0.012": 2.28563425159,
			"0.013": 0.641760636064,
			"0.014": 0.755733039551,
			"0.015": 0.359618490682,
			"0.016": 0.0,
			"0.017": 0.0,
			"0.018": 0.0,
			"0.019": 0.0,
			"0.02": 0.0,
			"0.021": 0.0,
			"0.022": 0.0,
			"0.023": 0.0,
			"0.024": 0.0,
			"0.025": 0.0
		}
	}
}
