{
	 "smiles": "NC(=O)NCC1=C(Cl)C=CC=C1", 
	 "Tm": 423.15, 
	 "num_atms": 21, 
	 "gaussian": { 
		 "optdone": 1, 
		 "sigma_profile": "yes", 
		 "theory": "DFT", 
		 "functional": "B3LYP", 
		 "basiset": "6-31G**", 
		 "properties": { 
			 "R2extent": 2899.2699, 
			 "electric_dipole_moment_norm": 2.15171295948, 
			 "electric_quadrupole_moment_norm": 14.3305262496, 
			 "total_energy": -955.22021071, 
			 "HOMO_LUMO_gap": 0.23052, 
			 "cosmo_polarized_energy": -15.18, 
			 "cosmo_cavitation_energy": 26.67, 
			 "cosmo_dispersion_energy": -19.47, 
			 "cosmo_repulsion_energy": 1.58, 
			 "cosmo_total_nonelectrostatic_energy": 8.78, 
			 "SMD_solvation_energy": 4.17 
		},
		"coords": [
			{
				"x": 0.2704420363,
				"y": 2.4292767627,
				"z": -0.1087654683,
				"element": "N" 
			},
			{
				"x": -0.3015100027,
				"y": 1.8149893157,
				"z": 0.9916294331,
				"element": "C" 
			},
			{
				"x": -0.0970819422,
				"y": 2.1920010306,
				"z": 2.1385119937,
				"element": "O" 
			},
			{
				"x": -1.117385273,
				"y": 0.7246630357,
				"z": 0.720276654,
				"element": "N" 
			},
			{
				"x": -1.0516142277,
				"y": -0.1222818941,
				"z": -0.4562677483,
				"element": "C" 
			},
			{
				"x": 0.1144681922,
				"y": -1.1049140629,
				"z": -0.5091985846,
				"element": "C" 
			},
			{
				"x": 0.2589272956,
				"y": -1.989195625,
				"z": -1.5874844533,
				"element": "C" 
			},
			{
				"x": -0.9145577879,
				"y": -1.9555434991,
				"z": -2.9091517701,
				"element": "Cl" 
			},
			{
				"x": 1.3046521348,
				"y": -2.9064310026,
				"z": -1.6629001346,
				"element": "C" 
			},
			{
				"x": 2.2450281468,
				"y": -2.9531260274,
				"z": -0.6336042805,
				"element": "C" 
			},
			{
				"x": 2.1282520291,
				"y": -2.0852962067,
				"z": 0.4512408479,
				"element": "C" 
			},
			{
				"x": 1.0736423555,
				"y": -1.1734647743,
				"z": 0.5079693892,
				"element": "C" 
			},
			{
				"x": 0.6862373372,
				"y": 3.3203459077,
				"z": 0.1201551725,
				"element": "H" 
			},
			{
				"x": -0.2090225169,
				"y": 2.3985982527,
				"z": -0.9966240822,
				"element": "H" 
			},
			{
				"x": -1.4086624648,
				"y": 0.2792474072,
				"z": 1.5801268242,
				"element": "H" 
			},
			{
				"x": -1.9930158249,
				"y": -0.6797971796,
				"z": -0.5170722493,
				"element": "H" 
			},
			{
				"x": -1.0414903161,
				"y": 0.4985789372,
				"z": -1.3586143875,
				"element": "H" 
			},
			{
				"x": 1.3754760238,
				"y": -3.5709096549,
				"z": -2.5170387383,
				"element": "H" 
			},
			{
				"x": 3.062749532,
				"y": -3.6655006894,
				"z": -0.6856849885,
				"element": "H" 
			},
			{
				"x": 2.8573904828,
				"y": -2.1133949366,
				"z": 1.2551196449,
				"element": "H" 
			},
			{
				"x": 0.99177479,
				"y": -0.4984450968,
				"z": 1.353476926,
				"element": "H" 
			}
		],
		 "valence_orbital": [ 
			{
				"type": "occ",
				"energy": -0.27388,
				"method": "rhf"
			},
			{
				"type": "occ",
				"energy": -0.26278,
				"method": "rhf"
			},
			{
				"type": "occ",
				"energy": -0.26012,
				"method": "rhf"
			},
			{
				"type": "occ",
				"energy": -0.24971,
				"method": "rhf"
			},
			{
				"type": "occ",
				"energy": -0.2475,
				"method": "rhf"
			},
			{
				"type": "unocc",
				"energy": -0.01698,
				"method": "rhf"
			},
			{
				"type": "unocc",
				"energy": -0.0139,
				"method": "rhf"
			},
			{
				"type": "unocc",
				"energy": 0.02424,
				"method": "rhf"
			},
			{
				"type": "unocc",
				"energy": 0.05348,
				"method": "rhf"
			},
			{
				"type": "unocc",
				"energy": 0.06471,
				"method": "rhf"
			}
		],
		"cosmo_sigma_profile": { 
			"-0.025": 0.0,
			"-0.024": 0.0,
			"-0.023": 0.0,
			"-0.022": 0.0,
			"-0.021": 0.0,
			"-0.02": 0.0,
			"-0.019": 0.0,
			"-0.018": 0.0,
			"-0.017": 0.0,
			"-0.016": 0.0,
			"-0.015": 0.0516332788438,
			"-0.014": 1.14258516372,
			"-0.013": 3.24709491861,
			"-0.012": 3.87815482555,
			"-0.011": 3.26628870895,
			"-0.01": 3.83239881503,
			"-0.009": 3.34437715951,
			"-0.008": 3.45022541365,
			"-0.007": 6.42931497421,
			"-0.006": 10.414215714,
			"-0.005": 11.8442645694,
			"-0.004": 12.979365067,
			"-0.003": 10.8708034047,
			"-0.002": 11.3326896531,
			"-0.001": 12.1980812186,
			"0.0": 11.3981696889,
			"0.001": 12.4928471569,
			"0.002": 16.4174537276,
			"0.003": 17.7601988408,
			"0.004": 20.1118716509,
			"0.005": 12.3032877041,
			"0.006": 2.84598231479,
			"0.007": 2.32440122704,
			"0.008": 2.26353287289,
			"0.009": 1.4633820351,
			"0.01": 1.69068245553,
			"0.011": 1.30903123645,
			"0.012": 1.95755288597,
			"0.013": 1.68203145488,
			"0.014": 5.51802564671,
			"0.015": 4.02013091634,
			"0.016": 0.0588979992368,
			"0.017": 0.0,
			"0.018": 0.0,
			"0.019": 0.0,
			"0.02": 0.0,
			"0.021": 0.0,
			"0.022": 0.0,
			"0.023": 0.0,
			"0.024": 0.0,
			"0.025": 0.0
		}
	}
}
