{
	 "smiles": "NC1=C(Cl)C=C(Cl)C=C1I", 
	 "Tm": 353.15, 
	 "num_atms": 14, 
	 "gaussian": { 
		 "optdone": 1, 
		 "sigma_profile": "no", 
		 "theory": "DFT", 
		 "functional": "B3LYP", 
		 "basiset": "6-31G**", 
		 "properties": { 
			 "R2extent": 3098.1079, 
			 "electric_dipole_moment_norm": 2.15733124717, 
			 "electric_quadrupole_moment_norm": 4.98835849153, 
			 "total_energy": -1217.57347961, 
			 "HOMO_LUMO_gap": 0.16382, 
			 "cosmo_polarized_energy": -87597.67, 
			 "cosmo_cavitation_energy": 24.64, 
			 "cosmo_dispersion_energy": -20.2, 
			 "cosmo_repulsion_energy": 1.6, 
			 "cosmo_total_nonelectrostatic_energy": 6.04, 
			 "SMD_solvation_energy": 2.68 
		},
		"coords": [
			{
				"x": -1.9931633317,
				"y": -1.4722262541,
				"z": 0.2203836435,
				"element": "N" 
			},
			{
				"x": -0.9628860602,
				"y": -0.9830372529,
				"z": -0.5459662696,
				"element": "C" 
			},
			{
				"x": -0.2556039326,
				"y": -1.8168916308,
				"z": -1.4439590183,
				"element": "C" 
			},
			{
				"x": -0.6703643768,
				"y": -3.5273811401,
				"z": -1.5081105162,
				"element": "Cl" 
			},
			{
				"x": 0.7542561089,
				"y": -1.3516411379,
				"z": -2.2755930404,
				"element": "C" 
			},
			{
				"x": 1.0974360618,
				"y": -0.0027062272,
				"z": -2.2294153118,
				"element": "C" 
			},
			{
				"x": 2.3709295187,
				"y": 0.6058715738,
				"z": -3.272545561,
				"element": "Cl" 
			},
			{
				"x": 0.4413387937,
				"y": 0.8665520777,
				"z": -1.3617997756,
				"element": "C" 
			},
			{
				"x": -0.5692061029,
				"y": 0.3743363233,
				"z": -0.5387044405,
				"element": "C" 
			},
			{
				"x": -1.5304912477,
				"y": 1.7416952444,
				"z": 0.7701233228,
				"element": "I" 
			},
			{
				"x": -2.2689694741,
				"y": -0.926783835,
				"z": 1.0235669558,
				"element": "H" 
			},
			{
				"x": -2.0328302671,
				"y": -2.4732454181,
				"z": 0.3401245529,
				"element": "H" 
			},
			{
				"x": 1.2638088266,
				"y": -2.0337162127,
				"z": -2.9447091153,
				"element": "H" 
			},
			{
				"x": 0.7170454835,
				"y": 1.9129738897,
				"z": -1.3293954264,
				"element": "H" 
			}
		],
		 "valence_orbital": [ 
			{
				"type": "occ",
				"energy": -0.31501,
				"method": "rhf"
			},
			{
				"type": "occ",
				"energy": -0.29556,
				"method": "rhf"
			},
			{
				"type": "occ",
				"energy": -0.28514,
				"method": "rhf"
			},
			{
				"type": "occ",
				"energy": -0.255,
				"method": "rhf"
			},
			{
				"type": "occ",
				"energy": -0.22091,
				"method": "rhf"
			},
			{
				"type": "unocc",
				"energy": -0.05709,
				"method": "rhf"
			},
			{
				"type": "unocc",
				"energy": -0.03366,
				"method": "rhf"
			},
			{
				"type": "unocc",
				"energy": -0.01355,
				"method": "rhf"
			},
			{
				"type": "unocc",
				"energy": 0.01198,
				"method": "rhf"
			},
			{
				"type": "unocc",
				"energy": 0.03101,
				"method": "rhf"
			}
		],
		"cosmo_sigma_profile": { 
			"0.0": 0.0,
			"0.0": 0.0,
			"0.0": 0.0,
			"0.0": 0.0,
			"0.0": 0.0,
			"0.0": 0.0,
			"0.0": 0.0,
			"0.0": 0.0,
			"0.0": 0.0,
			"0.0": 0.0,
			"0.0": 0.0,
			"0.0": 0.0,
			"0.0": 0.0,
			"0.0": 0.0,
			"0.0": 0.0,
			"0.0": 0.0,
			"0.0": 0.0,
			"0.0": 0.0,
			"0.0": 0.0,
			"0.0": 0.0,
			"0.0": 0.0,
			"0.0": 0.0,
			"0.0": 0.0,
			"0.0": 0.0,
			"0.0": 0.0,
			"0.0": 0.0,
			"0.0": 0.0,
			"0.0": 0.0,
			"0.0": 0.0,
			"0.0": 0.0,
			"0.0": 0.0,
			"0.0": 0.0,
			"0.0": 0.0,
			"0.0": 0.0,
			"0.0": 0.0,
			"0.0": 0.0,
			"0.0": 0.0,
			"0.0": 0.0,
			"0.0": 0.0,
			"0.0": 0.0,
			"0.0": 0.0,
			"0.0": 0.0,
			"0.0": 0.0,
			"0.0": 0.0,
			"0.0": 0.0,
			"0.0": 0.0,
			"0.0": 0.0,
			"0.0": 0.0,
			"0.0": 0.0,
			"0.0": 0.0,
			"0.0": 0.0
		}
	}
}
