{
	 "smiles": "[O-][N+](=O)C1=CC=C(C=C1)C1=NOC(Cl)=N1", 
	 "Tm": 392.15, 
	 "num_atms": 19, 
	 "gaussian": { 
		 "optdone": 1, 
		 "sigma_profile": "yes", 
		 "theory": "DFT", 
		 "functional": "B3LYP", 
		 "basiset": "6-31G**", 
		 "properties": { 
			 "R2extent": 5312.0882, 
			 "electric_dipole_moment_norm": 3.63410393632, 
			 "electric_quadrupole_moment_norm": 14.5344635302, 
			 "total_energy": -1157.22783097, 
			 "HOMO_LUMO_gap": 0.17306, 
			 "cosmo_polarized_energy": -8.94, 
			 "cosmo_cavitation_energy": 27.74, 
			 "cosmo_dispersion_energy": -20.83, 
			 "cosmo_repulsion_energy": 1.61, 
			 "cosmo_total_nonelectrostatic_energy": 8.52, 
			 "SMD_solvation_energy": 5.42 
		},
		"coords": [
			{
				"x": -3.9093790556,
				"y": -2.8051591141,
				"z": 1.7216905687,
				"element": "O" 
			},
			{
				"x": -3.6659294877,
				"y": -2.0595994355,
				"z": 0.7741856516,
				"element": "N" 
			},
			{
				"x": -4.4442618287,
				"y": -1.8116578541,
				"z": -0.1453167061,
				"element": "O" 
			},
			{
				"x": -2.3413219466,
				"y": -1.4146001367,
				"z": 0.738161777,
				"element": "C" 
			},
			{
				"x": -2.0354264642,
				"y": -0.5645281574,
				"z": -0.3220065762,
				"element": "C" 
			},
			{
				"x": -0.7838061958,
				"y": 0.0420887427,
				"z": -0.3517619049,
				"element": "C" 
			},
			{
				"x": 0.1432854785,
				"y": -0.2054070911,
				"z": 0.6715833564,
				"element": "C" 
			},
			{
				"x": -0.1891406911,
				"y": -1.0670756935,
				"z": 1.7305114748,
				"element": "C" 
			},
			{
				"x": -1.4368245732,
				"y": -1.6765027013,
				"z": 1.7672635902,
				"element": "C" 
			},
			{
				"x": 1.4606014337,
				"y": 0.442883121,
				"z": 0.6254093711,
				"element": "C" 
			},
			{
				"x": 2.3782467152,
				"y": 0.2561131183,
				"z": 1.550783354,
				"element": "N" 
			},
			{
				"x": 3.450280674,
				"y": 1.050520266,
				"z": 1.1133398748,
				"element": "O" 
			},
			{
				"x": 3.0377618137,
				"y": 1.6174374632,
				"z": -0.0278416428,
				"element": "C" 
			},
			{
				"x": 4.1285173831,
				"y": 2.6571192582,
				"z": -0.8202813599,
				"element": "Cl" 
			},
			{
				"x": 1.8386857434,
				"y": 1.2988977131,
				"z": -0.393028342,
				"element": "N" 
			},
			{
				"x": -2.7713749009,
				"y": -0.3927878026,
				"z": -1.0971998256,
				"element": "H" 
			},
			{
				"x": -0.5140511234,
				"y": 0.7090321151,
				"z": -1.1626055086,
				"element": "H" 
			},
			{
				"x": 0.5333267557,
				"y": -1.2529977488,
				"z": 2.5175376284,
				"element": "H" 
			},
			{
				"x": -1.72188973,
				"y": -2.3449760627,
				"z": 2.5696752193,
				"element": "H" 
			}
		],
		 "valence_orbital": [ 
			{
				"type": "occ",
				"energy": -0.31756,
				"method": "rhf"
			},
			{
				"type": "occ",
				"energy": -0.3148,
				"method": "rhf"
			},
			{
				"type": "occ",
				"energy": -0.29894,
				"method": "rhf"
			},
			{
				"type": "occ",
				"energy": -0.29052,
				"method": "rhf"
			},
			{
				"type": "occ",
				"energy": -0.27981,
				"method": "rhf"
			},
			{
				"type": "unocc",
				"energy": -0.10675,
				"method": "rhf"
			},
			{
				"type": "unocc",
				"energy": -0.05845,
				"method": "rhf"
			},
			{
				"type": "unocc",
				"energy": -0.03832,
				"method": "rhf"
			},
			{
				"type": "unocc",
				"energy": -0.02481,
				"method": "rhf"
			},
			{
				"type": "unocc",
				"energy": -0.00739,
				"method": "rhf"
			}
		],
		"cosmo_sigma_profile": { 
			"-0.025": 0.0,
			"-0.024": 0.0,
			"-0.023": 0.0,
			"-0.022": 0.0,
			"-0.021": 0.0,
			"-0.02": 0.0,
			"-0.019": 0.0,
			"-0.018": 0.0,
			"-0.017": 0.0,
			"-0.016": 0.0,
			"-0.015": 0.0,
			"-0.014": 0.0,
			"-0.013": 0.0,
			"-0.012": 0.0,
			"-0.011": 0.0,
			"-0.01": 0.0,
			"-0.009": 0.245732924769,
			"-0.008": 4.35902238531,
			"-0.007": 9.52067599177,
			"-0.006": 12.0884507992,
			"-0.005": 11.3281974117,
			"-0.004": 12.2391649939,
			"-0.003": 16.9697426444,
			"-0.002": 21.5120014337,
			"-0.001": 25.0202748615,
			"0.0": 30.8471762434,
			"0.001": 19.6064241178,
			"0.002": 5.18716484135,
			"0.003": 6.53254519005,
			"0.004": 8.81748328437,
			"0.005": 7.26408318074,
			"0.006": 6.95767051274,
			"0.007": 11.5075719655,
			"0.008": 7.84994409504,
			"0.009": 6.5890180378,
			"0.01": 3.09263192843,
			"0.011": 0.187234845569,
			"0.012": 0.0,
			"0.013": 0.0,
			"0.014": 0.0,
			"0.015": 0.0,
			"0.016": 0.0,
			"0.017": 0.0,
			"0.018": 0.0,
			"0.019": 0.0,
			"0.02": 0.0,
			"0.021": 0.0,
			"0.022": 0.0,
			"0.023": 0.0,
			"0.024": 0.0,
			"0.025": 0.0
		}
	}
}
