{
	 "smiles": "CN1N=C(C)C(Br)=C1NC(=O)CCl", 
	 "Tm": 425.15, 
	 "num_atms": 22, 
	 "gaussian": { 
		 "optdone": 1, 
		 "sigma_profile": "yes", 
		 "theory": "DFT", 
		 "functional": "B3LYP", 
		 "basiset": "6-31G**", 
		 "properties": { 
			 "R2extent": 3910.5479, 
			 "electric_dipole_moment_norm": 1.92993024226, 
			 "electric_quadrupole_moment_norm": 13.1765191796, 
			 "total_energy": -3543.23527344, 
			 "HOMO_LUMO_gap": 0.20978, 
			 "cosmo_polarized_energy": -12.47, 
			 "cosmo_cavitation_energy": 30.23, 
			 "cosmo_dispersion_energy": -21.19, 
			 "cosmo_repulsion_energy": 1.72, 
			 "cosmo_total_nonelectrostatic_energy": 10.76, 
			 "SMD_solvation_energy": 4.16 
		},
		"coords": [
			{
				"x": 0.9045247111,
				"y": 0.6182386541,
				"z": -2.1509801137,
				"element": "C" 
			},
			{
				"x": 0.5377489145,
				"y": 0.6887045137,
				"z": -0.7474198015,
				"element": "N" 
			},
			{
				"x": 0.6931325688,
				"y": 1.8414996281,
				"z": -0.0658896067,
				"element": "N" 
			},
			{
				"x": 0.3052222326,
				"y": 1.5927489856,
				"z": 1.1892426513,
				"element": "C" 
			},
			{
				"x": 0.3269054636,
				"y": 2.659290351,
				"z": 2.2359948171,
				"element": "C" 
			},
			{
				"x": -0.0899144619,
				"y": 0.2433050064,
				"z": 1.3066365921,
				"element": "C" 
			},
			{
				"x": -0.718170582,
				"y": -0.6415258462,
				"z": 2.8452131956,
				"element": "Br" 
			},
			{
				"x": 0.0673427052,
				"y": -0.3175524907,
				"z": 0.0461275616,
				"element": "C" 
			},
			{
				"x": -0.1319801964,
				"y": -1.6211575092,
				"z": -0.4249853872,
				"element": "N" 
			},
			{
				"x": -1.3381739353,
				"y": -2.285596673,
				"z": -0.5760259784,
				"element": "C" 
			},
			{
				"x": -1.3739379451,
				"y": -3.4808971093,
				"z": -0.8006050144,
				"element": "O" 
			},
			{
				"x": -2.614430912,
				"y": -1.4572303633,
				"z": -0.4613593816,
				"element": "C" 
			},
			{
				"x": -2.8253524843,
				"y": -0.3537589353,
				"z": -1.8868753736,
				"element": "Cl" 
			},
			{
				"x": 0.2336002711,
				"y": -0.0701416766,
				"z": -2.6661738984,
				"element": "H" 
			},
			{
				"x": 0.7990341043,
				"y": 1.619641902,
				"z": -2.5674052367,
				"element": "H" 
			},
			{
				"x": 1.940466519,
				"y": 0.2844511402,
				"z": -2.2736243807,
				"element": "H" 
			},
			{
				"x": -0.6760449063,
				"y": 2.8454141003,
				"z": 2.6349653821,
				"element": "H" 
			},
			{
				"x": 0.7086320881,
				"y": 3.5863762857,
				"z": 1.8039400842,
				"element": "H" 
			},
			{
				"x": 0.9648480307,
				"y": 2.3755400473,
				"z": 3.0797787685,
				"element": "H" 
			},
			{
				"x": 0.6647571036,
				"y": -2.247479826,
				"z": -0.4738778593,
				"element": "H" 
			},
			{
				"x": -3.4525033276,
				"y": -2.1502016525,
				"z": -0.463504158,
				"element": "H" 
			},
			{
				"x": -2.6280059617,
				"y": -0.8348685324,
				"z": 0.4332271376,
				"element": "H" 
			}
		],
		 "valence_orbital": [ 
			{
				"type": "occ",
				"energy": -0.30179,
				"method": "rhf"
			},
			{
				"type": "occ",
				"energy": -0.28472,
				"method": "rhf"
			},
			{
				"type": "occ",
				"energy": -0.2728,
				"method": "rhf"
			},
			{
				"type": "occ",
				"energy": -0.25597,
				"method": "rhf"
			},
			{
				"type": "occ",
				"energy": -0.24327,
				"method": "rhf"
			},
			{
				"type": "unocc",
				"energy": -0.03349,
				"method": "rhf"
			},
			{
				"type": "unocc",
				"energy": -0.00526,
				"method": "rhf"
			},
			{
				"type": "unocc",
				"energy": 0.00757,
				"method": "rhf"
			},
			{
				"type": "unocc",
				"energy": 0.04258,
				"method": "rhf"
			},
			{
				"type": "unocc",
				"energy": 0.04721,
				"method": "rhf"
			}
		],
		"cosmo_sigma_profile": { 
			"-0.025": 0.0,
			"-0.024": 0.0,
			"-0.023": 0.0,
			"-0.022": 0.0,
			"-0.021": 0.0,
			"-0.02": 0.0,
			"-0.019": 0.0,
			"-0.018": 0.0,
			"-0.017": 0.0,
			"-0.016": 0.391091979267,
			"-0.015": 1.30539852699,
			"-0.014": 1.2252779327,
			"-0.013": 1.21312201516,
			"-0.012": 0.536872008604,
			"-0.011": 1.0634566919,
			"-0.01": 1.09344888596,
			"-0.009": 1.43496056959,
			"-0.008": 2.8403498938,
			"-0.007": 5.64973554429,
			"-0.006": 10.5365587611,
			"-0.005": 16.1015476397,
			"-0.004": 17.8587491823,
			"-0.003": 20.8193897416,
			"-0.002": 15.6331012231,
			"-0.001": 21.5900382625,
			"0.0": 20.3480651502,
			"0.001": 17.6944555949,
			"0.002": 18.078336029,
			"0.003": 16.8010549304,
			"0.004": 14.3151256772,
			"0.005": 10.2862859328,
			"0.006": 4.64618039062,
			"0.007": 2.52480980824,
			"0.008": 2.17830872916,
			"0.009": 2.8922416315,
			"0.01": 2.76710093883,
			"0.011": 4.79734770433,
			"0.012": 5.90034302799,
			"0.013": 1.59563598634,
			"0.014": 1.02972448675,
			"0.015": 0.314902244293,
			"0.016": 0.0,
			"0.017": 0.0,
			"0.018": 0.0,
			"0.019": 0.0,
			"0.02": 0.0,
			"0.021": 0.0,
			"0.022": 0.0,
			"0.023": 0.0,
			"0.024": 0.0,
			"0.025": 0.0
		}
	}
}
