{
	 "smiles": "FC1=CC(F)=C(F)C(C#N)=C1F", 
	 "Tm": 307.15, 
	 "num_atms": 13, 
	 "gaussian": { 
		 "optdone": 1, 
		 "sigma_profile": "yes", 
		 "theory": "DFT", 
		 "functional": "B3LYP", 
		 "basiset": "6-31G**", 
		 "properties": { 
			 "R2extent": 2013.8235, 
			 "electric_dipole_moment_norm": 4.06131621768, 
			 "electric_quadrupole_moment_norm": 5.90827189117, 
			 "total_energy": -721.389049415, 
			 "HOMO_LUMO_gap": 0.19291, 
			 "cosmo_polarized_energy": -7.46, 
			 "cosmo_cavitation_energy": 21.57, 
			 "cosmo_dispersion_energy": -14.67, 
			 "cosmo_repulsion_energy": 1.08, 
			 "cosmo_total_nonelectrostatic_energy": 7.98, 
			 "SMD_solvation_energy": 7.11 
		},
		"coords": [
			{
				"x": 0.0088705311,
				"y": 3.3803650601,
				"z": 0.4203242407,
				"element": "F" 
			},
			{
				"x": 0.2844734909,
				"y": 2.1002889343,
				"z": 0.1466717082,
				"element": "C" 
			},
			{
				"x": 1.4865608333,
				"y": 1.5387858294,
				"z": 0.561640904,
				"element": "C" 
			},
			{
				"x": 1.7503108876,
				"y": 0.2064259251,
				"z": 0.2653829167,
				"element": "C" 
			},
			{
				"x": 2.9003062255,
				"y": -0.3553161345,
				"z": 0.6544671,
				"element": "F" 
			},
			{
				"x": 0.827423947,
				"y": -0.5625973438,
				"z": -0.4376066133,
				"element": "C" 
			},
			{
				"x": 1.0990572362,
				"y": -1.8390308008,
				"z": -0.7120745557,
				"element": "F" 
			},
			{
				"x": -0.3874649463,
				"y": -0.0007367126,
				"z": -0.8588052887,
				"element": "C" 
			},
			{
				"x": -1.3392259158,
				"y": -0.7825955769,
				"z": -1.580236744,
				"element": "C" 
			},
			{
				"x": -2.1140449295,
				"y": -1.419021518,
				"z": -2.1675294664,
				"element": "N" 
			},
			{
				"x": -0.6487018882,
				"y": 1.3445572397,
				"z": -0.5571501015,
				"element": "C" 
			},
			{
				"x": -1.7961236185,
				"y": 1.9015324335,
				"z": -0.9464835447,
				"element": "F" 
			},
			{
				"x": 2.2089581467,
				"y": 2.1322426645,
				"z": 1.1091994447,
				"element": "H" 
			}
		],
		 "valence_orbital": [ 
			{
				"type": "occ",
				"energy": -0.3783,
				"method": "rhf"
			},
			{
				"type": "occ",
				"energy": -0.36002,
				"method": "rhf"
			},
			{
				"type": "occ",
				"energy": -0.35402,
				"method": "rhf"
			},
			{
				"type": "occ",
				"energy": -0.29233,
				"method": "rhf"
			},
			{
				"type": "occ",
				"energy": -0.27336,
				"method": "rhf"
			},
			{
				"type": "unocc",
				"energy": -0.08045,
				"method": "rhf"
			},
			{
				"type": "unocc",
				"energy": -0.03286,
				"method": "rhf"
			},
			{
				"type": "unocc",
				"energy": 0.00669,
				"method": "rhf"
			},
			{
				"type": "unocc",
				"energy": 0.02314,
				"method": "rhf"
			},
			{
				"type": "unocc",
				"energy": 0.05575,
				"method": "rhf"
			}
		],
		"cosmo_sigma_profile": { 
			"-0.025": 0.0,
			"-0.024": 0.0,
			"-0.023": 0.0,
			"-0.022": 0.0,
			"-0.021": 0.0,
			"-0.02": 0.0,
			"-0.019": 0.0,
			"-0.018": 0.0,
			"-0.017": 0.0,
			"-0.016": 0.0,
			"-0.015": 0.0,
			"-0.014": 0.0,
			"-0.013": 0.0,
			"-0.012": 0.0214475727592,
			"-0.011": 1.46790185095,
			"-0.01": 2.00945063401,
			"-0.009": 1.45081194259,
			"-0.008": 1.4438979493,
			"-0.007": 1.40252317356,
			"-0.006": 2.87610427921,
			"-0.005": 13.44793388,
			"-0.004": 19.4583647998,
			"-0.003": 14.5503779178,
			"-0.002": 12.1690567208,
			"-0.001": 8.77008571147,
			"0.0": 8.05756936134,
			"0.001": 15.5257460941,
			"0.002": 36.8040944686,
			"0.003": 13.9300240799,
			"0.004": 3.1096880421,
			"0.005": 2.3236694029,
			"0.006": 3.22070387342,
			"0.007": 3.16198640585,
			"0.008": 3.28550491672,
			"0.009": 2.85679487027,
			"0.01": 2.37466208259,
			"0.011": 2.24050523898,
			"0.012": 0.940081095982,
			"0.013": 0.0,
			"0.014": 0.0,
			"0.015": 0.0,
			"0.016": 0.0,
			"0.017": 0.0,
			"0.018": 0.0,
			"0.019": 0.0,
			"0.02": 0.0,
			"0.021": 0.0,
			"0.022": 0.0,
			"0.023": 0.0,
			"0.024": 0.0,
			"0.025": 0.0
		}
	}
}
