{
	 "smiles": "NC1=C(C=C(C=C1)[N+]([O-])=O)C(O)=O", 
	 "Tm": 551.15, 
	 "num_atms": 19, 
	 "gaussian": { 
		 "optdone": 1, 
		 "sigma_profile": "yes", 
		 "theory": "DFT", 
		 "functional": "B3LYP", 
		 "basiset": "6-31G**", 
		 "properties": { 
			 "R2extent": 2822.0944, 
			 "electric_dipole_moment_norm": 4.36226444407, 
			 "electric_quadrupole_moment_norm": 16.1650741959, 
			 "total_energy": -680.681117412, 
			 "HOMO_LUMO_gap": 0.15474, 
			 "cosmo_polarized_energy": -19.04, 
			 "cosmo_cavitation_energy": 24.25, 
			 "cosmo_dispersion_energy": -18.31, 
			 "cosmo_repulsion_energy": 1.44, 
			 "cosmo_total_nonelectrostatic_energy": 7.37, 
			 "SMD_solvation_energy": 7.46 
		},
		"coords": [
			{
				"x": -0.2735223236,
				"y": -3.0016460199,
				"z": 0.9550876939,
				"element": "N" 
			},
			{
				"x": 0.0180206506,
				"y": -1.7027391187,
				"z": 0.7322317369,
				"element": "C" 
			},
			{
				"x": -0.6894085511,
				"y": -0.6477178633,
				"z": 1.4023794058,
				"element": "C" 
			},
			{
				"x": -0.3685024122,
				"y": 0.677839627,
				"z": 1.0971324945,
				"element": "C" 
			},
			{
				"x": 0.6426087258,
				"y": 0.9815860088,
				"z": 0.1973469679,
				"element": "C" 
			},
			{
				"x": 1.369188071,
				"y": -0.0371640363,
				"z": -0.4363498881,
				"element": "C" 
			},
			{
				"x": 1.0587118881,
				"y": -1.3516532788,
				"z": -0.1700310304,
				"element": "C" 
			},
			{
				"x": 0.9444415851,
				"y": 2.3745286586,
				"z": -0.0923674058,
				"element": "N" 
			},
			{
				"x": 0.2802492115,
				"y": 3.240622651,
				"z": 0.4853248624,
				"element": "O" 
			},
			{
				"x": 1.8491107636,
				"y": 2.6090396814,
				"z": -0.8965617446,
				"element": "O" 
			},
			{
				"x": -1.7636771758,
				"y": -0.9814359295,
				"z": 2.3759661295,
				"element": "C" 
			},
			{
				"x": -2.2380604985,
				"y": 0.009659512,
				"z": 3.1641771995,
				"element": "O" 
			},
			{
				"x": -2.2379141068,
				"y": -2.098382795,
				"z": 2.5044078281,
				"element": "O" 
			},
			{
				"x": -1.0840666293,
				"y": -3.2150110117,
				"z": 1.527192219,
				"element": "H" 
			},
			{
				"x": 0.2062577038,
				"y": -3.7223856291,
				"z": 0.4416952002,
				"element": "H" 
			},
			{
				"x": -0.9086945358,
				"y": 1.5169268325,
				"z": 1.5222571322,
				"element": "H" 
			},
			{
				"x": 2.1563089497,
				"y": 0.2296289708,
				"z": -1.1308165581,
				"element": "H" 
			},
			{
				"x": 1.6079272095,
				"y": -2.1482549295,
				"z": -0.6635380092,
				"element": "H" 
			},
			{
				"x": -1.6957785256,
				"y": 0.8064586695,
				"z": 3.0912657664,
				"element": "H" 
			}
		],
		 "valence_orbital": [ 
			{
				"type": "occ",
				"energy": -0.30894,
				"method": "rhf"
			},
			{
				"type": "occ",
				"energy": -0.29661,
				"method": "rhf"
			},
			{
				"type": "occ",
				"energy": -0.2915,
				"method": "rhf"
			},
			{
				"type": "occ",
				"energy": -0.28963,
				"method": "rhf"
			},
			{
				"type": "occ",
				"energy": -0.241,
				"method": "rhf"
			},
			{
				"type": "unocc",
				"energy": -0.08626,
				"method": "rhf"
			},
			{
				"type": "unocc",
				"energy": -0.06875,
				"method": "rhf"
			},
			{
				"type": "unocc",
				"energy": -0.00354,
				"method": "rhf"
			},
			{
				"type": "unocc",
				"energy": 0.03826,
				"method": "rhf"
			},
			{
				"type": "unocc",
				"energy": 0.04949,
				"method": "rhf"
			}
		],
		"cosmo_sigma_profile": { 
			"-0.025": 0.0,
			"-0.024": 0.0,
			"-0.023": 0.0,
			"-0.022": 0.0,
			"-0.021": 0.0,
			"-0.02": 0.363947971324,
			"-0.019": 0.898949280144,
			"-0.018": 0.84565901033,
			"-0.017": 0.899942754389,
			"-0.016": 1.13515539652,
			"-0.015": 2.02069716374,
			"-0.014": 1.9120261329,
			"-0.013": 2.91656679337,
			"-0.012": 2.93739506822,
			"-0.011": 2.23563050605,
			"-0.01": 3.59817150897,
			"-0.009": 2.80407266614,
			"-0.008": 4.38779541594,
			"-0.007": 6.17820220572,
			"-0.006": 6.38712565834,
			"-0.005": 5.85937049438,
			"-0.004": 7.52766073135,
			"-0.003": 9.41553717386,
			"-0.002": 12.8669024909,
			"-0.001": 12.4342626995,
			"0.0": 18.9556033576,
			"0.001": 15.2707177537,
			"0.002": 8.20224066454,
			"0.003": 5.11534968364,
			"0.004": 4.38083775078,
			"0.005": 5.08034521259,
			"0.006": 5.70188959369,
			"0.007": 6.27895363213,
			"0.008": 12.0081321075,
			"0.009": 9.26639070749,
			"0.01": 8.89430776929,
			"0.011": 4.7527465439,
			"0.012": 2.18618371912,
			"0.013": 0.892685743901,
			"0.014": 0.0,
			"0.015": 0.0,
			"0.016": 0.0,
			"0.017": 0.0,
			"0.018": 0.0,
			"0.019": 0.0,
			"0.02": 0.0,
			"0.021": 0.0,
			"0.022": 0.0,
			"0.023": 0.0,
			"0.024": 0.0,
			"0.025": 0.0
		}
	}
}
