{
	 "smiles": "OCCN1N=CC2=C1C=CC=C2", 
	 "Tm": 322.15, 
	 "num_atms": 22, 
	 "gaussian": { 
		 "optdone": 1, 
		 "sigma_profile": "yes", 
		 "theory": "DFT", 
		 "functional": "B3LYP", 
		 "basiset": "6-31G**", 
		 "properties": { 
			 "R2extent": 2716.0086, 
			 "electric_dipole_moment_norm": 3.03852520312, 
			 "electric_quadrupole_moment_norm": 12.5997503574, 
			 "total_energy": -533.69206519, 
			 "HOMO_LUMO_gap": 0.18631, 
			 "cosmo_polarized_energy": -9.05, 
			 "cosmo_cavitation_energy": 25.04, 
			 "cosmo_dispersion_energy": -18.92, 
			 "cosmo_repulsion_energy": 1.5, 
			 "cosmo_total_nonelectrostatic_energy": 7.62, 
			 "SMD_solvation_energy": 3.4 
		},
		"coords": [
			{
				"x": 2.61058322,
				"y": -2.0042945679,
				"z": -1.9609138978,
				"element": "O" 
			},
			{
				"x": 1.2607010006,
				"y": -1.9864578263,
				"z": -2.3630649707,
				"element": "C" 
			},
			{
				"x": 0.7452030965,
				"y": -0.573207704,
				"z": -2.6601246505,
				"element": "C" 
			},
			{
				"x": 0.6148357245,
				"y": 0.2304302213,
				"z": -1.4492108463,
				"element": "N" 
			},
			{
				"x": 1.5635509418,
				"y": 0.1462763913,
				"z": -0.4727597126,
				"element": "N" 
			},
			{
				"x": 1.2297018433,
				"y": 1.0157379439,
				"z": 0.4653860998,
				"element": "C" 
			},
			{
				"x": 0.0392605592,
				"y": 1.7166873678,
				"z": 0.1171247949,
				"element": "C" 
			},
			{
				"x": -0.3260415515,
				"y": 1.1790858467,
				"z": -1.1454178957,
				"element": "C" 
			},
			{
				"x": -1.4651612325,
				"y": 1.6248745917,
				"z": -1.8398473475,
				"element": "C" 
			},
			{
				"x": -2.2263241736,
				"y": 2.6112798782,
				"z": -1.2339685215,
				"element": "C" 
			},
			{
				"x": -1.8788809763,
				"y": 3.1547867918,
				"z": 0.0270120165,
				"element": "C" 
			},
			{
				"x": -0.7551994701,
				"y": 2.7184206669,
				"z": 0.7074432628,
				"element": "C" 
			},
			{
				"x": 2.6593572306,
				"y": -1.408339895,
				"z": -1.1927651424,
				"element": "H" 
			},
			{
				"x": 1.1917990224,
				"y": -2.5731902776,
				"z": -3.2859724557,
				"element": "H" 
			},
			{
				"x": 0.5953039647,
				"y": -2.45710995,
				"z": -1.6203817183,
				"element": "H" 
			},
			{
				"x": 1.4289214186,
				"y": -0.0807750183,
				"z": -3.3630624947,
				"element": "H" 
			},
			{
				"x": -0.2453988792,
				"y": -0.626160842,
				"z": -3.122063554,
				"element": "H" 
			},
			{
				"x": 1.8416893943,
				"y": 1.1140322206,
				"z": 1.3519393707,
				"element": "H" 
			},
			{
				"x": -1.7388204049,
				"y": 1.2223419165,
				"z": -2.8096738514,
				"element": "H" 
			},
			{
				"x": -3.1131264065,
				"y": 2.9810822231,
				"z": -1.7404753348,
				"element": "H" 
			},
			{
				"x": -2.5074591747,
				"y": 3.9267787269,
				"z": 0.4601362806,
				"element": "H" 
			},
			{
				"x": -0.4896951471,
				"y": 3.1380212943,
				"z": 1.6733605686,
				"element": "H" 
			}
		],
		 "valence_orbital": [ 
			{
				"type": "occ",
				"energy": -0.29529,
				"method": "rhf"
			},
			{
				"type": "occ",
				"energy": -0.29083,
				"method": "rhf"
			},
			{
				"type": "occ",
				"energy": -0.25734,
				"method": "rhf"
			},
			{
				"type": "occ",
				"energy": -0.24661,
				"method": "rhf"
			},
			{
				"type": "occ",
				"energy": -0.22151,
				"method": "rhf"
			},
			{
				"type": "unocc",
				"energy": -0.0352,
				"method": "rhf"
			},
			{
				"type": "unocc",
				"energy": 0.01299,
				"method": "rhf"
			},
			{
				"type": "unocc",
				"energy": 0.04851,
				"method": "rhf"
			},
			{
				"type": "unocc",
				"energy": 0.08673,
				"method": "rhf"
			},
			{
				"type": "unocc",
				"energy": 0.10179,
				"method": "rhf"
			}
		],
		"cosmo_sigma_profile": { 
			"-0.025": 0.0,
			"-0.024": 0.0,
			"-0.023": 0.0,
			"-0.022": 0.0,
			"-0.021": 0.0,
			"-0.02": 0.0,
			"-0.019": 0.0,
			"-0.018": 0.0,
			"-0.017": 0.0,
			"-0.016": 0.0,
			"-0.015": 0.0,
			"-0.014": 0.0,
			"-0.013": 0.0,
			"-0.012": 0.0,
			"-0.011": 0.0,
			"-0.01": 0.0,
			"-0.009": 0.0,
			"-0.008": 2.46523259084,
			"-0.007": 6.47917137917,
			"-0.006": 11.4623083074,
			"-0.005": 18.9730406988,
			"-0.004": 21.0253040097,
			"-0.003": 17.8685818589,
			"-0.002": 11.7031791209,
			"-0.001": 11.4845853061,
			"0.0": 10.0183769546,
			"0.001": 11.4573201952,
			"0.002": 12.4788765933,
			"0.003": 16.2748134343,
			"0.004": 15.1529546674,
			"0.005": 13.129907182,
			"0.006": 4.96900337335,
			"0.007": 2.70109518757,
			"0.008": 1.91980433588,
			"0.009": 0.76162694366,
			"0.01": 0.90978264115,
			"0.011": 1.28393775988,
			"0.012": 1.29380321197,
			"0.013": 1.45484801696,
			"0.014": 2.18822273368,
			"0.015": 1.91063690932,
			"0.016": 0.0166141249605,
			"0.017": 0.0,
			"0.018": 0.0,
			"0.019": 0.0,
			"0.02": 0.0,
			"0.021": 0.0,
			"0.022": 0.0,
			"0.023": 0.0,
			"0.024": 0.0,
			"0.025": 0.0
		}
	}
}
