{
	 "smiles": "O=C1NN=C2CNCCN12", 
	 "Tm": 453.15, 
	 "num_atms": 18, 
	 "gaussian": { 
		 "optdone": 1, 
		 "sigma_profile": "yes", 
		 "theory": "DFT", 
		 "functional": "B3LYP", 
		 "basiset": "6-31G**", 
		 "properties": { 
			 "R2extent": 1327.4611, 
			 "electric_dipole_moment_norm": 2.65301079719, 
			 "electric_quadrupole_moment_norm": 9.7783575267, 
			 "total_energy": -489.574472939, 
			 "HOMO_LUMO_gap": 0.23431, 
			 "cosmo_polarized_energy": -16.07, 
			 "cosmo_cavitation_energy": 20.92, 
			 "cosmo_dispersion_energy": -16.23, 
			 "cosmo_repulsion_energy": 1.32, 
			 "cosmo_total_nonelectrostatic_energy": 6.01, 
			 "SMD_solvation_energy": 0.38 
		},
		"coords": [
			{
				"x": -1.7609675826,
				"y": 0.6125207928,
				"z": -1.9493340137,
				"element": "O" 
			},
			{
				"x": -1.2329737289,
				"y": -0.1235554535,
				"z": -1.1299046609,
				"element": "C" 
			},
			{
				"x": -1.314074459,
				"y": -1.4903347276,
				"z": -0.9647472192,
				"element": "N" 
			},
			{
				"x": -0.5928020089,
				"y": -1.9748517085,
				"z": 0.113352376,
				"element": "N" 
			},
			{
				"x": -0.03779592,
				"y": -0.9109396322,
				"z": 0.6155696527,
				"element": "C" 
			},
			{
				"x": 0.9062241103,
				"y": -0.8255545206,
				"z": 1.7856747801,
				"element": "C" 
			},
			{
				"x": 0.9837568144,
				"y": 0.5278453735,
				"z": 2.3451642551,
				"element": "N" 
			},
			{
				"x": 1.1532149937,
				"y": 1.5378141421,
				"z": 1.2970391284,
				"element": "C" 
			},
			{
				"x": -0.0106955582,
				"y": 1.5900629057,
				"z": 0.2912658851,
				"element": "C" 
			},
			{
				"x": -0.3629652698,
				"y": 0.2289700319,
				"z": -0.0874998723,
				"element": "N" 
			},
			{
				"x": -1.8739780321,
				"y": -2.1131532197,
				"z": -1.5229458556,
				"element": "H" 
			},
			{
				"x": 0.60646394,
				"y": -1.5359042666,
				"z": 2.5603595245,
				"element": "H" 
			},
			{
				"x": 1.9134004918,
				"y": -1.1182992178,
				"z": 1.458797648,
				"element": "H" 
			},
			{
				"x": 0.1403363474,
				"y": 0.7265156103,
				"z": 2.879538473,
				"element": "H" 
			},
			{
				"x": 1.2747155903,
				"y": 2.521331706,
				"z": 1.7610006299,
				"element": "H" 
			},
			{
				"x": 2.0869211471,
				"y": 1.3108515165,
				"z": 0.7677744377,
				"element": "H" 
			},
			{
				"x": -0.8865685719,
				"y": 2.0792248233,
				"z": 0.7381775461,
				"element": "H" 
			},
			{
				"x": 0.2507876964,
				"y": 2.1520558445,
				"z": -0.6106827148,
				"element": "H" 
			}
		],
		 "valence_orbital": [ 
			{
				"type": "occ",
				"energy": -0.3216,
				"method": "rhf"
			},
			{
				"type": "occ",
				"energy": -0.30022,
				"method": "rhf"
			},
			{
				"type": "occ",
				"energy": -0.2607,
				"method": "rhf"
			},
			{
				"type": "occ",
				"energy": -0.245,
				"method": "rhf"
			},
			{
				"type": "occ",
				"energy": -0.21721,
				"method": "rhf"
			},
			{
				"type": "unocc",
				"energy": 0.0171,
				"method": "rhf"
			},
			{
				"type": "unocc",
				"energy": 0.05746,
				"method": "rhf"
			},
			{
				"type": "unocc",
				"energy": 0.07253,
				"method": "rhf"
			},
			{
				"type": "unocc",
				"energy": 0.09233,
				"method": "rhf"
			},
			{
				"type": "unocc",
				"energy": 0.10832,
				"method": "rhf"
			}
		],
		"cosmo_sigma_profile": { 
			"-0.025": 0.0,
			"-0.024": 0.0,
			"-0.023": 0.0,
			"-0.022": 0.0,
			"-0.021": 0.0,
			"-0.02": 0.0,
			"-0.019": 0.0,
			"-0.018": 0.0,
			"-0.017": 0.0103914976597,
			"-0.016": 1.23727773227,
			"-0.015": 1.06861030646,
			"-0.014": 1.51147752322,
			"-0.013": 1.08408693275,
			"-0.012": 0.740126869146,
			"-0.011": 1.6748872811,
			"-0.01": 3.41045122093,
			"-0.009": 3.15467166041,
			"-0.008": 2.1877316243,
			"-0.007": 3.75944704492,
			"-0.006": 13.7054419536,
			"-0.005": 19.7492984446,
			"-0.004": 14.1078253744,
			"-0.003": 10.6413326554,
			"-0.002": 9.17622803928,
			"-0.001": 8.89526028249,
			"0.0": 6.05425178499,
			"0.001": 6.82458232708,
			"0.002": 5.09781246457,
			"0.003": 4.17021289336,
			"0.004": 3.71867105003,
			"0.005": 4.15338907635,
			"0.006": 2.8316349183,
			"0.007": 2.7797351829,
			"0.008": 3.17726630316,
			"0.009": 3.4302460264,
			"0.01": 2.58190515941,
			"0.011": 3.66009832775,
			"0.012": 3.08555315169,
			"0.013": 4.67963663772,
			"0.014": 8.67194639023,
			"0.015": 2.87639004332,
			"0.016": 0.569822470015,
			"0.017": 0.242186535793,
			"0.018": 0.0,
			"0.019": 0.0,
			"0.02": 0.0,
			"0.021": 0.0,
			"0.022": 0.0,
			"0.023": 0.0,
			"0.024": 0.0,
			"0.025": 0.0
		}
	}
}
