{
	 "smiles": "NC1=NC=C(SCC2=CC=CC=C2)C=C1", 
	 "Tm": 368.15, 
	 "num_atms": 27, 
	 "gaussian": { 
		 "optdone": 1, 
		 "sigma_profile": "yes", 
		 "theory": "DFT", 
		 "functional": "B3LYP", 
		 "basiset": "6-31G**", 
		 "properties": { 
			 "R2extent": 4154.9458, 
			 "electric_dipole_moment_norm": 3.34921063088, 
			 "electric_quadrupole_moment_norm": 19.4666378962, 
			 "total_energy": -972.206967091, 
			 "HOMO_LUMO_gap": 0.19573, 
			 "cosmo_polarized_energy": -13.26, 
			 "cosmo_cavitation_energy": 32.79, 
			 "cosmo_dispersion_energy": -23.08, 
			 "cosmo_repulsion_energy": 1.79, 
			 "cosmo_total_nonelectrostatic_energy": 11.5, 
			 "SMD_solvation_energy": 3.4 
		},
		"coords": [
			{
				"x": 2.6266005874,
				"y": 1.8666514042,
				"z": -3.9039367645,
				"element": "N" 
			},
			{
				"x": 2.0199677593,
				"y": 1.900168376,
				"z": -2.6671459567,
				"element": "C" 
			},
			{
				"x": 2.5245259253,
				"y": 1.0696058284,
				"z": -1.7397672046,
				"element": "N" 
			},
			{
				"x": 1.9991231496,
				"y": 1.1049493149,
				"z": -0.5122339161,
				"element": "C" 
			},
			{
				"x": 0.9476795081,
				"y": 1.9467404451,
				"z": -0.1295236064,
				"element": "C" 
			},
			{
				"x": 0.3407797056,
				"y": 1.9650831006,
				"z": 1.5476427348,
				"element": "S" 
			},
			{
				"x": -1.0456298085,
				"y": 0.7197614989,
				"z": 1.4803390563,
				"element": "C" 
			},
			{
				"x": -0.6127529102,
				"y": -0.7014643324,
				"z": 1.2437253246,
				"element": "C" 
			},
			{
				"x": -0.0731857399,
				"y": -1.4710614907,
				"z": 2.285457125,
				"element": "C" 
			},
			{
				"x": 0.3317268232,
				"y": -2.7857493529,
				"z": 2.0641732948,
				"element": "C" 
			},
			{
				"x": 0.2072408213,
				"y": -3.3543859673,
				"z": 0.7931976868,
				"element": "C" 
			},
			{
				"x": -0.3247629089,
				"y": -2.5983289363,
				"z": -0.2510974439,
				"element": "C" 
			},
			{
				"x": -0.7312987464,
				"y": -1.2812392244,
				"z": -0.0260279672,
				"element": "C" 
			},
			{
				"x": 0.4314532377,
				"y": 2.8096410788,
				"z": -1.1118923033,
				"element": "C" 
			},
			{
				"x": 0.9621332632,
				"y": 2.7938163083,
				"z": -2.3907278294,
				"element": "C" 
			},
			{
				"x": 3.2165519765,
				"y": 1.0622225606,
				"z": -4.0608383165,
				"element": "H" 
			},
			{
				"x": 2.0996447722,
				"y": 2.1864011082,
				"z": -4.7017026827,
				"element": "H" 
			},
			{
				"x": 2.4341276897,
				"y": 0.4243864511,
				"z": 0.2164181446,
				"element": "H" 
			},
			{
				"x": -1.7583054907,
				"y": 1.0497073669,
				"z": 0.720312667,
				"element": "H" 
			},
			{
				"x": -1.5230576241,
				"y": 0.8314250168,
				"z": 2.4588103392,
				"element": "H" 
			},
			{
				"x": 0.031986281,
				"y": -1.0312029471,
				"z": 3.2741161998,
				"element": "H" 
			},
			{
				"x": 0.742853879,
				"y": -3.3690841367,
				"z": 2.8833413298,
				"element": "H" 
			},
			{
				"x": 0.5220789003,
				"y": -4.3795816917,
				"z": 0.6207808224,
				"element": "H" 
			},
			{
				"x": -0.4250086037,
				"y": -3.0317398838,
				"z": -1.2422193801,
				"element": "H" 
			},
			{
				"x": -1.1478091635,
				"y": -0.6971854841,
				"z": -0.8425748953,
				"element": "H" 
			},
			{
				"x": -0.3763980105,
				"y": 3.490965743,
				"z": -0.8611144661,
				"element": "H" 
			},
			{
				"x": 0.5874347269,
				"y": 3.4603978456,
				"z": -3.1621119924,
				"element": "H" 
			}
		],
		 "valence_orbital": [ 
			{
				"type": "occ",
				"energy": -0.25878,
				"method": "rhf"
			},
			{
				"type": "occ",
				"energy": -0.24796,
				"method": "rhf"
			},
			{
				"type": "occ",
				"energy": -0.24291,
				"method": "rhf"
			},
			{
				"type": "occ",
				"energy": -0.2209,
				"method": "rhf"
			},
			{
				"type": "occ",
				"energy": -0.21369,
				"method": "rhf"
			},
			{
				"type": "unocc",
				"energy": -0.01796,
				"method": "rhf"
			},
			{
				"type": "unocc",
				"energy": -0.01481,
				"method": "rhf"
			},
			{
				"type": "unocc",
				"energy": 0.00112,
				"method": "rhf"
			},
			{
				"type": "unocc",
				"energy": 0.00529,
				"method": "rhf"
			},
			{
				"type": "unocc",
				"energy": 0.06225,
				"method": "rhf"
			}
		],
		"cosmo_sigma_profile": { 
			"-0.025": 0.0,
			"-0.024": 0.0,
			"-0.023": 0.0,
			"-0.022": 0.0,
			"-0.021": 0.0,
			"-0.02": 0.0,
			"-0.019": 0.0,
			"-0.018": 0.0,
			"-0.017": 0.0,
			"-0.016": 0.0,
			"-0.015": 0.0,
			"-0.014": 0.445135462692,
			"-0.013": 1.85120853186,
			"-0.012": 2.54435670389,
			"-0.011": 2.04801333337,
			"-0.01": 2.77506394735,
			"-0.009": 2.96674592277,
			"-0.008": 2.00304983482,
			"-0.007": 4.36485775022,
			"-0.006": 12.2726927946,
			"-0.005": 22.1184749752,
			"-0.004": 20.5270521618,
			"-0.003": 19.4061874246,
			"-0.002": 15.3349477074,
			"-0.001": 14.1920481723,
			"0.0": 13.4346147436,
			"0.001": 16.1162244742,
			"0.002": 20.8570551049,
			"0.003": 22.0762437626,
			"0.004": 17.7434006975,
			"0.005": 15.5908856275,
			"0.006": 12.6008035486,
			"0.007": 5.786850318,
			"0.008": 3.76311283628,
			"0.009": 3.75230462245,
			"0.01": 3.4216546971,
			"0.011": 1.27559575388,
			"0.012": 1.01804250045,
			"0.013": 1.1107013095,
			"0.014": 0.689240968086,
			"0.015": 0.803332519411,
			"0.016": 0.126083781218,
			"0.017": 0.0,
			"0.018": 0.0,
			"0.019": 0.0,
			"0.02": 0.0,
			"0.021": 0.0,
			"0.022": 0.0,
			"0.023": 0.0,
			"0.024": 0.0,
			"0.025": 0.0
		}
	}
}
