{
	 "smiles": "CC1=C(C=CC(=C1)C(O)=O)N1CCCS1(=O)=O", 
	 "Tm": 448.15, 
	 "num_atms": 30, 
	 "gaussian": { 
		 "optdone": 1, 
		 "sigma_profile": "yes", 
		 "theory": "DFT", 
		 "functional": "B3LYP", 
		 "basiset": "6-31G**", 
		 "properties": { 
			 "R2extent": 5186.5249, 
			 "electric_dipole_moment_norm": 7.2399502374, 
			 "electric_quadrupole_moment_norm": 20.2658551184, 
			 "total_energy": -1180.78154292, 
			 "HOMO_LUMO_gap": 0.19811, 
			 "cosmo_polarized_energy": -24.54, 
			 "cosmo_cavitation_energy": 34.26, 
			 "cosmo_dispersion_energy": -24.84, 
			 "cosmo_repulsion_energy": 1.87, 
			 "cosmo_total_nonelectrostatic_energy": 11.29, 
			 "SMD_solvation_energy": 5.82 
		},
		"coords": [
			{
				"x": 1.1623804357,
				"y": -1.395083773,
				"z": -1.7347455429,
				"element": "C" 
			},
			{
				"x": -0.0358254925,
				"y": -0.7271704809,
				"z": -1.1087838764,
				"element": "C" 
			},
			{
				"x": 0.0639276137,
				"y": 0.5421999114,
				"z": -0.5013241057,
				"element": "C" 
			},
			{
				"x": -1.0524687672,
				"y": 1.1472806941,
				"z": 0.0858652556,
				"element": "C" 
			},
			{
				"x": -2.2871430619,
				"y": 0.5044983433,
				"z": 0.0755204002,
				"element": "C" 
			},
			{
				"x": -2.4089196606,
				"y": -0.7561510494,
				"z": -0.5216088202,
				"element": "C" 
			},
			{
				"x": -1.2872220858,
				"y": -1.347360689,
				"z": -1.1148632223,
				"element": "C" 
			},
			{
				"x": -3.708753476,
				"y": -1.5019625437,
				"z": -0.5907353831,
				"element": "C" 
			},
			{
				"x": -4.6449712521,
				"y": -1.1797444906,
				"z": 0.3421484158,
				"element": "O" 
			},
			{
				"x": -3.9462566204,
				"y": -2.3491044416,
				"z": -1.4189098667,
				"element": "O" 
			},
			{
				"x": 1.3424059629,
				"y": 1.2028949366,
				"z": -0.5078704392,
				"element": "N" 
			},
			{
				"x": 1.4427416106,
				"y": 2.5909099056,
				"z": -0.9878350066,
				"element": "C" 
			},
			{
				"x": 2.9452880789,
				"y": 2.9094613188,
				"z": -0.9100743744,
				"element": "C" 
			},
			{
				"x": 3.4564511319,
				"y": 2.3631513007,
				"z": 0.4342061764,
				"element": "C" 
			},
			{
				"x": 2.2480159116,
				"y": 1.0886078603,
				"z": 0.9577914254,
				"element": "S" 
			},
			{
				"x": 2.8325045362,
				"y": -0.2517790455,
				"z": 1.047868332,
				"element": "O" 
			},
			{
				"x": 1.4743251522,
				"y": 1.6156864842,
				"z": 2.0917579111,
				"element": "O" 
			},
			{
				"x": 1.6309364271,
				"y": -0.7442745303,
				"z": -2.4798169405,
				"element": "H" 
			},
			{
				"x": 0.8723615929,
				"y": -2.3292903147,
				"z": -2.2213785353,
				"element": "H" 
			},
			{
				"x": 1.9240308797,
				"y": -1.6118895226,
				"z": -0.9802472807,
				"element": "H" 
			},
			{
				"x": -0.9495020635,
				"y": 2.1166021974,
				"z": 0.5606640012,
				"element": "H" 
			},
			{
				"x": -3.1483058379,
				"y": 1.009448417,
				"z": 0.505570739,
				"element": "H" 
			},
			{
				"x": -1.412639999,
				"y": -2.3149801808,
				"z": -1.5897758236,
				"element": "H" 
			},
			{
				"x": -4.2516200821,
				"y": -0.6246292486,
				"z": 1.0298324347,
				"element": "H" 
			},
			{
				"x": 0.8568702513,
				"y": 3.2978052027,
				"z": -0.381198354,
				"element": "H" 
			},
			{
				"x": 1.0710449866,
				"y": 2.6304012352,
				"z": -2.0144501333,
				"element": "H" 
			},
			{
				"x": 3.4582787001,
				"y": 2.4052598396,
				"z": -1.7325744412,
				"element": "H" 
			},
			{
				"x": 3.1308125314,
				"y": 3.9833362673,
				"z": -0.9946585391,
				"element": "H" 
			},
			{
				"x": 3.449545903,
				"y": 3.1052457705,
				"z": 1.2343397046,
				"element": "H" 
			},
			{
				"x": 4.4355066935,
				"y": 1.886030626,
				"z": 0.3781858889,
				"element": "H" 
			}
		],
		 "valence_orbital": [ 
			{
				"type": "occ",
				"energy": -0.30673,
				"method": "rhf"
			},
			{
				"type": "occ",
				"energy": -0.28003,
				"method": "rhf"
			},
			{
				"type": "occ",
				"energy": -0.27016,
				"method": "rhf"
			},
			{
				"type": "occ",
				"energy": -0.26409,
				"method": "rhf"
			},
			{
				"type": "occ",
				"energy": -0.25535,
				"method": "rhf"
			},
			{
				"type": "unocc",
				"energy": -0.05724,
				"method": "rhf"
			},
			{
				"type": "unocc",
				"energy": -0.02209,
				"method": "rhf"
			},
			{
				"type": "unocc",
				"energy": 0.03091,
				"method": "rhf"
			},
			{
				"type": "unocc",
				"energy": 0.04425,
				"method": "rhf"
			},
			{
				"type": "unocc",
				"energy": 0.05379,
				"method": "rhf"
			}
		],
		"cosmo_sigma_profile": { 
			"-0.025": 0.0,
			"-0.024": 0.0,
			"-0.023": 0.0,
			"-0.022": 0.0,
			"-0.021": 0.0,
			"-0.02": 0.0,
			"-0.019": 0.207417133238,
			"-0.018": 0.688589059483,
			"-0.017": 0.930897786776,
			"-0.016": 0.866228592196,
			"-0.015": 0.979208685614,
			"-0.014": 0.905070486789,
			"-0.013": 1.49278405087,
			"-0.012": 1.38228599503,
			"-0.011": 0.836386956687,
			"-0.01": 1.40217354937,
			"-0.009": 1.92325432799,
			"-0.008": 5.79914704853,
			"-0.007": 12.7132895808,
			"-0.006": 21.5483508973,
			"-0.005": 22.4328446965,
			"-0.004": 21.3370899704,
			"-0.003": 16.6608090613,
			"-0.002": 15.7644197006,
			"-0.001": 15.7196541726,
			"0.0": 15.7228196503,
			"0.001": 12.8664921099,
			"0.002": 16.9923031548,
			"0.003": 10.6744818835,
			"0.004": 5.12760131169,
			"0.005": 5.89122169429,
			"0.006": 6.90374125317,
			"0.007": 5.07598479657,
			"0.008": 5.89637888671,
			"0.009": 6.98519325942,
			"0.01": 11.6660351939,
			"0.011": 14.6466427776,
			"0.012": 8.08035286623,
			"0.013": 1.34552520867,
			"0.014": 0.022265749338,
			"0.015": 0.0,
			"0.016": 0.0,
			"0.017": 0.0,
			"0.018": 0.0,
			"0.019": 0.0,
			"0.02": 0.0,
			"0.021": 0.0,
			"0.022": 0.0,
			"0.023": 0.0,
			"0.024": 0.0,
			"0.025": 0.0
		}
	}
}
