{
	 "smiles": "FC1=C2N=CC=CC2=C(C=C1)S(Cl)(=O)=O", 
	 "Tm": 378.15, 
	 "num_atms": 20, 
	 "gaussian": { 
		 "optdone": 1, 
		 "sigma_profile": "yes", 
		 "theory": "DFT", 
		 "functional": "B3LYP", 
		 "basiset": "6-31G**", 
		 "properties": { 
			 "R2extent": 4341.4141, 
			 "electric_dipole_moment_norm": 2.65252376804, 
			 "electric_quadrupole_moment_norm": 20.0118069661, 
			 "total_energy": -1509.31227514, 
			 "HOMO_LUMO_gap": 0.16369, 
			 "cosmo_polarized_energy": -10.29, 
			 "cosmo_cavitation_energy": 28.26, 
			 "cosmo_dispersion_energy": -21.31, 
			 "cosmo_repulsion_energy": 1.57, 
			 "cosmo_total_nonelectrostatic_energy": 8.53, 
			 "SMD_solvation_energy": 2.67 
		},
		"coords": [
			{
				"x": 2.7108512625,
				"y": -0.6663936183,
				"z": 1.5085862863,
				"element": "F" 
			},
			{
				"x": 1.7897211734,
				"y": 0.0619471012,
				"z": 0.8807213325,
				"element": "C" 
			},
			{
				"x": 0.4196863431,
				"y": -0.2979557751,
				"z": 1.05304773,
				"element": "C" 
			},
			{
				"x": 0.1396386481,
				"y": -1.3600910039,
				"z": 1.8508295723,
				"element": "N" 
			},
			{
				"x": -1.1265201974,
				"y": -1.6865249351,
				"z": 2.0103507559,
				"element": "C" 
			},
			{
				"x": -2.1975696624,
				"y": -0.9962780673,
				"z": 1.3951940759,
				"element": "C" 
			},
			{
				"x": -1.9302927856,
				"y": 0.0783150035,
				"z": 0.5799736517,
				"element": "C" 
			},
			{
				"x": -0.5807901457,
				"y": 0.4756644307,
				"z": 0.3788102435,
				"element": "C" 
			},
			{
				"x": -0.1364299185,
				"y": 1.5707890083,
				"z": -0.4263369703,
				"element": "C" 
			},
			{
				"x": 1.2008933163,
				"y": 1.8901957849,
				"z": -0.5553831471,
				"element": "C" 
			},
			{
				"x": 2.1818307904,
				"y": 1.1213741396,
				"z": 0.099866712,
				"element": "C" 
			},
			{
				"x": -1.2743436829,
				"y": 2.6173757182,
				"z": -1.3243339409,
				"element": "S" 
			},
			{
				"x": -2.145115828,
				"y": 3.7616397365,
				"z": 0.2586977251,
				"element": "Cl" 
			},
			{
				"x": -0.5185172142,
				"y": 3.5596572349,
				"z": -2.139378377,
				"element": "O" 
			},
			{
				"x": -2.3639413425,
				"y": 1.8256178729,
				"z": -1.885719371,
				"element": "O" 
			},
			{
				"x": -1.3289233493,
				"y": -2.5399529122,
				"z": 2.6553804764,
				"element": "H" 
			},
			{
				"x": -3.2188143469,
				"y": -1.3204599138,
				"z": 1.5663942516,
				"element": "H" 
			},
			{
				"x": -2.7340801656,
				"y": 0.6098212657,
				"z": 0.0874891236,
				"element": "H" 
			},
			{
				"x": 1.493402182,
				"y": 2.7340238334,
				"z": -1.1689487909,
				"element": "H" 
			},
			{
				"x": 3.2353149233,
				"y": 1.3548350961,
				"z": -0.0006413394,
				"element": "H" 
			}
		],
		 "valence_orbital": [ 
			{
				"type": "occ",
				"energy": -0.32527,
				"method": "rhf"
			},
			{
				"type": "occ",
				"energy": -0.31871,
				"method": "rhf"
			},
			{
				"type": "occ",
				"energy": -0.28933,
				"method": "rhf"
			},
			{
				"type": "occ",
				"energy": -0.28335,
				"method": "rhf"
			},
			{
				"type": "occ",
				"energy": -0.26644,
				"method": "rhf"
			},
			{
				"type": "unocc",
				"energy": -0.10275,
				"method": "rhf"
			},
			{
				"type": "unocc",
				"energy": -0.07592,
				"method": "rhf"
			},
			{
				"type": "unocc",
				"energy": -0.05271,
				"method": "rhf"
			},
			{
				"type": "unocc",
				"energy": -0.02124,
				"method": "rhf"
			},
			{
				"type": "unocc",
				"energy": 0.04606,
				"method": "rhf"
			}
		],
		"cosmo_sigma_profile": { 
			"-0.025": 0.0,
			"-0.024": 0.0,
			"-0.023": 0.0,
			"-0.022": 0.0,
			"-0.021": 0.0,
			"-0.02": 0.0,
			"-0.019": 0.0,
			"-0.018": 0.0,
			"-0.017": 0.0,
			"-0.016": 0.0,
			"-0.015": 0.0,
			"-0.014": 0.0,
			"-0.013": 0.0,
			"-0.012": 0.0,
			"-0.011": 0.0,
			"-0.01": 0.352854475819,
			"-0.009": 3.65095379056,
			"-0.008": 7.86268873297,
			"-0.007": 10.4356236788,
			"-0.006": 8.64393953541,
			"-0.005": 8.64493241784,
			"-0.004": 9.24910946837,
			"-0.003": 15.8855369222,
			"-0.002": 23.4447850908,
			"-0.001": 25.3164464362,
			"0.0": 22.241430727,
			"0.001": 12.9866681541,
			"0.002": 15.2220655732,
			"0.003": 21.8495272769,
			"0.004": 9.88765575191,
			"0.005": 4.72577558925,
			"0.006": 5.20535111538,
			"0.007": 8.40078145362,
			"0.008": 9.85628557949,
			"0.009": 3.4329543124,
			"0.01": 0.838405790786,
			"0.011": 0.987721484679,
			"0.012": 0.741414992588,
			"0.013": 1.22611815955,
			"0.014": 0.633043828214,
			"0.015": 0.0186976739998,
			"0.016": 0.0,
			"0.017": 0.0,
			"0.018": 0.0,
			"0.019": 0.0,
			"0.02": 0.0,
			"0.021": 0.0,
			"0.022": 0.0,
			"0.023": 0.0,
			"0.024": 0.0,
			"0.025": 0.0
		}
	}
}
