{
	 "smiles": "CCCCCC1=CC=C(C=C1)C#CC1=CC=C(OCC)C=C1", 
	 "Tm": 335.15, 
	 "num_atms": 46, 
	 "gaussian": { 
		 "optdone": 1, 
		 "sigma_profile": "yes", 
		 "theory": "DFT", 
		 "functional": "B3LYP", 
		 "basiset": "6-31G**", 
		 "properties": { 
			 "R2extent": 17537.0283, 
			 "electric_dipole_moment_norm": 1.6557423622, 
			 "electric_quadrupole_moment_norm": 25.8418825746, 
			 "total_energy": -889.88663903, 
			 "HOMO_LUMO_gap": 0.15603, 
			 "cosmo_polarized_energy": -8.85, 
			 "cosmo_cavitation_energy": 49.53, 
			 "cosmo_dispersion_energy": -34.58, 
			 "cosmo_repulsion_energy": 2.69, 
			 "cosmo_total_nonelectrostatic_energy": 17.64, 
			 "SMD_solvation_energy": 8.18 
		},
		"coords": [
			{
				"x": 2.3113144053,
				"y": -5.8850370438,
				"z": 2.9452282736,
				"element": "C" 
			},
			{
				"x": 3.2393326649,
				"y": -5.7631545608,
				"z": 1.7307948049,
				"element": "C" 
			},
			{
				"x": 2.6701170314,
				"y": -5.0023715151,
				"z": 0.5192488879,
				"element": "C" 
			},
			{
				"x": 1.4498861218,
				"y": -5.6506100941,
				"z": -0.1701624287,
				"element": "C" 
			},
			{
				"x": 0.0599595849,
				"y": -5.1978609076,
				"z": 0.3419368651,
				"element": "C" 
			},
			{
				"x": -0.2564592732,
				"y": -3.7446241476,
				"z": 0.0563167921,
				"element": "C" 
			},
			{
				"x": -0.5579494117,
				"y": -3.320140093,
				"z": -1.2478416332,
				"element": "C" 
			},
			{
				"x": -0.8366315887,
				"y": -1.9883748558,
				"z": -1.5306073421,
				"element": "C" 
			},
			{
				"x": -0.8248652486,
				"y": -1.0194569524,
				"z": -0.5053794657,
				"element": "C" 
			},
			{
				"x": -0.5274387563,
				"y": -1.4408477647,
				"z": 0.8050327337,
				"element": "C" 
			},
			{
				"x": -0.2507566841,
				"y": -2.7789705952,
				"z": 1.0725178524,
				"element": "C" 
			},
			{
				"x": -1.1109866722,
				"y": 0.3465763657,
				"z": -0.7879905747,
				"element": "C" 
			},
			{
				"x": -1.3548426786,
				"y": 1.5140825296,
				"z": -1.0306173254,
				"element": "C" 
			},
			{
				"x": -1.6397307511,
				"y": 2.8800517077,
				"z": -1.3108530247,
				"element": "C" 
			},
			{
				"x": -1.6354308537,
				"y": 3.8499093028,
				"z": -0.2837163905,
				"element": "C" 
			},
			{
				"x": -1.9115903211,
				"y": 5.1792956365,
				"z": -0.5582581765,
				"element": "C" 
			},
			{
				"x": -2.2035994769,
				"y": 5.5914971977,
				"z": -1.8693371329,
				"element": "C" 
			},
			{
				"x": -2.4774878993,
				"y": 6.9189504239,
				"z": -2.0155839487,
				"element": "O" 
			},
			{
				"x": -2.7535784656,
				"y": 7.4560436203,
				"z": -3.3123266133,
				"element": "C" 
			},
			{
				"x": -1.485529088,
				"y": 7.7274039781,
				"z": -4.1153717983,
				"element": "C" 
			},
			{
				"x": -2.2093708597,
				"y": 4.6429794557,
				"z": -2.9020353119,
				"element": "C" 
			},
			{
				"x": -1.9319761482,
				"y": 3.3072398711,
				"z": -2.6185964887,
				"element": "C" 
			},
			{
				"x": 1.4251969227,
				"y": -6.4891907921,
				"z": 2.7256067477,
				"element": "H" 
			},
			{
				"x": 1.9689695925,
				"y": -4.9007319056,
				"z": 3.2857643074,
				"element": "H" 
			},
			{
				"x": 2.8284253812,
				"y": -6.3625343384,
				"z": 3.7844996551,
				"element": "H" 
			},
			{
				"x": 3.5407275949,
				"y": -6.7693099139,
				"z": 1.4074278124,
				"element": "H" 
			},
			{
				"x": 4.1634020774,
				"y": -5.2601588912,
				"z": 2.0444788921,
				"element": "H" 
			},
			{
				"x": 2.4234927514,
				"y": -3.9731889749,
				"z": 0.8114202535,
				"element": "H" 
			},
			{
				"x": 3.4771334841,
				"y": -4.9135220196,
				"z": -0.2185811452,
				"element": "H" 
			},
			{
				"x": 1.4919699979,
				"y": -5.4367346992,
				"z": -1.2451886453,
				"element": "H" 
			},
			{
				"x": 1.5175069923,
				"y": -6.7433544084,
				"z": -0.0795670102,
				"element": "H" 
			},
			{
				"x": -0.699493497,
				"y": -5.8287750008,
				"z": -0.1380982387,
				"element": "H" 
			},
			{
				"x": -0.022764186,
				"y": -5.3806118029,
				"z": 1.4176997,
				"element": "H" 
			},
			{
				"x": -0.5799588529,
				"y": -4.049345612,
				"z": -2.0545821968,
				"element": "H" 
			},
			{
				"x": -1.0715385943,
				"y": -1.6810549853,
				"z": -2.5448019431,
				"element": "H" 
			},
			{
				"x": -0.518857995,
				"y": -0.709449467,
				"z": 1.6069555667,
				"element": "H" 
			},
			{
				"x": -0.0312101786,
				"y": -3.0821409877,
				"z": 2.0932685244,
				"element": "H" 
			},
			{
				"x": -1.4126971008,
				"y": 3.5422975215,
				"z": 0.7329124094,
				"element": "H" 
			},
			{
				"x": -1.9121710704,
				"y": 5.9267733389,
				"z": 0.228273316,
				"element": "H" 
			},
			{
				"x": -3.4454509989,
				"y": 6.8008792481,
				"z": -3.8564921329,
				"element": "H" 
			},
			{
				"x": -3.2817478159,
				"y": 8.3921705515,
				"z": -3.1105576174,
				"element": "H" 
			},
			{
				"x": -1.7405778405,
				"y": 8.1992244701,
				"z": -5.0702587089,
				"element": "H" 
			},
			{
				"x": -0.8254012709,
				"y": 8.4020672307,
				"z": -3.5629606304,
				"element": "H" 
			},
			{
				"x": -0.93369042,
				"y": 6.8072627667,
				"z": -4.3253218723,
				"element": "H" 
			},
			{
				"x": -2.4244040032,
				"y": 4.9289485539,
				"z": -3.9245893622,
				"element": "H" 
			},
			{
				"x": -1.9379466015,
				"y": 2.5783985586,
				"z": -3.422806236,
				"element": "H" 
			}
		],
		 "valence_orbital": [ 
			{
				"type": "occ",
				"energy": -0.25708,
				"method": "rhf"
			},
			{
				"type": "occ",
				"energy": -0.2538,
				"method": "rhf"
			},
			{
				"type": "occ",
				"energy": -0.24837,
				"method": "rhf"
			},
			{
				"type": "occ",
				"energy": -0.24165,
				"method": "rhf"
			},
			{
				"type": "occ",
				"energy": -0.19192,
				"method": "rhf"
			},
			{
				"type": "unocc",
				"energy": -0.03589,
				"method": "rhf"
			},
			{
				"type": "unocc",
				"energy": -0.00254,
				"method": "rhf"
			},
			{
				"type": "unocc",
				"energy": 0.00109,
				"method": "rhf"
			},
			{
				"type": "unocc",
				"energy": 0.02001,
				"method": "rhf"
			},
			{
				"type": "unocc",
				"energy": 0.0613,
				"method": "rhf"
			}
		],
		"cosmo_sigma_profile": { 
			"-0.025": 0.0,
			"-0.024": 0.0,
			"-0.023": 0.0,
			"-0.022": 0.0,
			"-0.021": 0.0,
			"-0.02": 0.0,
			"-0.019": 0.0,
			"-0.018": 0.0,
			"-0.017": 0.0,
			"-0.016": 0.0,
			"-0.015": 0.0,
			"-0.014": 0.0,
			"-0.013": 0.0,
			"-0.012": 0.0,
			"-0.011": 0.0,
			"-0.01": 0.0,
			"-0.009": 0.0,
			"-0.008": 0.120371942881,
			"-0.007": 2.49758217914,
			"-0.006": 10.6665441534,
			"-0.005": 20.5116725064,
			"-0.004": 26.8440633749,
			"-0.003": 35.3000102953,
			"-0.002": 41.8680194954,
			"-0.001": 45.6620032656,
			"0.0": 44.8034808791,
			"0.001": 40.0744708434,
			"0.002": 26.2418705863,
			"0.003": 24.7001481442,
			"0.004": 32.8664126883,
			"0.005": 24.3184334021,
			"0.006": 8.03618097891,
			"0.007": 2.84287824792,
			"0.008": 1.34024856377,
			"0.009": 1.27450208985,
			"0.01": 1.28148068517,
			"0.011": 0.139188771002,
			"0.012": 0.0,
			"0.013": 0.0,
			"0.014": 0.0,
			"0.015": 0.0,
			"0.016": 0.0,
			"0.017": 0.0,
			"0.018": 0.0,
			"0.019": 0.0,
			"0.02": 0.0,
			"0.021": 0.0,
			"0.022": 0.0,
			"0.023": 0.0,
			"0.024": 0.0,
			"0.025": 0.0
		}
	}
}
