{
	 "smiles": "CC(C)C(=O)NC1(CCCC1)C#N", 
	 "Tm": 330.15, 
	 "num_atms": 29, 
	 "gaussian": { 
		 "optdone": 1, 
		 "sigma_profile": "yes", 
		 "theory": "DFT", 
		 "functional": "B3LYP", 
		 "basiset": "6-31G**", 
		 "properties": { 
			 "R2extent": 3394.097, 
			 "electric_dipole_moment_norm": 5.88318389735, 
			 "electric_quadrupole_moment_norm": 26.9895783111, 
			 "total_energy": -575.441502908, 
			 "HOMO_LUMO_gap": 0.26166, 
			 "cosmo_polarized_energy": -16.66, 
			 "cosmo_cavitation_energy": 30.95, 
			 "cosmo_dispersion_energy": -20.95, 
			 "cosmo_repulsion_energy": 1.7, 
			 "cosmo_total_nonelectrostatic_energy": 11.7, 
			 "SMD_solvation_energy": 6.47 
		},
		"coords": [
			{
				"x": 0.7534285675,
				"y": 1.2177713301,
				"z": 2.4589574167,
				"element": "C" 
			},
			{
				"x": -0.2191369593,
				"y": 1.9289201224,
				"z": 1.5083961272,
				"element": "C" 
			},
			{
				"x": -1.0944059551,
				"y": 2.9566824428,
				"z": 2.2487765924,
				"element": "C" 
			},
			{
				"x": -1.1334074525,
				"y": 1.0242987935,
				"z": 0.664502481,
				"element": "C" 
			},
			{
				"x": -1.9017961639,
				"y": 1.5034538263,
				"z": -0.1593454025,
				"element": "O" 
			},
			{
				"x": -1.0311978376,
				"y": -0.3326759161,
				"z": 0.8670675391,
				"element": "N" 
			},
			{
				"x": -1.9307365795,
				"y": -1.310168124,
				"z": 0.2420609255,
				"element": "C" 
			},
			{
				"x": -1.432499771,
				"y": -2.7343973045,
				"z": 0.600346946,
				"element": "C" 
			},
			{
				"x": -0.2360611047,
				"y": -2.9816443812,
				"z": -0.3479838373,
				"element": "C" 
			},
			{
				"x": -0.4573939325,
				"y": -2.0332715098,
				"z": -1.5635850088,
				"element": "C" 
			},
			{
				"x": -1.7969118822,
				"y": -1.3128410795,
				"z": -1.3035318013,
				"element": "C" 
			},
			{
				"x": -3.3227407079,
				"y": -1.0967216572,
				"z": 0.6948574118,
				"element": "C" 
			},
			{
				"x": -4.4142984414,
				"y": -0.9772261737,
				"z": 1.0713929165,
				"element": "N" 
			},
			{
				"x": 0.223778352,
				"y": 0.6838577412,
				"z": 3.2582815973,
				"element": "H" 
			},
			{
				"x": 1.4009876934,
				"y": 1.951886424,
				"z": 2.9477589882,
				"element": "H" 
			},
			{
				"x": 1.4038026405,
				"y": 0.5094260542,
				"z": 1.934435341,
				"element": "H" 
			},
			{
				"x": 0.3703324839,
				"y": 2.4749295744,
				"z": 0.759775908,
				"element": "H" 
			},
			{
				"x": -0.4700229506,
				"y": 3.7174160558,
				"z": 2.7276878992,
				"element": "H" 
			},
			{
				"x": -1.6942102219,
				"y": 2.4719299961,
				"z": 3.0274645867,
				"element": "H" 
			},
			{
				"x": -1.7750395885,
				"y": 3.4458516991,
				"z": 1.5495916555,
				"element": "H" 
			},
			{
				"x": -0.5189343026,
				"y": -0.6535073335,
				"z": 1.6749994285,
				"element": "H" 
			},
			{
				"x": -2.2452848812,
				"y": -3.4368503262,
				"z": 0.3949699718,
				"element": "H" 
			},
			{
				"x": -1.1880869369,
				"y": -2.8324107858,
				"z": 1.663755005,
				"element": "H" 
			},
			{
				"x": -0.189320117,
				"y": -4.0334286463,
				"z": -0.6435929584,
				"element": "H" 
			},
			{
				"x": 0.7100806651,
				"y": -2.753861695,
				"z": 0.1521894817,
				"element": "H" 
			},
			{
				"x": 0.3569083299,
				"y": -1.3066070919,
				"z": -1.6312579286,
				"element": "H" 
			},
			{
				"x": -0.4798907855,
				"y": -2.5752015313,
				"z": -2.513008877,
				"element": "H" 
			},
			{
				"x": -1.8545334837,
				"y": -0.3030565589,
				"z": -1.7069697684,
				"element": "H" 
			},
			{
				"x": -2.6351086767,
				"y": -1.8898539452,
				"z": -1.708792637,
				"element": "H" 
			}
		],
		 "valence_orbital": [ 
			{
				"type": "occ",
				"energy": -0.33337,
				"method": "rhf"
			},
			{
				"type": "occ",
				"energy": -0.32338,
				"method": "rhf"
			},
			{
				"type": "occ",
				"energy": -0.31052,
				"method": "rhf"
			},
			{
				"type": "occ",
				"energy": -0.27097,
				"method": "rhf"
			},
			{
				"type": "occ",
				"energy": -0.25089,
				"method": "rhf"
			},
			{
				"type": "unocc",
				"energy": 0.01077,
				"method": "rhf"
			},
			{
				"type": "unocc",
				"energy": 0.03647,
				"method": "rhf"
			},
			{
				"type": "unocc",
				"energy": 0.04183,
				"method": "rhf"
			},
			{
				"type": "unocc",
				"energy": 0.05478,
				"method": "rhf"
			},
			{
				"type": "unocc",
				"energy": 0.07915,
				"method": "rhf"
			}
		],
		"cosmo_sigma_profile": { 
			"-0.025": 0.0,
			"-0.024": 0.0,
			"-0.023": 0.0,
			"-0.022": 0.0,
			"-0.021": 0.0,
			"-0.02": 0.0,
			"-0.019": 0.0,
			"-0.018": 0.0,
			"-0.017": 0.0,
			"-0.016": 0.0,
			"-0.015": 0.0,
			"-0.014": 0.0,
			"-0.013": 0.62242451788,
			"-0.012": 1.23287921274,
			"-0.011": 1.93649819718,
			"-0.01": 1.55398428643,
			"-0.009": 1.36793275305,
			"-0.008": 2.26719554855,
			"-0.007": 2.4839732289,
			"-0.006": 4.84126734082,
			"-0.005": 11.7021859652,
			"-0.004": 20.1422839205,
			"-0.003": 33.9042728629,
			"-0.002": 33.3722756113,
			"-0.001": 28.0727089945,
			"0.0": 27.4081006807,
			"0.001": 14.3868869899,
			"0.002": 4.33036908416,
			"0.003": 3.82512562776,
			"0.004": 2.99248181659,
			"0.005": 3.54548225593,
			"0.006": 4.00649396877,
			"0.007": 4.85287065911,
			"0.008": 6.08636514829,
			"0.009": 5.17741741853,
			"0.01": 4.75414717291,
			"0.011": 5.06265568174,
			"0.012": 4.2244962083,
			"0.013": 5.08533707129,
			"0.014": 2.21730576756,
			"0.015": 0.130680771515,
			"0.016": 0.0,
			"0.017": 0.0,
			"0.018": 0.0,
			"0.019": 0.0,
			"0.02": 0.0,
			"0.021": 0.0,
			"0.022": 0.0,
			"0.023": 0.0,
			"0.024": 0.0,
			"0.025": 0.0
		}
	}
}
