{
	 "smiles": "CC(C)SC1=C(C=C(C=C1)[N+]([O-])=O)C(O)=O", 
	 "Tm": 458.15, 
	 "num_atms": 27, 
	 "gaussian": { 
		 "optdone": 1, 
		 "sigma_profile": "yes", 
		 "theory": "DFT", 
		 "functional": "B3LYP", 
		 "basiset": "6-31G**", 
		 "properties": { 
			 "R2extent": 5150.5253, 
			 "electric_dipole_moment_norm": 3.43289168049, 
			 "electric_quadrupole_moment_norm": 23.0689894631, 
			 "total_energy": -1141.44310022, 
			 "HOMO_LUMO_gap": 0.13381, 
			 "cosmo_polarized_energy": -14.61, 
			 "cosmo_cavitation_energy": 33.42, 
			 "cosmo_dispersion_energy": -23.64, 
			 "cosmo_repulsion_energy": 1.81, 
			 "cosmo_total_nonelectrostatic_energy": 11.6, 
			 "SMD_solvation_energy": 8.74 
		},
		"coords": [
			{
				"x": 1.2891405897,
				"y": -1.2749410669,
				"z": 1.709475808,
				"element": "C" 
			},
			{
				"x": 0.7765595745,
				"y": 0.0651948749,
				"z": 2.2342126016,
				"element": "C" 
			},
			{
				"x": 1.7421069594,
				"y": 0.7148568675,
				"z": 3.2293941768,
				"element": "C" 
			},
			{
				"x": 0.5256565322,
				"y": 1.305219605,
				"z": 0.8629317807,
				"element": "S" 
			},
			{
				"x": -0.7886250497,
				"y": 0.5464116468,
				"z": -0.0873115972,
				"element": "C" 
			},
			{
				"x": -0.6122331836,
				"y": 0.1329534083,
				"z": -1.4281407975,
				"element": "C" 
			},
			{
				"x": -1.7154584578,
				"y": -0.3079087277,
				"z": -2.1701779449,
				"element": "C" 
			},
			{
				"x": -2.9621765182,
				"y": -0.3875775025,
				"z": -1.5639914324,
				"element": "C" 
			},
			{
				"x": -3.1594393631,
				"y": -0.0115267742,
				"z": -0.2370216354,
				"element": "C" 
			},
			{
				"x": -2.0720962856,
				"y": 0.4713200823,
				"z": 0.4806878771,
				"element": "C" 
			},
			{
				"x": -4.107369719,
				"y": -0.8753391519,
				"z": -2.3490904976,
				"element": "N" 
			},
			{
				"x": -3.9024736445,
				"y": -1.1957120146,
				"z": -3.5186893065,
				"element": "O" 
			},
			{
				"x": -5.1983721809,
				"y": -0.9329886107,
				"z": -1.7830995307,
				"element": "O" 
			},
			{
				"x": 0.7332349679,
				"y": 0.0564830578,
				"z": -2.0890100192,
				"element": "C" 
			},
			{
				"x": 0.660677195,
				"y": 0.3985103481,
				"z": -3.3986766827,
				"element": "O" 
			},
			{
				"x": 1.7608304309,
				"y": -0.3140836552,
				"z": -1.5682097691,
				"element": "O" 
			},
			{
				"x": 0.5818910749,
				"y": -1.7321286396,
				"z": 1.0127391404,
				"element": "H" 
			},
			{
				"x": 2.2396493865,
				"y": -1.152456866,
				"z": 1.1843689539,
				"element": "H" 
			},
			{
				"x": 1.4330841318,
				"y": -1.9665202082,
				"z": 2.5486195168,
				"element": "H" 
			},
			{
				"x": -0.1981510151,
				"y": -0.0698290954,
				"z": 2.7158023763,
				"element": "H" 
			},
			{
				"x": 1.3510471318,
				"y": 1.6599614434,
				"z": 3.6167987632,
				"element": "H" 
			},
			{
				"x": 2.7145456295,
				"y": 0.9075802164,
				"z": 2.7644849452,
				"element": "H" 
			},
			{
				"x": 1.903755032,
				"y": 0.0390011388,
				"z": 4.07573881,
				"element": "H" 
			},
			{
				"x": -1.6045641327,
				"y": -0.6056931962,
				"z": -3.2043648296,
				"element": "H" 
			},
			{
				"x": -4.1493517103,
				"y": -0.0755177662,
				"z": 0.1972826834,
				"element": "H" 
			},
			{
				"x": -2.2157164903,
				"y": 0.8225248113,
				"z": 1.4969354228,
				"element": "H" 
			},
			{
				"x": 1.551449115,
				"y": 0.2589057749,
				"z": -3.7622888133,
				"element": "H" 
			}
		],
		 "valence_orbital": [ 
			{
				"type": "occ",
				"energy": -0.30205,
				"method": "rhf"
			},
			{
				"type": "occ",
				"energy": -0.29734,
				"method": "rhf"
			},
			{
				"type": "occ",
				"energy": -0.28916,
				"method": "rhf"
			},
			{
				"type": "occ",
				"energy": -0.28013,
				"method": "rhf"
			},
			{
				"type": "occ",
				"energy": -0.23381,
				"method": "rhf"
			},
			{
				"type": "unocc",
				"energy": -0.1,
				"method": "rhf"
			},
			{
				"type": "unocc",
				"energy": -0.06035,
				"method": "rhf"
			},
			{
				"type": "unocc",
				"energy": -0.02591,
				"method": "rhf"
			},
			{
				"type": "unocc",
				"energy": 0.01873,
				"method": "rhf"
			},
			{
				"type": "unocc",
				"energy": 0.03963,
				"method": "rhf"
			}
		],
		"cosmo_sigma_profile": { 
			"-0.025": 0.0,
			"-0.024": 0.0,
			"-0.023": 0.0,
			"-0.022": 0.0,
			"-0.021": 0.0,
			"-0.02": 0.0,
			"-0.019": 0.36276575513,
			"-0.018": 0.859519760284,
			"-0.017": 0.969296352203,
			"-0.016": 0.857987526803,
			"-0.015": 0.892065913694,
			"-0.014": 0.650944701264,
			"-0.013": 0.349411055668,
			"-0.012": 0.840881155867,
			"-0.011": 0.911546537971,
			"-0.01": 0.362550697957,
			"-0.009": 0.929332956846,
			"-0.008": 4.01215171214,
			"-0.007": 8.20000340475,
			"-0.006": 7.00005969571,
			"-0.005": 10.7309871434,
			"-0.004": 18.8252822666,
			"-0.003": 26.2293260669,
			"-0.002": 28.7109863505,
			"-0.001": 29.5503469684,
			"0.0": 27.3743956283,
			"0.001": 15.6726821802,
			"0.002": 7.4125595028,
			"0.003": 7.81702529979,
			"0.004": 7.44469815106,
			"0.005": 9.12927639585,
			"0.006": 9.58187189446,
			"0.007": 13.8170302362,
			"0.008": 10.614138376,
			"0.009": 7.07819006307,
			"0.01": 3.99255096801,
			"0.011": 3.90944450739,
			"0.012": 1.55768750034,
			"0.013": 0.125064488337,
			"0.014": 0.0,
			"0.015": 0.0,
			"0.016": 0.0,
			"0.017": 0.0,
			"0.018": 0.0,
			"0.019": 0.0,
			"0.02": 0.0,
			"0.021": 0.0,
			"0.022": 0.0,
			"0.023": 0.0,
			"0.024": 0.0,
			"0.025": 0.0
		}
	}
}
