{
	 "smiles": "OC1=CC=CC=N1", 
	 "Tm": 380.15, 
	 "num_atms": 12, 
	 "gaussian": { 
		 "optdone": 1, 
		 "sigma_profile": "yes", 
		 "theory": "DFT", 
		 "functional": "B3LYP", 
		 "basiset": "6-31G**", 
		 "properties": { 
			 "R2extent": 919.0018, 
			 "electric_dipole_moment_norm": 1.15198693135, 
			 "electric_quadrupole_moment_norm": 3.35970599607, 
			 "total_energy": -323.521069607, 
			 "HOMO_LUMO_gap": 0.21279, 
			 "cosmo_polarized_energy": -6.54, 
			 "cosmo_cavitation_energy": 16.02, 
			 "cosmo_dispersion_energy": -12.32, 
			 "cosmo_repulsion_energy": 1.04, 
			 "cosmo_total_nonelectrostatic_energy": 4.73, 
			 "SMD_solvation_energy": 2.06 
		},
		"coords": [
			{
				"x": -1.2848238123,
				"y": -3.0442337667,
				"z": 0.9837240377,
				"element": "O" 
			},
			{
				"x": -0.750634466,
				"y": -1.9424519092,
				"z": 0.4088256547,
				"element": "C" 
			},
			{
				"x": -0.9631877725,
				"y": -0.6955320773,
				"z": 1.0171153034,
				"element": "C" 
			},
			{
				"x": -0.4034330824,
				"y": 0.4172061926,
				"z": 0.4053073434,
				"element": "C" 
			},
			{
				"x": 0.3379607651,
				"y": 0.2593817901,
				"z": -0.772499143,
				"element": "C" 
			},
			{
				"x": 0.4817341092,
				"y": -1.0261673508,
				"z": -1.283484095,
				"element": "C" 
			},
			{
				"x": -0.0503154681,
				"y": -2.1164213924,
				"z": -0.7093011246,
				"element": "N" 
			},
			{
				"x": -1.0259222426,
				"y": -3.7885025967,
				"z": 0.417206105,
				"element": "H" 
			},
			{
				"x": -1.5453810828,
				"y": -0.629646551,
				"z": 1.9289202495,
				"element": "H" 
			},
			{
				"x": -0.5423109203,
				"y": 1.4025368153,
				"z": 0.8411702631,
				"element": "H" 
			},
			{
				"x": 0.7888486844,
				"y": 1.1072882508,
				"z": -1.2762388912,
				"element": "H" 
			},
			{
				"x": 1.0485652885,
				"y": -1.2005574047,
				"z": -2.196045703,
				"element": "H" 
			}
		],
		 "valence_orbital": [ 
			{
				"type": "occ",
				"energy": -0.36678,
				"method": "rhf"
			},
			{
				"type": "occ",
				"energy": -0.34797,
				"method": "rhf"
			},
			{
				"type": "occ",
				"energy": -0.28578,
				"method": "rhf"
			},
			{
				"type": "occ",
				"energy": -0.26947,
				"method": "rhf"
			},
			{
				"type": "occ",
				"energy": -0.23465,
				"method": "rhf"
			},
			{
				"type": "unocc",
				"energy": -0.02186,
				"method": "rhf"
			},
			{
				"type": "unocc",
				"energy": 0.00444,
				"method": "rhf"
			},
			{
				"type": "unocc",
				"energy": 0.09384,
				"method": "rhf"
			},
			{
				"type": "unocc",
				"energy": 0.09899,
				"method": "rhf"
			},
			{
				"type": "unocc",
				"energy": 0.14527,
				"method": "rhf"
			}
		],
		"cosmo_sigma_profile": { 
			"-0.025": 0.0,
			"-0.024": 0.0,
			"-0.023": 0.0,
			"-0.022": 0.0,
			"-0.021": 0.0,
			"-0.02": 0.0,
			"-0.019": 0.0,
			"-0.018": 0.0,
			"-0.017": 0.346814463563,
			"-0.016": 0.591776257692,
			"-0.015": 0.69016459165,
			"-0.014": 0.825374368982,
			"-0.013": 0.72650517096,
			"-0.012": 0.750880559763,
			"-0.011": 0.790281543389,
			"-0.01": 0.746555458185,
			"-0.009": 0.527920647258,
			"-0.008": 0.421586681241,
			"-0.007": 3.76085194023,
			"-0.006": 8.77932423162,
			"-0.005": 9.9825691939,
			"-0.004": 9.03660030003,
			"-0.003": 6.98951320044,
			"-0.002": 5.31586452877,
			"-0.001": 5.68520559488,
			"0.0": 6.79524553197,
			"0.001": 9.99923571401,
			"0.002": 14.3053877411,
			"0.003": 13.8670113713,
			"0.004": 7.39895879481,
			"0.005": 2.15985587004,
			"0.006": 2.85974071533,
			"0.007": 2.56828424936,
			"0.008": 2.71041203763,
			"0.009": 2.39762966622,
			"0.01": 2.68424604471,
			"0.011": 2.37024983753,
			"0.012": 0.871716072835,
			"0.013": 0.623725185265,
			"0.014": 0.64231811913,
			"0.015": 0.0839652261993,
			"0.016": 0.0,
			"0.017": 0.0,
			"0.018": 0.0,
			"0.019": 0.0,
			"0.02": 0.0,
			"0.021": 0.0,
			"0.022": 0.0,
			"0.023": 0.0,
			"0.024": 0.0,
			"0.025": 0.0
		}
	}
}
