{
	 "smiles": "OC(=O)C1=C(SC2=C(C=CC=C2)C#N)C=CC=C1", 
	 "Tm": 487.15, 
	 "num_atms": 27, 
	 "gaussian": { 
		 "optdone": 1, 
		 "sigma_profile": "yes", 
		 "theory": "DFT", 
		 "functional": "B3LYP", 
		 "basiset": "6-31G**", 
		 "properties": { 
			 "R2extent": 4754.2831, 
			 "electric_dipole_moment_norm": 5.06851937059, 
			 "electric_quadrupole_moment_norm": 26.5792863343, 
			 "total_energy": -1142.28787955, 
			 "HOMO_LUMO_gap": 0.1591, 
			 "cosmo_polarized_energy": -16.68, 
			 "cosmo_cavitation_energy": 34.48, 
			 "cosmo_dispersion_energy": -23.79, 
			 "cosmo_repulsion_energy": 1.8, 
			 "cosmo_total_nonelectrostatic_energy": 12.49, 
			 "SMD_solvation_energy": 8.01 
		},
		"coords": [
			{
				"x": 0.0216488762,
				"y": -1.0241136245,
				"z": 1.3639811393,
				"element": "O" 
			},
			{
				"x": 1.268655569,
				"y": -0.9210311666,
				"z": 0.8677663899,
				"element": "C" 
			},
			{
				"x": 2.2512138977,
				"y": -1.0674415124,
				"z": 1.5699597593,
				"element": "O" 
			},
			{
				"x": 1.3508220904,
				"y": -0.6467488226,
				"z": -0.6052749577,
				"element": "C" 
			},
			{
				"x": 0.2955579824,
				"y": -0.2695968623,
				"z": -1.473850464,
				"element": "C" 
			},
			{
				"x": -1.4367922543,
				"y": -0.0904903416,
				"z": -1.0315551391,
				"element": "S" 
			},
			{
				"x": -1.4538782166,
				"y": 1.3055258753,
				"z": 0.0781634659,
				"element": "C" 
			},
			{
				"x": -2.5542742632,
				"y": 1.447313697,
				"z": 0.9557704599,
				"element": "C" 
			},
			{
				"x": -2.6408936445,
				"y": 2.5649930885,
				"z": 1.8052064676,
				"element": "C" 
			},
			{
				"x": -1.6413001975,
				"y": 3.530350616,
				"z": 1.8036339111,
				"element": "C" 
			},
			{
				"x": -0.5521947745,
				"y": 3.3880112877,
				"z": 0.9394909295,
				"element": "C" 
			},
			{
				"x": -0.4631287739,
				"y": 2.2948728516,
				"z": 0.0801579806,
				"element": "C" 
			},
			{
				"x": -3.5982167105,
				"y": 0.4661775652,
				"z": 1.0025605326,
				"element": "C" 
			},
			{
				"x": -4.4613625141,
				"y": -0.3120490683,
				"z": 1.0626875701,
				"element": "N" 
			},
			{
				"x": 0.571307621,
				"y": -0.0889911527,
				"z": -2.8374658558,
				"element": "C" 
			},
			{
				"x": 1.8545467051,
				"y": -0.2735474675,
				"z": -3.3511892269,
				"element": "C" 
			},
			{
				"x": 2.8980179701,
				"y": -0.6208241806,
				"z": -2.4953216109,
				"element": "C" 
			},
			{
				"x": 2.6411144755,
				"y": -0.7953790821,
				"z": -1.139203621,
				"element": "C" 
			},
			{
				"x": 0.12907994,
				"y": -1.2180354685,
				"z": 2.3106737513,
				"element": "H" 
			},
			{
				"x": -3.4965143443,
				"y": 2.6520997483,
				"z": 2.4666914105,
				"element": "H" 
			},
			{
				"x": -1.7104614265,
				"y": 4.3860571733,
				"z": 2.4671793311,
				"element": "H" 
			},
			{
				"x": 0.2318190839,
				"y": 4.1395138564,
				"z": 0.9247159219,
				"element": "H" 
			},
			{
				"x": 0.3805093407,
				"y": 2.20887167,
				"z": -0.5953326787,
				"element": "H" 
			},
			{
				"x": -0.2391199603,
				"y": 0.2067912351,
				"z": -3.4951609817,
				"element": "H" 
			},
			{
				"x": 2.0345280916,
				"y": -0.1309002898,
				"z": -4.4126116173,
				"element": "H" 
			},
			{
				"x": 3.9049023148,
				"y": -0.7554978041,
				"z": -2.8780097378,
				"element": "H" 
			},
			{
				"x": 3.4349131215,
				"y": -1.0656318208,
				"z": -0.4520631297,
				"element": "H" 
			}
		],
		 "valence_orbital": [ 
			{
				"type": "occ",
				"energy": -0.28732,
				"method": "rhf"
			},
			{
				"type": "occ",
				"energy": -0.2796,
				"method": "rhf"
			},
			{
				"type": "occ",
				"energy": -0.27432,
				"method": "rhf"
			},
			{
				"type": "occ",
				"energy": -0.26739,
				"method": "rhf"
			},
			{
				"type": "occ",
				"energy": -0.22671,
				"method": "rhf"
			},
			{
				"type": "unocc",
				"energy": -0.06761,
				"method": "rhf"
			},
			{
				"type": "unocc",
				"energy": -0.05285,
				"method": "rhf"
			},
			{
				"type": "unocc",
				"energy": -0.03057,
				"method": "rhf"
			},
			{
				"type": "unocc",
				"energy": -0.02615,
				"method": "rhf"
			},
			{
				"type": "unocc",
				"energy": 0.02278,
				"method": "rhf"
			}
		],
		"cosmo_sigma_profile": { 
			"-0.025": 0.0,
			"-0.024": 0.0,
			"-0.023": 0.0,
			"-0.022": 0.0,
			"-0.021": 0.0,
			"-0.02": 0.0,
			"-0.019": 0.237081548735,
			"-0.018": 0.836800949249,
			"-0.017": 0.937853143446,
			"-0.016": 0.772737323453,
			"-0.015": 0.886807038218,
			"-0.014": 0.694173822861,
			"-0.013": 0.356648999801,
			"-0.012": 0.425800639763,
			"-0.011": 0.93859640365,
			"-0.01": 0.746281465241,
			"-0.009": 0.362300010843,
			"-0.008": 3.99378680144,
			"-0.007": 14.4436352136,
			"-0.006": 18.3900740178,
			"-0.005": 16.2925614862,
			"-0.004": 14.2309008806,
			"-0.003": 16.0179820517,
			"-0.002": 19.3426124605,
			"-0.001": 20.9804221401,
			"0.0": 20.0424053453,
			"0.001": 24.0024372741,
			"0.002": 29.1463699964,
			"0.003": 19.2572778717,
			"0.004": 6.55519874612,
			"0.005": 7.29257250485,
			"0.006": 7.38442443819,
			"0.007": 5.45352155434,
			"0.008": 5.43946958969,
			"0.009": 5.61712140499,
			"0.01": 6.01244109796,
			"0.011": 7.14238166925,
			"0.012": 4.66297667405,
			"0.013": 1.29895617226,
			"0.014": 0.0139282665923,
			"0.015": 0.0,
			"0.016": 0.0,
			"0.017": 0.0,
			"0.018": 0.0,
			"0.019": 0.0,
			"0.02": 0.0,
			"0.021": 0.0,
			"0.022": 0.0,
			"0.023": 0.0,
			"0.024": 0.0,
			"0.025": 0.0
		}
	}
}
