{
	 "smiles": "CC(C)(C)C1=CC(O)=C(O)C(O)=C1", 
	 "Tm": 408.15, 
	 "num_atms": 27, 
	 "gaussian": { 
		 "optdone": 1, 
		 "sigma_profile": "yes", 
		 "theory": "DFT", 
		 "functional": "B3LYP", 
		 "basiset": "6-31G**", 
		 "properties": { 
			 "R2extent": 3834.0262, 
			 "electric_dipole_moment_norm": 2.86098613244, 
			 "electric_quadrupole_moment_norm": 18.912089724, 
			 "total_energy": -615.168533476, 
			 "HOMO_LUMO_gap": 0.21497, 
			 "cosmo_polarized_energy": -15.81, 
			 "cosmo_cavitation_energy": 29.0, 
			 "cosmo_dispersion_energy": -21.03, 
			 "cosmo_repulsion_energy": 1.67, 
			 "cosmo_total_nonelectrostatic_energy": 9.64, 
			 "SMD_solvation_energy": 6.03 
		},
		"coords": [
			{
				"x": -1.4438580817,
				"y": 0.2679386143,
				"z": -1.2667673196,
				"element": "C" 
			},
			{
				"x": -0.040912889,
				"y": 0.8099800208,
				"z": -0.9335271983,
				"element": "C" 
			},
			{
				"x": 0.1371022206,
				"y": 2.1612289518,
				"z": -1.6658795554,
				"element": "C" 
			},
			{
				"x": 1.0023494624,
				"y": -0.2012273729,
				"z": -1.4654531974,
				"element": "C" 
			},
			{
				"x": 0.1616289129,
				"y": 1.0125905217,
				"z": 0.5796489008,
				"element": "C" 
			},
			{
				"x": -0.8355182787,
				"y": 0.725599136,
				"z": 1.5193726543,
				"element": "C" 
			},
			{
				"x": -0.6022645171,
				"y": 0.9267777322,
				"z": 2.8809736456,
				"element": "C" 
			},
			{
				"x": -1.5344872819,
				"y": 0.6673034267,
				"z": 3.8630606544,
				"element": "O" 
			},
			{
				"x": 0.6168198848,
				"y": 1.4152779383,
				"z": 3.3557947241,
				"element": "C" 
			},
			{
				"x": 0.8410919704,
				"y": 1.6106620702,
				"z": 4.6864585693,
				"element": "O" 
			},
			{
				"x": 1.620635502,
				"y": 1.7050629769,
				"z": 2.4213904926,
				"element": "C" 
			},
			{
				"x": 2.8024600826,
				"y": 2.1812988677,
				"z": 2.913578885,
				"element": "O" 
			},
			{
				"x": 1.3863987976,
				"y": 1.5034502132,
				"z": 1.0594926127,
				"element": "C" 
			},
			{
				"x": -1.6241185317,
				"y": -0.7073798005,
				"z": -0.8024883086,
				"element": "H" 
			},
			{
				"x": -2.2329775996,
				"y": 0.9547369342,
				"z": -0.9428827837,
				"element": "H" 
			},
			{
				"x": -1.5431262603,
				"y": 0.1400995979,
				"z": -2.3495441856,
				"element": "H" 
			},
			{
				"x": -0.0010016473,
				"y": 2.0332543173,
				"z": -2.7457182701,
				"element": "H" 
			},
			{
				"x": -0.5942327914,
				"y": 2.8959519612,
				"z": -1.3135687116,
				"element": "H" 
			},
			{
				"x": 1.1341998928,
				"y": 2.5821635247,
				"z": -1.5060735397,
				"element": "H" 
			},
			{
				"x": 0.8730759875,
				"y": -0.3544201517,
				"z": -2.5430986667,
				"element": "H" 
			},
			{
				"x": 0.8956153149,
				"y": -1.1708782871,
				"z": -0.9682823131,
				"element": "H" 
			},
			{
				"x": 2.0264870598,
				"y": 0.1460310831,
				"z": -1.2997389957,
				"element": "H" 
			},
			{
				"x": -1.8031234709,
				"y": 0.3436876535,
				"z": 1.2104507377,
				"element": "H" 
			},
			{
				"x": -2.3449117619,
				"y": 0.335053979,
				"z": 3.4590780003,
				"element": "H" 
			},
			{
				"x": 0.0298882078,
				"y": 1.3516858948,
				"z": 5.1480891915,
				"element": "H" 
			},
			{
				"x": 3.4014652182,
				"y": 2.3387169168,
				"z": 2.1727581302,
				"element": "H" 
			},
			{
				"x": 2.1889145972,
				"y": 1.7395532801,
				"z": 0.364475847,
				"element": "H" 
			}
		],
		 "valence_orbital": [ 
			{
				"type": "occ",
				"energy": -0.32108,
				"method": "rhf"
			},
			{
				"type": "occ",
				"energy": -0.31823,
				"method": "rhf"
			},
			{
				"type": "occ",
				"energy": -0.29689,
				"method": "rhf"
			},
			{
				"type": "occ",
				"energy": -0.21368,
				"method": "rhf"
			},
			{
				"type": "occ",
				"energy": -0.19541,
				"method": "rhf"
			},
			{
				"type": "unocc",
				"energy": 0.01956,
				"method": "rhf"
			},
			{
				"type": "unocc",
				"energy": 0.0237,
				"method": "rhf"
			},
			{
				"type": "unocc",
				"energy": 0.05386,
				"method": "rhf"
			},
			{
				"type": "unocc",
				"energy": 0.07699,
				"method": "rhf"
			},
			{
				"type": "unocc",
				"energy": 0.08247,
				"method": "rhf"
			}
		],
		"cosmo_sigma_profile": { 
			"-0.025": 0.0,
			"-0.024": 0.0,
			"-0.023": 0.0,
			"-0.022": 0.0,
			"-0.021": 0.0,
			"-0.02": 0.0,
			"-0.019": 0.0,
			"-0.018": 0.604188663937,
			"-0.017": 2.32833893516,
			"-0.016": 1.630339878,
			"-0.015": 2.1927001098,
			"-0.014": 2.28272446332,
			"-0.013": 2.57786828935,
			"-0.012": 2.14535481897,
			"-0.011": 2.63561353186,
			"-0.01": 2.44951097832,
			"-0.009": 3.01285126187,
			"-0.008": 2.2812788762,
			"-0.007": 1.9591355146,
			"-0.006": 2.90586872919,
			"-0.005": 5.67390634325,
			"-0.004": 7.3236021509,
			"-0.003": 13.9516325434,
			"-0.002": 23.3035951308,
			"-0.001": 19.3797023312,
			"0.0": 19.7532074099,
			"0.001": 24.0545891892,
			"0.002": 16.8929320836,
			"0.003": 9.79716572263,
			"0.004": 12.1818973631,
			"0.005": 10.0600875798,
			"0.006": 10.517052649,
			"0.007": 5.64578335973,
			"0.008": 2.71942896781,
			"0.009": 2.69767222093,
			"0.01": 2.32680391165,
			"0.011": 2.97107952362,
			"0.012": 2.99466942081,
			"0.013": 3.31250148459,
			"0.014": 1.62506590263,
			"0.015": 0.0,
			"0.016": 0.0,
			"0.017": 0.0,
			"0.018": 0.0,
			"0.019": 0.0,
			"0.02": 0.0,
			"0.021": 0.0,
			"0.022": 0.0,
			"0.023": 0.0,
			"0.024": 0.0,
			"0.025": 0.0
		}
	}
}
