{
	 "smiles": "OC1=C2C(=CC=C1)C(=O)C1=C2C=CC=C1", 
	 "Tm": 523.15, 
	 "num_atms": 23, 
	 "gaussian": { 
		 "optdone": 1, 
		 "sigma_profile": "yes", 
		 "theory": "DFT", 
		 "functional": "B3LYP", 
		 "basiset": "6-31G**", 
		 "properties": { 
			 "R2extent": 2938.2056, 
			 "electric_dipole_moment_norm": 2.98025233495, 
			 "electric_quadrupole_moment_norm": 11.8707003378, 
			 "total_energy": -650.654669793, 
			 "HOMO_LUMO_gap": 0.13992, 
			 "cosmo_polarized_energy": -12.19, 
			 "cosmo_cavitation_energy": 27.33, 
			 "cosmo_dispersion_energy": -20.36, 
			 "cosmo_repulsion_energy": 1.53, 
			 "cosmo_total_nonelectrostatic_energy": 8.51, 
			 "SMD_solvation_energy": 4.94 
		},
		"coords": [
			{
				"x": 0.2653624548,
				"y": -3.0864053249,
				"z": -0.3639168222,
				"element": "O" 
			},
			{
				"x": 0.8511467189,
				"y": -2.1652460586,
				"z": 0.4581547162,
				"element": "C" 
			},
			{
				"x": 0.5775428868,
				"y": -0.7975431273,
				"z": 0.4210665458,
				"element": "C" 
			},
			{
				"x": 1.2034467632,
				"y": 0.0514457333,
				"z": 1.3597962163,
				"element": "C" 
			},
			{
				"x": 2.1152271851,
				"y": -0.4112140091,
				"z": 2.2931953596,
				"element": "C" 
			},
			{
				"x": 2.4125972214,
				"y": -1.7827722328,
				"z": 2.2913590279,
				"element": "C" 
			},
			{
				"x": 1.7853074934,
				"y": -2.6445300124,
				"z": 1.3952580805,
				"element": "C" 
			},
			{
				"x": 0.7038471323,
				"y": 1.4491233939,
				"z": 1.1523453271,
				"element": "C" 
			},
			{
				"x": 1.0080373005,
				"y": 2.4464507622,
				"z": 1.7832795224,
				"element": "O" 
			},
			{
				"x": -0.2466633983,
				"y": 1.3588764621,
				"z": -0.0016922135,
				"element": "C" 
			},
			{
				"x": -0.300409277,
				"y": 0.0209682822,
				"z": -0.4514918881,
				"element": "C" 
			},
			{
				"x": -1.0794112139,
				"y": -0.290450559,
				"z": -1.5640378741,
				"element": "C" 
			},
			{
				"x": -1.813789109,
				"y": 0.7320764,
				"z": -2.1859247257,
				"element": "C" 
			},
			{
				"x": -1.7687791089,
				"y": 2.0466302913,
				"z": -1.7180331479,
				"element": "C" 
			},
			{
				"x": -0.9671875233,
				"y": 2.3710871025,
				"z": -0.6147984396,
				"element": "C" 
			},
			{
				"x": -0.5334667228,
				"y": -2.7072626622,
				"z": -0.7502601227,
				"element": "H" 
			},
			{
				"x": 2.5779333843,
				"y": 0.2750118514,
				"z": 2.9949686828,
				"element": "H" 
			},
			{
				"x": 3.1269194084,
				"y": -2.186011026,
				"z": 3.0028153672,
				"element": "H" 
			},
			{
				"x": 1.9938711573,
				"y": -3.7095826648,
				"z": 1.4047294521,
				"element": "H" 
			},
			{
				"x": -1.1083008341,
				"y": -1.2888265689,
				"z": -1.9926627794,
				"element": "H" 
			},
			{
				"x": -2.422339957,
				"y": 0.4929155331,
				"z": -3.0533393854,
				"element": "H" 
			},
			{
				"x": -2.3467616343,
				"y": 2.8176447017,
				"z": -2.2180952019,
				"element": "H" 
			},
			{
				"x": -0.8973303277,
				"y": 3.3884137324,
				"z": -0.2410156972,
				"element": "H" 
			}
		],
		 "valence_orbital": [ 
			{
				"type": "occ",
				"energy": -0.29759,
				"method": "rhf"
			},
			{
				"type": "occ",
				"energy": -0.26856,
				"method": "rhf"
			},
			{
				"type": "occ",
				"energy": -0.25157,
				"method": "rhf"
			},
			{
				"type": "occ",
				"energy": -0.24557,
				"method": "rhf"
			},
			{
				"type": "occ",
				"energy": -0.22566,
				"method": "rhf"
			},
			{
				"type": "unocc",
				"energy": -0.08574,
				"method": "rhf"
			},
			{
				"type": "unocc",
				"energy": -0.03653,
				"method": "rhf"
			},
			{
				"type": "unocc",
				"energy": -0.003,
				"method": "rhf"
			},
			{
				"type": "unocc",
				"energy": 0.02599,
				"method": "rhf"
			},
			{
				"type": "unocc",
				"energy": 0.0495,
				"method": "rhf"
			}
		],
		"cosmo_sigma_profile": { 
			"-0.025": 0.0,
			"-0.024": 0.0,
			"-0.023": 0.0,
			"-0.022": 0.0,
			"-0.021": 0.0,
			"-0.02": 0.0,
			"-0.019": 0.201478047997,
			"-0.018": 0.584338134505,
			"-0.017": 0.456444777698,
			"-0.016": 0.813384830245,
			"-0.015": 0.578966648442,
			"-0.014": 1.00521598364,
			"-0.013": 0.749953781862,
			"-0.012": 1.46266027857,
			"-0.011": 0.689465716043,
			"-0.01": 1.05392224766,
			"-0.009": 1.40980615856,
			"-0.008": 1.39438411957,
			"-0.007": 6.34253376485,
			"-0.006": 14.5578697375,
			"-0.005": 15.0795353788,
			"-0.004": 12.1730568606,
			"-0.003": 10.2947007719,
			"-0.002": 14.2411563987,
			"-0.001": 11.8324480029,
			"0.0": 15.1113082522,
			"0.001": 20.1973174723,
			"0.002": 23.3958515398,
			"0.003": 24.8061776811,
			"0.004": 13.3497626072,
			"0.005": 3.31245118547,
			"0.006": 2.9646016589,
			"0.007": 2.91860847905,
			"0.008": 3.07526327474,
			"0.009": 3.12739261356,
			"0.01": 4.46579165677,
			"0.011": 5.48213160317,
			"0.012": 3.39922426742,
			"0.013": 0.263361062138,
			"0.014": 0.0,
			"0.015": 0.0,
			"0.016": 0.0,
			"0.017": 0.0,
			"0.018": 0.0,
			"0.019": 0.0,
			"0.02": 0.0,
			"0.021": 0.0,
			"0.022": 0.0,
			"0.023": 0.0,
			"0.024": 0.0,
			"0.025": 0.0
		}
	}
}
