{
	 "smiles": "CC1CCC2C1COC(=O)C2C", 
	 "Tm": 333.65, 
	 "num_atms": 28, 
	 "gaussian": { 
		 "optdone": 1, 
		 "sigma_profile": "yes", 
		 "theory": "DFT", 
		 "functional": "B3LYP", 
		 "basiset": "6-31G**", 
		 "properties": { 
			 "R2extent": 2322.6835, 
			 "electric_dipole_moment_norm": 4.55097155451, 
			 "electric_quadrupole_moment_norm": 9.93562745829, 
			 "total_energy": -541.168670588, 
			 "HOMO_LUMO_gap": 0.26452, 
			 "cosmo_polarized_energy": -10.28, 
			 "cosmo_cavitation_energy": 27.14, 
			 "cosmo_dispersion_energy": -20.06, 
			 "cosmo_repulsion_energy": 1.58, 
			 "cosmo_total_nonelectrostatic_energy": 8.66, 
			 "SMD_solvation_energy": 5.08 
		},
		"coords": [
			{
				"x": -1.8886003514,
				"y": 2.831770595,
				"z": -0.7038103568,
				"element": "C" 
			},
			{
				"x": -2.5418667949,
				"y": 1.4906901134,
				"z": -0.3413100911,
				"element": "C" 
			},
			{
				"x": -2.3634251283,
				"y": 0.4208443984,
				"z": -1.4628611143,
				"element": "C" 
			},
			{
				"x": -1.9382052318,
				"y": -0.8865061803,
				"z": -0.7591841956,
				"element": "C" 
			},
			{
				"x": -1.1671387423,
				"y": -0.4122012671,
				"z": 0.4882616467,
				"element": "C" 
			},
			{
				"x": -2.0169715355,
				"y": 0.7851227329,
				"z": 0.9584759557,
				"element": "C" 
			},
			{
				"x": -1.2884476448,
				"y": 1.6142598598,
				"z": 2.0038094577,
				"element": "C" 
			},
			{
				"x": 0.0672575841,
				"y": 1.9665218726,
				"z": 1.665609537,
				"element": "O" 
			},
			{
				"x": 0.8968511169,
				"y": 1.0889731694,
				"z": 1.0426808331,
				"element": "C" 
			},
			{
				"x": 2.0895192391,
				"y": 1.2769115928,
				"z": 1.109293133,
				"element": "O" 
			},
			{
				"x": 0.2903213278,
				"y": -0.009835345,
				"z": 0.1614298573,
				"element": "C" 
			},
			{
				"x": 1.2334714526,
				"y": -1.2204475589,
				"z": 0.1087604626,
				"element": "C" 
			},
			{
				"x": -0.8106220192,
				"y": 2.7382219673,
				"z": -0.8652222833,
				"element": "H" 
			},
			{
				"x": -2.3295912978,
				"y": 3.2232896575,
				"z": -1.627060211,
				"element": "H" 
			},
			{
				"x": -2.0399987843,
				"y": 3.586744114,
				"z": 0.0744997253,
				"element": "H" 
			},
			{
				"x": -3.611590061,
				"y": 1.6853592641,
				"z": -0.1982904514,
				"element": "H" 
			},
			{
				"x": -3.2716291666,
				"y": 0.2903763893,
				"z": -2.0592025255,
				"element": "H" 
			},
			{
				"x": -1.582536431,
				"y": 0.7455582832,
				"z": -2.1608527104,
				"element": "H" 
			},
			{
				"x": -2.8220122885,
				"y": -1.4525740249,
				"z": -0.44099864,
				"element": "H" 
			},
			{
				"x": -1.3524139414,
				"y": -1.5454275052,
				"z": -1.4082008636,
				"element": "H" 
			},
			{
				"x": -1.1403433657,
				"y": -1.1880427642,
				"z": 1.2644868748,
				"element": "H" 
			},
			{
				"x": -2.8957443615,
				"y": 0.3737796602,
				"z": 1.4730033969,
				"element": "H" 
			},
			{
				"x": -1.7869062344,
				"y": 2.5683253402,
				"z": 2.1947773887,
				"element": "H" 
			},
			{
				"x": -1.2579630375,
				"y": 1.0631901425,
				"z": 2.952976552,
				"element": "H" 
			},
			{
				"x": 0.2959572768,
				"y": 0.4588478182,
				"z": -0.8345809855,
				"element": "H" 
			},
			{
				"x": 0.8822144616,
				"y": -1.9529671564,
				"z": -0.6238520833,
				"element": "H" 
			},
			{
				"x": 1.2827748631,
				"y": -1.7154489109,
				"z": 1.0846865417,
				"element": "H" 
			},
			{
				"x": 2.2433390959,
				"y": -0.907836258,
				"z": -0.1599248507,
				"element": "H" 
			}
		],
		 "valence_orbital": [ 
			{
				"type": "occ",
				"energy": -0.32253,
				"method": "rhf"
			},
			{
				"type": "occ",
				"energy": -0.31414,
				"method": "rhf"
			},
			{
				"type": "occ",
				"energy": -0.31072,
				"method": "rhf"
			},
			{
				"type": "occ",
				"energy": -0.28241,
				"method": "rhf"
			},
			{
				"type": "occ",
				"energy": -0.25467,
				"method": "rhf"
			},
			{
				"type": "unocc",
				"energy": 0.00985,
				"method": "rhf"
			},
			{
				"type": "unocc",
				"energy": 0.06137,
				"method": "rhf"
			},
			{
				"type": "unocc",
				"energy": 0.08193,
				"method": "rhf"
			},
			{
				"type": "unocc",
				"energy": 0.09724,
				"method": "rhf"
			},
			{
				"type": "unocc",
				"energy": 0.11269,
				"method": "rhf"
			}
		],
		"cosmo_sigma_profile": { 
			"-0.025": 0.0,
			"-0.024": 0.0,
			"-0.023": 0.0,
			"-0.022": 0.0,
			"-0.021": 0.0,
			"-0.02": 0.0,
			"-0.019": 0.0,
			"-0.018": 0.0,
			"-0.017": 0.0,
			"-0.016": 0.0,
			"-0.015": 0.0,
			"-0.014": 0.0,
			"-0.013": 0.0,
			"-0.012": 0.0,
			"-0.011": 0.0,
			"-0.01": 0.0,
			"-0.009": 0.0,
			"-0.008": 0.0,
			"-0.007": 0.478394195025,
			"-0.006": 4.52411263371,
			"-0.005": 12.8839048192,
			"-0.004": 18.8118584935,
			"-0.003": 30.6943033538,
			"-0.002": 27.9735695635,
			"-0.001": 26.5655380431,
			"0.0": 25.7409855041,
			"0.001": 21.0884892135,
			"0.002": 6.59759506718,
			"0.003": 1.94883583779,
			"0.004": 2.77848418822,
			"0.005": 2.39164514104,
			"0.006": 2.52594638029,
			"0.007": 1.51400268791,
			"0.008": 2.16093395451,
			"0.009": 2.99397386866,
			"0.01": 2.59167794331,
			"0.011": 3.96383975713,
			"0.012": 5.95781619169,
			"0.013": 3.92948147494,
			"0.014": 1.37838410163,
			"0.015": 0.00602024431631,
			"0.016": 0.0,
			"0.017": 0.0,
			"0.018": 0.0,
			"0.019": 0.0,
			"0.02": 0.0,
			"0.021": 0.0,
			"0.022": 0.0,
			"0.023": 0.0,
			"0.024": 0.0,
			"0.025": 0.0
		}
	}
}
