{
	 "smiles": "CC1CC2=C(C=CC=C2)N1S(N)(=O)=O", 
	 "Tm": 341.15, 
	 "num_atms": 26, 
	 "gaussian": { 
		 "optdone": 1, 
		 "sigma_profile": "yes", 
		 "theory": "DFT", 
		 "functional": "B3LYP", 
		 "basiset": "6-31G**", 
		 "properties": { 
			 "R2extent": 2997.2473, 
			 "electric_dipole_moment_norm": 3.89025020018, 
			 "electric_quadrupole_moment_norm": 12.1580734111, 
			 "total_energy": -1008.26466865, 
			 "HOMO_LUMO_gap": 0.21051, 
			 "cosmo_polarized_energy": -14.39, 
			 "cosmo_cavitation_energy": 29.53, 
			 "cosmo_dispersion_energy": -21.9, 
			 "cosmo_repulsion_energy": 1.68, 
			 "cosmo_total_nonelectrostatic_energy": 9.31, 
			 "SMD_solvation_energy": 3.91 
		},
		"coords": [
			{
				"x": -1.4512256563,
				"y": -2.0869101492,
				"z": 0.2650436006,
				"element": "C" 
			},
			{
				"x": -0.4553195711,
				"y": -1.3522017456,
				"z": -0.6286026494,
				"element": "C" 
			},
			{
				"x": 1.0324375672,
				"y": -1.6105189152,
				"z": -0.2563616463,
				"element": "C" 
			},
			{
				"x": 1.5236578037,
				"y": -0.285522645,
				"z": 0.2737056985,
				"element": "C" 
			},
			{
				"x": 0.5463647551,
				"y": 0.7016824952,
				"z": 0.1025006279,
				"element": "C" 
			},
			{
				"x": 0.7519626818,
				"y": 2.0144609549,
				"z": 0.5287497236,
				"element": "C" 
			},
			{
				"x": 1.9843404429,
				"y": 2.3255114415,
				"z": 1.1118066392,
				"element": "C" 
			},
			{
				"x": 2.9708197133,
				"y": 1.3514904159,
				"z": 1.2852285069,
				"element": "C" 
			},
			{
				"x": 2.738387068,
				"y": 0.0358609217,
				"z": 0.8701114853,
				"element": "C" 
			},
			{
				"x": -0.6330047651,
				"y": 0.1356357353,
				"z": -0.4732798976,
				"element": "N" 
			},
			{
				"x": -1.4867886116,
				"y": 0.9214613201,
				"z": -1.6791648095,
				"element": "S" 
			},
			{
				"x": -0.4836400998,
				"y": 0.8082552152,
				"z": -3.0508390041,
				"element": "N" 
			},
			{
				"x": -1.6137488722,
				"y": 2.3204060166,
				"z": -1.2793654637,
				"element": "O" 
			},
			{
				"x": -2.6447831553,
				"y": 0.0907166869,
				"z": -1.9895157247,
				"element": "O" 
			},
			{
				"x": -1.3317398043,
				"y": -3.1701603534,
				"z": 0.151765449,
				"element": "H" 
			},
			{
				"x": -2.4740706435,
				"y": -1.8170233258,
				"z": -0.0069650447,
				"element": "H" 
			},
			{
				"x": -1.2883145486,
				"y": -1.8287588259,
				"z": 1.3165055664,
				"element": "H" 
			},
			{
				"x": -0.6379029639,
				"y": -1.6142256908,
				"z": -1.6735155748,
				"element": "H" 
			},
			{
				"x": 1.6143945046,
				"y": -1.9318895141,
				"z": -1.1284174872,
				"element": "H" 
			},
			{
				"x": 1.108906772,
				"y": -2.4076117903,
				"z": 0.4914124682,
				"element": "H" 
			},
			{
				"x": -0.0199757812,
				"y": 2.7629795065,
				"z": 0.4065719707,
				"element": "H" 
			},
			{
				"x": 2.1670193915,
				"y": 3.3427762876,
				"z": 1.445790193,
				"element": "H" 
			},
			{
				"x": 3.916874146,
				"y": 1.6136543964,
				"z": 1.7491912126,
				"element": "H" 
			},
			{
				"x": 3.5000428829,
				"y": -0.7270432818,
				"z": 1.008501633,
				"element": "H" 
			},
			{
				"x": -1.0762284771,
				"y": 0.690312648,
				"z": -3.8689514829,
				"element": "H" 
			},
			{
				"x": 0.0836352209,
				"y": 1.6482621953,
				"z": -3.13770599,
				"element": "H" 
			}
		],
		 "valence_orbital": [ 
			{
				"type": "occ",
				"energy": -0.31144,
				"method": "rhf"
			},
			{
				"type": "occ",
				"energy": -0.30775,
				"method": "rhf"
			},
			{
				"type": "occ",
				"energy": -0.28661,
				"method": "rhf"
			},
			{
				"type": "occ",
				"energy": -0.24993,
				"method": "rhf"
			},
			{
				"type": "occ",
				"energy": -0.21986,
				"method": "rhf"
			},
			{
				"type": "unocc",
				"energy": -0.00935,
				"method": "rhf"
			},
			{
				"type": "unocc",
				"energy": -0.00092,
				"method": "rhf"
			},
			{
				"type": "unocc",
				"energy": 0.04843,
				"method": "rhf"
			},
			{
				"type": "unocc",
				"energy": 0.08487,
				"method": "rhf"
			},
			{
				"type": "unocc",
				"energy": 0.09079,
				"method": "rhf"
			}
		],
		"cosmo_sigma_profile": { 
			"-0.025": 0.0,
			"-0.024": 0.0,
			"-0.023": 0.0,
			"-0.022": 0.0,
			"-0.021": 0.0,
			"-0.02": 0.0,
			"-0.019": 0.0,
			"-0.018": 0.0,
			"-0.017": 0.0,
			"-0.016": 0.0,
			"-0.015": 1.16432334738,
			"-0.014": 2.83924779373,
			"-0.013": 2.43830240313,
			"-0.012": 2.90333533049,
			"-0.011": 1.9940950373,
			"-0.01": 1.44401596739,
			"-0.009": 2.20216119001,
			"-0.008": 1.69124210266,
			"-0.007": 1.77208677601,
			"-0.006": 5.58323263394,
			"-0.005": 13.6295304736,
			"-0.004": 21.7209990867,
			"-0.003": 24.1104318765,
			"-0.002": 17.2505317073,
			"-0.001": 14.6798168691,
			"0.0": 16.5224245169,
			"0.001": 11.8898410377,
			"0.002": 12.3226004757,
			"0.003": 13.2522961088,
			"0.004": 13.3624366509,
			"0.005": 13.7450604072,
			"0.006": 8.48921512349,
			"0.007": 4.63367888702,
			"0.008": 3.98049096702,
			"0.009": 4.84673791817,
			"0.01": 7.34177513624,
			"0.011": 7.41580992976,
			"0.012": 0.374826744846,
			"0.013": 0.0,
			"0.014": 0.0,
			"0.015": 0.0,
			"0.016": 0.0,
			"0.017": 0.0,
			"0.018": 0.0,
			"0.019": 0.0,
			"0.02": 0.0,
			"0.021": 0.0,
			"0.022": 0.0,
			"0.023": 0.0,
			"0.024": 0.0,
			"0.025": 0.0
		}
	}
}
