{
	 "smiles": "OC(=O)C1(CC1)C(=O)NC1CC1", 
	 "Tm": 419.15, 
	 "num_atms": 23, 
	 "gaussian": { 
		 "optdone": 1, 
		 "sigma_profile": "yes", 
		 "theory": "DFT", 
		 "functional": "B3LYP", 
		 "basiset": "6-31G**", 
		 "properties": { 
			 "R2extent": 2724.9062, 
			 "electric_dipole_moment_norm": 3.04711025399, 
			 "electric_quadrupole_moment_norm": 8.32509313702, 
			 "total_energy": -591.874650627, 
			 "HOMO_LUMO_gap": 0.23911, 
			 "cosmo_polarized_energy": -13.82, 
			 "cosmo_cavitation_energy": 26.61, 
			 "cosmo_dispersion_energy": -19.16, 
			 "cosmo_repulsion_energy": 1.54, 
			 "cosmo_total_nonelectrostatic_energy": 9.0, 
			 "SMD_solvation_energy": 5.2 
		},
		"coords": [
			{
				"x": 2.4997550134,
				"y": -1.5030219039,
				"z": 0.0035071066,
				"element": "O" 
			},
			{
				"x": 1.3530642809,
				"y": -2.2081578006,
				"z": -0.2170928265,
				"element": "C" 
			},
			{
				"x": 1.3743390526,
				"y": -3.2189803048,
				"z": -0.8891735793,
				"element": "O" 
			},
			{
				"x": 0.1307633871,
				"y": -1.6544187106,
				"z": 0.4350634164,
				"element": "C" 
			},
			{
				"x": -0.8257510795,
				"y": -2.7562051103,
				"z": 0.9411755344,
				"element": "C" 
			},
			{
				"x": -1.1725724938,
				"y": -2.0344656101,
				"z": -0.2975281652,
				"element": "C" 
			},
			{
				"x": 0.0238947649,
				"y": -0.3501268339,
				"z": 1.2154933524,
				"element": "C" 
			},
			{
				"x": -1.0457068201,
				"y": -0.0575733532,
				"z": 1.7452372218,
				"element": "O" 
			},
			{
				"x": 1.1122240191,
				"y": 0.4657962331,
				"z": 1.2794640813,
				"element": "N" 
			},
			{
				"x": 1.0803802371,
				"y": 1.6763593077,
				"z": 2.0518496454,
				"element": "C" 
			},
			{
				"x": 0.4775614157,
				"y": 2.9195315314,
				"z": 1.4530490359,
				"element": "C" 
			},
			{
				"x": 1.9749770501,
				"y": 2.8055604202,
				"z": 1.6146659877,
				"element": "C" 
			},
			{
				"x": 3.1982310729,
				"y": -1.9840206634,
				"z": -0.4716077746,
				"element": "H" 
			},
			{
				"x": -0.4516760473,
				"y": -3.7704179538,
				"z": 0.8598136515,
				"element": "H" 
			},
			{
				"x": -1.3591538046,
				"y": -2.4915767607,
				"z": 1.8466776799,
				"element": "H" 
			},
			{
				"x": -1.0391458994,
				"y": -2.5428231143,
				"z": -1.2455302592,
				"element": "H" 
			},
			{
				"x": -1.9474089921,
				"y": -1.2789335893,
				"z": -0.240528261,
				"element": "H" 
			},
			{
				"x": 1.9972432375,
				"y": 0.1232439034,
				"z": 0.9350424638,
				"element": "H" 
			},
			{
				"x": 0.9342970807,
				"y": 1.5290088735,
				"z": 3.1200930752,
				"element": "H" 
			},
			{
				"x": 0.0705012552,
				"y": 2.8349469727,
				"z": 0.4511874659,
				"element": "H" 
			},
			{
				"x": -0.072041112,
				"y": 3.5825307809,
				"z": 2.1132947965,
				"element": "H" 
			},
			{
				"x": 2.4682683295,
				"y": 3.3913474519,
				"z": 2.3838532558,
				"element": "H" 
			},
			{
				"x": 2.566856052,
				"y": 2.659496234,
				"z": 0.7152930952,
				"element": "H" 
			}
		],
		 "valence_orbital": [ 
			{
				"type": "occ",
				"energy": -0.3006,
				"method": "rhf"
			},
			{
				"type": "occ",
				"energy": -0.29616,
				"method": "rhf"
			},
			{
				"type": "occ",
				"energy": -0.29072,
				"method": "rhf"
			},
			{
				"type": "occ",
				"energy": -0.24929,
				"method": "rhf"
			},
			{
				"type": "occ",
				"energy": -0.24434,
				"method": "rhf"
			},
			{
				"type": "unocc",
				"energy": -0.00523,
				"method": "rhf"
			},
			{
				"type": "unocc",
				"energy": 0.02349,
				"method": "rhf"
			},
			{
				"type": "unocc",
				"energy": 0.06117,
				"method": "rhf"
			},
			{
				"type": "unocc",
				"energy": 0.10146,
				"method": "rhf"
			},
			{
				"type": "unocc",
				"energy": 0.10978,
				"method": "rhf"
			}
		],
		"cosmo_sigma_profile": { 
			"-0.025": 0.0,
			"-0.024": 0.0,
			"-0.023": 0.0,
			"-0.022": 0.0,
			"-0.021": 0.0,
			"-0.02": 0.0,
			"-0.019": 0.418656066402,
			"-0.018": 0.875503929645,
			"-0.017": 1.08250557137,
			"-0.016": 0.682519938178,
			"-0.015": 0.523191843987,
			"-0.014": 0.960275723194,
			"-0.013": 0.294972738547,
			"-0.012": 1.01033431445,
			"-0.011": 1.16914783291,
			"-0.01": 0.213971213313,
			"-0.009": 0.434592458747,
			"-0.008": 1.69290150698,
			"-0.007": 2.15606125315,
			"-0.006": 4.98371032183,
			"-0.005": 15.1010656732,
			"-0.004": 16.401358501,
			"-0.003": 22.3354267917,
			"-0.002": 20.9926821006,
			"-0.001": 22.4005763142,
			"0.0": 20.185764905,
			"0.001": 15.1287593855,
			"0.002": 11.644239918,
			"0.003": 7.53959579791,
			"0.004": 5.04195934739,
			"0.005": 4.04718678225,
			"0.006": 3.33652341899,
			"0.007": 3.26598234553,
			"0.008": 2.65336507264,
			"0.009": 2.23441525602,
			"0.01": 3.82329324433,
			"0.011": 5.74258705954,
			"0.012": 4.25995865992,
			"0.013": 2.3944133247,
			"0.014": 4.36609657834,
			"0.015": 0.675734771637,
			"0.016": 0.0,
			"0.017": 0.0,
			"0.018": 0.0,
			"0.019": 0.0,
			"0.02": 0.0,
			"0.021": 0.0,
			"0.022": 0.0,
			"0.023": 0.0,
			"0.024": 0.0,
			"0.025": 0.0
		}
	}
}
