{
	 "smiles": "C1=CC=C(C=C1)P(C1=CC=CC=C1)C1=CC=CC=C1P(C1=CC=CC=C1)C1=CC=CC=C1", 
	 "Tm": 460.15, 
	 "num_atms": 56, 
	 "gaussian": { 
		 "optdone": 1, 
		 "sigma_profile": "yes", 
		 "theory": "DFT", 
		 "functional": "B3LYP", 
		 "basiset": "6-31G**", 
		 "properties": { 
			 "R2extent": 14930.3276, 
			 "electric_dipole_moment_norm": 1.4613591653, 
			 "electric_quadrupole_moment_norm": 6.09870457064, 
			 "total_energy": -1840.35225627, 
			 "HOMO_LUMO_gap": 0.17115, 
			 "cosmo_polarized_energy": -13.38, 
			 "cosmo_cavitation_energy": 62.28, 
			 "cosmo_dispersion_energy": -39.42, 
			 "cosmo_repulsion_energy": 3.06, 
			 "cosmo_total_nonelectrostatic_energy": 25.92, 
			 "SMD_solvation_energy": 10.46 
		},
		"coords": [
			{
				"x": -1.7821252613,
				"y": 3.3413601786,
				"z": 5.3406877302,
				"element": "C" 
			},
			{
				"x": -2.6640595326,
				"y": 2.3187336429,
				"z": 4.9884450243,
				"element": "C" 
			},
			{
				"x": -2.2965710835,
				"y": 1.3694286864,
				"z": 4.0316162767,
				"element": "C" 
			},
			{
				"x": -1.036678367,
				"y": 1.4260055194,
				"z": 3.4156076532,
				"element": "C" 
			},
			{
				"x": -0.1519307896,
				"y": 2.4517697732,
				"z": 3.7921598227,
				"element": "C" 
			},
			{
				"x": -0.5238296756,
				"y": 3.4069989194,
				"z": 4.7375105383,
				"element": "C" 
			},
			{
				"x": -0.4092935706,
				"y": 0.1957418124,
				"z": 2.177515715,
				"element": "P" 
			},
			{
				"x": -1.6508255663,
				"y": -1.1734811379,
				"z": 2.304865181,
				"element": "C" 
			},
			{
				"x": -1.3665241254,
				"y": -2.2027937575,
				"z": 3.217959659,
				"element": "C" 
			},
			{
				"x": -2.2411465319,
				"y": -3.2770040777,
				"z": 3.3806786323,
				"element": "C" 
			},
			{
				"x": -3.408906968,
				"y": -3.3493441394,
				"z": 2.6181666641,
				"element": "C" 
			},
			{
				"x": -3.6965871759,
				"y": -2.3405676679,
				"z": 1.6973664166,
				"element": "C" 
			},
			{
				"x": -2.8259449429,
				"y": -1.2592795958,
				"z": 1.5426581861,
				"element": "C" 
			},
			{
				"x": -0.8707369727,
				"y": 1.0042713119,
				"z": 0.560465776,
				"element": "C" 
			},
			{
				"x": -1.7896938593,
				"y": 2.0610785288,
				"z": 0.4886515782,
				"element": "C" 
			},
			{
				"x": -2.1026135477,
				"y": 2.6670187082,
				"z": -0.7300197327,
				"element": "C" 
			},
			{
				"x": -1.4935813698,
				"y": 2.2207036276,
				"z": -1.9003512789,
				"element": "C" 
			},
			{
				"x": -0.5685897481,
				"y": 1.1759347271,
				"z": -1.8451039773,
				"element": "C" 
			},
			{
				"x": -0.2354535533,
				"y": 0.5633195194,
				"z": -0.6284899415,
				"element": "C" 
			},
			{
				"x": 0.973895266,
				"y": -0.8538544808,
				"z": -0.5273588353,
				"element": "P" 
			},
			{
				"x": 2.5888690986,
				"y": 0.0196790726,
				"z": -0.2804074838,
				"element": "C" 
			},
			{
				"x": 2.7999409836,
				"y": 1.3878021051,
				"z": -0.5103497293,
				"element": "C" 
			},
			{
				"x": 4.0519570573,
				"y": 1.9627697627,
				"z": -0.2801370832,
				"element": "C" 
			},
			{
				"x": 5.1123157996,
				"y": 1.1794962104,
				"z": 0.1785121849,
				"element": "C" 
			},
			{
				"x": 4.9143595134,
				"y": -0.1827685277,
				"z": 0.4138516303,
				"element": "C" 
			},
			{
				"x": 3.6610730404,
				"y": -0.7542248504,
				"z": 0.1945768961,
				"element": "C" 
			},
			{
				"x": 1.0759874306,
				"y": -1.3990312268,
				"z": -2.297184633,
				"element": "C" 
			},
			{
				"x": 2.0496192216,
				"y": -0.9684737201,
				"z": -3.2118235836,
				"element": "C" 
			},
			{
				"x": 2.0732763314,
				"y": -1.4712070167,
				"z": -4.5151081138,
				"element": "C" 
			},
			{
				"x": 1.1227964407,
				"y": -2.40660773,
				"z": -4.9264276178,
				"element": "C" 
			},
			{
				"x": 0.1504683085,
				"y": -2.8460034476,
				"z": -4.0247443224,
				"element": "C" 
			},
			{
				"x": 0.134925526,
				"y": -2.3542671253,
				"z": -2.7200269947,
				"element": "C" 
			},
			{
				"x": -2.0697576378,
				"y": 4.0783043796,
				"z": 6.0852896722,
				"element": "H" 
			},
			{
				"x": -3.6424731128,
				"y": 2.2582223955,
				"z": 5.457525698,
				"element": "H" 
			},
			{
				"x": -2.9923281761,
				"y": 0.5800025026,
				"z": 3.7656054214,
				"element": "H" 
			},
			{
				"x": 0.8375536837,
				"y": 2.4964849545,
				"z": 3.3435301684,
				"element": "H" 
			},
			{
				"x": 0.1721174908,
				"y": 4.1949757366,
				"z": 5.0119772802,
				"element": "H" 
			},
			{
				"x": -0.4489298073,
				"y": -2.1632827443,
				"z": 3.7995151315,
				"element": "H" 
			},
			{
				"x": -2.0057342692,
				"y": -4.0621553006,
				"z": 4.0938200617,
				"element": "H" 
			},
			{
				"x": -4.0870305877,
				"y": -4.1898286457,
				"z": 2.7367067979,
				"element": "H" 
			},
			{
				"x": -4.6013589007,
				"y": -2.392885458,
				"z": 1.0976384522,
				"element": "H" 
			},
			{
				"x": -3.0609156945,
				"y": -0.4808498959,
				"z": 0.8236383724,
				"element": "H" 
			},
			{
				"x": -2.2697904326,
				"y": 2.413665253,
				"z": 1.3956013801,
				"element": "H" 
			},
			{
				"x": -2.8227271864,
				"y": 3.4801554125,
				"z": -0.7600096867,
				"element": "H" 
			},
			{
				"x": -1.7301667066,
				"y": 2.6831526399,
				"z": -2.8547187091,
				"element": "H" 
			},
			{
				"x": -0.0972503357,
				"y": 0.8348678474,
				"z": -2.7610287273,
				"element": "H" 
			},
			{
				"x": 1.9834227649,
				"y": 2.0073202924,
				"z": -0.8676072589,
				"element": "H" 
			},
			{
				"x": 4.1979332856,
				"y": 3.0243565506,
				"z": -0.4610898119,
				"element": "H" 
			},
			{
				"x": 6.0852523794,
				"y": 1.6286142935,
				"z": 0.3574129507,
				"element": "H" 
			},
			{
				"x": 5.7322846686,
				"y": -0.7979172008,
				"z": 0.7785995994,
				"element": "H" 
			},
			{
				"x": 3.5083033223,
				"y": -1.81076929,
				"z": 0.3998692507,
				"element": "H" 
			},
			{
				"x": 2.7937512278,
				"y": -0.2403392609,
				"z": -2.9050396272,
				"element": "H" 
			},
			{
				"x": 2.8359787696,
				"y": -1.1289071023,
				"z": -5.2094508077,
				"element": "H" 
			},
			{
				"x": 1.143245826,
				"y": -2.7964724756,
				"z": -5.9402497972,
				"element": "H" 
			},
			{
				"x": -0.5881991363,
				"y": -3.580317636,
				"z": -4.3341586652,
				"element": "H" 
			},
			{
				"x": -0.6111728109,
				"y": -2.7179008521,
				"z": -2.0175393828,
				"element": "H" 
			}
		],
		 "valence_orbital": [ 
			{
				"type": "occ",
				"energy": -0.24673,
				"method": "rhf"
			},
			{
				"type": "occ",
				"energy": -0.24507,
				"method": "rhf"
			},
			{
				"type": "occ",
				"energy": -0.24504,
				"method": "rhf"
			},
			{
				"type": "occ",
				"energy": -0.22017,
				"method": "rhf"
			},
			{
				"type": "occ",
				"energy": -0.19724,
				"method": "rhf"
			},
			{
				"type": "unocc",
				"energy": -0.02609,
				"method": "rhf"
			},
			{
				"type": "unocc",
				"energy": -0.01964,
				"method": "rhf"
			},
			{
				"type": "unocc",
				"energy": -0.0171,
				"method": "rhf"
			},
			{
				"type": "unocc",
				"energy": -0.01335,
				"method": "rhf"
			},
			{
				"type": "unocc",
				"energy": -0.00337,
				"method": "rhf"
			}
		],
		"cosmo_sigma_profile": { 
			"-0.025": 0.0,
			"-0.024": 0.0,
			"-0.023": 0.0,
			"-0.022": 0.0,
			"-0.021": 0.0,
			"-0.02": 0.0,
			"-0.019": 0.0,
			"-0.018": 0.0,
			"-0.017": 0.0,
			"-0.016": 0.0,
			"-0.015": 0.0,
			"-0.014": 0.0,
			"-0.013": 0.0,
			"-0.012": 0.0,
			"-0.011": 0.0,
			"-0.01": 0.0,
			"-0.009": 0.0,
			"-0.008": 0.0,
			"-0.007": 0.244626788322,
			"-0.006": 21.8866812884,
			"-0.005": 39.9294522678,
			"-0.004": 51.6682666681,
			"-0.003": 45.1474980152,
			"-0.002": 37.4118158358,
			"-0.001": 39.9037499491,
			"0.0": 35.5525817027,
			"0.001": 35.6360300173,
			"0.002": 43.7534792112,
			"0.003": 41.7353120435,
			"0.004": 41.7267039781,
			"0.005": 35.8523033731,
			"0.006": 14.4661911306,
			"0.007": 3.64705416194,
			"0.008": 2.81845479224,
			"0.009": 2.52385990817,
			"0.01": 1.82086279736,
			"0.011": 1.36485586223,
			"0.012": 0.671720022694,
			"0.013": 0.00292598232862,
			"0.014": 0.0,
			"0.015": 0.0,
			"0.016": 0.0,
			"0.017": 0.0,
			"0.018": 0.0,
			"0.019": 0.0,
			"0.02": 0.0,
			"0.021": 0.0,
			"0.022": 0.0,
			"0.023": 0.0,
			"0.024": 0.0,
			"0.025": 0.0
		}
	}
}
