{
	 "smiles": "CC1(O)CCNC1", 
	 "Tm": 311.15, 
	 "num_atms": 18, 
	 "gaussian": { 
		 "optdone": 1, 
		 "sigma_profile": "yes", 
		 "theory": "DFT", 
		 "functional": "B3LYP", 
		 "basiset": "6-31G**", 
		 "properties": { 
			 "R2extent": 963.0303, 
			 "electric_dipole_moment_norm": 1.57990648141, 
			 "electric_quadrupole_moment_norm": 8.44229646719, 
			 "total_energy": -327.125925436, 
			 "HOMO_LUMO_gap": 0.28565, 
			 "cosmo_polarized_energy": -8.42, 
			 "cosmo_cavitation_energy": 19.21, 
			 "cosmo_dispersion_energy": -14.52, 
			 "cosmo_repulsion_energy": 1.22, 
			 "cosmo_total_nonelectrostatic_energy": 5.92, 
			 "SMD_solvation_energy": 0.0 
		},
		"coords": [
			{
				"x": 0.2808400032,
				"y": 1.3375841753,
				"z": -2.8385407897,
				"element": "C" 
			},
			{
				"x": 0.5032887467,
				"y": 0.8663648007,
				"z": -1.4034615876,
				"element": "C" 
			},
			{
				"x": 1.5039079718,
				"y": 1.6783210022,
				"z": -0.7586085784,
				"element": "O" 
			},
			{
				"x": -0.7399660122,
				"y": 0.9500608231,
				"z": -0.4887886366,
				"element": "C" 
			},
			{
				"x": -0.6343085539,
				"y": -0.30342731,
				"z": 0.4354545685,
				"element": "C" 
			},
			{
				"x": 0.6535683454,
				"y": -0.9670377109,
				"z": 0.1420108354,
				"element": "N" 
			},
			{
				"x": 0.902862828,
				"y": -0.6227226996,
				"z": -1.2610490002,
				"element": "C" 
			},
			{
				"x": -0.0160192246,
				"y": 2.3905384822,
				"z": -2.8564195337,
				"element": "H" 
			},
			{
				"x": -0.497400218,
				"y": 0.7489430266,
				"z": -3.3351183888,
				"element": "H" 
			},
			{
				"x": 1.1999769817,
				"y": 1.2368642626,
				"z": -3.430207596,
				"element": "H" 
			},
			{
				"x": 2.3092175696,
				"y": 1.6264059854,
				"z": -1.2920807217,
				"element": "H" 
			},
			{
				"x": -0.7108600572,
				"y": 1.8910618675,
				"z": 0.0661412917,
				"element": "H" 
			},
			{
				"x": -1.6612926173,
				"y": 0.9361159059,
				"z": -1.0793954185,
				"element": "H" 
			},
			{
				"x": -0.6995623627,
				"y": -0.0611930097,
				"z": 1.4994531942,
				"element": "H" 
			},
			{
				"x": -1.4472362735,
				"y": -1.0053039476,
				"z": 0.2122800437,
				"element": "H" 
			},
			{
				"x": 1.3699779248,
				"y": -0.4855909949,
				"z": 0.683709156,
				"element": "H" 
			},
			{
				"x": 1.9466944897,
				"y": -0.80950525,
				"z": -1.5379299892,
				"element": "H" 
			},
			{
				"x": 0.2685104585,
				"y": -1.2482794088,
				"z": -1.9048488494,
				"element": "H" 
			}
		],
		 "valence_orbital": [ 
			{
				"type": "occ",
				"energy": -0.34352,
				"method": "rhf"
			},
			{
				"type": "occ",
				"energy": -0.33103,
				"method": "rhf"
			},
			{
				"type": "occ",
				"energy": -0.31361,
				"method": "rhf"
			},
			{
				"type": "occ",
				"energy": -0.27172,
				"method": "rhf"
			},
			{
				"type": "occ",
				"energy": -0.22001,
				"method": "rhf"
			},
			{
				"type": "unocc",
				"energy": 0.06564,
				"method": "rhf"
			},
			{
				"type": "unocc",
				"energy": 0.09969,
				"method": "rhf"
			},
			{
				"type": "unocc",
				"energy": 0.11085,
				"method": "rhf"
			},
			{
				"type": "unocc",
				"energy": 0.1231,
				"method": "rhf"
			},
			{
				"type": "unocc",
				"energy": 0.14603,
				"method": "rhf"
			}
		],
		"cosmo_sigma_profile": { 
			"-0.025": 0.0,
			"-0.024": 0.0,
			"-0.023": 0.0,
			"-0.022": 0.0,
			"-0.021": 0.0,
			"-0.02": 0.0,
			"-0.019": 0.0,
			"-0.018": 0.0,
			"-0.017": 0.0,
			"-0.016": 0.0,
			"-0.015": 0.261755741381,
			"-0.014": 0.786720176615,
			"-0.013": 0.941796229279,
			"-0.012": 1.2382357467,
			"-0.011": 0.867692774589,
			"-0.01": 0.72392453204,
			"-0.009": 1.43983991052,
			"-0.008": 1.8046267829,
			"-0.007": 2.18651970473,
			"-0.006": 2.75270127046,
			"-0.005": 3.45030671682,
			"-0.004": 8.24879357449,
			"-0.003": 20.0090383926,
			"-0.002": 21.1905110028,
			"-0.001": 17.1617542292,
			"0.0": 18.5656246764,
			"0.001": 12.6863644733,
			"0.002": 4.61927373721,
			"0.003": 3.13781122629,
			"0.004": 2.07425883953,
			"0.005": 2.73209230207,
			"0.006": 1.87780301491,
			"0.007": 1.32911910854,
			"0.008": 2.50510813044,
			"0.009": 1.97100027622,
			"0.01": 2.22030371696,
			"0.011": 1.73236910486,
			"0.012": 1.30877968762,
			"0.013": 1.66813086699,
			"0.014": 2.10087606042,
			"0.015": 1.51779099392,
			"0.016": 0.658099802121,
			"0.017": 0.532828037537,
			"0.018": 0.513781247064,
			"0.019": 0.82626904712,
			"0.02": 0.0457711612703,
			"0.021": 0.0,
			"0.022": 0.0,
			"0.023": 0.0,
			"0.024": 0.0,
			"0.025": 0.0
		}
	}
}
