{
	 "smiles": "ClC1=CC2=C(OC3=C(O2)C=C(Cl)C(Cl)=C3Cl)C(Cl)=C1Cl", 
	 "Tm": 516.15, 
	 "num_atms": 22, 
	 "gaussian": { 
		 "optdone": 1, 
		 "sigma_profile": "yes", 
		 "theory": "DFT", 
		 "functional": "B3LYP", 
		 "basiset": "6-31G**", 
		 "properties": { 
			 "R2extent": 11915.1358, 
			 "electric_dipole_moment_norm": 2.08179851571, 
			 "electric_quadrupole_moment_norm": 8.06193654775, 
			 "total_energy": -3370.03585209, 
			 "HOMO_LUMO_gap": 0.17253, 
			 "cosmo_polarized_energy": -6.54, 
			 "cosmo_cavitation_energy": 37.98, 
			 "cosmo_dispersion_energy": -28.71, 
			 "cosmo_repulsion_energy": 2.16, 
			 "cosmo_total_nonelectrostatic_energy": 11.43, 
			 "SMD_solvation_energy": 5.36 
		},
		"coords": [
			{
				"x": -2.7927500191,
				"y": -2.2485387971,
				"z": 3.8547185174,
				"element": "Cl" 
			},
			{
				"x": -1.6184221766,
				"y": -1.2232448708,
				"z": 3.0760831686,
				"element": "C" 
			},
			{
				"x": -1.3736847388,
				"y": -1.4199534886,
				"z": 1.716609227,
				"element": "C" 
			},
			{
				"x": -0.4468273829,
				"y": -0.6239956447,
				"z": 1.0635253294,
				"element": "C" 
			},
			{
				"x": 0.2467078317,
				"y": 0.3747180863,
				"z": 1.7511627246,
				"element": "C" 
			},
			{
				"x": 1.1706309899,
				"y": 1.1774252716,
				"z": 1.1272800811,
				"element": "O" 
			},
			{
				"x": 1.3792499313,
				"y": 0.9482889712,
				"z": -0.2110681811,
				"element": "C" 
			},
			{
				"x": 0.6894679705,
				"y": -0.0485496472,
				"z": -0.9051683751,
				"element": "C" 
			},
			{
				"x": -0.236330494,
				"y": -0.8522196529,
				"z": -0.2780643957,
				"element": "O" 
			},
			{
				"x": 0.918712711,
				"y": -0.2590575597,
				"z": -2.2550788756,
				"element": "C" 
			},
			{
				"x": 1.8484217818,
				"y": 0.5323834367,
				"z": -2.9303719118,
				"element": "C" 
			},
			{
				"x": 2.1031677172,
				"y": 0.2307174551,
				"z": -4.6276200856,
				"element": "Cl" 
			},
			{
				"x": 2.5544185818,
				"y": 1.5398792191,
				"z": -2.2575884797,
				"element": "C" 
			},
			{
				"x": 3.7111202138,
				"y": 2.5266808799,
				"z": -3.0917726506,
				"element": "Cl" 
			},
			{
				"x": 2.310824612,
				"y": 1.742653339,
				"z": -0.8842257147,
				"element": "C" 
			},
			{
				"x": 3.1458722417,
				"y": 2.9691897275,
				"z": 0.012830978,
				"element": "Cl" 
			},
			{
				"x": 0.0040642781,
				"y": 0.5743779774,
				"z": 3.1125008975,
				"element": "C" 
			},
			{
				"x": 0.8852656723,
				"y": 1.8241361218,
				"z": 3.929794635,
				"element": "Cl" 
			},
			{
				"x": -0.9361508702,
				"y": -0.2278098799,
				"z": 3.7900419271,
				"element": "C" 
			},
			{
				"x": -1.2363362899,
				"y": 0.0213376903,
				"z": 5.479844243,
				"element": "Cl" 
			},
			{
				"x": -1.899726595,
				"y": -2.188315134,
				"z": 1.1637291436,
				"element": "H" 
			},
			{
				"x": 0.3726040335,
				"y": -1.0376035009,
				"z": -2.7731622025,
				"element": "H" 
			}
		],
		 "valence_orbital": [ 
			{
				"type": "occ",
				"energy": -0.31569,
				"method": "rhf"
			},
			{
				"type": "occ",
				"energy": -0.27886,
				"method": "rhf"
			},
			{
				"type": "occ",
				"energy": -0.27495,
				"method": "rhf"
			},
			{
				"type": "occ",
				"energy": -0.25954,
				"method": "rhf"
			},
			{
				"type": "occ",
				"energy": -0.23025,
				"method": "rhf"
			},
			{
				"type": "unocc",
				"energy": -0.05772,
				"method": "rhf"
			},
			{
				"type": "unocc",
				"energy": -0.04739,
				"method": "rhf"
			},
			{
				"type": "unocc",
				"energy": -0.04593,
				"method": "rhf"
			},
			{
				"type": "unocc",
				"energy": -0.03663,
				"method": "rhf"
			},
			{
				"type": "unocc",
				"energy": -0.02847,
				"method": "rhf"
			}
		],
		"cosmo_sigma_profile": { 
			"-0.025": 0.0,
			"-0.024": 0.0,
			"-0.023": 0.0,
			"-0.022": 0.0,
			"-0.021": 0.0,
			"-0.02": 0.0,
			"-0.019": 0.0,
			"-0.018": 0.0,
			"-0.017": 0.0,
			"-0.016": 0.0,
			"-0.015": 0.0,
			"-0.014": 0.0,
			"-0.013": 0.0,
			"-0.012": 0.0,
			"-0.011": 0.0,
			"-0.01": 1.0237536744,
			"-0.009": 3.37447146907,
			"-0.008": 3.49248368641,
			"-0.007": 5.18670678939,
			"-0.006": 3.86522249698,
			"-0.005": 5.39746805351,
			"-0.004": 13.2613634593,
			"-0.003": 22.2491191668,
			"-0.002": 39.2387804624,
			"-0.001": 47.3611470605,
			"0.0": 29.032275803,
			"0.001": 27.1076697789,
			"0.002": 33.7696379316,
			"0.003": 51.0000196589,
			"0.004": 27.9780678362,
			"0.005": 4.91126082851,
			"0.006": 2.3933743547,
			"0.007": 0.908036233352,
			"0.008": 0.0,
			"0.009": 0.0,
			"0.01": 0.0,
			"0.011": 0.0,
			"0.012": 0.0,
			"0.013": 0.0,
			"0.014": 0.0,
			"0.015": 0.0,
			"0.016": 0.0,
			"0.017": 0.0,
			"0.018": 0.0,
			"0.019": 0.0,
			"0.02": 0.0,
			"0.021": 0.0,
			"0.022": 0.0,
			"0.023": 0.0,
			"0.024": 0.0,
			"0.025": 0.0
		}
	}
}
