{
	 "smiles": "CNC(OC)=C[N+]([O-])=O", 
	 "Tm": 391.15, 
	 "num_atms": 17, 
	 "gaussian": { 
		 "optdone": 1, 
		 "sigma_profile": "yes", 
		 "theory": "DFT", 
		 "functional": "B3LYP", 
		 "basiset": "6-31G**", 
		 "properties": { 
			 "R2extent": 2298.219, 
			 "electric_dipole_moment_norm": 6.46995555317, 
			 "electric_quadrupole_moment_norm": 25.0482572759, 
			 "total_energy": -492.304087813, 
			 "HOMO_LUMO_gap": 0.17878, 
			 "cosmo_polarized_energy": -14.74, 
			 "cosmo_cavitation_energy": 21.21, 
			 "cosmo_dispersion_energy": -15.79, 
			 "cosmo_repulsion_energy": 1.33, 
			 "cosmo_total_nonelectrostatic_energy": 6.75, 
			 "SMD_solvation_energy": 6.79 
		},
		"coords": [
			{
				"x": 2.6608915604,
				"y": 0.7787896965,
				"z": -0.5634042941,
				"element": "C" 
			},
			{
				"x": 1.9708589095,
				"y": -0.4933295805,
				"z": -0.4477258709,
				"element": "N" 
			},
			{
				"x": 1.3807857651,
				"y": -0.9340491396,
				"z": 0.6707196123,
				"element": "C" 
			},
			{
				"x": 1.489933357,
				"y": -0.070137626,
				"z": 1.6965986242,
				"element": "O" 
			},
			{
				"x": 0.9091666177,
				"y": -0.4008223548,
				"z": 2.9601315987,
				"element": "C" 
			},
			{
				"x": 0.7194104409,
				"y": -2.1491914349,
				"z": 0.788173886,
				"element": "C" 
			},
			{
				"x": 0.5973283796,
				"y": -3.0584921684,
				"z": -0.2686526505,
				"element": "N" 
			},
			{
				"x": -0.0141964073,
				"y": -4.1132720286,
				"z": -0.051465896,
				"element": "O" 
			},
			{
				"x": 1.1005245675,
				"y": -2.792169165,
				"z": -1.3945711632,
				"element": "O" 
			},
			{
				"x": 1.9904632531,
				"y": 1.6215663874,
				"z": -0.3648226453,
				"element": "H" 
			},
			{
				"x": 3.0377428533,
				"y": 0.8647580364,
				"z": -1.5834335151,
				"element": "H" 
			},
			{
				"x": 3.5061808412,
				"y": 0.8443090645,
				"z": 0.129668356,
				"element": "H" 
			},
			{
				"x": 1.8837638629,
				"y": -1.1541161238,
				"z": -1.2210216929,
				"element": "H" 
			},
			{
				"x": 1.1308566795,
				"y": 0.4442222104,
				"z": 3.6116915331,
				"element": "H" 
			},
			{
				"x": -0.1747713484,
				"y": -0.5258275444,
				"z": 2.8732529629,
				"element": "H" 
			},
			{
				"x": 1.3561286709,
				"y": -1.3114621441,
				"z": 3.3712905225,
				"element": "H" 
			},
			{
				"x": 0.2527319971,
				"y": -2.4817760851,
				"z": 1.6977706323,
				"element": "H" 
			}
		],
		 "valence_orbital": [ 
			{
				"type": "occ",
				"energy": -0.3017,
				"method": "rhf"
			},
			{
				"type": "occ",
				"energy": -0.28083,
				"method": "rhf"
			},
			{
				"type": "occ",
				"energy": -0.27567,
				"method": "rhf"
			},
			{
				"type": "occ",
				"energy": -0.25725,
				"method": "rhf"
			},
			{
				"type": "occ",
				"energy": -0.22553,
				"method": "rhf"
			},
			{
				"type": "unocc",
				"energy": -0.04675,
				"method": "rhf"
			},
			{
				"type": "unocc",
				"energy": 0.0631,
				"method": "rhf"
			},
			{
				"type": "unocc",
				"energy": 0.07208,
				"method": "rhf"
			},
			{
				"type": "unocc",
				"energy": 0.08542,
				"method": "rhf"
			},
			{
				"type": "unocc",
				"energy": 0.11391,
				"method": "rhf"
			}
		],
		"cosmo_sigma_profile": { 
			"-0.025": 0.0,
			"-0.024": 0.0,
			"-0.023": 0.0,
			"-0.022": 0.0,
			"-0.021": 0.0,
			"-0.02": 0.0,
			"-0.019": 0.0,
			"-0.018": 0.0,
			"-0.017": 0.0,
			"-0.016": 0.0,
			"-0.015": 0.0,
			"-0.014": 0.0,
			"-0.013": 0.0,
			"-0.012": 0.011943210829,
			"-0.011": 0.586161491374,
			"-0.01": 0.588834156744,
			"-0.009": 1.50206977912,
			"-0.008": 3.81750772955,
			"-0.007": 10.2899703625,
			"-0.006": 12.2496311003,
			"-0.005": 14.4959568082,
			"-0.004": 15.2429700581,
			"-0.003": 12.7970989951,
			"-0.002": 12.728584501,
			"-0.001": 12.3955124869,
			"0.0": 10.8367916123,
			"0.001": 8.71287498515,
			"0.002": 5.70296703029,
			"0.003": 3.79513416303,
			"0.004": 4.311013958,
			"0.005": 3.91704355107,
			"0.006": 2.88981334127,
			"0.007": 1.67362231333,
			"0.008": 3.05438379659,
			"0.009": 3.46080733349,
			"0.01": 6.15657786308,
			"0.011": 7.97923019246,
			"0.012": 4.10036080701,
			"0.013": 3.8128852551,
			"0.014": 0.664556020073,
			"0.015": 0.0,
			"0.016": 0.0,
			"0.017": 0.0,
			"0.018": 0.0,
			"0.019": 0.0,
			"0.02": 0.0,
			"0.021": 0.0,
			"0.022": 0.0,
			"0.023": 0.0,
			"0.024": 0.0,
			"0.025": 0.0
		}
	}
}
