{
	 "smiles": "CCCCCCCCCCCCCCCCS(=O)(=O)C1=CC=C(N)C=C1", 
	 "Tm": 389.15, 
	 "num_atms": 65, 
	 "gaussian": { 
		 "optdone": 1, 
		 "sigma_profile": "yes", 
		 "theory": "DFT", 
		 "functional": "B3LYP", 
		 "basiset": "6-31G**", 
		 "properties": { 
			 "R2extent": 13749.223, 
			 "electric_dipole_moment_norm": 7.5172638513, 
			 "electric_quadrupole_moment_norm": 35.6998997286, 
			 "total_energy": -1465.22437514, 
			 "HOMO_LUMO_gap": 0.20366, 
			 "cosmo_polarized_energy": -20.35, 
			 "cosmo_cavitation_energy": 65.0, 
			 "cosmo_dispersion_energy": -39.58, 
			 "cosmo_repulsion_energy": 3.08, 
			 "cosmo_total_nonelectrostatic_energy": 28.5, 
			 "SMD_solvation_energy": 7.95 
		},
		"coords": [
			{
				"x": 2.427385357,
				"y": 4.568660926,
				"z": -3.4650354251,
				"element": "C" 
			},
			{
				"x": 1.3994550423,
				"y": 3.4918148527,
				"z": -3.0970634993,
				"element": "C" 
			},
			{
				"x": 0.5489726743,
				"y": 3.8182462636,
				"z": -1.8570079349,
				"element": "C" 
			},
			{
				"x": 1.3480817881,
				"y": 3.9036225891,
				"z": -0.5475191425,
				"element": "C" 
			},
			{
				"x": 0.4938950582,
				"y": 4.136098409,
				"z": 0.7118940727,
				"element": "C" 
			},
			{
				"x": -0.3996358194,
				"y": 2.9475318413,
				"z": 1.0940508414,
				"element": "C" 
			},
			{
				"x": -1.1558048962,
				"y": 3.1350837677,
				"z": 2.4182220793,
				"element": "C" 
			},
			{
				"x": -2.0454711107,
				"y": 1.9386768733,
				"z": 2.8042457414,
				"element": "C" 
			},
			{
				"x": -1.253629889,
				"y": 0.6786556844,
				"z": 3.1863015464,
				"element": "C" 
			},
			{
				"x": -2.0968697715,
				"y": -0.5848868569,
				"z": 3.4304328018,
				"element": "C" 
			},
			{
				"x": -2.9232783921,
				"y": -1.0823232381,
				"z": 2.227643109,
				"element": "C" 
			},
			{
				"x": -2.1389544996,
				"y": -1.1835497369,
				"z": 0.9099365071,
				"element": "C" 
			},
			{
				"x": -2.886560265,
				"y": -1.9697129366,
				"z": -0.1782814857,
				"element": "C" 
			},
			{
				"x": -2.36061453,
				"y": -1.8038437725,
				"z": -1.616056676,
				"element": "C" 
			},
			{
				"x": -0.8699446236,
				"y": -2.1407482212,
				"z": -1.8526393275,
				"element": "C" 
			},
			{
				"x": 0.0614343538,
				"y": -0.9489984924,
				"z": -1.6208627795,
				"element": "C" 
			},
			{
				"x": 1.8050039137,
				"y": -1.2492072289,
				"z": -2.0570967584,
				"element": "S" 
			},
			{
				"x": 1.8343123848,
				"y": -1.9169949683,
				"z": -3.3716192148,
				"element": "O" 
			},
			{
				"x": 2.5048502656,
				"y": 0.0328075323,
				"z": -1.8403507137,
				"element": "O" 
			},
			{
				"x": 2.4021339962,
				"y": -2.4114594238,
				"z": -0.8362659376,
				"element": "C" 
			},
			{
				"x": 2.4129945638,
				"y": -3.7798220838,
				"z": -1.1238830331,
				"element": "C" 
			},
			{
				"x": 2.875803143,
				"y": -4.682259539,
				"z": -0.1749793894,
				"element": "C" 
			},
			{
				"x": 3.3399339249,
				"y": -4.2315719341,
				"z": 1.0772139764,
				"element": "C" 
			},
			{
				"x": 3.8472048674,
				"y": -5.1248567704,
				"z": 2.0035734534,
				"element": "N" 
			},
			{
				"x": 3.3327011739,
				"y": -2.8471630458,
				"z": 1.3460174851,
				"element": "C" 
			},
			{
				"x": 2.8717706527,
				"y": -1.945680666,
				"z": 0.3964637598,
				"element": "C" 
			},
			{
				"x": 3.1823074986,
				"y": 4.698084166,
				"z": -2.6827473747,
				"element": "H" 
			},
			{
				"x": 2.9567998264,
				"y": 4.3055900241,
				"z": -4.3867968602,
				"element": "H" 
			},
			{
				"x": 1.9449736493,
				"y": 5.5408909966,
				"z": -3.6246484449,
				"element": "H" 
			},
			{
				"x": 1.9096340378,
				"y": 2.5333966187,
				"z": -2.9370743132,
				"element": "H" 
			},
			{
				"x": 0.7257591618,
				"y": 3.341560808,
				"z": -3.9511805002,
				"element": "H" 
			},
			{
				"x": 0.0139336322,
				"y": 4.766640693,
				"z": -2.0163861017,
				"element": "H" 
			},
			{
				"x": -0.2256709292,
				"y": 3.0464486575,
				"z": -1.7605178076,
				"element": "H" 
			},
			{
				"x": 1.9284256114,
				"y": 2.9778800329,
				"z": -0.4253058181,
				"element": "H" 
			},
			{
				"x": 2.0817173201,
				"y": 4.7154833224,
				"z": -0.6242083583,
				"element": "H" 
			},
			{
				"x": 1.1623688283,
				"y": 4.355341237,
				"z": 1.5559488294,
				"element": "H" 
			},
			{
				"x": -0.126261824,
				"y": 5.0341836696,
				"z": 0.5767953089,
				"element": "H" 
			},
			{
				"x": -1.1308575951,
				"y": 2.7575843707,
				"z": 0.2967481171,
				"element": "H" 
			},
			{
				"x": 0.2308034416,
				"y": 2.049933482,
				"z": 1.1485581309,
				"element": "H" 
			},
			{
				"x": -0.435623864,
				"y": 3.3296467307,
				"z": 3.2261875196,
				"element": "H" 
			},
			{
				"x": -1.779306477,
				"y": 4.0362970864,
				"z": 2.3456121595,
				"element": "H" 
			},
			{
				"x": -2.7212022493,
				"y": 1.7195226115,
				"z": 1.9663202311,
				"element": "H" 
			},
			{
				"x": -2.6922270084,
				"y": 2.2206697265,
				"z": 3.6461216305,
				"element": "H" 
			},
			{
				"x": -0.6726551074,
				"y": 0.8920871214,
				"z": 4.0939362089,
				"element": "H" 
			},
			{
				"x": -0.5127912181,
				"y": 0.4600169569,
				"z": 2.4084274901,
				"element": "H" 
			},
			{
				"x": -2.7748275015,
				"y": -0.4169104408,
				"z": 4.2782309604,
				"element": "H" 
			},
			{
				"x": -1.4169660615,
				"y": -1.3895195503,
				"z": 3.7427371711,
				"element": "H" 
			},
			{
				"x": -3.3391180375,
				"y": -2.0673471453,
				"z": 2.4798900069,
				"element": "H" 
			},
			{
				"x": -3.7899360698,
				"y": -0.4271037576,
				"z": 2.0686201458,
				"element": "H" 
			},
			{
				"x": -1.1648429848,
				"y": -1.655470127,
				"z": 1.0999676905,
				"element": "H" 
			},
			{
				"x": -1.9243203349,
				"y": -0.1710329801,
				"z": 0.5450304034,
				"element": "H" 
			},
			{
				"x": -3.9428668414,
				"y": -1.6675744539,
				"z": -0.1735548127,
				"element": "H" 
			},
			{
				"x": -2.8800428642,
				"y": -3.0360388119,
				"z": 0.0878338957,
				"element": "H" 
			},
			{
				"x": -2.9629974416,
				"y": -2.449025164,
				"z": -2.2668270253,
				"element": "H" 
			},
			{
				"x": -2.5533294181,
				"y": -0.7770996409,
				"z": -1.956734377,
				"element": "H" 
			},
			{
				"x": -0.5700909579,
				"y": -2.981775642,
				"z": -1.214849454,
				"element": "H" 
			},
			{
				"x": -0.7305818591,
				"y": -2.4680236774,
				"z": -2.8877951405,
				"element": "H" 
			},
			{
				"x": -0.2087356528,
				"y": -0.1036937121,
				"z": -2.2633866302,
				"element": "H" 
			},
			{
				"x": 0.0731470047,
				"y": -0.5950165469,
				"z": -0.5883194519,
				"element": "H" 
			},
			{
				"x": 2.0763710711,
				"y": -4.1233648638,
				"z": -2.0962235437,
				"element": "H" 
			},
			{
				"x": 2.8947990095,
				"y": -5.7450183474,
				"z": -0.4017637873,
				"element": "H" 
			},
			{
				"x": 3.8967522391,
				"y": -4.8143964445,
				"z": 2.9623493926,
				"element": "H" 
			},
			{
				"x": 3.5806914034,
				"y": -6.0927622838,
				"z": 1.902409579,
				"element": "H" 
			},
			{
				"x": 3.7078179845,
				"y": -2.4855208291,
				"z": 2.2998195562,
				"element": "H" 
			},
			{
				"x": 2.8935812153,
				"y": -0.8791837181,
				"z": 0.5955413178,
				"element": "H" 
			}
		],
		 "valence_orbital": [ 
			{
				"type": "occ",
				"energy": -0.2908,
				"method": "rhf"
			},
			{
				"type": "occ",
				"energy": -0.2838,
				"method": "rhf"
			},
			{
				"type": "occ",
				"energy": -0.26972,
				"method": "rhf"
			},
			{
				"type": "occ",
				"energy": -0.26692,
				"method": "rhf"
			},
			{
				"type": "occ",
				"energy": -0.22378,
				"method": "rhf"
			},
			{
				"type": "unocc",
				"energy": -0.02012,
				"method": "rhf"
			},
			{
				"type": "unocc",
				"energy": -0.01663,
				"method": "rhf"
			},
			{
				"type": "unocc",
				"energy": 0.05849,
				"method": "rhf"
			},
			{
				"type": "unocc",
				"energy": 0.06218,
				"method": "rhf"
			},
			{
				"type": "unocc",
				"energy": 0.07858,
				"method": "rhf"
			}
		],
		"cosmo_sigma_profile": { 
			"-0.025": 0.0,
			"-0.024": 0.0,
			"-0.023": 0.0,
			"-0.022": 0.0,
			"-0.021": 0.0,
			"-0.02": 0.0,
			"-0.019": 0.0,
			"-0.018": 0.0,
			"-0.017": 0.0,
			"-0.016": 0.0,
			"-0.015": 0.0,
			"-0.014": 0.370165107264,
			"-0.013": 2.30431060502,
			"-0.012": 2.87633575996,
			"-0.011": 3.19727910344,
			"-0.01": 3.2718016907,
			"-0.009": 3.00944863047,
			"-0.008": 3.16205007332,
			"-0.007": 5.82080563162,
			"-0.006": 9.71427327253,
			"-0.005": 13.1024153737,
			"-0.004": 12.0270406778,
			"-0.003": 21.697445841,
			"-0.002": 61.236329563,
			"-0.001": 83.2986186432,
			"0.0": 87.3448690752,
			"0.001": 71.7267125452,
			"0.002": 37.6788746589,
			"0.003": 14.4531091086,
			"0.004": 19.0650561132,
			"0.005": 7.2908397031,
			"0.006": 5.54176112958,
			"0.007": 5.87253328525,
			"0.008": 3.65423775296,
			"0.009": 4.23908255635,
			"0.01": 4.26710984475,
			"0.011": 5.89376279503,
			"0.012": 6.25144924033,
			"0.013": 3.73181539073,
			"0.014": 0.000738623925194,
			"0.015": 0.0,
			"0.016": 0.0,
			"0.017": 0.0,
			"0.018": 0.0,
			"0.019": 0.0,
			"0.02": 0.0,
			"0.021": 0.0,
			"0.022": 0.0,
			"0.023": 0.0,
			"0.024": 0.0,
			"0.025": 0.0
		}
	}
}
