{
	 "smiles": "CCNS(=O)(=O)C1=CC(C(O)=O)=C(F)C=C1", 
	 "Tm": 428.15, 
	 "num_atms": 26, 
	 "gaussian": { 
		 "optdone": 1, 
		 "sigma_profile": "yes", 
		 "theory": "DFT", 
		 "functional": "B3LYP", 
		 "basiset": "6-31G**", 
		 "properties": { 
			 "R2extent": 5684.3552, 
			 "electric_dipole_moment_norm": 4.01852434234, 
			 "electric_quadrupole_moment_norm": 19.3111650866, 
			 "total_energy": -1202.59970304, 
			 "HOMO_LUMO_gap": 0.19681, 
			 "cosmo_polarized_energy": -18.49, 
			 "cosmo_cavitation_energy": 32.84, 
			 "cosmo_dispersion_energy": -23.54, 
			 "cosmo_repulsion_energy": 1.81, 
			 "cosmo_total_nonelectrostatic_energy": 11.11, 
			 "SMD_solvation_energy": 6.26 
		},
		"coords": [
			{
				"x": -0.1586230513,
				"y": -2.9310844526,
				"z": 0.874212924,
				"element": "C" 
			},
			{
				"x": -0.9737521628,
				"y": -1.6426689397,
				"z": 0.9394313734,
				"element": "C" 
			},
			{
				"x": -1.4637237876,
				"y": -1.2987369876,
				"z": -0.4084941384,
				"element": "N" 
			},
			{
				"x": -2.3545035024,
				"y": 0.1234042852,
				"z": -0.5853889893,
				"element": "S" 
			},
			{
				"x": -3.1168526923,
				"y": -0.0608726069,
				"z": -1.8230235893,
				"element": "O" 
			},
			{
				"x": -3.0208668827,
				"y": 0.4955682831,
				"z": 0.6695424396,
				"element": "O" 
			},
			{
				"x": -1.0630910664,
				"y": 1.3396987136,
				"z": -0.8598856914,
				"element": "C" 
			},
			{
				"x": -0.2260532529,
				"y": 1.218778299,
				"z": -1.9643165695,
				"element": "C" 
			},
			{
				"x": 0.7582310834,
				"y": 2.1823829521,
				"z": -2.2186230836,
				"element": "C" 
			},
			{
				"x": 1.6135493503,
				"y": 1.9615179058,
				"z": -3.4222331815,
				"element": "C" 
			},
			{
				"x": 2.5112805453,
				"y": 2.940778198,
				"z": -3.651930698,
				"element": "O" 
			},
			{
				"x": 1.5134909234,
				"y": 0.9855454097,
				"z": -4.1386344702,
				"element": "O" 
			},
			{
				"x": 0.8588953946,
				"y": 3.2652486695,
				"z": -1.3283967597,
				"element": "C" 
			},
			{
				"x": 1.7790383407,
				"y": 4.2183357446,
				"z": -1.5127290019,
				"element": "F" 
			},
			{
				"x": 0.0193521358,
				"y": 3.3923336487,
				"z": -0.225031812,
				"element": "C" 
			},
			{
				"x": -0.9515080517,
				"y": 2.424247316,
				"z": 0.0138270706,
				"element": "C" 
			},
			{
				"x": 0.229121991,
				"y": -3.1806688198,
				"z": 1.8662394579,
				"element": "H" 
			},
			{
				"x": -0.7741951027,
				"y": -3.7731473552,
				"z": 0.5380847914,
				"element": "H" 
			},
			{
				"x": 0.6841173142,
				"y": -2.8276128624,
				"z": 0.185226068,
				"element": "H" 
			},
			{
				"x": -1.7983237928,
				"y": -1.7350759799,
				"z": 1.6571111179,
				"element": "H" 
			},
			{
				"x": -0.3404774157,
				"y": -0.816155984,
				"z": 1.2784314929,
				"element": "H" 
			},
			{
				"x": -2.0011767014,
				"y": -2.0406068755,
				"z": -0.8539424172,
				"element": "H" 
			},
			{
				"x": -0.310842616,
				"y": 0.3820094336,
				"z": -2.6483606441,
				"element": "H" 
			},
			{
				"x": 2.9894650375,
				"y": 2.6729981452,
				"z": -4.4550207263,
				"element": "H" 
			},
			{
				"x": 0.1415524519,
				"y": 4.2495977272,
				"z": 0.4274327043,
				"element": "H" 
			},
			{
				"x": -1.6224044895,
				"y": 2.4984861323,
				"z": 0.8623723325,
				"element": "H" 
			}
		],
		 "valence_orbital": [ 
			{
				"type": "occ",
				"energy": -0.30424,
				"method": "rhf"
			},
			{
				"type": "occ",
				"energy": -0.29322,
				"method": "rhf"
			},
			{
				"type": "occ",
				"energy": -0.28943,
				"method": "rhf"
			},
			{
				"type": "occ",
				"energy": -0.2877,
				"method": "rhf"
			},
			{
				"type": "occ",
				"energy": -0.26577,
				"method": "rhf"
			},
			{
				"type": "unocc",
				"energy": -0.06896,
				"method": "rhf"
			},
			{
				"type": "unocc",
				"energy": -0.04482,
				"method": "rhf"
			},
			{
				"type": "unocc",
				"energy": 0.02773,
				"method": "rhf"
			},
			{
				"type": "unocc",
				"energy": 0.05273,
				"method": "rhf"
			},
			{
				"type": "unocc",
				"energy": 0.0716,
				"method": "rhf"
			}
		],
		"cosmo_sigma_profile": { 
			"-0.025": 0.0,
			"-0.024": 0.0,
			"-0.023": 0.0,
			"-0.022": 0.0,
			"-0.021": 0.0,
			"-0.02": 0.0,
			"-0.019": 0.311680357216,
			"-0.018": 0.906377108726,
			"-0.017": 0.877177057529,
			"-0.016": 0.995790299847,
			"-0.015": 1.0014869486,
			"-0.014": 1.45923529693,
			"-0.013": 1.79820788184,
			"-0.012": 1.29438295861,
			"-0.011": 2.61408143256,
			"-0.01": 1.47842585826,
			"-0.009": 3.08861268637,
			"-0.008": 5.39596054211,
			"-0.007": 5.99450736772,
			"-0.006": 6.41535015745,
			"-0.005": 10.2104728444,
			"-0.004": 20.3110026086,
			"-0.003": 23.8517303097,
			"-0.002": 26.8083241272,
			"-0.001": 25.6106768365,
			"0.0": 22.2833359817,
			"0.001": 11.751827296,
			"0.002": 9.54308651772,
			"0.003": 11.5077892886,
			"0.004": 7.67696342787,
			"0.005": 5.54087939493,
			"0.006": 5.40809729096,
			"0.007": 7.55971270602,
			"0.008": 6.34149262784,
			"0.009": 6.79092864571,
			"0.01": 9.94904122281,
			"0.011": 13.4058390225,
			"0.012": 3.17710847117,
			"0.013": 0.0,
			"0.014": 0.0,
			"0.015": 0.0,
			"0.016": 0.0,
			"0.017": 0.0,
			"0.018": 0.0,
			"0.019": 0.0,
			"0.02": 0.0,
			"0.021": 0.0,
			"0.022": 0.0,
			"0.023": 0.0,
			"0.024": 0.0,
			"0.025": 0.0
		}
	}
}
