{
	 "smiles": "OCCN(CCO)CC(O)CS(O)(=O)=O", 
	 "Tm": 463.15, 
	 "num_atms": 32, 
	 "gaussian": { 
		 "optdone": 1, 
		 "sigma_profile": "yes", 
		 "theory": "DFT", 
		 "functional": "B3LYP", 
		 "basiset": "6-31G**", 
		 "properties": { 
			 "R2extent": 4725.1953, 
			 "electric_dipole_moment_norm": 8.01923762087, 
			 "electric_quadrupole_moment_norm": 29.5064548159, 
			 "total_energy": -1181.177372, 
			 "HOMO_LUMO_gap": 0.28395, 
			 "cosmo_polarized_energy": -22.89, 
			 "cosmo_cavitation_energy": 30.98, 
			 "cosmo_dispersion_energy": -23.86, 
			 "cosmo_repulsion_energy": 1.79, 
			 "cosmo_total_nonelectrostatic_energy": 8.91, 
			 "SMD_solvation_energy": 4.01 
		},
		"coords": [
			{
				"x": 1.458016631,
				"y": 0.6603142615,
				"z": 2.4934058169,
				"element": "O" 
			},
			{
				"x": 0.2098514046,
				"y": 1.347708614,
				"z": 2.3651798687,
				"element": "C" 
			},
			{
				"x": -0.6235311247,
				"y": 0.9130145759,
				"z": 1.1569751187,
				"element": "C" 
			},
			{
				"x": 0.1160989112,
				"y": 0.8192429109,
				"z": -0.1019282834,
				"element": "N" 
			},
			{
				"x": -0.6816081283,
				"y": 0.1365277855,
				"z": -1.1341057637,
				"element": "C" 
			},
			{
				"x": -0.5471756125,
				"y": -1.3892240636,
				"z": -1.0637228569,
				"element": "C" 
			},
			{
				"x": 0.760275024,
				"y": -1.8399519829,
				"z": -1.3505795118,
				"element": "O" 
			},
			{
				"x": 0.7074131415,
				"y": 2.0828739445,
				"z": -0.5275521239,
				"element": "C" 
			},
			{
				"x": 1.7684231727,
				"y": 1.9726067614,
				"z": -1.6459754894,
				"element": "C" 
			},
			{
				"x": 2.5581114493,
				"y": 3.1544387829,
				"z": -1.6683395242,
				"element": "O" 
			},
			{
				"x": 2.7317348486,
				"y": 0.7813107902,
				"z": -1.6056483189,
				"element": "C" 
			},
			{
				"x": 3.532247794,
				"y": 0.2447008722,
				"z": -0.0525018383,
				"element": "S" 
			},
			{
				"x": 3.4157126795,
				"y": 1.4844601947,
				"z": 0.9597795908,
				"element": "O" 
			},
			{
				"x": 2.730295739,
				"y": -0.8659678943,
				"z": 0.5247361232,
				"element": "O" 
			},
			{
				"x": 4.9374073619,
				"y": 0.0088530884,
				"z": -0.3450642198,
				"element": "O" 
			},
			{
				"x": 1.453892405,
				"y": -0.1642621897,
				"z": 1.9739247594,
				"element": "H" 
			},
			{
				"x": -0.3911306651,
				"y": 1.186544277,
				"z": 3.2695671099,
				"element": "H" 
			},
			{
				"x": 0.4445865554,
				"y": 2.416370894,
				"z": 2.3258375051,
				"element": "H" 
			},
			{
				"x": -1.0370595876,
				"y": -0.0808025507,
				"z": 1.3633160506,
				"element": "H" 
			},
			{
				"x": -1.491172735,
				"y": 1.5997833966,
				"z": 1.0887290978,
				"element": "H" 
			},
			{
				"x": -0.3285955674,
				"y": 0.4490118586,
				"z": -2.1204265468,
				"element": "H" 
			},
			{
				"x": -1.7480326226,
				"y": 0.4231515209,
				"z": -1.076967031,
				"element": "H" 
			},
			{
				"x": -1.2093468968,
				"y": -1.8286923574,
				"z": -1.8188560124,
				"element": "H" 
			},
			{
				"x": -0.8947309452,
				"y": -1.7605627653,
				"z": -0.0861889642,
				"element": "H" 
			},
			{
				"x": 1.3419874564,
				"y": -1.6142060546,
				"z": -0.6024103431,
				"element": "H" 
			},
			{
				"x": -0.0552725411,
				"y": 2.8165837318,
				"z": -0.8618530714,
				"element": "H" 
			},
			{
				"x": 1.2244616855,
				"y": 2.5330030793,
				"z": 0.3205772666,
				"element": "H" 
			},
			{
				"x": 1.2576266063,
				"y": 1.8575490011,
				"z": -2.6164095082,
				"element": "H" 
			},
			{
				"x": 1.9696710813,
				"y": 3.9117831877,
				"z": -1.7866880919,
				"element": "H" 
			},
			{
				"x": 3.5687774739,
				"y": 1.0115916557,
				"z": -2.2672972509,
				"element": "H" 
			},
			{
				"x": 2.2273687498,
				"y": -0.1256264234,
				"z": -1.9491654643,
				"element": "H" 
			},
			{
				"x": 2.7125962554,
				"y": 1.259271097,
				"z": 1.6490519067,
				"element": "H" 
			}
		],
		 "valence_orbital": [ 
			{
				"type": "occ",
				"energy": -0.30665,
				"method": "rhf"
			},
			{
				"type": "occ",
				"energy": -0.30051,
				"method": "rhf"
			},
			{
				"type": "occ",
				"energy": -0.28705,
				"method": "rhf"
			},
			{
				"type": "occ",
				"energy": -0.27232,
				"method": "rhf"
			},
			{
				"type": "occ",
				"energy": -0.23841,
				"method": "rhf"
			},
			{
				"type": "unocc",
				"energy": 0.04554,
				"method": "rhf"
			},
			{
				"type": "unocc",
				"energy": 0.05196,
				"method": "rhf"
			},
			{
				"type": "unocc",
				"energy": 0.05897,
				"method": "rhf"
			},
			{
				"type": "unocc",
				"energy": 0.06588,
				"method": "rhf"
			},
			{
				"type": "unocc",
				"energy": 0.07972,
				"method": "rhf"
			}
		],
		"cosmo_sigma_profile": { 
			"-0.025": 0.0,
			"-0.024": 0.0,
			"-0.023": 0.0,
			"-0.022": 0.0,
			"-0.021": 0.0,
			"-0.02": 0.0,
			"-0.019": 0.0,
			"-0.018": 0.0,
			"-0.017": 0.102580849195,
			"-0.016": 0.781773371615,
			"-0.015": 1.1295203109,
			"-0.014": 1.33976580993,
			"-0.013": 0.555598076278,
			"-0.012": 0.869823297365,
			"-0.011": 1.04351228679,
			"-0.01": 1.96551109996,
			"-0.009": 2.13178495645,
			"-0.008": 3.28551893794,
			"-0.007": 8.28921564294,
			"-0.006": 14.0773269142,
			"-0.005": 22.3368464366,
			"-0.004": 25.0873004551,
			"-0.003": 32.3590696542,
			"-0.002": 20.106973434,
			"-0.001": 11.5796934381,
			"0.0": 7.26553262106,
			"0.001": 5.86239120894,
			"0.002": 5.28705692861,
			"0.003": 6.32379204508,
			"0.004": 5.1241965882,
			"0.005": 5.31602019546,
			"0.006": 5.84618171119,
			"0.007": 5.66720607489,
			"0.008": 7.28764025164,
			"0.009": 8.33908474452,
			"0.01": 11.8363290308,
			"0.011": 10.6685529405,
			"0.012": 3.95505243321,
			"0.013": 2.16269990666,
			"0.014": 1.64272715257,
			"0.015": 1.10650378714,
			"0.016": 0.00175973507552,
			"0.017": 0.0,
			"0.018": 0.0,
			"0.019": 0.0,
			"0.02": 0.0,
			"0.021": 0.0,
			"0.022": 0.0,
			"0.023": 0.0,
			"0.024": 0.0,
			"0.025": 0.0
		}
	}
}
