{
	 "smiles": "CCNC(=O)NC(=O)CCl", 
	 "Tm": 412.15, 
	 "num_atms": 19, 
	 "gaussian": { 
		 "optdone": 1, 
		 "sigma_profile": "yes", 
		 "theory": "DFT", 
		 "functional": "B3LYP", 
		 "basiset": "6-31G**", 
		 "properties": { 
			 "R2extent": 2436.7555, 
			 "electric_dipole_moment_norm": 4.98836544872, 
			 "electric_quadrupole_moment_norm": 19.465096439, 
			 "total_energy": -916.129261079, 
			 "HOMO_LUMO_gap": 0.23659, 
			 "cosmo_polarized_energy": -19.95, 
			 "cosmo_cavitation_energy": 25.01, 
			 "cosmo_dispersion_energy": -17.77, 
			 "cosmo_repulsion_energy": 1.49, 
			 "cosmo_total_nonelectrostatic_energy": 8.73, 
			 "SMD_solvation_energy": 5.15 
		},
		"coords": [
			{
				"x": -1.7162369006,
				"y": -2.053098283,
				"z": -0.3352635402,
				"element": "C" 
			},
			{
				"x": -2.0197209997,
				"y": -0.8008530182,
				"z": -1.1660015804,
				"element": "C" 
			},
			{
				"x": -2.7135535011,
				"y": 0.25914772,
				"z": -0.4375161503,
				"element": "N" 
			},
			{
				"x": -2.2244088961,
				"y": 1.0662232546,
				"z": 0.5691174797,
				"element": "C" 
			},
			{
				"x": -2.9451592596,
				"y": 1.6892929128,
				"z": 1.3208819136,
				"element": "O" 
			},
			{
				"x": -0.808734949,
				"y": 1.1301077681,
				"z": 0.601078813,
				"element": "N" 
			},
			{
				"x": -0.0525146068,
				"y": 1.8029169871,
				"z": 1.5374368129,
				"element": "C" 
			},
			{
				"x": -0.4542199295,
				"y": 2.392176763,
				"z": 2.516481232,
				"element": "O" 
			},
			{
				"x": 1.4688331456,
				"y": 1.8003641986,
				"z": 1.3103585688,
				"element": "C" 
			},
			{
				"x": 2.107286435,
				"y": 0.8487986437,
				"z": -0.1036244352,
				"element": "Cl" 
			},
			{
				"x": -1.0654840367,
				"y": -1.8173575159,
				"z": 0.5120141181,
				"element": "H" 
			},
			{
				"x": -2.638991419,
				"y": -2.489594524,
				"z": 0.0590958026,
				"element": "H" 
			},
			{
				"x": -1.2154778124,
				"y": -2.808248901,
				"z": -0.9500554112,
				"element": "H" 
			},
			{
				"x": -2.6555556707,
				"y": -1.0600343865,
				"z": -2.0182157022,
				"element": "H" 
			},
			{
				"x": -1.0991112122,
				"y": -0.4009063304,
				"z": -1.609312926,
				"element": "H" 
			},
			{
				"x": -3.7206667081,
				"y": 0.1926277651,
				"z": -0.3796232707,
				"element": "H" 
			},
			{
				"x": -0.2883070678,
				"y": 0.689125613,
				"z": -0.1452899174,
				"element": "H" 
			},
			{
				"x": 1.7919530814,
				"y": 2.8321876596,
				"z": 1.1701059178,
				"element": "H" 
			},
			{
				"x": 1.9429703072,
				"y": 1.3991236734,
				"z": 2.2056322752,
				"element": "H" 
			}
		],
		 "valence_orbital": [ 
			{
				"type": "occ",
				"energy": -0.32204,
				"method": "rhf"
			},
			{
				"type": "occ",
				"energy": -0.28862,
				"method": "rhf"
			},
			{
				"type": "occ",
				"energy": -0.28447,
				"method": "rhf"
			},
			{
				"type": "occ",
				"energy": -0.26216,
				"method": "rhf"
			},
			{
				"type": "occ",
				"energy": -0.25305,
				"method": "rhf"
			},
			{
				"type": "unocc",
				"energy": -0.01646,
				"method": "rhf"
			},
			{
				"type": "unocc",
				"energy": 0.00341,
				"method": "rhf"
			},
			{
				"type": "unocc",
				"energy": 0.05695,
				"method": "rhf"
			},
			{
				"type": "unocc",
				"energy": 0.06861,
				"method": "rhf"
			},
			{
				"type": "unocc",
				"energy": 0.08438,
				"method": "rhf"
			}
		],
		"cosmo_sigma_profile": { 
			"-0.025": 0.0,
			"-0.024": 0.0,
			"-0.023": 0.0,
			"-0.022": 0.0,
			"-0.021": 0.0,
			"-0.02": 0.0,
			"-0.019": 0.0,
			"-0.018": 0.0,
			"-0.017": 0.0,
			"-0.016": 0.0,
			"-0.015": 0.0,
			"-0.014": 0.72267813029,
			"-0.013": 1.00514482974,
			"-0.012": 1.34629835794,
			"-0.011": 1.4723513931,
			"-0.01": 3.56397968688,
			"-0.009": 7.50086237744,
			"-0.008": 6.19998839165,
			"-0.007": 6.85996459157,
			"-0.006": 11.1543083397,
			"-0.005": 10.8875357895,
			"-0.004": 14.9633809635,
			"-0.003": 17.6161091222,
			"-0.002": 13.7072314825,
			"-0.001": 13.539217657,
			"0.0": 13.5901547142,
			"0.001": 9.34819293159,
			"0.002": 6.42367432129,
			"0.003": 7.40563469965,
			"0.004": 6.98995972916,
			"0.005": 8.6440116205,
			"0.006": 3.18322220385,
			"0.007": 2.01330459425,
			"0.008": 1.88677134145,
			"0.009": 2.40639517309,
			"0.01": 2.71210143679,
			"0.011": 4.93065785925,
			"0.012": 6.20223607048,
			"0.013": 6.21086578287,
			"0.014": 3.16233046315,
			"0.015": 1.66718663084,
			"0.016": 1.34472200761,
			"0.017": 0.927896011775,
			"0.018": 0.0714722523678,
			"0.019": 0.0,
			"0.02": 0.0,
			"0.021": 0.0,
			"0.022": 0.0,
			"0.023": 0.0,
			"0.024": 0.0,
			"0.025": 0.0
		}
	}
}
