{
	 "smiles": "CC1=NC(=CS1)C1=CC(=CO1)C(O)=O", 
	 "Tm": 460.15, 
	 "num_atms": 21, 
	 "gaussian": { 
		 "optdone": 1, 
		 "sigma_profile": "yes", 
		 "theory": "DFT", 
		 "functional": "B3LYP", 
		 "basiset": "6-31G**", 
		 "properties": { 
			 "R2extent": 4462.8495, 
			 "electric_dipole_moment_norm": 4.52235172228, 
			 "electric_quadrupole_moment_norm": 19.7541976699, 
			 "total_energy": -1025.7651566, 
			 "HOMO_LUMO_gap": 0.17365, 
			 "cosmo_polarized_energy": -18.99, 
			 "cosmo_cavitation_energy": 28.68, 
			 "cosmo_dispersion_energy": -21.56, 
			 "cosmo_repulsion_energy": 1.64, 
			 "cosmo_total_nonelectrostatic_energy": 8.76, 
			 "SMD_solvation_energy": 5.5 
		},
		"coords": [
			{
				"x": 0.275551131,
				"y": -1.9267846127,
				"z": -4.2608046931,
				"element": "C" 
			},
			{
				"x": 0.7652079582,
				"y": -1.4036282826,
				"z": -2.9452657458,
				"element": "C" 
			},
			{
				"x": -0.0005918554,
				"y": -1.1500144497,
				"z": -1.9271283424,
				"element": "N" 
			},
			{
				"x": 0.7230173356,
				"y": -0.6777468849,
				"z": -0.8466117199,
				"element": "C" 
			},
			{
				"x": 2.0765891196,
				"y": -0.5697959506,
				"z": -1.0504187713,
				"element": "C" 
			},
			{
				"x": 2.4765308148,
				"y": -1.0756212595,
				"z": -2.6535107949,
				"element": "S" 
			},
			{
				"x": 0.0352610078,
				"y": -0.3378049004,
				"z": 0.3900160297,
				"element": "C" 
			},
			{
				"x": 0.4548256809,
				"y": 0.1394068269,
				"z": 1.599830677,
				"element": "C" 
			},
			{
				"x": -0.7127854308,
				"y": 0.2701197863,
				"z": 2.4191612734,
				"element": "C" 
			},
			{
				"x": -1.762679958,
				"y": -0.1412520315,
				"z": 1.6380774528,
				"element": "C" 
			},
			{
				"x": -1.3288203783,
				"y": -0.5101269935,
				"z": 0.414347169,
				"element": "O" 
			},
			{
				"x": -0.6863054804,
				"y": 0.7602596998,
				"z": 3.8157556655,
				"element": "C" 
			},
			{
				"x": -1.8752303512,
				"y": 0.8314349632,
				"z": 4.4759388059,
				"element": "O" 
			},
			{
				"x": 0.3328646258,
				"y": 1.0905827962,
				"z": 4.3748386994,
				"element": "O" 
			},
			{
				"x": 0.5090653407,
				"y": -1.2373672142,
				"z": -5.0789012259,
				"element": "H" 
			},
			{
				"x": 0.7278511663,
				"y": -2.8946070847,
				"z": -4.5013294731,
				"element": "H" 
			},
			{
				"x": -0.8072669623,
				"y": -2.0491338703,
				"z": -4.2016934539,
				"element": "H" 
			},
			{
				"x": 2.83656863,
				"y": -0.2295086939,
				"z": -0.3621183417,
				"element": "H" 
			},
			{
				"x": 1.4607452911,
				"y": 0.3801633456,
				"z": 1.9081268694,
				"element": "H" 
			},
			{
				"x": -2.82869541,
				"y": -0.2285760132,
				"z": 1.7926687435,
				"element": "H" 
			},
			{
				"x": -2.6046022756,
				"y": 0.5378008238,
				"z": 3.9137211767,
				"element": "H" 
			}
		],
		 "valence_orbital": [ 
			{
				"type": "occ",
				"energy": -0.29386,
				"method": "rhf"
			},
			{
				"type": "occ",
				"energy": -0.28265,
				"method": "rhf"
			},
			{
				"type": "occ",
				"energy": -0.28089,
				"method": "rhf"
			},
			{
				"type": "occ",
				"energy": -0.27532,
				"method": "rhf"
			},
			{
				"type": "occ",
				"energy": -0.22065,
				"method": "rhf"
			},
			{
				"type": "unocc",
				"energy": -0.047,
				"method": "rhf"
			},
			{
				"type": "unocc",
				"energy": -0.03552,
				"method": "rhf"
			},
			{
				"type": "unocc",
				"energy": -0.00366,
				"method": "rhf"
			},
			{
				"type": "unocc",
				"energy": 0.00776,
				"method": "rhf"
			},
			{
				"type": "unocc",
				"energy": 0.04596,
				"method": "rhf"
			}
		],
		"cosmo_sigma_profile": { 
			"-0.025": 0.0,
			"-0.024": 0.0,
			"-0.023": 0.0,
			"-0.022": 0.0,
			"-0.021": 0.0,
			"-0.02": 0.184916831832,
			"-0.019": 1.1702548862,
			"-0.018": 1.35914894043,
			"-0.017": 1.00376368499,
			"-0.016": 1.13214282892,
			"-0.015": 0.846632918482,
			"-0.014": 1.25831281509,
			"-0.013": 1.28779792331,
			"-0.012": 1.49526900643,
			"-0.011": 2.25884751289,
			"-0.01": 1.4827532355,
			"-0.009": 5.5784421966,
			"-0.008": 4.73152495188,
			"-0.007": 5.36016043197,
			"-0.006": 8.98820949629,
			"-0.005": 12.215540858,
			"-0.004": 11.7163265396,
			"-0.003": 13.5835914629,
			"-0.002": 14.0684519822,
			"-0.001": 14.4432286434,
			"0.0": 19.0086040499,
			"0.001": 22.1714658705,
			"0.002": 23.2122850877,
			"0.003": 13.3570906265,
			"0.004": 4.87310479048,
			"0.005": 4.97805976101,
			"0.006": 4.0299649953,
			"0.007": 4.18334753943,
			"0.008": 4.24374614901,
			"0.009": 4.95669920686,
			"0.01": 6.41508591716,
			"0.011": 6.6404501776,
			"0.012": 6.11768472697,
			"0.013": 2.98825596426,
			"0.014": 0.794602312942,
			"0.015": 0.698294393117,
			"0.016": 0.0238287674345,
			"0.017": 0.0,
			"0.018": 0.0,
			"0.019": 0.0,
			"0.02": 0.0,
			"0.021": 0.0,
			"0.022": 0.0,
			"0.023": 0.0,
			"0.024": 0.0,
			"0.025": 0.0
		}
	}
}
