{
	 "smiles": "CC(O)C1=CC(NC(=O)CC2=CC=C(C)C=C2)=CC=C1", 
	 "Tm": 395.15, 
	 "num_atms": 39, 
	 "gaussian": { 
		 "optdone": 1, 
		 "sigma_profile": "yes", 
		 "theory": "DFT", 
		 "functional": "B3LYP", 
		 "basiset": "6-31G**", 
		 "properties": { 
			 "R2extent": 7655.3889, 
			 "electric_dipole_moment_norm": 3.12155388709, 
			 "electric_quadrupole_moment_norm": 16.1447741393, 
			 "total_energy": -864.493343801, 
			 "HOMO_LUMO_gap": 0.19956, 
			 "cosmo_polarized_energy": -15.2, 
			 "cosmo_cavitation_energy": 42.59, 
			 "cosmo_dispersion_energy": -29.17, 
			 "cosmo_repulsion_energy": 2.29, 
			 "cosmo_total_nonelectrostatic_energy": 15.71, 
			 "SMD_solvation_energy": 7.5 
		},
		"coords": [
			{
				"x": -3.9594106211,
				"y": -0.6648723437,
				"z": 1.7363060191,
				"element": "C" 
			},
			{
				"x": -3.6185949327,
				"y": 0.2931530434,
				"z": 0.5938901943,
				"element": "C" 
			},
			{
				"x": -3.5703150547,
				"y": -0.5031915726,
				"z": -0.5900219635,
				"element": "O" 
			},
			{
				"x": -2.3142769414,
				"y": 1.0393196457,
				"z": 0.8404079027,
				"element": "C" 
			},
			{
				"x": -1.1015200842,
				"y": 0.4815869094,
				"z": 0.4338446933,
				"element": "C" 
			},
			{
				"x": 0.1150451255,
				"y": 1.1365473211,
				"z": 0.68047657,
				"element": "C" 
			},
			{
				"x": 1.2894755256,
				"y": 0.4957846751,
				"z": 0.2334721656,
				"element": "N" 
			},
			{
				"x": 2.5910651337,
				"y": 0.9184885382,
				"z": 0.3275662521,
				"element": "C" 
			},
			{
				"x": 2.9484708623,
				"y": 1.9721857405,
				"z": 0.8359946461,
				"element": "O" 
			},
			{
				"x": 3.6437194263,
				"y": -0.0556920751,
				"z": -0.2425916571,
				"element": "C" 
			},
			{
				"x": 3.1560070216,
				"y": -1.2421718689,
				"z": -1.0410817289,
				"element": "C" 
			},
			{
				"x": 2.9239773784,
				"y": -1.1375654118,
				"z": -2.4210562861,
				"element": "C" 
			},
			{
				"x": 2.4513507479,
				"y": -2.2244195243,
				"z": -3.1540911357,
				"element": "C" 
			},
			{
				"x": 2.1917902324,
				"y": -3.457181749,
				"z": -2.5385164697,
				"element": "C" 
			},
			{
				"x": 1.7115150545,
				"y": -4.642268452,
				"z": -3.3423889732,
				"element": "C" 
			},
			{
				"x": 2.4182127223,
				"y": -3.5602196794,
				"z": -1.1603159293,
				"element": "C" 
			},
			{
				"x": 2.8931317689,
				"y": -2.4739473777,
				"z": -0.4242888596,
				"element": "C" 
			},
			{
				"x": 0.1164896977,
				"y": 2.3723567978,
				"z": 1.3457727502,
				"element": "C" 
			},
			{
				"x": -1.1005385842,
				"y": 2.9243600397,
				"z": 1.7462315886,
				"element": "C" 
			},
			{
				"x": -2.3092635414,
				"y": 2.2751193847,
				"z": 1.4981179953,
				"element": "C" 
			},
			{
				"x": -4.0603755743,
				"y": -0.1203111843,
				"z": 2.6791625281,
				"element": "H" 
			},
			{
				"x": -3.1671962985,
				"y": -1.4109945963,
				"z": 1.8489766822,
				"element": "H" 
			},
			{
				"x": -4.8989049401,
				"y": -1.1827595637,
				"z": 1.5221195223,
				"element": "H" 
			},
			{
				"x": -4.4273220415,
				"y": 1.0383459414,
				"z": 0.5132751326,
				"element": "H" 
			},
			{
				"x": -3.3275150313,
				"y": 0.0793541054,
				"z": -1.322219954,
				"element": "H" 
			},
			{
				"x": -1.1139802685,
				"y": -0.4728150277,
				"z": -0.0870616608,
				"element": "H" 
			},
			{
				"x": 1.1512963717,
				"y": -0.395597972,
				"z": -0.2241595966,
				"element": "H" 
			},
			{
				"x": 4.3161542985,
				"y": 0.5677665272,
				"z": -0.8400468245,
				"element": "H" 
			},
			{
				"x": 4.2309419987,
				"y": -0.3895299398,
				"z": 0.6207895052,
				"element": "H" 
			},
			{
				"x": 3.117593718,
				"y": -0.1935882458,
				"z": -2.9249827222,
				"element": "H" 
			},
			{
				"x": 2.2822990211,
				"y": -2.1150383953,
				"z": -4.2226735261,
				"element": "H" 
			},
			{
				"x": 1.0613890721,
				"y": -4.330936061,
				"z": -4.1657737577,
				"element": "H" 
			},
			{
				"x": 1.1554851758,
				"y": -5.3495548008,
				"z": -2.7201842413,
				"element": "H" 
			},
			{
				"x": 2.5545353009,
				"y": -5.1884879368,
				"z": -3.7838592496,
				"element": "H" 
			},
			{
				"x": 2.2244623449,
				"y": -4.503561758,
				"z": -0.6556527685,
				"element": "H" 
			},
			{
				"x": 3.0659765159,
				"y": -2.5850082431,
				"z": 0.6437290883,
				"element": "H" 
			},
			{
				"x": 1.0543956176,
				"y": 2.8761080216,
				"z": 1.5303689999,
				"element": "H" 
			},
			{
				"x": -1.0991324325,
				"y": 3.8846160779,
				"z": 2.2546225532,
				"element": "H" 
			},
			{
				"x": -3.247833786,
				"y": 2.7269210099,
				"z": 1.8098425154,
				"element": "H" 
			}
		],
		 "valence_orbital": [ 
			{
				"type": "occ",
				"energy": -0.2627,
				"method": "rhf"
			},
			{
				"type": "occ",
				"energy": -0.26025,
				"method": "rhf"
			},
			{
				"type": "occ",
				"energy": -0.2413,
				"method": "rhf"
			},
			{
				"type": "occ",
				"energy": -0.23457,
				"method": "rhf"
			},
			{
				"type": "occ",
				"energy": -0.21628,
				"method": "rhf"
			},
			{
				"type": "unocc",
				"energy": -0.01672,
				"method": "rhf"
			},
			{
				"type": "unocc",
				"energy": -0.01331,
				"method": "rhf"
			},
			{
				"type": "unocc",
				"energy": -0.00567,
				"method": "rhf"
			},
			{
				"type": "unocc",
				"energy": 0.00034,
				"method": "rhf"
			},
			{
				"type": "unocc",
				"energy": 0.04812,
				"method": "rhf"
			}
		],
		"cosmo_sigma_profile": { 
			"-0.025": 0.0,
			"-0.024": 0.0,
			"-0.023": 0.0,
			"-0.022": 0.0,
			"-0.021": 0.0,
			"-0.02": 0.0,
			"-0.019": 0.0,
			"-0.018": 0.0,
			"-0.017": 0.0,
			"-0.016": 0.0180110177548,
			"-0.015": 0.691356010865,
			"-0.014": 1.00114022944,
			"-0.013": 0.745881738242,
			"-0.012": 1.12763758909,
			"-0.011": 1.40334940201,
			"-0.01": 1.92568134023,
			"-0.009": 2.26799096021,
			"-0.008": 1.38223575335,
			"-0.007": 2.38796177652,
			"-0.006": 12.028785051,
			"-0.005": 23.163526925,
			"-0.004": 31.1622754376,
			"-0.003": 35.6366210265,
			"-0.002": 28.0873134688,
			"-0.001": 29.5353146719,
			"0.0": 29.7493658566,
			"0.001": 23.5320478938,
			"0.002": 18.2621510771,
			"0.003": 18.1872136127,
			"0.004": 19.4720928394,
			"0.005": 18.1877269816,
			"0.006": 10.7167249681,
			"0.007": 2.87349425064,
			"0.008": 2.10164198105,
			"0.009": 2.63535087952,
			"0.01": 3.55398657494,
			"0.011": 2.91154800844,
			"0.012": 3.62917080336,
			"0.013": 4.37846120534,
			"0.014": 3.7204751223,
			"0.015": 0.206245818662,
			"0.016": 0.0,
			"0.017": 0.0,
			"0.018": 0.0,
			"0.019": 0.0,
			"0.02": 0.0,
			"0.021": 0.0,
			"0.022": 0.0,
			"0.023": 0.0,
			"0.024": 0.0,
			"0.025": 0.0
		}
	}
}
