{
	 "smiles": "O=S1(=O)CCN(CN2CCS(=O)(=O)NC2)CN1", 
	 "Tm": 427.15, 
	 "num_atms": 33, 
	 "gaussian": { 
		 "optdone": 1, 
		 "sigma_profile": "yes", 
		 "theory": "DFT", 
		 "functional": "B3LYP", 
		 "basiset": "6-31G**", 
		 "properties": { 
			 "R2extent": 7854.9334, 
			 "electric_dipole_moment_norm": 2.68328356124, 
			 "electric_quadrupole_moment_norm": 51.4608636979, 
			 "total_energy": -1592.49632304, 
			 "HOMO_LUMO_gap": 0.28537, 
			 "cosmo_polarized_energy": -34.3, 
			 "cosmo_cavitation_energy": 36.24, 
			 "cosmo_dispersion_energy": -27.3, 
			 "cosmo_repulsion_energy": 1.99, 
			 "cosmo_total_nonelectrostatic_energy": 10.93, 
			 "SMD_solvation_energy": -0.11 
		},
		"coords": [
			{
				"x": -3.3047568116,
				"y": 2.8880304127,
				"z": -0.9637883095,
				"element": "O" 
			},
			{
				"x": -2.3000966679,
				"y": 2.7611091324,
				"z": -2.0165210356,
				"element": "S" 
			},
			{
				"x": -2.2745066357,
				"y": 3.6570939315,
				"z": -3.1752966774,
				"element": "O" 
			},
			{
				"x": -2.2979600702,
				"y": 1.0219198102,
				"z": -2.5818770042,
				"element": "C" 
			},
			{
				"x": -0.8429882725,
				"y": 0.5802722746,
				"z": -2.8078679096,
				"element": "C" 
			},
			{
				"x": -0.0145310753,
				"y": 0.5595559495,
				"z": -1.5965424564,
				"element": "N" 
			},
			{
				"x": 0.0507346643,
				"y": -0.7160837797,
				"z": -0.9005174828,
				"element": "C" 
			},
			{
				"x": 1.2100854863,
				"y": -0.736354982,
				"z": -0.0138825268,
				"element": "N" 
			},
			{
				"x": 2.5062946656,
				"y": -0.7421547727,
				"z": -0.6960303095,
				"element": "C" 
			},
			{
				"x": 2.9076205806,
				"y": -2.1126257115,
				"z": -1.2931119235,
				"element": "C" 
			},
			{
				"x": 2.8864981711,
				"y": -3.3891741979,
				"z": -0.002663296,
				"element": "S" 
			},
			{
				"x": 2.8071500079,
				"y": -4.7133511034,
				"z": -0.6179328536,
				"element": "O" 
			},
			{
				"x": 3.9216821984,
				"y": -3.0335410523,
				"z": 0.9687210139,
				"element": "O" 
			},
			{
				"x": 1.3931991386,
				"y": -3.1045975448,
				"z": 0.7362391584,
				"element": "N" 
			},
			{
				"x": 1.1525900723,
				"y": -1.6835025653,
				"z": 1.0838561545,
				"element": "C" 
			},
			{
				"x": -0.2839712728,
				"y": 1.6774075164,
				"z": -0.6581195112,
				"element": "C" 
			},
			{
				"x": -0.7546348936,
				"y": 2.8793949606,
				"z": -1.3197450742,
				"element": "N" 
			},
			{
				"x": -2.8076523739,
				"y": 0.435247382,
				"z": -1.8142965117,
				"element": "H" 
			},
			{
				"x": -2.8844238175,
				"y": 1.0022045687,
				"z": -3.5040898047,
				"element": "H" 
			},
			{
				"x": -0.3931895945,
				"y": 1.2490601184,
				"z": -3.5519689064,
				"element": "H" 
			},
			{
				"x": -0.833377693,
				"y": -0.4189466878,
				"z": -3.2528761218,
				"element": "H" 
			},
			{
				"x": 0.0658755526,
				"y": -1.5086214635,
				"z": -1.6683625701,
				"element": "H" 
			},
			{
				"x": -0.8334626469,
				"y": -0.9022311844,
				"z": -0.2603469983,
				"element": "H" 
			},
			{
				"x": 3.2752886947,
				"y": -0.4342608741,
				"z": 0.0198628011,
				"element": "H" 
			},
			{
				"x": 2.471638567,
				"y": 0.0000837482,
				"z": -1.4975664523,
				"element": "H" 
			},
			{
				"x": 2.2240017949,
				"y": -2.4499104511,
				"z": -2.0770137914,
				"element": "H" 
			},
			{
				"x": 3.9226072324,
				"y": -2.0889710716,
				"z": -1.6987205688,
				"element": "H" 
			},
			{
				"x": 0.6537687003,
				"y": -3.5503006955,
				"z": 0.1982095375,
				"element": "H" 
			},
			{
				"x": 0.1752163415,
				"y": -1.6283460881,
				"z": 1.5699780448,
				"element": "H" 
			},
			{
				"x": 1.9185768231,
				"y": -1.417835605,
				"z": 1.8168467498,
				"element": "H" 
			},
			{
				"x": -1.0464189564,
				"y": 1.3958803888,
				"z": 0.0865406119,
				"element": "H" 
			},
			{
				"x": 0.6272192846,
				"y": 1.9118858114,
				"z": -0.1053097382,
				"element": "H" 
			},
			{
				"x": -0.1077771945,
				"y": 3.2868638252,
				"z": -1.9894062377,
				"element": "H" 
			}
		],
		 "valence_orbital": [ 
			{
				"type": "occ",
				"energy": -0.30908,
				"method": "rhf"
			},
			{
				"type": "occ",
				"energy": -0.29587,
				"method": "rhf"
			},
			{
				"type": "occ",
				"energy": -0.29107,
				"method": "rhf"
			},
			{
				"type": "occ",
				"energy": -0.257,
				"method": "rhf"
			},
			{
				"type": "occ",
				"energy": -0.25466,
				"method": "rhf"
			},
			{
				"type": "unocc",
				"energy": 0.03071,
				"method": "rhf"
			},
			{
				"type": "unocc",
				"energy": 0.0364,
				"method": "rhf"
			},
			{
				"type": "unocc",
				"energy": 0.05321,
				"method": "rhf"
			},
			{
				"type": "unocc",
				"energy": 0.05579,
				"method": "rhf"
			},
			{
				"type": "unocc",
				"energy": 0.06224,
				"method": "rhf"
			}
		],
		"cosmo_sigma_profile": { 
			"-0.025": 0.0,
			"-0.024": 0.0,
			"-0.023": 0.0,
			"-0.022": 0.0,
			"-0.021": 0.0,
			"-0.02": 0.0,
			"-0.019": 0.0,
			"-0.018": 0.0,
			"-0.017": 0.0,
			"-0.016": 0.0,
			"-0.015": 0.527094508452,
			"-0.014": 2.18335447782,
			"-0.013": 2.62158050091,
			"-0.012": 2.56725888081,
			"-0.011": 3.65808240662,
			"-0.01": 3.19814465964,
			"-0.009": 4.37144489741,
			"-0.008": 13.1063818691,
			"-0.007": 19.9028074927,
			"-0.006": 22.4672488714,
			"-0.005": 27.6656500088,
			"-0.004": 22.6774536481,
			"-0.003": 14.3175057662,
			"-0.002": 10.9173968592,
			"-0.001": 8.3017111929,
			"0.0": 7.69799433783,
			"0.001": 7.54416043118,
			"0.002": 6.64894490128,
			"0.003": 7.76433991677,
			"0.004": 6.90070518059,
			"0.005": 6.46402135343,
			"0.006": 6.95101982388,
			"0.007": 7.33232731987,
			"0.008": 8.85983934296,
			"0.009": 7.44629568695,
			"0.01": 13.8405805244,
			"0.011": 25.0961851765,
			"0.012": 11.939473819,
			"0.013": 0.165385962259,
			"0.014": 0.0,
			"0.015": 0.0,
			"0.016": 0.0,
			"0.017": 0.0,
			"0.018": 0.0,
			"0.019": 0.0,
			"0.02": 0.0,
			"0.021": 0.0,
			"0.022": 0.0,
			"0.023": 0.0,
			"0.024": 0.0,
			"0.025": 0.0
		}
	}
}
