{
	 "smiles": "CC1(C)C2CCC1(C)C(C=C2)=NO", 
	 "Tm": 419.15, 
	 "num_atms": 30, 
	 "gaussian": { 
		 "optdone": 1, 
		 "sigma_profile": "yes", 
		 "theory": "DFT", 
		 "functional": "B3LYP", 
		 "basiset": "6-31G**", 
		 "properties": { 
			 "R2extent": 2353.3252, 
			 "electric_dipole_moment_norm": 1.05657742736, 
			 "electric_quadrupole_moment_norm": 3.54761321877, 
			 "total_energy": -559.328467386, 
			 "HOMO_LUMO_gap": 0.19092, 
			 "cosmo_polarized_energy": -7.23, 
			 "cosmo_cavitation_energy": 28.67, 
			 "cosmo_dispersion_energy": -20.94, 
			 "cosmo_repulsion_energy": 1.63, 
			 "cosmo_total_nonelectrostatic_energy": 9.37, 
			 "SMD_solvation_energy": 4.82 
		},
		"coords": [
			{
				"x": 1.9827382871,
				"y": 0.8336356619,
				"z": 0.405082575,
				"element": "C" 
			},
			{
				"x": 0.4568734011,
				"y": 0.88676419,
				"z": 0.1759952736,
				"element": "C" 
			},
			{
				"x": 0.0503605116,
				"y": 2.3705691794,
				"z": 0.1925973085,
				"element": "C" 
			},
			{
				"x": -0.2781233932,
				"y": 0.0127563213,
				"z": 1.2397516681,
				"element": "C" 
			},
			{
				"x": 0.1395614625,
				"y": -1.4362333299,
				"z": 0.8503946999,
				"element": "C" 
			},
			{
				"x": 0.2415969936,
				"y": -1.3925383025,
				"z": -0.6997952802,
				"element": "C" 
			},
			{
				"x": 0.0263104725,
				"y": 0.1047715356,
				"z": -1.1261445724,
				"element": "C" 
			},
			{
				"x": 0.8192305911,
				"y": 0.4620875821,
				"z": -2.3866092036,
				"element": "C" 
			},
			{
				"x": -1.4805582866,
				"y": 0.3152765009,
				"z": -1.3260014914,
				"element": "C" 
			},
			{
				"x": -2.3350910457,
				"y": 0.2332575079,
				"z": -0.13841884,
				"element": "C" 
			},
			{
				"x": -1.7754172039,
				"y": 0.119312212,
				"z": 1.0775086677,
				"element": "C" 
			},
			{
				"x": -1.8996304408,
				"y": 0.5153311213,
				"z": -2.5284180852,
				"element": "N" 
			},
			{
				"x": -3.3040298784,
				"y": 0.6437593635,
				"z": -2.590196861,
				"element": "O" 
			},
			{
				"x": 2.2174681286,
				"y": 1.1818803788,
				"z": 1.4176121462,
				"element": "H" 
			},
			{
				"x": 2.5060285644,
				"y": 1.4930261116,
				"z": -0.2937587302,
				"element": "H" 
			},
			{
				"x": 2.4077978303,
				"y": -0.1666750361,
				"z": 0.2933020583,
				"element": "H" 
			},
			{
				"x": 0.543174337,
				"y": 2.9116983026,
				"z": -0.6222284562,
				"element": "H" 
			},
			{
				"x": -1.0251942903,
				"y": 2.521219251,
				"z": 0.0931970462,
				"element": "H" 
			},
			{
				"x": 0.36895086,
				"y": 2.8386908094,
				"z": 1.1313074,
				"element": "H" 
			},
			{
				"x": 0.0190849677,
				"y": 0.2682443574,
				"z": 2.2628947602,
				"element": "H" 
			},
			{
				"x": 1.1007535468,
				"y": -1.6945129645,
				"z": 1.3058864938,
				"element": "H" 
			},
			{
				"x": -0.5882330554,
				"y": -2.1727802388,
				"z": 1.2015765409,
				"element": "H" 
			},
			{
				"x": 1.2281421887,
				"y": -1.7293768588,
				"z": -1.0336520775,
				"element": "H" 
			},
			{
				"x": -0.4907702602,
				"y": -2.0428471846,
				"z": -1.1856333924,
				"element": "H" 
			},
			{
				"x": 0.6905764551,
				"y": 1.5135928063,
				"z": -2.6593885355,
				"element": "H" 
			},
			{
				"x": 0.4771639856,
				"y": -0.1318406847,
				"z": -3.2373417451,
				"element": "H" 
			},
			{
				"x": 1.8850870144,
				"y": 0.267353466,
				"z": -2.2390261639,
				"element": "H" 
			},
			{
				"x": -3.4080160014,
				"y": 0.2883089149,
				"z": -0.2766678098,
				"element": "H" 
			},
			{
				"x": -2.4010340512,
				"y": 0.0496336788,
				"z": 1.9650152025,
				"element": "H" 
			},
			{
				"x": -3.4457016909,
				"y": 0.7802353469,
				"z": -3.5354405963,
				"element": "H" 
			}
		],
		 "valence_orbital": [ 
			{
				"type": "occ",
				"energy": -0.30719,
				"method": "rhf"
			},
			{
				"type": "occ",
				"energy": -0.2956,
				"method": "rhf"
			},
			{
				"type": "occ",
				"energy": -0.27891,
				"method": "rhf"
			},
			{
				"type": "occ",
				"energy": -0.25779,
				"method": "rhf"
			},
			{
				"type": "occ",
				"energy": -0.21793,
				"method": "rhf"
			},
			{
				"type": "unocc",
				"energy": -0.02701,
				"method": "rhf"
			},
			{
				"type": "unocc",
				"energy": 0.07656,
				"method": "rhf"
			},
			{
				"type": "unocc",
				"energy": 0.07762,
				"method": "rhf"
			},
			{
				"type": "unocc",
				"energy": 0.08583,
				"method": "rhf"
			},
			{
				"type": "unocc",
				"energy": 0.10724,
				"method": "rhf"
			}
		],
		"cosmo_sigma_profile": { 
			"-0.025": 0.0,
			"-0.024": 0.0,
			"-0.023": 0.0,
			"-0.022": 0.0,
			"-0.021": 0.0,
			"-0.02": 0.0,
			"-0.019": 0.0,
			"-0.018": 0.0,
			"-0.017": 0.346731882258,
			"-0.016": 0.780341379135,
			"-0.015": 1.15046454002,
			"-0.014": 0.585730923441,
			"-0.013": 1.00904021002,
			"-0.012": 0.634110326266,
			"-0.011": 0.548244345381,
			"-0.01": 0.485959772558,
			"-0.009": 0.345685452059,
			"-0.008": 0.596253096932,
			"-0.007": 0.94113583927,
			"-0.006": 1.98603211961,
			"-0.005": 3.24283050923,
			"-0.004": 6.34478151936,
			"-0.003": 23.1592673271,
			"-0.002": 34.4425938195,
			"-0.001": 31.2935768428,
			"0.0": 27.8499597755,
			"0.001": 31.5721228861,
			"0.002": 15.5925160048,
			"0.003": 7.30990160281,
			"0.004": 5.0498908999,
			"0.005": 3.60961967693,
			"0.006": 4.11807402545,
			"0.007": 4.64502066901,
			"0.008": 3.56433803544,
			"0.009": 3.64701813642,
			"0.01": 3.73165279602,
			"0.011": 2.05452400878,
			"0.012": 0.468118522529,
			"0.013": 0.5233606652,
			"0.014": 0.00084570224979,
			"0.015": 0.0,
			"0.016": 0.0,
			"0.017": 0.0,
			"0.018": 0.0,
			"0.019": 0.0,
			"0.02": 0.0,
			"0.021": 0.0,
			"0.022": 0.0,
			"0.023": 0.0,
			"0.024": 0.0,
			"0.025": 0.0
		}
	}
}
