{
	 "smiles": "FC1=CC(Br)=C2NC(=O)C(=O)C2=C1", 
	 "Tm": 489.15, 
	 "num_atms": 16, 
	 "gaussian": { 
		 "optdone": 1, 
		 "sigma_profile": "yes", 
		 "theory": "DFT", 
		 "functional": "B3LYP", 
		 "basiset": "6-31G**", 
		 "properties": { 
			 "R2extent": 3694.9841, 
			 "electric_dipole_moment_norm": 4.21242428063, 
			 "electric_quadrupole_moment_norm": 11.6953487545, 
			 "total_energy": -3183.09071721, 
			 "HOMO_LUMO_gap": 0.1338, 
			 "cosmo_polarized_energy": -12.67, 
			 "cosmo_cavitation_energy": 24.76, 
			 "cosmo_dispersion_energy": -18.42, 
			 "cosmo_repulsion_energy": 1.42, 
			 "cosmo_total_nonelectrostatic_energy": 7.76, 
			 "SMD_solvation_energy": 4.98 
		},
		"coords": [
			{
				"x": -1.6567261661,
				"y": 3.3960342117,
				"z": -1.7204059044,
				"element": "F" 
			},
			{
				"x": -1.2115800979,
				"y": 2.1613236384,
				"z": -1.4207990063,
				"element": "C" 
			},
			{
				"x": -2.0455943449,
				"y": 1.3196016254,
				"z": -0.6853093341,
				"element": "C" 
			},
			{
				"x": -1.616576262,
				"y": 0.0302617779,
				"z": -0.3557291026,
				"element": "C" 
			},
			{
				"x": -2.7342917111,
				"y": -1.1389807459,
				"z": 0.6464961116,
				"element": "Br" 
			},
			{
				"x": -0.3586795662,
				"y": -0.3900633836,
				"z": -0.7704112363,
				"element": "C" 
			},
			{
				"x": 0.2761192029,
				"y": -1.6171192066,
				"z": -0.5626480107,
				"element": "N" 
			},
			{
				"x": 1.538332316,
				"y": -1.6520258754,
				"z": -1.1381363222,
				"element": "C" 
			},
			{
				"x": 2.3242265835,
				"y": -2.569789156,
				"z": -1.12813267,
				"element": "O" 
			},
			{
				"x": 1.7176055705,
				"y": -0.2397178087,
				"z": -1.8020616434,
				"element": "C" 
			},
			{
				"x": 2.6996251575,
				"y": 0.1198011667,
				"z": -2.4090128507,
				"element": "O" 
			},
			{
				"x": 0.4611994693,
				"y": 0.482623871,
				"z": -1.5120342295,
				"element": "C" 
			},
			{
				"x": 0.0524586008,
				"y": 1.7680455402,
				"z": -1.8495176631,
				"element": "C" 
			},
			{
				"x": -3.0211197755,
				"y": 1.6751303685,
				"z": -0.3758566452,
				"element": "H" 
			},
			{
				"x": -0.1344715927,
				"y": -2.3874471659,
				"z": -0.054248087,
				"element": "H" 
			},
			{
				"x": 0.688572616,
				"y": 2.4348211422,
				"z": -2.4206934062,
				"element": "H" 
			}
		],
		 "valence_orbital": [ 
			{
				"type": "occ",
				"energy": -0.32488,
				"method": "rhf"
			},
			{
				"type": "occ",
				"energy": -0.32068,
				"method": "rhf"
			},
			{
				"type": "occ",
				"energy": -0.28387,
				"method": "rhf"
			},
			{
				"type": "occ",
				"energy": -0.26064,
				"method": "rhf"
			},
			{
				"type": "occ",
				"energy": -0.24697,
				"method": "rhf"
			},
			{
				"type": "unocc",
				"energy": -0.11317,
				"method": "rhf"
			},
			{
				"type": "unocc",
				"energy": -0.04086,
				"method": "rhf"
			},
			{
				"type": "unocc",
				"energy": -0.02342,
				"method": "rhf"
			},
			{
				"type": "unocc",
				"energy": -0.00467,
				"method": "rhf"
			},
			{
				"type": "unocc",
				"energy": 0.07273,
				"method": "rhf"
			}
		],
		"cosmo_sigma_profile": { 
			"-0.025": 0.0,
			"-0.024": 0.0,
			"-0.023": 0.0,
			"-0.022": 0.0,
			"-0.021": 0.0,
			"-0.02": 0.0,
			"-0.019": 0.0,
			"-0.018": 0.0,
			"-0.017": 0.160793013691,
			"-0.016": 0.601141907981,
			"-0.015": 0.893256744359,
			"-0.014": 0.654002763751,
			"-0.013": 0.406353918139,
			"-0.012": 1.56057560094,
			"-0.011": 0.789173233117,
			"-0.01": 1.25074670373,
			"-0.009": 4.99613806254,
			"-0.008": 5.35539363943,
			"-0.007": 6.83030201336,
			"-0.006": 5.91236725008,
			"-0.005": 8.14764618964,
			"-0.004": 10.5406761502,
			"-0.003": 12.6389553909,
			"-0.002": 18.8337971694,
			"-0.001": 25.8925650535,
			"0.0": 15.989653279,
			"0.001": 10.522701777,
			"0.002": 10.4202388047,
			"0.003": 16.4405843599,
			"0.004": 10.616362272,
			"0.005": 1.90729622421,
			"0.006": 2.32419277605,
			"0.007": 3.85621176989,
			"0.008": 3.83264698455,
			"0.009": 6.75393078406,
			"0.01": 8.73716503112,
			"0.011": 5.98538002049,
			"0.012": 1.23790645018,
			"0.013": 0.0,
			"0.014": 0.0,
			"0.015": 0.0,
			"0.016": 0.0,
			"0.017": 0.0,
			"0.018": 0.0,
			"0.019": 0.0,
			"0.02": 0.0,
			"0.021": 0.0,
			"0.022": 0.0,
			"0.023": 0.0,
			"0.024": 0.0,
			"0.0": 0.0
		}
	}
}
