{
	 "smiles": "C1=CC2=C(C=C1)C=C1C3=CC=CC=C3C3=CC=CC=C3C1=C2", 
	 "Tm": 479.15, 
	 "num_atms": 36, 
	 "gaussian": { 
		 "optdone": 1, 
		 "sigma_profile": "yes", 
		 "theory": "DFT", 
		 "functional": "B3LYP", 
		 "basiset": "6-31G**", 
		 "properties": { 
			 "R2extent": 7248.7743, 
			 "electric_dipole_moment_norm": 0.0181165670037, 
			 "electric_quadrupole_moment_norm": 17.3545618084, 
			 "total_energy": -846.826280568, 
			 "HOMO_LUMO_gap": 0.14378, 
			 "cosmo_polarized_energy": -8.65, 
			 "cosmo_cavitation_energy": 37.98, 
			 "cosmo_dispersion_energy": -28.61, 
			 "cosmo_repulsion_energy": 2.05, 
			 "cosmo_total_nonelectrostatic_energy": 11.41, 
			 "SMD_solvation_energy": 5.22 
		},
		"coords": [
			{
				"x": 1.0702743935,
				"y": 2.8110113134,
				"z": -4.2389374254,
				"element": "C" 
			},
			{
				"x": 0.8650392565,
				"y": 1.5344373038,
				"z": -3.7739966168,
				"element": "C" 
			},
			{
				"x": 0.264263187,
				"y": 1.3120626349,
				"z": -2.5014152932,
				"element": "C" 
			},
			{
				"x": -0.1238718141,
				"y": 2.4416218013,
				"z": -1.7113175497,
				"element": "C" 
			},
			{
				"x": 0.1031494716,
				"y": 3.751740365,
				"z": -2.2230667891,
				"element": "C" 
			},
			{
				"x": 0.6849874405,
				"y": 3.9322670794,
				"z": -3.4546546314,
				"element": "C" 
			},
			{
				"x": -0.7164759363,
				"y": 2.2104534918,
				"z": -0.4556433457,
				"element": "C" 
			},
			{
				"x": -0.9414552339,
				"y": 0.9332857318,
				"z": 0.0509744474,
				"element": "C" 
			},
			{
				"x": -1.5633280133,
				"y": 0.7229800006,
				"z": 1.3681264695,
				"element": "C" 
			},
			{
				"x": -1.959524231,
				"y": 1.8101575363,
				"z": 2.1769576323,
				"element": "C" 
			},
			{
				"x": -2.5454634921,
				"y": 1.6260221683,
				"z": 3.417818958,
				"element": "C" 
			},
			{
				"x": -2.756641957,
				"y": 0.3276047264,
				"z": 3.8956731119,
				"element": "C" 
			},
			{
				"x": -2.3767530839,
				"y": -0.7554745627,
				"z": 3.12110627,
				"element": "C" 
			},
			{
				"x": -1.7775257526,
				"y": -0.5945199192,
				"z": 1.8528405733,
				"element": "C" 
			},
			{
				"x": -1.3789058008,
				"y": -1.7552284621,
				"z": 1.0408650419,
				"element": "C" 
			},
			{
				"x": -1.5799609838,
				"y": -3.075959216,
				"z": 1.4977413724,
				"element": "C" 
			},
			{
				"x": -1.2097351677,
				"y": -4.1771174042,
				"z": 0.7442704989,
				"element": "C" 
			},
			{
				"x": -0.6174541558,
				"y": -3.9881276204,
				"z": -0.5096512565,
				"element": "C" 
			},
			{
				"x": -0.4096310868,
				"y": -2.7025973581,
				"z": -0.9799498434,
				"element": "C" 
			},
			{
				"x": -0.7779463239,
				"y": -1.5636452704,
				"z": -0.231442549,
				"element": "C" 
			},
			{
				"x": -0.551163312,
				"y": -0.2027641448,
				"z": -0.7436974752,
				"element": "C" 
			},
			{
				"x": 0.0353108134,
				"y": 0.0223060919,
				"z": -1.9862107585,
				"element": "C" 
			},
			{
				"x": 1.529067636,
				"y": 2.97002167,
				"z": -5.2105147444,
				"element": "H" 
			},
			{
				"x": 1.158555594,
				"y": 0.6748431295,
				"z": -4.3714082243,
				"element": "H" 
			},
			{
				"x": -0.1925926799,
				"y": 4.6072126493,
				"z": -1.6208561735,
				"element": "H" 
			},
			{
				"x": 0.8538210078,
				"y": 4.9351865787,
				"z": -3.835947875,
				"element": "H" 
			},
			{
				"x": -0.9997758347,
				"y": 3.0841626863,
				"z": 0.1199916201,
				"element": "H" 
			},
			{
				"x": -1.8070986464,
				"y": 2.824887968,
				"z": 1.8301052066,
				"element": "H" 
			},
			{
				"x": -2.8374165088,
				"y": 2.4866002934,
				"z": 4.0124590661,
				"element": "H" 
			},
			{
				"x": -3.2149787562,
				"y": 0.1654014901,
				"z": 4.8667711676,
				"element": "H" 
			},
			{
				"x": -2.5513147008,
				"y": -1.7494684424,
				"z": 3.5141014008,
				"element": "H" 
			},
			{
				"x": -2.0362490777,
				"y": -3.2498404565,
				"z": 2.4644464422,
				"element": "H" 
			},
			{
				"x": -1.3799506623,
				"y": -5.1786551051,
				"z": 1.1281513335,
				"element": "H" 
			},
			{
				"x": -0.3211268189,
				"y": -4.8407502581,
				"z": -1.1135143896,
				"element": "H" 
			},
			{
				"x": 0.0504104035,
				"y": -2.5833977222,
				"z": -1.9532776861,
				"element": "H" 
			},
			{
				"x": 0.339160827,
				"y": -0.8133207678,
				"z": -2.6061979856,
				"element": "H" 
			}
		],
		 "valence_orbital": [ 
			{
				"type": "occ",
				"energy": -0.26925,
				"method": "rhf"
			},
			{
				"type": "occ",
				"energy": -0.2591,
				"method": "rhf"
			},
			{
				"type": "occ",
				"energy": -0.22662,
				"method": "rhf"
			},
			{
				"type": "occ",
				"energy": -0.21727,
				"method": "rhf"
			},
			{
				"type": "occ",
				"energy": -0.19943,
				"method": "rhf"
			},
			{
				"type": "unocc",
				"energy": -0.05565,
				"method": "rhf"
			},
			{
				"type": "unocc",
				"energy": -0.03376,
				"method": "rhf"
			},
			{
				"type": "unocc",
				"energy": -0.03035,
				"method": "rhf"
			},
			{
				"type": "unocc",
				"energy": 0.00749,
				"method": "rhf"
			},
			{
				"type": "unocc",
				"energy": 0.02281,
				"method": "rhf"
			}
		],
		"cosmo_sigma_profile": { 
			"-0.025": 0.0,
			"-0.024": 0.0,
			"-0.023": 0.0,
			"-0.022": 0.0,
			"-0.021": 0.0,
			"-0.02": 0.0,
			"-0.019": 0.0,
			"-0.018": 0.0,
			"-0.017": 0.0,
			"-0.016": 0.0,
			"-0.015": 0.0,
			"-0.014": 0.0,
			"-0.013": 0.0,
			"-0.012": 0.0,
			"-0.011": 0.0,
			"-0.01": 0.0,
			"-0.009": 0.693219734403,
			"-0.008": 4.19795009199,
			"-0.007": 5.9485275815,
			"-0.006": 18.2201953876,
			"-0.005": 24.9347442337,
			"-0.004": 24.5039660018,
			"-0.003": 22.8712193074,
			"-0.002": 16.8858115362,
			"-0.001": 15.6223213121,
			"0.0": 13.1469423336,
			"0.001": 20.0881234343,
			"0.002": 25.3205834757,
			"0.003": 37.6345994732,
			"0.004": 44.9285261161,
			"0.005": 28.5612711791,
			"0.006": 3.65988591415,
			"0.007": 0.0,
			"0.008": 0.0,
			"0.009": 0.0,
			"0.01": 0.0,
			"0.011": 0.0,
			"0.012": 0.0,
			"0.013": 0.0,
			"0.014": 0.0,
			"0.015": 0.0,
			"0.016": 0.0,
			"0.017": 0.0,
			"0.018": 0.0,
			"0.019": 0.0,
			"0.02": 0.0,
			"0.021": 0.0,
			"0.022": 0.0,
			"0.023": 0.0,
			"0.024": 0.0,
			"0.025": 0.0
		}
	}
}
