{
	 "smiles": "CC(=O)OC(C)=O", 
	 "Tm": 200.15, 
	 "num_atms": 13, 
	 "gaussian": { 
		 "optdone": 1, 
		 "sigma_profile": "yes", 
		 "theory": "DFT", 
		 "functional": "B3LYP", 
		 "basiset": "6-31G**", 
		 "properties": { 
			 "R2extent": 1052.6096, 
			 "electric_dipole_moment_norm": 4.29095162056, 
			 "electric_quadrupole_moment_norm": 9.11870270817, 
			 "total_energy": -381.728406048, 
			 "HOMO_LUMO_gap": 0.23622, 
			 "cosmo_polarized_energy": -11.4, 
			 "cosmo_cavitation_energy": 17.95, 
			 "cosmo_dispersion_energy": -13.0, 
			 "cosmo_repulsion_energy": 1.15, 
			 "cosmo_total_nonelectrostatic_energy": 6.1, 
			 "SMD_solvation_energy": 5.79 
		},
		"coords": [
			{
				"x": -0.7678879598,
				"y": -1.5140707169,
				"z": -0.669511167,
				"element": "C" 
			},
			{
				"x": 0.2844235866,
				"y": -0.9055924458,
				"z": 0.2253825376,
				"element": "C" 
			},
			{
				"x": 0.5607782143,
				"y": -1.2562190902,
				"z": 1.3367052529,
				"element": "O" 
			},
			{
				"x": 0.8906241296,
				"y": 0.1476848713,
				"z": -0.4647624712,
				"element": "O" 
			},
			{
				"x": 1.9140725046,
				"y": 0.9359825564,
				"z": 0.0684401719,
				"element": "C" 
			},
			{
				"x": 2.3083898743,
				"y": 1.962280017,
				"z": -0.9658131632,
				"element": "C" 
			},
			{
				"x": 2.3892102791,
				"y": 0.8094013792,
				"z": 1.1604887933,
				"element": "O" 
			},
			{
				"x": -1.2515748139,
				"y": -2.3382005038,
				"z": -0.1462920757,
				"element": "H" 
			},
			{
				"x": -1.5087904,
				"y": -0.7577226187,
				"z": -0.9453988263,
				"element": "H" 
			},
			{
				"x": -0.3101627636,
				"y": -1.8741158624,
				"z": -1.595775887,
				"element": "H" 
			},
			{
				"x": 3.1067410285,
				"y": 2.5866509882,
				"z": -0.5661899934,
				"element": "H" 
			},
			{
				"x": 1.4447160145,
				"y": 2.5799649564,
				"z": -1.2297191837,
				"element": "H" 
			},
			{
				"x": 2.6433603058,
				"y": 1.4637564692,
				"z": -1.8803539882,
				"element": "H" 
			}
		],
		 "valence_orbital": [ 
			{
				"type": "occ",
				"energy": -0.39272,
				"method": "rhf"
			},
			{
				"type": "occ",
				"energy": -0.37133,
				"method": "rhf"
			},
			{
				"type": "occ",
				"energy": -0.3286,
				"method": "rhf"
			},
			{
				"type": "occ",
				"energy": -0.29937,
				"method": "rhf"
			},
			{
				"type": "occ",
				"energy": -0.26384,
				"method": "rhf"
			},
			{
				"type": "unocc",
				"energy": -0.02762,
				"method": "rhf"
			},
			{
				"type": "unocc",
				"energy": 0.0224,
				"method": "rhf"
			},
			{
				"type": "unocc",
				"energy": 0.09735,
				"method": "rhf"
			},
			{
				"type": "unocc",
				"energy": 0.1111,
				"method": "rhf"
			},
			{
				"type": "unocc",
				"energy": 0.1293,
				"method": "rhf"
			}
		],
		"cosmo_sigma_profile": { 
			"-0.025": 0.0,
			"-0.024": 0.0,
			"-0.023": 0.0,
			"-0.022": 0.0,
			"-0.021": 0.0,
			"-0.02": 0.0,
			"-0.019": 0.0,
			"-0.018": 0.0,
			"-0.017": 0.0,
			"-0.016": 0.0,
			"-0.015": 0.0,
			"-0.014": 0.0,
			"-0.013": 0.0,
			"-0.012": 0.0,
			"-0.011": 0.0,
			"-0.01": 0.0,
			"-0.009": 0.0,
			"-0.008": 0.442409732365,
			"-0.007": 8.51013113187,
			"-0.006": 12.7365212788,
			"-0.005": 14.8728692008,
			"-0.004": 15.3622482433,
			"-0.003": 16.3282460834,
			"-0.002": 15.4876654046,
			"-0.001": 6.39388066828,
			"0.0": 3.64966829345,
			"0.001": 4.19482075192,
			"0.002": 3.13348868444,
			"0.003": 2.86512044015,
			"0.004": 4.30202992508,
			"0.005": 2.38323178833,
			"0.006": 2.34813792323,
			"0.007": 2.199090305,
			"0.008": 3.18351854178,
			"0.009": 4.12178004296,
			"0.01": 6.96981358829,
			"0.011": 7.25570475306,
			"0.012": 2.32706120619,
			"0.013": 1.22992039695,
			"0.014": 1.42864134867,
			"0.015": 0.62312803135,
			"0.016": 0.0100589276846,
			"0.017": 0.0,
			"0.018": 0.0,
			"0.019": 0.0,
			"0.02": 0.0,
			"0.021": 0.0,
			"0.022": 0.0,
			"0.023": 0.0,
			"0.024": 0.0,
			"0.025": 0.0
		}
	}
}
