{
	 "smiles": "BrC(Br)(Br)C1=CC=C2C=C3C=CC(=NC3=CC2=N1)C(Br)(Br)Br", 
	 "Tm": 463.15, 
	 "num_atms": 28, 
	 "gaussian": { 
		 "optdone": 1, 
		 "sigma_profile": "yes", 
		 "theory": "DFT", 
		 "functional": "B3LYP", 
		 "basiset": "6-31G**", 
		 "properties": { 
			 "R2extent": 29975.9246, 
			 "electric_dipole_moment_norm": 5.16790817836, 
			 "electric_quadrupole_moment_norm": 19.3875874084, 
			 "total_energy": -16074.9991239, 
			 "HOMO_LUMO_gap": 0.13726, 
			 "cosmo_polarized_energy": -12.37, 
			 "cosmo_cavitation_energy": 46.38, 
			 "cosmo_dispersion_energy": -34.84, 
			 "cosmo_repulsion_energy": 2.64, 
			 "cosmo_total_nonelectrostatic_energy": 14.18, 
			 "SMD_solvation_energy": -1.58 
		},
		"coords": [
			{
				"x": -4.7999724909,
				"y": -4.5225508988,
				"z": 0.1148583695,
				"element": "Br" 
			},
			{
				"x": -2.8664066228,
				"y": -4.2803381091,
				"z": 0.4888526191,
				"element": "C" 
			},
			{
				"x": -1.9068565309,
				"y": -5.9141719067,
				"z": -0.1000797612,
				"element": "Br" 
			},
			{
				"x": -2.6202812745,
				"y": -4.0647627787,
				"z": 2.4062495259,
				"element": "Br" 
			},
			{
				"x": -2.3568878745,
				"y": -3.0947110906,
				"z": -0.3281514168,
				"element": "C" 
			},
			{
				"x": -2.4865892562,
				"y": -3.1439201744,
				"z": -1.7581651249,
				"element": "C" 
			},
			{
				"x": -2.0323716638,
				"y": -2.0861453455,
				"z": -2.4900272255,
				"element": "C" 
			},
			{
				"x": -1.4438577976,
				"y": -0.9631656107,
				"z": -1.8324820349,
				"element": "C" 
			},
			{
				"x": -0.9549834348,
				"y": 0.1587503655,
				"z": -2.5103719821,
				"element": "C" 
			},
			{
				"x": -0.3890296298,
				"y": 1.2282401641,
				"z": -1.8081476934,
				"element": "C" 
			},
			{
				"x": 0.1271805948,
				"y": 2.4003384498,
				"z": -2.4402146867,
				"element": "C" 
			},
			{
				"x": 0.6642108439,
				"y": 3.4017419971,
				"z": -1.6854979338,
				"element": "C" 
			},
			{
				"x": 0.6943599081,
				"y": 3.2438450516,
				"z": -0.2577904215,
				"element": "C" 
			},
			{
				"x": 0.2368985609,
				"y": 2.1954371552,
				"z": 0.3654342851,
				"element": "N" 
			},
			{
				"x": -0.3092443296,
				"y": 1.1723893394,
				"z": -0.3705327651,
				"element": "C" 
			},
			{
				"x": -0.7973199186,
				"y": 0.0515316759,
				"z": 0.3103193406,
				"element": "C" 
			},
			{
				"x": -1.3629346452,
				"y": -1.0166164798,
				"z": -0.3948410799,
				"element": "C" 
			},
			{
				"x": -1.8282506458,
				"y": -2.0946451574,
				"z": 0.3178013918,
				"element": "N" 
			},
			{
				"x": 1.2959332325,
				"y": 4.3667352585,
				"z": 0.5848121182,
				"element": "C" 
			},
			{
				"x": 3.1760457742,
				"y": 4.6476611887,
				"z": 0.0160549529,
				"element": "Br" 
			},
			{
				"x": 1.2658681382,
				"y": 4.0048014351,
				"z": 2.4957048981,
				"element": "Br" 
			},
			{
				"x": 0.2809955486,
				"y": 6.0351354128,
				"z": 0.2330525004,
				"element": "Br" 
			},
			{
				"x": -2.9365369192,
				"y": -4.0066504967,
				"z": -2.2333851528,
				"element": "H" 
			},
			{
				"x": -2.1127795307,
				"y": -2.0862855642,
				"z": -3.5736509731,
				"element": "H" 
			},
			{
				"x": -1.0156397481,
				"y": 0.1999924554,
				"z": -3.5953660574,
				"element": "H" 
			},
			{
				"x": 0.0864670328,
				"y": 2.4828230618,
				"z": -3.5229163757,
				"element": "H" 
			},
			{
				"x": 1.0618706696,
				"y": 4.2999986015,
				"z": -2.1411222619,
				"element": "H" 
			},
			{
				"x": -0.7368879908,
				"y": 0.0104420003,
				"z": 1.3915029451,
				"element": "H" 
			}
		],
		 "valence_orbital": [ 
			{
				"type": "occ",
				"energy": -0.2751,
				"method": "rhf"
			},
			{
				"type": "occ",
				"energy": -0.27058,
				"method": "rhf"
			},
			{
				"type": "occ",
				"energy": -0.27008,
				"method": "rhf"
			},
			{
				"type": "occ",
				"energy": -0.26268,
				"method": "rhf"
			},
			{
				"type": "occ",
				"energy": -0.23898,
				"method": "rhf"
			},
			{
				"type": "unocc",
				"energy": -0.10172,
				"method": "rhf"
			},
			{
				"type": "unocc",
				"energy": -0.07,
				"method": "rhf"
			},
			{
				"type": "unocc",
				"energy": -0.06984,
				"method": "rhf"
			},
			{
				"type": "unocc",
				"energy": -0.06978,
				"method": "rhf"
			},
			{
				"type": "unocc",
				"energy": -0.03895,
				"method": "rhf"
			}
		],
		"cosmo_sigma_profile": { 
			"-0.025": 0.0,
			"-0.024": 0.0,
			"-0.023": 0.0,
			"-0.022": 0.0,
			"-0.021": 0.0,
			"-0.02": 0.0,
			"-0.019": 0.0,
			"-0.018": 0.0,
			"-0.017": 0.0,
			"-0.016": 0.0,
			"-0.015": 0.0,
			"-0.014": 0.0,
			"-0.013": 0.0,
			"-0.012": 0.0,
			"-0.011": 0.0,
			"-0.01": 0.0,
			"-0.009": 2.06111471221,
			"-0.008": 10.1691966159,
			"-0.007": 11.440153473,
			"-0.006": 15.879962062,
			"-0.005": 15.5289557993,
			"-0.004": 16.9000464821,
			"-0.003": 17.2951769813,
			"-0.002": 23.4745087414,
			"-0.001": 37.6267646703,
			"0.0": 45.2965610536,
			"0.001": 49.3681647667,
			"0.002": 46.4065502396,
			"0.003": 60.2439214982,
			"0.004": 20.3707403436,
			"0.005": 4.01227046991,
			"0.006": 3.35955099327,
			"0.007": 3.3943174091,
			"0.008": 2.95538118015,
			"0.009": 2.29715912133,
			"0.01": 2.16488777791,
			"0.011": 2.02108947782,
			"0.012": 0.502272732388,
			"0.013": 0.0,
			"0.014": 0.0,
			"0.015": 0.0,
			"0.016": 0.0,
			"0.017": 0.0,
			"0.018": 0.0,
			"0.019": 0.0,
			"0.02": 0.0,
			"0.021": 0.0,
			"0.022": 0.0,
			"0.023": 0.0,
			"0.024": 0.0,
			"0.025": 0.0
		}
	}
}
