{
	 "smiles": "CC(=O)NC1=CC=C(C=C1)C1=NNC(=O)CC1", 
	 "Tm": 525.15, 
	 "num_atms": 30, 
	 "gaussian": { 
		 "optdone": 1, 
		 "sigma_profile": "yes", 
		 "theory": "DFT", 
		 "functional": "B3LYP", 
		 "basiset": "6-31G**", 
		 "properties": { 
			 "R2extent": 6629.5617, 
			 "electric_dipole_moment_norm": 1.28935282216, 
			 "electric_quadrupole_moment_norm": 45.8715406852, 
			 "total_energy": -779.819912295, 
			 "HOMO_LUMO_gap": 0.15755, 
			 "cosmo_polarized_energy": -20.17, 
			 "cosmo_cavitation_energy": 33.98, 
			 "cosmo_dispersion_energy": -25.05, 
			 "cosmo_repulsion_energy": 1.95, 
			 "cosmo_total_nonelectrostatic_energy": 10.88, 
			 "SMD_solvation_energy": 6.43 
		},
		"coords": [
			{
				"x": -2.4889663661,
				"y": -0.2085393942,
				"z": -4.2854593062,
				"element": "C" 
			},
			{
				"x": -1.4539634354,
				"y": 0.7737614005,
				"z": -4.7969722289,
				"element": "C" 
			},
			{
				"x": -1.4518943598,
				"y": 1.1683783972,
				"z": -5.9534666961,
				"element": "O" 
			},
			{
				"x": -0.4645979879,
				"y": 1.2239025924,
				"z": -3.9321132,
				"element": "N" 
			},
			{
				"x": -0.1783295085,
				"y": 0.9462949213,
				"z": -2.5820903219,
				"element": "C" 
			},
			{
				"x": 1.1653837875,
				"y": 0.9052526151,
				"z": -2.1812631807,
				"element": "C" 
			},
			{
				"x": 1.5073082607,
				"y": 0.6661835781,
				"z": -0.8544182394,
				"element": "C" 
			},
			{
				"x": 0.5225406801,
				"y": 0.4521601551,
				"z": 0.1244429593,
				"element": "C" 
			},
			{
				"x": -0.8227774873,
				"y": 0.5102259937,
				"z": -0.2850934427,
				"element": "C" 
			},
			{
				"x": -1.1719641309,
				"y": 0.7643271372,
				"z": -1.6040710663,
				"element": "C" 
			},
			{
				"x": 0.8675590062,
				"y": 0.2076682616,
				"z": 1.5413141721,
				"element": "C" 
			},
			{
				"x": -0.0978056045,
				"y": 0.244587501,
				"z": 2.4010228764,
				"element": "N" 
			},
			{
				"x": 0.2131282439,
				"y": 0.0413915706,
				"z": 3.7258995084,
				"element": "N" 
			},
			{
				"x": 1.3266400769,
				"y": -0.5955168286,
				"z": 4.2417497012,
				"element": "C" 
			},
			{
				"x": 1.4268314971,
				"y": -0.8384503985,
				"z": 5.4329448539,
				"element": "O" 
			},
			{
				"x": 2.3393779799,
				"y": -0.9827051664,
				"z": 3.1827946403,
				"element": "C" 
			},
			{
				"x": 2.2982230529,
				"y": -0.0305118306,
				"z": 1.9807441889,
				"element": "C" 
			},
			{
				"x": -2.8743441075,
				"y": -0.7489995804,
				"z": -5.1505581995,
				"element": "H" 
			},
			{
				"x": -3.3256923469,
				"y": 0.3263987736,
				"z": -3.8236755414,
				"element": "H" 
			},
			{
				"x": -2.086178254,
				"y": -0.9101288484,
				"z": -3.5516303063,
				"element": "H" 
			},
			{
				"x": 0.2269935472,
				"y": 1.7695090097,
				"z": -4.4327641278,
				"element": "H" 
			},
			{
				"x": 1.9472662399,
				"y": 1.0524975131,
				"z": -2.9214369933,
				"element": "H" 
			},
			{
				"x": 2.5593577415,
				"y": 0.6530683184,
				"z": -0.5904085674,
				"element": "H" 
			},
			{
				"x": -1.597614721,
				"y": 0.3709413553,
				"z": 0.4601212951,
				"element": "H" 
			},
			{
				"x": -2.2189723506,
				"y": 0.8449678931,
				"z": -1.8685864396,
				"element": "H" 
			},
			{
				"x": -0.5644303428,
				"y": 0.1741918534,
				"z": 4.3588841181,
				"element": "H" 
			},
			{
				"x": 3.3265651129,
				"y": -1.020048474,
				"z": 3.6476401196,
				"element": "H" 
			},
			{
				"x": 2.0929636845,
				"y": -2.0046652169,
				"z": 2.8642760776,
				"element": "H" 
			},
			{
				"x": 2.9046133932,
				"y": -0.4328641604,
				"z": 1.1668276579,
				"element": "H" 
			},
			{
				"x": 2.7413786986,
				"y": 0.9377210583,
				"z": 2.2566456888,
				"element": "H" 
			}
		],
		 "valence_orbital": [ 
			{
				"type": "occ",
				"energy": -0.26877,
				"method": "rhf"
			},
			{
				"type": "occ",
				"energy": -0.25986,
				"method": "rhf"
			},
			{
				"type": "occ",
				"energy": -0.25763,
				"method": "rhf"
			},
			{
				"type": "occ",
				"energy": -0.25218,
				"method": "rhf"
			},
			{
				"type": "occ",
				"energy": -0.21527,
				"method": "rhf"
			},
			{
				"type": "unocc",
				"energy": -0.05772,
				"method": "rhf"
			},
			{
				"type": "unocc",
				"energy": -0.0188,
				"method": "rhf"
			},
			{
				"type": "unocc",
				"energy": 0.00107,
				"method": "rhf"
			},
			{
				"type": "unocc",
				"energy": 0.02496,
				"method": "rhf"
			},
			{
				"type": "unocc",
				"energy": 0.0495,
				"method": "rhf"
			}
		],
		"cosmo_sigma_profile": { 
			"-0.025": 0.0,
			"-0.024": 0.0,
			"-0.023": 0.0,
			"-0.022": 0.0,
			"-0.021": 0.0,
			"-0.02": 0.0,
			"-0.019": 0.0,
			"-0.018": 0.0,
			"-0.017": 0.0,
			"-0.016": 0.0,
			"-0.015": 0.450221887366,
			"-0.014": 1.71255282233,
			"-0.013": 2.35915699846,
			"-0.012": 2.30433941844,
			"-0.011": 1.46825662302,
			"-0.01": 1.56066656899,
			"-0.009": 2.21320720084,
			"-0.008": 4.39695389865,
			"-0.007": 9.87652334388,
			"-0.006": 17.7326960719,
			"-0.005": 23.8182488044,
			"-0.004": 22.6997479617,
			"-0.003": 21.6595078221,
			"-0.002": 19.89346135,
			"-0.001": 14.4391387119,
			"0.0": 13.0631217784,
			"0.001": 12.2708888572,
			"0.002": 13.9793411231,
			"0.003": 14.205081439,
			"0.004": 17.5353319839,
			"0.005": 6.20117333741,
			"0.006": 3.41088345233,
			"0.007": 4.38311113532,
			"0.008": 4.7314220827,
			"0.009": 3.66377726703,
			"0.01": 3.58642628543,
			"0.011": 3.55847599656,
			"0.012": 5.56620668785,
			"0.013": 11.1893846988,
			"0.014": 5.56292627828,
			"0.015": 0.373435924816,
			"0.016": 0.0,
			"0.017": 0.0,
			"0.018": 0.0,
			"0.019": 0.0,
			"0.02": 0.0,
			"0.021": 0.0,
			"0.022": 0.0,
			"0.023": 0.0,
			"0.024": 0.0,
			"0.025": 0.0
		}
	}
}
