{
	 "smiles": "SC1=NC=CN1CC1=CC=CC=C1", 
	 "Tm": 420.15, 
	 "num_atms": 23, 
	 "gaussian": { 
		 "optdone": 1, 
		 "sigma_profile": "yes", 
		 "theory": "DFT", 
		 "functional": "B3LYP", 
		 "basiset": "6-31G**", 
		 "properties": { 
			 "R2extent": 3016.9644, 
			 "electric_dipole_moment_norm": 3.0614655853, 
			 "electric_quadrupole_moment_norm": 9.21849201497, 
			 "total_energy": -894.766937904, 
			 "HOMO_LUMO_gap": 0.19468, 
			 "cosmo_polarized_energy": -11.56, 
			 "cosmo_cavitation_energy": 28.55, 
			 "cosmo_dispersion_energy": -20.69, 
			 "cosmo_repulsion_energy": 1.59, 
			 "cosmo_total_nonelectrostatic_energy": 9.45, 
			 "SMD_solvation_energy": 3.1 
		},
		"coords": [
			{
				"x": -1.4478123853,
				"y": 2.6841596563,
				"z": 0.3023948686,
				"element": "S" 
			},
			{
				"x": 0.3237169319,
				"y": 2.6109844189,
				"z": 0.3904498566,
				"element": "C" 
			},
			{
				"x": 1.1564519825,
				"y": 3.5014520631,
				"z": -0.1049154233,
				"element": "N" 
			},
			{
				"x": 2.4121841196,
				"y": 3.0260671827,
				"z": 0.206852328,
				"element": "C" 
			},
			{
				"x": 2.3275116058,
				"y": 1.8399870522,
				"z": 0.8860874982,
				"element": "C" 
			},
			{
				"x": 0.9705696779,
				"y": 1.5741785085,
				"z": 1.0134772622,
				"element": "N" 
			},
			{
				"x": 0.3712411958,
				"y": 0.4196734649,
				"z": 1.6727148837,
				"element": "C" 
			},
			{
				"x": -0.1292737198,
				"y": -0.6621771498,
				"z": 0.7279657132,
				"element": "C" 
			},
			{
				"x": -1.2634385243,
				"y": -1.4059106306,
				"z": 1.0734848414,
				"element": "C" 
			},
			{
				"x": -1.7116518537,
				"y": -2.4409127087,
				"z": 0.2515706287,
				"element": "C" 
			},
			{
				"x": -1.0331449855,
				"y": -2.7370701799,
				"z": -0.9314188815,
				"element": "C" 
			},
			{
				"x": 0.0940451759,
				"y": -1.993184324,
				"z": -1.286436806,
				"element": "C" 
			},
			{
				"x": 0.54534394,
				"y": -0.9628134532,
				"z": -0.461249509,
				"element": "C" 
			},
			{
				"x": -1.4586123544,
				"y": 4.0114092995,
				"z": 0.0815038663,
				"element": "H" 
			},
			{
				"x": 3.3023419026,
				"y": 3.5699492654,
				"z": -0.0772385405,
				"element": "H" 
			},
			{
				"x": 3.0712527497,
				"y": 1.1717320596,
				"z": 1.2926655632,
				"element": "H" 
			},
			{
				"x": 1.1340604572,
				"y": 0.0136773774,
				"z": 2.3463446292,
				"element": "H" 
			},
			{
				"x": -0.4518130422,
				"y": 0.7718657613,
				"z": 2.303445882,
				"element": "H" 
			},
			{
				"x": -1.8020004172,
				"y": -1.1717665043,
				"z": 1.988840885,
				"element": "H" 
			},
			{
				"x": -2.5954803076,
				"y": -3.0072794496,
				"z": 0.5307067563,
				"element": "H" 
			},
			{
				"x": -1.3840612585,
				"y": -3.537550657,
				"z": -1.5761593085,
				"element": "H" 
			},
			{
				"x": 0.62258855,
				"y": -2.2130295346,
				"z": -2.2095814436,
				"element": "H" 
			},
			{
				"x": 1.4172805598,
				"y": -0.3816415182,
				"z": -0.7472055501,
				"element": "H" 
			}
		],
		 "valence_orbital": [ 
			{
				"type": "occ",
				"energy": -0.26973,
				"method": "rhf"
			},
			{
				"type": "occ",
				"energy": -0.26785,
				"method": "rhf"
			},
			{
				"type": "occ",
				"energy": -0.25621,
				"method": "rhf"
			},
			{
				"type": "occ",
				"energy": -0.25031,
				"method": "rhf"
			},
			{
				"type": "occ",
				"energy": -0.20759,
				"method": "rhf"
			},
			{
				"type": "unocc",
				"energy": -0.01291,
				"method": "rhf"
			},
			{
				"type": "unocc",
				"energy": -0.00853,
				"method": "rhf"
			},
			{
				"type": "unocc",
				"energy": 0.0188,
				"method": "rhf"
			},
			{
				"type": "unocc",
				"energy": 0.03015,
				"method": "rhf"
			},
			{
				"type": "unocc",
				"energy": 0.06516,
				"method": "rhf"
			}
		],
		"cosmo_sigma_profile": { 
			"-0.025": 0.0,
			"-0.024": 0.0,
			"-0.023": 0.0,
			"-0.022": 0.0,
			"-0.021": 0.0,
			"-0.02": 0.0,
			"-0.019": 0.0,
			"-0.018": 0.0,
			"-0.017": 0.0,
			"-0.016": 0.0,
			"-0.015": 0.0,
			"-0.014": 0.0,
			"-0.013": 0.0,
			"-0.012": 0.276114853813,
			"-0.011": 1.41896703044,
			"-0.01": 1.48341196223,
			"-0.009": 2.74804646828,
			"-0.008": 5.42688767439,
			"-0.007": 7.18878190488,
			"-0.006": 13.7894504089,
			"-0.005": 16.7094792526,
			"-0.004": 18.7630132332,
			"-0.003": 18.8080659844,
			"-0.002": 13.2743546388,
			"-0.001": 12.8536572542,
			"0.0": 11.3383331909,
			"0.001": 13.7351575997,
			"0.002": 16.4009329877,
			"0.003": 15.5192916937,
			"0.004": 15.3000048607,
			"0.005": 18.469892178,
			"0.006": 10.4897457013,
			"0.007": 4.55420370181,
			"0.008": 2.0069542072,
			"0.009": 1.55430845965,
			"0.01": 1.73555600631,
			"0.011": 1.14971746359,
			"0.012": 1.01336781958,
			"0.013": 0.839651385522,
			"0.014": 1.38621882967,
			"0.015": 0.783597721811,
			"0.016": 0.895704482727,
			"0.017": 0.702712133772,
			"0.018": 0.248708547384,
			"0.019": 0.0,
			"0.02": 0.0,
			"0.021": 0.0,
			"0.022": 0.0,
			"0.023": 0.0,
			"0.024": 0.0,
			"0.025": 0.0
		}
	}
}
