{
	 "smiles": "CC(C)(C)OC(=O)N1CCCC(C1)C(O)=O", 
	 "Tm": 434.15, 
	 "num_atms": 35, 
	 "gaussian": { 
		 "optdone": 1, 
		 "sigma_profile": "yes", 
		 "theory": "DFT", 
		 "functional": "B3LYP", 
		 "basiset": "6-31G**", 
		 "properties": { 
			 "R2extent": 5091.6293, 
			 "electric_dipole_moment_norm": 3.77984460659, 
			 "electric_quadrupole_moment_norm": 24.9194744441, 
			 "total_energy": -786.313701124, 
			 "HOMO_LUMO_gap": 0.23406, 
			 "cosmo_polarized_energy": -17.83, 
			 "cosmo_cavitation_energy": 35.44, 
			 "cosmo_dispersion_energy": -24.59, 
			 "cosmo_repulsion_energy": 1.91, 
			 "cosmo_total_nonelectrostatic_energy": 12.76, 
			 "SMD_solvation_energy": 7.07 
		},
		"coords": [
			{
				"x": 1.2306653123,
				"y": -2.7463859555,
				"z": -1.8122844501,
				"element": "C" 
			},
			{
				"x": 1.5612420324,
				"y": -1.3040634844,
				"z": -1.4180623534,
				"element": "C" 
			},
			{
				"x": 2.5991562863,
				"y": -1.2751644406,
				"z": -0.290645806,
				"element": "C" 
			},
			{
				"x": 2.0094638972,
				"y": -0.4973445961,
				"z": -2.6414623603,
				"element": "C" 
			},
			{
				"x": 0.2678255871,
				"y": -0.8045432837,
				"z": -0.9274803188,
				"element": "O" 
			},
			{
				"x": 0.133741701,
				"y": 0.4765728242,
				"z": -0.5012188728,
				"element": "C" 
			},
			{
				"x": 1.0418346788,
				"y": 1.2947442185,
				"z": -0.4246034857,
				"element": "O" 
			},
			{
				"x": -1.1696012025,
				"y": 0.7516203963,
				"z": -0.172791291,
				"element": "N" 
			},
			{
				"x": -2.2375425402,
				"y": -0.2440703536,
				"z": -0.0950569841,
				"element": "C" 
			},
			{
				"x": -2.4726595698,
				"y": -0.6709273404,
				"z": 1.376776945,
				"element": "C" 
			},
			{
				"x": -1.9761148425,
				"y": 0.4192389976,
				"z": 2.3495330253,
				"element": "C" 
			},
			{
				"x": -2.2295555949,
				"y": 1.8459427625,
				"z": 1.7984961047,
				"element": "C" 
			},
			{
				"x": -1.4848491084,
				"y": 2.0364479906,
				"z": 0.4481517162,
				"element": "C" 
			},
			{
				"x": -3.7329296285,
				"y": 2.1163493478,
				"z": 1.6784450126,
				"element": "C" 
			},
			{
				"x": -4.3948359158,
				"y": 2.2294986741,
				"z": 2.8617859809,
				"element": "O" 
			},
			{
				"x": -4.3455209058,
				"y": 2.2103738145,
				"z": 0.6427322954,
				"element": "O" 
			},
			{
				"x": 0.4604036715,
				"y": -2.7681291197,
				"z": -2.5887986893,
				"element": "H" 
			},
			{
				"x": 0.8658503099,
				"y": -3.3095417226,
				"z": -0.9481145506,
				"element": "H" 
			},
			{
				"x": 2.1248248033,
				"y": -3.2452760624,
				"z": -2.1976769723,
				"element": "H" 
			},
			{
				"x": 3.523213209,
				"y": -1.7554265795,
				"z": -0.6288930725,
				"element": "H" 
			},
			{
				"x": 2.820710864,
				"y": -0.2505571357,
				"z": 0.0077241027,
				"element": "H" 
			},
			{
				"x": 2.2295065156,
				"y": -1.8277780451,
				"z": 0.5793303623,
				"element": "H" 
			},
			{
				"x": 2.9101757975,
				"y": -0.9494301479,
				"z": -3.0695179273,
				"element": "H" 
			},
			{
				"x": 2.2273252341,
				"y": 0.5354864634,
				"z": -2.3695075326,
				"element": "H" 
			},
			{
				"x": 1.2282595008,
				"y": -0.5059401657,
				"z": -3.408241433,
				"element": "H" 
			},
			{
				"x": -3.1424554417,
				"y": 0.2225680373,
				"z": -0.4959542339,
				"element": "H" 
			},
			{
				"x": -1.9839194286,
				"y": -1.0937956751,
				"z": -0.7244776888,
				"element": "H" 
			},
			{
				"x": -1.9448080809,
				"y": -1.6052748349,
				"z": 1.5944906318,
				"element": "H" 
			},
			{
				"x": -3.5403255114,
				"y": -0.8646855254,
				"z": 1.5303203598,
				"element": "H" 
			},
			{
				"x": -0.8959814808,
				"y": 0.3176889908,
				"z": 2.4971994685,
				"element": "H" 
			},
			{
				"x": -2.4357517393,
				"y": 0.2875938072,
				"z": 3.3358559466,
				"element": "H" 
			},
			{
				"x": -1.8333815417,
				"y": 2.5740073787,
				"z": 2.5194643754,
				"element": "H" 
			},
			{
				"x": -2.10957008,
				"y": 2.6318112079,
				"z": -0.2261961459,
				"element": "H" 
			},
			{
				"x": -0.5400561493,
				"y": 2.5565670906,
				"z": 0.6029124506,
				"element": "H" 
			},
			{
				"x": -3.7745406388,
				"y": 2.1553224661,
				"z": 3.6009653906,
				"element": "H" 
			}
		],
		 "valence_orbital": [ 
			{
				"type": "occ",
				"energy": -0.321,
				"method": "rhf"
			},
			{
				"type": "occ",
				"energy": -0.28546,
				"method": "rhf"
			},
			{
				"type": "occ",
				"energy": -0.27664,
				"method": "rhf"
			},
			{
				"type": "occ",
				"energy": -0.2578,
				"method": "rhf"
			},
			{
				"type": "occ",
				"energy": -0.23414,
				"method": "rhf"
			},
			{
				"type": "unocc",
				"energy": -8e-05,
				"method": "rhf"
			},
			{
				"type": "unocc",
				"energy": 0.03966,
				"method": "rhf"
			},
			{
				"type": "unocc",
				"energy": 0.05797,
				"method": "rhf"
			},
			{
				"type": "unocc",
				"energy": 0.08025,
				"method": "rhf"
			},
			{
				"type": "unocc",
				"energy": 0.10181,
				"method": "rhf"
			}
		],
		"cosmo_sigma_profile": { 
			"-0.025": 0.0,
			"-0.024": 0.0,
			"-0.023": 0.0,
			"-0.022": 0.0,
			"-0.021": 0.0,
			"-0.02": 0.0,
			"-0.019": 0.470014941535,
			"-0.018": 0.684488042393,
			"-0.017": 1.1236949876,
			"-0.016": 1.48652040957,
			"-0.015": 0.926778736783,
			"-0.014": 0.777946623272,
			"-0.013": 1.1294225664,
			"-0.012": 1.09062184106,
			"-0.011": 1.52531340587,
			"-0.01": 1.23390330092,
			"-0.009": 1.43241005875,
			"-0.008": 1.51848207366,
			"-0.007": 3.74090378676,
			"-0.006": 4.03175408573,
			"-0.005": 5.66897641563,
			"-0.004": 22.8954118537,
			"-0.003": 35.0945811611,
			"-0.002": 30.9140317881,
			"-0.001": 29.1132949301,
			"0.0": 31.2044717711,
			"0.001": 23.7953241935,
			"0.002": 11.1440864512,
			"0.003": 8.90124090812,
			"0.004": 7.6934878418,
			"0.005": 6.70278775736,
			"0.006": 4.49330451892,
			"0.007": 4.38699746252,
			"0.008": 4.01803278405,
			"0.009": 3.94684303062,
			"0.01": 7.12114770161,
			"0.011": 6.13046138994,
			"0.012": 5.40207456606,
			"0.013": 3.95857786154,
			"0.014": 1.45839456077,
			"0.015": 0.0,
			"0.016": 0.0,
			"0.017": 0.0,
			"0.018": 0.0,
			"0.019": 0.0,
			"0.02": 0.0,
			"0.021": 0.0,
			"0.022": 0.0,
			"0.023": 0.0,
			"0.024": 0.0,
			"0.025": 0.0
		}
	}
}
