{
	 "smiles": "OC(=O)C(=O)CC1=CC=C(Cl)C=C1", 
	 "Tm": 466.15, 
	 "num_atms": 20, 
	 "gaussian": { 
		 "optdone": 1, 
		 "sigma_profile": "yes", 
		 "theory": "DFT", 
		 "functional": "B3LYP", 
		 "basiset": "6-31G**", 
		 "properties": { 
			 "R2extent": 4236.5788, 
			 "electric_dipole_moment_norm": 2.41239853465, 
			 "electric_quadrupole_moment_norm": 10.1342336701, 
			 "total_energy": -1033.0446293, 
			 "HOMO_LUMO_gap": 0.15284, 
			 "cosmo_polarized_energy": -10.86, 
			 "cosmo_cavitation_energy": 27.19, 
			 "cosmo_dispersion_energy": -19.59, 
			 "cosmo_repulsion_energy": 1.56, 
			 "cosmo_total_nonelectrostatic_energy": 9.16, 
			 "SMD_solvation_energy": 6.17 
		},
		"coords": [
			{
				"x": -1.5733438806,
				"y": 4.0449395334,
				"z": 1.8771277256,
				"element": "O" 
			},
			{
				"x": -1.2986010803,
				"y": 2.7390410715,
				"z": 1.8843197329,
				"element": "C" 
			},
			{
				"x": -0.2716880871,
				"y": 2.2579627417,
				"z": 2.3020328878,
				"element": "O" 
			},
			{
				"x": -2.4624930323,
				"y": 1.8922399711,
				"z": 1.3110460329,
				"element": "C" 
			},
			{
				"x": -3.4709021421,
				"y": 2.4814646765,
				"z": 0.9623883349,
				"element": "O" 
			},
			{
				"x": -2.2490591355,
				"y": 0.4007710872,
				"z": 1.194525554,
				"element": "C" 
			},
			{
				"x": -1.5282224828,
				"y": 0.0904476674,
				"z": -0.1123971099,
				"element": "C" 
			},
			{
				"x": -0.1292479547,
				"y": 0.0637965943,
				"z": -0.173740398,
				"element": "C" 
			},
			{
				"x": 0.5262050077,
				"y": -0.2099030826,
				"z": -1.3738293829,
				"element": "C" 
			},
			{
				"x": -0.2275366326,
				"y": -0.4492564975,
				"z": -2.522365023,
				"element": "C" 
			},
			{
				"x": 0.5907673621,
				"y": -0.79874405,
				"z": -4.0369888863,
				"element": "Cl" 
			},
			{
				"x": -1.6214136412,
				"y": -0.4153432737,
				"z": -2.4885467187,
				"element": "C" 
			},
			{
				"x": -2.2633330858,
				"y": -0.1405432078,
				"z": -1.2819063115,
				"element": "C" 
			},
			{
				"x": -2.4720187192,
				"y": 4.1323269667,
				"z": 1.4978880824,
				"element": "H" 
			},
			{
				"x": -1.6536575202,
				"y": 0.0585305252,
				"z": 2.0442383055,
				"element": "H" 
			},
			{
				"x": -3.2302277163,
				"y": -0.0794616054,
				"z": 1.2150320276,
				"element": "H" 
			},
			{
				"x": 0.450342486,
				"y": 0.2683921438,
				"z": 0.7209293453,
				"element": "H" 
			},
			{
				"x": 1.6092691145,
				"y": -0.2361336596,
				"z": -1.418272289,
				"element": "H" 
			},
			{
				"x": -2.1930376026,
				"y": -0.6026675022,
				"z": -3.3906710492,
				"element": "H" 
			},
			{
				"x": -3.3490012569,
				"y": -0.1116601002,
				"z": -1.2515108605,
				"element": "H" 
			}
		],
		 "valence_orbital": [ 
			{
				"type": "occ",
				"energy": -0.33533,
				"method": "rhf"
			},
			{
				"type": "occ",
				"energy": -0.31787,
				"method": "rhf"
			},
			{
				"type": "occ",
				"energy": -0.27899,
				"method": "rhf"
			},
			{
				"type": "occ",
				"energy": -0.27266,
				"method": "rhf"
			},
			{
				"type": "occ",
				"energy": -0.24987,
				"method": "rhf"
			},
			{
				"type": "unocc",
				"energy": -0.09703,
				"method": "rhf"
			},
			{
				"type": "unocc",
				"energy": -0.02417,
				"method": "rhf"
			},
			{
				"type": "unocc",
				"energy": -0.02241,
				"method": "rhf"
			},
			{
				"type": "unocc",
				"energy": 0.02326,
				"method": "rhf"
			},
			{
				"type": "unocc",
				"energy": 0.04622,
				"method": "rhf"
			}
		],
		"cosmo_sigma_profile": { 
			"-0.025": 0.0,
			"-0.024": 0.0,
			"-0.023": 0.0,
			"-0.022": 0.0,
			"-0.021": 0.0,
			"-0.02": 0.0,
			"-0.019": 0.0,
			"-0.018": 0.0,
			"-0.017": 0.0,
			"-0.016": 0.167172421299,
			"-0.015": 0.832087695892,
			"-0.014": 0.665014674115,
			"-0.013": 0.687156347848,
			"-0.012": 0.671483857793,
			"-0.011": 0.804434313831,
			"-0.01": 0.760833630774,
			"-0.009": 3.21376371501,
			"-0.008": 4.84746166269,
			"-0.007": 11.3930687221,
			"-0.006": 13.3496691586,
			"-0.005": 14.4613505714,
			"-0.004": 11.0530269415,
			"-0.003": 10.8017702093,
			"-0.002": 11.5391517789,
			"-0.001": 11.5295173189,
			"0.0": 14.6599559648,
			"0.001": 14.7730529907,
			"0.002": 20.0943921895,
			"0.003": 20.1391078231,
			"0.004": 14.202068421,
			"0.005": 10.5996933014,
			"0.006": 4.55654394754,
			"0.007": 4.36198274144,
			"0.008": 6.91848281039,
			"0.009": 5.99369919257,
			"0.01": 4.05965484946,
			"0.011": 2.5386042726,
			"0.012": 0.46778060862,
			"0.013": 0.0,
			"0.014": 0.0,
			"0.015": 0.0,
			"0.016": 0.0,
			"0.017": 0.0,
			"0.018": 0.0,
			"0.019": 0.0,
			"0.02": 0.0,
			"0.021": 0.0,
			"0.022": 0.0,
			"0.023": 0.0,
			"0.024": 0.0,
			"0.025": 0.0
		}
	}
}
