{
	 "smiles": "CC(C)(C)N(NC(=O)C1=CC=CC=C1)C(=O)C1=CC=C(Cl)C=C1Cl", 
	 "Tm": 407.15, 
	 "num_atms": 42, 
	 "gaussian": { 
		 "optdone": 1, 
		 "sigma_profile": "yes", 
		 "theory": "DFT", 
		 "functional": "B3LYP", 
		 "basiset": "6-31G**", 
		 "properties": { 
			 "R2extent": 10174.5574, 
			 "electric_dipole_moment_norm": 2.77646075427, 
			 "electric_quadrupole_moment_norm": 17.1972028699, 
			 "total_energy": -1877.09413658, 
			 "HOMO_LUMO_gap": 0.19907, 
			 "cosmo_polarized_energy": -14.87, 
			 "cosmo_cavitation_energy": 47.46, 
			 "cosmo_dispersion_energy": -30.98, 
			 "cosmo_repulsion_energy": 2.34, 
			 "cosmo_total_nonelectrostatic_energy": 18.82, 
			 "SMD_solvation_energy": 8.98 
		},
		"coords": [
			{
				"x": 0.6341668899,
				"y": -1.7503347582,
				"z": 2.4276617347,
				"element": "C" 
			},
			{
				"x": -0.4031045566,
				"y": -0.6434413175,
				"z": 2.694857286,
				"element": "C" 
			},
			{
				"x": -1.7937226763,
				"y": -1.2844700621,
				"z": 2.8054298524,
				"element": "C" 
			},
			{
				"x": -0.0834808488,
				"y": 0.1105514244,
				"z": 3.9996061578,
				"element": "C" 
			},
			{
				"x": -0.3973800449,
				"y": 0.3467377236,
				"z": 1.5331884373,
				"element": "N" 
			},
			{
				"x": -1.5985336063,
				"y": 0.7692034064,
				"z": 0.9782292928,
				"element": "N" 
			},
			{
				"x": -2.384042032,
				"y": 0.1196354682,
				"z": 0.0324996574,
				"element": "C" 
			},
			{
				"x": -3.5381177791,
				"y": 0.5115993548,
				"z": -0.0933870195,
				"element": "O" 
			},
			{
				"x": -1.8527422964,
				"y": -1.0022717139,
				"z": -0.8119698303,
				"element": "C" 
			},
			{
				"x": -0.5014377802,
				"y": -1.2414947456,
				"z": -1.1045800072,
				"element": "C" 
			},
			{
				"x": -0.1394549992,
				"y": -2.2907501537,
				"z": -1.9506025034,
				"element": "C" 
			},
			{
				"x": -1.1164700501,
				"y": -3.117631559,
				"z": -2.5064881389,
				"element": "C" 
			},
			{
				"x": -2.4646327627,
				"y": -2.8830210643,
				"z": -2.2254270434,
				"element": "C" 
			},
			{
				"x": -2.8291784319,
				"y": -1.8286106519,
				"z": -1.3932184352,
				"element": "C" 
			},
			{
				"x": 0.7181527042,
				"y": 1.1246665084,
				"z": 1.2686814628,
				"element": "C" 
			},
			{
				"x": 1.8218426885,
				"y": 0.892365544,
				"z": 1.7423642355,
				"element": "O" 
			},
			{
				"x": 0.5625262767,
				"y": 2.2779599739,
				"z": 0.2962353991,
				"element": "C" 
			},
			{
				"x": 1.2402175654,
				"y": 2.1989370698,
				"z": -0.927451398,
				"element": "C" 
			},
			{
				"x": 1.2362163287,
				"y": 3.2526641403,
				"z": -1.8370209503,
				"element": "C" 
			},
			{
				"x": 0.5656745153,
				"y": 4.4280643899,
				"z": -1.5021291603,
				"element": "C" 
			},
			{
				"x": 0.5508907801,
				"y": 5.7715029915,
				"z": -2.6272779276,
				"element": "Cl" 
			},
			{
				"x": -0.0855260278,
				"y": 4.5627466538,
				"z": -0.2775842265,
				"element": "C" 
			},
			{
				"x": -0.0742899114,
				"y": 3.4852344438,
				"z": 0.6060430044,
				"element": "C" 
			},
			{
				"x": -0.8648036609,
				"y": 3.7046553735,
				"z": 2.1649803136,
				"element": "Cl" 
			},
			{
				"x": 0.3996224046,
				"y": -2.2820160076,
				"z": 1.5010059362,
				"element": "H" 
			},
			{
				"x": 1.6406664239,
				"y": -1.339995722,
				"z": 2.3569810445,
				"element": "H" 
			},
			{
				"x": 0.6065052047,
				"y": -2.4728709292,
				"z": 3.2499368979,
				"element": "H" 
			},
			{
				"x": -2.580134497,
				"y": -0.5537090649,
				"z": 3.010332617,
				"element": "H" 
			},
			{
				"x": -2.0615458983,
				"y": -1.8429210488,
				"z": 1.9049681661,
				"element": "H" 
			},
			{
				"x": -1.7720672353,
				"y": -1.9917100608,
				"z": 3.6393188666,
				"element": "H" 
			},
			{
				"x": -0.8288945214,
				"y": 0.8891606286,
				"z": 4.1925676121,
				"element": "H" 
			},
			{
				"x": 0.9040925685,
				"y": 0.5715816226,
				"z": 3.9580686679,
				"element": "H" 
			},
			{
				"x": -0.1020713158,
				"y": -0.5893354218,
				"z": 4.84103846,
				"element": "H" 
			},
			{
				"x": -2.1298356605,
				"y": 1.4575222964,
				"z": 1.5038529527,
				"element": "H" 
			},
			{
				"x": 0.2711065016,
				"y": -0.6128331823,
				"z": -0.6863901735,
				"element": "H" 
			},
			{
				"x": 0.9096334474,
				"y": -2.4598651754,
				"z": -2.1750185271,
				"element": "H" 
			},
			{
				"x": -0.8291404178,
				"y": -3.9370837481,
				"z": -3.1590641008,
				"element": "H" 
			},
			{
				"x": -3.2312712135,
				"y": -3.5177682664,
				"z": -2.6598811689,
				"element": "H" 
			},
			{
				"x": -3.8712290219,
				"y": -1.6159902842,
				"z": -1.1822374333,
				"element": "H" 
			},
			{
				"x": 1.78723839,
				"y": 1.2923000044,
				"z": -1.164861522,
				"element": "H" 
			},
			{
				"x": 1.7530320512,
				"y": 3.1693303021,
				"z": -2.7859513863,
				"element": "H" 
			},
			{
				"x": -0.5861774947,
				"y": 5.4857056172,
				"z": -0.0128071024,
				"element": "H" 
			}
		],
		 "valence_orbital": [ 
			{
				"type": "occ",
				"energy": -0.27117,
				"method": "rhf"
			},
			{
				"type": "occ",
				"energy": -0.26804,
				"method": "rhf"
			},
			{
				"type": "occ",
				"energy": -0.26129,
				"method": "rhf"
			},
			{
				"type": "occ",
				"energy": -0.25512,
				"method": "rhf"
			},
			{
				"type": "occ",
				"energy": -0.24737,
				"method": "rhf"
			},
			{
				"type": "unocc",
				"energy": -0.0483,
				"method": "rhf"
			},
			{
				"type": "unocc",
				"energy": -0.04086,
				"method": "rhf"
			},
			{
				"type": "unocc",
				"energy": -0.03378,
				"method": "rhf"
			},
			{
				"type": "unocc",
				"energy": -0.01381,
				"method": "rhf"
			},
			{
				"type": "unocc",
				"energy": -0.00455,
				"method": "rhf"
			}
		],
		"cosmo_sigma_profile": { 
			"-0.025": 0.0,
			"-0.024": 0.0,
			"-0.023": 0.0,
			"-0.022": 0.0,
			"-0.021": 0.0,
			"-0.02": 0.0,
			"-0.019": 0.0,
			"-0.018": 0.0,
			"-0.017": 0.0,
			"-0.016": 0.0,
			"-0.015": 0.0,
			"-0.014": 0.0,
			"-0.013": 0.0,
			"-0.012": 0.0,
			"-0.011": 0.0907735481846,
			"-0.01": 0.942041526586,
			"-0.009": 3.0198973576,
			"-0.008": 7.38418946006,
			"-0.007": 8.1759134477,
			"-0.006": 15.398680823,
			"-0.005": 17.2479449186,
			"-0.004": 25.1992568698,
			"-0.003": 25.4423768684,
			"-0.002": 32.9453117935,
			"-0.001": 38.3865828587,
			"0.0": 48.7160127489,
			"0.001": 47.0704792362,
			"0.002": 24.0537323425,
			"0.003": 26.2384806717,
			"0.004": 24.8458590285,
			"0.005": 5.52785988752,
			"0.006": 3.14095111546,
			"0.007": 3.39044552315,
			"0.008": 2.88064579383,
			"0.009": 2.60605569965,
			"0.01": 3.18136604067,
			"0.011": 3.43571838322,
			"0.012": 6.59213635718,
			"0.013": 5.64483304288,
			"0.014": 0.198897877627,
			"0.015": 0.0,
			"0.016": 0.0,
			"0.017": 0.0,
			"0.018": 0.0,
			"0.019": 0.0,
			"0.02": 0.0,
			"0.021": 0.0,
			"0.022": 0.0,
			"0.023": 0.0,
			"0.024": 0.0,
			"0.025": 0.0
		}
	}
}
