{
	 "smiles": "OC(=O)C1=C(OC2=CC=C(F)C=C2)C=C(Br)C=C1", 
	 "Tm": 461.15, 
	 "num_atms": 26, 
	 "gaussian": { 
		 "optdone": 1, 
		 "sigma_profile": "yes", 
		 "theory": "DFT", 
		 "functional": "B3LYP", 
		 "basiset": "6-31G**", 
		 "properties": { 
			 "R2extent": 7663.8981, 
			 "electric_dipole_moment_norm": 1.5125961424, 
			 "electric_quadrupole_moment_norm": 10.9124029925, 
			 "total_energy": -3397.11585475, 
			 "HOMO_LUMO_gap": 0.18792, 
			 "cosmo_polarized_energy": -11.61, 
			 "cosmo_cavitation_energy": 34.82, 
			 "cosmo_dispersion_energy": -24.8, 
			 "cosmo_repulsion_energy": 1.92, 
			 "cosmo_total_nonelectrostatic_energy": 11.93, 
			 "SMD_solvation_energy": 6.76 
		},
		"coords": [
			{
				"x": 1.4000408355,
				"y": 1.3467979349,
				"z": 2.4442377295,
				"element": "O" 
			},
			{
				"x": 2.4140996186,
				"y": 0.9857728499,
				"z": 1.630128808,
				"element": "C" 
			},
			{
				"x": 3.566885302,
				"y": 0.9572864321,
				"z": 2.0231280968,
				"element": "O" 
			},
			{
				"x": 2.0213367273,
				"y": 0.6308910421,
				"z": 0.2363553903,
				"element": "C" 
			},
			{
				"x": 0.7104231413,
				"y": 0.6379307674,
				"z": -0.2962666178,
				"element": "C" 
			},
			{
				"x": -0.3201296618,
				"y": 0.9986778082,
				"z": 0.5226622202,
				"element": "O" 
			},
			{
				"x": -1.6237540617,
				"y": 1.0384783562,
				"z": 0.0416738437,
				"element": "C" 
			},
			{
				"x": -2.1198549676,
				"y": 2.225332328,
				"z": -0.498902671,
				"element": "C" 
			},
			{
				"x": -3.4542925772,
				"y": 2.294421046,
				"z": -0.8988291482,
				"element": "C" 
			},
			{
				"x": -4.2605179819,
				"y": 1.1710605387,
				"z": -0.7451006958,
				"element": "C" 
			},
			{
				"x": -5.5510771939,
				"y": 1.2363986159,
				"z": -1.1290624863,
				"element": "F" 
			},
			{
				"x": -3.7779731135,
				"y": -0.0160429754,
				"z": -0.2036193451,
				"element": "C" 
			},
			{
				"x": -2.4426362676,
				"y": -0.0806736596,
				"z": 0.1944416284,
				"element": "C" 
			},
			{
				"x": 0.4953936284,
				"y": 0.2776611681,
				"z": -1.6334646833,
				"element": "C" 
			},
			{
				"x": 1.5764724014,
				"y": -0.0845552894,
				"z": -2.4288299819,
				"element": "C" 
			},
			{
				"x": 1.2568512887,
				"y": -0.5708978428,
				"z": -4.2463168664,
				"element": "Br" 
			},
			{
				"x": 2.8800901768,
				"y": -0.1017006433,
				"z": -1.9351008151,
				"element": "C" 
			},
			{
				"x": 3.078067971,
				"y": 0.2570060273,
				"z": -0.6086438867,
				"element": "C" 
			},
			{
				"x": 1.8228738076,
				"y": 1.5418953025,
				"z": 3.2978402512,
				"element": "H" 
			},
			{
				"x": -1.4645090044,
				"y": 3.0845814419,
				"z": -0.5934659323,
				"element": "H" 
			},
			{
				"x": -3.8733755218,
				"y": 3.2016810905,
				"z": -1.3196243199,
				"element": "H" 
			},
			{
				"x": -4.4430188563,
				"y": -0.8657168107,
				"z": -0.0959966567,
				"element": "H" 
			},
			{
				"x": -2.0338268627,
				"y": -0.9859449872,
				"z": 0.6303759551,
				"element": "H" 
			},
			{
				"x": -0.5059005838,
				"y": 0.2816095303,
				"z": -2.0419892849,
				"element": "H" 
			},
			{
				"x": 3.710274671,
				"y": -0.386585116,
				"z": -2.569430686,
				"element": "H" 
			},
			{
				"x": 4.0745570844,
				"y": 0.2583350442,
				"z": -0.1809998458,
				"element": "H" 
			}
		],
		 "valence_orbital": [ 
			{
				"type": "occ",
				"energy": -0.27902,
				"method": "rhf"
			},
			{
				"type": "occ",
				"energy": -0.27852,
				"method": "rhf"
			},
			{
				"type": "occ",
				"energy": -0.25966,
				"method": "rhf"
			},
			{
				"type": "occ",
				"energy": -0.25207,
				"method": "rhf"
			},
			{
				"type": "occ",
				"energy": -0.24413,
				"method": "rhf"
			},
			{
				"type": "unocc",
				"energy": -0.05621,
				"method": "rhf"
			},
			{
				"type": "unocc",
				"energy": -0.02697,
				"method": "rhf"
			},
			{
				"type": "unocc",
				"energy": -0.01381,
				"method": "rhf"
			},
			{
				"type": "unocc",
				"energy": -0.01311,
				"method": "rhf"
			},
			{
				"type": "unocc",
				"energy": 0.00028,
				"method": "rhf"
			}
		],
		"cosmo_sigma_profile": { 
			"-0.025": 0.0,
			"-0.024": 0.0,
			"-0.023": 0.0,
			"-0.022": 0.0,
			"-0.021": 0.0,
			"-0.02": 0.0,
			"-0.019": 0.0321429167508,
			"-0.018": 0.586325400691,
			"-0.017": 0.853452219814,
			"-0.016": 0.900993243719,
			"-0.015": 1.03255785022,
			"-0.014": 0.385567124654,
			"-0.013": 0.358154702493,
			"-0.012": 1.33071249312,
			"-0.011": 0.678840638214,
			"-0.01": 0.629961566076,
			"-0.009": 0.258359660605,
			"-0.008": 4.3735904527,
			"-0.007": 11.0822709798,
			"-0.006": 14.2519141651,
			"-0.005": 12.9777269699,
			"-0.004": 12.5328890936,
			"-0.003": 16.1129902695,
			"-0.002": 18.2097316878,
			"-0.001": 18.6671728243,
			"0.0": 28.0686489983,
			"0.001": 34.4471585305,
			"0.002": 32.1634850262,
			"0.003": 20.911214585,
			"0.004": 23.14065188,
			"0.005": 5.73186354082,
			"0.006": 2.21281131683,
			"0.007": 2.76179600567,
			"0.008": 3.13724161342,
			"0.009": 2.6520281381,
			"0.01": 3.58568694012,
			"0.011": 4.71206388356,
			"0.012": 4.99033190769,
			"0.013": 0.114356467675,
			"0.014": 0.0,
			"0.015": 0.0,
			"0.016": 0.0,
			"0.017": 0.0,
			"0.018": 0.0,
			"0.019": 0.0,
			"0.02": 0.0,
			"0.021": 0.0,
			"0.022": 0.0,
			"0.023": 0.0,
			"0.024": 0.0,
			"0.025": 0.0
		}
	}
}
