{
	 "smiles": "CCOC(=O)C1=C(C)NC(=O)NC1CCl", 
	 "Tm": 443.15, 
	 "num_atms": 28, 
	 "gaussian": { 
		 "optdone": 1, 
		 "sigma_profile": "yes", 
		 "theory": "DFT", 
		 "functional": "B3LYP", 
		 "basiset": "6-31G**", 
		 "properties": { 
			 "R2extent": 4964.7029, 
			 "electric_dipole_moment_norm": 3.12668999583, 
			 "electric_quadrupole_moment_norm": 20.5838867008, 
			 "total_energy": -1146.20497761, 
			 "HOMO_LUMO_gap": 0.18906, 
			 "cosmo_polarized_energy": -17.95, 
			 "cosmo_cavitation_energy": 32.57, 
			 "cosmo_dispersion_energy": -22.96, 
			 "cosmo_repulsion_energy": 1.84, 
			 "cosmo_total_nonelectrostatic_energy": 11.45, 
			 "SMD_solvation_energy": 6.44 
		},
		"coords": [
			{
				"x": 1.621431828,
				"y": 2.6380865806,
				"z": -1.1985996412,
				"element": "C" 
			},
			{
				"x": 2.0879859271,
				"y": 1.499773169,
				"z": -2.0939894747,
				"element": "C" 
			},
			{
				"x": 1.3259998002,
				"y": 0.2928548855,
				"z": -1.8620997251,
				"element": "O" 
			},
			{
				"x": 1.7515237186,
				"y": -0.5055899957,
				"z": -0.8358643584,
				"element": "C" 
			},
			{
				"x": 2.7146602531,
				"y": -0.2143486333,
				"z": -0.1423823663,
				"element": "O" 
			},
			{
				"x": 0.9233750816,
				"y": -1.7070873932,
				"z": -0.7173501913,
				"element": "C" 
			},
			{
				"x": 1.1757214097,
				"y": -2.6338933817,
				"z": 0.2551143821,
				"element": "C" 
			},
			{
				"x": 2.2358527166,
				"y": -2.5291600397,
				"z": 1.3186047807,
				"element": "C" 
			},
			{
				"x": 0.4321701942,
				"y": -3.7914855746,
				"z": 0.2941936475,
				"element": "N" 
			},
			{
				"x": -0.4525415585,
				"y": -4.2188822708,
				"z": -0.7031871065,
				"element": "C" 
			},
			{
				"x": -0.9790866483,
				"y": -5.318604568,
				"z": -0.6562503469,
				"element": "O" 
			},
			{
				"x": -0.5989803705,
				"y": -3.3266090705,
				"z": -1.7285767392,
				"element": "N" 
			},
			{
				"x": -0.2327348178,
				"y": -1.9136356027,
				"z": -1.6810920373,
				"element": "C" 
			},
			{
				"x": -1.4467540329,
				"y": -1.0018234296,
				"z": -1.4069997721,
				"element": "C" 
			},
			{
				"x": -2.1990862974,
				"y": -1.2683914744,
				"z": 0.2193276491,
				"element": "Cl" 
			},
			{
				"x": 2.1704638905,
				"y": 3.5531643756,
				"z": -1.445027923,
				"element": "H" 
			},
			{
				"x": 0.5534742565,
				"y": 2.8336565571,
				"z": -1.3359113908,
				"element": "H" 
			},
			{
				"x": 1.8064982139,
				"y": 2.3989368816,
				"z": -0.148915313,
				"element": "H" 
			},
			{
				"x": 1.9214452397,
				"y": 1.7273590839,
				"z": -3.1500386595,
				"element": "H" 
			},
			{
				"x": 3.1463805123,
				"y": 1.2836532745,
				"z": -1.9318407137,
				"element": "H" 
			},
			{
				"x": 2.140396541,
				"y": -3.3484747949,
				"z": 2.0371698663,
				"element": "H" 
			},
			{
				"x": 2.1694725169,
				"y": -1.5751359724,
				"z": 1.8425291687,
				"element": "H" 
			},
			{
				"x": 3.2331473549,
				"y": -2.5614470387,
				"z": 0.8724780706,
				"element": "H" 
			},
			{
				"x": 0.595423567,
				"y": -4.476830147,
				"z": 1.0169803157,
				"element": "H" 
			},
			{
				"x": -1.27987712,
				"y": -3.6217198261,
				"z": -2.4146124254,
				"element": "H" 
			},
			{
				"x": 0.097861253,
				"y": -1.622601899,
				"z": -2.686585648,
				"element": "H" 
			},
			{
				"x": -2.2341120819,
				"y": -1.1842415096,
				"z": -2.142600958,
				"element": "H" 
			},
			{
				"x": -1.1408113475,
				"y": 0.0423778143,
				"z": -1.4544730904,
				"element": "H" 
			}
		],
		 "valence_orbital": [ 
			{
				"type": "occ",
				"energy": -0.29483,
				"method": "rhf"
			},
			{
				"type": "occ",
				"energy": -0.27388,
				"method": "rhf"
			},
			{
				"type": "occ",
				"energy": -0.27103,
				"method": "rhf"
			},
			{
				"type": "occ",
				"energy": -0.26066,
				"method": "rhf"
			},
			{
				"type": "occ",
				"energy": -0.22886,
				"method": "rhf"
			},
			{
				"type": "unocc",
				"energy": -0.0398,
				"method": "rhf"
			},
			{
				"type": "unocc",
				"energy": 0.02696,
				"method": "rhf"
			},
			{
				"type": "unocc",
				"energy": 0.05352,
				"method": "rhf"
			},
			{
				"type": "unocc",
				"energy": 0.06367,
				"method": "rhf"
			},
			{
				"type": "unocc",
				"energy": 0.07959,
				"method": "rhf"
			}
		],
		"cosmo_sigma_profile": { 
			"-0.025": 0.0,
			"-0.024": 0.0,
			"-0.023": 0.0,
			"-0.022": 0.0,
			"-0.021": 0.0,
			"-0.02": 0.0,
			"-0.019": 0.0,
			"-0.018": 0.0,
			"-0.017": 0.0,
			"-0.016": 0.189427498482,
			"-0.015": 1.21049856973,
			"-0.014": 2.82897180266,
			"-0.013": 2.58845203902,
			"-0.012": 2.77453107417,
			"-0.011": 2.53446178265,
			"-0.01": 1.88597346119,
			"-0.009": 3.32290960913,
			"-0.008": 3.91554109157,
			"-0.007": 4.80647034824,
			"-0.006": 6.87385957655,
			"-0.005": 12.6037314226,
			"-0.004": 18.0487736477,
			"-0.003": 22.8638417839,
			"-0.002": 22.9338736316,
			"-0.001": 23.7503392838,
			"0.0": 20.6230637556,
			"0.001": 15.8159438139,
			"0.002": 11.6939390357,
			"0.003": 10.5144126353,
			"0.004": 12.995919375,
			"0.005": 10.9899588121,
			"0.006": 10.407464684,
			"0.007": 5.45932693657,
			"0.008": 3.02144357704,
			"0.009": 2.72015642297,
			"0.01": 2.0623093375,
			"0.011": 3.35710249211,
			"0.012": 4.29819849037,
			"0.013": 7.94142344507,
			"0.014": 3.17049425103,
			"0.015": 0.00779742584132,
			"0.016": 0.0,
			"0.017": 0.0,
			"0.018": 0.0,
			"0.019": 0.0,
			"0.02": 0.0,
			"0.021": 0.0,
			"0.022": 0.0,
			"0.023": 0.0,
			"0.024": 0.0,
			"0.025": 0.0
		}
	}
}
