{
	 "smiles": "COC(=O)C1=CC=C(C=C1)C1=CC=CC=C1", 
	 "Tm": 390.65, 
	 "num_atms": 28, 
	 "gaussian": { 
		 "optdone": 1, 
		 "sigma_profile": "yes", 
		 "theory": "DFT", 
		 "functional": "B3LYP", 
		 "basiset": "6-31G**", 
		 "properties": { 
			 "R2extent": 5744.9057, 
			 "electric_dipole_moment_norm": 2.06892855362, 
			 "electric_quadrupole_moment_norm": 13.5682853268, 
			 "total_energy": -691.190846533, 
			 "HOMO_LUMO_gap": 0.17768, 
			 "cosmo_polarized_energy": -8.84, 
			 "cosmo_cavitation_energy": 32.5, 
			 "cosmo_dispersion_energy": -23.75, 
			 "cosmo_repulsion_energy": 1.83, 
			 "cosmo_total_nonelectrostatic_energy": 10.58, 
			 "SMD_solvation_energy": 6.91 
		},
		"coords": [
			{
				"x": 1.3885666833,
				"y": 2.1589491051,
				"z": -4.7404790501,
				"element": "C" 
			},
			{
				"x": 1.0973105452,
				"y": 1.4962181286,
				"z": -3.5014445884,
				"element": "O" 
			},
			{
				"x": -0.1827741058,
				"y": 1.077074776,
				"z": -3.3603551411,
				"element": "C" 
			},
			{
				"x": -1.0312376555,
				"y": 1.2447206242,
				"z": -4.2156725867,
				"element": "O" 
			},
			{
				"x": -0.4200070955,
				"y": 0.3995851159,
				"z": -2.0567907601,
				"element": "C" 
			},
			{
				"x": 0.5878383073,
				"y": 0.2279275817,
				"z": -1.0979136983,
				"element": "C" 
			},
			{
				"x": 0.306471042,
				"y": -0.413343894,
				"z": 0.1040619325,
				"element": "C" 
			},
			{
				"x": -0.9825083094,
				"y": -0.9020904646,
				"z": 0.3834947522,
				"element": "C" 
			},
			{
				"x": -1.9841551551,
				"y": -0.7234730488,
				"z": -0.5884513443,
				"element": "C" 
			},
			{
				"x": -1.7086476376,
				"y": -0.0820361366,
				"z": -1.790019768,
				"element": "C" 
			},
			{
				"x": -1.2774873515,
				"y": -1.5865087113,
				"z": 1.6670777858,
				"element": "C" 
			},
			{
				"x": -0.3338567014,
				"y": -2.4409482584,
				"z": 2.2630971716,
				"element": "C" 
			},
			{
				"x": -0.6114750945,
				"y": -3.0841887571,
				"z": 3.4682314746,
				"element": "C" 
			},
			{
				"x": -1.8384019258,
				"y": -2.8862982648,
				"z": 4.1045890581,
				"element": "C" 
			},
			{
				"x": -2.785489508,
				"y": -2.0399744757,
				"z": 3.5247534395,
				"element": "C" 
			},
			{
				"x": -2.5083692094,
				"y": -1.397657722,
				"z": 2.3190112993,
				"element": "C" 
			},
			{
				"x": 2.4440571995,
				"y": 2.426776468,
				"z": -4.6904218377,
				"element": "H" 
			},
			{
				"x": 0.7705661836,
				"y": 3.0532638174,
				"z": -4.8542563377,
				"element": "H" 
			},
			{
				"x": 1.2010366267,
				"y": 1.4936918458,
				"z": -5.5871933977,
				"element": "H" 
			},
			{
				"x": 1.5842017484,
				"y": 0.6063970817,
				"z": -1.2954606573,
				"element": "H" 
			},
			{
				"x": 1.088655168,
				"y": -0.5152791483,
				"z": 0.8500508631,
				"element": "H" 
			},
			{
				"x": -2.980031591,
				"y": -1.1159308094,
				"z": -0.4072493323,
				"element": "H" 
			},
			{
				"x": -2.4775608626,
				"y": 0.0494111485,
				"z": -2.5438933553,
				"element": "H" 
			},
			{
				"x": 0.6129522932,
				"y": -2.6225695494,
				"z": 1.7631805156,
				"element": "H" 
			},
			{
				"x": 0.1287498264,
				"y": -3.747539952,
				"z": 3.9065760961,
				"element": "H" 
			},
			{
				"x": -2.0545712283,
				"y": -3.3872019714,
				"z": 5.0437311299,
				"element": "H" 
			},
			{
				"x": -3.7398156584,
				"y": -1.8726730727,
				"z": 4.0160371057,
				"element": "H" 
			},
			{
				"x": -3.2417165339,
				"y": -0.7213014562,
				"z": 1.8900092311,
				"element": "H" 
			}
		],
		 "valence_orbital": [ 
			{
				"type": "occ",
				"energy": -0.279,
				"method": "rhf"
			},
			{
				"type": "occ",
				"energy": -0.27087,
				"method": "rhf"
			},
			{
				"type": "occ",
				"energy": -0.2581,
				"method": "rhf"
			},
			{
				"type": "occ",
				"energy": -0.25491,
				"method": "rhf"
			},
			{
				"type": "occ",
				"energy": -0.23093,
				"method": "rhf"
			},
			{
				"type": "unocc",
				"energy": -0.05325,
				"method": "rhf"
			},
			{
				"type": "unocc",
				"energy": -0.0094,
				"method": "rhf"
			},
			{
				"type": "unocc",
				"energy": -0.00476,
				"method": "rhf"
			},
			{
				"type": "unocc",
				"energy": 0.0023,
				"method": "rhf"
			},
			{
				"type": "unocc",
				"energy": 0.06608,
				"method": "rhf"
			}
		],
		"cosmo_sigma_profile": { 
			"-0.025": 0.0,
			"-0.024": 0.0,
			"-0.023": 0.0,
			"-0.022": 0.0,
			"-0.021": 0.0,
			"-0.02": 0.0,
			"-0.019": 0.0,
			"-0.018": 0.0,
			"-0.017": 0.0,
			"-0.016": 0.0,
			"-0.015": 0.0,
			"-0.014": 0.0,
			"-0.013": 0.0,
			"-0.012": 0.0,
			"-0.011": 0.0,
			"-0.01": 0.0,
			"-0.009": 0.0,
			"-0.008": 0.0,
			"-0.007": 0.903440913165,
			"-0.006": 16.4128058866,
			"-0.005": 24.8185285175,
			"-0.004": 25.4999826445,
			"-0.003": 25.1015863151,
			"-0.002": 18.5847926256,
			"-0.001": 16.032681056,
			"0.0": 14.9210455401,
			"0.001": 19.8065474717,
			"0.002": 22.2192836614,
			"0.003": 22.9125725767,
			"0.004": 19.9187671822,
			"0.005": 13.7444871385,
			"0.006": 5.31989377437,
			"0.007": 1.41780707225,
			"0.008": 1.69771623231,
			"0.009": 1.81292446989,
			"0.01": 1.5531131757,
			"0.011": 2.62912762346,
			"0.012": 4.66950101579,
			"0.013": 0.441274914162,
			"0.014": 0.0,
			"0.015": 0.0,
			"0.016": 0.0,
			"0.017": 0.0,
			"0.018": 0.0,
			"0.019": 0.0,
			"0.02": 0.0,
			"0.021": 0.0,
			"0.022": 0.0,
			"0.023": 0.0,
			"0.024": 0.0,
			"0.025": 0.0
		}
	}
}
