{
	 "smiles": "CC1=NN=C(NN)C=C1", 
	 "Tm": 381.15, 
	 "num_atms": 17, 
	 "gaussian": { 
		 "optdone": 1, 
		 "sigma_profile": "yes", 
		 "theory": "DFT", 
		 "functional": "B3LYP", 
		 "basiset": "6-31G**", 
		 "properties": { 
			 "R2extent": 1849.1541, 
			 "electric_dipole_moment_norm": 3.33794021816, 
			 "electric_quadrupole_moment_norm": 8.07506972725, 
			 "total_energy": -414.29475306, 
			 "HOMO_LUMO_gap": 0.17948, 
			 "cosmo_polarized_energy": -13.97, 
			 "cosmo_cavitation_energy": 20.96, 
			 "cosmo_dispersion_energy": -15.82, 
			 "cosmo_repulsion_energy": 1.32, 
			 "cosmo_total_nonelectrostatic_energy": 6.46, 
			 "SMD_solvation_energy": 2.62 
		},
		"coords": [
			{
				"x": 0.9667822162,
				"y": -3.5174405321,
				"z": -0.1913514126,
				"element": "C" 
			},
			{
				"x": 1.2621308948,
				"y": -2.0442850317,
				"z": -0.0842967303,
				"element": "C" 
			},
			{
				"x": 0.6852476107,
				"y": -1.2505728904,
				"z": -0.9848202625,
				"element": "N" 
			},
			{
				"x": 0.8911412473,
				"y": 0.0715255929,
				"z": -0.9641524312,
				"element": "N" 
			},
			{
				"x": 1.678361352,
				"y": 0.6120532714,
				"z": -0.0273791118,
				"element": "C" 
			},
			{
				"x": 1.8139689738,
				"y": 1.9888457082,
				"z": -0.0368835923,
				"element": "N" 
			},
			{
				"x": 1.3647524388,
				"y": 2.7487360122,
				"z": -1.1418421156,
				"element": "N" 
			},
			{
				"x": 2.3326508194,
				"y": -0.1692618902,
				"z": 0.9547173066,
				"element": "C" 
			},
			{
				"x": 2.1130062936,
				"y": -1.5231283995,
				"z": 0.9180119916,
				"element": "C" 
			},
			{
				"x": 0.4832400193,
				"y": -3.8956448111,
				"z": 0.7169896748,
				"element": "H" 
			},
			{
				"x": 0.3016937209,
				"y": -3.6912984648,
				"z": -1.0388947712,
				"element": "H" 
			},
			{
				"x": 1.8834975112,
				"y": -4.1003332121,
				"z": -0.3387073882,
				"element": "H" 
			},
			{
				"x": 2.6696502069,
				"y": 2.3541124506,
				"z": 0.3578285748,
				"element": "H" 
			},
			{
				"x": 1.4347596241,
				"y": 2.159822193,
				"z": -1.9741124113,
				"element": "H" 
			},
			{
				"x": 0.3647824991,
				"y": 2.8966214827,
				"z": -1.0128925486,
				"element": "H" 
			},
			{
				"x": 2.9720815472,
				"y": 0.293016205,
				"z": 1.7019846896,
				"element": "H" 
			},
			{
				"x": 2.5805530246,
				"y": -2.1868676841,
				"z": 1.6401005382,
				"element": "H" 
			}
		],
		 "valence_orbital": [ 
			{
				"type": "occ",
				"energy": -0.30876,
				"method": "rhf"
			},
			{
				"type": "occ",
				"energy": -0.29606,
				"method": "rhf"
			},
			{
				"type": "occ",
				"energy": -0.27163,
				"method": "rhf"
			},
			{
				"type": "occ",
				"energy": -0.22328,
				"method": "rhf"
			},
			{
				"type": "occ",
				"energy": -0.22038,
				"method": "rhf"
			},
			{
				"type": "unocc",
				"energy": -0.0409,
				"method": "rhf"
			},
			{
				"type": "unocc",
				"energy": -0.00177,
				"method": "rhf"
			},
			{
				"type": "unocc",
				"energy": 0.08648,
				"method": "rhf"
			},
			{
				"type": "unocc",
				"energy": 0.09796,
				"method": "rhf"
			},
			{
				"type": "unocc",
				"energy": 0.10544,
				"method": "rhf"
			}
		],
		"cosmo_sigma_profile": { 
			"-0.025": 0.0,
			"-0.024": 0.0,
			"-0.023": 0.0,
			"-0.022": 0.0,
			"-0.021": 0.0,
			"-0.02": 0.0,
			"-0.019": 0.0,
			"-0.018": 0.0,
			"-0.017": 0.0,
			"-0.016": 0.0,
			"-0.015": 0.0,
			"-0.014": 0.492976078192,
			"-0.013": 1.7105759212,
			"-0.012": 1.27147835173,
			"-0.011": 2.33394539946,
			"-0.01": 2.54055786679,
			"-0.009": 3.76774925403,
			"-0.008": 5.46570040515,
			"-0.007": 6.55047917084,
			"-0.006": 6.85556172946,
			"-0.005": 8.91078010155,
			"-0.004": 12.7299248478,
			"-0.003": 10.1562509994,
			"-0.002": 11.0253336967,
			"-0.001": 12.0806214342,
			"0.0": 14.9907022848,
			"0.001": 12.8383566221,
			"0.002": 8.54817169184,
			"0.003": 3.9602086016,
			"0.004": 4.45994523642,
			"0.005": 3.95399300918,
			"0.006": 3.58763910093,
			"0.007": 3.8343918959,
			"0.008": 2.37847980578,
			"0.009": 3.12567390589,
			"0.01": 2.33491092899,
			"0.011": 1.92279714346,
			"0.012": 2.43767970163,
			"0.013": 2.89934622006,
			"0.014": 2.46855908364,
			"0.015": 3.17991359885,
			"0.016": 2.02236469819,
			"0.017": 0.955704050126,
			"0.018": 0.0299374171536,
			"0.019": 0.0,
			"0.02": 0.0,
			"0.021": 0.0,
			"0.022": 0.0,
			"0.023": 0.0,
			"0.024": 0.0,
			"0.025": 0.0
		}
	}
}
