{
	 "smiles": "CC(=O)C1=CC=C(C=C1)C1=CC(Cl)=C(Cl)C=C1", 
	 "Tm": 409.15, 
	 "num_atms": 27, 
	 "gaussian": { 
		 "optdone": 1, 
		 "sigma_profile": "yes", 
		 "theory": "DFT", 
		 "functional": "B3LYP", 
		 "basiset": "6-31G**", 
		 "properties": { 
			 "R2extent": 10919.2475, 
			 "electric_dipole_moment_norm": 1.50670585716, 
			 "electric_quadrupole_moment_norm": 23.1460580287, 
			 "total_energy": -1535.13591653, 
			 "HOMO_LUMO_gap": 0.16918, 
			 "cosmo_polarized_energy": -10.61, 
			 "cosmo_cavitation_energy": 35.28, 
			 "cosmo_dispersion_energy": -25.74, 
			 "cosmo_repulsion_energy": 1.97, 
			 "cosmo_total_nonelectrostatic_energy": 11.51, 
			 "SMD_solvation_energy": 5.9 
		},
		"coords": [
			{
				"x": 1.5415774306,
				"y": 3.1185435165,
				"z": -0.8654341302,
				"element": "C" 
			},
			{
				"x": 1.5643753206,
				"y": 1.7327048183,
				"z": -1.4875038091,
				"element": "C" 
			},
			{
				"x": 2.2140789624,
				"y": 1.5149739735,
				"z": -2.4992023483,
				"element": "O" 
			},
			{
				"x": 0.775937463,
				"y": 0.6343298944,
				"z": -0.8388406545,
				"element": "C" 
			},
			{
				"x": 0.8038069831,
				"y": -0.6402523588,
				"z": -1.4261066572,
				"element": "C" 
			},
			{
				"x": 0.0925301158,
				"y": -1.6943424501,
				"z": -0.8689325209,
				"element": "C" 
			},
			{
				"x": -0.6728558621,
				"y": -1.5122354651,
				"z": 0.2983149832,
				"element": "C" 
			},
			{
				"x": -0.6975258447,
				"y": -0.235298254,
				"z": 0.8837941176,
				"element": "C" 
			},
			{
				"x": 0.0146145585,
				"y": 0.8219671066,
				"z": 0.3238572171,
				"element": "C" 
			},
			{
				"x": -1.430369997,
				"y": -2.6400676905,
				"z": 0.8941334325,
				"element": "C" 
			},
			{
				"x": -2.6888622797,
				"y": -2.4286607203,
				"z": 1.4754756772,
				"element": "C" 
			},
			{
				"x": -3.4089794186,
				"y": -3.4804525336,
				"z": 2.041132059,
				"element": "C" 
			},
			{
				"x": -4.9753698599,
				"y": -3.142093775,
				"z": 2.7372048544,
				"element": "Cl" 
			},
			{
				"x": -2.8777265195,
				"y": -4.7770784658,
				"z": 2.0337161621,
				"element": "C" 
			},
			{
				"x": -3.7394913387,
				"y": -6.1255673259,
				"z": 2.7288877791,
				"element": "Cl" 
			},
			{
				"x": -1.6252154692,
				"y": -4.998270248,
				"z": 1.4559225417,
				"element": "C" 
			},
			{
				"x": -0.9118563202,
				"y": -3.9456464446,
				"z": 0.893748491,
				"element": "C" 
			},
			{
				"x": 1.9276570776,
				"y": 3.0953203834,
				"z": 0.1597508928,
				"element": "H" 
			},
			{
				"x": 0.5208170715,
				"y": 3.5140179434,
				"z": -0.8211365577,
				"element": "H" 
			},
			{
				"x": 2.1608455554,
				"y": 3.7819549282,
				"z": -1.4695642765,
				"element": "H" 
			},
			{
				"x": 1.3883719642,
				"y": -0.7737221507,
				"z": -2.3302008266,
				"element": "H" 
			},
			{
				"x": 0.1046918367,
				"y": -2.6652841501,
				"z": -1.3548985928,
				"element": "H" 
			},
			{
				"x": -1.256905904,
				"y": -0.0760083753,
				"z": 1.8006123395,
				"element": "H" 
			},
			{
				"x": -0.0201250482,
				"y": 1.793182908,
				"z": 0.8067757491,
				"element": "H" 
			},
			{
				"x": -3.1349865172,
				"y": -1.4407373912,
				"z": 1.4691105246,
				"element": "H" 
			},
			{
				"x": -1.2142046276,
				"y": -6.0017072559,
				"z": 1.4614524074,
				"element": "H" 
			},
			{
				"x": 0.0703706672,
				"y": -4.1367704173,
				"z": 0.4743311457,
				"element": "H" 
			}
		],
		 "valence_orbital": [ 
			{
				"type": "occ",
				"energy": -0.28393,
				"method": "rhf"
			},
			{
				"type": "occ",
				"energy": -0.27002,
				"method": "rhf"
			},
			{
				"type": "occ",
				"energy": -0.26544,
				"method": "rhf"
			},
			{
				"type": "occ",
				"energy": -0.25301,
				"method": "rhf"
			},
			{
				"type": "occ",
				"energy": -0.24131,
				"method": "rhf"
			},
			{
				"type": "unocc",
				"energy": -0.07213,
				"method": "rhf"
			},
			{
				"type": "unocc",
				"energy": -0.03158,
				"method": "rhf"
			},
			{
				"type": "unocc",
				"energy": -0.0235,
				"method": "rhf"
			},
			{
				"type": "unocc",
				"energy": -0.02,
				"method": "rhf"
			},
			{
				"type": "unocc",
				"energy": -0.00095,
				"method": "rhf"
			}
		],
		"cosmo_sigma_profile": { 
			"-0.025": 0.0,
			"-0.024": 0.0,
			"-0.023": 0.0,
			"-0.022": 0.0,
			"-0.021": 0.0,
			"-0.02": 0.0,
			"-0.019": 0.0,
			"-0.018": 0.0,
			"-0.017": 0.0,
			"-0.016": 0.0,
			"-0.015": 0.0,
			"-0.014": 0.0,
			"-0.013": 0.0,
			"-0.012": 0.0,
			"-0.011": 0.0,
			"-0.01": 0.0,
			"-0.009": 0.0214134810861,
			"-0.008": 2.40021681318,
			"-0.007": 10.7729377847,
			"-0.006": 19.4814793236,
			"-0.005": 18.2063415169,
			"-0.004": 16.16983649,
			"-0.003": 16.2738037014,
			"-0.002": 19.4490050862,
			"-0.001": 21.4998486866,
			"0.0": 26.5147484545,
			"0.001": 31.9665362334,
			"0.002": 30.0340593924,
			"0.003": 28.792671164,
			"0.004": 21.8037804917,
			"0.005": 6.49381818062,
			"0.006": 1.87522063851,
			"0.007": 1.68825441694,
			"0.008": 1.88316686855,
			"0.009": 1.98305544389,
			"0.01": 1.61985620645,
			"0.011": 3.40418977545,
			"0.012": 3.63732943524,
			"0.013": 1.62730052459,
			"0.014": 0.115780874911,
			"0.015": 0.0,
			"0.016": 0.0,
			"0.017": 0.0,
			"0.018": 0.0,
			"0.019": 0.0,
			"0.02": 0.0,
			"0.021": 0.0,
			"0.022": 0.0,
			"0.023": 0.0,
			"0.024": 0.0,
			"0.025": 0.0
		}
	}
}
