{
	 "smiles": "CC1=CC(=CC=C1N)[N+]([O-])=O", 
	 "Tm": 406.15, 
	 "num_atms": 19, 
	 "gaussian": { 
		 "optdone": 1, 
		 "sigma_profile": "yes", 
		 "theory": "DFT", 
		 "functional": "B3LYP", 
		 "basiset": "6-31G**", 
		 "properties": { 
			 "R2extent": 3258.0652, 
			 "electric_dipole_moment_norm": 7.27180497126, 
			 "electric_quadrupole_moment_norm": 18.3355340596, 
			 "total_energy": -531.43231448, 
			 "HOMO_LUMO_gap": 0.15632, 
			 "cosmo_polarized_energy": -15.07, 
			 "cosmo_cavitation_energy": 23.32, 
			 "cosmo_dispersion_energy": -17.33, 
			 "cosmo_repulsion_energy": 1.39, 
			 "cosmo_total_nonelectrostatic_energy": 7.38, 
			 "SMD_solvation_energy": 6.27 
		},
		"coords": [
			{
				"x": -2.3921585736,
				"y": -1.5723595126,
				"z": -1.6486977784,
				"element": "C" 
			},
			{
				"x": -0.8959175378,
				"y": -1.4226539851,
				"z": -1.5316527168,
				"element": "C" 
			},
			{
				"x": -0.1714933428,
				"y": -0.6922927943,
				"z": -2.4655576222,
				"element": "C" 
			},
			{
				"x": 1.2153752741,
				"y": -0.5689578083,
				"z": -2.3550408882,
				"element": "C" 
			},
			{
				"x": 1.9113681678,
				"y": -1.1744879078,
				"z": -1.3084511246,
				"element": "C" 
			},
			{
				"x": 1.2030046676,
				"y": -1.9035116553,
				"z": -0.3675937362,
				"element": "C" 
			},
			{
				"x": -0.1972855203,
				"y": -2.0395798598,
				"z": -0.4592839574,
				"element": "C" 
			},
			{
				"x": -0.8788774293,
				"y": -2.8097157309,
				"z": 0.4621671087,
				"element": "N" 
			},
			{
				"x": 1.9456086152,
				"y": 0.2048412145,
				"z": -3.3490279639,
				"element": "N" 
			},
			{
				"x": 1.3008323507,
				"y": 0.729876412,
				"z": -4.2615295301,
				"element": "O" 
			},
			{
				"x": 3.1704878269,
				"y": 0.2940663349,
				"z": -3.2248069663,
				"element": "O" 
			},
			{
				"x": -2.9175147452,
				"y": -1.136206986,
				"z": -0.7873131336,
				"element": "H" 
			},
			{
				"x": -2.7660478503,
				"y": -1.068957163,
				"z": -2.5428255194,
				"element": "H" 
			},
			{
				"x": -2.6874799864,
				"y": -2.6274005154,
				"z": -1.7093443658,
				"element": "H" 
			},
			{
				"x": -0.671904292,
				"y": -0.2075323823,
				"z": -3.2955036001,
				"element": "H" 
			},
			{
				"x": 2.986443815,
				"y": -1.0618034293,
				"z": -1.2474162035,
				"element": "H" 
			},
			{
				"x": 1.7300758403,
				"y": -2.3815106472,
				"z": 0.4538170309,
				"element": "H" 
			},
			{
				"x": -1.8675848819,
				"y": -2.6476590307,
				"z": 0.5744579697,
				"element": "H" 
			},
			{
				"x": -0.3978323979,
				"y": -3.0335545535,
				"z": 1.320302997,
				"element": "H" 
			}
		],
		 "valence_orbital": [ 
			{
				"type": "occ",
				"energy": -0.29134,
				"method": "rhf"
			},
			{
				"type": "occ",
				"energy": -0.29023,
				"method": "rhf"
			},
			{
				"type": "occ",
				"energy": -0.27194,
				"method": "rhf"
			},
			{
				"type": "occ",
				"energy": -0.26402,
				"method": "rhf"
			},
			{
				"type": "occ",
				"energy": -0.22557,
				"method": "rhf"
			},
			{
				"type": "unocc",
				"energy": -0.06925,
				"method": "rhf"
			},
			{
				"type": "unocc",
				"energy": -0.01489,
				"method": "rhf"
			},
			{
				"type": "unocc",
				"energy": 0.02228,
				"method": "rhf"
			},
			{
				"type": "unocc",
				"energy": 0.0571,
				"method": "rhf"
			},
			{
				"type": "unocc",
				"energy": 0.08895,
				"method": "rhf"
			}
		],
		"cosmo_sigma_profile": { 
			"-0.025": 0.0,
			"-0.024": 0.0,
			"-0.023": 0.0,
			"-0.022": 0.0,
			"-0.021": 0.0,
			"-0.02": 0.0,
			"-0.019": 0.0,
			"-0.018": 0.0,
			"-0.017": 0.0,
			"-0.016": 0.0,
			"-0.015": 0.0,
			"-0.014": 0.715379813944,
			"-0.013": 2.55524739662,
			"-0.012": 2.5120216604,
			"-0.011": 3.4553690954,
			"-0.01": 3.49770413673,
			"-0.009": 2.87916524656,
			"-0.008": 2.23778621012,
			"-0.007": 4.70429867895,
			"-0.006": 8.14682687809,
			"-0.005": 9.37713842049,
			"-0.004": 10.2691171555,
			"-0.003": 11.0556600899,
			"-0.002": 11.8808719347,
			"-0.001": 12.8216338429,
			"0.0": 14.8281102488,
			"0.001": 12.5802889254,
			"0.002": 12.0767512627,
			"0.003": 15.3103055093,
			"0.004": 5.94235050503,
			"0.005": 3.16594611761,
			"0.006": 4.06133399229,
			"0.007": 4.151199652,
			"0.008": 6.79479740825,
			"0.009": 10.5355419899,
			"0.01": 5.18078159733,
			"0.011": 3.84430258226,
			"0.012": 0.634738227836,
			"0.013": 0.0,
			"0.014": 0.0,
			"0.015": 0.0,
			"0.016": 0.0,
			"0.017": 0.0,
			"0.018": 0.0,
			"0.019": 0.0,
			"0.02": 0.0,
			"0.021": 0.0,
			"0.022": 0.0,
			"0.023": 0.0,
			"0.024": 0.0,
			"0.025": 0.0
		}
	}
}
