{
	 "smiles": "CCCC(C(O)=O)C1=CC=CC=C1", 
	 "Tm": 338.15, 
	 "num_atms": 27, 
	 "gaussian": { 
		 "optdone": 1, 
		 "sigma_profile": "yes", 
		 "theory": "DFT", 
		 "functional": "B3LYP", 
		 "basiset": "6-31G**", 
		 "properties": { 
			 "R2extent": 2711.1645, 
			 "electric_dipole_moment_norm": 1.78900273337, 
			 "electric_quadrupole_moment_norm": 12.3105345042, 
			 "total_energy": -578.082280163, 
			 "HOMO_LUMO_gap": 0.22985, 
			 "cosmo_polarized_energy": -9.56, 
			 "cosmo_cavitation_energy": 29.91, 
			 "cosmo_dispersion_energy": -20.69, 
			 "cosmo_repulsion_energy": 1.68, 
			 "cosmo_total_nonelectrostatic_energy": 10.9, 
			 "SMD_solvation_energy": 6.18 
		},
		"coords": [
			{
				"x": 3.0972245644,
				"y": -1.1565053344,
				"z": -0.6804238973,
				"element": "C" 
			},
			{
				"x": 1.7652361611,
				"y": -1.6227189836,
				"z": -0.0811027537,
				"element": "C" 
			},
			{
				"x": 1.0927175427,
				"y": -0.6039605576,
				"z": 0.8526726685,
				"element": "C" 
			},
			{
				"x": 0.6315250947,
				"y": 0.6991339321,
				"z": 0.1513396184,
				"element": "C" 
			},
			{
				"x": 0.1461133827,
				"y": 1.734882375,
				"z": 1.1590422155,
				"element": "C" 
			},
			{
				"x": -0.7482172908,
				"y": 1.227016657,
				"z": 2.0466699979,
				"element": "O" 
			},
			{
				"x": 0.4949638885,
				"y": 2.8937898109,
				"z": 1.1913333565,
				"element": "O" 
			},
			{
				"x": -0.4250237816,
				"y": 0.4668653949,
				"z": -0.9280358101,
				"element": "C" 
			},
			{
				"x": -1.6660226735,
				"y": -0.1170845976,
				"z": -0.6315172631,
				"element": "C" 
			},
			{
				"x": -2.6098140622,
				"y": -0.3284516382,
				"z": -1.6365558738,
				"element": "C" 
			},
			{
				"x": -2.3320185948,
				"y": 0.0405896127,
				"z": -2.9546579754,
				"element": "C" 
			},
			{
				"x": -1.1033484959,
				"y": 0.6262397129,
				"z": -3.2598312958,
				"element": "C" 
			},
			{
				"x": -0.1601605593,
				"y": 0.8383171093,
				"z": -2.2525494022,
				"element": "C" 
			},
			{
				"x": 2.9711508301,
				"y": -0.2931945989,
				"z": -1.342099485,
				"element": "H" 
			},
			{
				"x": 3.5586050525,
				"y": -1.9530745552,
				"z": -1.2729289549,
				"element": "H" 
			},
			{
				"x": 3.8078685606,
				"y": -0.8716560991,
				"z": 0.1042376076,
				"element": "H" 
			},
			{
				"x": 1.9355204366,
				"y": -2.5419910674,
				"z": 0.493071099,
				"element": "H" 
			},
			{
				"x": 1.0716613774,
				"y": -1.8908384371,
				"z": -0.8871050854,
				"element": "H" 
			},
			{
				"x": 1.7904916398,
				"y": -0.3364085431,
				"z": 1.6575590592,
				"element": "H" 
			},
			{
				"x": 0.2285081845,
				"y": -1.0680257154,
				"z": 1.3383426192,
				"element": "H" 
			},
			{
				"x": 1.4923742118,
				"y": 1.1780329701,
				"z": -0.3220295327,
				"element": "H" 
			},
			{
				"x": -1.0079347001,
				"y": 1.9705900441,
				"z": 2.6165480323,
				"element": "H" 
			},
			{
				"x": -1.8993645855,
				"y": -0.3928809756,
				"z": 0.3918871579,
				"element": "H" 
			},
			{
				"x": -3.5662642294,
				"y": -0.7802560285,
				"z": -1.3884727968,
				"element": "H" 
			},
			{
				"x": -3.0685636861,
				"y": -0.1248602355,
				"z": -3.7356642651,
				"element": "H" 
			},
			{
				"x": -0.8768142648,
				"y": 0.9207607793,
				"z": -4.280667315,
				"element": "H" 
			},
			{
				"x": 0.7929859965,
				"y": 1.3002889688,
				"z": -2.4967617255,
				"element": "H" 
			}
		],
		 "valence_orbital": [ 
			{
				"type": "occ",
				"energy": -0.32629,
				"method": "rhf"
			},
			{
				"type": "occ",
				"energy": -0.31334,
				"method": "rhf"
			},
			{
				"type": "occ",
				"energy": -0.27498,
				"method": "rhf"
			},
			{
				"type": "occ",
				"energy": -0.25096,
				"method": "rhf"
			},
			{
				"type": "occ",
				"energy": -0.24207,
				"method": "rhf"
			},
			{
				"type": "unocc",
				"energy": -0.01222,
				"method": "rhf"
			},
			{
				"type": "unocc",
				"energy": -0.00352,
				"method": "rhf"
			},
			{
				"type": "unocc",
				"energy": 0.02216,
				"method": "rhf"
			},
			{
				"type": "unocc",
				"energy": 0.0712,
				"method": "rhf"
			},
			{
				"type": "unocc",
				"energy": 0.09108,
				"method": "rhf"
			}
		],
		"cosmo_sigma_profile": { 
			"-0.025": 0.0,
			"-0.024": 0.0,
			"-0.023": 0.0,
			"-0.022": 0.0,
			"-0.021": 0.0,
			"-0.02": 0.0,
			"-0.019": 0.0,
			"-0.018": 0.471207855103,
			"-0.017": 1.08926716819,
			"-0.016": 0.699278151431,
			"-0.015": 0.75056534938,
			"-0.014": 1.18934938856,
			"-0.013": 0.728511787697,
			"-0.012": 0.435889840241,
			"-0.011": 0.480392714133,
			"-0.01": 1.14618484756,
			"-0.009": 0.477152940289,
			"-0.008": 0.235688267109,
			"-0.007": 0.806164168181,
			"-0.006": 6.34196098075,
			"-0.005": 12.0943657127,
			"-0.004": 16.4465186062,
			"-0.003": 21.8723183084,
			"-0.002": 22.6290690554,
			"-0.001": 25.0723730302,
			"0.0": 25.5218531573,
			"0.001": 22.5309990569,
			"0.002": 14.9260521579,
			"0.003": 12.8013903354,
			"0.004": 10.3172506867,
			"0.005": 11.4107937188,
			"0.006": 7.07302041687,
			"0.007": 2.22966858758,
			"0.008": 2.30897869691,
			"0.009": 1.54326761136,
			"0.01": 1.89968332262,
			"0.011": 3.79843535938,
			"0.012": 4.70833893396,
			"0.013": 0.975473233973,
			"0.014": 0.0,
			"0.015": 0.0,
			"0.016": 0.0,
			"0.017": 0.0,
			"0.018": 0.0,
			"0.019": 0.0,
			"0.02": 0.0,
			"0.021": 0.0,
			"0.022": 0.0,
			"0.023": 0.0,
			"0.024": 0.0,
			"0.025": 0.0
		}
	}
}
