{
	 "smiles": "COC1=C(CC#N)C=C(C=C1)C(C)=O", 
	 "Tm": 385.15, 
	 "num_atms": 25, 
	 "gaussian": { 
		 "optdone": 1, 
		 "sigma_profile": "yes", 
		 "theory": "DFT", 
		 "functional": "B3LYP", 
		 "basiset": "6-31G**", 
		 "properties": { 
			 "R2extent": 4016.1197, 
			 "electric_dipole_moment_norm": 3.51048952, 
			 "electric_quadrupole_moment_norm": 27.5467266144, 
			 "total_energy": -630.97691392, 
			 "HOMO_LUMO_gap": 0.18572, 
			 "cosmo_polarized_energy": -16.76, 
			 "cosmo_cavitation_energy": 30.28, 
			 "cosmo_dispersion_energy": -20.82, 
			 "cosmo_repulsion_energy": 1.65, 
			 "cosmo_total_nonelectrostatic_energy": 11.11, 
			 "SMD_solvation_energy": 8.05 
		},
		"coords": [
			{
				"x": -0.2414151241,
				"y": -2.1268331656,
				"z": 1.3268432312,
				"element": "C" 
			},
			{
				"x": -0.5520839115,
				"y": -0.8508152418,
				"z": 0.7766121572,
				"element": "O" 
			},
			{
				"x": 0.4294942381,
				"y": -0.143402592,
				"z": 0.1614863382,
				"element": "C" 
			},
			{
				"x": 0.0492631141,
				"y": 1.1326384142,
				"z": -0.306829366,
				"element": "C" 
			},
			{
				"x": -1.3772136291,
				"y": 1.611709645,
				"z": -0.0983920911,
				"element": "C" 
			},
			{
				"x": -1.6594556287,
				"y": 1.997614082,
				"z": 1.2920287682,
				"element": "C" 
			},
			{
				"x": -1.8783963263,
				"y": 2.3129755822,
				"z": 2.3871362346,
				"element": "N" 
			},
			{
				"x": 0.9929897399,
				"y": 1.9220449569,
				"z": -0.9535748172,
				"element": "C" 
			},
			{
				"x": 2.3113539518,
				"y": 1.4786450883,
				"z": -1.1521185576,
				"element": "C" 
			},
			{
				"x": 2.664891427,
				"y": 0.2086496722,
				"z": -0.6785762303,
				"element": "C" 
			},
			{
				"x": 1.7406529945,
				"y": -0.6012272768,
				"z": -0.0280030802,
				"element": "C" 
			},
			{
				"x": 3.3546772609,
				"y": 2.2957850449,
				"z": -1.8437242856,
				"element": "C" 
			},
			{
				"x": 2.9866043009,
				"y": 3.6814644663,
				"z": -2.3493233692,
				"element": "C" 
			},
			{
				"x": 4.486017345,
				"y": 1.8587532394,
				"z": -1.9999512355,
				"element": "O" 
			},
			{
				"x": 0.5400623529,
				"y": -2.0501295373,
				"z": 2.0914344415,
				"element": "H" 
			},
			{
				"x": 0.0758641618,
				"y": -2.8313945351,
				"z": 0.548808085,
				"element": "H" 
			},
			{
				"x": -1.1632025184,
				"y": -2.4844214674,
				"z": 1.7862355246,
				"element": "H" 
			},
			{
				"x": -1.5768195158,
				"y": 2.4772681184,
				"z": -0.7387683179,
				"element": "H" 
			},
			{
				"x": -2.0884515484,
				"y": 0.8262292669,
				"z": -0.3771945361,
				"element": "H" 
			},
			{
				"x": 0.6896140897,
				"y": 2.9030161002,
				"z": -1.3071911626,
				"element": "H" 
			},
			{
				"x": 3.6841996641,
				"y": -0.1285519855,
				"z": -0.8344804951,
				"element": "H" 
			},
			{
				"x": 2.0407065739,
				"y": -1.579277147,
				"z": 0.3283035807,
				"element": "H" 
			},
			{
				"x": 3.8647168094,
				"y": 4.1244596048,
				"z": -2.8196929549,
				"element": "H" 
			},
			{
				"x": 2.1711606452,
				"y": 3.6318612828,
				"z": -3.0796070502,
				"element": "H" 
			},
			{
				"x": 2.6519695331,
				"y": 4.3247383841,
				"z": -1.5278608118,
				"element": "H" 
			}
		],
		 "valence_orbital": [ 
			{
				"type": "occ",
				"energy": -0.32059,
				"method": "rhf"
			},
			{
				"type": "occ",
				"energy": -0.32019,
				"method": "rhf"
			},
			{
				"type": "occ",
				"energy": -0.27142,
				"method": "rhf"
			},
			{
				"type": "occ",
				"energy": -0.24934,
				"method": "rhf"
			},
			{
				"type": "occ",
				"energy": -0.24025,
				"method": "rhf"
			},
			{
				"type": "unocc",
				"energy": -0.05453,
				"method": "rhf"
			},
			{
				"type": "unocc",
				"energy": -0.0242,
				"method": "rhf"
			},
			{
				"type": "unocc",
				"energy": 0.03295,
				"method": "rhf"
			},
			{
				"type": "unocc",
				"energy": 0.04054,
				"method": "rhf"
			},
			{
				"type": "unocc",
				"energy": 0.04845,
				"method": "rhf"
			}
		],
		"cosmo_sigma_profile": { 
			"-0.025": 0.0,
			"-0.024": 0.0,
			"-0.023": 0.0,
			"-0.022": 0.0,
			"-0.021": 0.0,
			"-0.02": 0.0,
			"-0.019": 0.0,
			"-0.018": 0.0,
			"-0.017": 0.0,
			"-0.016": 0.0,
			"-0.015": 0.0,
			"-0.014": 0.0,
			"-0.013": 0.0,
			"-0.012": 0.0,
			"-0.011": 0.0,
			"-0.01": 0.0786216956539,
			"-0.009": 3.4736400644,
			"-0.008": 5.46355287922,
			"-0.007": 9.98155663632,
			"-0.006": 22.2404794653,
			"-0.005": 22.9988247542,
			"-0.004": 20.6206641097,
			"-0.003": 15.0855729734,
			"-0.002": 13.9422290108,
			"-0.001": 14.2324228768,
			"0.0": 14.8480834946,
			"0.001": 12.3510636532,
			"0.002": 14.4144157601,
			"0.003": 13.9108569481,
			"0.004": 9.13168342687,
			"0.005": 5.42263278676,
			"0.006": 6.11065717005,
			"0.007": 5.29152322417,
			"0.008": 4.87028444331,
			"0.009": 4.5844393497,
			"0.01": 5.2097163247,
			"0.011": 5.69238786392,
			"0.012": 6.6300391493,
			"0.013": 4.42807977767,
			"0.014": 0.773345890648,
			"0.015": 0.0,
			"0.016": 0.0,
			"0.017": 0.0,
			"0.018": 0.0,
			"0.019": 0.0,
			"0.02": 0.0,
			"0.021": 0.0,
			"0.022": 0.0,
			"0.023": 0.0,
			"0.024": 0.0,
			"0.025": 0.0
		}
	}
}
