{
	 "smiles": "O1C(=CN=C1C1=CC=CC2=C1C=CC=C2)C1=CC=CC=C1", 
	 "Tm": 378.15, 
	 "num_atms": 34, 
	 "gaussian": { 
		 "optdone": 1, 
		 "sigma_profile": "yes", 
		 "theory": "DFT", 
		 "functional": "B3LYP", 
		 "basiset": "6-31G**", 
		 "properties": { 
			 "R2extent": 7523.9342, 
			 "electric_dipole_moment_norm": 1.48757882144, 
			 "electric_quadrupole_moment_norm": 17.230606431, 
			 "total_energy": -861.841852221, 
			 "HOMO_LUMO_gap": 0.13952, 
			 "cosmo_polarized_energy": -9.17, 
			 "cosmo_cavitation_energy": 38.42, 
			 "cosmo_dispersion_energy": -27.82, 
			 "cosmo_repulsion_energy": 2.05, 
			 "cosmo_total_nonelectrostatic_energy": 12.65, 
			 "SMD_solvation_energy": 4.93 
		},
		"coords": [
			{
				"x": 0.5313655533,
				"y": -0.5850032843,
				"z": 0.8931977104,
				"element": "O" 
			},
			{
				"x": 1.6180229086,
				"y": -1.2842376532,
				"z": 1.3701478418,
				"element": "C" 
			},
			{
				"x": 2.6355189867,
				"y": -0.3763637096,
				"z": 1.4878021431,
				"element": "C" 
			},
			{
				"x": 2.2060576273,
				"y": 0.8688468565,
				"z": 1.0904903125,
				"element": "N" 
			},
			{
				"x": 0.9541690617,
				"y": 0.7057307802,
				"z": 0.7438319737,
				"element": "C" 
			},
			{
				"x": 0.0319808363,
				"y": 1.7528922642,
				"z": 0.2964744252,
				"element": "C" 
			},
			{
				"x": 0.4101542957,
				"y": 3.0548805186,
				"z": 0.6043749967,
				"element": "C" 
			},
			{
				"x": -0.387562217,
				"y": 4.1582610677,
				"z": 0.2498826055,
				"element": "C" 
			},
			{
				"x": -1.5772012791,
				"y": 3.9622896951,
				"z": -0.4130514051,
				"element": "C" 
			},
			{
				"x": -2.002327508,
				"y": 2.6556243294,
				"z": -0.7672951325,
				"element": "C" 
			},
			{
				"x": -1.1924990086,
				"y": 1.5169365536,
				"z": -0.4252507703,
				"element": "C" 
			},
			{
				"x": -1.6433993603,
				"y": 0.2349273603,
				"z": -0.8498586029,
				"element": "C" 
			},
			{
				"x": -2.8258680236,
				"y": 0.0861065477,
				"z": -1.5417802771,
				"element": "C" 
			},
			{
				"x": -3.6313325838,
				"y": 1.205610381,
				"z": -1.8518880935,
				"element": "C" 
			},
			{
				"x": -3.2207925565,
				"y": 2.4616818466,
				"z": -1.4734775403,
				"element": "C" 
			},
			{
				"x": 1.4659685005,
				"y": -2.7066646435,
				"z": 1.6321404507,
				"element": "C" 
			},
			{
				"x": 2.5852192178,
				"y": -3.4843322748,
				"z": 1.9836742532,
				"element": "C" 
			},
			{
				"x": 2.4467551356,
				"y": -4.8439376591,
				"z": 2.2450388838,
				"element": "C" 
			},
			{
				"x": 1.1932417695,
				"y": -5.4560619055,
				"z": 2.1575370485,
				"element": "C" 
			},
			{
				"x": 0.0778979002,
				"y": -4.6927732765,
				"z": 1.8073922338,
				"element": "C" 
			},
			{
				"x": 0.208176115,
				"y": -3.3301347673,
				"z": 1.5477422175,
				"element": "C" 
			},
			{
				"x": 3.6450626425,
				"y": -0.5395801287,
				"z": 1.8359474366,
				"element": "H" 
			},
			{
				"x": 1.341617692,
				"y": 3.2047664755,
				"z": 1.1386314021,
				"element": "H" 
			},
			{
				"x": -0.0618745102,
				"y": 5.1597207019,
				"z": 0.5142440681,
				"element": "H" 
			},
			{
				"x": -2.2080107467,
				"y": 4.8058335789,
				"z": -0.6810206782,
				"element": "H" 
			},
			{
				"x": -1.0441396118,
				"y": -0.6380063007,
				"z": -0.6333609985,
				"element": "H" 
			},
			{
				"x": -3.1400979053,
				"y": -0.9052463448,
				"z": -1.8557302742,
				"element": "H" 
			},
			{
				"x": -4.5631590743,
				"y": 1.071519324,
				"z": -2.3933909349,
				"element": "H" 
			},
			{
				"x": -3.8208740093,
				"y": 3.3351034881,
				"z": -1.7155046929,
				"element": "H" 
			},
			{
				"x": 3.5659866625,
				"y": -3.0222066794,
				"z": 2.0441496118,
				"element": "H" 
			},
			{
				"x": 3.3211156646,
				"y": -5.4295444507,
				"z": 2.5139428061,
				"element": "H" 
			},
			{
				"x": 1.0883915786,
				"y": -6.517787651,
				"z": 2.359748571,
				"element": "H" 
			},
			{
				"x": -0.9007193117,
				"y": -5.1591164071,
				"z": 1.7386044407,
				"element": "H" 
			},
			{
				"x": -0.6630444422,
				"y": -2.7392346333,
				"z": 1.2864139677,
				"element": "H" 
			}
		],
		 "valence_orbital": [ 
			{
				"type": "occ",
				"energy": -0.27849,
				"method": "rhf"
			},
			{
				"type": "occ",
				"energy": -0.25731,
				"method": "rhf"
			},
			{
				"type": "occ",
				"energy": -0.24622,
				"method": "rhf"
			},
			{
				"type": "occ",
				"energy": -0.23266,
				"method": "rhf"
			},
			{
				"type": "occ",
				"energy": -0.19965,
				"method": "rhf"
			},
			{
				"type": "unocc",
				"energy": -0.06013,
				"method": "rhf"
			},
			{
				"type": "unocc",
				"energy": -0.0291,
				"method": "rhf"
			},
			{
				"type": "unocc",
				"energy": -0.01063,
				"method": "rhf"
			},
			{
				"type": "unocc",
				"energy": -0.00704,
				"method": "rhf"
			},
			{
				"type": "unocc",
				"energy": 0.00894,
				"method": "rhf"
			}
		],
		"cosmo_sigma_profile": { 
			"-0.025": 0.0,
			"-0.024": 0.0,
			"-0.023": 0.0,
			"-0.022": 0.0,
			"-0.021": 0.0,
			"-0.02": 0.0,
			"-0.019": 0.0,
			"-0.018": 0.0,
			"-0.017": 0.0,
			"-0.016": 0.0,
			"-0.015": 0.0,
			"-0.014": 0.0,
			"-0.013": 0.0,
			"-0.012": 0.0,
			"-0.011": 0.0,
			"-0.01": 0.0,
			"-0.009": 0.270597971204,
			"-0.008": 2.87656772878,
			"-0.007": 4.73602115017,
			"-0.006": 18.6780321548,
			"-0.005": 22.8973467609,
			"-0.004": 26.152815855,
			"-0.003": 21.4114811025,
			"-0.002": 21.2702798017,
			"-0.001": 19.3720440615,
			"0.0": 22.7148554601,
			"0.001": 25.0137417347,
			"0.002": 28.5847613735,
			"0.003": 35.6920976646,
			"0.004": 29.934472762,
			"0.005": 19.066860593,
			"0.006": 2.42760481787,
			"0.007": 1.97712155286,
			"0.008": 1.13852077827,
			"0.009": 1.14087462124,
			"0.01": 1.15913216534,
			"0.011": 0.997663078921,
			"0.012": 0.914921631658,
			"0.013": 1.09488927356,
			"0.014": 0.664999553404,
			"0.015": 0.298385000312,
			"0.016": 0.0,
			"0.017": 0.0,
			"0.018": 0.0,
			"0.019": 0.0,
			"0.02": 0.0,
			"0.021": 0.0,
			"0.022": 0.0,
			"0.023": 0.0,
			"0.024": 0.0,
			"0.025": 0.0
		}
	}
}
