{
	 "smiles": "OC(=O)CCC1=CC=C(C=C1)S(=O)(=O)N1CCOCC1", 
	 "Tm": 434.15, 
	 "num_atms": 37, 
	 "gaussian": { 
		 "optdone": 1, 
		 "sigma_profile": "yes", 
		 "theory": "DFT", 
		 "functional": "B3LYP", 
		 "basiset": "6-31G**", 
		 "properties": { 
			 "R2extent": 9608.839, 
			 "electric_dipole_moment_norm": 4.95876246255, 
			 "electric_quadrupole_moment_norm": 23.9921133857, 
			 "total_energy": -1334.61481519, 
			 "HOMO_LUMO_gap": 0.20716, 
			 "cosmo_polarized_energy": -21.63, 
			 "cosmo_cavitation_energy": 40.71, 
			 "cosmo_dispersion_energy": -29.01, 
			 "cosmo_repulsion_energy": 2.21, 
			 "cosmo_total_nonelectrostatic_energy": 13.91, 
			 "SMD_solvation_energy": 5.69 
		},
		"coords": [
			{
				"x": -2.3884109867,
				"y": 4.6338747799,
				"z": -1.489064372,
				"element": "O" 
			},
			{
				"x": -2.5192417969,
				"y": 3.5722992624,
				"z": -0.6626464713,
				"element": "C" 
			},
			{
				"x": -2.6845689264,
				"y": 3.6920256262,
				"z": 0.5329832636,
				"element": "O" 
			},
			{
				"x": -2.4762256133,
				"y": 2.2648112297,
				"z": -1.4274089977,
				"element": "C" 
			},
			{
				"x": -2.2315639637,
				"y": 1.0393815719,
				"z": -0.5277071039,
				"element": "C" 
			},
			{
				"x": -0.79629655,
				"y": 0.9060869212,
				"z": -0.0590223325,
				"element": "C" 
			},
			{
				"x": -0.3562428177,
				"y": 1.5311799423,
				"z": 1.1172644524,
				"element": "C" 
			},
			{
				"x": 0.9711650595,
				"y": 1.4246313396,
				"z": 1.5307153483,
				"element": "C" 
			},
			{
				"x": 1.8722823425,
				"y": 0.6801422923,
				"z": 0.7640409772,
				"element": "C" 
			},
			{
				"x": 1.4597712849,
				"y": 0.0587666438,
				"z": -0.4180016925,
				"element": "C" 
			},
			{
				"x": 0.130110197,
				"y": 0.1754687264,
				"z": -0.8181267107,
				"element": "C" 
			},
			{
				"x": 3.5711963633,
				"y": 0.489823912,
				"z": 1.3199461986,
				"element": "S" 
			},
			{
				"x": 4.3731871817,
				"y": 0.1288979863,
				"z": 0.148219684,
				"element": "O" 
			},
			{
				"x": 3.8807689469,
				"y": 1.645019126,
				"z": 2.1649639851,
				"element": "O" 
			},
			{
				"x": 3.6084059681,
				"y": -0.8426513392,
				"z": 2.338796141,
				"element": "N" 
			},
			{
				"x": 3.6048458748,
				"y": -2.2007141531,
				"z": 1.7589270165,
				"element": "C" 
			},
			{
				"x": 2.4480968556,
				"y": -3.0175645135,
				"z": 2.3278465401,
				"element": "C" 
			},
			{
				"x": 2.4939726741,
				"y": -3.1190250192,
				"z": 3.7500759048,
				"element": "O" 
			},
			{
				"x": 3.1387681679,
				"y": -2.0306391793,
				"z": 4.4059867361,
				"element": "C" 
			},
			{
				"x": 2.9750675306,
				"y": -0.7084488191,
				"z": 3.6631006032,
				"element": "C" 
			},
			{
				"x": -2.4579969934,
				"y": 5.4266948798,
				"z": -0.9304502348,
				"element": "H" 
			},
			{
				"x": -3.4459891636,
				"y": 2.1712554641,
				"z": -1.9341695424,
				"element": "H" 
			},
			{
				"x": -1.7253538227,
				"y": 2.3432852884,
				"z": -2.2198440672,
				"element": "H" 
			},
			{
				"x": -2.9019854493,
				"y": 1.1047482969,
				"z": 0.3341871785,
				"element": "H" 
			},
			{
				"x": -2.5103283565,
				"y": 0.1425545744,
				"z": -1.0908183704,
				"element": "H" 
			},
			{
				"x": -1.0585142689,
				"y": 2.1204058386,
				"z": 1.6977416606,
				"element": "H" 
			},
			{
				"x": 1.3168475833,
				"y": 1.9353188122,
				"z": 2.4227964935,
				"element": "H" 
			},
			{
				"x": 2.1795266123,
				"y": -0.481879577,
				"z": -1.0228032546,
				"element": "H" 
			},
			{
				"x": -0.1924253148,
				"y": -0.3062605513,
				"z": -1.738076675,
				"element": "H" 
			},
			{
				"x": 4.5596605,
				"y": -2.6895052417,
				"z": 1.9873577622,
				"element": "H" 
			},
			{
				"x": 3.5329412906,
				"y": -2.1384457573,
				"z": 0.6711771585,
				"element": "H" 
			},
			{
				"x": 2.4835411168,
				"y": -4.039342443,
				"z": 1.9344300474,
				"element": "H" 
			},
			{
				"x": 1.4935840924,
				"y": -2.5690150022,
				"z": 2.0120854063,
				"element": "H" 
			},
			{
				"x": 2.6885390945,
				"y": -1.9498516787,
				"z": 5.4003153579,
				"element": "H" 
			},
			{
				"x": 4.2107565012,
				"y": -2.2420326244,
				"z": 4.5376509244,
				"element": "H" 
			},
			{
				"x": 3.4651330195,
				"y": 0.0990444667,
				"z": 4.2117753226,
				"element": "H" 
			},
			{
				"x": 1.9034757665,
				"y": -0.4696410817,
				"z": 3.5816556624,
				"element": "H" 
			}
		],
		 "valence_orbital": [ 
			{
				"type": "occ",
				"energy": -0.28829,
				"method": "rhf"
			},
			{
				"type": "occ",
				"energy": -0.27248,
				"method": "rhf"
			},
			{
				"type": "occ",
				"energy": -0.26947,
				"method": "rhf"
			},
			{
				"type": "occ",
				"energy": -0.25852,
				"method": "rhf"
			},
			{
				"type": "occ",
				"energy": -0.24416,
				"method": "rhf"
			},
			{
				"type": "unocc",
				"energy": -0.037,
				"method": "rhf"
			},
			{
				"type": "unocc",
				"energy": -0.02259,
				"method": "rhf"
			},
			{
				"type": "unocc",
				"energy": -0.00199,
				"method": "rhf"
			},
			{
				"type": "unocc",
				"energy": 0.05657,
				"method": "rhf"
			},
			{
				"type": "unocc",
				"energy": 0.07064,
				"method": "rhf"
			}
		],
		"cosmo_sigma_profile": { 
			"-0.025": 0.0,
			"-0.024": 0.0,
			"-0.023": 0.0,
			"-0.022": 0.0,
			"-0.021": 0.0,
			"-0.02": 0.0,
			"-0.019": 0.025393363174,
			"-0.018": 0.594104494965,
			"-0.017": 0.832924919593,
			"-0.016": 1.40802361081,
			"-0.015": 0.381536295795,
			"-0.014": 0.619077111465,
			"-0.013": 0.588624234298,
			"-0.012": 0.990780352123,
			"-0.011": 0.809687979904,
			"-0.01": 0.787734309521,
			"-0.009": 0.271200144872,
			"-0.008": 0.570141554625,
			"-0.007": 6.06511750837,
			"-0.006": 22.0290215813,
			"-0.005": 33.7937687181,
			"-0.004": 38.4293957037,
			"-0.003": 30.9732725814,
			"-0.002": 23.5515136859,
			"-0.001": 16.1322213902,
			"0.0": 14.7258583722,
			"0.001": 13.6733022191,
			"0.002": 16.0596415277,
			"0.003": 17.9419761953,
			"0.004": 9.23152376372,
			"0.005": 7.57196528413,
			"0.006": 6.97409549836,
			"0.007": 8.68845153822,
			"0.008": 7.25677769358,
			"0.009": 7.21114417222,
			"0.01": 10.7853769962,
			"0.011": 11.5480002165,
			"0.012": 8.07708828522,
			"0.013": 1.93084137436,
			"0.014": 0.135208962026,
			"0.015": 0.0,
			"0.016": 0.0,
			"0.017": 0.0,
			"0.018": 0.0,
			"0.019": 0.0,
			"0.02": 0.0,
			"0.021": 0.0,
			"0.022": 0.0,
			"0.023": 0.0,
			"0.024": 0.0,
			"0.0": 0.0
		}
	}
}
