{
	 "smiles": "COC1=C(OC2=C(C=C(C=C2)S(=O)(=O)N2CCCCC2)[N+]([O-])=O)C=CC(C=O)=C1", 
	 "Tm": 447.15, 
	 "num_atms": 49, 
	 "gaussian": { 
		 "optdone": 1, 
		 "sigma_profile": "yes", 
		 "theory": "DFT", 
		 "functional": "B3LYP", 
		 "basiset": "6-31G**", 
		 "properties": { 
			 "R2extent": 15074.8774, 
			 "electric_dipole_moment_norm": 7.65845549442, 
			 "electric_quadrupole_moment_norm": 39.165423123, 
			 "total_energy": -1770.11113413, 
			 "HOMO_LUMO_gap": 0.14858, 
			 "cosmo_polarized_energy": -24.94, 
			 "cosmo_cavitation_energy": 54.01, 
			 "cosmo_dispersion_energy": -35.0, 
			 "cosmo_repulsion_energy": 2.57, 
			 "cosmo_total_nonelectrostatic_energy": 21.58, 
			 "SMD_solvation_energy": 10.61 
		},
		"coords": [
			{
				"x": -0.4239940618,
				"y": 0.3870933723,
				"z": -1.9570371092,
				"element": "C" 
			},
			{
				"x": 0.3754044251,
				"y": -0.3187329927,
				"z": -1.0034103243,
				"element": "O" 
			},
			{
				"x": 1.2162836762,
				"y": -1.2665950638,
				"z": -1.5436181663,
				"element": "C" 
			},
			{
				"x": 0.9129199976,
				"y": -2.6315906845,
				"z": -1.4030720924,
				"element": "C" 
			},
			{
				"x": -0.2646298895,
				"y": -3.0784362509,
				"z": -0.8397888508,
				"element": "O" 
			},
			{
				"x": -0.867127301,
				"y": -2.4985754282,
				"z": 0.2402720419,
				"element": "C" 
			},
			{
				"x": -0.2511916145,
				"y": -2.1759672866,
				"z": 1.4668358697,
				"element": "C" 
			},
			{
				"x": -0.9845038511,
				"y": -1.592428232,
				"z": 2.4992235213,
				"element": "C" 
			},
			{
				"x": -2.3467456381,
				"y": -1.3648975608,
				"z": 2.3377217382,
				"element": "C" 
			},
			{
				"x": -2.9884700511,
				"y": -1.7385830601,
				"z": 1.1513914756,
				"element": "C" 
			},
			{
				"x": -2.2466762492,
				"y": -2.2931991028,
				"z": 0.1160625412,
				"element": "C" 
			},
			{
				"x": -3.2798588684,
				"y": -0.5659533501,
				"z": 3.6572286123,
				"element": "S" 
			},
			{
				"x": -4.6832925806,
				"y": -0.9178309856,
				"z": 3.4319261775,
				"element": "O" 
			},
			{
				"x": -2.5789299889,
				"y": -0.8611600907,
				"z": 4.9074995973,
				"element": "O" 
			},
			{
				"x": -3.1586947607,
				"y": 1.0792030134,
				"z": 3.4067187876,
				"element": "N" 
			},
			{
				"x": -1.9291014058,
				"y": 1.7886888544,
				"z": 3.8321165069,
				"element": "C" 
			},
			{
				"x": -1.2665532994,
				"y": 2.4981258598,
				"z": 2.6478804273,
				"element": "C" 
			},
			{
				"x": -2.2225536869,
				"y": 3.5337964869,
				"z": 2.0065079532,
				"element": "C" 
			},
			{
				"x": -3.7044180634,
				"y": 3.1615281393,
				"z": 2.2368056948,
				"element": "C" 
			},
			{
				"x": -3.9145643039,
				"y": 1.6462073959,
				"z": 2.2691031624,
				"element": "C" 
			},
			{
				"x": 1.1551978311,
				"y": -2.4806228259,
				"z": 1.7564276534,
				"element": "N" 
			},
			{
				"x": 1.714807642,
				"y": -1.8041114561,
				"z": 2.6173311515,
				"element": "O" 
			},
			{
				"x": 1.6728890871,
				"y": -3.4148862243,
				"z": 1.146521419,
				"element": "O" 
			},
			{
				"x": 1.7585817302,
				"y": -3.6087517057,
				"z": -1.9385144032,
				"element": "C" 
			},
			{
				"x": 2.9127151177,
				"y": -3.2340201611,
				"z": -2.6080614862,
				"element": "C" 
			},
			{
				"x": 3.2413003278,
				"y": -1.8748086464,
				"z": -2.737090741,
				"element": "C" 
			},
			{
				"x": 4.4792001507,
				"y": -1.4652552708,
				"z": -3.4352929445,
				"element": "C" 
			},
			{
				"x": 5.2665509417,
				"y": -2.2351809368,
				"z": -3.9511950111,
				"element": "O" 
			},
			{
				"x": 2.3914503006,
				"y": -0.9027049975,
				"z": -2.1994049858,
				"element": "C" 
			},
			{
				"x": 0.1980370836,
				"y": 0.9073092147,
				"z": -2.6948693457,
				"element": "H" 
			},
			{
				"x": -1.0021729278,
				"y": 1.1203234902,
				"z": -1.3919023827,
				"element": "H" 
			},
			{
				"x": -1.1073437947,
				"y": -0.292222626,
				"z": -2.4815259356,
				"element": "H" 
			},
			{
				"x": -0.4826620025,
				"y": -1.3622590414,
				"z": 3.430724149,
				"element": "H" 
			},
			{
				"x": -4.0601585968,
				"y": -1.6042212887,
				"z": 1.0560690349,
				"element": "H" 
			},
			{
				"x": -2.7145441222,
				"y": -2.5790107927,
				"z": -0.8197812618,
				"element": "H" 
			},
			{
				"x": -2.199990933,
				"y": 2.5135133136,
				"z": 4.6101186626,
				"element": "H" 
			},
			{
				"x": -1.2559629412,
				"y": 1.0707577388,
				"z": 4.302547572,
				"element": "H" 
			},
			{
				"x": -0.3425692189,
				"y": 2.9792050133,
				"z": 2.9854559383,
				"element": "H" 
			},
			{
				"x": -0.9705796981,
				"y": 1.7432517079,
				"z": 1.9098511287,
				"element": "H" 
			},
			{
				"x": -2.0349748772,
				"y": 4.5305563173,
				"z": 2.4201077613,
				"element": "H" 
			},
			{
				"x": -2.0161407639,
				"y": 3.6031126657,
				"z": 0.9323371102,
				"element": "H" 
			},
			{
				"x": -4.0587839769,
				"y": 3.5781546672,
				"z": 3.1863723181,
				"element": "H" 
			},
			{
				"x": -4.3380837945,
				"y": 3.5899493134,
				"z": 1.4534841566,
				"element": "H" 
			},
			{
				"x": -4.9686106666,
				"y": 1.3956556493,
				"z": 2.4007772137,
				"element": "H" 
			},
			{
				"x": -3.5821496767,
				"y": 1.2085814952,
				"z": 1.3128863353,
				"element": "H" 
			},
			{
				"x": 1.4889841794,
				"y": -4.650026887,
				"z": -1.8024794402,
				"element": "H" 
			},
			{
				"x": 3.5854737649,
				"y": -3.974292469,
				"z": -3.0275918187,
				"element": "H" 
			},
			{
				"x": 4.6524099692,
				"y": -0.3659490602,
				"z": -3.4631719042,
				"element": "H" 
			},
			{
				"x": 2.6373273801,
				"y": 0.1528607697,
				"z": -2.2857975082,
				"element": "H" 
			}
		],
		 "valence_orbital": [ 
			{
				"type": "occ",
				"energy": -0.28293,
				"method": "rhf"
			},
			{
				"type": "occ",
				"energy": -0.27177,
				"method": "rhf"
			},
			{
				"type": "occ",
				"energy": -0.26085,
				"method": "rhf"
			},
			{
				"type": "occ",
				"energy": -0.25698,
				"method": "rhf"
			},
			{
				"type": "occ",
				"energy": -0.24798,
				"method": "rhf"
			},
			{
				"type": "unocc",
				"energy": -0.0994,
				"method": "rhf"
			},
			{
				"type": "unocc",
				"energy": -0.06988,
				"method": "rhf"
			},
			{
				"type": "unocc",
				"energy": -0.05067,
				"method": "rhf"
			},
			{
				"type": "unocc",
				"energy": -0.02699,
				"method": "rhf"
			},
			{
				"type": "unocc",
				"energy": -0.02506,
				"method": "rhf"
			}
		],
		"cosmo_sigma_profile": { 
			"-0.025": 0.0,
			"-0.024": 0.0,
			"-0.023": 0.0,
			"-0.022": 0.0,
			"-0.021": 0.0,
			"-0.02": 0.0,
			"-0.019": 0.0,
			"-0.018": 0.0,
			"-0.017": 0.0,
			"-0.016": 0.0,
			"-0.015": 0.0,
			"-0.014": 0.0,
			"-0.013": 0.0,
			"-0.012": 0.0,
			"-0.011": 0.0,
			"-0.01": 0.0,
			"-0.009": 1.8060610743,
			"-0.008": 8.28713121614,
			"-0.007": 11.3735788352,
			"-0.006": 17.4848957647,
			"-0.005": 26.1560401741,
			"-0.004": 43.4353115435,
			"-0.003": 53.4768853167,
			"-0.002": 46.0817930924,
			"-0.001": 35.114112834,
			"0.0": 33.6364845078,
			"0.001": 21.9208798482,
			"0.002": 16.687185949,
			"0.003": 12.4993358838,
			"0.004": 12.7708824928,
			"0.005": 12.806572075,
			"0.006": 11.5496670969,
			"0.007": 14.8141975612,
			"0.008": 11.354473988,
			"0.009": 9.023281309,
			"0.01": 10.914233085,
			"0.011": 12.0106096626,
			"0.012": 4.72324794802,
			"0.013": 0.66723466655,
			"0.014": 0.0,
			"0.015": 0.0,
			"0.016": 0.0,
			"0.017": 0.0,
			"0.018": 0.0,
			"0.019": 0.0,
			"0.02": 0.0,
			"0.021": 0.0,
			"0.022": 0.0,
			"0.023": 0.0,
			"0.024": 0.0,
			"0.025": 0.0
		}
	}
}
