{
	 "smiles": "FC(F)(F)C1=CC=CC=C1C(=O)C1=CC=CC=C1", 
	 "Tm": 333.65, 
	 "num_atms": 27, 
	 "gaussian": { 
		 "optdone": 1, 
		 "sigma_profile": "yes", 
		 "theory": "DFT", 
		 "functional": "B3LYP", 
		 "basiset": "6-31G**", 
		 "properties": { 
			 "R2extent": 4572.1863, 
			 "electric_dipole_moment_norm": 4.67202182465, 
			 "electric_quadrupole_moment_norm": 14.0530331032, 
			 "total_energy": -913.661159423, 
			 "HOMO_LUMO_gap": 0.18473, 
			 "cosmo_polarized_energy": -10.35, 
			 "cosmo_cavitation_energy": 32.75, 
			 "cosmo_dispersion_energy": -22.77, 
			 "cosmo_repulsion_energy": 1.7, 
			 "cosmo_total_nonelectrostatic_energy": 11.67, 
			 "SMD_solvation_energy": 6.95 
		},
		"coords": [
			{
				"x": -1.1312476354,
				"y": -0.9679363504,
				"z": -2.1120514488,
				"element": "F" 
			},
			{
				"x": -0.2248898769,
				"y": -1.9451327064,
				"z": -1.8862863608,
				"element": "C" 
			},
			{
				"x": -0.7554523136,
				"y": -3.0924914447,
				"z": -2.3754724866,
				"element": "F" 
			},
			{
				"x": 0.8634272404,
				"y": -1.6722165762,
				"z": -2.6277110064,
				"element": "F" 
			},
			{
				"x": 0.0976499587,
				"y": -2.0795058206,
				"z": -0.4137293976,
				"element": "C" 
			},
			{
				"x": 0.2278102161,
				"y": -3.361112671,
				"z": 0.1247425498,
				"element": "C" 
			},
			{
				"x": 0.5280917961,
				"y": -3.5370330439,
				"z": 1.4757576154,
				"element": "C" 
			},
			{
				"x": 0.6813752841,
				"y": -2.4252413321,
				"z": 2.3013759849,
				"element": "C" 
			},
			{
				"x": 0.5321297037,
				"y": -1.1427894334,
				"z": 1.7722857357,
				"element": "C" 
			},
			{
				"x": 0.2516291111,
				"y": -0.9502444927,
				"z": 0.413606935,
				"element": "C" 
			},
			{
				"x": 0.2475178662,
				"y": 0.463220812,
				"z": -0.1299305798,
				"element": "C" 
			},
			{
				"x": 1.0308124152,
				"y": 0.7668473289,
				"z": -1.0167539582,
				"element": "O" 
			},
			{
				"x": -0.678677411,
				"y": 1.4723816167,
				"z": 0.4698155433,
				"element": "C" 
			},
			{
				"x": -0.4647458814,
				"y": 2.8256492014,
				"z": 0.159038163,
				"element": "C" 
			},
			{
				"x": -1.3101862455,
				"y": 3.8055729847,
				"z": 0.6680092693,
				"element": "C" 
			},
			{
				"x": -2.388116269,
				"y": 3.4442915917,
				"z": 1.4835314876,
				"element": "C" 
			},
			{
				"x": -2.6168373955,
				"y": 2.1009259912,
				"z": 1.7863712236,
				"element": "C" 
			},
			{
				"x": -1.7645021995,
				"y": 1.1170974767,
				"z": 1.2846398121,
				"element": "C" 
			},
			{
				"x": 0.0846542011,
				"y": -4.2217572904,
				"z": -0.5181454252,
				"element": "H" 
			},
			{
				"x": 0.6327172566,
				"y": -4.5395412124,
				"z": 1.8789922413,
				"element": "H" 
			},
			{
				"x": 0.9129770633,
				"y": -2.5515087591,
				"z": 3.354763888,
				"element": "H" 
			},
			{
				"x": 0.6490415496,
				"y": -0.2756336719,
				"z": 2.4150858251,
				"element": "H" 
			},
			{
				"x": 0.3705834283,
				"y": 3.0786138093,
				"z": -0.4853327643,
				"element": "H" 
			},
			{
				"x": -1.1353492163,
				"y": 4.8506201969,
				"z": 0.4295933514,
				"element": "H" 
			},
			{
				"x": -3.0504080816,
				"y": 4.2096191911,
				"z": 1.8782730461,
				"element": "H" 
			},
			{
				"x": -3.4597333179,
				"y": 1.8188211932,
				"z": 2.4103186354,
				"element": "H" 
			},
			{
				"x": -1.9508712469,
				"y": 0.0732834115,
				"z": 1.5141121206,
				"element": "H" 
			}
		],
		 "valence_orbital": [ 
			{
				"type": "occ",
				"energy": -0.27577,
				"method": "rhf"
			},
			{
				"type": "occ",
				"energy": -0.27324,
				"method": "rhf"
			},
			{
				"type": "occ",
				"energy": -0.26415,
				"method": "rhf"
			},
			{
				"type": "occ",
				"energy": -0.26261,
				"method": "rhf"
			},
			{
				"type": "occ",
				"energy": -0.25185,
				"method": "rhf"
			},
			{
				"type": "unocc",
				"energy": -0.06712,
				"method": "rhf"
			},
			{
				"type": "unocc",
				"energy": -0.03232,
				"method": "rhf"
			},
			{
				"type": "unocc",
				"energy": -0.02529,
				"method": "rhf"
			},
			{
				"type": "unocc",
				"energy": -0.01045,
				"method": "rhf"
			},
			{
				"type": "unocc",
				"energy": 0.04171,
				"method": "rhf"
			}
		],
		"cosmo_sigma_profile": { 
			"-0.025": 0.0,
			"-0.024": 0.0,
			"-0.023": 0.0,
			"-0.022": 0.0,
			"-0.021": 0.0,
			"-0.02": 0.0,
			"-0.019": 0.0,
			"-0.018": 0.0,
			"-0.017": 0.0,
			"-0.016": 0.0,
			"-0.015": 0.0,
			"-0.014": 0.0,
			"-0.013": 0.0,
			"-0.012": 0.0,
			"-0.011": 0.0,
			"-0.01": 0.0,
			"-0.009": 0.0,
			"-0.008": 0.384374048279,
			"-0.007": 8.74902996918,
			"-0.006": 18.5461061399,
			"-0.005": 19.8330264322,
			"-0.004": 18.3029380483,
			"-0.003": 15.7767282853,
			"-0.002": 15.8499708463,
			"-0.001": 15.5684064175,
			"0.0": 19.443466215,
			"0.001": 21.340079356,
			"0.002": 35.7644301183,
			"0.003": 39.5051545078,
			"0.004": 13.6990947595,
			"0.005": 2.93217595863,
			"0.006": 2.87518221684,
			"0.007": 2.05967243805,
			"0.008": 2.63480601117,
			"0.009": 2.15345880023,
			"0.01": 2.91471038905,
			"0.011": 4.11698160701,
			"0.012": 1.28733694738,
			"0.013": 0.0,
			"0.014": 0.0,
			"0.015": 0.0,
			"0.016": 0.0,
			"0.017": 0.0,
			"0.018": 0.0,
			"0.019": 0.0,
			"0.02": 0.0,
			"0.021": 0.0,
			"0.022": 0.0,
			"0.023": 0.0,
			"0.024": 0.0,
			"0.025": 0.0
		}
	}
}
