{
	 "smiles": "ClC1=C(SC(=N1)N1CCCCC1)C=O", 
	 "Tm": 363.15, 
	 "num_atms": 25, 
	 "gaussian": { 
		 "optdone": 1, 
		 "sigma_profile": "yes", 
		 "theory": "DFT", 
		 "functional": "B3LYP", 
		 "basiset": "6-31G**", 
		 "properties": { 
			 "R2extent": 6338.6957, 
			 "electric_dipole_moment_norm": 6.35116611812, 
			 "electric_quadrupole_moment_norm": 17.654355843, 
			 "total_energy": -1392.69013011, 
			 "HOMO_LUMO_gap": 0.157, 
			 "cosmo_polarized_energy": -10.97, 
			 "cosmo_cavitation_energy": 30.83, 
			 "cosmo_dispersion_energy": -23.42, 
			 "cosmo_repulsion_energy": 1.82, 
			 "cosmo_total_nonelectrostatic_energy": 9.23, 
			 "SMD_solvation_energy": 3.49 
		},
		"coords": [
			{
				"x": 2.234807119,
				"y": 0.4669498966,
				"z": -5.2000447911,
				"element": "Cl" 
			},
			{
				"x": 1.0141874278,
				"y": 0.3908872919,
				"z": -3.9604311415,
				"element": "C" 
			},
			{
				"x": -0.2813189336,
				"y": -0.0161331424,
				"z": -4.1991852109,
				"element": "C" 
			},
			{
				"x": -1.1683767115,
				"y": 0.0679561171,
				"z": -2.6759026509,
				"element": "S" 
			},
			{
				"x": 0.3209253435,
				"y": 0.6252955437,
				"z": -1.8971555875,
				"element": "C" 
			},
			{
				"x": 1.3631881142,
				"y": 0.7515791571,
				"z": -2.7100046113,
				"element": "N" 
			},
			{
				"x": 0.3921796774,
				"y": 0.8843567671,
				"z": -0.5717444019,
				"element": "N" 
			},
			{
				"x": 1.5958518713,
				"y": 1.5247391929,
				"z": -0.016056354,
				"element": "C" 
			},
			{
				"x": 1.9466350755,
				"y": 0.9296651637,
				"z": 1.3506183221,
				"element": "C" 
			},
			{
				"x": 0.744958395,
				"y": 0.9788330656,
				"z": 2.3034839574,
				"element": "C" 
			},
			{
				"x": -0.4673488211,
				"y": 0.2867564986,
				"z": 1.6667040129,
				"element": "C" 
			},
			{
				"x": -0.7915537216,
				"y": 0.880309784,
				"z": 0.2900743237,
				"element": "C" 
			},
			{
				"x": -0.9412087066,
				"y": -0.4500329821,
				"z": -5.4094014574,
				"element": "C" 
			},
			{
				"x": -2.1181197353,
				"y": -0.7832114716,
				"z": -5.461981442,
				"element": "O" 
			},
			{
				"x": 2.4028452251,
				"y": 1.3927548212,
				"z": -0.7353118156,
				"element": "H" 
			},
			{
				"x": 1.4052028316,
				"y": 2.6051116613,
				"z": 0.0818279212,
				"element": "H" 
			},
			{
				"x": 2.7968040639,
				"y": 1.4822019265,
				"z": 1.7659807788,
				"element": "H" 
			},
			{
				"x": 2.2710382671,
				"y": -0.1096090037,
				"z": 1.2155479303,
				"element": "H" 
			},
			{
				"x": 0.9925173854,
				"y": 0.5059035287,
				"z": 3.25986503,
				"element": "H" 
			},
			{
				"x": 0.4950442023,
				"y": 2.0261736127,
				"z": 2.5243379497,
				"element": "H" 
			},
			{
				"x": -1.3524967945,
				"y": 0.379565499,
				"z": 2.3056516098,
				"element": "H" 
			},
			{
				"x": -0.262056953,
				"y": -0.784460271,
				"z": 1.5498711488,
				"element": "H" 
			},
			{
				"x": -1.164429859,
				"y": 1.9109988898,
				"z": 0.4000962682,
				"element": "H" 
			},
			{
				"x": -1.5815680423,
				"y": 0.2974852303,
				"z": -0.1892624099,
				"element": "H" 
			},
			{
				"x": -0.2930067203,
				"y": -0.459976777,
				"z": -6.3080773788,
				"element": "H" 
			}
		],
		 "valence_orbital": [ 
			{
				"type": "occ",
				"energy": -0.29942,
				"method": "rhf"
			},
			{
				"type": "occ",
				"energy": -0.29655,
				"method": "rhf"
			},
			{
				"type": "occ",
				"energy": -0.28204,
				"method": "rhf"
			},
			{
				"type": "occ",
				"energy": -0.24618,
				"method": "rhf"
			},
			{
				"type": "occ",
				"energy": -0.21668,
				"method": "rhf"
			},
			{
				"type": "unocc",
				"energy": -0.05968,
				"method": "rhf"
			},
			{
				"type": "unocc",
				"energy": -0.00484,
				"method": "rhf"
			},
			{
				"type": "unocc",
				"energy": 0.01526,
				"method": "rhf"
			},
			{
				"type": "unocc",
				"energy": 0.04413,
				"method": "rhf"
			},
			{
				"type": "unocc",
				"energy": 0.06584,
				"method": "rhf"
			}
		],
		"cosmo_sigma_profile": { 
			"-0.025": 0.0,
			"-0.024": 0.0,
			"-0.023": 0.0,
			"-0.022": 0.0,
			"-0.021": 0.0,
			"-0.02": 0.0,
			"-0.019": 0.0,
			"-0.018": 0.0,
			"-0.017": 0.0,
			"-0.016": 0.0,
			"-0.015": 0.0,
			"-0.014": 0.0,
			"-0.013": 0.0,
			"-0.012": 0.0,
			"-0.011": 0.0,
			"-0.01": 0.0,
			"-0.009": 0.0,
			"-0.008": 0.0,
			"-0.007": 1.12507741287,
			"-0.006": 5.28011700298,
			"-0.005": 13.8649656841,
			"-0.004": 25.2222915847,
			"-0.003": 35.5565800497,
			"-0.002": 28.6190288815,
			"-0.001": 29.3863268386,
			"0.0": 23.5893972747,
			"0.001": 16.871238336,
			"0.002": 13.8077967044,
			"0.003": 15.2421037866,
			"0.004": 8.17433756321,
			"0.005": 4.89728186802,
			"0.006": 3.11388736755,
			"0.007": 3.55122116339,
			"0.008": 3.1942364266,
			"0.009": 3.4300152371,
			"0.01": 2.81633321678,
			"0.011": 3.48298103672,
			"0.012": 4.69809112612,
			"0.013": 2.1078632514,
			"0.014": 0.370915383141,
			"0.015": 0.0,
			"0.016": 0.0,
			"0.017": 0.0,
			"0.018": 0.0,
			"0.019": 0.0,
			"0.02": 0.0,
			"0.021": 0.0,
			"0.022": 0.0,
			"0.023": 0.0,
			"0.024": 0.0,
			"0.025": 0.0
		}
	}
}
