{
	 "smiles": "CC(=O)NC1=C(OC(F)(F)F)C=CC=C1", 
	 "Tm": 342.15, 
	 "num_atms": 23, 
	 "gaussian": { 
		 "optdone": 1, 
		 "sigma_profile": "yes", 
		 "theory": "DFT", 
		 "functional": "B3LYP", 
		 "basiset": "6-31G**", 
		 "properties": { 
			 "R2extent": 4244.4422, 
			 "electric_dipole_moment_norm": 4.43551644569, 
			 "electric_quadrupole_moment_norm": 13.2619731937, 
			 "total_energy": -852.5130155, 
			 "HOMO_LUMO_gap": 0.2094, 
			 "cosmo_polarized_energy": -11.06, 
			 "cosmo_cavitation_energy": 28.36, 
			 "cosmo_dispersion_energy": -19.85, 
			 "cosmo_repulsion_energy": 1.49, 
			 "cosmo_total_nonelectrostatic_energy": 10.01, 
			 "SMD_solvation_energy": 7.17 
		},
		"coords": [
			{
				"x": 0.4074168248,
				"y": -3.100510965,
				"z": 0.7826857774,
				"element": "C" 
			},
			{
				"x": 1.7168088364,
				"y": -2.8563153135,
				"z": 0.0599752007,
				"element": "C" 
			},
			{
				"x": 2.4744996681,
				"y": -3.7656663781,
				"z": -0.2396890609,
				"element": "O" 
			},
			{
				"x": 2.0472302013,
				"y": -1.5536652401,
				"z": -0.2875451536,
				"element": "N" 
			},
			{
				"x": 1.3523813415,
				"y": -0.3379580772,
				"z": -0.0884164314,
				"element": "C" 
			},
			{
				"x": 1.0354673139,
				"y": 0.1451518089,
				"z": 1.1937956319,
				"element": "C" 
			},
			{
				"x": 1.4548680176,
				"y": -0.6505300092,
				"z": 2.2615044424,
				"element": "O" 
			},
			{
				"x": 0.729202595,
				"y": -0.7019086604,
				"z": 3.406408446,
				"element": "C" 
			},
			{
				"x": 0.8787382251,
				"y": 0.405149778,
				"z": 4.1643528284,
				"element": "F" 
			},
			{
				"x": 1.1669266117,
				"y": -1.7464770545,
				"z": 4.1096660638,
				"element": "F" 
			},
			{
				"x": -0.5874200671,
				"y": -0.8538753754,
				"z": 3.1766074686,
				"element": "F" 
			},
			{
				"x": 0.3972990582,
				"y": 1.3723782841,
				"z": 1.3666332305,
				"element": "C" 
			},
			{
				"x": 0.0815432616,
				"y": 2.1467453041,
				"z": 0.2505433028,
				"element": "C" 
			},
			{
				"x": 0.4103226095,
				"y": 1.7003996248,
				"z": -1.0294109539,
				"element": "C" 
			},
			{
				"x": 1.0368514316,
				"y": 0.4670598226,
				"z": -1.1914340813,
				"element": "C" 
			},
			{
				"x": -0.3165174017,
				"y": -2.2916098095,
				"z": 0.6702348552,
				"element": "H" 
			},
			{
				"x": 0.6090270237,
				"y": -3.2426137415,
				"z": 1.8478312779,
				"element": "H" 
			},
			{
				"x": -0.0125045538,
				"y": -4.0308065835,
				"z": 0.3961431995,
				"element": "H" 
			},
			{
				"x": 2.8863821968,
				"y": -1.5161343537,
				"z": -0.8535806196,
				"element": "H" 
			},
			{
				"x": 0.1736860459,
				"y": 1.7302067991,
				"z": 2.3635239587,
				"element": "H" 
			},
			{
				"x": -0.4126908301,
				"y": 3.1029556835,
				"z": 0.3896653925,
				"element": "H" 
			},
			{
				"x": 0.1726697596,
				"y": 2.3042449557,
				"z": -1.8993666325,
				"element": "H" 
			},
			{
				"x": 1.2839118303,
				"y": 0.0982795007,
				"z": -2.1825281433,
				"element": "H" 
			}
		],
		 "valence_orbital": [ 
			{
				"type": "occ",
				"energy": -0.35706,
				"method": "rhf"
			},
			{
				"type": "occ",
				"energy": -0.29572,
				"method": "rhf"
			},
			{
				"type": "occ",
				"energy": -0.26656,
				"method": "rhf"
			},
			{
				"type": "occ",
				"energy": -0.25187,
				"method": "rhf"
			},
			{
				"type": "occ",
				"energy": -0.24012,
				"method": "rhf"
			},
			{
				"type": "unocc",
				"energy": -0.03072,
				"method": "rhf"
			},
			{
				"type": "unocc",
				"energy": -0.02131,
				"method": "rhf"
			},
			{
				"type": "unocc",
				"energy": 0.02947,
				"method": "rhf"
			},
			{
				"type": "unocc",
				"energy": 0.07123,
				"method": "rhf"
			},
			{
				"type": "unocc",
				"energy": 0.09296,
				"method": "rhf"
			}
		],
		"cosmo_sigma_profile": { 
			"-0.025": 0.0,
			"-0.024": 0.0,
			"-0.023": 0.0,
			"-0.022": 0.0,
			"-0.021": 0.0,
			"-0.02": 0.0,
			"-0.019": 0.0,
			"-0.018": 0.0,
			"-0.017": 0.0,
			"-0.016": 0.0,
			"-0.015": 0.082462733071,
			"-0.014": 0.830176307424,
			"-0.013": 1.25362113643,
			"-0.012": 0.943946382456,
			"-0.011": 0.502579562572,
			"-0.01": 1.15344021223,
			"-0.009": 0.777241156368,
			"-0.008": 2.0373657272,
			"-0.007": 6.40940229161,
			"-0.006": 10.1025831934,
			"-0.005": 12.3826006387,
			"-0.004": 14.6640540173,
			"-0.003": 14.9205012548,
			"-0.002": 17.513014973,
			"-0.001": 19.959880841,
			"0.0": 19.5504087348,
			"0.001": 28.6713927109,
			"0.002": 31.073517626,
			"0.003": 11.5428494885,
			"0.004": 9.36086498568,
			"0.005": 2.25840419962,
			"0.006": 2.08918197006,
			"0.007": 1.68696211383,
			"0.008": 1.29349607748,
			"0.009": 0.687237348548,
			"0.01": 1.0703288281,
			"0.011": 2.40489308578,
			"0.012": 1.63247515098,
			"0.013": 5.22252162144,
			"0.014": 4.0155331134,
			"0.015": 0.645459954534,
			"0.016": 0.0,
			"0.017": 0.0,
			"0.018": 0.0,
			"0.019": 0.0,
			"0.02": 0.0,
			"0.021": 0.0,
			"0.022": 0.0,
			"0.023": 0.0,
			"0.024": 0.0,
			"0.025": 0.0
		}
	}
}
