{
	 "smiles": "FC(F)(F)C1=CC(=CC(CCl)=C1)C(F)(F)F", 
	 "Tm": 304.15, 
	 "num_atms": 21, 
	 "gaussian": { 
		 "optdone": 1, 
		 "sigma_profile": "yes", 
		 "theory": "DFT", 
		 "functional": "B3LYP", 
		 "basiset": "6-31G**", 
		 "properties": { 
			 "R2extent": 4700.3271, 
			 "electric_dipole_moment_norm": 2.17763229449, 
			 "electric_quadrupole_moment_norm": 8.46663327303, 
			 "total_energy": -1405.22425689, 
			 "HOMO_LUMO_gap": 0.22644, 
			 "cosmo_polarized_energy": -7.27, 
			 "cosmo_cavitation_energy": 30.63, 
			 "cosmo_dispersion_energy": -20.82, 
			 "cosmo_repulsion_energy": 1.53, 
			 "cosmo_total_nonelectrostatic_energy": 11.35, 
			 "SMD_solvation_energy": 7.15 
		},
		"coords": [
			{
				"x": -2.5984984748,
				"y": 1.3835522998,
				"z": 1.6502739155,
				"element": "F" 
			},
			{
				"x": -2.2990835826,
				"y": 0.0701041354,
				"z": 1.5658732037,
				"element": "C" 
			},
			{
				"x": -3.3019954427,
				"y": -0.5398266925,
				"z": 0.9007363379,
				"element": "F" 
			},
			{
				"x": -2.3029170903,
				"y": -0.4186233802,
				"z": 2.8266324361,
				"element": "F" 
			},
			{
				"x": -0.9673686889,
				"y": -0.1548253292,
				"z": 0.895981248,
				"element": "C" 
			},
			{
				"x": -0.7430790151,
				"y": -1.3291967641,
				"z": 0.1775381167,
				"element": "C" 
			},
			{
				"x": 0.5133508601,
				"y": -1.5563178272,
				"z": -0.3845574789,
				"element": "C" 
			},
			{
				"x": 1.5365326367,
				"y": -0.6207207256,
				"z": -0.2288426105,
				"element": "C" 
			},
			{
				"x": 1.3141057264,
				"y": 0.5578299299,
				"z": 0.4910058467,
				"element": "C" 
			},
			{
				"x": 2.4139967543,
				"y": 1.5659199366,
				"z": 0.6591485795,
				"element": "C" 
			},
			{
				"x": 2.4333402324,
				"y": 2.7927232474,
				"z": -0.698673286,
				"element": "Cl" 
			},
			{
				"x": 0.0525919476,
				"y": 0.78474678,
				"z": 1.0506325773,
				"element": "C" 
			},
			{
				"x": 0.7504912689,
				"y": -2.7947716928,
				"z": -1.2111269874,
				"element": "C" 
			},
			{
				"x": 2.0384097514,
				"y": -3.1960760425,
				"z": -1.1466254315,
				"element": "F" 
			},
			{
				"x": -0.0214865652,
				"y": -3.8232064909,
				"z": -0.801009367,
				"element": "F" 
			},
			{
				"x": 0.4667877879,
				"y": -2.5792909777,
				"z": -2.514046436,
				"element": "F" 
			},
			{
				"x": -1.5355474433,
				"y": -2.0584587046,
				"z": 0.059537394,
				"element": "H" 
			},
			{
				"x": 2.5104733469,
				"y": -0.813326314,
				"z": -0.6671989662,
				"element": "H" 
			},
			{
				"x": 2.2991448716,
				"y": 2.1423247815,
				"z": 1.5771124636,
				"element": "H" 
			},
			{
				"x": 3.3980679661,
				"y": 1.0971928369,
				"z": 0.6482904339,
				"element": "H" 
			},
			{
				"x": -0.1397168475,
				"y": 1.6988469938,
				"z": 1.6032180106,
				"element": "H" 
			}
		],
		 "valence_orbital": [ 
			{
				"type": "occ",
				"energy": -0.37295,
				"method": "rhf"
			},
			{
				"type": "occ",
				"energy": -0.31287,
				"method": "rhf"
			},
			{
				"type": "occ",
				"energy": -0.30908,
				"method": "rhf"
			},
			{
				"type": "occ",
				"energy": -0.29347,
				"method": "rhf"
			},
			{
				"type": "occ",
				"energy": -0.28589,
				"method": "rhf"
			},
			{
				"type": "unocc",
				"energy": -0.05945,
				"method": "rhf"
			},
			{
				"type": "unocc",
				"energy": -0.05535,
				"method": "rhf"
			},
			{
				"type": "unocc",
				"energy": 0.01765,
				"method": "rhf"
			},
			{
				"type": "unocc",
				"energy": 0.07013,
				"method": "rhf"
			},
			{
				"type": "unocc",
				"energy": 0.09416,
				"method": "rhf"
			}
		],
		"cosmo_sigma_profile": { 
			"-0.025": 0.0,
			"-0.024": 0.0,
			"-0.023": 0.0,
			"-0.022": 0.0,
			"-0.021": 0.0,
			"-0.02": 0.0,
			"-0.019": 0.0,
			"-0.018": 0.0,
			"-0.017": 0.0,
			"-0.016": 0.0,
			"-0.015": 0.0,
			"-0.014": 0.0,
			"-0.013": 0.0,
			"-0.012": 0.0,
			"-0.011": 0.0,
			"-0.01": 0.120802484786,
			"-0.009": 4.84609449953,
			"-0.008": 8.60317215148,
			"-0.007": 7.969455003,
			"-0.006": 8.67067667412,
			"-0.005": 9.34990480541,
			"-0.004": 8.56689203822,
			"-0.003": 9.71157628019,
			"-0.002": 11.5347482415,
			"-0.001": 16.4042671219,
			"0.0": 26.8530469839,
			"0.001": 23.1480455615,
			"0.002": 48.0170745903,
			"0.003": 41.9432100379,
			"0.004": 4.13053454424,
			"0.005": 6.35783354433,
			"0.006": 10.3268892291,
			"0.007": 1.69259562362,
			"0.008": 0.0,
			"0.009": 0.0,
			"0.01": 0.0,
			"0.011": 0.0,
			"0.012": 0.0,
			"0.013": 0.0,
			"0.014": 0.0,
			"0.015": 0.0,
			"0.016": 0.0,
			"0.017": 0.0,
			"0.018": 0.0,
			"0.019": 0.0,
			"0.02": 0.0,
			"0.021": 0.0,
			"0.022": 0.0,
			"0.023": 0.0,
			"0.024": 0.0,
			"0.025": 0.0
		}
	}
}
