{
	 "smiles": "CC1=CC=C(C=C1)C(F)(F)C(O)=O", 
	 "Tm": 313.15, 
	 "num_atms": 21, 
	 "gaussian": { 
		 "optdone": 1, 
		 "sigma_profile": "yes", 
		 "theory": "DFT", 
		 "functional": "B3LYP", 
		 "basiset": "6-31G**", 
		 "properties": { 
			 "R2extent": 2977.514, 
			 "electric_dipole_moment_norm": 3.6595115808, 
			 "electric_quadrupole_moment_norm": 18.6136171039, 
			 "total_energy": -697.91578396, 
			 "HOMO_LUMO_gap": 0.21895, 
			 "cosmo_polarized_energy": -10.69, 
			 "cosmo_cavitation_energy": 26.22, 
			 "cosmo_dispersion_energy": -18.73, 
			 "cosmo_repulsion_energy": 1.46, 
			 "cosmo_total_nonelectrostatic_energy": 8.95, 
			 "SMD_solvation_energy": 6.51 
		},
		"coords": [
			{
				"x": -1.8953543904,
				"y": -0.8681219956,
				"z": 3.0978183372,
				"element": "C" 
			},
			{
				"x": -1.127125247,
				"y": -0.3261772442,
				"z": 1.9163853437,
				"element": "C" 
			},
			{
				"x": -0.2702209941,
				"y": 0.7757040547,
				"z": 2.0654299266,
				"element": "C" 
			},
			{
				"x": 0.4292209524,
				"y": 1.2965782607,
				"z": 0.9823142605,
				"element": "C" 
			},
			{
				"x": 0.2856170925,
				"y": 0.7156249209,
				"z": -0.2839413588,
				"element": "C" 
			},
			{
				"x": -0.5635341345,
				"y": -0.3799445486,
				"z": -0.4511669197,
				"element": "C" 
			},
			{
				"x": -1.2587125962,
				"y": -0.8936185556,
				"z": 0.643772128,
				"element": "C" 
			},
			{
				"x": 1.0362339212,
				"y": 1.3029444899,
				"z": -1.4456964346,
				"element": "C" 
			},
			{
				"x": 1.0637790255,
				"y": 0.4063999415,
				"z": -2.5081639685,
				"element": "F" 
			},
			{
				"x": 2.3352627731,
				"y": 1.5586895597,
				"z": -1.1103118199,
				"element": "F" 
			},
			{
				"x": 0.4444371321,
				"y": 2.6431395097,
				"z": -1.9652428607,
				"element": "C" 
			},
			{
				"x": 0.062505717,
				"y": 2.6383732528,
				"z": -3.2520040016,
				"element": "O" 
			},
			{
				"x": 0.3488798525,
				"y": 3.6041670534,
				"z": -1.2489471456,
				"element": "O" 
			},
			{
				"x": -2.3429766412,
				"y": -1.8400225279,
				"z": 2.8734568281,
				"element": "H" 
			},
			{
				"x": -2.7060987064,
				"y": -0.1879685865,
				"z": 3.3856568385,
				"element": "H" 
			},
			{
				"x": -1.2487942403,
				"y": -0.9862205409,
				"z": 3.9736173116,
				"element": "H" 
			},
			{
				"x": -0.1494482952,
				"y": 1.2304709399,
				"z": 3.0452757254,
				"element": "H" 
			},
			{
				"x": 1.0813231377,
				"y": 2.1532371458,
				"z": 1.1091884001,
				"element": "H" 
			},
			{
				"x": -0.6722388587,
				"y": -0.8390349656,
				"z": -1.4276129509,
				"element": "H" 
			},
			{
				"x": -1.9112138792,
				"y": -1.7515642935,
				"z": 0.5053192072,
				"element": "H" 
			},
			{
				"x": 0.2655583792,
				"y": 1.7677441293,
				"z": -3.6319468465,
				"element": "H" 
			}
		],
		 "valence_orbital": [ 
			{
				"type": "occ",
				"energy": -0.35165,
				"method": "rhf"
			},
			{
				"type": "occ",
				"energy": -0.32986,
				"method": "rhf"
			},
			{
				"type": "occ",
				"energy": -0.28658,
				"method": "rhf"
			},
			{
				"type": "occ",
				"energy": -0.26301,
				"method": "rhf"
			},
			{
				"type": "occ",
				"energy": -0.25532,
				"method": "rhf"
			},
			{
				"type": "unocc",
				"energy": -0.03637,
				"method": "rhf"
			},
			{
				"type": "unocc",
				"energy": -0.01464,
				"method": "rhf"
			},
			{
				"type": "unocc",
				"energy": 0.00487,
				"method": "rhf"
			},
			{
				"type": "unocc",
				"energy": 0.07348,
				"method": "rhf"
			},
			{
				"type": "unocc",
				"energy": 0.09117,
				"method": "rhf"
			}
		],
		"cosmo_sigma_profile": { 
			"-0.025": 0.0,
			"-0.024": 0.0,
			"-0.023": 0.0,
			"-0.022": 0.0,
			"-0.021": 0.0,
			"-0.02": 0.0,
			"-0.019": 0.0,
			"-0.018": 0.253615922706,
			"-0.017": 0.51713758856,
			"-0.016": 0.567545609904,
			"-0.015": 0.823544537072,
			"-0.014": 0.669996177777,
			"-0.013": 1.17046149733,
			"-0.012": 1.38478234012,
			"-0.011": 0.981478951471,
			"-0.01": 1.69663550902,
			"-0.009": 1.02434504384,
			"-0.008": 1.69475250289,
			"-0.007": 2.82886230058,
			"-0.006": 7.01761209922,
			"-0.005": 13.9995669312,
			"-0.004": 16.4618536227,
			"-0.003": 14.2267152037,
			"-0.002": 13.8449503613,
			"-0.001": 14.857865269,
			"0.0": 17.1882148914,
			"0.001": 13.3397386495,
			"0.002": 17.1101130788,
			"0.003": 23.1766134498,
			"0.004": 15.3554527903,
			"0.005": 5.54882265405,
			"0.006": 3.26427508816,
			"0.007": 3.41923191579,
			"0.008": 4.55343574406,
			"0.009": 4.42367422753,
			"0.01": 4.48338558366,
			"0.011": 2.88519764501,
			"0.012": 0.432775823329,
			"0.013": 0.0,
			"0.014": 0.0,
			"0.015": 0.0,
			"0.016": 0.0,
			"0.017": 0.0,
			"0.018": 0.0,
			"0.019": 0.0,
			"0.02": 0.0,
			"0.021": 0.0,
			"0.022": 0.0,
			"0.023": 0.0,
			"0.024": 0.0,
			"0.025": 0.0
		}
	}
}
