{
	 "smiles": "CC(C(O)=O)S(=O)(=O)C1=CC=C(F)C=C1", 
	 "Tm": 391.15, 
	 "num_atms": 24, 
	 "gaussian": { 
		 "optdone": 1, 
		 "sigma_profile": "yes", 
		 "theory": "DFT", 
		 "functional": "B3LYP", 
		 "basiset": "6-31G**", 
		 "properties": { 
			 "R2extent": 3854.3423, 
			 "electric_dipole_moment_norm": 3.37787200616, 
			 "electric_quadrupole_moment_norm": 16.7982516611, 
			 "total_energy": -1147.24656211, 
			 "HOMO_LUMO_gap": 0.2256, 
			 "cosmo_polarized_energy": -16.94, 
			 "cosmo_cavitation_energy": 30.42, 
			 "cosmo_dispersion_energy": -21.38, 
			 "cosmo_repulsion_energy": 1.61, 
			 "cosmo_total_nonelectrostatic_energy": 10.65, 
			 "SMD_solvation_energy": 6.01 
		},
		"coords": [
			{
				"x": -0.9597540169,
				"y": -0.3949201259,
				"z": -2.8677017233,
				"element": "C" 
			},
			{
				"x": -1.1111872612,
				"y": 1.0534777818,
				"z": -2.4073321385,
				"element": "C" 
			},
			{
				"x": 0.0086264128,
				"y": 1.9462557021,
				"z": -2.9094966297,
				"element": "C" 
			},
			{
				"x": -0.4654097554,
				"y": 3.0637833386,
				"z": -3.4890635373,
				"element": "O" 
			},
			{
				"x": 1.189385595,
				"y": 1.6879069588,
				"z": -2.8141454819,
				"element": "O" 
			},
			{
				"x": -1.2283295002,
				"y": 1.1901200308,
				"z": -0.5575956112,
				"element": "S" 
			},
			{
				"x": -1.038824862,
				"y": 2.6116931854,
				"z": -0.230977087,
				"element": "O" 
			},
			{
				"x": -2.4621374644,
				"y": 0.4730363304,
				"z": -0.1960378664,
				"element": "O" 
			},
			{
				"x": 0.1499193567,
				"y": 0.2671611518,
				"z": 0.1280661898,
				"element": "C" 
			},
			{
				"x": 1.3990017932,
				"y": 0.8824110967,
				"z": 0.2601171552,
				"element": "C" 
			},
			{
				"x": 2.4517025107,
				"y": 0.1698208042,
				"z": 0.8272448648,
				"element": "C" 
			},
			{
				"x": 2.2247058043,
				"y": -1.1373125149,
				"z": 1.2507426113,
				"element": "C" 
			},
			{
				"x": 3.2412917694,
				"y": -1.8242785282,
				"z": 1.7992939056,
				"element": "F" 
			},
			{
				"x": 0.9836626301,
				"y": -1.7571389637,
				"z": 1.1350467405,
				"element": "C" 
			},
			{
				"x": -0.0678886238,
				"y": -1.0423685355,
				"z": 0.5659203292,
				"element": "C" 
			},
			{
				"x": -1.0617707208,
				"y": -0.4473440807,
				"z": -3.9558190475,
				"element": "H" 
			},
			{
				"x": -1.7397371716,
				"y": -1.0157228141,
				"z": -2.4212195023,
				"element": "H" 
			},
			{
				"x": 0.023176546,
				"y": -0.7860405256,
				"z": -2.597559495,
				"element": "H" 
			},
			{
				"x": -2.0765205646,
				"y": 1.4721985965,
				"z": -2.7046027487,
				"element": "H" 
			},
			{
				"x": 0.3074080997,
				"y": 3.5903064694,
				"z": -3.7572265848,
				"element": "H" 
			},
			{
				"x": 1.540233364,
				"y": 1.9044537191,
				"z": -0.0686116374,
				"element": "H" 
			},
			{
				"x": 3.4352027022,
				"y": 0.60946921,
				"z": 0.9488297997,
				"element": "H" 
			},
			{
				"x": 0.8548781748,
				"y": -2.7722396563,
				"z": 1.4935786514,
				"element": "H" 
			},
			{
				"x": -1.0560348184,
				"y": -1.4799286307,
				"z": 0.4796488434,
				"element": "H" 
			}
		],
		 "valence_orbital": [ 
			{
				"type": "occ",
				"energy": -0.30729,
				"method": "rhf"
			},
			{
				"type": "occ",
				"energy": -0.29812,
				"method": "rhf"
			},
			{
				"type": "occ",
				"energy": -0.28954,
				"method": "rhf"
			},
			{
				"type": "occ",
				"energy": -0.28091,
				"method": "rhf"
			},
			{
				"type": "occ",
				"energy": -0.27053,
				"method": "rhf"
			},
			{
				"type": "unocc",
				"energy": -0.04493,
				"method": "rhf"
			},
			{
				"type": "unocc",
				"energy": -0.03165,
				"method": "rhf"
			},
			{
				"type": "unocc",
				"energy": -0.02345,
				"method": "rhf"
			},
			{
				"type": "unocc",
				"energy": 0.05624,
				"method": "rhf"
			},
			{
				"type": "unocc",
				"energy": 0.06662,
				"method": "rhf"
			}
		],
		"cosmo_sigma_profile": { 
			"-0.025": 0.0,
			"-0.024": 0.0,
			"-0.023": 0.0,
			"-0.022": 0.0,
			"-0.021": 0.0,
			"-0.02": 0.0,
			"-0.019": 0.467883562116,
			"-0.018": 1.33552205424,
			"-0.017": 0.873826151419,
			"-0.016": 0.802031108698,
			"-0.015": 0.602682615569,
			"-0.014": 1.20743506939,
			"-0.013": 0.466216941171,
			"-0.012": 0.606398052701,
			"-0.011": 0.758635411767,
			"-0.01": 1.45766339951,
			"-0.009": 2.76400043564,
			"-0.008": 7.92526293114,
			"-0.007": 11.5609361725,
			"-0.006": 11.8567974804,
			"-0.005": 10.6223205989,
			"-0.004": 13.6984614504,
			"-0.003": 16.2117618679,
			"-0.002": 18.4134768541,
			"-0.001": 19.018605929,
			"0.0": 18.804300207,
			"0.001": 16.4716711571,
			"0.002": 10.7846601573,
			"0.003": 13.661264579,
			"0.004": 9.6901586458,
			"0.005": 5.49675318629,
			"0.006": 5.7944720068,
			"0.007": 6.4137856235,
			"0.008": 5.89454595601,
			"0.009": 5.5782046034,
			"0.01": 10.0401623913,
			"0.011": 10.5396366132,
			"0.012": 2.55739101283,
			"0.013": 0.0,
			"0.014": 0.0,
			"0.015": 0.0,
			"0.016": 0.0,
			"0.017": 0.0,
			"0.018": 0.0,
			"0.019": 0.0,
			"0.02": 0.0,
			"0.021": 0.0,
			"0.022": 0.0,
			"0.023": 0.0,
			"0.024": 0.0,
			"0.025": 0.0
		}
	}
}
