{
	 "smiles": "CCOC(=O)C1=C2N=CC=CN2N=C1", 
	 "Tm": 391.15, 
	 "num_atms": 23, 
	 "gaussian": { 
		 "optdone": 1, 
		 "sigma_profile": "yes", 
		 "theory": "DFT", 
		 "functional": "B3LYP", 
		 "basiset": "6-31G**", 
		 "properties": { 
			 "R2extent": 3207.5525, 
			 "electric_dipole_moment_norm": 4.19037885757, 
			 "electric_quadrupole_moment_norm": 13.1013730475, 
			 "total_energy": -663.067445858, 
			 "HOMO_LUMO_gap": 0.16965, 
			 "cosmo_polarized_energy": -14.52, 
			 "cosmo_cavitation_energy": 28.06, 
			 "cosmo_dispersion_energy": -20.5, 
			 "cosmo_repulsion_energy": 1.62, 
			 "cosmo_total_nonelectrostatic_energy": 9.17, 
			 "SMD_solvation_energy": 4.23 
		},
		"coords": [
			{
				"x": 1.286144352,
				"y": 2.996282421,
				"z": 2.4093290318,
				"element": "C" 
			},
			{
				"x": -0.1037350936,
				"y": 2.6048639983,
				"z": 1.9288119172,
				"element": "C" 
			},
			{
				"x": -0.0430185004,
				"y": 1.5453441249,
				"z": 0.9472913267,
				"element": "O" 
			},
			{
				"x": 0.159251177,
				"y": 1.9252792189,
				"z": -0.3320413416,
				"element": "C" 
			},
			{
				"x": 0.2845285664,
				"y": 3.0837804952,
				"z": -0.6918153514,
				"element": "O" 
			},
			{
				"x": 0.2085985494,
				"y": 0.7886754577,
				"z": -1.2577276608,
				"element": "C" 
			},
			{
				"x": 0.0863068928,
				"y": -0.5947588105,
				"z": -1.0447291857,
				"element": "C" 
			},
			{
				"x": -0.1135751775,
				"y": -1.36489293,
				"z": 0.0424335396,
				"element": "N" 
			},
			{
				"x": -0.1756254327,
				"y": -2.6687208523,
				"z": -0.1481009559,
				"element": "C" 
			},
			{
				"x": -0.0453090246,
				"y": -3.2976929965,
				"z": -1.4164476978,
				"element": "C" 
			},
			{
				"x": 0.1580128525,
				"y": -2.5064143883,
				"z": -2.5158540485,
				"element": "C" 
			},
			{
				"x": 0.2225118872,
				"y": -1.1643411369,
				"z": -2.3247639875,
				"element": "N" 
			},
			{
				"x": 0.4180990625,
				"y": -0.2440026518,
				"z": -3.3028606139,
				"element": "N" 
			},
			{
				"x": 0.4071482294,
				"y": 0.9175320816,
				"z": -2.6479769583,
				"element": "C" 
			},
			{
				"x": 1.8210799441,
				"y": 2.1260619362,
				"z": 2.8009681606,
				"element": "H" 
			},
			{
				"x": 1.2079858234,
				"y": 3.7412902579,
				"z": 3.2084490365,
				"element": "H" 
			},
			{
				"x": 1.8656973457,
				"y": 3.4303997683,
				"z": 1.5910396926,
				"element": "H" 
			},
			{
				"x": -0.6248973735,
				"y": 3.4616231703,
				"z": 1.494751417,
				"element": "H" 
			},
			{
				"x": -0.7039018358,
				"y": 2.1862415684,
				"z": 2.7402746208,
				"element": "H" 
			},
			{
				"x": -0.3374359319,
				"y": -3.2789633602,
				"z": 0.7384016361,
				"element": "H" 
			},
			{
				"x": -0.1043395268,
				"y": -4.3742770493,
				"z": -1.5167054534,
				"element": "H" 
			},
			{
				"x": 0.2741875591,
				"y": -2.8484327421,
				"z": -3.5370970882,
				"element": "H" 
			},
			{
				"x": 0.5432856553,
				"y": 1.8439224189,
				"z": -3.1888300357,
				"element": "H" 
			}
		],
		 "valence_orbital": [ 
			{
				"type": "occ",
				"energy": -0.28746,
				"method": "rhf"
			},
			{
				"type": "occ",
				"energy": -0.27561,
				"method": "rhf"
			},
			{
				"type": "occ",
				"energy": -0.2738,
				"method": "rhf"
			},
			{
				"type": "occ",
				"energy": -0.26506,
				"method": "rhf"
			},
			{
				"type": "occ",
				"energy": -0.23592,
				"method": "rhf"
			},
			{
				"type": "unocc",
				"energy": -0.06627,
				"method": "rhf"
			},
			{
				"type": "unocc",
				"energy": -0.03043,
				"method": "rhf"
			},
			{
				"type": "unocc",
				"energy": 0.00266,
				"method": "rhf"
			},
			{
				"type": "unocc",
				"energy": 0.08011,
				"method": "rhf"
			},
			{
				"type": "unocc",
				"energy": 0.08895,
				"method": "rhf"
			}
		],
		"cosmo_sigma_profile": { 
			"-0.025": 0.0,
			"-0.024": 0.0,
			"-0.023": 0.0,
			"-0.022": 0.0,
			"-0.021": 0.0,
			"-0.02": 0.0,
			"-0.019": 0.0,
			"-0.018": 0.0,
			"-0.017": 0.0,
			"-0.016": 0.0,
			"-0.015": 0.0,
			"-0.014": 0.0,
			"-0.013": 0.0,
			"-0.012": 0.0157004817308,
			"-0.011": 1.34104796337,
			"-0.01": 1.9504110994,
			"-0.009": 4.18040981362,
			"-0.008": 8.38509405985,
			"-0.007": 7.28851414936,
			"-0.006": 7.16226289209,
			"-0.005": 10.8185182309,
			"-0.004": 17.4965024909,
			"-0.003": 22.013452958,
			"-0.002": 19.2771969683,
			"-0.001": 22.629848401,
			"0.0": 22.7418050611,
			"0.001": 16.1477821099,
			"0.002": 7.57590947316,
			"0.003": 6.20523841421,
			"0.004": 6.38226250456,
			"0.005": 3.69014968696,
			"0.006": 5.7208424907,
			"0.007": 4.05816754155,
			"0.008": 4.78837880146,
			"0.009": 3.08086277762,
			"0.01": 3.91498568234,
			"0.011": 4.76576930265,
			"0.012": 6.0399772655,
			"0.013": 3.97984902201,
			"0.014": 1.64344216646,
			"0.015": 1.29106579662,
			"0.016": 0.375983128676,
			"0.017": 0.0,
			"0.018": 0.0,
			"0.019": 0.0,
			"0.02": 0.0,
			"0.021": 0.0,
			"0.022": 0.0,
			"0.023": 0.0,
			"0.024": 0.0,
			"0.025": 0.0
		}
	}
}
