{
	 "smiles": "BrC1=NC(=CC=C1)N1CCCC1", 
	 "Tm": 360.15, 
	 "num_atms": 23, 
	 "gaussian": { 
		 "optdone": 1, 
		 "sigma_profile": "yes", 
		 "theory": "DFT", 
		 "functional": "B3LYP", 
		 "basiset": "6-31G**", 
		 "properties": { 
			 "R2extent": 4916.3208, 
			 "electric_dipole_moment_norm": 4.31594300704, 
			 "electric_quadrupole_moment_norm": 11.7769369116, 
			 "total_energy": -3030.50217205, 
			 "HOMO_LUMO_gap": 0.18344, 
			 "cosmo_polarized_energy": -7.57, 
			 "cosmo_cavitation_energy": 27.67, 
			 "cosmo_dispersion_energy": -21.14, 
			 "cosmo_repulsion_energy": 1.7, 
			 "cosmo_total_nonelectrostatic_energy": 8.23, 
			 "SMD_solvation_energy": 1.34 
		},
		"coords": [
			{
				"x": 4.6013655634,
				"y": -0.2898357956,
				"z": -1.4452132127,
				"element": "Br" 
			},
			{
				"x": 2.9969913565,
				"y": 0.5518960645,
				"z": -0.7719856838,
				"element": "C" 
			},
			{
				"x": 1.9512431286,
				"y": -0.2323824805,
				"z": -0.6271984958,
				"element": "N" 
			},
			{
				"x": 0.8070417767,
				"y": 0.3144071485,
				"z": -0.1552814453,
				"element": "C" 
			},
			{
				"x": 0.7289498683,
				"y": 1.6895888766,
				"z": 0.1786445892,
				"element": "C" 
			},
			{
				"x": 1.8597234589,
				"y": 2.4726453202,
				"z": 0.0021586247,
				"element": "C" 
			},
			{
				"x": 3.0448306575,
				"y": 1.9132739612,
				"z": -0.4881293688,
				"element": "C" 
			},
			{
				"x": -0.2536677268,
				"y": -0.5313940851,
				"z": -0.0192726068,
				"element": "N" 
			},
			{
				"x": -1.5834253791,
				"y": -0.1156285079,
				"z": 0.4214167908,
				"element": "C" 
			},
			{
				"x": -2.4516235043,
				"y": -1.3582576598,
				"z": 0.1628135586,
				"element": "C" 
			},
			{
				"x": -1.4587599668,
				"y": -2.5234569057,
				"z": 0.3114211789,
				"element": "C" 
			},
			{
				"x": -0.164936786,
				"y": -1.9688549097,
				"z": -0.3011825274,
				"element": "C" 
			},
			{
				"x": -0.1856552712,
				"y": 2.1179266493,
				"z": 0.5695867012,
				"element": "H" 
			},
			{
				"x": 1.8263525685,
				"y": 3.5299340102,
				"z": 0.2507317739,
				"element": "H" 
			},
			{
				"x": 3.9454448231,
				"y": 2.4931619487,
				"z": -0.6379755711,
				"element": "H" 
			},
			{
				"x": -1.5799618465,
				"y": 0.158437523,
				"z": 1.4880458993,
				"element": "H" 
			},
			{
				"x": -1.9339460129,
				"y": 0.7585774411,
				"z": -0.1411784445,
				"element": "H" 
			},
			{
				"x": -3.3019578298,
				"y": -1.4203237019,
				"z": 0.8470102737,
				"element": "H" 
			},
			{
				"x": -2.8457587413,
				"y": -1.3281287326,
				"z": -0.8591376728,
				"element": "H" 
			},
			{
				"x": -1.3025803422,
				"y": -2.752269769,
				"z": 1.3718493144,
				"element": "H" 
			},
			{
				"x": -1.7946180596,
				"y": -3.4393119035,
				"z": -0.1819471052,
				"element": "H" 
			},
			{
				"x": 0.7428869,
				"y": -2.3906086539,
				"z": 0.1373920485,
				"element": "H" 
			},
			{
				"x": -0.1141386349,
				"y": -2.1497958381,
				"z": -1.3839686188,
				"element": "H" 
			}
		],
		 "valence_orbital": [ 
			{
				"type": "occ",
				"energy": -0.29193,
				"method": "rhf"
			},
			{
				"type": "occ",
				"energy": -0.27376,
				"method": "rhf"
			},
			{
				"type": "occ",
				"energy": -0.26096,
				"method": "rhf"
			},
			{
				"type": "occ",
				"energy": -0.25475,
				"method": "rhf"
			},
			{
				"type": "occ",
				"energy": -0.20028,
				"method": "rhf"
			},
			{
				"type": "unocc",
				"energy": -0.01684,
				"method": "rhf"
			},
			{
				"type": "unocc",
				"energy": 0.00571,
				"method": "rhf"
			},
			{
				"type": "unocc",
				"energy": 0.0215,
				"method": "rhf"
			},
			{
				"type": "unocc",
				"energy": 0.07741,
				"method": "rhf"
			},
			{
				"type": "unocc",
				"energy": 0.10401,
				"method": "rhf"
			}
		],
		"cosmo_sigma_profile": { 
			"-0.025": 0.0,
			"-0.024": 0.0,
			"-0.023": 0.0,
			"-0.022": 0.0,
			"-0.021": 0.0,
			"-0.02": 0.0,
			"-0.019": 0.0,
			"-0.018": 0.0,
			"-0.017": 0.0,
			"-0.016": 0.0,
			"-0.015": 0.0,
			"-0.014": 0.0,
			"-0.013": 0.0,
			"-0.012": 0.0,
			"-0.011": 0.0,
			"-0.01": 0.0,
			"-0.009": 0.0,
			"-0.008": 0.0458806006734,
			"-0.007": 2.88524649739,
			"-0.006": 6.10362280493,
			"-0.005": 8.84605018102,
			"-0.004": 18.1747874532,
			"-0.003": 29.5700004971,
			"-0.002": 30.185538657,
			"-0.001": 19.3081085391,
			"0.0": 17.0338065322,
			"0.001": 10.3212144364,
			"0.002": 21.1608884965,
			"0.003": 15.9065996424,
			"0.004": 14.989785157,
			"0.005": 12.6377376889,
			"0.006": 4.99499893834,
			"0.007": 3.1237753732,
			"0.008": 1.64850840044,
			"0.009": 1.69850288462,
			"0.01": 1.532413209,
			"0.011": 1.08522179048,
			"0.012": 0.742834670898,
			"0.013": 0.238159529348,
			"0.014": 0.0,
			"0.015": 0.0,
			"0.016": 0.0,
			"0.017": 0.0,
			"0.018": 0.0,
			"0.019": 0.0,
			"0.02": 0.0,
			"0.021": 0.0,
			"0.022": 0.0,
			"0.023": 0.0,
			"0.024": 0.0,
			"0.025": 0.0
		}
	}
}
