{
	 "smiles": "COC1=C(OC(F)F)C(C=CC(O)=O)=CC=C1", 
	 "Tm": 482.15, 
	 "num_atms": 27, 
	 "gaussian": { 
		 "optdone": 1, 
		 "sigma_profile": "yes", 
		 "theory": "DFT", 
		 "functional": "B3LYP", 
		 "basiset": "6-31G**", 
		 "properties": { 
			 "R2extent": 3903.8301, 
			 "electric_dipole_moment_norm": 6.83419193029, 
			 "electric_quadrupole_moment_norm": 17.0283347442, 
			 "total_energy": -925.729245821, 
			 "HOMO_LUMO_gap": 0.19831, 
			 "cosmo_polarized_energy": -16.54, 
			 "cosmo_cavitation_energy": 31.58, 
			 "cosmo_dispersion_energy": -21.86, 
			 "cosmo_repulsion_energy": 1.65, 
			 "cosmo_total_nonelectrostatic_energy": 11.37, 
			 "SMD_solvation_energy": 7.88 
		},
		"coords": [
			{
				"x": -0.2900973152,
				"y": 1.1705348112,
				"z": -2.679640502,
				"element": "C" 
			},
			{
				"x": 0.6446715608,
				"y": 0.3931521509,
				"z": -1.9131152772,
				"element": "O" 
			},
			{
				"x": 0.8334072762,
				"y": 0.819339735,
				"z": -0.6228824299,
				"element": "C" 
			},
			{
				"x": -0.0923515517,
				"y": 0.4808658504,
				"z": 0.3808288366,
				"element": "C" 
			},
			{
				"x": -1.2674533027,
				"y": -0.1727274362,
				"z": 0.0701042545,
				"element": "O" 
			},
			{
				"x": -1.2125388731,
				"y": -1.4150967508,
				"z": -0.5457232458,
				"element": "C" 
			},
			{
				"x": -1.7885183286,
				"y": -1.3222706774,
				"z": -1.7696587073,
				"element": "F" 
			},
			{
				"x": -1.9723468742,
				"y": -2.2612392786,
				"z": 0.1809997911,
				"element": "F" 
			},
			{
				"x": 0.1194189801,
				"y": 0.8783908112,
				"z": 1.7148771482,
				"element": "C" 
			},
			{
				"x": -0.8603833198,
				"y": 0.5640706499,
				"z": 2.7915662916,
				"element": "C" 
			},
			{
				"x": -1.1762541747,
				"y": -0.6373046825,
				"z": 3.2982312265,
				"element": "C" 
			},
			{
				"x": -0.6369459119,
				"y": -1.98286848,
				"z": 2.9379125274,
				"element": "C" 
			},
			{
				"x": 0.4987632418,
				"y": -2.0436421558,
				"z": 2.190554376,
				"element": "O" 
			},
			{
				"x": -1.172118373,
				"y": -2.9985319621,
				"z": 3.3134230602,
				"element": "O" 
			},
			{
				"x": 1.2662054329,
				"y": 1.6357405378,
				"z": 2.013768125,
				"element": "C" 
			},
			{
				"x": 2.1955296218,
				"y": 1.951184195,
				"z": 1.0247928419,
				"element": "C" 
			},
			{
				"x": 1.9793460837,
				"y": 1.5429424145,
				"z": -0.2913291852,
				"element": "C" 
			},
			{
				"x": -0.3260642173,
				"y": 0.7093102244,
				"z": -3.6672685683,
				"element": "H" 
			},
			{
				"x": -1.2874962995,
				"y": 1.1462654183,
				"z": -2.2325738227,
				"element": "H" 
			},
			{
				"x": 0.055711452,
				"y": 2.2071047129,
				"z": -2.7688001434,
				"element": "H" 
			},
			{
				"x": -0.1965697092,
				"y": -1.8032837375,
				"z": -0.637798281,
				"element": "H" 
			},
			{
				"x": -1.3624717556,
				"y": 1.4306217242,
				"z": 3.2212980041,
				"element": "H" 
			},
			{
				"x": -1.9353259213,
				"y": -0.6998028027,
				"z": 4.0716005339,
				"element": "H" 
			},
			{
				"x": 0.8632687888,
				"y": -1.1542179284,
				"z": 2.0577706549,
				"element": "H" 
			},
			{
				"x": 1.4297202673,
				"y": 1.9555221742,
				"z": 3.0385208212,
				"element": "H" 
			},
			{
				"x": 3.0854851375,
				"y": 2.5185894145,
				"z": 1.2777026457,
				"element": "H" 
			},
			{
				"x": 2.6855080848,
				"y": 1.7749510676,
				"z": -1.0819609761,
				"element": "H" 
			}
		],
		 "valence_orbital": [ 
			{
				"type": "occ",
				"energy": -0.29774,
				"method": "rhf"
			},
			{
				"type": "occ",
				"energy": -0.29256,
				"method": "rhf"
			},
			{
				"type": "occ",
				"energy": -0.2721,
				"method": "rhf"
			},
			{
				"type": "occ",
				"energy": -0.26435,
				"method": "rhf"
			},
			{
				"type": "occ",
				"energy": -0.26078,
				"method": "rhf"
			},
			{
				"type": "unocc",
				"energy": -0.06247,
				"method": "rhf"
			},
			{
				"type": "unocc",
				"energy": -0.02803,
				"method": "rhf"
			},
			{
				"type": "unocc",
				"energy": -0.02619,
				"method": "rhf"
			},
			{
				"type": "unocc",
				"energy": 0.06384,
				"method": "rhf"
			},
			{
				"type": "unocc",
				"energy": 0.07727,
				"method": "rhf"
			}
		],
		"cosmo_sigma_profile": { 
			"-0.025": 0.0,
			"-0.024": 0.0,
			"-0.023": 0.0,
			"-0.022": 0.0,
			"-0.021": 0.0,
			"-0.02": 0.0,
			"-0.019": 0.0,
			"-0.018": 0.0,
			"-0.017": 0.0,
			"-0.016": 0.0,
			"-0.015": 0.0,
			"-0.014": 0.0,
			"-0.013": 0.0,
			"-0.012": 0.10633109635,
			"-0.011": 1.3285745028,
			"-0.01": 3.21046381487,
			"-0.009": 2.39889971328,
			"-0.008": 6.10410425443,
			"-0.007": 12.9083176769,
			"-0.006": 13.5471977192,
			"-0.005": 18.6480182333,
			"-0.004": 17.4699377329,
			"-0.003": 19.8959464582,
			"-0.002": 15.736886797,
			"-0.001": 12.7181029575,
			"0.0": 14.6086326446,
			"0.001": 13.6702689555,
			"0.002": 17.1760546208,
			"0.003": 22.008314694,
			"0.004": 17.1117714366,
			"0.005": 6.48214600261,
			"0.006": 6.46185780401,
			"0.007": 4.32486472331,
			"0.008": 3.73338785683,
			"0.009": 4.15571343543,
			"0.01": 4.9991375741,
			"0.011": 5.70173057986,
			"0.012": 5.60877235813,
			"0.013": 1.77643336686,
			"0.014": 0.0394531267234,
			"0.015": 0.0,
			"0.016": 0.0,
			"0.017": 0.0,
			"0.018": 0.0,
			"0.019": 0.0,
			"0.02": 0.0,
			"0.021": 0.0,
			"0.022": 0.0,
			"0.023": 0.0,
			"0.024": 0.0,
			"0.025": 0.0
		}
	}
}
