{
	 "smiles": "CCC(=O)C1=CC(Br)=CC(F)=C1", 
	 "Tm": 303.15, 
	 "num_atms": 20, 
	 "gaussian": { 
		 "optdone": 1, 
		 "sigma_profile": "yes", 
		 "theory": "DFT", 
		 "functional": "B3LYP", 
		 "basiset": "6-31G**", 
		 "properties": { 
			 "R2extent": 5573.6121, 
			 "electric_dipole_moment_norm": 2.07893262277, 
			 "electric_quadrupole_moment_norm": 4.80641559065, 
			 "total_energy": -3094.24480107, 
			 "HOMO_LUMO_gap": 0.18415, 
			 "cosmo_polarized_energy": -7.05, 
			 "cosmo_cavitation_energy": 27.11, 
			 "cosmo_dispersion_energy": -19.67, 
			 "cosmo_repulsion_energy": 1.56, 
			 "cosmo_total_nonelectrostatic_energy": 9.0, 
			 "SMD_solvation_energy": 4.61 
		},
		"coords": [
			{
				"x": -1.2701126571,
				"y": -1.500324993,
				"z": 0.1560493372,
				"element": "C" 
			},
			{
				"x": -0.8073144527,
				"y": -0.3548392429,
				"z": 1.0783428008,
				"element": "C" 
			},
			{
				"x": -0.2672380773,
				"y": 0.8252303463,
				"z": 0.2828046658,
				"element": "C" 
			},
			{
				"x": -0.9847565572,
				"y": 1.7797667906,
				"z": 0.0280865881,
				"element": "O" 
			},
			{
				"x": 1.1506820764,
				"y": 0.7991901881,
				"z": -0.2300298126,
				"element": "C" 
			},
			{
				"x": 2.0399972174,
				"y": -0.2488020127,
				"z": 0.0491688134,
				"element": "C" 
			},
			{
				"x": 3.3362046801,
				"y": -0.1987456685,
				"z": -0.4614070378,
				"element": "C" 
			},
			{
				"x": 4.5471887328,
				"y": -1.6253174675,
				"z": -0.0818916043,
				"element": "Br" 
			},
			{
				"x": 3.772343666,
				"y": 0.8682384038,
				"z": -1.242478281,
				"element": "C" 
			},
			{
				"x": 2.8664327517,
				"y": 1.8946615303,
				"z": -1.5022328442,
				"element": "C" 
			},
			{
				"x": 3.2782812119,
				"y": 2.9304887637,
				"z": -2.2560281333,
				"element": "F" 
			},
			{
				"x": 1.5701118524,
				"y": 1.8825263272,
				"z": -1.01498906,
				"element": "C" 
			},
			{
				"x": -2.0382208226,
				"y": -1.1464539698,
				"z": -0.5377746132,
				"element": "H" 
			},
			{
				"x": -0.443784945,
				"y": -1.9078350645,
				"z": -0.4341686825,
				"element": "H" 
			},
			{
				"x": -1.6965702139,
				"y": -2.3152260249,
				"z": 0.7480272874,
				"element": "H" 
			},
			{
				"x": -1.6576419943,
				"y": 0.0244761357,
				"z": 1.6507366411,
				"element": "H" 
			},
			{
				"x": -0.0608799037,
				"y": -0.7216219985,
				"z": 1.7911093517,
				"element": "H" 
			},
			{
				"x": 1.7405498422,
				"y": -1.0951270044,
				"z": 0.6533762513,
				"element": "H" 
			},
			{
				"x": 4.7781159747,
				"y": 0.9138235582,
				"z": -1.6413098346,
				"element": "H" 
			},
			{
				"x": 0.8810116183,
				"y": 2.6910914027,
				"z": -1.2276918332,
				"element": "H" 
			}
		],
		 "valence_orbital": [ 
			{
				"type": "occ",
				"energy": -0.32003,
				"method": "rhf"
			},
			{
				"type": "occ",
				"energy": -0.30115,
				"method": "rhf"
			},
			{
				"type": "occ",
				"energy": -0.27292,
				"method": "rhf"
			},
			{
				"type": "occ",
				"energy": -0.25876,
				"method": "rhf"
			},
			{
				"type": "occ",
				"energy": -0.2571,
				"method": "rhf"
			},
			{
				"type": "unocc",
				"energy": -0.07295,
				"method": "rhf"
			},
			{
				"type": "unocc",
				"energy": -0.02508,
				"method": "rhf"
			},
			{
				"type": "unocc",
				"energy": -0.00838,
				"method": "rhf"
			},
			{
				"type": "unocc",
				"energy": 0.0237,
				"method": "rhf"
			},
			{
				"type": "unocc",
				"energy": 0.08866,
				"method": "rhf"
			}
		],
		"cosmo_sigma_profile": { 
			"-0.025": 0.0,
			"-0.024": 0.0,
			"-0.023": 0.0,
			"-0.022": 0.0,
			"-0.021": 0.0,
			"-0.02": 0.0,
			"-0.019": 0.0,
			"-0.018": 0.0,
			"-0.017": 0.0,
			"-0.016": 0.0,
			"-0.015": 0.0,
			"-0.014": 0.0,
			"-0.013": 0.0,
			"-0.012": 0.0,
			"-0.011": 0.0,
			"-0.01": 0.0103328790471,
			"-0.009": 1.35589221466,
			"-0.008": 3.28485312098,
			"-0.007": 4.57817288254,
			"-0.006": 5.76879941998,
			"-0.005": 8.61051838011,
			"-0.004": 15.7352898986,
			"-0.003": 17.3654814133,
			"-0.002": 23.0175668603,
			"-0.001": 24.0150849006,
			"0.0": 28.1148601834,
			"0.001": 24.4025431121,
			"0.002": 11.0098201631,
			"0.003": 15.692812954,
			"0.004": 19.1104179445,
			"0.005": 2.62321663528,
			"0.006": 1.25050731462,
			"0.007": 1.5817880844,
			"0.008": 1.67370252167,
			"0.009": 1.76176511685,
			"0.01": 2.27171161546,
			"0.011": 3.50634560257,
			"0.012": 2.5765891188,
			"0.013": 0.579255023253,
			"0.014": 0.0,
			"0.015": 0.0,
			"0.016": 0.0,
			"0.017": 0.0,
			"0.018": 0.0,
			"0.019": 0.0,
			"0.02": 0.0,
			"0.021": 0.0,
			"0.022": 0.0,
			"0.023": 0.0,
			"0.024": 0.0,
			"0.025": 0.0
		}
	}
}
