{
	 "smiles": "CC1CCC(CC1)NS(=O)(=O)CC(O)=O", 
	 "Tm": 390.15, 
	 "num_atms": 32, 
	 "gaussian": { 
		 "optdone": 1, 
		 "sigma_profile": "yes", 
		 "theory": "DFT", 
		 "functional": "B3LYP", 
		 "basiset": "6-31G**", 
		 "properties": { 
			 "R2extent": 5000.0013, 
			 "electric_dipole_moment_norm": 3.22446538359, 
			 "electric_quadrupole_moment_norm": 18.0909679321, 
			 "total_energy": -1106.9940562, 
			 "HOMO_LUMO_gap": 0.24089, 
			 "cosmo_polarized_energy": -17.56, 
			 "cosmo_cavitation_energy": 34.62, 
			 "cosmo_dispersion_energy": -24.74, 
			 "cosmo_repulsion_energy": 1.91, 
			 "cosmo_total_nonelectrostatic_energy": 11.79, 
			 "SMD_solvation_energy": 5.17 
		},
		"coords": [
			{
				"x": -3.8263980638,
				"y": -0.0265058777,
				"z": -0.8140970173,
				"element": "C" 
			},
			{
				"x": -2.6881495777,
				"y": -0.7662796283,
				"z": -0.0990419774,
				"element": "C" 
			},
			{
				"x": -1.6357017847,
				"y": -1.2770061145,
				"z": -1.1151353154,
				"element": "C" 
			},
			{
				"x": -0.2832457719,
				"y": -1.5450354009,
				"z": -0.4437991529,
				"element": "C" 
			},
			{
				"x": 0.3395235731,
				"y": -0.2506187468,
				"z": 0.1405825155,
				"element": "C" 
			},
			{
				"x": -0.7434536073,
				"y": 0.7955623617,
				"z": 0.4831391837,
				"element": "C" 
			},
			{
				"x": -2.01854897,
				"y": 0.1135659744,
				"z": 0.9964195095,
				"element": "C" 
			},
			{
				"x": 1.3514271257,
				"y": 0.2930614599,
				"z": -0.7996617013,
				"element": "N" 
			},
			{
				"x": 2.6654915284,
				"y": 1.1583028873,
				"z": -0.236523281,
				"element": "S" 
			},
			{
				"x": 2.5240945216,
				"y": 1.4575969621,
				"z": 1.1913941055,
				"element": "O" 
			},
			{
				"x": 2.92572736,
				"y": 2.2056718601,
				"z": -1.2288776273,
				"element": "O" 
			},
			{
				"x": 4.063856041,
				"y": -0.0075422492,
				"z": -0.3884722405,
				"element": "C" 
			},
			{
				"x": 4.0099295629,
				"y": -1.1370017146,
				"z": 0.6194088481,
				"element": "C" 
			},
			{
				"x": 5.1658419175,
				"y": -1.2290319358,
				"z": 1.3061244031,
				"element": "O" 
			},
			{
				"x": 3.0716620334,
				"y": -1.882319008,
				"z": 0.7901077052,
				"element": "O" 
			},
			{
				"x": -4.6281963087,
				"y": 0.2413515901,
				"z": -0.1175437229,
				"element": "H" 
			},
			{
				"x": -3.4648457783,
				"y": 0.9001766937,
				"z": -1.2769762688,
				"element": "H" 
			},
			{
				"x": -4.2639029975,
				"y": -0.6417812576,
				"z": -1.60851475,
				"element": "H" 
			},
			{
				"x": -3.121186312,
				"y": -1.6444656852,
				"z": 0.398609595,
				"element": "H" 
			},
			{
				"x": -1.5081517942,
				"y": -0.5326340236,
				"z": -1.914637674,
				"element": "H" 
			},
			{
				"x": -2.0050357742,
				"y": -2.1826652741,
				"z": -1.6095961136,
				"element": "H" 
			},
			{
				"x": 0.4303147851,
				"y": -2.0023994372,
				"z": -1.1344629932,
				"element": "H" 
			},
			{
				"x": -0.4259428663,
				"y": -2.2638620089,
				"z": 0.3721282934,
				"element": "H" 
			},
			{
				"x": 0.8919609211,
				"y": -0.5103000987,
				"z": 1.0442113065,
				"element": "H" 
			},
			{
				"x": -0.9831576202,
				"y": 1.3771951683,
				"z": -0.4184470806,
				"element": "H" 
			},
			{
				"x": -0.3437344529,
				"y": 1.5073152487,
				"z": 1.2116112025,
				"element": "H" 
			},
			{
				"x": -1.7616581691,
				"y": -0.5032714508,
				"z": 1.8669988896,
				"element": "H" 
			},
			{
				"x": -2.7286722316,
				"y": 0.86534657,
				"z": 1.3591998188,
				"element": "H" 
			},
			{
				"x": 0.970550597,
				"y": 0.7985753909,
				"z": -1.5958736647,
				"element": "H" 
			},
			{
				"x": 4.0268127967,
				"y": -0.4080882424,
				"z": -1.403594707,
				"element": "H" 
			},
			{
				"x": 4.9623275547,
				"y": 0.5976116099,
				"z": -0.2611212086,
				"element": "H" 
			},
			{
				"x": 5.0612617622,
				"y": -1.9712256228,
				"z": 1.9264411202,
				"element": "H" 
			}
		],
		 "valence_orbital": [ 
			{
				"type": "occ",
				"energy": -0.30665,
				"method": "rhf"
			},
			{
				"type": "occ",
				"energy": -0.30535,
				"method": "rhf"
			},
			{
				"type": "occ",
				"energy": -0.29719,
				"method": "rhf"
			},
			{
				"type": "occ",
				"energy": -0.29432,
				"method": "rhf"
			},
			{
				"type": "occ",
				"energy": -0.26509,
				"method": "rhf"
			},
			{
				"type": "unocc",
				"energy": -0.0242,
				"method": "rhf"
			},
			{
				"type": "unocc",
				"energy": 0.05189,
				"method": "rhf"
			},
			{
				"type": "unocc",
				"energy": 0.06263,
				"method": "rhf"
			},
			{
				"type": "unocc",
				"energy": 0.07682,
				"method": "rhf"
			},
			{
				"type": "unocc",
				"energy": 0.08252,
				"method": "rhf"
			}
		],
		"cosmo_sigma_profile": { 
			"-0.025": 0.0,
			"-0.024": 0.0,
			"-0.023": 0.0,
			"-0.022": 0.0,
			"-0.021": 0.0,
			"-0.02": 0.0,
			"-0.019": 0.692567409058,
			"-0.018": 1.01148219473,
			"-0.017": 0.871891043326,
			"-0.016": 1.03455272444,
			"-0.015": 0.669912478795,
			"-0.014": 0.504729657534,
			"-0.013": 1.70564709241,
			"-0.012": 1.68841997123,
			"-0.011": 2.11494461876,
			"-0.01": 5.61724333793,
			"-0.009": 5.55377206421,
			"-0.008": 5.26674841713,
			"-0.007": 5.67404633794,
			"-0.006": 5.42664116854,
			"-0.005": 6.32755493479,
			"-0.004": 6.81375221714,
			"-0.003": 16.9640238768,
			"-0.002": 30.2570636165,
			"-0.001": 31.8195120499,
			"0.0": 33.1101879165,
			"0.001": 24.910202836,
			"0.002": 12.2081115669,
			"0.003": 6.79235433804,
			"0.004": 5.56433738721,
			"0.005": 5.92290795155,
			"0.006": 6.36459917504,
			"0.007": 7.68101905286,
			"0.008": 7.37137060236,
			"0.009": 5.63020355075,
			"0.01": 9.67975276399,
			"0.011": 11.1600743087,
			"0.012": 2.15364303191,
			"0.013": 0.0,
			"0.014": 0.0,
			"0.015": 0.0,
			"0.016": 0.0,
			"0.017": 0.0,
			"0.018": 0.0,
			"0.019": 0.0,
			"0.02": 0.0,
			"0.021": 0.0,
			"0.022": 0.0,
			"0.023": 0.0,
			"0.024": 0.0,
			"0.025": 0.0
		}
	}
}
