{
	 "smiles": "COCCNC(N)=S", 
	 "Tm": 392.15, 
	 "num_atms": 18, 
	 "gaussian": { 
		 "optdone": 1, 
		 "sigma_profile": "yes", 
		 "theory": "DFT", 
		 "functional": "B3LYP", 
		 "basiset": "6-31G**", 
		 "properties": { 
			 "R2extent": 1696.5695, 
			 "electric_dipole_moment_norm": 4.86327471875, 
			 "electric_quadrupole_moment_norm": 13.8047919369, 
			 "total_energy": -741.368361357, 
			 "HOMO_LUMO_gap": 0.20381, 
			 "cosmo_polarized_energy": -17.27, 
			 "cosmo_cavitation_energy": 23.04, 
			 "cosmo_dispersion_energy": -17.32, 
			 "cosmo_repulsion_energy": 1.44, 
			 "cosmo_total_nonelectrostatic_energy": 7.17, 
			 "SMD_solvation_energy": 3.23 
		},
		"coords": [
			{
				"x": -1.1467667442,
				"y": 0.6432129929,
				"z": -3.3455423955,
				"element": "C" 
			},
			{
				"x": -0.2667605627,
				"y": 0.1820291671,
				"z": -2.3401695907,
				"element": "O" 
			},
			{
				"x": -0.9158607627,
				"y": -0.5929825956,
				"z": -1.3426644509,
				"element": "C" 
			},
			{
				"x": 0.1241161018,
				"y": -0.9368477847,
				"z": -0.2853656091,
				"element": "C" 
			},
			{
				"x": 0.7155763666,
				"y": 0.2682611704,
				"z": 0.27401887,
				"element": "N" 
			},
			{
				"x": 0.4979003869,
				"y": 0.73224254,
				"z": 1.532304764,
				"element": "C" 
			},
			{
				"x": 1.036658796,
				"y": 1.9704018927,
				"z": 1.769551891,
				"element": "N" 
			},
			{
				"x": -0.3630105394,
				"y": -0.0809747848,
				"z": 2.7296917005,
				"element": "S" 
			},
			{
				"x": -1.9416220927,
				"y": 1.2817231923,
				"z": -2.930286422,
				"element": "H" 
			},
			{
				"x": -0.5550112559,
				"y": 1.2282645067,
				"z": -4.0537032685,
				"element": "H" 
			},
			{
				"x": -1.6209074719,
				"y": -0.1915268858,
				"z": -3.8841911937,
				"element": "H" 
			},
			{
				"x": -1.3337589342,
				"y": -1.5167146716,
				"z": -1.7753625891,
				"element": "H" 
			},
			{
				"x": -1.7428872394,
				"y": -0.0249037225,
				"z": -0.8882177599,
				"element": "H" 
			},
			{
				"x": 0.9147942227,
				"y": -1.5471297324,
				"z": -0.7376216756,
				"element": "H" 
			},
			{
				"x": -0.330780118,
				"y": -1.4963375168,
				"z": 0.5343034521,
				"element": "H" 
			},
			{
				"x": 1.0376167966,
				"y": 0.9280705875,
				"z": -0.4238219112,
				"element": "H" 
			},
			{
				"x": 1.0321732293,
				"y": 2.2583575931,
				"z": 2.7360702235,
				"element": "H" 
			},
			{
				"x": 1.8212298211,
				"y": 2.2857540515,
				"z": 1.2141059652,
				"element": "H" 
			}
		],
		 "valence_orbital": [ 
			{
				"type": "occ",
				"energy": -0.33345,
				"method": "rhf"
			},
			{
				"type": "occ",
				"energy": -0.26912,
				"method": "rhf"
			},
			{
				"type": "occ",
				"energy": -0.26501,
				"method": "rhf"
			},
			{
				"type": "occ",
				"energy": -0.21028,
				"method": "rhf"
			},
			{
				"type": "occ",
				"energy": -0.19959,
				"method": "rhf"
			},
			{
				"type": "unocc",
				"energy": 0.00422,
				"method": "rhf"
			},
			{
				"type": "unocc",
				"energy": 0.06326,
				"method": "rhf"
			},
			{
				"type": "unocc",
				"energy": 0.08752,
				"method": "rhf"
			},
			{
				"type": "unocc",
				"energy": 0.09579,
				"method": "rhf"
			},
			{
				"type": "unocc",
				"energy": 0.11726,
				"method": "rhf"
			}
		],
		"cosmo_sigma_profile": { 
			"-0.025": 0.0,
			"-0.024": 0.0,
			"-0.023": 0.0,
			"-0.022": 0.0,
			"-0.021": 0.0,
			"-0.02": 0.0,
			"-0.019": 0.0,
			"-0.018": 0.0,
			"-0.017": 0.155141006968,
			"-0.016": 1.28436464244,
			"-0.015": 1.7524227599,
			"-0.014": 2.23155102467,
			"-0.013": 2.839108808,
			"-0.012": 3.02396962858,
			"-0.011": 2.3285407526,
			"-0.01": 2.33444162739,
			"-0.009": 1.74844175554,
			"-0.008": 2.33396144389,
			"-0.007": 1.42726676129,
			"-0.006": 2.17884614413,
			"-0.005": 7.470342647,
			"-0.004": 20.1726667542,
			"-0.003": 22.7273675858,
			"-0.002": 18.7694905406,
			"-0.001": 10.3611321275,
			"0.0": 7.15109775742,
			"0.001": 6.37102987406,
			"0.002": 4.97053364563,
			"0.003": 5.25537088022,
			"0.004": 6.32958283388,
			"0.005": 6.11985238436,
			"0.006": 6.06972966809,
			"0.007": 5.47717773755,
			"0.008": 5.01074091814,
			"0.009": 5.64849865501,
			"0.01": 5.8402938572,
			"0.011": 8.03594212567,
			"0.012": 6.39339541343,
			"0.013": 1.03753396479,
			"0.014": 0.0,
			"0.015": 0.0,
			"0.016": 0.0,
			"0.017": 0.0,
			"0.018": 0.0,
			"0.019": 0.0,
			"0.02": 0.0,
			"0.021": 0.0,
			"0.022": 0.0,
			"0.023": 0.0,
			"0.024": 0.0,
			"0.025": 0.0
		}
	}
}
