{
	 "smiles": "CC(NC(N)=O)C(O)=O", 
	 "Tm": 445.15, 
	 "num_atms": 17, 
	 "gaussian": { 
		 "optdone": 1, 
		 "sigma_profile": "yes", 
		 "theory": "DFT", 
		 "functional": "B3LYP", 
		 "basiset": "6-31G**", 
		 "properties": { 
			 "R2extent": 2598.8036, 
			 "electric_dipole_moment_norm": 2.57869440803, 
			 "electric_quadrupole_moment_norm": 10.0646750703, 
			 "total_energy": -492.466806456, 
			 "HOMO_LUMO_gap": 0.24434, 
			 "cosmo_polarized_energy": -17.57, 
			 "cosmo_cavitation_energy": 21.44, 
			 "cosmo_dispersion_energy": -15.62, 
			 "cosmo_repulsion_energy": 1.33, 
			 "cosmo_total_nonelectrostatic_energy": 7.15, 
			 "SMD_solvation_energy": 5.41 
		},
		"coords": [
			{
				"x": -2.414604803,
				"y": 1.4672096969,
				"z": -0.2604756716,
				"element": "C" 
			},
			{
				"x": -1.9970638388,
				"y": 0.2978433673,
				"z": 0.6560909372,
				"element": "C" 
			},
			{
				"x": -2.2149812788,
				"y": -1.0042817913,
				"z": 0.0612321237,
				"element": "N" 
			},
			{
				"x": -1.3986346569,
				"y": -1.4688542598,
				"z": -0.9382406171,
				"element": "C" 
			},
			{
				"x": -1.7477568662,
				"y": -2.7199684307,
				"z": -1.4347431406,
				"element": "N" 
			},
			{
				"x": -0.4569793671,
				"y": -0.8205310583,
				"z": -1.3846762275,
				"element": "O" 
			},
			{
				"x": -2.7759214274,
				"y": 0.3356053076,
				"z": 1.9606669178,
				"element": "C" 
			},
			{
				"x": -2.4534633883,
				"y": 1.4089163891,
				"z": 2.709357631,
				"element": "O" 
			},
			{
				"x": -3.6143051498,
				"y": -0.476329524,
				"z": 2.2949374798,
				"element": "O" 
			},
			{
				"x": -1.8364503162,
				"y": 1.3979325859,
				"z": -1.1833309696,
				"element": "H" 
			},
			{
				"x": -3.4807002065,
				"y": 1.4070728135,
				"z": -0.5007740301,
				"element": "H" 
			},
			{
				"x": -2.2115772893,
				"y": 2.4275738279,
				"z": 0.2204784862,
				"element": "H" 
			},
			{
				"x": -0.9313723492,
				"y": 0.4098686699,
				"z": 0.8855705456,
				"element": "H" 
			},
			{
				"x": -3.0375554299,
				"y": -1.5050414132,
				"z": 0.3671850234,
				"element": "H" 
			},
			{
				"x": -1.0212474167,
				"y": -3.1199038103,
				"z": -2.0110826967,
				"element": "H" 
			},
			{
				"x": -2.1911146542,
				"y": -3.3767832698,
				"z": -0.8073731149,
				"element": "H" 
			},
			{
				"x": -3.0180715617,
				"y": 1.3743708993,
				"z": 3.4999773234,
				"element": "H" 
			}
		],
		 "valence_orbital": [ 
			{
				"type": "occ",
				"energy": -0.33358,
				"method": "rhf"
			},
			{
				"type": "occ",
				"energy": -0.29264,
				"method": "rhf"
			},
			{
				"type": "occ",
				"energy": -0.2692,
				"method": "rhf"
			},
			{
				"type": "occ",
				"energy": -0.25146,
				"method": "rhf"
			},
			{
				"type": "occ",
				"energy": -0.24853,
				"method": "rhf"
			},
			{
				"type": "unocc",
				"energy": -0.00419,
				"method": "rhf"
			},
			{
				"type": "unocc",
				"energy": 0.0578,
				"method": "rhf"
			},
			{
				"type": "unocc",
				"energy": 0.06543,
				"method": "rhf"
			},
			{
				"type": "unocc",
				"energy": 0.07798,
				"method": "rhf"
			},
			{
				"type": "unocc",
				"energy": 0.12478,
				"method": "rhf"
			}
		],
		"cosmo_sigma_profile": { 
			"-0.025": 0.0,
			"-0.024": 0.0,
			"-0.023": 0.0,
			"-0.022": 0.0,
			"-0.021": 0.0,
			"-0.02": 0.0,
			"-0.019": 0.440744897437,
			"-0.018": 0.787458171695,
			"-0.017": 1.21753871009,
			"-0.016": 0.913302202284,
			"-0.015": 1.09039872698,
			"-0.014": 2.55875669004,
			"-0.013": 3.57601604248,
			"-0.012": 3.08682657693,
			"-0.011": 3.73292918552,
			"-0.01": 3.86416686629,
			"-0.009": 2.81217804926,
			"-0.008": 3.11985364076,
			"-0.007": 2.96585793864,
			"-0.006": 3.88497212463,
			"-0.005": 7.22431508545,
			"-0.004": 8.82960788554,
			"-0.003": 10.7441903124,
			"-0.002": 10.4118650263,
			"-0.001": 11.2560159312,
			"0.0": 12.3001974245,
			"0.001": 8.55968542493,
			"0.002": 7.36687467109,
			"0.003": 6.34805838051,
			"0.004": 4.15194632131,
			"0.005": 5.25279680602,
			"0.006": 5.4595081595,
			"0.007": 4.21229922083,
			"0.008": 4.92504212394,
			"0.009": 4.59193103291,
			"0.01": 4.3517158797,
			"0.011": 5.25304487857,
			"0.012": 2.90694194022,
			"0.013": 1.82929820146,
			"0.014": 4.53919382151,
			"0.015": 3.10728468759,
			"0.016": 0.119583259459,
			"0.017": 0.0,
			"0.018": 0.0,
			"0.019": 0.0,
			"0.02": 0.0,
			"0.021": 0.0,
			"0.022": 0.0,
			"0.023": 0.0,
			"0.024": 0.0,
			"0.0": 0.0
		}
	}
}
