{
	 "smiles": "OCC(CC1=CC=CC=C1)(NC(=O)C1=CC=CC=C1)C(O)=O", 
	 "Tm": 434.15, 
	 "num_atms": 39, 
	 "gaussian": { 
		 "optdone": 1, 
		 "sigma_profile": "yes", 
		 "theory": "DFT", 
		 "functional": "B3LYP", 
		 "basiset": "6-31G**", 
		 "properties": { 
			 "R2extent": 7156.9338, 
			 "electric_dipole_moment_norm": 4.48624091529, 
			 "electric_quadrupole_moment_norm": 10.8570581328, 
			 "total_energy": -1013.72901751, 
			 "HOMO_LUMO_gap": 0.19513, 
			 "cosmo_polarized_energy": -19.16, 
			 "cosmo_cavitation_energy": 42.13, 
			 "cosmo_dispersion_energy": -28.09, 
			 "cosmo_repulsion_energy": 2.15, 
			 "cosmo_total_nonelectrostatic_energy": 16.18, 
			 "SMD_solvation_energy": 8.17 
		},
		"coords": [
			{
				"x": 2.408849788,
				"y": 3.0039268078,
				"z": 2.3260798319,
				"element": "O" 
			},
			{
				"x": 2.5559641464,
				"y": 2.8038570006,
				"z": 0.9330980128,
				"element": "C" 
			},
			{
				"x": 2.214701759,
				"y": 1.344634253,
				"z": 0.5218541079,
				"element": "C" 
			},
			{
				"x": 2.5019344097,
				"y": 1.1507883992,
				"z": -1.0005186921,
				"element": "C" 
			},
			{
				"x": 2.1867023178,
				"y": -0.2291153511,
				"z": -1.5376278001,
				"element": "C" 
			},
			{
				"x": 0.930126809,
				"y": -0.5061618347,
				"z": -2.0953548871,
				"element": "C" 
			},
			{
				"x": 0.6282341659,
				"y": -1.7793340229,
				"z": -2.5811387988,
				"element": "C" 
			},
			{
				"x": 1.580883047,
				"y": -2.797924328,
				"z": -2.5195270112,
				"element": "C" 
			},
			{
				"x": 2.838554967,
				"y": -2.5325146109,
				"z": -1.9744044129,
				"element": "C" 
			},
			{
				"x": 3.1389742912,
				"y": -1.2588359482,
				"z": -1.4890531004,
				"element": "C" 
			},
			{
				"x": 0.8307924244,
				"y": 1.0355657049,
				"z": 0.9002697104,
				"element": "N" 
			},
			{
				"x": -0.2752626701,
				"y": 1.633393735,
				"z": 0.3544843926,
				"element": "C" 
			},
			{
				"x": -0.2071464551,
				"y": 2.5337734677,
				"z": -0.482638013,
				"element": "O" 
			},
			{
				"x": -1.6035290309,
				"y": 1.1278944497,
				"z": 0.8510056108,
				"element": "C" 
			},
			{
				"x": -1.7651897766,
				"y": 0.4073735333,
				"z": 2.0436711967,
				"element": "C" 
			},
			{
				"x": -3.0319468157,
				"y": -0.0205200481,
				"z": 2.4410111737,
				"element": "C" 
			},
			{
				"x": -4.1474746906,
				"y": 0.2674603748,
				"z": 1.6523971292,
				"element": "C" 
			},
			{
				"x": -3.9947580219,
				"y": 0.9962653656,
				"z": 0.4701029401,
				"element": "C" 
			},
			{
				"x": -2.7313014746,
				"y": 1.42963532,
				"z": 0.0756132185,
				"element": "C" 
			},
			{
				"x": 3.1701818459,
				"y": 0.4456214479,
				"z": 1.3164970215,
				"element": "C" 
			},
			{
				"x": 2.5539163992,
				"y": -0.3876086017,
				"z": 2.1883042582,
				"element": "O" 
			},
			{
				"x": 4.371698396,
				"y": 0.4696508091,
				"z": 1.180920507,
				"element": "O" 
			},
			{
				"x": 1.4749819674,
				"y": 2.8667985028,
				"z": 2.5352908174,
				"element": "H" 
			},
			{
				"x": 3.6068511392,
				"y": 2.9888400924,
				"z": 0.7004166941,
				"element": "H" 
			},
			{
				"x": 1.9278284451,
				"y": 3.4819285557,
				"z": 0.3451829401,
				"element": "H" 
			},
			{
				"x": 1.9128204563,
				"y": 1.9023046188,
				"z": -1.5294969577,
				"element": "H" 
			},
			{
				"x": 3.5616542447,
				"y": 1.3781010138,
				"z": -1.147531676,
				"element": "H" 
			},
			{
				"x": 0.1916836725,
				"y": 0.2882750151,
				"z": -2.1588522769,
				"element": "H" 
			},
			{
				"x": -0.3496005,
				"y": -1.9732989879,
				"z": -3.0133454908,
				"element": "H" 
			},
			{
				"x": 1.3483736154,
				"y": -3.7880369761,
				"z": -2.9013300146,
				"element": "H" 
			},
			{
				"x": 3.590855309,
				"y": -3.315550058,
				"z": -1.9339725012,
				"element": "H" 
			},
			{
				"x": 4.1224392955,
				"y": -1.0563122075,
				"z": -1.0738073181,
				"element": "H" 
			},
			{
				"x": 0.6963250492,
				"y": 0.1748240209,
				"z": 1.4086368183,
				"element": "H" 
			},
			{
				"x": -0.9144322084,
				"y": 0.2024965039,
				"z": 2.6877010706,
				"element": "H" 
			},
			{
				"x": -3.1479950128,
				"y": -0.571418253,
				"z": 3.3696833967,
				"element": "H" 
			},
			{
				"x": -5.1329225792,
				"y": -0.0680629931,
				"z": 1.9624239443,
				"element": "H" 
			},
			{
				"x": -4.8614743482,
				"y": 1.2286945004,
				"z": -0.1417257253,
				"element": "H" 
			},
			{
				"x": -2.5902016044,
				"y": 2.008909718,
				"z": -0.8304685836,
				"element": "H" 
			},
			{
				"x": 3.2583072276,
				"y": -0.8978189892,
				"z": 2.6223484672,
				"element": "H" 
			}
		],
		 "valence_orbital": [ 
			{
				"type": "occ",
				"energy": -0.26468,
				"method": "rhf"
			},
			{
				"type": "occ",
				"energy": -0.26139,
				"method": "rhf"
			},
			{
				"type": "occ",
				"energy": -0.25508,
				"method": "rhf"
			},
			{
				"type": "occ",
				"energy": -0.24756,
				"method": "rhf"
			},
			{
				"type": "occ",
				"energy": -0.24014,
				"method": "rhf"
			},
			{
				"type": "unocc",
				"energy": -0.04501,
				"method": "rhf"
			},
			{
				"type": "unocc",
				"energy": -0.01505,
				"method": "rhf"
			},
			{
				"type": "unocc",
				"energy": -0.01077,
				"method": "rhf"
			},
			{
				"type": "unocc",
				"energy": -0.00121,
				"method": "rhf"
			},
			{
				"type": "unocc",
				"energy": 0.00574,
				"method": "rhf"
			}
		],
		"cosmo_sigma_profile": { 
			"-0.025": 0.0,
			"-0.024": 0.0,
			"-0.023": 0.0,
			"-0.022": 0.0,
			"-0.021": 0.0,
			"-0.02": 0.0,
			"-0.019": 0.678753704551,
			"-0.018": 1.04785195357,
			"-0.017": 0.736084027717,
			"-0.016": 0.924327520146,
			"-0.015": 1.0330080008,
			"-0.014": 1.32578881526,
			"-0.013": 0.844207452548,
			"-0.012": 1.76852208743,
			"-0.011": 2.01767697663,
			"-0.01": 2.22022509405,
			"-0.009": 2.47398647883,
			"-0.008": 3.6433988374,
			"-0.007": 6.17027050905,
			"-0.006": 13.2517449942,
			"-0.005": 22.0891350919,
			"-0.004": 26.7422211901,
			"-0.003": 30.9674277475,
			"-0.002": 24.1613823493,
			"-0.001": 20.7995266228,
			"0.0": 19.1372421622,
			"0.001": 23.0127787609,
			"0.002": 21.5434960918,
			"0.003": 21.6596816726,
			"0.004": 24.7034508168,
			"0.005": 16.44233248,
			"0.006": 12.4963709099,
			"0.007": 4.4932670618,
			"0.008": 3.28954162767,
			"0.009": 4.10144442347,
			"0.01": 4.46621642935,
			"0.011": 6.22437857597,
			"0.012": 4.43451533895,
			"0.013": 4.00919557235,
			"0.014": 1.49494452953,
			"0.015": 0.0,
			"0.016": 0.0,
			"0.017": 0.0,
			"0.018": 0.0,
			"0.019": 0.0,
			"0.02": 0.0,
			"0.021": 0.0,
			"0.022": 0.0,
			"0.023": 0.0,
			"0.024": 0.0,
			"0.025": 0.0
		}
	}
}
