{
	 "smiles": "CC(C)NS(=O)(=O)C1=CC(=CC=C1)C(O)=O", 
	 "Tm": 436.15, 
	 "num_atms": 29, 
	 "gaussian": { 
		 "optdone": 1, 
		 "sigma_profile": "yes", 
		 "theory": "DFT", 
		 "functional": "B3LYP", 
		 "basiset": "6-31G**", 
		 "properties": { 
			 "R2extent": 4803.9294, 
			 "electric_dipole_moment_norm": 3.68865619298, 
			 "electric_quadrupole_moment_norm": 33.988726344, 
			 "total_energy": -1142.67930182, 
			 "HOMO_LUMO_gap": 0.2035, 
			 "cosmo_polarized_energy": -22.75, 
			 "cosmo_cavitation_energy": 34.26, 
			 "cosmo_dispersion_energy": -24.12, 
			 "cosmo_repulsion_energy": 1.86, 
			 "cosmo_total_nonelectrostatic_energy": 12.0, 
			 "SMD_solvation_energy": 6.04 
		},
		"coords": [
			{
				"x": -0.0209078649,
				"y": -1.4577872881,
				"z": -1.9367863769,
				"element": "C" 
			},
			{
				"x": -0.3619884136,
				"y": -0.2456748626,
				"z": -2.8055439857,
				"element": "C" 
			},
			{
				"x": -1.5004773862,
				"y": -0.5500731791,
				"z": -3.7818645781,
				"element": "C" 
			},
			{
				"x": -0.80327297,
				"y": 0.8957046464,
				"z": -1.9597240409,
				"element": "N" 
			},
			{
				"x": 0.3362326648,
				"y": 1.77375406,
				"z": -1.0811196837,
				"element": "S" 
			},
			{
				"x": 1.6974355967,
				"y": 1.4885550185,
				"z": -1.5525734777,
				"element": "O" 
			},
			{
				"x": -0.1837196599,
				"y": 3.1448998813,
				"z": -1.0437924602,
				"element": "O" 
			},
			{
				"x": 0.2082835981,
				"y": 1.0819493964,
				"z": 0.5762473838,
				"element": "C" 
			},
			{
				"x": -1.0406121367,
				"y": 0.9399115607,
				"z": 1.17478271,
				"element": "C" 
			},
			{
				"x": -1.1197608413,
				"y": 0.4838327039,
				"z": 2.4947766943,
				"element": "C" 
			},
			{
				"x": 0.0568695055,
				"y": 0.1550623727,
				"z": 3.1855417431,
				"element": "C" 
			},
			{
				"x": 1.3003581077,
				"y": 0.2949624345,
				"z": 2.5707806138,
				"element": "C" 
			},
			{
				"x": 1.3841916978,
				"y": 0.7680915726,
				"z": 1.2605108167,
				"element": "C" 
			},
			{
				"x": -2.4902194885,
				"y": 0.3260508075,
				"z": 3.0889230992,
				"element": "C" 
			},
			{
				"x": -2.571637761,
				"y": 0.3268744397,
				"z": 4.4452255141,
				"element": "O" 
			},
			{
				"x": -3.487171946,
				"y": 0.1986588327,
				"z": 2.4197023088,
				"element": "O" 
			},
			{
				"x": 0.2771418454,
				"y": -2.2972437538,
				"z": -2.5727329334,
				"element": "H" 
			},
			{
				"x": -0.8866515262,
				"y": -1.761559291,
				"z": -1.3399606292,
				"element": "H" 
			},
			{
				"x": 0.8114822477,
				"y": -1.2436058413,
				"z": -1.2616202222,
				"element": "H" 
			},
			{
				"x": 0.5313065065,
				"y": 0.0436685316,
				"z": -3.3739617902,
				"element": "H" 
			},
			{
				"x": -1.7242402631,
				"y": 0.3127976514,
				"z": -4.4192840501,
				"element": "H" 
			},
			{
				"x": -1.219306021,
				"y": -1.3809029327,
				"z": -4.4351328763,
				"element": "H" 
			},
			{
				"x": -2.4118764062,
				"y": -0.8289605436,
				"z": -3.2432028493,
				"element": "H" 
			},
			{
				"x": -1.3528404603,
				"y": 1.5850743235,
				"z": -2.4683206565,
				"element": "H" 
			},
			{
				"x": -1.9544436703,
				"y": 1.1620386023,
				"z": 0.6359807983,
				"element": "H" 
			},
			{
				"x": 0.0104331744,
				"y": -0.2514238255,
				"z": 4.1927951754,
				"element": "H" 
			},
			{
				"x": 2.204629275,
				"y": 0.02733216,
				"z": 3.1080598972,
				"element": "H" 
			},
			{
				"x": 2.3394519116,
				"y": 0.8838091573,
				"z": 0.7605776818,
				"element": "H" 
			},
			{
				"x": -1.7336893158,
				"y": 0.6134033646,
				"z": 4.8341161739,
				"element": "H" 
			}
		],
		 "valence_orbital": [ 
			{
				"type": "occ",
				"energy": -0.3068,
				"method": "rhf"
			},
			{
				"type": "occ",
				"energy": -0.29434,
				"method": "rhf"
			},
			{
				"type": "occ",
				"energy": -0.2916,
				"method": "rhf"
			},
			{
				"type": "occ",
				"energy": -0.2789,
				"method": "rhf"
			},
			{
				"type": "occ",
				"energy": -0.27077,
				"method": "rhf"
			},
			{
				"type": "unocc",
				"energy": -0.06727,
				"method": "rhf"
			},
			{
				"type": "unocc",
				"energy": -0.0504,
				"method": "rhf"
			},
			{
				"type": "unocc",
				"energy": 0.02576,
				"method": "rhf"
			},
			{
				"type": "unocc",
				"energy": 0.04739,
				"method": "rhf"
			},
			{
				"type": "unocc",
				"energy": 0.05825,
				"method": "rhf"
			}
		],
		"cosmo_sigma_profile": { 
			"-0.025": 0.0,
			"-0.024": 0.0,
			"-0.023": 0.0,
			"-0.022": 0.0,
			"-0.021": 0.0,
			"-0.02": 0.020319526771,
			"-0.019": 0.59710666593,
			"-0.018": 1.07734962554,
			"-0.017": 0.999712947131,
			"-0.016": 1.35539870615,
			"-0.015": 1.12307088373,
			"-0.014": 0.783937233124,
			"-0.013": 2.06058187617,
			"-0.012": 2.17714886399,
			"-0.011": 2.64960649423,
			"-0.01": 2.42766508555,
			"-0.009": 3.07249005143,
			"-0.008": 5.54237971483,
			"-0.007": 9.26345631302,
			"-0.006": 7.73220105745,
			"-0.005": 9.09875086267,
			"-0.004": 20.7029431853,
			"-0.003": 23.0849959859,
			"-0.002": 22.2820197576,
			"-0.001": 22.2249011521,
			"0.0": 28.553889708,
			"0.001": 21.7792289384,
			"0.002": 8.51151275308,
			"0.003": 5.76835868265,
			"0.004": 5.26178976901,
			"0.005": 4.95803409238,
			"0.006": 6.08442084608,
			"0.007": 5.42508550587,
			"0.008": 6.91865880233,
			"0.009": 6.48118076054,
			"0.01": 12.6339765462,
			"0.011": 14.3819703279,
			"0.012": 5.6569272249,
			"0.013": 0.594877866189,
			"0.014": 0.0,
			"0.015": 0.0,
			"0.016": 0.0,
			"0.017": 0.0,
			"0.018": 0.0,
			"0.019": 0.0,
			"0.02": 0.0,
			"0.021": 0.0,
			"0.022": 0.0,
			"0.023": 0.0,
			"0.024": 0.0,
			"0.025": 0.0
		}
	}
}
