{
	 "smiles": "CC(CC(C)(C)C)CC(C)(C)C", 
	 "Tm": 206.15, 
	 "num_atms": 38, 
	 "gaussian": { 
		 "optdone": 1, 
		 "sigma_profile": "yes", 
		 "theory": "DFT", 
		 "functional": "B3LYP", 
		 "basiset": "6-31G**", 
		 "properties": { 
			 "R2extent": 3289.118, 
			 "electric_dipole_moment_norm": 0.14031126113, 
			 "electric_quadrupole_moment_norm": 0.374607608038, 
			 "total_energy": -472.977893867, 
			 "HOMO_LUMO_gap": 0.34818, 
			 "cosmo_polarized_energy": -1.1, 
			 "cosmo_cavitation_energy": 34.89, 
			 "cosmo_dispersion_energy": -23.55, 
			 "cosmo_repulsion_energy": 1.84, 
			 "cosmo_total_nonelectrostatic_energy": 13.18, 
			 "SMD_solvation_energy": 5.91 
		},
		"coords": [
			{
				"x": -0.1976696269,
				"y": 1.5050742144,
				"z": -0.3453234896,
				"element": "C" 
			},
			{
				"x": 0.1854892137,
				"y": 0.1138247694,
				"z": 0.1890986907,
				"element": "C" 
			},
			{
				"x": 0.117770405,
				"y": -1.0248162559,
				"z": -0.8696706509,
				"element": "C" 
			},
			{
				"x": -1.1622205353,
				"y": -1.3496307294,
				"z": -1.7017115741,
				"element": "C" 
			},
			{
				"x": -0.91469941,
				"y": -2.7188843174,
				"z": -2.3746633519,
				"element": "C" 
			},
			{
				"x": -2.4346080885,
				"y": -1.4576333188,
				"z": -0.8396372031,
				"element": "C" 
			},
			{
				"x": -1.3975433071,
				"y": -0.3168078594,
				"z": -2.8255064431,
				"element": "C" 
			},
			{
				"x": -0.5536995914,
				"y": -0.2189540181,
				"z": 1.5175321528,
				"element": "C" 
			},
			{
				"x": 0.2300962633,
				"y": -0.0040252438,
				"z": 2.844681001,
				"element": "C" 
			},
			{
				"x": 1.4197043153,
				"y": -0.9812417559,
				"z": 2.9343156697,
				"element": "C" 
			},
			{
				"x": -0.7340719358,
				"y": -0.2975502183,
				"z": 4.0122401873,
				"element": "C" 
			},
			{
				"x": 0.7443215513,
				"y": 1.4418893629,
				"z": 2.9818262399,
				"element": "C" 
			},
			{
				"x": 0.0695256783,
				"y": 2.285022002,
				"z": 0.3739473399,
				"element": "H" 
			},
			{
				"x": -1.2743580105,
				"y": 1.5897756034,
				"z": -0.5236107409,
				"element": "H" 
			},
			{
				"x": 0.3173794311,
				"y": 1.7310247887,
				"z": -1.2852384617,
				"element": "H" 
			},
			{
				"x": 1.2571398274,
				"y": 0.1672536206,
				"z": 0.4258768281,
				"element": "H" 
			},
			{
				"x": 0.4074287261,
				"y": -1.9455144284,
				"z": -0.3443824085,
				"element": "H" 
			},
			{
				"x": 0.9206923747,
				"y": -0.8421633996,
				"z": -1.5982487253,
				"element": "H" 
			},
			{
				"x": -0.0123155147,
				"y": -2.6982462357,
				"z": -2.9967269773,
				"element": "H" 
			},
			{
				"x": -1.7566945417,
				"y": -2.9967266589,
				"z": -3.0188503587,
				"element": "H" 
			},
			{
				"x": -0.7876534145,
				"y": -3.5118807805,
				"z": -1.6289374214,
				"element": "H" 
			},
			{
				"x": -2.3282457865,
				"y": -2.2156340521,
				"z": -0.0561897761,
				"element": "H" 
			},
			{
				"x": -2.6857058505,
				"y": -0.5088366271,
				"z": -0.3565203932,
				"element": "H" 
			},
			{
				"x": -3.2897173082,
				"y": -1.7465203273,
				"z": -1.4620754793,
				"element": "H" 
			},
			{
				"x": -2.2158716593,
				"y": -0.6454163345,
				"z": -3.4768629735,
				"element": "H" 
			},
			{
				"x": -1.6633030774,
				"y": 0.6697723116,
				"z": -2.4404864236,
				"element": "H" 
			},
			{
				"x": -0.5039052838,
				"y": -0.2033491006,
				"z": -3.4501129802,
				"element": "H" 
			},
			{
				"x": -0.8666324285,
				"y": -1.2695731172,
				"z": 1.5075030654,
				"element": "H" 
			},
			{
				"x": -1.4819369097,
				"y": 0.3653092806,
				"z": 1.5743931753,
				"element": "H" 
			},
			{
				"x": 1.9515826318,
				"y": -0.8588896059,
				"z": 3.8847670693,
				"element": "H" 
			},
			{
				"x": 1.0803150598,
				"y": -2.0218457643,
				"z": 2.8743084328,
				"element": "H" 
			},
			{
				"x": 2.1465056755,
				"y": -0.820087963,
				"z": 2.1311502517,
				"element": "H" 
			},
			{
				"x": -1.5873748335,
				"y": 0.3903392573,
				"z": 4.0043739296,
				"element": "H" 
			},
			{
				"x": -0.2275807332,
				"y": -0.1900601765,
				"z": 4.9782902408,
				"element": "H" 
			},
			{
				"x": -1.1281193163,
				"y": -1.3187854285,
				"z": 3.9543636125,
				"element": "H" 
			},
			{
				"x": 1.2434101149,
				"y": 1.5823811218,
				"z": 3.9476143589,
				"element": "H" 
			},
			{
				"x": 1.4693160838,
				"y": 1.694489859,
				"z": 2.2012242891,
				"element": "H" 
			},
			{
				"x": -0.0782501887,
				"y": 2.1640175255,
				"z": 2.9258492976,
				"element": "H" 
			}
		],
		 "valence_orbital": [ 
			{
				"type": "occ",
				"energy": -0.31414,
				"method": "rhf"
			},
			{
				"type": "occ",
				"energy": -0.30838,
				"method": "rhf"
			},
			{
				"type": "occ",
				"energy": -0.30321,
				"method": "rhf"
			},
			{
				"type": "occ",
				"energy": -0.29195,
				"method": "rhf"
			},
			{
				"type": "occ",
				"energy": -0.28301,
				"method": "rhf"
			},
			{
				"type": "unocc",
				"energy": 0.06517,
				"method": "rhf"
			},
			{
				"type": "unocc",
				"energy": 0.08864,
				"method": "rhf"
			},
			{
				"type": "unocc",
				"energy": 0.1075,
				"method": "rhf"
			},
			{
				"type": "unocc",
				"energy": 0.11153,
				"method": "rhf"
			},
			{
				"type": "unocc",
				"energy": 0.12463,
				"method": "rhf"
			}
		],
		"cosmo_sigma_profile": { 
			"-0.025": 0.0,
			"-0.024": 0.0,
			"-0.023": 0.0,
			"-0.022": 0.0,
			"-0.021": 0.0,
			"-0.02": 0.0,
			"-0.019": 0.0,
			"-0.018": 0.0,
			"-0.017": 0.0,
			"-0.016": 0.0,
			"-0.015": 0.0,
			"-0.014": 0.0,
			"-0.013": 0.0,
			"-0.012": 0.0,
			"-0.011": 0.0,
			"-0.01": 0.0,
			"-0.009": 0.0,
			"-0.008": 0.0,
			"-0.007": 0.0,
			"-0.006": 0.0,
			"-0.005": 0.0,
			"-0.004": 0.0,
			"-0.003": 3.84221882624,
			"-0.002": 42.011598603,
			"-0.001": 66.7819889526,
			"0.0": 51.2703626743,
			"0.001": 46.4028198696,
			"0.002": 48.2664868381,
			"0.003": 6.64699904611,
			"0.004": 0.0,
			"0.005": 0.0,
			"0.006": 0.0,
			"0.007": 0.0,
			"0.008": 0.0,
			"0.009": 0.0,
			"0.01": 0.0,
			"0.011": 0.0,
			"0.012": 0.0,
			"0.013": 0.0,
			"0.014": 0.0,
			"0.015": 0.0,
			"0.016": 0.0,
			"0.017": 0.0,
			"0.018": 0.0,
			"0.019": 0.0,
			"0.02": 0.0,
			"0.021": 0.0,
			"0.022": 0.0,
			"0.023": 0.0,
			"0.024": 0.0,
			"0.025": 0.0
		}
	}
}
