{
	 "smiles": "FC1=CC2=C(OC(OC2)C2=CSC=C2)C(CCl)=C1", 
	 "Tm": 351.15, 
	 "num_atms": 28, 
	 "gaussian": { 
		 "optdone": 1, 
		 "sigma_profile": "yes", 
		 "theory": "DFT", 
		 "functional": "B3LYP", 
		 "basiset": "6-31G**", 
		 "properties": { 
			 "R2extent": 6541.5409, 
			 "electric_dipole_moment_norm": 3.07100103712, 
			 "electric_quadrupole_moment_norm": 7.71240426067, 
			 "total_energy": -1610.04424183, 
			 "HOMO_LUMO_gap": 0.1898, 
			 "cosmo_polarized_energy": -12.48, 
			 "cosmo_cavitation_energy": 36.15, 
			 "cosmo_dispersion_energy": -26.0, 
			 "cosmo_repulsion_energy": 1.96, 
			 "cosmo_total_nonelectrostatic_energy": 12.11, 
			 "SMD_solvation_energy": 6.22 
		},
		"coords": [
			{
				"x": 4.9922285539,
				"y": 0.0423483113,
				"z": 1.7259517532,
				"element": "F" 
			},
			{
				"x": 3.725209621,
				"y": -0.0939579222,
				"z": 1.2784587826,
				"element": "C" 
			},
			{
				"x": 3.3196145989,
				"y": 0.6337196914,
				"z": 0.168555171,
				"element": "C" 
			},
			{
				"x": 2.0106958942,
				"y": 0.4940447428,
				"z": -0.2988558842,
				"element": "C" 
			},
			{
				"x": 1.137366552,
				"y": -0.3847501153,
				"z": 0.3558081643,
				"element": "C" 
			},
			{
				"x": -0.1487666939,
				"y": -0.5670564209,
				"z": -0.0809492028,
				"element": "O" 
			},
			{
				"x": -0.3996077927,
				"y": -0.0925098562,
				"z": -1.4143916713,
				"element": "C" 
			},
			{
				"x": 0.0718065573,
				"y": 1.2211483955,
				"z": -1.5625027528,
				"element": "O" 
			},
			{
				"x": 1.4939422666,
				"y": 1.2842852412,
				"z": -1.4797913865,
				"element": "C" 
			},
			{
				"x": -1.8773838569,
				"y": -0.1214852423,
				"z": -1.6424043105,
				"element": "C" 
			},
			{
				"x": -2.4789425536,
				"y": -0.8441094541,
				"z": -2.6373352321,
				"element": "C" 
			},
			{
				"x": -4.1972478506,
				"y": -0.6381930369,
				"z": -2.6269799611,
				"element": "S" 
			},
			{
				"x": -4.1041743197,
				"y": 0.4341394638,
				"z": -1.2627272232,
				"element": "C" 
			},
			{
				"x": -2.8164792621,
				"y": 0.6148886117,
				"z": -0.8496828795,
				"element": "C" 
			},
			{
				"x": 1.5507520705,
				"y": -1.1103999346,
				"z": 1.4887131969,
				"element": "C" 
			},
			{
				"x": 0.5989033329,
				"y": -2.032168039,
				"z": 2.1832055692,
				"element": "C" 
			},
			{
				"x": -0.3658853479,
				"y": -1.177952693,
				"z": 3.4941371565,
				"element": "Cl" 
			},
			{
				"x": 2.8619234273,
				"y": -0.9530232889,
				"z": 1.9462924265,
				"element": "C" 
			},
			{
				"x": 4.020461697,
				"y": 1.3085267525,
				"z": -0.3138046086,
				"element": "H" 
			},
			{
				"x": 0.1282106058,
				"y": -0.7642271346,
				"z": -2.1119135702,
				"element": "H" 
			},
			{
				"x": 1.9443717774,
				"y": 0.9259490021,
				"z": -2.4204074568,
				"element": "H" 
			},
			{
				"x": 1.7411071378,
				"y": 2.3449993303,
				"z": -1.3772791706,
				"element": "H" 
			},
			{
				"x": -2.0100652136,
				"y": -1.4824117263,
				"z": -3.3737587282,
				"element": "H" 
			},
			{
				"x": -5.0073174564,
				"y": 0.8611276291,
				"z": -0.8496617088,
				"element": "H" 
			},
			{
				"x": -2.5288145092,
				"y": 1.2391023035,
				"z": -0.012919235,
				"element": "H" 
			},
			{
				"x": 1.1221741316,
				"y": -2.8413797227,
				"z": 2.6914790005,
				"element": "H" 
			},
			{
				"x": -0.1437647952,
				"y": -2.4346701671,
				"z": 1.4973568803,
				"element": "H" 
			},
			{
				"x": 3.2141814278,
				"y": -1.493184721,
				"z": 2.8189068813,
				"element": "H" 
			}
		],
		 "valence_orbital": [ 
			{
				"type": "occ",
				"energy": -0.28639,
				"method": "rhf"
			},
			{
				"type": "occ",
				"energy": -0.26167,
				"method": "rhf"
			},
			{
				"type": "occ",
				"energy": -0.25631,
				"method": "rhf"
			},
			{
				"type": "occ",
				"energy": -0.24401,
				"method": "rhf"
			},
			{
				"type": "occ",
				"energy": -0.22847,
				"method": "rhf"
			},
			{
				"type": "unocc",
				"energy": -0.03867,
				"method": "rhf"
			},
			{
				"type": "unocc",
				"energy": -0.01874,
				"method": "rhf"
			},
			{
				"type": "unocc",
				"energy": -0.00257,
				"method": "rhf"
			},
			{
				"type": "unocc",
				"energy": 0.02659,
				"method": "rhf"
			},
			{
				"type": "unocc",
				"energy": 0.04104,
				"method": "rhf"
			}
		],
		"cosmo_sigma_profile": { 
			"-0.025": 0.0,
			"-0.024": 0.0,
			"-0.023": 0.0,
			"-0.022": 0.0,
			"-0.021": 0.0,
			"-0.02": 0.0,
			"-0.019": 0.0,
			"-0.018": 0.0,
			"-0.017": 0.0,
			"-0.016": 0.0,
			"-0.015": 0.0,
			"-0.014": 0.0,
			"-0.013": 0.0,
			"-0.012": 0.0,
			"-0.011": 0.0,
			"-0.01": 0.0,
			"-0.009": 1.78515419107,
			"-0.008": 11.9207215388,
			"-0.007": 19.781824131,
			"-0.006": 18.3523054392,
			"-0.005": 17.3807639578,
			"-0.004": 15.7118139835,
			"-0.003": 12.7955426132,
			"-0.002": 11.6332092974,
			"-0.001": 12.9157448389,
			"0.0": 16.5776150088,
			"0.001": 22.9420820229,
			"0.002": 26.714301679,
			"0.003": 25.4932118473,
			"0.004": 29.2398285943,
			"0.005": 20.0690372224,
			"0.006": 13.4629042873,
			"0.007": 11.1735286864,
			"0.008": 2.06621555066,
			"0.009": 1.32574121044,
			"0.01": 1.34815665178,
			"0.011": 1.1912425711,
			"0.012": 0.011680053503,
			"0.013": 0.0,
			"0.014": 0.0,
			"0.015": 0.0,
			"0.016": 0.0,
			"0.017": 0.0,
			"0.018": 0.0,
			"0.019": 0.0,
			"0.02": 0.0,
			"0.021": 0.0,
			"0.022": 0.0,
			"0.023": 0.0,
			"0.024": 0.0,
			"0.025": 0.0
		}
	}
}
