{
	 "smiles": "CC(=O)OCCOC1=CC(OCCOC(C)=O)=C(C=C1[N+]([O-])=O)[N+]([O-])=O", 
	 "Tm": 364.15, 
	 "num_atms": 42, 
	 "gaussian": { 
		 "optdone": 1, 
		 "sigma_profile": "yes", 
		 "theory": "DFT", 
		 "functional": "B3LYP", 
		 "basiset": "6-31G**", 
		 "properties": { 
			 "R2extent": 11886.6616, 
			 "electric_dipole_moment_norm": 6.91750630285, 
			 "electric_quadrupole_moment_norm": 23.8918585939, 
			 "total_energy": -1404.65800608, 
			 "HOMO_LUMO_gap": 0.17359, 
			 "cosmo_polarized_energy": -23.93, 
			 "cosmo_cavitation_energy": 49.47, 
			 "cosmo_dispersion_energy": -32.12, 
			 "cosmo_repulsion_energy": 2.44, 
			 "cosmo_total_nonelectrostatic_energy": 19.79, 
			 "SMD_solvation_energy": 15.44 
		},
		"coords": [
			{
				"x": -1.3397925135,
				"y": -0.6906850661,
				"z": 3.9375892117,
				"element": "C" 
			},
			{
				"x": -0.341169992,
				"y": -1.8216057626,
				"z": 3.9202166994,
				"element": "C" 
			},
			{
				"x": -0.2111176188,
				"y": -2.6640354332,
				"z": 4.7783509349,
				"element": "O" 
			},
			{
				"x": 0.4153925318,
				"y": -1.7927437291,
				"z": 2.7884552692,
				"element": "O" 
			},
			{
				"x": 1.3804338263,
				"y": -2.857470569,
				"z": 2.6584251644,
				"element": "C" 
			},
			{
				"x": 2.3342613829,
				"y": -2.5059344495,
				"z": 1.541484788,
				"element": "C" 
			},
			{
				"x": 1.6513490054,
				"y": -2.5735287694,
				"z": 0.2713328506,
				"element": "O" 
			},
			{
				"x": 1.7050029426,
				"y": -1.4847131404,
				"z": -0.5334422387,
				"element": "C" 
			},
			{
				"x": 0.8140359056,
				"y": -0.4353332551,
				"z": -0.3059341484,
				"element": "C" 
			},
			{
				"x": 0.7518902064,
				"y": 0.6837900805,
				"z": -1.1477375252,
				"element": "C" 
			},
			{
				"x": -0.0577165568,
				"y": 1.7273942075,
				"z": -0.9181055382,
				"element": "O" 
			},
			{
				"x": -0.9004765202,
				"y": 1.7204414298,
				"z": 0.2404750796,
				"element": "C" 
			},
			{
				"x": -1.4852458866,
				"y": 3.127411093,
				"z": 0.3302404708,
				"element": "C" 
			},
			{
				"x": -2.6280944067,
				"y": 3.1685880795,
				"z": 1.2047679306,
				"element": "O" 
			},
			{
				"x": -2.3863931092,
				"y": 3.054796797,
				"z": 2.5339913781,
				"element": "C" 
			},
			{
				"x": -3.6517310417,
				"y": 3.2540376957,
				"z": 3.3293558901,
				"element": "C" 
			},
			{
				"x": -1.2869170201,
				"y": 2.830455982,
				"z": 2.9962873194,
				"element": "O" 
			},
			{
				"x": 1.610213552,
				"y": 0.7080782983,
				"z": -2.2792511789,
				"element": "C" 
			},
			{
				"x": 2.4990212695,
				"y": -0.3314996907,
				"z": -2.5130247247,
				"element": "C" 
			},
			{
				"x": 2.5680509501,
				"y": -1.4142074225,
				"z": -1.6447302191,
				"element": "C" 
			},
			{
				"x": 3.5676778329,
				"y": -2.4463370778,
				"z": -1.9228775798,
				"element": "N" 
			},
			{
				"x": 3.9328603103,
				"y": -2.5739824102,
				"z": -3.0910115897,
				"element": "O" 
			},
			{
				"x": 4.0012421658,
				"y": -3.1003377902,
				"z": -0.9748233877,
				"element": "O" 
			},
			{
				"x": 1.6086100356,
				"y": 1.8090168123,
				"z": -3.2522354813,
				"element": "N" 
			},
			{
				"x": 0.6125865154,
				"y": 2.5234746715,
				"z": -3.3214263875,
				"element": "O" 
			},
			{
				"x": 2.6119023208,
				"y": 1.9300915578,
				"z": -3.9570930395,
				"element": "O" 
			},
			{
				"x": -2.0488868651,
				"y": -0.8153662607,
				"z": 3.1124708447,
				"element": "H" 
			},
			{
				"x": -0.8478935192,
				"y": 0.2775445767,
				"z": 3.8075767529,
				"element": "H" 
			},
			{
				"x": -1.879751807,
				"y": -0.7086338809,
				"z": 4.883808283,
				"element": "H" 
			},
			{
				"x": 0.8589137084,
				"y": -3.7962404766,
				"z": 2.4473358108,
				"element": "H" 
			},
			{
				"x": 1.9258144576,
				"y": -2.9750606844,
				"z": 3.5995172916,
				"element": "H" 
			},
			{
				"x": 2.7464688309,
				"y": -1.5035363896,
				"z": 1.6945313798,
				"element": "H" 
			},
			{
				"x": 3.1594552145,
				"y": -3.2234230545,
				"z": 1.5095934865,
				"element": "H" 
			},
			{
				"x": 0.1676289342,
				"y": -0.5315607695,
				"z": 0.5558417457,
				"element": "H" 
			},
			{
				"x": -1.7029190933,
				"y": 0.9823284679,
				"z": 0.1154911826,
				"element": "H" 
			},
			{
				"x": -0.3272232451,
				"y": 1.4890044407,
				"z": 1.1404672441,
				"element": "H" 
			},
			{
				"x": -1.8577980176,
				"y": 3.437212472,
				"z": -0.6469811695,
				"element": "H" 
			},
			{
				"x": -0.7264233744,
				"y": 3.8339980735,
				"z": 0.6758438027,
				"element": "H" 
			},
			{
				"x": -3.9760083912,
				"y": 4.2960204208,
				"z": 3.2440675378,
				"element": "H" 
			},
			{
				"x": -4.4561709012,
				"y": 2.6297401738,
				"z": 2.931831163,
				"element": "H" 
			},
			{
				"x": -3.465366762,
				"y": 3.0152715388,
				"z": 4.3757745224,
				"element": "H" 
			},
			{
				"x": 3.1522847426,
				"y": -0.2864607869,
				"z": -3.3742498259,
				"element": "H" 
			}
		],
		 "valence_orbital": [ 
			{
				"type": "occ",
				"energy": -0.29731,
				"method": "rhf"
			},
			{
				"type": "occ",
				"energy": -0.2957,
				"method": "rhf"
			},
			{
				"type": "occ",
				"energy": -0.28539,
				"method": "rhf"
			},
			{
				"type": "occ",
				"energy": -0.28476,
				"method": "rhf"
			},
			{
				"type": "occ",
				"energy": -0.26929,
				"method": "rhf"
			},
			{
				"type": "unocc",
				"energy": -0.0957,
				"method": "rhf"
			},
			{
				"type": "unocc",
				"energy": -0.09084,
				"method": "rhf"
			},
			{
				"type": "unocc",
				"energy": -0.02889,
				"method": "rhf"
			},
			{
				"type": "unocc",
				"energy": -0.01837,
				"method": "rhf"
			},
			{
				"type": "unocc",
				"energy": -0.00668,
				"method": "rhf"
			}
		],
		"cosmo_sigma_profile": { 
			"-0.025": 0.0,
			"-0.024": 0.0,
			"-0.023": 0.0,
			"-0.022": 0.0,
			"-0.021": 0.0,
			"-0.02": 0.0,
			"-0.019": 0.0,
			"-0.018": 0.0,
			"-0.017": 0.0,
			"-0.016": 0.0,
			"-0.015": 0.0,
			"-0.014": 0.0,
			"-0.013": 0.0,
			"-0.012": 0.0,
			"-0.011": 0.0,
			"-0.01": 0.0,
			"-0.009": 0.0182712341826,
			"-0.008": 2.40675257856,
			"-0.007": 21.99179021,
			"-0.006": 34.3210419432,
			"-0.005": 33.5051197262,
			"-0.004": 33.5955611081,
			"-0.003": 39.205328613,
			"-0.002": 35.6070260331,
			"-0.001": 25.8228837978,
			"0.0": 17.9647355478,
			"0.001": 13.1833244569,
			"0.002": 13.4476565628,
			"0.003": 12.481526149,
			"0.004": 11.6306516176,
			"0.005": 11.4728821904,
			"0.006": 13.0837008318,
			"0.007": 20.8710265673,
			"0.008": 19.9662064689,
			"0.009": 13.0670834758,
			"0.01": 7.36046363932,
			"0.011": 5.87745167535,
			"0.012": 5.5265008722,
			"0.013": 0.892241873813,
			"0.014": 0.0,
			"0.015": 0.0,
			"0.016": 0.0,
			"0.017": 0.0,
			"0.018": 0.0,
			"0.019": 0.0,
			"0.02": 0.0,
			"0.021": 0.0,
			"0.022": 0.0,
			"0.023": 0.0,
			"0.024": 0.0,
			"0.025": 0.0
		}
	}
}
