{
	 "smiles": "OC(=O)C1=CC(Cl)=C(O)C=C1", 
	 "Tm": 443.15, 
	 "num_atms": 16, 
	 "gaussian": { 
		 "optdone": 1, 
		 "sigma_profile": "yes", 
		 "theory": "DFT", 
		 "functional": "B3LYP", 
		 "basiset": "6-31G**", 
		 "properties": { 
			 "R2extent": 2597.8009, 
			 "electric_dipole_moment_norm": 6.25628034378, 
			 "electric_quadrupole_moment_norm": 12.1449878724, 
			 "total_energy": -955.622798966, 
			 "HOMO_LUMO_gap": 0.19756, 
			 "cosmo_polarized_energy": -20.48, 
			 "cosmo_cavitation_energy": 22.87, 
			 "cosmo_dispersion_energy": -17.22, 
			 "cosmo_repulsion_energy": 1.38, 
			 "cosmo_total_nonelectrostatic_energy": 7.03, 
			 "SMD_solvation_energy": 5.28 
		},
		"coords": [
			{
				"x": -2.4081761364,
				"y": 0.9672887261,
				"z": -0.0433139661,
				"element": "O" 
			},
			{
				"x": -1.1747771167,
				"y": 1.0911533658,
				"z": 0.520489674,
				"element": "C" 
			},
			{
				"x": -0.8965604765,
				"y": 2.0856756345,
				"z": 1.1480503181,
				"element": "O" 
			},
			{
				"x": -0.2246448076,
				"y": -0.0466670397,
				"z": 0.3184619064,
				"element": "C" 
			},
			{
				"x": 1.1373324179,
				"y": 0.2050586773,
				"z": 0.5400199146,
				"element": "C" 
			},
			{
				"x": 2.0767213948,
				"y": -0.8018500008,
				"z": 0.3788302422,
				"element": "C" 
			},
			{
				"x": 3.7717225186,
				"y": -0.4701073316,
				"z": 0.6383037708,
				"element": "Cl" 
			},
			{
				"x": 1.6768462065,
				"y": -2.1009994924,
				"z": 0.0092698185,
				"element": "C" 
			},
			{
				"x": 2.6306298338,
				"y": -3.0495907425,
				"z": -0.1327154527,
				"element": "O" 
			},
			{
				"x": 0.3139114448,
				"y": -2.3552577211,
				"z": -0.1875136538,
				"element": "C" 
			},
			{
				"x": -0.6262403975,
				"y": -1.3407830679,
				"z": -0.0355591217,
				"element": "C" 
			},
			{
				"x": -2.4217998467,
				"y": 0.2233240803,
				"z": -0.6606431088,
				"element": "H" 
			},
			{
				"x": 1.4449320144,
				"y": 1.2004503036,
				"z": 0.8385165713,
				"element": "H" 
			},
			{
				"x": 2.2183618176,
				"y": -3.8883547718,
				"z": -0.3786744006,
				"element": "H" 
			},
			{
				"x": -0.0064065285,
				"y": -3.36032007,
				"z": -0.4517429029,
				"element": "H" 
			},
			{
				"x": -1.6773523385,
				"y": -1.5884205498,
				"z": -0.1576796094,
				"element": "H" 
			}
		],
		 "valence_orbital": [ 
			{
				"type": "occ",
				"energy": -0.31885,
				"method": "rhf"
			},
			{
				"type": "occ",
				"energy": -0.3181,
				"method": "rhf"
			},
			{
				"type": "occ",
				"energy": -0.27912,
				"method": "rhf"
			},
			{
				"type": "occ",
				"energy": -0.26981,
				"method": "rhf"
			},
			{
				"type": "occ",
				"energy": -0.24895,
				"method": "rhf"
			},
			{
				"type": "unocc",
				"energy": -0.05139,
				"method": "rhf"
			},
			{
				"type": "unocc",
				"energy": -0.03501,
				"method": "rhf"
			},
			{
				"type": "unocc",
				"energy": 0.02092,
				"method": "rhf"
			},
			{
				"type": "unocc",
				"energy": 0.0448,
				"method": "rhf"
			},
			{
				"type": "unocc",
				"energy": 0.04716,
				"method": "rhf"
			}
		],
		"cosmo_sigma_profile": { 
			"-0.025": 0.0,
			"-0.024": 0.0,
			"-0.023": 0.0,
			"-0.022": 0.0,
			"-0.021": 0.0,
			"-0.02": 0.0885611712783,
			"-0.019": 1.46223712077,
			"-0.018": 1.99289636662,
			"-0.017": 2.28571259454,
			"-0.016": 2.45630691086,
			"-0.015": 1.90646618668,
			"-0.014": 1.37886208946,
			"-0.013": 1.86367069151,
			"-0.012": 2.36967810001,
			"-0.011": 2.80850231696,
			"-0.01": 2.38705575112,
			"-0.009": 2.26934799937,
			"-0.008": 4.39007933539,
			"-0.007": 5.6152475821,
			"-0.006": 4.93276027828,
			"-0.005": 4.20401429948,
			"-0.004": 5.52958586164,
			"-0.003": 6.79190248691,
			"-0.002": 7.5946444254,
			"-0.001": 8.86158713647,
			"0.0": 14.6391248204,
			"0.001": 18.9247695213,
			"0.002": 15.7228942498,
			"0.003": 9.53103466245,
			"0.004": 11.4685064377,
			"0.005": 7.39739893237,
			"0.006": 3.38113833528,
			"0.007": 4.99699863647,
			"0.008": 4.44649770687,
			"0.009": 5.19292690422,
			"0.01": 6.39489409767,
			"0.011": 5.7670498837,
			"0.012": 4.96479134951,
			"0.013": 1.51665075705,
			"0.014": 0.0434739524387,
			"0.015": 0.0,
			"0.016": 0.0,
			"0.017": 0.0,
			"0.018": 0.0,
			"0.019": 0.0,
			"0.02": 0.0,
			"0.021": 0.0,
			"0.022": 0.0,
			"0.023": 0.0,
			"0.024": 0.0,
			"0.025": 0.0
		}
	}
}
