{
	 "smiles": "[O-][N+](=O)C1=CC(C=O)=C(C=C1)N1CCOCC1", 
	 "Tm": 388.15, 
	 "num_atms": 29, 
	 "gaussian": { 
		 "optdone": 1, 
		 "sigma_profile": "yes", 
		 "theory": "DFT", 
		 "functional": "B3LYP", 
		 "basiset": "6-31G**", 
		 "properties": { 
			 "R2extent": 4961.0859, 
			 "electric_dipole_moment_norm": 7.09125815141, 
			 "electric_quadrupole_moment_norm": 22.4791937709, 
			 "total_energy": -836.665353746, 
			 "HOMO_LUMO_gap": 0.14298, 
			 "cosmo_polarized_energy": -18.36, 
			 "cosmo_cavitation_energy": 32.38, 
			 "cosmo_dispersion_energy": -23.45, 
			 "cosmo_repulsion_energy": 1.8, 
			 "cosmo_total_nonelectrostatic_energy": 10.73, 
			 "SMD_solvation_energy": 7.91 
		},
		"coords": [
			{
				"x": -0.1333065767,
				"y": -4.234403211,
				"z": 2.7467217368,
				"element": "O" 
			},
			{
				"x": -0.892627314,
				"y": -3.9069160992,
				"z": 1.8315174036,
				"element": "N" 
			},
			{
				"x": -1.7309629039,
				"y": -4.6476500525,
				"z": 1.3173432154,
				"element": "O" 
			},
			{
				"x": -0.7858442797,
				"y": -2.5414755812,
				"z": 1.321240459,
				"element": "C" 
			},
			{
				"x": -1.6439524852,
				"y": -2.1101577638,
				"z": 0.3212415498,
				"element": "C" 
			},
			{
				"x": -1.5526722273,
				"y": -0.801199466,
				"z": -0.1615499572,
				"element": "C" 
			},
			{
				"x": -2.6530153967,
				"y": -0.3298406404,
				"z": -1.0391581091,
				"element": "C" 
			},
			{
				"x": -3.4527666953,
				"y": -1.0677048795,
				"z": -1.5851590865,
				"element": "O" 
			},
			{
				"x": -0.5294614313,
				"y": 0.072202171,
				"z": 0.3161442545,
				"element": "C" 
			},
			{
				"x": 0.2942723888,
				"y": -0.39203321,
				"z": 1.371107775,
				"element": "C" 
			},
			{
				"x": 0.1691028526,
				"y": -1.6776231523,
				"z": 1.8685997079,
				"element": "C" 
			},
			{
				"x": -0.3679264672,
				"y": 1.3386318339,
				"z": -0.2310209386,
				"element": "N" 
			},
			{
				"x": -0.290518458,
				"y": 1.5471681109,
				"z": -1.6870736385,
				"element": "C" 
			},
			{
				"x": 1.1602880801,
				"y": 1.8106673665,
				"z": -2.1112520468,
				"element": "C" 
			},
			{
				"x": 1.725299418,
				"y": 2.8994210225,
				"z": -1.3957346551,
				"element": "O" 
			},
			{
				"x": 1.7290227923,
				"y": 2.6499426591,
				"z": 0.0033554522,
				"element": "C" 
			},
			{
				"x": 0.3008383172,
				"y": 2.4174443451,
				"z": 0.5040837685,
				"element": "C" 
			},
			{
				"x": -2.423118089,
				"y": -2.7595330012,
				"z": -0.0599857287,
				"element": "H" 
			},
			{
				"x": -2.7494169372,
				"y": 0.7706724934,
				"z": -1.1262834859,
				"element": "H" 
			},
			{
				"x": 1.0784142442,
				"y": 0.2423782717,
				"z": 1.7662750808,
				"element": "H" 
			},
			{
				"x": 0.818142162,
				"y": -2.0400794842,
				"z": 2.6564049734,
				"element": "H" 
			},
			{
				"x": -0.6654702308,
				"y": 0.6673995102,
				"z": -2.2119412646,
				"element": "H" 
			},
			{
				"x": -0.9150266544,
				"y": 2.4062542679,
				"z": -1.9636020904,
				"element": "H" 
			},
			{
				"x": 1.75974035,
				"y": 0.89822414,
				"z": -1.9558668249,
				"element": "H" 
			},
			{
				"x": 1.2011287406,
				"y": 2.0767579663,
				"z": -3.1716716361,
				"element": "H" 
			},
			{
				"x": 2.1655735689,
				"y": 3.5333449676,
				"z": 0.4785921329,
				"element": "H" 
			},
			{
				"x": 2.3643902463,
				"y": 1.7787290948,
				"z": 0.2335225557,
				"element": "H" 
			},
			{
				"x": 0.2751185924,
				"y": 2.2108503072,
				"z": 1.5756251306,
				"element": "H" 
			},
			{
				"x": -0.2757456066,
				"y": 3.336528013,
				"z": 0.3333242667,
				"element": "H" 
			}
		],
		 "valence_orbital": [ 
			{
				"type": "occ",
				"energy": -0.28667,
				"method": "rhf"
			},
			{
				"type": "occ",
				"energy": -0.28581,
				"method": "rhf"
			},
			{
				"type": "occ",
				"energy": -0.28334,
				"method": "rhf"
			},
			{
				"type": "occ",
				"energy": -0.26454,
				"method": "rhf"
			},
			{
				"type": "occ",
				"energy": -0.22864,
				"method": "rhf"
			},
			{
				"type": "unocc",
				"energy": -0.08566,
				"method": "rhf"
			},
			{
				"type": "unocc",
				"energy": -0.07508,
				"method": "rhf"
			},
			{
				"type": "unocc",
				"energy": -0.01097,
				"method": "rhf"
			},
			{
				"type": "unocc",
				"energy": 0.02742,
				"method": "rhf"
			},
			{
				"type": "unocc",
				"energy": 0.06717,
				"method": "rhf"
			}
		],
		"cosmo_sigma_profile": { 
			"-0.025": 0.0,
			"-0.024": 0.0,
			"-0.023": 0.0,
			"-0.022": 0.0,
			"-0.021": 0.0,
			"-0.02": 0.0,
			"-0.019": 0.0,
			"-0.018": 0.0,
			"-0.017": 0.0,
			"-0.016": 0.0,
			"-0.015": 0.0,
			"-0.014": 0.0,
			"-0.013": 0.0,
			"-0.012": 0.0,
			"-0.011": 0.0,
			"-0.01": 0.0373829084166,
			"-0.009": 1.51732098236,
			"-0.008": 4.32475230308,
			"-0.007": 8.64273924874,
			"-0.006": 18.3910111037,
			"-0.005": 29.9393917536,
			"-0.004": 27.9927205597,
			"-0.003": 18.4476164867,
			"-0.002": 17.6025889641,
			"-0.001": 18.1563811584,
			"0.0": 18.4907252605,
			"0.001": 13.5468961635,
			"0.002": 9.37252087037,
			"0.003": 5.23615708597,
			"0.004": 5.2470564091,
			"0.005": 5.03476998262,
			"0.006": 5.75379502441,
			"0.007": 7.09959435504,
			"0.008": 13.5284656589,
			"0.009": 7.99661690608,
			"0.01": 7.67427217326,
			"0.011": 7.23170873469,
			"0.012": 3.7184524442,
			"0.013": 2.17423702767,
			"0.014": 0.0,
			"0.015": 0.0,
			"0.016": 0.0,
			"0.017": 0.0,
			"0.018": 0.0,
			"0.019": 0.0,
			"0.02": 0.0,
			"0.021": 0.0,
			"0.022": 0.0,
			"0.023": 0.0,
			"0.024": 0.0,
			"0.025": 0.0
		}
	}
}
