{
	 "smiles": "OC(=O)C1=CC=C(C=C1)C1=CC=C(C=O)C=C1", 
	 "Tm": 423.15, 
	 "num_atms": 27, 
	 "gaussian": { 
		 "optdone": 1, 
		 "sigma_profile": "yes", 
		 "theory": "DFT", 
		 "functional": "B3LYP", 
		 "basiset": "6-31G**", 
		 "properties": { 
			 "R2extent": 6735.9943, 
			 "electric_dipole_moment_norm": 3.24402173082, 
			 "electric_quadrupole_moment_norm": 17.0240009995, 
			 "total_energy": -765.208399517, 
			 "HOMO_LUMO_gap": 0.16517, 
			 "cosmo_polarized_energy": -14.6, 
			 "cosmo_cavitation_energy": 32.78, 
			 "cosmo_dispersion_energy": -23.68, 
			 "cosmo_repulsion_energy": 1.8, 
			 "cosmo_total_nonelectrostatic_energy": 10.89, 
			 "SMD_solvation_energy": 7.66 
		},
		"coords": [
			{
				"x": 5.8478654223,
				"y": -1.9134174839,
				"z": -0.6017005782,
				"element": "O" 
			},
			{
				"x": 5.4447269945,
				"y": -0.7259098252,
				"z": -0.0834367646,
				"element": "C" 
			},
			{
				"x": 6.2309770656,
				"y": 0.0752982629,
				"z": 0.382279205,
				"element": "O" 
			},
			{
				"x": 3.973133509,
				"y": -0.5301487893,
				"z": -0.1519242489,
				"element": "C" 
			},
			{
				"x": 3.1118263182,
				"y": -1.4897420075,
				"z": -0.7009014014,
				"element": "C" 
			},
			{
				"x": 1.7412226263,
				"y": -1.2552115678,
				"z": -0.7390021599,
				"element": "C" 
			},
			{
				"x": 1.1957795494,
				"y": -0.0613222284,
				"z": -0.2336429844,
				"element": "C" 
			},
			{
				"x": 2.0724446717,
				"y": 0.8939549394,
				"z": 0.3134193568,
				"element": "C" 
			},
			{
				"x": 3.4419173787,
				"y": 0.6632165809,
				"z": 0.3550602198,
				"element": "C" 
			},
			{
				"x": -0.2662519538,
				"y": 0.1848558455,
				"z": -0.276292585,
				"element": "C" 
			},
			{
				"x": -0.7725978874,
				"y": 1.4747962684,
				"z": -0.5360683031,
				"element": "C" 
			},
			{
				"x": -2.1398164369,
				"y": 1.7088729977,
				"z": -0.5771546761,
				"element": "C" 
			},
			{
				"x": -3.0422967731,
				"y": 0.6569742809,
				"z": -0.3575730374,
				"element": "C" 
			},
			{
				"x": -4.5011651561,
				"y": 0.8999576425,
				"z": -0.3997382735,
				"element": "C" 
			},
			{
				"x": -5.0152866472,
				"y": 1.9803448169,
				"z": -0.6200675942,
				"element": "O" 
			},
			{
				"x": -2.5500755,
				"y": -0.6282388898,
				"z": -0.0980912255,
				"element": "C" 
			},
			{
				"x": -1.1791719578,
				"y": -0.8624108398,
				"z": -0.0580698142,
				"element": "C" 
			},
			{
				"x": 6.8141127083,
				"y": -1.929039092,
				"z": -0.504017424,
				"element": "H" 
			},
			{
				"x": 3.5202424988,
				"y": -2.410108395,
				"z": -1.1024402555,
				"element": "H" 
			},
			{
				"x": 1.0862701765,
				"y": -1.9933589983,
				"z": -1.1912701674,
				"element": "H" 
			},
			{
				"x": 1.6712662644,
				"y": 1.8110247011,
				"z": 0.7333074623,
				"element": "H" 
			},
			{
				"x": 4.1202419629,
				"y": 1.3927818331,
				"z": 0.7843468051,
				"element": "H" 
			},
			{
				"x": -0.0815063647,
				"y": 2.288564416,
				"z": -0.7328804224,
				"element": "H" 
			},
			{
				"x": -2.5372394718,
				"y": 2.6971938368,
				"z": -0.7857196587,
				"element": "H" 
			},
			{
				"x": -5.1258149511,
				"y": -0.0016402765,
				"z": -0.2101493615,
				"element": "H" 
			},
			{
				"x": -3.2467844612,
				"y": -1.4440222891,
				"z": 0.0812007824,
				"element": "H" 
			},
			{
				"x": -0.8086195852,
				"y": -1.8566657394,
				"z": 0.1708271044,
				"element": "H" 
			}
		],
		 "valence_orbital": [ 
			{
				"type": "occ",
				"energy": -0.28208,
				"method": "rhf"
			},
			{
				"type": "occ",
				"energy": -0.27246,
				"method": "rhf"
			},
			{
				"type": "occ",
				"energy": -0.27026,
				"method": "rhf"
			},
			{
				"type": "occ",
				"energy": -0.25834,
				"method": "rhf"
			},
			{
				"type": "occ",
				"energy": -0.2465,
				"method": "rhf"
			},
			{
				"type": "unocc",
				"energy": -0.08133,
				"method": "rhf"
			},
			{
				"type": "unocc",
				"energy": -0.04414,
				"method": "rhf"
			},
			{
				"type": "unocc",
				"energy": -0.02328,
				"method": "rhf"
			},
			{
				"type": "unocc",
				"energy": -0.01843,
				"method": "rhf"
			},
			{
				"type": "unocc",
				"energy": 0.02668,
				"method": "rhf"
			}
		],
		"cosmo_sigma_profile": { 
			"-0.025": 0.0,
			"-0.024": 0.0,
			"-0.023": 0.0,
			"-0.022": 0.0,
			"-0.021": 0.0,
			"-0.02": 0.0,
			"-0.019": 0.0762922724352,
			"-0.018": 0.78543181672,
			"-0.017": 0.704836675178,
			"-0.016": 1.13671817329,
			"-0.015": 0.748452868706,
			"-0.014": 0.792203566743,
			"-0.013": 0.458680258707,
			"-0.012": 0.235942430669,
			"-0.011": 1.47075758694,
			"-0.01": 0.678076641025,
			"-0.009": 0.31754459861,
			"-0.008": 1.84787057178,
			"-0.007": 10.6705318694,
			"-0.006": 19.4619385203,
			"-0.005": 18.1784170041,
			"-0.004": 15.5377805642,
			"-0.003": 13.587098889,
			"-0.002": 17.1142430652,
			"-0.001": 16.6706173485,
			"0.0": 20.0455788494,
			"0.001": 23.8403672334,
			"0.002": 23.2816705821,
			"0.003": 27.8878356542,
			"0.004": 6.25814089643,
			"0.005": 5.29729720075,
			"0.006": 4.6089633013,
			"0.007": 4.58872151743,
			"0.008": 3.32139158272,
			"0.009": 3.14129264407,
			"0.01": 4.94423154354,
			"0.011": 8.15241562066,
			"0.012": 6.76149402176,
			"0.013": 0.848076516536,
			"0.014": 0.0,
			"0.015": 0.0,
			"0.016": 0.0,
			"0.017": 0.0,
			"0.018": 0.0,
			"0.019": 0.0,
			"0.02": 0.0,
			"0.021": 0.0,
			"0.022": 0.0,
			"0.023": 0.0,
			"0.024": 0.0,
			"0.025": 0.0
		}
	}
}
