{
	 "smiles": "NC1=CC=C(C=C1)S(=O)(=O)NCC1CC1", 
	 "Tm": 383.15, 
	 "num_atms": 29, 
	 "gaussian": { 
		 "optdone": 1, 
		 "sigma_profile": "yes", 
		 "theory": "DFT", 
		 "functional": "B3LYP", 
		 "basiset": "6-31G**", 
		 "properties": { 
			 "R2extent": 4705.4016, 
			 "electric_dipole_moment_norm": 6.9200905471, 
			 "electric_quadrupole_moment_norm": 27.0759357733, 
			 "total_energy": -1047.54366078, 
			 "HOMO_LUMO_gap": 0.20174, 
			 "cosmo_polarized_energy": -21.15, 
			 "cosmo_cavitation_energy": 33.59, 
			 "cosmo_dispersion_energy": -24.26, 
			 "cosmo_repulsion_energy": 1.88, 
			 "cosmo_total_nonelectrostatic_energy": 11.21, 
			 "SMD_solvation_energy": 4.2 
		},
		"coords": [
			{
				"x": 1.1694445747,
				"y": -2.9799830801,
				"z": -4.0603707027,
				"element": "N" 
			},
			{
				"x": 1.2435506748,
				"y": -1.9762544198,
				"z": -3.1085061946,
				"element": "C" 
			},
			{
				"x": 2.3881785168,
				"y": -1.8398226913,
				"z": -2.2971245955,
				"element": "C" 
			},
			{
				"x": 2.4431740757,
				"y": -0.8661013068,
				"z": -1.3093441458,
				"element": "C" 
			},
			{
				"x": 1.3545761196,
				"y": -0.0093744536,
				"z": -1.1111388618,
				"element": "C" 
			},
			{
				"x": 0.2157487049,
				"y": -0.1246076811,
				"z": -1.9151070736,
				"element": "C" 
			},
			{
				"x": 0.160279296,
				"y": -1.099254998,
				"z": -2.9032677793,
				"element": "C" 
			},
			{
				"x": 1.4187286123,
				"y": 1.2225406332,
				"z": 0.1821179857,
				"element": "S" 
			},
			{
				"x": 2.8297888502,
				"y": 1.5110429892,
				"z": 0.4493760006,
				"element": "O" 
			},
			{
				"x": 0.4470239915,
				"y": 2.2645304081,
				"z": -0.1566210529,
				"element": "O" 
			},
			{
				"x": 0.8611654194,
				"y": 0.4997533477,
				"z": 1.5993601148,
				"element": "N" 
			},
			{
				"x": -0.5233441216,
				"y": 0.0214175711,
				"z": 1.676927224,
				"element": "C" 
			},
			{
				"x": -1.0490321091,
				"y": 0.0177905544,
				"z": 3.1050032525,
				"element": "C" 
			},
			{
				"x": -0.8092911175,
				"y": 1.1753535803,
				"z": 4.0358354232,
				"element": "C" 
			},
			{
				"x": -0.1551957398,
				"y": -0.1593160431,
				"z": 4.3098483956,
				"element": "C" 
			},
			{
				"x": 0.4963272505,
				"y": -2.8506920235,
				"z": -4.8016411187,
				"element": "H" 
			},
			{
				"x": 2.0463189397,
				"y": -3.3637747095,
				"z": -4.3814240668,
				"element": "H" 
			},
			{
				"x": 3.237166856,
				"y": -2.5000704262,
				"z": -2.4540178217,
				"element": "H" 
			},
			{
				"x": 3.3372812225,
				"y": -0.7462950861,
				"z": -0.7064185846,
				"element": "H" 
			},
			{
				"x": -0.6079306824,
				"y": 0.5679780459,
				"z": -1.7798595647,
				"element": "H" 
			},
			{
				"x": -0.7231676765,
				"y": -1.1835373319,
				"z": -3.5307363231,
				"element": "H" 
			},
			{
				"x": 1.5581952741,
				"y": -0.1537995356,
				"z": 1.9438454956,
				"element": "H" 
			},
			{
				"x": -1.128449699,
				"y": 0.7072534741,
				"z": 1.0763197509,
				"element": "H" 
			},
			{
				"x": -0.6249047762,
				"y": -0.9839297065,
				"z": 1.2402045715,
				"element": "H" 
			},
			{
				"x": -2.0256114332,
				"y": -0.4582174678,
				"z": 3.1739536674,
				"element": "H" 
			},
			{
				"x": -0.1666197943,
				"y": 1.972548413,
				"z": 3.6757753968,
				"element": "H" 
			},
			{
				"x": -1.6235967793,
				"y": 1.4980413134,
				"z": 4.6774221258,
				"element": "H" 
			},
			{
				"x": 0.9192505023,
				"y": -0.2205298985,
				"z": 4.1637319745,
				"element": "H" 
			},
			{
				"x": -0.5232549523,
				"y": -0.7649894708,
				"z": 5.1325565067,
				"element": "H" 
			}
		],
		 "valence_orbital": [ 
			{
				"type": "occ",
				"energy": -0.29063,
				"method": "rhf"
			},
			{
				"type": "occ",
				"energy": -0.28359,
				"method": "rhf"
			},
			{
				"type": "occ",
				"energy": -0.26874,
				"method": "rhf"
			},
			{
				"type": "occ",
				"energy": -0.26565,
				"method": "rhf"
			},
			{
				"type": "occ",
				"energy": -0.2217,
				"method": "rhf"
			},
			{
				"type": "unocc",
				"energy": -0.01996,
				"method": "rhf"
			},
			{
				"type": "unocc",
				"energy": -0.01718,
				"method": "rhf"
			},
			{
				"type": "unocc",
				"energy": 0.05934,
				"method": "rhf"
			},
			{
				"type": "unocc",
				"energy": 0.06721,
				"method": "rhf"
			},
			{
				"type": "unocc",
				"energy": 0.08838,
				"method": "rhf"
			}
		],
		"cosmo_sigma_profile": { 
			"-0.025": 0.0,
			"-0.024": 0.0,
			"-0.023": 0.0,
			"-0.022": 0.0,
			"-0.021": 0.0,
			"-0.02": 0.0,
			"-0.019": 0.0,
			"-0.018": 0.0,
			"-0.017": 0.0,
			"-0.016": 0.0,
			"-0.015": 0.0514982807474,
			"-0.014": 0.759318309066,
			"-0.013": 3.77268129075,
			"-0.012": 3.93773844914,
			"-0.011": 3.89626651691,
			"-0.01": 5.11615251921,
			"-0.009": 4.53535304242,
			"-0.008": 4.84887737333,
			"-0.007": 6.21299626717,
			"-0.006": 9.50297328288,
			"-0.005": 12.8415707226,
			"-0.004": 20.6617939288,
			"-0.003": 20.9593060884,
			"-0.002": 18.0624174189,
			"-0.001": 15.1176423347,
			"0.0": 14.0534053962,
			"0.001": 14.7353624271,
			"0.002": 15.1285553941,
			"0.003": 17.7091046806,
			"0.004": 20.211763885,
			"0.005": 8.8743378181,
			"0.006": 7.05490555571,
			"0.007": 3.88152003208,
			"0.008": 4.21488719242,
			"0.009": 5.34196246819,
			"0.01": 5.35955806146,
			"0.011": 9.07795835996,
			"0.012": 8.39424275637,
			"0.013": 0.946886072678,
			"0.014": 0.0,
			"0.015": 0.0,
			"0.016": 0.0,
			"0.017": 0.0,
			"0.018": 0.0,
			"0.019": 0.0,
			"0.02": 0.0,
			"0.021": 0.0,
			"0.022": 0.0,
			"0.023": 0.0,
			"0.024": 0.0,
			"0.025": 0.0
		}
	}
}
