{
	 "smiles": "COC1=CC=C2NC(Cl)=NC2=C1", 
	 "Tm": 440.15, 
	 "num_atms": 19, 
	 "gaussian": { 
		 "optdone": 1, 
		 "sigma_profile": "yes", 
		 "theory": "DFT", 
		 "functional": "B3LYP", 
		 "basiset": "6-31G**", 
		 "properties": { 
			 "R2extent": 4098.2422, 
			 "electric_dipole_moment_norm": 2.23084944808, 
			 "electric_quadrupole_moment_norm": 18.8529561419, 
			 "total_energy": -953.980077751, 
			 "HOMO_LUMO_gap": 0.1896, 
			 "cosmo_polarized_energy": -12.66, 
			 "cosmo_cavitation_energy": 25.16, 
			 "cosmo_dispersion_energy": -19.26, 
			 "cosmo_repulsion_energy": 1.53, 
			 "cosmo_total_nonelectrostatic_energy": 7.43, 
			 "SMD_solvation_energy": 2.59 
		},
		"coords": [
			{
				"x": 1.2316634107,
				"y": -1.9406612665,
				"z": 1.1453849735,
				"element": "C" 
			},
			{
				"x": 0.0821635952,
				"y": -1.2478590946,
				"z": 1.6015307122,
				"element": "O" 
			},
			{
				"x": -0.1857129936,
				"y": -0.0217206838,
				"z": 1.0569836504,
				"element": "C" 
			},
			{
				"x": -1.3502329477,
				"y": 0.6033037142,
				"z": 1.5660671392,
				"element": "C" 
			},
			{
				"x": -1.7619906894,
				"y": 1.8506389532,
				"z": 1.1187527447,
				"element": "C" 
			},
			{
				"x": -0.9759922121,
				"y": 2.4651536917,
				"z": 0.1416688102,
				"element": "C" 
			},
			{
				"x": -1.0642370307,
				"y": 3.6784992408,
				"z": -0.532375232,
				"element": "N" 
			},
			{
				"x": 0.0135683985,
				"y": 3.7154861123,
				"z": -1.3797874652,
				"element": "C" 
			},
			{
				"x": 0.2519391343,
				"y": 5.0889929264,
				"z": -2.4016126555,
				"element": "Cl" 
			},
			{
				"x": 0.7854767424,
				"y": 2.6705595647,
				"z": -1.3318272793,
				"element": "N" 
			},
			{
				"x": 0.1873588899,
				"y": 1.8548699115,
				"z": -0.3755844147,
				"element": "C" 
			},
			{
				"x": 0.5974593775,
				"y": 0.5935881009,
				"z": 0.0815292826,
				"element": "C" 
			},
			{
				"x": 2.1518046495,
				"y": -1.376277917,
				"z": 1.3465496333,
				"element": "H" 
			},
			{
				"x": 1.2582908007,
				"y": -2.8803407683,
				"z": 1.6993222414,
				"element": "H" 
			},
			{
				"x": 1.1751690633,
				"y": -2.1563235134,
				"z": 0.0702337753,
				"element": "H" 
			},
			{
				"x": -1.9151462003,
				"y": 0.0711159124,
				"z": 2.3236523834,
				"element": "H" 
			},
			{
				"x": -2.6570018627,
				"y": 2.3169515445,
				"z": 1.5186146631,
				"element": "H" 
			},
			{
				"x": -1.7654590464,
				"y": 4.3955857897,
				"z": -0.4340783693,
				"element": "H" 
			},
			{
				"x": 1.4918789209,
				"y": 0.1409377811,
				"z": -0.3262245933,
				"element": "H" 
			}
		],
		 "valence_orbital": [ 
			{
				"type": "occ",
				"energy": -0.3116,
				"method": "rhf"
			},
			{
				"type": "occ",
				"energy": -0.29897,
				"method": "rhf"
			},
			{
				"type": "occ",
				"energy": -0.28539,
				"method": "rhf"
			},
			{
				"type": "occ",
				"energy": -0.23099,
				"method": "rhf"
			},
			{
				"type": "occ",
				"energy": -0.20916,
				"method": "rhf"
			},
			{
				"type": "unocc",
				"energy": -0.01956,
				"method": "rhf"
			},
			{
				"type": "unocc",
				"energy": 0.02645,
				"method": "rhf"
			},
			{
				"type": "unocc",
				"energy": 0.02861,
				"method": "rhf"
			},
			{
				"type": "unocc",
				"energy": 0.04609,
				"method": "rhf"
			},
			{
				"type": "unocc",
				"energy": 0.07549,
				"method": "rhf"
			}
		],
		"cosmo_sigma_profile": { 
			"-0.025": 0.0,
			"-0.024": 0.0,
			"-0.023": 0.0,
			"-0.022": 0.0,
			"-0.021": 0.0,
			"-0.02": 0.0,
			"-0.019": 0.0,
			"-0.018": 0.041220316231,
			"-0.017": 1.38634667253,
			"-0.016": 1.37464730126,
			"-0.015": 1.31860825906,
			"-0.014": 1.22669558653,
			"-0.013": 1.05924277835,
			"-0.012": 1.0300456906,
			"-0.011": 1.37471669122,
			"-0.01": 0.800594028502,
			"-0.009": 1.3646969112,
			"-0.008": 1.97164026053,
			"-0.007": 3.69791099823,
			"-0.006": 7.89528771262,
			"-0.005": 14.7447328885,
			"-0.004": 13.702509921,
			"-0.003": 15.3102443061,
			"-0.002": 12.6393301501,
			"-0.001": 10.5772264751,
			"0.0": 13.130937926,
			"0.001": 13.2508602208,
			"0.002": 14.6555083812,
			"0.003": 19.4862805276,
			"0.004": 19.1637959203,
			"0.005": 10.8058893233,
			"0.006": 3.94451851538,
			"0.007": 3.3536268514,
			"0.008": 2.40825054441,
			"0.009": 2.65078694816,
			"0.01": 3.04830537076,
			"0.011": 1.74544523035,
			"0.012": 0.90062639963,
			"0.013": 1.0933343747,
			"0.014": 1.06104102732,
			"0.015": 1.0931480151,
			"0.016": 0.611419846431,
			"0.017": 0.13207757457,
			"0.018": 0.0,
			"0.019": 0.0,
			"0.02": 0.0,
			"0.021": 0.0,
			"0.022": 0.0,
			"0.023": 0.0,
			"0.024": 0.0,
			"0.025": 0.0
		}
	}
}
