{
	 "smiles": "CC1=NC2=C(C=NN2C2=CC(Cl)=CC=C2)C(=O)N1", 
	 "Tm": 388.15, 
	 "num_atms": 27, 
	 "gaussian": { 
		 "optdone": 1, 
		 "sigma_profile": "yes", 
		 "theory": "DFT", 
		 "functional": "B3LYP", 
		 "basiset": "6-31G**", 
		 "properties": { 
			 "R2extent": 6790.6437, 
			 "electric_dipole_moment_norm": 2.64596580855, 
			 "electric_quadrupole_moment_norm": 32.5679995004, 
			 "total_energy": -1217.13875641, 
			 "HOMO_LUMO_gap": 0.17976, 
			 "cosmo_polarized_energy": -15.11, 
			 "cosmo_cavitation_energy": 33.75, 
			 "cosmo_dispersion_energy": -24.86, 
			 "cosmo_repulsion_energy": 1.9, 
			 "cosmo_total_nonelectrostatic_energy": 10.79, 
			 "SMD_solvation_energy": 4.83 
		},
		"coords": [
			{
				"x": 4.7128640527,
				"y": 0.7288288438,
				"z": 0.49852121,
				"element": "C" 
			},
			{
				"x": 3.3397909386,
				"y": 0.7384535743,
				"z": -0.1166707125,
				"element": "C" 
			},
			{
				"x": 2.2913702054,
				"y": 0.6373094091,
				"z": 0.6588414063,
				"element": "N" 
			},
			{
				"x": 1.0983986315,
				"y": 0.6567634242,
				"z": -0.0014161966,
				"element": "C" 
			},
			{
				"x": 0.9115654714,
				"y": 0.7713596039,
				"z": -1.3844576005,
				"element": "C" 
			},
			{
				"x": -0.490463478,
				"y": 0.7428868446,
				"z": -1.5700320168,
				"element": "C" 
			},
			{
				"x": -1.1225115055,
				"y": 0.6222444186,
				"z": -0.4182261815,
				"element": "N" 
			},
			{
				"x": -0.1524347103,
				"y": 0.5682241291,
				"z": 0.5562388679,
				"element": "N" 
			},
			{
				"x": -0.5580744268,
				"y": 0.4367920015,
				"z": 1.9155329629,
				"element": "C" 
			},
			{
				"x": 0.3891041435,
				"y": 0.3765466496,
				"z": 2.945942794,
				"element": "C" 
			},
			{
				"x": -0.0643605491,
				"y": 0.2479004979,
				"z": 4.2563852414,
				"element": "C" 
			},
			{
				"x": 1.1253638379,
				"y": 0.1719997738,
				"z": 5.5524094289,
				"element": "Cl" 
			},
			{
				"x": -1.4188169659,
				"y": 0.1778282698,
				"z": 4.5722539933,
				"element": "C" 
			},
			{
				"x": -2.3418565458,
				"y": 0.2400840563,
				"z": 3.5271121258,
				"element": "C" 
			},
			{
				"x": -1.9277834174,
				"y": 0.3685335965,
				"z": 2.2045458986,
				"element": "C" 
			},
			{
				"x": 2.0550298549,
				"y": 0.8833725991,
				"z": -2.2513079734,
				"element": "C" 
			},
			{
				"x": 2.110343413,
				"y": 0.990967673,
				"z": -3.4653976671,
				"element": "O" 
			},
			{
				"x": 3.2559436243,
				"y": 0.8544029836,
				"z": -1.4778304028,
				"element": "N" 
			},
			{
				"x": 4.8595210415,
				"y": -0.2002056741,
				"z": 1.0562122911,
				"element": "H" 
			},
			{
				"x": 5.5040626499,
				"y": 0.8195893362,
				"z": -0.2492316815,
				"element": "H" 
			},
			{
				"x": 4.8030989889,
				"y": 1.5546594958,
				"z": 1.2095006728,
				"element": "H" 
			},
			{
				"x": -1.0495248844,
				"y": 0.8055708445,
				"z": -2.4933111823,
				"element": "H" 
			},
			{
				"x": 1.4457159398,
				"y": 0.4288755202,
				"z": 2.7264756442,
				"element": "H" 
			},
			{
				"x": -1.7385881665,
				"y": 0.0778238761,
				"z": 5.6029567403,
				"element": "H" 
			},
			{
				"x": -3.4035537511,
				"y": 0.1874396655,
				"z": 3.7483505263,
				"element": "H" 
			},
			{
				"x": -2.641748358,
				"y": 0.416868532,
				"z": 1.3936858118,
				"element": "H" 
			},
			{
				"x": 4.1033439655,
				"y": 0.929480055,
				"z": -2.0275840008,
				"element": "H" 
			}
		],
		 "valence_orbital": [ 
			{
				"type": "occ",
				"energy": -0.29536,
				"method": "rhf"
			},
			{
				"type": "occ",
				"energy": -0.27151,
				"method": "rhf"
			},
			{
				"type": "occ",
				"energy": -0.25341,
				"method": "rhf"
			},
			{
				"type": "occ",
				"energy": -0.24188,
				"method": "rhf"
			},
			{
				"type": "occ",
				"energy": -0.23282,
				"method": "rhf"
			},
			{
				"type": "unocc",
				"energy": -0.05306,
				"method": "rhf"
			},
			{
				"type": "unocc",
				"energy": -0.02201,
				"method": "rhf"
			},
			{
				"type": "unocc",
				"energy": -0.01534,
				"method": "rhf"
			},
			{
				"type": "unocc",
				"energy": -0.00368,
				"method": "rhf"
			},
			{
				"type": "unocc",
				"energy": 0.02892,
				"method": "rhf"
			}
		],
		"cosmo_sigma_profile": { 
			"-0.025": 0.0,
			"-0.024": 0.0,
			"-0.023": 0.0,
			"-0.022": 0.0,
			"-0.021": 0.0,
			"-0.02": 0.0,
			"-0.019": 0.0,
			"-0.018": 0.0,
			"-0.017": 0.152878891117,
			"-0.016": 1.02670507467,
			"-0.015": 1.7141082455,
			"-0.014": 0.933433786719,
			"-0.013": 1.37218432493,
			"-0.012": 1.25401192303,
			"-0.011": 1.08000561555,
			"-0.01": 0.987379357245,
			"-0.009": 2.04044471929,
			"-0.008": 4.35366044323,
			"-0.007": 6.9980778539,
			"-0.006": 12.5938537165,
			"-0.005": 13.9820798229,
			"-0.004": 16.9261349088,
			"-0.003": 19.0882349447,
			"-0.002": 21.1815479973,
			"-0.001": 19.0903490395,
			"0.0": 19.82315801,
			"0.001": 24.92258654,
			"0.002": 24.859111715,
			"0.003": 24.1906774549,
			"0.004": 16.0098814931,
			"0.005": 12.009708073,
			"0.006": 3.86511504068,
			"0.007": 3.41312554398,
			"0.008": 2.68638861967,
			"0.009": 2.32889684783,
			"0.01": 3.42662407883,
			"0.011": 2.41526367377,
			"0.012": 3.86392096445,
			"0.013": 5.19102406175,
			"0.014": 0.627010149039,
			"0.015": 0.0,
			"0.016": 0.0,
			"0.017": 0.0,
			"0.018": 0.0,
			"0.019": 0.0,
			"0.02": 0.0,
			"0.021": 0.0,
			"0.022": 0.0,
			"0.023": 0.0,
			"0.024": 0.0,
			"0.025": 0.0
		}
	}
}
