{
	 "smiles": "ClC1=C(C=C2OCC(=O)NC2=C1)S(Cl)(=O)=O", 
	 "Tm": 522.15, 
	 "num_atms": 21, 
	 "gaussian": { 
		 "optdone": 1, 
		 "sigma_profile": "yes", 
		 "theory": "DFT", 
		 "functional": "B3LYP", 
		 "basiset": "6-31G**", 
		 "properties": { 
			 "R2extent": 5390.4387, 
			 "electric_dipole_moment_norm": 4.63162324353, 
			 "electric_quadrupole_moment_norm": 20.2835511721, 
			 "total_energy": -1982.00663029, 
			 "HOMO_LUMO_gap": 0.1595, 
			 "cosmo_polarized_energy": -18.05, 
			 "cosmo_cavitation_energy": 30.95, 
			 "cosmo_dispersion_energy": -23.64, 
			 "cosmo_repulsion_energy": 1.78, 
			 "cosmo_total_nonelectrostatic_energy": 9.09, 
			 "SMD_solvation_energy": 4.63 
		},
		"coords": [
			{
				"x": 1.7816821262,
				"y": -0.6916075131,
				"z": 2.090223218,
				"element": "Cl" 
			},
			{
				"x": 0.6644153286,
				"y": -0.0733537952,
				"z": 0.9064751924,
				"element": "C" 
			},
			{
				"x": 0.9807660641,
				"y": 0.0555315395,
				"z": -0.4548941595,
				"element": "C" 
			},
			{
				"x": 0.0240993127,
				"y": 0.5250338994,
				"z": -1.363919853,
				"element": "C" 
			},
			{
				"x": -1.2364654654,
				"y": 0.8906388887,
				"z": -0.9180470466,
				"element": "C" 
			},
			{
				"x": -2.1344849065,
				"y": 1.4165029443,
				"z": -1.7997723284,
				"element": "O" 
			},
			{
				"x": -3.5136337736,
				"y": 1.2049471222,
				"z": -1.4805642565,
				"element": "C" 
			},
			{
				"x": -3.8603525574,
				"y": 1.4501219229,
				"z": -0.0154392812,
				"element": "C" 
			},
			{
				"x": -4.9688220766,
				"y": 1.7840159864,
				"z": 0.353443613,
				"element": "O" 
			},
			{
				"x": -2.8225122133,
				"y": 1.1968002497,
				"z": 0.8587909493,
				"element": "N" 
			},
			{
				"x": -1.5568864183,
				"y": 0.7796708915,
				"z": 0.4479842151,
				"element": "C" 
			},
			{
				"x": -0.6086999201,
				"y": 0.2887336605,
				"z": 1.346435044,
				"element": "C" 
			},
			{
				"x": 2.5880706374,
				"y": -0.3242214972,
				"z": -1.1554143203,
				"element": "S" 
			},
			{
				"x": 2.6159208829,
				"y": -2.4469779736,
				"z": -1.040798188,
				"element": "Cl" 
			},
			{
				"x": 2.5459700653,
				"y": -0.0012023111,
				"z": -2.5761930419,
				"element": "O" 
			},
			{
				"x": 3.6546399244,
				"y": 0.1606406218,
				"z": -0.2932973956,
				"element": "O" 
			},
			{
				"x": 0.2701403983,
				"y": 0.6214501846,
				"z": -2.4141878462,
				"element": "H" 
			},
			{
				"x": -4.0889879854,
				"y": 1.8988516156,
				"z": -2.0926565067,
				"element": "H" 
			},
			{
				"x": -3.8110661877,
				"y": 0.1776081582,
				"z": -1.7388349965,
				"element": "H" 
			},
			{
				"x": -3.0408925858,
				"y": 1.2717373259,
				"z": 1.8447749859,
				"element": "H" 
			},
			{
				"x": -0.8535006502,
				"y": 0.1916780791,
				"z": 2.3986920026,
				"element": "H" 
			}
		],
		 "valence_orbital": [ 
			{
				"type": "occ",
				"energy": -0.32741,
				"method": "rhf"
			},
			{
				"type": "occ",
				"energy": -0.31581,
				"method": "rhf"
			},
			{
				"type": "occ",
				"energy": -0.29336,
				"method": "rhf"
			},
			{
				"type": "occ",
				"energy": -0.2806,
				"method": "rhf"
			},
			{
				"type": "occ",
				"energy": -0.25329,
				"method": "rhf"
			},
			{
				"type": "unocc",
				"energy": -0.09379,
				"method": "rhf"
			},
			{
				"type": "unocc",
				"energy": -0.0609,
				"method": "rhf"
			},
			{
				"type": "unocc",
				"energy": -0.04783,
				"method": "rhf"
			},
			{
				"type": "unocc",
				"energy": -0.01272,
				"method": "rhf"
			},
			{
				"type": "unocc",
				"energy": 0.00079,
				"method": "rhf"
			}
		],
		"cosmo_sigma_profile": { 
			"-0.025": 0.0,
			"-0.024": 0.0,
			"-0.023": 0.0,
			"-0.022": 0.0,
			"-0.021": 0.0,
			"-0.02": 0.0,
			"-0.019": 0.0,
			"-0.018": 0.0418762471203,
			"-0.017": 1.20601793506,
			"-0.016": 1.10432538358,
			"-0.015": 1.39555208765,
			"-0.014": 1.78591316647,
			"-0.013": 1.23697646839,
			"-0.012": 0.970667394458,
			"-0.011": 1.38127566283,
			"-0.01": 2.70580078846,
			"-0.009": 5.61706284953,
			"-0.008": 7.88396702264,
			"-0.007": 6.90286271754,
			"-0.006": 8.93182081944,
			"-0.005": 10.7289163003,
			"-0.004": 10.1416887254,
			"-0.003": 13.4202835533,
			"-0.002": 20.8141911205,
			"-0.001": 25.4406912675,
			"0.0": 16.1893069546,
			"0.001": 13.2415727338,
			"0.002": 17.555375364,
			"0.003": 23.1944988633,
			"0.004": 10.6953271286,
			"0.005": 6.84571738934,
			"0.006": 5.75629947095,
			"0.007": 9.31411819844,
			"0.008": 13.2517098277,
			"0.009": 4.48150802238,
			"0.01": 1.96150075032,
			"0.011": 4.60762859748,
			"0.012": 4.3721579561,
			"0.013": 0.451222881799,
			"0.014": 0.0,
			"0.015": 0.0,
			"0.016": 0.0,
			"0.017": 0.0,
			"0.018": 0.0,
			"0.019": 0.0,
			"0.02": 0.0,
			"0.021": 0.0,
			"0.022": 0.0,
			"0.023": 0.0,
			"0.024": 0.0,
			"0.025": 0.0
		}
	}
}
