{
	 "smiles": "CC(=O)OC1=CC(=CC(OC(C)=O)=C1)C(C)=O", 
	 "Tm": 366.15, 
	 "num_atms": 29, 
	 "gaussian": { 
		 "optdone": 1, 
		 "sigma_profile": "yes", 
		 "theory": "DFT", 
		 "functional": "B3LYP", 
		 "basiset": "6-31G**", 
		 "properties": { 
			 "R2extent": 5756.0211, 
			 "electric_dipole_moment_norm": 2.58581131175, 
			 "electric_quadrupole_moment_norm": 19.0462748297, 
			 "total_energy": -840.650611169, 
			 "HOMO_LUMO_gap": 0.18782, 
			 "cosmo_polarized_energy": -13.99, 
			 "cosmo_cavitation_energy": 35.01, 
			 "cosmo_dispersion_energy": -24.65, 
			 "cosmo_repulsion_energy": 1.95, 
			 "cosmo_total_nonelectrostatic_energy": 12.31, 
			 "SMD_solvation_energy": 9.43 
		},
		"coords": [
			{
				"x": -3.1157348688,
				"y": -1.1452781946,
				"z": 5.2232449621,
				"element": "C" 
			},
			{
				"x": -2.5648097534,
				"y": -1.3419058971,
				"z": 3.8334994266,
				"element": "C" 
			},
			{
				"x": -2.6840300111,
				"y": -2.3325122792,
				"z": 3.1558086717,
				"element": "O" 
			},
			{
				"x": -1.8996542012,
				"y": -0.2067830474,
				"z": 3.4435336374,
				"element": "O" 
			},
			{
				"x": -1.3124681035,
				"y": -0.0808397654,
				"z": 2.1875246462,
				"element": "C" 
			},
			{
				"x": -1.3534626979,
				"y": 1.1934482242,
				"z": 1.6341838993,
				"element": "C" 
			},
			{
				"x": -0.7317926326,
				"y": 1.4348623368,
				"z": 0.4038282911,
				"element": "C" 
			},
			{
				"x": -0.0733538176,
				"y": 0.3978601573,
				"z": -0.2717361009,
				"element": "C" 
			},
			{
				"x": -0.0395834474,
				"y": -0.8670983118,
				"z": 0.3138211401,
				"element": "C" 
			},
			{
				"x": 0.531813549,
				"y": -1.9856650886,
				"z": -0.2901658156,
				"element": "O" 
			},
			{
				"x": 1.6768191064,
				"y": -1.9130097749,
				"z": -1.0415327299,
				"element": "C" 
			},
			{
				"x": 2.0482529489,
				"y": -3.2939654378,
				"z": -1.5201357713,
				"element": "C" 
			},
			{
				"x": 2.2823713414,
				"y": -0.8955473544,
				"z": -1.2734055492,
				"element": "O" 
			},
			{
				"x": -0.6505044298,
				"y": -1.1261050706,
				"z": 1.5407929801,
				"element": "C" 
			},
			{
				"x": -0.8006164511,
				"y": 2.8310103706,
				"z": -0.1505380295,
				"element": "C" 
			},
			{
				"x": -0.1205260113,
				"y": 3.1263214639,
				"z": -1.4749869022,
				"element": "C" 
			},
			{
				"x": -1.3927853461,
				"y": 3.7079694556,
				"z": 0.4587601385,
				"element": "O" 
			},
			{
				"x": -3.61613202,
				"y": -2.0577858244,
				"z": 5.5450294955,
				"element": "H" 
			},
			{
				"x": -2.3071801802,
				"y": -0.8941040219,
				"z": 5.9157674081,
				"element": "H" 
			},
			{
				"x": -3.8215485433,
				"y": -0.309408939,
				"z": 5.2300468189,
				"element": "H" 
			},
			{
				"x": -1.8571137294,
				"y": 2.0048814447,
				"z": 2.1459764281,
				"element": "H" 
			},
			{
				"x": 0.4166704892,
				"y": 0.566166561,
				"z": -1.2185154098,
				"element": "H" 
			},
			{
				"x": 2.9461939723,
				"y": -3.233264131,
				"z": -2.1338270123,
				"element": "H" 
			},
			{
				"x": 2.2233041571,
				"y": -3.9524231214,
				"z": -0.6642536004,
				"element": "H" 
			},
			{
				"x": 1.2253066482,
				"y": -3.7241334917,
				"z": -2.0983224589,
				"element": "H" 
			},
			{
				"x": -0.6189713691,
				"y": -2.1232279103,
				"z": 1.9550320976,
				"element": "H" 
			},
			{
				"x": -0.5453844791,
				"y": 2.5146271589,
				"z": -2.2786315365,
				"element": "H" 
			},
			{
				"x": 0.9503450673,
				"y": 2.900964086,
				"z": -1.426540008,
				"element": "H" 
			},
			{
				"x": -0.2612251868,
				"y": 4.1812464024,
				"z": -1.7113591169,
				"element": "H" 
			}
		],
		 "valence_orbital": [ 
			{
				"type": "occ",
				"energy": -0.28817,
				"method": "rhf"
			},
			{
				"type": "occ",
				"energy": -0.28593,
				"method": "rhf"
			},
			{
				"type": "occ",
				"energy": -0.259,
				"method": "rhf"
			},
			{
				"type": "occ",
				"energy": -0.25141,
				"method": "rhf"
			},
			{
				"type": "occ",
				"energy": -0.24766,
				"method": "rhf"
			},
			{
				"type": "unocc",
				"energy": -0.05984,
				"method": "rhf"
			},
			{
				"type": "unocc",
				"energy": -0.02601,
				"method": "rhf"
			},
			{
				"type": "unocc",
				"energy": -0.00756,
				"method": "rhf"
			},
			{
				"type": "unocc",
				"energy": 0.01604,
				"method": "rhf"
			},
			{
				"type": "unocc",
				"energy": 0.04115,
				"method": "rhf"
			}
		],
		"cosmo_sigma_profile": { 
			"-0.025": 0.0,
			"-0.024": 0.0,
			"-0.023": 0.0,
			"-0.022": 0.0,
			"-0.021": 0.0,
			"-0.02": 0.0,
			"-0.019": 0.0,
			"-0.018": 0.0,
			"-0.017": 0.0,
			"-0.016": 0.0,
			"-0.015": 0.0,
			"-0.014": 0.0,
			"-0.013": 0.0,
			"-0.012": 0.0,
			"-0.011": 0.0,
			"-0.01": 0.0,
			"-0.009": 0.0,
			"-0.008": 0.0912189748164,
			"-0.007": 9.2815982141,
			"-0.006": 22.8942400409,
			"-0.005": 24.3799792589,
			"-0.004": 23.6646611083,
			"-0.003": 27.4692262427,
			"-0.002": 27.015970327,
			"-0.001": 19.898165067,
			"0.0": 16.2000212271,
			"0.001": 23.5677696508,
			"0.002": 15.4332159811,
			"0.003": 8.16739855729,
			"0.004": 7.49606608034,
			"0.005": 6.77959721741,
			"0.006": 7.02937594544,
			"0.007": 5.33279388677,
			"0.008": 4.19033687024,
			"0.009": 7.05161921838,
			"0.01": 6.98658494903,
			"0.011": 10.4596935991,
			"0.012": 4.98579971587,
			"0.013": 0.864966890465,
			"0.014": 0.0,
			"0.015": 0.0,
			"0.016": 0.0,
			"0.017": 0.0,
			"0.018": 0.0,
			"0.019": 0.0,
			"0.02": 0.0,
			"0.021": 0.0,
			"0.022": 0.0,
			"0.023": 0.0,
			"0.024": 0.0,
			"0.025": 0.0
		}
	}
}
