{
	 "smiles": "CC1=C(SC(=N1)C(=NNC1=CC=C(Cl)C=C1)C#N)N=NC1=CC=CC=C1", 
	 "Tm": 498.15, 
	 "num_atms": 39, 
	 "gaussian": { 
		 "optdone": 1, 
		 "sigma_profile": "yes", 
		 "theory": "DFT", 
		 "functional": "B3LYP", 
		 "basiset": "6-31G**", 
		 "properties": { 
			 "R2extent": 18059.4695, 
			 "electric_dipole_moment_norm": 3.42751157985, 
			 "electric_quadrupole_moment_norm": 27.4938513299, 
			 "total_energy": -1880.51407085, 
			 "HOMO_LUMO_gap": 0.10615, 
			 "cosmo_polarized_energy": -18.59, 
			 "cosmo_cavitation_energy": 50.0, 
			 "cosmo_dispersion_energy": -34.79, 
			 "cosmo_repulsion_energy": 2.6, 
			 "cosmo_total_nonelectrostatic_energy": 17.81, 
			 "SMD_solvation_energy": 4.77 
		},
		"coords": [
			{
				"x": -3.1406360831,
				"y": -1.6808780548,
				"z": -1.0219298605,
				"element": "C" 
			},
			{
				"x": -2.4785095925,
				"y": -1.6260560762,
				"z": 0.3212979856,
				"element": "C" 
			},
			{
				"x": -2.598074359,
				"y": -2.5718431214,
				"z": 1.3348310353,
				"element": "C" 
			},
			{
				"x": -1.7952946146,
				"y": -2.004504183,
				"z": 2.7837293147,
				"element": "S" 
			},
			{
				"x": -1.2827289514,
				"y": -0.5835432269,
				"z": 1.8786489521,
				"element": "C" 
			},
			{
				"x": -1.7297527815,
				"y": -0.5309019821,
				"z": 0.6495853093,
				"element": "N" 
			},
			{
				"x": -0.4034398358,
				"y": 0.4106957399,
				"z": 2.4845570726,
				"element": "C" 
			},
			{
				"x": 0.026200115,
				"y": 1.4207904986,
				"z": 1.7682090569,
				"element": "N" 
			},
			{
				"x": 0.8084207534,
				"y": 2.3304930723,
				"z": 2.3073644492,
				"element": "N" 
			},
			{
				"x": 1.2797968132,
				"y": 3.4235579355,
				"z": 1.5648991512,
				"element": "C" 
			},
			{
				"x": 0.9336755399,
				"y": 3.5959651957,
				"z": 0.2176860483,
				"element": "C" 
			},
			{
				"x": 1.4235108027,
				"y": 4.6940498879,
				"z": -0.481874071,
				"element": "C" 
			},
			{
				"x": 2.2542904263,
				"y": 5.6154176373,
				"z": 0.1592861567,
				"element": "C" 
			},
			{
				"x": 2.8679343606,
				"y": 6.9981022587,
				"z": -0.7315410411,
				"element": "Cl" 
			},
			{
				"x": 2.6019175243,
				"y": 5.4496703939,
				"z": 1.4995428486,
				"element": "C" 
			},
			{
				"x": 2.1133587334,
				"y": 4.3516850008,
				"z": 2.2023104167,
				"element": "C" 
			},
			{
				"x": -0.018989163,
				"y": 0.2797442278,
				"z": 3.8628362922,
				"element": "C" 
			},
			{
				"x": 0.3666326969,
				"y": 0.2877553661,
				"z": 4.9626186707,
				"element": "N" 
			},
			{
				"x": -3.4718923294,
				"y": -3.66129582,
				"z": 1.4766667946,
				"element": "N" 
			},
			{
				"x": -3.6153197722,
				"y": -4.5722743886,
				"z": 0.6224743776,
				"element": "N" 
			},
			{
				"x": -2.726988757,
				"y": -4.7909002424,
				"z": -0.4725362607,
				"element": "C" 
			},
			{
				"x": -3.3139978618,
				"y": -5.2552911703,
				"z": -1.6594655665,
				"element": "C" 
			},
			{
				"x": -2.5148925687,
				"y": -5.6028559617,
				"z": -2.7459991269,
				"element": "C" 
			},
			{
				"x": -1.1231012215,
				"y": -5.5425590469,
				"z": -2.6386867179,
				"element": "C" 
			},
			{
				"x": -0.5355837102,
				"y": -5.1290002259,
				"z": -1.4390598423,
				"element": "C" 
			},
			{
				"x": -1.3269526761,
				"y": -4.7458964598,
				"z": -0.3586543683,
				"element": "C" 
			},
			{
				"x": -3.3044881873,
				"y": -0.6631826432,
				"z": -1.382521727,
				"element": "H" 
			},
			{
				"x": -2.5155136087,
				"y": -2.2080350651,
				"z": -1.7521181715,
				"element": "H" 
			},
			{
				"x": -4.0993726066,
				"y": -2.2035293343,
				"z": -0.9740840598,
				"element": "H" 
			},
			{
				"x": 1.085656515,
				"y": 2.2554376183,
				"z": 3.2869029772,
				"element": "H" 
			},
			{
				"x": 0.2875371033,
				"y": 2.871945074,
				"z": -0.2636458397,
				"element": "H" 
			},
			{
				"x": 1.1609046459,
				"y": 4.8359871824,
				"z": -1.5242751156,
				"element": "H" 
			},
			{
				"x": 3.2471396547,
				"y": 6.1702298537,
				"z": 1.9890920401,
				"element": "H" 
			},
			{
				"x": 2.3819064912,
				"y": 4.2186500905,
				"z": 3.2470877065,
				"element": "H" 
			},
			{
				"x": -4.3956657238,
				"y": -5.3315132244,
				"z": -1.7081804053,
				"element": "H" 
			},
			{
				"x": -2.9769562192,
				"y": -5.9406475058,
				"z": -3.6688624754,
				"element": "H" 
			},
			{
				"x": -0.498310409,
				"y": -5.8327833729,
				"z": -3.4779822487,
				"element": "H" 
			},
			{
				"x": 0.5460505283,
				"y": -5.1075798538,
				"z": -1.3431633559,
				"element": "H" 
			},
			{
				"x": -0.8659716717,
				"y": -4.4409060741,
				"z": 0.5740535983,
				"element": "H" 
			}
		],
		 "valence_orbital": [ 
			{
				"type": "occ",
				"energy": -0.27029,
				"method": "rhf"
			},
			{
				"type": "occ",
				"energy": -0.2666,
				"method": "rhf"
			},
			{
				"type": "occ",
				"energy": -0.25927,
				"method": "rhf"
			},
			{
				"type": "occ",
				"energy": -0.23298,
				"method": "rhf"
			},
			{
				"type": "occ",
				"energy": -0.20669,
				"method": "rhf"
			},
			{
				"type": "unocc",
				"energy": -0.10054,
				"method": "rhf"
			},
			{
				"type": "unocc",
				"energy": -0.07634,
				"method": "rhf"
			},
			{
				"type": "unocc",
				"energy": -0.02827,
				"method": "rhf"
			},
			{
				"type": "unocc",
				"energy": -0.02286,
				"method": "rhf"
			},
			{
				"type": "unocc",
				"energy": -0.01721,
				"method": "rhf"
			}
		],
		"cosmo_sigma_profile": { 
			"-0.025": 0.0,
			"-0.024": 0.0,
			"-0.023": 0.0,
			"-0.022": 0.0,
			"-0.021": 0.0,
			"-0.02": 0.0,
			"-0.019": 0.0,
			"-0.018": 0.0,
			"-0.017": 0.0,
			"-0.016": 0.0778068013272,
			"-0.015": 1.2486081288,
			"-0.014": 1.53942476696,
			"-0.013": 1.30135950744,
			"-0.012": 0.956021332143,
			"-0.011": 2.03409154889,
			"-0.01": 1.68307818669,
			"-0.009": 2.17406405344,
			"-0.008": 4.002454399,
			"-0.007": 10.4542769317,
			"-0.006": 20.3564471804,
			"-0.005": 24.1845159114,
			"-0.004": 28.5046163108,
			"-0.003": 24.9594143387,
			"-0.002": 28.6579641343,
			"-0.001": 37.7497291019,
			"0.0": 37.0064399013,
			"0.001": 34.6958120505,
			"0.002": 37.2186435417,
			"0.003": 31.8037216248,
			"0.004": 22.9449304083,
			"0.005": 11.749032175,
			"0.006": 6.21998568681,
			"0.007": 5.59077815619,
			"0.008": 5.09317826929,
			"0.009": 6.57376987441,
			"0.01": 5.33262432215,
			"0.011": 5.91582790572,
			"0.012": 4.13299757519,
			"0.013": 2.3205796469,
			"0.014": 1.4583580579,
			"0.015": 0.23178307976,
			"0.016": 0.0,
			"0.017": 0.0,
			"0.018": 0.0,
			"0.019": 0.0,
			"0.02": 0.0,
			"0.021": 0.0,
			"0.022": 0.0,
			"0.023": 0.0,
			"0.024": 0.0,
			"0.025": 0.0
		}
	}
}
