{
	 "smiles": "NC1=NN(CC2=CC=C(C=C2)C#N)C=N1", 
	 "Tm": 443.15, 
	 "num_atms": 24, 
	 "gaussian": { 
		 "optdone": 1, 
		 "sigma_profile": "yes", 
		 "theory": "DFT", 
		 "functional": "B3LYP", 
		 "basiset": "6-31G**", 
		 "properties": { 
			 "R2extent": 4546.9519, 
			 "electric_dipole_moment_norm": 3.14304066471, 
			 "electric_quadrupole_moment_norm": 36.9476885343, 
			 "total_energy": -660.219655721, 
			 "HOMO_LUMO_gap": 0.1616, 
			 "cosmo_polarized_energy": -19.65, 
			 "cosmo_cavitation_energy": 30.32, 
			 "cosmo_dispersion_energy": -21.26, 
			 "cosmo_repulsion_energy": 1.67, 
			 "cosmo_total_nonelectrostatic_energy": 10.73, 
			 "SMD_solvation_energy": 4.22 
		},
		"coords": [
			{
				"x": -3.5889052439,
				"y": -0.1343032232,
				"z": 2.3983196467,
				"element": "N" 
			},
			{
				"x": -2.2188280848,
				"y": -0.0872228639,
				"z": 2.2486972176,
				"element": "C" 
			},
			{
				"x": -1.6257809317,
				"y": 0.3848512888,
				"z": 1.1535614729,
				"element": "N" 
			},
			{
				"x": -0.2980597161,
				"y": 0.3050965237,
				"z": 1.4962395797,
				"element": "N" 
			},
			{
				"x": 0.7350940124,
				"y": 0.6770588585,
				"z": 0.5439569467,
				"element": "C" 
			},
			{
				"x": 1.084527678,
				"y": -0.4130421971,
				"z": -0.455971504,
				"element": "C" 
			},
			{
				"x": 0.0785509362,
				"y": -1.0872634757,
				"z": -1.1632293198,
				"element": "C" 
			},
			{
				"x": 0.4064461259,
				"y": -2.064289451,
				"z": -2.0962963063,
				"element": "C" 
			},
			{
				"x": 1.7548006215,
				"y": -2.3787774107,
				"z": -2.3421218649,
				"element": "C" 
			},
			{
				"x": 2.765846355,
				"y": -1.7054739679,
				"z": -1.6392007214,
				"element": "C" 
			},
			{
				"x": 2.4243618382,
				"y": -0.733316505,
				"z": -0.7025259631,
				"element": "C" 
			},
			{
				"x": 2.0961082255,
				"y": -3.3845549737,
				"z": -3.3059274769,
				"element": "C" 
			},
			{
				"x": 2.3732903461,
				"y": -4.200094015,
				"z": -4.0878120659,
				"element": "N" 
			},
			{
				"x": -0.1837500138,
				"y": -0.2103547814,
				"z": 2.7357911635,
				"element": "C" 
			},
			{
				"x": -1.3731464918,
				"y": -0.468251849,
				"z": 3.253047817,
				"element": "N" 
			},
			{
				"x": -4.1064057805,
				"y": -0.1555161689,
				"z": 1.5312915939,
				"element": "H" 
			},
			{
				"x": -3.896401762,
				"y": -0.8162219831,
				"z": 3.0769462196,
				"element": "H" 
			},
			{
				"x": 0.3745539117,
				"y": 1.5706043731,
				"z": 0.0241114234,
				"element": "H" 
			},
			{
				"x": 1.6241254187,
				"y": 0.9630351789,
				"z": 1.1129476119,
				"element": "H" 
			},
			{
				"x": -0.9603952822,
				"y": -0.8427458094,
				"z": -0.9668362145,
				"element": "H" 
			},
			{
				"x": -0.3724587216,
				"y": -2.5868500138,
				"z": -2.6414799516,
				"element": "H" 
			},
			{
				"x": 3.8059077635,
				"y": -1.9508665944,
				"z": -1.8257099402,
				"element": "H" 
			},
			{
				"x": 3.2122028417,
				"y": -0.219183967,
				"z": -0.1581320339,
				"element": "H" 
			},
			{
				"x": 0.769515954,
				"y": -0.3717169726,
				"z": 3.2212326696,
				"element": "H" 
			}
		],
		 "valence_orbital": [ 
			{
				"type": "occ",
				"energy": -0.28643,
				"method": "rhf"
			},
			{
				"type": "occ",
				"energy": -0.28035,
				"method": "rhf"
			},
			{
				"type": "occ",
				"energy": -0.27791,
				"method": "rhf"
			},
			{
				"type": "occ",
				"energy": -0.26723,
				"method": "rhf"
			},
			{
				"type": "occ",
				"energy": -0.21952,
				"method": "rhf"
			},
			{
				"type": "unocc",
				"energy": -0.05792,
				"method": "rhf"
			},
			{
				"type": "unocc",
				"energy": -0.03027,
				"method": "rhf"
			},
			{
				"type": "unocc",
				"energy": 0.00576,
				"method": "rhf"
			},
			{
				"type": "unocc",
				"energy": 0.03432,
				"method": "rhf"
			},
			{
				"type": "unocc",
				"energy": 0.06131,
				"method": "rhf"
			}
		],
		"cosmo_sigma_profile": { 
			"-0.025": 0.0,
			"-0.024": 0.0,
			"-0.023": 0.0,
			"-0.022": 0.0,
			"-0.021": 0.0,
			"-0.02": 0.0,
			"-0.019": 0.0,
			"-0.018": 0.0,
			"-0.017": 0.0,
			"-0.016": 0.0,
			"-0.015": 0.0,
			"-0.014": 0.00934864721365,
			"-0.013": 1.66771154044,
			"-0.012": 2.22010177255,
			"-0.011": 2.27612612769,
			"-0.01": 5.517476676,
			"-0.009": 5.767059989,
			"-0.008": 11.5864987082,
			"-0.007": 13.9752552735,
			"-0.006": 13.3667381189,
			"-0.005": 14.1261824035,
			"-0.004": 10.5954339849,
			"-0.003": 10.2759287948,
			"-0.002": 12.0077126591,
			"-0.001": 16.1354500218,
			"0.0": 15.5412797827,
			"0.001": 16.7128571581,
			"0.002": 19.8592564887,
			"0.003": 10.7032125146,
			"0.004": 5.63103146236,
			"0.005": 5.75633366462,
			"0.006": 5.05173878097,
			"0.007": 7.23307883634,
			"0.008": 6.92108185653,
			"0.009": 6.63914367258,
			"0.01": 5.93870391586,
			"0.011": 4.30947642413,
			"0.012": 5.61135288135,
			"0.013": 3.65342232924,
			"0.014": 2.42171267518,
			"0.015": 1.32524034384,
			"0.016": 0.726563809682,
			"0.017": 0.453838700622,
			"0.018": 0.0,
			"0.019": 0.0,
			"0.02": 0.0,
			"0.021": 0.0,
			"0.022": 0.0,
			"0.023": 0.0,
			"0.024": 0.0,
			"0.025": 0.0
		}
	}
}
