{
	 "smiles": "NC(=O)NCC1=CC=CS1", 
	 "Tm": 403.15, 
	 "num_atms": 18, 
	 "gaussian": { 
		 "optdone": 1, 
		 "sigma_profile": "yes", 
		 "theory": "DFT", 
		 "functional": "B3LYP", 
		 "basiset": "6-31G**", 
		 "properties": { 
			 "R2extent": 2346.3971, 
			 "electric_dipole_moment_norm": 3.44182208866, 
			 "electric_quadrupole_moment_norm": 14.1916507408, 
			 "total_energy": -816.381224644, 
			 "HOMO_LUMO_gap": 0.21439, 
			 "cosmo_polarized_energy": -14.01, 
			 "cosmo_cavitation_energy": 23.54, 
			 "cosmo_dispersion_energy": -17.72, 
			 "cosmo_repulsion_energy": 1.41, 
			 "cosmo_total_nonelectrostatic_energy": 7.23, 
			 "SMD_solvation_energy": 4.48 
		},
		"coords": [
			{
				"x": -0.709485718,
				"y": -0.544543217,
				"z": -2.9662157435,
				"element": "N" 
			},
			{
				"x": -1.0565801399,
				"y": 0.7490639409,
				"z": -2.6117729463,
				"element": "C" 
			},
			{
				"x": -0.9980853374,
				"y": 1.6970614006,
				"z": -3.3828089364,
				"element": "O" 
			},
			{
				"x": -1.5054389311,
				"y": 0.8933381753,
				"z": -1.3060281412,
				"element": "N" 
			},
			{
				"x": -2.0115781893,
				"y": -0.1929534369,
				"z": -0.4803012699,
				"element": "C" 
			},
			{
				"x": -0.9159296073,
				"y": -0.9472052431,
				"z": 0.2437102105,
				"element": "C" 
			},
			{
				"x": 0.3792925532,
				"y": -0.5629340444,
				"z": 0.4727418225,
				"element": "C" 
			},
			{
				"x": 1.1269243297,
				"y": -1.5173321959,
				"z": 1.2320309873,
				"element": "C" 
			},
			{
				"x": 0.3920032153,
				"y": -2.6165740067,
				"z": 1.5728982089,
				"element": "C" 
			},
			{
				"x": -1.2321577158,
				"y": -2.5090803898,
				"z": 0.964177258,
				"element": "S" 
			},
			{
				"x": -0.2264560458,
				"y": -0.5841241217,
				"z": -3.8521613753,
				"element": "H" 
			},
			{
				"x": -0.334636007,
				"y": -1.1494890898,
				"z": -2.246759439,
				"element": "H" 
			},
			{
				"x": -1.8718699548,
				"y": 1.8185504685,
				"z": -1.1383496382,
				"element": "H" 
			},
			{
				"x": -2.6987764738,
				"y": 0.2460596119,
				"z": 0.2521865635,
				"element": "H" 
			},
			{
				"x": -2.605781853,
				"y": -0.8923569708,
				"z": -1.0844295901,
				"element": "H" 
			},
			{
				"x": 0.7765233876,
				"y": 0.3776226687,
				"z": 0.1096918503,
				"element": "H" 
			},
			{
				"x": 2.1671323917,
				"y": -1.3861659545,
				"z": 1.5080605434,
				"element": "H" 
			},
			{
				"x": 0.6993000956,
				"y": -3.4862375955,
				"z": 2.1369296355,
				"element": "H" 
			}
		],
		 "valence_orbital": [ 
			{
				"type": "occ",
				"energy": -0.27154,
				"method": "rhf"
			},
			{
				"type": "occ",
				"energy": -0.25923,
				"method": "rhf"
			},
			{
				"type": "occ",
				"energy": -0.25795,
				"method": "rhf"
			},
			{
				"type": "occ",
				"energy": -0.24701,
				"method": "rhf"
			},
			{
				"type": "occ",
				"energy": -0.23594,
				"method": "rhf"
			},
			{
				"type": "unocc",
				"energy": -0.02155,
				"method": "rhf"
			},
			{
				"type": "unocc",
				"energy": 0.01985,
				"method": "rhf"
			},
			{
				"type": "unocc",
				"energy": 0.057,
				"method": "rhf"
			},
			{
				"type": "unocc",
				"energy": 0.05825,
				"method": "rhf"
			},
			{
				"type": "unocc",
				"energy": 0.0758,
				"method": "rhf"
			}
		],
		"cosmo_sigma_profile": { 
			"-0.025": 0.0,
			"-0.024": 0.0,
			"-0.023": 0.0,
			"-0.022": 0.0,
			"-0.021": 0.0,
			"-0.02": 0.0,
			"-0.019": 0.0,
			"-0.018": 0.0,
			"-0.017": 0.0,
			"-0.016": 0.0,
			"-0.015": 0.0,
			"-0.014": 0.19787342343,
			"-0.013": 1.98283762741,
			"-0.012": 2.54244392036,
			"-0.011": 2.611418228,
			"-0.01": 2.70854660317,
			"-0.009": 2.99969765527,
			"-0.008": 5.02371172019,
			"-0.007": 7.33142028652,
			"-0.006": 10.4312171443,
			"-0.005": 13.7143687497,
			"-0.004": 11.4813409779,
			"-0.003": 11.7715655989,
			"-0.002": 10.826802733,
			"-0.001": 10.4841681457,
			"0.0": 10.4899238528,
			"0.001": 9.83421839601,
			"0.002": 11.2924898448,
			"0.003": 11.8356165224,
			"0.004": 13.1344107807,
			"0.005": 10.4304015649,
			"0.006": 5.34165635555,
			"0.007": 1.75655166318,
			"0.008": 1.22442869875,
			"0.009": 2.13006463641,
			"0.01": 1.57924148901,
			"0.011": 1.97754695883,
			"0.012": 1.28287249055,
			"0.013": 2.02073673563,
			"0.014": 5.78032658147,
			"0.015": 4.44363812176,
			"0.016": 0.149135170433,
			"0.017": 0.0,
			"0.018": 0.0,
			"0.019": 0.0,
			"0.02": 0.0,
			"0.021": 0.0,
			"0.022": 0.0,
			"0.023": 0.0,
			"0.024": 0.0,
			"0.025": 0.0
		}
	}
}
