{
	 "smiles": "NC1=C(C=C(Cl)C=C1)C(=O)NCC1CC1", 
	 "Tm": 426.15, 
	 "num_atms": 28, 
	 "gaussian": { 
		 "optdone": 1, 
		 "sigma_profile": "yes", 
		 "theory": "DFT", 
		 "functional": "B3LYP", 
		 "basiset": "6-31G**", 
		 "properties": { 
			 "R2extent": 5703.3869, 
			 "electric_dipole_moment_norm": 1.12204034241, 
			 "electric_quadrupole_moment_norm": 18.1770129757, 
			 "total_energy": -1071.9260667, 
			 "HOMO_LUMO_gap": 0.16427, 
			 "cosmo_polarized_energy": -12.33, 
			 "cosmo_cavitation_energy": 33.28, 
			 "cosmo_dispersion_energy": -24.33, 
			 "cosmo_repulsion_energy": 1.94, 
			 "cosmo_total_nonelectrostatic_energy": 10.88, 
			 "SMD_solvation_energy": 4.61 
		},
		"coords": [
			{
				"x": -2.7234415431,
				"y": 0.7153211719,
				"z": -1.9828388034,
				"element": "N" 
			},
			{
				"x": -1.7452356156,
				"y": 1.65566518,
				"z": -1.7883235646,
				"element": "C" 
			},
			{
				"x": -0.6291709361,
				"y": 1.4103930181,
				"z": -0.9368424321,
				"element": "C" 
			},
			{
				"x": 0.3427903549,
				"y": 2.4121329731,
				"z": -0.7744965994,
				"element": "C" 
			},
			{
				"x": 0.2152580188,
				"y": 3.643787427,
				"z": -1.3980967363,
				"element": "C" 
			},
			{
				"x": 1.4590794508,
				"y": 4.8723418338,
				"z": -1.1812115585,
				"element": "Cl" 
			},
			{
				"x": -0.8916366053,
				"y": 3.9088563702,
				"z": -2.2094528247,
				"element": "C" 
			},
			{
				"x": -1.8500389603,
				"y": 2.9264936443,
				"z": -2.3978838858,
				"element": "C" 
			},
			{
				"x": -0.4880225925,
				"y": 0.0871045656,
				"z": -0.2542511384,
				"element": "C" 
			},
			{
				"x": -1.052081072,
				"y": -0.9375841429,
				"z": -0.6643527937,
				"element": "O" 
			},
			{
				"x": 0.3085280084,
				"y": 0.052419339,
				"z": 0.8548236475,
				"element": "N" 
			},
			{
				"x": 0.5244945596,
				"y": -1.1701137985,
				"z": 1.6205000023,
				"element": "C" 
			},
			{
				"x": 1.8793851565,
				"y": -1.156915976,
				"z": 2.2906792342,
				"element": "C" 
			},
			{
				"x": 2.0918470033,
				"y": -1.9333239502,
				"z": 3.564614692,
				"element": "C" 
			},
			{
				"x": 2.0679507295,
				"y": -0.4248435091,
				"z": 3.6029650011,
				"element": "C" 
			},
			{
				"x": -2.4603682495,
				"y": -0.2356340991,
				"z": -1.7454433544,
				"element": "H" 
			},
			{
				"x": -3.3497523995,
				"y": 0.8527836493,
				"z": -2.760318088,
				"element": "H" 
			},
			{
				"x": 1.2319347023,
				"y": 2.2141793034,
				"z": -0.1862675012,
				"element": "H" 
			},
			{
				"x": -0.9910723877,
				"y": 4.8728437588,
				"z": -2.6967041517,
				"element": "H" 
			},
			{
				"x": -2.7064219015,
				"y": 3.1302480547,
				"z": -3.0353971569,
				"element": "H" 
			},
			{
				"x": 0.5778303046,
				"y": 0.9210625067,
				"z": 1.2910529863,
				"element": "H" 
			},
			{
				"x": -0.2642439238,
				"y": -1.297104252,
				"z": 2.3777101253,
				"element": "H" 
			},
			{
				"x": 0.4284176191,
				"y": -2.0053710505,
				"z": 0.9226902171,
				"element": "H" 
			},
			{
				"x": 2.7181452673,
				"y": -1.1237345875,
				"z": 1.5983847188,
				"element": "H" 
			},
			{
				"x": 1.2419039715,
				"y": -2.464298045,
				"z": 3.9843587486,
				"element": "H" 
			},
			{
				"x": 3.0419356875,
				"y": -2.4393679548,
				"z": 3.7032455904,
				"element": "H" 
			},
			{
				"x": 1.2000052106,
				"y": 0.0524401515,
				"z": 4.0513209022,
				"element": "H" 
			},
			{
				"x": 3.0013801421,
				"y": 0.1033184178,
				"z": 3.7712347235,
				"element": "H" 
			}
		],
		 "valence_orbital": [ 
			{
				"type": "occ",
				"energy": -0.29344,
				"method": "rhf"
			},
			{
				"type": "occ",
				"energy": -0.26722,
				"method": "rhf"
			},
			{
				"type": "occ",
				"energy": -0.258,
				"method": "rhf"
			},
			{
				"type": "occ",
				"energy": -0.24952,
				"method": "rhf"
			},
			{
				"type": "occ",
				"energy": -0.20192,
				"method": "rhf"
			},
			{
				"type": "unocc",
				"energy": -0.03765,
				"method": "rhf"
			},
			{
				"type": "unocc",
				"energy": 0.00347,
				"method": "rhf"
			},
			{
				"type": "unocc",
				"energy": 0.03308,
				"method": "rhf"
			},
			{
				"type": "unocc",
				"energy": 0.05458,
				"method": "rhf"
			},
			{
				"type": "unocc",
				"energy": 0.08836,
				"method": "rhf"
			}
		],
		"cosmo_sigma_profile": { 
			"-0.025": 0.0,
			"-0.024": 0.0,
			"-0.023": 0.0,
			"-0.022": 0.0,
			"-0.021": 0.0,
			"-0.02": 0.0,
			"-0.019": 0.0,
			"-0.018": 0.0,
			"-0.017": 0.0,
			"-0.016": 0.0,
			"-0.015": 0.0,
			"-0.014": 0.000766239120832,
			"-0.013": 1.47266490103,
			"-0.012": 2.65563086734,
			"-0.011": 2.31975791262,
			"-0.01": 3.46735473917,
			"-0.009": 2.2322096543,
			"-0.008": 3.58261147192,
			"-0.007": 6.77329063332,
			"-0.006": 6.83772794743,
			"-0.005": 12.3518954942,
			"-0.004": 21.92137611,
			"-0.003": 19.7218757989,
			"-0.002": 18.1932548763,
			"-0.001": 18.5678077821,
			"0.0": 18.5820982419,
			"0.001": 21.0357915864,
			"0.002": 20.9139590233,
			"0.003": 25.2426346445,
			"0.004": 22.6462339843,
			"0.005": 16.2716103292,
			"0.006": 4.29602472274,
			"0.007": 2.23112762832,
			"0.008": 2.49253238526,
			"0.009": 2.35660235679,
			"0.01": 2.01385768156,
			"0.011": 2.49330370853,
			"0.012": 1.81844058696,
			"0.013": 2.67965222971,
			"0.014": 0.802077181758,
			"0.015": 0.0,
			"0.016": 0.0,
			"0.017": 0.0,
			"0.018": 0.0,
			"0.019": 0.0,
			"0.02": 0.0,
			"0.021": 0.0,
			"0.022": 0.0,
			"0.023": 0.0,
			"0.024": 0.0,
			"0.025": 0.0
		}
	}
}
