{
	 "smiles": "IC1=CC2=C(C=C1)N=CNC2=O", 
	 "Tm": 546.15, 
	 "num_atms": 17, 
	 "gaussian": { 
		 "optdone": 1, 
		 "sigma_profile": "yes", 
		 "theory": "DFT", 
		 "functional": "B3LYP", 
		 "basiset": "6-31G**", 
		 "properties": { 
			 "R2extent": 2432.115, 
			 "electric_dipole_moment_norm": 3.0428494902, 
			 "electric_quadrupole_moment_norm": 10.9505801454, 
			 "total_energy": -504.001058103, 
			 "HOMO_LUMO_gap": 0.17956, 
			 "cosmo_polarized_energy": -13.42, 
			 "cosmo_cavitation_energy": 24.97, 
			 "cosmo_dispersion_energy": -20.22, 
			 "cosmo_repulsion_energy": 1.56, 
			 "cosmo_total_nonelectrostatic_energy": 6.31, 
			 "SMD_solvation_energy": 2.77 
		},
		"coords": [
			{
				"x": -1.4968284325,
				"y": -3.9628659906,
				"z": -1.5411668312,
				"element": "I" 
			},
			{
				"x": -0.6112152565,
				"y": -2.0526117558,
				"z": -1.7750731524,
				"element": "C" 
			},
			{
				"x": -0.524164711,
				"y": -1.1959383439,
				"z": -0.6889653247,
				"element": "C" 
			},
			{
				"x": 0.0652697713,
				"y": 0.0661464056,
				"z": -0.8601534631,
				"element": "C" 
			},
			{
				"x": 0.5678582736,
				"y": 0.4699603597,
				"z": -2.1206980852,
				"element": "C" 
			},
			{
				"x": 0.4637705378,
				"y": -0.4241566857,
				"z": -3.2033797963,
				"element": "C" 
			},
			{
				"x": -0.1180440265,
				"y": -1.6712343093,
				"z": -3.0367215584,
				"element": "C" 
			},
			{
				"x": 1.1590439678,
				"y": 1.7109851815,
				"z": -2.3332543315,
				"element": "N" 
			},
			{
				"x": 1.2333048677,
				"y": 2.4976170458,
				"z": -1.3138667921,
				"element": "C" 
			},
			{
				"x": 0.7753749449,
				"y": 2.1961437163,
				"z": -0.0551437244,
				"element": "N" 
			},
			{
				"x": 0.1614989612,
				"y": 0.9810628917,
				"z": 0.2869140979,
				"element": "C" 
			},
			{
				"x": -0.2262334857,
				"y": 0.7690542782,
				"z": 1.4254888055,
				"element": "O" 
			},
			{
				"x": -0.8953693064,
				"y": -1.4632464461,
				"z": 0.2934933222,
				"element": "H" 
			},
			{
				"x": 0.8501210906,
				"y": -0.1108644399,
				"z": -4.1675152151,
				"element": "H" 
			},
			{
				"x": -0.192601278,
				"y": -2.3513304594,
				"z": -3.8779633613,
				"element": "H" 
			},
			{
				"x": 1.6861250923,
				"y": 3.4812032949,
				"z": -1.4217373185,
				"element": "H" 
			},
			{
				"x": 0.8685889894,
				"y": 2.866475257,
				"z": 0.6986427287,
				"element": "H" 
			}
		],
		 "valence_orbital": [ 
			{
				"type": "occ",
				"energy": -0.27616,
				"method": "rhf"
			},
			{
				"type": "occ",
				"energy": -0.27614,
				"method": "rhf"
			},
			{
				"type": "occ",
				"energy": -0.27564,
				"method": "rhf"
			},
			{
				"type": "occ",
				"energy": -0.27144,
				"method": "rhf"
			},
			{
				"type": "occ",
				"energy": -0.23497,
				"method": "rhf"
			},
			{
				"type": "unocc",
				"energy": -0.05541,
				"method": "rhf"
			},
			{
				"type": "unocc",
				"energy": -0.05144,
				"method": "rhf"
			},
			{
				"type": "unocc",
				"energy": -0.04306,
				"method": "rhf"
			},
			{
				"type": "unocc",
				"energy": 0.01275,
				"method": "rhf"
			},
			{
				"type": "unocc",
				"energy": 0.04394,
				"method": "rhf"
			}
		],
		"cosmo_sigma_profile": { 
			"-0.025": 0.0,
			"-0.024": 0.0,
			"-0.023": 0.0,
			"-0.022": 0.0,
			"-0.021": 0.0,
			"-0.02": 0.0,
			"-0.019": 0.0,
			"-0.018": 0.0,
			"-0.017": 1.15757715551,
			"-0.016": 1.61380670449,
			"-0.015": 1.32666873086,
			"-0.014": 1.45680752734,
			"-0.013": 0.928442792484,
			"-0.012": 1.02851900621,
			"-0.011": 1.81640235242,
			"-0.01": 2.71355045302,
			"-0.009": 2.92401561842,
			"-0.008": 2.27099904935,
			"-0.007": 6.94863335091,
			"-0.006": 8.12920434318,
			"-0.005": 9.59804516518,
			"-0.004": 10.5760272723,
			"-0.003": 11.4323105525,
			"-0.002": 13.4598444608,
			"-0.001": 12.3363690437,
			"0.0": 14.0789922644,
			"0.001": 22.5223445172,
			"0.002": 21.3281318669,
			"0.003": 12.5660265268,
			"0.004": 15.6250881435,
			"0.005": 4.48948864562,
			"0.006": 2.96176445117,
			"0.007": 2.04617703291,
			"0.008": 2.16137501,
			"0.009": 2.55954334002,
			"0.01": 2.14846902057,
			"0.011": 3.40247117672,
			"0.012": 5.09325656631,
			"0.013": 4.25544324857,
			"0.014": 1.00479779233,
			"0.015": 0.682892901813,
			"0.016": 0.0151895495176,
			"0.017": 0.0,
			"0.018": 0.0,
			"0.019": 0.0,
			"0.02": 0.0,
			"0.021": 0.0,
			"0.022": 0.0,
			"0.023": 0.0,
			"0.024": 0.0,
			"0.025": 0.0
		}
	}
}
