{
	 "smiles": "ClC(=O)C1=CC2=NC=CN=C2C=C1", 
	 "Tm": 392.15, 
	 "num_atms": 18, 
	 "gaussian": { 
		 "optdone": 1, 
		 "sigma_profile": "yes", 
		 "theory": "DFT", 
		 "functional": "B3LYP", 
		 "basiset": "6-31G**", 
		 "properties": { 
			 "R2extent": 4811.7509, 
			 "electric_dipole_moment_norm": 3.83333294797, 
			 "electric_quadrupole_moment_norm": 10.0237819903, 
			 "total_energy": -990.891173677, 
			 "HOMO_LUMO_gap": 0.16324, 
			 "cosmo_polarized_energy": -8.4, 
			 "cosmo_cavitation_energy": 25.12, 
			 "cosmo_dispersion_energy": -18.9, 
			 "cosmo_repulsion_energy": 1.46, 
			 "cosmo_total_nonelectrostatic_energy": 7.68, 
			 "SMD_solvation_energy": 1.88 
		},
		"coords": [
			{
				"x": 1.9897377032,
				"y": -0.3798820408,
				"z": 4.1609726802,
				"element": "Cl" 
			},
			{
				"x": 1.0408545063,
				"y": -1.9114371929,
				"z": 3.878721193,
				"element": "C" 
			},
			{
				"x": 0.9208695434,
				"y": -2.6922800318,
				"z": 4.7749129427,
				"element": "O" 
			},
			{
				"x": 0.474514029,
				"y": -2.0714227389,
				"z": 2.5150150091,
				"element": "C" 
			},
			{
				"x": 0.6364932976,
				"y": -1.1428000011,
				"z": 1.5038998213,
				"element": "C" 
			},
			{
				"x": 0.0601145748,
				"y": -1.3791246403,
				"z": 0.2322341874,
				"element": "C" 
			},
			{
				"x": 0.2309286455,
				"y": -0.4500999857,
				"z": -0.754250883,
				"element": "N" 
			},
			{
				"x": -0.3272705002,
				"y": -0.7252769713,
				"z": -1.9123645201,
				"element": "C" 
			},
			{
				"x": -1.0701390056,
				"y": -1.9192130686,
				"z": -2.1399100622,
				"element": "C" 
			},
			{
				"x": -1.2522010482,
				"y": -2.8325013676,
				"z": -1.2105301952,
				"element": "N" 
			},
			{
				"x": -0.6847780714,
				"y": -2.576339781,
				"z": 0.004128932,
				"element": "C" 
			},
			{
				"x": -0.8362107265,
				"y": -3.5139753504,
				"z": 1.0597000103,
				"element": "C" 
			},
			{
				"x": -0.270625645,
				"y": -3.2680447981,
				"z": 2.2853384574,
				"element": "C" 
			},
			{
				"x": 1.1961538344,
				"y": -0.2273020061,
				"z": 1.6497768749,
				"element": "H" 
			},
			{
				"x": -0.2051758971,
				"y": 0.0001620843,
				"z": -2.7149396312,
				"element": "H" 
			},
			{
				"x": -1.5143117687,
				"y": -2.1031905804,
				"z": -3.1170015852,
				"element": "H" 
			},
			{
				"x": -1.4062529111,
				"y": -4.415683808,
				"z": 0.8622161031,
				"element": "H" 
			},
			{
				"x": -0.3754005605,
				"y": -3.9718877215,
				"z": 3.1030806655,
				"element": "H" 
			}
		],
		 "valence_orbital": [ 
			{
				"type": "occ",
				"energy": -0.32471,
				"method": "rhf"
			},
			{
				"type": "occ",
				"energy": -0.30015,
				"method": "rhf"
			},
			{
				"type": "occ",
				"energy": -0.28395,
				"method": "rhf"
			},
			{
				"type": "occ",
				"energy": -0.27063,
				"method": "rhf"
			},
			{
				"type": "occ",
				"energy": -0.26644,
				"method": "rhf"
			},
			{
				"type": "unocc",
				"energy": -0.1032,
				"method": "rhf"
			},
			{
				"type": "unocc",
				"energy": -0.07087,
				"method": "rhf"
			},
			{
				"type": "unocc",
				"energy": -0.0234,
				"method": "rhf"
			},
			{
				"type": "unocc",
				"energy": 0.00289,
				"method": "rhf"
			},
			{
				"type": "unocc",
				"energy": 0.01492,
				"method": "rhf"
			}
		],
		"cosmo_sigma_profile": { 
			"-0.025": 0.0,
			"-0.024": 0.0,
			"-0.023": 0.0,
			"-0.022": 0.0,
			"-0.021": 0.0,
			"-0.02": 0.0,
			"-0.019": 0.0,
			"-0.018": 0.0,
			"-0.017": 0.0,
			"-0.016": 0.0,
			"-0.015": 0.0,
			"-0.014": 0.0,
			"-0.013": 0.0,
			"-0.012": 0.0,
			"-0.011": 0.0,
			"-0.01": 0.0,
			"-0.009": 1.07844376707,
			"-0.008": 7.35471916339,
			"-0.007": 7.86148950521,
			"-0.006": 8.0091863318,
			"-0.005": 9.48239705538,
			"-0.004": 12.4505927868,
			"-0.003": 15.8851872534,
			"-0.002": 21.3670268467,
			"-0.001": 21.6334833768,
			"0.0": 19.2967246602,
			"0.001": 14.6710501429,
			"0.002": 12.0473355412,
			"0.003": 9.80164887425,
			"0.004": 11.7037936507,
			"0.005": 6.68481391429,
			"0.006": 5.52109558276,
			"0.007": 4.51697093117,
			"0.008": 5.66484041319,
			"0.009": 3.8423278176,
			"0.01": 1.87634654843,
			"0.011": 1.91681215169,
			"0.012": 0.97424775525,
			"0.013": 1.81256535699,
			"0.014": 0.728066189211,
			"0.015": 0.0642766827613,
			"0.016": 0.0,
			"0.017": 0.0,
			"0.018": 0.0,
			"0.019": 0.0,
			"0.02": 0.0,
			"0.021": 0.0,
			"0.022": 0.0,
			"0.023": 0.0,
			"0.024": 0.0,
			"0.025": 0.0
		}
	}
}
