{
	 "smiles": "FC1=CC(=CC=C1)C(=O)C1=CC=CC=C1", 
	 "Tm": 323.15, 
	 "num_atms": 24, 
	 "gaussian": { 
		 "optdone": 1, 
		 "sigma_profile": "yes", 
		 "theory": "DFT", 
		 "functional": "B3LYP", 
		 "basiset": "6-31G**", 
		 "properties": { 
			 "R2extent": 4566.876, 
			 "electric_dipole_moment_norm": 1.87561884721, 
			 "electric_quadrupole_moment_norm": 13.2267437138, 
			 "total_energy": -675.866441549, 
			 "HOMO_LUMO_gap": 0.1779, 
			 "cosmo_polarized_energy": -8.37, 
			 "cosmo_cavitation_energy": 29.11, 
			 "cosmo_dispersion_energy": -20.95, 
			 "cosmo_repulsion_energy": 1.6, 
			 "cosmo_total_nonelectrostatic_energy": 9.76, 
			 "SMD_solvation_energy": 5.88 
		},
		"coords": [
			{
				"x": -3.0464163488,
				"y": -0.0957367578,
				"z": -4.39378079,
				"element": "F" 
			},
			{
				"x": -1.8419738414,
				"y": -0.4537353223,
				"z": -3.901047134,
				"element": "C" 
			},
			{
				"x": -1.3721017155,
				"y": 0.183125714,
				"z": -2.7588827827,
				"element": "C" 
			},
			{
				"x": -0.1146226273,
				"y": -0.1763965096,
				"z": -2.2517910347,
				"element": "C" 
			},
			{
				"x": 0.6426904835,
				"y": -1.1573699706,
				"z": -2.9116187803,
				"element": "C" 
			},
			{
				"x": 0.1388127555,
				"y": -1.791994672,
				"z": -4.0438962165,
				"element": "C" 
			},
			{
				"x": -1.1152486724,
				"y": -1.4432008095,
				"z": -4.5525170649,
				"element": "C" 
			},
			{
				"x": 0.507986881,
				"y": 0.5101916527,
				"z": -1.0677034073,
				"element": "C" 
			},
			{
				"x": 1.7289167336,
				"y": 0.5892559165,
				"z": -0.9924642185,
				"element": "O" 
			},
			{
				"x": -0.3478249267,
				"y": 1.0977491532,
				"z": 0.014329841,
				"element": "C" 
			},
			{
				"x": -1.6098877868,
				"y": 0.587199162,
				"z": 0.3566699812,
				"element": "C" 
			},
			{
				"x": -2.3264539319,
				"y": 1.1373288294,
				"z": 1.420323242,
				"element": "C" 
			},
			{
				"x": -1.7962195776,
				"y": 2.2074354326,
				"z": 2.1425353388,
				"element": "C" 
			},
			{
				"x": -0.5360982685,
				"y": 2.7167536478,
				"z": 1.8128374509,
				"element": "C" 
			},
			{
				"x": 0.1881676328,
				"y": 2.1571467249,
				"z": 0.7649633492,
				"element": "C" 
			},
			{
				"x": -1.9731852523,
				"y": 0.9592612293,
				"z": -2.3002779102,
				"element": "H" 
			},
			{
				"x": 1.6240013535,
				"y": -1.4017795301,
				"z": -2.5208304055,
				"element": "H" 
			},
			{
				"x": 0.7233968522,
				"y": -2.5593187492,
				"z": -4.5422640257,
				"element": "H" 
			},
			{
				"x": -1.5279737307,
				"y": -1.9157992631,
				"z": -5.4372928251,
				"element": "H" 
			},
			{
				"x": -2.0208289138,
				"y": -0.2556988452,
				"z": -0.1887008265,
				"element": "H" 
			},
			{
				"x": -3.2966510349,
				"y": 0.7278401,
				"z": 1.6858739067,
				"element": "H" 
			},
			{
				"x": -2.3594410035,
				"y": 2.6401315994,
				"z": 2.9644990512,
				"element": "H" 
			},
			{
				"x": -0.119295839,
				"y": 3.5451516529,
				"z": 2.3782152625,
				"element": "H" 
			},
			{
				"x": 1.176550779,
				"y": 2.5229596149,
				"z": 0.5075199985,
				"element": "H" 
			}
		],
		 "valence_orbital": [ 
			{
				"type": "occ",
				"energy": -0.27028,
				"method": "rhf"
			},
			{
				"type": "occ",
				"energy": -0.2647,
				"method": "rhf"
			},
			{
				"type": "occ",
				"energy": -0.26196,
				"method": "rhf"
			},
			{
				"type": "occ",
				"energy": -0.25574,
				"method": "rhf"
			},
			{
				"type": "occ",
				"energy": -0.24659,
				"method": "rhf"
			},
			{
				"type": "unocc",
				"energy": -0.06869,
				"method": "rhf"
			},
			{
				"type": "unocc",
				"energy": -0.0222,
				"method": "rhf"
			},
			{
				"type": "unocc",
				"energy": -0.01141,
				"method": "rhf"
			},
			{
				"type": "unocc",
				"energy": -0.00599,
				"method": "rhf"
			},
			{
				"type": "unocc",
				"energy": 0.05271,
				"method": "rhf"
			}
		],
		"cosmo_sigma_profile": { 
			"-0.025": 0.0,
			"-0.024": 0.0,
			"-0.023": 0.0,
			"-0.022": 0.0,
			"-0.021": 0.0,
			"-0.02": 0.0,
			"-0.019": 0.0,
			"-0.018": 0.0,
			"-0.017": 0.0,
			"-0.016": 0.0,
			"-0.015": 0.0,
			"-0.014": 0.0,
			"-0.013": 0.0,
			"-0.012": 0.0,
			"-0.011": 0.0,
			"-0.01": 0.0,
			"-0.009": 0.0,
			"-0.008": 0.926239278707,
			"-0.007": 5.99642603504,
			"-0.006": 15.5911198342,
			"-0.005": 18.82164444,
			"-0.004": 19.8497603213,
			"-0.003": 15.7428133423,
			"-0.002": 14.7008999614,
			"-0.001": 15.6098498865,
			"0.0": 19.1505696223,
			"0.001": 19.7675715871,
			"0.002": 20.4246739491,
			"0.003": 22.4660393593,
			"0.004": 23.6549574149,
			"0.005": 5.43987837439,
			"0.006": 1.83747909916,
			"0.007": 1.5303490061,
			"0.008": 2.1712620135,
			"0.009": 1.68239006359,
			"0.01": 2.08259039074,
			"0.011": 3.2618557399,
			"0.012": 3.71168125122,
			"0.013": 0.272711275314,
			"0.014": 0.0,
			"0.015": 0.0,
			"0.016": 0.0,
			"0.017": 0.0,
			"0.018": 0.0,
			"0.019": 0.0,
			"0.02": 0.0,
			"0.021": 0.0,
			"0.022": 0.0,
			"0.023": 0.0,
			"0.024": 0.0,
			"0.025": 0.0
		}
	}
}
