{
	 "smiles": "CCCCCC(O)C=CC1C(O)CC(O)C1CC=CCCCC(O)=O", 
	 "Tm": 303.15, 
	 "num_atms": 59, 
	 "gaussian": { 
		 "optdone": 1, 
		 "sigma_profile": "yes", 
		 "theory": "DFT", 
		 "functional": "B3LYP", 
		 "basiset": "6-31G**", 
		 "properties": { 
			 "R2extent": 12114.4938, 
			 "electric_dipole_moment_norm": 4.65915912585, 
			 "electric_quadrupole_moment_norm": 18.644047327, 
			 "total_energy": -1158.71730396, 
			 "HOMO_LUMO_gap": 0.2514, 
			 "cosmo_polarized_energy": -25.0, 
			 "cosmo_cavitation_energy": 58.16, 
			 "cosmo_dispersion_energy": -35.58, 
			 "cosmo_repulsion_energy": 2.79, 
			 "cosmo_total_nonelectrostatic_energy": 25.38, 
			 "SMD_solvation_energy": 8.93 
		},
		"coords": [
			{
				"x": -0.5179964035,
				"y": -1.2441783941,
				"z": 5.8065490596,
				"element": "C" 
			},
			{
				"x": 0.0885150924,
				"y": 0.010958816,
				"z": 6.4457346208,
				"element": "C" 
			},
			{
				"x": 1.4489847608,
				"y": 0.4297309811,
				"z": 5.8645076377,
				"element": "C" 
			},
			{
				"x": 1.4062142507,
				"y": 0.8840915725,
				"z": 4.3981054382,
				"element": "C" 
			},
			{
				"x": 2.7712210735,
				"y": 1.3564290112,
				"z": 3.885410016,
				"element": "C" 
			},
			{
				"x": 2.7801041003,
				"y": 1.834900875,
				"z": 2.4298301296,
				"element": "C" 
			},
			{
				"x": 4.1125906792,
				"y": 2.3160694483,
				"z": 2.1972037727,
				"element": "O" 
			},
			{
				"x": 2.4629613095,
				"y": 0.742138263,
				"z": 1.4380868545,
				"element": "C" 
			},
			{
				"x": 1.6536001276,
				"y": 0.8767522476,
				"z": 0.3779611963,
				"element": "C" 
			},
			{
				"x": 1.4187190982,
				"y": -0.1691328371,
				"z": -0.6904088478,
				"element": "C" 
			},
			{
				"x": 2.5293439735,
				"y": -1.2372477441,
				"z": -0.801580106,
				"element": "C" 
			},
			{
				"x": 2.2798734475,
				"y": -2.2722658969,
				"z": 0.1443690784,
				"element": "O" 
			},
			{
				"x": 2.4829799488,
				"y": -1.6769094596,
				"z": -2.2716239169,
				"element": "C" 
			},
			{
				"x": 2.2795255718,
				"y": -0.3558238488,
				"z": -3.0107715593,
				"element": "C" 
			},
			{
				"x": 3.5523446117,
				"y": 0.2916338,
				"z": -3.0345147836,
				"element": "O" 
			},
			{
				"x": 1.2462904047,
				"y": 0.4122570724,
				"z": -2.1353974139,
				"element": "C" 
			},
			{
				"x": -0.1840117065,
				"y": 0.2474996958,
				"z": -2.7007184366,
				"element": "C" 
			},
			{
				"x": -1.2586768673,
				"y": 0.9600028652,
				"z": -1.9267870687,
				"element": "C" 
			},
			{
				"x": -2.350805518,
				"y": 0.3804507901,
				"z": -1.4159931135,
				"element": "C" 
			},
			{
				"x": -3.4490399418,
				"y": 1.0918661098,
				"z": -0.6728284466,
				"element": "C" 
			},
			{
				"x": -3.6486284885,
				"y": 0.5847591163,
				"z": 0.7716369107,
				"element": "C" 
			},
			{
				"x": -2.4056922819,
				"y": 0.7531301667,
				"z": 1.6514982686,
				"element": "C" 
			},
			{
				"x": -2.0528488628,
				"y": 2.2170285776,
				"z": 1.8920369496,
				"element": "C" 
			},
			{
				"x": -0.7499621186,
				"y": 2.4683539919,
				"z": 2.1906624715,
				"element": "O" 
			},
			{
				"x": -2.8487265521,
				"y": 3.1236686885,
				"z": 1.8580932467,
				"element": "O" 
			},
			{
				"x": -1.456560948,
				"y": -1.5221366863,
				"z": 6.2973963431,
				"element": "H" 
			},
			{
				"x": 0.1648026364,
				"y": -2.0980580393,
				"z": 5.8878987167,
				"element": "H" 
			},
			{
				"x": -0.7358183982,
				"y": -1.0993345287,
				"z": 4.7429477873,
				"element": "H" 
			},
			{
				"x": 0.2075344092,
				"y": -0.1628164404,
				"z": 7.5227499774,
				"element": "H" 
			},
			{
				"x": -0.6170587605,
				"y": 0.8477923659,
				"z": 6.3511735761,
				"element": "H" 
			},
			{
				"x": 2.1583096195,
				"y": -0.404388921,
				"z": 5.9643570838,
				"element": "H" 
			},
			{
				"x": 1.8560625916,
				"y": 1.2483504544,
				"z": 6.4729115736,
				"element": "H" 
			},
			{
				"x": 0.6737250762,
				"y": 1.6971639746,
				"z": 4.2983787548,
				"element": "H" 
			},
			{
				"x": 1.0497758726,
				"y": 0.0585439292,
				"z": 3.7671344938,
				"element": "H" 
			},
			{
				"x": 3.5090308464,
				"y": 0.548498115,
				"z": 3.9784641083,
				"element": "H" 
			},
			{
				"x": 3.1388829905,
				"y": 2.1839618553,
				"z": 4.5037874809,
				"element": "H" 
			},
			{
				"x": 2.0563311775,
				"y": 2.6586994109,
				"z": 2.3115676177,
				"element": "H" 
			},
			{
				"x": 4.1740590955,
				"y": 2.5422924601,
				"z": 1.2597268649,
				"element": "H" 
			},
			{
				"x": 2.9989851522,
				"y": -0.1945627235,
				"z": 1.5881034232,
				"element": "H" 
			},
			{
				"x": 1.1134835231,
				"y": 1.8170370557,
				"z": 0.2473813419,
				"element": "H" 
			},
			{
				"x": 0.497646133,
				"y": -0.7158006295,
				"z": -0.4387071689,
				"element": "H" 
			},
			{
				"x": 3.5006132714,
				"y": -0.7634101251,
				"z": -0.6080473474,
				"element": "H" 
			},
			{
				"x": 3.0337532251,
				"y": -2.8759225447,
				"z": 0.1299631134,
				"element": "H" 
			},
			{
				"x": 3.3854901058,
				"y": -2.1967708004,
				"z": -2.6070030223,
				"element": "H" 
			},
			{
				"x": 1.6218386556,
				"y": -2.3378165993,
				"z": -2.4246526515,
				"element": "H" 
			},
			{
				"x": 1.9065740052,
				"y": -0.4992754869,
				"z": -4.0364129517,
				"element": "H" 
			},
			{
				"x": 3.4355975416,
				"y": 1.165901569,
				"z": -3.4282549707,
				"element": "H" 
			},
			{
				"x": 1.499398295,
				"y": 1.4811115038,
				"z": -2.148035692,
				"element": "H" 
			},
			{
				"x": -0.1793809328,
				"y": 0.624822945,
				"z": -3.7346469152,
				"element": "H" 
			},
			{
				"x": -0.4297625644,
				"y": -0.8207401168,
				"z": -2.7640975292,
				"element": "H" 
			},
			{
				"x": -1.1328091115,
				"y": 2.0385434,
				"z": -1.8082728741,
				"element": "H" 
			},
			{
				"x": -2.476608813,
				"y": -0.6978027913,
				"z": -1.5420085443,
				"element": "H" 
			},
			{
				"x": -4.3973531338,
				"y": 0.9572196115,
				"z": -1.2115976934,
				"element": "H" 
			},
			{
				"x": -3.2523902538,
				"y": 2.1691011463,
				"z": -0.6510294346,
				"element": "H" 
			},
			{
				"x": -3.9262610229,
				"y": -0.4762765571,
				"z": 0.7572316643,
				"element": "H" 
			},
			{
				"x": -4.4788368838,
				"y": 1.1329344985,
				"z": 1.226996535,
				"element": "H" 
			},
			{
				"x": -2.5746867776,
				"y": 0.3003722676,
				"z": 2.6380606624,
				"element": "H" 
			},
			{
				"x": -1.5497477008,
				"y": 0.2298965066,
				"z": 1.2095601053,
				"element": "H" 
			},
			{
				"x": -0.2227986316,
				"y": 1.6562060121,
				"z": 2.1318136132,
				"element": "H" 
			}
		],
		 "valence_orbital": [ 
			{
				"type": "occ",
				"energy": -0.27096,
				"method": "rhf"
			},
			{
				"type": "occ",
				"energy": -0.26723,
				"method": "rhf"
			},
			{
				"type": "occ",
				"energy": -0.26453,
				"method": "rhf"
			},
			{
				"type": "occ",
				"energy": -0.24999,
				"method": "rhf"
			},
			{
				"type": "occ",
				"energy": -0.24908,
				"method": "rhf"
			},
			{
				"type": "unocc",
				"energy": 0.00232,
				"method": "rhf"
			},
			{
				"type": "unocc",
				"energy": 0.01064,
				"method": "rhf"
			},
			{
				"type": "unocc",
				"energy": 0.01443,
				"method": "rhf"
			},
			{
				"type": "unocc",
				"energy": 0.05469,
				"method": "rhf"
			},
			{
				"type": "unocc",
				"energy": 0.0639,
				"method": "rhf"
			}
		],
		"cosmo_sigma_profile": { 
			"-0.025": 0.0,
			"-0.024": 0.0,
			"-0.023": 0.0,
			"-0.022": 0.0,
			"-0.021": 0.0,
			"-0.02": 0.0,
			"-0.019": 0.0,
			"-0.018": 0.0,
			"-0.017": 0.0,
			"-0.016": 0.207241884221,
			"-0.015": 1.79774881477,
			"-0.014": 2.43488853563,
			"-0.013": 3.39279820788,
			"-0.012": 2.31347938543,
			"-0.011": 2.72020676232,
			"-0.01": 3.28196308766,
			"-0.009": 3.56650443941,
			"-0.008": 4.12245361576,
			"-0.007": 4.59214565703,
			"-0.006": 8.34653967898,
			"-0.005": 9.1276910935,
			"-0.004": 23.1225148282,
			"-0.003": 53.849019487,
			"-0.002": 63.2418892623,
			"-0.001": 60.458470262,
			"0.0": 52.6188027154,
			"0.001": 37.4339506012,
			"0.002": 18.9940429114,
			"0.003": 9.57064351237,
			"0.004": 8.49745973462,
			"0.005": 8.93489355315,
			"0.006": 7.4478429541,
			"0.007": 6.73976820634,
			"0.008": 7.30718582985,
			"0.009": 6.64025571098,
			"0.01": 6.93756942163,
			"0.011": 7.34668417754,
			"0.012": 9.93732729195,
			"0.013": 6.88127596702,
			"0.014": 4.96731163582,
			"0.015": 1.17506329863,
			"0.016": 0.0,
			"0.017": 0.0,
			"0.018": 0.0,
			"0.019": 0.0,
			"0.02": 0.0,
			"0.021": 0.0,
			"0.022": 0.0,
			"0.023": 0.0,
			"0.024": 0.0,
			"0.025": 0.0
		}
	}
}
