{
	 "smiles": "CC(C)C1=CC=C(CO)C=C1", 
	 "Tm": 300.65, 
	 "num_atms": 25, 
	 "gaussian": { 
		 "optdone": 1, 
		 "sigma_profile": "yes", 
		 "theory": "DFT", 
		 "functional": "B3LYP", 
		 "basiset": "6-31G**", 
		 "properties": { 
			 "R2extent": 2612.086, 
			 "electric_dipole_moment_norm": 1.69593949479, 
			 "electric_quadrupole_moment_norm": 6.95971757976, 
			 "total_energy": -464.730363266, 
			 "HOMO_LUMO_gap": 0.23075, 
			 "cosmo_polarized_energy": -7.04, 
			 "cosmo_cavitation_energy": 27.34, 
			 "cosmo_dispersion_energy": -19.62, 
			 "cosmo_repulsion_energy": 1.6, 
			 "cosmo_total_nonelectrostatic_energy": 9.32, 
			 "SMD_solvation_energy": 4.79 
		},
		"coords": [
			{
				"x": 1.7762181974,
				"y": 2.8302479113,
				"z": -0.957213069,
				"element": "C" 
			},
			{
				"x": 1.0483517333,
				"y": 2.1166692984,
				"z": 0.1978439584,
				"element": "C" 
			},
			{
				"x": -0.3450749196,
				"y": 2.7293131796,
				"z": 0.4349993005,
				"element": "C" 
			},
			{
				"x": 0.9765327428,
				"y": 0.6112251941,
				"z": -0.0211701904,
				"element": "C" 
			},
			{
				"x": 1.5944230438,
				"y": -0.2729129426,
				"z": 0.8715729545,
				"element": "C" 
			},
			{
				"x": 1.5292693708,
				"y": -1.6546064788,
				"z": 0.6843514764,
				"element": "C" 
			},
			{
				"x": 0.850751136,
				"y": -2.1958251264,
				"z": -0.4114150141,
				"element": "C" 
			},
			{
				"x": 0.8059088729,
				"y": -3.6937042832,
				"z": -0.6427312745,
				"element": "C" 
			},
			{
				"x": -0.3922127315,
				"y": -4.1406040508,
				"z": -1.2638623986,
				"element": "O" 
			},
			{
				"x": 0.2282533307,
				"y": -1.317919086,
				"z": -1.3084761838,
				"element": "C" 
			},
			{
				"x": 0.289249071,
				"y": 0.0602865474,
				"z": -1.1139726739,
				"element": "C" 
			},
			{
				"x": 1.8687148408,
				"y": 3.9025853561,
				"z": -0.7526196722,
				"element": "H" 
			},
			{
				"x": 2.7812205225,
				"y": 2.4227380967,
				"z": -1.1042035585,
				"element": "H" 
			},
			{
				"x": 1.2302053909,
				"y": 2.7184065956,
				"z": -1.9004201415,
				"element": "H" 
			},
			{
				"x": 1.6387152816,
				"y": 2.2802915231,
				"z": 1.1091787469,
				"element": "H" 
			},
			{
				"x": -0.9853013984,
				"y": 2.6129342186,
				"z": -0.4464244995,
				"element": "H" 
			},
			{
				"x": -0.2658413749,
				"y": 3.8010279021,
				"z": 0.648281916,
				"element": "H" 
			},
			{
				"x": -0.8504186509,
				"y": 2.2498566318,
				"z": 1.2791616,
				"element": "H" 
			},
			{
				"x": 2.1271566908,
				"y": 0.1253807464,
				"z": 1.7321466378,
				"element": "H" 
			},
			{
				"x": 2.0102143131,
				"y": -2.3170531559,
				"z": 1.4011174011,
				"element": "H" 
			},
			{
				"x": 1.6084023587,
				"y": -3.9950798606,
				"z": -1.3271841843,
				"element": "H" 
			},
			{
				"x": 0.9888359113,
				"y": -4.2186668343,
				"z": 0.3086512383,
				"element": "H" 
			},
			{
				"x": -1.1291779344,
				"y": -3.8434703426,
				"z": -0.713353282,
				"element": "H" 
			},
			{
				"x": -0.3102123429,
				"y": -1.7294601127,
				"z": -2.1571127929,
				"element": "H" 
			},
			{
				"x": -0.2052834558,
				"y": 0.7159390727,
				"z": -1.8263462949,
				"element": "H" 
			}
		],
		 "valence_orbital": [ 
			{
				"type": "occ",
				"energy": -0.32144,
				"method": "rhf"
			},
			{
				"type": "occ",
				"energy": -0.31594,
				"method": "rhf"
			},
			{
				"type": "occ",
				"energy": -0.27361,
				"method": "rhf"
			},
			{
				"type": "occ",
				"energy": -0.24688,
				"method": "rhf"
			},
			{
				"type": "occ",
				"energy": -0.23232,
				"method": "rhf"
			},
			{
				"type": "unocc",
				"energy": -0.00157,
				"method": "rhf"
			},
			{
				"type": "unocc",
				"energy": 0.00118,
				"method": "rhf"
			},
			{
				"type": "unocc",
				"energy": 0.08887,
				"method": "rhf"
			},
			{
				"type": "unocc",
				"energy": 0.09029,
				"method": "rhf"
			},
			{
				"type": "unocc",
				"energy": 0.11139,
				"method": "rhf"
			}
		],
		"cosmo_sigma_profile": { 
			"-0.025": 0.0,
			"-0.024": 0.0,
			"-0.023": 0.0,
			"-0.022": 0.0,
			"-0.021": 0.0,
			"-0.02": 0.0,
			"-0.019": 0.0,
			"-0.018": 0.0,
			"-0.017": 0.0,
			"-0.016": 0.0224906467325,
			"-0.015": 0.655001904707,
			"-0.014": 1.02927642318,
			"-0.013": 0.778544683141,
			"-0.012": 0.72338323677,
			"-0.011": 0.824096940183,
			"-0.01": 0.485344480322,
			"-0.009": 0.960903104299,
			"-0.008": 1.18309321575,
			"-0.007": 1.10131806382,
			"-0.006": 0.574233008974,
			"-0.005": 9.20395455222,
			"-0.004": 16.2022166554,
			"-0.003": 24.576458187,
			"-0.002": 24.1119495266,
			"-0.001": 23.5012970862,
			"0.0": 23.1305091618,
			"0.001": 24.7169983077,
			"0.002": 12.8205313118,
			"0.003": 7.86924761832,
			"0.004": 8.56061485886,
			"0.005": 8.038595731,
			"0.006": 8.79475866614,
			"0.007": 3.6861116548,
			"0.008": 1.57590709936,
			"0.009": 1.00052788017,
			"0.01": 1.10060079669,
			"0.011": 0.993916592065,
			"0.012": 1.39944333198,
			"0.013": 1.7928556993,
			"0.014": 1.99321026021,
			"0.015": 0.2254507946,
			"0.016": 0.0,
			"0.017": 0.0,
			"0.018": 0.0,
			"0.019": 0.0,
			"0.02": 0.0,
			"0.021": 0.0,
			"0.022": 0.0,
			"0.023": 0.0,
			"0.024": 0.0,
			"0.025": 0.0
		}
	}
}
