{
	 "smiles": "ClCCN(CCCl)CCCl", 
	 "Tm": 269.15, 
	 "num_atms": 22, 
	 "gaussian": { 
		 "optdone": 1, 
		 "sigma_profile": "yes", 
		 "theory": "DFT", 
		 "functional": "B3LYP", 
		 "basiset": "6-31G**", 
		 "properties": { 
			 "R2extent": 5323.5551, 
			 "electric_dipole_moment_norm": 0.443289656996, 
			 "electric_quadrupole_moment_norm": 11.6080585513, 
			 "total_energy": -1671.20015588, 
			 "HOMO_LUMO_gap": 0.23882, 
			 "cosmo_polarized_energy": -11.2, 
			 "cosmo_cavitation_energy": 30.01, 
			 "cosmo_dispersion_energy": -21.27, 
			 "cosmo_repulsion_energy": 1.79, 
			 "cosmo_total_nonelectrostatic_energy": 10.53, 
			 "SMD_solvation_energy": 2.86 
		},
		"coords": [
			{
				"x": -2.656260835,
				"y": 3.00530472,
				"z": -3.0714792351,
				"element": "Cl" 
			},
			{
				"x": -1.3655644324,
				"y": 2.4574137461,
				"z": -1.9191735559,
				"element": "C" 
			},
			{
				"x": -0.4335433103,
				"y": 1.4460457432,
				"z": -2.5899319413,
				"element": "C" 
			},
			{
				"x": 0.5996494596,
				"y": 1.0118881337,
				"z": -1.6554246305,
				"element": "N" 
			},
			{
				"x": 1.9579796592,
				"y": 0.9206481567,
				"z": -2.1753572902,
				"element": "C" 
			},
			{
				"x": 2.1552549918,
				"y": -0.1894490468,
				"z": -3.2188896715,
				"element": "C" 
			},
			{
				"x": 3.8822899591,
				"y": -0.2405785924,
				"z": -3.7751517675,
				"element": "Cl" 
			},
			{
				"x": 0.2156082474,
				"y": -0.0003114832,
				"z": -0.6743457912,
				"element": "C" 
			},
			{
				"x": 0.4345611843,
				"y": 0.5267512642,
				"z": 0.7461957255,
				"element": "C" 
			},
			{
				"x": 0.0042700042,
				"y": -0.7365297243,
				"z": 1.9782249818,
				"element": "Cl" 
			},
			{
				"x": -0.8146992965,
				"y": 3.3431036493,
				"z": -1.6009197226,
				"element": "H" 
			},
			{
				"x": -1.8820472126,
				"y": 2.0269544932,
				"z": -1.0592615823,
				"element": "H" 
			},
			{
				"x": -1.03164751,
				"y": 0.6119971464,
				"z": -2.989262826,
				"element": "H" 
			},
			{
				"x": 0.0453563714,
				"y": 1.9331469869,
				"z": -3.4445348034,
				"element": "H" 
			},
			{
				"x": 2.6465602981,
				"y": 0.7502907896,
				"z": -1.3412557249,
				"element": "H" 
			},
			{
				"x": 2.2387953882,
				"y": 1.8812318015,
				"z": -2.6203245276,
				"element": "H" 
			},
			{
				"x": 1.9288683405,
				"y": -1.1773684226,
				"z": -2.8146392417,
				"element": "H" 
			},
			{
				"x": 1.546863545,
				"y": -0.0218507313,
				"z": -4.1091281102,
				"element": "H" 
			},
			{
				"x": 0.781928948,
				"y": -0.9331729541,
				"z": -0.7996429868,
				"element": "H" 
			},
			{
				"x": -0.8403146384,
				"y": -0.2613748768,
				"z": -0.8010364913,
				"element": "H" 
			},
			{
				"x": 1.4787507213,
				"y": 0.7919525644,
				"z": 0.9187371082,
				"element": "H" 
			},
			{
				"x": -0.190359883,
				"y": 1.3977066365,
				"z": 0.9472020846,
				"element": "H" 
			}
		],
		 "valence_orbital": [ 
			{
				"type": "occ",
				"energy": -0.3048,
				"method": "rhf"
			},
			{
				"type": "occ",
				"energy": -0.30403,
				"method": "rhf"
			},
			{
				"type": "occ",
				"energy": -0.3038,
				"method": "rhf"
			},
			{
				"type": "occ",
				"energy": -0.30257,
				"method": "rhf"
			},
			{
				"type": "occ",
				"energy": -0.23804,
				"method": "rhf"
			},
			{
				"type": "unocc",
				"energy": 0.00078,
				"method": "rhf"
			},
			{
				"type": "unocc",
				"energy": 0.02164,
				"method": "rhf"
			},
			{
				"type": "unocc",
				"energy": 0.0235,
				"method": "rhf"
			},
			{
				"type": "unocc",
				"energy": 0.06861,
				"method": "rhf"
			},
			{
				"type": "unocc",
				"energy": 0.08389,
				"method": "rhf"
			}
		],
		"cosmo_sigma_profile": { 
			"-0.025": 0.0,
			"-0.024": 0.0,
			"-0.023": 0.0,
			"-0.022": 0.0,
			"-0.021": 0.0,
			"-0.02": 0.0,
			"-0.019": 0.0,
			"-0.018": 0.0,
			"-0.017": 0.0,
			"-0.016": 0.0,
			"-0.015": 0.0,
			"-0.014": 0.0,
			"-0.013": 0.0,
			"-0.012": 0.0,
			"-0.011": 0.0,
			"-0.01": 0.0,
			"-0.009": 0.0,
			"-0.008": 0.575809956567,
			"-0.007": 13.7709555154,
			"-0.006": 21.3803880358,
			"-0.005": 21.4714776107,
			"-0.004": 21.6445309556,
			"-0.003": 15.4087807142,
			"-0.002": 14.3526100758,
			"-0.001": 9.72434537542,
			"0.0": 11.5254600602,
			"0.001": 10.5720850075,
			"0.002": 12.3549090653,
			"0.003": 13.2197725675,
			"0.004": 12.9361050683,
			"0.005": 15.9887990202,
			"0.006": 27.3044400359,
			"0.007": 18.9461639164,
			"0.008": 0.151281487146,
			"0.009": 0.0,
			"0.01": 0.0,
			"0.011": 0.0,
			"0.012": 0.0,
			"0.013": 0.0,
			"0.014": 0.0,
			"0.015": 0.0,
			"0.016": 0.0,
			"0.017": 0.0,
			"0.018": 0.0,
			"0.019": 0.0,
			"0.02": 0.0,
			"0.021": 0.0,
			"0.022": 0.0,
			"0.023": 0.0,
			"0.024": 0.0,
			"0.025": 0.0
		}
	}
}
