{
	 "smiles": "IC1=C(CN2C=NC=N2)C=CC=C1", 
	 "Tm": 341.15, 
	 "num_atms": 21, 
	 "gaussian": { 
		 "optdone": 1, 
		 "sigma_profile": "no", 
		 "theory": "DFT", 
		 "functional": "B3LYP", 
		 "basiset": "6-31G**", 
		 "properties": { 
			 "R2extent": 2947.9792, 
			 "electric_dipole_moment_norm": 2.92354596509, 
			 "electric_quadrupole_moment_norm": 8.65578796124, 
			 "total_energy": -523.39833263, 
			 "HOMO_LUMO_gap": 0.20069, 
			 "cosmo_polarized_energy": -81138.29, 
			 "cosmo_cavitation_energy": 28.51, 
			 "cosmo_dispersion_energy": -21.58, 
			 "cosmo_repulsion_energy": 1.65, 
			 "cosmo_total_nonelectrostatic_energy": 8.58, 
			 "SMD_solvation_energy": 2.03 
		},
		"coords": [
			{
				"x": 1.973740217,
				"y": 3.767196907,
				"z": -1.1998188079,
				"element": "I" 
			},
			{
				"x": 1.7966460934,
				"y": 1.6447329428,
				"z": -1.3730287281,
				"element": "C" 
			},
			{
				"x": 1.5453633176,
				"y": 0.8213021169,
				"z": -0.2664093916,
				"element": "C" 
			},
			{
				"x": 1.3841361867,
				"y": 1.3249920946,
				"z": 1.1573259971,
				"element": "C" 
			},
			{
				"x": 0.0348026985,
				"y": 1.138832099,
				"z": 1.6831196433,
				"element": "N" 
			},
			{
				"x": -1.0224133712,
				"y": 1.9835919011,
				"z": 1.6691030574,
				"element": "C" 
			},
			{
				"x": -2.0874515287,
				"y": 1.401216354,
				"z": 2.1947473829,
				"element": "N" 
			},
			{
				"x": -1.6167832764,
				"y": 0.1639836488,
				"z": 2.5148589028,
				"element": "C" 
			},
			{
				"x": -0.3400538478,
				"y": -0.049717326,
				"z": 2.2261935517,
				"element": "N" 
			},
			{
				"x": 1.4378573235,
				"y": -0.5611694931,
				"z": -0.4943913929,
				"element": "C" 
			},
			{
				"x": 1.5748513612,
				"y": -1.1023138613,
				"z": -1.7685601033,
				"element": "C" 
			},
			{
				"x": 1.8314271648,
				"y": -0.2626000948,
				"z": -2.8533749903,
				"element": "C" 
			},
			{
				"x": 1.9432100551,
				"y": 1.1126843644,
				"z": -2.6582250723,
				"element": "C" 
			},
			{
				"x": 1.6250054983,
				"y": 2.3857636206,
				"z": 1.2300746498,
				"element": "H" 
			},
			{
				"x": 2.0533542626,
				"y": 0.7790060604,
				"z": 1.8266202829,
				"element": "H" 
			},
			{
				"x": -0.9642632457,
				"y": 2.9907451314,
				"z": 1.2795738794,
				"element": "H" 
			},
			{
				"x": -2.2261907633,
				"y": -0.5981859624,
				"z": 2.9808653944,
				"element": "H" 
			},
			{
				"x": 1.2249862795,
				"y": -1.2038589715,
				"z": 0.3548452748,
				"element": "H" 
			},
			{
				"x": 1.4843810084,
				"y": -2.1743664767,
				"z": -1.9137816824,
				"element": "H" 
			},
			{
				"x": 1.9446181301,
				"y": -0.6709073663,
				"z": -3.8532421502,
				"element": "H" 
			},
			{
				"x": 2.1398764363,
				"y": 1.7679723113,
				"z": -3.4988956975,
				"element": "H" 
			}
		],
		 "valence_orbital": [ 
			{
				"type": "occ",
				"energy": -0.27942,
				"method": "rhf"
			},
			{
				"type": "occ",
				"energy": -0.27643,
				"method": "rhf"
			},
			{
				"type": "occ",
				"energy": -0.26849,
				"method": "rhf"
			},
			{
				"type": "occ",
				"energy": -0.26312,
				"method": "rhf"
			},
			{
				"type": "occ",
				"energy": -0.25048,
				"method": "rhf"
			},
			{
				"type": "unocc",
				"energy": -0.04979,
				"method": "rhf"
			},
			{
				"type": "unocc",
				"energy": -0.03092,
				"method": "rhf"
			},
			{
				"type": "unocc",
				"energy": -0.02553,
				"method": "rhf"
			},
			{
				"type": "unocc",
				"energy": 0.00642,
				"method": "rhf"
			},
			{
				"type": "unocc",
				"energy": 0.0355,
				"method": "rhf"
			}
		],
		"cosmo_sigma_profile": { 
			"0.0": 0.0,
			"0.0": 0.0,
			"0.0": 0.0,
			"0.0": 0.0,
			"0.0": 0.0,
			"0.0": 0.0,
			"0.0": 0.0,
			"0.0": 0.0,
			"0.0": 0.0,
			"0.0": 0.0,
			"0.0": 0.0,
			"0.0": 0.0,
			"0.0": 0.0,
			"0.0": 0.0,
			"0.0": 0.0,
			"0.0": 0.0,
			"0.0": 0.0,
			"0.0": 0.0,
			"0.0": 0.0,
			"0.0": 0.0,
			"0.0": 0.0,
			"0.0": 0.0,
			"0.0": 0.0,
			"0.0": 0.0,
			"0.0": 0.0,
			"0.0": 0.0,
			"0.0": 0.0,
			"0.0": 0.0,
			"0.0": 0.0,
			"0.0": 0.0,
			"0.0": 0.0,
			"0.0": 0.0,
			"0.0": 0.0,
			"0.0": 0.0,
			"0.0": 0.0,
			"0.0": 0.0,
			"0.0": 0.0,
			"0.0": 0.0,
			"0.0": 0.0,
			"0.0": 0.0,
			"0.0": 0.0,
			"0.0": 0.0,
			"0.0": 0.0,
			"0.0": 0.0,
			"0.0": 0.0,
			"0.0": 0.0,
			"0.0": 0.0,
			"0.0": 0.0,
			"0.0": 0.0,
			"0.0": 0.0,
			"0.0": 0.0
		}
	}
}
