{
	 "smiles": "N#CC1=C2N=CN=C2N=CN1", 
	 "Tm": 461.15, 
	 "num_atms": 14, 
	 "gaussian": { 
		 "optdone": 1, 
		 "sigma_profile": "yes", 
		 "theory": "DFT", 
		 "functional": "B3LYP", 
		 "basiset": "6-31G**", 
		 "properties": { 
			 "R2extent": 1472.731, 
			 "electric_dipole_moment_norm": 5.04471004221, 
			 "electric_quadrupole_moment_norm": 19.0513131532, 
			 "total_energy": -504.152001519, 
			 "HOMO_LUMO_gap": 0.15544, 
			 "cosmo_polarized_energy": -25.16, 
			 "cosmo_cavitation_energy": 20.5, 
			 "cosmo_dispersion_energy": -14.97, 
			 "cosmo_repulsion_energy": 1.18, 
			 "cosmo_total_nonelectrostatic_energy": 6.71, 
			 "SMD_solvation_energy": -0.02 
		},
		"coords": [
			{
				"x": -0.3410216461,
				"y": -3.080501974,
				"z": -1.6825693773,
				"element": "N" 
			},
			{
				"x": -0.0868784646,
				"y": -2.164037581,
				"z": -1.0131744687,
				"element": "C" 
			},
			{
				"x": 0.2347536919,
				"y": -1.0699648984,
				"z": -0.1588604976,
				"element": "C" 
			},
			{
				"x": 0.1644081633,
				"y": 0.2663773953,
				"z": -0.4819117106,
				"element": "C" 
			},
			{
				"x": -0.1971049275,
				"y": 0.9286800416,
				"z": -1.6057148021,
				"element": "N" 
			},
			{
				"x": -0.0303953073,
				"y": 2.2052105466,
				"z": -1.2240756558,
				"element": "C" 
			},
			{
				"x": 0.4083903082,
				"y": 2.4663971226,
				"z": 0.0472942621,
				"element": "N" 
			},
			{
				"x": 0.5437777806,
				"y": 1.2453052016,
				"z": 0.5525670295,
				"element": "C" 
			},
			{
				"x": 0.9539810102,
				"y": 0.8941294258,
				"z": 1.7928551613,
				"element": "N" 
			},
			{
				"x": 0.9958582593,
				"y": -0.3916275268,
				"z": 2.0275429381,
				"element": "C" 
			},
			{
				"x": 0.660995537,
				"y": -1.3609914407,
				"z": 1.1236783417,
				"element": "N" 
			},
			{
				"x": -0.2383054172,
				"y": 3.0209825713,
				"z": -1.9083727505,
				"element": "H" 
			},
			{
				"x": 1.3144871142,
				"y": -0.7575377563,
				"z": 2.9990355403,
				"element": "H" 
			},
			{
				"x": 0.7272538979,
				"y": -2.3318211276,
				"z": 1.4030059897,
				"element": "H" 
			}
		],
		 "valence_orbital": [ 
			{
				"type": "occ",
				"energy": -0.34946,
				"method": "rhf"
			},
			{
				"type": "occ",
				"energy": -0.2838,
				"method": "rhf"
			},
			{
				"type": "occ",
				"energy": -0.28347,
				"method": "rhf"
			},
			{
				"type": "occ",
				"energy": -0.27677,
				"method": "rhf"
			},
			{
				"type": "occ",
				"energy": -0.26502,
				"method": "rhf"
			},
			{
				"type": "unocc",
				"energy": -0.10958,
				"method": "rhf"
			},
			{
				"type": "unocc",
				"energy": -0.05216,
				"method": "rhf"
			},
			{
				"type": "unocc",
				"energy": -0.01699,
				"method": "rhf"
			},
			{
				"type": "unocc",
				"energy": 0.02585,
				"method": "rhf"
			},
			{
				"type": "unocc",
				"energy": 0.03045,
				"method": "rhf"
			}
		],
		"cosmo_sigma_profile": { 
			"-0.025": 0.0,
			"-0.024": 0.0,
			"-0.023": 0.0,
			"-0.022": 0.0,
			"-0.021": 0.194401109392,
			"-0.02": 2.44117826734,
			"-0.019": 1.78738268679,
			"-0.018": 1.07416152969,
			"-0.017": 1.57697503699,
			"-0.016": 1.71041297279,
			"-0.015": 1.07177007783,
			"-0.014": 1.88831235632,
			"-0.013": 1.07999931788,
			"-0.012": 2.50152494654,
			"-0.011": 2.99982242004,
			"-0.01": 2.77127113787,
			"-0.009": 3.28018995234,
			"-0.008": 4.24371088625,
			"-0.007": 6.54964334066,
			"-0.006": 8.97173868264,
			"-0.005": 7.60327207023,
			"-0.004": 7.18253730354,
			"-0.003": 7.64419617591,
			"-0.002": 5.92239741314,
			"-0.001": 6.25109914773,
			"0.0": 7.39967691402,
			"0.001": 7.29292502446,
			"0.002": 6.7425948405,
			"0.003": 6.72689367887,
			"0.004": 6.13003586085,
			"0.005": 6.00137819975,
			"0.006": 7.0849278127,
			"0.007": 6.49285565119,
			"0.008": 6.41524948744,
			"0.009": 4.69389391354,
			"0.01": 5.56046278431,
			"0.011": 5.00175535124,
			"0.012": 4.03826183297,
			"0.013": 3.26504290341,
			"0.014": 2.51375149069,
			"0.015": 2.01053349095,
			"0.016": 1.68616185385,
			"0.017": 0.212322733374,
			"0.018": 0.0,
			"0.019": 0.0,
			"0.02": 0.0,
			"0.021": 0.0,
			"0.022": 0.0,
			"0.023": 0.0,
			"0.024": 0.0,
			"0.025": 0.0
		}
	}
}
