{
	 "smiles": "OC(=O)C1=CC=C(SC2=C(C=CC=C2)C#N)C=C1", 
	 "Tm": 456.15, 
	 "num_atms": 27, 
	 "gaussian": { 
		 "optdone": 1, 
		 "sigma_profile": "yes", 
		 "theory": "DFT", 
		 "functional": "B3LYP", 
		 "basiset": "6-31G**", 
		 "properties": { 
			 "R2extent": 6678.4158, 
			 "electric_dipole_moment_norm": 5.84074197341, 
			 "electric_quadrupole_moment_norm": 24.1810701614, 
			 "total_energy": -1142.28603574, 
			 "HOMO_LUMO_gap": 0.16785, 
			 "cosmo_polarized_energy": -20.52, 
			 "cosmo_cavitation_energy": 35.19, 
			 "cosmo_dispersion_energy": -24.3, 
			 "cosmo_repulsion_energy": 1.83, 
			 "cosmo_total_nonelectrostatic_energy": 12.73, 
			 "SMD_solvation_energy": 7.78 
		},
		"coords": [
			{
				"x": 4.3705930161,
				"y": -3.4947610753,
				"z": -2.7906024779,
				"element": "O" 
			},
			{
				"x": 3.5987581507,
				"y": -3.4427382288,
				"z": -1.6720473135,
				"element": "C" 
			},
			{
				"x": 3.9600376831,
				"y": -3.9993518149,
				"z": -0.6616778747,
				"element": "O" 
			},
			{
				"x": 2.3148102939,
				"y": -2.6769688605,
				"z": -1.7731469826,
				"element": "C" 
			},
			{
				"x": 1.7246905877,
				"y": -2.2332080485,
				"z": -0.5811053892,
				"element": "C" 
			},
			{
				"x": 0.529651183,
				"y": -1.5247480863,
				"z": -0.6029158122,
				"element": "C" 
			},
			{
				"x": -0.0958143168,
				"y": -1.2457633074,
				"z": -1.8268764928,
				"element": "C" 
			},
			{
				"x": -1.6751523197,
				"y": -0.4011140637,
				"z": -1.9247115876,
				"element": "S" 
			},
			{
				"x": -1.5106577344,
				"y": 0.9076698854,
				"z": -0.7134855587,
				"element": "C" 
			},
			{
				"x": -0.5626228629,
				"y": 1.9498601627,
				"z": -0.8480961175,
				"element": "C" 
			},
			{
				"x": -0.5177190616,
				"y": 2.9823135894,
				"z": 0.1030125994,
				"element": "C" 
			},
			{
				"x": -1.4204297836,
				"y": 3.0018310677,
				"z": 1.1635620986,
				"element": "C" 
			},
			{
				"x": -2.3707083484,
				"y": 1.9876421216,
				"z": 1.2855054021,
				"element": "C" 
			},
			{
				"x": -2.4092774925,
				"y": 0.9450519447,
				"z": 0.3572221376,
				"element": "C" 
			},
			{
				"x": 0.3564323027,
				"y": 1.9881383701,
				"z": -1.9482302376,
				"element": "C" 
			},
			{
				"x": 1.1137349714,
				"y": 2.0541110709,
				"z": -2.8285457758,
				"element": "N" 
			},
			{
				"x": 0.4756347836,
				"y": -1.7004913833,
				"z": -3.0206959593,
				"element": "C" 
			},
			{
				"x": 1.6692180753,
				"y": -2.4184366236,
				"z": -2.9894587957,
				"element": "C" 
			},
			{
				"x": 4.0489386813,
				"y": -2.8634477566,
				"z": -3.4491001008,
				"element": "H" 
			},
			{
				"x": 2.2181264619,
				"y": -2.4646923921,
				"z": 0.3567763318,
				"element": "H" 
			},
			{
				"x": 0.0807256388,
				"y": -1.1890553933,
				"z": 0.3260673503,
				"element": "H" 
			},
			{
				"x": 0.2211922964,
				"y": 3.7686667996,
				"z": -0.0093072439,
				"element": "H" 
			},
			{
				"x": -1.3818904712,
				"y": 3.8079692746,
				"z": 1.8891351228,
				"element": "H" 
			},
			{
				"x": -3.0772887181,
				"y": 1.9979372618,
				"z": 2.1098199992,
				"element": "H" 
			},
			{
				"x": -3.1363010494,
				"y": 0.1463995599,
				"z": 0.460537143,
				"element": "H" 
			},
			{
				"x": -0.0050400028,
				"y": -1.4835433282,
				"z": -3.9689004124,
				"element": "H" 
			},
			{
				"x": 2.0763580356,
				"y": -2.7886707459,
				"z": -3.9271340527,
				"element": "H" 
			}
		],
		 "valence_orbital": [ 
			{
				"type": "occ",
				"energy": -0.28631,
				"method": "rhf"
			},
			{
				"type": "occ",
				"energy": -0.28026,
				"method": "rhf"
			},
			{
				"type": "occ",
				"energy": -0.27655,
				"method": "rhf"
			},
			{
				"type": "occ",
				"energy": -0.27026,
				"method": "rhf"
			},
			{
				"type": "occ",
				"energy": -0.23828,
				"method": "rhf"
			},
			{
				"type": "unocc",
				"energy": -0.07043,
				"method": "rhf"
			},
			{
				"type": "unocc",
				"energy": -0.05872,
				"method": "rhf"
			},
			{
				"type": "unocc",
				"energy": -0.04328,
				"method": "rhf"
			},
			{
				"type": "unocc",
				"energy": -0.02563,
				"method": "rhf"
			},
			{
				"type": "unocc",
				"energy": 0.01822,
				"method": "rhf"
			}
		],
		"cosmo_sigma_profile": { 
			"-0.025": 0.0,
			"-0.024": 0.0,
			"-0.023": 0.0,
			"-0.022": 0.0,
			"-0.021": 0.0,
			"-0.02": 0.0,
			"-0.019": 0.282490653526,
			"-0.018": 1.10299543546,
			"-0.017": 0.684366525036,
			"-0.016": 1.11125595024,
			"-0.015": 0.766329132707,
			"-0.014": 1.31205409639,
			"-0.013": 1.12962017213,
			"-0.012": 1.25341146495,
			"-0.011": 1.18293665717,
			"-0.01": 0.906842591238,
			"-0.009": 1.87903475394,
			"-0.008": 6.95933544129,
			"-0.007": 16.2019918107,
			"-0.006": 18.2535346089,
			"-0.005": 14.0509003918,
			"-0.004": 14.114373688,
			"-0.003": 15.8623813405,
			"-0.002": 19.0449064025,
			"-0.001": 19.4029606288,
			"0.0": 20.1966763396,
			"0.001": 23.1387930256,
			"0.002": 25.8769030133,
			"0.003": 13.0739168111,
			"0.004": 9.44343732689,
			"0.005": 9.51210611793,
			"0.006": 6.79823622024,
			"0.007": 5.80461861848,
			"0.008": 6.55173004855,
			"0.009": 5.39782510191,
			"0.01": 7.78688387984,
			"0.011": 8.05063397141,
			"0.012": 6.72402111372,
			"0.013": 2.38097584346,
			"0.014": 0.0253497175169,
			"0.015": 0.0,
			"0.016": 0.0,
			"0.017": 0.0,
			"0.018": 0.0,
			"0.019": 0.0,
			"0.02": 0.0,
			"0.021": 0.0,
			"0.022": 0.0,
			"0.023": 0.0,
			"0.024": 0.0,
			"0.025": 0.0
		}
	}
}
