{
	 "smiles": "CNC(=O)C1=NC=C(C=C1)C(O)=O", 
	 "Tm": 537.15, 
	 "num_atms": 21, 
	 "gaussian": { 
		 "optdone": 1, 
		 "sigma_profile": "yes", 
		 "theory": "DFT", 
		 "functional": "B3LYP", 
		 "basiset": "6-31G**", 
		 "properties": { 
			 "R2extent": 3309.4891, 
			 "electric_dipole_moment_norm": 2.12315092492, 
			 "electric_quadrupole_moment_norm": 25.3219221857, 
			 "total_energy": -644.858365204, 
			 "HOMO_LUMO_gap": 0.17168, 
			 "cosmo_polarized_energy": -19.74, 
			 "cosmo_cavitation_energy": 26.19, 
			 "cosmo_dispersion_energy": -19.3, 
			 "cosmo_repulsion_energy": 1.53, 
			 "cosmo_total_nonelectrostatic_energy": 8.41, 
			 "SMD_solvation_energy": 5.6 
		},
		"coords": [
			{
				"x": -0.0606064944,
				"y": 0.3040387475,
				"z": -2.9651713134,
				"element": "C" 
			},
			{
				"x": 1.1818210203,
				"y": -0.36486868,
				"z": -2.5883727163,
				"element": "N" 
			},
			{
				"x": 1.6063792528,
				"y": -0.9311515738,
				"z": -1.4245974152,
				"element": "C" 
			},
			{
				"x": 2.7107039443,
				"y": -1.473224973,
				"z": -1.3554685492,
				"element": "O" 
			},
			{
				"x": 0.7278047135,
				"y": -0.9028788234,
				"z": -0.1918226458,
				"element": "C" 
			},
			{
				"x": -0.4450893937,
				"y": -0.251619755,
				"z": -0.2045745727,
				"element": "N" 
			},
			{
				"x": -1.1761515093,
				"y": -0.2514470773,
				"z": 0.9108299194,
				"element": "C" 
			},
			{
				"x": -0.7795082974,
				"y": -0.8812353822,
				"z": 2.0990954928,
				"element": "C" 
			},
			{
				"x": 0.4416584668,
				"y": -1.5672303728,
				"z": 2.0958382833,
				"element": "C" 
			},
			{
				"x": 1.2079133432,
				"y": -1.5790181147,
				"z": 0.9374087296,
				"element": "C" 
			},
			{
				"x": -1.705005005,
				"y": -0.8079885675,
				"z": 3.2758189619,
				"element": "C" 
			},
			{
				"x": -1.1611409508,
				"y": -1.0400477656,
				"z": 4.4988881764,
				"element": "O" 
			},
			{
				"x": -2.8818786629,
				"y": -0.5579004559,
				"z": 3.1709325675,
				"element": "O" 
			},
			{
				"x": -0.932766801,
				"y": -0.3327897447,
				"z": -2.8042052514,
				"element": "H" 
			},
			{
				"x": -0.2149749724,
				"y": 1.2297516783,
				"z": -2.4067001446,
				"element": "H" 
			},
			{
				"x": 0.0110948797,
				"y": 0.5399664377,
				"z": -4.0297228392,
				"element": "H" 
			},
			{
				"x": 1.8853223245,
				"y": -0.4664501826,
				"z": -3.3075034345,
				"element": "H" 
			},
			{
				"x": -2.1281200403,
				"y": 0.2719912242,
				"z": 0.8838665154,
				"element": "H" 
			},
			{
				"x": 0.784731695,
				"y": -2.1159668651,
				"z": 2.9701737991,
				"element": "H" 
			},
			{
				"x": 2.1591296705,
				"y": -2.0921410785,
				"z": 0.8697573642,
				"element": "H" 
			},
			{
				"x": -0.1959171833,
				"y": -1.0678886757,
				"z": 4.4451290726,
				"element": "H" 
			}
		],
		 "valence_orbital": [ 
			{
				"type": "occ",
				"energy": -0.2965,
				"method": "rhf"
			},
			{
				"type": "occ",
				"energy": -0.28328,
				"method": "rhf"
			},
			{
				"type": "occ",
				"energy": -0.27779,
				"method": "rhf"
			},
			{
				"type": "occ",
				"energy": -0.25703,
				"method": "rhf"
			},
			{
				"type": "occ",
				"energy": -0.25441,
				"method": "rhf"
			},
			{
				"type": "unocc",
				"energy": -0.08273,
				"method": "rhf"
			},
			{
				"type": "unocc",
				"energy": -0.04771,
				"method": "rhf"
			},
			{
				"type": "unocc",
				"energy": 0.00461,
				"method": "rhf"
			},
			{
				"type": "unocc",
				"energy": 0.04762,
				"method": "rhf"
			},
			{
				"type": "unocc",
				"energy": 0.06934,
				"method": "rhf"
			}
		],
		"cosmo_sigma_profile": { 
			"-0.025": 0.0,
			"-0.024": 0.0,
			"-0.023": 0.0,
			"-0.022": 0.0,
			"-0.021": 0.0,
			"-0.02": 0.251733986531,
			"-0.019": 0.980225197204,
			"-0.018": 0.867344441598,
			"-0.017": 1.35886572272,
			"-0.016": 0.998629317245,
			"-0.015": 0.865259963514,
			"-0.014": 1.41958988656,
			"-0.013": 2.50957435807,
			"-0.012": 2.25538924352,
			"-0.011": 2.9127073116,
			"-0.01": 2.37267643551,
			"-0.009": 2.59821631451,
			"-0.008": 3.34741213992,
			"-0.007": 6.55886497629,
			"-0.006": 7.23933076686,
			"-0.005": 8.41772541131,
			"-0.004": 11.5471478651,
			"-0.003": 11.870658397,
			"-0.002": 19.8025182759,
			"-0.001": 22.3041738973,
			"0.0": 16.5496924617,
			"0.001": 10.0518513168,
			"0.002": 8.22879722372,
			"0.003": 7.33138230678,
			"0.004": 5.29075548738,
			"0.005": 5.35933391603,
			"0.006": 5.11462847608,
			"0.007": 4.7602929044,
			"0.008": 4.26978397803,
			"0.009": 5.31237939292,
			"0.01": 6.76318908047,
			"0.011": 6.7912063707,
			"0.012": 4.81753470304,
			"0.013": 4.55507781995,
			"0.014": 3.29456912374,
			"0.015": 0.245090773987,
			"0.016": 0.0,
			"0.017": 0.0,
			"0.018": 0.0,
			"0.019": 0.0,
			"0.02": 0.0,
			"0.021": 0.0,
			"0.022": 0.0,
			"0.023": 0.0,
			"0.024": 0.0,
			"0.025": 0.0
		}
	}
}
