{
	 "smiles": "CCOC=C(/C#N)C1=NC(C)=CS1", 
	 "Tm": 344.15, 
	 "num_atms": 23, 
	 "gaussian": { 
		 "optdone": 1, 
		 "sigma_profile": "yes", 
		 "theory": "DFT", 
		 "functional": "B3LYP", 
		 "basiset": "6-31G**", 
		 "properties": { 
			 "R2extent": 4672.0473, 
			 "electric_dipole_moment_norm": 5.53269855586, 
			 "electric_quadrupole_moment_norm": 29.6289905274, 
			 "total_energy": -931.85918943, 
			 "HOMO_LUMO_gap": 0.15973, 
			 "cosmo_polarized_energy": -12.89, 
			 "cosmo_cavitation_energy": 30.4, 
			 "cosmo_dispersion_energy": -21.72, 
			 "cosmo_repulsion_energy": 1.74, 
			 "cosmo_total_nonelectrostatic_energy": 10.42, 
			 "SMD_solvation_energy": 6.09 
		},
		"coords": [
			{
				"x": -2.8664960329,
				"y": 2.2295686469,
				"z": 1.6037348438,
				"element": "C" 
			},
			{
				"x": -1.6399568317,
				"y": 3.1000920339,
				"z": 1.8284012618,
				"element": "C" 
			},
			{
				"x": -0.5279049866,
				"y": 2.3233895991,
				"z": 2.321492779,
				"element": "O" 
			},
			{
				"x": 0.240113047,
				"y": 1.7207346287,
				"z": 1.4154103389,
				"element": "C" 
			},
			{
				"x": 1.2412407968,
				"y": 0.8668759936,
				"z": 1.7617406992,
				"element": "C" 
			},
			{
				"x": 1.4898153514,
				"y": 0.5532638825,
				"z": 3.132231714,
				"element": "C" 
			},
			{
				"x": 1.711113463,
				"y": 0.2797244241,
				"z": 4.2419734559,
				"element": "N" 
			},
			{
				"x": 2.0746755665,
				"y": 0.261972447,
				"z": 0.717244548,
				"element": "C" 
			},
			{
				"x": 1.9239289727,
				"y": 0.4925657379,
				"z": -0.5610838606,
				"element": "N" 
			},
			{
				"x": 2.8387891155,
				"y": -0.208905758,
				"z": -1.3170385759,
				"element": "C" 
			},
			{
				"x": 2.8158157715,
				"y": -0.0665848524,
				"z": -2.8105724399,
				"element": "C" 
			},
			{
				"x": 3.702932451,
				"y": -0.9885900537,
				"z": -0.5967509683,
				"element": "C" 
			},
			{
				"x": 3.3778061438,
				"y": -0.8562526111,
				"z": 1.1018424978,
				"element": "S" 
			},
			{
				"x": -2.6847057409,
				"y": 1.4826534429,
				"z": 0.8246705702,
				"element": "H" 
			},
			{
				"x": -3.1415288474,
				"y": 1.7086268652,
				"z": 2.5247263361,
				"element": "H" 
			},
			{
				"x": -3.7117766486,
				"y": 2.8506954586,
				"z": 1.2902499042,
				"element": "H" 
			},
			{
				"x": -1.8195977536,
				"y": 3.849573173,
				"z": 2.6023299397,
				"element": "H" 
			},
			{
				"x": -1.3373466454,
				"y": 3.6191561345,
				"z": 0.9104537465,
				"element": "H" 
			},
			{
				"x": 0.0658915764,
				"y": 1.9373710758,
				"z": 0.3630409823,
				"element": "H" 
			},
			{
				"x": 1.8447756497,
				"y": -0.3734323698,
				"z": -3.2139762059,
				"element": "H" 
			},
			{
				"x": 2.972682743,
				"y": 0.9774434555,
				"z": -3.1024166943,
				"element": "H" 
			},
			{
				"x": 3.5924192521,
				"y": -0.6764422263,
				"z": -3.2782805181,
				"element": "H" 
			},
			{
				"x": 4.4987135868,
				"y": -1.621099128,
				"z": -0.9630243542,
				"element": "H" 
			}
		],
		 "valence_orbital": [ 
			{
				"type": "occ",
				"energy": -0.32476,
				"method": "rhf"
			},
			{
				"type": "occ",
				"energy": -0.28888,
				"method": "rhf"
			},
			{
				"type": "occ",
				"energy": -0.27696,
				"method": "rhf"
			},
			{
				"type": "occ",
				"energy": -0.26604,
				"method": "rhf"
			},
			{
				"type": "occ",
				"energy": -0.21475,
				"method": "rhf"
			},
			{
				"type": "unocc",
				"energy": -0.05502,
				"method": "rhf"
			},
			{
				"type": "unocc",
				"energy": -0.00127,
				"method": "rhf"
			},
			{
				"type": "unocc",
				"energy": 0.01173,
				"method": "rhf"
			},
			{
				"type": "unocc",
				"energy": 0.04618,
				"method": "rhf"
			},
			{
				"type": "unocc",
				"energy": 0.05274,
				"method": "rhf"
			}
		],
		"cosmo_sigma_profile": { 
			"-0.025": 0.0,
			"-0.024": 0.0,
			"-0.023": 0.0,
			"-0.022": 0.0,
			"-0.021": 0.0,
			"-0.02": 0.0,
			"-0.019": 0.0,
			"-0.018": 0.0,
			"-0.017": 0.0,
			"-0.016": 0.0,
			"-0.015": 0.0,
			"-0.014": 0.0,
			"-0.013": 0.0,
			"-0.012": 0.0,
			"-0.011": 0.264858308446,
			"-0.01": 1.71649120214,
			"-0.009": 2.53826474644,
			"-0.008": 4.28305790011,
			"-0.007": 6.54658272032,
			"-0.006": 8.71020184186,
			"-0.005": 17.5618619312,
			"-0.004": 19.0356055961,
			"-0.003": 17.5893868241,
			"-0.002": 18.3168329919,
			"-0.001": 25.9137055446,
			"0.0": 24.7295566842,
			"0.001": 17.9736538157,
			"0.002": 17.2737697661,
			"0.003": 14.5016731867,
			"0.004": 8.56558523682,
			"0.005": 6.81803049534,
			"0.006": 6.67694941046,
			"0.007": 4.49319530423,
			"0.008": 4.8074461084,
			"0.009": 4.75894260826,
			"0.01": 3.83018837235,
			"0.011": 4.02089547652,
			"0.012": 2.6248357011,
			"0.013": 1.55230651344,
			"0.014": 0.0329899580429,
			"0.015": 0.0,
			"0.016": 0.0,
			"0.017": 0.0,
			"0.018": 0.0,
			"0.019": 0.0,
			"0.02": 0.0,
			"0.021": 0.0,
			"0.022": 0.0,
			"0.023": 0.0,
			"0.024": 0.0,
			"0.025": 0.0
		}
	}
}
