{
	 "smiles": "BrC1=CC=C(OC2=CC=CC=C2Br)C=C1", 
	 "Tm": 293.15, 
	 "num_atms": 23, 
	 "gaussian": { 
		 "optdone": 1, 
		 "sigma_profile": "yes", 
		 "theory": "DFT", 
		 "functional": "B3LYP", 
		 "basiset": "6-31G**", 
		 "properties": { 
			 "R2extent": 8466.1984, 
			 "electric_dipole_moment_norm": 2.47595001161, 
			 "electric_quadrupole_moment_norm": 8.56001708117, 
			 "total_energy": -5680.11750718, 
			 "HOMO_LUMO_gap": 0.19891, 
			 "cosmo_polarized_energy": -6.97, 
			 "cosmo_cavitation_energy": 32.49, 
			 "cosmo_dispersion_energy": -24.07, 
			 "cosmo_repulsion_energy": 1.9, 
			 "cosmo_total_nonelectrostatic_energy": 10.32, 
			 "SMD_solvation_energy": 3.46 
		},
		"coords": [
			{
				"x": 2.9874547243,
				"y": -4.2979209829,
				"z": 1.7362486011,
				"element": "Br" 
			},
			{
				"x": 1.6901060813,
				"y": -3.1545322452,
				"z": 0.9219492925,
				"element": "C" 
			},
			{
				"x": 1.94092764,
				"y": -1.7863549575,
				"z": 0.8298817286,
				"element": "C" 
			},
			{
				"x": 0.9965026797,
				"y": -0.948947717,
				"z": 0.236705305,
				"element": "C" 
			},
			{
				"x": -0.1961433092,
				"y": -1.4908001513,
				"z": -0.2507139737,
				"element": "C" 
			},
			{
				"x": -1.1476680124,
				"y": -0.7386734163,
				"z": -0.9097472192,
				"element": "O" 
			},
			{
				"x": -1.4171348199,
				"y": 0.5516780548,
				"z": -0.5209755674,
				"element": "C" 
			},
			{
				"x": -1.5632133458,
				"y": 0.9096525844,
				"z": 0.8237638545,
				"element": "C" 
			},
			{
				"x": -1.9119192716,
				"y": 2.213915466,
				"z": 1.1680645977,
				"element": "C" 
			},
			{
				"x": -2.1291858932,
				"y": 3.1693378051,
				"z": 0.17358548,
				"element": "C" 
			},
			{
				"x": -1.9949293161,
				"y": 2.8163060857,
				"z": -1.1687817199,
				"element": "C" 
			},
			{
				"x": -1.6358450831,
				"y": 1.5140943348,
				"z": -1.515286506,
				"element": "C" 
			},
			{
				"x": -1.4480126401,
				"y": 1.047313649,
				"z": -3.3518517579,
				"element": "Br" 
			},
			{
				"x": -0.4415151052,
				"y": -2.862276512,
				"z": -0.158632845,
				"element": "C" 
			},
			{
				"x": 0.5060401512,
				"y": -3.6996784793,
				"z": 0.4268671014,
				"element": "C" 
			},
			{
				"x": 2.8695323676,
				"y": -1.3757086315,
				"z": 1.2095838001,
				"element": "H" 
			},
			{
				"x": 1.1895951293,
				"y": 0.114564607,
				"z": 0.1505332128,
				"element": "H" 
			},
			{
				"x": -1.404968317,
				"y": 0.1565583952,
				"z": 1.5884120512,
				"element": "H" 
			},
			{
				"x": -2.0225704038,
				"y": 2.4783595626,
				"z": 2.2151691758,
				"element": "H" 
			},
			{
				"x": -2.4042884779,
				"y": 4.1857188351,
				"z": 0.4367216066,
				"element": "H" 
			},
			{
				"x": -2.1610479563,
				"y": 3.5453327101,
				"z": -1.9538068247,
				"element": "H" 
			},
			{
				"x": -1.3712438535,
				"y": -3.2588479848,
				"z": -0.5521933114,
				"element": "H" 
			},
			{
				"x": 0.3222270314,
				"y": -4.7652910122,
				"z": 0.5014039178,
				"element": "H" 
			}
		],
		 "valence_orbital": [ 
			{
				"type": "occ",
				"energy": -0.28598,
				"method": "rhf"
			},
			{
				"type": "occ",
				"energy": -0.27148,
				"method": "rhf"
			},
			{
				"type": "occ",
				"energy": -0.2611,
				"method": "rhf"
			},
			{
				"type": "occ",
				"energy": -0.24677,
				"method": "rhf"
			},
			{
				"type": "occ",
				"energy": -0.22595,
				"method": "rhf"
			},
			{
				"type": "unocc",
				"energy": -0.02704,
				"method": "rhf"
			},
			{
				"type": "unocc",
				"energy": -0.0216,
				"method": "rhf"
			},
			{
				"type": "unocc",
				"energy": -0.01506,
				"method": "rhf"
			},
			{
				"type": "unocc",
				"energy": -0.00567,
				"method": "rhf"
			},
			{
				"type": "unocc",
				"energy": 0.00552,
				"method": "rhf"
			}
		],
		"cosmo_sigma_profile": { 
			"-0.025": 0.0,
			"-0.024": 0.0,
			"-0.023": 0.0,
			"-0.022": 0.0,
			"-0.021": 0.0,
			"-0.02": 0.0,
			"-0.019": 0.0,
			"-0.018": 0.0,
			"-0.017": 0.0,
			"-0.016": 0.0,
			"-0.015": 0.0,
			"-0.014": 0.0,
			"-0.013": 0.0,
			"-0.012": 0.0,
			"-0.011": 0.0,
			"-0.01": 0.0,
			"-0.009": 0.0,
			"-0.008": 1.48054868018,
			"-0.007": 11.3395640341,
			"-0.006": 15.6484920685,
			"-0.005": 16.5774759514,
			"-0.004": 15.5055768762,
			"-0.003": 15.7233151101,
			"-0.002": 15.1959180008,
			"-0.001": 17.0788009427,
			"0.0": 17.9791480512,
			"0.001": 24.8502230171,
			"0.002": 34.4642737262,
			"0.003": 34.3238278074,
			"0.004": 27.3949181555,
			"0.005": 14.0642845537,
			"0.006": 2.57118872678,
			"0.007": 1.9656198804,
			"0.008": 1.49160308466,
			"0.009": 0.66308962925,
			"0.01": 0.0,
			"0.011": 0.0,
			"0.012": 0.0,
			"0.013": 0.0,
			"0.014": 0.0,
			"0.015": 0.0,
			"0.016": 0.0,
			"0.017": 0.0,
			"0.018": 0.0,
			"0.019": 0.0,
			"0.02": 0.0,
			"0.021": 0.0,
			"0.022": 0.0,
			"0.023": 0.0,
			"0.024": 0.0,
			"0.025": 0.0
		}
	}
}
