{
	 "smiles": "NC1(CCC1)C1=NC(=CN1)C(O)=O", 
	 "Tm": 547.15, 
	 "num_atms": 24, 
	 "gaussian": { 
		 "optdone": 1, 
		 "sigma_profile": "yes", 
		 "theory": "DFT", 
		 "functional": "B3LYP", 
		 "basiset": "6-31G**", 
		 "properties": { 
			 "R2extent": 3725.2577, 
			 "electric_dipole_moment_norm": 7.50016055828, 
			 "electric_quadrupole_moment_norm": 31.8125874847, 
			 "total_energy": -626.15712667, 
			 "HOMO_LUMO_gap": 0.21972, 
			 "cosmo_polarized_energy": -27.78, 
			 "cosmo_cavitation_energy": 27.63, 
			 "cosmo_dispersion_energy": -20.06, 
			 "cosmo_repulsion_energy": 1.61, 
			 "cosmo_total_nonelectrostatic_energy": 9.18, 
			 "SMD_solvation_energy": 3.51 
		},
		"coords": [
			{
				"x": 0.0809040824,
				"y": -1.3305708616,
				"z": -1.7438921982,
				"element": "N" 
			},
			{
				"x": 0.1752485826,
				"y": -0.2662024509,
				"z": -0.7550769233,
				"element": "C" 
			},
			{
				"x": 1.4693345647,
				"y": -0.3191531731,
				"z": 0.1206743242,
				"element": "C" 
			},
			{
				"x": 1.7534025785,
				"y": 1.1715847203,
				"z": -0.205429851,
				"element": "C" 
			},
			{
				"x": 0.6966318761,
				"y": 1.0959598297,
				"z": -1.3381535225,
				"element": "C" 
			},
			{
				"x": -1.1003268819,
				"y": -0.1109059923,
				"z": 0.0427963871,
				"element": "C" 
			},
			{
				"x": -2.2647653987,
				"y": -0.6144760907,
				"z": -0.3027800137,
				"element": "N" 
			},
			{
				"x": -3.1644074864,
				"y": -0.1989258202,
				"z": 0.656066649,
				"element": "C" 
			},
			{
				"x": -2.5247456341,
				"y": 0.5679864374,
				"z": 1.6092847694,
				"element": "C" 
			},
			{
				"x": -1.2123548853,
				"y": 0.61746713,
				"z": 1.2077115892,
				"element": "N" 
			},
			{
				"x": -4.5860930483,
				"y": -0.6239859482,
				"z": 0.6281097487,
				"element": "C" 
			},
			{
				"x": -5.4381710586,
				"y": 0.1699861769,
				"z": 1.3479338046,
				"element": "O" 
			},
			{
				"x": -5.0000201071,
				"y": -1.5987450732,
				"z": 0.0543967242,
				"element": "O" 
			},
			{
				"x": -0.0703417609,
				"y": -2.2141909415,
				"z": -1.2572438256,
				"element": "H" 
			},
			{
				"x": -0.7763642956,
				"y": -1.1936941291,
				"z": -2.2797328937,
				"element": "H" 
			},
			{
				"x": 1.3549040459,
				"y": -0.6057608747,
				"z": 1.1711541295,
				"element": "H" 
			},
			{
				"x": 2.1931217271,
				"y": -0.9886770452,
				"z": -0.3493309981,
				"element": "H" 
			},
			{
				"x": 1.464937689,
				"y": 1.8548992314,
				"z": 0.6019156069,
				"element": "H" 
			},
			{
				"x": 2.7751326274,
				"y": 1.4235765868,
				"z": -0.4991669044,
				"element": "H" 
			},
			{
				"x": -0.0248703482,
				"y": 1.9137561752,
				"z": -1.4157639603,
				"element": "H" 
			},
			{
				"x": 1.1461592426,
				"y": 0.915199379,
				"z": -2.316977714,
				"element": "H" 
			},
			{
				"x": -2.855792656,
				"y": 1.0175935426,
				"z": 2.5340514479,
				"element": "H" 
			},
			{
				"x": -0.4614722343,
				"y": 1.0793961098,
				"z": 1.6989266148,
				"element": "H" 
			},
			{
				"x": -4.9989512209,
				"y": 1.0049830817,
				"z": 1.5616270093,
				"element": "H" 
			}
		],
		 "valence_orbital": [ 
			{
				"type": "occ",
				"energy": -0.29644,
				"method": "rhf"
			},
			{
				"type": "occ",
				"energy": -0.28614,
				"method": "rhf"
			},
			{
				"type": "occ",
				"energy": -0.26375,
				"method": "rhf"
			},
			{
				"type": "occ",
				"energy": -0.24875,
				"method": "rhf"
			},
			{
				"type": "occ",
				"energy": -0.24373,
				"method": "rhf"
			},
			{
				"type": "unocc",
				"energy": -0.02401,
				"method": "rhf"
			},
			{
				"type": "unocc",
				"energy": 0.01345,
				"method": "rhf"
			},
			{
				"type": "unocc",
				"energy": 0.03883,
				"method": "rhf"
			},
			{
				"type": "unocc",
				"energy": 0.06508,
				"method": "rhf"
			},
			{
				"type": "unocc",
				"energy": 0.08198,
				"method": "rhf"
			}
		],
		"cosmo_sigma_profile": { 
			"-0.025": 0.0,
			"-0.024": 0.0,
			"-0.023": 0.0,
			"-0.022": 0.0,
			"-0.021": 0.0,
			"-0.02": 0.0,
			"-0.019": 0.042900690986,
			"-0.018": 0.625395450795,
			"-0.017": 0.985328397492,
			"-0.016": 2.93699200283,
			"-0.015": 1.91944575924,
			"-0.014": 2.44796152616,
			"-0.013": 2.0020149805,
			"-0.012": 3.1500886304,
			"-0.011": 3.21429621258,
			"-0.01": 5.53629775241,
			"-0.009": 3.77103502229,
			"-0.008": 5.12837164657,
			"-0.007": 5.83601315117,
			"-0.006": 5.71913568069,
			"-0.005": 6.31122633353,
			"-0.004": 8.90661174583,
			"-0.003": 15.841543608,
			"-0.002": 18.5887807764,
			"-0.001": 19.074690599,
			"0.0": 18.7046078044,
			"0.001": 16.8874727728,
			"0.002": 7.6568350007,
			"0.003": 5.33430173014,
			"0.004": 3.98134136292,
			"0.005": 3.67976816967,
			"0.006": 3.46737063048,
			"0.007": 4.29251658883,
			"0.008": 4.30179429311,
			"0.009": 4.58499907529,
			"0.01": 5.36434454188,
			"0.011": 7.51830766023,
			"0.012": 7.09883772019,
			"0.013": 4.50988388245,
			"0.014": 2.97081549422,
			"0.015": 2.34365261004,
			"0.016": 1.40824647965,
			"0.017": 0.705338200749,
			"0.018": 0.29268265323,
			"0.019": 0.320383076124,
			"0.02": 0.0,
			"0.021": 0.0,
			"0.022": 0.0,
			"0.023": 0.0,
			"0.024": 0.0,
			"0.025": 0.0
		}
	}
}
