{
	 "smiles": "NCCC1=CC2=C(N1)C=CC=C2", 
	 "Tm": 369.15, 
	 "num_atms": 24, 
	 "gaussian": { 
		 "optdone": 1, 
		 "sigma_profile": "yes", 
		 "theory": "DFT", 
		 "functional": "B3LYP", 
		 "basiset": "6-31G**", 
		 "properties": { 
			 "R2extent": 2697.1768, 
			 "electric_dipole_moment_norm": 2.00536866685, 
			 "electric_quadrupole_moment_norm": 12.5297470038, 
			 "total_energy": -497.806544392, 
			 "HOMO_LUMO_gap": 0.193, 
			 "cosmo_polarized_energy": -11.98, 
			 "cosmo_cavitation_energy": 26.99, 
			 "cosmo_dispersion_energy": -19.71, 
			 "cosmo_repulsion_energy": 1.59, 
			 "cosmo_total_nonelectrostatic_energy": 8.87, 
			 "SMD_solvation_energy": 2.56 
		},
		"coords": [
			{
				"x": 1.9386224487,
				"y": 0.8169417579,
				"z": 2.8488780289,
				"element": "N" 
			},
			{
				"x": 2.5863838622,
				"y": -0.1834267664,
				"z": 2.0080615368,
				"element": "C" 
			},
			{
				"x": 1.6421842741,
				"y": -1.089850084,
				"z": 1.1700966984,
				"element": "C" 
			},
			{
				"x": 0.8152418715,
				"y": -0.3303526991,
				"z": 0.1803812074,
				"element": "C" 
			},
			{
				"x": -0.4682785444,
				"y": 0.155299422,
				"z": 0.2764469612,
				"element": "C" 
			},
			{
				"x": -0.7576903289,
				"y": 0.8774533867,
				"z": -0.9318590376,
				"element": "C" 
			},
			{
				"x": 0.4099107982,
				"y": 0.8033668099,
				"z": -1.7422706513,
				"element": "C" 
			},
			{
				"x": 1.3465943519,
				"y": 0.0712418817,
				"z": -1.0383070866,
				"element": "N" 
			},
			{
				"x": 0.4833074927,
				"y": 1.3969920427,
				"z": -3.0060677523,
				"element": "C" 
			},
			{
				"x": -0.6397786374,
				"y": 2.0808395779,
				"z": -3.460106374,
				"element": "C" 
			},
			{
				"x": -1.8071928014,
				"y": 2.1692753135,
				"z": -2.6747474611,
				"element": "C" 
			},
			{
				"x": -1.8758712666,
				"y": 1.5755449583,
				"z": -1.4201771399,
				"element": "C" 
			},
			{
				"x": 1.3517861295,
				"y": 0.3576549382,
				"z": 3.5424656726,
				"element": "H" 
			},
			{
				"x": 1.3120827173,
				"y": 1.38410662,
				"z": 2.2804649597,
				"element": "H" 
			},
			{
				"x": 3.2054366059,
				"y": -0.8228708371,
				"z": 2.6484022008,
				"element": "H" 
			},
			{
				"x": 3.2748539017,
				"y": 0.3373253901,
				"z": 1.3303507899,
				"element": "H" 
			},
			{
				"x": 2.2422951553,
				"y": -1.8527466678,
				"z": 0.6535685908,
				"element": "H" 
			},
			{
				"x": 0.9713294695,
				"y": -1.6288823002,
				"z": 1.8489449893,
				"element": "H" 
			},
			{
				"x": -1.135513236,
				"y": -0.0041564202,
				"z": 1.1124269918,
				"element": "H" 
			},
			{
				"x": 2.2668542092,
				"y": -0.1684656786,
				"z": -1.3706248484,
				"element": "H" 
			},
			{
				"x": 1.3829527344,
				"y": 1.3292847673,
				"z": -3.6117361003,
				"element": "H" 
			},
			{
				"x": -0.6160880723,
				"y": 2.5549762001,
				"z": -4.4369622126,
				"element": "H" 
			},
			{
				"x": -2.665892802,
				"y": 2.71121516,
				"z": -3.0604224144,
				"element": "H" 
			},
			{
				"x": -2.7810303328,
				"y": 1.6490332272,
				"z": -0.8234075489,
				"element": "H" 
			}
		],
		 "valence_orbital": [ 
			{
				"type": "occ",
				"energy": -0.324,
				"method": "rhf"
			},
			{
				"type": "occ",
				"energy": -0.2714,
				"method": "rhf"
			},
			{
				"type": "occ",
				"energy": -0.23617,
				"method": "rhf"
			},
			{
				"type": "occ",
				"energy": -0.21347,
				"method": "rhf"
			},
			{
				"type": "occ",
				"energy": -0.19846,
				"method": "rhf"
			},
			{
				"type": "unocc",
				"energy": -0.00546,
				"method": "rhf"
			},
			{
				"type": "unocc",
				"energy": 0.03192,
				"method": "rhf"
			},
			{
				"type": "unocc",
				"energy": 0.06391,
				"method": "rhf"
			},
			{
				"type": "unocc",
				"energy": 0.07776,
				"method": "rhf"
			},
			{
				"type": "unocc",
				"energy": 0.09559,
				"method": "rhf"
			}
		],
		"cosmo_sigma_profile": { 
			"-0.025": 0.0,
			"-0.024": 0.0,
			"-0.023": 0.0,
			"-0.022": 0.0,
			"-0.021": 0.0,
			"-0.02": 0.0,
			"-0.019": 0.0,
			"-0.018": 0.0,
			"-0.017": 0.0,
			"-0.016": 0.0,
			"-0.015": 0.746382757747,
			"-0.014": 1.38502719868,
			"-0.013": 0.927604799819,
			"-0.012": 1.38216245812,
			"-0.011": 1.29909688561,
			"-0.01": 1.40844435966,
			"-0.009": 2.67572150987,
			"-0.008": 3.29800848647,
			"-0.007": 3.70836218975,
			"-0.006": 5.62064324881,
			"-0.005": 12.2999003086,
			"-0.004": 18.6560814782,
			"-0.003": 22.427365749,
			"-0.002": 21.3673089474,
			"-0.001": 17.4973453916,
			"0.0": 12.5594194503,
			"0.001": 8.70804034192,
			"0.002": 8.97218011674,
			"0.003": 9.79053711443,
			"0.004": 9.69801869956,
			"0.005": 11.9914145214,
			"0.006": 11.3977193311,
			"0.007": 12.3368977635,
			"0.008": 4.93979539861,
			"0.009": 0.793501585828,
			"0.01": 0.530441997765,
			"0.011": 0.813369354198,
			"0.012": 0.807491924401,
			"0.013": 0.490506634278,
			"0.014": 0.389753518856,
			"0.015": 0.881475971969,
			"0.016": 0.854919090966,
			"0.017": 0.513746451115,
			"0.018": 0.622274705033,
			"0.019": 0.696216616956,
			"0.02": 0.43444001177,
			"0.021": 0.0,
			"0.022": 0.0,
			"0.023": 0.0,
			"0.024": 0.0,
			"0.025": 0.0
		}
	}
}
