{
	 "smiles": "NC1=CC(Cl)=C(C=C1)N1CCCCC1", 
	 "Tm": 327.15, 
	 "num_atms": 29, 
	 "gaussian": { 
		 "optdone": 1, 
		 "sigma_profile": "yes", 
		 "theory": "DFT", 
		 "functional": "B3LYP", 
		 "basiset": "6-31G**", 
		 "properties": { 
			 "R2extent": 3932.6519, 
			 "electric_dipole_moment_norm": 2.69996837019, 
			 "electric_quadrupole_moment_norm": 14.648044137, 
			 "total_energy": -997.900502891, 
			 "HOMO_LUMO_gap": 0.17414, 
			 "cosmo_polarized_energy": -9.61, 
			 "cosmo_cavitation_energy": 31.46, 
			 "cosmo_dispersion_energy": -23.32, 
			 "cosmo_repulsion_energy": 1.84, 
			 "cosmo_total_nonelectrostatic_energy": 9.98, 
			 "SMD_solvation_energy": 3.38 
		},
		"coords": [
			{
				"x": 1.2554640207,
				"y": 0.5590089337,
				"z": -5.1910715542,
				"element": "N" 
			},
			{
				"x": 0.8153527615,
				"y": 0.3862479403,
				"z": -3.8715203982,
				"element": "C" 
			},
			{
				"x": 1.5700852524,
				"y": -0.360004128,
				"z": -2.9556023809,
				"element": "C" 
			},
			{
				"x": 1.0955719163,
				"y": -0.5955433533,
				"z": -1.6684605018,
				"element": "C" 
			},
			{
				"x": 2.0720292411,
				"y": -1.6465997613,
				"z": -0.6407178725,
				"element": "Cl" 
			},
			{
				"x": -0.1285291744,
				"y": -0.0704687529,
				"z": -1.1992034949,
				"element": "C" 
			},
			{
				"x": -0.8682173597,
				"y": 0.6669772386,
				"z": -2.1448117887,
				"element": "C" 
			},
			{
				"x": -0.4236202691,
				"y": 0.8838627813,
				"z": -3.4447251545,
				"element": "C" 
			},
			{
				"x": -0.5997804951,
				"y": -0.3052264033,
				"z": 0.1048965833,
				"element": "N" 
			},
			{
				"x": -2.0449091741,
				"y": -0.2528209913,
				"z": 0.3256555885,
				"element": "C" 
			},
			{
				"x": -2.3708497812,
				"y": -0.7428745785,
				"z": 1.7388250014,
				"element": "C" 
			},
			{
				"x": -1.7644913738,
				"y": 0.1964649828,
				"z": 2.8102701835,
				"element": "C" 
			},
			{
				"x": -0.5507409469,
				"y": 0.9651649715,
				"z": 2.2479557353,
				"element": "C" 
			},
			{
				"x": 0.2403877528,
				"y": 0.1088135135,
				"z": 1.2521853284,
				"element": "C" 
			},
			{
				"x": 2.258754765,
				"y": 0.5089848272,
				"z": -5.3080607245,
				"element": "H" 
			},
			{
				"x": 0.8768388184,
				"y": 1.3759902547,
				"z": -5.6516899023,
				"element": "H" 
			},
			{
				"x": 2.5190490285,
				"y": -0.794031095,
				"z": -3.2542274935,
				"element": "H" 
			},
			{
				"x": -1.8191003365,
				"y": 1.0944138328,
				"z": -1.8471832604,
				"element": "H" 
			},
			{
				"x": -1.0409558042,
				"y": 1.4557175488,
				"z": -4.1331734766,
				"element": "H" 
			},
			{
				"x": -2.5277175548,
				"y": -0.889532661,
				"z": -0.4238255628,
				"element": "H" 
			},
			{
				"x": -2.4666647442,
				"y": 0.7621925429,
				"z": 0.1977943238,
				"element": "H" 
			},
			{
				"x": -1.9668776468,
				"y": -1.7555439802,
				"z": 1.8482074813,
				"element": "H" 
			},
			{
				"x": -3.4569503707,
				"y": -0.8191665058,
				"z": 1.8571574286,
				"element": "H" 
			},
			{
				"x": -1.4638166655,
				"y": -0.3916474144,
				"z": 3.6847525661,
				"element": "H" 
			},
			{
				"x": -2.5172983946,
				"y": 0.9110128816,
				"z": 3.1623322112,
				"element": "H" 
			},
			{
				"x": 0.1146096098,
				"y": 1.2838120759,
				"z": 3.0582310473,
				"element": "H" 
			},
			{
				"x": -0.8845629127,
				"y": 1.8796387968,
				"z": 1.7426922496,
				"element": "H" 
			},
			{
				"x": 1.0977004968,
				"y": 0.6733871024,
				"z": 0.8752691337,
				"element": "H" 
			},
			{
				"x": 0.6456393411,
				"y": -0.7720305999,
				"z": 1.7686487038,
				"element": "H" 
			}
		],
		 "valence_orbital": [ 
			{
				"type": "occ",
				"energy": -0.29775,
				"method": "rhf"
			},
			{
				"type": "occ",
				"energy": -0.29244,
				"method": "rhf"
			},
			{
				"type": "occ",
				"energy": -0.23595,
				"method": "rhf"
			},
			{
				"type": "occ",
				"energy": -0.23279,
				"method": "rhf"
			},
			{
				"type": "occ",
				"energy": -0.17467,
				"method": "rhf"
			},
			{
				"type": "unocc",
				"energy": -0.00053,
				"method": "rhf"
			},
			{
				"type": "unocc",
				"energy": 0.02173,
				"method": "rhf"
			},
			{
				"type": "unocc",
				"energy": 0.04348,
				"method": "rhf"
			},
			{
				"type": "unocc",
				"energy": 0.08058,
				"method": "rhf"
			},
			{
				"type": "unocc",
				"energy": 0.08258,
				"method": "rhf"
			}
		],
		"cosmo_sigma_profile": { 
			"-0.025": 0.0,
			"-0.024": 0.0,
			"-0.023": 0.0,
			"-0.022": 0.0,
			"-0.021": 0.0,
			"-0.02": 0.0,
			"-0.019": 0.0,
			"-0.018": 0.0,
			"-0.017": 0.0,
			"-0.016": 0.0,
			"-0.015": 0.0,
			"-0.014": 0.0,
			"-0.013": 0.0732321203606,
			"-0.012": 2.47876103028,
			"-0.011": 2.59423673842,
			"-0.01": 2.64243425236,
			"-0.009": 3.23378853618,
			"-0.008": 3.97168860999,
			"-0.007": 3.83499832708,
			"-0.006": 4.00839929748,
			"-0.005": 5.42822640506,
			"-0.004": 8.80505350256,
			"-0.003": 18.6724768706,
			"-0.002": 32.7646782416,
			"-0.001": 36.8570972018,
			"0.0": 24.1415945448,
			"0.001": 19.1544803642,
			"0.002": 10.9579950291,
			"0.003": 11.1875313353,
			"0.004": 15.0526459464,
			"0.005": 16.3319200829,
			"0.006": 13.3917612154,
			"0.007": 3.041974056,
			"0.008": 2.55861203789,
			"0.009": 1.45542838591,
			"0.01": 1.70981533371,
			"0.011": 1.2561679541,
			"0.012": 0.535757825931,
			"0.013": 0.650271476797,
			"0.014": 0.689417063008,
			"0.015": 0.472055997313,
			"0.016": 0.110226553379,
			"0.017": 0.0,
			"0.018": 0.0,
			"0.019": 0.0,
			"0.02": 0.0,
			"0.021": 0.0,
			"0.022": 0.0,
			"0.023": 0.0,
			"0.024": 0.0,
			"0.025": 0.0
		}
	}
}
