{
	 "smiles": "OC(=O)CC1=NOC2=CC=CC=C12", 
	 "Tm": 397.15, 
	 "num_atms": 20, 
	 "gaussian": { 
		 "optdone": 1, 
		 "sigma_profile": "yes", 
		 "theory": "DFT", 
		 "functional": "B3LYP", 
		 "basiset": "6-31G**", 
		 "properties": { 
			 "R2extent": 2965.4786, 
			 "electric_dipole_moment_norm": 6.73129701469, 
			 "electric_quadrupole_moment_norm": 10.9649113781, 
			 "total_energy": -627.568481638, 
			 "HOMO_LUMO_gap": 0.19527, 
			 "cosmo_polarized_energy": -13.9, 
			 "cosmo_cavitation_energy": 24.87, 
			 "cosmo_dispersion_energy": -18.76, 
			 "cosmo_repulsion_energy": 1.47, 
			 "cosmo_total_nonelectrostatic_energy": 7.59, 
			 "SMD_solvation_energy": 5.69 
		},
		"coords": [
			{
				"x": 1.647747274,
				"y": 1.1192986428,
				"z": -1.8440728152,
				"element": "O" 
			},
			{
				"x": 1.9203421692,
				"y": 1.1819680857,
				"z": -0.5350443244,
				"element": "C" 
			},
			{
				"x": 2.9215724889,
				"y": 1.7085034328,
				"z": -0.1127803612,
				"element": "O" 
			},
			{
				"x": 0.8799554698,
				"y": 0.614521957,
				"z": 0.4551405687,
				"element": "C" 
			},
			{
				"x": -0.1120936496,
				"y": -0.3979293005,
				"z": -0.0383198257,
				"element": "C" 
			},
			{
				"x": -0.4703560654,
				"y": -0.4260687922,
				"z": -1.2964129288,
				"element": "N" 
			},
			{
				"x": -1.4098653252,
				"y": -1.4491015087,
				"z": -1.4704457816,
				"element": "O" 
			},
			{
				"x": -1.6111667695,
				"y": -2.0295524477,
				"z": -0.2596779678,
				"element": "C" 
			},
			{
				"x": -2.4716306426,
				"y": -3.0901292487,
				"z": 0.0246704675,
				"element": "C" 
			},
			{
				"x": -2.4993059972,
				"y": -3.5116796225,
				"z": 1.3497680411,
				"element": "C" 
			},
			{
				"x": -1.703726088,
				"y": -2.902539298,
				"z": 2.3454404212,
				"element": "C" 
			},
			{
				"x": -0.8539638376,
				"y": -1.8478153017,
				"z": 2.0411306486,
				"element": "C" 
			},
			{
				"x": -0.8132127343,
				"y": -1.4079937378,
				"z": 0.7083528486,
				"element": "C" 
			},
			{
				"x": 0.8220937225,
				"y": 0.6118361109,
				"z": -2.0118221418,
				"element": "H" 
			},
			{
				"x": 0.336829221,
				"y": 1.4818310047,
				"z": 0.8547703488,
				"element": "H" 
			},
			{
				"x": 1.4460048806,
				"y": 0.2047763626,
				"z": 1.2950110513,
				"element": "H" 
			},
			{
				"x": -3.0778110375,
				"y": -3.5529742183,
				"z": -0.7453473808,
				"element": "H" 
			},
			{
				"x": -3.1512249877,
				"y": -4.3343379407,
				"z": 1.6275463959,
				"element": "H" 
			},
			{
				"x": -1.7616640964,
				"y": -3.2695423239,
				"z": 3.3650745092,
				"element": "H" 
			},
			{
				"x": -0.2438239951,
				"y": -1.3806718557,
				"z": 2.8077182264,
				"element": "H" 
			}
		],
		 "valence_orbital": [ 
			{
				"type": "occ",
				"energy": -0.32923,
				"method": "rhf"
			},
			{
				"type": "occ",
				"energy": -0.30236,
				"method": "rhf"
			},
			{
				"type": "occ",
				"energy": -0.27618,
				"method": "rhf"
			},
			{
				"type": "occ",
				"energy": -0.26891,
				"method": "rhf"
			},
			{
				"type": "occ",
				"energy": -0.26091,
				"method": "rhf"
			},
			{
				"type": "unocc",
				"energy": -0.06564,
				"method": "rhf"
			},
			{
				"type": "unocc",
				"energy": -0.01788,
				"method": "rhf"
			},
			{
				"type": "unocc",
				"energy": 0.01162,
				"method": "rhf"
			},
			{
				"type": "unocc",
				"energy": 0.02087,
				"method": "rhf"
			},
			{
				"type": "unocc",
				"energy": 0.06451,
				"method": "rhf"
			}
		],
		"cosmo_sigma_profile": { 
			"-0.025": 0.0,
			"-0.024": 0.0,
			"-0.023": 0.0,
			"-0.022": 0.0,
			"-0.021": 0.0,
			"-0.02": 0.0,
			"-0.019": 0.0,
			"-0.018": 0.0,
			"-0.017": 0.0,
			"-0.016": 0.0,
			"-0.015": 0.0,
			"-0.014": 0.0,
			"-0.013": 0.0,
			"-0.012": 0.0,
			"-0.011": 0.0,
			"-0.01": 0.129851416443,
			"-0.009": 2.98067801302,
			"-0.008": 8.64795442576,
			"-0.007": 15.1683732476,
			"-0.006": 15.8708125261,
			"-0.005": 14.4387034091,
			"-0.004": 9.87448404203,
			"-0.003": 10.3505124868,
			"-0.002": 11.4894034224,
			"-0.001": 11.1608963711,
			"0.0": 12.5262716959,
			"0.001": 12.8813161936,
			"0.002": 12.6237283963,
			"0.003": 13.301811266,
			"0.004": 6.95485318889,
			"0.005": 4.90818111526,
			"0.006": 6.67667069875,
			"0.007": 5.08345136478,
			"0.008": 3.48081956612,
			"0.009": 2.8660679554,
			"0.01": 4.55394459906,
			"0.011": 5.1490957392,
			"0.012": 6.25326264934,
			"0.013": 2.54022760391,
			"0.014": 0.197898549099,
			"0.015": 0.0,
			"0.016": 0.0,
			"0.017": 0.0,
			"0.018": 0.0,
			"0.019": 0.0,
			"0.02": 0.0,
			"0.021": 0.0,
			"0.022": 0.0,
			"0.023": 0.0,
			"0.024": 0.0,
			"0.025": 0.0
		}
	}
}
