{
	 "smiles": "CCOC1=C(OC)C(Br)=CC(=C1)C(O)=O", 
	 "Tm": 456.15, 
	 "num_atms": 26, 
	 "gaussian": { 
		 "optdone": 1, 
		 "sigma_profile": "yes", 
		 "theory": "DFT", 
		 "functional": "B3LYP", 
		 "basiset": "6-31G**", 
		 "properties": { 
			 "R2extent": 6148.8168, 
			 "electric_dipole_moment_norm": 5.83670833518, 
			 "electric_quadrupole_moment_norm": 18.7338202159, 
			 "total_energy": -3259.97390464, 
			 "HOMO_LUMO_gap": 0.1974, 
			 "cosmo_polarized_energy": -15.45, 
			 "cosmo_cavitation_energy": 32.75, 
			 "cosmo_dispersion_energy": -23.33, 
			 "cosmo_repulsion_energy": 1.86, 
			 "cosmo_total_nonelectrostatic_energy": 11.29, 
			 "SMD_solvation_energy": 6.79 
		},
		"coords": [
			{
				"x": -2.1236366025,
				"y": 2.4089972252,
				"z": -0.718152579,
				"element": "C" 
			},
			{
				"x": -1.6845945993,
				"y": 0.9576603471,
				"z": -0.6812705486,
				"element": "C" 
			},
			{
				"x": -0.264895521,
				"y": 0.9376612841,
				"z": -0.3987155679,
				"element": "O" 
			},
			{
				"x": 0.3112212571,
				"y": -0.3044022397,
				"z": -0.339003094,
				"element": "C" 
			},
			{
				"x": 0.0433903057,
				"y": -1.1751365711,
				"z": 0.7386282904,
				"element": "C" 
			},
			{
				"x": -0.8396339794,
				"y": -0.8231615879,
				"z": 1.716914931,
				"element": "O" 
			},
			{
				"x": -0.3563397935,
				"y": 0.1586843757,
				"z": 2.6493931833,
				"element": "C" 
			},
			{
				"x": 0.6661625478,
				"y": -2.4324661477,
				"z": 0.7543735521,
				"element": "C" 
			},
			{
				"x": 0.3119213881,
				"y": -3.6248189355,
				"z": 2.1962103575,
				"element": "Br" 
			},
			{
				"x": 1.5398541204,
				"y": -2.8199125697,
				"z": -0.2554039579,
				"element": "C" 
			},
			{
				"x": 1.8331540067,
				"y": -1.9332557724,
				"z": -1.2968767449,
				"element": "C" 
			},
			{
				"x": 1.203425668,
				"y": -0.6826476084,
				"z": -1.3404853843,
				"element": "C" 
			},
			{
				"x": 2.7903711179,
				"y": -2.402090762,
				"z": -2.3520753039,
				"element": "C" 
			},
			{
				"x": 3.3786348006,
				"y": -1.4395749109,
				"z": -3.1113914443,
				"element": "O" 
			},
			{
				"x": 3.0485042923,
				"y": -3.5666563622,
				"z": -2.5428859373,
				"element": "O" 
			},
			{
				"x": -1.9532595961,
				"y": 2.8919921493,
				"z": 0.2483788307,
				"element": "H" 
			},
			{
				"x": -3.1914411701,
				"y": 2.4695668312,
				"z": -0.9500003025,
				"element": "H" 
			},
			{
				"x": -1.5710045686,
				"y": 2.9629765859,
				"z": -1.4822868311,
				"element": "H" 
			},
			{
				"x": -2.2187643647,
				"y": 0.3951515929,
				"z": 0.0911816422,
				"element": "H" 
			},
			{
				"x": -1.8571000988,
				"y": 0.4677267912,
				"z": -1.6488237365,
				"element": "H" 
			},
			{
				"x": -0.0823091132,
				"y": 1.0848379656,
				"z": 2.1357414032,
				"element": "H" 
			},
			{
				"x": -1.1791199753,
				"y": 0.3458892494,
				"z": 3.3408698767,
				"element": "H" 
			},
			{
				"x": 0.5037163185,
				"y": -0.2315847599,
				"z": 3.2045879362,
				"element": "H" 
			},
			{
				"x": 2.0101828274,
				"y": -3.7953307553,
				"z": -0.2442238003,
				"element": "H" 
			},
			{
				"x": 1.3496413885,
				"y": 0.0139908079,
				"z": -2.1609648213,
				"element": "H" 
			},
			{
				"x": 3.2079193436,
				"y": -0.5649962226,
				"z": -2.7353199496,
				"element": "H" 
			}
		],
		 "valence_orbital": [ 
			{
				"type": "occ",
				"energy": -0.2903,
				"method": "rhf"
			},
			{
				"type": "occ",
				"energy": -0.2864,
				"method": "rhf"
			},
			{
				"type": "occ",
				"energy": -0.27439,
				"method": "rhf"
			},
			{
				"type": "occ",
				"energy": -0.25496,
				"method": "rhf"
			},
			{
				"type": "occ",
				"energy": -0.25362,
				"method": "rhf"
			},
			{
				"type": "unocc",
				"energy": -0.05622,
				"method": "rhf"
			},
			{
				"type": "unocc",
				"energy": -0.02847,
				"method": "rhf"
			},
			{
				"type": "unocc",
				"energy": -0.0015,
				"method": "rhf"
			},
			{
				"type": "unocc",
				"energy": 0.04169,
				"method": "rhf"
			},
			{
				"type": "unocc",
				"energy": 0.06021,
				"method": "rhf"
			}
		],
		"cosmo_sigma_profile": { 
			"-0.025": 0.0,
			"-0.024": 0.0,
			"-0.023": 0.0,
			"-0.022": 0.0,
			"-0.021": 0.0,
			"-0.02": 0.0370745154057,
			"-0.019": 0.458196298935,
			"-0.018": 0.969296982651,
			"-0.017": 1.17874501775,
			"-0.016": 0.823349000347,
			"-0.015": 0.518158056795,
			"-0.014": 0.91423199003,
			"-0.013": 1.49909091129,
			"-0.012": 1.2796318443,
			"-0.011": 0.975040349395,
			"-0.01": 1.18671009692,
			"-0.009": 1.25610864461,
			"-0.008": 1.84529159358,
			"-0.007": 2.34858377151,
			"-0.006": 5.18988533186,
			"-0.005": 10.7846240691,
			"-0.004": 22.722335461,
			"-0.003": 31.9541265716,
			"-0.002": 23.8023520751,
			"-0.001": 23.1127399116,
			"0.0": 25.8927923029,
			"0.001": 20.8614134473,
			"0.002": 13.6456185749,
			"0.003": 11.4455693669,
			"0.004": 13.0052948862,
			"0.005": 7.53548342825,
			"0.006": 4.77165294985,
			"0.007": 4.87298181592,
			"0.008": 5.08538608935,
			"0.009": 5.42612295204,
			"0.01": 7.00843124637,
			"0.011": 6.18019798247,
			"0.012": 3.95306523736,
			"0.013": 0.932422566389,
			"0.014": 0.0,
			"0.015": 0.0,
			"0.016": 0.0,
			"0.017": 0.0,
			"0.018": 0.0,
			"0.019": 0.0,
			"0.02": 0.0,
			"0.021": 0.0,
			"0.022": 0.0,
			"0.023": 0.0,
			"0.024": 0.0,
			"0.025": 0.0
		}
	}
}
