{
	 "smiles": "CC(C)C(NC(=O)C=CC1=CC=C(C=C1)C(N)=O)C(O)=O", 
	 "Tm": 509.15, 
	 "num_atms": 39, 
	 "gaussian": { 
		 "optdone": 1, 
		 "sigma_profile": "yes", 
		 "theory": "DFT", 
		 "functional": "B3LYP", 
		 "basiset": "6-31G**", 
		 "properties": { 
			 "R2extent": 10515.4379, 
			 "electric_dipole_moment_norm": 3.278942944, 
			 "electric_quadrupole_moment_norm": 28.5561363978, 
			 "total_energy": -992.878471511, 
			 "HOMO_LUMO_gap": 0.16121, 
			 "cosmo_polarized_energy": -27.16, 
			 "cosmo_cavitation_energy": 43.19, 
			 "cosmo_dispersion_energy": -29.77, 
			 "cosmo_repulsion_energy": 2.29, 
			 "cosmo_total_nonelectrostatic_energy": 15.72, 
			 "SMD_solvation_energy": 9.9 
		},
		"coords": [
			{
				"x": 1.3256912532,
				"y": -0.4156580184,
				"z": -3.463384687,
				"element": "C" 
			},
			{
				"x": 0.3126964477,
				"y": -1.5450267135,
				"z": -3.6911411275,
				"element": "C" 
			},
			{
				"x": 1.0055452904,
				"y": -2.8681964966,
				"z": -4.0538121387,
				"element": "C" 
			},
			{
				"x": -0.6577982817,
				"y": -1.6840703962,
				"z": -2.4888695658,
				"element": "C" 
			},
			{
				"x": 0.0136763419,
				"y": -2.1158572513,
				"z": -1.253973355,
				"element": "N" 
			},
			{
				"x": 0.0069604587,
				"y": -1.4214033135,
				"z": -0.0363770389,
				"element": "C" 
			},
			{
				"x": 0.9701688464,
				"y": -1.5410737656,
				"z": 0.7145643126,
				"element": "O" 
			},
			{
				"x": -1.242001691,
				"y": -0.6799760271,
				"z": 0.2517515936,
				"element": "C" 
			},
			{
				"x": -1.4801258314,
				"y": 0.3538070058,
				"z": 1.095169782,
				"element": "C" 
			},
			{
				"x": -0.6667934142,
				"y": 1.1732769887,
				"z": 1.9977051397,
				"element": "C" 
			},
			{
				"x": -1.2737775541,
				"y": 2.3496612948,
				"z": 2.4915418769,
				"element": "C" 
			},
			{
				"x": -0.596725275,
				"y": 3.2107544579,
				"z": 3.3429820304,
				"element": "C" 
			},
			{
				"x": 0.708376724,
				"y": 2.9117596313,
				"z": 3.7544084288,
				"element": "C" 
			},
			{
				"x": 1.3204200331,
				"y": 1.7456632412,
				"z": 3.2725207017,
				"element": "C" 
			},
			{
				"x": 0.6500060333,
				"y": 0.8845111093,
				"z": 2.4091856895,
				"element": "C" 
			},
			{
				"x": 1.379182215,
				"y": 3.8834613339,
				"z": 4.6856474145,
				"element": "C" 
			},
			{
				"x": 2.486981514,
				"y": 3.4220756373,
				"z": 5.3535615844,
				"element": "N" 
			},
			{
				"x": 0.970584701,
				"y": 5.0299979805,
				"z": 4.8240056796,
				"element": "O" 
			},
			{
				"x": -1.8392360327,
				"y": -2.6101298721,
				"z": -2.8558509127,
				"element": "C" 
			},
			{
				"x": -2.0966532919,
				"y": -3.590920009,
				"z": -1.9725447054,
				"element": "O" 
			},
			{
				"x": -2.4946106127,
				"y": -2.4493416734,
				"z": -3.8574662708,
				"element": "O" 
			},
			{
				"x": 1.9899746472,
				"y": -0.6285634682,
				"z": -2.6181144744,
				"element": "H" 
			},
			{
				"x": 0.8250504569,
				"y": 0.5374133451,
				"z": -3.2620364142,
				"element": "H" 
			},
			{
				"x": 1.9539634134,
				"y": -0.2824437699,
				"z": -4.3495220811,
				"element": "H" 
			},
			{
				"x": -0.3384303947,
				"y": -1.2721324696,
				"z": -4.5285500776,
				"element": "H" 
			},
			{
				"x": 1.6986415496,
				"y": -3.2066731547,
				"z": -3.2729225239,
				"element": "H" 
			},
			{
				"x": 1.5996963412,
				"y": -2.7416542337,
				"z": -4.9637338659,
				"element": "H" 
			},
			{
				"x": 0.282325435,
				"y": -3.6681419419,
				"z": -4.2402369219,
				"element": "H" 
			},
			{
				"x": -1.1011520426,
				"y": -0.6982173894,
				"z": -2.3149086045,
				"element": "H" 
			},
			{
				"x": 0.9132720319,
				"y": -2.5669396419,
				"z": -1.3845321136,
				"element": "H" 
			},
			{
				"x": -2.1062599902,
				"y": -1.0295709665,
				"z": -0.3072205807,
				"element": "H" 
			},
			{
				"x": -2.5172911763,
				"y": 0.6886245826,
				"z": 1.0743729534,
				"element": "H" 
			},
			{
				"x": -2.2898977759,
				"y": 2.589155594,
				"z": 2.1887045051,
				"element": "H" 
			},
			{
				"x": -1.0565776261,
				"y": 4.1226717006,
				"z": 3.707754978,
				"element": "H" 
			},
			{
				"x": 2.3448968119,
				"y": 1.5109219296,
				"z": 3.5467318959,
				"element": "H" 
			},
			{
				"x": 1.1274359786,
				"y": -0.0193093813,
				"z": 2.0543237179,
				"element": "H" 
			},
			{
				"x": 2.6335203489,
				"y": 2.4341404921,
				"z": 5.4880507175,
				"element": "H" 
			},
			{
				"x": 2.858460536,
				"y": 4.0423887924,
				"z": 6.0584758901,
				"element": "H" 
			},
			{
				"x": -1.4134964187,
				"y": -3.5232851632,
				"z": -1.2762614321,
				"element": "H" 
			}
		],
		 "valence_orbital": [ 
			{
				"type": "occ",
				"energy": -0.27695,
				"method": "rhf"
			},
			{
				"type": "occ",
				"energy": -0.26612,
				"method": "rhf"
			},
			{
				"type": "occ",
				"energy": -0.25819,
				"method": "rhf"
			},
			{
				"type": "occ",
				"energy": -0.25644,
				"method": "rhf"
			},
			{
				"type": "occ",
				"energy": -0.24642,
				"method": "rhf"
			},
			{
				"type": "unocc",
				"energy": -0.08521,
				"method": "rhf"
			},
			{
				"type": "unocc",
				"energy": -0.0221,
				"method": "rhf"
			},
			{
				"type": "unocc",
				"energy": -0.01309,
				"method": "rhf"
			},
			{
				"type": "unocc",
				"energy": 0.00241,
				"method": "rhf"
			},
			{
				"type": "unocc",
				"energy": 0.04102,
				"method": "rhf"
			}
		],
		"cosmo_sigma_profile": { 
			"-0.025": 0.0,
			"-0.024": 0.0,
			"-0.023": 0.0,
			"-0.022": 0.0,
			"-0.021": 0.0,
			"-0.02": 0.0,
			"-0.019": 0.0,
			"-0.018": 0.0,
			"-0.017": 0.0,
			"-0.016": 0.0,
			"-0.015": 0.134810657419,
			"-0.014": 2.55431837991,
			"-0.013": 2.53040267139,
			"-0.012": 4.15018262177,
			"-0.011": 5.64847878968,
			"-0.01": 6.07855108853,
			"-0.009": 6.91568366392,
			"-0.008": 8.41142521759,
			"-0.007": 14.0374135878,
			"-0.006": 13.568294564,
			"-0.005": 13.9060895115,
			"-0.004": 18.992319245,
			"-0.003": 23.5883861949,
			"-0.002": 22.9773983348,
			"-0.001": 25.2087296369,
			"0.0": 28.3452211305,
			"0.001": 21.9404245444,
			"0.002": 19.6519087672,
			"0.003": 23.1395483825,
			"0.004": 11.33267289,
			"0.005": 6.69054717942,
			"0.006": 6.49747276559,
			"0.007": 5.96746542332,
			"0.008": 5.37760209692,
			"0.009": 6.43314979015,
			"0.01": 8.11330489232,
			"0.011": 8.05786590659,
			"0.012": 9.99630547153,
			"0.013": 7.75429757852,
			"0.014": 3.59039008505,
			"0.015": 0.151375452791,
			"0.016": 0.0,
			"0.017": 0.0,
			"0.018": 0.0,
			"0.019": 0.0,
			"0.02": 0.0,
			"0.021": 0.0,
			"0.022": 0.0,
			"0.023": 0.0,
			"0.024": 0.0,
			"0.025": 0.0
		}
	}
}
