{
	 "smiles": "OC(=O)C#CC(O)=O", 
	 "Tm": 457.15, 
	 "num_atms": 10, 
	 "gaussian": { 
		 "optdone": 1, 
		 "sigma_profile": "yes", 
		 "theory": "DFT", 
		 "functional": "B3LYP", 
		 "basiset": "6-31G**", 
		 "properties": { 
			 "R2extent": 1472.2716, 
			 "electric_dipole_moment_norm": 3.11358046146, 
			 "electric_quadrupole_moment_norm": 12.2172343155, 
			 "total_energy": -454.454691303, 
			 "HOMO_LUMO_gap": 0.19878, 
			 "cosmo_polarized_energy": -15.95, 
			 "cosmo_cavitation_energy": 17.58, 
			 "cosmo_dispersion_energy": -12.49, 
			 "cosmo_repulsion_energy": 1.11, 
			 "cosmo_total_nonelectrostatic_energy": 6.2, 
			 "SMD_solvation_energy": 6.61 
		},
		"coords": [
			{
				"x": 3.1066987935,
				"y": -0.012640219,
				"z": -1.0127600735,
				"element": "O" 
			},
			{
				"x": 1.8540546777,
				"y": -0.4963082404,
				"z": -1.1688793014,
				"element": "C" 
			},
			{
				"x": 1.4978003992,
				"y": -1.0292377984,
				"z": -2.1880395853,
				"element": "O" 
			},
			{
				"x": 0.985585942,
				"y": -0.3150032075,
				"z": -0.0077900306,
				"element": "C" 
			},
			{
				"x": 0.2374765511,
				"y": -0.1823990648,
				"z": 0.9346928315,
				"element": "C" 
			},
			{
				"x": -0.5777628473,
				"y": 0.0259790704,
				"z": 2.1190945357,
				"element": "C" 
			},
			{
				"x": -1.8224583542,
				"y": -0.4577065939,
				"z": 1.9575241799,
				"element": "O" 
			},
			{
				"x": -0.1740570552,
				"y": 0.570316023,
				"z": 3.1227452629,
				"element": "O" 
			},
			{
				"x": 3.2059630116,
				"y": 0.3787427712,
				"z": -0.1315069189,
				"element": "H" 
			},
			{
				"x": -2.3000011185,
				"y": -0.2804427406,
				"z": 2.7866190998,
				"element": "H" 
			}
		],
		 "valence_orbital": [ 
			{
				"type": "occ",
				"energy": -0.34555,
				"method": "rhf"
			},
			{
				"type": "occ",
				"energy": -0.34483,
				"method": "rhf"
			},
			{
				"type": "occ",
				"energy": -0.32456,
				"method": "rhf"
			},
			{
				"type": "occ",
				"energy": -0.31272,
				"method": "rhf"
			},
			{
				"type": "occ",
				"energy": -0.29734,
				"method": "rhf"
			},
			{
				"type": "unocc",
				"energy": -0.09856,
				"method": "rhf"
			},
			{
				"type": "unocc",
				"energy": -0.00705,
				"method": "rhf"
			},
			{
				"type": "unocc",
				"energy": 0.00629,
				"method": "rhf"
			},
			{
				"type": "unocc",
				"energy": 0.05798,
				"method": "rhf"
			},
			{
				"type": "unocc",
				"energy": 0.06571,
				"method": "rhf"
			}
		],
		"cosmo_sigma_profile": { 
			"-0.025": 0.0,
			"-0.024": 0.0,
			"-0.023": 0.0,
			"-0.022": 0.0,
			"-0.021": 0.029530099412,
			"-0.02": 1.58548703608,
			"-0.019": 2.0135814448,
			"-0.018": 1.74941662898,
			"-0.017": 1.784896932,
			"-0.016": 1.60106654144,
			"-0.015": 2.03261194262,
			"-0.014": 1.50526714893,
			"-0.013": 1.46297338517,
			"-0.012": 1.98544259669,
			"-0.011": 1.42995767494,
			"-0.01": 0.965877380888,
			"-0.009": 2.22255173227,
			"-0.008": 2.46891103638,
			"-0.007": 2.65111185779,
			"-0.006": 3.89159691152,
			"-0.005": 6.24981091362,
			"-0.004": 5.70040203841,
			"-0.003": 6.13569948231,
			"-0.002": 5.64009753374,
			"-0.001": 8.62774352585,
			"0.0": 7.91723772241,
			"0.001": 6.61569491804,
			"0.002": 7.11846162336,
			"0.003": 6.33777234163,
			"0.004": 4.63129192263,
			"0.005": 4.52165129612,
			"0.006": 6.40002909204,
			"0.007": 6.70915316964,
			"0.008": 7.09603835084,
			"0.009": 9.43130670204,
			"0.01": 10.5833950814,
			"0.011": 3.08692725912,
			"0.012": 0.0313837278821,
			"0.013": 0.0,
			"0.014": 0.0,
			"0.015": 0.0,
			"0.016": 0.0,
			"0.017": 0.0,
			"0.018": 0.0,
			"0.019": 0.0,
			"0.02": 0.0,
			"0.021": 0.0,
			"0.022": 0.0,
			"0.023": 0.0,
			"0.024": 0.0,
			"0.025": 0.0
		}
	}
}
