{
	 "smiles": "NC(=O)NCC(O)=O", 
	 "Tm": 448.15, 
	 "num_atms": 14, 
	 "gaussian": { 
		 "optdone": 1, 
		 "sigma_profile": "yes", 
		 "theory": "DFT", 
		 "functional": "B3LYP", 
		 "basiset": "6-31G**", 
		 "properties": { 
			 "R2extent": 1397.4377, 
			 "electric_dipole_moment_norm": 4.69352933622, 
			 "electric_quadrupole_moment_norm": 5.27973038421, 
			 "total_energy": -453.143932007, 
			 "HOMO_LUMO_gap": 0.2548, 
			 "cosmo_polarized_energy": -20.81, 
			 "cosmo_cavitation_energy": 19.1, 
			 "cosmo_dispersion_energy": -13.95, 
			 "cosmo_repulsion_energy": 1.22, 
			 "cosmo_total_nonelectrostatic_energy": 6.37, 
			 "SMD_solvation_energy": 5.18 
		},
		"coords": [
			{
				"x": 0.9681632282,
				"y": -0.0039065582,
				"z": -1.6296359653,
				"element": "N" 
			},
			{
				"x": -0.3179109384,
				"y": 0.2829019343,
				"z": -1.1995295938,
				"element": "C" 
			},
			{
				"x": -0.9382690263,
				"y": 1.2658259275,
				"z": -1.5831613247,
				"element": "O" 
			},
			{
				"x": -0.8692698129,
				"y": -0.6757348438,
				"z": -0.3672606131,
				"element": "N" 
			},
			{
				"x": -2.1140089216,
				"y": -0.411717715,
				"z": 0.307731288,
				"element": "C" 
			},
			{
				"x": -2.0180002461,
				"y": -0.0535459442,
				"z": 1.7853203764,
				"element": "C" 
			},
			{
				"x": -0.7434925873,
				"y": 0.0992151421,
				"z": 2.2173728224,
				"element": "O" 
			},
			{
				"x": -2.9802863232,
				"y": 0.0777369981,
				"z": 2.5063966142,
				"element": "O" 
			},
			{
				"x": 1.4074752585,
				"y": 0.7757915151,
				"z": -2.0965829259,
				"element": "H" 
			},
			{
				"x": 1.5803641628,
				"y": -0.5369646873,
				"z": -1.0285873424,
				"element": "H" 
			},
			{
				"x": -0.2767260487,
				"y": -1.4031600298,
				"z": 0.0028730848,
				"element": "H" 
			},
			{
				"x": -2.5792753226,
				"y": 0.4353411751,
				"z": -0.2058913307,
				"element": "H" 
			},
			{
				"x": -2.8066397335,
				"y": -1.2573009859,
				"z": 0.2309978474,
				"element": "H" 
			},
			{
				"x": -0.8116236891,
				"y": 0.339318072,
				"z": 3.1571570626,
				"element": "H" 
			}
		],
		 "valence_orbital": [ 
			{
				"type": "occ",
				"energy": -0.3242,
				"method": "rhf"
			},
			{
				"type": "occ",
				"energy": -0.29699,
				"method": "rhf"
			},
			{
				"type": "occ",
				"energy": -0.27564,
				"method": "rhf"
			},
			{
				"type": "occ",
				"energy": -0.25956,
				"method": "rhf"
			},
			{
				"type": "occ",
				"energy": -0.25065,
				"method": "rhf"
			},
			{
				"type": "unocc",
				"energy": 0.00415,
				"method": "rhf"
			},
			{
				"type": "unocc",
				"energy": 0.04634,
				"method": "rhf"
			},
			{
				"type": "unocc",
				"energy": 0.06311,
				"method": "rhf"
			},
			{
				"type": "unocc",
				"energy": 0.07756,
				"method": "rhf"
			},
			{
				"type": "unocc",
				"energy": 0.11223,
				"method": "rhf"
			}
		],
		"cosmo_sigma_profile": { 
			"-0.025": 0.0,
			"-0.024": 0.0,
			"-0.023": 0.0,
			"-0.022": 0.0,
			"-0.021": 0.0,
			"-0.02": 0.0,
			"-0.019": 0.193425204508,
			"-0.018": 0.743363116222,
			"-0.017": 1.0718521354,
			"-0.016": 1.84063562,
			"-0.015": 2.28928751078,
			"-0.014": 2.98256895974,
			"-0.013": 3.80758998221,
			"-0.012": 4.17375004273,
			"-0.011": 3.47199913043,
			"-0.01": 4.01447590409,
			"-0.009": 3.0393996603,
			"-0.008": 3.59602540222,
			"-0.007": 6.50625420801,
			"-0.006": 6.66636397781,
			"-0.005": 5.30744556307,
			"-0.004": 6.61875894925,
			"-0.003": 5.76685738634,
			"-0.002": 4.53084500954,
			"-0.001": 5.91578552212,
			"0.0": 5.74589478089,
			"0.001": 3.36541506533,
			"0.002": 4.54256795232,
			"0.003": 6.73349207701,
			"0.004": 6.84071687974,
			"0.005": 5.58258220891,
			"0.006": 5.3681957387,
			"0.007": 5.10084331602,
			"0.008": 4.02941421975,
			"0.009": 3.69516617201,
			"0.01": 4.18466955122,
			"0.011": 6.13169107704,
			"0.012": 6.36582840899,
			"0.013": 2.89805285007,
			"0.014": 5.59180034775,
			"0.015": 1.3773696235,
			"0.016": 0.0,
			"0.017": 0.0,
			"0.018": 0.0,
			"0.019": 0.0,
			"0.02": 0.0,
			"0.021": 0.0,
			"0.022": 0.0,
			"0.023": 0.0,
			"0.024": 0.0,
			"0.025": 0.0
		}
	}
}
