{
	 "smiles": "NC1=C(Cl)C=C(C=C1Cl)C#N", 
	 "Tm": 391.15, 
	 "num_atms": 15, 
	 "gaussian": { 
		 "optdone": 1, 
		 "sigma_profile": "yes", 
		 "theory": "DFT", 
		 "functional": "B3LYP", 
		 "basiset": "6-31G**", 
		 "properties": { 
			 "R2extent": 3265.6967, 
			 "electric_dipole_moment_norm": 5.27590518584, 
			 "electric_quadrupole_moment_norm": 11.7237861073, 
			 "total_energy": -1299.03202816, 
			 "HOMO_LUMO_gap": 0.18555, 
			 "cosmo_polarized_energy": -11.3, 
			 "cosmo_cavitation_energy": 24.05, 
			 "cosmo_dispersion_energy": -17.73, 
			 "cosmo_repulsion_energy": 1.43, 
			 "cosmo_total_nonelectrostatic_energy": 7.75, 
			 "SMD_solvation_energy": 4.94 
		},
		"coords": [
			{
				"x": 0.2391659151,
				"y": 2.4211893805,
				"z": 0.7899068236,
				"element": "N" 
			},
			{
				"x": -0.4598677981,
				"y": 1.5658472246,
				"z": -0.0076997555,
				"element": "C" 
			},
			{
				"x": -1.8324469768,
				"y": 1.290145801,
				"z": 0.2061409035,
				"element": "C" 
			},
			{
				"x": -2.6294002791,
				"y": 2.0409777122,
				"z": 1.5815066467,
				"element": "Cl" 
			},
			{
				"x": -2.563115228,
				"y": 0.4548197447,
				"z": -0.6212161863,
				"element": "C" 
			},
			{
				"x": -1.9403310235,
				"y": -0.1573291538,
				"z": -1.7211690135,
				"element": "C" 
			},
			{
				"x": -0.5788315243,
				"y": 0.0862579048,
				"z": -1.9650218371,
				"element": "C" 
			},
			{
				"x": 0.1314582207,
				"y": 0.9253762352,
				"z": -1.1238747237,
				"element": "C" 
			},
			{
				"x": 1.8364029208,
				"y": 1.2115356113,
				"z": -1.4429001601,
				"element": "Cl" 
			},
			{
				"x": -2.6846292452,
				"y": -1.02225082,
				"z": -2.5830183387,
				"element": "C" 
			},
			{
				"x": -3.2902779015,
				"y": -1.7266625546,
				"z": -3.2841325611,
				"element": "N" 
			},
			{
				"x": 1.2437931114,
				"y": 2.435178436,
				"z": 0.7138587619,
				"element": "H" 
			},
			{
				"x": -0.1673759487,
				"y": 2.6973076808,
				"z": 1.6695309385,
				"element": "H" 
			},
			{
				"x": -3.6114901747,
				"y": 0.2756516268,
				"z": -0.4154520927,
				"element": "H" 
			},
			{
				"x": -0.0808540681,
				"y": -0.3801448295,
				"z": -2.8064594057,
				"element": "H" 
			}
		],
		 "valence_orbital": [ 
			{
				"type": "occ",
				"energy": -0.34204,
				"method": "rhf"
			},
			{
				"type": "occ",
				"energy": -0.33077,
				"method": "rhf"
			},
			{
				"type": "occ",
				"energy": -0.31951,
				"method": "rhf"
			},
			{
				"type": "occ",
				"energy": -0.27178,
				"method": "rhf"
			},
			{
				"type": "occ",
				"energy": -0.23497,
				"method": "rhf"
			},
			{
				"type": "unocc",
				"energy": -0.04942,
				"method": "rhf"
			},
			{
				"type": "unocc",
				"energy": -0.04001,
				"method": "rhf"
			},
			{
				"type": "unocc",
				"energy": -0.01179,
				"method": "rhf"
			},
			{
				"type": "unocc",
				"energy": 0.01917,
				"method": "rhf"
			},
			{
				"type": "unocc",
				"energy": 0.04758,
				"method": "rhf"
			}
		],
		"cosmo_sigma_profile": { 
			"-0.025": 0.0,
			"-0.024": 0.0,
			"-0.023": 0.0,
			"-0.022": 0.0,
			"-0.021": 0.0,
			"-0.02": 0.0,
			"-0.019": 0.0,
			"-0.018": 0.0,
			"-0.017": 0.0,
			"-0.016": 0.0,
			"-0.015": 0.0,
			"-0.014": 0.617372546418,
			"-0.013": 2.16805153737,
			"-0.012": 1.6531174887,
			"-0.011": 2.12527760102,
			"-0.01": 2.06516484315,
			"-0.009": 4.5780481148,
			"-0.008": 6.00615800077,
			"-0.007": 4.77321087929,
			"-0.006": 5.75431866406,
			"-0.005": 6.77356816673,
			"-0.004": 5.5441331012,
			"-0.003": 8.85071897811,
			"-0.002": 12.3324709886,
			"-0.001": 19.9516862394,
			"0.0": 27.2908201037,
			"0.001": 22.3637754638,
			"0.002": 11.3014387088,
			"0.003": 15.6440144067,
			"0.004": 11.63165299,
			"0.005": 3.44978594883,
			"0.006": 3.36146405357,
			"0.007": 3.11911136256,
			"0.008": 3.19974298145,
			"0.009": 3.8346965678,
			"0.01": 3.18297024746,
			"0.011": 3.07360496433,
			"0.012": 2.37321098952,
			"0.013": 1.91794022894,
			"0.014": 0.215897615901,
			"0.015": 0.0,
			"0.016": 0.0,
			"0.017": 0.0,
			"0.018": 0.0,
			"0.019": 0.0,
			"0.02": 0.0,
			"0.021": 0.0,
			"0.022": 0.0,
			"0.023": 0.0,
			"0.024": 0.0,
			"0.025": 0.0
		}
	}
}
