{
	 "smiles": "CCOC1=C(N)C=C(C=C1)N(=O)=O", 
	 "Tm": 369.65, 
	 "num_atms": 23, 
	 "gaussian": { 
		 "optdone": 1, 
		 "sigma_profile": "yes", 
		 "theory": "DFT", 
		 "functional": "B3LYP", 
		 "basiset": "6-31G**", 
		 "properties": { 
			 "R2extent": 4186.512, 
			 "electric_dipole_moment_norm": 7.04854244933, 
			 "electric_quadrupole_moment_norm": 23.9161020116, 
			 "total_energy": -645.955705449, 
			 "HOMO_LUMO_gap": 0.13936, 
			 "cosmo_polarized_energy": -13.52, 
			 "cosmo_cavitation_energy": 27.49, 
			 "cosmo_dispersion_energy": -20.24, 
			 "cosmo_repulsion_energy": 1.62, 
			 "cosmo_total_nonelectrostatic_energy": 8.87, 
			 "SMD_solvation_energy": 7.31 
		},
		"coords": [
			{
				"x": -0.0790736211,
				"y": 1.3919257005,
				"z": -2.8738713067,
				"element": "C" 
			},
			{
				"x": 0.2316743505,
				"y": 0.267152282,
				"z": -1.9030259292,
				"element": "C" 
			},
			{
				"x": -0.7368841455,
				"y": 0.3229511117,
				"z": -0.8509478207,
				"element": "O" 
			},
			{
				"x": -0.6756458505,
				"y": -0.592928303,
				"z": 0.1566770713,
				"element": "C" 
			},
			{
				"x": -1.6850548905,
				"y": -0.4362436893,
				"z": 1.1470142268,
				"element": "C" 
			},
			{
				"x": -2.6486553248,
				"y": 0.5469059538,
				"z": 0.9745667937,
				"element": "N" 
			},
			{
				"x": -1.6946697954,
				"y": -1.3141146411,
				"z": 2.2286400957,
				"element": "C" 
			},
			{
				"x": -0.7291441544,
				"y": -2.3208196598,
				"z": 2.3117479691,
				"element": "C" 
			},
			{
				"x": 0.2563719827,
				"y": -2.4863253474,
				"z": 1.3467730078,
				"element": "C" 
			},
			{
				"x": 0.2765414869,
				"y": -1.6071821844,
				"z": 0.2623650746,
				"element": "C" 
			},
			{
				"x": -0.7606178618,
				"y": -3.2285343525,
				"z": 3.4596720954,
				"element": "N" 
			},
			{
				"x": -1.6397221921,
				"y": -3.0550102467,
				"z": 4.3070902704,
				"element": "O" 
			},
			{
				"x": 0.0935775748,
				"y": -4.115553321,
				"z": 3.5172060878,
				"element": "O" 
			},
			{
				"x": -0.0189656094,
				"y": 2.3628377531,
				"z": -2.3740065541,
				"element": "H" 
			},
			{
				"x": -1.0837361141,
				"y": 1.2768322929,
				"z": -3.2898876091,
				"element": "H" 
			},
			{
				"x": 0.6402836956,
				"y": 1.3830720113,
				"z": -3.6981525421,
				"element": "H" 
			},
			{
				"x": 0.1753191475,
				"y": -0.7101595863,
				"z": -2.4006362645,
				"element": "H" 
			},
			{
				"x": 1.2400325533,
				"y": 0.3763145089,
				"z": -1.481204168,
				"element": "H" 
			},
			{
				"x": -3.1097222133,
				"y": 0.8632017238,
				"z": 1.8150121283,
				"element": "H" 
			},
			{
				"x": -2.3843724478,
				"y": 1.2917589588,
				"z": 0.3460275136,
				"element": "H" 
			},
			{
				"x": -2.4435465838,
				"y": -1.2337438892,
				"z": 3.0071814199,
				"element": "H" 
			},
			{
				"x": 0.9846396435,
				"y": -3.2795381938,
				"z": 1.449351709,
				"element": "H" 
			},
			{
				"x": 1.0422703698,
				"y": -1.7189988822,
				"z": -0.495293269,
				"element": "H" 
			}
		],
		 "valence_orbital": [ 
			{
				"type": "occ",
				"energy": -0.29375,
				"method": "rhf"
			},
			{
				"type": "occ",
				"energy": -0.29274,
				"method": "rhf"
			},
			{
				"type": "occ",
				"energy": -0.27464,
				"method": "rhf"
			},
			{
				"type": "occ",
				"energy": -0.25317,
				"method": "rhf"
			},
			{
				"type": "occ",
				"energy": -0.21087,
				"method": "rhf"
			},
			{
				"type": "unocc",
				"energy": -0.07151,
				"method": "rhf"
			},
			{
				"type": "unocc",
				"energy": -0.00563,
				"method": "rhf"
			},
			{
				"type": "unocc",
				"energy": 0.02707,
				"method": "rhf"
			},
			{
				"type": "unocc",
				"energy": 0.07469,
				"method": "rhf"
			},
			{
				"type": "unocc",
				"energy": 0.08274,
				"method": "rhf"
			}
		],
		"cosmo_sigma_profile": { 
			"-0.025": 0.0,
			"-0.024": 0.0,
			"-0.023": 0.0,
			"-0.022": 0.0,
			"-0.021": 0.0,
			"-0.02": 0.0,
			"-0.019": 0.0,
			"-0.018": 0.0,
			"-0.017": 0.0,
			"-0.016": 0.0,
			"-0.015": 0.0,
			"-0.014": 0.0739094845734,
			"-0.013": 1.28631910385,
			"-0.012": 1.57192370803,
			"-0.011": 1.88101319265,
			"-0.01": 2.86227837757,
			"-0.009": 3.15644044772,
			"-0.008": 2.10865994287,
			"-0.007": 5.87536894497,
			"-0.006": 8.59305665813,
			"-0.005": 13.8106193334,
			"-0.004": 18.3761670439,
			"-0.003": 16.2053693443,
			"-0.002": 14.2173878991,
			"-0.001": 14.2558312159,
			"0.0": 18.1870819947,
			"0.001": 15.8149149684,
			"0.002": 15.0613865623,
			"0.003": 16.0521468339,
			"0.004": 6.61782141486,
			"0.005": 4.70353222426,
			"0.006": 5.42851409352,
			"0.007": 5.43435621171,
			"0.008": 10.0504625405,
			"0.009": 7.35127531843,
			"0.01": 4.61281397114,
			"0.011": 3.11289541568,
			"0.012": 0.598335285018,
			"0.013": 0.496421189426,
			"0.014": 0.103794635122,
			"0.015": 0.0,
			"0.016": 0.0,
			"0.017": 0.0,
			"0.018": 0.0,
			"0.019": 0.0,
			"0.02": 0.0,
			"0.021": 0.0,
			"0.022": 0.0,
			"0.023": 0.0,
			"0.024": 0.0,
			"0.025": 0.0
		}
	}
}
