{
	 "smiles": "FC(F)(F)SC1=CC=C(CBr)C=C1", 
	 "Tm": 328.15, 
	 "num_atms": 19, 
	 "gaussian": { 
		 "optdone": 1, 
		 "sigma_profile": "yes", 
		 "theory": "DFT", 
		 "functional": "B3LYP", 
		 "basiset": "6-31G**", 
		 "properties": { 
			 "R2extent": 6264.1592, 
			 "electric_dipole_moment_norm": 1.62299898028, 
			 "electric_quadrupole_moment_norm": 11.8972277073, 
			 "total_energy": -3577.57654528, 
			 "HOMO_LUMO_gap": 0.19899, 
			 "cosmo_polarized_energy": -6.64, 
			 "cosmo_cavitation_energy": 29.06, 
			 "cosmo_dispersion_energy": -20.99, 
			 "cosmo_repulsion_energy": 1.59, 
			 "cosmo_total_nonelectrostatic_energy": 9.65, 
			 "SMD_solvation_energy": 4.4 
		},
		"coords": [
			{
				"x": 2.3101453617,
				"y": -0.5267843189,
				"z": -2.5884539967,
				"element": "F" 
			},
			{
				"x": 2.7370425323,
				"y": -1.6276755384,
				"z": -1.9419197658,
				"element": "C" 
			},
			{
				"x": 1.7567831635,
				"y": -2.5408262874,
				"z": -2.0310704105,
				"element": "F" 
			},
			{
				"x": 3.8167877839,
				"y": -2.0991752198,
				"z": -2.5855380796,
				"element": "F" 
			},
			{
				"x": 3.2342299144,
				"y": -1.2870295818,
				"z": -0.2194812766,
				"element": "S" 
			},
			{
				"x": 1.6676989056,
				"y": -0.7026764815,
				"z": 0.4334939787,
				"element": "C" 
			},
			{
				"x": 0.9174708101,
				"y": -1.5356837494,
				"z": 1.2718535156,
				"element": "C" 
			},
			{
				"x": -0.2748262096,
				"y": -1.0722332228,
				"z": 1.8236785054,
				"element": "C" 
			},
			{
				"x": -0.7398735978,
				"y": 0.218815847,
				"z": 1.5405452284,
				"element": "C" 
			},
			{
				"x": -2.0303114546,
				"y": 0.7049699419,
				"z": 2.1177631966,
				"element": "C" 
			},
			{
				"x": -1.7671902148,
				"y": 1.6116888677,
				"z": 3.8848209828,
				"element": "Br" 
			},
			{
				"x": 0.0200401904,
				"y": 1.0445546557,
				"z": 0.6999383213,
				"element": "C" 
			},
			{
				"x": 1.2193259729,
				"y": 0.5948610077,
				"z": 0.1543199876,
				"element": "C" 
			},
			{
				"x": 1.2664633007,
				"y": -2.5404993204,
				"z": 1.4848204517,
				"element": "H" 
			},
			{
				"x": -0.8517518943,
				"y": -1.7201050785,
				"z": 2.4779156141,
				"element": "H" 
			},
			{
				"x": -2.5111481373,
				"y": 1.4582577183,
				"z": 1.4965342941,
				"element": "H" 
			},
			{
				"x": -2.7267349536,
				"y": -0.1040600475,
				"z": 2.3300593478,
				"element": "H" 
			},
			{
				"x": -0.3257177256,
				"y": 2.0509577698,
				"z": 0.4802586274,
				"element": "H" 
			},
			{
				"x": 1.8053662521,
				"y": 1.2412430383,
				"z": -0.4894385223,
				"element": "H" 
			}
		],
		 "valence_orbital": [ 
			{
				"type": "occ",
				"energy": -0.28499,
				"method": "rhf"
			},
			{
				"type": "occ",
				"energy": -0.28067,
				"method": "rhf"
			},
			{
				"type": "occ",
				"energy": -0.27347,
				"method": "rhf"
			},
			{
				"type": "occ",
				"energy": -0.27262,
				"method": "rhf"
			},
			{
				"type": "occ",
				"energy": -0.2586,
				"method": "rhf"
			},
			{
				"type": "unocc",
				"energy": -0.05961,
				"method": "rhf"
			},
			{
				"type": "unocc",
				"energy": -0.0261,
				"method": "rhf"
			},
			{
				"type": "unocc",
				"energy": 0.00095,
				"method": "rhf"
			},
			{
				"type": "unocc",
				"energy": 0.02136,
				"method": "rhf"
			},
			{
				"type": "unocc",
				"energy": 0.05251,
				"method": "rhf"
			}
		],
		"cosmo_sigma_profile": { 
			"-0.025": 0.0,
			"-0.024": 0.0,
			"-0.023": 0.0,
			"-0.022": 0.0,
			"-0.021": 0.0,
			"-0.02": 0.0,
			"-0.019": 0.0,
			"-0.018": 0.0,
			"-0.017": 0.0,
			"-0.016": 0.0,
			"-0.015": 0.0,
			"-0.014": 0.0,
			"-0.013": 0.0,
			"-0.012": 0.0,
			"-0.011": 0.0,
			"-0.01": 0.0,
			"-0.009": 0.215259736248,
			"-0.008": 6.29322349642,
			"-0.007": 11.6385641614,
			"-0.006": 11.9468351199,
			"-0.005": 10.6768043666,
			"-0.004": 8.7123643955,
			"-0.003": 10.0488451611,
			"-0.002": 12.8494582639,
			"-0.001": 16.1045857949,
			"0.0": 18.5441700711,
			"0.001": 28.5167292875,
			"0.002": 47.6552562921,
			"0.003": 21.4017624758,
			"0.004": 9.73991758193,
			"0.005": 8.9653062767,
			"0.006": 12.9183322163,
			"0.007": 1.94717793184,
			"0.008": 0.0,
			"0.009": 0.0,
			"0.01": 0.0,
			"0.011": 0.0,
			"0.012": 0.0,
			"0.013": 0.0,
			"0.014": 0.0,
			"0.015": 0.0,
			"0.016": 0.0,
			"0.017": 0.0,
			"0.018": 0.0,
			"0.019": 0.0,
			"0.02": 0.0,
			"0.021": 0.0,
			"0.022": 0.0,
			"0.023": 0.0,
			"0.024": 0.0,
			"0.025": 0.0
		}
	}
}
