{
	 "smiles": "NC1=C(CN2CCCC2)C(=O)OC2=CC=CC=C12", 
	 "Tm": 470.15, 
	 "num_atms": 34, 
	 "gaussian": { 
		 "optdone": 1, 
		 "sigma_profile": "yes", 
		 "theory": "DFT", 
		 "functional": "B3LYP", 
		 "basiset": "6-31G**", 
		 "properties": { 
			 "R2extent": 5379.2932, 
			 "electric_dipole_moment_norm": 4.99385341795, 
			 "electric_quadrupole_moment_norm": 16.8923638725, 
			 "total_energy": -803.096792241, 
			 "HOMO_LUMO_gap": 0.16394, 
			 "cosmo_polarized_energy": -14.65, 
			 "cosmo_cavitation_energy": 35.17, 
			 "cosmo_dispersion_energy": -25.74, 
			 "cosmo_repulsion_energy": 1.96, 
			 "cosmo_total_nonelectrostatic_energy": 11.38, 
			 "SMD_solvation_energy": 5.67 
		},
		"coords": [
			{
				"x": -0.7397514432,
				"y": -1.0099630771,
				"z": 1.4608865432,
				"element": "N" 
			},
			{
				"x": 0.2394562454,
				"y": -0.0694562267,
				"z": 1.3053346524,
				"element": "C" 
			},
			{
				"x": 0.0918917458,
				"y": 0.9438085828,
				"z": 0.3765383166,
				"element": "C" 
			},
			{
				"x": -1.1661964352,
				"y": 1.0870509909,
				"z": -0.4483766313,
				"element": "C" 
			},
			{
				"x": -1.5691760106,
				"y": -0.1766638848,
				"z": -1.1213661571,
				"element": "N" 
			},
			{
				"x": -0.6449021102,
				"y": -0.5520253787,
				"z": -2.2126037613,
				"element": "C" 
			},
			{
				"x": -1.0696500032,
				"y": 0.2708636727,
				"z": -3.4579169789,
				"element": "C" 
			},
			{
				"x": -2.5621399687,
				"y": 0.614651195,
				"z": -3.1962111845,
				"element": "C" 
			},
			{
				"x": -2.8625548235,
				"y": -0.0371579803,
				"z": -1.8195092801,
				"element": "C" 
			},
			{
				"x": 1.1209997802,
				"y": 1.9387694966,
				"z": 0.1767320771,
				"element": "C" 
			},
			{
				"x": 1.1005366579,
				"y": 2.8536061794,
				"z": -0.6228476894,
				"element": "O" 
			},
			{
				"x": 2.2711011675,
				"y": 1.8384005783,
				"z": 0.9739970201,
				"element": "O" 
			},
			{
				"x": 2.4134705994,
				"y": 0.8783746517,
				"z": 1.9231991977,
				"element": "C" 
			},
			{
				"x": 3.5919294177,
				"y": 0.9094216711,
				"z": 2.6768869808,
				"element": "C" 
			},
			{
				"x": 3.7948774753,
				"y": -0.0391966576,
				"z": 3.6706534876,
				"element": "C" 
			},
			{
				"x": 2.8244512035,
				"y": -1.0194862256,
				"z": 3.9218966851,
				"element": "C" 
			},
			{
				"x": 1.6595239472,
				"y": -1.047116628,
				"z": 3.1672390187,
				"element": "C" 
			},
			{
				"x": 1.4324832707,
				"y": -0.1050304643,
				"z": 2.1458929955,
				"element": "C" 
			},
			{
				"x": -0.4946353837,
				"y": -1.8691897134,
				"z": 1.9277111711,
				"element": "H" 
			},
			{
				"x": -1.3388532738,
				"y": -1.1013643609,
				"z": 0.6343369708,
				"element": "H" 
			},
			{
				"x": -1.0199742511,
				"y": 1.9194748499,
				"z": -1.1475395624,
				"element": "H" 
			},
			{
				"x": -2.0010554842,
				"y": 1.3583051052,
				"z": 0.212440056,
				"element": "H" 
			},
			{
				"x": 0.3908169894,
				"y": -0.3846289921,
				"z": -1.90872001,
				"element": "H" 
			},
			{
				"x": -0.7676390796,
				"y": -1.6246808642,
				"z": -2.4067801023,
				"element": "H" 
			},
			{
				"x": -0.9259933815,
				"y": -0.2991553183,
				"z": -4.3803336752,
				"element": "H" 
			},
			{
				"x": -0.4685796301,
				"y": 1.1802319326,
				"z": -3.5438735706,
				"element": "H" 
			},
			{
				"x": -2.7121693676,
				"y": 1.6975420468,
				"z": -3.1579754305,
				"element": "H" 
			},
			{
				"x": -3.2259129516,
				"y": 0.226470706,
				"z": -3.9742056745,
				"element": "H" 
			},
			{
				"x": -3.28031995,
				"y": -1.0412308507,
				"z": -1.9632015711,
				"element": "H" 
			},
			{
				"x": -3.5698236863,
				"y": 0.5304098793,
				"z": -1.2082485932,
				"element": "H" 
			},
			{
				"x": 4.3206373643,
				"y": 1.6842045484,
				"z": 2.4649017199,
				"element": "H" 
			},
			{
				"x": 4.7081184541,
				"y": -0.0149732681,
				"z": 4.2575759769,
				"element": "H" 
			},
			{
				"x": 2.9793006246,
				"y": -1.7528695751,
				"z": 4.7067611752,
				"element": "H" 
			},
			{
				"x": 0.9079322912,
				"y": -1.7984966208,
				"z": 3.3900258276,
				"element": "H" 
			}
		],
		 "valence_orbital": [ 
			{
				"type": "occ",
				"energy": -0.26622,
				"method": "rhf"
			},
			{
				"type": "occ",
				"energy": -0.25891,
				"method": "rhf"
			},
			{
				"type": "occ",
				"energy": -0.23988,
				"method": "rhf"
			},
			{
				"type": "occ",
				"energy": -0.2272,
				"method": "rhf"
			},
			{
				"type": "occ",
				"energy": -0.21172,
				"method": "rhf"
			},
			{
				"type": "unocc",
				"energy": -0.04778,
				"method": "rhf"
			},
			{
				"type": "unocc",
				"energy": -0.00605,
				"method": "rhf"
			},
			{
				"type": "unocc",
				"energy": 0.02049,
				"method": "rhf"
			},
			{
				"type": "unocc",
				"energy": 0.06538,
				"method": "rhf"
			},
			{
				"type": "unocc",
				"energy": 0.07657,
				"method": "rhf"
			}
		],
		"cosmo_sigma_profile": { 
			"-0.025": 0.0,
			"-0.024": 0.0,
			"-0.023": 0.0,
			"-0.022": 0.0,
			"-0.021": 0.0,
			"-0.02": 0.0,
			"-0.019": 0.0,
			"-0.018": 0.0,
			"-0.017": 0.0,
			"-0.016": 0.0,
			"-0.015": 0.106348494507,
			"-0.014": 0.848138572222,
			"-0.013": 1.5383692119,
			"-0.012": 0.958219818779,
			"-0.011": 1.8051360953,
			"-0.01": 1.51761730331,
			"-0.009": 1.22648212386,
			"-0.008": 2.14586642984,
			"-0.007": 4.76652525812,
			"-0.006": 8.62707410768,
			"-0.005": 9.66685074459,
			"-0.004": 15.1434960372,
			"-0.003": 25.8140357664,
			"-0.002": 34.4533197341,
			"-0.001": 33.6972981159,
			"0.0": 30.2011002631,
			"0.001": 26.8289313282,
			"0.002": 19.1771692007,
			"0.003": 14.2776053069,
			"0.004": 11.7682757889,
			"0.005": 4.23999804334,
			"0.006": 2.74861446348,
			"0.007": 3.01286327307,
			"0.008": 2.78422134433,
			"0.009": 2.04496980399,
			"0.01": 3.31276230438,
			"0.011": 2.71728929999,
			"0.012": 2.76312925608,
			"0.013": 6.05969681149,
			"0.014": 3.23705052607,
			"0.015": 0.44256608422,
			"0.016": 0.0,
			"0.017": 0.0,
			"0.018": 0.0,
			"0.019": 0.0,
			"0.02": 0.0,
			"0.021": 0.0,
			"0.022": 0.0,
			"0.023": 0.0,
			"0.024": 0.0,
			"0.025": 0.0
		}
	}
}
