{
	 "smiles": "CC1=CC(=O)CC1", 
	 "Tm": 277.15, 
	 "num_atms": 15, 
	 "gaussian": { 
		 "optdone": 1, 
		 "sigma_profile": "yes", 
		 "theory": "DFT", 
		 "functional": "B3LYP", 
		 "basiset": "6-31G**", 
		 "properties": { 
			 "R2extent": 1176.9322, 
			 "electric_dipole_moment_norm": 4.19712922603, 
			 "electric_quadrupole_moment_norm": 5.47643847313, 
			 "total_energy": -308.677899313, 
			 "HOMO_LUMO_gap": 0.19383, 
			 "cosmo_polarized_energy": -9.01, 
			 "cosmo_cavitation_energy": 18.18, 
			 "cosmo_dispersion_energy": -13.57, 
			 "cosmo_repulsion_energy": 1.17, 
			 "cosmo_total_nonelectrostatic_energy": 5.78, 
			 "SMD_solvation_energy": 3.79 
		},
		"coords": [
			{
				"x": -2.5216207421,
				"y": -0.5829571985,
				"z": -2.4516667739,
				"element": "C" 
			},
			{
				"x": -1.1721314489,
				"y": -0.2848674361,
				"z": -1.8812500918,
				"element": "C" 
			},
			{
				"x": -0.5031615439,
				"y": -0.9997262917,
				"z": -0.9573195404,
				"element": "C" 
			},
			{
				"x": 0.8024157054,
				"y": -0.3835345186,
				"z": -0.6488556346,
				"element": "C" 
			},
			{
				"x": 1.6396423166,
				"y": -0.7830964782,
				"z": 0.139452252,
				"element": "O" 
			},
			{
				"x": 0.9217400055,
				"y": 0.8805316169,
				"z": -1.5186114031,
				"element": "C" 
			},
			{
				"x": -0.3883851108,
				"y": 0.9357991778,
				"z": -2.3285330193,
				"element": "C" 
			},
			{
				"x": -3.2126151032,
				"y": 0.2490697662,
				"z": -2.2651212898,
				"element": "H" 
			},
			{
				"x": -2.9536898162,
				"y": -1.4931633631,
				"z": -2.0291265777,
				"element": "H" 
			},
			{
				"x": -2.4636920501,
				"y": -0.6989473949,
				"z": -3.5414931785,
				"element": "H" 
			},
			{
				"x": -0.8433248003,
				"y": -1.9117651741,
				"z": -0.4791361086,
				"element": "H" 
			},
			{
				"x": 1.8133054349,
				"y": 0.8042259644,
				"z": -2.1487741999,
				"element": "H" 
			},
			{
				"x": 1.0646969874,
				"y": 1.7526694934,
				"z": -0.8730497496,
				"element": "H" 
			},
			{
				"x": -0.9644270347,
				"y": 1.8512073493,
				"z": -2.1399984008,
				"element": "H" 
			},
			{
				"x": -0.2175527996,
				"y": 0.9053544873,
				"z": -3.4126162842,
				"element": "H" 
			}
		],
		 "valence_orbital": [ 
			{
				"type": "occ",
				"energy": -0.37768,
				"method": "rhf"
			},
			{
				"type": "occ",
				"energy": -0.35353,
				"method": "rhf"
			},
			{
				"type": "occ",
				"energy": -0.3462,
				"method": "rhf"
			},
			{
				"type": "occ",
				"energy": -0.26127,
				"method": "rhf"
			},
			{
				"type": "occ",
				"energy": -0.23173,
				"method": "rhf"
			},
			{
				"type": "unocc",
				"energy": -0.0379,
				"method": "rhf"
			},
			{
				"type": "unocc",
				"energy": 0.06189,
				"method": "rhf"
			},
			{
				"type": "unocc",
				"energy": 0.08521,
				"method": "rhf"
			},
			{
				"type": "unocc",
				"energy": 0.11197,
				"method": "rhf"
			},
			{
				"type": "unocc",
				"energy": 0.12996,
				"method": "rhf"
			}
		],
		"cosmo_sigma_profile": { 
			"-0.025": 0.0,
			"-0.024": 0.0,
			"-0.023": 0.0,
			"-0.022": 0.0,
			"-0.021": 0.0,
			"-0.02": 0.0,
			"-0.019": 0.0,
			"-0.018": 0.0,
			"-0.017": 0.0,
			"-0.016": 0.0,
			"-0.015": 0.0,
			"-0.014": 0.0,
			"-0.013": 0.0,
			"-0.012": 0.0,
			"-0.011": 0.0,
			"-0.01": 0.0,
			"-0.009": 0.0,
			"-0.008": 0.0,
			"-0.007": 0.108901408736,
			"-0.006": 2.53977108596,
			"-0.005": 15.5072700612,
			"-0.004": 21.0989558085,
			"-0.003": 20.1265355526,
			"-0.002": 16.2901701358,
			"-0.001": 16.8733218948,
			"0.0": 9.77858303824,
			"0.001": 6.3816631671,
			"0.002": 4.87719774453,
			"0.003": 4.19472210081,
			"0.004": 2.38218376385,
			"0.005": 1.39708408332,
			"0.006": 1.07614172462,
			"0.007": 1.45326482494,
			"0.008": 2.13591024895,
			"0.009": 0.906924188933,
			"0.01": 1.77115450919,
			"0.011": 1.89031079611,
			"0.012": 3.25834098846,
			"0.013": 5.37469774696,
			"0.014": 3.25344671232,
			"0.015": 0.510254000003,
			"0.016": 0.0,
			"0.017": 0.0,
			"0.018": 0.0,
			"0.019": 0.0,
			"0.02": 0.0,
			"0.021": 0.0,
			"0.022": 0.0,
			"0.023": 0.0,
			"0.024": 0.0,
			"0.025": 0.0
		}
	}
}
