{
	 "smiles": "OC(=O)C1CCN(CC1)C(=O)CCOC1=CC=CC=C1", 
	 "Tm": 401.15, 
	 "num_atms": 39, 
	 "gaussian": { 
		 "optdone": 1, 
		 "sigma_profile": "yes", 
		 "theory": "DFT", 
		 "functional": "B3LYP", 
		 "basiset": "6-31G**", 
		 "properties": { 
			 "R2extent": 11047.6005, 
			 "electric_dipole_moment_norm": 4.59509534722, 
			 "electric_quadrupole_moment_norm": 16.3948742563, 
			 "total_energy": -938.716717779, 
			 "HOMO_LUMO_gap": 0.21096, 
			 "cosmo_polarized_energy": -19.16, 
			 "cosmo_cavitation_energy": 41.39, 
			 "cosmo_dispersion_energy": -29.65, 
			 "cosmo_repulsion_energy": 2.29, 
			 "cosmo_total_nonelectrostatic_energy": 14.03, 
			 "SMD_solvation_energy": 7.58 
		},
		"coords": [
			{
				"x": -1.6184095112,
				"y": 3.541620004,
				"z": -5.3863593214,
				"element": "O" 
			},
			{
				"x": -1.3963638011,
				"y": 4.216207934,
				"z": -4.2308762647,
				"element": "C" 
			},
			{
				"x": -0.7383150934,
				"y": 5.2324119647,
				"z": -4.1916988718,
				"element": "O" 
			},
			{
				"x": -2.0606570605,
				"y": 3.52202125,
				"z": -3.0517834018,
				"element": "C" 
			},
			{
				"x": -1.9331510636,
				"y": 4.3392395463,
				"z": -1.7423308651,
				"element": "C" 
			},
			{
				"x": -0.9323541967,
				"y": 3.7200505973,
				"z": -0.7647794823,
				"element": "C" 
			},
			{
				"x": -1.3050962308,
				"y": 2.3349778575,
				"z": -0.4416088652,
				"element": "N" 
			},
			{
				"x": -1.8416146385,
				"y": 1.5010506056,
				"z": -1.5238977119,
				"element": "C" 
			},
			{
				"x": -1.4791214834,
				"y": 2.0932904179,
				"z": -2.8872814543,
				"element": "C" 
			},
			{
				"x": -1.2268153528,
				"y": 1.918241114,
				"z": 0.8629627015,
				"element": "C" 
			},
			{
				"x": -0.7987194451,
				"y": 2.643738199,
				"z": 1.7601038409,
				"element": "O" 
			},
			{
				"x": -1.6959348711,
				"y": 0.4974923484,
				"z": 1.166033134,
				"element": "C" 
			},
			{
				"x": -1.6857388836,
				"y": 0.2290622988,
				"z": 2.6727000108,
				"element": "C" 
			},
			{
				"x": -2.1597918064,
				"y": -1.0850125051,
				"z": 2.9699998986,
				"element": "O" 
			},
			{
				"x": -1.322550681,
				"y": -2.1578504857,
				"z": 2.8367441944,
				"element": "C" 
			},
			{
				"x": -1.9099444659,
				"y": -3.4093091606,
				"z": 3.0801539025,
				"element": "C" 
			},
			{
				"x": -1.1485361576,
				"y": -4.5691504785,
				"z": 2.9886487563,
				"element": "C" 
			},
			{
				"x": 0.2080457485,
				"y": -4.505072886,
				"z": 2.6520350233,
				"element": "C" 
			},
			{
				"x": 0.7875151205,
				"y": -3.2615183106,
				"z": 2.4106740192,
				"element": "C" 
			},
			{
				"x": 0.03529494,
				"y": -2.0854525226,
				"z": 2.4982025661,
				"element": "C" 
			},
			{
				"x": -1.1549669688,
				"y": 4.036293359,
				"z": -6.0831687779,
				"element": "H" 
			},
			{
				"x": -3.1193013674,
				"y": 3.4177778037,
				"z": -3.3207981351,
				"element": "H" 
			},
			{
				"x": -2.9111590964,
				"y": 4.398093711,
				"z": -1.2533434901,
				"element": "H" 
			},
			{
				"x": -1.6193213261,
				"y": 5.3594936742,
				"z": -1.9771327229,
				"element": "H" 
			},
			{
				"x": -0.9047651284,
				"y": 4.2678202669,
				"z": 0.1773481164,
				"element": "H" 
			},
			{
				"x": 0.0813976189,
				"y": 3.7527914581,
				"z": -1.1866065185,
				"element": "H" 
			},
			{
				"x": -1.4314329415,
				"y": 0.4887330164,
				"z": -1.4535605933,
				"element": "H" 
			},
			{
				"x": -2.9364398891,
				"y": 1.4092429909,
				"z": -1.4443104251,
				"element": "H" 
			},
			{
				"x": -0.3874882492,
				"y": 2.1183449238,
				"z": -2.9829924156,
				"element": "H" 
			},
			{
				"x": -1.8510099642,
				"y": 1.440626628,
				"z": -3.6809232606,
				"element": "H" 
			},
			{
				"x": -2.7075495154,
				"y": 0.3295258396,
				"z": 0.7778208005,
				"element": "H" 
			},
			{
				"x": -1.050151423,
				"y": -0.2255335845,
				"z": 0.6521053682,
				"element": "H" 
			},
			{
				"x": -2.3765707894,
				"y": 0.9057723228,
				"z": 3.1786440721,
				"element": "H" 
			},
			{
				"x": -0.6947398242,
				"y": 0.405387463,
				"z": 3.0996264066,
				"element": "H" 
			},
			{
				"x": -2.9624564409,
				"y": -3.4411408027,
				"z": 3.3428245921,
				"element": "H" 
			},
			{
				"x": -1.6170248403,
				"y": -5.5302088437,
				"z": 3.1822081132,
				"element": "H" 
			},
			{
				"x": 0.8008618755,
				"y": -5.4116146283,
				"z": 2.5803362639,
				"element": "H" 
			},
			{
				"x": 1.8401099276,
				"y": -3.1933428535,
				"z": 2.1495435827,
				"element": "H" 
			},
			{
				"x": 0.5160672759,
				"y": -1.1328005331,
				"z": 2.3093372144,
				"element": "H" 
			}
		],
		 "valence_orbital": [ 
			{
				"type": "occ",
				"energy": -0.28526,
				"method": "rhf"
			},
			{
				"type": "occ",
				"energy": -0.24972,
				"method": "rhf"
			},
			{
				"type": "occ",
				"energy": -0.24616,
				"method": "rhf"
			},
			{
				"type": "occ",
				"energy": -0.23889,
				"method": "rhf"
			},
			{
				"type": "occ",
				"energy": -0.21365,
				"method": "rhf"
			},
			{
				"type": "unocc",
				"energy": -0.00269,
				"method": "rhf"
			},
			{
				"type": "unocc",
				"energy": 0.00169,
				"method": "rhf"
			},
			{
				"type": "unocc",
				"energy": 0.017,
				"method": "rhf"
			},
			{
				"type": "unocc",
				"energy": 0.02682,
				"method": "rhf"
			},
			{
				"type": "unocc",
				"energy": 0.06211,
				"method": "rhf"
			}
		],
		"cosmo_sigma_profile": { 
			"-0.025": 0.0,
			"-0.024": 0.0,
			"-0.023": 0.0,
			"-0.022": 0.0,
			"-0.021": 0.0,
			"-0.02": 0.0,
			"-0.019": 0.00423990538382,
			"-0.018": 0.645964288245,
			"-0.017": 1.0166955001,
			"-0.016": 1.13260429218,
			"-0.015": 0.176021064091,
			"-0.014": 0.750511002397,
			"-0.013": 0.589553419926,
			"-0.012": 1.02195379685,
			"-0.011": 0.608407420027,
			"-0.01": 0.853383265428,
			"-0.009": 0.666668125829,
			"-0.008": 0.432919543641,
			"-0.007": 3.82124449403,
			"-0.006": 15.2822775589,
			"-0.005": 34.5221578773,
			"-0.004": 37.1289249788,
			"-0.003": 33.4786236129,
			"-0.002": 29.2240610865,
			"-0.001": 22.1412195463,
			"0.0": 15.1228027149,
			"0.001": 13.8685284802,
			"0.002": 14.0420474504,
			"0.003": 13.8388367509,
			"0.004": 14.1254465175,
			"0.005": 14.6700772942,
			"0.006": 14.2551538932,
			"0.007": 7.12399834042,
			"0.008": 5.52649179883,
			"0.009": 5.31181104225,
			"0.01": 5.37627392105,
			"0.011": 5.06630222458,
			"0.012": 5.59363948362,
			"0.013": 2.55059865182,
			"0.014": 4.84073345798,
			"0.015": 0.37380148234,
			"0.016": 0.0,
			"0.017": 0.0,
			"0.018": 0.0,
			"0.019": 0.0,
			"0.02": 0.0,
			"0.021": 0.0,
			"0.022": 0.0,
			"0.023": 0.0,
			"0.024": 0.0,
			"0.025": 0.0
		}
	}
}
