{
	 "smiles": "CCCCCOC1=CC=C(C=C1)C1=CC=C(C=C1)C#N", 
	 "Tm": 321.15, 
	 "num_atms": 39, 
	 "gaussian": { 
		 "optdone": 1, 
		 "sigma_profile": "yes", 
		 "theory": "DFT", 
		 "functional": "B3LYP", 
		 "basiset": "6-31G**", 
		 "properties": { 
			 "R2extent": 12707.8482, 
			 "electric_dipole_moment_norm": 6.61185587713, 
			 "electric_quadrupole_moment_norm": 54.6893142137, 
			 "total_energy": -827.341604421, 
			 "HOMO_LUMO_gap": 0.16328, 
			 "cosmo_polarized_energy": -11.69, 
			 "cosmo_cavitation_energy": 43.06, 
			 "cosmo_dispersion_energy": -29.78, 
			 "cosmo_repulsion_energy": 2.28, 
			 "cosmo_total_nonelectrostatic_energy": 15.56, 
			 "SMD_solvation_energy": 8.27 
		},
		"coords": [
			{
				"x": 2.5159783774,
				"y": -2.2689599587,
				"z": 3.869005978,
				"element": "C" 
			},
			{
				"x": 1.2874909241,
				"y": -1.3570709484,
				"z": 3.9566293767,
				"element": "C" 
			},
			{
				"x": 1.6178129655,
				"y": 0.1361501412,
				"z": 4.1299950239,
				"element": "C" 
			},
			{
				"x": 2.4373270633,
				"y": 0.8049458632,
				"z": 3.011419885,
				"element": "C" 
			},
			{
				"x": 1.7492956059,
				"y": 0.9187624385,
				"z": 1.6555172288,
				"element": "C" 
			},
			{
				"x": 1.7233905566,
				"y": -0.3703040015,
				"z": 1.0345229546,
				"element": "O" 
			},
			{
				"x": 1.1586047253,
				"y": -0.4959179074,
				"z": -0.1976674451,
				"element": "C" 
			},
			{
				"x": 0.5845392625,
				"y": 0.5545471518,
				"z": -0.9253493611,
				"element": "C" 
			},
			{
				"x": 0.0343225879,
				"y": 0.3041825535,
				"z": -2.1828374413,
				"element": "C" 
			},
			{
				"x": 0.038775589,
				"y": -0.977921012,
				"z": -2.7504403183,
				"element": "C" 
			},
			{
				"x": 0.6227220028,
				"y": -2.0186734953,
				"z": -2.0012538411,
				"element": "C" 
			},
			{
				"x": 1.1710229761,
				"y": -1.7872402772,
				"z": -0.7490052227,
				"element": "C" 
			},
			{
				"x": -0.5463249086,
				"y": -1.2294087611,
				"z": -4.0875025276,
				"element": "C" 
			},
			{
				"x": 0.0295942446,
				"y": -2.1653083545,
				"z": -4.9673101209,
				"element": "C" 
			},
			{
				"x": -0.5145322184,
				"y": -2.4071609887,
				"z": -6.2225403357,
				"element": "C" 
			},
			{
				"x": -1.6600228766,
				"y": -1.7080026858,
				"z": -6.6395002789,
				"element": "C" 
			},
			{
				"x": -2.2463071231,
				"y": -0.7687654675,
				"z": -5.7740238728,
				"element": "C" 
			},
			{
				"x": -1.695459418,
				"y": -0.5403839514,
				"z": -4.5192715491,
				"element": "C" 
			},
			{
				"x": -2.2247957642,
				"y": -1.950436635,
				"z": -7.93368989,
				"element": "C" 
			},
			{
				"x": -2.6836414559,
				"y": -2.1470013978,
				"z": -8.9849699966,
				"element": "N" 
			},
			{
				"x": 3.1772017582,
				"y": -2.1331208283,
				"z": 4.7334003832,
				"element": "H" 
			},
			{
				"x": 2.2193639939,
				"y": -3.3227780858,
				"z": 3.8429640218,
				"element": "H" 
			},
			{
				"x": 3.0982504395,
				"y": -2.0703215391,
				"z": 2.9641927228,
				"element": "H" 
			},
			{
				"x": 0.668957697,
				"y": -1.4980447003,
				"z": 3.0640578713,
				"element": "H" 
			},
			{
				"x": 0.6720048584,
				"y": -1.6645000435,
				"z": 4.8121137133,
				"element": "H" 
			},
			{
				"x": 0.6796578057,
				"y": 0.6950765471,
				"z": 4.2538206932,
				"element": "H" 
			},
			{
				"x": 2.1701981514,
				"y": 0.2652783794,
				"z": 5.0707967437,
				"element": "H" 
			},
			{
				"x": 3.3970318523,
				"y": 0.2948558783,
				"z": 2.8693389833,
				"element": "H" 
			},
			{
				"x": 2.679772583,
				"y": 1.8276611906,
				"z": 3.3278280395,
				"element": "H" 
			},
			{
				"x": 2.2977650501,
				"y": 1.6191545571,
				"z": 1.0101259984,
				"element": "H" 
			},
			{
				"x": 0.7228991895,
				"y": 1.2977238868,
				"z": 1.769796994,
				"element": "H" 
			},
			{
				"x": 0.5690196895,
				"y": 1.5635989493,
				"z": -0.5319093645,
				"element": "H" 
			},
			{
				"x": -0.3809461572,
				"y": 1.136601534,
				"z": -2.7432674043,
				"element": "H" 
			},
			{
				"x": 0.620118905,
				"y": -3.030474382,
				"z": -2.3955227666,
				"element": "H" 
			},
			{
				"x": 1.6093078104,
				"y": -2.593456029,
				"z": -0.1699802598,
				"element": "H" 
			},
			{
				"x": 0.9319771057,
				"y": -2.6909764761,
				"z": -4.671908188,
				"element": "H" 
			},
			{
				"x": -0.0532108351,
				"y": -3.1265590274,
				"z": -6.8910331971,
				"element": "H" 
			},
			{
				"x": -3.136755424,
				"y": -0.2341028868,
				"z": -6.0878488623,
				"element": "H" 
			},
			{
				"x": -2.1779075894,
				"y": 0.1648507697,
				"z": -3.8500943678,
				"element": "H" 
			}
		],
		 "valence_orbital": [ 
			{
				"type": "occ",
				"energy": -0.313,
				"method": "rhf"
			},
			{
				"type": "occ",
				"energy": -0.27154,
				"method": "rhf"
			},
			{
				"type": "occ",
				"energy": -0.26846,
				"method": "rhf"
			},
			{
				"type": "occ",
				"energy": -0.26252,
				"method": "rhf"
			},
			{
				"type": "occ",
				"energy": -0.21915,
				"method": "rhf"
			},
			{
				"type": "unocc",
				"energy": -0.05587,
				"method": "rhf"
			},
			{
				"type": "unocc",
				"energy": -0.02163,
				"method": "rhf"
			},
			{
				"type": "unocc",
				"energy": -0.01299,
				"method": "rhf"
			},
			{
				"type": "unocc",
				"energy": 0.01002,
				"method": "rhf"
			},
			{
				"type": "unocc",
				"energy": 0.04208,
				"method": "rhf"
			}
		],
		"cosmo_sigma_profile": { 
			"-0.025": 0.0,
			"-0.024": 0.0,
			"-0.023": 0.0,
			"-0.022": 0.0,
			"-0.021": 0.0,
			"-0.02": 0.0,
			"-0.019": 0.0,
			"-0.018": 0.0,
			"-0.017": 0.0,
			"-0.016": 0.0,
			"-0.015": 0.0,
			"-0.014": 0.0,
			"-0.013": 0.0,
			"-0.012": 0.0,
			"-0.011": 0.0,
			"-0.01": 0.0,
			"-0.009": 0.0,
			"-0.008": 1.89951269389,
			"-0.007": 7.38257118216,
			"-0.006": 18.2176681195,
			"-0.005": 19.7460209703,
			"-0.004": 22.942175497,
			"-0.003": 23.678170111,
			"-0.002": 30.4437068036,
			"-0.001": 34.271962195,
			"0.0": 38.9516248924,
			"0.001": 35.0398053772,
			"0.002": 31.6701047745,
			"0.003": 23.7699131108,
			"0.004": 14.5448110867,
			"0.005": 12.8761782006,
			"0.006": 4.82895479801,
			"0.007": 3.28579315604,
			"0.008": 4.19924094153,
			"0.009": 3.22473141799,
			"0.01": 3.41046628988,
			"0.011": 2.9213303786,
			"0.012": 2.47575829598,
			"0.013": 1.92519530203,
			"0.014": 0.183539042128,
			"0.015": 0.0,
			"0.016": 0.0,
			"0.017": 0.0,
			"0.018": 0.0,
			"0.019": 0.0,
			"0.02": 0.0,
			"0.021": 0.0,
			"0.022": 0.0,
			"0.023": 0.0,
			"0.024": 0.0,
			"0.025": 0.0
		}
	}
}
