{
	 "smiles": "CC(=O)NC(CC1=C(F)C=CC=C1)C(O)=O", 
	 "Tm": 427.15, 
	 "num_atms": 28, 
	 "gaussian": { 
		 "optdone": 1, 
		 "sigma_profile": "yes", 
		 "theory": "DFT", 
		 "functional": "B3LYP", 
		 "basiset": "6-31G**", 
		 "properties": { 
			 "R2extent": 3544.69, 
			 "electric_dipole_moment_norm": 1.93709904238, 
			 "electric_quadrupole_moment_norm": 17.2749146004, 
			 "total_energy": -806.693286334, 
			 "HOMO_LUMO_gap": 0.22514, 
			 "cosmo_polarized_energy": -20.27, 
			 "cosmo_cavitation_energy": 32.14, 
			 "cosmo_dispersion_energy": -21.96, 
			 "cosmo_repulsion_energy": 1.7, 
			 "cosmo_total_nonelectrostatic_energy": 11.89, 
			 "SMD_solvation_energy": 7.16 
		},
		"coords": [
			{
				"x": 3.4000017623,
				"y": 1.9346787798,
				"z": -0.3485510667,
				"element": "C" 
			},
			{
				"x": 2.1116790426,
				"y": 1.7406711702,
				"z": -1.1262656318,
				"element": "C" 
			},
			{
				"x": 2.0650425908,
				"y": 1.741839397,
				"z": -2.3521854585,
				"element": "O" 
			},
			{
				"x": 0.9977627631,
				"y": 1.516501963,
				"z": -0.3657364753,
				"element": "N" 
			},
			{
				"x": -0.2767895053,
				"y": 1.2365711158,
				"z": -0.9798810609,
				"element": "C" 
			},
			{
				"x": -0.3581696098,
				"y": -0.2147081,
				"z": -1.5517946928,
				"element": "C" 
			},
			{
				"x": -0.1928289816,
				"y": -1.2996666337,
				"z": -0.5143756531,
				"element": "C" 
			},
			{
				"x": 1.0682158387,
				"y": -1.81995726,
				"z": -0.2106664771,
				"element": "C" 
			},
			{
				"x": 2.1488017257,
				"y": -1.3490610852,
				"z": -0.880155538,
				"element": "F" 
			},
			{
				"x": 1.2698513526,
				"y": -2.8117608151,
				"z": 0.7411219778,
				"element": "C" 
			},
			{
				"x": 0.1672206262,
				"y": -3.3137550007,
				"z": 1.4327733909,
				"element": "C" 
			},
			{
				"x": -1.1100271091,
				"y": -2.8205223914,
				"z": 1.1601252799,
				"element": "C" 
			},
			{
				"x": -1.2809012395,
				"y": -1.8266924397,
				"z": 0.1960649122,
				"element": "C" 
			},
			{
				"x": -1.3693593367,
				"y": 1.5034692035,
				"z": 0.055608665,
				"element": "C" 
			},
			{
				"x": -2.6426547669,
				"y": 1.4426777622,
				"z": -0.4047131075,
				"element": "O" 
			},
			{
				"x": -1.1500387343,
				"y": 1.7310245397,
				"z": 1.220064272,
				"element": "O" 
			},
			{
				"x": 4.0703492837,
				"y": 2.5722484018,
				"z": -0.9262360772,
				"element": "H" 
			},
			{
				"x": 3.8774630145,
				"y": 0.9570253504,
				"z": -0.2231205215,
				"element": "H" 
			},
			{
				"x": 3.2390326899,
				"y": 2.3683690721,
				"z": 0.6427275982,
				"element": "H" 
			},
			{
				"x": 1.0053925776,
				"y": 1.5840593264,
				"z": 0.6431147605,
				"element": "H" 
			},
			{
				"x": -0.4103077406,
				"y": 1.9207871869,
				"z": -1.8297388223,
				"element": "H" 
			},
			{
				"x": -1.3151441824,
				"y": -0.3462281786,
				"z": -2.0720674784,
				"element": "H" 
			},
			{
				"x": 0.4281273248,
				"y": -0.278810677,
				"z": -2.306535918,
				"element": "H" 
			},
			{
				"x": 2.2760419946,
				"y": -3.1741438758,
				"z": 0.9223084456,
				"element": "H" 
			},
			{
				"x": 0.3086782216,
				"y": -4.0887515662,
				"z": 2.179865499,
				"element": "H" 
			},
			{
				"x": -1.9713676764,
				"y": -3.2085061202,
				"z": 1.6945366966,
				"element": "H" 
			},
			{
				"x": -2.27717745,
				"y": -1.4451843402,
				"z": -0.0117920646,
				"element": "H" 
			},
			{
				"x": -2.6503944758,
				"y": 1.3015252152,
				"z": -1.3625954542,
				"element": "H" 
			}
		],
		 "valence_orbital": [ 
			{
				"type": "occ",
				"energy": -0.29105,
				"method": "rhf"
			},
			{
				"type": "occ",
				"energy": -0.26592,
				"method": "rhf"
			},
			{
				"type": "occ",
				"energy": -0.25455,
				"method": "rhf"
			},
			{
				"type": "occ",
				"energy": -0.24942,
				"method": "rhf"
			},
			{
				"type": "occ",
				"energy": -0.24651,
				"method": "rhf"
			},
			{
				"type": "unocc",
				"energy": -0.02137,
				"method": "rhf"
			},
			{
				"type": "unocc",
				"energy": -0.00794,
				"method": "rhf"
			},
			{
				"type": "unocc",
				"energy": -0.00156,
				"method": "rhf"
			},
			{
				"type": "unocc",
				"energy": 0.02651,
				"method": "rhf"
			},
			{
				"type": "unocc",
				"energy": 0.03975,
				"method": "rhf"
			}
		],
		"cosmo_sigma_profile": { 
			"-0.025": 0.0,
			"-0.024": 0.0,
			"-0.023": 0.0,
			"-0.022": 0.0,
			"-0.021": 0.0,
			"-0.02": 0.180327715249,
			"-0.019": 1.25440309696,
			"-0.018": 1.13567932932,
			"-0.017": 1.59321764143,
			"-0.016": 0.714019644291,
			"-0.015": 1.52784882393,
			"-0.014": 0.667941271847,
			"-0.013": 1.48022165763,
			"-0.012": 1.44853143264,
			"-0.011": 2.39503029929,
			"-0.01": 2.79770748173,
			"-0.009": 2.7272530619,
			"-0.008": 3.48578596317,
			"-0.007": 5.71216125869,
			"-0.006": 11.2064684257,
			"-0.005": 14.99066693,
			"-0.004": 17.8607473762,
			"-0.003": 16.7171727481,
			"-0.002": 20.1359400954,
			"-0.001": 17.4798135377,
			"0.0": 16.7350339333,
			"0.001": 15.5138409996,
			"0.002": 13.1906457927,
			"0.003": 13.5948802743,
			"0.004": 17.0582377394,
			"0.005": 11.3729366417,
			"0.006": 4.67511786112,
			"0.007": 4.09548913421,
			"0.008": 4.45634141056,
			"0.009": 5.77838504069,
			"0.01": 5.83708523761,
			"0.011": 4.54925067435,
			"0.012": 3.78526255659,
			"0.013": 3.28998186723,
			"0.014": 3.71999349013,
			"0.015": 1.3178060681,
			"0.016": 0.0705542811829,
			"0.017": 0.0,
			"0.018": 0.0,
			"0.019": 0.0,
			"0.02": 0.0,
			"0.021": 0.0,
			"0.022": 0.0,
			"0.023": 0.0,
			"0.024": 0.0,
			"0.025": 0.0
		}
	}
}
