{
	 "smiles": "CC1=C(N=C(N)S1)C1=CC=C(F)C=C1", 
	 "Tm": 396.15, 
	 "num_atms": 23, 
	 "gaussian": { 
		 "optdone": 1, 
		 "sigma_profile": "yes", 
		 "theory": "DFT", 
		 "functional": "B3LYP", 
		 "basiset": "6-31G**", 
		 "properties": { 
			 "R2extent": 4050.1546, 
			 "electric_dipole_moment_norm": 2.84075224016, 
			 "electric_quadrupole_moment_norm": 11.2155844627, 
			 "total_energy": -994.019310429, 
			 "HOMO_LUMO_gap": 0.17695, 
			 "cosmo_polarized_energy": -10.9, 
			 "cosmo_cavitation_energy": 29.09, 
			 "cosmo_dispersion_energy": -21.78, 
			 "cosmo_repulsion_energy": 1.65, 
			 "cosmo_total_nonelectrostatic_energy": 8.96, 
			 "SMD_solvation_energy": 3.79 
		},
		"coords": [
			{
				"x": 1.9562197803,
				"y": -1.3566607189,
				"z": -2.6020182118,
				"element": "C" 
			},
			{
				"x": 1.7819419906,
				"y": -0.0088138939,
				"z": -1.9675131443,
				"element": "C" 
			},
			{
				"x": 0.9174934357,
				"y": 0.4282838934,
				"z": -0.9929794498,
				"element": "C" 
			},
			{
				"x": 1.1131847417,
				"y": 1.7325624884,
				"z": -0.5468795854,
				"element": "N" 
			},
			{
				"x": 2.0821022044,
				"y": 2.3131695468,
				"z": -1.1839369974,
				"element": "C" 
			},
			{
				"x": 2.434850483,
				"y": 3.6354735421,
				"z": -1.0163780871,
				"element": "N" 
			},
			{
				"x": 2.8707180766,
				"y": 1.3076950534,
				"z": -2.402668235,
				"element": "S" 
			},
			{
				"x": -0.1544055345,
				"y": -0.3565907413,
				"z": -0.3447546704,
				"element": "C" 
			},
			{
				"x": -0.8881751781,
				"y": -1.3420552438,
				"z": -1.0270729365,
				"element": "C" 
			},
			{
				"x": -1.8894586258,
				"y": -2.070807723,
				"z": -0.3852915358,
				"element": "C" 
			},
			{
				"x": -2.164948853,
				"y": -1.7983959419,
				"z": 0.9486091934,
				"element": "C" 
			},
			{
				"x": -3.1341986876,
				"y": -2.4988844531,
				"z": 1.5760060296,
				"element": "F" 
			},
			{
				"x": -1.4784817998,
				"y": -0.8135515127,
				"z": 1.6515632613,
				"element": "C" 
			},
			{
				"x": -0.4805371616,
				"y": -0.0959239019,
				"z": 0.9989925025,
				"element": "C" 
			},
			{
				"x": 1.5367151399,
				"y": -2.1348278028,
				"z": -1.9595402962,
				"element": "H" 
			},
			{
				"x": 1.4647085365,
				"y": -1.4282936025,
				"z": -3.5809031159,
				"element": "H" 
			},
			{
				"x": 3.0158231292,
				"y": -1.5869045588,
				"z": -2.7547788248,
				"element": "H" 
			},
			{
				"x": 3.4132624015,
				"y": 3.8604986511,
				"z": -1.1311197242,
				"element": "H" 
			},
			{
				"x": 2.0193501081,
				"y": 4.0440506105,
				"z": -0.1887825591,
				"element": "H" 
			},
			{
				"x": -0.7030502143,
				"y": -1.5225443402,
				"z": -2.0799644897,
				"element": "H" 
			},
			{
				"x": -2.4640977128,
				"y": -2.8277439568,
				"z": -0.908149854,
				"element": "H" 
			},
			{
				"x": -1.7310333747,
				"y": -0.6216031277,
				"z": 2.6889727527,
				"element": "H" 
			},
			{
				"x": 0.0596171148,
				"y": 0.6845677338,
				"z": 1.5228879779,
				"element": "H" 
			}
		],
		 "valence_orbital": [ 
			{
				"type": "occ",
				"energy": -0.27627,
				"method": "rhf"
			},
			{
				"type": "occ",
				"energy": -0.27051,
				"method": "rhf"
			},
			{
				"type": "occ",
				"energy": -0.25517,
				"method": "rhf"
			},
			{
				"type": "occ",
				"energy": -0.24136,
				"method": "rhf"
			},
			{
				"type": "occ",
				"energy": -0.19852,
				"method": "rhf"
			},
			{
				"type": "unocc",
				"energy": -0.02157,
				"method": "rhf"
			},
			{
				"type": "unocc",
				"energy": -0.0069,
				"method": "rhf"
			},
			{
				"type": "unocc",
				"energy": 0.00754,
				"method": "rhf"
			},
			{
				"type": "unocc",
				"energy": 0.01791,
				"method": "rhf"
			},
			{
				"type": "unocc",
				"energy": 0.07165,
				"method": "rhf"
			}
		],
		"cosmo_sigma_profile": { 
			"-0.025": 0.0,
			"-0.024": 0.0,
			"-0.023": 0.0,
			"-0.022": 0.0,
			"-0.021": 0.0,
			"-0.02": 0.0,
			"-0.019": 0.0,
			"-0.018": 0.0,
			"-0.017": 0.0,
			"-0.016": 0.0,
			"-0.015": 0.131790688673,
			"-0.014": 1.46832835506,
			"-0.013": 2.73823235931,
			"-0.012": 2.5581070147,
			"-0.011": 2.4363023978,
			"-0.01": 3.10144258777,
			"-0.009": 1.58795541182,
			"-0.008": 1.41646790449,
			"-0.007": 5.39593774619,
			"-0.006": 6.43374899814,
			"-0.005": 12.0457447134,
			"-0.004": 15.518634488,
			"-0.003": 15.7489343134,
			"-0.002": 14.2477757479,
			"-0.001": 15.5557628175,
			"0.0": 13.0683990595,
			"0.001": 17.4286969137,
			"0.002": 20.2001700589,
			"0.003": 24.090103582,
			"0.004": 30.7688761879,
			"0.005": 12.7285642961,
			"0.006": 3.46316593499,
			"0.007": 2.97020896703,
			"0.008": 1.75858580693,
			"0.009": 2.12446580947,
			"0.01": 1.97856421956,
			"0.011": 1.6860066805,
			"0.012": 0.946230400412,
			"0.013": 0.535348928068,
			"0.014": 0.634638982022,
			"0.015": 0.061417716825,
			"0.016": 0.0,
			"0.017": 0.0,
			"0.018": 0.0,
			"0.019": 0.0,
			"0.02": 0.0,
			"0.021": 0.0,
			"0.022": 0.0,
			"0.023": 0.0,
			"0.024": 0.0,
			"0.025": 0.0
		}
	}
}
