{
	 "smiles": "OC1=CC=C(C=C1)C1SCCS1", 
	 "Tm": 391.15, 
	 "num_atms": 22, 
	 "gaussian": { 
		 "optdone": 1, 
		 "sigma_profile": "yes", 
		 "theory": "DFT", 
		 "functional": "B3LYP", 
		 "basiset": "6-31G**", 
		 "properties": { 
			 "R2extent": 4850.4722, 
			 "electric_dipole_moment_norm": 1.36783129808, 
			 "electric_quadrupole_moment_norm": 17.3872007178, 
			 "total_energy": -1220.57828376, 
			 "HOMO_LUMO_gap": 0.20581, 
			 "cosmo_polarized_energy": -12.69, 
			 "cosmo_cavitation_energy": 27.92, 
			 "cosmo_dispersion_energy": -21.48, 
			 "cosmo_repulsion_energy": 1.62, 
			 "cosmo_total_nonelectrostatic_energy": 8.06, 
			 "SMD_solvation_energy": 3.75 
		},
		"coords": [
			{
				"x": 5.0205843679,
				"y": 0.5501377568,
				"z": -0.7515909036,
				"element": "O" 
			},
			{
				"x": 3.8455463423,
				"y": 0.671600325,
				"z": -0.0675083736,
				"element": "C" 
			},
			{
				"x": 3.4335409457,
				"y": -0.4239841303,
				"z": 0.7042321488,
				"element": "C" 
			},
			{
				"x": 2.2480523186,
				"y": -0.3567787237,
				"z": 1.4228667462,
				"element": "C" 
			},
			{
				"x": 1.4438975157,
				"y": 0.7943918245,
				"z": 1.3913463099,
				"element": "C" 
			},
			{
				"x": 1.8692318257,
				"y": 1.8787221109,
				"z": 0.6180140902,
				"element": "C" 
			},
			{
				"x": 3.0596374002,
				"y": 1.8258669607,
				"z": -0.108597255,
				"element": "C" 
			},
			{
				"x": 0.1453329356,
				"y": 0.8838126657,
				"z": 2.1540543169,
				"element": "C" 
			},
			{
				"x": 0.3482407652,
				"y": 0.661981175,
				"z": 4.0064211086,
				"element": "S" 
			},
			{
				"x": -1.0502154465,
				"y": -0.5068749153,
				"z": 4.2690909569,
				"element": "C" 
			},
			{
				"x": -2.0429300671,
				"y": -0.3595380875,
				"z": 3.1171623483,
				"element": "C" 
			},
			{
				"x": -1.0868595465,
				"y": -0.35587831,
				"z": 1.5589718065,
				"element": "S" 
			},
			{
				"x": 5.1903856946,
				"y": 1.36717707,
				"z": -1.2382135159,
				"element": "H" 
			},
			{
				"x": 4.0571054522,
				"y": -1.3115145736,
				"z": 0.7271546076,
				"element": "H" 
			},
			{
				"x": 1.9359561649,
				"y": -1.2048320116,
				"z": 2.0240527983,
				"element": "H" 
			},
			{
				"x": 1.2645117073,
				"y": 2.7812138242,
				"z": 0.5784959972,
				"element": "H" 
			},
			{
				"x": 3.3738775205,
				"y": 2.6806794703,
				"z": -0.7038220997,
				"element": "H" 
			},
			{
				"x": -0.2814857976,
				"y": 1.8788567796,
				"z": 2.0126150854,
				"element": "H" 
			},
			{
				"x": -1.5161687631,
				"y": -0.2563884569,
				"z": 5.2270442471,
				"element": "H" 
			},
			{
				"x": -0.6659240902,
				"y": -1.5284165285,
				"z": 4.3183352624,
				"element": "H" 
			},
			{
				"x": -2.6192866907,
				"y": 0.5657838951,
				"z": 3.2087915065,
				"element": "H" 
			},
			{
				"x": -2.7383305547,
				"y": -1.2036181201,
				"z": 3.0767828109,
				"element": "H" 
			}
		],
		 "valence_orbital": [ 
			{
				"type": "occ",
				"energy": -0.30213,
				"method": "rhf"
			},
			{
				"type": "occ",
				"energy": -0.25507,
				"method": "rhf"
			},
			{
				"type": "occ",
				"energy": -0.23269,
				"method": "rhf"
			},
			{
				"type": "occ",
				"energy": -0.22724,
				"method": "rhf"
			},
			{
				"type": "occ",
				"energy": -0.21337,
				"method": "rhf"
			},
			{
				"type": "unocc",
				"energy": -0.00756,
				"method": "rhf"
			},
			{
				"type": "unocc",
				"energy": -0.00226,
				"method": "rhf"
			},
			{
				"type": "unocc",
				"energy": 0.002,
				"method": "rhf"
			},
			{
				"type": "unocc",
				"energy": 0.05677,
				"method": "rhf"
			},
			{
				"type": "unocc",
				"energy": 0.06736,
				"method": "rhf"
			}
		],
		"cosmo_sigma_profile": { 
			"-0.025": 0.0,
			"-0.024": 0.0,
			"-0.023": 0.0,
			"-0.022": 0.0,
			"-0.021": 0.0,
			"-0.02": 0.0,
			"-0.019": 0.0,
			"-0.018": 0.329567737503,
			"-0.017": 1.29611772047,
			"-0.016": 1.16731126566,
			"-0.015": 0.586630688323,
			"-0.014": 1.26230871145,
			"-0.013": 1.02917711318,
			"-0.012": 1.10681849781,
			"-0.011": 0.52330135941,
			"-0.01": 1.29918697059,
			"-0.009": 1.12319326096,
			"-0.008": 1.36904993166,
			"-0.007": 6.021693411,
			"-0.006": 14.0070037112,
			"-0.005": 18.1548529685,
			"-0.004": 19.3478762116,
			"-0.003": 15.852816587,
			"-0.002": 13.0844654369,
			"-0.001": 8.48497387707,
			"0.0": 10.1231374778,
			"0.001": 11.162562879,
			"0.002": 12.160783057,
			"0.003": 14.4683393168,
			"0.004": 18.4187444884,
			"0.005": 19.8703587548,
			"0.006": 8.89933497012,
			"0.007": 6.4586420922,
			"0.008": 5.16141060397,
			"0.009": 5.75846559132,
			"0.01": 3.59755524,
			"0.011": 2.60887786979,
			"0.012": 0.333899314407,
			"0.013": 0.0,
			"0.014": 0.0,
			"0.015": 0.0,
			"0.016": 0.0,
			"0.017": 0.0,
			"0.018": 0.0,
			"0.019": 0.0,
			"0.02": 0.0,
			"0.021": 0.0,
			"0.022": 0.0,
			"0.023": 0.0,
			"0.024": 0.0,
			"0.025": 0.0
		}
	}
}
