{
	 "smiles": "CC1(C)C2CCC1(C)C(=O)C=C2", 
	 "Tm": 447.15, 
	 "num_atms": 28, 
	 "gaussian": { 
		 "optdone": 1, 
		 "sigma_profile": "yes", 
		 "theory": "DFT", 
		 "functional": "B3LYP", 
		 "basiset": "6-31G**", 
		 "properties": { 
			 "R2extent": 1940.1308, 
			 "electric_dipole_moment_norm": 3.56705688769, 
			 "electric_quadrupole_moment_norm": 9.12238240483, 
			 "total_energy": -504.030584531, 
			 "HOMO_LUMO_gap": 0.18646, 
			 "cosmo_polarized_energy": -7.85, 
			 "cosmo_cavitation_energy": 26.78, 
			 "cosmo_dispersion_energy": -19.53, 
			 "cosmo_repulsion_energy": 1.51, 
			 "cosmo_total_nonelectrostatic_energy": 8.76, 
			 "SMD_solvation_energy": 4.86 
		},
		"coords": [
			{
				"x": -1.7780905073,
				"y": 1.8709532433,
				"z": -0.1280559063,
				"element": "C" 
			},
			{
				"x": -1.4616421581,
				"y": 0.4487040867,
				"z": -0.6380347456,
				"element": "C" 
			},
			{
				"x": -2.3513360585,
				"y": 0.2047757007,
				"z": -1.8708562403,
				"element": "C" 
			},
			{
				"x": -1.6589077858,
				"y": -0.5937893876,
				"z": 0.5065972194,
				"element": "C" 
			},
			{
				"x": -0.4956530044,
				"y": -0.258449495,
				"z": 1.4899332178,
				"element": "C" 
			},
			{
				"x": 0.6629972662,
				"y": 0.1939662437,
				"z": 0.5617450502,
				"element": "C" 
			},
			{
				"x": 0.0777547813,
				"y": 0.2447409554,
				"z": -0.8964098004,
				"element": "C" 
			},
			{
				"x": 0.7545333292,
				"y": 1.3010183942,
				"z": -1.7693645982,
				"element": "C" 
			},
			{
				"x": 0.3053796641,
				"y": -1.1579145039,
				"z": -1.504044934,
				"element": "C" 
			},
			{
				"x": 1.1263526667,
				"y": -1.3631544777,
				"z": -2.3873674057,
				"element": "O" 
			},
			{
				"x": -0.4924045334,
				"y": -2.2601723408,
				"z": -0.9187797039,
				"element": "C" 
			},
			{
				"x": -1.4361561613,
				"y": -1.9971057642,
				"z": -0.0004537662,
				"element": "C" 
			},
			{
				"x": -2.8120693638,
				"y": 1.9154872605,
				"z": 0.2333049734,
				"element": "H" 
			},
			{
				"x": -1.1280752814,
				"y": 2.1974077591,
				"z": 0.6871958203,
				"element": "H" 
			},
			{
				"x": -1.6846132748,
				"y": 2.6027114034,
				"z": -0.9358577834,
				"element": "H" 
			},
			{
				"x": -2.2386848445,
				"y": -0.7948636447,
				"z": -2.2932393325,
				"element": "H" 
			},
			{
				"x": -3.4070445458,
				"y": 0.3385463797,
				"z": -1.6080961461,
				"element": "H" 
			},
			{
				"x": -2.1198021354,
				"y": 0.9296786702,
				"z": -2.6581890188,
				"element": "H" 
			},
			{
				"x": -2.6408772459,
				"y": -0.5078673338,
				"z": 0.9840125696,
				"element": "H" 
			},
			{
				"x": -0.2283650706,
				"y": -1.1199298501,
				"z": 2.1077482749,
				"element": "H" 
			},
			{
				"x": -0.7952830923,
				"y": 0.5429615816,
				"z": 2.1717122031,
				"element": "H" 
			},
			{
				"x": 1.5294641378,
				"y": -0.4717031731,
				"z": 0.6173224967,
				"element": "H" 
			},
			{
				"x": 1.0208901011,
				"y": 1.1899664891,
				"z": 0.8403769549,
				"element": "H" 
			},
			{
				"x": 0.690493861,
				"y": 2.2917203925,
				"z": -1.3107559717,
				"element": "H" 
			},
			{
				"x": 1.8083156902,
				"y": 1.051564125,
				"z": -1.9137297168,
				"element": "H" 
			},
			{
				"x": 0.3016462345,
				"y": 1.3482491797,
				"z": -2.7644514259,
				"element": "H" 
			},
			{
				"x": -0.2885535923,
				"y": -3.2608164686,
				"z": -1.2889569511,
				"element": "H" 
			},
			{
				"x": -2.0243690767,
				"y": -2.8037854252,
				"z": 0.4334946665,
				"element": "H" 
			}
		],
		 "valence_orbital": [ 
			{
				"type": "occ",
				"energy": -0.32542,
				"method": "rhf"
			},
			{
				"type": "occ",
				"energy": -0.3153,
				"method": "rhf"
			},
			{
				"type": "occ",
				"energy": -0.30041,
				"method": "rhf"
			},
			{
				"type": "occ",
				"energy": -0.26184,
				"method": "rhf"
			},
			{
				"type": "occ",
				"energy": -0.23178,
				"method": "rhf"
			},
			{
				"type": "unocc",
				"energy": -0.04532,
				"method": "rhf"
			},
			{
				"type": "unocc",
				"energy": 0.0614,
				"method": "rhf"
			},
			{
				"type": "unocc",
				"energy": 0.07062,
				"method": "rhf"
			},
			{
				"type": "unocc",
				"energy": 0.09785,
				"method": "rhf"
			},
			{
				"type": "unocc",
				"energy": 0.10901,
				"method": "rhf"
			}
		],
		"cosmo_sigma_profile": { 
			"-0.025": 0.0,
			"-0.024": 0.0,
			"-0.023": 0.0,
			"-0.022": 0.0,
			"-0.021": 0.0,
			"-0.02": 0.0,
			"-0.019": 0.0,
			"-0.018": 0.0,
			"-0.017": 0.0,
			"-0.016": 0.0,
			"-0.015": 0.0,
			"-0.014": 0.0,
			"-0.013": 0.0,
			"-0.012": 0.0,
			"-0.011": 0.0,
			"-0.01": 0.0,
			"-0.009": 0.0,
			"-0.008": 0.0,
			"-0.007": 0.899421574886,
			"-0.006": 2.93094699805,
			"-0.005": 4.18219232722,
			"-0.004": 12.432316917,
			"-0.003": 29.180362915,
			"-0.002": 35.0498435352,
			"-0.001": 30.7285652463,
			"0.0": 29.0095968924,
			"0.001": 25.7633425961,
			"0.002": 10.4578745109,
			"0.003": 3.2053201747,
			"0.004": 1.98421856631,
			"0.005": 1.55076195052,
			"0.006": 1.82640790444,
			"0.007": 1.87028756135,
			"0.008": 1.33764570632,
			"0.009": 1.09265594853,
			"0.01": 2.15443379126,
			"0.011": 1.8717850034,
			"0.012": 3.49635458803,
			"0.013": 4.54857137814,
			"0.014": 1.65076032299,
			"0.015": 0.0497554699054,
			"0.016": 0.0,
			"0.017": 0.0,
			"0.018": 0.0,
			"0.019": 0.0,
			"0.02": 0.0,
			"0.021": 0.0,
			"0.022": 0.0,
			"0.023": 0.0,
			"0.024": 0.0,
			"0.025": 0.0
		}
	}
}
