{
	 "smiles": "CC(=O)C1=CC=CC(=N1)C(C)=O", 
	 "Tm": 353.15, 
	 "num_atms": 21, 
	 "gaussian": { 
		 "optdone": 1, 
		 "sigma_profile": "yes", 
		 "theory": "DFT", 
		 "functional": "B3LYP", 
		 "basiset": "6-31G**", 
		 "properties": { 
			 "R2extent": 2500.4509, 
			 "electric_dipole_moment_norm": 4.34178541501, 
			 "electric_quadrupole_moment_norm": 13.1549447684, 
			 "total_energy": -553.576450431, 
			 "HOMO_LUMO_gap": 0.17419, 
			 "cosmo_polarized_energy": -14.98, 
			 "cosmo_cavitation_energy": 26.01, 
			 "cosmo_dispersion_energy": -18.51, 
			 "cosmo_repulsion_energy": 1.48, 
			 "cosmo_total_nonelectrostatic_energy": 8.99, 
			 "SMD_solvation_energy": 5.27 
		},
		"coords": [
			{
				"x": 0.1686864704,
				"y": -2.9100635509,
				"z": 1.7326837779,
				"element": "C" 
			},
			{
				"x": -0.9733209864,
				"y": -1.9225900359,
				"z": 1.7133582854,
				"element": "C" 
			},
			{
				"x": -2.0941324282,
				"y": -2.1983279875,
				"z": 2.1096621829,
				"element": "O" 
			},
			{
				"x": -0.6922001837,
				"y": -0.537820307,
				"z": 1.1743889294,
				"element": "C" 
			},
			{
				"x": -1.7298874173,
				"y": 0.4069027302,
				"z": 1.1404782121,
				"element": "C" 
			},
			{
				"x": -1.4490009088,
				"y": 1.6722833597,
				"z": 0.6415452279,
				"element": "C" 
			},
			{
				"x": -0.1537692014,
				"y": 1.9476227546,
				"z": 0.1980162022,
				"element": "C" 
			},
			{
				"x": 0.820254122,
				"y": 0.9413599976,
				"z": 0.2697364193,
				"element": "C" 
			},
			{
				"x": 0.5477567714,
				"y": -0.280933558,
				"z": 0.7519790284,
				"element": "N" 
			},
			{
				"x": 2.2492322244,
				"y": 1.1634478983,
				"z": -0.1921929003,
				"element": "C" 
			},
			{
				"x": 2.6210201285,
				"y": 2.5287233587,
				"z": -0.7482702721,
				"element": "C" 
			},
			{
				"x": 3.0691046424,
				"y": 0.2701358584,
				"z": -0.1159271687,
				"element": "O" 
			},
			{
				"x": 1.0007644848,
				"y": -2.5187105865,
				"z": 2.3262296625,
				"element": "H" 
			},
			{
				"x": -0.1832315939,
				"y": -3.8564193528,
				"z": 2.1443900063,
				"element": "H" 
			},
			{
				"x": 0.5648376162,
				"y": -3.0542517813,
				"z": 0.7226881097,
				"element": "H" 
			},
			{
				"x": -2.7113935194,
				"y": 0.1222952369,
				"z": 1.5020095279,
				"element": "H" 
			},
			{
				"x": -2.2199195019,
				"y": 2.4358597885,
				"z": 0.5957700586,
				"element": "H" 
			},
			{
				"x": 0.0895540488,
				"y": 2.9280322374,
				"z": -0.1954218617,
				"element": "H" 
			},
			{
				"x": 3.6745506855,
				"y": 2.5123426931,
				"z": -1.0279902073,
				"element": "H" 
			},
			{
				"x": 2.0169765738,
				"y": 2.7759079693,
				"z": -1.6285855096,
				"element": "H" 
			},
			{
				"x": 2.4563179727,
				"y": 3.3174032773,
				"z": -0.0054477108,
				"element": "H" 
			}
		],
		 "valence_orbital": [ 
			{
				"type": "occ",
				"energy": -0.30664,
				"method": "rhf"
			},
			{
				"type": "occ",
				"energy": -0.28486,
				"method": "rhf"
			},
			{
				"type": "occ",
				"energy": -0.27936,
				"method": "rhf"
			},
			{
				"type": "occ",
				"energy": -0.25443,
				"method": "rhf"
			},
			{
				"type": "occ",
				"energy": -0.2484,
				"method": "rhf"
			},
			{
				"type": "unocc",
				"energy": -0.07421,
				"method": "rhf"
			},
			{
				"type": "unocc",
				"energy": -0.06931,
				"method": "rhf"
			},
			{
				"type": "unocc",
				"energy": 0.00182,
				"method": "rhf"
			},
			{
				"type": "unocc",
				"energy": 0.04795,
				"method": "rhf"
			},
			{
				"type": "unocc",
				"energy": 0.07961,
				"method": "rhf"
			}
		],
		"cosmo_sigma_profile": { 
			"-0.025": 0.0,
			"-0.024": 0.0,
			"-0.023": 0.0,
			"-0.022": 0.0,
			"-0.021": 0.0,
			"-0.02": 0.0,
			"-0.019": 0.0,
			"-0.018": 0.0,
			"-0.017": 0.0,
			"-0.016": 0.0,
			"-0.015": 0.0,
			"-0.014": 0.0,
			"-0.013": 0.0,
			"-0.012": 0.0,
			"-0.011": 0.0,
			"-0.01": 0.0,
			"-0.009": 0.232030155529,
			"-0.008": 5.13870101452,
			"-0.007": 12.5457960246,
			"-0.006": 13.5808753347,
			"-0.005": 15.6021542764,
			"-0.004": 15.6584213152,
			"-0.003": 16.3760983158,
			"-0.002": 18.9949617727,
			"-0.001": 25.3917907409,
			"0.0": 17.5974825514,
			"0.001": 10.0178585891,
			"0.002": 5.47657271263,
			"0.003": 4.05112721471,
			"0.004": 4.55590889948,
			"0.005": 3.13127648514,
			"0.006": 3.59778368647,
			"0.007": 3.22242017832,
			"0.008": 3.73343054176,
			"0.009": 3.47054265888,
			"0.01": 5.7399203223,
			"0.011": 7.51275233524,
			"0.012": 6.1866446563,
			"0.013": 2.66246134736,
			"0.014": 0.827567659693,
			"0.015": 1.04024746001,
			"0.016": 0.716669868169,
			"0.017": 0.536780547378,
			"0.018": 0.0251831363194,
			"0.019": 0.0,
			"0.02": 0.0,
			"0.021": 0.0,
			"0.022": 0.0,
			"0.023": 0.0,
			"0.024": 0.0,
			"0.025": 0.0
		}
	}
}
