{
	 "smiles": "FC(F)(F)C1=CC=CC(=C1)C(=O)NC1=C(Cl)N=CC=C1", 
	 "Tm": 357.15, 
	 "num_atms": 28, 
	 "gaussian": { 
		 "optdone": 1, 
		 "sigma_profile": "yes", 
		 "theory": "DFT", 
		 "functional": "B3LYP", 
		 "basiset": "6-31G**", 
		 "properties": { 
			 "R2extent": 6713.8101, 
			 "electric_dipole_moment_norm": 6.66449313677, 
			 "electric_quadrupole_moment_norm": 13.2719917676, 
			 "total_energy": -1444.65403078, 
			 "HOMO_LUMO_gap": 0.19989, 
			 "cosmo_polarized_energy": -16.16, 
			 "cosmo_cavitation_energy": 36.49, 
			 "cosmo_dispersion_energy": -24.71, 
			 "cosmo_repulsion_energy": 1.85, 
			 "cosmo_total_nonelectrostatic_energy": 13.62, 
			 "SMD_solvation_energy": 6.37 
		},
		"coords": [
			{
				"x": 2.6118259188,
				"y": 3.7078427724,
				"z": 1.412428402,
				"element": "F" 
			},
			{
				"x": 1.9903651034,
				"y": 3.2329925137,
				"z": 0.3088039692,
				"element": "C" 
			},
			{
				"x": 2.9220383325,
				"y": 3.0940523356,
				"z": -0.6565536774,
				"element": "F" 
			},
			{
				"x": 1.1331558834,
				"y": 4.1961885294,
				"z": -0.1010239153,
				"element": "F" 
			},
			{
				"x": 1.2717086515,
				"y": 1.9397408334,
				"z": 0.5918977665,
				"element": "C" 
			},
			{
				"x": 0.6672224474,
				"y": 1.7458567188,
				"z": 1.8390771808,
				"element": "C" 
			},
			{
				"x": -0.0309431043,
				"y": 0.5675224164,
				"z": 2.0900529755,
				"element": "C" 
			},
			{
				"x": -0.1447647767,
				"y": -0.4076563857,
				"z": 1.0975609825,
				"element": "C" 
			},
			{
				"x": 0.4489168203,
				"y": -0.2106059137,
				"z": -0.1555557214,
				"element": "C" 
			},
			{
				"x": 1.1750081694,
				"y": 0.9633062346,
				"z": -0.3953685837,
				"element": "C" 
			},
			{
				"x": 0.4500311022,
				"y": -1.2357375187,
				"z": -1.2514851109,
				"element": "C" 
			},
			{
				"x": 1.3908239984,
				"y": -1.3344249065,
				"z": -2.0258093969,
				"element": "O" 
			},
			{
				"x": -0.6099217375,
				"y": -2.1310412524,
				"z": -1.3462531824,
				"element": "N" 
			},
			{
				"x": -1.9467770718,
				"y": -2.0083928649,
				"z": -0.8902461567,
				"element": "C" 
			},
			{
				"x": -2.8061314911,
				"y": -0.9411927511,
				"z": -1.2318559379,
				"element": "C" 
			},
			{
				"x": -2.2309054825,
				"y": 0.3395663725,
				"z": -2.2869289329,
				"element": "Cl" 
			},
			{
				"x": -4.0556705473,
				"y": -0.8379620782,
				"z": -0.821066206,
				"element": "N" 
			},
			{
				"x": -4.5621849928,
				"y": -1.8177670311,
				"z": -0.0621612625,
				"element": "C" 
			},
			{
				"x": -3.8298040588,
				"y": -2.9430577627,
				"z": 0.3081713766,
				"element": "C" 
			},
			{
				"x": -2.5039254775,
				"y": -3.0275532249,
				"z": -0.1108403156,
				"element": "C" 
			},
			{
				"x": 0.7595976035,
				"y": 2.5059985922,
				"z": 2.6074506156,
				"element": "H" 
			},
			{
				"x": -0.4825172682,
				"y": 0.4029001481,
				"z": 3.0633687297,
				"element": "H" 
			},
			{
				"x": -0.6766195034,
				"y": -1.3268823048,
				"z": 1.3131814265,
				"element": "H" 
			},
			{
				"x": 1.6657263294,
				"y": 1.0889730194,
				"z": -1.3531277391,
				"element": "H" 
			},
			{
				"x": -0.4451289459,
				"y": -2.8067440125,
				"z": -2.0847539698,
				"element": "H" 
			},
			{
				"x": -5.5968643069,
				"y": -1.6932199994,
				"z": 0.2480984082,
				"element": "H" 
			},
			{
				"x": -4.2790460691,
				"y": -3.7237735192,
				"z": 0.9126538162,
				"element": "H" 
			},
			{
				"x": -1.8789155264,
				"y": -3.8728289605,
				"z": 0.1617844592,
				"element": "H" 
			}
		],
		 "valence_orbital": [ 
			{
				"type": "occ",
				"energy": -0.28465,
				"method": "rhf"
			},
			{
				"type": "occ",
				"energy": -0.27821,
				"method": "rhf"
			},
			{
				"type": "occ",
				"energy": -0.27614,
				"method": "rhf"
			},
			{
				"type": "occ",
				"energy": -0.2616,
				"method": "rhf"
			},
			{
				"type": "occ",
				"energy": -0.25967,
				"method": "rhf"
			},
			{
				"type": "unocc",
				"energy": -0.05978,
				"method": "rhf"
			},
			{
				"type": "unocc",
				"energy": -0.05041,
				"method": "rhf"
			},
			{
				"type": "unocc",
				"energy": -0.04142,
				"method": "rhf"
			},
			{
				"type": "unocc",
				"energy": -0.02751,
				"method": "rhf"
			},
			{
				"type": "unocc",
				"energy": 0.02461,
				"method": "rhf"
			}
		],
		"cosmo_sigma_profile": { 
			"-0.025": 0.0,
			"-0.024": 0.0,
			"-0.023": 0.0,
			"-0.022": 0.0,
			"-0.021": 0.0,
			"-0.02": 0.0,
			"-0.019": 0.0,
			"-0.018": 0.0,
			"-0.017": 0.0,
			"-0.016": 0.0,
			"-0.015": 0.83867530971,
			"-0.014": 1.0151967771,
			"-0.013": 0.932324833208,
			"-0.012": 1.12271283976,
			"-0.011": 1.11945877668,
			"-0.01": 0.833349554441,
			"-0.009": 1.52833171435,
			"-0.008": 6.88552370836,
			"-0.007": 14.445047229,
			"-0.006": 15.6460138978,
			"-0.005": 14.4277936237,
			"-0.004": 13.0292093962,
			"-0.003": 13.9142513234,
			"-0.002": 16.8099452251,
			"-0.001": 20.2561429228,
			"0.0": 26.8027871595,
			"0.001": 29.0327385489,
			"0.002": 37.257121398,
			"0.003": 37.860833559,
			"0.004": 9.38697505497,
			"0.005": 4.91474211838,
			"0.006": 3.59932691408,
			"0.007": 3.68658025486,
			"0.008": 2.37164438731,
			"0.009": 1.9277572163,
			"0.01": 2.92816928346,
			"0.011": 3.16058965811,
			"0.012": 5.27537779283,
			"0.013": 4.35567806463,
			"0.014": 0.548369085579,
			"0.015": 0.0687720844716,
			"0.016": 0.0,
			"0.017": 0.0,
			"0.018": 0.0,
			"0.019": 0.0,
			"0.02": 0.0,
			"0.021": 0.0,
			"0.022": 0.0,
			"0.023": 0.0,
			"0.024": 0.0,
			"0.025": 0.0
		}
	}
}
