{
	 "smiles": "C[Si](C)(C)O[Si](C)(C)O[Si](C)(C)O[Si](C)(C)O[Si](C)(C)C", 
	 "Tm": 193.15, 
	 "num_atms": 57, 
	 "gaussian": { 
		 "optdone": 1, 
		 "sigma_profile": "yes", 
		 "theory": "DFT", 
		 "functional": "B3LYP", 
		 "basiset": "6-31G**", 
		 "properties": { 
			 "R2extent": 12620.4578, 
			 "electric_dipole_moment_norm": 1.11424576732, 
			 "electric_quadrupole_moment_norm": 6.29211537323, 
			 "total_energy": -2227.91529305, 
			 "HOMO_LUMO_gap": 0.30092, 
			 "cosmo_polarized_energy": -6.46, 
			 "cosmo_cavitation_energy": 68.02, 
			 "cosmo_dispersion_energy": -29.93, 
			 "cosmo_repulsion_energy": 2.76, 
			 "cosmo_total_nonelectrostatic_energy": 40.86, 
			 "SMD_solvation_energy": 16.24 
		},
		"coords": [
			{
				"x": -0.3157320102,
				"y": -1.2936587089,
				"z": -6.2745701168,
				"element": "C" 
			},
			{
				"x": -0.9109945031,
				"y": -1.1798228971,
				"z": -4.487730252,
				"element": "Si" 
			},
			{
				"x": -2.6486783004,
				"y": -0.4477897879,
				"z": -4.43347511,
				"element": "C" 
			},
			{
				"x": -0.8938844018,
				"y": -2.884791903,
				"z": -3.6890965719,
				"element": "C" 
			},
			{
				"x": 0.1279234147,
				"y": -0.2128941514,
				"z": -3.6145167617,
				"element": "O" 
			},
			{
				"x": 0.9347702305,
				"y": 1.2137850392,
				"z": -3.3819745571,
				"element": "Si" 
			},
			{
				"x": 2.7752592312,
				"y": 0.8612617214,
				"z": -3.4143350139,
				"element": "C" 
			},
			{
				"x": 0.4348894871,
				"y": 2.4723075138,
				"z": -4.6830355653,
				"element": "C" 
			},
			{
				"x": 0.5286478757,
				"y": 1.8383940358,
				"z": -1.9085046027,
				"element": "O" 
			},
			{
				"x": -0.0139194692,
				"y": 1.8004039097,
				"z": -0.3476982884,
				"element": "Si" 
			},
			{
				"x": 0.6559908856,
				"y": 3.3197308823,
				"z": 0.5191233075,
				"element": "C" 
			},
			{
				"x": -1.8907631353,
				"y": 1.7554179203,
				"z": -0.3580048065,
				"element": "C" 
			},
			{
				"x": 0.5709538977,
				"y": 0.4696321143,
				"z": 0.4350753245,
				"element": "O" 
			},
			{
				"x": 0.715351374,
				"y": -1.1378547859,
				"z": 0.8080888656,
				"element": "Si" 
			},
			{
				"x": -0.976030079,
				"y": -1.9507560457,
				"z": 0.8115436673,
				"element": "C" 
			},
			{
				"x": 1.8851695447,
				"y": -1.9464515693,
				"z": -0.4132729428,
				"element": "C" 
			},
			{
				"x": 1.3444503288,
				"y": -1.2682063846,
				"z": 2.3289547528,
				"element": "O" 
			},
			{
				"x": 2.1184876385,
				"y": -0.5440771202,
				"z": 3.6160564405,
				"element": "Si" 
			},
			{
				"x": 3.61537187,
				"y": 0.4226103022,
				"z": 2.9977356687,
				"element": "C" 
			},
			{
				"x": 0.9181558634,
				"y": 0.6174128524,
				"z": 4.4916669765,
				"element": "C" 
			},
			{
				"x": 2.6576645763,
				"y": -1.9264241644,
				"z": 4.7760372486,
				"element": "C" 
			},
			{
				"x": 0.7024166789,
				"y": -1.6943030916,
				"z": -6.328803752,
				"element": "H" 
			},
			{
				"x": -0.9630073368,
				"y": -1.952583219,
				"z": -6.8648698905,
				"element": "H" 
			},
			{
				"x": -0.3144230865,
				"y": -0.3120457728,
				"z": -6.7611465473,
				"element": "H" 
			},
			{
				"x": -2.6799387044,
				"y": 0.543640643,
				"z": -4.8985615474,
				"element": "H" 
			},
			{
				"x": -3.0026713081,
				"y": -0.3414126983,
				"z": -3.4022372138,
				"element": "H" 
			},
			{
				"x": -3.3640179164,
				"y": -1.0850816185,
				"z": -4.9662040475,
				"element": "H" 
			},
			{
				"x": -1.2280077262,
				"y": -2.8396886285,
				"z": -2.6469830937,
				"element": "H" 
			},
			{
				"x": 0.113782485,
				"y": -3.3138938036,
				"z": -3.6955857928,
				"element": "H" 
			},
			{
				"x": -1.5552820962,
				"y": -3.5786364362,
				"z": -4.2206275828,
				"element": "H" 
			},
			{
				"x": 3.3557875283,
				"y": 1.7681233049,
				"z": -3.2140844212,
				"element": "H" 
			},
			{
				"x": 3.0393929852,
				"y": 0.1180077076,
				"z": -2.6554922143,
				"element": "H" 
			},
			{
				"x": 3.0866904214,
				"y": 0.4697516288,
				"z": -4.3889866303,
				"element": "H" 
			},
			{
				"x": 0.9465182039,
				"y": 3.4266317856,
				"z": -4.5180830122,
				"element": "H" 
			},
			{
				"x": 0.6853612788,
				"y": 2.1297419067,
				"z": -5.6931084991,
				"element": "H" 
			},
			{
				"x": -0.6426977017,
				"y": 2.6654437995,
				"z": -4.6495781032,
				"element": "H" 
			},
			{
				"x": 1.7509080579,
				"y": 3.3147411898,
				"z": 0.5141022995,
				"element": "H" 
			},
			{
				"x": 0.3247718783,
				"y": 3.3614226407,
				"z": 1.5623471835,
				"element": "H" 
			},
			{
				"x": 0.3231133041,
				"y": 4.2372605091,
				"z": 0.0223353401,
				"element": "H" 
			},
			{
				"x": -2.2574574952,
				"y": 0.8647135747,
				"z": -0.8792309318,
				"element": "H" 
			},
			{
				"x": -2.3021701619,
				"y": 2.6325982511,
				"z": -0.8690229213,
				"element": "H" 
			},
			{
				"x": -2.296168889,
				"y": 1.7378435304,
				"z": 0.6594261549,
				"element": "H" 
			},
			{
				"x": -1.443773869,
				"y": -1.9074738186,
				"z": -0.17824897,
				"element": "H" 
			},
			{
				"x": -0.9024607869,
				"y": -3.00409312,
				"z": 1.1025546545,
				"element": "H" 
			},
			{
				"x": -1.6458484006,
				"y": -1.4550694331,
				"z": 1.521908762,
				"element": "H" 
			},
			{
				"x": 2.870792075,
				"y": -1.4701210792,
				"z": -0.3748555261,
				"element": "H" 
			},
			{
				"x": 2.0195771993,
				"y": -3.0102036101,
				"z": -0.1893360832,
				"element": "H" 
			},
			{
				"x": 1.5063582234,
				"y": -1.8572825,
				"z": -1.4369888361,
				"element": "H" 
			},
			{
				"x": 4.3290454019,
				"y": -0.232769287,
				"z": 2.4865306555,
				"element": "H" 
			},
			{
				"x": 3.3120543132,
				"y": 1.2017983962,
				"z": 2.2902249001,
				"element": "H" 
			},
			{
				"x": 4.145086849,
				"y": 0.9097758304,
				"z": 3.8246017005,
				"element": "H" 
			},
			{
				"x": 0.58255086,
				"y": 1.4141293393,
				"z": 3.8189758343,
				"element": "H" 
			},
			{
				"x": 1.3851228546,
				"y": 1.0914445617,
				"z": 5.3628020958,
				"element": "H" 
			},
			{
				"x": 0.0301222656,
				"y": 0.0796402341,
				"z": 4.8411109712,
				"element": "H" 
			},
			{
				"x": 1.7965770642,
				"y": -2.5072807726,
				"z": 5.1234756167,
				"element": "H" 
			},
			{
				"x": 3.3432103605,
				"y": -2.6173928434,
				"z": 4.2738585162,
				"element": "H" 
			},
			{
				"x": 3.1711008713,
				"y": -1.5288058739,
				"z": 5.6590132688,
				"element": "H" 
			}
		],
		 "valence_orbital": [ 
			{
				"type": "occ",
				"energy": -0.28086,
				"method": "rhf"
			},
			{
				"type": "occ",
				"energy": -0.27673,
				"method": "rhf"
			},
			{
				"type": "occ",
				"energy": -0.27171,
				"method": "rhf"
			},
			{
				"type": "occ",
				"energy": -0.26625,
				"method": "rhf"
			},
			{
				"type": "occ",
				"energy": -0.26112,
				"method": "rhf"
			},
			{
				"type": "unocc",
				"energy": 0.0398,
				"method": "rhf"
			},
			{
				"type": "unocc",
				"energy": 0.06266,
				"method": "rhf"
			},
			{
				"type": "unocc",
				"energy": 0.07024,
				"method": "rhf"
			},
			{
				"type": "unocc",
				"energy": 0.07602,
				"method": "rhf"
			},
			{
				"type": "unocc",
				"energy": 0.08083,
				"method": "rhf"
			}
		],
		"cosmo_sigma_profile": { 
			"-0.025": 0.0,
			"-0.024": 0.0,
			"-0.023": 0.0,
			"-0.022": 0.0,
			"-0.021": 0.0,
			"-0.02": 0.0,
			"-0.019": 0.0,
			"-0.018": 0.0,
			"-0.017": 0.0,
			"-0.016": 0.0,
			"-0.015": 0.0,
			"-0.014": 0.0,
			"-0.013": 0.0,
			"-0.012": 0.0,
			"-0.011": 0.0,
			"-0.01": 0.0,
			"-0.009": 0.0,
			"-0.008": 0.0,
			"-0.007": 0.0,
			"-0.006": 0.0,
			"-0.005": 0.0279870306129,
			"-0.004": 21.4854809187,
			"-0.003": 58.6585206345,
			"-0.002": 73.8622829359,
			"-0.001": 72.9413693189,
			"0.0": 70.1487351165,
			"0.001": 87.6323680698,
			"0.002": 55.6743497914,
			"0.003": 32.3577867395,
			"0.004": 10.9955441727,
			"0.005": 8.4300947034,
			"0.006": 4.13933694472,
			"0.007": 2.87597399128,
			"0.008": 2.48051130539,
			"0.009": 1.39297491216,
			"0.01": 1.10713610203,
			"0.011": 0.190294341565,
			"0.012": 0.0,
			"0.013": 0.0,
			"0.014": 0.0,
			"0.015": 0.0,
			"0.016": 0.0,
			"0.017": 0.0,
			"0.018": 0.0,
			"0.019": 0.0,
			"0.02": 0.0,
			"0.021": 0.0,
			"0.022": 0.0,
			"0.023": 0.0,
			"0.024": 0.0,
			"0.025": 0.0
		}
	}
}
