{
	 "smiles": "NC1=CC(Cl)=C(Cl)C(Cl)=C1", 
	 "Tm": 372.15, 
	 "num_atms": 14, 
	 "gaussian": { 
		 "optdone": 1, 
		 "sigma_profile": "yes", 
		 "theory": "DFT", 
		 "functional": "B3LYP", 
		 "basiset": "6-31G**", 
		 "properties": { 
			 "R2extent": 3806.8012, 
			 "electric_dipole_moment_norm": 4.71394656737, 
			 "electric_quadrupole_moment_norm": 13.1470872816, 
			 "total_energy": -1666.37300033, 
			 "HOMO_LUMO_gap": 0.19371, 
			 "cosmo_polarized_energy": -9.98, 
			 "cosmo_cavitation_energy": 23.52, 
			 "cosmo_dispersion_energy": -18.01, 
			 "cosmo_repulsion_energy": 1.47, 
			 "cosmo_total_nonelectrostatic_energy": 6.97, 
			 "SMD_solvation_energy": 3.25 
		},
		"coords": [
			{
				"x": -1.9895003351,
				"y": 1.2437894307,
				"z": 2.3913343508,
				"element": "N" 
			},
			{
				"x": -0.6757940421,
				"y": 1.1197277001,
				"z": 1.9589659748,
				"element": "C" 
			},
			{
				"x": -0.2186664786,
				"y": -0.080262759,
				"z": 1.3927959379,
				"element": "C" 
			},
			{
				"x": 1.0819524653,
				"y": -0.1796980603,
				"z": 0.9102317847,
				"element": "C" 
			},
			{
				"x": 1.5788947097,
				"y": -1.7086686327,
				"z": 0.2221194882,
				"element": "Cl" 
			},
			{
				"x": 1.9769154578,
				"y": 0.9012030606,
				"z": 0.9702877257,
				"element": "C" 
			},
			{
				"x": 3.6014370412,
				"y": 0.7666787002,
				"z": 0.3671905172,
				"element": "Cl" 
			},
			{
				"x": 1.5039515493,
				"y": 2.0949128393,
				"z": 1.5397396742,
				"element": "C" 
			},
			{
				"x": 2.5443481034,
				"y": 3.4951811143,
				"z": 1.6623060981,
				"element": "Cl" 
			},
			{
				"x": 0.2061021827,
				"y": 2.20930875,
				"z": 2.026438219,
				"element": "C" 
			},
			{
				"x": -2.1684253396,
				"y": 1.9775379655,
				"z": 3.0618257745,
				"element": "H" 
			},
			{
				"x": -2.4643667907,
				"y": 0.3823796786,
				"z": 2.6203200078,
				"element": "H" 
			},
			{
				"x": -0.8757543791,
				"y": -0.9399410838,
				"z": 1.3207242225,
				"element": "H" 
			},
			{
				"x": -0.1164941443,
				"y": 3.1525512965,
				"z": 2.4533202245,
				"element": "H" 
			}
		],
		 "valence_orbital": [ 
			{
				"type": "occ",
				"energy": -0.32487,
				"method": "rhf"
			},
			{
				"type": "occ",
				"energy": -0.30121,
				"method": "rhf"
			},
			{
				"type": "occ",
				"energy": -0.29346,
				"method": "rhf"
			},
			{
				"type": "occ",
				"energy": -0.25473,
				"method": "rhf"
			},
			{
				"type": "occ",
				"energy": -0.22201,
				"method": "rhf"
			},
			{
				"type": "unocc",
				"energy": -0.0283,
				"method": "rhf"
			},
			{
				"type": "unocc",
				"energy": -0.01399,
				"method": "rhf"
			},
			{
				"type": "unocc",
				"energy": -0.01244,
				"method": "rhf"
			},
			{
				"type": "unocc",
				"energy": 0.04738,
				"method": "rhf"
			},
			{
				"type": "unocc",
				"energy": 0.05746,
				"method": "rhf"
			}
		],
		"cosmo_sigma_profile": { 
			"-0.025": 0.0,
			"-0.024": 0.0,
			"-0.023": 0.0,
			"-0.022": 0.0,
			"-0.021": 0.0,
			"-0.02": 0.0,
			"-0.019": 0.0,
			"-0.018": 0.0,
			"-0.017": 0.0,
			"-0.016": 0.0,
			"-0.015": 0.0,
			"-0.014": 0.687550193729,
			"-0.013": 3.30187616927,
			"-0.012": 3.38368076043,
			"-0.011": 3.54721482042,
			"-0.01": 3.67352861288,
			"-0.009": 3.46162574446,
			"-0.008": 4.01517858138,
			"-0.007": 3.69797330847,
			"-0.006": 4.05165684478,
			"-0.005": 2.6358096833,
			"-0.004": 3.97296664524,
			"-0.003": 6.7497124884,
			"-0.002": 8.39711241428,
			"-0.001": 9.11060644727,
			"0.0": 17.0066963433,
			"0.001": 25.6517318317,
			"0.002": 26.270577322,
			"0.003": 22.7202576378,
			"0.004": 24.995642066,
			"0.005": 11.6224140604,
			"0.006": 1.90908658886,
			"0.007": 0.613868427444,
			"0.008": 0.816997961126,
			"0.009": 0.577475794194,
			"0.01": 0.761486125651,
			"0.011": 0.603884704709,
			"0.012": 0.48775668572,
			"0.013": 0.243028249696,
			"0.014": 0.0,
			"0.015": 0.0,
			"0.016": 0.0,
			"0.017": 0.0,
			"0.018": 0.0,
			"0.019": 0.0,
			"0.02": 0.0,
			"0.021": 0.0,
			"0.022": 0.0,
			"0.023": 0.0,
			"0.024": 0.0,
			"0.025": 0.0
		}
	}
}
