{
	 "smiles": "CC1=COC(=N1)C1=CC(N)=CC=C1", 
	 "Tm": 362.15, 
	 "num_atms": 23, 
	 "gaussian": { 
		 "optdone": 1, 
		 "sigma_profile": "yes", 
		 "theory": "DFT", 
		 "functional": "B3LYP", 
		 "basiset": "6-31G**", 
		 "properties": { 
			 "R2extent": 3769.9469, 
			 "electric_dipole_moment_norm": 1.17623105298, 
			 "electric_quadrupole_moment_norm": 16.0174079685, 
			 "total_energy": -571.819862741, 
			 "HOMO_LUMO_gap": 0.16933, 
			 "cosmo_polarized_energy": -11.31, 
			 "cosmo_cavitation_energy": 27.41, 
			 "cosmo_dispersion_energy": -20.42, 
			 "cosmo_repulsion_energy": 1.62, 
			 "cosmo_total_nonelectrostatic_energy": 8.6, 
			 "SMD_solvation_energy": 4.04 
		},
		"coords": [
			{
				"x": -1.3093678329,
				"y": -3.5275356217,
				"z": -1.1370385762,
				"element": "C" 
			},
			{
				"x": -0.5437842747,
				"y": -2.3152567773,
				"z": -0.718375948,
				"element": "C" 
			},
			{
				"x": 0.0702937392,
				"y": -2.0420416669,
				"z": 0.4635895921,
				"element": "C" 
			},
			{
				"x": 0.6437092928,
				"y": -0.7993121799,
				"z": 0.3736480512,
				"element": "O" 
			},
			{
				"x": 0.3422361546,
				"y": -0.3711958374,
				"z": -0.8857071249,
				"element": "C" 
			},
			{
				"x": -0.3583856454,
				"y": -1.2328182432,
				"z": -1.570604172,
				"element": "N" 
			},
			{
				"x": 0.817881632,
				"y": 0.9453403518,
				"z": -1.305626302,
				"element": "C" 
			},
			{
				"x": 0.5025044152,
				"y": 1.3907688351,
				"z": -2.5956393515,
				"element": "C" 
			},
			{
				"x": 0.9390498748,
				"y": 2.6441245348,
				"z": -3.0446543165,
				"element": "C" 
			},
			{
				"x": 0.5760050095,
				"y": 3.1117634587,
				"z": -4.3090375104,
				"element": "N" 
			},
			{
				"x": 1.7015099546,
				"y": 3.4464258309,
				"z": -2.1753494292,
				"element": "C" 
			},
			{
				"x": 2.0118803018,
				"y": 2.9970990929,
				"z": -0.8941189583,
				"element": "C" 
			},
			{
				"x": 1.5785589487,
				"y": 1.7512657436,
				"z": -0.444312572,
				"element": "C" 
			},
			{
				"x": -1.3464573869,
				"y": -4.2682953555,
				"z": -0.3337921707,
				"element": "H" 
			},
			{
				"x": -0.8498493691,
				"y": -3.9936138678,
				"z": -2.0151811538,
				"element": "H" 
			},
			{
				"x": -2.3364694249,
				"y": -3.2633309025,
				"z": -1.4104091271,
				"element": "H" 
			},
			{
				"x": 0.1918320938,
				"y": -2.566053532,
				"z": 1.3976964983,
				"element": "H" 
			},
			{
				"x": -0.0892848846,
				"y": 0.7484237798,
				"z": -3.2405961401,
				"element": "H" 
			},
			{
				"x": 1.1955179692,
				"y": 3.8047786162,
				"z": -4.7056500116,
				"element": "H" 
			},
			{
				"x": 0.3350750011,
				"y": 2.3936268245,
				"z": -4.9781901658,
				"element": "H" 
			},
			{
				"x": 2.0428888628,
				"y": 4.4231900866,
				"z": -2.509277751,
				"element": "H" 
			},
			{
				"x": 2.6029638092,
				"y": 3.6297413661,
				"z": -0.2379390703,
				"element": "H" 
			},
			{
				"x": 1.8225917592,
				"y": 1.4032054633,
				"z": 0.5524657099,
				"element": "H" 
			}
		],
		 "valence_orbital": [ 
			{
				"type": "occ",
				"energy": -0.30015,
				"method": "rhf"
			},
			{
				"type": "occ",
				"energy": -0.27829,
				"method": "rhf"
			},
			{
				"type": "occ",
				"energy": -0.26415,
				"method": "rhf"
			},
			{
				"type": "occ",
				"energy": -0.21609,
				"method": "rhf"
			},
			{
				"type": "occ",
				"energy": -0.20089,
				"method": "rhf"
			},
			{
				"type": "unocc",
				"energy": -0.03156,
				"method": "rhf"
			},
			{
				"type": "unocc",
				"energy": 0.01388,
				"method": "rhf"
			},
			{
				"type": "unocc",
				"energy": 0.04582,
				"method": "rhf"
			},
			{
				"type": "unocc",
				"energy": 0.07689,
				"method": "rhf"
			},
			{
				"type": "unocc",
				"energy": 0.08793,
				"method": "rhf"
			}
		],
		"cosmo_sigma_profile": { 
			"-0.025": 0.0,
			"-0.024": 0.0,
			"-0.023": 0.0,
			"-0.022": 0.0,
			"-0.021": 0.0,
			"-0.02": 0.0,
			"-0.019": 0.0,
			"-0.018": 0.0,
			"-0.017": 0.0,
			"-0.016": 0.0,
			"-0.015": 0.0,
			"-0.014": 0.0,
			"-0.013": 0.318022129185,
			"-0.012": 2.76013400194,
			"-0.011": 2.69779193645,
			"-0.01": 3.23794674907,
			"-0.009": 5.35107352959,
			"-0.008": 4.37519864734,
			"-0.007": 4.79878998778,
			"-0.006": 6.39045363096,
			"-0.005": 12.7498008034,
			"-0.004": 15.1149872256,
			"-0.003": 12.4473128955,
			"-0.002": 12.5496676898,
			"-0.001": 14.283447797,
			"0.0": 18.1942610092,
			"0.001": 14.9295995684,
			"0.002": 17.4780366849,
			"0.003": 15.8813230007,
			"0.004": 13.4556309708,
			"0.005": 15.0650128263,
			"0.006": 10.9285690814,
			"0.007": 2.7496603405,
			"0.008": 1.89532085947,
			"0.009": 2.34650513454,
			"0.01": 1.96083764161,
			"0.011": 1.67430808574,
			"0.012": 1.36655268958,
			"0.013": 1.9160364022,
			"0.014": 1.27797200624,
			"0.015": 0.502836065886,
			"0.016": 0.0,
			"0.017": 0.0,
			"0.018": 0.0,
			"0.019": 0.0,
			"0.02": 0.0,
			"0.021": 0.0,
			"0.022": 0.0,
			"0.023": 0.0,
			"0.024": 0.0,
			"0.025": 0.0
		}
	}
}
