{
	 "smiles": "COC1=C(OC)C(OC)=C2C(CCC(NC(C)=O)C3=CC(=O)C(O)=CC=C23)=C1", 
	 "Tm": 451.15, 
	 "num_atms": 51, 
	 "gaussian": { 
		 "optdone": 1, 
		 "sigma_profile": "yes", 
		 "theory": "DFT", 
		 "functional": "B3LYP", 
		 "basiset": "6-31G**", 
		 "properties": { 
			 "R2extent": 10702.9919, 
			 "electric_dipole_moment_norm": 3.21444342616, 
			 "electric_quadrupole_moment_norm": 20.5776516683, 
			 "total_energy": -1320.13841332, 
			 "HOMO_LUMO_gap": 0.14163, 
			 "cosmo_polarized_energy": -19.49, 
			 "cosmo_cavitation_energy": 51.33, 
			 "cosmo_dispersion_energy": -33.61, 
			 "cosmo_repulsion_energy": 2.54, 
			 "cosmo_total_nonelectrostatic_energy": 20.25, 
			 "SMD_solvation_energy": 11.63 
		},
		"coords": [
			{
				"x": 4.0541659927,
				"y": 2.0969982314,
				"z": 1.7951801366,
				"element": "C" 
			},
			{
				"x": 3.705437639,
				"y": 0.7096484667,
				"z": 1.6989203327,
				"element": "O" 
			},
			{
				"x": 2.4756228566,
				"y": 0.4237275264,
				"z": 1.170262887,
				"element": "C" 
			},
			{
				"x": 2.1345410934,
				"y": 0.7454134357,
				"z": -0.1522250593,
				"element": "C" 
			},
			{
				"x": 3.0333075232,
				"y": 1.4285883534,
				"z": -0.941548083,
				"element": "O" 
			},
			{
				"x": 3.70995922,
				"y": 0.606652538,
				"z": -1.9027257381,
				"element": "C" 
			},
			{
				"x": 0.874032621,
				"y": 0.3781464507,
				"z": -0.6598847119,
				"element": "C" 
			},
			{
				"x": 0.5461455984,
				"y": 0.7009214362,
				"z": -1.9522734758,
				"element": "O" 
			},
			{
				"x": 0.3944751866,
				"y": 2.1101264039,
				"z": -2.2270645972,
				"element": "C" 
			},
			{
				"x": -0.0386297836,
				"y": -0.3601061454,
				"z": 0.1260359892,
				"element": "C" 
			},
			{
				"x": 0.3253253122,
				"y": -0.6820380208,
				"z": 1.4544611658,
				"element": "C" 
			},
			{
				"x": -0.6649040023,
				"y": -1.3988928664,
				"z": 2.3420526516,
				"element": "C" 
			},
			{
				"x": -1.8566702698,
				"y": -0.5033094013,
				"z": 2.7404852674,
				"element": "C" 
			},
			{
				"x": -2.5028550576,
				"y": 0.275933368,
				"z": 1.5648931881,
				"element": "C" 
			},
			{
				"x": -1.8607377638,
				"y": 1.5766839899,
				"z": 1.3738519067,
				"element": "N" 
			},
			{
				"x": -2.3920730775,
				"y": 2.6665704818,
				"z": 0.7224965415,
				"element": "C" 
			},
			{
				"x": -3.8982674359,
				"y": 2.7083241055,
				"z": 0.5303987902,
				"element": "C" 
			},
			{
				"x": -1.6635941334,
				"y": 3.5789677569,
				"z": 0.3441466085,
				"element": "O" 
			},
			{
				"x": -2.5690424763,
				"y": -0.5743266333,
				"z": 0.2758762423,
				"element": "C" 
			},
			{
				"x": -3.8420968558,
				"y": -1.0106024933,
				"z": -0.0373552785,
				"element": "C" 
			},
			{
				"x": -4.3859428267,
				"y": -1.7913033479,
				"z": -1.1114303989,
				"element": "C" 
			},
			{
				"x": -5.6042158536,
				"y": -2.0806414714,
				"z": -1.1681286473,
				"element": "O" 
			},
			{
				"x": -3.5800262887,
				"y": -2.2881658497,
				"z": -2.2425988395,
				"element": "C" 
			},
			{
				"x": -4.3276653681,
				"y": -2.9481310951,
				"z": -3.1240349357,
				"element": "O" 
			},
			{
				"x": -2.2281412628,
				"y": -2.1510150156,
				"z": -2.4510121473,
				"element": "C" 
			},
			{
				"x": -1.2606053178,
				"y": -1.5233247851,
				"z": -1.6416624145,
				"element": "C" 
			},
			{
				"x": -1.3468942034,
				"y": -0.8269591913,
				"z": -0.4420533382,
				"element": "C" 
			},
			{
				"x": 1.5601334087,
				"y": -0.2755280359,
				"z": 1.9602506094,
				"element": "C" 
			},
			{
				"x": 5.0426877085,
				"y": 2.125279854,
				"z": 2.2575982089,
				"element": "H" 
			},
			{
				"x": 4.0892751818,
				"y": 2.5702674574,
				"z": 0.8112425052,
				"element": "H" 
			},
			{
				"x": 3.3409259664,
				"y": 2.6306709302,
				"z": 2.4359267538,
				"element": "H" 
			},
			{
				"x": 2.9986398656,
				"y": 0.1648752757,
				"z": -2.6080331519,
				"element": "H" 
			},
			{
				"x": 4.2793218502,
				"y": -0.1853759519,
				"z": -1.4027557624,
				"element": "H" 
			},
			{
				"x": 4.3966372021,
				"y": 1.2649286933,
				"z": -2.4385972608,
				"element": "H" 
			},
			{
				"x": -0.0236154429,
				"y": 2.1698813012,
				"z": -3.2335862132,
				"element": "H" 
			},
			{
				"x": 1.3610176704,
				"y": 2.618933722,
				"z": -2.1930707762,
				"element": "H" 
			},
			{
				"x": -0.2907016695,
				"y": 2.575546163,
				"z": -1.5110792573,
				"element": "H" 
			},
			{
				"x": -0.1673929305,
				"y": -1.7543318414,
				"z": 3.2496471563,
				"element": "H" 
			},
			{
				"x": -1.0467220678,
				"y": -2.286522747,
				"z": 1.824081884,
				"element": "H" 
			},
			{
				"x": -2.6254517767,
				"y": -1.1322718957,
				"z": 3.2028555458,
				"element": "H" 
			},
			{
				"x": -1.5483697763,
				"y": 0.231900293,
				"z": 3.4922249827,
				"element": "H" 
			},
			{
				"x": -3.5328087411,
				"y": 0.4871960558,
				"z": 1.858447412,
				"element": "H" 
			},
			{
				"x": -0.8495629207,
				"y": 1.6015799347,
				"z": 1.3969341452,
				"element": "H" 
			},
			{
				"x": -4.1521594749,
				"y": 3.6767313309,
				"z": 0.1005113733,
				"element": "H" 
			},
			{
				"x": -4.2346355549,
				"y": 1.9159612912,
				"z": -0.1459299166,
				"element": "H" 
			},
			{
				"x": -4.4291248161,
				"y": 2.5837169063,
				"z": 1.4801705836,
				"element": "H" 
			},
			{
				"x": -4.6342790692,
				"y": -0.717706819,
				"z": 0.6487093232,
				"element": "H" 
			},
			{
				"x": -5.2324100542,
				"y": -2.8942157353,
				"z": -2.7110673557,
				"element": "H" 
			},
			{
				"x": -1.8588280066,
				"y": -2.6175910515,
				"z": -3.3605713396,
				"element": "H" 
			},
			{
				"x": -0.2543792177,
				"y": -1.6092188492,
				"z": -2.0377495298,
				"element": "H" 
			},
			{
				"x": 1.8477515993,
				"y": -0.51789251,
				"z": 2.9786760372,
				"element": "H" 
			}
		],
		 "valence_orbital": [ 
			{
				"type": "occ",
				"energy": -0.25529,
				"method": "rhf"
			},
			{
				"type": "occ",
				"energy": -0.24614,
				"method": "rhf"
			},
			{
				"type": "occ",
				"energy": -0.24219,
				"method": "rhf"
			},
			{
				"type": "occ",
				"energy": -0.23636,
				"method": "rhf"
			},
			{
				"type": "occ",
				"energy": -0.21309,
				"method": "rhf"
			},
			{
				"type": "unocc",
				"energy": -0.07146,
				"method": "rhf"
			},
			{
				"type": "unocc",
				"energy": -0.06278,
				"method": "rhf"
			},
			{
				"type": "unocc",
				"energy": -0.01112,
				"method": "rhf"
			},
			{
				"type": "unocc",
				"energy": -0.00583,
				"method": "rhf"
			},
			{
				"type": "unocc",
				"energy": 0.02168,
				"method": "rhf"
			}
		],
		"cosmo_sigma_profile": { 
			"-0.025": 0.0,
			"-0.024": 0.0,
			"-0.023": 0.0,
			"-0.022": 0.0,
			"-0.021": 0.0,
			"-0.02": 0.0,
			"-0.019": 0.0,
			"-0.018": 0.0,
			"-0.017": 0.0,
			"-0.016": 0.0,
			"-0.015": 0.0,
			"-0.014": 0.0,
			"-0.013": 0.0,
			"-0.012": 0.0,
			"-0.011": 0.254889255198,
			"-0.01": 0.679416957046,
			"-0.009": 0.599358901869,
			"-0.008": 3.28624841354,
			"-0.007": 9.58237901481,
			"-0.006": 13.8957242497,
			"-0.005": 26.2938902197,
			"-0.004": 35.9684935883,
			"-0.003": 49.6496107526,
			"-0.002": 49.3521179384,
			"-0.001": 42.9708083192,
			"0.0": 31.3470146948,
			"0.001": 27.1370680016,
			"0.002": 19.6508532436,
			"0.003": 16.4672954462,
			"0.004": 13.2902480925,
			"0.005": 10.3086984279,
			"0.006": 7.83238165754,
			"0.007": 7.23488829517,
			"0.008": 6.68129154663,
			"0.009": 5.89719263608,
			"0.01": 5.98642160354,
			"0.011": 4.3164997974,
			"0.012": 5.37103210601,
			"0.013": 5.13999823954,
			"0.014": 5.1779798616,
			"0.015": 1.50377697871,
			"0.016": 0.00409672465433,
			"0.017": 0.0,
			"0.018": 0.0,
			"0.019": 0.0,
			"0.02": 0.0,
			"0.021": 0.0,
			"0.022": 0.0,
			"0.023": 0.0,
			"0.024": 0.0,
			"0.025": 0.0
		}
	}
}
