{
	 "smiles": "OC(=O)C1CCCCN1C(=O)C1CCCC1", 
	 "Tm": 395.15, 
	 "num_atms": 35, 
	 "gaussian": { 
		 "optdone": 1, 
		 "sigma_profile": "yes", 
		 "theory": "DFT", 
		 "functional": "B3LYP", 
		 "basiset": "6-31G**", 
		 "properties": { 
			 "R2extent": 3652.1632, 
			 "electric_dipole_moment_norm": 2.36270519744, 
			 "electric_quadrupole_moment_norm": 16.9048752027, 
			 "total_energy": -749.178767559, 
			 "HOMO_LUMO_gap": 0.22845, 
			 "cosmo_polarized_energy": -14.78, 
			 "cosmo_cavitation_energy": 34.45, 
			 "cosmo_dispersion_energy": -24.05, 
			 "cosmo_repulsion_energy": 1.88, 
			 "cosmo_total_nonelectrostatic_energy": 12.28, 
			 "SMD_solvation_energy": 5.65 
		},
		"coords": [
			{
				"x": 2.1161597811,
				"y": -0.9281024214,
				"z": -0.5930451848,
				"element": "O" 
			},
			{
				"x": 1.5003000808,
				"y": 0.1727727344,
				"z": -1.0786160115,
				"element": "C" 
			},
			{
				"x": 1.3251502067,
				"y": 0.3634410367,
				"z": -2.2619305755,
				"element": "O" 
			},
			{
				"x": 1.1720311611,
				"y": 1.1792148091,
				"z": 0.0153944824,
				"element": "C" 
			},
			{
				"x": 0.3990170624,
				"y": 2.4150736427,
				"z": -0.4827062084,
				"element": "C" 
			},
			{
				"x": -0.1308116088,
				"y": 3.2032301478,
				"z": 0.7399911314,
				"element": "C" 
			},
			{
				"x": 0.7961644915,
				"y": 3.031507292,
				"z": 1.9554429044,
				"element": "C" 
			},
			{
				"x": 0.8620688998,
				"y": 1.5430058924,
				"z": 2.3919968714,
				"element": "C" 
			},
			{
				"x": 0.5786039878,
				"y": 0.6552525241,
				"z": 1.2484598529,
				"element": "N" 
			},
			{
				"x": -0.4805715969,
				"y": -0.2284278935,
				"z": 1.3680136412,
				"element": "C" 
			},
			{
				"x": -0.9667909494,
				"y": -0.4717721492,
				"z": 2.4705487344,
				"element": "O" 
			},
			{
				"x": -1.0599486878,
				"y": -0.9122758966,
				"z": 0.1322448891,
				"element": "C" 
			},
			{
				"x": -2.597061191,
				"y": -0.7619663769,
				"z": 0.0715505817,
				"element": "C" 
			},
			{
				"x": -3.0407551455,
				"y": -1.8654815805,
				"z": -0.9085179966,
				"element": "C" 
			},
			{
				"x": -1.9937747494,
				"y": -3.0079153352,
				"z": -0.7541303763,
				"element": "C" 
			},
			{
				"x": -0.8858245553,
				"y": -2.4488575999,
				"z": 0.173550598,
				"element": "C" 
			},
			{
				"x": 2.335906554,
				"y": -1.477075756,
				"z": -1.3649271648,
				"element": "H" 
			},
			{
				"x": 2.1760114694,
				"y": 1.5115042807,
				"z": 0.3198491561,
				"element": "H" 
			},
			{
				"x": 1.0702264217,
				"y": 3.0310460401,
				"z": -1.0905925454,
				"element": "H" 
			},
			{
				"x": -0.4213453771,
				"y": 2.1084427141,
				"z": -1.1388063446,
				"element": "H" 
			},
			{
				"x": -0.2419426699,
				"y": 4.2623152028,
				"z": 0.4867326618,
				"element": "H" 
			},
			{
				"x": -1.1305003905,
				"y": 2.8404242585,
				"z": 1.005884727,
				"element": "H" 
			},
			{
				"x": 1.7977386207,
				"y": 3.4047877373,
				"z": 1.705555313,
				"element": "H" 
			},
			{
				"x": 0.4462809426,
				"y": 3.6376654103,
				"z": 2.797396207,
				"element": "H" 
			},
			{
				"x": 1.8464640199,
				"y": 1.3024670537,
				"z": 2.8140201889,
				"element": "H" 
			},
			{
				"x": 0.1116710207,
				"y": 1.3143670676,
				"z": 3.1481431311,
				"element": "H" 
			},
			{
				"x": -0.6460603034,
				"y": -0.5203006867,
				"z": -0.8000693742,
				"element": "H" 
			},
			{
				"x": -2.9916765886,
				"y": -0.9420721294,
				"z": 1.076196813,
				"element": "H" 
			},
			{
				"x": -2.91577647,
				"y": 0.2390094154,
				"z": -0.2389619895,
				"element": "H" 
			},
			{
				"x": -3.0316126596,
				"y": -1.4827820808,
				"z": -1.9352466551,
				"element": "H" 
			},
			{
				"x": -4.0624125894,
				"y": -2.2019651703,
				"z": -0.7071243305,
				"element": "H" 
			},
			{
				"x": -1.5851044018,
				"y": -3.2885514853,
				"z": -1.7304659391,
				"element": "H" 
			},
			{
				"x": -2.4375375437,
				"y": -3.9136857744,
				"z": -0.3296094878,
				"element": "H" 
			},
			{
				"x": 0.1207560807,
				"y": -2.7626002513,
				"z": -0.1169208708,
				"element": "H" 
			},
			{
				"x": -1.0465433227,
				"y": -2.7720946722,
				"z": 1.2068991703,
				"element": "H" 
			}
		],
		 "valence_orbital": [ 
			{
				"type": "occ",
				"energy": -0.31329,
				"method": "rhf"
			},
			{
				"type": "occ",
				"energy": -0.31021,
				"method": "rhf"
			},
			{
				"type": "occ",
				"energy": -0.28935,
				"method": "rhf"
			},
			{
				"type": "occ",
				"energy": -0.24314,
				"method": "rhf"
			},
			{
				"type": "occ",
				"energy": -0.23783,
				"method": "rhf"
			},
			{
				"type": "unocc",
				"energy": -0.00938,
				"method": "rhf"
			},
			{
				"type": "unocc",
				"energy": 0.02351,
				"method": "rhf"
			},
			{
				"type": "unocc",
				"energy": 0.05705,
				"method": "rhf"
			},
			{
				"type": "unocc",
				"energy": 0.0762,
				"method": "rhf"
			},
			{
				"type": "unocc",
				"energy": 0.08507,
				"method": "rhf"
			}
		],
		"cosmo_sigma_profile": { 
			"-0.025": 0.0,
			"-0.024": 0.0,
			"-0.023": 0.0,
			"-0.022": 0.0,
			"-0.021": 0.0,
			"-0.02": 0.0,
			"-0.019": 0.167628877073,
			"-0.018": 0.719464985006,
			"-0.017": 1.17371684708,
			"-0.016": 0.623432314235,
			"-0.015": 0.784132000593,
			"-0.014": 0.590838258836,
			"-0.013": 0.790820945561,
			"-0.012": 0.557230794333,
			"-0.011": 0.929734055216,
			"-0.01": 0.843664762163,
			"-0.009": 0.899399129862,
			"-0.008": 2.84829142584,
			"-0.007": 4.56658650629,
			"-0.006": 3.51005415397,
			"-0.005": 5.18075785759,
			"-0.004": 14.7235369172,
			"-0.003": 32.9258165088,
			"-0.002": 40.6788478685,
			"-0.001": 39.4099672819,
			"0.0": 29.5739298434,
			"0.001": 21.8431115605,
			"0.002": 8.28874177473,
			"0.003": 5.78403403514,
			"0.004": 4.81063213097,
			"0.005": 4.13953963025,
			"0.006": 5.45521057605,
			"0.007": 4.5876119676,
			"0.008": 4.35515467335,
			"0.009": 4.45570880511,
			"0.01": 4.54995618628,
			"0.011": 5.88701222557,
			"0.012": 3.59524594958,
			"0.013": 2.57165746711,
			"0.014": 4.33620019352,
			"0.015": 0.588615032847,
			"0.016": 0.0,
			"0.017": 0.0,
			"0.018": 0.0,
			"0.019": 0.0,
			"0.02": 0.0,
			"0.021": 0.0,
			"0.022": 0.0,
			"0.023": 0.0,
			"0.024": 0.0,
			"0.025": 0.0
		}
	}
}
