{
	 "smiles": "FC(F)(F)C(=O)NC1=CC=CC=C1", 
	 "Tm": 361.15, 
	 "num_atms": 19, 
	 "gaussian": { 
		 "optdone": 1, 
		 "sigma_profile": "yes", 
		 "theory": "DFT", 
		 "functional": "B3LYP", 
		 "basiset": "6-31G**", 
		 "properties": { 
			 "R2extent": 3914.801, 
			 "electric_dipole_moment_norm": 3.98064444406, 
			 "electric_quadrupole_moment_norm": 15.4810969744, 
			 "total_energy": -737.966005599, 
			 "HOMO_LUMO_gap": 0.21096, 
			 "cosmo_polarized_energy": -9.61, 
			 "cosmo_cavitation_energy": 24.85, 
			 "cosmo_dispersion_energy": -17.73, 
			 "cosmo_repulsion_energy": 1.36, 
			 "cosmo_total_nonelectrostatic_energy": 8.47, 
			 "SMD_solvation_energy": 6.21 
		},
		"coords": [
			{
				"x": -2.734692028,
				"y": 0.8920614245,
				"z": 1.3170836536,
				"element": "F" 
			},
			{
				"x": -3.2620176959,
				"y": -0.0635670819,
				"z": 2.1061022764,
				"element": "C" 
			},
			{
				"x": -4.562749942,
				"y": 0.1863368434,
				"z": 2.2512462974,
				"element": "F" 
			},
			{
				"x": -2.681758791,
				"y": 0.0330566647,
				"z": 3.3263488209,
				"element": "F" 
			},
			{
				"x": -3.0665826434,
				"y": -1.4877959339,
				"z": 1.5262980462,
				"element": "C" 
			},
			{
				"x": -3.9823514937,
				"y": -2.2857350788,
				"z": 1.6094379751,
				"element": "O" 
			},
			{
				"x": -1.8726420788,
				"y": -1.7974515639,
				"z": 0.9341429987,
				"element": "N" 
			},
			{
				"x": -0.6617548253,
				"y": -1.0704992328,
				"z": 0.7351979738,
				"element": "C" 
			},
			{
				"x": -0.0269955476,
				"y": -0.3825470431,
				"z": 1.775014602,
				"element": "C" 
			},
			{
				"x": 1.1789094373,
				"y": 0.2743772999,
				"z": 1.5314010335,
				"element": "C" 
			},
			{
				"x": 1.7744508482,
				"y": 0.2243966061,
				"z": 0.2702200672,
				"element": "C" 
			},
			{
				"x": 1.1508200095,
				"y": -0.484329018,
				"z": -0.7584265922,
				"element": "C" 
			},
			{
				"x": -0.0659826262,
				"y": -1.1245760129,
				"z": -0.531089483,
				"element": "C" 
			},
			{
				"x": -1.9101312288,
				"y": -2.7237018259,
				"z": 0.5236469771,
				"element": "H" 
			},
			{
				"x": -0.4707863289,
				"y": -0.3640166464,
				"z": 2.7623187374,
				"element": "H" 
			},
			{
				"x": 1.6622161337,
				"y": 0.8131104536,
				"z": 2.3409618653,
				"element": "H" 
			},
			{
				"x": 2.7190194714,
				"y": 0.7288233619,
				"z": 0.0914884561,
				"element": "H" 
			},
			{
				"x": 1.6056019982,
				"y": -0.5330105024,
				"z": -1.7433035061,
				"element": "H" 
			},
			{
				"x": -0.5642726687,
				"y": -1.6607327141,
				"z": -1.3339901994,
				"element": "H" 
			}
		],
		 "valence_orbital": [ 
			{
				"type": "occ",
				"energy": -0.36194,
				"method": "rhf"
			},
			{
				"type": "occ",
				"energy": -0.30953,
				"method": "rhf"
			},
			{
				"type": "occ",
				"energy": -0.28121,
				"method": "rhf"
			},
			{
				"type": "occ",
				"energy": -0.26701,
				"method": "rhf"
			},
			{
				"type": "occ",
				"energy": -0.24525,
				"method": "rhf"
			},
			{
				"type": "unocc",
				"energy": -0.03429,
				"method": "rhf"
			},
			{
				"type": "unocc",
				"energy": -0.01788,
				"method": "rhf"
			},
			{
				"type": "unocc",
				"energy": 0.00188,
				"method": "rhf"
			},
			{
				"type": "unocc",
				"energy": 0.0775,
				"method": "rhf"
			},
			{
				"type": "unocc",
				"energy": 0.08498,
				"method": "rhf"
			}
		],
		"cosmo_sigma_profile": { 
			"-0.025": 0.0,
			"-0.024": 0.0,
			"-0.023": 0.0,
			"-0.022": 0.0,
			"-0.021": 0.0,
			"-0.02": 0.0,
			"-0.019": 0.0,
			"-0.018": 0.0,
			"-0.017": 0.0,
			"-0.016": 0.32977284888,
			"-0.015": 0.97527194286,
			"-0.014": 1.37019189922,
			"-0.013": 0.506541945329,
			"-0.012": 1.28937815031,
			"-0.011": 1.33410434798,
			"-0.01": 1.17928333261,
			"-0.009": 0.895886714036,
			"-0.008": 1.15547349079,
			"-0.007": 3.56412680305,
			"-0.006": 10.0025891597,
			"-0.005": 14.204631701,
			"-0.004": 12.5468975084,
			"-0.003": 11.8830177635,
			"-0.002": 11.3797978851,
			"-0.001": 12.1003807564,
			"0.0": 13.836842461,
			"0.001": 18.999672497,
			"0.002": 30.5489336233,
			"0.003": 13.19321297,
			"0.004": 13.6318824306,
			"0.005": 7.64230803493,
			"0.006": 1.37650283833,
			"0.007": 1.48629213717,
			"0.008": 1.37016585885,
			"0.009": 2.06077064516,
			"0.01": 1.94493164929,
			"0.011": 4.98065834653,
			"0.012": 3.69704843568,
			"0.013": 0.0656395379561,
			"0.014": 0.0,
			"0.015": 0.0,
			"0.016": 0.0,
			"0.017": 0.0,
			"0.018": 0.0,
			"0.019": 0.0,
			"0.02": 0.0,
			"0.021": 0.0,
			"0.022": 0.0,
			"0.023": 0.0,
			"0.024": 0.0,
			"0.025": 0.0
		}
	}
}
