{
	 "smiles": "COC1=CC2=C(C=C1)C(=O)C(=C(C)O2)C1=CC=CC=C1", 
	 "Tm": 410.15, 
	 "num_atms": 34, 
	 "gaussian": { 
		 "optdone": 1, 
		 "sigma_profile": "yes", 
		 "theory": "DFT", 
		 "functional": "B3LYP", 
		 "basiset": "6-31G**", 
		 "properties": { 
			 "R2extent": 7552.3777, 
			 "electric_dipole_moment_norm": 3.28025834806, 
			 "electric_quadrupole_moment_norm": 25.6619605009, 
			 "total_energy": -881.913538361, 
			 "HOMO_LUMO_gap": 0.1748, 
			 "cosmo_polarized_energy": -13.63, 
			 "cosmo_cavitation_energy": 37.79, 
			 "cosmo_dispersion_energy": -27.43, 
			 "cosmo_repulsion_energy": 2.08, 
			 "cosmo_total_nonelectrostatic_energy": 12.44, 
			 "SMD_solvation_energy": 7.84 
		},
		"coords": [
			{
				"x": 3.1751389481,
				"y": -1.323106808,
				"z": -6.0713774639,
				"element": "C" 
			},
			{
				"x": 3.4880953143,
				"y": -1.4510682923,
				"z": -4.6906004613,
				"element": "O" 
			},
			{
				"x": 2.5386307705,
				"y": -1.1264192029,
				"z": -3.773648561,
				"element": "C" 
			},
			{
				"x": 2.9171087068,
				"y": -1.2788445069,
				"z": -2.4373151473,
				"element": "C" 
			},
			{
				"x": 1.9990590014,
				"y": -0.9650799103,
				"z": -1.4395844973,
				"element": "C" 
			},
			{
				"x": 0.7088799493,
				"y": -0.5041838214,
				"z": -1.7320312952,
				"element": "C" 
			},
			{
				"x": 0.3534964372,
				"y": -0.3622378078,
				"z": -3.0813025835,
				"element": "C" 
			},
			{
				"x": 1.2456700655,
				"y": -0.6638394122,
				"z": -4.09894791,
				"element": "C" 
			},
			{
				"x": -0.2325961232,
				"y": -0.1827710838,
				"z": -0.6457407314,
				"element": "C" 
			},
			{
				"x": -1.3867223951,
				"y": 0.1836751646,
				"z": -0.8702049938,
				"element": "O" 
			},
			{
				"x": 0.3174173243,
				"y": -0.3339152707,
				"z": 0.7221133067,
				"element": "C" 
			},
			{
				"x": 1.5781300918,
				"y": -0.8247557698,
				"z": 0.8935320381,
				"element": "C" 
			},
			{
				"x": 2.2674562762,
				"y": -1.1417560383,
				"z": 2.1859769619,
				"element": "C" 
			},
			{
				"x": 2.4090083289,
				"y": -1.1374562998,
				"z": -0.1462049484,
				"element": "O" 
			},
			{
				"x": -0.540998742,
				"y": 0.0593601829,
				"z": 1.8720446871,
				"element": "C" 
			},
			{
				"x": -1.8423070623,
				"y": -0.4546112504,
				"z": 1.998889882,
				"element": "C" 
			},
			{
				"x": -2.6496629957,
				"y": -0.085151401,
				"z": 3.0731435356,
				"element": "C" 
			},
			{
				"x": -2.179594153,
				"y": 0.8120019742,
				"z": 4.0350838662,
				"element": "C" 
			},
			{
				"x": -0.8959054789,
				"y": 1.3441102218,
				"z": 3.9110203196,
				"element": "C" 
			},
			{
				"x": -0.0872754606,
				"y": 0.9744125605,
				"z": 2.8354298431,
				"element": "C" 
			},
			{
				"x": 2.3383589801,
				"y": -1.9719526379,
				"z": -6.3577488539,
				"element": "H" 
			},
			{
				"x": 2.93588584,
				"y": -0.2860756521,
				"z": -6.3369505954,
				"element": "H" 
			},
			{
				"x": 4.0713194883,
				"y": -1.6340812223,
				"z": -6.6097954532,
				"element": "H" 
			},
			{
				"x": 3.9087777804,
				"y": -1.6365131353,
				"z": -2.1872187279,
				"element": "H" 
			},
			{
				"x": -0.6479994223,
				"y": -0.0059419314,
				"z": -3.29929342,
				"element": "H" 
			},
			{
				"x": 0.943657084,
				"y": -0.5426615535,
				"z": -5.1318125491,
				"element": "H" 
			},
			{
				"x": 2.7122970162,
				"y": -2.1400625958,
				"z": 2.1211308777,
				"element": "H" 
			},
			{
				"x": 3.0848421156,
				"y": -0.4360718119,
				"z": 2.3746483902,
				"element": "H" 
			},
			{
				"x": 1.5744498638,
				"y": -1.1060656628,
				"z": 3.024673193,
				"element": "H" 
			},
			{
				"x": -2.2188380927,
				"y": -1.1378860048,
				"z": 1.2466110104,
				"element": "H" 
			},
			{
				"x": -3.6514667147,
				"y": -0.4969012346,
				"z": 3.1573687316,
				"element": "H" 
			},
			{
				"x": -2.8125291508,
				"y": 1.1001740983,
				"z": 4.869634045,
				"element": "H" 
			},
			{
				"x": -0.5250607212,
				"y": 2.05450663,
				"z": 4.6446297133,
				"element": "H" 
			},
			{
				"x": 0.9012771295,
				"y": 1.4125694857,
				"z": 2.7301477916,
				"element": "H" 
			}
		],
		 "valence_orbital": [ 
			{
				"type": "occ",
				"energy": -0.24995,
				"method": "rhf"
			},
			{
				"type": "occ",
				"energy": -0.24575,
				"method": "rhf"
			},
			{
				"type": "occ",
				"energy": -0.23188,
				"method": "rhf"
			},
			{
				"type": "occ",
				"energy": -0.23109,
				"method": "rhf"
			},
			{
				"type": "occ",
				"energy": -0.22054,
				"method": "rhf"
			},
			{
				"type": "unocc",
				"energy": -0.04574,
				"method": "rhf"
			},
			{
				"type": "unocc",
				"energy": -0.01813,
				"method": "rhf"
			},
			{
				"type": "unocc",
				"energy": 0.00114,
				"method": "rhf"
			},
			{
				"type": "unocc",
				"energy": 0.00648,
				"method": "rhf"
			},
			{
				"type": "unocc",
				"energy": 0.01905,
				"method": "rhf"
			}
		],
		"cosmo_sigma_profile": { 
			"-0.025": 0.0,
			"-0.024": 0.0,
			"-0.023": 0.0,
			"-0.022": 0.0,
			"-0.021": 0.0,
			"-0.02": 0.0,
			"-0.019": 0.0,
			"-0.018": 0.0,
			"-0.017": 0.0,
			"-0.016": 0.0,
			"-0.015": 0.0,
			"-0.014": 0.0,
			"-0.013": 0.0,
			"-0.012": 0.0,
			"-0.011": 0.0,
			"-0.01": 0.0,
			"-0.009": 0.0,
			"-0.008": 0.370127567121,
			"-0.007": 4.46311262562,
			"-0.006": 17.320227918,
			"-0.005": 27.5284714354,
			"-0.004": 28.888647156,
			"-0.003": 28.8990904107,
			"-0.002": 24.2408061327,
			"-0.001": 25.169332083,
			"0.0": 19.7618749864,
			"0.001": 21.1888531885,
			"0.002": 25.7758847136,
			"0.003": 20.2128534832,
			"0.004": 13.7006570936,
			"0.005": 12.7993784461,
			"0.006": 8.13397673195,
			"0.007": 3.45557382829,
			"0.008": 3.36726859587,
			"0.009": 3.62112530526,
			"0.01": 1.94376433559,
			"0.011": 2.41228730575,
			"0.012": 1.98829791961,
			"0.013": 4.29734780039,
			"0.014": 2.89853299597,
			"0.015": 0.0421049064272,
			"0.016": 0.0,
			"0.017": 0.0,
			"0.018": 0.0,
			"0.019": 0.0,
			"0.02": 0.0,
			"0.021": 0.0,
			"0.022": 0.0,
			"0.023": 0.0,
			"0.024": 0.0,
			"0.025": 0.0
		}
	}
}
