{
	 "smiles": "COC(=O)C1=CC(N)=C(SC2=NC=C(Cl)C=C2)C=C1", 
	 "Tm": 395.15, 
	 "num_atms": 30, 
	 "gaussian": { 
		 "optdone": 1, 
		 "sigma_profile": "yes", 
		 "theory": "DFT", 
		 "functional": "B3LYP", 
		 "basiset": "6-31G**", 
		 "properties": { 
			 "R2extent": 9521.2923, 
			 "electric_dipole_moment_norm": 3.7551545867, 
			 "electric_quadrupole_moment_norm": 14.2828398304, 
			 "total_energy": -1620.35338369, 
			 "HOMO_LUMO_gap": 0.16244, 
			 "cosmo_polarized_energy": -14.3, 
			 "cosmo_cavitation_energy": 38.73, 
			 "cosmo_dispersion_energy": -28.19, 
			 "cosmo_repulsion_energy": 2.15, 
			 "cosmo_total_nonelectrostatic_energy": 12.69, 
			 "SMD_solvation_energy": 6.03 
		},
		"coords": [
			{
				"x": -5.3895900825,
				"y": 1.3107788037,
				"z": 1.8563689861,
				"element": "C" 
			},
			{
				"x": -3.9956601526,
				"y": 1.255983508,
				"z": 1.5155129166,
				"element": "O" 
			},
			{
				"x": -3.7091664931,
				"y": 0.5900974249,
				"z": 0.373074096,
				"element": "C" 
			},
			{
				"x": -4.559939081,
				"y": 0.0713084454,
				"z": -0.3224190323,
				"element": "O" 
			},
			{
				"x": -2.2466658042,
				"y": 0.5677979714,
				"z": 0.0720892926,
				"element": "C" 
			},
			{
				"x": -1.3150562829,
				"y": 1.1786507687,
				"z": 0.91159189,
				"element": "C" 
			},
			{
				"x": 0.0588849714,
				"y": 1.1511147863,
				"z": 0.6101290802,
				"element": "C" 
			},
			{
				"x": 0.9768496341,
				"y": 1.7166082123,
				"z": 1.4754730047,
				"element": "N" 
			},
			{
				"x": 0.4729591141,
				"y": 0.4774007989,
				"z": -0.568224173,
				"element": "C" 
			},
			{
				"x": 2.1898410842,
				"y": 0.4982154664,
				"z": -1.0718698409,
				"element": "S" 
			},
			{
				"x": 2.9626503502,
				"y": -0.7509138819,
				"z": -0.0357303402,
				"element": "C" 
			},
			{
				"x": 4.2889228777,
				"y": -0.7886178614,
				"z": -0.184855423,
				"element": "N" 
			},
			{
				"x": 4.9837700551,
				"y": -1.6887943433,
				"z": 0.5144247617,
				"element": "C" 
			},
			{
				"x": 4.3738483611,
				"y": -2.5804394263,
				"z": 1.3968801161,
				"element": "C" 
			},
			{
				"x": 5.3444621115,
				"y": -3.7318224398,
				"z": 2.292038948,
				"element": "Cl" 
			},
			{
				"x": 2.9889020449,
				"y": -2.5408703858,
				"z": 1.5549688282,
				"element": "C" 
			},
			{
				"x": 2.261548002,
				"y": -1.608926163,
				"z": 0.8215921978,
				"element": "C" 
			},
			{
				"x": -0.4778810741,
				"y": -0.1275735187,
				"z": -1.4020940773,
				"element": "C" 
			},
			{
				"x": -1.8321314951,
				"y": -0.0899771261,
				"z": -1.0948891755,
				"element": "C" 
			},
			{
				"x": -5.7926285157,
				"y": 0.3039266656,
				"z": 1.9910999125,
				"element": "H" 
			},
			{
				"x": -5.4427895718,
				"y": 1.8730668187,
				"z": 2.7885597013,
				"element": "H" 
			},
			{
				"x": -5.9583109106,
				"y": 1.8142195869,
				"z": 1.0705857604,
				"element": "H" 
			},
			{
				"x": -1.6549133592,
				"y": 1.6846808822,
				"z": 1.8088152051,
				"element": "H" 
			},
			{
				"x": 1.8785912577,
				"y": 1.9366925921,
				"z": 1.0717790764,
				"element": "H" 
			},
			{
				"x": 0.6203316063,
				"y": 2.4245503424,
				"z": 2.100654193,
				"element": "H" 
			},
			{
				"x": 6.0614846561,
				"y": -1.701894581,
				"z": 0.3720623612,
				"element": "H" 
			},
			{
				"x": 2.492300345,
				"y": -3.2259815461,
				"z": 2.2339209178,
				"element": "H" 
			},
			{
				"x": 1.1836630691,
				"y": -1.5517628264,
				"z": 0.9117474697,
				"element": "H" 
			},
			{
				"x": -0.1343406725,
				"y": -0.6270428877,
				"z": -2.302330385,
				"element": "H" 
			},
			{
				"x": -2.5739360451,
				"y": -0.5550760862,
				"z": -1.7330562679,
				"element": "H" 
			}
		],
		 "valence_orbital": [ 
			{
				"type": "occ",
				"energy": -0.27851,
				"method": "rhf"
			},
			{
				"type": "occ",
				"energy": -0.27678,
				"method": "rhf"
			},
			{
				"type": "occ",
				"energy": -0.26315,
				"method": "rhf"
			},
			{
				"type": "occ",
				"energy": -0.23027,
				"method": "rhf"
			},
			{
				"type": "occ",
				"energy": -0.22007,
				"method": "rhf"
			},
			{
				"type": "unocc",
				"energy": -0.05763,
				"method": "rhf"
			},
			{
				"type": "unocc",
				"energy": -0.039,
				"method": "rhf"
			},
			{
				"type": "unocc",
				"energy": -0.02428,
				"method": "rhf"
			},
			{
				"type": "unocc",
				"energy": -0.00377,
				"method": "rhf"
			},
			{
				"type": "unocc",
				"energy": 0.02181,
				"method": "rhf"
			}
		],
		"cosmo_sigma_profile": { 
			"-0.025": 0.0,
			"-0.024": 0.0,
			"-0.023": 0.0,
			"-0.022": 0.0,
			"-0.021": 0.0,
			"-0.02": 0.0,
			"-0.019": 0.0,
			"-0.018": 0.0,
			"-0.017": 0.0,
			"-0.016": 0.0,
			"-0.015": 0.0,
			"-0.014": 0.202036366579,
			"-0.013": 1.53859746882,
			"-0.012": 1.46283138094,
			"-0.011": 2.24749064067,
			"-0.01": 3.24407218687,
			"-0.009": 2.81612045788,
			"-0.008": 6.26139752076,
			"-0.007": 8.65493126467,
			"-0.006": 13.8975671382,
			"-0.005": 15.8806570187,
			"-0.004": 19.3857657478,
			"-0.003": 19.1551606759,
			"-0.002": 20.4184237494,
			"-0.001": 23.3588348241,
			"0.0": 31.1444368361,
			"0.001": 27.017606159,
			"0.002": 25.3788260755,
			"0.003": 25.3173432444,
			"0.004": 24.3226393514,
			"0.005": 10.7974698354,
			"0.006": 7.1739280432,
			"0.007": 4.29073909716,
			"0.008": 3.15360345561,
			"0.009": 3.63728321937,
			"0.01": 3.48875120473,
			"0.011": 4.54353102208,
			"0.012": 4.58929423637,
			"0.013": 0.725897674963,
			"0.014": 0.538252864885,
			"0.015": 0.0372030833852,
			"0.016": 0.0,
			"0.017": 0.0,
			"0.018": 0.0,
			"0.019": 0.0,
			"0.02": 0.0,
			"0.021": 0.0,
			"0.022": 0.0,
			"0.023": 0.0,
			"0.024": 0.0,
			"0.025": 0.0
		}
	}
}
