{
	 "smiles": "CC1=NC(C)=C(S1)C(O)=O", 
	 "Tm": 507.15, 
	 "num_atms": 17, 
	 "gaussian": { 
		 "optdone": 1, 
		 "sigma_profile": "yes", 
		 "theory": "DFT", 
		 "functional": "B3LYP", 
		 "basiset": "6-31G**", 
		 "properties": { 
			 "R2extent": 1835.6963, 
			 "electric_dipole_moment_norm": 4.62451672178, 
			 "electric_quadrupole_moment_norm": 11.2133235278, 
			 "total_energy": -836.254280833, 
			 "HOMO_LUMO_gap": 0.18642, 
			 "cosmo_polarized_energy": -13.27, 
			 "cosmo_cavitation_energy": 22.82, 
			 "cosmo_dispersion_energy": -17.47, 
			 "cosmo_repulsion_energy": 1.38, 
			 "cosmo_total_nonelectrostatic_energy": 6.73, 
			 "SMD_solvation_energy": 3.52 
		},
		"coords": [
			{
				"x": 1.1553894991,
				"y": -0.7072346383,
				"z": 2.5365427805,
				"element": "C" 
			},
			{
				"x": 0.4465272287,
				"y": -0.4876151222,
				"z": 1.2364135697,
				"element": "C" 
			},
			{
				"x": -0.8457197982,
				"y": -0.5523064137,
				"z": 1.0829915001,
				"element": "N" 
			},
			{
				"x": -1.2419240319,
				"y": -0.3101333778,
				"z": -0.2131079477,
				"element": "C" 
			},
			{
				"x": -2.7046867693,
				"y": -0.3508188626,
				"z": -0.5413693757,
				"element": "C" 
			},
			{
				"x": -0.210310244,
				"y": -0.0477236442,
				"z": -1.0959199186,
				"element": "C" 
			},
			{
				"x": 1.3192163435,
				"y": -0.1122416968,
				"z": -0.2416722794,
				"element": "S" 
			},
			{
				"x": -0.3596595276,
				"y": 0.242892829,
				"z": -2.5353984577,
				"element": "C" 
			},
			{
				"x": 0.7700161376,
				"y": 0.4780065326,
				"z": -3.2566988232,
				"element": "O" 
			},
			{
				"x": -1.4372458578,
				"y": 0.278582279,
				"z": -3.087862795,
				"element": "O" 
			},
			{
				"x": 1.7249616388,
				"y": 0.1784682746,
				"z": 2.8366372659,
				"element": "H" 
			},
			{
				"x": 0.4087029767,
				"y": -0.9237380601,
				"z": 3.3022733508,
				"element": "H" 
			},
			{
				"x": 1.8541805148,
				"y": -1.5479402551,
				"z": 2.4745224787,
				"element": "H" 
			},
			{
				"x": -2.9136716569,
				"y": -1.0999303265,
				"z": -1.310037515,
				"element": "H" 
			},
			{
				"x": -3.2675581149,
				"y": -0.5831340471,
				"z": 0.3638803888,
				"element": "H" 
			},
			{
				"x": -3.0414492997,
				"y": 0.605094157,
				"z": -0.9518844975,
				"element": "H" 
			},
			{
				"x": 1.5673309611,
				"y": 0.422572372,
				"z": -2.7113097247,
				"element": "H" 
			}
		],
		 "valence_orbital": [ 
			{
				"type": "occ",
				"energy": -0.3188,
				"method": "rhf"
			},
			{
				"type": "occ",
				"energy": -0.29945,
				"method": "rhf"
			},
			{
				"type": "occ",
				"energy": -0.28774,
				"method": "rhf"
			},
			{
				"type": "occ",
				"energy": -0.27694,
				"method": "rhf"
			},
			{
				"type": "occ",
				"energy": -0.25228,
				"method": "rhf"
			},
			{
				"type": "unocc",
				"energy": -0.06586,
				"method": "rhf"
			},
			{
				"type": "unocc",
				"energy": -0.01729,
				"method": "rhf"
			},
			{
				"type": "unocc",
				"energy": 0.01228,
				"method": "rhf"
			},
			{
				"type": "unocc",
				"energy": 0.0578,
				"method": "rhf"
			},
			{
				"type": "unocc",
				"energy": 0.08282,
				"method": "rhf"
			}
		],
		"cosmo_sigma_profile": { 
			"-0.025": 0.0,
			"-0.024": 0.0,
			"-0.023": 0.0,
			"-0.022": 0.0,
			"-0.021": 0.0,
			"-0.02": 0.0,
			"-0.019": 0.0154938129519,
			"-0.018": 0.49882936267,
			"-0.017": 0.716147039796,
			"-0.016": 0.805552259023,
			"-0.015": 1.01985390873,
			"-0.014": 0.574716894795,
			"-0.013": 1.32752102188,
			"-0.012": 1.53959431832,
			"-0.011": 0.776233534706,
			"-0.01": 0.822447040006,
			"-0.009": 0.740872261121,
			"-0.008": 1.09778491813,
			"-0.007": 2.83301732626,
			"-0.006": 9.31383951698,
			"-0.005": 10.2365710991,
			"-0.004": 13.1735455686,
			"-0.003": 15.8796079603,
			"-0.002": 17.7717137153,
			"-0.001": 18.7553558736,
			"0.0": 19.7996321997,
			"0.001": 11.1144200252,
			"0.002": 8.39153115919,
			"0.003": 4.73673400587,
			"0.004": 3.66211806225,
			"0.005": 4.59045160621,
			"0.006": 2.96127280312,
			"0.007": 3.68592373991,
			"0.008": 4.48129744543,
			"0.009": 3.90642823085,
			"0.01": 5.61753453195,
			"0.011": 5.17586797944,
			"0.012": 4.73217503351,
			"0.013": 2.42420453716,
			"0.014": 0.570219375908,
			"0.015": 0.0,
			"0.016": 0.0,
			"0.017": 0.0,
			"0.018": 0.0,
			"0.019": 0.0,
			"0.02": 0.0,
			"0.021": 0.0,
			"0.022": 0.0,
			"0.023": 0.0,
			"0.024": 0.0,
			"0.025": 0.0
		}
	}
}
