{
	 "smiles": "CC1=CN=C(C=N1)C(=O)NCCC1=CC=C(C=C1)S(=O)(=O)NC(=O)NC1CCCCC1", 
	 "Tm": 481.65, 
	 "num_atms": 58, 
	 "gaussian": { 
		 "optdone": 1, 
		 "sigma_profile": "yes", 
		 "theory": "DFT", 
		 "functional": "B3LYP", 
		 "basiset": "6-31G**", 
		 "properties": { 
			 "R2extent": 13304.5447, 
			 "electric_dipole_moment_norm": 5.02523687402, 
			 "electric_quadrupole_moment_norm": 32.5630087914, 
			 "total_energy": -1789.33550448, 
			 "HOMO_LUMO_gap": 0.17719, 
			 "cosmo_polarized_energy": -27.52, 
			 "cosmo_cavitation_energy": 59.75, 
			 "cosmo_dispersion_energy": -37.5, 
			 "cosmo_repulsion_energy": 2.74, 
			 "cosmo_total_nonelectrostatic_energy": 24.99, 
			 "SMD_solvation_energy": 6.61 
		},
		"coords": [
			{
				"x": 0.9596039329,
				"y": 3.96775075,
				"z": 2.1114603448,
				"element": "C" 
			},
			{
				"x": 0.8426113732,
				"y": 3.4228920983,
				"z": 0.7175920565,
				"element": "C" 
			},
			{
				"x": -0.1965253579,
				"y": 3.8107190471,
				"z": -0.1450202298,
				"element": "C" 
			},
			{
				"x": -0.3886772609,
				"y": 3.2401588661,
				"z": -1.3326400113,
				"element": "N" 
			},
			{
				"x": 0.4840456244,
				"y": 2.2895308121,
				"z": -1.6951794878,
				"element": "C" 
			},
			{
				"x": 1.5612310578,
				"y": 1.9471139068,
				"z": -0.876017128,
				"element": "C" 
			},
			{
				"x": 1.7368170039,
				"y": 2.4999514049,
				"z": 0.3279066357,
				"element": "N" 
			},
			{
				"x": 0.2349741968,
				"y": 1.5087447821,
				"z": -2.9583515762,
				"element": "C" 
			},
			{
				"x": 0.9837320266,
				"y": 0.5944317795,
				"z": -3.2947677766,
				"element": "O" 
			},
			{
				"x": -0.889552542,
				"y": 1.879323514,
				"z": -3.6328601056,
				"element": "N" 
			},
			{
				"x": -1.5067803393,
				"y": 1.0045983068,
				"z": -4.6135771786,
				"element": "C" 
			},
			{
				"x": -2.8038177426,
				"y": 0.3378974356,
				"z": -4.0855430089,
				"element": "C" 
			},
			{
				"x": -2.6104300474,
				"y": -0.3522656918,
				"z": -2.7531221456,
				"element": "C" 
			},
			{
				"x": -2.0312845247,
				"y": -1.6274356086,
				"z": -2.6749411567,
				"element": "C" 
			},
			{
				"x": -1.7657761517,
				"y": -2.2192348795,
				"z": -1.4420706198,
				"element": "C" 
			},
			{
				"x": -2.0807420283,
				"y": -1.5207470531,
				"z": -0.2737875619,
				"element": "C" 
			},
			{
				"x": -2.6834713831,
				"y": -0.2639474431,
				"z": -0.3183311523,
				"element": "C" 
			},
			{
				"x": -2.9471032969,
				"y": 0.3061256136,
				"z": -1.5618159734,
				"element": "C" 
			},
			{
				"x": -1.6901446577,
				"y": -2.2508757947,
				"z": 1.3116421441,
				"element": "S" 
			},
			{
				"x": -2.5916883066,
				"y": -1.7026391649,
				"z": 2.3157862072,
				"element": "O" 
			},
			{
				"x": -1.5144742277,
				"y": -3.6952704277,
				"z": 1.1325142852,
				"element": "O" 
			},
			{
				"x": -0.0940576642,
				"y": -1.7485962177,
				"z": 1.6554604596,
				"element": "N" 
			},
			{
				"x": 0.3183807595,
				"y": -0.408762349,
				"z": 1.7337459566,
				"element": "C" 
			},
			{
				"x": -0.4798399922,
				"y": 0.5188550037,
				"z": 1.6477713649,
				"element": "O" 
			},
			{
				"x": 1.6625955739,
				"y": -0.2218765045,
				"z": 1.8968829049,
				"element": "N" 
			},
			{
				"x": 2.7197600356,
				"y": -1.2351293185,
				"z": 2.0170032787,
				"element": "C" 
			},
			{
				"x": 4.1016736942,
				"y": -0.5836599488,
				"z": 1.7240223787,
				"element": "C" 
			},
			{
				"x": 4.8969494804,
				"y": -0.2298975965,
				"z": 2.9996627811,
				"element": "C" 
			},
			{
				"x": 3.9683127236,
				"y": 0.2426943229,
				"z": 4.1253057407,
				"element": "C" 
			},
			{
				"x": 2.978254416,
				"y": -0.8739503952,
				"z": 4.5407197477,
				"element": "C" 
			},
			{
				"x": 2.7267467621,
				"y": -1.8952746754,
				"z": 3.4100568371,
				"element": "C" 
			},
			{
				"x": 0.5331442652,
				"y": 3.2398535423,
				"z": 2.8121225433,
				"element": "H" 
			},
			{
				"x": 0.4165071733,
				"y": 4.9091205022,
				"z": 2.2279417542,
				"element": "H" 
			},
			{
				"x": 2.0082468081,
				"y": 4.1197479276,
				"z": 2.3793051444,
				"element": "H" 
			},
			{
				"x": -0.8999182005,
				"y": 4.5853730675,
				"z": 0.1525683309,
				"element": "H" 
			},
			{
				"x": 2.2664639856,
				"y": 1.189825844,
				"z": -1.2034826826,
				"element": "H" 
			},
			{
				"x": -1.4367944852,
				"y": 2.6079923417,
				"z": -3.1898752742,
				"element": "H" 
			},
			{
				"x": -0.7585661612,
				"y": 0.2477394299,
				"z": -4.8591412638,
				"element": "H" 
			},
			{
				"x": -1.735081987,
				"y": 1.5629601633,
				"z": -5.5291506217,
				"element": "H" 
			},
			{
				"x": -3.1486686029,
				"y": -0.3734733834,
				"z": -4.8454617915,
				"element": "H" 
			},
			{
				"x": -3.5860118198,
				"y": 1.1007987451,
				"z": -3.9911458296,
				"element": "H" 
			},
			{
				"x": -1.7766110216,
				"y": -2.1599708373,
				"z": -3.5872981068,
				"element": "H" 
			},
			{
				"x": -1.3272642498,
				"y": -3.2091293374,
				"z": -1.3795667616,
				"element": "H" 
			},
			{
				"x": -2.9175213676,
				"y": 0.2541734214,
				"z": 0.6028414989,
				"element": "H" 
			},
			{
				"x": -3.4120631331,
				"y": 1.287259311,
				"z": -1.6052707505,
				"element": "H" 
			},
			{
				"x": 0.5706231723,
				"y": -2.5012888976,
				"z": 1.5286200782,
				"element": "H" 
			},
			{
				"x": 1.9326202049,
				"y": 0.7461060295,
				"z": 1.7537243868,
				"element": "H" 
			},
			{
				"x": 2.5475312514,
				"y": -2.0073876683,
				"z": 1.2528823459,
				"element": "H" 
			},
			{
				"x": 3.9446869049,
				"y": 0.3172381362,
				"z": 1.1195835553,
				"element": "H" 
			},
			{
				"x": 4.6902545272,
				"y": -1.2665096229,
				"z": 1.1027234444,
				"element": "H" 
			},
			{
				"x": 5.6435293056,
				"y": 0.5358998748,
				"z": 2.7626063258,
				"element": "H" 
			},
			{
				"x": 5.4593575588,
				"y": -1.1079075595,
				"z": 3.3426293298,
				"element": "H" 
			},
			{
				"x": 4.552943432,
				"y": 0.5729654792,
				"z": 4.9907312239,
				"element": "H" 
			},
			{
				"x": 3.4124208304,
				"y": 1.123486814,
				"z": 3.7796026326,
				"element": "H" 
			},
			{
				"x": 3.3640271004,
				"y": -1.4130084671,
				"z": 5.4134072869,
				"element": "H" 
			},
			{
				"x": 2.028658894,
				"y": -0.4265933881,
				"z": 4.8499645381,
				"element": "H" 
			},
			{
				"x": 3.5152967671,
				"y": -2.6585335507,
				"z": 3.4050777601,
				"element": "H" 
			},
			{
				"x": 1.7864657103,
				"y": -2.4263624923,
				"z": 3.5904528917,
				"element": "H" 
			}
		],
		 "valence_orbital": [ 
			{
				"type": "occ",
				"energy": -0.26289,
				"method": "rhf"
			},
			{
				"type": "occ",
				"energy": -0.25954,
				"method": "rhf"
			},
			{
				"type": "occ",
				"energy": -0.25373,
				"method": "rhf"
			},
			{
				"type": "occ",
				"energy": -0.25036,
				"method": "rhf"
			},
			{
				"type": "occ",
				"energy": -0.24594,
				"method": "rhf"
			},
			{
				"type": "unocc",
				"energy": -0.06875,
				"method": "rhf"
			},
			{
				"type": "unocc",
				"energy": -0.04393,
				"method": "rhf"
			},
			{
				"type": "unocc",
				"energy": -0.03535,
				"method": "rhf"
			},
			{
				"type": "unocc",
				"energy": -0.01349,
				"method": "rhf"
			},
			{
				"type": "unocc",
				"energy": 0.03891,
				"method": "rhf"
			}
		],
		"cosmo_sigma_profile": { 
			"-0.025": 0.0,
			"-0.024": 0.0,
			"-0.023": 0.0,
			"-0.022": 0.0,
			"-0.021": 0.0,
			"-0.02": 0.0,
			"-0.019": 0.0,
			"-0.018": 0.0,
			"-0.017": 0.0,
			"-0.016": 0.0,
			"-0.015": 0.327373189106,
			"-0.014": 0.777903963753,
			"-0.013": 0.920608104272,
			"-0.012": 1.43517389197,
			"-0.011": 2.25315430186,
			"-0.01": 2.02582613351,
			"-0.009": 2.45039223506,
			"-0.008": 4.86805203434,
			"-0.007": 10.3014873332,
			"-0.006": 18.6900031629,
			"-0.005": 27.1020329863,
			"-0.004": 29.6171157483,
			"-0.003": 44.6750319662,
			"-0.002": 55.3258053749,
			"-0.001": 55.3427147527,
			"0.0": 43.9636290187,
			"0.001": 33.4200598436,
			"0.002": 21.5788577139,
			"0.003": 20.8397322654,
			"0.004": 13.301051061,
			"0.005": 11.1784447329,
			"0.006": 10.9387157351,
			"0.007": 9.25823336225,
			"0.008": 8.51774122427,
			"0.009": 7.20323622356,
			"0.01": 13.2924435951,
			"0.011": 10.1168125147,
			"0.012": 4.73356022563,
			"0.013": 4.99942633915,
			"0.014": 1.37800789036,
			"0.015": 0.0,
			"0.016": 0.0,
			"0.017": 0.0,
			"0.018": 0.0,
			"0.019": 0.0,
			"0.02": 0.0,
			"0.021": 0.0,
			"0.022": 0.0,
			"0.023": 0.0,
			"0.024": 0.0,
			"0.025": 0.0
		}
	}
}
