{
	 "smiles": "O=CC1=CC=CC=N1", 
	 "Tm": 252.15, 
	 "num_atms": 13, 
	 "gaussian": { 
		 "optdone": 1, 
		 "sigma_profile": "yes", 
		 "theory": "DFT", 
		 "functional": "B3LYP", 
		 "basiset": "6-31G**", 
		 "properties": { 
			 "R2extent": 1882.5793, 
			 "electric_dipole_moment_norm": 3.63333583914, 
			 "electric_quadrupole_moment_norm": 12.4002131127, 
			 "total_energy": -361.609257229, 
			 "HOMO_LUMO_gap": 0.18233, 
			 "cosmo_polarized_energy": -7.88, 
			 "cosmo_cavitation_energy": 17.78, 
			 "cosmo_dispersion_energy": -13.16, 
			 "cosmo_repulsion_energy": 1.09, 
			 "cosmo_total_nonelectrostatic_energy": 5.7, 
			 "SMD_solvation_energy": 3.0 
		},
		"coords": [
			{
				"x": 1.0011995129,
				"y": 4.6603385749,
				"z": -1.1438853049,
				"element": "O" 
			},
			{
				"x": 0.36495653,
				"y": 4.1873776268,
				"z": -0.2233290904,
				"element": "C" 
			},
			{
				"x": 0.2534201872,
				"y": 2.7246578183,
				"z": 0.0468642153,
				"element": "C" 
			},
			{
				"x": 0.9010837537,
				"y": 1.7960689871,
				"z": -0.7759256723,
				"element": "C" 
			},
			{
				"x": 0.7633920465,
				"y": 0.4434437098,
				"z": -0.4780860488,
				"element": "C" 
			},
			{
				"x": -0.0119453231,
				"y": 0.079053371,
				"z": 0.6239454477,
				"element": "C" 
			},
			{
				"x": -0.6181496972,
				"y": 1.08538346,
				"z": 1.3832232873,
				"element": "C" 
			},
			{
				"x": -0.4951724119,
				"y": 2.386660556,
				"z": 1.1097929706,
				"element": "N" 
			},
			{
				"x": -0.1957017229,
				"y": 4.8135449311,
				"z": 0.500527556,
				"element": "H" 
			},
			{
				"x": 1.4870104611,
				"y": 2.1549282807,
				"z": -1.6153346125,
				"element": "H" 
			},
			{
				"x": 1.2481432286,
				"y": -0.3122879138,
				"z": -1.0890907815,
				"element": "H" 
			},
			{
				"x": -0.1479056583,
				"y": -0.963341686,
				"z": 0.8947694261,
				"element": "H" 
			},
			{
				"x": -1.2280309068,
				"y": 0.8295722841,
				"z": 2.2476286071,
				"element": "H" 
			}
		],
		 "valence_orbital": [ 
			{
				"type": "occ",
				"energy": -0.38112,
				"method": "rhf"
			},
			{
				"type": "occ",
				"energy": -0.30335,
				"method": "rhf"
			},
			{
				"type": "occ",
				"energy": -0.27912,
				"method": "rhf"
			},
			{
				"type": "occ",
				"energy": -0.27621,
				"method": "rhf"
			},
			{
				"type": "occ",
				"energy": -0.25651,
				"method": "rhf"
			},
			{
				"type": "unocc",
				"energy": -0.07418,
				"method": "rhf"
			},
			{
				"type": "unocc",
				"energy": -0.0355,
				"method": "rhf"
			},
			{
				"type": "unocc",
				"energy": 0.02981,
				"method": "rhf"
			},
			{
				"type": "unocc",
				"energy": 0.08854,
				"method": "rhf"
			},
			{
				"type": "unocc",
				"energy": 0.12973,
				"method": "rhf"
			}
		],
		"cosmo_sigma_profile": { 
			"-0.025": 0.0,
			"-0.024": 0.0,
			"-0.023": 0.0,
			"-0.022": 0.0,
			"-0.021": 0.0,
			"-0.02": 0.0,
			"-0.019": 0.0,
			"-0.018": 0.0,
			"-0.017": 0.0,
			"-0.016": 0.0,
			"-0.015": 0.0,
			"-0.014": 0.0,
			"-0.013": 0.0,
			"-0.012": 0.0,
			"-0.011": 0.0,
			"-0.01": 0.0,
			"-0.009": 0.0,
			"-0.008": 2.68777668501,
			"-0.007": 8.70997632262,
			"-0.006": 12.3357557065,
			"-0.005": 9.9170986807,
			"-0.004": 9.24248273076,
			"-0.003": 9.93741927086,
			"-0.002": 8.52345546567,
			"-0.001": 10.0395755623,
			"0.0": 13.8180416775,
			"0.001": 17.4570601884,
			"0.002": 6.71803853171,
			"0.003": 3.4294928947,
			"0.004": 4.19752859773,
			"0.005": 2.44238806558,
			"0.006": 1.87164425926,
			"0.007": 2.73254041448,
			"0.008": 3.5038390306,
			"0.009": 2.93560345001,
			"0.01": 4.01795640784,
			"0.011": 5.06835881146,
			"0.012": 1.95539477886,
			"0.013": 0.805910651061,
			"0.014": 0.795633588072,
			"0.015": 0.265014452391,
			"0.016": 0.0,
			"0.017": 0.0,
			"0.018": 0.0,
			"0.019": 0.0,
			"0.02": 0.0,
			"0.021": 0.0,
			"0.022": 0.0,
			"0.023": 0.0,
			"0.024": 0.0,
			"0.025": 0.0
		}
	}
}
