{
	 "smiles": "CC(=O)C(CC1=CC=C(C=C1)[N+]([O-])=O)(C#N)C1=CC=CC=C1", 
	 "Tm": 355.15, 
	 "num_atms": 36, 
	 "gaussian": { 
		 "optdone": 1, 
		 "sigma_profile": "yes", 
		 "theory": "DFT", 
		 "functional": "B3LYP", 
		 "basiset": "6-31G**", 
		 "properties": { 
			 "R2extent": 7254.294, 
			 "electric_dipole_moment_norm": 3.91291329319, 
			 "electric_quadrupole_moment_norm": 33.3246167108, 
			 "total_energy": -991.29893441, 
			 "HOMO_LUMO_gap": 0.17509, 
			 "cosmo_polarized_energy": -15.33, 
			 "cosmo_cavitation_energy": 40.99, 
			 "cosmo_dispersion_energy": -26.82, 
			 "cosmo_repulsion_energy": 2.05, 
			 "cosmo_total_nonelectrostatic_energy": 16.23, 
			 "SMD_solvation_energy": 10.73 
		},
		"coords": [
			{
				"x": 0.0878043256,
				"y": -1.2906323887,
				"z": -3.4612872186,
				"element": "C" 
			},
			{
				"x": -0.2034368087,
				"y": -0.0529489828,
				"z": -2.6413014071,
				"element": "C" 
			},
			{
				"x": -1.1322447144,
				"y": 0.6854407648,
				"z": -2.8873794858,
				"element": "O" 
			},
			{
				"x": 0.7775517143,
				"y": 0.2719169932,
				"z": -1.4524044394,
				"element": "C" 
			},
			{
				"x": 0.464990914,
				"y": 1.6876259019,
				"z": -0.8248639751,
				"element": "C" 
			},
			{
				"x": -0.6906402034,
				"y": 1.781720464,
				"z": 0.1505494131,
				"element": "C" 
			},
			{
				"x": -1.9920013135,
				"y": 2.0852401111,
				"z": -0.2803016503,
				"element": "C" 
			},
			{
				"x": -3.035391713,
				"y": 2.2130101284,
				"z": 0.6328170101,
				"element": "C" 
			},
			{
				"x": -2.7671980598,
				"y": 2.0358436969,
				"z": 1.9884824779,
				"element": "C" 
			},
			{
				"x": -1.4871709716,
				"y": 1.7406211371,
				"z": 2.4523521568,
				"element": "C" 
			},
			{
				"x": -0.4568226933,
				"y": 1.618244974,
				"z": 1.5255931346,
				"element": "C" 
			},
			{
				"x": -3.8649293719,
				"y": 2.1682682361,
				"z": 2.9586760107,
				"element": "N" 
			},
			{
				"x": -4.9857024564,
				"y": 2.4282645984,
				"z": 2.5216447209,
				"element": "O" 
			},
			{
				"x": -3.5970526739,
				"y": 2.0089473107,
				"z": 4.1496184718,
				"element": "O" 
			},
			{
				"x": 2.1148124933,
				"y": 0.3785470673,
				"z": -2.0628689404,
				"element": "C" 
			},
			{
				"x": 3.1558046986,
				"y": 0.4944359381,
				"z": -2.5648925676,
				"element": "N" 
			},
			{
				"x": 0.7437138267,
				"y": -0.8677389828,
				"z": -0.4193073336,
				"element": "C" 
			},
			{
				"x": 1.9130848268,
				"y": -1.3470813458,
				"z": 0.1834536868,
				"element": "C" 
			},
			{
				"x": 1.849614242,
				"y": -2.3565622369,
				"z": 1.145909521,
				"element": "C" 
			},
			{
				"x": 0.6197114736,
				"y": -2.9035173934,
				"z": 1.5123806927,
				"element": "C" 
			},
			{
				"x": -0.5500753388,
				"y": -2.4324596495,
				"z": 0.9136961495,
				"element": "C" 
			},
			{
				"x": -0.4900006865,
				"y": -1.4196570894,
				"z": -0.0430168832,
				"element": "C" 
			},
			{
				"x": 0.3019079033,
				"y": -2.1530628443,
				"z": -2.8256399671,
				"element": "H" 
			},
			{
				"x": 0.9756366359,
				"y": -1.1124646533,
				"z": -4.0783418722,
				"element": "H" 
			},
			{
				"x": -0.7633762609,
				"y": -1.4965904579,
				"z": -4.1110145916,
				"element": "H" 
			},
			{
				"x": 0.305391735,
				"y": 2.3762217121,
				"z": -1.6581402408,
				"element": "H" 
			},
			{
				"x": 1.3765822281,
				"y": 2.0034162497,
				"z": -0.3098485811,
				"element": "H" 
			},
			{
				"x": -2.1833668624,
				"y": 2.2092720392,
				"z": -1.3394206398,
				"element": "H" 
			},
			{
				"x": -4.0434212457,
				"y": 2.448989343,
				"z": 0.3154740557,
				"element": "H" 
			},
			{
				"x": -1.31897433,
				"y": 1.6171019064,
				"z": 3.514720323,
				"element": "H" 
			},
			{
				"x": 0.5460398082,
				"y": 1.3913030761,
				"z": 1.8749269585,
				"element": "H" 
			},
			{
				"x": 2.8774524342,
				"y": -0.9389193965,
				"z": -0.1032678008,
				"element": "H" 
			},
			{
				"x": 2.7660528877,
				"y": -2.7172809139,
				"z": 1.6034377184,
				"element": "H" 
			},
			{
				"x": 0.5723185268,
				"y": -3.6919981327,
				"z": 2.2574572617,
				"element": "H" 
			},
			{
				"x": -1.5130618877,
				"y": -2.8500826462,
				"z": 1.1918018062,
				"element": "H" 
			},
			{
				"x": -1.4093030822,
				"y": -1.0536345346,
				"z": -0.4904939751,
				"element": "H" 
			}
		],
		 "valence_orbital": [ 
			{
				"type": "occ",
				"energy": -0.28722,
				"method": "rhf"
			},
			{
				"type": "occ",
				"energy": -0.27981,
				"method": "rhf"
			},
			{
				"type": "occ",
				"energy": -0.27774,
				"method": "rhf"
			},
			{
				"type": "occ",
				"energy": -0.2691,
				"method": "rhf"
			},
			{
				"type": "occ",
				"energy": -0.2647,
				"method": "rhf"
			},
			{
				"type": "unocc",
				"energy": -0.08961,
				"method": "rhf"
			},
			{
				"type": "unocc",
				"energy": -0.0558,
				"method": "rhf"
			},
			{
				"type": "unocc",
				"energy": -0.03244,
				"method": "rhf"
			},
			{
				"type": "unocc",
				"energy": -0.02822,
				"method": "rhf"
			},
			{
				"type": "unocc",
				"energy": -0.02186,
				"method": "rhf"
			}
		],
		"cosmo_sigma_profile": { 
			"-0.025": 0.0,
			"-0.024": 0.0,
			"-0.023": 0.0,
			"-0.022": 0.0,
			"-0.021": 0.0,
			"-0.02": 0.0,
			"-0.019": 0.0,
			"-0.018": 0.0,
			"-0.017": 0.0,
			"-0.016": 0.0,
			"-0.015": 0.0,
			"-0.014": 0.0,
			"-0.013": 0.0,
			"-0.012": 0.0,
			"-0.011": 0.0,
			"-0.01": 0.0,
			"-0.009": 0.0,
			"-0.008": 0.753153699725,
			"-0.007": 10.7703748122,
			"-0.006": 25.2261319144,
			"-0.005": 28.9131648799,
			"-0.004": 30.0175679267,
			"-0.003": 28.7461674882,
			"-0.002": 25.0912716261,
			"-0.001": 23.7813939394,
			"0.0": 20.7168293205,
			"0.001": 22.0440083163,
			"0.002": 20.5380951825,
			"0.003": 14.7982547846,
			"0.004": 15.6004899807,
			"0.005": 7.52190428983,
			"0.006": 6.89999477,
			"0.007": 11.0948370363,
			"0.008": 12.5762481526,
			"0.009": 9.3925845389,
			"0.01": 7.16600130834,
			"0.011": 3.89193597023,
			"0.012": 2.21870297848,
			"0.013": 0.370466608151,
			"0.014": 0.0,
			"0.015": 0.0,
			"0.016": 0.0,
			"0.017": 0.0,
			"0.018": 0.0,
			"0.019": 0.0,
			"0.02": 0.0,
			"0.021": 0.0,
			"0.022": 0.0,
			"0.023": 0.0,
			"0.024": 0.0,
			"0.025": 0.0
		}
	}
}
