{
	 "smiles": "OC(=O)CC1=CSC(=N1)C1=CN=CC=C1", 
	 "Tm": 389.15, 
	 "num_atms": 23, 
	 "gaussian": { 
		 "optdone": 1, 
		 "sigma_profile": "yes", 
		 "theory": "DFT", 
		 "functional": "B3LYP", 
		 "basiset": "6-31G**", 
		 "properties": { 
			 "R2extent": 4360.5051, 
			 "electric_dipole_moment_norm": 6.95760070786, 
			 "electric_quadrupole_moment_norm": 25.3496134988, 
			 "total_energy": -1044.02973396, 
			 "HOMO_LUMO_gap": 0.1631, 
			 "cosmo_polarized_energy": -16.59, 
			 "cosmo_cavitation_energy": 29.7, 
			 "cosmo_dispersion_energy": -22.19, 
			 "cosmo_repulsion_energy": 1.68, 
			 "cosmo_total_nonelectrostatic_energy": 9.18, 
			 "SMD_solvation_energy": 4.23 
		},
		"coords": [
			{
				"x": 0.2402001195,
				"y": -2.3284191053,
				"z": -2.9036013415,
				"element": "O" 
			},
			{
				"x": 1.090982784,
				"y": -1.6450958003,
				"z": -3.6857556575,
				"element": "C" 
			},
			{
				"x": 1.2805749465,
				"y": -1.9423334548,
				"z": -4.8402565872,
				"element": "O" 
			},
			{
				"x": 1.8728881922,
				"y": -0.5043842808,
				"z": -3.0055981556,
				"element": "C" 
			},
			{
				"x": 1.1079191227,
				"y": 0.3054475771,
				"z": -1.9955873553,
				"element": "C" 
			},
			{
				"x": 1.0276016579,
				"y": 1.668566289,
				"z": -1.9310962346,
				"element": "C" 
			},
			{
				"x": 0.0553203119,
				"y": 2.152175263,
				"z": -0.5821595073,
				"element": "S" 
			},
			{
				"x": -0.2099807722,
				"y": 0.458318273,
				"z": -0.1908005077,
				"element": "C" 
			},
			{
				"x": 0.4073971389,
				"y": -0.3585862942,
				"z": -1.0102824662,
				"element": "N" 
			},
			{
				"x": -1.0214471002,
				"y": 0.0275473025,
				"z": 0.9507169305,
				"element": "C" 
			},
			{
				"x": -0.9135992093,
				"y": -1.2925997402,
				"z": 1.4293857344,
				"element": "C" 
			},
			{
				"x": -1.6137292204,
				"y": -1.7686675331,
				"z": 2.4592900636,
				"element": "N" 
			},
			{
				"x": -2.4644736105,
				"y": -0.9342966057,
				"z": 3.0717524361,
				"element": "C" 
			},
			{
				"x": -2.6475855045,
				"y": 0.3952936329,
				"z": 2.6869781697,
				"element": "C" 
			},
			{
				"x": -1.9176648875,
				"y": 0.8823925031,
				"z": 1.6083915242,
				"element": "C" 
			},
			{
				"x": 0.1803226338,
				"y": -1.8998471737,
				"z": -2.019880056,
				"element": "H" 
			},
			{
				"x": 2.730587917,
				"y": -0.9787270182,
				"z": -2.5073197226,
				"element": "H" 
			},
			{
				"x": 2.2717758363,
				"y": 0.1295417341,
				"z": -3.7978784664,
				"element": "H" 
			},
			{
				"x": 1.4782041655,
				"y": 2.3996651497,
				"z": -2.5866369352,
				"element": "H" 
			},
			{
				"x": -0.2191135937,
				"y": -1.9782890611,
				"z": 0.9512149299,
				"element": "H" 
			},
			{
				"x": -3.0250669324,
				"y": -1.3486899094,
				"z": 3.9072668248,
				"element": "H" 
			},
			{
				"x": -3.3524006947,
				"y": 1.0288188397,
				"z": 3.2154268387,
				"element": "H" 
			},
			{
				"x": -2.0534133007,
				"y": 1.9070694129,
				"z": 1.2731295411,
				"element": "H" 
			}
		],
		 "valence_orbital": [ 
			{
				"type": "occ",
				"energy": -0.30011,
				"method": "rhf"
			},
			{
				"type": "occ",
				"energy": -0.29446,
				"method": "rhf"
			},
			{
				"type": "occ",
				"energy": -0.27061,
				"method": "rhf"
			},
			{
				"type": "occ",
				"energy": -0.26395,
				"method": "rhf"
			},
			{
				"type": "occ",
				"energy": -0.24447,
				"method": "rhf"
			},
			{
				"type": "unocc",
				"energy": -0.08137,
				"method": "rhf"
			},
			{
				"type": "unocc",
				"energy": -0.04156,
				"method": "rhf"
			},
			{
				"type": "unocc",
				"energy": -0.01001,
				"method": "rhf"
			},
			{
				"type": "unocc",
				"energy": -0.00407,
				"method": "rhf"
			},
			{
				"type": "unocc",
				"energy": 0.01829,
				"method": "rhf"
			}
		],
		"cosmo_sigma_profile": { 
			"-0.025": 0.0,
			"-0.024": 0.0,
			"-0.023": 0.0,
			"-0.022": 0.0,
			"-0.021": 0.0,
			"-0.02": 0.0,
			"-0.019": 0.0,
			"-0.018": 0.0,
			"-0.017": 0.0,
			"-0.016": 0.0,
			"-0.015": 0.0,
			"-0.014": 0.0,
			"-0.013": 0.0,
			"-0.012": 0.0,
			"-0.011": 0.0,
			"-0.01": 1.25238796816,
			"-0.009": 2.89083193293,
			"-0.008": 7.94228019341,
			"-0.007": 14.4551208992,
			"-0.006": 15.6810967027,
			"-0.005": 14.3650043128,
			"-0.004": 15.3005890801,
			"-0.003": 15.4820474414,
			"-0.002": 15.2900905512,
			"-0.001": 19.5063191447,
			"0.0": 25.2869972407,
			"0.001": 24.7737465023,
			"0.002": 15.4413330114,
			"0.003": 5.0033812827,
			"0.004": 4.82217091721,
			"0.005": 3.33677732384,
			"0.006": 3.73085380949,
			"0.007": 3.42255961747,
			"0.008": 3.65325605251,
			"0.009": 3.99905078813,
			"0.01": 4.77749553435,
			"0.011": 6.93296045884,
			"0.012": 7.13466091867,
			"0.013": 4.24895064816,
			"0.014": 1.18532133735,
			"0.015": 0.886988444577,
			"0.016": 0.605473877733,
			"0.017": 0.0,
			"0.018": 0.0,
			"0.019": 0.0,
			"0.02": 0.0,
			"0.021": 0.0,
			"0.022": 0.0,
			"0.023": 0.0,
			"0.024": 0.0,
			"0.025": 0.0
		}
	}
}
