{
	 "smiles": "O=C(CC1CCCCC1)NC1=C2NCCCC2=CC=C1", 
	 "Tm": 453.15, 
	 "num_atms": 44, 
	 "gaussian": { 
		 "optdone": 1, 
		 "sigma_profile": "yes", 
		 "theory": "DFT", 
		 "functional": "B3LYP", 
		 "basiset": "6-31G**", 
		 "properties": { 
			 "R2extent": 7374.2597, 
			 "electric_dipole_moment_norm": 3.70940327546, 
			 "electric_quadrupole_moment_norm": 12.934975395, 
			 "total_energy": -847.038834824, 
			 "HOMO_LUMO_gap": 0.18951, 
			 "cosmo_polarized_energy": -11.74, 
			 "cosmo_cavitation_energy": 42.56, 
			 "cosmo_dispersion_energy": -30.12, 
			 "cosmo_repulsion_energy": 2.35, 
			 "cosmo_total_nonelectrostatic_energy": 14.79, 
			 "SMD_solvation_energy": 5.46 
		},
		"coords": [
			{
				"x": 2.4539535695,
				"y": -1.7648033544,
				"z": -0.7624839701,
				"element": "O" 
			},
			{
				"x": 1.5193095515,
				"y": -0.998220842,
				"z": -0.5535356201,
				"element": "C" 
			},
			{
				"x": 0.7254236356,
				"y": -1.0086295689,
				"z": 0.7435007082,
				"element": "C" 
			},
			{
				"x": 1.48760089,
				"y": -0.3741480279,
				"z": 1.940845785,
				"element": "C" 
			},
			{
				"x": 2.7671702464,
				"y": -1.1698508543,
				"z": 2.3497881214,
				"element": "C" 
			},
			{
				"x": 2.599271586,
				"y": -1.9671072185,
				"z": 3.6610741965,
				"element": "C" 
			},
			{
				"x": 1.214206106,
				"y": -2.6217167804,
				"z": 3.7489404529,
				"element": "C" 
			},
			{
				"x": 0.084728968,
				"y": -1.5577650384,
				"z": 3.746111385,
				"element": "C" 
			},
			{
				"x": 0.5460466394,
				"y": -0.2096428828,
				"z": 3.1502743301,
				"element": "C" 
			},
			{
				"x": 1.1445213979,
				"y": -0.094694853,
				"z": -1.532565,
				"element": "N" 
			},
			{
				"x": 0.1445696731,
				"y": 0.9253419968,
				"z": -1.4985370616,
				"element": "C" 
			},
			{
				"x": -0.9900744547,
				"y": 0.77966356,
				"z": -2.3342052823,
				"element": "C" 
			},
			{
				"x": -1.0922887855,
				"y": -0.3294843123,
				"z": -3.1621063115,
				"element": "N" 
			},
			{
				"x": -2.3616837736,
				"y": -0.6501082249,
				"z": -3.7999595401,
				"element": "C" 
			},
			{
				"x": -2.9887643517,
				"y": 0.6321878777,
				"z": -4.3502326511,
				"element": "C" 
			},
			{
				"x": -3.2089294136,
				"y": 1.639633429,
				"z": -3.2132240376,
				"element": "C" 
			},
			{
				"x": -1.9747392753,
				"y": 1.7941210001,
				"z": -2.3422290733,
				"element": "C" 
			},
			{
				"x": -1.7994225884,
				"y": 2.9143753799,
				"z": -1.528457383,
				"element": "C" 
			},
			{
				"x": -0.6828664886,
				"y": 3.0586153901,
				"z": -0.7038060835,
				"element": "C" 
			},
			{
				"x": 0.2931026484,
				"y": 2.0632161121,
				"z": -0.704484758,
				"element": "C" 
			},
			{
				"x": -0.2291353157,
				"y": -0.4910237803,
				"z": 0.6118235976,
				"element": "H" 
			},
			{
				"x": 0.5136808349,
				"y": -2.060716429,
				"z": 0.9576306159,
				"element": "H" 
			},
			{
				"x": 1.791727111,
				"y": 0.6313312323,
				"z": 1.6246955993,
				"element": "H" 
			},
			{
				"x": 3.6089686241,
				"y": -0.4761429947,
				"z": 2.4587320052,
				"element": "H" 
			},
			{
				"x": 3.0374154376,
				"y": -1.8476280835,
				"z": 1.5352458762,
				"element": "H" 
			},
			{
				"x": 2.7393568871,
				"y": -1.3070573128,
				"z": 4.5277562836,
				"element": "H" 
			},
			{
				"x": 3.3859331978,
				"y": -2.7272881101,
				"z": 3.7293914087,
				"element": "H" 
			},
			{
				"x": 1.0944084656,
				"y": -3.3002112519,
				"z": 2.8944276546,
				"element": "H" 
			},
			{
				"x": 1.1407500207,
				"y": -3.2491843971,
				"z": 4.6444064368,
				"element": "H" 
			},
			{
				"x": -0.7800578301,
				"y": -1.9382376439,
				"z": 3.1900454047,
				"element": "H" 
			},
			{
				"x": -0.2706657286,
				"y": -1.3829094321,
				"z": 4.7684467517,
				"element": "H" 
			},
			{
				"x": -0.3241589172,
				"y": 0.3982643173,
				"z": 2.8741339581,
				"element": "H" 
			},
			{
				"x": 1.0822096204,
				"y": 0.3607326183,
				"z": 3.9190686821,
				"element": "H" 
			},
			{
				"x": 1.7236983348,
				"y": -0.1661347551,
				"z": -2.363424935,
				"element": "H" 
			},
			{
				"x": -0.5232719763,
				"y": -1.1136445849,
				"z": -2.8730737537,
				"element": "H" 
			},
			{
				"x": -3.0659867434,
				"y": -1.1299796531,
				"z": -3.0984369631,
				"element": "H" 
			},
			{
				"x": -2.1691106216,
				"y": -1.3648401209,
				"z": -4.6069636755,
				"element": "H" 
			},
			{
				"x": -3.9363553801,
				"y": 0.3995253994,
				"z": -4.8468971143,
				"element": "H" 
			},
			{
				"x": -2.3164879775,
				"y": 1.0575354875,
				"z": -5.1043389963,
				"element": "H" 
			},
			{
				"x": -4.0543148313,
				"y": 1.3045915674,
				"z": -2.5949778499,
				"element": "H" 
			},
			{
				"x": -3.5004159529,
				"y": 2.6147825306,
				"z": -3.6201891734,
				"element": "H" 
			},
			{
				"x": -2.5609320102,
				"y": 3.6911664538,
				"z": -1.5437757217,
				"element": "H" 
			},
			{
				"x": -0.5655980387,
				"y": 3.9414774403,
				"z": -0.0838690863,
				"element": "H" 
			},
			{
				"x": 1.1879070092,
				"y": 2.1600087148,
				"z": -0.0975652122,
				"element": "H" 
			}
		],
		 "valence_orbital": [ 
			{
				"type": "occ",
				"energy": -0.28636,
				"method": "rhf"
			},
			{
				"type": "occ",
				"energy": -0.26471,
				"method": "rhf"
			},
			{
				"type": "occ",
				"energy": -0.2427,
				"method": "rhf"
			},
			{
				"type": "occ",
				"energy": -0.23244,
				"method": "rhf"
			},
			{
				"type": "occ",
				"energy": -0.19621,
				"method": "rhf"
			},
			{
				"type": "unocc",
				"energy": -0.0067,
				"method": "rhf"
			},
			{
				"type": "unocc",
				"energy": 0.01008,
				"method": "rhf"
			},
			{
				"type": "unocc",
				"energy": 0.03121,
				"method": "rhf"
			},
			{
				"type": "unocc",
				"energy": 0.07666,
				"method": "rhf"
			},
			{
				"type": "unocc",
				"energy": 0.08309,
				"method": "rhf"
			}
		],
		"cosmo_sigma_profile": { 
			"-0.025": 0.0,
			"-0.024": 0.0,
			"-0.023": 0.0,
			"-0.022": 0.0,
			"-0.021": 0.0,
			"-0.02": 0.0,
			"-0.019": 0.0,
			"-0.018": 0.0,
			"-0.017": 0.0,
			"-0.016": 0.0,
			"-0.015": 0.0,
			"-0.014": 0.0948664665405,
			"-0.013": 0.642402241505,
			"-0.012": 0.94968473514,
			"-0.011": 1.53046927476,
			"-0.01": 1.7270684201,
			"-0.009": 1.6173153594,
			"-0.008": 2.07880478038,
			"-0.007": 2.81465313103,
			"-0.006": 3.4941044677,
			"-0.005": 8.84479292318,
			"-0.004": 17.1915907285,
			"-0.003": 30.0050159213,
			"-0.002": 53.1857643345,
			"-0.001": 52.0538963135,
			"0.0": 43.6606996577,
			"0.001": 33.4098547806,
			"0.002": 18.6477543791,
			"0.003": 8.95573600172,
			"0.004": 8.05508289237,
			"0.005": 8.64990232147,
			"0.006": 7.97874234124,
			"0.007": 6.15649616624,
			"0.008": 2.72424716836,
			"0.009": 1.74071146582,
			"0.01": 2.32369952019,
			"0.011": 1.35595627374,
			"0.012": 1.86738082083,
			"0.013": 2.70399649221,
			"0.014": 5.43726712542,
			"0.015": 0.88618061536,
			"0.016": 0.0,
			"0.017": 0.0,
			"0.018": 0.0,
			"0.019": 0.0,
			"0.02": 0.0,
			"0.021": 0.0,
			"0.022": 0.0,
			"0.023": 0.0,
			"0.024": 0.0,
			"0.025": 0.0
		}
	}
}
