{
	 "smiles": "CC(C)C1=CC=C(Br)C=C1", 
	 "Tm": 261.15, 
	 "num_atms": 21, 
	 "gaussian": { 
		 "optdone": 1, 
		 "sigma_profile": "yes", 
		 "theory": "DFT", 
		 "functional": "B3LYP", 
		 "basiset": "6-31G**", 
		 "properties": { 
			 "R2extent": 4775.6624, 
			 "electric_dipole_moment_norm": 2.27441707037, 
			 "electric_quadrupole_moment_norm": 8.888339998, 
			 "total_energy": -2921.00605417, 
			 "HOMO_LUMO_gap": 0.22238, 
			 "cosmo_polarized_energy": -3.85, 
			 "cosmo_cavitation_energy": 26.06, 
			 "cosmo_dispersion_energy": -19.19, 
			 "cosmo_repulsion_energy": 1.57, 
			 "cosmo_total_nonelectrostatic_energy": 8.44, 
			 "SMD_solvation_energy": 3.41 
		},
		"coords": [
			{
				"x": -1.1104301055,
				"y": 1.376480269,
				"z": -1.3958469313,
				"element": "C" 
			},
			{
				"x": -0.23269044,
				"y": 1.14211786,
				"z": -0.1518140844,
				"element": "C" 
			},
			{
				"x": -0.5473090164,
				"y": 2.1714173319,
				"z": 0.9502284417,
				"element": "C" 
			},
			{
				"x": -0.3456436336,
				"y": -0.2877763263,
				"z": 0.3598010635,
				"element": "C" 
			},
			{
				"x": 0.7711097378,
				"y": -1.1323687349,
				"z": 0.3774528,
				"element": "C" 
			},
			{
				"x": 0.6891327445,
				"y": -2.4462826386,
				"z": 0.8423587731,
				"element": "C" 
			},
			{
				"x": -0.5351573997,
				"y": -2.9259164474,
				"z": 1.2992589291,
				"element": "C" 
			},
			{
				"x": -0.6665718037,
				"y": -4.723984862,
				"z": 1.9404210673,
				"element": "Br" 
			},
			{
				"x": -1.6677162108,
				"y": -2.1131639161,
				"z": 1.2961598223,
				"element": "C" 
			},
			{
				"x": -1.5634489579,
				"y": -0.8041843189,
				"z": 0.827566799,
				"element": "C" 
			},
			{
				"x": -0.9686505428,
				"y": 2.391591301,
				"z": -1.7822981361,
				"element": "H" 
			},
			{
				"x": -2.1737311956,
				"y": 1.2570757719,
				"z": -1.1603640698,
				"element": "H" 
			},
			{
				"x": -0.8645121408,
				"y": 0.6696849183,
				"z": -2.1943013767,
				"element": "H" 
			},
			{
				"x": 0.8122425827,
				"y": 1.2920720478,
				"z": -0.4534454229,
				"element": "H" 
			},
			{
				"x": -0.4024006117,
				"y": 3.1914368125,
				"z": 0.5781392653,
				"element": "H" 
			},
			{
				"x": -1.5858612642,
				"y": 2.0865303443,
				"z": 1.2886377761,
				"element": "H" 
			},
			{
				"x": 0.0996530373,
				"y": 2.0306300269,
				"z": 1.8215416061,
				"element": "H" 
			},
			{
				"x": 1.728447092,
				"y": -0.7598443973,
				"z": 0.021094638,
				"element": "H" 
			},
			{
				"x": 1.5643092365,
				"y": -3.0862328174,
				"z": 0.8488065395,
				"element": "H" 
			},
			{
				"x": -2.6159859658,
				"y": -2.49783512,
				"z": 1.6545170219,
				"element": "H" 
			},
			{
				"x": -2.4525851424,
				"y": -0.1794471048,
				"z": 0.8296854782,
				"element": "H" 
			}
		],
		 "valence_orbital": [ 
			{
				"type": "occ",
				"energy": -0.32915,
				"method": "rhf"
			},
			{
				"type": "occ",
				"energy": -0.30243,
				"method": "rhf"
			},
			{
				"type": "occ",
				"energy": -0.28316,
				"method": "rhf"
			},
			{
				"type": "occ",
				"energy": -0.25961,
				"method": "rhf"
			},
			{
				"type": "occ",
				"energy": -0.23413,
				"method": "rhf"
			},
			{
				"type": "unocc",
				"energy": -0.01175,
				"method": "rhf"
			},
			{
				"type": "unocc",
				"energy": -0.00867,
				"method": "rhf"
			},
			{
				"type": "unocc",
				"energy": 0.01085,
				"method": "rhf"
			},
			{
				"type": "unocc",
				"energy": 0.08783,
				"method": "rhf"
			},
			{
				"type": "unocc",
				"energy": 0.10847,
				"method": "rhf"
			}
		],
		"cosmo_sigma_profile": { 
			"-0.025": 0.0,
			"-0.024": 0.0,
			"-0.023": 0.0,
			"-0.022": 0.0,
			"-0.021": 0.0,
			"-0.02": 0.0,
			"-0.019": 0.0,
			"-0.018": 0.0,
			"-0.017": 0.0,
			"-0.016": 0.0,
			"-0.015": 0.0,
			"-0.014": 0.0,
			"-0.013": 0.0,
			"-0.012": 0.0,
			"-0.011": 0.0,
			"-0.01": 0.0,
			"-0.009": 0.0,
			"-0.008": 0.0,
			"-0.007": 1.36033564587,
			"-0.006": 5.87761531904,
			"-0.005": 10.7966043075,
			"-0.004": 12.7180815326,
			"-0.003": 17.9645366168,
			"-0.002": 20.6752836859,
			"-0.001": 23.5021416465,
			"0.0": 21.4117253924,
			"0.001": 24.7126596389,
			"0.002": 18.4237727361,
			"0.003": 16.417333339,
			"0.004": 19.8117972192,
			"0.005": 14.8538530289,
			"0.006": 0.405746552245,
			"0.007": 0.0,
			"0.008": 0.0,
			"0.009": 0.0,
			"0.01": 0.0,
			"0.011": 0.0,
			"0.012": 0.0,
			"0.013": 0.0,
			"0.014": 0.0,
			"0.015": 0.0,
			"0.016": 0.0,
			"0.017": 0.0,
			"0.018": 0.0,
			"0.019": 0.0,
			"0.02": 0.0,
			"0.021": 0.0,
			"0.022": 0.0,
			"0.023": 0.0,
			"0.024": 0.0,
			"0.025": 0.0
		}
	}
}
