{
	 "smiles": "FC(F)(F)COC(=O)NC1=CN=C(C=C1)N1C=NC=N1", 
	 "Tm": 466.15, 
	 "num_atms": 28, 
	 "gaussian": { 
		 "optdone": 1, 
		 "sigma_profile": "yes", 
		 "theory": "DFT", 
		 "functional": "B3LYP", 
		 "basiset": "6-31G**", 
		 "properties": { 
			 "R2extent": 8534.9541, 
			 "electric_dipole_moment_norm": 2.67055282854, 
			 "electric_quadrupole_moment_norm": 19.2963813281, 
			 "total_energy": -1109.61603246, 
			 "HOMO_LUMO_gap": 0.18401, 
			 "cosmo_polarized_energy": -16.37, 
			 "cosmo_cavitation_energy": 35.85, 
			 "cosmo_dispersion_energy": -25.24, 
			 "cosmo_repulsion_energy": 1.84, 
			 "cosmo_total_nonelectrostatic_energy": 12.44, 
			 "SMD_solvation_energy": 5.59 
		},
		"coords": [
			{
				"x": -2.3532432574,
				"y": -0.5492680342,
				"z": -4.3079315811,
				"element": "F" 
			},
			{
				"x": -2.6465798222,
				"y": -1.6198862603,
				"z": -3.5483927681,
				"element": "C" 
			},
			{
				"x": -3.2865781149,
				"y": -2.5248028625,
				"z": -4.3127923256,
				"element": "F" 
			},
			{
				"x": -1.478515015,
				"y": -2.1642556281,
				"z": -3.1438768044,
				"element": "F" 
			},
			{
				"x": -3.5178662159,
				"y": -1.2387899506,
				"z": -2.3638764337,
				"element": "C" 
			},
			{
				"x": -2.7886676252,
				"y": -0.340812539,
				"z": -1.5335750289,
				"element": "O" 
			},
			{
				"x": -3.1537710138,
				"y": 0.9721126808,
				"z": -1.5970223872,
				"element": "C" 
			},
			{
				"x": -4.1405181215,
				"y": 1.3910830206,
				"z": -2.1646337141,
				"element": "O" 
			},
			{
				"x": -2.279269579,
				"y": 1.7759144751,
				"z": -0.9099785059,
				"element": "N" 
			},
			{
				"x": -1.0827832652,
				"y": 1.4921524906,
				"z": -0.2207349788,
				"element": "C" 
			},
			{
				"x": -0.6617097861,
				"y": 2.4162570622,
				"z": 0.7470683338,
				"element": "C" 
			},
			{
				"x": 0.467143924,
				"y": 2.3001626475,
				"z": 1.4436887152,
				"element": "N" 
			},
			{
				"x": 1.2305233048,
				"y": 1.2356581152,
				"z": 1.208228005,
				"element": "C" 
			},
			{
				"x": 0.9188272946,
				"y": 0.2500070665,
				"z": 0.2682166522,
				"element": "C" 
			},
			{
				"x": -0.2538578249,
				"y": 0.3854703633,
				"z": -0.4637587475,
				"element": "C" 
			},
			{
				"x": 2.4132318118,
				"y": 1.1479072871,
				"z": 1.9801533529,
				"element": "N" 
			},
			{
				"x": 2.8780639186,
				"y": 2.0092002876,
				"z": 2.9275619763,
				"element": "C" 
			},
			{
				"x": 4.0207501338,
				"y": 1.5713062273,
				"z": 3.4187651282,
				"element": "N" 
			},
			{
				"x": 4.2205178903,
				"y": 0.4112188804,
				"z": 2.7248897285,
				"element": "C" 
			},
			{
				"x": 3.282866251,
				"y": 0.1065339957,
				"z": 1.8442780843,
				"element": "N" 
			},
			{
				"x": -3.735911024,
				"y": -2.1340460683,
				"z": -1.7788845767,
				"element": "H" 
			},
			{
				"x": -4.4391889894,
				"y": -0.7752438561,
				"z": -2.7198062358,
				"element": "H" 
			},
			{
				"x": -2.6096163099,
				"y": 2.7303112342,
				"z": -0.8677395225,
				"element": "H" 
			},
			{
				"x": -1.2717477832,
				"y": 3.2931277519,
				"z": 0.9626869874,
				"element": "H" 
			},
			{
				"x": 1.5895957155,
				"y": -0.5860925049,
				"z": 0.1186505977,
				"element": "H" 
			},
			{
				"x": -0.5190866418,
				"y": -0.354194795,
				"z": -1.2062752946,
				"element": "H" 
			},
			{
				"x": 2.3475641186,
				"y": 2.9082485334,
				"z": 3.1997405739,
				"element": "H" 
			},
			{
				"x": 5.0817260265,
				"y": -0.2253796206,
				"z": 2.8743507695,
				"element": "H" 
			}
		],
		 "valence_orbital": [ 
			{
				"type": "occ",
				"energy": -0.2989,
				"method": "rhf"
			},
			{
				"type": "occ",
				"energy": -0.29099,
				"method": "rhf"
			},
			{
				"type": "occ",
				"energy": -0.27993,
				"method": "rhf"
			},
			{
				"type": "occ",
				"energy": -0.27819,
				"method": "rhf"
			},
			{
				"type": "occ",
				"energy": -0.23754,
				"method": "rhf"
			},
			{
				"type": "unocc",
				"energy": -0.05353,
				"method": "rhf"
			},
			{
				"type": "unocc",
				"energy": -0.04199,
				"method": "rhf"
			},
			{
				"type": "unocc",
				"energy": 0.01017,
				"method": "rhf"
			},
			{
				"type": "unocc",
				"energy": 0.04293,
				"method": "rhf"
			},
			{
				"type": "unocc",
				"energy": 0.05169,
				"method": "rhf"
			}
		],
		"cosmo_sigma_profile": { 
			"-0.025": 0.0,
			"-0.024": 0.0,
			"-0.023": 0.0,
			"-0.022": 0.0,
			"-0.021": 0.0,
			"-0.02": 0.0,
			"-0.019": 0.0,
			"-0.018": 0.0,
			"-0.017": 0.0447273001246,
			"-0.016": 1.03337586897,
			"-0.015": 1.53608019184,
			"-0.014": 0.873660481059,
			"-0.013": 1.1466938655,
			"-0.012": 1.36840579665,
			"-0.011": 1.24489791243,
			"-0.01": 3.73930388112,
			"-0.009": 7.19066156041,
			"-0.008": 9.10548121089,
			"-0.007": 8.82092343526,
			"-0.006": 9.85956674837,
			"-0.005": 9.6133993995,
			"-0.004": 10.7529341797,
			"-0.003": 15.3968971392,
			"-0.002": 20.314129151,
			"-0.001": 24.5317276824,
			"0.0": 27.005791815,
			"0.001": 26.2410319434,
			"0.002": 36.1220599169,
			"0.003": 21.0889113903,
			"0.004": 6.83679974058,
			"0.005": 6.3339918277,
			"0.006": 5.48963122249,
			"0.007": 5.12389367707,
			"0.008": 4.88195824601,
			"0.009": 4.12572744298,
			"0.01": 5.15590236844,
			"0.011": 5.83292946618,
			"0.012": 4.44808896051,
			"0.013": 1.06846410484,
			"0.014": 0.91855817613,
			"0.015": 1.09379362604,
			"0.016": 0.85483407875,
			"0.017": 0.0224140013388,
			"0.018": 0.0,
			"0.019": 0.0,
			"0.02": 0.0,
			"0.021": 0.0,
			"0.022": 0.0,
			"0.023": 0.0,
			"0.024": 0.0,
			"0.025": 0.0
		}
	}
}
