{
	 "smiles": "OC(=O)CCNS(=O)(=O)C1=CC2=C(CCCC2)C=C1", 
	 "Tm": 381.15, 
	 "num_atms": 36, 
	 "gaussian": { 
		 "optdone": 1, 
		 "sigma_profile": "yes", 
		 "theory": "DFT", 
		 "functional": "B3LYP", 
		 "basiset": "6-31G**", 
		 "properties": { 
			 "R2extent": 7899.1729, 
			 "electric_dipole_moment_norm": 4.96854440254, 
			 "electric_quadrupole_moment_norm": 36.1191944057, 
			 "total_energy": -1259.42486749, 
			 "HOMO_LUMO_gap": 0.21525, 
			 "cosmo_polarized_energy": -24.13, 
			 "cosmo_cavitation_energy": 39.85, 
			 "cosmo_dispersion_energy": -28.99, 
			 "cosmo_repulsion_energy": 2.23, 
			 "cosmo_total_nonelectrostatic_energy": 13.09, 
			 "SMD_solvation_energy": 5.52 
		},
		"coords": [
			{
				"x": -4.0356454531,
				"y": -3.8615139196,
				"z": 0.7747328363,
				"element": "O" 
			},
			{
				"x": -2.7580658284,
				"y": -3.6230158137,
				"z": 0.3894985931,
				"element": "C" 
			},
			{
				"x": -2.5358189113,
				"y": -3.1799012856,
				"z": -0.7131259039,
				"element": "O" 
			},
			{
				"x": -1.6845342902,
				"y": -3.9310342016,
				"z": 1.425666394,
				"element": "C" 
			},
			{
				"x": -0.2653956764,
				"y": -3.8023930459,
				"z": 0.8713098163,
				"element": "C" 
			},
			{
				"x": -0.0182640753,
				"y": -2.4101299692,
				"z": 0.4607793469,
				"element": "N" 
			},
			{
				"x": 1.6119376611,
				"y": -1.9922701918,
				"z": 0.2293822658,
				"element": "S" 
			},
			{
				"x": 2.066377718,
				"y": -2.3439267705,
				"z": -1.123621733,
				"element": "O" 
			},
			{
				"x": 2.3236010426,
				"y": -2.5101409831,
				"z": 1.4045245558,
				"element": "O" 
			},
			{
				"x": 1.5105293569,
				"y": -0.2086653842,
				"z": 0.3269621306,
				"element": "C" 
			},
			{
				"x": 1.6227236146,
				"y": 0.5431332302,
				"z": -0.8376004815,
				"element": "C" 
			},
			{
				"x": 1.561770492,
				"y": 1.9430501009,
				"z": -0.7868959317,
				"element": "C" 
			},
			{
				"x": 1.3934639656,
				"y": 2.5753231473,
				"z": 0.4584853458,
				"element": "C" 
			},
			{
				"x": 1.3572629683,
				"y": 4.0888224447,
				"z": 0.5781417467,
				"element": "C" 
			},
			{
				"x": 1.0914092087,
				"y": 4.8017635081,
				"z": -0.7536769009,
				"element": "C" 
			},
			{
				"x": 1.9826882556,
				"y": 4.2198651532,
				"z": -1.8562600494,
				"element": "C" 
			},
			{
				"x": 1.655798033,
				"y": 2.7379660234,
				"z": -2.0784727212,
				"element": "C" 
			},
			{
				"x": 1.291253282,
				"y": 1.7917604583,
				"z": 1.6204986876,
				"element": "C" 
			},
			{
				"x": 1.3494176489,
				"y": 0.4054148815,
				"z": 1.5721482753,
				"element": "C" 
			},
			{
				"x": -4.0566035125,
				"y": -4.2189742045,
				"z": 1.6739949772,
				"element": "H" 
			},
			{
				"x": -1.8387084544,
				"y": -4.9489258436,
				"z": 1.8082089147,
				"element": "H" 
			},
			{
				"x": -1.8170434706,
				"y": -3.2440093023,
				"z": 2.2715839129,
				"element": "H" 
			},
			{
				"x": -0.1254818057,
				"y": -4.5078534882,
				"z": 0.0421054217,
				"element": "H" 
			},
			{
				"x": 0.4546192719,
				"y": -4.0500141528,
				"z": 1.6536676195,
				"element": "H" 
			},
			{
				"x": -0.5530560411,
				"y": -2.1950982631,
				"z": -0.3817873341,
				"element": "H" 
			},
			{
				"x": 1.7697216104,
				"y": 0.0334193528,
				"z": -1.7849384537,
				"element": "H" 
			},
			{
				"x": 0.6094490552,
				"y": 4.3775178082,
				"z": 1.3264390181,
				"element": "H" 
			},
			{
				"x": 2.3249282428,
				"y": 4.4263814913,
				"z": 0.9778222874,
				"element": "H" 
			},
			{
				"x": 1.2633902067,
				"y": 5.8775555468,
				"z": -0.6384904351,
				"element": "H" 
			},
			{
				"x": 0.0372881077,
				"y": 4.6786925336,
				"z": -1.0365524071,
				"element": "H" 
			},
			{
				"x": 1.8552023363,
				"y": 4.7722917493,
				"z": -2.7936083885,
				"element": "H" 
			},
			{
				"x": 3.0364181163,
				"y": 4.328123794,
				"z": -1.5660589219,
				"element": "H" 
			},
			{
				"x": 0.6945282647,
				"y": 2.6593947606,
				"z": -2.6071408318,
				"element": "H" 
			},
			{
				"x": 2.3981305747,
				"y": 2.2741007198,
				"z": -2.7383147356,
				"element": "H" 
			},
			{
				"x": 1.1679567077,
				"y": 2.2875650032,
				"z": 2.5804333293,
				"element": "H" 
			},
			{
				"x": 1.2817517773,
				"y": -0.1938748874,
				"z": 2.4732597546,
				"element": "H" 
			}
		],
		 "valence_orbital": [ 
			{
				"type": "occ",
				"energy": -0.29345,
				"method": "rhf"
			},
			{
				"type": "occ",
				"energy": -0.28694,
				"method": "rhf"
			},
			{
				"type": "occ",
				"energy": -0.26772,
				"method": "rhf"
			},
			{
				"type": "occ",
				"energy": -0.25562,
				"method": "rhf"
			},
			{
				"type": "occ",
				"energy": -0.24503,
				"method": "rhf"
			},
			{
				"type": "unocc",
				"energy": -0.02978,
				"method": "rhf"
			},
			{
				"type": "unocc",
				"energy": -0.01352,
				"method": "rhf"
			},
			{
				"type": "unocc",
				"energy": -0.00584,
				"method": "rhf"
			},
			{
				"type": "unocc",
				"energy": 0.04176,
				"method": "rhf"
			},
			{
				"type": "unocc",
				"energy": 0.07275,
				"method": "rhf"
			}
		],
		"cosmo_sigma_profile": { 
			"-0.025": 0.0,
			"-0.024": 0.0,
			"-0.023": 0.0,
			"-0.022": 0.0,
			"-0.021": 0.0,
			"-0.02": 0.226010554929,
			"-0.019": 0.883558307738,
			"-0.018": 1.3622994146,
			"-0.017": 1.10345437931,
			"-0.016": 0.793829348462,
			"-0.015": 0.907229851379,
			"-0.014": 1.43119657662,
			"-0.013": 1.58978369948,
			"-0.012": 0.972756865434,
			"-0.011": 1.91181623813,
			"-0.01": 2.24166265231,
			"-0.009": 2.27922917821,
			"-0.008": 4.3952106728,
			"-0.007": 6.5632893699,
			"-0.006": 11.6948058774,
			"-0.005": 16.4310773488,
			"-0.004": 22.3924829377,
			"-0.003": 28.739354864,
			"-0.002": 33.8346539211,
			"-0.001": 31.925288162,
			"0.0": 23.2728841724,
			"0.001": 15.4995384357,
			"0.002": 11.8350249845,
			"0.003": 14.8375309405,
			"0.004": 12.5778150723,
			"0.005": 6.38358539467,
			"0.006": 5.63745725991,
			"0.007": 5.03852217305,
			"0.008": 6.46979265238,
			"0.009": 7.65916244649,
			"0.01": 10.5842490408,
			"0.011": 12.41584879,
			"0.012": 8.48978984237,
			"0.013": 0.998536136694,
			"0.014": 0.0,
			"0.015": 0.0,
			"0.016": 0.0,
			"0.017": 0.0,
			"0.018": 0.0,
			"0.019": 0.0,
			"0.02": 0.0,
			"0.021": 0.0,
			"0.022": 0.0,
			"0.023": 0.0,
			"0.024": 0.0,
			"0.025": 0.0
		}
	}
}
