{
	 "smiles": "O=C1NC(=O)C2(CCOCC2)N1", 
	 "Tm": 538.15, 
	 "num_atms": 22, 
	 "gaussian": { 
		 "optdone": 1, 
		 "sigma_profile": "yes", 
		 "theory": "DFT", 
		 "functional": "B3LYP", 
		 "basiset": "6-31G**", 
		 "properties": { 
			 "R2extent": 2572.593, 
			 "electric_dipole_moment_norm": 2.68182595446, 
			 "electric_quadrupole_moment_norm": 10.4637989435, 
			 "total_energy": -607.973465021, 
			 "HOMO_LUMO_gap": 0.24868, 
			 "cosmo_polarized_energy": -15.79, 
			 "cosmo_cavitation_energy": 24.47, 
			 "cosmo_dispersion_energy": -18.25, 
			 "cosmo_repulsion_energy": 1.46, 
			 "cosmo_total_nonelectrostatic_energy": 7.68, 
			 "SMD_solvation_energy": 5.19 
		},
		"coords": [
			{
				"x": -1.1733183118,
				"y": 1.9617102501,
				"z": -1.5918908535,
				"element": "O" 
			},
			{
				"x": -0.0969722467,
				"y": 1.4341890323,
				"z": -1.4046600086,
				"element": "C" 
			},
			{
				"x": 1.1426832016,
				"y": 1.879733645,
				"z": -1.9275263586,
				"element": "N" 
			},
			{
				"x": 2.1990685578,
				"y": 1.0607513657,
				"z": -1.6037068599,
				"element": "C" 
			},
			{
				"x": 3.3626206077,
				"y": 1.18677639,
				"z": -1.9280816106,
				"element": "O" 
			},
			{
				"x": 1.6119725787,
				"y": -0.0687492033,
				"z": -0.7347074085,
				"element": "C" 
			},
			{
				"x": 2.2732559405,
				"y": -0.0921070852,
				"z": 0.657195005,
				"element": "C" 
			},
			{
				"x": 1.6034450386,
				"y": -1.184700967,
				"z": 1.5257847521,
				"element": "C" 
			},
			{
				"x": 0.8721361992,
				"y": -2.1225623659,
				"z": 0.7362426715,
				"element": "O" 
			},
			{
				"x": 1.6428085618,
				"y": -2.5768626032,
				"z": -0.3728059985,
				"element": "C" 
			},
			{
				"x": 1.828635127,
				"y": -1.4443146261,
				"z": -1.4105445423,
				"element": "C" 
			},
			{
				"x": 0.2060140588,
				"y": 0.3218090457,
				"z": -0.6673315663,
				"element": "N" 
			},
			{
				"x": 1.2167210762,
				"y": 2.7082420332,
				"z": -2.5000974363,
				"element": "H" 
			},
			{
				"x": 3.3407165458,
				"y": -0.2870811732,
				"z": 0.5130498098,
				"element": "H" 
			},
			{
				"x": 2.1832982917,
				"y": 0.8868178431,
				"z": 1.1373313489,
				"element": "H" 
			},
			{
				"x": 0.870484054,
				"y": -0.7474637502,
				"z": 2.208452947,
				"element": "H" 
			},
			{
				"x": 2.3588942992,
				"y": -1.7111524493,
				"z": 2.1293195994,
				"element": "H" 
			},
			{
				"x": 2.6175290491,
				"y": -2.9494302959,
				"z": -0.0212347918,
				"element": "H" 
			},
			{
				"x": 1.0994155715,
				"y": -3.4230288555,
				"z": -0.8000191679,
				"element": "H" 
			},
			{
				"x": 1.120453812,
				"y": -1.5441917118,
				"z": -2.238733754,
				"element": "H" 
			},
			{
				"x": 2.8393643058,
				"y": -1.4656515202,
				"z": -1.831479038,
				"element": "H" 
			},
			{
				"x": -0.5101263184,
				"y": -0.2797329984,
				"z": -0.290656739,
				"element": "H" 
			}
		],
		 "valence_orbital": [ 
			{
				"type": "occ",
				"energy": -0.28996,
				"method": "rhf"
			},
			{
				"type": "occ",
				"energy": -0.2882,
				"method": "rhf"
			},
			{
				"type": "occ",
				"energy": -0.27478,
				"method": "rhf"
			},
			{
				"type": "occ",
				"energy": -0.26524,
				"method": "rhf"
			},
			{
				"type": "occ",
				"energy": -0.25895,
				"method": "rhf"
			},
			{
				"type": "unocc",
				"energy": -0.01027,
				"method": "rhf"
			},
			{
				"type": "unocc",
				"energy": 0.05855,
				"method": "rhf"
			},
			{
				"type": "unocc",
				"energy": 0.06081,
				"method": "rhf"
			},
			{
				"type": "unocc",
				"energy": 0.09111,
				"method": "rhf"
			},
			{
				"type": "unocc",
				"energy": 0.09273,
				"method": "rhf"
			}
		],
		"cosmo_sigma_profile": { 
			"-0.025": 0.0,
			"-0.024": 0.0,
			"-0.023": 0.0,
			"-0.022": 0.0,
			"-0.021": 0.0,
			"-0.02": 0.0,
			"-0.019": 0.0,
			"-0.018": 0.0,
			"-0.017": 0.284335480505,
			"-0.016": 1.28842228985,
			"-0.015": 1.05878767913,
			"-0.014": 1.4831117654,
			"-0.013": 1.01788235812,
			"-0.012": 1.36817208658,
			"-0.011": 1.75492530758,
			"-0.01": 1.11758715921,
			"-0.009": 1.61655074426,
			"-0.008": 1.54819654521,
			"-0.007": 2.33120065519,
			"-0.006": 4.65023259535,
			"-0.005": 20.6457478902,
			"-0.004": 29.059938124,
			"-0.003": 20.8006317334,
			"-0.002": 18.3902172498,
			"-0.001": 11.4098770561,
			"0.0": 6.04179027043,
			"0.001": 4.70591311454,
			"0.002": 4.69834287089,
			"0.003": 5.8302936198,
			"0.004": 3.60107921394,
			"0.005": 3.35793006288,
			"0.006": 3.46061371772,
			"0.007": 3.72275018365,
			"0.008": 2.99730636364,
			"0.009": 2.68600777901,
			"0.01": 5.007766805,
			"0.011": 4.91495679429,
			"0.012": 10.3871825895,
			"0.013": 9.15964236493,
			"0.014": 1.20387360494,
			"0.015": 0.0,
			"0.016": 0.0,
			"0.017": 0.0,
			"0.018": 0.0,
			"0.019": 0.0,
			"0.02": 0.0,
			"0.021": 0.0,
			"0.022": 0.0,
			"0.023": 0.0,
			"0.024": 0.0,
			"0.025": 0.0
		}
	}
}
