{
	 "smiles": "ClCC1=CN=C(S1)C1=CC=CC=C1", 
	 "Tm": 331.15, 
	 "num_atms": 21, 
	 "gaussian": { 
		 "optdone": 1, 
		 "sigma_profile": "yes", 
		 "theory": "DFT", 
		 "functional": "B3LYP", 
		 "basiset": "6-31G**", 
		 "properties": { 
			 "R2extent": 4310.6452, 
			 "electric_dipole_moment_norm": 2.2262993442, 
			 "electric_quadrupole_moment_norm": 11.7059922779, 
			 "total_energy": -1299.01767406, 
			 "HOMO_LUMO_gap": 0.16214, 
			 "cosmo_polarized_energy": -8.78, 
			 "cosmo_cavitation_energy": 28.72, 
			 "cosmo_dispersion_energy": -21.74, 
			 "cosmo_repulsion_energy": 1.67, 
			 "cosmo_total_nonelectrostatic_energy": 8.65, 
			 "SMD_solvation_energy": 2.92 
		},
		"coords": [
			{
				"x": 4.1252304727,
				"y": -0.8567371698,
				"z": -0.8480464507,
				"element": "Cl" 
			},
			{
				"x": 3.5176281807,
				"y": 0.8292490962,
				"z": -0.4245885339,
				"element": "C" 
			},
			{
				"x": 2.073163044,
				"y": 0.8687980516,
				"z": -0.0980925595,
				"element": "C" 
			},
			{
				"x": 1.5008936465,
				"y": 0.999471849,
				"z": 1.1412184472,
				"element": "C" 
			},
			{
				"x": 0.1370078806,
				"y": 1.0264416425,
				"z": 1.190256516,
				"element": "N" 
			},
			{
				"x": -0.390471209,
				"y": 0.9106182304,
				"z": -0.0038948847,
				"element": "C" 
			},
			{
				"x": 0.8082214122,
				"y": 0.761812558,
				"z": -1.2941991309,
				"element": "S" 
			},
			{
				"x": -1.8354848458,
				"y": 0.9030428644,
				"z": -0.2641882068,
				"element": "C" 
			},
			{
				"x": -2.3616083624,
				"y": 0.7554701846,
				"z": -1.5579526323,
				"element": "C" 
			},
			{
				"x": -3.7391218101,
				"y": 0.7534651797,
				"z": -1.7644840119,
				"element": "C" 
			},
			{
				"x": -4.6115015144,
				"y": 0.8980639933,
				"z": -0.6836116223,
				"element": "C" 
			},
			{
				"x": -4.0962772801,
				"y": 1.0446880421,
				"z": 0.6072629329,
				"element": "C" 
			},
			{
				"x": -2.7209350199,
				"y": 1.0476637559,
				"z": 0.8192112524,
				"element": "C" 
			},
			{
				"x": 4.1061238684,
				"y": 1.14843432,
				"z": 0.435879707,
				"element": "H" 
			},
			{
				"x": 3.7761055337,
				"y": 1.4453240175,
				"z": -1.2859956644,
				"element": "H" 
			},
			{
				"x": 2.06725825,
				"y": 1.0842831184,
				"z": 2.0628889807,
				"element": "H" 
			},
			{
				"x": -1.6959474135,
				"y": 0.6392356536,
				"z": -2.4089137064,
				"element": "H" 
			},
			{
				"x": -4.1311947865,
				"y": 0.6377966777,
				"z": -2.7705218313,
				"element": "H" 
			},
			{
				"x": -5.6852966109,
				"y": 0.8959459183,
				"z": -0.8461915802,
				"element": "H" 
			},
			{
				"x": -4.7695236855,
				"y": 1.1570747754,
				"z": 1.4521144358,
				"element": "H" 
			},
			{
				"x": -2.3080697507,
				"y": 1.1603572412,
				"z": 1.8153485434,
				"element": "H" 
			}
		],
		 "valence_orbital": [ 
			{
				"type": "occ",
				"energy": -0.28925,
				"method": "rhf"
			},
			{
				"type": "occ",
				"energy": -0.28492,
				"method": "rhf"
			},
			{
				"type": "occ",
				"energy": -0.27954,
				"method": "rhf"
			},
			{
				"type": "occ",
				"energy": -0.26012,
				"method": "rhf"
			},
			{
				"type": "occ",
				"energy": -0.22831,
				"method": "rhf"
			},
			{
				"type": "unocc",
				"energy": -0.06617,
				"method": "rhf"
			},
			{
				"type": "unocc",
				"energy": -0.01175,
				"method": "rhf"
			},
			{
				"type": "unocc",
				"energy": -0.00521,
				"method": "rhf"
			},
			{
				"type": "unocc",
				"energy": 0.00919,
				"method": "rhf"
			},
			{
				"type": "unocc",
				"energy": 0.03829,
				"method": "rhf"
			}
		],
		"cosmo_sigma_profile": { 
			"-0.025": 0.0,
			"-0.024": 0.0,
			"-0.023": 0.0,
			"-0.022": 0.0,
			"-0.021": 0.0,
			"-0.02": 0.0,
			"-0.019": 0.0,
			"-0.018": 0.0,
			"-0.017": 0.0,
			"-0.016": 0.0,
			"-0.015": 0.0,
			"-0.014": 0.0,
			"-0.013": 0.0,
			"-0.012": 0.0,
			"-0.011": 0.0,
			"-0.01": 0.0,
			"-0.009": 2.97482511052,
			"-0.008": 7.54715871603,
			"-0.007": 7.98682190659,
			"-0.006": 13.5185398201,
			"-0.005": 16.0183402031,
			"-0.004": 15.166258742,
			"-0.003": 11.1053315232,
			"-0.002": 11.7006566316,
			"-0.001": 13.7322160362,
			"0.0": 16.7407506693,
			"0.001": 20.6033201686,
			"0.002": 21.8886056278,
			"0.003": 21.5387989739,
			"0.004": 19.8959725262,
			"0.005": 12.3514885319,
			"0.006": 11.5950958504,
			"0.007": 5.74612032215,
			"0.008": 0.933378414737,
			"0.009": 1.12664026841,
			"0.01": 1.03326502825,
			"0.011": 1.26676617951,
			"0.012": 0.813202868653,
			"0.013": 0.0502106137894,
			"0.014": 0.0,
			"0.015": 0.0,
			"0.016": 0.0,
			"0.017": 0.0,
			"0.018": 0.0,
			"0.019": 0.0,
			"0.02": 0.0,
			"0.021": 0.0,
			"0.022": 0.0,
			"0.023": 0.0,
			"0.024": 0.0,
			"0.025": 0.0
		}
	}
}
