{
	 "smiles": "CC1=C(C=CC=C1N)N1CCOC1=O", 
	 "Tm": 414.15, 
	 "num_atms": 26, 
	 "gaussian": { 
		 "optdone": 1, 
		 "sigma_profile": "yes", 
		 "theory": "DFT", 
		 "functional": "B3LYP", 
		 "basiset": "6-31G**", 
		 "properties": { 
			 "R2extent": 3390.4177, 
			 "electric_dipole_moment_norm": 3.3165300858, 
			 "electric_quadrupole_moment_norm": 20.6959108338, 
			 "total_energy": -648.265622285, 
			 "HOMO_LUMO_gap": 0.20419, 
			 "cosmo_polarized_energy": -16.99, 
			 "cosmo_cavitation_energy": 28.41, 
			 "cosmo_dispersion_energy": -21.01, 
			 "cosmo_repulsion_energy": 1.65, 
			 "cosmo_total_nonelectrostatic_energy": 9.04, 
			 "SMD_solvation_energy": 5.81 
		},
		"coords": [
			{
				"x": 1.6597984547,
				"y": -1.1036906121,
				"z": -0.0947129089,
				"element": "C" 
			},
			{
				"x": 0.6239914479,
				"y": -1.6189866553,
				"z": -1.0607087004,
				"element": "C" 
			},
			{
				"x": -0.6746050509,
				"y": -1.0854548361,
				"z": -1.1294895201,
				"element": "C" 
			},
			{
				"x": -1.5885435191,
				"y": -1.5068789025,
				"z": -2.1044180318,
				"element": "C" 
			},
			{
				"x": -1.2155365668,
				"y": -2.494808023,
				"z": -3.0108000451,
				"element": "C" 
			},
			{
				"x": 0.0429747919,
				"y": -3.0811610879,
				"z": -2.9312937998,
				"element": "C" 
			},
			{
				"x": 0.9608352034,
				"y": -2.6611710546,
				"z": -1.9569347863,
				"element": "C" 
			},
			{
				"x": 2.2439566371,
				"y": -3.2203722521,
				"z": -1.9185794159,
				"element": "N" 
			},
			{
				"x": -1.0681511085,
				"y": -0.0666731375,
				"z": -0.2105822455,
				"element": "N" 
			},
			{
				"x": -1.9033601051,
				"y": 1.0696876844,
				"z": -0.5823503222,
				"element": "C" 
			},
			{
				"x": -1.9265725847,
				"y": 1.8340475341,
				"z": 0.7472433545,
				"element": "C" 
			},
			{
				"x": -1.7138621156,
				"y": 0.8219440518,
				"z": 1.743209274,
				"element": "O" 
			},
			{
				"x": -1.1215560288,
				"y": -0.2716051448,
				"z": 1.1624182152,
				"element": "C" 
			},
			{
				"x": -0.7286762719,
				"y": -1.2212423949,
				"z": 1.793879567,
				"element": "O" 
			},
			{
				"x": 2.6515619657,
				"y": -1.1124836804,
				"z": -0.5586511971,
				"element": "H" 
			},
			{
				"x": 1.4377806295,
				"y": -0.0774144596,
				"z": 0.2043285873,
				"element": "H" 
			},
			{
				"x": 1.6958581687,
				"y": -1.6980725876,
				"z": 0.8258277784,
				"element": "H" 
			},
			{
				"x": -2.5856472502,
				"y": -1.08216524,
				"z": -2.1394315499,
				"element": "H" 
			},
			{
				"x": -1.9191605645,
				"y": -2.8281685557,
				"z": -3.7680250635,
				"element": "H" 
			},
			{
				"x": 0.3247782745,
				"y": -3.8697235557,
				"z": -3.6248135404,
				"element": "H" 
			},
			{
				"x": 2.3295991273,
				"y": -4.0891664608,
				"z": -2.4287154247,
				"element": "H" 
			},
			{
				"x": 2.6503835402,
				"y": -3.296837986,
				"z": -0.9962124856,
				"element": "H" 
			},
			{
				"x": -2.9132561006,
				"y": 0.7589289442,
				"z": -0.884150221,
				"element": "H" 
			},
			{
				"x": -1.4585048079,
				"y": 1.6450871465,
				"z": -1.3986191488,
				"element": "H" 
			},
			{
				"x": -1.1142941646,
				"y": 2.5682122715,
				"z": 0.8067561376,
				"element": "H" 
			},
			{
				"x": -2.8775920013,
				"y": 2.3293689939,
				"z": 0.9513254931,
				"element": "H" 
			}
		],
		 "valence_orbital": [ 
			{
				"type": "occ",
				"energy": -0.29023,
				"method": "rhf"
			},
			{
				"type": "occ",
				"energy": -0.2725,
				"method": "rhf"
			},
			{
				"type": "occ",
				"energy": -0.26842,
				"method": "rhf"
			},
			{
				"type": "occ",
				"energy": -0.22433,
				"method": "rhf"
			},
			{
				"type": "occ",
				"energy": -0.20173,
				"method": "rhf"
			},
			{
				"type": "unocc",
				"energy": 0.00246,
				"method": "rhf"
			},
			{
				"type": "unocc",
				"energy": 0.01309,
				"method": "rhf"
			},
			{
				"type": "unocc",
				"energy": 0.0532,
				"method": "rhf"
			},
			{
				"type": "unocc",
				"energy": 0.077,
				"method": "rhf"
			},
			{
				"type": "unocc",
				"energy": 0.08632,
				"method": "rhf"
			}
		],
		"cosmo_sigma_profile": { 
			"-0.025": 0.0,
			"-0.024": 0.0,
			"-0.023": 0.0,
			"-0.022": 0.0,
			"-0.021": 0.0,
			"-0.02": 0.0,
			"-0.019": 0.0,
			"-0.018": 0.0,
			"-0.017": 0.0,
			"-0.016": 0.0,
			"-0.015": 0.0,
			"-0.014": 0.0,
			"-0.013": 0.105815576681,
			"-0.012": 1.40904518627,
			"-0.011": 2.77524951117,
			"-0.01": 2.71042451713,
			"-0.009": 2.77069068919,
			"-0.008": 3.33778113678,
			"-0.007": 9.81382828635,
			"-0.006": 21.1815759015,
			"-0.005": 19.5607757733,
			"-0.004": 16.3046944649,
			"-0.003": 16.3353990054,
			"-0.002": 11.6439428334,
			"-0.001": 10.6821266109,
			"0.0": 11.5467553179,
			"0.001": 11.883285965,
			"0.002": 8.61056786398,
			"0.003": 7.84601207599,
			"0.004": 8.88876772432,
			"0.005": 9.67914311802,
			"0.006": 11.4447593857,
			"0.007": 6.85516054145,
			"0.008": 4.44954137009,
			"0.009": 3.71636688446,
			"0.01": 5.48119675513,
			"0.011": 4.42601047427,
			"0.012": 4.84619815202,
			"0.013": 4.76162855609,
			"0.014": 1.22363304847,
			"0.015": 0.260414876198,
			"0.016": 0.0,
			"0.017": 0.0,
			"0.018": 0.0,
			"0.019": 0.0,
			"0.02": 0.0,
			"0.021": 0.0,
			"0.022": 0.0,
			"0.023": 0.0,
			"0.024": 0.0,
			"0.025": 0.0
		}
	}
}
