{
	 "smiles": "CC1CC1C", 
	 "Tm": 132.15, 
	 "num_atms": 15, 
	 "gaussian": { 
		 "optdone": 1, 
		 "sigma_profile": "yes", 
		 "theory": "DFT", 
		 "functional": "B3LYP", 
		 "basiset": "6-31G**", 
		 "properties": { 
			 "R2extent": 557.6327, 
			 "electric_dipole_moment_norm": 0.102896307028, 
			 "electric_quadrupole_moment_norm": 0.913454700574, 
			 "total_energy": -196.539529186, 
			 "HOMO_LUMO_gap": 0.36927, 
			 "cosmo_polarized_energy": -1.1, 
			 "cosmo_cavitation_energy": 16.98, 
			 "cosmo_dispersion_energy": -12.57, 
			 "cosmo_repulsion_energy": 1.12, 
			 "cosmo_total_nonelectrostatic_energy": 5.53, 
			 "SMD_solvation_energy": 2.88 
		},
		"coords": [
			{
				"x": -0.3037098321,
				"y": -1.7451057051,
				"z": 0.7248993603,
				"element": "C" 
			},
			{
				"x": 0.0294696208,
				"y": -0.369223811,
				"z": 0.1879006295,
				"element": "C" 
			},
			{
				"x": -0.8741406518,
				"y": 0.3006209155,
				"z": -0.8234906196,
				"element": "C" 
			},
			{
				"x": 0.4991630428,
				"y": -0.1817420213,
				"z": -1.2351670289,
				"element": "C" 
			},
			{
				"x": 1.5935711427,
				"y": 0.8089310088,
				"z": -1.5717210882,
				"element": "C" 
			},
			{
				"x": 0.5928121511,
				"y": -2.263258136,
				"z": 1.0852423739,
				"element": "H" 
			},
			{
				"x": -0.756879668,
				"y": -2.3705788718,
				"z": -0.052459946,
				"element": "H" 
			},
			{
				"x": -1.0143582648,
				"y": -1.6888373931,
				"z": 1.5578674445,
				"element": "H" 
			},
			{
				"x": 0.4864954427,
				"y": 0.2992861638,
				"z": 0.9170884408,
				"element": "H" 
			},
			{
				"x": -1.7424476024,
				"y": -0.2509451642,
				"z": -1.1748552636,
				"element": "H" 
			},
			{
				"x": -1.034462752,
				"y": 1.3727539158,
				"z": -0.74309786,
				"element": "H" 
			},
			{
				"x": 0.511133861,
				"y": -1.0875790432,
				"z": -1.8408104718,
				"element": "H" 
			},
			{
				"x": 1.5199490118,
				"y": 1.1494634467,
				"z": -2.6112607264,
				"element": "H" 
			},
			{
				"x": 1.5315922035,
				"y": 1.6951296833,
				"z": -0.9300947309,
				"element": "H" 
			},
			{
				"x": 2.5887122947,
				"y": 0.3698850117,
				"z": -1.4338405135,
				"element": "H" 
			}
		],
		 "valence_orbital": [ 
			{
				"type": "occ",
				"energy": -0.38045,
				"method": "rhf"
			},
			{
				"type": "occ",
				"energy": -0.34595,
				"method": "rhf"
			},
			{
				"type": "occ",
				"energy": -0.34062,
				"method": "rhf"
			},
			{
				"type": "occ",
				"energy": -0.27071,
				"method": "rhf"
			},
			{
				"type": "occ",
				"energy": -0.26266,
				"method": "rhf"
			},
			{
				"type": "unocc",
				"energy": 0.10661,
				"method": "rhf"
			},
			{
				"type": "unocc",
				"energy": 0.11011,
				"method": "rhf"
			},
			{
				"type": "unocc",
				"energy": 0.12728,
				"method": "rhf"
			},
			{
				"type": "unocc",
				"energy": 0.14606,
				"method": "rhf"
			},
			{
				"type": "unocc",
				"energy": 0.15065,
				"method": "rhf"
			}
		],
		"cosmo_sigma_profile": { 
			"-0.025": 0.0,
			"-0.024": 0.0,
			"-0.023": 0.0,
			"-0.022": 0.0,
			"-0.021": 0.0,
			"-0.02": 0.0,
			"-0.019": 0.0,
			"-0.018": 0.0,
			"-0.017": 0.0,
			"-0.016": 0.0,
			"-0.015": 0.0,
			"-0.014": 0.0,
			"-0.013": 0.0,
			"-0.012": 0.0,
			"-0.011": 0.0,
			"-0.01": 0.0,
			"-0.009": 0.0,
			"-0.008": 0.0,
			"-0.007": 0.0,
			"-0.006": 0.0,
			"-0.005": 0.0,
			"-0.004": 1.77492155196,
			"-0.003": 16.3388895236,
			"-0.002": 20.746383831,
			"-0.001": 17.9815384601,
			"0.0": 20.8889245631,
			"0.001": 24.6813881639,
			"0.002": 12.7624073511,
			"0.003": 6.03849478492,
			"0.004": 5.46063817115,
			"0.005": 3.25249715627,
			"0.006": 1.65092118601,
			"0.007": 0.00804495187367,
			"0.008": 0.0,
			"0.009": 0.0,
			"0.01": 0.0,
			"0.011": 0.0,
			"0.012": 0.0,
			"0.013": 0.0,
			"0.014": 0.0,
			"0.015": 0.0,
			"0.016": 0.0,
			"0.017": 0.0,
			"0.018": 0.0,
			"0.019": 0.0,
			"0.02": 0.0,
			"0.021": 0.0,
			"0.022": 0.0,
			"0.023": 0.0,
			"0.024": 0.0,
			"0.025": 0.0
		}
	}
}
