{
	 "smiles": "CN(C)C1=CC=C(C=C1)C#N", 
	 "Tm": 347.15, 
	 "num_atms": 21, 
	 "gaussian": { 
		 "optdone": 1, 
		 "sigma_profile": "yes", 
		 "theory": "DFT", 
		 "functional": "B3LYP", 
		 "basiset": "6-31G**", 
		 "properties": { 
			 "R2extent": 2534.5773, 
			 "electric_dipole_moment_norm": 7.63145977648, 
			 "electric_quadrupole_moment_norm": 25.7696235465, 
			 "total_energy": -458.467687219, 
			 "HOMO_LUMO_gap": 0.18019, 
			 "cosmo_polarized_energy": -12.01, 
			 "cosmo_cavitation_energy": 25.1, 
			 "cosmo_dispersion_energy": -17.98, 
			 "cosmo_repulsion_energy": 1.43, 
			 "cosmo_total_nonelectrostatic_energy": 8.55, 
			 "SMD_solvation_energy": 5.62 
		},
		"coords": [
			{
				"x": -0.5007631213,
				"y": 2.1688585721,
				"z": -0.379101998,
				"element": "C" 
			},
			{
				"x": -0.9200831948,
				"y": 0.9694337616,
				"z": 0.3273382501,
				"element": "N" 
			},
			{
				"x": -1.8624694978,
				"y": 1.0753453316,
				"z": 1.4292610178,
				"element": "C" 
			},
			{
				"x": -0.4147344868,
				"y": -0.2596234015,
				"z": -0.0353422123,
				"element": "C" 
			},
			{
				"x": -0.8019800317,
				"y": -1.4434891896,
				"z": 0.6424260907,
				"element": "C" 
			},
			{
				"x": -0.2921526174,
				"y": -2.6779474762,
				"z": 0.2734445846,
				"element": "C" 
			},
			{
				"x": 0.6260152565,
				"y": -2.7953206131,
				"z": -0.7849425347,
				"element": "C" 
			},
			{
				"x": 1.0169831061,
				"y": -1.6272895371,
				"z": -1.4630511853,
				"element": "C" 
			},
			{
				"x": 0.5121757464,
				"y": -0.3887983301,
				"z": -1.1007255662,
				"element": "C" 
			},
			{
				"x": 1.1493126878,
				"y": -4.0705564637,
				"z": -1.1619581703,
				"element": "C" 
			},
			{
				"x": 1.5757950902,
				"y": -5.1099661796,
				"z": -1.4692316076,
				"element": "N" 
			},
			{
				"x": -0.7544041513,
				"y": 2.1239689866,
				"z": -1.4466702226,
				"element": "H" 
			},
			{
				"x": -1.008989125,
				"y": 3.0332167159,
				"z": 0.0489266367,
				"element": "H" 
			},
			{
				"x": 0.5813060178,
				"y": 2.3377563103,
				"z": -0.2943873973,
				"element": "H" 
			},
			{
				"x": -2.7791855091,
				"y": 0.5010249364,
				"z": 1.2397875543,
				"element": "H" 
			},
			{
				"x": -1.4296042839,
				"y": 0.7210650869,
				"z": 2.3745815522,
				"element": "H" 
			},
			{
				"x": -2.1441231677,
				"y": 2.120306005,
				"z": 1.5609699442,
				"element": "H" 
			},
			{
				"x": -1.5062662655,
				"y": -1.3984690952,
				"z": 1.4632962514,
				"element": "H" 
			},
			{
				"x": -0.605403815,
				"y": -3.5684701054,
				"z": 0.8088837691,
				"element": "H" 
			},
			{
				"x": 1.725198303,
				"y": -1.6980819941,
				"z": -2.282364873,
				"element": "H" 
			},
			{
				"x": 0.8404730595,
				"y": 0.4848366792,
				"z": -1.6492398838,
				"element": "H" 
			}
		],
		 "valence_orbital": [ 
			{
				"type": "occ",
				"energy": -0.3405,
				"method": "rhf"
			},
			{
				"type": "occ",
				"energy": -0.31193,
				"method": "rhf"
			},
			{
				"type": "occ",
				"energy": -0.28676,
				"method": "rhf"
			},
			{
				"type": "occ",
				"energy": -0.26436,
				"method": "rhf"
			},
			{
				"type": "occ",
				"energy": -0.20556,
				"method": "rhf"
			},
			{
				"type": "unocc",
				"energy": -0.02537,
				"method": "rhf"
			},
			{
				"type": "unocc",
				"energy": -0.01187,
				"method": "rhf"
			},
			{
				"type": "unocc",
				"energy": 0.05275,
				"method": "rhf"
			},
			{
				"type": "unocc",
				"energy": 0.07126,
				"method": "rhf"
			},
			{
				"type": "unocc",
				"energy": 0.09054,
				"method": "rhf"
			}
		],
		"cosmo_sigma_profile": { 
			"-0.025": 0.0,
			"-0.024": 0.0,
			"-0.023": 0.0,
			"-0.022": 0.0,
			"-0.021": 0.0,
			"-0.02": 0.0,
			"-0.019": 0.0,
			"-0.018": 0.0,
			"-0.017": 0.0,
			"-0.016": 0.0,
			"-0.015": 0.0,
			"-0.014": 0.0,
			"-0.013": 0.0,
			"-0.012": 0.0,
			"-0.011": 0.0,
			"-0.01": 0.0,
			"-0.009": 0.0,
			"-0.008": 0.386460313454,
			"-0.007": 5.75470108116,
			"-0.006": 11.3892073758,
			"-0.005": 19.949601192,
			"-0.004": 20.8423427583,
			"-0.003": 19.3505544683,
			"-0.002": 21.3013232771,
			"-0.001": 11.5371354876,
			"0.0": 10.3454927116,
			"0.001": 12.6745527134,
			"0.002": 10.6960007449,
			"0.003": 12.202020084,
			"0.004": 12.7110046175,
			"0.005": 6.33447610031,
			"0.006": 1.97451906243,
			"0.007": 2.58886020933,
			"0.008": 2.97447711855,
			"0.009": 3.44446791401,
			"0.01": 3.66117015195,
			"0.011": 3.54507590768,
			"0.012": 2.59918065972,
			"0.013": 2.82470267145,
			"0.014": 1.51133718771,
			"0.015": 0.0398025847109,
			"0.016": 0.0,
			"0.017": 0.0,
			"0.018": 0.0,
			"0.019": 0.0,
			"0.02": 0.0,
			"0.021": 0.0,
			"0.022": 0.0,
			"0.023": 0.0,
			"0.024": 0.0,
			"0.025": 0.0
		}
	}
}
