{
	 "smiles": "CCOC(=O)C1=C(C)C(C(C)=O)=C(C)N1", 
	 "Tm": 419.15, 
	 "num_atms": 30, 
	 "gaussian": { 
		 "optdone": 1, 
		 "sigma_profile": "yes", 
		 "theory": "DFT", 
		 "functional": "B3LYP", 
		 "basiset": "6-31G**", 
		 "properties": { 
			 "R2extent": 4417.6666, 
			 "electric_dipole_moment_norm": 3.08871438304, 
			 "electric_quadrupole_moment_norm": 17.5566819704, 
			 "total_energy": -708.67195274, 
			 "HOMO_LUMO_gap": 0.19266, 
			 "cosmo_polarized_energy": -13.31, 
			 "cosmo_cavitation_energy": 33.08, 
			 "cosmo_dispersion_energy": -23.8, 
			 "cosmo_repulsion_energy": 1.88, 
			 "cosmo_total_nonelectrostatic_energy": 11.16, 
			 "SMD_solvation_energy": 7.24 
		},
		"coords": [
			{
				"x": 2.9750541622,
				"y": 3.9058247872,
				"z": 1.1285203251,
				"element": "C" 
			},
			{
				"x": 2.7855414933,
				"y": 2.5119464967,
				"z": 1.7081574811,
				"element": "C" 
			},
			{
				"x": 1.5361381434,
				"y": 1.9253473797,
				"z": 1.2756486129,
				"element": "O" 
			},
			{
				"x": 1.5545464756,
				"y": 1.2764146255,
				"z": 0.071878257,
				"element": "C" 
			},
			{
				"x": 2.5562801428,
				"y": 1.1738370892,
				"z": -0.6151508696,
				"element": "O" 
			},
			{
				"x": 0.2340138998,
				"y": 0.7447082204,
				"z": -0.2411472172,
				"element": "C" 
			},
			{
				"x": -0.2319888479,
				"y": 0.0227391032,
				"z": -1.3351226548,
				"element": "C" 
			},
			{
				"x": 0.6150823372,
				"y": -0.3824073039,
				"z": -2.5071593036,
				"element": "C" 
			},
			{
				"x": -1.6264863429,
				"y": -0.2271952904,
				"z": -1.093133723,
				"element": "C" 
			},
			{
				"x": -2.635913465,
				"y": -0.9403030359,
				"z": -1.8960680896,
				"element": "C" 
			},
			{
				"x": -2.2486188891,
				"y": -1.5608409909,
				"z": -3.2281537531,
				"element": "C" 
			},
			{
				"x": -3.7950481531,
				"y": -1.0399233585,
				"z": -1.4983253626,
				"element": "O" 
			},
			{
				"x": -1.9540503238,
				"y": 0.357620436,
				"z": 0.1473742257,
				"element": "C" 
			},
			{
				"x": -3.243890131,
				"y": 0.4125786286,
				"z": 0.8975144792,
				"element": "C" 
			},
			{
				"x": -0.8311255276,
				"y": 0.9278005184,
				"z": 0.6315357379,
				"element": "N" 
			},
			{
				"x": 2.1334251691,
				"y": 4.555275054,
				"z": 1.3875089055,
				"element": "H" 
			},
			{
				"x": 3.0644343056,
				"y": 3.8582987375,
				"z": 0.0406266297,
				"element": "H" 
			},
			{
				"x": 3.8904825892,
				"y": 4.3538513871,
				"z": 1.5293619315,
				"element": "H" 
			},
			{
				"x": 3.6035399364,
				"y": 1.8500750172,
				"z": 1.4148927764,
				"element": "H" 
			},
			{
				"x": 2.7125352165,
				"y": 2.5371392976,
				"z": 2.798407928,
				"element": "H" 
			},
			{
				"x": 0.2283171909,
				"y": 0.0308174529,
				"z": -3.4449456888,
				"element": "H" 
			},
			{
				"x": 1.6350038076,
				"y": -0.0247007547,
				"z": -2.3687268585,
				"element": "H" 
			},
			{
				"x": 0.644840709,
				"y": -1.4710797814,
				"z": -2.6245760418,
				"element": "H" 
			},
			{
				"x": -1.4578885683,
				"y": -2.3077997008,
				"z": -3.1036135111,
				"element": "H" 
			},
			{
				"x": -3.1332412726,
				"y": -2.0363833453,
				"z": -3.6535700606,
				"element": "H" 
			},
			{
				"x": -1.8717447745,
				"y": -0.8043586809,
				"z": -3.9241763171,
				"element": "H" 
			},
			{
				"x": -3.1213474632,
				"y": 0.9575068111,
				"z": 1.8395322551,
				"element": "H" 
			},
			{
				"x": -4.0212623027,
				"y": 0.8972138973,
				"z": 0.3010911926,
				"element": "H" 
			},
			{
				"x": -3.6138010894,
				"y": -0.5937279754,
				"z": 1.1106085897,
				"element": "H" 
			},
			{
				"x": -0.7450284277,
				"y": 1.4263252786,
				"z": 1.504810124,
				"element": "H" 
			}
		],
		 "valence_orbital": [ 
			{
				"type": "occ",
				"energy": -0.29999,
				"method": "rhf"
			},
			{
				"type": "occ",
				"energy": -0.27359,
				"method": "rhf"
			},
			{
				"type": "occ",
				"energy": -0.25093,
				"method": "rhf"
			},
			{
				"type": "occ",
				"energy": -0.23579,
				"method": "rhf"
			},
			{
				"type": "occ",
				"energy": -0.22259,
				"method": "rhf"
			},
			{
				"type": "unocc",
				"energy": -0.02993,
				"method": "rhf"
			},
			{
				"type": "unocc",
				"energy": -0.02173,
				"method": "rhf"
			},
			{
				"type": "unocc",
				"energy": 0.07755,
				"method": "rhf"
			},
			{
				"type": "unocc",
				"energy": 0.0797,
				"method": "rhf"
			},
			{
				"type": "unocc",
				"energy": 0.0966,
				"method": "rhf"
			}
		],
		"cosmo_sigma_profile": { 
			"-0.025": 0.0,
			"-0.024": 0.0,
			"-0.023": 0.0,
			"-0.022": 0.0,
			"-0.021": 0.0,
			"-0.02": 0.0,
			"-0.019": 0.0,
			"-0.018": 0.0,
			"-0.017": 0.0,
			"-0.016": 0.0,
			"-0.015": 0.348986308817,
			"-0.014": 1.08645100053,
			"-0.013": 1.10392727335,
			"-0.012": 1.06880981031,
			"-0.011": 0.949418009981,
			"-0.01": 1.10492602182,
			"-0.009": 1.53054254928,
			"-0.008": 0.807366928397,
			"-0.007": 1.06417402069,
			"-0.006": 7.3364312173,
			"-0.005": 14.5759888315,
			"-0.004": 21.3214463817,
			"-0.003": 26.1133097434,
			"-0.002": 26.7388660108,
			"-0.001": 32.9218957858,
			"0.0": 29.6887207759,
			"0.001": 18.8111238632,
			"0.002": 15.5870757185,
			"0.003": 13.216740636,
			"0.004": 8.55652400637,
			"0.005": 4.79980871256,
			"0.006": 3.32819406894,
			"0.007": 4.12527452572,
			"0.008": 3.38078888917,
			"0.009": 2.77152985762,
			"0.01": 3.50511626921,
			"0.011": 4.35407674446,
			"0.012": 5.16436173849,
			"0.013": 3.15969977858,
			"0.014": 1.81323537519,
			"0.015": 0.27080432846,
			"0.016": 0.0,
			"0.017": 0.0,
			"0.018": 0.0,
			"0.019": 0.0,
			"0.02": 0.0,
			"0.021": 0.0,
			"0.022": 0.0,
			"0.023": 0.0,
			"0.024": 0.0,
			"0.025": 0.0
		}
	}
}
