{
	 "smiles": "OC(=O)C1=CC(=NN1)C1=CC=CC=C1", 
	 "Tm": 523.15, 
	 "num_atms": 22, 
	 "gaussian": { 
		 "optdone": 1, 
		 "sigma_profile": "yes", 
		 "theory": "DFT", 
		 "functional": "B3LYP", 
		 "basiset": "6-31G**", 
		 "properties": { 
			 "R2extent": 3666.9342, 
			 "electric_dipole_moment_norm": 3.26547121561, 
			 "electric_quadrupole_moment_norm": 12.3945572442, 
			 "total_energy": -645.831149522, 
			 "HOMO_LUMO_gap": 0.17793, 
			 "cosmo_polarized_energy": -17.3, 
			 "cosmo_cavitation_energy": 27.29, 
			 "cosmo_dispersion_energy": -20.35, 
			 "cosmo_repulsion_energy": 1.58, 
			 "cosmo_total_nonelectrostatic_energy": 8.52, 
			 "SMD_solvation_energy": 4.96 
		},
		"coords": [
			{
				"x": -2.164246964,
				"y": 3.5132542826,
				"z": -0.2534559501,
				"element": "O" 
			},
			{
				"x": -2.1442105268,
				"y": 2.4434745547,
				"z": -1.0813611568,
				"element": "C" 
			},
			{
				"x": -2.8880367621,
				"y": 2.3777316256,
				"z": -2.0353116849,
				"element": "O" 
			},
			{
				"x": -1.1799310987,
				"y": 1.37168273,
				"z": -0.766632918,
				"element": "C" 
			},
			{
				"x": -0.2241155289,
				"y": 1.1490058456,
				"z": 0.2149879507,
				"element": "C" 
			},
			{
				"x": 0.3450480315,
				"y": -0.1111015737,
				"z": -0.0999363854,
				"element": "C" 
			},
			{
				"x": -0.2302694271,
				"y": -0.6213795829,
				"z": -1.2049348989,
				"element": "N" 
			},
			{
				"x": -1.1341270271,
				"y": 0.2827444102,
				"z": -1.5798390131,
				"element": "N" 
			},
			{
				"x": 1.409114672,
				"y": -0.8480424389,
				"z": 0.6028004012,
				"element": "C" 
			},
			{
				"x": 2.0152987197,
				"y": -0.3240333335,
				"z": 1.7548877502,
				"element": "C" 
			},
			{
				"x": 3.0217814506,
				"y": -1.0292572621,
				"z": 2.4130987578,
				"element": "C" 
			},
			{
				"x": 3.4398420817,
				"y": -2.2705918407,
				"z": 1.9311096038,
				"element": "C" 
			},
			{
				"x": 2.8423444997,
				"y": -2.8006998327,
				"z": 0.7846774955,
				"element": "C" 
			},
			{
				"x": 1.8369083611,
				"y": -2.09837676,
				"z": 0.1254222406,
				"element": "C" 
			},
			{
				"x": -1.511957725,
				"y": 3.4099790421,
				"z": 0.453807878,
				"element": "H" 
			},
			{
				"x": 0.0334816025,
				"y": 1.7940230376,
				"z": 1.042531318,
				"element": "H" 
			},
			{
				"x": -1.7147317992,
				"y": 0.1434517706,
				"z": -2.3955298878,
				"element": "H" 
			},
			{
				"x": 1.7026608333,
				"y": 0.6405179894,
				"z": 2.1441239792,
				"element": "H" 
			},
			{
				"x": 3.4792270796,
				"y": -0.6074676602,
				"z": 3.3034531009,
				"element": "H" 
			},
			{
				"x": 4.2239157476,
				"y": -2.8200468992,
				"z": 2.4438049115,
				"element": "H" 
			},
			{
				"x": 3.1612189706,
				"y": -3.7661455373,
				"z": 0.4022309939,
				"element": "H" 
			},
			{
				"x": 1.3710848089,
				"y": -2.5070225671,
				"z": -0.7646344863,
				"element": "H" 
			}
		],
		 "valence_orbital": [ 
			{
				"type": "occ",
				"energy": -0.30266,
				"method": "rhf"
			},
			{
				"type": "occ",
				"energy": -0.29197,
				"method": "rhf"
			},
			{
				"type": "occ",
				"energy": -0.27631,
				"method": "rhf"
			},
			{
				"type": "occ",
				"energy": -0.25515,
				"method": "rhf"
			},
			{
				"type": "occ",
				"energy": -0.2312,
				"method": "rhf"
			},
			{
				"type": "unocc",
				"energy": -0.05327,
				"method": "rhf"
			},
			{
				"type": "unocc",
				"energy": -0.0306,
				"method": "rhf"
			},
			{
				"type": "unocc",
				"energy": -0.00429,
				"method": "rhf"
			},
			{
				"type": "unocc",
				"energy": 0.04273,
				"method": "rhf"
			},
			{
				"type": "unocc",
				"energy": 0.06397,
				"method": "rhf"
			}
		],
		"cosmo_sigma_profile": { 
			"-0.025": 0.0,
			"-0.024": 0.0,
			"-0.023": 0.0,
			"-0.022": 0.0,
			"-0.021": 0.0,
			"-0.02": 0.0620611015005,
			"-0.019": 0.789065430014,
			"-0.018": 1.26383831871,
			"-0.017": 2.07432885683,
			"-0.016": 1.73250260443,
			"-0.015": 1.36748855973,
			"-0.014": 1.22884668974,
			"-0.013": 2.37116688784,
			"-0.012": 2.46997062949,
			"-0.011": 1.68505320658,
			"-0.01": 2.12591605405,
			"-0.009": 3.12873575987,
			"-0.008": 3.88605169571,
			"-0.007": 3.66697771052,
			"-0.006": 6.35984735947,
			"-0.005": 11.5068371593,
			"-0.004": 15.5223959414,
			"-0.003": 13.6865757871,
			"-0.002": 11.1602316535,
			"-0.001": 10.2811939627,
			"0.0": 11.970189508,
			"0.001": 12.1885380933,
			"0.002": 17.1278362239,
			"0.003": 16.6270080136,
			"0.004": 13.9871252357,
			"0.005": 13.9935056064,
			"0.006": 7.32928408028,
			"0.007": 4.74244411348,
			"0.008": 3.92312572823,
			"0.009": 5.32415394031,
			"0.01": 5.73453743359,
			"0.011": 5.82715841892,
			"0.012": 3.36636440148,
			"0.013": 0.866201939258,
			"0.014": 0.0,
			"0.015": 0.0,
			"0.016": 0.0,
			"0.017": 0.0,
			"0.018": 0.0,
			"0.019": 0.0,
			"0.02": 0.0,
			"0.021": 0.0,
			"0.022": 0.0,
			"0.023": 0.0,
			"0.024": 0.0,
			"0.025": 0.0
		}
	}
}
