{
	 "smiles": "NC(=N)NC(=N)NCCC1=CC=CC=C1", 
	 "Tm": 449.15, 
	 "num_atms": 30, 
	 "gaussian": { 
		 "optdone": 1, 
		 "sigma_profile": "yes", 
		 "theory": "DFT", 
		 "functional": "B3LYP", 
		 "basiset": "6-31G**", 
		 "properties": { 
			 "R2extent": 4652.2467, 
			 "electric_dipole_moment_norm": 3.1017735201, 
			 "electric_quadrupole_moment_norm": 23.0840087446, 
			 "total_energy": -663.873812786, 
			 "HOMO_LUMO_gap": 0.21006, 
			 "cosmo_polarized_energy": -20.13, 
			 "cosmo_cavitation_energy": 33.66, 
			 "cosmo_dispersion_energy": -23.55, 
			 "cosmo_repulsion_energy": 1.88, 
			 "cosmo_total_nonelectrostatic_energy": 11.99, 
			 "SMD_solvation_energy": 3.48 
		},
		"coords": [
			{
				"x": -4.2536766605,
				"y": 1.6765917235,
				"z": -0.7880057828,
				"element": "N" 
			},
			{
				"x": -2.8648751317,
				"y": 1.5760311327,
				"z": -0.9046869985,
				"element": "C" 
			},
			{
				"x": -2.0367657143,
				"y": 2.5637229861,
				"z": -0.9588204622,
				"element": "N" 
			},
			{
				"x": -2.4519396903,
				"y": 0.2640925005,
				"z": -1.0136845336,
				"element": "N" 
			},
			{
				"x": -1.1502874385,
				"y": -0.2715860195,
				"z": -1.1637113695,
				"element": "C" 
			},
			{
				"x": -1.1147289409,
				"y": -1.5342412609,
				"z": -1.4139837898,
				"element": "N" 
			},
			{
				"x": -0.1316927379,
				"y": 0.6187333287,
				"z": -0.9864975947,
				"element": "N" 
			},
			{
				"x": 1.2501994284,
				"y": 0.2523126207,
				"z": -1.2137691767,
				"element": "C" 
			},
			{
				"x": 2.1996474708,
				"y": 1.3890573992,
				"z": -0.7922704282,
				"element": "C" 
			},
			{
				"x": 2.2393631295,
				"y": 1.646800325,
				"z": 0.7001553652,
				"element": "C" 
			},
			{
				"x": 1.3330833054,
				"y": 2.523108597,
				"z": 1.3132886198,
				"element": "C" 
			},
			{
				"x": 1.3662052714,
				"y": 2.7348146224,
				"z": 2.6922767623,
				"element": "C" 
			},
			{
				"x": 2.3083426846,
				"y": 2.0747705802,
				"z": 3.4833543109,
				"element": "C" 
			},
			{
				"x": 3.2173813739,
				"y": 1.2007941043,
				"z": 2.8850431322,
				"element": "C" 
			},
			{
				"x": 3.1809312666,
				"y": 0.9918773711,
				"z": 1.5057045299,
				"element": "C" 
			},
			{
				"x": -4.6968568896,
				"y": 0.9501198013,
				"z": -0.2394959117,
				"element": "H" 
			},
			{
				"x": -4.5812684384,
				"y": 2.5977253166,
				"z": -0.5331703734,
				"element": "H" 
			},
			{
				"x": -2.5021422697,
				"y": 3.4536767505,
				"z": -0.797750376,
				"element": "H" 
			},
			{
				"x": -3.1488687924,
				"y": -0.4362127339,
				"z": -1.2241297267,
				"element": "H" 
			},
			{
				"x": -0.1576802465,
				"y": -1.8637383797,
				"z": -1.515671957,
				"element": "H" 
			},
			{
				"x": -0.4127080783,
				"y": 1.6011245358,
				"z": -1.0138380417,
				"element": "H" 
			},
			{
				"x": 1.4888333055,
				"y": -0.6474976202,
				"z": -0.631097014,
				"element": "H" 
			},
			{
				"x": 1.4319390719,
				"y": 0.0070712523,
				"z": -2.273311456,
				"element": "H" 
			},
			{
				"x": 1.9102993653,
				"y": 2.3029128951,
				"z": -1.3264803878,
				"element": "H" 
			},
			{
				"x": 3.2034524145,
				"y": 1.1283207749,
				"z": -1.1458151309,
				"element": "H" 
			},
			{
				"x": 0.5911187212,
				"y": 3.0382604492,
				"z": 0.708943754,
				"element": "H" 
			},
			{
				"x": 0.6558093717,
				"y": 3.4185150219,
				"z": 3.1490607388,
				"element": "H" 
			},
			{
				"x": 2.3361705328,
				"y": 2.2427557078,
				"z": 4.5562714055,
				"element": "H" 
			},
			{
				"x": 3.9582642501,
				"y": 0.6855501004,
				"z": 3.4902099444,
				"element": "H" 
			},
			{
				"x": 3.8969500654,
				"y": 0.3141361171,
				"z": 1.0457819481,
				"element": "H" 
			}
		],
		 "valence_orbital": [ 
			{
				"type": "occ",
				"energy": -0.2532,
				"method": "rhf"
			},
			{
				"type": "occ",
				"energy": -0.24482,
				"method": "rhf"
			},
			{
				"type": "occ",
				"energy": -0.23817,
				"method": "rhf"
			},
			{
				"type": "occ",
				"energy": -0.23611,
				"method": "rhf"
			},
			{
				"type": "occ",
				"energy": -0.20568,
				"method": "rhf"
			},
			{
				"type": "unocc",
				"energy": 0.00438,
				"method": "rhf"
			},
			{
				"type": "unocc",
				"energy": 0.00556,
				"method": "rhf"
			},
			{
				"type": "unocc",
				"energy": 0.02972,
				"method": "rhf"
			},
			{
				"type": "unocc",
				"energy": 0.05825,
				"method": "rhf"
			},
			{
				"type": "unocc",
				"energy": 0.09035,
				"method": "rhf"
			}
		],
		"cosmo_sigma_profile": { 
			"-0.025": 0.0,
			"-0.024": 0.0,
			"-0.023": 0.0,
			"-0.022": 0.0,
			"-0.021": 0.0,
			"-0.02": 0.0,
			"-0.019": 0.0,
			"-0.018": 0.0,
			"-0.017": 0.0,
			"-0.016": 0.0,
			"-0.015": 0.413725476025,
			"-0.014": 3.26097625977,
			"-0.013": 4.45992343489,
			"-0.012": 4.24205080881,
			"-0.011": 4.26319837498,
			"-0.01": 3.41949066041,
			"-0.009": 3.53645900096,
			"-0.008": 3.76955522149,
			"-0.007": 4.4973924437,
			"-0.006": 6.05456820233,
			"-0.005": 15.7630277982,
			"-0.004": 21.0579750982,
			"-0.003": 27.0809455268,
			"-0.002": 17.9169498362,
			"-0.001": 16.0586796284,
			"0.0": 11.2723137823,
			"0.001": 11.4731486735,
			"0.002": 14.1186606802,
			"0.003": 13.4073748216,
			"0.004": 15.2865595407,
			"0.005": 15.0451162682,
			"0.006": 14.9361353127,
			"0.007": 8.45083856284,
			"0.008": 4.95198841967,
			"0.009": 3.14428280073,
			"0.01": 3.06214186519,
			"0.011": 2.69165179136,
			"0.012": 1.86580731842,
			"0.013": 2.27827270167,
			"0.014": 1.68673498448,
			"0.015": 1.38910557398,
			"0.016": 1.14464369038,
			"0.017": 0.969751446138,
			"0.018": 1.42833417349,
			"0.019": 0.753089836169,
			"0.02": 0.0321766951422,
			"0.021": 0.0,
			"0.022": 0.0,
			"0.023": 0.0,
			"0.024": 0.0,
			"0.025": 0.0
		}
	}
}
