{
	 "smiles": "OC(=O)C1=CC(=CC=C1)N1CCOCC1", 
	 "Tm": 435.15, 
	 "num_atms": 28, 
	 "gaussian": { 
		 "optdone": 1, 
		 "sigma_profile": "yes", 
		 "theory": "DFT", 
		 "functional": "B3LYP", 
		 "basiset": "6-31G**", 
		 "properties": { 
			 "R2extent": 4759.7477, 
			 "electric_dipole_moment_norm": 5.41640012093, 
			 "electric_quadrupole_moment_norm": 33.8697856431, 
			 "total_energy": -707.409495439, 
			 "HOMO_LUMO_gap": 0.16387, 
			 "cosmo_polarized_energy": -17.77, 
			 "cosmo_cavitation_energy": 30.39, 
			 "cosmo_dispersion_energy": -22.64, 
			 "cosmo_repulsion_energy": 1.76, 
			 "cosmo_total_nonelectrostatic_energy": 9.51, 
			 "SMD_solvation_energy": 5.21 
		},
		"coords": [
			{
				"x": -3.5955155108,
				"y": 2.9730792853,
				"z": -1.8440528528,
				"element": "O" 
			},
			{
				"x": -4.0144176827,
				"y": 2.0252302244,
				"z": -0.9582213917,
				"element": "C" 
			},
			{
				"x": -5.1776508933,
				"y": 1.9747584156,
				"z": -0.6357575923,
				"element": "O" 
			},
			{
				"x": -2.965720507,
				"y": 1.0868784526,
				"z": -0.4386746014,
				"element": "C" 
			},
			{
				"x": -1.6132254738,
				"y": 1.4471334924,
				"z": -0.3977124379,
				"element": "C" 
			},
			{
				"x": -0.6360265687,
				"y": 0.5578021643,
				"z": 0.1006076323,
				"element": "C" 
			},
			{
				"x": -1.0750814428,
				"y": -0.7125601472,
				"z": 0.5394985225,
				"element": "C" 
			},
			{
				"x": -2.4233346923,
				"y": -1.0580577361,
				"z": 0.4943837868,
				"element": "C" 
			},
			{
				"x": -3.3828619817,
				"y": -0.1664091096,
				"z": 0.0208330831,
				"element": "C" 
			},
			{
				"x": 0.6999124627,
				"y": 0.9199176252,
				"z": 0.1601291191,
				"element": "N" 
			},
			{
				"x": 1.7518300011,
				"y": -0.0611271378,
				"z": 0.4062961197,
				"element": "C" 
			},
			{
				"x": 3.0641320232,
				"y": 0.4226356696,
				"z": -0.2085337162,
				"element": "C" 
			},
			{
				"x": 3.4968220103,
				"y": 1.6817854155,
				"z": 0.2954082484,
				"element": "O" 
			},
			{
				"x": 2.447572047,
				"y": 2.5190626372,
				"z": 0.7654301039,
				"element": "C" 
			},
			{
				"x": 1.1276188395,
				"y": 2.3090527226,
				"z": 0.0251595901,
				"element": "C" 
			},
			{
				"x": -2.6965876965,
				"y": 2.7669466747,
				"z": -2.1362811804,
				"element": "H" 
			},
			{
				"x": -1.3125202385,
				"y": 2.4367392296,
				"z": -0.724275184,
				"element": "H" 
			},
			{
				"x": -0.3653336084,
				"y": -1.4208716052,
				"z": 0.9503896892,
				"element": "H" 
			},
			{
				"x": -2.7262637013,
				"y": -2.038490803,
				"z": 0.850889682,
				"element": "H" 
			},
			{
				"x": -4.4368777054,
				"y": -0.4162234192,
				"z": -0.0041753368,
				"element": "H" 
			},
			{
				"x": 1.888797868,
				"y": -0.262139005,
				"z": 1.4810756595,
				"element": "H" 
			},
			{
				"x": 1.4866106105,
				"y": -1.0109176132,
				"z": -0.0708653495,
				"element": "H" 
			},
			{
				"x": 3.8591804508,
				"y": -0.2996255243,
				"z": 0.0048831794,
				"element": "H" 
			},
			{
				"x": 2.9446688527,
				"y": 0.4774574,
				"z": -1.3016327987,
				"element": "H" 
			},
			{
				"x": 2.7830201354,
				"y": 3.5529843251,
				"z": 0.6353144807,
				"element": "H" 
			},
			{
				"x": 2.2819317549,
				"y": 2.3530645092,
				"z": 1.8412459569,
				"element": "H" 
			},
			{
				"x": 0.3792258041,
				"y": 2.9714204381,
				"z": 0.4755530972,
				"element": "H" 
			},
			{
				"x": 1.2378948434,
				"y": 2.6071734191,
				"z": -1.0302155092,
				"element": "H" 
			}
		],
		 "valence_orbital": [ 
			{
				"type": "occ",
				"energy": -0.29706,
				"method": "rhf"
			},
			{
				"type": "occ",
				"energy": -0.26988,
				"method": "rhf"
			},
			{
				"type": "occ",
				"energy": -0.26328,
				"method": "rhf"
			},
			{
				"type": "occ",
				"energy": -0.26104,
				"method": "rhf"
			},
			{
				"type": "occ",
				"energy": -0.20614,
				"method": "rhf"
			},
			{
				"type": "unocc",
				"energy": -0.04227,
				"method": "rhf"
			},
			{
				"type": "unocc",
				"energy": -0.00259,
				"method": "rhf"
			},
			{
				"type": "unocc",
				"energy": 0.05261,
				"method": "rhf"
			},
			{
				"type": "unocc",
				"energy": 0.06379,
				"method": "rhf"
			},
			{
				"type": "unocc",
				"energy": 0.07469,
				"method": "rhf"
			}
		],
		"cosmo_sigma_profile": { 
			"-0.025": 0.0,
			"-0.024": 0.0,
			"-0.023": 0.0,
			"-0.022": 0.0,
			"-0.021": 0.0,
			"-0.02": 0.0,
			"-0.019": 0.0,
			"-0.018": 0.350291188607,
			"-0.017": 0.876424096436,
			"-0.016": 0.979117980542,
			"-0.015": 1.01058823274,
			"-0.014": 0.604593048813,
			"-0.013": 0.893963292108,
			"-0.012": 1.21454729689,
			"-0.011": 1.26080457336,
			"-0.01": 0.854118733214,
			"-0.009": 0.988901923072,
			"-0.008": 1.36814956237,
			"-0.007": 2.91957165956,
			"-0.006": 12.3701390613,
			"-0.005": 20.8982965909,
			"-0.004": 32.9328137072,
			"-0.003": 25.3368760406,
			"-0.002": 15.313460993,
			"-0.001": 12.4877541959,
			"0.0": 10.5325977447,
			"0.001": 9.76919944861,
			"0.002": 9.34632616963,
			"0.003": 12.3691824782,
			"0.004": 13.4009244449,
			"0.005": 11.6641745132,
			"0.006": 4.10857609419,
			"0.007": 4.02404079417,
			"0.008": 3.49706121357,
			"0.009": 4.96643524277,
			"0.01": 5.57086260581,
			"0.011": 6.48485688707,
			"0.012": 6.94305005454,
			"0.013": 4.11337070739,
			"0.014": 0.593541328601,
			"0.015": 0.0,
			"0.016": 0.0,
			"0.017": 0.0,
			"0.018": 0.0,
			"0.019": 0.0,
			"0.02": 0.0,
			"0.021": 0.0,
			"0.022": 0.0,
			"0.023": 0.0,
			"0.024": 0.0,
			"0.025": 0.0
		}
	}
}
