{
	 "smiles": "OCC(O)C1OC(=O)C(O)=C1O", 
	 "Tm": 467.15, 
	 "num_atms": 20, 
	 "gaussian": { 
		 "optdone": 1, 
		 "sigma_profile": "yes", 
		 "theory": "DFT", 
		 "functional": "B3LYP", 
		 "basiset": "6-31G**", 
		 "properties": { 
			 "R2extent": 2137.751, 
			 "electric_dipole_moment_norm": 4.24914614599, 
			 "electric_quadrupole_moment_norm": 15.3901309877, 
			 "total_energy": -684.768847812, 
			 "HOMO_LUMO_gap": 0.19567, 
			 "cosmo_polarized_energy": -19.57, 
			 "cosmo_cavitation_energy": 23.98, 
			 "cosmo_dispersion_energy": -18.0, 
			 "cosmo_repulsion_energy": 1.46, 
			 "cosmo_total_nonelectrostatic_energy": 7.44, 
			 "SMD_solvation_energy": 5.87 
		},
		"coords": [
			{
				"x": 3.3928885578,
				"y": -0.161459519,
				"z": 0.3278202526,
				"element": "O" 
			},
			{
				"x": 2.5971468211,
				"y": -0.7315544944,
				"z": 1.3417597399,
				"element": "C" 
			},
			{
				"x": 1.1498809615,
				"y": -0.2187082782,
				"z": 1.3052987159,
				"element": "C" 
			},
			{
				"x": 0.4277300347,
				"y": -0.5850212556,
				"z": 2.4945047364,
				"element": "O" 
			},
			{
				"x": 0.3157889991,
				"y": -0.8498160018,
				"z": 0.1829022486,
				"element": "C" 
			},
			{
				"x": 0.9459745402,
				"y": -0.647595543,
				"z": -1.0919314816,
				"element": "O" 
			},
			{
				"x": 0.0356412254,
				"y": -0.0372225638,
				"z": -1.9423370598,
				"element": "C" 
			},
			{
				"x": 0.2894967854,
				"y": 0.2483761815,
				"z": -3.0894801427,
				"element": "O" 
			},
			{
				"x": -1.2111149321,
				"y": 0.1918624029,
				"z": -1.2183170369,
				"element": "C" 
			},
			{
				"x": -2.2626712955,
				"y": 0.7895870764,
				"z": -1.8231019725,
				"element": "O" 
			},
			{
				"x": -1.0632853348,
				"y": -0.2519996393,
				"z": 0.0458565987,
				"element": "C" 
			},
			{
				"x": -1.9294494415,
				"y": -0.224292297,
				"z": 1.0694449786,
				"element": "O" 
			},
			{
				"x": 2.972453159,
				"y": -0.3625432196,
				"z": -0.5214632781,
				"element": "H" 
			},
			{
				"x": 2.591168076,
				"y": -1.8339289946,
				"z": 1.3141597771,
				"element": "H" 
			},
			{
				"x": 3.0467424986,
				"y": -0.4365890832,
				"z": 2.2980160723,
				"element": "H" 
			},
			{
				"x": 1.1670306549,
				"y": 0.8717348605,
				"z": 1.1704114477,
				"element": "H" 
			},
			{
				"x": 0.7776212148,
				"y": -0.0789539554,
				"z": 3.2392789766,
				"element": "H" 
			},
			{
				"x": 0.25961055,
				"y": -1.931548964,
				"z": 0.3708375312,
				"element": "H" 
			},
			{
				"x": -1.9820243018,
				"y": 0.9703192426,
				"z": -2.7358043543,
				"element": "H" 
			},
			{
				"x": -1.4186287729,
				"y": -0.4221459549,
				"z": 1.8781442504,
				"element": "H" 
			}
		],
		 "valence_orbital": [ 
			{
				"type": "occ",
				"energy": -0.32267,
				"method": "rhf"
			},
			{
				"type": "occ",
				"energy": -0.31223,
				"method": "rhf"
			},
			{
				"type": "occ",
				"energy": -0.29039,
				"method": "rhf"
			},
			{
				"type": "occ",
				"energy": -0.27671,
				"method": "rhf"
			},
			{
				"type": "occ",
				"energy": -0.22621,
				"method": "rhf"
			},
			{
				"type": "unocc",
				"energy": -0.03054,
				"method": "rhf"
			},
			{
				"type": "unocc",
				"energy": 0.02117,
				"method": "rhf"
			},
			{
				"type": "unocc",
				"energy": 0.06719,
				"method": "rhf"
			},
			{
				"type": "unocc",
				"energy": 0.08376,
				"method": "rhf"
			},
			{
				"type": "unocc",
				"energy": 0.09068,
				"method": "rhf"
			}
		],
		"cosmo_sigma_profile": { 
			"-0.025": 0.0,
			"-0.024": 0.0,
			"-0.023": 0.0,
			"-0.022": 0.0,
			"-0.021": 0.0,
			"-0.02": 0.0,
			"-0.019": 0.0,
			"-0.018": 0.427190444143,
			"-0.017": 1.28881002287,
			"-0.016": 1.82372724669,
			"-0.015": 1.16603790585,
			"-0.014": 1.77499567584,
			"-0.013": 2.1215215215,
			"-0.012": 1.71736504928,
			"-0.011": 1.73697018579,
			"-0.01": 3.27567217191,
			"-0.009": 3.55882690829,
			"-0.008": 6.39242306058,
			"-0.007": 8.84109016492,
			"-0.006": 13.1403920615,
			"-0.005": 12.1460054712,
			"-0.004": 10.9115356689,
			"-0.003": 9.60206442648,
			"-0.002": 10.8827871799,
			"-0.001": 7.14927086347,
			"0.0": 6.91192818567,
			"0.001": 6.03464473581,
			"0.002": 6.23655893784,
			"0.003": 7.28601194861,
			"0.004": 4.93432878918,
			"0.005": 6.18715475309,
			"0.006": 8.66055338124,
			"0.007": 5.69050782663,
			"0.008": 7.08699771374,
			"0.009": 6.85944357698,
			"0.01": 7.58248154181,
			"0.011": 8.27760785138,
			"0.012": 4.44579092365,
			"0.013": 2.3049831257,
			"0.014": 2.03302105257,
			"0.015": 0.0903690550053,
			"0.016": 0.0,
			"0.017": 0.0,
			"0.018": 0.0,
			"0.019": 0.0,
			"0.02": 0.0,
			"0.021": 0.0,
			"0.022": 0.0,
			"0.023": 0.0,
			"0.024": 0.0,
			"0.025": 0.0
		}
	}
}
