{
	 "smiles": "O=C1NN(C2=C1C(C1=CC=CC=C1)=C(C#N)C(=S)N2)C1=CC=CC=C1", 
	 "Tm": 415.15, 
	 "num_atms": 37, 
	 "gaussian": { 
		 "optdone": 1, 
		 "sigma_profile": "no", 
		 "theory": "DFT", 
		 "functional": "B3LYP", 
		 "basiset": "6-31G**", 
		 "properties": { 
			 "R2extent": 10991.2908, 
			 "electric_dipole_moment_norm": 9.55937056558, 
			 "electric_quadrupole_moment_norm": 42.1483244945, 
			 "total_energy": -1423.63547976, 
			 "HOMO_LUMO_gap": 0.13175, 
			 "cosmo_polarized_energy": -255.98, 
			 "cosmo_cavitation_energy": 44.48, 
			 "cosmo_dispersion_energy": -30.94, 
			 "cosmo_repulsion_energy": 2.29, 
			 "cosmo_total_nonelectrostatic_energy": 15.82, 
			 "SMD_solvation_energy": 7.61 
		},
		"coords": [
			{
				"x": -1.1313645827,
				"y": -1.2252706459,
				"z": -2.2128996381,
				"element": "O" 
			},
			{
				"x": -0.9485162452,
				"y": -0.719879866,
				"z": -1.1218023463,
				"element": "C" 
			},
			{
				"x": -1.0953893057,
				"y": 0.687456466,
				"z": -0.8991181847,
				"element": "N" 
			},
			{
				"x": -1.1100342187,
				"y": 0.9392442675,
				"z": 0.4988159426,
				"element": "N" 
			},
			{
				"x": -0.6785419421,
				"y": -0.2140788416,
				"z": 1.0927856873,
				"element": "C" 
			},
			{
				"x": -0.5731350983,
				"y": -1.2647060993,
				"z": 0.187444359,
				"element": "C" 
			},
			{
				"x": -0.2137935356,
				"y": -2.5591682302,
				"z": 0.6601345074,
				"element": "C" 
			},
			{
				"x": -0.1264221103,
				"y": -3.7088767797,
				"z": -0.273481337,
				"element": "C" 
			},
			{
				"x": -0.7705353659,
				"y": -4.921745736,
				"z": 0.021592955,
				"element": "C" 
			},
			{
				"x": -0.6859037717,
				"y": -5.9965752841,
				"z": -0.8605777747,
				"element": "C" 
			},
			{
				"x": 0.0544958787,
				"y": -5.8807416493,
				"z": -2.0380019144,
				"element": "C" 
			},
			{
				"x": 0.7000071781,
				"y": -4.6794200594,
				"z": -2.3377412269,
				"element": "C" 
			},
			{
				"x": 0.6010660346,
				"y": -3.5956237199,
				"z": -1.4695145271,
				"element": "C" 
			},
			{
				"x": 0.0633265997,
				"y": -2.6872642007,
				"z": 2.0308253831,
				"element": "C" 
			},
			{
				"x": 0.4898818188,
				"y": -3.941845139,
				"z": 2.57218412,
				"element": "C" 
			},
			{
				"x": 0.8389599366,
				"y": -4.9683201611,
				"z": 2.994032463,
				"element": "N" 
			},
			{
				"x": 0.002646372,
				"y": -1.5750049425,
				"z": 2.9629007286,
				"element": "C" 
			},
			{
				"x": 0.3416749495,
				"y": -1.6204376788,
				"z": 4.5927104967,
				"element": "S" 
			},
			{
				"x": -0.3794841449,
				"y": -0.352538403,
				"z": 2.3977045888,
				"element": "N" 
			},
			{
				"x": -0.8341574693,
				"y": 2.2620308358,
				"z": 0.9689314417,
				"element": "C" 
			},
			{
				"x": -1.4499324774,
				"y": 2.6930940128,
				"z": 2.1497598872,
				"element": "C" 
			},
			{
				"x": -1.1734282506,
				"y": 3.9705101744,
				"z": 2.6400825032,
				"element": "C" 
			},
			{
				"x": -0.3185991466,
				"y": 4.8219120974,
				"z": 1.9391731322,
				"element": "C" 
			},
			{
				"x": 0.2666975779,
				"y": 4.3918480328,
				"z": 0.7451609077,
				"element": "C" 
			},
			{
				"x": 0.0202794181,
				"y": 3.1101690303,
				"z": 0.2559513323,
				"element": "C" 
			},
			{
				"x": -1.8830540317,
				"y": 1.1136985998,
				"z": -1.3795401752,
				"element": "H" 
			},
			{
				"x": -1.3469549964,
				"y": -5.0202474879,
				"z": 0.934684489,
				"element": "H" 
			},
			{
				"x": -1.1954226598,
				"y": -6.9254502568,
				"z": -0.6234804381,
				"element": "H" 
			},
			{
				"x": 0.1264741899,
				"y": -6.7223167417,
				"z": -2.7208024793,
				"element": "H" 
			},
			{
				"x": 1.2761175642,
				"y": -4.5823107242,
				"z": -3.2528464008,
				"element": "H" 
			},
			{
				"x": 1.0956870934,
				"y": -2.662894485,
				"z": -1.7144645497,
				"element": "H" 
			},
			{
				"x": -0.4068031066,
				"y": 0.4363323242,
				"z": 3.0351125531,
				"element": "H" 
			},
			{
				"x": -2.1593468035,
				"y": 2.0474154824,
				"z": 2.6590836413,
				"element": "H" 
			},
			{
				"x": -1.6448668029,
				"y": 4.3032927127,
				"z": 3.5594411667,
				"element": "H" 
			},
			{
				"x": -0.1150951355,
				"y": 5.8191446839,
				"z": 2.3162297558,
				"element": "H" 
			},
			{
				"x": 0.9292812694,
				"y": 5.0532555023,
				"z": 0.1953305419,
				"element": "H" 
			},
			{
				"x": 0.4779853206,
				"y": 2.7601129096,
				"z": -0.6625015909,
				"element": "H" 
			}
		],
		 "valence_orbital": [ 
			{
				"type": "occ",
				"energy": -0.25516,
				"method": "rhf"
			},
			{
				"type": "occ",
				"energy": -0.25377,
				"method": "rhf"
			},
			{
				"type": "occ",
				"energy": -0.24666,
				"method": "rhf"
			},
			{
				"type": "occ",
				"energy": -0.21953,
				"method": "rhf"
			},
			{
				"type": "occ",
				"energy": -0.21769,
				"method": "rhf"
			},
			{
				"type": "unocc",
				"energy": -0.08594,
				"method": "rhf"
			},
			{
				"type": "unocc",
				"energy": -0.05842,
				"method": "rhf"
			},
			{
				"type": "unocc",
				"energy": -0.04398,
				"method": "rhf"
			},
			{
				"type": "unocc",
				"energy": -0.0379,
				"method": "rhf"
			},
			{
				"type": "unocc",
				"energy": -0.0057,
				"method": "rhf"
			}
		],
		"cosmo_sigma_profile": { 
			"0.0": 0.0,
			"0.0": 0.0,
			"0.0": 0.0,
			"0.0": 0.0,
			"0.0": 0.0,
			"0.0": 0.0,
			"0.0": 0.0,
			"0.0": 0.0,
			"0.0": 0.0,
			"0.0": 0.0,
			"0.0": 0.0,
			"0.0": 0.0,
			"0.0": 0.0,
			"0.0": 0.0,
			"0.0": 0.0,
			"0.0": 0.0,
			"0.0": 0.0,
			"0.0": 0.0,
			"0.0": 0.0,
			"0.0": 0.0,
			"0.0": 0.0,
			"0.0": 0.0,
			"0.0": 0.0,
			"0.0": 0.0,
			"0.0": 0.0,
			"0.0": 0.0,
			"0.0": 0.0,
			"0.0": 0.0,
			"0.0": 0.0,
			"0.0": 0.0,
			"0.0": 0.0,
			"0.0": 0.0,
			"0.0": 0.0,
			"0.0": 0.0,
			"0.0": 0.0,
			"0.0": 0.0,
			"0.0": 0.0,
			"0.0": 0.0,
			"0.0": 0.0,
			"0.0": 0.0,
			"0.0": 0.0,
			"0.0": 0.0,
			"0.0": 0.0,
			"0.0": 0.0,
			"0.0": 0.0,
			"0.0": 0.0,
			"0.0": 0.0,
			"0.0": 0.0,
			"0.0": 0.0,
			"0.0": 0.0,
			"0.0": 0.0
		}
	}
}
