{
	 "smiles": "CCNC(=O)COC(=O)C1=CC=CC=C1", 
	 "Tm": 379.15, 
	 "num_atms": 28, 
	 "gaussian": { 
		 "optdone": 1, 
		 "sigma_profile": "yes", 
		 "theory": "DFT", 
		 "functional": "B3LYP", 
		 "basiset": "6-31G**", 
		 "properties": { 
			 "R2extent": 4820.9772, 
			 "electric_dipole_moment_norm": 5.14926875294, 
			 "electric_quadrupole_moment_norm": 11.1397513514, 
			 "total_energy": -707.462781255, 
			 "HOMO_LUMO_gap": 0.1917, 
			 "cosmo_polarized_energy": -14.13, 
			 "cosmo_cavitation_energy": 32.85, 
			 "cosmo_dispersion_energy": -23.09, 
			 "cosmo_repulsion_energy": 1.86, 
			 "cosmo_total_nonelectrostatic_energy": 11.62, 
			 "SMD_solvation_energy": 7.0 
		},
		"coords": [
			{
				"x": -1.3316149723,
				"y": 2.3139392653,
				"z": 3.5816849537,
				"element": "C" 
			},
			{
				"x": -2.5705925147,
				"y": 1.6974426249,
				"z": 2.9275458496,
				"element": "C" 
			},
			{
				"x": -2.2638805135,
				"y": 0.5074794965,
				"z": 2.1451440245,
				"element": "N" 
			},
			{
				"x": -2.6423314234,
				"y": -0.7393917013,
				"z": 2.5273077337,
				"element": "C" 
			},
			{
				"x": -3.3032346796,
				"y": -0.9994951972,
				"z": 3.525421635,
				"element": "O" 
			},
			{
				"x": -2.1904393351,
				"y": -1.8843172593,
				"z": 1.6206252589,
				"element": "C" 
			},
			{
				"x": -1.5288163807,
				"y": -1.421173716,
				"z": 0.4285424647,
				"element": "O" 
			},
			{
				"x": -0.2691152941,
				"y": -1.888984232,
				"z": 0.1840794807,
				"element": "C" 
			},
			{
				"x": 0.3124330636,
				"y": -2.6598408212,
				"z": 0.9181094642,
				"element": "O" 
			},
			{
				"x": 0.296185362,
				"y": -1.3358895943,
				"z": -1.0773910593,
				"element": "C" 
			},
			{
				"x": -0.4437126757,
				"y": -0.5124353456,
				"z": -1.9385867546,
				"element": "C" 
			},
			{
				"x": 0.1412475077,
				"y": -0.0265238874,
				"z": -3.1068031754,
				"element": "C" 
			},
			{
				"x": 1.461797649,
				"y": -0.3581095254,
				"z": -3.4199160523,
				"element": "C" 
			},
			{
				"x": 2.200085124,
				"y": -1.1809758614,
				"z": -2.5647108572,
				"element": "C" 
			},
			{
				"x": 1.6196965256,
				"y": -1.670611224,
				"z": -1.39769126,
				"element": "C" 
			},
			{
				"x": -0.5876923686,
				"y": 2.6080946019,
				"z": 2.8328037802,
				"element": "H" 
			},
			{
				"x": -0.8619009496,
				"y": 1.6024981102,
				"z": 4.267009842,
				"element": "H" 
			},
			{
				"x": -1.6063098426,
				"y": 3.209146135,
				"z": 4.1493625685,
				"element": "H" 
			},
			{
				"x": -3.2910811315,
				"y": 1.3832207737,
				"z": 3.6858424379,
				"element": "H" 
			},
			{
				"x": -3.0651133121,
				"y": 2.4325945855,
				"z": 2.2803830795,
				"element": "H" 
			},
			{
				"x": -1.7215952811,
				"y": 0.5907527244,
				"z": 1.297632011,
				"element": "H" 
			},
			{
				"x": -1.5227231988,
				"y": -2.5403144467,
				"z": 2.1822351195,
				"element": "H" 
			},
			{
				"x": -3.0752477132,
				"y": -2.4505525851,
				"z": 1.318588181,
				"element": "H" 
			},
			{
				"x": -1.4707749279,
				"y": -0.2661599383,
				"z": -1.6945732623,
				"element": "H" 
			},
			{
				"x": -0.4333070617,
				"y": 0.6085307014,
				"z": -3.7745297377,
				"element": "H" 
			},
			{
				"x": 1.9145238418,
				"y": 0.022626348,
				"z": -4.3310056641,
				"element": "H" 
			},
			{
				"x": 3.2257971778,
				"y": -1.4401099774,
				"z": -2.8093537911,
				"element": "H" 
			},
			{
				"x": 2.1712173246,
				"y": -2.3129400541,
				"z": -0.7196562706,
				"element": "H" 
			}
		],
		 "valence_orbital": [ 
			{
				"type": "occ",
				"energy": -0.28824,
				"method": "rhf"
			},
			{
				"type": "occ",
				"energy": -0.27001,
				"method": "rhf"
			},
			{
				"type": "occ",
				"energy": -0.2676,
				"method": "rhf"
			},
			{
				"type": "occ",
				"energy": -0.25183,
				"method": "rhf"
			},
			{
				"type": "occ",
				"energy": -0.24807,
				"method": "rhf"
			},
			{
				"type": "unocc",
				"energy": -0.05637,
				"method": "rhf"
			},
			{
				"type": "unocc",
				"energy": -0.01743,
				"method": "rhf"
			},
			{
				"type": "unocc",
				"energy": 0.03114,
				"method": "rhf"
			},
			{
				"type": "unocc",
				"energy": 0.04762,
				"method": "rhf"
			},
			{
				"type": "unocc",
				"energy": 0.07734,
				"method": "rhf"
			}
		],
		"cosmo_sigma_profile": { 
			"-0.025": 0.0,
			"-0.024": 0.0,
			"-0.023": 0.0,
			"-0.022": 0.0,
			"-0.021": 0.0,
			"-0.02": 0.0,
			"-0.019": 0.0,
			"-0.018": 0.0,
			"-0.017": 0.0,
			"-0.016": 0.0,
			"-0.015": 0.0,
			"-0.014": 0.0,
			"-0.013": 0.0,
			"-0.012": 0.484827554919,
			"-0.011": 0.748948727951,
			"-0.01": 1.26988130862,
			"-0.009": 1.12998401628,
			"-0.008": 2.90353621661,
			"-0.007": 5.37866615882,
			"-0.006": 14.5382829616,
			"-0.005": 18.7276912704,
			"-0.004": 23.9900043191,
			"-0.003": 24.2220266291,
			"-0.002": 21.9909018512,
			"-0.001": 22.0211874616,
			"0.0": 23.1906901628,
			"0.001": 19.92818515,
			"0.002": 15.7795199748,
			"0.003": 14.3840674848,
			"0.004": 14.2691089183,
			"0.005": 3.49451981043,
			"0.006": 2.80575897464,
			"0.007": 2.77175573156,
			"0.008": 2.87081014234,
			"0.009": 3.01234227487,
			"0.01": 3.28119995926,
			"0.011": 5.67693104248,
			"0.012": 2.70798323372,
			"0.013": 3.32792149103,
			"0.014": 5.45686812324,
			"0.015": 0.664440608664,
			"0.016": 0.0,
			"0.017": 0.0,
			"0.018": 0.0,
			"0.019": 0.0,
			"0.02": 0.0,
			"0.021": 0.0,
			"0.022": 0.0,
			"0.023": 0.0,
			"0.024": 0.0,
			"0.025": 0.0
		}
	}
}
