{
	 "smiles": "CCOC1=C(C=C(Br)C=C1)S(=O)(=O)NC1=CC=C(N)C=C1", 
	 "Tm": 351.15, 
	 "num_atms": 36, 
	 "gaussian": { 
		 "optdone": 1, 
		 "sigma_profile": "yes", 
		 "theory": "DFT", 
		 "functional": "B3LYP", 
		 "basiset": "6-31G**", 
		 "properties": { 
			 "R2extent": 8915.3574, 
			 "electric_dipole_moment_norm": 5.95022850486, 
			 "electric_quadrupole_moment_norm": 24.8096858118, 
			 "total_energy": -3847.22304021, 
			 "HOMO_LUMO_gap": 0.15562, 
			 "cosmo_polarized_energy": -19.98, 
			 "cosmo_cavitation_energy": 43.58, 
			 "cosmo_dispersion_energy": -30.22, 
			 "cosmo_repulsion_energy": 2.32, 
			 "cosmo_total_nonelectrostatic_energy": 15.69, 
			 "SMD_solvation_energy": 5.36 
		},
		"coords": [
			{
				"x": 2.2015534405,
				"y": 0.802488638,
				"z": 4.015241186,
				"element": "C" 
			},
			{
				"x": 1.6803536549,
				"y": 1.6090561021,
				"z": 2.8427120193,
				"element": "C" 
			},
			{
				"x": 1.4425071599,
				"y": 0.6894220191,
				"z": 1.7455265264,
				"element": "O" 
			},
			{
				"x": 0.9135990855,
				"y": 1.2493206803,
				"z": 0.6083868079,
				"element": "C" 
			},
			{
				"x": -0.4252689762,
				"y": 1.0007060342,
				"z": 0.2706898093,
				"element": "C" 
			},
			{
				"x": -0.970331778,
				"y": 1.4824300389,
				"z": -0.9190815429,
				"element": "C" 
			},
			{
				"x": -0.1661912998,
				"y": 2.2409381826,
				"z": -1.7661351463,
				"element": "C" 
			},
			{
				"x": -0.8939965346,
				"y": 2.9201403247,
				"z": -3.3941829453,
				"element": "Br" 
			},
			{
				"x": 1.1650768989,
				"y": 2.5079623805,
				"z": -1.4451810855,
				"element": "C" 
			},
			{
				"x": 1.7030650215,
				"y": 2.0057550761,
				"z": -0.2608478101,
				"element": "C" 
			},
			{
				"x": -1.4786316484,
				"y": 0.0641308623,
				"z": 1.3963540339,
				"element": "S" 
			},
			{
				"x": -2.7455005986,
				"y": -0.1629892337,
				"z": 0.7022857861,
				"element": "O" 
			},
			{
				"x": -1.429812074,
				"y": 0.7134440566,
				"z": 2.7084628837,
				"element": "O" 
			},
			{
				"x": -0.7234348163,
				"y": -1.4355537145,
				"z": 1.6096931684,
				"element": "N" 
			},
			{
				"x": -0.5405134547,
				"y": -2.3185749341,
				"z": 0.4967925742,
				"element": "C" 
			},
			{
				"x": 0.7422214348,
				"y": -2.5889619752,
				"z": 0.0069399999,
				"element": "C" 
			},
			{
				"x": 0.9275886816,
				"y": -3.4973891777,
				"z": -1.030953305,
				"element": "C" 
			},
			{
				"x": -0.1724398491,
				"y": -4.1359383969,
				"z": -1.62839686,
				"element": "C" 
			},
			{
				"x": 0.0016302186,
				"y": -4.9943939905,
				"z": -2.7147752134,
				"element": "N" 
			},
			{
				"x": -1.4589535355,
				"y": -3.8454629429,
				"z": -1.1391583346,
				"element": "C" 
			},
			{
				"x": -1.6411205877,
				"y": -2.9611282795,
				"z": -0.0825114892,
				"element": "C" 
			},
			{
				"x": 1.4492752179,
				"y": 0.0829371239,
				"z": 4.3502842673,
				"element": "H" 
			},
			{
				"x": 2.4298973087,
				"y": 1.4701325444,
				"z": 4.8516455162,
				"element": "H" 
			},
			{
				"x": 3.1137172673,
				"y": 0.2623808649,
				"z": 3.7446493506,
				"element": "H" 
			},
			{
				"x": 2.4091368256,
				"y": 2.3648956601,
				"z": 2.5229238941,
				"element": "H" 
			},
			{
				"x": 0.7360007408,
				"y": 2.1038615423,
				"z": 3.090276655,
				"element": "H" 
			},
			{
				"x": -2.0034406552,
				"y": 1.2628041391,
				"z": -1.1595562693,
				"element": "H" 
			},
			{
				"x": 1.779268927,
				"y": 3.0928867621,
				"z": -2.1202572465,
				"element": "H" 
			},
			{
				"x": 2.7443092052,
				"y": 2.1837584978,
				"z": -0.0116950086,
				"element": "H" 
			},
			{
				"x": 0.1280557724,
				"y": -1.2669312838,
				"z": 2.1407981163,
				"element": "H" 
			},
			{
				"x": 1.6018822039,
				"y": -2.0893407785,
				"z": 0.4464725307,
				"element": "H" 
			},
			{
				"x": 1.9312645883,
				"y": -3.702613996,
				"z": -1.3946379772,
				"element": "H" 
			},
			{
				"x": -0.7458883843,
				"y": -5.6581590979,
				"z": -2.863102678,
				"element": "H" 
			},
			{
				"x": 0.9111343012,
				"y": -5.4300249004,
				"z": -2.7799677725,
				"element": "H" 
			},
			{
				"x": -2.3228838344,
				"y": -4.3302322377,
				"z": -1.5868598678,
				"element": "H" 
			},
			{
				"x": -2.6346299281,
				"y": -2.7568565906,
				"z": 0.298965427,
				"element": "H" 
			}
		],
		 "valence_orbital": [ 
			{
				"type": "occ",
				"energy": -0.28302,
				"method": "rhf"
			},
			{
				"type": "occ",
				"energy": -0.27362,
				"method": "rhf"
			},
			{
				"type": "occ",
				"energy": -0.25205,
				"method": "rhf"
			},
			{
				"type": "occ",
				"energy": -0.24624,
				"method": "rhf"
			},
			{
				"type": "occ",
				"energy": -0.19928,
				"method": "rhf"
			},
			{
				"type": "unocc",
				"energy": -0.04366,
				"method": "rhf"
			},
			{
				"type": "unocc",
				"energy": -0.02762,
				"method": "rhf"
			},
			{
				"type": "unocc",
				"energy": -0.00544,
				"method": "rhf"
			},
			{
				"type": "unocc",
				"energy": -0.00292,
				"method": "rhf"
			},
			{
				"type": "unocc",
				"energy": 0.00949,
				"method": "rhf"
			}
		],
		"cosmo_sigma_profile": { 
			"-0.025": 0.0,
			"-0.024": 0.0,
			"-0.023": 0.0,
			"-0.022": 0.0,
			"-0.021": 0.0,
			"-0.02": 0.0,
			"-0.019": 0.0,
			"-0.018": 0.0,
			"-0.017": 0.0,
			"-0.016": 0.0,
			"-0.015": 0.0,
			"-0.014": 0.0,
			"-0.013": 0.471106175723,
			"-0.012": 2.81709320182,
			"-0.011": 3.48092027337,
			"-0.01": 4.27677543344,
			"-0.009": 4.14908731469,
			"-0.008": 6.78847186106,
			"-0.007": 10.6154737,
			"-0.006": 12.501348907,
			"-0.005": 19.7915216048,
			"-0.004": 25.2497802344,
			"-0.003": 25.4809116849,
			"-0.002": 23.9048439967,
			"-0.001": 24.4644600608,
			"0.0": 30.9365460441,
			"0.001": 30.5521559333,
			"0.002": 17.5026116965,
			"0.003": 19.3033056757,
			"0.004": 23.1000552161,
			"0.005": 17.9845207062,
			"0.006": 10.5167826946,
			"0.007": 7.68970554105,
			"0.008": 5.25585571855,
			"0.009": 6.20195292685,
			"0.01": 6.49265097562,
			"0.011": 7.54184212857,
			"0.012": 1.80511396111,
			"0.013": 0.441147204046,
			"0.014": 0.819991203954,
			"0.015": 0.0,
			"0.016": 0.0,
			"0.017": 0.0,
			"0.018": 0.0,
			"0.019": 0.0,
			"0.02": 0.0,
			"0.021": 0.0,
			"0.022": 0.0,
			"0.023": 0.0,
			"0.024": 0.0,
			"0.025": 0.0
		}
	}
}
