{
	 "smiles": "CC1=CC=C(N)C(=C1)S(O)(=O)=O", 
	 "Tm": 573.15, 
	 "num_atms": 21, 
	 "gaussian": { 
		 "optdone": 1, 
		 "sigma_profile": "yes", 
		 "theory": "DFT", 
		 "functional": "B3LYP", 
		 "basiset": "6-31G**", 
		 "properties": { 
			 "R2extent": 2684.0308, 
			 "electric_dipole_moment_norm": 4.18786788832, 
			 "electric_quadrupole_moment_norm": 14.0537015042, 
			 "total_energy": -950.724301245, 
			 "HOMO_LUMO_gap": 0.17859, 
			 "cosmo_polarized_energy": -15.33, 
			 "cosmo_cavitation_energy": 25.91, 
			 "cosmo_dispersion_energy": -19.93, 
			 "cosmo_repulsion_energy": 1.54, 
			 "cosmo_total_nonelectrostatic_energy": 7.53, 
			 "SMD_solvation_energy": 3.55 
		},
		"coords": [
			{
				"x": 3.2975225371,
				"y": -1.9366399131,
				"z": 0.0189386252,
				"element": "C" 
			},
			{
				"x": 2.0076157025,
				"y": -1.1599621317,
				"z": 0.1353807911,
				"element": "C" 
			},
			{
				"x": 1.1599286974,
				"y": -1.3164299869,
				"z": 1.2473118383,
				"element": "C" 
			},
			{
				"x": -0.0355373367,
				"y": -0.6266452478,
				"z": 1.3633546731,
				"element": "C" 
			},
			{
				"x": -0.4672745104,
				"y": 0.2798890784,
				"z": 0.3698706654,
				"element": "C" 
			},
			{
				"x": -1.6411675296,
				"y": 0.9786067605,
				"z": 0.525866525,
				"element": "N" 
			},
			{
				"x": 0.3964311259,
				"y": 0.4448816889,
				"z": -0.7400042416,
				"element": "C" 
			},
			{
				"x": 1.6006969923,
				"y": -0.2657424045,
				"z": -0.8493171073,
				"element": "C" 
			},
			{
				"x": 0.0014819407,
				"y": 1.5776843623,
				"z": -2.0463762108,
				"element": "S" 
			},
			{
				"x": 0.3253628306,
				"y": 3.0535932457,
				"z": -1.3925448448,
				"element": "O" 
			},
			{
				"x": 0.9361862154,
				"y": 1.3949968125,
				"z": -3.1556503278,
				"element": "O" 
			},
			{
				"x": -1.4454970701,
				"y": 1.5791689318,
				"z": -2.2604647114,
				"element": "O" 
			},
			{
				"x": 3.9603227262,
				"y": -1.745889381,
				"z": 0.8710721256,
				"element": "H" 
			},
			{
				"x": 3.1149527513,
				"y": -3.0173324899,
				"z": -0.0111169001,
				"element": "H" 
			},
			{
				"x": 3.8410431095,
				"y": -1.6683675115,
				"z": -0.8909954178,
				"element": "H" 
			},
			{
				"x": 1.4435525321,
				"y": -2.0059306209,
				"z": 2.0391857615,
				"element": "H" 
			},
			{
				"x": -0.6672475366,
				"y": -0.7795166703,
				"z": 2.2347238541,
				"element": "H" 
			},
			{
				"x": -2.2793775183,
				"y": 0.6274766551,
				"z": 1.2233901496,
				"element": "H" 
			},
			{
				"x": -2.0742797133,
				"y": 1.3423287169,
				"z": -0.3140012368,
				"element": "H" 
			},
			{
				"x": 2.2079641806,
				"y": -0.1107966205,
				"z": -1.7351072524,
				"element": "H" 
			},
			{
				"x": 1.2054198734,
				"y": 3.3153267259,
				"z": -1.7104167581,
				"element": "H" 
			}
		],
		 "valence_orbital": [ 
			{
				"type": "occ",
				"energy": -0.32062,
				"method": "rhf"
			},
			{
				"type": "occ",
				"energy": -0.31596,
				"method": "rhf"
			},
			{
				"type": "occ",
				"energy": -0.31004,
				"method": "rhf"
			},
			{
				"type": "occ",
				"energy": -0.26907,
				"method": "rhf"
			},
			{
				"type": "occ",
				"energy": -0.21467,
				"method": "rhf"
			},
			{
				"type": "unocc",
				"energy": -0.03608,
				"method": "rhf"
			},
			{
				"type": "unocc",
				"energy": -0.00044,
				"method": "rhf"
			},
			{
				"type": "unocc",
				"energy": 0.04531,
				"method": "rhf"
			},
			{
				"type": "unocc",
				"energy": 0.07439,
				"method": "rhf"
			},
			{
				"type": "unocc",
				"energy": 0.07787,
				"method": "rhf"
			}
		],
		"cosmo_sigma_profile": { 
			"-0.025": 0.0,
			"-0.024": 0.0,
			"-0.023": 0.0,
			"-0.022": 0.0,
			"-0.021": 0.0,
			"-0.02": 0.516042105136,
			"-0.019": 0.810298371155,
			"-0.018": 0.982472813151,
			"-0.017": 1.22376666415,
			"-0.016": 0.581721193981,
			"-0.015": 0.542707512579,
			"-0.014": 0.941491936005,
			"-0.013": 2.3390016172,
			"-0.012": 2.31758088857,
			"-0.011": 2.01894602938,
			"-0.01": 2.86501587964,
			"-0.009": 3.21122868049,
			"-0.008": 3.30572928371,
			"-0.007": 3.71909500661,
			"-0.006": 7.01194263929,
			"-0.005": 8.74348219087,
			"-0.004": 12.5250097875,
			"-0.003": 12.4833578697,
			"-0.002": 15.2583647005,
			"-0.001": 12.1601314533,
			"0.0": 15.5159463293,
			"0.001": 13.7172510053,
			"0.002": 9.92608310609,
			"0.003": 13.742347061,
			"0.004": 13.6866517538,
			"0.005": 6.73175001485,
			"0.006": 4.87215792956,
			"0.007": 5.85596770993,
			"0.008": 6.2087421354,
			"0.009": 8.96619698536,
			"0.01": 8.72175356687,
			"0.011": 4.15264029678,
			"0.012": 0.10467607606,
			"0.013": 0.0,
			"0.014": 0.0,
			"0.015": 0.0,
			"0.016": 0.0,
			"0.017": 0.0,
			"0.018": 0.0,
			"0.019": 0.0,
			"0.02": 0.0,
			"0.021": 0.0,
			"0.022": 0.0,
			"0.023": 0.0,
			"0.024": 0.0,
			"0.025": 0.0
		}
	}
}
