{
	 "smiles": "CC1=NC(=C(CO)S1)C1=CC=CC=C1", 
	 "Tm": 418.15, 
	 "num_atms": 25, 
	 "gaussian": { 
		 "optdone": 1, 
		 "sigma_profile": "yes", 
		 "theory": "DFT", 
		 "functional": "B3LYP", 
		 "basiset": "6-31G**", 
		 "properties": { 
			 "R2extent": 5382.3751, 
			 "electric_dipole_moment_norm": 1.95080267839, 
			 "electric_quadrupole_moment_norm": 10.9948258631, 
			 "total_energy": -953.957419734, 
			 "HOMO_LUMO_gap": 0.1788, 
			 "cosmo_polarized_energy": -10.27, 
			 "cosmo_cavitation_energy": 30.0, 
			 "cosmo_dispersion_energy": -22.39, 
			 "cosmo_repulsion_energy": 1.73, 
			 "cosmo_total_nonelectrostatic_energy": 9.33, 
			 "SMD_solvation_energy": 3.58 
		},
		"coords": [
			{
				"x": -2.9716541915,
				"y": 2.6127099955,
				"z": -2.5073329062,
				"element": "C" 
			},
			{
				"x": -2.7622044862,
				"y": 2.1751308671,
				"z": -1.0896973045,
				"element": "C" 
			},
			{
				"x": -1.7751656043,
				"y": 1.4306740549,
				"z": -0.6920332397,
				"element": "N" 
			},
			{
				"x": -1.8043844802,
				"y": 1.1874303991,
				"z": 0.6725805709,
				"element": "C" 
			},
			{
				"x": -2.8747311969,
				"y": 1.7499212924,
				"z": 1.3404398256,
				"element": "C" 
			},
			{
				"x": -3.2734074838,
				"y": 1.6674373422,
				"z": 2.7867572999,
				"element": "C" 
			},
			{
				"x": -2.5584494118,
				"y": 2.5595461815,
				"z": 3.6461152822,
				"element": "O" 
			},
			{
				"x": -3.8573448196,
				"y": 2.6457062134,
				"z": 0.2026601956,
				"element": "S" 
			},
			{
				"x": -0.7382744441,
				"y": 0.3410874093,
				"z": 1.249025212,
				"element": "C" 
			},
			{
				"x": -0.1166193261,
				"y": -0.6221410537,
				"z": 0.4338017606,
				"element": "C" 
			},
			{
				"x": 0.8809953484,
				"y": -1.4473531292,
				"z": 0.9457090258,
				"element": "C" 
			},
			{
				"x": 1.2831827728,
				"y": -1.3224557686,
				"z": 2.2782321537,
				"element": "C" 
			},
			{
				"x": 0.6858826838,
				"y": -0.3570755912,
				"z": 3.0895568535,
				"element": "C" 
			},
			{
				"x": -0.3135985194,
				"y": 0.4746838158,
				"z": 2.5829215434,
				"element": "C" 
			},
			{
				"x": -2.9045424638,
				"y": 3.7016285412,
				"z": -2.6049687942,
				"element": "H" 
			},
			{
				"x": -2.1968353221,
				"y": 2.1576570275,
				"z": -3.1269628681,
				"element": "H" 
			},
			{
				"x": -3.9530760421,
				"y": 2.3052438027,
				"z": -2.8832230284,
				"element": "H" 
			},
			{
				"x": -4.3565645022,
				"y": 1.8281526481,
				"z": 2.8825846776,
				"element": "H" 
			},
			{
				"x": -3.0554876152,
				"y": 0.6643331504,
				"z": 3.1649623203,
				"element": "H" 
			},
			{
				"x": -2.5711690866,
				"y": 3.4352096977,
				"z": 3.2372385783,
				"element": "H" 
			},
			{
				"x": -0.4273854602,
				"y": -0.7088405702,
				"z": -0.6015955617,
				"element": "H" 
			},
			{
				"x": 1.3468316753,
				"y": -2.1896966431,
				"z": 0.3035221907,
				"element": "H" 
			},
			{
				"x": 2.0628174619,
				"y": -1.965695827,
				"z": 2.6765183862,
				"element": "H" 
			},
			{
				"x": 1.0065612197,
				"y": -0.2387207824,
				"z": 4.1208464877,
				"element": "H" 
			},
			{
				"x": -0.7409767057,
				"y": 1.2500269265,
				"z": 3.2105413387,
				"element": "H" 
			}
		],
		 "valence_orbital": [ 
			{
				"type": "occ",
				"energy": -0.28653,
				"method": "rhf"
			},
			{
				"type": "occ",
				"energy": -0.27012,
				"method": "rhf"
			},
			{
				"type": "occ",
				"energy": -0.26334,
				"method": "rhf"
			},
			{
				"type": "occ",
				"energy": -0.24374,
				"method": "rhf"
			},
			{
				"type": "occ",
				"energy": -0.21717,
				"method": "rhf"
			},
			{
				"type": "unocc",
				"energy": -0.03837,
				"method": "rhf"
			},
			{
				"type": "unocc",
				"energy": -0.00428,
				"method": "rhf"
			},
			{
				"type": "unocc",
				"energy": 0.00448,
				"method": "rhf"
			},
			{
				"type": "unocc",
				"energy": 0.01142,
				"method": "rhf"
			},
			{
				"type": "unocc",
				"energy": 0.05959,
				"method": "rhf"
			}
		],
		"cosmo_sigma_profile": { 
			"-0.025": 0.0,
			"-0.024": 0.0,
			"-0.023": 0.0,
			"-0.022": 0.0,
			"-0.021": 0.0,
			"-0.02": 0.0,
			"-0.019": 0.0,
			"-0.018": 0.0,
			"-0.017": 0.0,
			"-0.016": 0.113569038089,
			"-0.015": 0.872126085349,
			"-0.014": 0.662318480798,
			"-0.013": 1.31273449935,
			"-0.012": 0.779725690016,
			"-0.011": 0.869453992205,
			"-0.01": 1.19525172321,
			"-0.009": 0.700991301286,
			"-0.008": 1.38194094861,
			"-0.007": 1.73528473174,
			"-0.006": 9.64120796609,
			"-0.005": 19.4933335643,
			"-0.004": 20.7313295762,
			"-0.003": 20.0298995859,
			"-0.002": 19.8577867702,
			"-0.001": 16.9441118146,
			"0.0": 15.3799711484,
			"0.001": 16.7216273927,
			"0.002": 22.5812146922,
			"0.003": 17.3851009648,
			"0.004": 13.5128380083,
			"0.005": 13.8976751983,
			"0.006": 9.22707023649,
			"0.007": 3.14729753284,
			"0.008": 2.27946630692,
			"0.009": 2.15342998232,
			"0.01": 2.06696884562,
			"0.011": 1.80856866486,
			"0.012": 1.82729563117,
			"0.013": 2.15044817804,
			"0.014": 0.853191325148,
			"0.015": 0.0,
			"0.016": 0.0,
			"0.017": 0.0,
			"0.018": 0.0,
			"0.019": 0.0,
			"0.02": 0.0,
			"0.021": 0.0,
			"0.022": 0.0,
			"0.023": 0.0,
			"0.024": 0.0,
			"0.025": 0.0
		}
	}
}
