{
	 "smiles": "CNCC1=CN=C(C=C1)C1=CC=CC=C1", 
	 "Tm": 313.35, 
	 "num_atms": 29, 
	 "gaussian": { 
		 "optdone": 1, 
		 "sigma_profile": "yes", 
		 "theory": "DFT", 
		 "functional": "B3LYP", 
		 "basiset": "6-31G**", 
		 "properties": { 
			 "R2extent": 4640.8943, 
			 "electric_dipole_moment_norm": 1.66669646007, 
			 "electric_quadrupole_moment_norm": 6.04467472905, 
			 "total_energy": -613.320358614, 
			 "HOMO_LUMO_gap": 0.17664, 
			 "cosmo_polarized_energy": -10.07, 
			 "cosmo_cavitation_energy": 32.26, 
			 "cosmo_dispersion_energy": -23.4, 
			 "cosmo_repulsion_energy": 1.82, 
			 "cosmo_total_nonelectrostatic_energy": 10.68, 
			 "SMD_solvation_energy": 1.88 
		},
		"coords": [
			{
				"x": -3.8630820834,
				"y": 1.1544882387,
				"z": -2.1051359558,
				"element": "C" 
			},
			{
				"x": -2.9902716587,
				"y": 1.6585147443,
				"z": -3.1615012364,
				"element": "N" 
			},
			{
				"x": -1.8716331756,
				"y": 0.772346652,
				"z": -3.5048398106,
				"element": "C" 
			},
			{
				"x": -0.850674509,
				"y": 0.5295374152,
				"z": -2.4066847511,
				"element": "C" 
			},
			{
				"x": -0.8816378539,
				"y": -0.6163396456,
				"z": -1.6019512493,
				"element": "C" 
			},
			{
				"x": -0.0437443337,
				"y": -0.8599119659,
				"z": -0.5927888862,
				"element": "N" 
			},
			{
				"x": 0.9128434652,
				"y": 0.0449818221,
				"z": -0.3119918393,
				"element": "C" 
			},
			{
				"x": 1.0483592745,
				"y": 1.2161790248,
				"z": -1.0791364768,
				"element": "C" 
			},
			{
				"x": 0.1598800512,
				"y": 1.4550334019,
				"z": -2.120606404,
				"element": "C" 
			},
			{
				"x": 1.8191985725,
				"y": -0.2707251645,
				"z": 0.8246094634,
				"element": "C" 
			},
			{
				"x": 1.9094815769,
				"y": -1.5919377579,
				"z": 1.2945614913,
				"element": "C" 
			},
			{
				"x": 2.756877733,
				"y": -1.9153001195,
				"z": 2.3513138316,
				"element": "C" 
			},
			{
				"x": 3.5274975389,
				"y": -0.9252825811,
				"z": 2.9659447225,
				"element": "C" 
			},
			{
				"x": 3.4380127468,
				"y": 0.3931699918,
				"z": 2.5164216888,
				"element": "C" 
			},
			{
				"x": 2.5916536354,
				"y": 0.7175843441,
				"z": 1.4569866987,
				"element": "C" 
			},
			{
				"x": -3.3613816866,
				"y": 0.9323358496,
				"z": -1.1484681579,
				"element": "H" 
			},
			{
				"x": -4.6523938794,
				"y": 1.8877303653,
				"z": -1.9138177908,
				"element": "H" 
			},
			{
				"x": -4.3462605761,
				"y": 0.231990899,
				"z": -2.4478852312,
				"element": "H" 
			},
			{
				"x": -2.6251804335,
				"y": 2.5696063502,
				"z": -2.894303277,
				"element": "H" 
			},
			{
				"x": -2.2972745246,
				"y": -0.1866416331,
				"z": -3.8253520049,
				"element": "H" 
			},
			{
				"x": -1.3678001068,
				"y": 1.2029051951,
				"z": -4.3786268343,
				"element": "H" 
			},
			{
				"x": -1.6298039073,
				"y": -1.3865433722,
				"z": -1.792536506,
				"element": "H" 
			},
			{
				"x": 1.8526660356,
				"y": 1.9160881866,
				"z": -0.8818846496,
				"element": "H" 
			},
			{
				"x": 0.2617736591,
				"y": 2.35482975,
				"z": -2.7246013187,
				"element": "H" 
			},
			{
				"x": 1.3025142981,
				"y": -2.3512259179,
				"z": 0.814776764,
				"element": "H" 
			},
			{
				"x": 2.817407125,
				"y": -2.9437566158,
				"z": 2.6963360717,
				"element": "H" 
			},
			{
				"x": 4.1875943013,
				"y": -1.1778407893,
				"z": 3.7908645203,
				"element": "H" 
			},
			{
				"x": 4.0221619101,
				"y": 1.1736245158,
				"z": 2.9958501257,
				"element": "H" 
			},
			{
				"x": 2.5178168048,
				"y": 1.7535588164,
				"z": 1.1411470021,
				"element": "H" 
			}
		],
		 "valence_orbital": [ 
			{
				"type": "occ",
				"energy": -0.2775,
				"method": "rhf"
			},
			{
				"type": "occ",
				"energy": -0.25449,
				"method": "rhf"
			},
			{
				"type": "occ",
				"energy": -0.24724,
				"method": "rhf"
			},
			{
				"type": "occ",
				"energy": -0.22873,
				"method": "rhf"
			},
			{
				"type": "occ",
				"energy": -0.21811,
				"method": "rhf"
			},
			{
				"type": "unocc",
				"energy": -0.04147,
				"method": "rhf"
			},
			{
				"type": "unocc",
				"energy": -0.02136,
				"method": "rhf"
			},
			{
				"type": "unocc",
				"energy": 0.00447,
				"method": "rhf"
			},
			{
				"type": "unocc",
				"energy": 0.03123,
				"method": "rhf"
			},
			{
				"type": "unocc",
				"energy": 0.08543,
				"method": "rhf"
			}
		],
		"cosmo_sigma_profile": { 
			"-0.025": 0.0,
			"-0.024": 0.0,
			"-0.023": 0.0,
			"-0.022": 0.0,
			"-0.021": 0.0,
			"-0.02": 0.0,
			"-0.019": 0.0,
			"-0.018": 0.0,
			"-0.017": 0.0,
			"-0.016": 0.0,
			"-0.015": 0.0,
			"-0.014": 0.0,
			"-0.013": 0.0,
			"-0.012": 0.0,
			"-0.011": 0.0,
			"-0.01": 0.549629893203,
			"-0.009": 1.12227642076,
			"-0.008": 2.68560419863,
			"-0.007": 5.53202448705,
			"-0.006": 12.0103720701,
			"-0.005": 18.3797187236,
			"-0.004": 23.3259728732,
			"-0.003": 22.6228830615,
			"-0.002": 19.5635949724,
			"-0.001": 21.5335918341,
			"0.0": 22.1700393278,
			"0.001": 15.4827385034,
			"0.002": 20.4387504205,
			"0.003": 19.7986439842,
			"0.004": 12.4094496669,
			"0.005": 14.6152490902,
			"0.006": 7.53700045279,
			"0.007": 2.41986615803,
			"0.008": 2.96261628111,
			"0.009": 2.00199213237,
			"0.01": 1.77339306076,
			"0.011": 1.80580585186,
			"0.012": 1.15211934858,
			"0.013": 1.39780182094,
			"0.014": 0.920349737998,
			"0.015": 0.649822214195,
			"0.016": 0.733794787743,
			"0.017": 0.340183862571,
			"0.018": 0.422168967612,
			"0.019": 0.0419013400011,
			"0.02": 0.0,
			"0.021": 0.0,
			"0.022": 0.0,
			"0.023": 0.0,
			"0.024": 0.0,
			"0.025": 0.0
		}
	}
}
