{
	 "smiles": "O=C(NNC1=CC=CC=C1)N=NC1=CC=CC=C1", 
	 "Tm": 428.15, 
	 "num_atms": 30, 
	 "gaussian": { 
		 "optdone": 1, 
		 "sigma_profile": "yes", 
		 "theory": "DFT", 
		 "functional": "B3LYP", 
		 "basiset": "6-31G**", 
		 "properties": { 
			 "R2extent": 8166.1667, 
			 "electric_dipole_moment_norm": 4.50173238876, 
			 "electric_quadrupole_moment_norm": 21.360641735, 
			 "total_energy": -796.776328167, 
			 "HOMO_LUMO_gap": 0.10469, 
			 "cosmo_polarized_energy": -14.21, 
			 "cosmo_cavitation_energy": 36.06, 
			 "cosmo_dispersion_energy": -26.0, 
			 "cosmo_repulsion_energy": 2.02, 
			 "cosmo_total_nonelectrostatic_energy": 12.07, 
			 "SMD_solvation_energy": 5.93 
		},
		"coords": [
			{
				"x": -1.2081747791,
				"y": -2.7682935245,
				"z": 0.6308706429,
				"element": "O" 
			},
			{
				"x": -0.3213326774,
				"y": -2.1409821159,
				"z": 0.0821349086,
				"element": "C" 
			},
			{
				"x": -0.4147312012,
				"y": -1.5876392431,
				"z": -1.1676323768,
				"element": "N" 
			},
			{
				"x": -1.5023250935,
				"y": -1.9427545077,
				"z": -1.9690999199,
				"element": "N" 
			},
			{
				"x": -2.4970849328,
				"y": -0.9538747791,
				"z": -2.1794857762,
				"element": "C" 
			},
			{
				"x": -3.7490642327,
				"y": -1.3691495007,
				"z": -2.6579133896,
				"element": "C" 
			},
			{
				"x": -4.7344696683,
				"y": -0.4292730977,
				"z": -2.9467562623,
				"element": "C" 
			},
			{
				"x": -4.4892701274,
				"y": 0.9349922803,
				"z": -2.7689022988,
				"element": "C" 
			},
			{
				"x": -3.2428744555,
				"y": 1.3437823209,
				"z": -2.2941513812,
				"element": "C" 
			},
			{
				"x": -2.2473549569,
				"y": 0.4113835971,
				"z": -1.9986897151,
				"element": "C" 
			},
			{
				"x": 0.9304479623,
				"y": -1.9010149406,
				"z": 0.7734440024,
				"element": "N" 
			},
			{
				"x": 1.9088117744,
				"y": -1.7908843653,
				"z": -0.0083939479,
				"element": "N" 
			},
			{
				"x": 3.1642192561,
				"y": -1.5660866859,
				"z": 0.6111391272,
				"element": "C" 
			},
			{
				"x": 3.3562341955,
				"y": -1.4933709895,
				"z": 2.0016989575,
				"element": "C" 
			},
			{
				"x": 4.6327892466,
				"y": -1.2652888472,
				"z": 2.4998765115,
				"element": "C" 
			},
			{
				"x": 5.7171137982,
				"y": -1.1102465451,
				"z": 1.625056069,
				"element": "C" 
			},
			{
				"x": 5.5252731106,
				"y": -1.1857604663,
				"z": 0.244228778,
				"element": "C" 
			},
			{
				"x": 4.2481800154,
				"y": -1.4164738482,
				"z": -0.2637589211,
				"element": "C" 
			},
			{
				"x": 0.4640091054,
				"y": -1.4300240921,
				"z": -1.649161863,
				"element": "H" 
			},
			{
				"x": -1.8957820504,
				"y": -2.8148734712,
				"z": -1.623823048,
				"element": "H" 
			},
			{
				"x": -3.9433547914,
				"y": -2.4289549949,
				"z": -2.8039355601,
				"element": "H" 
			},
			{
				"x": -5.7008336261,
				"y": -0.7668745483,
				"z": -3.3107461695,
				"element": "H" 
			},
			{
				"x": -5.259384488,
				"y": 1.6659626869,
				"z": -2.9948120887,
				"element": "H" 
			},
			{
				"x": -3.0382485428,
				"y": 2.4004501356,
				"z": -2.1448552298,
				"element": "H" 
			},
			{
				"x": -1.2854021373,
				"y": 0.7351223416,
				"z": -1.6175624666,
				"element": "H" 
			},
			{
				"x": 2.5020466573,
				"y": -1.6199799644,
				"z": 2.6571198441,
				"element": "H" 
			},
			{
				"x": 4.7912899492,
				"y": -1.2081858332,
				"z": 3.5726650963,
				"element": "H" 
			},
			{
				"x": 6.7113770503,
				"y": -0.9329827555,
				"z": 2.0247060604,
				"element": "H" 
			},
			{
				"x": 6.3663147057,
				"y": -1.0676384765,
				"z": -0.4318805215,
				"element": "H" 
			},
			{
				"x": 4.0646809338,
				"y": -1.4837857696,
				"z": -1.3313790618,
				"element": "H" 
			}
		],
		 "valence_orbital": [ 
			{
				"type": "occ",
				"energy": -0.27187,
				"method": "rhf"
			},
			{
				"type": "occ",
				"energy": -0.2647,
				"method": "rhf"
			},
			{
				"type": "occ",
				"energy": -0.24838,
				"method": "rhf"
			},
			{
				"type": "occ",
				"energy": -0.24438,
				"method": "rhf"
			},
			{
				"type": "occ",
				"energy": -0.20616,
				"method": "rhf"
			},
			{
				"type": "unocc",
				"energy": -0.10147,
				"method": "rhf"
			},
			{
				"type": "unocc",
				"energy": -0.02191,
				"method": "rhf"
			},
			{
				"type": "unocc",
				"energy": 0.00305,
				"method": "rhf"
			},
			{
				"type": "unocc",
				"energy": 0.00433,
				"method": "rhf"
			},
			{
				"type": "unocc",
				"energy": 0.017,
				"method": "rhf"
			}
		],
		"cosmo_sigma_profile": { 
			"-0.025": 0.0,
			"-0.024": 0.0,
			"-0.023": 0.0,
			"-0.022": 0.0,
			"-0.021": 0.0,
			"-0.02": 0.0,
			"-0.019": 0.0,
			"-0.018": 0.0,
			"-0.017": 0.0,
			"-0.016": 0.0,
			"-0.015": 0.0,
			"-0.014": 0.050581531032,
			"-0.013": 0.530623012367,
			"-0.012": 1.33833945559,
			"-0.011": 1.56864480095,
			"-0.01": 1.98447645081,
			"-0.009": 1.73033026859,
			"-0.008": 2.21568233338,
			"-0.007": 8.91578695066,
			"-0.006": 15.5228346584,
			"-0.005": 22.5659105652,
			"-0.004": 21.9700367036,
			"-0.003": 21.5994824952,
			"-0.002": 19.0138564835,
			"-0.001": 18.4677655033,
			"0.0": 22.4399883327,
			"0.001": 22.5769167629,
			"0.002": 21.8433808073,
			"0.003": 23.2999284812,
			"0.004": 12.6319092361,
			"0.005": 11.6221350583,
			"0.006": 12.1752625114,
			"0.007": 5.19064169301,
			"0.008": 3.03727551552,
			"0.009": 2.69562641226,
			"0.01": 2.87499666741,
			"0.011": 4.35110993698,
			"0.012": 4.93748052824,
			"0.013": 2.2130972489,
			"0.014": 0.281267076151,
			"0.015": 0.0,
			"0.016": 0.0,
			"0.017": 0.0,
			"0.018": 0.0,
			"0.019": 0.0,
			"0.02": 0.0,
			"0.021": 0.0,
			"0.022": 0.0,
			"0.023": 0.0,
			"0.024": 0.0,
			"0.025": 0.0
		}
	}
}
