{
	 "smiles": "CN1C=C(C=N1)C(=O)NCC1CCNCC1", 
	 "Tm": 449.15, 
	 "num_atms": 34, 
	 "gaussian": { 
		 "optdone": 1, 
		 "sigma_profile": "yes", 
		 "theory": "DFT", 
		 "functional": "B3LYP", 
		 "basiset": "6-31G**", 
		 "properties": { 
			 "R2extent": 6219.6291, 
			 "electric_dipole_moment_norm": 5.59616636011, 
			 "electric_quadrupole_moment_norm": 26.0474446718, 
			 "total_energy": -724.235598678, 
			 "HOMO_LUMO_gap": 0.19296, 
			 "cosmo_polarized_energy": -21.08, 
			 "cosmo_cavitation_energy": 35.79, 
			 "cosmo_dispersion_energy": -25.75, 
			 "cosmo_repulsion_energy": 2.02, 
			 "cosmo_total_nonelectrostatic_energy": 12.06, 
			 "SMD_solvation_energy": 2.52 
		},
		"coords": [
			{
				"x": 4.2555925531,
				"y": 1.6162960811,
				"z": -4.6479815195,
				"element": "C" 
			},
			{
				"x": 3.0458851037,
				"y": 1.040799185,
				"z": -4.089993078,
				"element": "N" 
			},
			{
				"x": 2.8775236497,
				"y": 0.4551155828,
				"z": -2.8797605489,
				"element": "C" 
			},
			{
				"x": 1.5561965994,
				"y": 0.0267929742,
				"z": -2.8188134008,
				"element": "C" 
			},
			{
				"x": 1.0176816969,
				"y": 0.408282147,
				"z": -4.0724287022,
				"element": "C" 
			},
			{
				"x": 1.9143390756,
				"y": 1.0218497444,
				"z": -4.8362705554,
				"element": "N" 
			},
			{
				"x": 0.7992409076,
				"y": -0.6821750572,
				"z": -1.7621649963,
				"element": "C" 
			},
			{
				"x": -0.3162570634,
				"y": -1.1520867978,
				"z": -1.9823331478,
				"element": "O" 
			},
			{
				"x": 1.4155339514,
				"y": -0.7848077458,
				"z": -0.5395610282,
				"element": "N" 
			},
			{
				"x": 0.8075368192,
				"y": -1.4623049259,
				"z": 0.5960166177,
				"element": "C" 
			},
			{
				"x": 0.2886875084,
				"y": -0.5164661222,
				"z": 1.695560502,
				"element": "C" 
			},
			{
				"x": -0.8995188185,
				"y": 0.3630505706,
				"z": 1.2189106506,
				"element": "C" 
			},
			{
				"x": -2.2461526146,
				"y": -0.2606513139,
				"z": 1.5890637276,
				"element": "C" 
			},
			{
				"x": -2.3977102097,
				"y": -0.3108790051,
				"z": 3.0543882411,
				"element": "N" 
			},
			{
				"x": -1.1465481649,
				"y": -0.5793195885,
				"z": 3.7841370143,
				"element": "C" 
			},
			{
				"x": -0.1067060143,
				"y": -1.3380355684,
				"z": 2.9483209265,
				"element": "C" 
			},
			{
				"x": 4.0591680314,
				"y": 2.640028407,
				"z": -4.9745731399,
				"element": "H" 
			},
			{
				"x": 5.033395169,
				"y": 1.6224505737,
				"z": -3.8825915631,
				"element": "H" 
			},
			{
				"x": 4.5949905835,
				"y": 1.0293215958,
				"z": -5.5058625243,
				"element": "H" 
			},
			{
				"x": 3.6998111804,
				"y": 0.3731290881,
				"z": -2.1827447038,
				"element": "H" 
			},
			{
				"x": 0.0065348633,
				"y": 0.2502804291,
				"z": -4.4194072065,
				"element": "H" 
			},
			{
				"x": 2.2676978137,
				"y": -0.2682668214,
				"z": -0.3829951217,
				"element": "H" 
			},
			{
				"x": 1.5406251007,
				"y": -2.1566046199,
				"z": 1.0283016919,
				"element": "H" 
			},
			{
				"x": -0.014963774,
				"y": -2.0575424416,
				"z": 0.1908999307,
				"element": "H" 
			},
			{
				"x": 1.1162018676,
				"y": 0.1519286524,
				"z": 1.975079808,
				"element": "H" 
			},
			{
				"x": -0.8393629389,
				"y": 1.3543872848,
				"z": 1.6832886419,
				"element": "H" 
			},
			{
				"x": -0.8525469153,
				"y": 0.5125592069,
				"z": 0.136872662,
				"element": "H" 
			},
			{
				"x": -2.3149363394,
				"y": -1.2552174944,
				"z": 1.1142426478,
				"element": "H" 
			},
			{
				"x": -3.0641816914,
				"y": 0.3375285009,
				"z": 1.1694326567,
				"element": "H" 
			},
			{
				"x": -3.0877742456,
				"y": -1.0144897666,
				"z": 3.2948997338,
				"element": "H" 
			},
			{
				"x": -0.7048775877,
				"y": 0.3732512922,
				"z": 4.1137462641,
				"element": "H" 
			},
			{
				"x": -1.3878479304,
				"y": -1.1323582211,
				"z": 4.6982704152,
				"element": "H" 
			},
			{
				"x": -0.5337799558,
				"y": -2.3030290135,
				"z": 2.6410191928,
				"element": "H" 
			},
			{
				"x": 0.7805217895,
				"y": -1.5688168128,
				"z": 3.5506299115,
				"element": "H" 
			}
		],
		 "valence_orbital": [ 
			{
				"type": "occ",
				"energy": -0.26015,
				"method": "rhf"
			},
			{
				"type": "occ",
				"energy": -0.25085,
				"method": "rhf"
			},
			{
				"type": "occ",
				"energy": -0.24433,
				"method": "rhf"
			},
			{
				"type": "occ",
				"energy": -0.24181,
				"method": "rhf"
			},
			{
				"type": "occ",
				"energy": -0.2026,
				"method": "rhf"
			},
			{
				"type": "unocc",
				"energy": -0.00964,
				"method": "rhf"
			},
			{
				"type": "unocc",
				"energy": 0.02134,
				"method": "rhf"
			},
			{
				"type": "unocc",
				"energy": 0.06872,
				"method": "rhf"
			},
			{
				"type": "unocc",
				"energy": 0.08038,
				"method": "rhf"
			},
			{
				"type": "unocc",
				"energy": 0.08726,
				"method": "rhf"
			}
		],
		"cosmo_sigma_profile": { 
			"-0.025": 0.0,
			"-0.024": 0.0,
			"-0.023": 0.0,
			"-0.022": 0.0,
			"-0.021": 0.0,
			"-0.02": 0.0,
			"-0.019": 0.0,
			"-0.018": 0.0,
			"-0.017": 0.0,
			"-0.016": 0.0,
			"-0.015": 0.138988774487,
			"-0.014": 1.17550699733,
			"-0.013": 1.68858882967,
			"-0.012": 1.10517724782,
			"-0.011": 1.5325084577,
			"-0.01": 3.93224046976,
			"-0.009": 5.32705170815,
			"-0.008": 4.20821318538,
			"-0.007": 7.4146440093,
			"-0.006": 10.3359519402,
			"-0.005": 11.0974150227,
			"-0.004": 17.011792447,
			"-0.003": 25.485440303,
			"-0.002": 32.4188290816,
			"-0.001": 32.1483121761,
			"0.0": 24.1135521962,
			"0.001": 18.5741183444,
			"0.002": 12.6869223591,
			"0.003": 11.9340637455,
			"0.004": 9.04250215758,
			"0.005": 5.86064091091,
			"0.006": 5.0565266383,
			"0.007": 4.55646808933,
			"0.008": 3.81407551746,
			"0.009": 4.42249580373,
			"0.01": 3.06400810561,
			"0.011": 2.72730368998,
			"0.012": 3.38413100035,
			"0.013": 4.13249508809,
			"0.014": 6.33607278564,
			"0.015": 2.68253542121,
			"0.016": 0.586452782267,
			"0.017": 0.400707414911,
			"0.018": 0.54166008439,
			"0.019": 0.648246113771,
			"0.02": 0.0,
			"0.021": 0.0,
			"0.022": 0.0,
			"0.023": 0.0,
			"0.024": 0.0,
			"0.025": 0.0
		}
	}
}
