{
	 "smiles": "CC(=O)CC(=O)NC1=CC=CC=C1Cl", 
	 "Tm": 378.15, 
	 "num_atms": 24, 
	 "gaussian": { 
		 "optdone": 1, 
		 "sigma_profile": "yes", 
		 "theory": "DFT", 
		 "functional": "B3LYP", 
		 "basiset": "6-31G**", 
		 "properties": { 
			 "R2extent": 4031.7475, 
			 "electric_dipole_moment_norm": 2.24191019668, 
			 "electric_quadrupole_moment_norm": 17.5979834106, 
			 "total_energy": -1052.50527991, 
			 "HOMO_LUMO_gap": 0.18394, 
			 "cosmo_polarized_energy": -12.08, 
			 "cosmo_cavitation_energy": 30.0, 
			 "cosmo_dispersion_energy": -21.82, 
			 "cosmo_repulsion_energy": 1.72, 
			 "cosmo_total_nonelectrostatic_energy": 9.89, 
			 "SMD_solvation_energy": 5.92 
		},
		"coords": [
			{
				"x": 2.3747792878,
				"y": 2.7038005035,
				"z": 2.4171945161,
				"element": "C" 
			},
			{
				"x": 2.1024801692,
				"y": 1.714052784,
				"z": 1.3077136667,
				"element": "C" 
			},
			{
				"x": 2.0900631037,
				"y": 2.0533019513,
				"z": 0.1351521742,
				"element": "O" 
			},
			{
				"x": 1.8756608783,
				"y": 0.2648916126,
				"z": 1.7262904565,
				"element": "C" 
			},
			{
				"x": 0.8147308786,
				"y": -0.5622423501,
				"z": 0.977597083,
				"element": "C" 
			},
			{
				"x": 0.16489127,
				"y": -1.3946729959,
				"z": 1.5955105806,
				"element": "O" 
			},
			{
				"x": 0.7341754415,
				"y": -0.3195862577,
				"z": -0.3677700979,
				"element": "N" 
			},
			{
				"x": -0.0884837896,
				"y": -0.9607087386,
				"z": -1.3093844204,
				"element": "C" 
			},
			{
				"x": -0.9866462866,
				"y": -1.9907590278,
				"z": -0.975766517,
				"element": "C" 
			},
			{
				"x": -1.7709330182,
				"y": -2.5916370481,
				"z": -1.9574835575,
				"element": "C" 
			},
			{
				"x": -1.6868574992,
				"y": -2.1886257083,
				"z": -3.2898702781,
				"element": "C" 
			},
			{
				"x": -0.8020564973,
				"y": -1.1702588293,
				"z": -3.6403056051,
				"element": "C" 
			},
			{
				"x": -0.0158768053,
				"y": -0.5689916254,
				"z": -2.6620034627,
				"element": "C" 
			},
			{
				"x": 1.0938356263,
				"y": 0.7104450265,
				"z": -3.1521776799,
				"element": "Cl" 
			},
			{
				"x": 1.4806528778,
				"y": 2.8074174252,
				"z": 3.0438733853,
				"element": "H" 
			},
			{
				"x": 2.6412907861,
				"y": 3.6736543376,
				"z": 1.9956801358,
				"element": "H" 
			},
			{
				"x": 3.1778469044,
				"y": 2.341952249,
				"z": 3.0693815087,
				"element": "H" 
			},
			{
				"x": 2.839979649,
				"y": -0.2472193929,
				"z": 1.589852623,
				"element": "H" 
			},
			{
				"x": 1.6315077189,
				"y": 0.1886880497,
				"z": 2.7874032063,
				"element": "H" 
			},
			{
				"x": 1.2893740313,
				"y": 0.4696015132,
				"z": -0.6978503127,
				"element": "H" 
			},
			{
				"x": -1.0501145659,
				"y": -2.2995591689,
				"z": 0.0575500313,
				"element": "H" 
			},
			{
				"x": -2.4556387098,
				"y": -3.383938965,
				"z": -1.6701067262,
				"element": "H" 
			},
			{
				"x": -2.2997902669,
				"y": -2.6578639073,
				"z": -4.0528706884,
				"element": "H" 
			},
			{
				"x": -0.7123711839,
				"y": -0.8354414377,
				"z": -4.6678100215,
				"element": "H" 
			}
		],
		 "valence_orbital": [ 
			{
				"type": "occ",
				"energy": -0.31122,
				"method": "rhf"
			},
			{
				"type": "occ",
				"energy": -0.27805,
				"method": "rhf"
			},
			{
				"type": "occ",
				"energy": -0.25785,
				"method": "rhf"
			},
			{
				"type": "occ",
				"energy": -0.24723,
				"method": "rhf"
			},
			{
				"type": "occ",
				"energy": -0.22314,
				"method": "rhf"
			},
			{
				"type": "unocc",
				"energy": -0.0392,
				"method": "rhf"
			},
			{
				"type": "unocc",
				"energy": -0.01954,
				"method": "rhf"
			},
			{
				"type": "unocc",
				"energy": -0.00702,
				"method": "rhf"
			},
			{
				"type": "unocc",
				"energy": 0.02947,
				"method": "rhf"
			},
			{
				"type": "unocc",
				"energy": 0.03835,
				"method": "rhf"
			}
		],
		"cosmo_sigma_profile": { 
			"-0.025": 0.0,
			"-0.024": 0.0,
			"-0.023": 0.0,
			"-0.022": 0.0,
			"-0.021": 0.0,
			"-0.02": 0.0,
			"-0.019": 0.0,
			"-0.018": 0.0,
			"-0.017": 0.0,
			"-0.016": 0.0,
			"-0.015": 0.0,
			"-0.014": 0.0,
			"-0.013": 0.0,
			"-0.012": 0.0,
			"-0.011": 0.0,
			"-0.01": 0.0536858786232,
			"-0.009": 2.87565268708,
			"-0.008": 4.87012011078,
			"-0.007": 12.1475089246,
			"-0.006": 17.6498865423,
			"-0.005": 15.3556006487,
			"-0.004": 16.2523981864,
			"-0.003": 14.817790026,
			"-0.002": 16.6664976165,
			"-0.001": 15.8234063383,
			"0.0": 14.1647230821,
			"0.001": 16.5924715524,
			"0.002": 18.6534002473,
			"0.003": 20.1694787657,
			"0.004": 20.4293585676,
			"0.005": 8.88538336845,
			"0.006": 4.08442081939,
			"0.007": 3.12280815062,
			"0.008": 3.11307468515,
			"0.009": 2.70145107321,
			"0.01": 3.30462589686,
			"0.011": 3.9408544482,
			"0.012": 3.85656378549,
			"0.013": 2.13670673879,
			"0.014": 0.420639095402,
			"0.015": 0.0,
			"0.016": 0.0,
			"0.017": 0.0,
			"0.018": 0.0,
			"0.019": 0.0,
			"0.02": 0.0,
			"0.021": 0.0,
			"0.022": 0.0,
			"0.023": 0.0,
			"0.024": 0.0,
			"0.025": 0.0
		}
	}
}
