{
	 "smiles": "CC1(C)C=C(C(=O)ON2C(=O)CCC2=O)C(C)(C)N1O", 
	 "Tm": 449.15, 
	 "num_atms": 38, 
	 "gaussian": { 
		 "optdone": 1, 
		 "sigma_profile": "yes", 
		 "theory": "DFT", 
		 "functional": "B3LYP", 
		 "basiset": "6-31G**", 
		 "properties": { 
			 "R2extent": 7657.2842, 
			 "electric_dipole_moment_norm": 2.61895918449, 
			 "electric_quadrupole_moment_norm": 25.8070980286, 
			 "total_energy": -991.761140547, 
			 "HOMO_LUMO_gap": 0.15917, 
			 "cosmo_polarized_energy": -20.85, 
			 "cosmo_cavitation_energy": 40.6, 
			 "cosmo_dispersion_energy": -27.01, 
			 "cosmo_repulsion_energy": 2.09, 
			 "cosmo_total_nonelectrostatic_energy": 15.68, 
			 "SMD_solvation_energy": 9.46 
		},
		"coords": [
			{
				"x": -2.188040092,
				"y": -2.219870348,
				"z": 0.2784277546,
				"element": "C" 
			},
			{
				"x": -1.0760207497,
				"y": -1.5880359305,
				"z": -0.5935277673,
				"element": "C" 
			},
			{
				"x": -1.0255671609,
				"y": -2.294134439,
				"z": -1.959802699,
				"element": "C" 
			},
			{
				"x": -1.2780956231,
				"y": -0.1022729934,
				"z": -0.7068709364,
				"element": "C" 
			},
			{
				"x": -0.3700354496,
				"y": 0.5896011126,
				"z": -0.0027656517,
				"element": "C" 
			},
			{
				"x": -0.4446297401,
				"y": 2.0584261292,
				"z": 0.0630365794,
				"element": "C" 
			},
			{
				"x": -1.2414045006,
				"y": 2.7743498072,
				"z": -0.4861780957,
				"element": "O" 
			},
			{
				"x": 0.5610161938,
				"y": 2.5669363561,
				"z": 0.903404742,
				"element": "O" 
			},
			{
				"x": 0.4821901628,
				"y": 3.9307261763,
				"z": 1.0533956791,
				"element": "N" 
			},
			{
				"x": -0.3286563127,
				"y": 4.4991040343,
				"z": 2.04037748,
				"element": "C" 
			},
			{
				"x": -0.9789315935,
				"y": 3.8781274976,
				"z": 2.84639498,
				"element": "O" 
			},
			{
				"x": -0.1881601155,
				"y": 6.0070545831,
				"z": 1.8644417969,
				"element": "C" 
			},
			{
				"x": 0.722036998,
				"y": 6.2075331606,
				"z": 0.6334302217,
				"element": "C" 
			},
			{
				"x": 1.0811463848,
				"y": 4.8087764992,
				"z": 0.1417523598,
				"element": "C" 
			},
			{
				"x": 1.7416991779,
				"y": 4.4792688758,
				"z": -0.8120869971,
				"element": "O" 
			},
			{
				"x": 0.6087069326,
				"y": -0.3336082906,
				"z": 0.7173680124,
				"element": "C" 
			},
			{
				"x": 2.0938944234,
				"y": -0.0285639861,
				"z": 0.4611419589,
				"element": "C" 
			},
			{
				"x": 0.3282301609,
				"y": -0.3587492679,
				"z": 2.2375802253,
				"element": "C" 
			},
			{
				"x": 0.2854964828,
				"y": -1.6129206673,
				"z": 0.0091254831,
				"element": "N" 
			},
			{
				"x": 0.5700452794,
				"y": -2.7746645624,
				"z": 0.7557778609,
				"element": "O" 
			},
			{
				"x": -1.992805386,
				"y": -3.286754719,
				"z": 0.4232549774,
				"element": "H" 
			},
			{
				"x": -2.273522499,
				"y": -1.7366914799,
				"z": 1.2562549524,
				"element": "H" 
			},
			{
				"x": -3.1562682859,
				"y": -2.123474011,
				"z": -0.221494919,
				"element": "H" 
			},
			{
				"x": -2.0007112107,
				"y": -2.2705861678,
				"z": -2.4581984516,
				"element": "H" 
			},
			{
				"x": -0.7336990714,
				"y": -3.3386513185,
				"z": -1.8156032863,
				"element": "H" 
			},
			{
				"x": -0.2827338244,
				"y": -1.819307422,
				"z": -2.6048764967,
				"element": "H" 
			},
			{
				"x": -2.0832597906,
				"y": 0.34912278,
				"z": -1.2770550574,
				"element": "H" 
			},
			{
				"x": 0.2267455584,
				"y": 6.43164312,
				"z": 2.7828816626,
				"element": "H" 
			},
			{
				"x": -1.1872147241,
				"y": 6.4312683721,
				"z": 1.7342831512,
				"element": "H" 
			},
			{
				"x": 1.6449771276,
				"y": 6.7479449467,
				"z": 0.8612107938,
				"element": "H" 
			},
			{
				"x": 0.2280510231,
				"y": 6.7400623543,
				"z": -0.183482026,
				"element": "H" 
			},
			{
				"x": 2.4181177518,
				"y": 0.8762920803,
				"z": 0.9794234616,
				"element": "H" 
			},
			{
				"x": 2.6881400193,
				"y": -0.8749340081,
				"z": 0.8182763753,
				"element": "H" 
			},
			{
				"x": 2.2792253217,
				"y": 0.0876858763,
				"z": -0.6094214578,
				"element": "H" 
			},
			{
				"x": 0.495567509,
				"y": 0.6340162855,
				"z": 2.6616665529,
				"element": "H" 
			},
			{
				"x": 1.0025319313,
				"y": -1.0590657126,
				"z": 2.7399605909,
				"element": "H" 
			},
			{
				"x": -0.7065459086,
				"y": -0.6370381423,
				"z": 2.462466397,
				"element": "H" 
			},
			{
				"x": -0.0025164002,
				"y": -2.7652165811,
				"z": 1.5450297929,
				"element": "H" 
			}
		],
		 "valence_orbital": [ 
			{
				"type": "occ",
				"energy": -0.28858,
				"method": "rhf"
			},
			{
				"type": "occ",
				"energy": -0.28414,
				"method": "rhf"
			},
			{
				"type": "occ",
				"energy": -0.27604,
				"method": "rhf"
			},
			{
				"type": "occ",
				"energy": -0.26686,
				"method": "rhf"
			},
			{
				"type": "occ",
				"energy": -0.21958,
				"method": "rhf"
			},
			{
				"type": "unocc",
				"energy": -0.06041,
				"method": "rhf"
			},
			{
				"type": "unocc",
				"energy": -0.02704,
				"method": "rhf"
			},
			{
				"type": "unocc",
				"energy": 0.0174,
				"method": "rhf"
			},
			{
				"type": "unocc",
				"energy": 0.05429,
				"method": "rhf"
			},
			{
				"type": "unocc",
				"energy": 0.06539,
				"method": "rhf"
			}
		],
		"cosmo_sigma_profile": { 
			"-0.025": 0.0,
			"-0.024": 0.0,
			"-0.023": 0.0,
			"-0.022": 0.0,
			"-0.021": 0.0,
			"-0.02": 0.0,
			"-0.019": 0.0,
			"-0.018": 0.0,
			"-0.017": 0.0,
			"-0.016": 0.0,
			"-0.015": 0.0,
			"-0.014": 0.401499554604,
			"-0.013": 1.16599630758,
			"-0.012": 0.926768465201,
			"-0.011": 0.692945180641,
			"-0.01": 0.964070313486,
			"-0.009": 2.64553929523,
			"-0.008": 12.4108233348,
			"-0.007": 17.9639798837,
			"-0.006": 12.65859695,
			"-0.005": 16.833672087,
			"-0.004": 19.3460736699,
			"-0.003": 26.9519134856,
			"-0.002": 27.6297462503,
			"-0.001": 29.0575416945,
			"0.0": 32.2495023541,
			"0.001": 21.768769054,
			"0.002": 11.2671490519,
			"0.003": 6.84197582996,
			"0.004": 9.16260902417,
			"0.005": 7.19623077994,
			"0.006": 6.94730352625,
			"0.007": 6.71369776702,
			"0.008": 6.24972315471,
			"0.009": 8.74684861358,
			"0.01": 11.49323371,
			"0.011": 12.2477827196,
			"0.012": 5.21910014513,
			"0.013": 2.56089760359,
			"0.014": 0.27077750867,
			"0.015": 0.0,
			"0.016": 0.0,
			"0.017": 0.0,
			"0.018": 0.0,
			"0.019": 0.0,
			"0.02": 0.0,
			"0.021": 0.0,
			"0.022": 0.0,
			"0.023": 0.0,
			"0.024": 0.0,
			"0.025": 0.0
		}
	}
}
