{
	 "smiles": "CCCCCCN1CCCC1=O", 
	 "Tm": 277.15, 
	 "num_atms": 31, 
	 "gaussian": { 
		 "optdone": 1, 
		 "sigma_profile": "yes", 
		 "theory": "DFT", 
		 "functional": "B3LYP", 
		 "basiset": "6-31G**", 
		 "properties": { 
			 "R2extent": 3008.1463, 
			 "electric_dipole_moment_norm": 3.66841849439, 
			 "electric_quadrupole_moment_norm": 14.5635795384, 
			 "total_energy": -522.527357357, 
			 "HOMO_LUMO_gap": 0.26613, 
			 "cosmo_polarized_energy": -9.7, 
			 "cosmo_cavitation_energy": 31.68, 
			 "cosmo_dispersion_energy": -21.9, 
			 "cosmo_repulsion_energy": 1.79, 
			 "cosmo_total_nonelectrostatic_energy": 11.57, 
			 "SMD_solvation_energy": 4.83 
		},
		"coords": [
			{
				"x": 2.0720927959,
				"y": 2.5671526023,
				"z": -0.7835275491,
				"element": "C" 
			},
			{
				"x": 3.1014102525,
				"y": 1.4390350352,
				"z": -0.9233950636,
				"element": "C" 
			},
			{
				"x": 2.5193160698,
				"y": 0.0227285111,
				"z": -0.7777918735,
				"element": "C" 
			},
			{
				"x": 1.9761826169,
				"y": -0.2994429555,
				"z": 0.6228132563,
				"element": "C" 
			},
			{
				"x": 1.5302920459,
				"y": -1.7571796804,
				"z": 0.8169926102,
				"element": "C" 
			},
			{
				"x": 0.324737332,
				"y": -2.2149761872,
				"z": -0.0227385879,
				"element": "C" 
			},
			{
				"x": -0.9142099671,
				"y": -1.497631252,
				"z": 0.2553582494,
				"element": "N" 
			},
			{
				"x": -1.4377058982,
				"y": -0.402272345,
				"z": -0.5540582724,
				"element": "C" 
			},
			{
				"x": -2.8993103602,
				"y": -0.2678492513,
				"z": -0.0689851901,
				"element": "C" 
			},
			{
				"x": -2.8655538095,
				"y": -0.8242336909,
				"z": 1.3634045139,
				"element": "C" 
			},
			{
				"x": -1.673574192,
				"y": -1.7842377717,
				"z": 1.3614330347,
				"element": "C" 
			},
			{
				"x": -1.4139291515,
				"y": -2.6452591329,
				"z": 2.1903709928,
				"element": "O" 
			},
			{
				"x": 1.2659117226,
				"y": 2.4587927901,
				"z": -1.5192115135,
				"element": "H" 
			},
			{
				"x": 1.6142360174,
				"y": 2.58244194,
				"z": 0.2108953002,
				"element": "H" 
			},
			{
				"x": 2.5356863954,
				"y": 3.5459946798,
				"z": -0.9445004545,
				"element": "H" 
			},
			{
				"x": 3.8980301753,
				"y": 1.5781066977,
				"z": -0.1797128946,
				"element": "H" 
			},
			{
				"x": 3.5860892484,
				"y": 1.5203625243,
				"z": -1.9047076492,
				"element": "H" 
			},
			{
				"x": 1.7301023082,
				"y": -0.1136865022,
				"z": -1.5306426733,
				"element": "H" 
			},
			{
				"x": 3.301999277,
				"y": -0.707523444,
				"z": -1.0260632083,
				"element": "H" 
			},
			{
				"x": 2.7604315879,
				"y": -0.0797679989,
				"z": 1.3601154703,
				"element": "H" 
			},
			{
				"x": 1.1416332124,
				"y": 0.3684177451,
				"z": 0.8702009272,
				"element": "H" 
			},
			{
				"x": 1.2778152367,
				"y": -1.9269247534,
				"z": 1.8690223075,
				"element": "H" 
			},
			{
				"x": 2.3685489972,
				"y": -2.4289841293,
				"z": 0.5848108067,
				"element": "H" 
			},
			{
				"x": 0.138595237,
				"y": -3.2722383894,
				"z": 0.1930663795,
				"element": "H" 
			},
			{
				"x": 0.5296240228,
				"y": -2.1252582232,
				"z": -1.0948797101,
				"element": "H" 
			},
			{
				"x": -0.8711696228,
				"y": 0.5260739095,
				"z": -0.3902993215,
				"element": "H" 
			},
			{
				"x": -1.370815165,
				"y": -0.6425823016,
				"z": -1.6216718719,
				"element": "H" 
			},
			{
				"x": -3.5496032676,
				"y": -0.8882637787,
				"z": -0.6939507964,
				"element": "H" 
			},
			{
				"x": -3.2599935143,
				"y": 0.7616416538,
				"z": -0.1329467512,
				"element": "H" 
			},
			{
				"x": -2.6718495884,
				"y": -0.0414848587,
				"z": 2.1073926561,
				"element": "H" 
			},
			{
				"x": -3.7750200149,
				"y": -1.3458514427,
				"z": 1.6687068763,
				"element": "H" 
			}
		],
		 "valence_orbital": [ 
			{
				"type": "occ",
				"energy": -0.32073,
				"method": "rhf"
			},
			{
				"type": "occ",
				"energy": -0.31866,
				"method": "rhf"
			},
			{
				"type": "occ",
				"energy": -0.30948,
				"method": "rhf"
			},
			{
				"type": "occ",
				"energy": -0.2376,
				"method": "rhf"
			},
			{
				"type": "occ",
				"energy": -0.22965,
				"method": "rhf"
			},
			{
				"type": "unocc",
				"energy": 0.03648,
				"method": "rhf"
			},
			{
				"type": "unocc",
				"energy": 0.0657,
				"method": "rhf"
			},
			{
				"type": "unocc",
				"energy": 0.09212,
				"method": "rhf"
			},
			{
				"type": "unocc",
				"energy": 0.09764,
				"method": "rhf"
			},
			{
				"type": "unocc",
				"energy": 0.11157,
				"method": "rhf"
			}
		],
		"cosmo_sigma_profile": { 
			"-0.025": 0.0,
			"-0.024": 0.0,
			"-0.023": 0.0,
			"-0.022": 0.0,
			"-0.021": 0.0,
			"-0.02": 0.0,
			"-0.019": 0.0,
			"-0.018": 0.0,
			"-0.017": 0.0,
			"-0.016": 0.0,
			"-0.015": 0.0,
			"-0.014": 0.0,
			"-0.013": 0.0,
			"-0.012": 0.0,
			"-0.011": 0.0,
			"-0.01": 0.0,
			"-0.009": 0.0,
			"-0.008": 0.0,
			"-0.007": 0.0,
			"-0.006": 0.17084354874,
			"-0.005": 7.20749755493,
			"-0.004": 15.8659749243,
			"-0.003": 30.4917113648,
			"-0.002": 42.4851498523,
			"-0.001": 44.8690363488,
			"0.0": 36.7568727947,
			"0.001": 28.6714023334,
			"0.002": 11.1296032799,
			"0.003": 2.28136223387,
			"0.004": 1.38837959463,
			"0.005": 1.1998528488,
			"0.006": 2.09435187701,
			"0.007": 1.51144821479,
			"0.008": 1.26890651763,
			"0.009": 2.27208556735,
			"0.01": 1.32990734673,
			"0.011": 0.827562884299,
			"0.012": 1.87233476311,
			"0.013": 1.81661299722,
			"0.014": 4.85086827525,
			"0.015": 3.67981980706,
			"0.016": 0.531855378389,
			"0.017": 0.0,
			"0.018": 0.0,
			"0.019": 0.0,
			"0.02": 0.0,
			"0.021": 0.0,
			"0.022": 0.0,
			"0.023": 0.0,
			"0.024": 0.0,
			"0.025": 0.0
		}
	}
}
