{
	 "smiles": "CC1=C(C)CCCC1", 
	 "Tm": 189.15, 
	 "num_atms": 22, 
	 "gaussian": { 
		 "optdone": 1, 
		 "sigma_profile": "yes", 
		 "theory": "DFT", 
		 "functional": "B3LYP", 
		 "basiset": "6-31G**", 
		 "properties": { 
			 "R2extent": 1216.9602, 
			 "electric_dipole_moment_norm": 0.0153329710102, 
			 "electric_quadrupole_moment_norm": 0.967392118016, 
			 "total_energy": -313.296696006, 
			 "HOMO_LUMO_gap": 0.25315, 
			 "cosmo_polarized_energy": -1.23, 
			 "cosmo_cavitation_energy": 22.29, 
			 "cosmo_dispersion_energy": -16.83, 
			 "cosmo_repulsion_energy": 1.41, 
			 "cosmo_total_nonelectrostatic_energy": 6.87, 
			 "SMD_solvation_energy": 3.34 
		},
		"coords": [
			{
				"x": 2.565698471,
				"y": 0.5503739457,
				"z": -1.4010542366,
				"element": "C" 
			},
			{
				"x": 1.3115825219,
				"y": -0.0840504304,
				"z": -0.8483289665,
				"element": "C" 
			},
			{
				"x": 0.8954874141,
				"y": 0.0131859977,
				"z": 0.4295127024,
				"element": "C" 
			},
			{
				"x": 1.6426341953,
				"y": 0.7263974004,
				"z": 1.5312768601,
				"element": "C" 
			},
			{
				"x": -0.4042962421,
				"y": -0.6168226762,
				"z": 0.9033765888,
				"element": "C" 
			},
			{
				"x": -1.3409873741,
				"y": -1.0497665589,
				"z": -0.2291510621,
				"element": "C" 
			},
			{
				"x": -0.5490739828,
				"y": -1.7828203609,
				"z": -1.3134969446,
				"element": "C" 
			},
			{
				"x": 0.5261036681,
				"y": -0.8586554198,
				"z": -1.894152741,
				"element": "C" 
			},
			{
				"x": 3.2840241042,
				"y": -0.2164911393,
				"z": -1.7218366205,
				"element": "H" 
			},
			{
				"x": 2.3286128353,
				"y": 1.1411450406,
				"z": -2.2961512252,
				"element": "H" 
			},
			{
				"x": 3.0742795572,
				"y": 1.2116037526,
				"z": -0.6983013314,
				"element": "H" 
			},
			{
				"x": 1.0728124572,
				"y": 1.5929119516,
				"z": 1.8938031302,
				"element": "H" 
			},
			{
				"x": 2.6337240317,
				"y": 1.0763435898,
				"z": 1.2396920654,
				"element": "H" 
			},
			{
				"x": 1.7698408095,
				"y": 0.0604825526,
				"z": 2.3954587146,
				"element": "H" 
			},
			{
				"x": -0.9204894348,
				"y": 0.0914337592,
				"z": 1.566898638,
				"element": "H" 
			},
			{
				"x": -0.165455116,
				"y": -1.4836307347,
				"z": 1.5405887022,
				"element": "H" 
			},
			{
				"x": -2.1466723718,
				"y": -1.679621729,
				"z": 0.1658196869,
				"element": "H" 
			},
			{
				"x": -1.8187646947,
				"y": -0.163666604,
				"z": -0.6685641219,
				"element": "H" 
			},
			{
				"x": -1.2101527566,
				"y": -2.1423260052,
				"z": -2.1107313885,
				"element": "H" 
			},
			{
				"x": -0.072032499,
				"y": -2.6694199672,
				"z": -0.8743063912,
				"element": "H" 
			},
			{
				"x": 1.2292496057,
				"y": -1.4401772036,
				"z": -2.5071404715,
				"element": "H" 
			},
			{
				"x": 0.0634748006,
				"y": -0.1419291611,
				"z": -2.5918115874,
				"element": "H" 
			}
		],
		 "valence_orbital": [ 
			{
				"type": "occ",
				"energy": -0.35233,
				"method": "rhf"
			},
			{
				"type": "occ",
				"energy": -0.31866,
				"method": "rhf"
			},
			{
				"type": "occ",
				"energy": -0.30703,
				"method": "rhf"
			},
			{
				"type": "occ",
				"energy": -0.2905,
				"method": "rhf"
			},
			{
				"type": "occ",
				"energy": -0.21563,
				"method": "rhf"
			},
			{
				"type": "unocc",
				"energy": 0.03752,
				"method": "rhf"
			},
			{
				"type": "unocc",
				"energy": 0.09286,
				"method": "rhf"
			},
			{
				"type": "unocc",
				"energy": 0.11103,
				"method": "rhf"
			},
			{
				"type": "unocc",
				"energy": 0.1163,
				"method": "rhf"
			},
			{
				"type": "unocc",
				"energy": 0.13415,
				"method": "rhf"
			}
		],
		"cosmo_sigma_profile": { 
			"-0.025": 0.0,
			"-0.024": 0.0,
			"-0.023": 0.0,
			"-0.022": 0.0,
			"-0.021": 0.0,
			"-0.02": 0.0,
			"-0.019": 0.0,
			"-0.018": 0.0,
			"-0.017": 0.0,
			"-0.016": 0.0,
			"-0.015": 0.0,
			"-0.014": 0.0,
			"-0.013": 0.0,
			"-0.012": 0.0,
			"-0.011": 0.0,
			"-0.01": 0.0,
			"-0.009": 0.0,
			"-0.008": 0.0,
			"-0.007": 0.0,
			"-0.006": 0.0,
			"-0.005": 0.36330048147,
			"-0.004": 2.04403766049,
			"-0.003": 9.29909773947,
			"-0.002": 28.3585835047,
			"-0.001": 33.2299507351,
			"0.0": 36.4720196371,
			"0.001": 35.6617438922,
			"0.002": 11.843923226,
			"0.003": 4.24475793507,
			"0.004": 3.8349377723,
			"0.005": 2.56641970691,
			"0.006": 2.23537478021,
			"0.007": 1.74711246852,
			"0.008": 0.133059532525,
			"0.009": 0.0,
			"0.01": 0.0,
			"0.011": 0.0,
			"0.012": 0.0,
			"0.013": 0.0,
			"0.014": 0.0,
			"0.015": 0.0,
			"0.016": 0.0,
			"0.017": 0.0,
			"0.018": 0.0,
			"0.019": 0.0,
			"0.02": 0.0,
			"0.021": 0.0,
			"0.022": 0.0,
			"0.023": 0.0,
			"0.024": 0.0,
			"0.025": 0.0
		}
	}
}
