{
	 "smiles": "CC1=NC=C(N1CCO)[N+]([O-])=O", 
	 "Tm": 433.15, 
	 "num_atms": 21, 
	 "gaussian": { 
		 "optdone": 1, 
		 "sigma_profile": "yes", 
		 "theory": "DFT", 
		 "functional": "B3LYP", 
		 "basiset": "6-31G**", 
		 "properties": { 
			 "R2extent": 2149.4773, 
			 "electric_dipole_moment_norm": 4.12690031501, 
			 "electric_quadrupole_moment_norm": 10.2708858756, 
			 "total_energy": -623.872965844, 
			 "HOMO_LUMO_gap": 0.16959, 
			 "cosmo_polarized_energy": -15.35, 
			 "cosmo_cavitation_energy": 25.39, 
			 "cosmo_dispersion_energy": -18.26, 
			 "cosmo_repulsion_energy": 1.46, 
			 "cosmo_total_nonelectrostatic_energy": 8.6, 
			 "SMD_solvation_energy": 4.92 
		},
		"coords": [
			{
				"x": 0.3493662449,
				"y": 2.0604233183,
				"z": 1.7587368686,
				"element": "C" 
			},
			{
				"x": -0.4587566934,
				"y": 1.1643978403,
				"z": 0.8783533938,
				"element": "C" 
			},
			{
				"x": -1.7520695106,
				"y": 1.3521358072,
				"z": 0.6184901231,
				"element": "N" 
			},
			{
				"x": -2.1204840901,
				"y": 0.3317573528,
				"z": -0.1952174664,
				"element": "C" 
			},
			{
				"x": -1.0372828075,
				"y": -0.4884643473,
				"z": -0.4391544534,
				"element": "C" 
			},
			{
				"x": 0.0390564035,
				"y": 0.0503121024,
				"z": 0.2601177244,
				"element": "N" 
			},
			{
				"x": 1.4249627728,
				"y": -0.4223048622,
				"z": 0.338289672,
				"element": "C" 
			},
			{
				"x": 2.2594529437,
				"y": 0.0140013225,
				"z": -0.8672519985,
				"element": "C" 
			},
			{
				"x": 3.5961781793,
				"y": -0.3497150083,
				"z": -0.5647563865,
				"element": "O" 
			},
			{
				"x": -1.0000593589,
				"y": -1.6571493478,
				"z": -1.2433106079,
				"element": "N" 
			},
			{
				"x": 0.0828516153,
				"y": -2.244907327,
				"z": -1.3938226441,
				"element": "O" 
			},
			{
				"x": -2.0656708978,
				"y": -2.0138229492,
				"z": -1.7517459901,
				"element": "O" 
			},
			{
				"x": 0.7067635246,
				"y": 1.5396438163,
				"z": 2.65449907,
				"element": "H" 
			},
			{
				"x": -0.2917455875,
				"y": 2.8845710025,
				"z": 2.0728063188,
				"element": "H" 
			},
			{
				"x": 1.2227213675,
				"y": 2.4719096757,
				"z": 1.2418508846,
				"element": "H" 
			},
			{
				"x": -3.1228321145,
				"y": 0.2134397126,
				"z": -0.5791535272,
				"element": "H" 
			},
			{
				"x": 1.8650956838,
				"y": -0.0068789274,
				"z": 1.2467424491,
				"element": "H" 
			},
			{
				"x": 1.4281136538,
				"y": -1.5080728564,
				"z": 0.4120699289,
				"element": "H" 
			},
			{
				"x": 1.8811060208,
				"y": -0.4925803166,
				"z": -1.7633389635,
				"element": "H" 
			},
			{
				"x": 2.1550724462,
				"y": 1.1014798102,
				"z": -1.015451115,
				"element": "H" 
			},
			{
				"x": 4.101860204,
				"y": -0.3673758188,
				"z": -1.3855532805,
				"element": "H" 
			}
		],
		 "valence_orbital": [ 
			{
				"type": "occ",
				"energy": -0.29949,
				"method": "rhf"
			},
			{
				"type": "occ",
				"energy": -0.29499,
				"method": "rhf"
			},
			{
				"type": "occ",
				"energy": -0.28605,
				"method": "rhf"
			},
			{
				"type": "occ",
				"energy": -0.2838,
				"method": "rhf"
			},
			{
				"type": "occ",
				"energy": -0.25555,
				"method": "rhf"
			},
			{
				"type": "unocc",
				"energy": -0.08596,
				"method": "rhf"
			},
			{
				"type": "unocc",
				"energy": 0.01438,
				"method": "rhf"
			},
			{
				"type": "unocc",
				"energy": 0.05744,
				"method": "rhf"
			},
			{
				"type": "unocc",
				"energy": 0.06045,
				"method": "rhf"
			},
			{
				"type": "unocc",
				"energy": 0.07343,
				"method": "rhf"
			}
		],
		"cosmo_sigma_profile": { 
			"-0.025": 0.0,
			"-0.024": 0.0,
			"-0.023": 0.0,
			"-0.022": 0.0,
			"-0.021": 0.0,
			"-0.02": 0.0,
			"-0.019": 0.0,
			"-0.018": 0.0,
			"-0.017": 0.188086194907,
			"-0.016": 0.904957559275,
			"-0.015": 1.35831628433,
			"-0.014": 1.05702254853,
			"-0.013": 0.678099155027,
			"-0.012": 0.896565078098,
			"-0.011": 0.801967160655,
			"-0.01": 0.610531411428,
			"-0.009": 1.18755081822,
			"-0.008": 3.81252566078,
			"-0.007": 7.81529655237,
			"-0.006": 15.9595861338,
			"-0.005": 15.7455798971,
			"-0.004": 18.1343679012,
			"-0.003": 17.5094206105,
			"-0.002": 16.4852256218,
			"-0.001": 10.9907942401,
			"0.0": 7.59426581606,
			"0.001": 7.28143785058,
			"0.002": 7.75723107607,
			"0.003": 6.97409905368,
			"0.004": 4.68596051718,
			"0.005": 3.90751971124,
			"0.006": 6.05431512933,
			"0.007": 7.1752113823,
			"0.008": 10.7058744245,
			"0.009": 6.59908053678,
			"0.01": 6.28798685702,
			"0.011": 3.8465071785,
			"0.012": 2.23098374423,
			"0.013": 2.74368725108,
			"0.014": 1.27561533347,
			"0.015": 0.937763423712,
			"0.016": 0.701190947913,
			"0.017": 0.0340534612344,
			"0.018": 0.0,
			"0.019": 0.0,
			"0.02": 0.0,
			"0.021": 0.0,
			"0.022": 0.0,
			"0.023": 0.0,
			"0.024": 0.0,
			"0.025": 0.0
		}
	}
}
