{
	 "smiles": "NC1=C(C=CC=C1)C(O)C(F)(F)F", 
	 "Tm": 393.15, 
	 "num_atms": 21, 
	 "gaussian": { 
		 "optdone": 1, 
		 "sigma_profile": "yes", 
		 "theory": "DFT", 
		 "functional": "B3LYP", 
		 "basiset": "6-31G**", 
		 "properties": { 
			 "R2extent": 2316.5745, 
			 "electric_dipole_moment_norm": 3.37248338617, 
			 "electric_quadrupole_moment_norm": 12.3372522739, 
			 "total_energy": -739.174537283, 
			 "HOMO_LUMO_gap": 0.21512, 
			 "cosmo_polarized_energy": -9.91, 
			 "cosmo_cavitation_energy": 25.12, 
			 "cosmo_dispersion_energy": -18.35, 
			 "cosmo_repulsion_energy": 1.39, 
			 "cosmo_total_nonelectrostatic_energy": 8.17, 
			 "SMD_solvation_energy": 5.27 
		},
		"coords": [
			{
				"x": -2.1182452564,
				"y": -0.2605614131,
				"z": -0.0828911649,
				"element": "N" 
			},
			{
				"x": -0.8610718443,
				"y": -0.9092583813,
				"z": -0.2356041567,
				"element": "C" 
			},
			{
				"x": 0.2525402197,
				"y": -0.1700427883,
				"z": -0.689882884,
				"element": "C" 
			},
			{
				"x": 1.476204161,
				"y": -0.8268964437,
				"z": -0.8483069871,
				"element": "C" 
			},
			{
				"x": 1.610588671,
				"y": -2.192422544,
				"z": -0.5995305637,
				"element": "C" 
			},
			{
				"x": 0.4954617136,
				"y": -2.9241416704,
				"z": -0.1925162168,
				"element": "C" 
			},
			{
				"x": -0.7287317977,
				"y": -2.2841779109,
				"z": -0.0077685062,
				"element": "C" 
			},
			{
				"x": 0.1338434641,
				"y": 1.3004540562,
				"z": -1.0699777966,
				"element": "C" 
			},
			{
				"x": -1.024643909,
				"y": 1.6208937615,
				"z": -1.8008944958,
				"element": "O" 
			},
			{
				"x": 0.2671931456,
				"y": 2.2291303122,
				"z": 0.1485854885,
				"element": "C" 
			},
			{
				"x": 1.4332929976,
				"y": 2.0131785504,
				"z": 0.7928610274,
				"element": "F" 
			},
			{
				"x": 0.2282651859,
				"y": 3.5208677772,
				"z": -0.212049801,
				"element": "F" 
			},
			{
				"x": -0.7316636935,
				"y": 2.0410475208,
				"z": 1.0592203421,
				"element": "F" 
			},
			{
				"x": -2.0831776547,
				"y": 0.4882995685,
				"z": 0.6024146916,
				"element": "H" 
			},
			{
				"x": -2.859916417,
				"y": -0.9083012869,
				"z": 0.1577125678,
				"element": "H" 
			},
			{
				"x": 2.3353669914,
				"y": -0.2566132078,
				"z": -1.1914750454,
				"element": "H" 
			},
			{
				"x": 2.57049834,
				"y": -2.6799190765,
				"z": -0.7370862693,
				"element": "H" 
			},
			{
				"x": 0.576285486,
				"y": -3.9914714966,
				"z": -0.0085735523,
				"element": "H" 
			},
			{
				"x": -1.5945248099,
				"y": -2.8503260719,
				"z": 0.3280750908,
				"element": "H" 
			},
			{
				"x": 0.9926517321,
				"y": 1.5623088931,
				"z": -1.6993725903,
				"element": "H" 
			},
			{
				"x": -1.7457167254,
				"y": 1.0560518513,
				"z": -1.4608391782,
				"element": "H" 
			}
		],
		 "valence_orbital": [ 
			{
				"type": "occ",
				"energy": -0.3421,
				"method": "rhf"
			},
			{
				"type": "occ",
				"energy": -0.30665,
				"method": "rhf"
			},
			{
				"type": "occ",
				"energy": -0.2764,
				"method": "rhf"
			},
			{
				"type": "occ",
				"energy": -0.25759,
				"method": "rhf"
			},
			{
				"type": "occ",
				"energy": -0.23103,
				"method": "rhf"
			},
			{
				"type": "unocc",
				"energy": -0.01591,
				"method": "rhf"
			},
			{
				"type": "unocc",
				"energy": -0.00408,
				"method": "rhf"
			},
			{
				"type": "unocc",
				"energy": 0.07396,
				"method": "rhf"
			},
			{
				"type": "unocc",
				"energy": 0.0863,
				"method": "rhf"
			},
			{
				"type": "unocc",
				"energy": 0.10099,
				"method": "rhf"
			}
		],
		"cosmo_sigma_profile": { 
			"-0.025": 0.0,
			"-0.024": 0.0,
			"-0.023": 0.0,
			"-0.022": 0.0,
			"-0.021": 0.0,
			"-0.02": 0.0,
			"-0.019": 0.0,
			"-0.018": 0.0,
			"-0.017": 0.0,
			"-0.016": 0.0,
			"-0.015": 0.0,
			"-0.014": 0.0,
			"-0.013": 0.784559112516,
			"-0.012": 1.57854943558,
			"-0.011": 1.83391704405,
			"-0.01": 2.64295199267,
			"-0.009": 3.20831442299,
			"-0.008": 5.11390922104,
			"-0.007": 5.75444047251,
			"-0.006": 9.77397779534,
			"-0.005": 11.7427494399,
			"-0.004": 11.8898889896,
			"-0.003": 10.0777334618,
			"-0.002": 8.41725478517,
			"-0.001": 9.05392886176,
			"0.0": 10.7054962926,
			"0.001": 12.8063019297,
			"0.002": 22.1749483458,
			"0.003": 32.1527488168,
			"0.004": 12.318598059,
			"0.005": 11.8806500597,
			"0.006": 5.32833734603,
			"0.007": 1.17656749461,
			"0.008": 1.29735482028,
			"0.009": 1.2770770516,
			"0.01": 1.36552654131,
			"0.011": 1.65199140138,
			"0.012": 1.21969912098,
			"0.013": 2.03843052669,
			"0.014": 0.533280376439,
			"0.015": 0.0,
			"0.016": 0.0,
			"0.017": 0.0,
			"0.018": 0.0,
			"0.019": 0.0,
			"0.02": 0.0,
			"0.021": 0.0,
			"0.022": 0.0,
			"0.023": 0.0,
			"0.024": 0.0,
			"0.025": 0.0
		}
	}
}
