{
	 "smiles": "CCOC(=O)C1=C2N(OC3=CC=CN=C23)C(Cl)C(Cl)C1Cl", 
	 "Tm": 378.15, 
	 "num_atms": 32, 
	 "gaussian": { 
		 "optdone": 1, 
		 "sigma_profile": "yes", 
		 "theory": "DFT", 
		 "functional": "B3LYP", 
		 "basiset": "6-31G**", 
		 "properties": { 
			 "R2extent": 7487.7345, 
			 "electric_dipole_moment_norm": 6.66911040319, 
			 "electric_quadrupole_moment_norm": 11.3388840218, 
			 "total_energy": -2217.6984794, 
			 "HOMO_LUMO_gap": 0.14367, 
			 "cosmo_polarized_energy": -17.04, 
			 "cosmo_cavitation_energy": 41.05, 
			 "cosmo_dispersion_energy": -28.2, 
			 "cosmo_repulsion_energy": 2.16, 
			 "cosmo_total_nonelectrostatic_energy": 15.01, 
			 "SMD_solvation_energy": 5.6 
		},
		"coords": [
			{
				"x": -2.9497053185,
				"y": 1.3284597033,
				"z": -3.7756727339,
				"element": "C" 
			},
			{
				"x": -2.8944405785,
				"y": 0.0072526614,
				"z": -3.0338570758,
				"element": "C" 
			},
			{
				"x": -1.7266044771,
				"y": 0.0433324771,
				"z": -2.1804955744,
				"element": "O" 
			},
			{
				"x": -1.4963770243,
				"y": -1.057331235,
				"z": -1.4544838653,
				"element": "C" 
			},
			{
				"x": -2.1222743492,
				"y": -2.0955488878,
				"z": -1.5516056479,
				"element": "O" 
			},
			{
				"x": -0.3419638767,
				"y": -0.9033194483,
				"z": -0.5261070804,
				"element": "C" 
			},
			{
				"x": -0.1565138618,
				"y": 0.1668443236,
				"z": 0.2872728035,
				"element": "C" 
			},
			{
				"x": 0.9364942603,
				"y": 0.1715245525,
				"z": 1.1964201042,
				"element": "N" 
			},
			{
				"x": 0.7690267346,
				"y": 1.2143167157,
				"z": 2.1745834496,
				"element": "O" 
			},
			{
				"x": -0.3020004791,
				"y": 1.9305089602,
				"z": 1.7457566475,
				"element": "C" 
			},
			{
				"x": -0.7899878394,
				"y": 3.08722202,
				"z": 2.3397679079,
				"element": "C" 
			},
			{
				"x": -1.9244497096,
				"y": 3.6289597026,
				"z": 1.7379928492,
				"element": "C" 
			},
			{
				"x": -2.4923544966,
				"y": 3.0051295642,
				"z": 0.6151528434,
				"element": "C" 
			},
			{
				"x": -2.0059555469,
				"y": 1.8972689755,
				"z": 0.0467713699,
				"element": "N" 
			},
			{
				"x": -0.9111094782,
				"y": 1.382743705,
				"z": 0.6090804725,
				"element": "C" 
			},
			{
				"x": 1.310650674,
				"y": -1.0662415723,
				"z": 1.7931220707,
				"element": "C" 
			},
			{
				"x": -0.0105331202,
				"y": -1.7876449774,
				"z": 2.8594692689,
				"element": "Cl" 
			},
			{
				"x": 1.6746289761,
				"y": -1.9735700368,
				"z": 0.6081336247,
				"element": "C" 
			},
			{
				"x": 2.2965187646,
				"y": -3.5639937682,
				"z": 1.1745598775,
				"element": "Cl" 
			},
			{
				"x": 0.5229576153,
				"y": -2.1292189342,
				"z": -0.398428618,
				"element": "C" 
			},
			{
				"x": 1.2729197032,
				"y": -2.5597410305,
				"z": -2.0315586167,
				"element": "Cl" 
			},
			{
				"x": -2.060028721,
				"y": 1.4650239211,
				"z": -4.3971771389,
				"element": "H" 
			},
			{
				"x": -3.0094761614,
				"y": 2.1613732649,
				"z": -3.0702526477,
				"element": "H" 
			},
			{
				"x": -3.830651688,
				"y": 1.3539007222,
				"z": -4.424778445,
				"element": "H" 
			},
			{
				"x": -3.778352569,
				"y": -0.1502796319,
				"z": -2.4079282592,
				"element": "H" 
			},
			{
				"x": -2.8083284087,
				"y": -0.8478967172,
				"z": -3.7109589885,
				"element": "H" 
			},
			{
				"x": -0.3222102987,
				"y": 3.5237582277,
				"z": 3.2147574668,
				"element": "H" 
			},
			{
				"x": -2.3772872574,
				"y": 4.5305100258,
				"z": 2.1374411758,
				"element": "H" 
			},
			{
				"x": -3.3845575594,
				"y": 3.4248474736,
				"z": 0.1572439448,
				"element": "H" 
			},
			{
				"x": 2.1619267563,
				"y": -0.9178350761,
				"z": 2.4550018044,
				"element": "H" 
			},
			{
				"x": 2.5151082885,
				"y": -1.4863189091,
				"z": 0.1107514727,
				"element": "H" 
			},
			{
				"x": -0.1034689533,
				"y": -2.9910367715,
				"z": -0.1666744623,
				"element": "H" 
			}
		],
		 "valence_orbital": [ 
			{
				"type": "occ",
				"energy": -0.29604,
				"method": "rhf"
			},
			{
				"type": "occ",
				"energy": -0.29573,
				"method": "rhf"
			},
			{
				"type": "occ",
				"energy": -0.2793,
				"method": "rhf"
			},
			{
				"type": "occ",
				"energy": -0.27483,
				"method": "rhf"
			},
			{
				"type": "occ",
				"energy": -0.22819,
				"method": "rhf"
			},
			{
				"type": "unocc",
				"energy": -0.08452,
				"method": "rhf"
			},
			{
				"type": "unocc",
				"energy": -0.03402,
				"method": "rhf"
			},
			{
				"type": "unocc",
				"energy": -0.01632,
				"method": "rhf"
			},
			{
				"type": "unocc",
				"energy": -0.008,
				"method": "rhf"
			},
			{
				"type": "unocc",
				"energy": -0.00186,
				"method": "rhf"
			}
		],
		"cosmo_sigma_profile": { 
			"-0.025": 0.0,
			"-0.024": 0.0,
			"-0.023": 0.0,
			"-0.022": 0.0,
			"-0.021": 0.0,
			"-0.02": 0.0,
			"-0.019": 0.0,
			"-0.018": 0.0,
			"-0.017": 0.0,
			"-0.016": 0.0,
			"-0.015": 0.0,
			"-0.014": 0.0,
			"-0.013": 0.0,
			"-0.012": 0.970573669958,
			"-0.011": 3.60044330213,
			"-0.01": 3.52475884154,
			"-0.009": 5.62218017918,
			"-0.008": 8.11806831912,
			"-0.007": 10.912683097,
			"-0.006": 9.75247223143,
			"-0.005": 13.910646682,
			"-0.004": 19.3544293362,
			"-0.003": 21.1540141953,
			"-0.002": 26.0934266668,
			"-0.001": 28.9228727183,
			"0.0": 31.2022223434,
			"0.001": 23.1951506179,
			"0.002": 19.992974417,
			"0.003": 23.6110478433,
			"0.004": 26.1390742715,
			"0.005": 24.4245894199,
			"0.006": 11.8321371488,
			"0.007": 4.00466726468,
			"0.008": 4.90495619562,
			"0.009": 3.05851049813,
			"0.01": 2.65786599713,
			"0.011": 3.28220478821,
			"0.012": 3.48591122605,
			"0.013": 0.0369303904094,
			"0.014": 0.0,
			"0.015": 0.0,
			"0.016": 0.0,
			"0.017": 0.0,
			"0.018": 0.0,
			"0.019": 0.0,
			"0.02": 0.0,
			"0.021": 0.0,
			"0.022": 0.0,
			"0.023": 0.0,
			"0.024": 0.0,
			"0.025": 0.0
		}
	}
}
