{
	 "smiles": "ClC(=O)C1=C(N=C(S1)C1=CC=CC=C1)C1=CC=CC=C1", 
	 "Tm": 412.15, 
	 "num_atms": 30, 
	 "gaussian": { 
		 "optdone": 1, 
		 "sigma_profile": "yes", 
		 "theory": "DFT", 
		 "functional": "B3LYP", 
		 "basiset": "6-31G**", 
		 "properties": { 
			 "R2extent": 8559.6382, 
			 "electric_dipole_moment_norm": 4.68772836564, 
			 "electric_quadrupole_moment_norm": 23.326212015, 
			 "total_energy": -1604.09423442, 
			 "HOMO_LUMO_gap": 0.13757, 
			 "cosmo_polarized_energy": -9.11, 
			 "cosmo_cavitation_energy": 38.29, 
			 "cosmo_dispersion_energy": -28.22, 
			 "cosmo_repulsion_energy": 2.1, 
			 "cosmo_total_nonelectrostatic_energy": 12.17, 
			 "SMD_solvation_energy": 5.58 
		},
		"coords": [
			{
				"x": -4.2439048003,
				"y": -3.0791248703,
				"z": 1.0946482475,
				"element": "Cl" 
			},
			{
				"x": -2.9937797912,
				"y": -2.6538828851,
				"z": -0.1994480831,
				"element": "C" 
			},
			{
				"x": -2.936029331,
				"y": -3.3419724285,
				"z": -1.1755495238,
				"element": "O" 
			},
			{
				"x": -2.1910905682,
				"y": -1.4921019046,
				"z": 0.1428096563,
				"element": "C" 
			},
			{
				"x": -1.1150459953,
				"y": -0.9381586661,
				"z": -0.5667101758,
				"element": "C" 
			},
			{
				"x": -0.4635681393,
				"y": 0.0613160352,
				"z": 0.1020134854,
				"element": "N" 
			},
			{
				"x": -0.9933940798,
				"y": 0.324358793,
				"z": 1.2764294368,
				"element": "C" 
			},
			{
				"x": -2.3720930164,
				"y": -0.6679218675,
				"z": 1.6774793612,
				"element": "S" 
			},
			{
				"x": -0.4822902371,
				"y": 1.3715540177,
				"z": 2.1683086914,
				"element": "C" 
			},
			{
				"x": 0.5635272949,
				"y": 2.1976103278,
				"z": 1.7181756476,
				"element": "C" 
			},
			{
				"x": 1.0697750255,
				"y": 3.1982514745,
				"z": 2.5421005928,
				"element": "C" 
			},
			{
				"x": 0.5428375343,
				"y": 3.3908730076,
				"z": 3.8219999759,
				"element": "C" 
			},
			{
				"x": -0.4957872366,
				"y": 2.5743970956,
				"z": 4.2764702672,
				"element": "C" 
			},
			{
				"x": -1.0053407955,
				"y": 1.570757325,
				"z": 3.457245625,
				"element": "C" 
			},
			{
				"x": -0.5933103231,
				"y": -1.2834739798,
				"z": -1.9066487151,
				"element": "C" 
			},
			{
				"x": -1.423370578,
				"y": -1.6352125329,
				"z": -2.9827291755,
				"element": "C" 
			},
			{
				"x": -0.8756613763,
				"y": -1.8970656299,
				"z": -4.2368887185,
				"element": "C" 
			},
			{
				"x": 0.504016021,
				"y": -1.8198266876,
				"z": -4.4352223274,
				"element": "C" 
			},
			{
				"x": 1.3374765059,
				"y": -1.4618215783,
				"z": -3.3730329288,
				"element": "C" 
			},
			{
				"x": 0.7934401617,
				"y": -1.183669244,
				"z": -2.1223420794,
				"element": "C" 
			},
			{
				"x": 0.9595528079,
				"y": 2.0387319464,
				"z": 0.7216482263,
				"element": "H" 
			},
			{
				"x": 1.8763029008,
				"y": 3.8315596758,
				"z": 2.1847878268,
				"element": "H" 
			},
			{
				"x": 0.9392270799,
				"y": 4.1730630813,
				"z": 4.4626377867,
				"element": "H" 
			},
			{
				"x": -0.9075889019,
				"y": 2.7178647647,
				"z": 5.2707431203,
				"element": "H" 
			},
			{
				"x": -1.8081624259,
				"y": 0.9384719484,
				"z": 3.8265006529,
				"element": "H" 
			},
			{
				"x": -2.4948044333,
				"y": -1.6961709776,
				"z": -2.8450363323,
				"element": "H" 
			},
			{
				"x": -1.5310778657,
				"y": -2.1610408674,
				"z": -5.0614150124,
				"element": "H" 
			},
			{
				"x": 0.926910676,
				"y": -2.032368637,
				"z": -5.4129184479,
				"element": "H" 
			},
			{
				"x": 2.4114152387,
				"y": -1.3943328957,
				"z": -3.5202096909,
				"element": "H" 
			},
			{
				"x": 1.4328186483,
				"y": -0.8874638406,
				"z": -1.2982473892,
				"element": "H" 
			}
		],
		 "valence_orbital": [ 
			{
				"type": "occ",
				"energy": -0.28536,
				"method": "rhf"
			},
			{
				"type": "occ",
				"energy": -0.27037,
				"method": "rhf"
			},
			{
				"type": "occ",
				"energy": -0.25744,
				"method": "rhf"
			},
			{
				"type": "occ",
				"energy": -0.25414,
				"method": "rhf"
			},
			{
				"type": "occ",
				"energy": -0.23468,
				"method": "rhf"
			},
			{
				"type": "unocc",
				"energy": -0.09711,
				"method": "rhf"
			},
			{
				"type": "unocc",
				"energy": -0.04571,
				"method": "rhf"
			},
			{
				"type": "unocc",
				"energy": -0.01917,
				"method": "rhf"
			},
			{
				"type": "unocc",
				"energy": -0.01026,
				"method": "rhf"
			},
			{
				"type": "unocc",
				"energy": -0.00428,
				"method": "rhf"
			}
		],
		"cosmo_sigma_profile": { 
			"-0.025": 0.0,
			"-0.024": 0.0,
			"-0.023": 0.0,
			"-0.022": 0.0,
			"-0.021": 0.0,
			"-0.02": 0.0,
			"-0.019": 0.0,
			"-0.018": 0.0,
			"-0.017": 0.0,
			"-0.016": 0.0,
			"-0.015": 0.0,
			"-0.014": 0.0,
			"-0.013": 0.0,
			"-0.012": 0.0,
			"-0.011": 0.0,
			"-0.01": 0.0,
			"-0.009": 0.0,
			"-0.008": 0.898411336055,
			"-0.007": 5.29255459714,
			"-0.006": 17.9965552706,
			"-0.005": 21.9582724651,
			"-0.004": 24.9879076832,
			"-0.003": 21.244075413,
			"-0.002": 24.6479459113,
			"-0.001": 24.0123810672,
			"0.0": 24.8129733731,
			"0.001": 25.9913486429,
			"0.002": 29.4618613143,
			"0.003": 30.0050729382,
			"0.004": 29.326808232,
			"0.005": 15.3639095951,
			"0.006": 4.77802853388,
			"0.007": 4.31000951336,
			"0.008": 4.68281080916,
			"0.009": 3.55589903149,
			"0.01": 0.319865422882,
			"0.011": 0.0,
			"0.012": 0.0,
			"0.013": 0.0,
			"0.014": 0.0,
			"0.015": 0.0,
			"0.016": 0.0,
			"0.017": 0.0,
			"0.018": 0.0,
			"0.019": 0.0,
			"0.02": 0.0,
			"0.021": 0.0,
			"0.022": 0.0,
			"0.023": 0.0,
			"0.024": 0.0,
			"0.025": 0.0
		}
	}
}
