{
	 "smiles": "CC1=C(Br)C=CC(CCC(O)=O)=C1", 
	 "Tm": 363.15, 
	 "num_atms": 24, 
	 "gaussian": { 
		 "optdone": 1, 
		 "sigma_profile": "yes", 
		 "theory": "DFT", 
		 "functional": "B3LYP", 
		 "basiset": "6-31G**", 
		 "properties": { 
			 "R2extent": 6157.449, 
			 "electric_dipole_moment_norm": 4.12106357874, 
			 "electric_quadrupole_moment_norm": 24.5734045372, 
			 "total_energy": -3109.56819698, 
			 "HOMO_LUMO_gap": 0.21678, 
			 "cosmo_polarized_energy": -13.55, 
			 "cosmo_cavitation_energy": 29.73, 
			 "cosmo_dispersion_energy": -21.45, 
			 "cosmo_repulsion_energy": 1.71, 
			 "cosmo_total_nonelectrostatic_energy": 9.99, 
			 "SMD_solvation_energy": 4.85 
		},
		"coords": [
			{
				"x": -3.4566184523,
				"y": -2.1632761553,
				"z": -1.6481874385,
				"element": "C" 
			},
			{
				"x": -2.231384498,
				"y": -1.6691951111,
				"z": -0.92476607,
				"element": "C" 
			},
			{
				"x": -1.867033333,
				"y": -2.1312364447,
				"z": 0.3469695143,
				"element": "C" 
			},
			{
				"x": -2.9404778734,
				"y": -3.4428468546,
				"z": 1.2367898934,
				"element": "Br" 
			},
			{
				"x": -0.7294256787,
				"y": -1.6614526327,
				"z": 1.0034921018,
				"element": "C" 
			},
			{
				"x": 0.0761441747,
				"y": -0.7063930566,
				"z": 0.3901333457,
				"element": "C" 
			},
			{
				"x": -0.2455022904,
				"y": -0.2101215217,
				"z": -0.8821870783,
				"element": "C" 
			},
			{
				"x": 0.6289511849,
				"y": 0.8356887905,
				"z": -1.5492268671,
				"element": "C" 
			},
			{
				"x": 2.0174971408,
				"y": 0.3339432765,
				"z": -2.0223457259,
				"element": "C" 
			},
			{
				"x": 2.0103769328,
				"y": -0.5565638349,
				"z": -3.2627450782,
				"element": "C" 
			},
			{
				"x": 1.192497489,
				"y": -1.6393496514,
				"z": -3.228592718,
				"element": "O" 
			},
			{
				"x": 2.6964552163,
				"y": -0.3462993411,
				"z": -4.2322631083,
				"element": "O" 
			},
			{
				"x": -1.3950051306,
				"y": -0.7060996376,
				"z": -1.5120323362,
				"element": "C" 
			},
			{
				"x": -3.5542192163,
				"y": -1.6789057154,
				"z": -2.6225286545,
				"element": "H" 
			},
			{
				"x": -4.364590824,
				"y": -1.9629874341,
				"z": -1.0695887867,
				"element": "H" 
			},
			{
				"x": -3.4145517919,
				"y": -3.2463870586,
				"z": -1.8039413877,
				"element": "H" 
			},
			{
				"x": -0.482581185,
				"y": -2.0402458308,
				"z": 1.9888034403,
				"element": "H" 
			},
			{
				"x": 0.9553198952,
				"y": -0.3377670688,
				"z": 0.9124947645,
				"element": "H" 
			},
			{
				"x": 0.8043775487,
				"y": 1.6511385927,
				"z": -0.8381093863,
				"element": "H" 
			},
			{
				"x": 0.0958305782,
				"y": 1.2774923024,
				"z": -2.397863703,
				"element": "H" 
			},
			{
				"x": 2.5049862693,
				"y": -0.2160620805,
				"z": -1.2064968701,
				"element": "H" 
			},
			{
				"x": 2.6558162153,
				"y": 1.184899131,
				"z": -2.267381317,
				"element": "H" 
			},
			{
				"x": 0.6824669403,
				"y": -1.6617318391,
				"z": -2.4029814771,
				"element": "H" 
			},
			{
				"x": -1.660229312,
				"y": -0.3290408239,
				"z": -2.4969450575,
				"element": "H" 
			}
		],
		 "valence_orbital": [ 
			{
				"type": "occ",
				"energy": -0.30835,
				"method": "rhf"
			},
			{
				"type": "occ",
				"energy": -0.2959,
				"method": "rhf"
			},
			{
				"type": "occ",
				"energy": -0.27204,
				"method": "rhf"
			},
			{
				"type": "occ",
				"energy": -0.26444,
				"method": "rhf"
			},
			{
				"type": "occ",
				"energy": -0.25016,
				"method": "rhf"
			},
			{
				"type": "unocc",
				"energy": -0.03338,
				"method": "rhf"
			},
			{
				"type": "unocc",
				"energy": -0.02771,
				"method": "rhf"
			},
			{
				"type": "unocc",
				"energy": -0.00177,
				"method": "rhf"
			},
			{
				"type": "unocc",
				"energy": 0.01333,
				"method": "rhf"
			},
			{
				"type": "unocc",
				"energy": 0.08421,
				"method": "rhf"
			}
		],
		"cosmo_sigma_profile": { 
			"-0.025": 0.0,
			"-0.024": 0.0,
			"-0.023": 0.0,
			"-0.022": 0.0,
			"-0.021": 0.0,
			"-0.02": 0.0,
			"-0.019": 0.0,
			"-0.018": 0.0,
			"-0.017": 0.0,
			"-0.016": 0.0,
			"-0.015": 0.0,
			"-0.014": 0.0,
			"-0.013": 0.0,
			"-0.012": 0.00135627014106,
			"-0.011": 0.545866084535,
			"-0.01": 1.44912500125,
			"-0.009": 1.51752473154,
			"-0.008": 1.04712359915,
			"-0.007": 7.18491164965,
			"-0.006": 16.9475934732,
			"-0.005": 20.2806933668,
			"-0.004": 20.2219744943,
			"-0.003": 18.1004229667,
			"-0.002": 18.5224249098,
			"-0.001": 19.8336961241,
			"0.0": 17.6174150046,
			"0.001": 11.8897761123,
			"0.002": 15.9431960057,
			"0.003": 16.914743334,
			"0.004": 14.2233820673,
			"0.005": 7.36963248335,
			"0.006": 1.99796337792,
			"0.007": 2.09131599068,
			"0.008": 2.30797613969,
			"0.009": 3.56395440396,
			"0.01": 3.69834604869,
			"0.011": 5.59564240352,
			"0.012": 6.18508458689,
			"0.013": 3.27850972593,
			"0.014": 0.283462733365,
			"0.015": 0.0,
			"0.016": 0.0,
			"0.017": 0.0,
			"0.018": 0.0,
			"0.019": 0.0,
			"0.02": 0.0,
			"0.021": 0.0,
			"0.022": 0.0,
			"0.023": 0.0,
			"0.024": 0.0,
			"0.025": 0.0
		}
	}
}
