{
	 "smiles": "CC(O)C1=C(C)/C2=C/C3=C(C(C)O)C(C)=C(N3)C=C3/N=C(/C=C4N=C(C=C1/N2)C(C)=C4CCC(O)=O)C(CCC(O)=O)=C3C", 
	 "Tm": 445.65, 
	 "num_atms": 82, 
	 "gaussian": { 
		 "optdone": 1, 
		 "sigma_profile": "yes", 
		 "theory": "DFT", 
		 "functional": "B3LYP", 
		 "basiset": "6-31G**", 
		 "properties": { 
			 "R2extent": 30526.6234, 
			 "electric_dipole_moment_norm": 6.66713422394, 
			 "electric_quadrupole_moment_norm": 45.214198941, 
			 "total_energy": -1988.91787218, 
			 "HOMO_LUMO_gap": 0.10651, 
			 "cosmo_polarized_energy": -38.59, 
			 "cosmo_cavitation_energy": 80.4, 
			 "cosmo_dispersion_energy": -50.95, 
			 "cosmo_repulsion_energy": 3.69, 
			 "cosmo_total_nonelectrostatic_energy": 33.13, 
			 "SMD_solvation_energy": 12.01 
		},
		"coords": [
			{
				"x": -2.8078549404,
				"y": -2.5591746044,
				"z": -5.2988486154,
				"element": "C" 
			},
			{
				"x": -1.3818262599,
				"y": -2.8917651883,
				"z": -4.853090016,
				"element": "C" 
			},
			{
				"x": -0.5133775982,
				"y": -2.0812241635,
				"z": -5.6524734153,
				"element": "O" 
			},
			{
				"x": -1.1693420607,
				"y": -2.6775627109,
				"z": -3.3732191497,
				"element": "C" 
			},
			{
				"x": -1.2034821048,
				"y": -3.6342002637,
				"z": -2.374984755,
				"element": "C" 
			},
			{
				"x": -1.4213574455,
				"y": -5.1120021006,
				"z": -2.5183178589,
				"element": "C" 
			},
			{
				"x": -1.0079513949,
				"y": -2.9643374689,
				"z": -1.1073056642,
				"element": "C" 
			},
			{
				"x": -0.986919859,
				"y": -3.6070849347,
				"z": 0.1323497737,
				"element": "C" 
			},
			{
				"x": -0.8212051786,
				"y": -3.1259185445,
				"z": 1.4338871791,
				"element": "C" 
			},
			{
				"x": -0.8168346488,
				"y": -3.931108343,
				"z": 2.6399674344,
				"element": "C" 
			},
			{
				"x": -0.9730732577,
				"y": -5.4360224367,
				"z": 2.6715688794,
				"element": "C" 
			},
			{
				"x": 0.359950912,
				"y": -6.1676562235,
				"z": 2.8393592257,
				"element": "C" 
			},
			{
				"x": -1.813013665,
				"y": -5.8733804158,
				"z": 3.7458267823,
				"element": "O" 
			},
			{
				"x": -0.6207803492,
				"y": -3.0856425609,
				"z": 3.7191024515,
				"element": "C" 
			},
			{
				"x": -0.5083565673,
				"y": -3.429073422,
				"z": 5.1763512485,
				"element": "C" 
			},
			{
				"x": -0.5087060431,
				"y": -1.7510891683,
				"z": 3.1970120496,
				"element": "C" 
			},
			{
				"x": -0.6321428771,
				"y": -1.8253123748,
				"z": 1.8287915854,
				"element": "N" 
			},
			{
				"x": -0.3065673672,
				"y": -0.5546668678,
				"z": 3.8826608198,
				"element": "C" 
			},
			{
				"x": -0.196336793,
				"y": 0.7005045539,
				"z": 3.2683018235,
				"element": "C" 
			},
			{
				"x": -0.2883656638,
				"y": 0.8711873167,
				"z": 1.9221725913,
				"element": "N" 
			},
			{
				"x": -0.1339954013,
				"y": 2.1995505702,
				"z": 1.7001232461,
				"element": "C" 
			},
			{
				"x": -0.1771784365,
				"y": 2.8428288851,
				"z": 0.4569838787,
				"element": "C" 
			},
			{
				"x": -0.3428210758,
				"y": 2.3427746798,
				"z": -0.8405672744,
				"element": "C" 
			},
			{
				"x": -0.5188546744,
				"y": 1.04624596,
				"z": -1.1961136816,
				"element": "N" 
			},
			{
				"x": -0.6291747468,
				"y": 1.042225017,
				"z": -2.55273934,
				"element": "C" 
			},
			{
				"x": -0.8282087835,
				"y": -0.1268421956,
				"z": -3.2989398136,
				"element": "C" 
			},
			{
				"x": -0.9486939117,
				"y": -1.4012941675,
				"z": -2.7394617177,
				"element": "C" 
			},
			{
				"x": -0.8583754497,
				"y": -1.6289506117,
				"z": -1.3855889256,
				"element": "N" 
			},
			{
				"x": -0.5156645642,
				"y": 2.3962457387,
				"z": -3.1075183969,
				"element": "C" 
			},
			{
				"x": -0.5899054123,
				"y": 2.742541649,
				"z": -4.5632628873,
				"element": "C" 
			},
			{
				"x": -0.3394545215,
				"y": 3.2177025694,
				"z": -2.0313657959,
				"element": "C" 
			},
			{
				"x": -0.1539051267,
				"y": 4.7070018683,
				"z": -1.9988083432,
				"element": "C" 
			},
			{
				"x": 1.3128659654,
				"y": 5.1241696749,
				"z": -1.7141032832,
				"element": "C" 
			},
			{
				"x": 1.404734428,
				"y": 6.6191391963,
				"z": -1.4282221009,
				"element": "C" 
			},
			{
				"x": 1.8958195343,
				"y": 6.9791553221,
				"z": -0.2176058012,
				"element": "O" 
			},
			{
				"x": 1.0370447242,
				"y": 7.4593694141,
				"z": -2.2147797734,
				"element": "O" 
			},
			{
				"x": 0.0754109617,
				"y": 2.9202130379,
				"z": 2.9724349326,
				"element": "C" 
			},
			{
				"x": 0.3185042745,
				"y": 4.3969073877,
				"z": 3.1387007902,
				"element": "C" 
			},
			{
				"x": 1.7607423926,
				"y": 4.7671403484,
				"z": 3.5787059024,
				"element": "C" 
			},
			{
				"x": 2.8480538992,
				"y": 4.2008968153,
				"z": 2.6986023934,
				"element": "C" 
			},
			{
				"x": 2.815039375,
				"y": 4.6997534604,
				"z": 1.4162410015,
				"element": "O" 
			},
			{
				"x": 3.691685078,
				"y": 3.4036738657,
				"z": 3.0258438355,
				"element": "O" 
			},
			{
				"x": 0.0269761003,
				"y": 1.9728037501,
				"z": 3.9571281693,
				"element": "C" 
			},
			{
				"x": 0.1746492249,
				"y": 2.151202778,
				"z": 5.4380321066,
				"element": "C" 
			},
			{
				"x": -2.897944479,
				"y": -2.6980528113,
				"z": -6.3800826375,
				"element": "H" 
			},
			{
				"x": -3.0527864173,
				"y": -1.5213463322,
				"z": -5.0572925334,
				"element": "H" 
			},
			{
				"x": -3.5282827048,
				"y": -3.2108443195,
				"z": -4.7966539013,
				"element": "H" 
			},
			{
				"x": -1.1937578293,
				"y": -3.953112229,
				"z": -5.0779851911,
				"element": "H" 
			},
			{
				"x": 0.387217031,
				"y": -2.199254659,
				"z": -5.3219575784,
				"element": "H" 
			},
			{
				"x": -1.3980661393,
				"y": -5.4207203439,
				"z": -3.5657358265,
				"element": "H" 
			},
			{
				"x": -0.6517038625,
				"y": -5.6856114931,
				"z": -1.9898961521,
				"element": "H" 
			},
			{
				"x": -2.3921637871,
				"y": -5.419344807,
				"z": -2.1107259738,
				"element": "H" 
			},
			{
				"x": -1.1250346163,
				"y": -4.6793364205,
				"z": 0.0663067837,
				"element": "H" 
			},
			{
				"x": -1.4210193265,
				"y": -5.7634747627,
				"z": 1.7211652813,
				"element": "H" 
			},
			{
				"x": 0.1895566053,
				"y": -7.2477791263,
				"z": 2.8709207813,
				"element": "H" 
			},
			{
				"x": 1.0291997026,
				"y": -5.9378040974,
				"z": 2.0054708763,
				"element": "H" 
			},
			{
				"x": 0.8492137632,
				"y": -5.8653978016,
				"z": 3.7692813635,
				"element": "H" 
			},
			{
				"x": -2.6323528302,
				"y": -5.3624961796,
				"z": 3.7007455292,
				"element": "H" 
			},
			{
				"x": 0.5235329183,
				"y": -3.3131710096,
				"z": 5.530300956,
				"element": "H" 
			},
			{
				"x": -0.8205165921,
				"y": -4.4576189407,
				"z": 5.3551668788,
				"element": "H" 
			},
			{
				"x": -1.1318587694,
				"y": -2.7674561016,
				"z": 5.7883251622,
				"element": "H" 
			},
			{
				"x": -0.5757921267,
				"y": -0.9454416801,
				"z": 1.3020838263,
				"element": "H" 
			},
			{
				"x": -0.22183963,
				"y": -0.6125261268,
				"z": 4.9623325351,
				"element": "H" 
			},
			{
				"x": -0.0608625365,
				"y": 3.919538743,
				"z": 0.5051139916,
				"element": "H" 
			},
			{
				"x": -0.8837304238,
				"y": -0.0637634843,
				"z": -4.3785721369,
				"element": "H" 
			},
			{
				"x": -0.696083628,
				"y": -0.8093880107,
				"z": -0.7847608036,
				"element": "H" 
			},
			{
				"x": -0.5329290791,
				"y": 3.8224481126,
				"z": -4.7226835719,
				"element": "H" 
			},
			{
				"x": 0.2285412118,
				"y": 2.2819829515,
				"z": -5.1301961708,
				"element": "H" 
			},
			{
				"x": -1.5255557238,
				"y": 2.390273511,
				"z": -5.0134756093,
				"element": "H" 
			},
			{
				"x": -0.8019772609,
				"y": 5.1416274992,
				"z": -1.2272659777,
				"element": "H" 
			},
			{
				"x": -0.4647485045,
				"y": 5.1655423669,
				"z": -2.9409977221,
				"element": "H" 
			},
			{
				"x": 1.9241433906,
				"y": 4.9118343499,
				"z": -2.5976443393,
				"element": "H" 
			},
			{
				"x": 1.7125173271,
				"y": 4.5281057488,
				"z": -0.8900727365,
				"element": "H" 
			},
			{
				"x": 2.1418418044,
				"y": 6.2021581144,
				"z": 0.3141255785,
				"element": "H" 
			},
			{
				"x": 0.0811086721,
				"y": 4.9354681139,
				"z": 2.2175472228,
				"element": "H" 
			},
			{
				"x": -0.3561895264,
				"y": 4.8038609237,
				"z": 3.9022335639,
				"element": "H" 
			},
			{
				"x": 1.9619956679,
				"y": 4.3930626646,
				"z": 4.5837535687,
				"element": "H" 
			},
			{
				"x": 1.8607703914,
				"y": 5.8592477138,
				"z": 3.5927386141,
				"element": "H" 
			},
			{
				"x": 3.5431084677,
				"y": 4.2544251189,
				"z": 0.9489533329,
				"element": "H" 
			},
			{
				"x": 1.1742692964,
				"y": 1.8603917887,
				"z": 5.7858638887,
				"element": "H" 
			},
			{
				"x": 0.0152333917,
				"y": 3.1925621942,
				"z": 5.7343258815,
				"element": "H" 
			},
			{
				"x": -0.5487045396,
				"y": 1.5418857291,
				"z": 5.9908117546,
				"element": "H" 
			}
		],
		 "valence_orbital": [ 
			{
				"type": "occ",
				"energy": -0.24826,
				"method": "rhf"
			},
			{
				"type": "occ",
				"energy": -0.22821,
				"method": "rhf"
			},
			{
				"type": "occ",
				"energy": -0.2217,
				"method": "rhf"
			},
			{
				"type": "occ",
				"energy": -0.19253,
				"method": "rhf"
			},
			{
				"type": "occ",
				"energy": -0.19158,
				"method": "rhf"
			},
			{
				"type": "unocc",
				"energy": -0.08507,
				"method": "rhf"
			},
			{
				"type": "unocc",
				"energy": -0.08342,
				"method": "rhf"
			},
			{
				"type": "unocc",
				"energy": -0.02564,
				"method": "rhf"
			},
			{
				"type": "unocc",
				"energy": -0.01065,
				"method": "rhf"
			},
			{
				"type": "unocc",
				"energy": 0.02148,
				"method": "rhf"
			}
		],
		"cosmo_sigma_profile": { 
			"-0.025": 0.0,
			"-0.024": 0.0,
			"-0.023": 0.0,
			"-0.022": 0.0,
			"-0.021": 0.0,
			"-0.02": 0.0,
			"-0.019": 0.0938627304621,
			"-0.018": 0.81689323497,
			"-0.017": 0.920783238787,
			"-0.016": 0.931188621319,
			"-0.015": 2.70034111058,
			"-0.014": 2.57571990674,
			"-0.013": 3.22823302824,
			"-0.012": 2.97671269127,
			"-0.011": 2.07784635396,
			"-0.01": 2.58765734353,
			"-0.009": 3.34723887839,
			"-0.008": 6.45451953416,
			"-0.007": 10.2565366722,
			"-0.006": 19.9078135567,
			"-0.005": 39.9872106396,
			"-0.004": 55.0003502032,
			"-0.003": 60.7119006229,
			"-0.002": 56.9243067794,
			"-0.001": 56.3298158343,
			"0.0": 57.602273608,
			"0.001": 39.7279201414,
			"0.002": 39.3767773389,
			"0.003": 36.3252938916,
			"0.004": 25.4103008773,
			"0.005": 19.8053851291,
			"0.006": 12.9425059406,
			"0.007": 8.80014816197,
			"0.008": 9.87140383504,
			"0.009": 8.82319713414,
			"0.01": 10.1857041971,
			"0.011": 14.7592035481,
			"0.012": 12.4254228138,
			"0.013": 8.04611421185,
			"0.014": 3.03293558438,
			"0.015": 0.0,
			"0.016": 0.0,
			"0.017": 0.0,
			"0.018": 0.0,
			"0.019": 0.0,
			"0.02": 0.0,
			"0.021": 0.0,
			"0.022": 0.0,
			"0.023": 0.0,
			"0.024": 0.0,
			"0.025": 0.0
		}
	}
}
