{
	 "smiles": "COC1=C(NC2=NN=C(S)S2)C=C(C)C=C1", 
	 "Tm": 484.15, 
	 "num_atms": 27, 
	 "gaussian": { 
		 "optdone": 1, 
		 "sigma_profile": "yes", 
		 "theory": "DFT", 
		 "functional": "B3LYP", 
		 "basiset": "6-31G**", 
		 "properties": { 
			 "R2extent": 7484.0859, 
			 "electric_dipole_moment_norm": 4.09865781202, 
			 "electric_quadrupole_moment_norm": 21.019966396, 
			 "total_energy": -1423.50253632, 
			 "HOMO_LUMO_gap": 0.16738, 
			 "cosmo_polarized_energy": -12.35, 
			 "cosmo_cavitation_energy": 34.53, 
			 "cosmo_dispersion_energy": -26.28, 
			 "cosmo_repulsion_energy": 1.96, 
			 "cosmo_total_nonelectrostatic_energy": 10.21, 
			 "SMD_solvation_energy": 4.04 
		},
		"coords": [
			{
				"x": -1.5007455189,
				"y": -4.1634280759,
				"z": 0.7355797723,
				"element": "C" 
			},
			{
				"x": -1.6504955686,
				"y": -2.9075344731,
				"z": 0.0905662741,
				"element": "O" 
			},
			{
				"x": -0.605417763,
				"y": -2.0215523551,
				"z": 0.1415804655,
				"element": "C" 
			},
			{
				"x": -0.8213320161,
				"y": -0.811091773,
				"z": -0.5673033187,
				"element": "C" 
			},
			{
				"x": -2.0582059788,
				"y": -0.6931039746,
				"z": -1.209071226,
				"element": "N" 
			},
			{
				"x": -2.7160590641,
				"y": 0.3838993522,
				"z": -1.7285897219,
				"element": "C" 
			},
			{
				"x": -3.8330393827,
				"y": 0.225990022,
				"z": -2.3970276858,
				"element": "N" 
			},
			{
				"x": -4.4052277227,
				"y": 1.4097429574,
				"z": -2.7741488478,
				"element": "N" 
			},
			{
				"x": -3.7256153867,
				"y": 2.451279731,
				"z": -2.4099865681,
				"element": "C" 
			},
			{
				"x": -4.1728357519,
				"y": 4.1265472137,
				"z": -2.7621197505,
				"element": "S" 
			},
			{
				"x": -2.2487798097,
				"y": 2.0792572345,
				"z": -1.5122417236,
				"element": "S" 
			},
			{
				"x": 0.1971935434,
				"y": 0.1410679579,
				"z": -0.601696112,
				"element": "C" 
			},
			{
				"x": 1.4111093919,
				"y": -0.0581534144,
				"z": 0.0779893613,
				"element": "C" 
			},
			{
				"x": 2.4831071284,
				"y": 1.0056122017,
				"z": 0.0344050231,
				"element": "C" 
			},
			{
				"x": 1.5944922615,
				"y": -1.2478208177,
				"z": 0.7784578389,
				"element": "C" 
			},
			{
				"x": 0.5956370963,
				"y": -2.230587264,
				"z": 0.8061306215,
				"element": "C" 
			},
			{
				"x": -2.4292071472,
				"y": -4.707424838,
				"z": 0.5574487277,
				"element": "H" 
			},
			{
				"x": -1.3531246239,
				"y": -4.0422565662,
				"z": 1.8158496029,
				"element": "H" 
			},
			{
				"x": -0.6599217207,
				"y": -4.7305140074,
				"z": 0.3172198953,
				"element": "H" 
			},
			{
				"x": -2.603274263,
				"y": -1.5462493063,
				"z": -1.2461610441,
				"element": "H" 
			},
			{
				"x": -5.2661476453,
				"y": 3.7633401588,
				"z": -3.4621780751,
				"element": "H" 
			},
			{
				"x": 0.0707587127,
				"y": 1.0455243988,
				"z": -1.1860074722,
				"element": "H" 
			},
			{
				"x": 2.1653351851,
				"y": 1.9166091331,
				"z": 0.5555681733,
				"element": "H" 
			},
			{
				"x": 2.72274719,
				"y": 1.2920119919,
				"z": -0.9958414321,
				"element": "H" 
			},
			{
				"x": 3.4055305021,
				"y": 0.6580809015,
				"z": 0.5074535309,
				"element": "H" 
			},
			{
				"x": 2.5256600843,
				"y": -1.4253392715,
				"z": 1.3087052882,
				"element": "H" 
			},
			{
				"x": 0.7663582676,
				"y": -3.1512071172,
				"z": 1.3516184029,
				"element": "H" 
			}
		],
		 "valence_orbital": [ 
			{
				"type": "occ",
				"energy": -0.28709,
				"method": "rhf"
			},
			{
				"type": "occ",
				"energy": -0.26216,
				"method": "rhf"
			},
			{
				"type": "occ",
				"energy": -0.25169,
				"method": "rhf"
			},
			{
				"type": "occ",
				"energy": -0.23071,
				"method": "rhf"
			},
			{
				"type": "occ",
				"energy": -0.19648,
				"method": "rhf"
			},
			{
				"type": "unocc",
				"energy": -0.0291,
				"method": "rhf"
			},
			{
				"type": "unocc",
				"energy": -0.01135,
				"method": "rhf"
			},
			{
				"type": "unocc",
				"energy": -0.00036,
				"method": "rhf"
			},
			{
				"type": "unocc",
				"energy": 0.01184,
				"method": "rhf"
			},
			{
				"type": "unocc",
				"energy": 0.02306,
				"method": "rhf"
			}
		],
		"cosmo_sigma_profile": { 
			"-0.025": 0.0,
			"-0.024": 0.0,
			"-0.023": 0.0,
			"-0.022": 0.0,
			"-0.021": 0.0,
			"-0.02": 0.0,
			"-0.019": 0.0,
			"-0.018": 0.0,
			"-0.017": 0.0,
			"-0.016": 0.0,
			"-0.015": 0.0,
			"-0.014": 0.0,
			"-0.013": 0.0610748491289,
			"-0.012": 1.26346674949,
			"-0.011": 1.73803083816,
			"-0.01": 2.09756002766,
			"-0.009": 1.42458010121,
			"-0.008": 2.14109755957,
			"-0.007": 2.80374893193,
			"-0.006": 10.3415609127,
			"-0.005": 19.2331137836,
			"-0.004": 24.7491418758,
			"-0.003": 24.1874328287,
			"-0.002": 23.7072537311,
			"-0.001": 24.1638126637,
			"0.0": 26.7212891407,
			"0.001": 23.3316233137,
			"0.002": 21.6561790182,
			"0.003": 16.0539794903,
			"0.004": 13.4419329175,
			"0.005": 12.5504376196,
			"0.006": 8.13616422104,
			"0.007": 2.81515471863,
			"0.008": 1.9174621461,
			"0.009": 2.57083937345,
			"0.01": 2.33227267539,
			"0.011": 2.87908905879,
			"0.012": 3.50357668492,
			"0.013": 2.41533086037,
			"0.014": 1.78083925143,
			"0.015": 0.530025788311,
			"0.016": 0.0,
			"0.017": 0.0,
			"0.018": 0.0,
			"0.019": 0.0,
			"0.02": 0.0,
			"0.021": 0.0,
			"0.022": 0.0,
			"0.023": 0.0,
			"0.024": 0.0,
			"0.025": 0.0
		}
	}
}
