{
	 "smiles": "OC(=O)C1CC(=O)NC2=C1C=CC(F)=C2", 
	 "Tm": 488.15, 
	 "num_atms": 23, 
	 "gaussian": { 
		 "optdone": 1, 
		 "sigma_profile": "yes", 
		 "theory": "DFT", 
		 "functional": "B3LYP", 
		 "basiset": "6-31G**", 
		 "properties": { 
			 "R2extent": 3394.7855, 
			 "electric_dipole_moment_norm": 2.67313539687, 
			 "electric_quadrupole_moment_norm": 11.1357777636, 
			 "total_energy": -766.180360482, 
			 "HOMO_LUMO_gap": 0.20422, 
			 "cosmo_polarized_energy": -18.12, 
			 "cosmo_cavitation_energy": 28.15, 
			 "cosmo_dispersion_energy": -20.02, 
			 "cosmo_repulsion_energy": 1.55, 
			 "cosmo_total_nonelectrostatic_energy": 9.68, 
			 "SMD_solvation_energy": 6.86 
		},
		"coords": [
			{
				"x": -2.338898184,
				"y": 1.7071328199,
				"z": -0.1824171337,
				"element": "O" 
			},
			{
				"x": -1.1815620767,
				"y": 1.1354938714,
				"z": 0.23234358,
				"element": "C" 
			},
			{
				"x": -0.389349081,
				"y": 1.7000189745,
				"z": 0.9494374427,
				"element": "O" 
			},
			{
				"x": -1.064790295,
				"y": -0.2947299397,
				"z": -0.3036521347,
				"element": "C" 
			},
			{
				"x": -2.0066198901,
				"y": -1.2222739252,
				"z": 0.5002924188,
				"element": "C" 
			},
			{
				"x": -1.4884527495,
				"y": -1.5306142483,
				"z": 1.898557966,
				"element": "C" 
			},
			{
				"x": -2.2119731507,
				"y": -1.7193710249,
				"z": 2.861586205,
				"element": "O" 
			},
			{
				"x": -0.1154053399,
				"y": -1.6406070396,
				"z": 1.9896377451,
				"element": "N" 
			},
			{
				"x": 0.7915182419,
				"y": -1.4381006976,
				"z": 0.9407892705,
				"element": "C" 
			},
			{
				"x": 0.3582957084,
				"y": -0.7993039808,
				"z": -0.2360579619,
				"element": "C" 
			},
			{
				"x": 1.2679922081,
				"y": -0.6235513963,
				"z": -1.2783480863,
				"element": "C" 
			},
			{
				"x": 2.5925402362,
				"y": -1.0499581549,
				"z": -1.1755278152,
				"element": "C" 
			},
			{
				"x": 2.987612708,
				"y": -1.6626382992,
				"z": 0.0075617311,
				"element": "C" 
			},
			{
				"x": 4.2615048463,
				"y": -2.0845188264,
				"z": 0.1343688615,
				"element": "F" 
			},
			{
				"x": 2.1148684103,
				"y": -1.8735285218,
				"z": 1.0667218105,
				"element": "C" 
			},
			{
				"x": -2.3719446374,
				"y": 2.5875217197,
				"z": 0.2288141069,
				"element": "H" 
			},
			{
				"x": -1.4129541273,
				"y": -0.2704099647,
				"z": -1.3413653806,
				"element": "H" 
			},
			{
				"x": -3.0086200705,
				"y": -0.8021358701,
				"z": 0.5965533301,
				"element": "H" 
			},
			{
				"x": -2.0963046441,
				"y": -2.1786041997,
				"z": -0.0305588075,
				"element": "H" 
			},
			{
				"x": 0.2324100024,
				"y": -1.9150051509,
				"z": 2.8994237831,
				"element": "H" 
			},
			{
				"x": 0.9370226566,
				"y": -0.1322486184,
				"z": -2.1895642243,
				"element": "H" 
			},
			{
				"x": 3.3055228876,
				"y": -0.9131427481,
				"z": -1.9799808978,
				"element": "H" 
			},
			{
				"x": 2.4662863403,
				"y": -2.3733247789,
				"z": 1.9631841908,
				"element": "H" 
			}
		],
		 "valence_orbital": [ 
			{
				"type": "occ",
				"energy": -0.3129,
				"method": "rhf"
			},
			{
				"type": "occ",
				"energy": -0.28468,
				"method": "rhf"
			},
			{
				"type": "occ",
				"energy": -0.26183,
				"method": "rhf"
			},
			{
				"type": "occ",
				"energy": -0.25713,
				"method": "rhf"
			},
			{
				"type": "occ",
				"energy": -0.22869,
				"method": "rhf"
			},
			{
				"type": "unocc",
				"energy": -0.02447,
				"method": "rhf"
			},
			{
				"type": "unocc",
				"energy": -0.01652,
				"method": "rhf"
			},
			{
				"type": "unocc",
				"energy": -0.00422,
				"method": "rhf"
			},
			{
				"type": "unocc",
				"energy": 0.03164,
				"method": "rhf"
			},
			{
				"type": "unocc",
				"energy": 0.06908,
				"method": "rhf"
			}
		],
		"cosmo_sigma_profile": { 
			"-0.025": 0.0,
			"-0.024": 0.0,
			"-0.023": 0.0,
			"-0.022": 0.0,
			"-0.021": 0.0,
			"-0.02": 0.0,
			"-0.019": 0.108448477352,
			"-0.018": 1.16466845815,
			"-0.017": 0.678916224253,
			"-0.016": 0.890183331137,
			"-0.015": 2.15334641243,
			"-0.014": 1.89392555407,
			"-0.013": 1.60044542786,
			"-0.012": 1.93520931825,
			"-0.011": 2.35177450528,
			"-0.01": 1.47584785367,
			"-0.009": 1.6684062101,
			"-0.008": 6.17757167581,
			"-0.007": 13.8624493412,
			"-0.006": 12.036136073,
			"-0.005": 11.3040587996,
			"-0.004": 13.0960704891,
			"-0.003": 10.3714025087,
			"-0.002": 9.60801407119,
			"-0.001": 10.2582075672,
			"0.0": 12.0939408144,
			"0.001": 16.2833538782,
			"0.002": 13.8477204233,
			"0.003": 14.5734404702,
			"0.004": 17.3087097688,
			"0.005": 7.00241174811,
			"0.006": 4.93745830388,
			"0.007": 3.21118536171,
			"0.008": 4.27070333553,
			"0.009": 4.02509555547,
			"0.01": 4.89390473788,
			"0.011": 6.53333181015,
			"0.012": 6.12689850322,
			"0.013": 4.96988387554,
			"0.014": 1.37804463715,
			"0.015": 0.0,
			"0.016": 0.0,
			"0.017": 0.0,
			"0.018": 0.0,
			"0.019": 0.0,
			"0.02": 0.0,
			"0.021": 0.0,
			"0.022": 0.0,
			"0.023": 0.0,
			"0.024": 0.0,
			"0.025": 0.0
		}
	}
}
