{
	 "smiles": "CCCN1CCCC1C(O)=O", 
	 "Tm": 357.15, 
	 "num_atms": 26, 
	 "gaussian": { 
		 "optdone": 1, 
		 "sigma_profile": "yes", 
		 "theory": "DFT", 
		 "functional": "B3LYP", 
		 "basiset": "6-31G**", 
		 "properties": { 
			 "R2extent": 3759.6123, 
			 "electric_dipole_moment_norm": 5.56216135059, 
			 "electric_quadrupole_moment_norm": 29.8901681563, 
			 "total_energy": -519.109325403, 
			 "HOMO_LUMO_gap": 0.25673, 
			 "cosmo_polarized_energy": -11.69, 
			 "cosmo_cavitation_energy": 27.36, 
			 "cosmo_dispersion_energy": -19.5, 
			 "cosmo_repulsion_energy": 1.59, 
			 "cosmo_total_nonelectrostatic_energy": 9.45, 
			 "SMD_solvation_energy": 5.31 
		},
		"coords": [
			{
				"x": 0.1855458669,
				"y": -3.3475595553,
				"z": 0.590711797,
				"element": "C" 
			},
			{
				"x": 0.0362282774,
				"y": -2.0756021555,
				"z": 1.4317481957,
				"element": "C" 
			},
			{
				"x": -0.9612105801,
				"y": -1.0907172366,
				"z": 0.8156399479,
				"element": "C" 
			},
			{
				"x": -1.183642944,
				"y": 0.1011091474,
				"z": 1.6429765679,
				"element": "N" 
			},
			{
				"x": -0.0105227101,
				"y": 0.9842203111,
				"z": 1.8085370989,
				"element": "C" 
			},
			{
				"x": -0.6207195565,
				"y": 2.3384036862,
				"z": 2.1767989017,
				"element": "C" 
			},
			{
				"x": -1.8509421105,
				"y": 2.3996776985,
				"z": 1.2587748296,
				"element": "C" 
			},
			{
				"x": -2.344160926,
				"y": 0.9333762208,
				"z": 1.2275733039,
				"element": "C" 
			},
			{
				"x": -3.5272298649,
				"y": 0.7111092155,
				"z": 2.1952535063,
				"element": "C" 
			},
			{
				"x": -3.2269558109,
				"y": -0.083434116,
				"z": 3.2312612433,
				"element": "O" 
			},
			{
				"x": -4.6097958554,
				"y": 1.2243219974,
				"z": 2.0294119373,
				"element": "O" 
			},
			{
				"x": -0.768950403,
				"y": -3.8773994639,
				"z": 0.4976797485,
				"element": "H" 
			},
			{
				"x": 0.9049266704,
				"y": -4.0364511226,
				"z": 1.0432643233,
				"element": "H" 
			},
			{
				"x": 0.5375951387,
				"y": -3.1176872185,
				"z": -0.4211989862,
				"element": "H" 
			},
			{
				"x": 1.0157242042,
				"y": -1.5943538753,
				"z": 1.5408247113,
				"element": "H" 
			},
			{
				"x": -0.3002110358,
				"y": -2.3309301027,
				"z": 2.4444906998,
				"element": "H" 
			},
			{
				"x": -1.9277820265,
				"y": -1.5943966512,
				"z": 0.6953990892,
				"element": "H" 
			},
			{
				"x": -0.6209582391,
				"y": -0.8047423892,
				"z": -0.1973616182,
				"element": "H" 
			},
			{
				"x": 0.6665204521,
				"y": 0.5925999157,
				"z": 2.573417218,
				"element": "H" 
			},
			{
				"x": 0.5578082401,
				"y": 1.0640876195,
				"z": 0.8650874156,
				"element": "H" 
			},
			{
				"x": -0.9240537757,
				"y": 2.341457154,
				"z": 3.2298378724,
				"element": "H" 
			},
			{
				"x": 0.0749743172,
				"y": 3.1676610263,
				"z": 2.0243206464,
				"element": "H" 
			},
			{
				"x": -1.5518645849,
				"y": 2.7092233297,
				"z": 0.2517779252,
				"element": "H" 
			},
			{
				"x": -2.6336690481,
				"y": 3.0809477874,
				"z": 1.5981923217,
				"element": "H" 
			},
			{
				"x": -2.7029811377,
				"y": 0.6656522044,
				"z": 0.2268200844,
				"element": "H" 
			},
			{
				"x": -2.2735725577,
				"y": -0.310773427,
				"z": 3.0727612193,
				"element": "H" 
			}
		],
		 "valence_orbital": [ 
			{
				"type": "occ",
				"energy": -0.34091,
				"method": "rhf"
			},
			{
				"type": "occ",
				"energy": -0.33937,
				"method": "rhf"
			},
			{
				"type": "occ",
				"energy": -0.29386,
				"method": "rhf"
			},
			{
				"type": "occ",
				"energy": -0.26817,
				"method": "rhf"
			},
			{
				"type": "occ",
				"energy": -0.23436,
				"method": "rhf"
			},
			{
				"type": "unocc",
				"energy": 0.02237,
				"method": "rhf"
			},
			{
				"type": "unocc",
				"energy": 0.06669,
				"method": "rhf"
			},
			{
				"type": "unocc",
				"energy": 0.08393,
				"method": "rhf"
			},
			{
				"type": "unocc",
				"energy": 0.0949,
				"method": "rhf"
			},
			{
				"type": "unocc",
				"energy": 0.10593,
				"method": "rhf"
			}
		],
		"cosmo_sigma_profile": { 
			"-0.025": 0.0,
			"-0.024": 0.0,
			"-0.023": 0.0,
			"-0.022": 0.0,
			"-0.021": 0.0,
			"-0.02": 0.0,
			"-0.019": 0.0,
			"-0.018": 0.0,
			"-0.017": 0.0,
			"-0.016": 0.0,
			"-0.015": 0.0,
			"-0.014": 0.0,
			"-0.013": 0.0,
			"-0.012": 0.0,
			"-0.011": 0.0,
			"-0.01": 0.0,
			"-0.009": 0.0209043709191,
			"-0.008": 0.476413117666,
			"-0.007": 1.01288379752,
			"-0.006": 4.63528754479,
			"-0.005": 7.72011780613,
			"-0.004": 22.0083799642,
			"-0.003": 35.1590095494,
			"-0.002": 35.6269829083,
			"-0.001": 28.8585073459,
			"0.0": 21.4146292656,
			"0.001": 13.6981166212,
			"0.002": 4.38287398856,
			"0.003": 1.97704837987,
			"0.004": 2.02610254806,
			"0.005": 1.95933224343,
			"0.006": 2.36575003355,
			"0.007": 1.85947512522,
			"0.008": 2.50343826751,
			"0.009": 3.07624699667,
			"0.01": 3.63524888849,
			"0.011": 5.96714840856,
			"0.012": 4.34978591177,
			"0.013": 5.59410845143,
			"0.014": 1.51354924277,
			"0.015": 0.0134081485729,
			"0.016": 0.0,
			"0.017": 0.0,
			"0.018": 0.0,
			"0.019": 0.0,
			"0.02": 0.0,
			"0.021": 0.0,
			"0.022": 0.0,
			"0.023": 0.0,
			"0.024": 0.0,
			"0.025": 0.0
		}
	}
}
