{
	 "smiles": "FC1=CC(=CN=C1)S(Cl)(=O)=O", 
	 "Tm": 309.15, 
	 "num_atms": 14, 
	 "gaussian": { 
		 "optdone": 1, 
		 "sigma_profile": "yes", 
		 "theory": "DFT", 
		 "functional": "B3LYP", 
		 "basiset": "6-31G**", 
		 "properties": { 
			 "R2extent": 2522.719, 
			 "electric_dipole_moment_norm": 3.30973493198, 
			 "electric_quadrupole_moment_norm": 4.37256069598, 
			 "total_energy": -1355.66497151, 
			 "HOMO_LUMO_gap": 0.19249, 
			 "cosmo_polarized_energy": -8.92, 
			 "cosmo_cavitation_energy": 23.11, 
			 "cosmo_dispersion_energy": -17.37, 
			 "cosmo_repulsion_energy": 1.32, 
			 "cosmo_total_nonelectrostatic_energy": 7.06, 
			 "SMD_solvation_energy": 1.91 
		},
		"coords": [
			{
				"x": 2.1447051226,
				"y": -1.0031516215,
				"z": -1.7876015037,
				"element": "F" 
			},
			{
				"x": 1.3789595647,
				"y": -0.2006799741,
				"z": -1.0372633159,
				"element": "C" 
			},
			{
				"x": 0.1742333599,
				"y": -0.6658095061,
				"z": -0.5324218726,
				"element": "C" 
			},
			{
				"x": -0.5508364825,
				"y": 0.2403386491,
				"z": 0.2396772449,
				"element": "C" 
			},
			{
				"x": -0.0707869473,
				"y": 1.5291606459,
				"z": 0.4839965132,
				"element": "C" 
			},
			{
				"x": 1.0952500902,
				"y": 1.9485676345,
				"z": -0.0181297601,
				"element": "N" 
			},
			{
				"x": 1.8053060459,
				"y": 1.1012857563,
				"z": -0.7674641418,
				"element": "C" 
			},
			{
				"x": -2.1078466533,
				"y": -0.2790902274,
				"z": 0.9540723582,
				"element": "S" 
			},
			{
				"x": -3.4611338875,
				"y": 0.2423912931,
				"z": -0.6005088564,
				"element": "Cl" 
			},
			{
				"x": -2.1227237994,
				"y": -1.7329627216,
				"z": 1.0441180058,
				"element": "O" 
			},
			{
				"x": -2.4205003797,
				"y": 0.5836391044,
				"z": 2.0843209175,
				"element": "O" 
			},
			{
				"x": -0.1725707406,
				"y": -1.6752551004,
				"z": -0.7215808257,
				"element": "H" 
			},
			{
				"x": -0.6325045046,
				"y": 2.2244460129,
				"z": 1.1001840795,
				"element": "H" 
			},
			{
				"x": 2.7503492116,
				"y": 1.4530200548,
				"z": -1.1740988428,
				"element": "H" 
			}
		],
		 "valence_orbital": [ 
			{
				"type": "occ",
				"energy": -0.35328,
				"method": "rhf"
			},
			{
				"type": "occ",
				"energy": -0.32915,
				"method": "rhf"
			},
			{
				"type": "occ",
				"energy": -0.32642,
				"method": "rhf"
			},
			{
				"type": "occ",
				"energy": -0.29909,
				"method": "rhf"
			},
			{
				"type": "occ",
				"energy": -0.29791,
				"method": "rhf"
			},
			{
				"type": "unocc",
				"energy": -0.10542,
				"method": "rhf"
			},
			{
				"type": "unocc",
				"energy": -0.07129,
				"method": "rhf"
			},
			{
				"type": "unocc",
				"energy": -0.05492,
				"method": "rhf"
			},
			{
				"type": "unocc",
				"energy": 0.0375,
				"method": "rhf"
			},
			{
				"type": "unocc",
				"energy": 0.05584,
				"method": "rhf"
			}
		],
		"cosmo_sigma_profile": { 
			"-0.025": 0.0,
			"-0.024": 0.0,
			"-0.023": 0.0,
			"-0.022": 0.0,
			"-0.021": 0.0,
			"-0.02": 0.0,
			"-0.019": 0.0,
			"-0.018": 0.0,
			"-0.017": 0.0,
			"-0.016": 0.0,
			"-0.015": 0.0,
			"-0.014": 0.0,
			"-0.013": 0.0,
			"-0.012": 0.0202308852585,
			"-0.011": 0.846547479753,
			"-0.01": 1.68675817815,
			"-0.009": 4.42714062044,
			"-0.008": 6.06259375102,
			"-0.007": 6.41467967992,
			"-0.006": 5.19901272371,
			"-0.005": 8.00832552449,
			"-0.004": 15.5870885267,
			"-0.003": 19.0122719124,
			"-0.002": 12.4426193985,
			"-0.001": 10.558198507,
			"0.0": 9.96901490168,
			"0.001": 11.74172314,
			"0.002": 17.6453424639,
			"0.003": 21.260622251,
			"0.004": 6.13910353359,
			"0.005": 3.69537842059,
			"0.006": 5.02684095995,
			"0.007": 8.70518675,
			"0.008": 9.24941940679,
			"0.009": 2.53446638523,
			"0.01": 0.737075931051,
			"0.011": 0.721740242626,
			"0.012": 0.876969667663,
			"0.013": 0.931396738683,
			"0.014": 0.268485308957,
			"0.015": 0.0,
			"0.016": 0.0,
			"0.017": 0.0,
			"0.018": 0.0,
			"0.019": 0.0,
			"0.02": 0.0,
			"0.021": 0.0,
			"0.022": 0.0,
			"0.023": 0.0,
			"0.024": 0.0,
			"0.025": 0.0
		}
	}
}
