{
	 "smiles": "FC1=CC(F)=C(F)C(NS(=O)(=O)C(F)(F)F)=C1F", 
	 "Tm": 368.15, 
	 "num_atms": 20, 
	 "gaussian": { 
		 "optdone": 1, 
		 "sigma_profile": "yes", 
		 "theory": "DFT", 
		 "functional": "B3LYP", 
		 "basiset": "6-31G**", 
		 "properties": { 
			 "R2extent": 5154.5289, 
			 "electric_dipole_moment_norm": 3.84361579506, 
			 "electric_quadrupole_moment_norm": 11.0768329341, 
			 "total_energy": -1570.07575057, 
			 "HOMO_LUMO_gap": 0.20962, 
			 "cosmo_polarized_energy": -11.35, 
			 "cosmo_cavitation_energy": 30.03, 
			 "cosmo_dispersion_energy": -20.86, 
			 "cosmo_repulsion_energy": 1.42, 
			 "cosmo_total_nonelectrostatic_energy": 10.59, 
			 "SMD_solvation_energy": 7.25 
		},
		"coords": [
			{
				"x": 2.0918059294,
				"y": -0.9959689299,
				"z": -2.4374261982,
				"element": "F" 
			},
			{
				"x": 1.4786400804,
				"y": -0.5906777129,
				"z": -1.3184181597,
				"element": "C" 
			},
			{
				"x": 2.2101001315,
				"y": 0.0182346778,
				"z": -0.3062528934,
				"element": "C" 
			},
			{
				"x": 1.5520155905,
				"y": 0.4180587866,
				"z": 0.8510643928,
				"element": "C" 
			},
			{
				"x": 2.2284192655,
				"y": 1.0062414983,
				"z": 1.8467072539,
				"element": "F" 
			},
			{
				"x": 0.1817916579,
				"y": 0.2245306489,
				"z": 0.9849333791,
				"element": "C" 
			},
			{
				"x": -0.4523502652,
				"y": 0.6170356835,
				"z": 2.1013754888,
				"element": "F" 
			},
			{
				"x": -0.5574389877,
				"y": -0.3940521373,
				"z": -0.0299037414,
				"element": "C" 
			},
			{
				"x": -1.9440422276,
				"y": -0.6386067572,
				"z": 0.1346285099,
				"element": "N" 
			},
			{
				"x": -3.1081668312,
				"y": 0.3165562152,
				"z": -0.6241987593,
				"element": "S" 
			},
			{
				"x": -4.3914427362,
				"y": -0.315920828,
				"z": -0.3630473465,
				"element": "O" 
			},
			{
				"x": -2.616452611,
				"y": 0.672245087,
				"z": -1.944318953,
				"element": "O" 
			},
			{
				"x": -3.0994377181,
				"y": 1.8953267656,
				"z": 0.3868828275,
				"element": "C" 
			},
			{
				"x": -1.912464033,
				"y": 2.4971383116,
				"z": 0.2714102996,
				"element": "F" 
			},
			{
				"x": -3.3171054603,
				"y": 1.5928416245,
				"z": 1.670753725,
				"element": "F" 
			},
			{
				"x": -4.0568828801,
				"y": 2.7061962844,
				"z": -0.0515931145,
				"element": "F" 
			},
			{
				"x": 0.1080311508,
				"y": -0.81384227,
				"z": -1.1874449883,
				"element": "C" 
			},
			{
				"x": -0.5551666032,
				"y": -1.4334702199,
				"z": -2.1612298755,
				"element": "F" 
			},
			{
				"x": 3.2758949407,
				"y": 0.1769421817,
				"z": -0.4168941049,
				"element": "H" 
			},
			{
				"x": -2.2417483933,
				"y": -0.9222089099,
				"z": 1.0635722581,
				"element": "H" 
			}
		],
		 "valence_orbital": [ 
			{
				"type": "occ",
				"energy": -0.34338,
				"method": "rhf"
			},
			{
				"type": "occ",
				"energy": -0.33863,
				"method": "rhf"
			},
			{
				"type": "occ",
				"energy": -0.33635,
				"method": "rhf"
			},
			{
				"type": "occ",
				"energy": -0.28122,
				"method": "rhf"
			},
			{
				"type": "occ",
				"energy": -0.26522,
				"method": "rhf"
			},
			{
				"type": "unocc",
				"energy": -0.0556,
				"method": "rhf"
			},
			{
				"type": "unocc",
				"energy": -0.02536,
				"method": "rhf"
			},
			{
				"type": "unocc",
				"energy": 0.00898,
				"method": "rhf"
			},
			{
				"type": "unocc",
				"energy": 0.03462,
				"method": "rhf"
			},
			{
				"type": "unocc",
				"energy": 0.03673,
				"method": "rhf"
			}
		],
		"cosmo_sigma_profile": { 
			"-0.025": 0.0,
			"-0.024": 0.0,
			"-0.023": 0.0,
			"-0.022": 0.0,
			"-0.021": 0.0,
			"-0.02": 0.0,
			"-0.019": 0.0,
			"-0.018": 0.360113387639,
			"-0.017": 1.47446319272,
			"-0.016": 0.485025923023,
			"-0.015": 0.777253951977,
			"-0.014": 1.28057771241,
			"-0.013": 0.680991299505,
			"-0.012": 1.14684432041,
			"-0.011": 2.09090770059,
			"-0.01": 2.67501191537,
			"-0.009": 1.63959999846,
			"-0.008": 3.53703495838,
			"-0.007": 2.39022012891,
			"-0.006": 2.7742665757,
			"-0.005": 3.47052817038,
			"-0.004": 10.0646414624,
			"-0.003": 19.360768448,
			"-0.002": 22.9291660901,
			"-0.001": 21.9041442286,
			"0.0": 30.286549924,
			"0.001": 23.4200030964,
			"0.002": 24.6903517639,
			"0.003": 31.3986830415,
			"0.004": 5.72780608116,
			"0.005": 4.02726000577,
			"0.006": 3.2776429995,
			"0.007": 4.95997361882,
			"0.008": 10.8010805314,
			"0.009": 5.52964323168,
			"0.01": 0.0490013571741,
			"0.011": 0.0,
			"0.012": 0.0,
			"0.013": 0.0,
			"0.014": 0.0,
			"0.015": 0.0,
			"0.016": 0.0,
			"0.017": 0.0,
			"0.018": 0.0,
			"0.019": 0.0,
			"0.02": 0.0,
			"0.021": 0.0,
			"0.022": 0.0,
			"0.023": 0.0,
			"0.024": 0.0,
			"0.025": 0.0
		}
	}
}
