{
	 "smiles": "COC1=CC(OC)=CC(CC(O)=O)=C1", 
	 "Tm": 376.15, 
	 "num_atms": 26, 
	 "gaussian": { 
		 "optdone": 1, 
		 "sigma_profile": "yes", 
		 "theory": "DFT", 
		 "functional": "B3LYP", 
		 "basiset": "6-31G**", 
		 "properties": { 
			 "R2extent": 3878.8215, 
			 "electric_dipole_moment_norm": 1.87158364494, 
			 "electric_quadrupole_moment_norm": 11.7369139628, 
			 "total_energy": -689.184442029, 
			 "HOMO_LUMO_gap": 0.20643, 
			 "cosmo_polarized_energy": -13.36, 
			 "cosmo_cavitation_energy": 30.51, 
			 "cosmo_dispersion_energy": -21.66, 
			 "cosmo_repulsion_energy": 1.74, 
			 "cosmo_total_nonelectrostatic_energy": 10.59, 
			 "SMD_solvation_energy": 7.84 
		},
		"coords": [
			{
				"x": 0.1618289293,
				"y": 4.740872145,
				"z": 0.9208699683,
				"element": "C" 
			},
			{
				"x": 0.9693553485,
				"y": 3.6425602673,
				"z": 0.530558594,
				"element": "O" 
			},
			{
				"x": 0.3600791846,
				"y": 2.4490437105,
				"z": 0.2675367018,
				"element": "C" 
			},
			{
				"x": 1.2123107726,
				"y": 1.4091722611,
				"z": -0.1045681559,
				"element": "C" 
			},
			{
				"x": 0.6848113053,
				"y": 0.1474844546,
				"z": -0.3922641475,
				"element": "C" 
			},
			{
				"x": 1.5985714697,
				"y": -0.8030997887,
				"z": -0.7422189299,
				"element": "O" 
			},
			{
				"x": 1.1293942751,
				"y": -2.1100944952,
				"z": -1.037104884,
				"element": "C" 
			},
			{
				"x": -0.6956611812,
				"y": -0.0801032616,
				"z": -0.3141531883,
				"element": "C" 
			},
			{
				"x": -1.5406846146,
				"y": 0.9711914808,
				"z": 0.0575625231,
				"element": "C" 
			},
			{
				"x": -3.0440822149,
				"y": 0.7326652205,
				"z": 0.1301993346,
				"element": "C" 
			},
			{
				"x": -3.3798905375,
				"y": -0.3744435028,
				"z": 1.1114630121,
				"element": "C" 
			},
			{
				"x": -3.7077492785,
				"y": 0.1088550797,
				"z": 2.3323019103,
				"element": "O" 
			},
			{
				"x": -3.3423147698,
				"y": -1.5612606287,
				"z": 0.8668731242,
				"element": "O" 
			},
			{
				"x": -1.0248058218,
				"y": 2.2354345532,
				"z": 0.3534649606,
				"element": "C" 
			},
			{
				"x": 0.8462230882,
				"y": 5.5758648963,
				"z": 1.0795765598,
				"element": "H" 
			},
			{
				"x": -0.3791582496,
				"y": 4.5369715663,
				"z": 1.854011861,
				"element": "H" 
			},
			{
				"x": -0.561014291,
				"y": 5.012236614,
				"z": 0.1404589256,
				"element": "H" 
			},
			{
				"x": 2.2806078314,
				"y": 1.5790550894,
				"z": -0.1688807035,
				"element": "H" 
			},
			{
				"x": 2.0152357761,
				"y": -2.6986055875,
				"z": -1.2812689696,
				"element": "H" 
			},
			{
				"x": 0.4470408327,
				"y": -2.1118444762,
				"z": -1.8966358101,
				"element": "H" 
			},
			{
				"x": 0.6202126471,
				"y": -2.5623307138,
				"z": -0.176833478,
				"element": "H" 
			},
			{
				"x": -1.1229906927,
				"y": -1.0531458064,
				"z": -0.520542549,
				"element": "H" 
			},
			{
				"x": -3.5590073746,
				"y": 1.649929674,
				"z": 0.4228332832,
				"element": "H" 
			},
			{
				"x": -3.4213502568,
				"y": 0.4145683447,
				"z": -0.8468050296,
				"element": "H" 
			},
			{
				"x": -3.8649969016,
				"y": -0.667456558,
				"z": 2.8964681448,
				"element": "H" 
			},
			{
				"x": -1.697665276,
				"y": 3.0328794614,
				"z": 0.6436969417,
				"element": "H" 
			}
		],
		 "valence_orbital": [ 
			{
				"type": "occ",
				"energy": -0.31879,
				"method": "rhf"
			},
			{
				"type": "occ",
				"energy": -0.29711,
				"method": "rhf"
			},
			{
				"type": "occ",
				"energy": -0.27435,
				"method": "rhf"
			},
			{
				"type": "occ",
				"energy": -0.21994,
				"method": "rhf"
			},
			{
				"type": "occ",
				"energy": -0.21443,
				"method": "rhf"
			},
			{
				"type": "unocc",
				"energy": -0.008,
				"method": "rhf"
			},
			{
				"type": "unocc",
				"energy": 0.01684,
				"method": "rhf"
			},
			{
				"type": "unocc",
				"energy": 0.02464,
				"method": "rhf"
			},
			{
				"type": "unocc",
				"energy": 0.07764,
				"method": "rhf"
			},
			{
				"type": "unocc",
				"energy": 0.09558,
				"method": "rhf"
			}
		],
		"cosmo_sigma_profile": { 
			"-0.025": 0.0,
			"-0.024": 0.0,
			"-0.023": 0.0,
			"-0.022": 0.0,
			"-0.021": 0.0,
			"-0.02": 0.0,
			"-0.019": 0.0195773129681,
			"-0.018": 0.677532461117,
			"-0.017": 0.936557189808,
			"-0.016": 1.16573356069,
			"-0.015": 0.367015591825,
			"-0.014": 0.847264913279,
			"-0.013": 1.028753515,
			"-0.012": 0.572242725184,
			"-0.011": 0.666585157914,
			"-0.01": 0.809602009266,
			"-0.009": 0.356325842917,
			"-0.008": 0.45731448947,
			"-0.007": 3.52482667163,
			"-0.006": 12.8755889186,
			"-0.005": 24.7262434386,
			"-0.004": 25.1133248464,
			"-0.003": 25.2490558603,
			"-0.002": 16.2722167208,
			"-0.001": 9.99604291598,
			"0.0": 11.2962808143,
			"0.001": 9.07815807033,
			"0.002": 11.0354771492,
			"0.003": 13.3083056586,
			"0.004": 17.268504756,
			"0.005": 17.2700805464,
			"0.006": 6.06979790707,
			"0.007": 5.41294377804,
			"0.008": 4.8771754751,
			"0.009": 5.76168080163,
			"0.01": 5.82568471863,
			"0.011": 4.36070428329,
			"0.012": 3.7583388202,
			"0.013": 0.324465579444,
			"0.014": 0.0,
			"0.015": 0.0,
			"0.016": 0.0,
			"0.017": 0.0,
			"0.018": 0.0,
			"0.019": 0.0,
			"0.02": 0.0,
			"0.021": 0.0,
			"0.022": 0.0,
			"0.023": 0.0,
			"0.024": 0.0,
			"0.025": 0.0
		}
	}
}
