{
	 "smiles": "CC(O)C(O)=O", 
	 "Tm": 326.15, 
	 "num_atms": 12, 
	 "gaussian": { 
		 "optdone": 1, 
		 "sigma_profile": "yes", 
		 "theory": "DFT", 
		 "functional": "B3LYP", 
		 "basiset": "6-31G**", 
		 "properties": { 
			 "R2extent": 622.2648, 
			 "electric_dipole_moment_norm": 3.97361080379, 
			 "electric_quadrupole_moment_norm": 7.25752146948, 
			 "total_energy": -343.611952168, 
			 "HOMO_LUMO_gap": 0.26876, 
			 "cosmo_polarized_energy": -13.83, 
			 "cosmo_cavitation_energy": 15.63, 
			 "cosmo_dispersion_energy": -11.78, 
			 "cosmo_repulsion_energy": 1.04, 
			 "cosmo_total_nonelectrostatic_energy": 4.89, 
			 "SMD_solvation_energy": 4.28 
		},
		"coords": [
			{
				"x": -1.8475522122,
				"y": -1.150198393,
				"z": 0.8051007867,
				"element": "C" 
			},
			{
				"x": -0.4068950186,
				"y": -1.0195317261,
				"z": 0.3280991728,
				"element": "C" 
			},
			{
				"x": 0.4833619137,
				"y": -0.5204510874,
				"z": 1.3389862112,
				"element": "O" 
			},
			{
				"x": -0.305139163,
				"y": -0.1554725422,
				"z": -0.9462625415,
				"element": "C" 
			},
			{
				"x": 0.7337640712,
				"y": 0.6972990784,
				"z": -0.9411070707,
				"element": "O" 
			},
			{
				"x": -1.0715516266,
				"y": -0.2575523221,
				"z": -1.8737257,
				"element": "O" 
			},
			{
				"x": -2.241071349,
				"y": -0.1773511965,
				"z": 1.1251734479,
				"element": "H" 
			},
			{
				"x": -1.91506243,
				"y": -1.8508960305,
				"z": 1.6413203467,
				"element": "H" 
			},
			{
				"x": -2.4744176935,
				"y": -1.50352731,
				"z": -0.0156013867,
				"element": "H" 
			},
			{
				"x": -0.0167795844,
				"y": -2.0088855956,
				"z": 0.0596012034,
				"element": "H" 
			},
			{
				"x": -0.0146398712,
				"y": 0.0928225421,
				"z": 1.897538569,
				"element": "H" 
			},
			{
				"x": 1.1752829634,
				"y": 0.573344583,
				"z": -0.0771230388,
				"element": "H" 
			}
		],
		 "valence_orbital": [ 
			{
				"type": "occ",
				"energy": -0.37169,
				"method": "rhf"
			},
			{
				"type": "occ",
				"energy": -0.35898,
				"method": "rhf"
			},
			{
				"type": "occ",
				"energy": -0.34038,
				"method": "rhf"
			},
			{
				"type": "occ",
				"energy": -0.31093,
				"method": "rhf"
			},
			{
				"type": "occ",
				"energy": -0.26078,
				"method": "rhf"
			},
			{
				"type": "unocc",
				"energy": 0.00798,
				"method": "rhf"
			},
			{
				"type": "unocc",
				"energy": 0.04892,
				"method": "rhf"
			},
			{
				"type": "unocc",
				"energy": 0.11151,
				"method": "rhf"
			},
			{
				"type": "unocc",
				"energy": 0.11312,
				"method": "rhf"
			},
			{
				"type": "unocc",
				"energy": 0.13347,
				"method": "rhf"
			}
		],
		"cosmo_sigma_profile": { 
			"-0.025": 0.0,
			"-0.024": 0.0,
			"-0.023": 0.0,
			"-0.022": 0.0,
			"-0.021": 0.0,
			"-0.02": 0.0,
			"-0.019": 0.0,
			"-0.018": 0.0,
			"-0.017": 0.616009292873,
			"-0.016": 1.34525487297,
			"-0.015": 1.20331526649,
			"-0.014": 1.17733644109,
			"-0.013": 1.54531278533,
			"-0.012": 2.00417848606,
			"-0.011": 1.83054865336,
			"-0.01": 2.96167371453,
			"-0.009": 2.18977771864,
			"-0.008": 2.8972117403,
			"-0.007": 5.81113782382,
			"-0.006": 4.89301232605,
			"-0.005": 6.19878296583,
			"-0.004": 8.84908232905,
			"-0.003": 7.82573139984,
			"-0.002": 8.03027562125,
			"-0.001": 7.98437636494,
			"0.0": 5.7665812424,
			"0.001": 3.41366216511,
			"0.002": 2.13269298223,
			"0.003": 2.32397327708,
			"0.004": 2.72853635905,
			"0.005": 4.11380012745,
			"0.006": 2.81863450135,
			"0.007": 3.42093925909,
			"0.008": 3.40277058591,
			"0.009": 4.40177713434,
			"0.01": 5.80271353822,
			"0.011": 5.79625158025,
			"0.012": 6.20332198231,
			"0.013": 2.44326698752,
			"0.014": 0.234350678228,
			"0.015": 0.0,
			"0.016": 0.0,
			"0.017": 0.0,
			"0.018": 0.0,
			"0.019": 0.0,
			"0.02": 0.0,
			"0.021": 0.0,
			"0.022": 0.0,
			"0.023": 0.0,
			"0.024": 0.0,
			"0.025": 0.0
		}
	}
}
