{
	 "smiles": "NC(CC1=CC=C(O)C=C1)C1=NC2=C(N1)C=CC=C2", 
	 "Tm": 467.15, 
	 "num_atms": 34, 
	 "gaussian": { 
		 "optdone": 1, 
		 "sigma_profile": "yes", 
		 "theory": "DFT", 
		 "functional": "B3LYP", 
		 "basiset": "6-31G**", 
		 "properties": { 
			 "R2extent": 8841.1856, 
			 "electric_dipole_moment_norm": 3.06984095516, 
			 "electric_quadrupole_moment_norm": 20.9392475268, 
			 "total_energy": -820.133280269, 
			 "HOMO_LUMO_gap": 0.19814, 
			 "cosmo_polarized_energy": -18.33, 
			 "cosmo_cavitation_energy": 37.83, 
			 "cosmo_dispersion_energy": -27.33, 
			 "cosmo_repulsion_energy": 2.1, 
			 "cosmo_total_nonelectrostatic_energy": 12.6, 
			 "SMD_solvation_energy": 3.26 
		},
		"coords": [
			{
				"x": -0.2194625073,
				"y": -1.8069472008,
				"z": -1.7154984795,
				"element": "N" 
			},
			{
				"x": 0.7858546287,
				"y": -0.7601446462,
				"z": -1.478799294,
				"element": "C" 
			},
			{
				"x": 1.5235270566,
				"y": -1.0334117395,
				"z": -0.139455665,
				"element": "C" 
			},
			{
				"x": 2.3380278798,
				"y": -2.3086138187,
				"z": -0.1538062069,
				"element": "C" 
			},
			{
				"x": 1.8587911836,
				"y": -3.4913032895,
				"z": 0.4308213645,
				"element": "C" 
			},
			{
				"x": 2.5938260652,
				"y": -4.6745680515,
				"z": 0.3957638145,
				"element": "C" 
			},
			{
				"x": 3.8422143268,
				"y": -4.6962653449,
				"z": -0.2334766961,
				"element": "C" 
			},
			{
				"x": 4.5268078422,
				"y": -5.8786676138,
				"z": -0.23989357,
				"element": "O" 
			},
			{
				"x": 4.3415081671,
				"y": -3.5276316913,
				"z": -0.8202737104,
				"element": "C" 
			},
			{
				"x": 3.5932119204,
				"y": -2.3527021306,
				"z": -0.7767492028,
				"element": "C" 
			},
			{
				"x": 0.093075738,
				"y": 0.5747026117,
				"z": -1.429454444,
				"element": "C" 
			},
			{
				"x": 0.6503317563,
				"y": 1.7422313745,
				"z": -1.6516206764,
				"element": "N" 
			},
			{
				"x": -0.3649548238,
				"y": 2.6654538585,
				"z": -1.432089165,
				"element": "C" 
			},
			{
				"x": -1.5662783507,
				"y": 2.0029171417,
				"z": -1.0691344282,
				"element": "C" 
			},
			{
				"x": -1.2320077443,
				"y": 0.6612226364,
				"z": -1.0723853406,
				"element": "N" 
			},
			{
				"x": -2.751128,
				"y": 2.690778837,
				"z": -0.8001049875,
				"element": "C" 
			},
			{
				"x": -2.7071704299,
				"y": 4.0797336818,
				"z": -0.8995672028,
				"element": "C" 
			},
			{
				"x": -1.5227288709,
				"y": 4.7551564401,
				"z": -1.2566500397,
				"element": "C" 
			},
			{
				"x": -0.3458674855,
				"y": 4.0628899917,
				"z": -1.5260584343,
				"element": "C" 
			},
			{
				"x": 0.2027321608,
				"y": -2.7183870774,
				"z": -1.5544276655,
				"element": "H" 
			},
			{
				"x": -0.512902017,
				"y": -1.7912136688,
				"z": -2.6896489815,
				"element": "H" 
			},
			{
				"x": 1.5516281669,
				"y": -0.6953356637,
				"z": -2.2667346637,
				"element": "H" 
			},
			{
				"x": 0.7749737153,
				"y": -1.0715056613,
				"z": 0.659858988,
				"element": "H" 
			},
			{
				"x": 2.1664087065,
				"y": -0.169788765,
				"z": 0.0573490502,
				"element": "H" 
			},
			{
				"x": 0.8946306279,
				"y": -3.4832361596,
				"z": 0.9336333864,
				"element": "H" 
			},
			{
				"x": 2.2210459066,
				"y": -5.5843439513,
				"z": 0.8547545456,
				"element": "H" 
			},
			{
				"x": 5.3708182684,
				"y": -5.7539779912,
				"z": -0.6928102682,
				"element": "H" 
			},
			{
				"x": 5.3163021994,
				"y": -3.535490328,
				"z": -1.3041627304,
				"element": "H" 
			},
			{
				"x": 3.998338169,
				"y": -1.4511351404,
				"z": -1.2299966083,
				"element": "H" 
			},
			{
				"x": -1.8070363867,
				"y": -0.1512381539,
				"z": -0.9031659013,
				"element": "H" 
			},
			{
				"x": -3.6651280705,
				"y": 2.1733170353,
				"z": -0.5239215419,
				"element": "H" 
			},
			{
				"x": -3.6060605076,
				"y": 4.6546497824,
				"z": -0.6967261307,
				"element": "H" 
			},
			{
				"x": -1.5330602014,
				"y": 5.8393109566,
				"z": -1.3217829408,
				"element": "H" 
			},
			{
				"x": 0.56833091,
				"y": 4.5787437397,
				"z": -1.8020861736,
				"element": "H" 
			}
		],
		 "valence_orbital": [ 
			{
				"type": "occ",
				"energy": -0.26039,
				"method": "rhf"
			},
			{
				"type": "occ",
				"energy": -0.25609,
				"method": "rhf"
			},
			{
				"type": "occ",
				"energy": -0.22465,
				"method": "rhf"
			},
			{
				"type": "occ",
				"energy": -0.21702,
				"method": "rhf"
			},
			{
				"type": "occ",
				"energy": -0.21057,
				"method": "rhf"
			},
			{
				"type": "unocc",
				"energy": -0.01243,
				"method": "rhf"
			},
			{
				"type": "unocc",
				"energy": -0.00664,
				"method": "rhf"
			},
			{
				"type": "unocc",
				"energy": 0.00805,
				"method": "rhf"
			},
			{
				"type": "unocc",
				"energy": 0.03188,
				"method": "rhf"
			},
			{
				"type": "unocc",
				"energy": 0.06234,
				"method": "rhf"
			}
		],
		"cosmo_sigma_profile": { 
			"-0.025": 0.0,
			"-0.024": 0.0,
			"-0.023": 0.0,
			"-0.022": 0.0,
			"-0.021": 0.0,
			"-0.02": 0.0,
			"-0.019": 0.0,
			"-0.018": 0.3837459845,
			"-0.017": 0.935701067959,
			"-0.016": 1.27321220018,
			"-0.015": 0.930843669704,
			"-0.014": 1.7045453654,
			"-0.013": 1.49176080433,
			"-0.012": 1.64121605243,
			"-0.011": 2.19488332526,
			"-0.01": 3.31803348244,
			"-0.009": 4.63543535093,
			"-0.008": 4.54999205041,
			"-0.007": 5.54754704696,
			"-0.006": 10.4087559637,
			"-0.005": 19.6630867251,
			"-0.004": 24.6225576902,
			"-0.003": 24.9313330945,
			"-0.002": 19.8975843807,
			"-0.001": 18.508345557,
			"0.0": 15.4621876254,
			"0.001": 15.5520042791,
			"0.002": 17.2972766361,
			"0.003": 17.2567337254,
			"0.004": 22.1540440335,
			"0.005": 22.2625606568,
			"0.006": 15.2290710768,
			"0.007": 7.56606326375,
			"0.008": 3.1837582915,
			"0.009": 2.34062815197,
			"0.01": 3.91530857929,
			"0.011": 3.5515495068,
			"0.012": 1.8601412401,
			"0.013": 1.44064788106,
			"0.014": 1.32077274231,
			"0.015": 0.622901846211,
			"0.016": 1.03475313091,
			"0.017": 0.764295498099,
			"0.018": 0.660499362116,
			"0.019": 0.108600452159,
			"0.02": 0.0,
			"0.021": 0.0,
			"0.022": 0.0,
			"0.023": 0.0,
			"0.024": 0.0,
			"0.025": 0.0
		}
	}
}
