{
	 "smiles": "CC(C)(C)OC(=O)N[C@@H]1CCCC[C@H]1N", 
	 "Tm": 350.15, 
	 "num_atms": 37, 
	 "gaussian": { 
		 "optdone": 1, 
		 "sigma_profile": "yes", 
		 "theory": "DFT", 
		 "functional": "B3LYP", 
		 "basiset": "6-31G**", 
		 "properties": { 
			 "R2extent": 4548.7481, 
			 "electric_dipole_moment_norm": 1.06585692286, 
			 "electric_quadrupole_moment_norm": 8.58721675341, 
			 "total_energy": -692.424950674, 
			 "HOMO_LUMO_gap": 0.28242, 
			 "cosmo_polarized_energy": -10.68, 
			 "cosmo_cavitation_energy": 36.1, 
			 "cosmo_dispersion_energy": -25.47, 
			 "cosmo_repulsion_energy": 2.03, 
			 "cosmo_total_nonelectrostatic_energy": 12.66, 
			 "SMD_solvation_energy": 5.01 
		},
		"coords": [
			{
				"x": 0.3308611956,
				"y": -3.9026440987,
				"z": 0.8517943524,
				"element": "C" 
			},
			{
				"x": -0.6602758888,
				"y": -2.7893822992,
				"z": 0.5008981417,
				"element": "C" 
			},
			{
				"x": -1.7386663774,
				"y": -2.6624805055,
				"z": 1.5827401117,
				"element": "C" 
			},
			{
				"x": -1.2604530809,
				"y": -3.0169099582,
				"z": -0.8912159147,
				"element": "C" 
			},
			{
				"x": 0.1923593783,
				"y": -1.5931089189,
				"z": 0.4946916265,
				"element": "O" 
			},
			{
				"x": -0.3254304973,
				"y": -0.3654179994,
				"z": 0.2193431219,
				"element": "C" 
			},
			{
				"x": -1.49621578,
				"y": -0.1226787108,
				"z": -0.0431660852,
				"element": "O" 
			},
			{
				"x": 0.6714272736,
				"y": 0.5626374647,
				"z": 0.2771496019,
				"element": "N" 
			},
			{
				"x": 0.4859167834,
				"y": 1.9997942316,
				"z": 0.0435677444,
				"element": "C" 
			},
			{
				"x": -0.4772231681,
				"y": 2.6313856128,
				"z": 1.0815709925,
				"element": "C" 
			},
			{
				"x": -1.1186441952,
				"y": 3.9418946274,
				"z": 0.5745205719,
				"element": "C" 
			},
			{
				"x": -0.1688608426,
				"y": 4.6937776013,
				"z": -0.3658366856,
				"element": "C" 
			},
			{
				"x": 0.1413790785,
				"y": 3.8577102017,
				"z": -1.6294794261,
				"element": "C" 
			},
			{
				"x": 0.0569319673,
				"y": 2.3301075902,
				"z": -1.4001701093,
				"element": "C" 
			},
			{
				"x": 0.9575040964,
				"y": 1.6569130155,
				"z": -2.3472539742,
				"element": "N" 
			},
			{
				"x": -0.1842206407,
				"y": -4.867158729,
				"z": 0.8902106501,
				"element": "H" 
			},
			{
				"x": 0.7911778396,
				"y": -3.7163592157,
				"z": 1.8265222834,
				"element": "H" 
			},
			{
				"x": 1.125078082,
				"y": -3.9634536608,
				"z": 0.1018801652,
				"element": "H" 
			},
			{
				"x": -1.2779531341,
				"y": -2.4607823482,
				"z": 2.5550745873,
				"element": "H" 
			},
			{
				"x": -2.2962343508,
				"y": -3.6017469879,
				"z": 1.6594886027,
				"element": "H" 
			},
			{
				"x": -2.4341253986,
				"y": -1.8567922035,
				"z": 1.3468524764,
				"element": "H" 
			},
			{
				"x": -1.9507857424,
				"y": -2.2149378683,
				"z": -1.1535929135,
				"element": "H" 
			},
			{
				"x": -0.4662685152,
				"y": -3.0642084332,
				"z": -1.6434885591,
				"element": "H" 
			},
			{
				"x": -1.8003559966,
				"y": -3.969323261,
				"z": -0.9090321443,
				"element": "H" 
			},
			{
				"x": 1.599433217,
				"y": 0.2126539602,
				"z": 0.4553765889,
				"element": "H" 
			},
			{
				"x": 1.4886128035,
				"y": 2.4239918429,
				"z": 0.1679035845,
				"element": "H" 
			},
			{
				"x": 0.0839447988,
				"y": 2.8157693277,
				"z": 2.0053976408,
				"element": "H" 
			},
			{
				"x": -1.2605152718,
				"y": 1.9079688004,
				"z": 1.3173719987,
				"element": "H" 
			},
			{
				"x": -2.0483773186,
				"y": 3.7150625117,
				"z": 0.0378536165,
				"element": "H" 
			},
			{
				"x": -1.4016351852,
				"y": 4.5716939539,
				"z": 1.4254152348,
				"element": "H" 
			},
			{
				"x": 0.7620955034,
				"y": 4.9148833247,
				"z": 0.1729171853,
				"element": "H" 
			},
			{
				"x": -0.5909010884,
				"y": 5.6638200117,
				"z": -0.650893445,
				"element": "H" 
			},
			{
				"x": 1.1516929588,
				"y": 4.0838770584,
				"z": -1.9904505192,
				"element": "H" 
			},
			{
				"x": -0.5505497905,
				"y": 4.1281587449,
				"z": -2.4368879127,
				"element": "H" 
			},
			{
				"x": -0.9886922124,
				"y": 2.0055597573,
				"z": -1.5103702786,
				"element": "H" 
			},
			{
				"x": 0.7153947187,
				"y": 1.939915587,
				"z": -3.2949127058,
				"element": "H" 
			},
			{
				"x": 0.7976747807,
				"y": 0.6529099723,
				"z": -2.306690206,
				"element": "H" 
			}
		],
		 "valence_orbital": [ 
			{
				"type": "occ",
				"energy": -0.30141,
				"method": "rhf"
			},
			{
				"type": "occ",
				"energy": -0.28327,
				"method": "rhf"
			},
			{
				"type": "occ",
				"energy": -0.25783,
				"method": "rhf"
			},
			{
				"type": "occ",
				"energy": -0.24675,
				"method": "rhf"
			},
			{
				"type": "occ",
				"energy": -0.22561,
				"method": "rhf"
			},
			{
				"type": "unocc",
				"energy": 0.05681,
				"method": "rhf"
			},
			{
				"type": "unocc",
				"energy": 0.07836,
				"method": "rhf"
			},
			{
				"type": "unocc",
				"energy": 0.08675,
				"method": "rhf"
			},
			{
				"type": "unocc",
				"energy": 0.09206,
				"method": "rhf"
			},
			{
				"type": "unocc",
				"energy": 0.09848,
				"method": "rhf"
			}
		],
		"cosmo_sigma_profile": { 
			"-0.025": 0.0,
			"-0.024": 0.0,
			"-0.023": 0.0,
			"-0.022": 0.0,
			"-0.021": 0.0,
			"-0.02": 0.0,
			"-0.019": 0.0,
			"-0.018": 0.0,
			"-0.017": 0.0,
			"-0.016": 0.0,
			"-0.015": 0.0,
			"-0.014": 0.299858407288,
			"-0.013": 1.05884531828,
			"-0.012": 0.690743093363,
			"-0.011": 0.896121107186,
			"-0.01": 1.13593206835,
			"-0.009": 2.28927076114,
			"-0.008": 3.01366836202,
			"-0.007": 3.41997308901,
			"-0.006": 3.93384004291,
			"-0.005": 4.15474873487,
			"-0.004": 13.858988326,
			"-0.003": 27.0559156735,
			"-0.002": 34.247476407,
			"-0.001": 40.8953349638,
			"0.0": 44.1775058521,
			"0.001": 39.367406364,
			"0.002": 11.9831406142,
			"0.003": 7.90371286321,
			"0.004": 3.94088399806,
			"0.005": 5.20996157407,
			"0.006": 4.30689795321,
			"0.007": 4.35278754127,
			"0.008": 3.75345991483,
			"0.009": 3.22756569932,
			"0.01": 0.888054880367,
			"0.011": 1.80149613252,
			"0.012": 2.87435133457,
			"0.013": 2.22308939943,
			"0.014": 1.77433469819,
			"0.015": 0.615449033581,
			"0.016": 0.217990709126,
			"0.017": 0.589127709261,
			"0.018": 0.631170084888,
			"0.019": 0.4400811281,
			"0.02": 0.197251090968,
			"0.021": 0.0,
			"0.022": 0.0,
			"0.023": 0.0,
			"0.024": 0.0,
			"0.025": 0.0
		}
	}
}
