{
	 "smiles": "CC1=C(N)SC(=N1)C1=CC=CC=C1", 
	 "Tm": 391.15, 
	 "num_atms": 23, 
	 "gaussian": { 
		 "optdone": 1, 
		 "sigma_profile": "yes", 
		 "theory": "DFT", 
		 "functional": "B3LYP", 
		 "basiset": "6-31G**", 
		 "properties": { 
			 "R2extent": 3252.0538, 
			 "electric_dipole_moment_norm": 2.31482184196, 
			 "electric_quadrupole_moment_norm": 14.259320475, 
			 "total_energy": -894.783359498, 
			 "HOMO_LUMO_gap": 0.15083, 
			 "cosmo_polarized_energy": -11.28, 
			 "cosmo_cavitation_energy": 28.29, 
			 "cosmo_dispersion_energy": -21.58, 
			 "cosmo_repulsion_energy": 1.67, 
			 "cosmo_total_nonelectrostatic_energy": 8.38, 
			 "SMD_solvation_energy": 3.22 
		},
		"coords": [
			{
				"x": -2.001090106,
				"y": -1.3015882003,
				"z": 2.8117555239,
				"element": "C" 
			},
			{
				"x": -1.3669106761,
				"y": -0.3017962868,
				"z": 1.8869825387,
				"element": "C" 
			},
			{
				"x": -1.597444489,
				"y": 1.0563604659,
				"z": 1.8949255272,
				"element": "C" 
			},
			{
				"x": -2.371828701,
				"y": 1.8131507462,
				"z": 2.7726770666,
				"element": "N" 
			},
			{
				"x": -0.6252326882,
				"y": 1.8374321319,
				"z": 0.6674868166,
				"element": "S" 
			},
			{
				"x": 0.0100222348,
				"y": 0.2396639489,
				"z": 0.2089712707,
				"element": "C" 
			},
			{
				"x": -0.464390371,
				"y": -0.7277465405,
				"z": 0.9409045447,
				"element": "N" 
			},
			{
				"x": 0.9575150092,
				"y": 0.0628984112,
				"z": -0.8962451858,
				"element": "C" 
			},
			{
				"x": 1.3995828949,
				"y": -1.2347983088,
				"z": -1.2153175106,
				"element": "C" 
			},
			{
				"x": 2.2989269764,
				"y": -1.4368169729,
				"z": -2.2574073105,
				"element": "C" 
			},
			{
				"x": 2.7752553805,
				"y": -0.3538543122,
				"z": -3.002387042,
				"element": "C" 
			},
			{
				"x": 2.3424554462,
				"y": 0.9368241829,
				"z": -2.6928729779,
				"element": "C" 
			},
			{
				"x": 1.4428445443,
				"y": 1.1449535599,
				"z": -1.6491931206,
				"element": "C" 
			},
			{
				"x": -2.9938528332,
				"y": -0.9775006945,
				"z": 3.1453618595,
				"element": "H" 
			},
			{
				"x": -2.1171578884,
				"y": -2.258352315,
				"z": 2.2963967041,
				"element": "H" 
			},
			{
				"x": -1.3931983606,
				"y": -1.4803673164,
				"z": 3.7075065174,
				"element": "H" 
			},
			{
				"x": -2.9464561421,
				"y": 2.5202127799,
				"z": 2.3290804269,
				"element": "H" 
			},
			{
				"x": -2.9263893302,
				"y": 1.2429883895,
				"z": 3.3992101085,
				"element": "H" 
			},
			{
				"x": 1.0232675115,
				"y": -2.0673715577,
				"z": -0.6313695016,
				"element": "H" 
			},
			{
				"x": 2.6304324994,
				"y": -2.4447479997,
				"z": -2.4909984139,
				"element": "H" 
			},
			{
				"x": 3.4772332142,
				"y": -0.5147052433,
				"z": -3.815367934,
				"element": "H" 
			},
			{
				"x": 2.7066273293,
				"y": 1.7859304755,
				"z": -3.2641042754,
				"element": "H" 
			},
			{
				"x": 1.1187885449,
				"y": 2.1568306564,
				"z": -1.4205956324,
				"element": "H" 
			}
		],
		 "valence_orbital": [ 
			{
				"type": "occ",
				"energy": -0.26491,
				"method": "rhf"
			},
			{
				"type": "occ",
				"energy": -0.26333,
				"method": "rhf"
			},
			{
				"type": "occ",
				"energy": -0.25577,
				"method": "rhf"
			},
			{
				"type": "occ",
				"energy": -0.24718,
				"method": "rhf"
			},
			{
				"type": "occ",
				"energy": -0.19031,
				"method": "rhf"
			},
			{
				"type": "unocc",
				"energy": -0.03948,
				"method": "rhf"
			},
			{
				"type": "unocc",
				"energy": 0.00264,
				"method": "rhf"
			},
			{
				"type": "unocc",
				"energy": 0.01547,
				"method": "rhf"
			},
			{
				"type": "unocc",
				"energy": 0.03588,
				"method": "rhf"
			},
			{
				"type": "unocc",
				"energy": 0.06171,
				"method": "rhf"
			}
		],
		"cosmo_sigma_profile": { 
			"-0.025": 0.0,
			"-0.024": 0.0,
			"-0.023": 0.0,
			"-0.022": 0.0,
			"-0.021": 0.0,
			"-0.02": 0.0,
			"-0.019": 0.0,
			"-0.018": 0.0,
			"-0.017": 0.0,
			"-0.016": 0.0,
			"-0.015": 0.0,
			"-0.014": 0.214276342572,
			"-0.013": 1.67252437774,
			"-0.012": 3.0253247579,
			"-0.011": 3.3412204018,
			"-0.01": 2.97187384689,
			"-0.009": 2.66409886311,
			"-0.008": 2.0557630291,
			"-0.007": 2.79302147895,
			"-0.006": 8.41999524006,
			"-0.005": 11.7662533387,
			"-0.004": 16.7883407268,
			"-0.003": 15.2799753234,
			"-0.002": 14.7037783607,
			"-0.001": 14.9443939653,
			"0.0": 16.0447330879,
			"0.001": 14.0018444828,
			"0.002": 19.5522172909,
			"0.003": 20.8867425665,
			"0.004": 20.1843064484,
			"0.005": 15.874605641,
			"0.006": 6.4930795689,
			"0.007": 2.87532548625,
			"0.008": 2.5963192315,
			"0.009": 2.29459546442,
			"0.01": 2.19329901332,
			"0.011": 1.39907640425,
			"0.012": 1.9834534906,
			"0.013": 0.692226342324,
			"0.014": 0.299348517766,
			"0.015": 0.0,
			"0.016": 0.0,
			"0.017": 0.0,
			"0.018": 0.0,
			"0.019": 0.0,
			"0.02": 0.0,
			"0.021": 0.0,
			"0.022": 0.0,
			"0.023": 0.0,
			"0.024": 0.0,
			"0.025": 0.0
		}
	}
}
