{
	 "smiles": "CNS(=O)(=O)C1=C(Cl)C=CC(=C1)C(O)=O", 
	 "Tm": 500.15, 
	 "num_atms": 23, 
	 "gaussian": { 
		 "optdone": 1, 
		 "sigma_profile": "yes", 
		 "theory": "DFT", 
		 "functional": "B3LYP", 
		 "basiset": "6-31G**", 
		 "properties": { 
			 "R2extent": 4200.4044, 
			 "electric_dipole_moment_norm": 2.78207782781, 
			 "electric_quadrupole_moment_norm": 36.0730542738, 
			 "total_energy": -1523.62158785, 
			 "HOMO_LUMO_gap": 0.19743, 
			 "cosmo_polarized_energy": -24.73, 
			 "cosmo_cavitation_energy": 30.99, 
			 "cosmo_dispersion_energy": -22.63, 
			 "cosmo_repulsion_energy": 1.73, 
			 "cosmo_total_nonelectrostatic_energy": 10.08, 
			 "SMD_solvation_energy": 5.74 
		},
		"coords": [
			{
				"x": -0.3733603116,
				"y": 3.1517334044,
				"z": 1.3108748847,
				"element": "C" 
			},
			{
				"x": -0.2396323012,
				"y": 2.4109521986,
				"z": 0.0482150068,
				"element": "N" 
			},
			{
				"x": -1.1504187389,
				"y": 1.0133373943,
				"z": -0.1598553031,
				"element": "S" 
			},
			{
				"x": -2.0884033271,
				"y": 0.8798337218,
				"z": 0.955686737,
				"element": "O" 
			},
			{
				"x": -1.5945871306,
				"y": 1.0179669906,
				"z": -1.5550361865,
				"element": "O" 
			},
			{
				"x": 0.0887203661,
				"y": -0.2992369548,
				"z": 0.0239140675,
				"element": "C" 
			},
			{
				"x": -0.2851371066,
				"y": -1.6532783099,
				"z": -0.0559292697,
				"element": "C" 
			},
			{
				"x": -1.9318899659,
				"y": -2.146007871,
				"z": -0.334934767,
				"element": "Cl" 
			},
			{
				"x": 0.6811511553,
				"y": -2.6520397307,
				"z": 0.0750023106,
				"element": "C" 
			},
			{
				"x": 2.0121312079,
				"y": -2.3129470929,
				"z": 0.3020573046,
				"element": "C" 
			},
			{
				"x": 2.3948460663,
				"y": -0.9703109508,
				"z": 0.3951316388,
				"element": "C" 
			},
			{
				"x": 1.4254983322,
				"y": 0.0268239946,
				"z": 0.23382499,
				"element": "C" 
			},
			{
				"x": 3.8092433482,
				"y": -0.5197062885,
				"z": 0.6180339626,
				"element": "C" 
			},
			{
				"x": 4.669918172,
				"y": -1.4310447795,
				"z": 1.1406219318,
				"element": "O" 
			},
			{
				"x": 4.1922722541,
				"y": 0.595085238,
				"z": 0.3546023898,
				"element": "O" 
			},
			{
				"x": -1.3847432338,
				"y": 3.5317924159,
				"z": 1.4858584138,
				"element": "H" 
			},
			{
				"x": -0.0982112823,
				"y": 2.5028183182,
				"z": 2.1438703519,
				"element": "H" 
			},
			{
				"x": 0.3329515723,
				"y": 3.9846154837,
				"z": 1.2785338111,
				"element": "H" 
			},
			{
				"x": -0.3421914938,
				"y": 2.970408984,
				"z": -0.7935210691,
				"element": "H" 
			},
			{
				"x": 0.3817575249,
				"y": -3.6904099215,
				"z": -0.0099716386,
				"element": "H" 
			},
			{
				"x": 2.7446596889,
				"y": -3.1135184097,
				"z": 0.3653176672,
				"element": "H" 
			},
			{
				"x": 1.7288376541,
				"y": 1.0656032279,
				"z": 0.268452866,
				"element": "H" 
			},
			{
				"x": 4.1933875495,
				"y": -2.2101710627,
				"z": 1.4581498998,
				"element": "H" 
			}
		],
		 "valence_orbital": [ 
			{
				"type": "occ",
				"energy": -0.31556,
				"method": "rhf"
			},
			{
				"type": "occ",
				"energy": -0.29329,
				"method": "rhf"
			},
			{
				"type": "occ",
				"energy": -0.28854,
				"method": "rhf"
			},
			{
				"type": "occ",
				"energy": -0.28378,
				"method": "rhf"
			},
			{
				"type": "occ",
				"energy": -0.27396,
				"method": "rhf"
			},
			{
				"type": "unocc",
				"energy": -0.07653,
				"method": "rhf"
			},
			{
				"type": "unocc",
				"energy": -0.05315,
				"method": "rhf"
			},
			{
				"type": "unocc",
				"energy": 0.0024,
				"method": "rhf"
			},
			{
				"type": "unocc",
				"energy": 0.01895,
				"method": "rhf"
			},
			{
				"type": "unocc",
				"energy": 0.04908,
				"method": "rhf"
			}
		],
		"cosmo_sigma_profile": { 
			"-0.025": 0.0,
			"-0.024": 0.0,
			"-0.023": 0.0,
			"-0.022": 0.0,
			"-0.021": 0.0,
			"-0.02": 0.348939466601,
			"-0.019": 0.671177520491,
			"-0.018": 0.957739206994,
			"-0.017": 1.53727583053,
			"-0.016": 1.05315443873,
			"-0.015": 1.5950935358,
			"-0.014": 2.04377645258,
			"-0.013": 2.50249097837,
			"-0.012": 2.35764458829,
			"-0.011": 2.43388852921,
			"-0.01": 2.28775575889,
			"-0.009": 5.28743774062,
			"-0.008": 5.59332665732,
			"-0.007": 6.38355897505,
			"-0.006": 9.90544995136,
			"-0.005": 12.597089084,
			"-0.004": 15.1931669758,
			"-0.003": 17.4462043297,
			"-0.002": 17.6297802818,
			"-0.001": 22.3096058118,
			"0.0": 17.9079271556,
			"0.001": 9.49934195097,
			"0.002": 10.7877013735,
			"0.003": 9.37600902114,
			"0.004": 5.81910946572,
			"0.005": 6.22485611001,
			"0.006": 5.8202629062,
			"0.007": 6.10411141735,
			"0.008": 7.31414996503,
			"0.009": 8.49202102463,
			"0.01": 16.0706171576,
			"0.011": 12.5007518949,
			"0.012": 3.31701519539,
			"0.013": 0.501337560099,
			"0.014": 0.0,
			"0.015": 0.0,
			"0.016": 0.0,
			"0.017": 0.0,
			"0.018": 0.0,
			"0.019": 0.0,
			"0.02": 0.0,
			"0.021": 0.0,
			"0.022": 0.0,
			"0.023": 0.0,
			"0.024": 0.0,
			"0.025": 0.0
		}
	}
}
