{
	 "smiles": "C1=CC=C2C(=C1)C1=CC=CC3=CC=C4C=CC=C2C4=C13", 
	 "Tm": 454.15, 
	 "num_atms": 32, 
	 "gaussian": { 
		 "optdone": 1, 
		 "sigma_profile": "yes", 
		 "theory": "DFT", 
		 "functional": "B3LYP", 
		 "basiset": "6-31G**", 
		 "properties": { 
			 "R2extent": 4885.6444, 
			 "electric_dipole_moment_norm": 0.0795289884256, 
			 "electric_quadrupole_moment_norm": 16.9142614214, 
			 "total_energy": -769.4194717, 
			 "HOMO_LUMO_gap": 0.14736, 
			 "cosmo_polarized_energy": -7.51, 
			 "cosmo_cavitation_energy": 33.77, 
			 "cosmo_dispersion_energy": -25.75, 
			 "cosmo_repulsion_energy": 1.84, 
			 "cosmo_total_nonelectrostatic_energy": 9.85, 
			 "SMD_solvation_energy": 4.44 
		},
		"coords": [
			{
				"x": -3.7751481532,
				"y": 0.4830904096,
				"z": 1.1685876138,
				"element": "C" 
			},
			{
				"x": -3.5019694926,
				"y": 1.8550917337,
				"z": 1.088152812,
				"element": "C" 
			},
			{
				"x": -2.2163971677,
				"y": 2.2812973881,
				"z": 0.8046472618,
				"element": "C" 
			},
			{
				"x": -1.1583262333,
				"y": 1.3700470894,
				"z": 0.5911802847,
				"element": "C" 
			},
			{
				"x": -1.4356236885,
				"y": -0.022555069,
				"z": 0.6727291309,
				"element": "C" 
			},
			{
				"x": -2.7563746281,
				"y": -0.4305792024,
				"z": 0.9635755173,
				"element": "C" 
			},
			{
				"x": -0.3623024182,
				"y": -1.000491435,
				"z": 0.4569024702,
				"element": "C" 
			},
			{
				"x": -0.5788425787,
				"y": -2.384122816,
				"z": 0.5250091601,
				"element": "C" 
			},
			{
				"x": 0.4554206117,
				"y": -3.2982625865,
				"z": 0.3166016355,
				"element": "C" 
			},
			{
				"x": 1.7381936878,
				"y": -2.8535431422,
				"z": 0.0336350299,
				"element": "C" 
			},
			{
				"x": 2.0092798236,
				"y": -1.4771894801,
				"z": -0.0460969056,
				"element": "C" 
			},
			{
				"x": 3.3310785432,
				"y": -0.9984866267,
				"z": -0.3380003805,
				"element": "C" 
			},
			{
				"x": 3.5960233453,
				"y": 0.3319276896,
				"z": -0.4157805582,
				"element": "C" 
			},
			{
				"x": 2.5640384152,
				"y": 1.3085324895,
				"z": -0.2089731846,
				"element": "C" 
			},
			{
				"x": 2.840886912,
				"y": 2.6836567744,
				"z": -0.2901409115,
				"element": "C" 
			},
			{
				"x": 1.8317812077,
				"y": 3.6131818315,
				"z": -0.087563103,
				"element": "C" 
			},
			{
				"x": 0.5317561316,
				"y": 3.1928311857,
				"z": 0.1988331535,
				"element": "C" 
			},
			{
				"x": 0.2019870615,
				"y": 1.8331665605,
				"z": 0.291140273,
				"element": "C" 
			},
			{
				"x": 1.2342222039,
				"y": 0.8711454433,
				"z": 0.0840657851,
				"element": "C" 
			},
			{
				"x": 0.9541459382,
				"y": -0.5353016632,
				"z": 0.1663183736,
				"element": "C" 
			},
			{
				"x": -4.7795662775,
				"y": 0.1346253418,
				"z": 1.3903932459,
				"element": "H" 
			},
			{
				"x": -4.2920346677,
				"y": 2.5831711378,
				"z": 1.2468322916,
				"element": "H" 
			},
			{
				"x": -2.029128081,
				"y": 3.3469161697,
				"z": 0.7475782941,
				"element": "H" 
			},
			{
				"x": -2.9914669692,
				"y": -1.486077909,
				"z": 1.030830527,
				"element": "H" 
			},
			{
				"x": -1.5664303986,
				"y": -2.7719877813,
				"z": 0.7436180908,
				"element": "H" 
			},
			{
				"x": 0.248622759,
				"y": -4.3628053157,
				"z": 0.377627549,
				"element": "H" 
			},
			{
				"x": 2.5457495154,
				"y": -3.5622759105,
				"z": -0.129166316,
				"element": "H" 
			},
			{
				"x": 4.1193231328,
				"y": -1.7298789603,
				"z": -0.4962387729,
				"element": "H" 
			},
			{
				"x": 4.6000705085,
				"y": 0.6841855178,
				"z": -0.6373843572,
				"element": "H" 
			},
			{
				"x": 3.8540318207,
				"y": 3.0072313343,
				"z": -0.5132772428,
				"element": "H" 
			},
			{
				"x": 2.0485610684,
				"y": 4.6756019153,
				"z": -0.1508920591,
				"element": "H" 
			},
			{
				"x": -0.2277619323,
				"y": 3.950257886,
				"z": 0.3504552917,
				"element": "H" 
			}
		],
		 "valence_orbital": [ 
			{
				"type": "occ",
				"energy": -0.28432,
				"method": "rhf"
			},
			{
				"type": "occ",
				"energy": -0.24787,
				"method": "rhf"
			},
			{
				"type": "occ",
				"energy": -0.24444,
				"method": "rhf"
			},
			{
				"type": "occ",
				"energy": -0.21776,
				"method": "rhf"
			},
			{
				"type": "occ",
				"energy": -0.1992,
				"method": "rhf"
			},
			{
				"type": "unocc",
				"energy": -0.05184,
				"method": "rhf"
			},
			{
				"type": "unocc",
				"energy": -0.03425,
				"method": "rhf"
			},
			{
				"type": "unocc",
				"energy": -0.01373,
				"method": "rhf"
			},
			{
				"type": "unocc",
				"energy": -0.00667,
				"method": "rhf"
			},
			{
				"type": "unocc",
				"energy": 0.04046,
				"method": "rhf"
			}
		],
		"cosmo_sigma_profile": { 
			"-0.025": 0.0,
			"-0.024": 0.0,
			"-0.023": 0.0,
			"-0.022": 0.0,
			"-0.021": 0.0,
			"-0.02": 0.0,
			"-0.019": 0.0,
			"-0.018": 0.0,
			"-0.017": 0.0,
			"-0.016": 0.0,
			"-0.015": 0.0,
			"-0.014": 0.0,
			"-0.013": 0.0,
			"-0.012": 0.0,
			"-0.011": 0.0,
			"-0.01": 0.0,
			"-0.009": 0.427026375746,
			"-0.008": 2.69702530702,
			"-0.007": 3.96871492712,
			"-0.006": 18.6914733256,
			"-0.005": 21.6532186038,
			"-0.004": 23.2512489496,
			"-0.003": 17.7271977485,
			"-0.002": 15.0740456985,
			"-0.001": 14.4520470276,
			"0.0": 12.7337259807,
			"0.001": 16.2725693862,
			"0.002": 23.0410045702,
			"0.003": 40.0127558708,
			"0.004": 38.35563275,
			"0.005": 23.3457854437,
			"0.006": 1.53018194501,
			"0.007": 0.0,
			"0.008": 0.0,
			"0.009": 0.0,
			"0.01": 0.0,
			"0.011": 0.0,
			"0.012": 0.0,
			"0.013": 0.0,
			"0.014": 0.0,
			"0.015": 0.0,
			"0.016": 0.0,
			"0.017": 0.0,
			"0.018": 0.0,
			"0.019": 0.0,
			"0.02": 0.0,
			"0.021": 0.0,
			"0.022": 0.0,
			"0.023": 0.0,
			"0.024": 0.0,
			"0.025": 0.0
		}
	}
}
