{
	 "smiles": "COC1=CC=C(C=C1)C1=NN=C2SC(NN12)C1=CC=C(C=C1)[N+]([O-])=O", 
	 "Tm": 483.15, 
	 "num_atms": 38, 
	 "gaussian": { 
		 "optdone": 1, 
		 "sigma_profile": "yes", 
		 "theory": "DFT", 
		 "functional": "B3LYP", 
		 "basiset": "6-31G**", 
		 "properties": { 
			 "R2extent": 15139.951, 
			 "electric_dipole_moment_norm": 3.79306203746, 
			 "electric_quadrupole_moment_norm": 36.9219481968, 
			 "total_energy": -1514.97149619, 
			 "HOMO_LUMO_gap": 0.10157, 
			 "cosmo_polarized_energy": -26.45, 
			 "cosmo_cavitation_energy": 45.43, 
			 "cosmo_dispersion_energy": -33.19, 
			 "cosmo_repulsion_energy": 2.42, 
			 "cosmo_total_nonelectrostatic_energy": 14.67, 
			 "SMD_solvation_energy": 7.52 
		},
		"coords": [
			{
				"x": -6.2658951375,
				"y": -1.5456022879,
				"z": 1.4989277217,
				"element": "C" 
			},
			{
				"x": -5.0076957691,
				"y": -0.9370864269,
				"z": 1.7526994914,
				"element": "O" 
			},
			{
				"x": -3.977565503,
				"y": -1.2002128144,
				"z": 0.9026075444,
				"element": "C" 
			},
			{
				"x": -4.0635511877,
				"y": -2.0322448723,
				"z": -0.2231324972,
				"element": "C" 
			},
			{
				"x": -2.9432160117,
				"y": -2.2270029182,
				"z": -1.0256980198,
				"element": "C" 
			},
			{
				"x": -1.7209838081,
				"y": -1.604809296,
				"z": -0.7295355272,
				"element": "C" 
			},
			{
				"x": -1.6459889559,
				"y": -0.7747930556,
				"z": 0.4045674607,
				"element": "C" 
			},
			{
				"x": -2.7590686706,
				"y": -0.5753848674,
				"z": 1.2085861963,
				"element": "C" 
			},
			{
				"x": -0.5792656203,
				"y": -1.8586228284,
				"z": -1.6072773605,
				"element": "C" 
			},
			{
				"x": -0.5563869589,
				"y": -2.7329552683,
				"z": -2.6004813031,
				"element": "N" 
			},
			{
				"x": 0.6936548539,
				"y": -2.7170721872,
				"z": -3.2079771107,
				"element": "N" 
			},
			{
				"x": 1.3897333825,
				"y": -1.8128782499,
				"z": -2.5767151146,
				"element": "C" 
			},
			{
				"x": 3.0209409223,
				"y": -1.1497759532,
				"z": -2.6619709504,
				"element": "S" 
			},
			{
				"x": 2.6941823073,
				"y": -0.4569264389,
				"z": -0.9096468238,
				"element": "C" 
			},
			{
				"x": 1.2506869519,
				"y": -0.2120879671,
				"z": -0.8114858458,
				"element": "N" 
			},
			{
				"x": 0.65622517,
				"y": -1.2439613514,
				"z": -1.5640623714,
				"element": "N" 
			},
			{
				"x": 3.5001556145,
				"y": 0.7741206494,
				"z": -0.585540331,
				"element": "C" 
			},
			{
				"x": 4.1835981457,
				"y": 0.8421466217,
				"z": 0.6360976744,
				"element": "C" 
			},
			{
				"x": 4.9027842236,
				"y": 1.9820214067,
				"z": 0.9858221002,
				"element": "C" 
			},
			{
				"x": 4.9257771535,
				"y": 3.0519707757,
				"z": 0.0955334785,
				"element": "C" 
			},
			{
				"x": 4.2603104481,
				"y": 3.0146329764,
				"z": -1.1276917835,
				"element": "C" 
			},
			{
				"x": 3.5489826937,
				"y": 1.8668329029,
				"z": -1.4648399013,
				"element": "C" 
			},
			{
				"x": 5.6842452277,
				"y": 4.2645930196,
				"z": 0.4577935036,
				"element": "N" 
			},
			{
				"x": 5.6830895937,
				"y": 5.1948050192,
				"z": -0.3458171071,
				"element": "O" 
			},
			{
				"x": 6.2666950361,
				"y": 4.2665085881,
				"z": 1.5403362874,
				"element": "O" 
			},
			{
				"x": -6.19909072,
				"y": -2.6403467006,
				"z": 1.5310087273,
				"element": "H" 
			},
			{
				"x": -6.6748879352,
				"y": -1.2385786418,
				"z": 0.5280901695,
				"element": "H" 
			},
			{
				"x": -6.9306492046,
				"y": -1.2029299087,
				"z": 2.29307211,
				"element": "H" 
			},
			{
				"x": -4.9916480133,
				"y": -2.5276345134,
				"z": -0.4817804419,
				"element": "H" 
			},
			{
				"x": -3.0014356772,
				"y": -2.8703034451,
				"z": -1.896947045,
				"element": "H" 
			},
			{
				"x": -0.7093900298,
				"y": -0.2926412857,
				"z": 0.6627956837,
				"element": "H" 
			},
			{
				"x": -2.7103329941,
				"y": 0.0608180022,
				"z": 2.0861065511,
				"element": "H" 
			},
			{
				"x": 2.9386100533,
				"y": -1.2738838883,
				"z": -0.227902096,
				"element": "H" 
			},
			{
				"x": 1.0250765905,
				"y": 0.6747770565,
				"z": -1.2704434475,
				"element": "H" 
			},
			{
				"x": 4.1502258344,
				"y": -0.0005908708,
				"z": 1.3198811168,
				"element": "H" 
			},
			{
				"x": 5.4385460881,
				"y": 2.0553533727,
				"z": 1.9237526153,
				"element": "H" 
			},
			{
				"x": 4.3146037117,
				"y": 3.8684862497,
				"z": -1.7911612544,
				"element": "H" 
			},
			{
				"x": 3.0481281945,
				"y": 1.8100593968,
				"z": -2.4263720999,
				"element": "H" 
			}
		],
		 "valence_orbital": [ 
			{
				"type": "occ",
				"energy": -0.28018,
				"method": "rhf"
			},
			{
				"type": "occ",
				"energy": -0.26129,
				"method": "rhf"
			},
			{
				"type": "occ",
				"energy": -0.25647,
				"method": "rhf"
			},
			{
				"type": "occ",
				"energy": -0.252,
				"method": "rhf"
			},
			{
				"type": "occ",
				"energy": -0.21045,
				"method": "rhf"
			},
			{
				"type": "unocc",
				"energy": -0.10888,
				"method": "rhf"
			},
			{
				"type": "unocc",
				"energy": -0.05354,
				"method": "rhf"
			},
			{
				"type": "unocc",
				"energy": -0.03838,
				"method": "rhf"
			},
			{
				"type": "unocc",
				"energy": -0.02893,
				"method": "rhf"
			},
			{
				"type": "unocc",
				"energy": -0.01236,
				"method": "rhf"
			}
		],
		"cosmo_sigma_profile": { 
			"-0.025": 0.0,
			"-0.024": 0.0,
			"-0.023": 0.0,
			"-0.022": 0.0,
			"-0.021": 0.0,
			"-0.02": 0.0,
			"-0.019": 0.0,
			"-0.018": 0.0,
			"-0.017": 0.0,
			"-0.016": 0.0,
			"-0.015": 0.81036189511,
			"-0.014": 1.44689750637,
			"-0.013": 2.1287133411,
			"-0.012": 1.52781028072,
			"-0.011": 1.51175549477,
			"-0.01": 2.45406206025,
			"-0.009": 5.90049134033,
			"-0.008": 9.81414148633,
			"-0.007": 12.3124659073,
			"-0.006": 20.148076606,
			"-0.005": 23.9984671575,
			"-0.004": 24.1802655031,
			"-0.003": 24.4894817268,
			"-0.002": 24.9914982506,
			"-0.001": 24.621536387,
			"0.0": 29.7538803936,
			"0.001": 23.5763192631,
			"0.002": 18.1394820934,
			"0.003": 21.9034862512,
			"0.004": 22.9406255076,
			"0.005": 12.0842828221,
			"0.006": 8.05083318006,
			"0.007": 12.524188051,
			"0.008": 9.77691450331,
			"0.009": 7.46492259718,
			"0.01": 4.91997156161,
			"0.011": 2.47461300655,
			"0.012": 2.69409963469,
			"0.013": 3.5720134242,
			"0.014": 3.25543326041,
			"0.015": 2.66422775595,
			"0.016": 1.15313387425,
			"0.017": 0.145782448492,
			"0.018": 0.0,
			"0.019": 0.0,
			"0.02": 0.0,
			"0.021": 0.0,
			"0.022": 0.0,
			"0.023": 0.0,
			"0.024": 0.0,
			"0.025": 0.0
		}
	}
}
