{
	 "smiles": "CC(OC1=CC=CC(Cl)=C1)C(O)=O", 
	 "Tm": 387.15, 
	 "num_atms": 22, 
	 "gaussian": { 
		 "optdone": 1, 
		 "sigma_profile": "yes", 
		 "theory": "DFT", 
		 "functional": "B3LYP", 
		 "basiset": "6-31G**", 
		 "properties": { 
			 "R2extent": 4249.9943, 
			 "electric_dipole_moment_norm": 2.11391769707, 
			 "electric_quadrupole_moment_norm": 18.9446737093, 
			 "total_energy": -1034.24996735, 
			 "HOMO_LUMO_gap": 0.21936, 
			 "cosmo_polarized_energy": -12.32, 
			 "cosmo_cavitation_energy": 28.24, 
			 "cosmo_dispersion_energy": -20.37, 
			 "cosmo_repulsion_energy": 1.64, 
			 "cosmo_total_nonelectrostatic_energy": 9.51, 
			 "SMD_solvation_energy": 5.88 
		},
		"coords": [
			{
				"x": 0.1558230866,
				"y": -0.624972295,
				"z": 3.5106434879,
				"element": "C" 
			},
			{
				"x": 0.680842912,
				"y": -0.3592994898,
				"z": 2.1011735137,
				"element": "C" 
			},
			{
				"x": -0.0483356448,
				"y": -1.2129716677,
				"z": 1.2057034946,
				"element": "O" 
			},
			{
				"x": 0.5326087805,
				"y": -1.5722996816,
				"z": 0.0060603714,
				"element": "C" 
			},
			{
				"x": 1.6351781263,
				"y": -0.9275313217,
				"z": -0.5628844582,
				"element": "C" 
			},
			{
				"x": 2.1197229465,
				"y": -1.3782168527,
				"z": -1.7940668854,
				"element": "C" 
			},
			{
				"x": 1.5261937934,
				"y": -2.4461066825,
				"z": -2.4626026428,
				"element": "C" 
			},
			{
				"x": 0.4229127872,
				"y": -3.0663463478,
				"z": -1.8723444166,
				"element": "C" 
			},
			{
				"x": -0.3465578564,
				"y": -4.4170231974,
				"z": -2.6906750241,
				"element": "Cl" 
			},
			{
				"x": -0.0814497225,
				"y": -2.6476573257,
				"z": -0.6466564628,
				"element": "C" 
			},
			{
				"x": 0.4845443743,
				"y": 1.1207584209,
				"z": 1.7315970249,
				"element": "C" 
			},
			{
				"x": -0.6197298861,
				"y": 1.381017717,
				"z": 1.006021366,
				"element": "O" 
			},
			{
				"x": 1.236746527,
				"y": 1.9853833434,
				"z": 2.1075064984,
				"element": "O" 
			},
			{
				"x": 0.6697811589,
				"y": 0.0273423129,
				"z": 4.2204337731,
				"element": "H" 
			},
			{
				"x": 0.3335833653,
				"y": -1.6674911873,
				"z": 3.7847438487,
				"element": "H" 
			},
			{
				"x": -0.9185149578,
				"y": -0.4267181904,
				"z": 3.5652709052,
				"element": "H" 
			},
			{
				"x": 1.7512829444,
				"y": -0.5787637797,
				"z": 2.0500598037,
				"element": "H" 
			},
			{
				"x": 2.1089849083,
				"y": -0.0814771417,
				"z": -0.0795321039,
				"element": "H" 
			},
			{
				"x": 2.9741359416,
				"y": -0.8782481502,
				"z": -2.2398156596,
				"element": "H" 
			},
			{
				"x": 1.9026029403,
				"y": -2.7914595856,
				"z": -3.4181392304,
				"element": "H" 
			},
			{
				"x": -0.9314546729,
				"y": -3.1377759316,
				"z": -0.1873231339,
				"element": "H" 
			},
			{
				"x": -1.0455018521,
				"y": 0.5314570339,
				"z": 0.79452593,
				"element": "H" 
			}
		],
		 "valence_orbital": [ 
			{
				"type": "occ",
				"energy": -0.3223,
				"method": "rhf"
			},
			{
				"type": "occ",
				"energy": -0.32043,
				"method": "rhf"
			},
			{
				"type": "occ",
				"energy": -0.27943,
				"method": "rhf"
			},
			{
				"type": "occ",
				"energy": -0.26194,
				"method": "rhf"
			},
			{
				"type": "occ",
				"energy": -0.24713,
				"method": "rhf"
			},
			{
				"type": "unocc",
				"energy": -0.02777,
				"method": "rhf"
			},
			{
				"type": "unocc",
				"energy": -0.01533,
				"method": "rhf"
			},
			{
				"type": "unocc",
				"energy": -0.00167,
				"method": "rhf"
			},
			{
				"type": "unocc",
				"energy": 0.02,
				"method": "rhf"
			},
			{
				"type": "unocc",
				"energy": 0.07163,
				"method": "rhf"
			}
		],
		"cosmo_sigma_profile": { 
			"-0.025": 0.0,
			"-0.024": 0.0,
			"-0.023": 0.0,
			"-0.022": 0.0,
			"-0.021": 0.0,
			"-0.02": 0.0,
			"-0.019": 0.0,
			"-0.018": 0.0,
			"-0.017": 0.0,
			"-0.016": 0.283367878894,
			"-0.015": 0.572422185466,
			"-0.014": 0.438249129528,
			"-0.013": 0.651664638074,
			"-0.012": 1.16986936702,
			"-0.011": 0.741869623901,
			"-0.01": 1.50592335043,
			"-0.009": 1.19253558648,
			"-0.008": 4.65579081814,
			"-0.007": 10.0745281195,
			"-0.006": 12.598083743,
			"-0.005": 15.7805440704,
			"-0.004": 14.1565933888,
			"-0.003": 14.3231341425,
			"-0.002": 15.9971367448,
			"-0.001": 14.225630517,
			"0.0": 12.6209674306,
			"0.001": 15.6509545707,
			"0.002": 20.7337686739,
			"0.003": 16.7682409473,
			"0.004": 16.7016443591,
			"0.005": 8.60659700488,
			"0.006": 3.0470889132,
			"0.007": 3.09567924821,
			"0.008": 2.92103936365,
			"0.009": 4.77592544468,
			"0.01": 3.47563676016,
			"0.011": 5.27878211164,
			"0.012": 4.41455329651,
			"0.013": 0.823481483575,
			"0.014": 0.0,
			"0.015": 0.0,
			"0.016": 0.0,
			"0.017": 0.0,
			"0.018": 0.0,
			"0.019": 0.0,
			"0.02": 0.0,
			"0.021": 0.0,
			"0.022": 0.0,
			"0.023": 0.0,
			"0.024": 0.0,
			"0.025": 0.0
		}
	}
}
