{
	 "smiles": "CC(=O)C1=CC(NS(C)(=O)=O)=CC=C1", 
	 "Tm": 365.15, 
	 "num_atms": 25, 
	 "gaussian": { 
		 "optdone": 1, 
		 "sigma_profile": "yes", 
		 "theory": "DFT", 
		 "functional": "B3LYP", 
		 "basiset": "6-31G**", 
		 "properties": { 
			 "R2extent": 5679.6906, 
			 "electric_dipole_moment_norm": 3.39728733404, 
			 "electric_quadrupole_moment_norm": 22.7578089376, 
			 "total_energy": -1028.1339469, 
			 "HOMO_LUMO_gap": 0.18902, 
			 "cosmo_polarized_energy": -18.21, 
			 "cosmo_cavitation_energy": 30.78, 
			 "cosmo_dispersion_energy": -22.08, 
			 "cosmo_repulsion_energy": 1.7, 
			 "cosmo_total_nonelectrostatic_energy": 10.39, 
			 "SMD_solvation_energy": 5.7 
		},
		"coords": [
			{
				"x": -1.1690427844,
				"y": 0.1350249209,
				"z": 2.8222821695,
				"element": "C" 
			},
			{
				"x": -0.9120171834,
				"y": 1.0275418622,
				"z": 1.6221930201,
				"element": "C" 
			},
			{
				"x": -1.6204026723,
				"y": 1.9964018039,
				"z": 1.3967567397,
				"element": "O" 
			},
			{
				"x": 0.2386484587,
				"y": 0.7028406167,
				"z": 0.7104762931,
				"element": "C" 
			},
			{
				"x": 1.0657632278,
				"y": -0.4084973936,
				"z": 0.9127551231,
				"element": "C" 
			},
			{
				"x": 2.1324716291,
				"y": -0.6576395701,
				"z": 0.0417830238,
				"element": "C" 
			},
			{
				"x": 3.0008854836,
				"y": -1.7968791012,
				"z": 0.2006476787,
				"element": "N" 
			},
			{
				"x": 3.9263997163,
				"y": -1.9853197586,
				"z": 1.6191024249,
				"element": "S" 
			},
			{
				"x": 5.3999673118,
				"y": -1.0399420165,
				"z": 1.2112571466,
				"element": "C" 
			},
			{
				"x": 3.2895052419,
				"y": -1.3297381536,
				"z": 2.7661600571,
				"element": "O" 
			},
			{
				"x": 4.2508899503,
				"y": -3.4133914606,
				"z": 1.653971252,
				"element": "O" 
			},
			{
				"x": 2.3734062851,
				"y": 0.2047032099,
				"z": -1.0319175315,
				"element": "C" 
			},
			{
				"x": 1.543669955,
				"y": 1.309335385,
				"z": -1.2422892935,
				"element": "C" 
			},
			{
				"x": 0.483805745,
				"y": 1.5571614169,
				"z": -0.376423798,
				"element": "C" 
			},
			{
				"x": -0.2918144473,
				"y": 0.0930024827,
				"z": 3.4770511983,
				"element": "H" 
			},
			{
				"x": -2.020181141,
				"y": 0.531579495,
				"z": 3.3761777037,
				"element": "H" 
			},
			{
				"x": -1.3886216501,
				"y": -0.8914256822,
				"z": 2.5076224159,
				"element": "H" 
			},
			{
				"x": 0.9099872926,
				"y": -1.0765964981,
				"z": 1.7508494881,
				"element": "H" 
			},
			{
				"x": 2.5802032922,
				"y": -2.7021949385,
				"z": 0.0036074468,
				"element": "H" 
			},
			{
				"x": 5.1037306163,
				"y": -0.0139830538,
				"z": 0.9874375693,
				"element": "H" 
			},
			{
				"x": 6.0456580733,
				"y": -1.0622639491,
				"z": 2.0906648416,
				"element": "H" 
			},
			{
				"x": 5.8881352229,
				"y": -1.5057241041,
				"z": 0.3556865509,
				"element": "H" 
			},
			{
				"x": 3.2041315198,
				"y": -0.0078675984,
				"z": -1.697569668,
				"element": "H" 
			},
			{
				"x": 1.7294975803,
				"y": 1.9726365075,
				"z": -2.0816355245,
				"element": "H" 
			},
			{
				"x": -0.1735767236,
				"y": 2.4090355776,
				"z": -0.5138463277,
				"element": "H" 
			}
		],
		 "valence_orbital": [ 
			{
				"type": "occ",
				"energy": -0.30803,
				"method": "rhf"
			},
			{
				"type": "occ",
				"energy": -0.28772,
				"method": "rhf"
			},
			{
				"type": "occ",
				"energy": -0.27235,
				"method": "rhf"
			},
			{
				"type": "occ",
				"energy": -0.26862,
				"method": "rhf"
			},
			{
				"type": "occ",
				"energy": -0.2529,
				"method": "rhf"
			},
			{
				"type": "unocc",
				"energy": -0.06388,
				"method": "rhf"
			},
			{
				"type": "unocc",
				"energy": -0.02996,
				"method": "rhf"
			},
			{
				"type": "unocc",
				"energy": 0.0266,
				"method": "rhf"
			},
			{
				"type": "unocc",
				"energy": 0.05656,
				"method": "rhf"
			},
			{
				"type": "unocc",
				"energy": 0.06905,
				"method": "rhf"
			}
		],
		"cosmo_sigma_profile": { 
			"-0.025": 0.0,
			"-0.024": 0.0,
			"-0.023": 0.0,
			"-0.022": 0.0,
			"-0.021": 0.0,
			"-0.02": 0.0,
			"-0.019": 0.0,
			"-0.018": 0.0,
			"-0.017": 0.0,
			"-0.016": 0.0,
			"-0.015": 0.558504039332,
			"-0.014": 1.49077623903,
			"-0.013": 0.672049830517,
			"-0.012": 0.904595905269,
			"-0.011": 1.14698846618,
			"-0.01": 1.30326687726,
			"-0.009": 3.08003199887,
			"-0.008": 6.4576377293,
			"-0.007": 10.0707599999,
			"-0.006": 18.7419211554,
			"-0.005": 20.1576858933,
			"-0.004": 21.8628787084,
			"-0.003": 16.3379791814,
			"-0.002": 15.3000760311,
			"-0.001": 14.1134682757,
			"0.0": 11.2891807392,
			"0.001": 12.659321332,
			"0.002": 15.2206047478,
			"0.003": 13.3396341198,
			"0.004": 5.49696116924,
			"0.005": 4.14607098475,
			"0.006": 3.99109280931,
			"0.007": 5.07389205783,
			"0.008": 5.00984128117,
			"0.009": 5.34438370009,
			"0.01": 7.74042680435,
			"0.011": 14.0906532547,
			"0.012": 7.89272500507,
			"0.013": 1.25031336609,
			"0.014": 0.0369439546801,
			"0.015": 0.0,
			"0.016": 0.0,
			"0.017": 0.0,
			"0.018": 0.0,
			"0.019": 0.0,
			"0.02": 0.0,
			"0.021": 0.0,
			"0.022": 0.0,
			"0.023": 0.0,
			"0.024": 0.0,
			"0.025": 0.0
		}
	}
}
