{
	 "smiles": "CC1=C(C=CC=C1)C1(CCCCC1)C(O)=O", 
	 "Tm": 436.15, 
	 "num_atms": 34, 
	 "gaussian": { 
		 "optdone": 1, 
		 "sigma_profile": "yes", 
		 "theory": "DFT", 
		 "functional": "B3LYP", 
		 "basiset": "6-31G**", 
		 "properties": { 
			 "R2extent": 3932.2543, 
			 "electric_dipole_moment_norm": 1.43544807639, 
			 "electric_quadrupole_moment_norm": 12.7999884523, 
			 "total_energy": -694.802638105, 
			 "HOMO_LUMO_gap": 0.23405, 
			 "cosmo_polarized_energy": -9.53, 
			 "cosmo_cavitation_energy": 32.82, 
			 "cosmo_dispersion_energy": -23.89, 
			 "cosmo_repulsion_energy": 1.83, 
			 "cosmo_total_nonelectrostatic_energy": 10.76, 
			 "SMD_solvation_energy": 5.72 
		},
		"coords": [
			{
				"x": -0.0475309572,
				"y": -1.2728726825,
				"z": -2.7461547347,
				"element": "C" 
			},
			{
				"x": -0.1996952725,
				"y": 0.1527784866,
				"z": -2.2441506788,
				"element": "C" 
			},
			{
				"x": 0.3924562669,
				"y": 0.6859204338,
				"z": -1.0674815251,
				"element": "C" 
			},
			{
				"x": 0.1842942563,
				"y": 2.0489565202,
				"z": -0.7948832802,
				"element": "C" 
			},
			{
				"x": -0.5761048831,
				"y": 2.8753153349,
				"z": -1.6195031001,
				"element": "C" 
			},
			{
				"x": -1.163366568,
				"y": 2.3475825396,
				"z": -2.7641194595,
				"element": "C" 
			},
			{
				"x": -0.9684131041,
				"y": 1.0012782867,
				"z": -3.0562503349,
				"element": "C" 
			},
			{
				"x": 1.246743131,
				"y": -0.1736985081,
				"z": -0.0945193564,
				"element": "C" 
			},
			{
				"x": 2.5021631981,
				"y": -0.7511576066,
				"z": -0.8105698913,
				"element": "C" 
			},
			{
				"x": 3.4036404073,
				"y": -1.6010652244,
				"z": 0.1166766928,
				"element": "C" 
			},
			{
				"x": 2.6013246016,
				"y": -2.3779325927,
				"z": 1.1878782585,
				"element": "C" 
			},
			{
				"x": 1.1687410796,
				"y": -2.6488235966,
				"z": 0.7139288739,
				"element": "C" 
			},
			{
				"x": 0.3872829045,
				"y": -1.3317530033,
				"z": 0.5400876905,
				"element": "C" 
			},
			{
				"x": 1.795710422,
				"y": 0.7523484749,
				"z": 1.0114859972,
				"element": "C" 
			},
			{
				"x": 0.9519563309,
				"y": 0.9285390351,
				"z": 2.0605247956,
				"element": "O" 
			},
			{
				"x": 2.8706481033,
				"y": 1.3131940101,
				"z": 0.9781865916,
				"element": "O" 
			},
			{
				"x": 0.0482711984,
				"y": -2.0179153932,
				"z": -1.9571380021,
				"element": "H" 
			},
			{
				"x": 0.8329804472,
				"y": -1.3702476362,
				"z": -3.392891756,
				"element": "H" 
			},
			{
				"x": -0.9163432795,
				"y": -1.5476946671,
				"z": -3.3516049502,
				"element": "H" 
			},
			{
				"x": 0.6206883486,
				"y": 2.4951319375,
				"z": 0.0904863685,
				"element": "H" 
			},
			{
				"x": -0.7064080489,
				"y": 3.9216867447,
				"z": -1.3592088643,
				"element": "H" 
			},
			{
				"x": -1.7659329409,
				"y": 2.9690821504,
				"z": -3.4201208399,
				"element": "H" 
			},
			{
				"x": -1.4230877036,
				"y": 0.5812222518,
				"z": -3.9503275789,
				"element": "H" 
			},
			{
				"x": 3.0765737729,
				"y": 0.0754902016,
				"z": -1.2348340564,
				"element": "H" 
			},
			{
				"x": 2.1671477381,
				"y": -1.3669394187,
				"z": -1.6446552753,
				"element": "H" 
			},
			{
				"x": 3.9625316696,
				"y": -2.3073083568,
				"z": -0.5085371205,
				"element": "H" 
			},
			{
				"x": 4.1436476367,
				"y": -0.9585934283,
				"z": 0.6011725229,
				"element": "H" 
			},
			{
				"x": 3.1122928182,
				"y": -3.3140039118,
				"z": 1.4387142059,
				"element": "H" 
			},
			{
				"x": 2.5573410222,
				"y": -1.799214125,
				"z": 2.1205291047,
				"element": "H" 
			},
			{
				"x": 0.6368582429,
				"y": -3.2905638585,
				"z": 1.4257547232,
				"element": "H" 
			},
			{
				"x": 1.202345859,
				"y": -3.2052358826,
				"z": -0.2328834212,
				"element": "H" 
			},
			{
				"x": -0.5054373275,
				"y": -1.4997793377,
				"z": -0.0653406748,
				"element": "H" 
			},
			{
				"x": 0.0217170762,
				"y": -0.9994331942,
				"z": 1.51305863,
				"element": "H" 
			},
			{
				"x": 1.409863554,
				"y": 1.5407060165,
				"z": 2.6611904453,
				"element": "H" 
			}
		],
		 "valence_orbital": [ 
			{
				"type": "occ",
				"energy": -0.3027,
				"method": "rhf"
			},
			{
				"type": "occ",
				"energy": -0.29851,
				"method": "rhf"
			},
			{
				"type": "occ",
				"energy": -0.26782,
				"method": "rhf"
			},
			{
				"type": "occ",
				"energy": -0.24207,
				"method": "rhf"
			},
			{
				"type": "occ",
				"energy": -0.23549,
				"method": "rhf"
			},
			{
				"type": "unocc",
				"energy": -0.00144,
				"method": "rhf"
			},
			{
				"type": "unocc",
				"energy": 0.00286,
				"method": "rhf"
			},
			{
				"type": "unocc",
				"energy": 0.00421,
				"method": "rhf"
			},
			{
				"type": "unocc",
				"energy": 0.06988,
				"method": "rhf"
			},
			{
				"type": "unocc",
				"energy": 0.08406,
				"method": "rhf"
			}
		],
		"cosmo_sigma_profile": { 
			"-0.025": 0.0,
			"-0.024": 0.0,
			"-0.023": 0.0,
			"-0.022": 0.0,
			"-0.021": 0.0,
			"-0.02": 0.0,
			"-0.019": 0.0426869890282,
			"-0.018": 0.529814722926,
			"-0.017": 1.32317515108,
			"-0.016": 0.675235162906,
			"-0.015": 0.301148666813,
			"-0.014": 0.489188058958,
			"-0.013": 0.624446496248,
			"-0.012": 1.03259207413,
			"-0.011": 1.24897589239,
			"-0.01": 0.766426889602,
			"-0.009": 0.299512514354,
			"-0.008": 0.469954556994,
			"-0.007": 1.12734157229,
			"-0.006": 3.02410885947,
			"-0.005": 9.42839197859,
			"-0.004": 17.1198249861,
			"-0.003": 23.4327713067,
			"-0.002": 29.4427701937,
			"-0.001": 33.5201373873,
			"0.0": 33.6577177179,
			"0.001": 25.2159774363,
			"0.002": 11.546952513,
			"0.003": 10.8748216422,
			"0.004": 11.4321415264,
			"0.005": 11.1873698757,
			"0.006": 11.1412344379,
			"0.007": 3.96401727488,
			"0.008": 2.41553546266,
			"0.009": 1.76430209815,
			"0.01": 1.85194250499,
			"0.011": 2.76545904629,
			"0.012": 3.7465033218,
			"0.013": 0.0964905772683,
			"0.014": 0.0,
			"0.015": 0.0,
			"0.016": 0.0,
			"0.017": 0.0,
			"0.018": 0.0,
			"0.019": 0.0,
			"0.02": 0.0,
			"0.021": 0.0,
			"0.022": 0.0,
			"0.023": 0.0,
			"0.024": 0.0,
			"0.025": 0.0
		}
	}
}
