{
	 "smiles": "O=CC1=C2C=CC=CN2N=C1", 
	 "Tm": 356.15, 
	 "num_atms": 17, 
	 "gaussian": { 
		 "optdone": 1, 
		 "sigma_profile": "yes", 
		 "theory": "DFT", 
		 "functional": "B3LYP", 
		 "basiset": "6-31G**", 
		 "properties": { 
			 "R2extent": 1733.0168, 
			 "electric_dipole_moment_norm": 3.2284961623, 
			 "electric_quadrupole_moment_norm": 16.4786808201, 
			 "total_energy": -493.163891101, 
			 "HOMO_LUMO_gap": 0.16894, 
			 "cosmo_polarized_energy": -10.61, 
			 "cosmo_cavitation_energy": 21.77, 
			 "cosmo_dispersion_energy": -16.18, 
			 "cosmo_repulsion_energy": 1.26, 
			 "cosmo_total_nonelectrostatic_energy": 6.86, 
			 "SMD_solvation_energy": 4.24 
		},
		"coords": [
			{
				"x": -0.21137405,
				"y": -2.3048096419,
				"z": 2.1848472222,
				"element": "O" 
			},
			{
				"x": -0.9860437396,
				"y": -1.5733692766,
				"z": 1.580158589,
				"element": "C" 
			},
			{
				"x": -0.6287366178,
				"y": -0.7662440918,
				"z": 0.4319011308,
				"element": "C" 
			},
			{
				"x": 0.6407587747,
				"y": -0.679983,
				"z": -0.1794824771,
				"element": "C" 
			},
			{
				"x": 1.9117902787,
				"y": -1.2540456899,
				"z": 0.0317702564,
				"element": "C" 
			},
			{
				"x": 2.9453855714,
				"y": -0.9076502537,
				"z": -0.8103292715,
				"element": "C" 
			},
			{
				"x": 2.7343901671,
				"y": 0.0120136477,
				"z": -1.8731608373,
				"element": "C" 
			},
			{
				"x": 1.4961126708,
				"y": 0.5640475389,
				"z": -2.0699426572,
				"element": "C" 
			},
			{
				"x": 0.4800759676,
				"y": 0.2134404776,
				"z": -1.2295884837,
				"element": "N" 
			},
			{
				"x": -0.7932412089,
				"y": 0.6986583729,
				"z": -1.329214701,
				"element": "N" 
			},
			{
				"x": -1.4410949682,
				"y": 0.1034268687,
				"z": -0.3301514667,
				"element": "C" 
			},
			{
				"x": -2.0488577694,
				"y": -1.4885392074,
				"z": 1.8961535811,
				"element": "H" 
			},
			{
				"x": 2.0229550571,
				"y": -1.9493301446,
				"z": 0.854461404,
				"element": "H" 
			},
			{
				"x": 3.9310829253,
				"y": -1.3376369607,
				"z": -0.665485894,
				"element": "H" 
			},
			{
				"x": 3.5450369918,
				"y": 0.2869747535,
				"z": -2.5376740234,
				"element": "H" 
			},
			{
				"x": 1.2358951525,
				"y": 1.2704298949,
				"z": -2.8473363237,
				"element": "H" 
			},
			{
				"x": -2.4920352033,
				"y": 0.3202167123,
				"z": -0.1834260478,
				"element": "H" 
			}
		],
		 "valence_orbital": [ 
			{
				"type": "occ",
				"energy": -0.31472,
				"method": "rhf"
			},
			{
				"type": "occ",
				"energy": -0.30845,
				"method": "rhf"
			},
			{
				"type": "occ",
				"energy": -0.27263,
				"method": "rhf"
			},
			{
				"type": "occ",
				"energy": -0.24521,
				"method": "rhf"
			},
			{
				"type": "occ",
				"energy": -0.22537,
				"method": "rhf"
			},
			{
				"type": "unocc",
				"energy": -0.05643,
				"method": "rhf"
			},
			{
				"type": "unocc",
				"energy": -0.03115,
				"method": "rhf"
			},
			{
				"type": "unocc",
				"energy": -0.00534,
				"method": "rhf"
			},
			{
				"type": "unocc",
				"energy": 0.07958,
				"method": "rhf"
			},
			{
				"type": "unocc",
				"energy": 0.08682,
				"method": "rhf"
			}
		],
		"cosmo_sigma_profile": { 
			"-0.025": 0.0,
			"-0.024": 0.0,
			"-0.023": 0.0,
			"-0.022": 0.0,
			"-0.021": 0.0,
			"-0.02": 0.0,
			"-0.019": 0.0,
			"-0.018": 0.0,
			"-0.017": 0.0,
			"-0.016": 0.0,
			"-0.015": 0.0,
			"-0.014": 0.0,
			"-0.013": 0.0,
			"-0.012": 0.0,
			"-0.011": 0.0,
			"-0.01": 0.980729643579,
			"-0.009": 2.6033038278,
			"-0.008": 7.09530023504,
			"-0.007": 9.60980222199,
			"-0.006": 12.5974668433,
			"-0.005": 10.4871099386,
			"-0.004": 8.14666083082,
			"-0.003": 8.69301514007,
			"-0.002": 12.4126973003,
			"-0.001": 13.0096464336,
			"0.0": 14.3991856095,
			"0.001": 20.0760258579,
			"0.002": 16.7564492623,
			"0.003": 4.23733689898,
			"0.004": 3.56383701332,
			"0.005": 3.50474237497,
			"0.006": 2.92271494057,
			"0.007": 2.5197990053,
			"0.008": 2.82405807413,
			"0.009": 3.0630456574,
			"0.01": 3.25710327954,
			"0.011": 3.27922037091,
			"0.012": 4.17591943909,
			"0.013": 3.58721647029,
			"0.014": 2.12148339601,
			"0.015": 0.189122171725,
			"0.016": 0.0,
			"0.017": 0.0,
			"0.018": 0.0,
			"0.019": 0.0,
			"0.02": 0.0,
			"0.021": 0.0,
			"0.022": 0.0,
			"0.023": 0.0,
			"0.024": 0.0,
			"0.025": 0.0
		}
	}
}
