{
	 "smiles": "CC1CCC2=CC3=C(CCC(C)N3C(=O)C3=CC=CC=C3)C=C2N1C(=O)C1=CC=CC=C1", 
	 "Tm": 543.15, 
	 "num_atms": 60, 
	 "gaussian": { 
		 "optdone": 1, 
		 "sigma_profile": "yes", 
		 "theory": "DFT", 
		 "functional": "B3LYP", 
		 "basiset": "6-31G**", 
		 "properties": { 
			 "R2extent": 16390.4354, 
			 "electric_dipole_moment_norm": 5.1517820742, 
			 "electric_quadrupole_moment_norm": 14.701650103, 
			 "total_energy": -1343.85659948, 
			 "HOMO_LUMO_gap": 0.15776, 
			 "cosmo_polarized_energy": -18.58, 
			 "cosmo_cavitation_energy": 59.21, 
			 "cosmo_dispersion_energy": -38.87, 
			 "cosmo_repulsion_energy": 2.91, 
			 "cosmo_total_nonelectrostatic_energy": 23.25, 
			 "SMD_solvation_energy": 9.83 
		},
		"coords": [
			{
				"x": 1.1894643934,
				"y": 3.0712075984,
				"z": -0.2621400568,
				"element": "C" 
			},
			{
				"x": 0.0626171817,
				"y": 2.5567821142,
				"z": -1.1672251307,
				"element": "C" 
			},
			{
				"x": -1.3313667971,
				"y": 2.6682957269,
				"z": -0.5243504156,
				"element": "C" 
			},
			{
				"x": -1.4269277752,
				"y": 1.807594469,
				"z": 0.7388646374,
				"element": "C" 
			},
			{
				"x": -0.7334045177,
				"y": 0.4686221089,
				"z": 0.5821358711,
				"element": "C" 
			},
			{
				"x": -0.8762805627,
				"y": -0.4935131548,
				"z": 1.5832772004,
				"element": "C" 
			},
			{
				"x": -0.2195165776,
				"y": -1.7278541178,
				"z": 1.5338298141,
				"element": "C" 
			},
			{
				"x": 0.5497298115,
				"y": -2.042996511,
				"z": 0.3933174743,
				"element": "C" 
			},
			{
				"x": 1.1529895058,
				"y": -3.4208545062,
				"z": 0.1929201547,
				"element": "C" 
			},
			{
				"x": 1.0323327819,
				"y": -4.3195254253,
				"z": 1.4307775892,
				"element": "C" 
			},
			{
				"x": -0.3061993511,
				"y": -4.1166928627,
				"z": 2.1581635207,
				"element": "C" 
			},
			{
				"x": -1.5398327068,
				"y": -4.5345507787,
				"z": 1.35038479,
				"element": "C" 
			},
			{
				"x": -0.3694693291,
				"y": -2.6934028366,
				"z": 2.5674930478,
				"element": "N" 
			},
			{
				"x": -0.6365928618,
				"y": -2.4308061592,
				"z": 3.9055710917,
				"element": "C" 
			},
			{
				"x": -1.1413231786,
				"y": -3.2881329497,
				"z": 4.6282231535,
				"element": "O" 
			},
			{
				"x": -0.2134011943,
				"y": -1.1195189537,
				"z": 4.5114781976,
				"element": "C" 
			},
			{
				"x": 0.9877291694,
				"y": -0.4789154069,
				"z": 4.1753452125,
				"element": "C" 
			},
			{
				"x": 1.3879600194,
				"y": 0.6665036694,
				"z": 4.8625868205,
				"element": "C" 
			},
			{
				"x": 0.5877502655,
				"y": 1.1906079399,
				"z": 5.880751945,
				"element": "C" 
			},
			{
				"x": -0.6054449887,
				"y": 0.5514747337,
				"z": 6.225743171,
				"element": "C" 
			},
			{
				"x": -0.9951985083,
				"y": -0.606818801,
				"z": 5.5555116998,
				"element": "C" 
			},
			{
				"x": 0.6907262123,
				"y": -1.0828710823,
				"z": -0.6062626923,
				"element": "C" 
			},
			{
				"x": 0.0710620305,
				"y": 0.1705130295,
				"z": -0.5331916065,
				"element": "C" 
			},
			{
				"x": 0.2777360865,
				"y": 1.1439766764,
				"z": -1.5643603058,
				"element": "N" 
			},
			{
				"x": 0.2304620552,
				"y": 0.7450516516,
				"z": -2.9011300836,
				"element": "C" 
			},
			{
				"x": -0.0847766002,
				"y": -0.3888884446,
				"z": -3.244187465,
				"element": "O" 
			},
			{
				"x": 0.6290326805,
				"y": 1.7425751346,
				"z": -3.9585048322,
				"element": "C" 
			},
			{
				"x": -0.1287550186,
				"y": 1.7765584487,
				"z": -5.1376389791,
				"element": "C" 
			},
			{
				"x": 0.2413869513,
				"y": 2.6113640469,
				"z": -6.1898114351,
				"element": "C" 
			},
			{
				"x": 1.392510882,
				"y": 3.3973968697,
				"z": -6.0896297886,
				"element": "C" 
			},
			{
				"x": 2.1709272422,
				"y": 3.3441265517,
				"z": -4.9320991553,
				"element": "C" 
			},
			{
				"x": 1.7892715287,
				"y": 2.5244692715,
				"z": -3.8690791755,
				"element": "C" 
			},
			{
				"x": 0.9879716389,
				"y": 4.1047823373,
				"z": 0.0382025288,
				"element": "H" 
			},
			{
				"x": 2.1497263275,
				"y": 3.0513406832,
				"z": -0.7847168962,
				"element": "H" 
			},
			{
				"x": 1.2918597741,
				"y": 2.4672945429,
				"z": 0.6432526601,
				"element": "H" 
			},
			{
				"x": 0.0593748724,
				"y": 3.1443000309,
				"z": -2.0848051624,
				"element": "H" 
			},
			{
				"x": -1.5511005816,
				"y": 3.7163618609,
				"z": -0.2923356932,
				"element": "H" 
			},
			{
				"x": -2.0716207955,
				"y": 2.3393999562,
				"z": -1.2627604533,
				"element": "H" 
			},
			{
				"x": -2.47723925,
				"y": 1.6518278092,
				"z": 1.0112037762,
				"element": "H" 
			},
			{
				"x": -0.9763680848,
				"y": 2.3403101763,
				"z": 1.5870692479,
				"element": "H" 
			},
			{
				"x": -1.5189327552,
				"y": -0.2657637277,
				"z": 2.4265352182,
				"element": "H" 
			},
			{
				"x": 2.2034817294,
				"y": -3.3319438069,
				"z": -0.1081650656,
				"element": "H" 
			},
			{
				"x": 0.6414309817,
				"y": -3.891486882,
				"z": -0.6570247436,
				"element": "H" 
			},
			{
				"x": 1.1451338803,
				"y": -5.3718858533,
				"z": 1.147445953,
				"element": "H" 
			},
			{
				"x": 1.8365609288,
				"y": -4.0923298147,
				"z": 2.1403456371,
				"element": "H" 
			},
			{
				"x": -0.3008892404,
				"y": -4.6839215169,
				"z": 3.0891541109,
				"element": "H" 
			},
			{
				"x": -2.4398837741,
				"y": -4.4123339348,
				"z": 1.958923462,
				"element": "H" 
			},
			{
				"x": -1.6584421066,
				"y": -3.9397977895,
				"z": 0.4398185746,
				"element": "H" 
			},
			{
				"x": -1.4622081026,
				"y": -5.5881675969,
				"z": 1.0615089312,
				"element": "H" 
			},
			{
				"x": 1.6117865188,
				"y": -0.8812392493,
				"z": 3.3844962967,
				"element": "H" 
			},
			{
				"x": 2.3267315899,
				"y": 1.148711854,
				"z": 4.6051329678,
				"element": "H" 
			},
			{
				"x": 0.8980785236,
				"y": 2.0875812849,
				"z": 6.4093384077,
				"element": "H" 
			},
			{
				"x": -1.2250664609,
				"y": 0.9483409884,
				"z": 7.024779721,
				"element": "H" 
			},
			{
				"x": -1.8996329696,
				"y": -1.1364921024,
				"z": 5.8358216674,
				"element": "H" 
			},
			{
				"x": 1.280794249,
				"y": -1.3280649573,
				"z": -1.4808144487,
				"element": "H" 
			},
			{
				"x": -1.0005799629,
				"y": 1.1353683611,
				"z": -5.2166967971,
				"element": "H" 
			},
			{
				"x": -0.3610822018,
				"y": 2.641263129,
				"z": -7.0930873358,
				"element": "H" 
			},
			{
				"x": 1.6864943324,
				"y": 4.0406660055,
				"z": -6.9140516858,
				"element": "H" 
			},
			{
				"x": 3.0785691095,
				"y": 3.9362023769,
				"z": -4.8575574921,
				"element": "H" 
			},
			{
				"x": 2.4061529993,
				"y": 2.4725977849,
				"z": -2.977477656,
				"element": "H" 
			}
		],
		 "valence_orbital": [ 
			{
				"type": "occ",
				"energy": -0.25076,
				"method": "rhf"
			},
			{
				"type": "occ",
				"energy": -0.2428,
				"method": "rhf"
			},
			{
				"type": "occ",
				"energy": -0.23967,
				"method": "rhf"
			},
			{
				"type": "occ",
				"energy": -0.23025,
				"method": "rhf"
			},
			{
				"type": "occ",
				"energy": -0.19654,
				"method": "rhf"
			},
			{
				"type": "unocc",
				"energy": -0.03878,
				"method": "rhf"
			},
			{
				"type": "unocc",
				"energy": -0.03011,
				"method": "rhf"
			},
			{
				"type": "unocc",
				"energy": -0.01043,
				"method": "rhf"
			},
			{
				"type": "unocc",
				"energy": -0.00879,
				"method": "rhf"
			},
			{
				"type": "unocc",
				"energy": 0.00089,
				"method": "rhf"
			}
		],
		"cosmo_sigma_profile": { 
			"-0.025": 0.0,
			"-0.024": 0.0,
			"-0.023": 0.0,
			"-0.022": 0.0,
			"-0.021": 0.0,
			"-0.02": 0.0,
			"-0.019": 0.0,
			"-0.018": 0.0,
			"-0.017": 0.0,
			"-0.016": 0.0,
			"-0.015": 0.0,
			"-0.014": 0.0,
			"-0.013": 0.0,
			"-0.012": 0.0,
			"-0.011": 0.0,
			"-0.01": 0.0,
			"-0.009": 0.0,
			"-0.008": 0.0,
			"-0.007": 1.54324760549,
			"-0.006": 14.8084605906,
			"-0.005": 23.3798200576,
			"-0.004": 50.571184542,
			"-0.003": 65.8166017609,
			"-0.002": 58.5444516508,
			"-0.001": 48.5289979488,
			"0.0": 39.5474942037,
			"0.001": 28.3894155046,
			"0.002": 24.828185021,
			"0.003": 23.2820553045,
			"0.004": 28.1170680639,
			"0.005": 20.5012867518,
			"0.006": 5.40600528441,
			"0.007": 3.50336441496,
			"0.008": 3.09857274453,
			"0.009": 3.90526746874,
			"0.01": 3.3245628013,
			"0.011": 3.42599203237,
			"0.012": 4.66872770839,
			"0.013": 8.40961936425,
			"0.014": 4.49075931994,
			"0.015": 0.140230378325,
			"0.016": 0.0,
			"0.017": 0.0,
			"0.018": 0.0,
			"0.019": 0.0,
			"0.02": 0.0,
			"0.021": 0.0,
			"0.022": 0.0,
			"0.023": 0.0,
			"0.024": 0.0,
			"0.025": 0.0
		}
	}
}
