{
	 "smiles": "COC1=C(OC)C=C2C(SC(=NC2=C1)C1=CC=C(C)O1)C1=CC=C(C)O1", 
	 "Tm": 421.15, 
	 "num_atms": 45, 
	 "gaussian": { 
		 "optdone": 1, 
		 "sigma_profile": "yes", 
		 "theory": "DFT", 
		 "functional": "B3LYP", 
		 "basiset": "6-31G**", 
		 "properties": { 
			 "R2extent": 12504.2349, 
			 "electric_dipole_moment_norm": 1.96364214917, 
			 "electric_quadrupole_moment_norm": 15.0867901639, 
			 "total_energy": -1527.35145178, 
			 "HOMO_LUMO_gap": 0.14197, 
			 "cosmo_polarized_energy": -15.54, 
			 "cosmo_cavitation_energy": 51.05, 
			 "cosmo_dispersion_energy": -35.39, 
			 "cosmo_repulsion_energy": 2.71, 
			 "cosmo_total_nonelectrostatic_energy": 18.37, 
			 "SMD_solvation_energy": 9.37 
		},
		"coords": [
			{
				"x": -4.3684447567,
				"y": 0.8957393826,
				"z": -0.8403845961,
				"element": "C" 
			},
			{
				"x": -3.5123350811,
				"y": 0.4901658738,
				"z": -1.8979086425,
				"element": "O" 
			},
			{
				"x": -2.1644832357,
				"y": 0.5360432133,
				"z": -1.6839123896,
				"element": "C" 
			},
			{
				"x": -1.3474803668,
				"y": 0.0847800509,
				"z": -2.7493289912,
				"element": "C" 
			},
			{
				"x": -1.8799067615,
				"y": -0.4180134781,
				"z": -3.9099264253,
				"element": "O" 
			},
			{
				"x": -2.5712131178,
				"y": 0.5184015847,
				"z": -4.7407757122,
				"element": "C" 
			},
			{
				"x": 0.0333544199,
				"y": 0.0720610511,
				"z": -2.5874214472,
				"element": "C" 
			},
			{
				"x": 0.6441243234,
				"y": 0.5075151437,
				"z": -1.4066463322,
				"element": "C" 
			},
			{
				"x": 2.1425737273,
				"y": 0.4121976868,
				"z": -1.2418901142,
				"element": "C" 
			},
			{
				"x": 2.7595918392,
				"y": 1.921587163,
				"z": -0.3216911648,
				"element": "S" 
			},
			{
				"x": 1.5247706064,
				"y": 1.9060721233,
				"z": 0.9827739795,
				"element": "C" 
			},
			{
				"x": 0.3217313943,
				"y": 1.4664471792,
				"z": 0.8575420599,
				"element": "N" 
			},
			{
				"x": -0.1643935957,
				"y": 0.9811909076,
				"z": -0.3575036134,
				"element": "C" 
			},
			{
				"x": -1.5657276624,
				"y": 0.9760579733,
				"z": -0.507809614,
				"element": "C" 
			},
			{
				"x": 1.97927011,
				"y": 2.485979765,
				"z": 2.2325692227,
				"element": "C" 
			},
			{
				"x": 3.2271999649,
				"y": 2.8069580517,
				"z": 2.7114790296,
				"element": "C" 
			},
			{
				"x": 3.0320576458,
				"y": 3.3654530081,
				"z": 4.0071001129,
				"element": "C" 
			},
			{
				"x": 1.6825557499,
				"y": 3.347672567,
				"z": 4.240467986,
				"element": "C" 
			},
			{
				"x": 0.8384977929,
				"y": 3.7771124353,
				"z": 5.3878353602,
				"element": "C" 
			},
			{
				"x": 1.032872457,
				"y": 2.8170506322,
				"z": 3.1690269389,
				"element": "O" 
			},
			{
				"x": 2.5877918346,
				"y": -0.859671758,
				"z": -0.6069304254,
				"element": "C" 
			},
			{
				"x": 1.9675586085,
				"y": -1.8081487832,
				"z": 0.1530304089,
				"element": "C" 
			},
			{
				"x": 2.96697353,
				"y": -2.7823119744,
				"z": 0.4777601597,
				"element": "C" 
			},
			{
				"x": 4.1286595987,
				"y": -2.3643017402,
				"z": -0.1033738573,
				"element": "C" 
			},
			{
				"x": 5.510067657,
				"y": -2.9156772799,
				"z": -0.1548766116,
				"element": "C" 
			},
			{
				"x": 3.9093126499,
				"y": -1.1896886859,
				"z": -0.7718768369,
				"element": "O" 
			},
			{
				"x": -5.386215531,
				"y": 0.763620671,
				"z": -1.2106197641,
				"element": "H" 
			},
			{
				"x": -4.2242386543,
				"y": 0.276065533,
				"z": 0.0533783629,
				"element": "H" 
			},
			{
				"x": -4.2128046884,
				"y": 1.9489604997,
				"z": -0.5741958184,
				"element": "H" 
			},
			{
				"x": -2.881831374,
				"y": -0.0366795739,
				"z": -5.6284595872,
				"element": "H" 
			},
			{
				"x": -1.9062607829,
				"y": 1.3382433505,
				"z": -5.0426401294,
				"element": "H" 
			},
			{
				"x": -3.4519440203,
				"y": 0.9284438861,
				"z": -4.2386265917,
				"element": "H" 
			},
			{
				"x": 0.6314727524,
				"y": -0.3087494651,
				"z": -3.4103541632,
				"element": "H" 
			},
			{
				"x": 2.6325949327,
				"y": 0.5102829828,
				"z": -2.2153486038,
				"element": "H" 
			},
			{
				"x": -2.1498413722,
				"y": 1.3350578517,
				"z": 0.3299427638,
				"element": "H" 
			},
			{
				"x": 4.1635214893,
				"y": 2.6389361445,
				"z": 2.200760049,
				"element": "H" 
			},
			{
				"x": 3.7911074495,
				"y": 3.72743122,
				"z": 4.685718218,
				"element": "H" 
			},
			{
				"x": 1.4673934505,
				"y": 4.1861864685,
				"z": 6.1815774279,
				"element": "H" 
			},
			{
				"x": 0.2670502924,
				"y": 2.9362531141,
				"z": 5.7969933335,
				"element": "H" 
			},
			{
				"x": 0.1184646849,
				"y": 4.5460309945,
				"z": 5.0854283505,
				"element": "H" 
			},
			{
				"x": 0.9267896747,
				"y": -1.8110650289,
				"z": 0.4405357626,
				"element": "H" 
			},
			{
				"x": 2.836853984,
				"y": -3.6804961888,
				"z": 1.0647500486,
				"element": "H" 
			},
			{
				"x": 5.5588028615,
				"y": -3.846558534,
				"z": 0.4148026412,
				"element": "H" 
			},
			{
				"x": 5.8209086311,
				"y": -3.1273060368,
				"z": -1.1847161541,
				"element": "H" 
			},
			{
				"x": 6.2381968884,
				"y": -2.2147299817,
				"z": 0.2695453697,
				"element": "H" 
			}
		],
		 "valence_orbital": [ 
			{
				"type": "occ",
				"energy": -0.24621,
				"method": "rhf"
			},
			{
				"type": "occ",
				"energy": -0.23122,
				"method": "rhf"
			},
			{
				"type": "occ",
				"energy": -0.22289,
				"method": "rhf"
			},
			{
				"type": "occ",
				"energy": -0.20499,
				"method": "rhf"
			},
			{
				"type": "occ",
				"energy": -0.19473,
				"method": "rhf"
			},
			{
				"type": "unocc",
				"energy": -0.05276,
				"method": "rhf"
			},
			{
				"type": "unocc",
				"energy": 0.0007,
				"method": "rhf"
			},
			{
				"type": "unocc",
				"energy": 0.00793,
				"method": "rhf"
			},
			{
				"type": "unocc",
				"energy": 0.02409,
				"method": "rhf"
			},
			{
				"type": "unocc",
				"energy": 0.04643,
				"method": "rhf"
			}
		],
		"cosmo_sigma_profile": { 
			"-0.025": 0.0,
			"-0.024": 0.0,
			"-0.023": 0.0,
			"-0.022": 0.0,
			"-0.021": 0.0,
			"-0.02": 0.0,
			"-0.019": 0.0,
			"-0.018": 0.0,
			"-0.017": 0.0,
			"-0.016": 0.0,
			"-0.015": 0.0,
			"-0.014": 0.0,
			"-0.013": 0.0,
			"-0.012": 0.0,
			"-0.011": 0.0,
			"-0.01": 0.0,
			"-0.009": 0.249387841083,
			"-0.008": 3.56927358146,
			"-0.007": 7.68488969874,
			"-0.006": 19.8047714721,
			"-0.005": 32.5790506294,
			"-0.004": 35.8054862682,
			"-0.003": 38.0695854758,
			"-0.002": 35.6630089685,
			"-0.001": 33.1647441541,
			"0.0": 24.9717495549,
			"0.001": 25.8677165175,
			"0.002": 31.8960998101,
			"0.003": 35.6783027095,
			"0.004": 28.2233391926,
			"0.005": 14.6966958737,
			"0.006": 11.5284533018,
			"0.007": 7.92899243907,
			"0.008": 5.02914094049,
			"0.009": 3.83332287013,
			"0.01": 4.00559035669,
			"0.011": 3.78471717939,
			"0.012": 1.88207688869,
			"0.013": 1.32451713798,
			"0.014": 1.00503863646,
			"0.015": 0.585713802476,
			"0.016": 0.0,
			"0.017": 0.0,
			"0.018": 0.0,
			"0.019": 0.0,
			"0.02": 0.0,
			"0.021": 0.0,
			"0.022": 0.0,
			"0.023": 0.0,
			"0.024": 0.0,
			"0.025": 0.0
		}
	}
}
