{
	 "smiles": "CC1=C(C=CC=C1)C(=O)CC#N", 
	 "Tm": 358.15, 
	 "num_atms": 21, 
	 "gaussian": { 
		 "optdone": 1, 
		 "sigma_profile": "yes", 
		 "theory": "DFT", 
		 "functional": "B3LYP", 
		 "basiset": "6-31G**", 
		 "properties": { 
			 "R2extent": 2592.5298, 
			 "electric_dipole_moment_norm": 3.85045755333, 
			 "electric_quadrupole_moment_norm": 12.9392139077, 
			 "total_energy": -516.445096909, 
			 "HOMO_LUMO_gap": 0.18697, 
			 "cosmo_polarized_energy": -11.82, 
			 "cosmo_cavitation_energy": 25.71, 
			 "cosmo_dispersion_energy": -18.07, 
			 "cosmo_repulsion_energy": 1.44, 
			 "cosmo_total_nonelectrostatic_energy": 9.07, 
			 "SMD_solvation_energy": 6.24 
		},
		"coords": [
			{
				"x": 1.9808065702,
				"y": 0.8951627334,
				"z": 0.5424930677,
				"element": "C" 
			},
			{
				"x": 0.5137697293,
				"y": 0.7969507303,
				"z": 0.8824637509,
				"element": "C" 
			},
			{
				"x": -0.5304490483,
				"y": 1.2526404109,
				"z": 0.0295676339,
				"element": "C" 
			},
			{
				"x": -1.8700286239,
				"y": 1.1097912205,
				"z": 0.4400250769,
				"element": "C" 
			},
			{
				"x": -2.1998401289,
				"y": 0.5364254502,
				"z": 1.662515257,
				"element": "C" 
			},
			{
				"x": -1.1790953923,
				"y": 0.0894383969,
				"z": 2.5005024196,
				"element": "C" 
			},
			{
				"x": 0.151603206,
				"y": 0.2206536776,
				"z": 2.1064063873,
				"element": "C" 
			},
			{
				"x": -0.2253414205,
				"y": 1.8900299235,
				"z": -1.2787871828,
				"element": "C" 
			},
			{
				"x": 0.9043954298,
				"y": 2.1332050421,
				"z": -1.6669611031,
				"element": "O" 
			},
			{
				"x": -1.3952763329,
				"y": 2.319160432,
				"z": -2.2135168459,
				"element": "C" 
			},
			{
				"x": -2.1947034107,
				"y": 1.2066332908,
				"z": -2.7239542461,
				"element": "C" 
			},
			{
				"x": -2.820479507,
				"y": 0.3161811736,
				"z": -3.1281914432,
				"element": "N" 
			},
			{
				"x": 2.2972460268,
				"y": 1.9344729822,
				"z": 0.419362668,
				"element": "H" 
			},
			{
				"x": 2.5785061525,
				"y": 0.4353481015,
				"z": 1.3343597497,
				"element": "H" 
			},
			{
				"x": 2.210849073,
				"y": 0.4013836425,
				"z": -0.4054461604,
				"element": "H" 
			},
			{
				"x": -2.6745937663,
				"y": 1.441542952,
				"z": -0.205628737,
				"element": "H" 
			},
			{
				"x": -3.2405317111,
				"y": 0.4366886157,
				"z": 1.9538568781,
				"element": "H" 
			},
			{
				"x": -1.4161360055,
				"y": -0.3634515806,
				"z": 3.4589977896,
				"element": "H" 
			},
			{
				"x": 0.9393364107,
				"y": -0.1340521409,
				"z": 2.7652758388,
				"element": "H" 
			},
			{
				"x": -2.05458708,
				"y": 3.0279873387,
				"z": -1.6990890532,
				"element": "H" 
			},
			{
				"x": -0.9267501708,
				"y": 2.840807607,
				"z": -3.051651746,
				"element": "H" 
			}
		],
		 "valence_orbital": [ 
			{
				"type": "occ",
				"energy": -0.33894,
				"method": "rhf"
			},
			{
				"type": "occ",
				"energy": -0.32958,
				"method": "rhf"
			},
			{
				"type": "occ",
				"energy": -0.27169,
				"method": "rhf"
			},
			{
				"type": "occ",
				"energy": -0.26483,
				"method": "rhf"
			},
			{
				"type": "occ",
				"energy": -0.2601,
				"method": "rhf"
			},
			{
				"type": "unocc",
				"energy": -0.07313,
				"method": "rhf"
			},
			{
				"type": "unocc",
				"energy": -0.01709,
				"method": "rhf"
			},
			{
				"type": "unocc",
				"energy": 0.01548,
				"method": "rhf"
			},
			{
				"type": "unocc",
				"energy": 0.03146,
				"method": "rhf"
			},
			{
				"type": "unocc",
				"energy": 0.04128,
				"method": "rhf"
			}
		],
		"cosmo_sigma_profile": { 
			"-0.025": 0.0,
			"-0.024": 0.0,
			"-0.023": 0.0,
			"-0.022": 0.0,
			"-0.021": 0.0,
			"-0.02": 0.0,
			"-0.019": 0.0,
			"-0.018": 0.0,
			"-0.017": 0.0,
			"-0.016": 0.0,
			"-0.015": 0.0,
			"-0.014": 0.0,
			"-0.013": 0.0,
			"-0.012": 0.00648472201181,
			"-0.011": 0.883563483087,
			"-0.01": 3.46647068389,
			"-0.009": 4.72738053293,
			"-0.008": 4.78049874804,
			"-0.007": 6.27034904373,
			"-0.006": 13.3582630996,
			"-0.005": 12.2908135764,
			"-0.004": 14.4748776268,
			"-0.003": 12.3193060754,
			"-0.002": 13.9661885374,
			"-0.001": 14.0530403503,
			"0.0": 18.2733037277,
			"0.001": 13.1237851049,
			"0.002": 12.1930075033,
			"0.003": 14.7513887357,
			"0.004": 10.7023449251,
			"0.005": 4.01325745894,
			"0.006": 2.7210630461,
			"0.007": 5.12718874512,
			"0.008": 4.41699782412,
			"0.009": 5.12912120961,
			"0.01": 5.29808669695,
			"0.011": 5.35720488194,
			"0.012": 3.0342430527,
			"0.013": 1.40645641905,
			"0.014": 0.0467250343112,
			"0.015": 0.0,
			"0.016": 0.0,
			"0.017": 0.0,
			"0.018": 0.0,
			"0.019": 0.0,
			"0.02": 0.0,
			"0.021": 0.0,
			"0.022": 0.0,
			"0.023": 0.0,
			"0.024": 0.0,
			"0.025": 0.0
		}
	}
}
