{
	 "smiles": "COCC1=NC(S)=NC(O)=C1", 
	 "Tm": 495.15, 
	 "num_atms": 19, 
	 "gaussian": { 
		 "optdone": 1, 
		 "sigma_profile": "yes", 
		 "theory": "DFT", 
		 "functional": "B3LYP", 
		 "basiset": "6-31G**", 
		 "properties": { 
			 "R2extent": 4374.9951, 
			 "electric_dipole_moment_norm": 1.78631460555, 
			 "electric_quadrupole_moment_norm": 12.1296899585, 
			 "total_energy": -891.587467195, 
			 "HOMO_LUMO_gap": 0.20655, 
			 "cosmo_polarized_energy": -10.61, 
			 "cosmo_cavitation_energy": 25.17, 
			 "cosmo_dispersion_energy": -19.18, 
			 "cosmo_repulsion_energy": 1.53, 
			 "cosmo_total_nonelectrostatic_energy": 7.52, 
			 "SMD_solvation_energy": 2.17 
		},
		"coords": [
			{
				"x": -0.988189033,
				"y": 3.5896988176,
				"z": 1.1978528448,
				"element": "C" 
			},
			{
				"x": -0.3833490345,
				"y": 3.6115003229,
				"z": -0.0855724518,
				"element": "O" 
			},
			{
				"x": 1.0264416577,
				"y": 3.574768038,
				"z": -0.0418824823,
				"element": "C" 
			},
			{
				"x": 1.6025826002,
				"y": 2.1849042765,
				"z": 0.157721137,
				"element": "C" 
			},
			{
				"x": 2.8851839677,
				"y": 2.1380966632,
				"z": 0.5658947092,
				"element": "N" 
			},
			{
				"x": 3.4080441093,
				"y": 0.9218254023,
				"z": 0.7026073558,
				"element": "C" 
			},
			{
				"x": 5.1055734124,
				"y": 0.9012422583,
				"z": 1.2348188119,
				"element": "S" 
			},
			{
				"x": 2.7962652125,
				"y": -0.2510498592,
				"z": 0.490211193,
				"element": "N" 
			},
			{
				"x": 1.5267964708,
				"y": -0.1727502455,
				"z": 0.0879844264,
				"element": "C" 
			},
			{
				"x": 0.8779038191,
				"y": -1.326727355,
				"z": -0.1379556785,
				"element": "O" 
			},
			{
				"x": 0.8589871495,
				"y": 1.0421270808,
				"z": -0.105217725,
				"element": "C" 
			},
			{
				"x": -2.0678434478,
				"y": 3.6440218761,
				"z": 1.0414506431,
				"element": "H" 
			},
			{
				"x": -0.7551097317,
				"y": 2.669467832,
				"z": 1.7517749287,
				"element": "H" 
			},
			{
				"x": -0.6707930891,
				"y": 4.4516987064,
				"z": 1.8031475087,
				"element": "H" 
			},
			{
				"x": 1.434382363,
				"y": 4.2362663014,
				"z": 0.7363800726,
				"element": "H" 
			},
			{
				"x": 1.3800741097,
				"y": 3.9566283489,
				"z": -1.0076287076,
				"element": "H" 
			},
			{
				"x": 5.2130606202,
				"y": -0.4411442582,
				"z": 1.2416245742,
				"element": "H" 
			},
			{
				"x": 1.5109431789,
				"y": -2.0396478751,
				"z": 0.0467841576,
				"element": "H" 
			},
			{
				"x": -0.1676543349,
				"y": 1.0881736686,
				"z": -0.4421953177,
				"element": "H" 
			}
		],
		 "valence_orbital": [ 
			{
				"type": "occ",
				"energy": -0.30419,
				"method": "rhf"
			},
			{
				"type": "occ",
				"energy": -0.28334,
				"method": "rhf"
			},
			{
				"type": "occ",
				"energy": -0.27649,
				"method": "rhf"
			},
			{
				"type": "occ",
				"energy": -0.26263,
				"method": "rhf"
			},
			{
				"type": "occ",
				"energy": -0.23993,
				"method": "rhf"
			},
			{
				"type": "unocc",
				"energy": -0.03338,
				"method": "rhf"
			},
			{
				"type": "unocc",
				"energy": -0.01986,
				"method": "rhf"
			},
			{
				"type": "unocc",
				"energy": 0.02074,
				"method": "rhf"
			},
			{
				"type": "unocc",
				"energy": 0.07439,
				"method": "rhf"
			},
			{
				"type": "unocc",
				"energy": 0.08265,
				"method": "rhf"
			}
		],
		"cosmo_sigma_profile": { 
			"-0.025": 0.0,
			"-0.024": 0.0,
			"-0.023": 0.0,
			"-0.022": 0.0,
			"-0.021": 0.0,
			"-0.02": 0.0,
			"-0.019": 0.0,
			"-0.018": 0.489439471537,
			"-0.017": 0.572193660545,
			"-0.016": 1.23267926213,
			"-0.015": 0.605521559263,
			"-0.014": 0.484894676327,
			"-0.013": 0.736236843008,
			"-0.012": 0.922662848687,
			"-0.011": 1.37576368839,
			"-0.01": 2.51036619955,
			"-0.009": 1.68167276285,
			"-0.008": 1.50473030888,
			"-0.007": 3.95654845218,
			"-0.006": 5.94571090688,
			"-0.005": 10.6542856006,
			"-0.004": 15.2019422169,
			"-0.003": 16.9366976909,
			"-0.002": 20.4078781733,
			"-0.001": 16.8076733749,
			"0.0": 14.2608660541,
			"0.001": 12.5863659452,
			"0.002": 10.5187702186,
			"0.003": 10.0360268565,
			"0.004": 10.2386474267,
			"0.005": 9.29477893641,
			"0.006": 9.05155945842,
			"0.007": 6.93562990849,
			"0.008": 5.15535717843,
			"0.009": 3.83792715347,
			"0.01": 3.37956516679,
			"0.011": 1.59966597679,
			"0.012": 2.18293422333,
			"0.013": 1.25063872713,
			"0.014": 0.101546487644,
			"0.015": 0.0,
			"0.016": 0.0,
			"0.017": 0.0,
			"0.018": 0.0,
			"0.019": 0.0,
			"0.02": 0.0,
			"0.021": 0.0,
			"0.022": 0.0,
			"0.023": 0.0,
			"0.024": 0.0,
			"0.025": 0.0
		}
	}
}
