{
	 "smiles": "CN1C=C(N)C=C(Br)C1=O", 
	 "Tm": 433.15, 
	 "num_atms": 17, 
	 "gaussian": { 
		 "optdone": 1, 
		 "sigma_profile": "yes", 
		 "theory": "DFT", 
		 "functional": "B3LYP", 
		 "basiset": "6-31G**", 
		 "properties": { 
			 "R2extent": 3169.1387, 
			 "electric_dipole_moment_norm": 6.04772936398, 
			 "electric_quadrupole_moment_norm": 12.6594245359, 
			 "total_energy": -2988.98113791, 
			 "HOMO_LUMO_gap": 0.14801, 
			 "cosmo_polarized_energy": -18.14, 
			 "cosmo_cavitation_energy": 23.23, 
			 "cosmo_dispersion_energy": -17.76, 
			 "cosmo_repulsion_energy": 1.44, 
			 "cosmo_total_nonelectrostatic_energy": 6.91, 
			 "SMD_solvation_energy": 3.87 
		},
		"coords": [
			{
				"x": 2.2880812902,
				"y": -0.4785372099,
				"z": -2.0047900669,
				"element": "C" 
			},
			{
				"x": 1.2780734951,
				"y": -0.6148877409,
				"z": -0.9527510885,
				"element": "N" 
			},
			{
				"x": 1.0028170504,
				"y": 0.4786762769,
				"z": -0.1612594938,
				"element": "C" 
			},
			{
				"x": 0.0859981691,
				"y": 0.4278750056,
				"z": 0.8526106377,
				"element": "C" 
			},
			{
				"x": -0.1479128549,
				"y": 1.4987147896,
				"z": 1.7385384509,
				"element": "N" 
			},
			{
				"x": -0.5988347659,
				"y": -0.8097511085,
				"z": 1.053324207,
				"element": "C" 
			},
			{
				"x": -0.3468758754,
				"y": -1.8829635858,
				"z": 0.2533016207,
				"element": "C" 
			},
			{
				"x": -1.2692239496,
				"y": -3.5182252379,
				"z": 0.5125350167,
				"element": "Br" 
			},
			{
				"x": 0.6351284964,
				"y": -1.8629304682,
				"z": -0.8301739797,
				"element": "C" 
			},
			{
				"x": 0.9026854226,
				"y": -2.8050209172,
				"z": -1.5722850465,
				"element": "O" 
			},
			{
				"x": 1.98605687,
				"y": 0.28863638,
				"z": -2.7246408819,
				"element": "H" 
			},
			{
				"x": 3.2534478647,
				"y": -0.2051059592,
				"z": -1.568315924,
				"element": "H" 
			},
			{
				"x": 2.3675371206,
				"y": -1.4413064292,
				"z": -2.5057310003,
				"element": "H" 
			},
			{
				"x": 1.5710147518,
				"y": 1.3742866301,
				"z": -0.3881524567,
				"element": "H" 
			},
			{
				"x": 0.232432882,
				"y": 2.3796189773,
				"z": 1.4142443449,
				"element": "H" 
			},
			{
				"x": -1.1278777357,
				"y": 1.6167349952,
				"z": 1.9687233801,
				"element": "H" 
			},
			{
				"x": -1.3228482313,
				"y": -0.8914143979,
				"z": 1.8584222803,
				"element": "H" 
			}
		],
		 "valence_orbital": [ 
			{
				"type": "occ",
				"energy": -0.29715,
				"method": "rhf"
			},
			{
				"type": "occ",
				"energy": -0.2791,
				"method": "rhf"
			},
			{
				"type": "occ",
				"energy": -0.25748,
				"method": "rhf"
			},
			{
				"type": "occ",
				"energy": -0.25014,
				"method": "rhf"
			},
			{
				"type": "occ",
				"energy": -0.19473,
				"method": "rhf"
			},
			{
				"type": "unocc",
				"energy": -0.04672,
				"method": "rhf"
			},
			{
				"type": "unocc",
				"energy": 0.01484,
				"method": "rhf"
			},
			{
				"type": "unocc",
				"energy": 0.02281,
				"method": "rhf"
			},
			{
				"type": "unocc",
				"energy": 0.06631,
				"method": "rhf"
			},
			{
				"type": "unocc",
				"energy": 0.0922,
				"method": "rhf"
			}
		],
		"cosmo_sigma_profile": { 
			"-0.025": 0.0,
			"-0.024": 0.0,
			"-0.023": 0.0,
			"-0.022": 0.0,
			"-0.021": 0.0,
			"-0.02": 0.0,
			"-0.019": 0.0,
			"-0.018": 0.0,
			"-0.017": 0.0,
			"-0.016": 0.0,
			"-0.015": 0.0,
			"-0.014": 0.0,
			"-0.013": 1.04277926319,
			"-0.012": 3.51259139548,
			"-0.011": 3.88768494044,
			"-0.01": 3.85430772268,
			"-0.009": 4.84912005477,
			"-0.008": 6.15468519166,
			"-0.007": 5.74921088163,
			"-0.006": 10.4814424605,
			"-0.005": 8.50772353101,
			"-0.004": 10.0751645767,
			"-0.003": 11.6069288854,
			"-0.002": 10.3934245038,
			"-0.001": 11.893401154,
			"0.0": 11.0132673514,
			"0.001": 13.4935566579,
			"0.002": 13.1643860794,
			"0.003": 8.89665306561,
			"0.004": 11.3292044372,
			"0.005": 8.04298494277,
			"0.006": 3.02544630363,
			"0.007": 2.38518706327,
			"0.008": 3.178418627,
			"0.009": 2.67282865357,
			"0.01": 1.23469288302,
			"0.011": 2.41476315026,
			"0.012": 3.00070044132,
			"0.013": 3.13151445982,
			"0.014": 5.79445538445,
			"0.015": 2.97494057067,
			"0.016": 0.263090320523,
			"0.017": 0.0,
			"0.018": 0.0,
			"0.019": 0.0,
			"0.02": 0.0,
			"0.021": 0.0,
			"0.022": 0.0,
			"0.023": 0.0,
			"0.024": 0.0,
			"0.025": 0.0
		}
	}
}
