{
	 "smiles": "CCOP(=S)(OCC)OC1=NN(C=N1)C1=CC=CC=C1", 
	 "Tm": 276.65, 
	 "num_atms": 36, 
	 "gaussian": { 
		 "optdone": 1, 
		 "sigma_profile": "yes", 
		 "theory": "DFT", 
		 "functional": "B3LYP", 
		 "basiset": "6-31G**", 
		 "properties": { 
			 "R2extent": 11175.473, 
			 "electric_dipole_moment_norm": 4.10384885808, 
			 "electric_quadrupole_moment_norm": 25.1993536949, 
			 "total_energy": -1596.44491397, 
			 "HOMO_LUMO_gap": 0.19343, 
			 "cosmo_polarized_energy": -15.53, 
			 "cosmo_cavitation_energy": 43.72, 
			 "cosmo_dispersion_energy": -31.29, 
			 "cosmo_repulsion_energy": 2.4, 
			 "cosmo_total_nonelectrostatic_energy": 14.84, 
			 "SMD_solvation_energy": 6.78 
		},
		"coords": [
			{
				"x": 2.809421169,
				"y": -0.6695207203,
				"z": -5.0761589331,
				"element": "C" 
			},
			{
				"x": 1.9949872789,
				"y": 0.2749965183,
				"z": -4.2138612112,
				"element": "C" 
			},
			{
				"x": 0.6107733376,
				"y": -0.1593082051,
				"z": -4.2781354358,
				"element": "O" 
			},
			{
				"x": -0.5448360093,
				"y": 0.6997838957,
				"z": -3.577661827,
				"element": "P" 
			},
			{
				"x": -0.7411341303,
				"y": 2.5679073275,
				"z": -4.0439685387,
				"element": "S" 
			},
			{
				"x": -1.7633376646,
				"y": -0.2955667383,
				"z": -3.850922031,
				"element": "O" 
			},
			{
				"x": -3.1464037238,
				"y": 0.1511435514,
				"z": -3.9582419455,
				"element": "C" 
			},
			{
				"x": -3.9657119837,
				"y": -1.0419377131,
				"z": -4.4098913067,
				"element": "C" 
			},
			{
				"x": -0.0986977201,
				"y": 0.4145828453,
				"z": -2.0001482823,
				"element": "O" 
			},
			{
				"x": -0.759464839,
				"y": 0.9350977425,
				"z": -0.9427917525,
				"element": "C" 
			},
			{
				"x": -0.0964056651,
				"y": 1.2940874657,
				"z": 0.14077381,
				"element": "N" 
			},
			{
				"x": -1.1094235645,
				"y": 1.7071932786,
				"z": 0.9613449802,
				"element": "N" 
			},
			{
				"x": -2.2947799308,
				"y": 1.567502766,
				"z": 0.3183672174,
				"element": "C" 
			},
			{
				"x": -2.1102552824,
				"y": 1.0770979829,
				"z": -0.8952373959,
				"element": "N" 
			},
			{
				"x": -0.8460601804,
				"y": 2.1627354072,
				"z": 2.2817622543,
				"element": "C" 
			},
			{
				"x": -1.7546635002,
				"y": 3.0105181562,
				"z": 2.9233580374,
				"element": "C" 
			},
			{
				"x": -1.4972530758,
				"y": 3.4255217358,
				"z": 4.2293275878,
				"element": "C" 
			},
			{
				"x": -0.334482215,
				"y": 3.0172098068,
				"z": 4.8848178593,
				"element": "C" 
			},
			{
				"x": 0.5748778381,
				"y": 2.1871111719,
				"z": 4.2255463053,
				"element": "C" 
			},
			{
				"x": 0.3247013274,
				"y": 1.7518696789,
				"z": 2.9256512008,
				"element": "C" 
			},
			{
				"x": 2.4672282119,
				"y": -0.6383371071,
				"z": -6.1141472131,
				"element": "H" 
			},
			{
				"x": 3.8636113921,
				"y": -0.3758365893,
				"z": -5.0488169571,
				"element": "H" 
			},
			{
				"x": 2.7261136554,
				"y": -1.6975230916,
				"z": -4.7129762666,
				"element": "H" 
			},
			{
				"x": 2.3187530715,
				"y": 0.2481229936,
				"z": -3.168419339,
				"element": "H" 
			},
			{
				"x": 2.0576270543,
				"y": 1.3065301239,
				"z": -4.5758833196,
				"element": "H" 
			},
			{
				"x": -3.1922518859,
				"y": 0.9730747629,
				"z": -4.678326719,
				"element": "H" 
			},
			{
				"x": -3.4578561627,
				"y": 0.5180106727,
				"z": -2.9775168027,
				"element": "H" 
			},
			{
				"x": -3.6225122308,
				"y": -1.4083782825,
				"z": -5.3814153788,
				"element": "H" 
			},
			{
				"x": -3.8971752151,
				"y": -1.8588938939,
				"z": -3.6862501893,
				"element": "H" 
			},
			{
				"x": -5.0166022548,
				"y": -0.748531927,
				"z": -4.5014210434,
				"element": "H" 
			},
			{
				"x": -3.2475053718,
				"y": 1.8054832528,
				"z": 0.7674050946,
				"element": "H" 
			},
			{
				"x": -2.6399143335,
				"y": 3.3639327631,
				"z": 2.40512643,
				"element": "H" 
			},
			{
				"x": -2.2027578172,
				"y": 4.0838285911,
				"z": 4.7270384984,
				"element": "H" 
			},
			{
				"x": -0.134945606,
				"y": 3.349937842,
				"z": 5.8986859936,
				"element": "H" 
			},
			{
				"x": 1.4847281293,
				"y": 1.8698765287,
				"z": 4.7260691058,
				"element": "H" 
			},
			{
				"x": 1.0175078971,
				"y": 1.1063774066,
				"z": 2.3997175133,
				"element": "H" 
			}
		],
		 "valence_orbital": [ 
			{
				"type": "occ",
				"energy": -0.27919,
				"method": "rhf"
			},
			{
				"type": "occ",
				"energy": -0.26882,
				"method": "rhf"
			},
			{
				"type": "occ",
				"energy": -0.24478,
				"method": "rhf"
			},
			{
				"type": "occ",
				"energy": -0.23764,
				"method": "rhf"
			},
			{
				"type": "occ",
				"energy": -0.23347,
				"method": "rhf"
			},
			{
				"type": "unocc",
				"energy": -0.04004,
				"method": "rhf"
			},
			{
				"type": "unocc",
				"energy": -0.01993,
				"method": "rhf"
			},
			{
				"type": "unocc",
				"energy": 0.02055,
				"method": "rhf"
			},
			{
				"type": "unocc",
				"energy": 0.03346,
				"method": "rhf"
			},
			{
				"type": "unocc",
				"energy": 0.05398,
				"method": "rhf"
			}
		],
		"cosmo_sigma_profile": { 
			"-0.025": 0.0,
			"-0.024": 0.0,
			"-0.023": 0.0,
			"-0.022": 0.0,
			"-0.021": 0.0,
			"-0.02": 0.0,
			"-0.019": 0.0,
			"-0.018": 0.0,
			"-0.017": 0.0,
			"-0.016": 0.0,
			"-0.015": 0.0,
			"-0.014": 0.0,
			"-0.013": 0.0,
			"-0.012": 0.792096234515,
			"-0.011": 2.54597179365,
			"-0.01": 2.27814092024,
			"-0.009": 2.52296609307,
			"-0.008": 2.24375364186,
			"-0.007": 4.00858801232,
			"-0.006": 13.0601152323,
			"-0.005": 24.5203278942,
			"-0.004": 34.5265831826,
			"-0.003": 32.4866175369,
			"-0.002": 27.9790310112,
			"-0.001": 28.9506389065,
			"0.0": 26.1607210405,
			"0.001": 18.6771245989,
			"0.002": 19.8785143327,
			"0.003": 22.5602146304,
			"0.004": 24.505473235,
			"0.005": 14.7992347792,
			"0.006": 13.1877783265,
			"0.007": 13.3018144304,
			"0.008": 10.6644274898,
			"0.009": 6.07204535995,
			"0.01": 2.14229325807,
			"0.011": 0.971934675663,
			"0.012": 0.86341808161,
			"0.013": 0.027940846877,
			"0.014": 0.0,
			"0.015": 0.0,
			"0.016": 0.0,
			"0.017": 0.0,
			"0.018": 0.0,
			"0.019": 0.0,
			"0.02": 0.0,
			"0.021": 0.0,
			"0.022": 0.0,
			"0.023": 0.0,
			"0.024": 0.0,
			"0.025": 0.0
		}
	}
}
