{
	 "smiles": "NC1=CC=C(C=C1)C1=NC2=C(S1)C(Cl)=CC=C2", 
	 "Tm": 423.15, 
	 "num_atms": 26, 
	 "gaussian": { 
		 "optdone": 1, 
		 "sigma_profile": "yes", 
		 "theory": "DFT", 
		 "functional": "B3LYP", 
		 "basiset": "6-31G**", 
		 "properties": { 
			 "R2extent": 7033.8319, 
			 "electric_dipole_moment_norm": 4.21594514314, 
			 "electric_quadrupole_moment_norm": 22.3330231487, 
			 "total_energy": -1468.71259487, 
			 "HOMO_LUMO_gap": 0.14988, 
			 "cosmo_polarized_energy": -12.19, 
			 "cosmo_cavitation_energy": 33.74, 
			 "cosmo_dispersion_energy": -25.75, 
			 "cosmo_repulsion_energy": 1.93, 
			 "cosmo_total_nonelectrostatic_energy": 9.92, 
			 "SMD_solvation_energy": 3.4 
		},
		"coords": [
			{
				"x": 3.7496539148,
				"y": -0.9377761031,
				"z": -3.5033458599,
				"element": "N" 
			},
			{
				"x": 2.7687764124,
				"y": -0.7688834197,
				"z": -2.5394698361,
				"element": "C" 
			},
			{
				"x": 2.087078994,
				"y": 0.4584524669,
				"z": -2.4115616609,
				"element": "C" 
			},
			{
				"x": 1.0725692993,
				"y": 0.6106888938,
				"z": -1.4813306325,
				"element": "C" 
			},
			{
				"x": 0.6927160507,
				"y": -0.4518321464,
				"z": -0.6380155056,
				"element": "C" 
			},
			{
				"x": 1.3741759779,
				"y": -1.6738167627,
				"z": -0.7698620814,
				"element": "C" 
			},
			{
				"x": 2.3917122715,
				"y": -1.8338752062,
				"z": -1.6991354819,
				"element": "C" 
			},
			{
				"x": -0.3802812318,
				"y": -0.2468020728,
				"z": 0.3319935999,
				"element": "C" 
			},
			{
				"x": -1.0285330223,
				"y": 0.8721610754,
				"z": 0.4786775638,
				"element": "N" 
			},
			{
				"x": -1.9885427081,
				"y": 0.7872746294,
				"z": 1.4659068987,
				"element": "C" 
			},
			{
				"x": -2.076978955,
				"y": -0.4737998181,
				"z": 2.1111908592,
				"element": "C" 
			},
			{
				"x": -0.9000567965,
				"y": -1.5680016413,
				"z": 1.4301995376,
				"element": "S" 
			},
			{
				"x": -3.0102882223,
				"y": -0.6809606246,
				"z": 3.1265134368,
				"element": "C" 
			},
			{
				"x": -3.1173703797,
				"y": -2.2418723377,
				"z": 3.9231934669,
				"element": "Cl" 
			},
			{
				"x": -3.8572238201,
				"y": 0.3567804251,
				"z": 3.5056048038,
				"element": "C" 
			},
			{
				"x": -3.7674244679,
				"y": 1.6030054822,
				"z": 2.8653472479,
				"element": "C" 
			},
			{
				"x": -2.8442471897,
				"y": 1.8295593317,
				"z": 1.8515661925,
				"element": "C" 
			},
			{
				"x": 4.1865273027,
				"y": -0.0984247912,
				"z": -3.8551964107,
				"element": "H" 
			},
			{
				"x": 4.3996785823,
				"y": -1.6967333144,
				"z": -3.359806323,
				"element": "H" 
			},
			{
				"x": 2.3613457526,
				"y": 1.2912564326,
				"z": -3.0542994669,
				"element": "H" 
			},
			{
				"x": 0.5530888231,
				"y": 1.5577233142,
				"z": -1.3854864805,
				"element": "H" 
			},
			{
				"x": 1.1114746531,
				"y": -2.5169125717,
				"z": -0.1367089531,
				"element": "H" 
			},
			{
				"x": 2.9014118017,
				"y": -2.7900244283,
				"z": -1.7839360496,
				"element": "H" 
			},
			{
				"x": -4.581316718,
				"y": 0.1912098455,
				"z": 4.2953724707,
				"element": "H" 
			},
			{
				"x": -4.4362841537,
				"y": 2.4002887687,
				"z": 3.1743809556,
				"element": "H" 
			},
			{
				"x": -2.7689621712,
				"y": 2.7893145727,
				"z": 1.3523077088,
				"element": "H" 
			}
		],
		 "valence_orbital": [ 
			{
				"type": "occ",
				"energy": -0.2708,
				"method": "rhf"
			},
			{
				"type": "occ",
				"energy": -0.25924,
				"method": "rhf"
			},
			{
				"type": "occ",
				"energy": -0.25143,
				"method": "rhf"
			},
			{
				"type": "occ",
				"energy": -0.22935,
				"method": "rhf"
			},
			{
				"type": "occ",
				"energy": -0.2022,
				"method": "rhf"
			},
			{
				"type": "unocc",
				"energy": -0.05232,
				"method": "rhf"
			},
			{
				"type": "unocc",
				"energy": -0.01,
				"method": "rhf"
			},
			{
				"type": "unocc",
				"energy": -0.00481,
				"method": "rhf"
			},
			{
				"type": "unocc",
				"energy": 0.00553,
				"method": "rhf"
			},
			{
				"type": "unocc",
				"energy": 0.01288,
				"method": "rhf"
			}
		],
		"cosmo_sigma_profile": { 
			"-0.025": 0.0,
			"-0.024": 0.0,
			"-0.023": 0.0,
			"-0.022": 0.0,
			"-0.021": 0.0,
			"-0.02": 0.0,
			"-0.019": 0.0,
			"-0.018": 0.0,
			"-0.017": 0.0,
			"-0.016": 0.0,
			"-0.015": 0.0,
			"-0.014": 0.0804622223407,
			"-0.013": 2.36518043994,
			"-0.012": 2.97024591363,
			"-0.011": 2.9227284957,
			"-0.01": 3.38539229706,
			"-0.009": 3.1038252415,
			"-0.008": 3.50268808627,
			"-0.007": 7.60592739879,
			"-0.006": 13.0946961789,
			"-0.005": 13.8320155048,
			"-0.004": 12.9256317179,
			"-0.003": 10.4349238131,
			"-0.002": 11.6620033151,
			"-0.001": 14.3445953854,
			"0.0": 22.2755567546,
			"0.001": 25.5953277207,
			"0.002": 33.9815911279,
			"0.003": 33.063346049,
			"0.004": 30.1359433867,
			"0.005": 13.5674306093,
			"0.006": 3.4397718353,
			"0.007": 2.09725323765,
			"0.008": 2.65472324747,
			"0.009": 2.23014768253,
			"0.01": 1.18320008956,
			"0.011": 2.28804961563,
			"0.012": 0.839436163608,
			"0.013": 0.167954283594,
			"0.014": 0.0,
			"0.015": 0.0,
			"0.016": 0.0,
			"0.017": 0.0,
			"0.018": 0.0,
			"0.019": 0.0,
			"0.02": 0.0,
			"0.021": 0.0,
			"0.022": 0.0,
			"0.023": 0.0,
			"0.024": 0.0,
			"0.025": 0.0
		}
	}
}
