{
	 "smiles": "CC1=CC=C(C=C1C(O)=O)[N+]([O-])=O", 
	 "Tm": 452.15, 
	 "num_atms": 20, 
	 "gaussian": { 
		 "optdone": 1, 
		 "sigma_profile": "yes", 
		 "theory": "DFT", 
		 "functional": "B3LYP", 
		 "basiset": "6-31G**", 
		 "properties": { 
			 "R2extent": 2939.8917, 
			 "electric_dipole_moment_norm": 3.37109018716, 
			 "electric_quadrupole_moment_norm": 16.2569302154, 
			 "total_energy": -664.62848811, 
			 "HOMO_LUMO_gap": 0.1811, 
			 "cosmo_polarized_energy": -16.02, 
			 "cosmo_cavitation_energy": 25.29, 
			 "cosmo_dispersion_energy": -18.49, 
			 "cosmo_repulsion_energy": 1.45, 
			 "cosmo_total_nonelectrostatic_energy": 8.26, 
			 "SMD_solvation_energy": 7.75 
		},
		"coords": [
			{
				"x": 2.0883233966,
				"y": 0.127443421,
				"z": 1.6727631058,
				"element": "C" 
			},
			{
				"x": 0.8917500637,
				"y": -0.4554611395,
				"z": 0.9655295882,
				"element": "C" 
			},
			{
				"x": 1.0250600303,
				"y": -1.6713565796,
				"z": 0.2782165495,
				"element": "C" 
			},
			{
				"x": -0.0442676416,
				"y": -2.2757434373,
				"z": -0.3755741376,
				"element": "C" 
			},
			{
				"x": -1.2812044499,
				"y": -1.6404673784,
				"z": -0.3468868438,
				"element": "C" 
			},
			{
				"x": -1.4582646468,
				"y": -0.4257222802,
				"z": 0.3051943134,
				"element": "C" 
			},
			{
				"x": -0.377519866,
				"y": 0.1765178305,
				"z": 0.9577813868,
				"element": "C" 
			},
			{
				"x": -0.5967696865,
				"y": 1.4688725789,
				"z": 1.6956666996,
				"element": "C" 
			},
			{
				"x": -1.5391753497,
				"y": 2.3010910365,
				"z": 1.1811668342,
				"element": "O" 
			},
			{
				"x": -0.0026557259,
				"y": 1.7811193907,
				"z": 2.7000756008,
				"element": "O" 
			},
			{
				"x": -2.4297927883,
				"y": -2.2614129623,
				"z": -1.0224806984,
				"element": "N" 
			},
			{
				"x": -2.2438136941,
				"y": -3.3391724923,
				"z": -1.5843273737,
				"element": "O" 
			},
			{
				"x": -3.5038161348,
				"y": -1.661073862,
				"z": -0.9859352017,
				"element": "O" 
			},
			{
				"x": 2.2460438895,
				"y": 1.1761523886,
				"z": 1.4062761847,
				"element": "H" 
			},
			{
				"x": 1.9410759903,
				"y": 0.1121815254,
				"z": 2.7558593809,
				"element": "H" 
			},
			{
				"x": 2.9899235748,
				"y": -0.4383496976,
				"z": 1.4263810104,
				"element": "H" 
			},
			{
				"x": 1.9956307522,
				"y": -2.1577438971,
				"z": 0.2618121422,
				"element": "H" 
			},
			{
				"x": 0.062000109,
				"y": -3.2185888563,
				"z": -0.8976053242,
				"element": "H" 
			},
			{
				"x": -2.4521884995,
				"y": 0.0070041152,
				"z": 0.3199478768,
				"element": "H" 
			},
			{
				"x": -1.8183393232,
				"y": 2.0003102961,
				"z": 0.3050389063,
				"element": "H" 
			}
		],
		 "valence_orbital": [ 
			{
				"type": "occ",
				"energy": -0.32073,
				"method": "rhf"
			},
			{
				"type": "occ",
				"energy": -0.30401,
				"method": "rhf"
			},
			{
				"type": "occ",
				"energy": -0.29872,
				"method": "rhf"
			},
			{
				"type": "occ",
				"energy": -0.28974,
				"method": "rhf"
			},
			{
				"type": "occ",
				"energy": -0.28376,
				"method": "rhf"
			},
			{
				"type": "unocc",
				"energy": -0.10266,
				"method": "rhf"
			},
			{
				"type": "unocc",
				"energy": -0.06898,
				"method": "rhf"
			},
			{
				"type": "unocc",
				"energy": -0.02064,
				"method": "rhf"
			},
			{
				"type": "unocc",
				"energy": 0.02823,
				"method": "rhf"
			},
			{
				"type": "unocc",
				"energy": 0.05465,
				"method": "rhf"
			}
		],
		"cosmo_sigma_profile": { 
			"-0.025": 0.0,
			"-0.024": 0.0,
			"-0.023": 0.0,
			"-0.022": 0.0,
			"-0.021": 0.0,
			"-0.02": 0.0435928084428,
			"-0.019": 0.66239943558,
			"-0.018": 0.944018803322,
			"-0.017": 1.40552752778,
			"-0.016": 0.743360902315,
			"-0.015": 0.897251886068,
			"-0.014": 0.815982982683,
			"-0.013": 0.819290788045,
			"-0.012": 1.17151925088,
			"-0.011": 1.20694037603,
			"-0.01": 1.25181142957,
			"-0.009": 1.73003150948,
			"-0.008": 3.67200747032,
			"-0.007": 8.14648404859,
			"-0.006": 9.56524151,
			"-0.005": 10.9796935059,
			"-0.004": 11.6213269016,
			"-0.003": 14.2080826412,
			"-0.002": 17.5732768977,
			"-0.001": 20.5973153789,
			"0.0": 15.9416542867,
			"0.001": 9.66141112475,
			"0.002": 4.95797591335,
			"0.003": 4.14766835002,
			"0.004": 4.05474948198,
			"0.005": 5.69843521453,
			"0.006": 7.07397712595,
			"0.007": 11.3626847951,
			"0.008": 9.18710270801,
			"0.009": 7.71016485438,
			"0.01": 6.94281867497,
			"0.011": 4.43410836115,
			"0.012": 2.52641168976,
			"0.013": 0.564455277062,
			"0.014": 0.0,
			"0.015": 0.0,
			"0.016": 0.0,
			"0.017": 0.0,
			"0.018": 0.0,
			"0.019": 0.0,
			"0.02": 0.0,
			"0.021": 0.0,
			"0.022": 0.0,
			"0.023": 0.0,
			"0.024": 0.0,
			"0.025": 0.0
		}
	}
}
