{
	 "smiles": "CSC1=C(C#N)C(N)=NN1", 
	 "Tm": 463.15, 
	 "num_atms": 16, 
	 "gaussian": { 
		 "optdone": 1, 
		 "sigma_profile": "yes", 
		 "theory": "DFT", 
		 "functional": "B3LYP", 
		 "basiset": "6-31G**", 
		 "properties": { 
			 "R2extent": 2269.3917, 
			 "electric_dipole_moment_norm": 3.81194653819, 
			 "electric_quadrupole_moment_norm": 7.81779225677, 
			 "total_energy": -811.305412098, 
			 "HOMO_LUMO_gap": 0.19201, 
			 "cosmo_polarized_energy": -16.26, 
			 "cosmo_cavitation_energy": 23.18, 
			 "cosmo_dispersion_energy": -16.9, 
			 "cosmo_repulsion_energy": 1.36, 
			 "cosmo_total_nonelectrostatic_energy": 7.64, 
			 "SMD_solvation_energy": 4.29 
		},
		"coords": [
			{
				"x": -0.2144913858,
				"y": 1.1824186065,
				"z": 2.2861513053,
				"element": "C" 
			},
			{
				"x": 0.9664943753,
				"y": 1.717873416,
				"z": 0.9849065008,
				"element": "S" 
			},
			{
				"x": -0.0728773377,
				"y": 1.7365453998,
				"z": -0.4349666803,
				"element": "C" 
			},
			{
				"x": -0.8516128291,
				"y": 0.7493368692,
				"z": -1.0556398737,
				"element": "C" 
			},
			{
				"x": -1.0647930381,
				"y": -0.5819927928,
				"z": -0.6370880448,
				"element": "C" 
			},
			{
				"x": -1.2739523034,
				"y": -1.6790976253,
				"z": -0.3019528758,
				"element": "N" 
			},
			{
				"x": -1.3950227292,
				"y": 1.3909813613,
				"z": -2.2151484203,
				"element": "C" 
			},
			{
				"x": -2.1863774027,
				"y": 0.8097260296,
				"z": -3.1818093007,
				"element": "N" 
			},
			{
				"x": -0.9862533164,
				"y": 2.6539738662,
				"z": -2.3074066512,
				"element": "N" 
			},
			{
				"x": -0.1940858945,
				"y": 2.8316021752,
				"z": -1.2135177808,
				"element": "N" 
			},
			{
				"x": -1.0245079035,
				"y": 1.9047296992,
				"z": 2.3960778211,
				"element": "H" 
			},
			{
				"x": 0.367145529,
				"y": 1.1419367338,
				"z": 3.2095647986,
				"element": "H" 
			},
			{
				"x": -0.6075894878,
				"y": 0.1898858079,
				"z": 2.0640230658,
				"element": "H" 
			},
			{
				"x": -2.679558056,
				"y": 1.4701283567,
				"z": -3.7666116573,
				"element": "H" 
			},
			{
				"x": -2.7550640905,
				"y": 0.0345493601,
				"z": -2.8718567068,
				"element": "H" 
			},
			{
				"x": 0.2369458706,
				"y": 3.7295027367,
				"z": -1.0534255,
				"element": "H" 
			}
		],
		 "valence_orbital": [ 
			{
				"type": "occ",
				"energy": -0.33338,
				"method": "rhf"
			},
			{
				"type": "occ",
				"energy": -0.30825,
				"method": "rhf"
			},
			{
				"type": "occ",
				"energy": -0.27679,
				"method": "rhf"
			},
			{
				"type": "occ",
				"energy": -0.24217,
				"method": "rhf"
			},
			{
				"type": "occ",
				"energy": -0.22497,
				"method": "rhf"
			},
			{
				"type": "unocc",
				"energy": -0.03296,
				"method": "rhf"
			},
			{
				"type": "unocc",
				"energy": 0.0204,
				"method": "rhf"
			},
			{
				"type": "unocc",
				"energy": 0.02715,
				"method": "rhf"
			},
			{
				"type": "unocc",
				"energy": 0.03212,
				"method": "rhf"
			},
			{
				"type": "unocc",
				"energy": 0.06163,
				"method": "rhf"
			}
		],
		"cosmo_sigma_profile": { 
			"-0.025": 0.0,
			"-0.024": 0.0,
			"-0.023": 0.0,
			"-0.022": 0.0,
			"-0.021": 0.0,
			"-0.02": 0.0,
			"-0.019": 0.0,
			"-0.018": 0.248015155659,
			"-0.017": 1.09719864158,
			"-0.016": 1.2137184412,
			"-0.015": 1.41007628375,
			"-0.014": 1.05608180049,
			"-0.013": 2.52477110552,
			"-0.012": 3.66646846729,
			"-0.011": 3.4985641405,
			"-0.01": 3.49279369365,
			"-0.009": 3.38171131987,
			"-0.008": 3.5343830829,
			"-0.007": 5.57941573611,
			"-0.006": 7.03185871578,
			"-0.005": 7.62520833777,
			"-0.004": 9.27704883451,
			"-0.003": 12.0397130949,
			"-0.002": 13.9306183726,
			"-0.001": 8.8322852106,
			"0.0": 11.8383917611,
			"0.001": 13.435606739,
			"0.002": 8.953946963,
			"0.003": 8.60205212359,
			"0.004": 7.22574888104,
			"0.005": 6.65086905274,
			"0.006": 6.0642852951,
			"0.007": 6.00767971096,
			"0.008": 5.66657662841,
			"0.009": 4.78641358407,
			"0.01": 4.66761070905,
			"0.011": 4.12910899281,
			"0.012": 5.15686893028,
			"0.013": 3.17453642323,
			"0.014": 1.36084839786,
			"0.015": 0.565076741744,
			"0.016": 0.0155415233196,
			"0.017": 0.0,
			"0.018": 0.0,
			"0.019": 0.0,
			"0.02": 0.0,
			"0.021": 0.0,
			"0.022": 0.0,
			"0.023": 0.0,
			"0.024": 0.0,
			"0.025": 0.0
		}
	}
}
