{
	 "smiles": "ClC1=C(Cl)C(Cl)=C(Cl)C2=C1C(=O)OC2=O", 
	 "Tm": 528.15, 
	 "num_atms": 15, 
	 "gaussian": { 
		 "optdone": 1, 
		 "sigma_profile": "yes", 
		 "theory": "DFT", 
		 "functional": "B3LYP", 
		 "basiset": "6-31G**", 
		 "properties": { 
			 "R2extent": 5540.9611, 
			 "electric_dipole_moment_norm": 3.49732470611, 
			 "electric_quadrupole_moment_norm": 9.74009864786, 
			 "total_energy": -2371.27786403, 
			 "HOMO_LUMO_gap": 0.16677, 
			 "cosmo_polarized_energy": -9.57, 
			 "cosmo_cavitation_energy": 27.98, 
			 "cosmo_dispersion_energy": -21.23, 
			 "cosmo_repulsion_energy": 1.63, 
			 "cosmo_total_nonelectrostatic_energy": 8.38, 
			 "SMD_solvation_energy": 5.68 
		},
		"coords": [
			{
				"x": 0.0399080393,
				"y": 1.0559952501,
				"z": -3.0988459657,
				"element": "Cl" 
			},
			{
				"x": -0.3192250781,
				"y": 1.225881957,
				"z": -1.4177334322,
				"element": "C" 
			},
			{
				"x": -1.5512464942,
				"y": 0.7927599744,
				"z": -0.8818915533,
				"element": "C" 
			},
			{
				"x": -2.7292229434,
				"y": 0.0763775742,
				"z": -1.9258549119,
				"element": "Cl" 
			},
			{
				"x": -1.8303985407,
				"y": 0.9386957937,
				"z": 0.4963668491,
				"element": "C" 
			},
			{
				"x": -3.3476284274,
				"y": 0.3996766726,
				"z": 1.1273643199,
				"element": "Cl" 
			},
			{
				"x": -0.8830852276,
				"y": 1.5206637125,
				"z": 1.3661403563,
				"element": "C" 
			},
			{
				"x": -1.2060789551,
				"y": 1.7073515657,
				"z": 3.0527946933,
				"element": "Cl" 
			},
			{
				"x": 0.3232864714,
				"y": 1.9399064697,
				"z": 0.8161193478,
				"element": "C" 
			},
			{
				"x": 0.5984312886,
				"y": 1.7960359413,
				"z": -0.5422644126,
				"element": "C" 
			},
			{
				"x": 1.9626688523,
				"y": 2.343102004,
				"z": -0.7873751279,
				"element": "C" 
			},
			{
				"x": 2.6035250496,
				"y": 2.4264896292,
				"z": -1.794128336,
				"element": "O" 
			},
			{
				"x": 2.4451666283,
				"y": 2.7917720362,
				"z": 0.4410154461,
				"element": "O" 
			},
			{
				"x": 1.509009093,
				"y": 2.5804771783,
				"z": 1.451939107,
				"element": "C" 
			},
			{
				"x": 1.715690244,
				"y": 2.8909142413,
				"z": 2.5886536202,
				"element": "O" 
			}
		],
		 "valence_orbital": [ 
			{
				"type": "occ",
				"energy": -0.33299,
				"method": "rhf"
			},
			{
				"type": "occ",
				"energy": -0.33204,
				"method": "rhf"
			},
			{
				"type": "occ",
				"energy": -0.30205,
				"method": "rhf"
			},
			{
				"type": "occ",
				"energy": -0.29792,
				"method": "rhf"
			},
			{
				"type": "occ",
				"energy": -0.28717,
				"method": "rhf"
			},
			{
				"type": "unocc",
				"energy": -0.1204,
				"method": "rhf"
			},
			{
				"type": "unocc",
				"energy": -0.09044,
				"method": "rhf"
			},
			{
				"type": "unocc",
				"energy": -0.05284,
				"method": "rhf"
			},
			{
				"type": "unocc",
				"energy": -0.01711,
				"method": "rhf"
			},
			{
				"type": "unocc",
				"energy": -0.00234,
				"method": "rhf"
			}
		],
		"cosmo_sigma_profile": { 
			"-0.025": 0.0,
			"-0.024": 0.0,
			"-0.023": 0.0,
			"-0.022": 0.0,
			"-0.021": 0.0,
			"-0.02": 0.0,
			"-0.019": 0.0,
			"-0.018": 0.0,
			"-0.017": 0.0,
			"-0.016": 0.0,
			"-0.015": 0.0,
			"-0.014": 0.0,
			"-0.013": 0.0,
			"-0.012": 0.313151452213,
			"-0.011": 1.06460833313,
			"-0.01": 1.67873702638,
			"-0.009": 2.49933922219,
			"-0.008": 2.4618950488,
			"-0.007": 4.63722588421,
			"-0.006": 8.15366516997,
			"-0.005": 21.5620300433,
			"-0.004": 18.7357643929,
			"-0.003": 13.9789326079,
			"-0.002": 14.7091661998,
			"-0.001": 15.0440644553,
			"0.0": 17.8696948301,
			"0.001": 23.8591673144,
			"0.002": 34.6670594847,
			"0.003": 10.8070857295,
			"0.004": 5.53788860072,
			"0.005": 6.25270872398,
			"0.006": 7.59746811259,
			"0.007": 6.27578906677,
			"0.008": 9.10260864591,
			"0.009": 8.61131351653,
			"0.01": 1.10202281764,
			"0.011": 0.0,
			"0.012": 0.0,
			"0.013": 0.0,
			"0.014": 0.0,
			"0.015": 0.0,
			"0.016": 0.0,
			"0.017": 0.0,
			"0.018": 0.0,
			"0.019": 0.0,
			"0.02": 0.0,
			"0.021": 0.0,
			"0.022": 0.0,
			"0.023": 0.0,
			"0.024": 0.0,
			"0.025": 0.0
		}
	}
}
