{
	 "smiles": "CS(=O)(=O)N1C=CN=C1", 
	 "Tm": 360.15, 
	 "num_atms": 15, 
	 "gaussian": { 
		 "optdone": 1, 
		 "sigma_profile": "yes", 
		 "theory": "DFT", 
		 "functional": "B3LYP", 
		 "basiset": "6-31G**", 
		 "properties": { 
			 "R2extent": 1799.2589, 
			 "electric_dipole_moment_norm": 4.01605150116, 
			 "electric_quadrupole_moment_norm": 11.0646109272, 
			 "total_energy": -814.090116026, 
			 "HOMO_LUMO_gap": 0.23755, 
			 "cosmo_polarized_energy": -15.16, 
			 "cosmo_cavitation_energy": 20.79, 
			 "cosmo_dispersion_energy": -15.67, 
			 "cosmo_repulsion_energy": 1.21, 
			 "cosmo_total_nonelectrostatic_energy": 6.33, 
			 "SMD_solvation_energy": 2.66 
		},
		"coords": [
			{
				"x": -1.7443313794,
				"y": -0.0391660584,
				"z": 0.9559864534,
				"element": "C" 
			},
			{
				"x": -0.3798201991,
				"y": -1.0623821581,
				"z": 1.5329663975,
				"element": "S" 
			},
			{
				"x": 0.6141662799,
				"y": -0.207350761,
				"z": 2.1703298224,
				"element": "O" 
			},
			{
				"x": -0.9256678075,
				"y": -2.2546627236,
				"z": 2.1698143573,
				"element": "O" 
			},
			{
				"x": 0.3300817722,
				"y": -1.5833594223,
				"z": 0.054275647,
				"element": "N" 
			},
			{
				"x": -0.0601039752,
				"y": -2.6843388306,
				"z": -0.7077069727,
				"element": "C" 
			},
			{
				"x": 0.7412017437,
				"y": -2.644730333,
				"z": -1.8132521386,
				"element": "C" 
			},
			{
				"x": 1.607250725,
				"y": -1.564941306,
				"z": -1.7659377563,
				"element": "N" 
			},
			{
				"x": 1.3435408718,
				"y": -0.9465005675,
				"z": -0.6454961548,
				"element": "C" 
			},
			{
				"x": -2.2615464338,
				"y": 0.3205071603,
				"z": 1.8476854373,
				"element": "H" 
			},
			{
				"x": -2.4106257034,
				"y": -0.6516928173,
				"z": 0.3478269936,
				"element": "H" 
			},
			{
				"x": -1.3397434422,
				"y": 0.7960716876,
				"z": 0.3836687578,
				"element": "H" 
			},
			{
				"x": -0.8192793807,
				"y": -3.3681826289,
				"z": -0.363764461,
				"element": "H" 
			},
			{
				"x": 0.7570712937,
				"y": -3.3383168487,
				"z": -2.6423512531,
				"element": "H" 
			},
			{
				"x": 1.8325056349,
				"y": -0.0660543925,
				"z": -0.2545451298,
				"element": "H" 
			}
		],
		 "valence_orbital": [ 
			{
				"type": "occ",
				"energy": -0.33701,
				"method": "rhf"
			},
			{
				"type": "occ",
				"energy": -0.3318,
				"method": "rhf"
			},
			{
				"type": "occ",
				"energy": -0.30431,
				"method": "rhf"
			},
			{
				"type": "occ",
				"energy": -0.28213,
				"method": "rhf"
			},
			{
				"type": "occ",
				"energy": -0.2507,
				"method": "rhf"
			},
			{
				"type": "unocc",
				"energy": -0.01315,
				"method": "rhf"
			},
			{
				"type": "unocc",
				"energy": 0.03462,
				"method": "rhf"
			},
			{
				"type": "unocc",
				"energy": 0.04648,
				"method": "rhf"
			},
			{
				"type": "unocc",
				"energy": 0.05028,
				"method": "rhf"
			},
			{
				"type": "unocc",
				"energy": 0.07571,
				"method": "rhf"
			}
		],
		"cosmo_sigma_profile": { 
			"-0.025": 0.0,
			"-0.024": 0.0,
			"-0.023": 0.0,
			"-0.022": 0.0,
			"-0.021": 0.0,
			"-0.02": 0.0,
			"-0.019": 0.0,
			"-0.018": 0.0,
			"-0.017": 0.0,
			"-0.016": 0.0,
			"-0.015": 0.0,
			"-0.014": 0.0,
			"-0.013": 0.0,
			"-0.012": 0.0,
			"-0.011": 0.638920784312,
			"-0.01": 5.2591179171,
			"-0.009": 9.38741736885,
			"-0.008": 9.87534438131,
			"-0.007": 10.4364725644,
			"-0.006": 11.1633894863,
			"-0.005": 10.6945290187,
			"-0.004": 7.2383429264,
			"-0.003": 6.38495795996,
			"-0.002": 7.3560765611,
			"-0.001": 6.27033858984,
			"0.0": 7.43592533072,
			"0.001": 7.35554368874,
			"0.002": 6.01135639016,
			"0.003": 6.90145542903,
			"0.004": 7.74317554741,
			"0.005": 5.73859277293,
			"0.006": 3.55558205828,
			"0.007": 4.63652555292,
			"0.008": 5.87756829684,
			"0.009": 10.526402061,
			"0.01": 8.86064612613,
			"0.011": 1.6364939751,
			"0.012": 1.24726892089,
			"0.013": 1.17213724673,
			"0.014": 0.968893881871,
			"0.015": 1.159422209,
			"0.016": 0.876468361725,
			"0.017": 0.401100637265,
			"0.018": 0.0,
			"0.019": 0.0,
			"0.02": 0.0,
			"0.021": 0.0,
			"0.022": 0.0,
			"0.023": 0.0,
			"0.024": 0.0,
			"0.025": 0.0
		}
	}
}
