{
	 "smiles": "COC1=NSN=C1NS(=O)(=O)C1=CC=C(N)C=C1", 
	 "Tm": 423.15, 
	 "num_atms": 28, 
	 "gaussian": { 
		 "optdone": 1, 
		 "sigma_profile": "yes", 
		 "theory": "DFT", 
		 "functional": "B3LYP", 
		 "basiset": "6-31G**", 
		 "properties": { 
			 "R2extent": 5314.0999, 
			 "electric_dipole_moment_norm": 5.04499570961, 
			 "electric_quadrupole_moment_norm": 25.209375812, 
			 "total_energy": -1589.92821139, 
			 "HOMO_LUMO_gap": 0.17278, 
			 "cosmo_polarized_energy": -20.09, 
			 "cosmo_cavitation_energy": 35.06, 
			 "cosmo_dispersion_energy": -25.67, 
			 "cosmo_repulsion_energy": 1.9, 
			 "cosmo_total_nonelectrostatic_energy": 11.29, 
			 "SMD_solvation_energy": 2.74 
		},
		"coords": [
			{
				"x": -3.5058850566,
				"y": -0.8575570773,
				"z": 0.4283460786,
				"element": "C" 
			},
			{
				"x": -2.7845119088,
				"y": 0.3671694261,
				"z": 0.179718367,
				"element": "O" 
			},
			{
				"x": -2.1210921589,
				"y": 0.8762338927,
				"z": 1.2385081041,
				"element": "C" 
			},
			{
				"x": -2.5460880779,
				"y": 1.9620943716,
				"z": 1.8381609029,
				"element": "N" 
			},
			{
				"x": -1.452204136,
				"y": 2.334663933,
				"z": 3.0308486845,
				"element": "S" 
			},
			{
				"x": -0.3850957789,
				"y": 1.0781935948,
				"z": 2.7668576452,
				"element": "N" 
			},
			{
				"x": -0.868989721,
				"y": 0.3627830125,
				"z": 1.7751251759,
				"element": "C" 
			},
			{
				"x": -0.2126058938,
				"y": -0.8139390639,
				"z": 1.3914912013,
				"element": "N" 
			},
			{
				"x": 0.2880182771,
				"y": -1.1903726902,
				"z": -0.2313219292,
				"element": "S" 
			},
			{
				"x": 1.444645747,
				"y": -2.0570632633,
				"z": 0.0066467414,
				"element": "O" 
			},
			{
				"x": -0.8889096794,
				"y": -1.665917978,
				"z": -0.9527384894,
				"element": "O" 
			},
			{
				"x": 0.8307552889,
				"y": 0.3294576437,
				"z": -0.9698037847,
				"element": "C" 
			},
			{
				"x": -0.0858926617,
				"y": 1.1497671062,
				"z": -1.6391974515,
				"element": "C" 
			},
			{
				"x": 0.3494409968,
				"y": 2.3373999801,
				"z": -2.2086927721,
				"element": "C" 
			},
			{
				"x": 1.7034680038,
				"y": 2.7235746454,
				"z": -2.1249997787,
				"element": "C" 
			},
			{
				"x": 2.1248016232,
				"y": 3.9258041705,
				"z": -2.6554035149,
				"element": "N" 
			},
			{
				"x": 2.6111426878,
				"y": 1.8791999078,
				"z": -1.4514348407,
				"element": "C" 
			},
			{
				"x": 2.1789895713,
				"y": 0.6940600614,
				"z": -0.8756535484,
				"element": "C" 
			},
			{
				"x": -4.307843052,
				"y": -0.6749214163,
				"z": 1.1514394134,
				"element": "H" 
			},
			{
				"x": -3.9271653096,
				"y": -1.1522306838,
				"z": -0.532031587,
				"element": "H" 
			},
			{
				"x": -2.8347053747,
				"y": -1.6437001208,
				"z": 0.7808856497,
				"element": "H" 
			},
			{
				"x": 0.5779230903,
				"y": -1.0063105192,
				"z": 2.0021767986,
				"element": "H" 
			},
			{
				"x": -1.1266035602,
				"y": 0.8530338584,
				"z": -1.7093807835,
				"element": "H" 
			},
			{
				"x": -0.3590348773,
				"y": 2.9778531863,
				"z": -2.7268629377,
				"element": "H" 
			},
			{
				"x": 3.112802432,
				"y": 4.0387533817,
				"z": -2.8251766568,
				"element": "H" 
			},
			{
				"x": 1.5350145066,
				"y": 4.3596620629,
				"z": -3.3494417064,
				"element": "H" 
			},
			{
				"x": 3.6584058639,
				"y": 2.1614974044,
				"z": -1.3864578199,
				"element": "H" 
			},
			{
				"x": 2.8812191582,
				"y": 0.0376111733,
				"z": -0.3733071616,
				"element": "H" 
			}
		],
		 "valence_orbital": [ 
			{
				"type": "occ",
				"energy": -0.29491,
				"method": "rhf"
			},
			{
				"type": "occ",
				"energy": -0.28158,
				"method": "rhf"
			},
			{
				"type": "occ",
				"energy": -0.27225,
				"method": "rhf"
			},
			{
				"type": "occ",
				"energy": -0.24492,
				"method": "rhf"
			},
			{
				"type": "occ",
				"energy": -0.22737,
				"method": "rhf"
			},
			{
				"type": "unocc",
				"energy": -0.05459,
				"method": "rhf"
			},
			{
				"type": "unocc",
				"energy": -0.02974,
				"method": "rhf"
			},
			{
				"type": "unocc",
				"energy": -0.01972,
				"method": "rhf"
			},
			{
				"type": "unocc",
				"energy": 0.00133,
				"method": "rhf"
			},
			{
				"type": "unocc",
				"energy": 0.0277,
				"method": "rhf"
			}
		],
		"cosmo_sigma_profile": { 
			"-0.025": 0.0,
			"-0.024": 0.0,
			"-0.023": 0.0,
			"-0.022": 0.0,
			"-0.021": 0.0,
			"-0.02": 0.0,
			"-0.019": 0.0,
			"-0.018": 0.0,
			"-0.017": 0.0,
			"-0.016": 0.0487871126804,
			"-0.015": 0.523727505042,
			"-0.014": 1.45891776467,
			"-0.013": 3.92119620325,
			"-0.012": 3.93178040104,
			"-0.011": 3.52863629861,
			"-0.01": 4.51068311606,
			"-0.009": 3.85050472851,
			"-0.008": 4.58307036925,
			"-0.007": 7.79744991345,
			"-0.006": 10.4477181065,
			"-0.005": 17.8538737553,
			"-0.004": 20.0291831842,
			"-0.003": 18.5341670327,
			"-0.002": 15.6606733864,
			"-0.001": 17.0150666327,
			"0.0": 18.8281942157,
			"0.001": 19.1233876125,
			"0.002": 17.3332395177,
			"0.003": 20.0427426045,
			"0.004": 13.8818683263,
			"0.005": 7.81466479699,
			"0.006": 7.61544426553,
			"0.007": 7.27965305159,
			"0.008": 7.30378990114,
			"0.009": 8.35035913425,
			"0.01": 10.0532748505,
			"0.011": 9.08298178802,
			"0.012": 2.07783693737,
			"0.013": 0.36106452657,
			"0.014": 0.0,
			"0.015": 0.0,
			"0.016": 0.0,
			"0.017": 0.0,
			"0.018": 0.0,
			"0.019": 0.0,
			"0.02": 0.0,
			"0.021": 0.0,
			"0.022": 0.0,
			"0.023": 0.0,
			"0.024": 0.0,
			"0.025": 0.0
		}
	}
}
