{
	 "smiles": "O=C1NC=NC2=C1SC(NCC1=CC=CO1)=N2", 
	 "Tm": 553.15, 
	 "num_atms": 25, 
	 "gaussian": { 
		 "optdone": 1, 
		 "sigma_profile": "yes", 
		 "theory": "DFT", 
		 "functional": "B3LYP", 
		 "basiset": "6-31G**", 
		 "properties": { 
			 "R2extent": 6140.5543, 
			 "electric_dipole_moment_norm": 2.23627988186, 
			 "electric_quadrupole_moment_norm": 23.7707479584, 
			 "total_energy": -1153.5168969, 
			 "HOMO_LUMO_gap": 0.17078, 
			 "cosmo_polarized_energy": -21.89, 
			 "cosmo_cavitation_energy": 32.62, 
			 "cosmo_dispersion_energy": -24.01, 
			 "cosmo_repulsion_energy": 1.81, 
			 "cosmo_total_nonelectrostatic_energy": 10.42, 
			 "SMD_solvation_energy": 3.34 
		},
		"coords": [
			{
				"x": -4.8074022294,
				"y": 1.5582723091,
				"z": -1.4457112939,
				"element": "O" 
			},
			{
				"x": -4.4037773125,
				"y": 0.6052411837,
				"z": -0.7918201785,
				"element": "C" 
			},
			{
				"x": -5.2208872647,
				"y": -0.002596001,
				"z": 0.2011363222,
				"element": "N" 
			},
			{
				"x": -4.8456196383,
				"y": -1.064119517,
				"z": 0.9723042967,
				"element": "C" 
			},
			{
				"x": -3.6959413802,
				"y": -1.6637945184,
				"z": 0.9058167599,
				"element": "N" 
			},
			{
				"x": -2.8268372966,
				"y": -1.1543912455,
				"z": -0.0281460446,
				"element": "C" 
			},
			{
				"x": -3.1423893522,
				"y": -0.0727922001,
				"z": -0.8496561651,
				"element": "C" 
			},
			{
				"x": -1.8042471315,
				"y": 0.3008556861,
				"z": -1.9075927145,
				"element": "S" 
			},
			{
				"x": -0.9313528488,
				"y": -1.0486414321,
				"z": -1.1339649174,
				"element": "C" 
			},
			{
				"x": 0.3137060306,
				"y": -1.387042935,
				"z": -1.5602756241,
				"element": "N" 
			},
			{
				"x": 1.1286852208,
				"y": -2.3442441144,
				"z": -0.7948560091,
				"element": "C" 
			},
			{
				"x": 1.8413535647,
				"y": -1.7476215923,
				"z": 0.3729099403,
				"element": "C" 
			},
			{
				"x": 1.5665180921,
				"y": -1.675245242,
				"z": 1.7066951793,
				"element": "C" 
			},
			{
				"x": 2.6279164425,
				"y": -0.9163396257,
				"z": 2.300912993,
				"element": "C" 
			},
			{
				"x": 3.4674129363,
				"y": -0.5790873167,
				"z": 1.28398812,
				"element": "C" 
			},
			{
				"x": 3.0066120357,
				"y": -1.0754904262,
				"z": 0.0998335582,
				"element": "O" 
			},
			{
				"x": -1.5772656601,
				"y": -1.6928316486,
				"z": -0.1941732705,
				"element": "N" 
			},
			{
				"x": -6.1382618583,
				"y": 0.4126049202,
				"z": 0.3127513093,
				"element": "H" 
			},
			{
				"x": -5.5879953457,
				"y": -1.4109384614,
				"z": 1.6878675829,
				"element": "H" 
			},
			{
				"x": 0.816580738,
				"y": -0.7006359418,
				"z": -2.1044815438,
				"element": "H" 
			},
			{
				"x": 0.4571657959,
				"y": -3.1297005987,
				"z": -0.4474597808,
				"element": "H" 
			},
			{
				"x": 1.8492527287,
				"y": -2.7844981051,
				"z": -1.4907755121,
				"element": "H" 
			},
			{
				"x": 0.7032684249,
				"y": -2.1021679269,
				"z": 2.1961539434,
				"element": "H" 
			},
			{
				"x": 2.7466933155,
				"y": -0.6607279731,
				"z": 3.3439901855,
				"element": "H" 
			},
			{
				"x": 4.3923119927,
				"y": -0.025567277,
				"z": 1.2339528641,
				"element": "H" 
			}
		],
		 "valence_orbital": [ 
			{
				"type": "occ",
				"energy": -0.27924,
				"method": "rhf"
			},
			{
				"type": "occ",
				"energy": -0.26049,
				"method": "rhf"
			},
			{
				"type": "occ",
				"energy": -0.25877,
				"method": "rhf"
			},
			{
				"type": "occ",
				"energy": -0.2301,
				"method": "rhf"
			},
			{
				"type": "occ",
				"energy": -0.21389,
				"method": "rhf"
			},
			{
				"type": "unocc",
				"energy": -0.04311,
				"method": "rhf"
			},
			{
				"type": "unocc",
				"energy": -0.00834,
				"method": "rhf"
			},
			{
				"type": "unocc",
				"energy": 0.00017,
				"method": "rhf"
			},
			{
				"type": "unocc",
				"energy": 0.00432,
				"method": "rhf"
			},
			{
				"type": "unocc",
				"energy": 0.03723,
				"method": "rhf"
			}
		],
		"cosmo_sigma_profile": { 
			"-0.025": 0.0,
			"-0.024": 0.0,
			"-0.023": 0.0,
			"-0.022": 0.0,
			"-0.021": 0.0,
			"-0.02": 0.0,
			"-0.019": 0.0,
			"-0.018": 0.0,
			"-0.017": 0.979034351317,
			"-0.016": 2.28383988163,
			"-0.015": 2.94481401245,
			"-0.014": 2.82566672139,
			"-0.013": 1.77597774855,
			"-0.012": 3.14759447044,
			"-0.011": 2.71541456965,
			"-0.01": 4.42318126071,
			"-0.009": 3.75328609064,
			"-0.008": 6.19564800489,
			"-0.007": 8.22015744742,
			"-0.006": 10.9039801002,
			"-0.005": 10.2637063098,
			"-0.004": 12.430744402,
			"-0.003": 13.9489385766,
			"-0.002": 17.7878573418,
			"-0.001": 16.1851919132,
			"0.0": 18.2338133411,
			"0.001": 19.5436017622,
			"0.002": 17.4421054844,
			"0.003": 17.5070110358,
			"0.004": 14.488844411,
			"0.005": 12.8055741918,
			"0.006": 7.99372370503,
			"0.007": 4.59751105995,
			"0.008": 4.3315247628,
			"0.009": 2.70573518299,
			"0.01": 2.78056257584,
			"0.011": 3.53564773848,
			"0.012": 4.92023573158,
			"0.013": 8.22697270579,
			"0.014": 3.51858711772,
			"0.015": 1.19942267243,
			"0.016": 0.168400897444,
			"0.017": 0.0,
			"0.018": 0.0,
			"0.019": 0.0,
			"0.02": 0.0,
			"0.021": 0.0,
			"0.022": 0.0,
			"0.023": 0.0,
			"0.024": 0.0,
			"0.025": 0.0
		}
	}
}
