{
	 "smiles": "CN1C(C)=NN=C1SC1=CC=C(O1)C=O", 
	 "Tm": 418.15, 
	 "num_atms": 24, 
	 "gaussian": { 
		 "optdone": 1, 
		 "sigma_profile": "yes", 
		 "theory": "DFT", 
		 "functional": "B3LYP", 
		 "basiset": "6-31G**", 
		 "properties": { 
			 "R2extent": 4978.4591, 
			 "electric_dipole_moment_norm": 4.09666264537, 
			 "electric_quadrupole_moment_norm": 27.6555007715, 
			 "total_energy": -1061.2079477, 
			 "HOMO_LUMO_gap": 0.17292, 
			 "cosmo_polarized_energy": -19.95, 
			 "cosmo_cavitation_energy": 31.55, 
			 "cosmo_dispersion_energy": -22.22, 
			 "cosmo_repulsion_energy": 1.71, 
			 "cosmo_total_nonelectrostatic_energy": 11.04, 
			 "SMD_solvation_energy": 4.79 
		},
		"coords": [
			{
				"x": 1.796036985,
				"y": -1.2441484414,
				"z": -1.2829668025,
				"element": "C" 
			},
			{
				"x": 2.4979806916,
				"y": 0.0006370753,
				"z": -0.9987047888,
				"element": "N" 
			},
			{
				"x": 3.5840077856,
				"y": 0.1836659665,
				"z": -0.1832748838,
				"element": "C" 
			},
			{
				"x": 4.2419766935,
				"y": -0.8890721909,
				"z": 0.6167773575,
				"element": "C" 
			},
			{
				"x": 3.9628145926,
				"y": 1.4481003295,
				"z": -0.2050896011,
				"element": "N" 
			},
			{
				"x": 3.1208201944,
				"y": 2.1259455442,
				"z": -1.050970141,
				"element": "N" 
			},
			{
				"x": 2.2520575616,
				"y": 1.2567706299,
				"z": -1.51685686,
				"element": "C" 
			},
			{
				"x": 0.9974378866,
				"y": 1.6256065768,
				"z": -2.7133528575,
				"element": "S" 
			},
			{
				"x": -0.4026043546,
				"y": 1.9274491087,
				"z": -1.6885415323,
				"element": "C" 
			},
			{
				"x": -1.033449736,
				"y": 3.0973281113,
				"z": -1.3400824062,
				"element": "C" 
			},
			{
				"x": -2.1584113434,
				"y": 2.7302055042,
				"z": -0.5568782472,
				"element": "C" 
			},
			{
				"x": -2.1446199581,
				"y": 1.358968466,
				"z": -0.4728619161,
				"element": "C" 
			},
			{
				"x": -1.0755031821,
				"y": 0.8578737315,
				"z": -1.1722892428,
				"element": "O" 
			},
			{
				"x": -3.019590065,
				"y": 0.4016019475,
				"z": 0.192641025,
				"element": "C" 
			},
			{
				"x": -4.0026971372,
				"y": 0.7261137985,
				"z": 0.8345278278,
				"element": "O" 
			},
			{
				"x": 2.1943073423,
				"y": -1.7224985606,
				"z": -2.1831098304,
				"element": "H" 
			},
			{
				"x": 1.9156992033,
				"y": -1.9225382704,
				"z": -0.4368767937,
				"element": "H" 
			},
			{
				"x": 0.7350373378,
				"y": -1.0403575525,
				"z": -1.42587141,
				"element": "H" 
			},
			{
				"x": 4.6392044103,
				"y": -1.6890074401,
				"z": -0.0178127726,
				"element": "H" 
			},
			{
				"x": 3.5533748136,
				"y": -1.3426736534,
				"z": 1.3388827008,
				"element": "H" 
			},
			{
				"x": 5.0697872085,
				"y": -0.4388739772,
				"z": 1.1663923251,
				"element": "H" 
			},
			{
				"x": -0.7071509053,
				"y": 4.0903139482,
				"z": -1.6113314312,
				"element": "H" 
			},
			{
				"x": -2.8928010468,
				"y": 3.37567892,
				"z": -0.0975999715,
				"element": "H" 
			},
			{
				"x": -2.7170149782,
				"y": -0.6591895715,
				"z": 0.0659502526,
				"element": "H" 
			}
		],
		 "valence_orbital": [ 
			{
				"type": "occ",
				"energy": -0.28367,
				"method": "rhf"
			},
			{
				"type": "occ",
				"energy": -0.26868,
				"method": "rhf"
			},
			{
				"type": "occ",
				"energy": -0.26195,
				"method": "rhf"
			},
			{
				"type": "occ",
				"energy": -0.25722,
				"method": "rhf"
			},
			{
				"type": "occ",
				"energy": -0.25145,
				"method": "rhf"
			},
			{
				"type": "unocc",
				"energy": -0.07853,
				"method": "rhf"
			},
			{
				"type": "unocc",
				"energy": -0.01786,
				"method": "rhf"
			},
			{
				"type": "unocc",
				"energy": -0.00243,
				"method": "rhf"
			},
			{
				"type": "unocc",
				"energy": 0.03128,
				"method": "rhf"
			},
			{
				"type": "unocc",
				"energy": 0.06697,
				"method": "rhf"
			}
		],
		"cosmo_sigma_profile": { 
			"-0.025": 0.0,
			"-0.024": 0.0,
			"-0.023": 0.0,
			"-0.022": 0.0,
			"-0.021": 0.0,
			"-0.02": 0.0,
			"-0.019": 0.0,
			"-0.018": 0.0,
			"-0.017": 0.0,
			"-0.016": 0.0,
			"-0.015": 0.0,
			"-0.014": 0.0,
			"-0.013": 0.0,
			"-0.012": 0.0,
			"-0.011": 0.0,
			"-0.01": 0.0484349984147,
			"-0.009": 2.60247839704,
			"-0.008": 5.7355339122,
			"-0.007": 12.5985757724,
			"-0.006": 19.3550397957,
			"-0.005": 20.512136036,
			"-0.004": 23.5564649596,
			"-0.003": 19.913615998,
			"-0.002": 23.3958487947,
			"-0.001": 20.1463857648,
			"0.0": 16.2053188104,
			"0.001": 16.5698528252,
			"0.002": 11.6701055991,
			"0.003": 6.3538922577,
			"0.004": 6.27488729706,
			"0.005": 4.32373846929,
			"0.006": 4.45504129338,
			"0.007": 3.98955241045,
			"0.008": 3.63471322538,
			"0.009": 4.57970472479,
			"0.01": 4.38858640739,
			"0.011": 7.57045030806,
			"0.012": 5.17641277269,
			"0.013": 3.92817904802,
			"0.014": 2.95178904894,
			"0.015": 2.75294663537,
			"0.016": 2.01745191774,
			"0.017": 0.74071488679,
			"0.018": 0.0109696733199,
			"0.019": 0.0,
			"0.02": 0.0,
			"0.021": 0.0,
			"0.022": 0.0,
			"0.023": 0.0,
			"0.024": 0.0,
			"0.025": 0.0
		}
	}
}
