{
	 "smiles": "CN(C)C(=O)COC(=O)C1=CC=CC=C1", 
	 "Tm": 354.65, 
	 "num_atms": 28, 
	 "gaussian": { 
		 "optdone": 1, 
		 "sigma_profile": "yes", 
		 "theory": "DFT", 
		 "functional": "B3LYP", 
		 "basiset": "6-31G**", 
		 "properties": { 
			 "R2extent": 4301.2935, 
			 "electric_dipole_moment_norm": 3.74743155374, 
			 "electric_quadrupole_moment_norm": 10.6363704218, 
			 "total_energy": -707.446575645, 
			 "HOMO_LUMO_gap": 0.1866, 
			 "cosmo_polarized_energy": -12.25, 
			 "cosmo_cavitation_energy": 31.9, 
			 "cosmo_dispersion_energy": -22.62, 
			 "cosmo_repulsion_energy": 1.78, 
			 "cosmo_total_nonelectrostatic_energy": 11.05, 
			 "SMD_solvation_energy": 7.05 
		},
		"coords": [
			{
				"x": 4.3461467149,
				"y": 0.5078123636,
				"z": 1.6634136048,
				"element": "C" 
			},
			{
				"x": 2.8931569045,
				"y": 0.563110751,
				"z": 1.5744309377,
				"element": "N" 
			},
			{
				"x": 2.1769240528,
				"y": -0.5267745584,
				"z": 2.2197001881,
				"element": "C" 
			},
			{
				"x": 2.3173624308,
				"y": 1.5807843801,
				"z": 0.8613480539,
				"element": "C" 
			},
			{
				"x": 2.9621182343,
				"y": 2.5051564813,
				"z": 0.3744119962,
				"element": "O" 
			},
			{
				"x": 0.7952355903,
				"y": 1.565995531,
				"z": 0.6843255059,
				"element": "C" 
			},
			{
				"x": 0.383935877,
				"y": 0.4030736361,
				"z": -0.0630321649,
				"element": "O" 
			},
			{
				"x": -0.6782904879,
				"y": -0.3031311116,
				"z": 0.40112575,
				"element": "C" 
			},
			{
				"x": -1.2442022504,
				"y": -0.0528570005,
				"z": 1.4492124751,
				"element": "O" 
			},
			{
				"x": -1.0504271681,
				"y": -1.4207682255,
				"z": -0.5084383712,
				"element": "C" 
			},
			{
				"x": -0.3767596328,
				"y": -1.6622807523,
				"z": -1.7146057074,
				"element": "C" 
			},
			{
				"x": -0.7705623551,
				"y": -2.7239384978,
				"z": -2.5272225503,
				"element": "C" 
			},
			{
				"x": -1.8338143689,
				"y": -3.5448275511,
				"z": -2.1427041943,
				"element": "C" 
			},
			{
				"x": -2.5073630565,
				"y": -3.304624026,
				"z": -0.9417576785,
				"element": "C" 
			},
			{
				"x": -2.117929995,
				"y": -2.2456194554,
				"z": -0.1259913258,
				"element": "C" 
			},
			{
				"x": 4.7569213559,
				"y": 1.3548098286,
				"z": 1.1167268931,
				"element": "H" 
			},
			{
				"x": 4.6687710069,
				"y": 0.5580653389,
				"z": 2.7106897098,
				"element": "H" 
			},
			{
				"x": 4.7218441192,
				"y": -0.4284523074,
				"z": 1.231569975,
				"element": "H" 
			},
			{
				"x": 2.2613223466,
				"y": -1.4605462393,
				"z": 1.6474441518,
				"element": "H" 
			},
			{
				"x": 2.6070701847,
				"y": -0.6994706216,
				"z": 3.2127849722,
				"element": "H" 
			},
			{
				"x": 1.1213734923,
				"y": -0.2957598259,
				"z": 2.3534778693,
				"element": "H" 
			},
			{
				"x": 0.2541433214,
				"y": 1.5996165786,
				"z": 1.6330755222,
				"element": "H" 
			},
			{
				"x": 0.5509742857,
				"y": 2.4476714449,
				"z": 0.0907793322,
				"element": "H" 
			},
			{
				"x": 0.4451297806,
				"y": -1.0188979687,
				"z": -2.0063247627,
				"element": "H" 
			},
			{
				"x": -0.2493194328,
				"y": -2.9105366168,
				"z": -3.4614170751,
				"element": "H" 
			},
			{
				"x": -2.1382102527,
				"y": -4.3707945337,
				"z": -2.7793010543,
				"element": "H" 
			},
			{
				"x": -3.3345042299,
				"y": -3.9421357657,
				"z": -0.6440834553,
				"element": "H" 
			},
			{
				"x": -2.6256464679,
				"y": -2.0378812766,
				"z": 0.8097614026,
				"element": "H" 
			}
		],
		 "valence_orbital": [ 
			{
				"type": "occ",
				"energy": -0.28568,
				"method": "rhf"
			},
			{
				"type": "occ",
				"energy": -0.26645,
				"method": "rhf"
			},
			{
				"type": "occ",
				"energy": -0.26425,
				"method": "rhf"
			},
			{
				"type": "occ",
				"energy": -0.24868,
				"method": "rhf"
			},
			{
				"type": "occ",
				"energy": -0.24028,
				"method": "rhf"
			},
			{
				"type": "unocc",
				"energy": -0.05368,
				"method": "rhf"
			},
			{
				"type": "unocc",
				"energy": -0.01347,
				"method": "rhf"
			},
			{
				"type": "unocc",
				"energy": 0.01373,
				"method": "rhf"
			},
			{
				"type": "unocc",
				"energy": 0.05061,
				"method": "rhf"
			},
			{
				"type": "unocc",
				"energy": 0.08709,
				"method": "rhf"
			}
		],
		"cosmo_sigma_profile": { 
			"-0.025": 0.0,
			"-0.024": 0.0,
			"-0.023": 0.0,
			"-0.022": 0.0,
			"-0.021": 0.0,
			"-0.02": 0.0,
			"-0.019": 0.0,
			"-0.018": 0.0,
			"-0.017": 0.0,
			"-0.016": 0.0,
			"-0.015": 0.0,
			"-0.014": 0.0,
			"-0.013": 0.0,
			"-0.012": 0.0,
			"-0.011": 0.0,
			"-0.01": 0.0,
			"-0.009": 0.0,
			"-0.008": 0.744732005978,
			"-0.007": 4.7578859834,
			"-0.006": 13.2478742187,
			"-0.005": 23.9863035822,
			"-0.004": 27.7432320718,
			"-0.003": 26.3014207471,
			"-0.002": 24.7441420993,
			"-0.001": 16.4557603633,
			"0.0": 14.9211621221,
			"0.001": 18.5759473725,
			"0.002": 17.3130328277,
			"0.003": 16.6301867813,
			"0.004": 14.2757698617,
			"0.005": 3.96990676762,
			"0.006": 2.653510314,
			"0.007": 2.37309103141,
			"0.008": 2.50849360015,
			"0.009": 2.66256595897,
			"0.01": 3.26608145366,
			"0.011": 5.67891639308,
			"0.012": 2.92352840565,
			"0.013": 3.9613936871,
			"0.014": 3.71134659642,
			"0.015": 0.328691455069,
			"0.016": 0.0,
			"0.017": 0.0,
			"0.018": 0.0,
			"0.019": 0.0,
			"0.02": 0.0,
			"0.021": 0.0,
			"0.022": 0.0,
			"0.023": 0.0,
			"0.024": 0.0,
			"0.025": 0.0
		}
	}
}
