{
	 "smiles": "CC1=CC=C(OCC(O)=O)C=C1", 
	 "Tm": 413.15, 
	 "num_atms": 22, 
	 "gaussian": { 
		 "optdone": 1, 
		 "sigma_profile": "yes", 
		 "theory": "DFT", 
		 "functional": "B3LYP", 
		 "basiset": "6-31G**", 
		 "properties": { 
			 "R2extent": 3011.2369, 
			 "electric_dipole_moment_norm": 0.875703014726, 
			 "electric_quadrupole_moment_norm": 6.6658960613, 
			 "total_energy": -574.659061177, 
			 "HOMO_LUMO_gap": 0.20745, 
			 "cosmo_polarized_energy": -11.54, 
			 "cosmo_cavitation_energy": 26.29, 
			 "cosmo_dispersion_energy": -19.08, 
			 "cosmo_repulsion_energy": 1.55, 
			 "cosmo_total_nonelectrostatic_energy": 8.77, 
			 "SMD_solvation_energy": 6.08 
		},
		"coords": [
			{
				"x": 2.8381389232,
				"y": 1.1304736495,
				"z": 1.6497389049,
				"element": "C" 
			},
			{
				"x": 1.4115595885,
				"y": 0.9753757732,
				"z": 1.1768886694,
				"element": "C" 
			},
			{
				"x": 0.9102495171,
				"y": 1.7199025448,
				"z": 0.108029115,
				"element": "C" 
			},
			{
				"x": -0.4104239903,
				"y": 1.5827155213,
				"z": -0.3357842266,
				"element": "C" 
			},
			{
				"x": -1.2572648548,
				"y": 0.6767672671,
				"z": 0.3058757316,
				"element": "C" 
			},
			{
				"x": -2.5734101042,
				"y": 0.4569571973,
				"z": -0.0279485366,
				"element": "O" 
			},
			{
				"x": -3.1382870105,
				"y": 1.228468562,
				"z": -1.0617235901,
				"element": "C" 
			},
			{
				"x": -2.6898649297,
				"y": 0.8652564578,
				"z": -2.4755928019,
				"element": "C" 
			},
			{
				"x": -2.2663111999,
				"y": -0.4072793407,
				"z": -2.5803522304,
				"element": "O" 
			},
			{
				"x": -2.7575352759,
				"y": 1.634670189,
				"z": -3.4083438673,
				"element": "O" 
			},
			{
				"x": -0.7749124722,
				"y": -0.0827237,
				"z": 1.3800541099,
				"element": "C" 
			},
			{
				"x": 0.5389108168,
				"y": 0.0689121602,
				"z": 1.8029940076,
				"element": "C" 
			},
			{
				"x": 3.3793677816,
				"y": 1.8656078857,
				"z": 1.047495883,
				"element": "H" 
			},
			{
				"x": 2.8820416411,
				"y": 1.4606037423,
				"z": 2.694412376,
				"element": "H" 
			},
			{
				"x": 3.3870887572,
				"y": 0.1833057287,
				"z": 1.5899971909,
				"element": "H" 
			},
			{
				"x": 1.5595208899,
				"y": 2.4280696308,
				"z": -0.4008223865,
				"element": "H" 
			},
			{
				"x": -0.7487535226,
				"y": 2.1805334908,
				"z": -1.1746941619,
				"element": "H" 
			},
			{
				"x": -4.2176723792,
				"y": 1.0492469119,
				"z": -1.0112043356,
				"element": "H" 
			},
			{
				"x": -2.9706978971,
				"y": 2.3031148397,
				"z": -0.9279262893,
				"element": "H" 
			},
			{
				"x": -2.0218061292,
				"y": -0.5362365187,
				"z": -3.5126476861,
				"element": "H" 
			},
			{
				"x": -1.4479116924,
				"y": -0.7823746669,
				"z": 1.8649456276,
				"element": "H" 
			},
			{
				"x": 0.8967735427,
				"y": -0.5282673258,
				"z": 2.6385084964,
				"element": "H" 
			}
		],
		 "valence_orbital": [ 
			{
				"type": "occ",
				"energy": -0.32646,
				"method": "rhf"
			},
			{
				"type": "occ",
				"energy": -0.3205,
				"method": "rhf"
			},
			{
				"type": "occ",
				"energy": -0.28096,
				"method": "rhf"
			},
			{
				"type": "occ",
				"energy": -0.24959,
				"method": "rhf"
			},
			{
				"type": "occ",
				"energy": -0.21588,
				"method": "rhf"
			},
			{
				"type": "unocc",
				"energy": -0.00843,
				"method": "rhf"
			},
			{
				"type": "unocc",
				"energy": 0.00482,
				"method": "rhf"
			},
			{
				"type": "unocc",
				"energy": 0.01344,
				"method": "rhf"
			},
			{
				"type": "unocc",
				"energy": 0.06899,
				"method": "rhf"
			},
			{
				"type": "unocc",
				"energy": 0.0912,
				"method": "rhf"
			}
		],
		"cosmo_sigma_profile": { 
			"-0.025": 0.0,
			"-0.024": 0.0,
			"-0.023": 0.0,
			"-0.022": 0.0,
			"-0.021": 0.0,
			"-0.02": 0.0,
			"-0.019": 0.368480955521,
			"-0.018": 1.15240990897,
			"-0.017": 0.5753003286,
			"-0.016": 0.956013084799,
			"-0.015": 0.976875984924,
			"-0.014": 0.59473745773,
			"-0.013": 0.548601992298,
			"-0.012": 0.58474148287,
			"-0.011": 0.754294113216,
			"-0.01": 1.28687907472,
			"-0.009": 2.90546992396,
			"-0.008": 3.23491141302,
			"-0.007": 5.47064457365,
			"-0.006": 8.87354041225,
			"-0.005": 12.6591718724,
			"-0.004": 15.7345258762,
			"-0.003": 16.9328970874,
			"-0.002": 14.8777529035,
			"-0.001": 14.074310304,
			"0.0": 14.1553868172,
			"0.001": 12.1789438006,
			"0.002": 9.43389086374,
			"0.003": 10.0903727651,
			"0.004": 11.4754141958,
			"0.005": 12.7340493067,
			"0.006": 10.2772775215,
			"0.007": 4.07838442835,
			"0.008": 4.42901397098,
			"0.009": 4.20645225296,
			"0.01": 5.01468145103,
			"0.011": 4.57153038139,
			"0.012": 3.07302985066,
			"0.013": 0.0964086399342,
			"0.014": 0.0,
			"0.015": 0.0,
			"0.016": 0.0,
			"0.017": 0.0,
			"0.018": 0.0,
			"0.019": 0.0,
			"0.02": 0.0,
			"0.021": 0.0,
			"0.022": 0.0,
			"0.023": 0.0,
			"0.024": 0.0,
			"0.025": 0.0
		}
	}
}
