{
	 "smiles": "CC1=NN(C(C)=C1NC(=O)CCl)C1=CC=CC=C1", 
	 "Tm": 423.15, 
	 "num_atms": 32, 
	 "gaussian": { 
		 "optdone": 1, 
		 "sigma_profile": "yes", 
		 "theory": "DFT", 
		 "functional": "B3LYP", 
		 "basiset": "6-31G**", 
		 "properties": { 
			 "R2extent": 7215.3242, 
			 "electric_dipole_moment_norm": 1.56832962734, 
			 "electric_quadrupole_moment_norm": 9.16017778867, 
			 "total_energy": -1203.50198182, 
			 "HOMO_LUMO_gap": 0.19736, 
			 "cosmo_polarized_energy": -14.24, 
			 "cosmo_cavitation_energy": 37.63, 
			 "cosmo_dispersion_energy": -26.54, 
			 "cosmo_repulsion_energy": 2.08, 
			 "cosmo_total_nonelectrostatic_energy": 13.17, 
			 "SMD_solvation_energy": 5.84 
		},
		"coords": [
			{
				"x": -2.9370110956,
				"y": -0.5726083737,
				"z": -0.2626366567,
				"element": "C" 
			},
			{
				"x": -1.6068996476,
				"y": 0.0872615466,
				"z": -0.0728125768,
				"element": "C" 
			},
			{
				"x": -1.2621287704,
				"y": 0.6167245305,
				"z": 1.0945016933,
				"element": "N" 
			},
			{
				"x": -0.0145006185,
				"y": 1.1379333181,
				"z": 0.9065709772,
				"element": "N" 
			},
			{
				"x": 0.4613282679,
				"y": 0.918401533,
				"z": -0.3630010034,
				"element": "C" 
			},
			{
				"x": 1.8300245018,
				"y": 1.265982787,
				"z": -0.8497191392,
				"element": "C" 
			},
			{
				"x": -0.5628422651,
				"y": 0.2534537163,
				"z": -1.0194684497,
				"element": "C" 
			},
			{
				"x": -0.5771505898,
				"y": -0.1930208336,
				"z": -2.3577147883,
				"element": "N" 
			},
			{
				"x": -0.2614471079,
				"y": 0.5843249032,
				"z": -3.4297604823,
				"element": "C" 
			},
			{
				"x": 0.1404749151,
				"y": 1.7383269324,
				"z": -3.3763288613,
				"element": "O" 
			},
			{
				"x": -0.3897766987,
				"y": -0.0422121022,
				"z": -4.8217148406,
				"element": "C" 
			},
			{
				"x": -1.096317783,
				"y": -1.7152184256,
				"z": -4.9149447089,
				"element": "Cl" 
			},
			{
				"x": 0.6175450708,
				"y": 1.7927569362,
				"z": 1.9988515565,
				"element": "C" 
			},
			{
				"x": 1.3502997021,
				"y": 2.9686784738,
				"z": 1.8042626104,
				"element": "C" 
			},
			{
				"x": 1.9607701112,
				"y": 3.5892464177,
				"z": 2.8950991926,
				"element": "C" 
			},
			{
				"x": 1.8247673723,
				"y": 3.0577809009,
				"z": 4.1778953889,
				"element": "C" 
			},
			{
				"x": 1.0701704178,
				"y": 1.8970177707,
				"z": 4.3676712425,
				"element": "C" 
			},
			{
				"x": 0.4701858301,
				"y": 1.259097594,
				"z": 3.2846354174,
				"element": "C" 
			},
			{
				"x": -2.8363270077,
				"y": -1.6475109806,
				"z": -0.4582998632,
				"element": "H" 
			},
			{
				"x": -3.4812203311,
				"y": -0.1366205997,
				"z": -1.1077442811,
				"element": "H" 
			},
			{
				"x": -3.539053982,
				"y": -0.4490430374,
				"z": 0.6397624786,
				"element": "H" 
			},
			{
				"x": 1.8351875318,
				"y": 2.2135654505,
				"z": -1.3974669094,
				"element": "H" 
			},
			{
				"x": 2.1676301408,
				"y": 0.4965694796,
				"z": -1.5498395706,
				"element": "H" 
			},
			{
				"x": 2.5460459183,
				"y": 1.3220896147,
				"z": -0.0268324979,
				"element": "H" 
			},
			{
				"x": -0.9464705738,
				"y": -1.1150623617,
				"z": -2.5497927004,
				"element": "H" 
			},
			{
				"x": -1.0214584919,
				"y": 0.607683761,
				"z": -5.4268144097,
				"element": "H" 
			},
			{
				"x": 0.6011826804,
				"y": -0.0909752338,
				"z": -5.2743784491,
				"element": "H" 
			},
			{
				"x": 1.4205114586,
				"y": 3.4078964923,
				"z": 0.8157162022,
				"element": "H" 
			},
			{
				"x": 2.5289664716,
				"y": 4.5015470846,
				"z": 2.7392229778,
				"element": "H" 
			},
			{
				"x": 2.2959816899,
				"y": 3.5477559279,
				"z": 5.0245911236,
				"element": "H" 
			},
			{
				"x": 0.9529154701,
				"y": 1.4806590846,
				"z": 5.3639139696,
				"element": "H" 
			},
			{
				"x": -0.1201825873,
				"y": 0.3598176926,
				"z": 3.414275358,
				"element": "H" 
			}
		],
		 "valence_orbital": [ 
			{
				"type": "occ",
				"energy": -0.26951,
				"method": "rhf"
			},
			{
				"type": "occ",
				"energy": -0.26343,
				"method": "rhf"
			},
			{
				"type": "occ",
				"energy": -0.25644,
				"method": "rhf"
			},
			{
				"type": "occ",
				"energy": -0.23307,
				"method": "rhf"
			},
			{
				"type": "occ",
				"energy": -0.21642,
				"method": "rhf"
			},
			{
				"type": "unocc",
				"energy": -0.01906,
				"method": "rhf"
			},
			{
				"type": "unocc",
				"energy": -0.00747,
				"method": "rhf"
			},
			{
				"type": "unocc",
				"energy": 0.00561,
				"method": "rhf"
			},
			{
				"type": "unocc",
				"energy": 0.01211,
				"method": "rhf"
			},
			{
				"type": "unocc",
				"energy": 0.03482,
				"method": "rhf"
			}
		],
		"cosmo_sigma_profile": { 
			"-0.025": 0.0,
			"-0.024": 0.0,
			"-0.023": 0.0,
			"-0.022": 0.0,
			"-0.021": 0.0,
			"-0.02": 0.0,
			"-0.019": 0.0,
			"-0.018": 0.0,
			"-0.017": 0.0,
			"-0.016": 0.0,
			"-0.015": 0.0,
			"-0.014": 0.0,
			"-0.013": 0.157035396935,
			"-0.012": 0.468389832637,
			"-0.011": 1.10141026043,
			"-0.01": 1.21332346607,
			"-0.009": 3.61592665023,
			"-0.008": 5.84370044848,
			"-0.007": 6.63959734663,
			"-0.006": 14.0558720383,
			"-0.005": 21.0023510123,
			"-0.004": 26.2428951499,
			"-0.003": 24.002226749,
			"-0.002": 24.2045126009,
			"-0.001": 26.2015279361,
			"0.0": 21.3515816328,
			"0.001": 18.2904325617,
			"0.002": 17.1448936113,
			"0.003": 18.6169551165,
			"0.004": 19.6094400897,
			"0.005": 19.1341341492,
			"0.006": 6.61209427601,
			"0.007": 3.98509224783,
			"0.008": 3.4282235197,
			"0.009": 2.97664892325,
			"0.01": 3.12262005666,
			"0.011": 2.69032346793,
			"0.012": 3.81520068291,
			"0.013": 3.96103230704,
			"0.014": 1.90691701402,
			"0.015": 0.396712635062,
			"0.016": 0.0218610174401,
			"0.017": 0.0,
			"0.018": 0.0,
			"0.019": 0.0,
			"0.02": 0.0,
			"0.021": 0.0,
			"0.022": 0.0,
			"0.023": 0.0,
			"0.024": 0.0,
			"0.025": 0.0
		}
	}
}
