{
	 "smiles": "OC(=O)C1=C(NC(=O)C2=CC=CO2)SC=C1", 
	 "Tm": 470.15, 
	 "num_atms": 23, 
	 "gaussian": { 
		 "optdone": 1, 
		 "sigma_profile": "yes", 
		 "theory": "DFT", 
		 "functional": "B3LYP", 
		 "basiset": "6-31G**", 
		 "properties": { 
			 "R2extent": 5088.6446, 
			 "electric_dipole_moment_norm": 4.69312076342, 
			 "electric_quadrupole_moment_norm": 25.401273272, 
			 "total_energy": -1139.0902014, 
			 "HOMO_LUMO_gap": 0.18823, 
			 "cosmo_polarized_energy": -18.61, 
			 "cosmo_cavitation_energy": 30.74, 
			 "cosmo_dispersion_energy": -21.53, 
			 "cosmo_repulsion_energy": 1.63, 
			 "cosmo_total_nonelectrostatic_energy": 10.84, 
			 "SMD_solvation_energy": 8.34 
		},
		"coords": [
			{
				"x": 4.4548782212,
				"y": 0.149329301,
				"z": 0.4418587206,
				"element": "O" 
			},
			{
				"x": 3.9170759004,
				"y": 1.3499842824,
				"z": 0.7307134889,
				"element": "C" 
			},
			{
				"x": 4.3460929685,
				"y": 2.0302397201,
				"z": 1.636329905,
				"element": "O" 
			},
			{
				"x": 2.7691330295,
				"y": 1.802911847,
				"z": -0.1165249298,
				"element": "C" 
			},
			{
				"x": 2.1917077917,
				"y": 1.122281224,
				"z": -1.1655572508,
				"element": "C" 
			},
			{
				"x": 2.6066489186,
				"y": -0.126301719,
				"z": -1.703652981,
				"element": "N" 
			},
			{
				"x": 1.799817237,
				"y": -1.2926136941,
				"z": -1.7608172721,
				"element": "C" 
			},
			{
				"x": 1.9016716568,
				"y": -2.0493347686,
				"z": -2.7128719721,
				"element": "O" 
			},
			{
				"x": 0.9193306384,
				"y": -1.5955454178,
				"z": -0.6321695259,
				"element": "C" 
			},
			{
				"x": 0.0053064245,
				"y": -2.6098256708,
				"z": -0.5016524806,
				"element": "C" 
			},
			{
				"x": -0.550941898,
				"y": -2.4841852474,
				"z": 0.8025726051,
				"element": "C" 
			},
			{
				"x": 0.067245495,
				"y": -1.407711069,
				"z": 1.3750848003,
				"element": "C" 
			},
			{
				"x": 0.961448794,
				"y": -0.8549729482,
				"z": 0.5202896001,
				"element": "O" 
			},
			{
				"x": 0.8587392669,
				"y": 2.0219385146,
				"z": -1.8547694084,
				"element": "S" 
			},
			{
				"x": 1.0888031755,
				"y": 3.3071164936,
				"z": -0.7107928376,
				"element": "C" 
			},
			{
				"x": 2.1273560537,
				"y": 3.0564398886,
				"z": 0.1357301019,
				"element": "C" 
			},
			{
				"x": 3.9676295092,
				"y": -0.2563922958,
				"z": -0.3021906725,
				"element": "H" 
			},
			{
				"x": 3.1251623297,
				"y": -0.0620107774,
				"z": -2.57819053,
				"element": "H" 
			},
			{
				"x": -0.2220562565,
				"y": -3.3459720754,
				"z": -1.2580013071,
				"element": "H" 
			},
			{
				"x": -1.304728982,
				"y": -3.1089825646,
				"z": 1.2586313165,
				"element": "H" 
			},
			{
				"x": -0.0130190051,
				"y": -0.9331317739,
				"z": 2.341096546,
				"element": "H" 
			},
			{
				"x": 0.4375561424,
				"y": 4.1699032564,
				"z": -0.7359235389,
				"element": "H" 
			},
			{
				"x": 2.4532425888,
				"y": 3.7175354944,
				"z": 0.9283076223,
				"element": "H" 
			}
		],
		 "valence_orbital": [ 
			{
				"type": "occ",
				"energy": -0.28631,
				"method": "rhf"
			},
			{
				"type": "occ",
				"energy": -0.27251,
				"method": "rhf"
			},
			{
				"type": "occ",
				"energy": -0.2691,
				"method": "rhf"
			},
			{
				"type": "occ",
				"energy": -0.26019,
				"method": "rhf"
			},
			{
				"type": "occ",
				"energy": -0.25366,
				"method": "rhf"
			},
			{
				"type": "unocc",
				"energy": -0.06543,
				"method": "rhf"
			},
			{
				"type": "unocc",
				"energy": -0.05489,
				"method": "rhf"
			},
			{
				"type": "unocc",
				"energy": 0.00048,
				"method": "rhf"
			},
			{
				"type": "unocc",
				"energy": 0.00241,
				"method": "rhf"
			},
			{
				"type": "unocc",
				"energy": 0.0256,
				"method": "rhf"
			}
		],
		"cosmo_sigma_profile": { 
			"-0.025": 0.0,
			"-0.024": 0.0,
			"-0.023": 0.0,
			"-0.022": 0.0,
			"-0.021": 0.0,
			"-0.02": 0.0,
			"-0.019": 0.0,
			"-0.018": 0.0,
			"-0.017": 0.0,
			"-0.016": 0.246580064249,
			"-0.015": 1.24192698963,
			"-0.014": 1.22278627092,
			"-0.013": 0.814029542458,
			"-0.012": 1.33864054513,
			"-0.011": 2.16078317003,
			"-0.01": 5.76795013631,
			"-0.009": 7.10998649124,
			"-0.008": 9.86150558627,
			"-0.007": 9.29957060404,
			"-0.006": 11.3806596512,
			"-0.005": 10.8136622055,
			"-0.004": 12.5323919702,
			"-0.003": 11.5734795507,
			"-0.002": 11.7059318378,
			"-0.001": 14.2685371314,
			"0.0": 20.4489345197,
			"0.001": 24.3364873277,
			"0.002": 22.9566897687,
			"0.003": 16.7485935871,
			"0.004": 6.71658314579,
			"0.005": 4.57456752293,
			"0.006": 3.86535438448,
			"0.007": 2.3322405079,
			"0.008": 4.10941255454,
			"0.009": 4.78973206443,
			"0.01": 6.28368622861,
			"0.011": 9.74667358303,
			"0.012": 9.49518845708,
			"0.013": 2.16281721372,
			"0.014": 0.185031557138,
			"0.015": 0.0,
			"0.016": 0.0,
			"0.017": 0.0,
			"0.018": 0.0,
			"0.019": 0.0,
			"0.02": 0.0,
			"0.021": 0.0,
			"0.022": 0.0,
			"0.023": 0.0,
			"0.024": 0.0,
			"0.025": 0.0
		}
	}
}
