{
	 "smiles": "FC1=C2CCC(=O)C2=C(Br)C=C1", 
	 "Tm": 403.15, 
	 "num_atms": 18, 
	 "gaussian": { 
		 "optdone": 1, 
		 "sigma_profile": "yes", 
		 "theory": "DFT", 
		 "functional": "B3LYP", 
		 "basiset": "6-31G**", 
		 "properties": { 
			 "R2extent": 3638.531, 
			 "electric_dipole_moment_norm": 3.2018691541, 
			 "electric_quadrupole_moment_norm": 14.2098438352, 
			 "total_energy": -3093.03862858, 
			 "HOMO_LUMO_gap": 0.17862, 
			 "cosmo_polarized_energy": -9.5, 
			 "cosmo_cavitation_energy": 24.65, 
			 "cosmo_dispersion_energy": -18.62, 
			 "cosmo_repulsion_energy": 1.46, 
			 "cosmo_total_nonelectrostatic_energy": 7.5, 
			 "SMD_solvation_energy": 3.76 
		},
		"coords": [
			{
				"x": -0.2138238713,
				"y": 0.7025683357,
				"z": 3.1050239398,
				"element": "F" 
			},
			{
				"x": -0.1904141137,
				"y": 1.1493303216,
				"z": 1.8317728445,
				"element": "C" 
			},
			{
				"x": -0.6992959515,
				"y": 0.3470245697,
				"z": 0.8207102324,
				"element": "C" 
			},
			{
				"x": -1.3089609766,
				"y": -1.0304075846,
				"z": 0.9497585639,
				"element": "C" 
			},
			{
				"x": -1.6880292651,
				"y": -1.4123867645,
				"z": -0.4967911308,
				"element": "C" 
			},
			{
				"x": -1.2757148931,
				"y": -0.230379795,
				"z": -1.390461161,
				"element": "C" 
			},
			{
				"x": -1.4222209947,
				"y": -0.1787620245,
				"z": -2.5931805083,
				"element": "O" 
			},
			{
				"x": -0.6750324888,
				"y": 0.8109283563,
				"z": -0.5020277432,
				"element": "C" 
			},
			{
				"x": -0.1427664592,
				"y": 2.070987746,
				"z": -0.8007499001,
				"element": "C" 
			},
			{
				"x": -0.0861106545,
				"y": 2.7458678287,
				"z": -2.5775492814,
				"element": "Br" 
			},
			{
				"x": 0.3638654496,
				"y": 2.8624528914,
				"z": 0.2297501954,
				"element": "C" 
			},
			{
				"x": 0.3408810475,
				"y": 2.4021351133,
				"z": 1.5504445767,
				"element": "C" 
			},
			{
				"x": -2.1764024606,
				"y": -1.0097633448,
				"z": 1.6183199947,
				"element": "H" 
			},
			{
				"x": -0.5938782586,
				"y": -1.7311886043,
				"z": 1.3940827707,
				"element": "H" 
			},
			{
				"x": -2.7601500078,
				"y": -1.5911541717,
				"z": -0.6246029637,
				"element": "H" 
			},
			{
				"x": -1.1762378254,
				"y": -2.3133691747,
				"z": -0.8489870414,
				"element": "H" 
			},
			{
				"x": 0.7769489293,
				"y": 3.8386548617,
				"z": 0.0035544046,
				"element": "H" 
			},
			{
				"x": 0.7325427947,
				"y": 3.0101614397,
				"z": 2.3590322075,
				"element": "H" 
			}
		],
		 "valence_orbital": [ 
			{
				"type": "occ",
				"energy": -0.31191,
				"method": "rhf"
			},
			{
				"type": "occ",
				"energy": -0.28925,
				"method": "rhf"
			},
			{
				"type": "occ",
				"energy": -0.27531,
				"method": "rhf"
			},
			{
				"type": "occ",
				"energy": -0.24719,
				"method": "rhf"
			},
			{
				"type": "occ",
				"energy": -0.24555,
				"method": "rhf"
			},
			{
				"type": "unocc",
				"energy": -0.06693,
				"method": "rhf"
			},
			{
				"type": "unocc",
				"energy": -0.02531,
				"method": "rhf"
			},
			{
				"type": "unocc",
				"energy": 0.00687,
				"method": "rhf"
			},
			{
				"type": "unocc",
				"energy": 0.03555,
				"method": "rhf"
			},
			{
				"type": "unocc",
				"energy": 0.09048,
				"method": "rhf"
			}
		],
		"cosmo_sigma_profile": { 
			"-0.025": 0.0,
			"-0.024": 0.0,
			"-0.023": 0.0,
			"-0.022": 0.0,
			"-0.021": 0.0,
			"-0.02": 0.0,
			"-0.019": 0.0,
			"-0.018": 0.0,
			"-0.017": 0.0,
			"-0.016": 0.0,
			"-0.015": 0.0,
			"-0.014": 0.0,
			"-0.013": 0.0,
			"-0.012": 0.0,
			"-0.011": 0.0,
			"-0.01": 0.0,
			"-0.009": 0.592021719921,
			"-0.008": 3.29831571479,
			"-0.007": 4.54780086264,
			"-0.006": 12.1555257279,
			"-0.005": 17.6602000927,
			"-0.004": 15.2688148344,
			"-0.003": 14.0397594224,
			"-0.002": 13.989097789,
			"-0.001": 16.3106435047,
			"0.0": 18.7992296316,
			"0.001": 17.6569241645,
			"0.002": 11.6130602501,
			"0.003": 12.6576530655,
			"0.004": 17.5040067226,
			"0.005": 3.63600642664,
			"0.006": 2.56796993835,
			"0.007": 1.75710102005,
			"0.008": 2.3064193731,
			"0.009": 2.21159823482,
			"0.01": 2.33676399246,
			"0.011": 4.1958519017,
			"0.012": 4.82908441863,
			"0.013": 0.991656224516,
			"0.014": 0.0,
			"0.015": 0.0,
			"0.016": 0.0,
			"0.017": 0.0,
			"0.018": 0.0,
			"0.019": 0.0,
			"0.02": 0.0,
			"0.021": 0.0,
			"0.022": 0.0,
			"0.023": 0.0,
			"0.024": 0.0,
			"0.025": 0.0
		}
	}
}
