{
	 "smiles": "CC1=C(CC(=O)NN)C=CC=C1", 
	 "Tm": 403.15, 
	 "num_atms": 24, 
	 "gaussian": { 
		 "optdone": 1, 
		 "sigma_profile": "yes", 
		 "theory": "DFT", 
		 "functional": "B3LYP", 
		 "basiset": "6-31G**", 
		 "properties": { 
			 "R2extent": 2539.6309, 
			 "electric_dipole_moment_norm": 2.44276642764, 
			 "electric_quadrupole_moment_norm": 7.86176795956, 
			 "total_energy": -534.909459978, 
			 "HOMO_LUMO_gap": 0.22472, 
			 "cosmo_polarized_energy": -12.11, 
			 "cosmo_cavitation_energy": 27.28, 
			 "cosmo_dispersion_energy": -19.32, 
			 "cosmo_repulsion_energy": 1.56, 
			 "cosmo_total_nonelectrostatic_energy": 9.52, 
			 "SMD_solvation_energy": 5.67 
		},
		"coords": [
			{
				"x": 1.545301687,
				"y": -1.4411138942,
				"z": 0.5442721138,
				"element": "C" 
			},
			{
				"x": 0.3017859853,
				"y": -1.0472768368,
				"z": -0.2184469744,
				"element": "C" 
			},
			{
				"x": -0.3152837179,
				"y": 0.2087591252,
				"z": -0.0170419841,
				"element": "C" 
			},
			{
				"x": 0.2385385653,
				"y": 1.2078373269,
				"z": 0.9759543964,
				"element": "C" 
			},
			{
				"x": -0.0860774888,
				"y": 0.9879647127,
				"z": 2.4623075632,
				"element": "C" 
			},
			{
				"x": 0.4730670769,
				"y": 1.627152302,
				"z": 3.3452819595,
				"element": "O" 
			},
			{
				"x": -1.0528946602,
				"y": 0.063995993,
				"z": 2.736714225,
				"element": "N" 
			},
			{
				"x": -1.5564063624,
				"y": -0.1026932119,
				"z": 4.0430917444,
				"element": "N" 
			},
			{
				"x": -1.4687019657,
				"y": 0.5275165907,
				"z": -0.7473759573,
				"element": "C" 
			},
			{
				"x": -2.0199794787,
				"y": -0.3666314483,
				"z": -1.6659514005,
				"element": "C" 
			},
			{
				"x": -1.4105895909,
				"y": -1.6037860207,
				"z": -1.866349802,
				"element": "C" 
			},
			{
				"x": -0.2609564056,
				"y": -1.9319734837,
				"z": -1.1462279784,
				"element": "C" 
			},
			{
				"x": 1.8685086993,
				"y": -2.4488133978,
				"z": 0.2709270514,
				"element": "H" 
			},
			{
				"x": 2.3797772897,
				"y": -0.7590095492,
				"z": 0.3415844923,
				"element": "H" 
			},
			{
				"x": 1.3769037905,
				"y": -1.4255122392,
				"z": 1.6268516142,
				"element": "H" 
			},
			{
				"x": -0.1284381671,
				"y": 2.2130557541,
				"z": 0.7389206919,
				"element": "H" 
			},
			{
				"x": 1.3298355391,
				"y": 1.2686485248,
				"z": 0.9240323782,
				"element": "H" 
			},
			{
				"x": -1.6182656566,
				"y": -0.3271684106,
				"z": 1.9974017697,
				"element": "H" 
			},
			{
				"x": -1.5714455086,
				"y": 0.8249525272,
				"z": 4.4693970262,
				"element": "H" 
			},
			{
				"x": -0.858732656,
				"y": -0.6234662011,
				"z": 4.5747088561,
				"element": "H" 
			},
			{
				"x": -1.9361662902,
				"y": 1.4978734316,
				"z": -0.5958528308,
				"element": "H" 
			},
			{
				"x": -2.9128989366,
				"y": -0.0948456977,
				"z": -2.2212326035,
				"element": "H" 
			},
			{
				"x": -1.8240315014,
				"y": -2.3110295102,
				"z": -2.5795956494,
				"element": "H" 
			},
			{
				"x": 0.2136497536,
				"y": -2.8970363868,
				"z": -1.3054707019,
				"element": "H" 
			}
		],
		 "valence_orbital": [ 
			{
				"type": "occ",
				"energy": -0.28435,
				"method": "rhf"
			},
			{
				"type": "occ",
				"energy": -0.26549,
				"method": "rhf"
			},
			{
				"type": "occ",
				"energy": -0.25294,
				"method": "rhf"
			},
			{
				"type": "occ",
				"energy": -0.24881,
				"method": "rhf"
			},
			{
				"type": "occ",
				"energy": -0.23595,
				"method": "rhf"
			},
			{
				"type": "unocc",
				"energy": -0.01123,
				"method": "rhf"
			},
			{
				"type": "unocc",
				"energy": -0.0057,
				"method": "rhf"
			},
			{
				"type": "unocc",
				"energy": 0.02858,
				"method": "rhf"
			},
			{
				"type": "unocc",
				"energy": 0.08654,
				"method": "rhf"
			},
			{
				"type": "unocc",
				"energy": 0.08952,
				"method": "rhf"
			}
		],
		"cosmo_sigma_profile": { 
			"-0.025": 0.0,
			"-0.024": 0.0,
			"-0.023": 0.0,
			"-0.022": 0.0,
			"-0.021": 0.0,
			"-0.02": 0.0,
			"-0.019": 0.0,
			"-0.018": 0.0,
			"-0.017": 0.0,
			"-0.016": 0.0,
			"-0.015": 0.0,
			"-0.014": 0.0,
			"-0.013": 0.0,
			"-0.012": 0.347500781393,
			"-0.011": 2.01702433952,
			"-0.01": 2.76604820234,
			"-0.009": 3.96652530245,
			"-0.008": 2.24163552327,
			"-0.007": 3.14844824328,
			"-0.006": 9.37049323802,
			"-0.005": 18.4829617246,
			"-0.004": 19.2841338099,
			"-0.003": 19.6317874575,
			"-0.002": 18.4140814625,
			"-0.001": 17.5025080936,
			"0.0": 16.519240335,
			"0.001": 12.8265008894,
			"0.002": 10.5316722115,
			"0.003": 9.23306687347,
			"0.004": 9.16857784564,
			"0.005": 8.38220825515,
			"0.006": 6.83387237102,
			"0.007": 2.16905563311,
			"0.008": 1.90960527061,
			"0.009": 1.34571210069,
			"0.01": 1.96662546476,
			"0.011": 2.44399142562,
			"0.012": 1.89654201772,
			"0.013": 4.175001854,
			"0.014": 5.50030220061,
			"0.015": 1.82441248674,
			"0.016": 0.776124172789,
			"0.017": 0.195340089783,
			"0.018": 0.0,
			"0.019": 0.0,
			"0.02": 0.0,
			"0.021": 0.0,
			"0.022": 0.0,
			"0.023": 0.0,
			"0.024": 0.0,
			"0.025": 0.0
		}
	}
}
