{
	 "smiles": "CC(CC1=CC=CC=C1)NCCC(C1=CC=CC=C1)C1=CC=CC=C1", 
	 "Tm": 311.15, 
	 "num_atms": 52, 
	 "gaussian": { 
		 "optdone": 1, 
		 "sigma_profile": "yes", 
		 "theory": "DFT", 
		 "functional": "B3LYP", 
		 "basiset": "6-31G**", 
		 "properties": { 
			 "R2extent": 12050.6445, 
			 "electric_dipole_moment_norm": 1.5340385295, 
			 "electric_quadrupole_moment_norm": 6.46317801936, 
			 "total_energy": -985.583115676, 
			 "HOMO_LUMO_gap": 0.20595, 
			 "cosmo_polarized_energy": -10.61, 
			 "cosmo_cavitation_energy": 53.16, 
			 "cosmo_dispersion_energy": -34.97, 
			 "cosmo_repulsion_energy": 2.7, 
			 "cosmo_total_nonelectrostatic_energy": 20.9, 
			 "SMD_solvation_energy": 7.5 
		},
		"coords": [
			{
				"x": 0.6051373354,
				"y": -3.1286960547,
				"z": -2.7358007402,
				"element": "C" 
			},
			{
				"x": 0.337846173,
				"y": -3.5417435027,
				"z": -1.277490618,
				"element": "C" 
			},
			{
				"x": 1.5649569339,
				"y": -3.226452153,
				"z": -0.3760176941,
				"element": "C" 
			},
			{
				"x": 1.5832940286,
				"y": -3.9974386157,
				"z": 0.926633544,
				"element": "C" 
			},
			{
				"x": 2.4036534463,
				"y": -5.1256696966,
				"z": 1.0680437058,
				"element": "C" 
			},
			{
				"x": 2.4189040043,
				"y": -5.8650666184,
				"z": 2.2522672167,
				"element": "C" 
			},
			{
				"x": 1.6084180346,
				"y": -5.4853220654,
				"z": 3.3227233492,
				"element": "C" 
			},
			{
				"x": 0.7857999783,
				"y": -4.3636455973,
				"z": 3.1965272948,
				"element": "C" 
			},
			{
				"x": 0.7734156583,
				"y": -3.6279772126,
				"z": 2.0110550186,
				"element": "C" 
			},
			{
				"x": -0.9136243237,
				"y": -3.0157277126,
				"z": -0.6936775144,
				"element": "N" 
			},
			{
				"x": -1.4480338743,
				"y": -1.7264502891,
				"z": -1.140657996,
				"element": "C" 
			},
			{
				"x": -0.7172657686,
				"y": -0.5115002039,
				"z": -0.5512994718,
				"element": "C" 
			},
			{
				"x": -1.3743367833,
				"y": 0.8401845781,
				"z": -0.9267349538,
				"element": "C" 
			},
			{
				"x": -2.8016605563,
				"y": 1.0206547352,
				"z": -0.4107526882,
				"element": "C" 
			},
			{
				"x": -3.2465301062,
				"y": 0.4863666237,
				"z": 0.8069961498,
				"element": "C" 
			},
			{
				"x": -4.550460126,
				"y": 0.7096127353,
				"z": 1.2569359364,
				"element": "C" 
			},
			{
				"x": -5.4373788697,
				"y": 1.4707398327,
				"z": 0.4960104844,
				"element": "C" 
			},
			{
				"x": -5.0099980255,
				"y": 2.0061207789,
				"z": -0.721005519,
				"element": "C" 
			},
			{
				"x": -3.7079433245,
				"y": 1.7804839807,
				"z": -1.1654062868,
				"element": "C" 
			},
			{
				"x": -0.4612230309,
				"y": 2.0011571568,
				"z": -0.5235866361,
				"element": "C" 
			},
			{
				"x": 0.3931919767,
				"y": 2.577144266,
				"z": -1.4733313246,
				"element": "C" 
			},
			{
				"x": 1.2718314553,
				"y": 3.6041751593,
				"z": -1.1241623214,
				"element": "C" 
			},
			{
				"x": 1.3100390171,
				"y": 4.0749658199,
				"z": 0.188740913,
				"element": "C" 
			},
			{
				"x": 0.4620391885,
				"y": 3.5114486762,
				"z": 1.144308938,
				"element": "C" 
			},
			{
				"x": -0.4157107538,
				"y": 2.4862153596,
				"z": 0.7906258695,
				"element": "C" 
			},
			{
				"x": 1.4724795437,
				"y": -3.6695011222,
				"z": -3.1277852668,
				"element": "H" 
			},
			{
				"x": -0.2514934971,
				"y": -3.3608103498,
				"z": -3.377503825,
				"element": "H" 
			},
			{
				"x": 0.8175692974,
				"y": -2.0582581588,
				"z": -2.8302362461,
				"element": "H" 
			},
			{
				"x": 0.2268563053,
				"y": -4.6333818383,
				"z": -1.2676066116,
				"element": "H" 
			},
			{
				"x": 2.4747274311,
				"y": -3.4655365941,
				"z": -0.9399970908,
				"element": "H" 
			},
			{
				"x": 1.5936439931,
				"y": -2.1493257131,
				"z": -0.1804570565,
				"element": "H" 
			},
			{
				"x": 3.0436048383,
				"y": -5.42521499,
				"z": 0.2407203479,
				"element": "H" 
			},
			{
				"x": 3.0668781316,
				"y": -6.7331740325,
				"z": 2.3389865661,
				"element": "H" 
			},
			{
				"x": 1.6201008787,
				"y": -6.0549786258,
				"z": 4.2478061045,
				"element": "H" 
			},
			{
				"x": 0.152696555,
				"y": -4.0588697487,
				"z": 4.025747368,
				"element": "H" 
			},
			{
				"x": 0.1223371246,
				"y": -2.7661961769,
				"z": 1.9125159204,
				"element": "H" 
			},
			{
				"x": -1.6397496941,
				"y": -3.7150564024,
				"z": -0.7910157366,
				"element": "H" 
			},
			{
				"x": -1.4715744244,
				"y": -1.6179915962,
				"z": -2.2395695961,
				"element": "H" 
			},
			{
				"x": -2.4919247901,
				"y": -1.6955631713,
				"z": -0.811902279,
				"element": "H" 
			},
			{
				"x": -0.6487023986,
				"y": -0.617614863,
				"z": 0.5372831265,
				"element": "H" 
			},
			{
				"x": 0.3155440551,
				"y": -0.4818476122,
				"z": -0.9151372157,
				"element": "H" 
			},
			{
				"x": -1.4360100378,
				"y": 0.8642736993,
				"z": -2.0231239886,
				"element": "H" 
			},
			{
				"x": -2.5775503727,
				"y": -0.1185580682,
				"z": 1.4117494072,
				"element": "H" 
			},
			{
				"x": -4.8717531229,
				"y": 0.2828270116,
				"z": 2.203127465,
				"element": "H" 
			},
			{
				"x": -6.4518149215,
				"y": 1.6418823964,
				"z": 0.8445125053,
				"element": "H" 
			},
			{
				"x": -5.6916920382,
				"y": 2.5974257225,
				"z": -1.3261758793,
				"element": "H" 
			},
			{
				"x": -3.383191485,
				"y": 2.2039110677,
				"z": -2.1130319883,
				"element": "H" 
			},
			{
				"x": 0.3691955196,
				"y": 2.2169462131,
				"z": -2.4995882576,
				"element": "H" 
			},
			{
				"x": 1.9221386845,
				"y": 4.0378480372,
				"z": -1.8789797694,
				"element": "H" 
			},
			{
				"x": 1.9901711834,
				"y": 4.8758809226,
				"z": 0.4641938405,
				"element": "H" 
			},
			{
				"x": 0.4796631989,
				"y": 3.8740915726,
				"z": 2.1684603579,
				"element": "H" 
			},
			{
				"x": -1.0820116453,
				"y": 2.0697124402,
				"z": 1.5401631423,
				"element": "H" 
			}
		],
		 "valence_orbital": [ 
			{
				"type": "occ",
				"energy": -0.24384,
				"method": "rhf"
			},
			{
				"type": "occ",
				"energy": -0.23827,
				"method": "rhf"
			},
			{
				"type": "occ",
				"energy": -0.23286,
				"method": "rhf"
			},
			{
				"type": "occ",
				"energy": -0.23003,
				"method": "rhf"
			},
			{
				"type": "occ",
				"energy": -0.21246,
				"method": "rhf"
			},
			{
				"type": "unocc",
				"energy": -0.00651,
				"method": "rhf"
			},
			{
				"type": "unocc",
				"energy": -0.00135,
				"method": "rhf"
			},
			{
				"type": "unocc",
				"energy": 0.00335,
				"method": "rhf"
			},
			{
				"type": "unocc",
				"energy": 0.01074,
				"method": "rhf"
			},
			{
				"type": "unocc",
				"energy": 0.01148,
				"method": "rhf"
			}
		],
		"cosmo_sigma_profile": { 
			"-0.025": 0.0,
			"-0.024": 0.0,
			"-0.023": 0.0,
			"-0.022": 0.0,
			"-0.021": 0.0,
			"-0.02": 0.0,
			"-0.019": 0.0,
			"-0.018": 0.0,
			"-0.017": 0.0,
			"-0.016": 0.0,
			"-0.015": 0.0,
			"-0.014": 0.0,
			"-0.013": 0.0,
			"-0.012": 0.0,
			"-0.011": 0.0,
			"-0.01": 0.558130759149,
			"-0.009": 1.30552162209,
			"-0.008": 1.01240252623,
			"-0.007": 1.60771924025,
			"-0.006": 4.9353481044,
			"-0.005": 27.9415934302,
			"-0.004": 39.2441188609,
			"-0.003": 50.075869955,
			"-0.002": 46.384298291,
			"-0.001": 43.000385847,
			"0.0": 34.5404901761,
			"0.001": 31.9961872704,
			"0.002": 23.1562907034,
			"0.003": 23.9379509131,
			"0.004": 22.0044030058,
			"0.005": 25.1681077891,
			"0.006": 24.6193251084,
			"0.007": 13.2960423324,
			"0.008": 1.83933781187,
			"0.009": 0.840074319984,
			"0.01": 0.791849809414,
			"0.011": 0.857045841262,
			"0.012": 0.228500737537,
			"0.013": 0.0,
			"0.014": 0.0,
			"0.015": 0.0,
			"0.016": 0.0,
			"0.017": 0.0,
			"0.018": 0.0,
			"0.019": 0.0,
			"0.02": 0.0,
			"0.021": 0.0,
			"0.022": 0.0,
			"0.023": 0.0,
			"0.024": 0.0,
			"0.025": 0.0
		}
	}
}
