{
	 "smiles": "CN1C(=O)OC(=O)C2=C1C=CC(=C2)[N+]([O-])=O", 
	 "Tm": 454.15, 
	 "num_atms": 22, 
	 "gaussian": { 
		 "optdone": 1, 
		 "sigma_profile": "yes", 
		 "theory": "DFT", 
		 "functional": "B3LYP", 
		 "basiset": "6-31G**", 
		 "properties": { 
			 "R2extent": 3871.368, 
			 "electric_dipole_moment_norm": 5.99147429687, 
			 "electric_quadrupole_moment_norm": 23.8873753487, 
			 "total_energy": -832.124086285, 
			 "HOMO_LUMO_gap": 0.16599, 
			 "cosmo_polarized_energy": -18.72, 
			 "cosmo_cavitation_energy": 27.82, 
			 "cosmo_dispersion_energy": -20.66, 
			 "cosmo_repulsion_energy": 1.56, 
			 "cosmo_total_nonelectrostatic_energy": 8.71, 
			 "SMD_solvation_energy": 9.22 
		},
		"coords": [
			{
				"x": 1.3622958677,
				"y": -0.8225550463,
				"z": -3.3501828386,
				"element": "C" 
			},
			{
				"x": 1.3732551757,
				"y": -0.8192509746,
				"z": -1.8829640708,
				"element": "N" 
			},
			{
				"x": 2.2844584958,
				"y": -1.6726242283,
				"z": -1.2585428956,
				"element": "C" 
			},
			{
				"x": 3.0439495383,
				"y": -2.3940395228,
				"z": -1.8531517629,
				"element": "O" 
			},
			{
				"x": 2.2940982343,
				"y": -1.66877195,
				"z": 0.1125839461,
				"element": "O" 
			},
			{
				"x": 1.4826707698,
				"y": -0.895884774,
				"z": 0.9388036912,
				"element": "C" 
			},
			{
				"x": 1.6106852262,
				"y": -1.0055899649,
				"z": 2.1284567894,
				"element": "O" 
			},
			{
				"x": 0.5408708619,
				"y": -0.0146204004,
				"z": 0.2393171683,
				"element": "C" 
			},
			{
				"x": 0.5087932078,
				"y": 0.0023965138,
				"z": -1.1715947156,
				"element": "C" 
			},
			{
				"x": -0.4042384444,
				"y": 0.8570477348,
				"z": -1.8221904365,
				"element": "C" 
			},
			{
				"x": -1.2522289123,
				"y": 1.6635203429,
				"z": -1.0787270165,
				"element": "C" 
			},
			{
				"x": -1.2007442819,
				"y": 1.6281074666,
				"z": 0.3178198381,
				"element": "C" 
			},
			{
				"x": -0.3136139583,
				"y": 0.7979596965,
				"z": 0.9850078678,
				"element": "C" 
			},
			{
				"x": -2.1052233039,
				"y": 2.4880796531,
				"z": 1.0898145484,
				"element": "N" 
			},
			{
				"x": -2.876637764,
				"y": 3.2092973361,
				"z": 0.4570596146,
				"element": "O" 
			},
			{
				"x": -2.0335738429,
				"y": 2.4321323264,
				"z": 2.3156501346,
				"element": "O" 
			},
			{
				"x": 1.605965398,
				"y": 0.1720567049,
				"z": -3.734270624,
				"element": "H" 
			},
			{
				"x": 2.114107472,
				"y": -1.5340693424,
				"z": -3.6811598107,
				"element": "H" 
			},
			{
				"x": 0.3803987929,
				"y": -1.1285549786,
				"z": -3.7221965139,
				"element": "H" 
			},
			{
				"x": -0.453621395,
				"y": 0.8934136402,
				"z": -2.9022012592,
				"element": "H" 
			},
			{
				"x": -1.9597659985,
				"y": 2.3259993589,
				"z": -1.5620065703,
				"element": "H" 
			},
			{
				"x": -0.2754011392,
				"y": 0.7720504081,
				"z": 2.0669749161,
				"element": "H" 
			}
		],
		 "valence_orbital": [ 
			{
				"type": "occ",
				"energy": -0.32104,
				"method": "rhf"
			},
			{
				"type": "occ",
				"energy": -0.30766,
				"method": "rhf"
			},
			{
				"type": "occ",
				"energy": -0.30571,
				"method": "rhf"
			},
			{
				"type": "occ",
				"energy": -0.30174,
				"method": "rhf"
			},
			{
				"type": "occ",
				"energy": -0.27076,
				"method": "rhf"
			},
			{
				"type": "unocc",
				"energy": -0.10477,
				"method": "rhf"
			},
			{
				"type": "unocc",
				"energy": -0.08858,
				"method": "rhf"
			},
			{
				"type": "unocc",
				"energy": -0.03004,
				"method": "rhf"
			},
			{
				"type": "unocc",
				"energy": -0.00448,
				"method": "rhf"
			},
			{
				"type": "unocc",
				"energy": 0.04231,
				"method": "rhf"
			}
		],
		"cosmo_sigma_profile": { 
			"-0.025": 0.0,
			"-0.024": 0.0,
			"-0.023": 0.0,
			"-0.022": 0.0,
			"-0.021": 0.0,
			"-0.02": 0.0,
			"-0.019": 0.0,
			"-0.018": 0.0,
			"-0.017": 0.0,
			"-0.016": 0.0,
			"-0.015": 0.0,
			"-0.014": 0.0,
			"-0.013": 0.0,
			"-0.012": 0.017182277387,
			"-0.011": 0.919168084199,
			"-0.01": 1.68366482679,
			"-0.009": 5.7573437674,
			"-0.008": 8.37551738204,
			"-0.007": 12.8100743557,
			"-0.006": 14.005709585,
			"-0.005": 17.3977943983,
			"-0.004": 18.4921346776,
			"-0.003": 19.3342854948,
			"-0.002": 17.6528276226,
			"-0.001": 11.8648533237,
			"0.0": 8.73761164078,
			"0.001": 5.74243505872,
			"0.002": 4.48100596297,
			"0.003": 5.14229852722,
			"0.004": 6.10143398076,
			"0.005": 6.00209929173,
			"0.006": 7.97008693938,
			"0.007": 13.5028109212,
			"0.008": 12.1956193266,
			"0.009": 10.4241900483,
			"0.01": 10.3884836613,
			"0.011": 4.94586474831,
			"0.012": 0.591448943157,
			"0.013": 0.0,
			"0.014": 0.0,
			"0.015": 0.0,
			"0.016": 0.0,
			"0.017": 0.0,
			"0.018": 0.0,
			"0.019": 0.0,
			"0.02": 0.0,
			"0.021": 0.0,
			"0.022": 0.0,
			"0.023": 0.0,
			"0.024": 0.0,
			"0.025": 0.0
		}
	}
}
