{
	 "smiles": "CCOC(=O)C1=CC=CN1", 
	 "Tm": 311.15, 
	 "num_atms": 19, 
	 "gaussian": { 
		 "optdone": 1, 
		 "sigma_profile": "yes", 
		 "theory": "DFT", 
		 "functional": "B3LYP", 
		 "basiset": "6-31G**", 
		 "properties": { 
			 "R2extent": 2132.1492, 
			 "electric_dipole_moment_norm": 0.580392151911, 
			 "electric_quadrupole_moment_norm": 10.0319362488, 
			 "total_energy": -477.379890226, 
			 "HOMO_LUMO_gap": 0.19913, 
			 "cosmo_polarized_energy": -8.72, 
			 "cosmo_cavitation_energy": 23.23, 
			 "cosmo_dispersion_energy": -17.12, 
			 "cosmo_repulsion_energy": 1.41, 
			 "cosmo_total_nonelectrostatic_energy": 7.52, 
			 "SMD_solvation_energy": 5.44 
		},
		"coords": [
			{
				"x": -0.5814650529,
				"y": -3.7639656307,
				"z": -1.0320906507,
				"element": "C" 
			},
			{
				"x": -1.0372289395,
				"y": -2.8392864109,
				"z": 0.0872162266,
				"element": "C" 
			},
			{
				"x": 0.0502108557,
				"y": -2.0150305279,
				"z": 0.565903942,
				"element": "O" 
			},
			{
				"x": 0.2781934995,
				"y": -0.8696037387,
				"z": -0.1145296043,
				"element": "C" 
			},
			{
				"x": -0.3720668936,
				"y": -0.4992201542,
				"z": -1.0822862065,
				"element": "O" 
			},
			{
				"x": 1.3924050714,
				"y": -0.1094673236,
				"z": 0.4367785483,
				"element": "C" 
			},
			{
				"x": 2.2650997034,
				"y": -0.307194308,
				"z": 1.4995930093,
				"element": "C" 
			},
			{
				"x": 3.1454392622,
				"y": 0.7991203347,
				"z": 1.5307705605,
				"element": "C" 
			},
			{
				"x": 2.7877674981,
				"y": 1.643129499,
				"z": 0.4882350928,
				"element": "C" 
			},
			{
				"x": 1.7313551973,
				"y": 1.0835941689,
				"z": -0.163083954,
				"element": "N" 
			},
			{
				"x": -0.2838209016,
				"y": -3.1845742115,
				"z": -1.9094082159,
				"element": "H" 
			},
			{
				"x": 0.2639315464,
				"y": -4.3789127169,
				"z": -0.7096056027,
				"element": "H" 
			},
			{
				"x": -1.401238801,
				"y": -4.4300594828,
				"z": -1.3217219926,
				"element": "H" 
			},
			{
				"x": -1.3573190746,
				"y": -3.4032251775,
				"z": 0.966798334,
				"element": "H" 
			},
			{
				"x": -1.8521335711,
				"y": -2.1918102152,
				"z": -0.245155768,
				"element": "H" 
			},
			{
				"x": 2.2536741377,
				"y": -1.1576552231,
				"z": 2.1651748642,
				"element": "H" 
			},
			{
				"x": 3.9510898154,
				"y": 0.9687833457,
				"z": 2.2309484728,
				"element": "H" 
			},
			{
				"x": 3.2073775395,
				"y": 2.5870386843,
				"z": 0.1725177209,
				"element": "H" 
			},
			{
				"x": 1.2330291076,
				"y": 1.4429390885,
				"z": -0.9640547767,
				"element": "H" 
			}
		],
		 "valence_orbital": [ 
			{
				"type": "occ",
				"energy": -0.33568,
				"method": "rhf"
			},
			{
				"type": "occ",
				"energy": -0.29245,
				"method": "rhf"
			},
			{
				"type": "occ",
				"energy": -0.271,
				"method": "rhf"
			},
			{
				"type": "occ",
				"energy": -0.25136,
				"method": "rhf"
			},
			{
				"type": "occ",
				"energy": -0.22135,
				"method": "rhf"
			},
			{
				"type": "unocc",
				"energy": -0.02222,
				"method": "rhf"
			},
			{
				"type": "unocc",
				"energy": 0.06166,
				"method": "rhf"
			},
			{
				"type": "unocc",
				"energy": 0.0897,
				"method": "rhf"
			},
			{
				"type": "unocc",
				"energy": 0.1126,
				"method": "rhf"
			},
			{
				"type": "unocc",
				"energy": 0.12589,
				"method": "rhf"
			}
		],
		"cosmo_sigma_profile": { 
			"-0.025": 0.0,
			"-0.024": 0.0,
			"-0.023": 0.0,
			"-0.022": 0.0,
			"-0.021": 0.0,
			"-0.02": 0.0,
			"-0.019": 0.0,
			"-0.018": 0.0,
			"-0.017": 0.0,
			"-0.016": 0.0868377302428,
			"-0.015": 0.901347481885,
			"-0.014": 0.992582012434,
			"-0.013": 0.854755108376,
			"-0.012": 0.495404082445,
			"-0.011": 1.23886798732,
			"-0.01": 0.998847471392,
			"-0.009": 1.05834039238,
			"-0.008": 3.70295252891,
			"-0.007": 2.32973610284,
			"-0.006": 6.86303992106,
			"-0.005": 8.17146741947,
			"-0.004": 14.624499164,
			"-0.003": 16.2559700443,
			"-0.002": 16.3159635832,
			"-0.001": 16.3992554278,
			"0.0": 16.7528235259,
			"0.001": 11.6557531451,
			"0.002": 9.66926551343,
			"0.003": 9.20033520587,
			"0.004": 10.1329880242,
			"0.005": 10.4897512815,
			"0.006": 7.81440082678,
			"0.007": 5.39827334243,
			"0.008": 2.1999628594,
			"0.009": 1.58882554411,
			"0.01": 1.21103789947,
			"0.011": 1.84920977232,
			"0.012": 3.88270204041,
			"0.013": 1.28366661996,
			"0.014": 0.0,
			"0.015": 0.0,
			"0.016": 0.0,
			"0.017": 0.0,
			"0.018": 0.0,
			"0.019": 0.0,
			"0.02": 0.0,
			"0.021": 0.0,
			"0.022": 0.0,
			"0.023": 0.0,
			"0.024": 0.0,
			"0.025": 0.0
		}
	}
}
