{
	 "smiles": "CCCCC(CC)CO[Si](OCC(CC)CCCC)(OCC(CC)CCCC)OCC(CC)CCCC", 
	 "Tm": 363.15, 
	 "num_atms": 105, 
	 "gaussian": { 
		 "optdone": 1, 
		 "sigma_profile": "yes", 
		 "theory": "DFT", 
		 "functional": "B3LYP", 
		 "basiset": "6-31G**", 
		 "properties": { 
			 "R2extent": 23877.9053, 
			 "electric_dipole_moment_norm": 0.50087648178, 
			 "electric_quadrupole_moment_norm": 2.97246203676, 
			 "total_energy": -1851.03571306, 
			 "HOMO_LUMO_gap": 0.31155, 
			 "cosmo_polarized_energy": -7.68, 
			 "cosmo_cavitation_energy": 100.49, 
			 "cosmo_dispersion_energy": -51.53, 
			 "cosmo_repulsion_energy": 4.2, 
			 "cosmo_total_nonelectrostatic_energy": 53.16, 
			 "SMD_solvation_energy": 14.75 
		},
		"coords": [
			{
				"x": 3.6738442023,
				"y": 1.5992230711,
				"z": 4.4824899168,
				"element": "C" 
			},
			{
				"x": 2.2343329944,
				"y": 1.4481940044,
				"z": 4.9848704589,
				"element": "C" 
			},
			{
				"x": 1.2568520503,
				"y": 0.9997071875,
				"z": 3.8902210232,
				"element": "C" 
			},
			{
				"x": -0.1828413673,
				"y": 0.8552109569,
				"z": 4.4030427841,
				"element": "C" 
			},
			{
				"x": -1.2225278074,
				"y": 0.3040937379,
				"z": 3.405234194,
				"element": "C" 
			},
			{
				"x": -2.5818541769,
				"y": 0.1024442005,
				"z": 4.1160850924,
				"element": "C" 
			},
			{
				"x": -3.5644285946,
				"y": -0.8220487,
				"z": 3.3863209218,
				"element": "C" 
			},
			{
				"x": -1.4101615239,
				"y": 1.2058420292,
				"z": 2.1734380933,
				"element": "C" 
			},
			{
				"x": -0.3285148674,
				"y": 1.1315364226,
				"z": 1.2354227755,
				"element": "O" 
			},
			{
				"x": -0.2898828052,
				"y": 0.1168149368,
				"z": -0.059741191,
				"element": "Si" 
			},
			{
				"x": -1.5776565662,
				"y": 0.2742828403,
				"z": -1.0719088967,
				"element": "O" 
			},
			{
				"x": -1.8172888199,
				"y": 1.3967643542,
				"z": -1.9314819073,
				"element": "C" 
			},
			{
				"x": -2.4738244805,
				"y": 0.936332684,
				"z": -3.2407583487,
				"element": "C" 
			},
			{
				"x": -1.5016205574,
				"y": 0.0364088684,
				"z": -4.036325765,
				"element": "C" 
			},
			{
				"x": -1.8527785255,
				"y": -0.1104970159,
				"z": -5.5208458985,
				"element": "C" 
			},
			{
				"x": -3.8436690259,
				"y": 0.2486095146,
				"z": -3.0142707685,
				"element": "C" 
			},
			{
				"x": -5.0841428271,
				"y": 1.1629898889,
				"z": -3.0354849121,
				"element": "C" 
			},
			{
				"x": -5.2250981949,
				"y": 2.1945279391,
				"z": -1.9023665504,
				"element": "C" 
			},
			{
				"x": -5.315055366,
				"y": 1.5823255036,
				"z": -0.4994266057,
				"element": "C" 
			},
			{
				"x": 1.0642759831,
				"y": 0.4875923684,
				"z": -0.9161186144,
				"element": "O" 
			},
			{
				"x": 2.3688495165,
				"y": 0.643735076,
				"z": -0.3406107115,
				"element": "C" 
			},
			{
				"x": 3.2555246657,
				"y": 1.4884261513,
				"z": -1.2619593804,
				"element": "C" 
			},
			{
				"x": 3.4926848459,
				"y": 0.8138057317,
				"z": -2.6293111862,
				"element": "C" 
			},
			{
				"x": 4.2444856742,
				"y": -0.5212143682,
				"z": -2.575194808,
				"element": "C" 
			},
			{
				"x": 2.7111741194,
				"y": 2.9190265047,
				"z": -1.4544481722,
				"element": "C" 
			},
			{
				"x": 2.5104084533,
				"y": 3.7319164934,
				"z": -0.1679511601,
				"element": "C" 
			},
			{
				"x": 2.1335108309,
				"y": 5.195201459,
				"z": -0.4374518567,
				"element": "C" 
			},
			{
				"x": 1.9163584287,
				"y": 6.0088034766,
				"z": 0.8423262428,
				"element": "C" 
			},
			{
				"x": -0.3230895322,
				"y": -1.4297598843,
				"z": 0.5066539538,
				"element": "O" 
			},
			{
				"x": -0.4677272185,
				"y": -2.5796308349,
				"z": -0.3366010925,
				"element": "C" 
			},
			{
				"x": -0.3837192919,
				"y": -3.8536956465,
				"z": 0.510394132,
				"element": "C" 
			},
			{
				"x": -0.6713353748,
				"y": -5.106972289,
				"z": -0.3447581572,
				"element": "C" 
			},
			{
				"x": -2.1311599409,
				"y": -5.2595949692,
				"z": -0.7924226152,
				"element": "C" 
			},
			{
				"x": 0.9485845906,
				"y": -3.9575264479,
				"z": 1.2859843105,
				"element": "C" 
			},
			{
				"x": 2.2209138616,
				"y": -4.1186225586,
				"z": 0.4405225404,
				"element": "C" 
			},
			{
				"x": 3.4922225292,
				"y": -4.21242492,
				"z": 1.295639438,
				"element": "C" 
			},
			{
				"x": 4.7706148967,
				"y": -4.3661644338,
				"z": 0.4655864558,
				"element": "C" 
			},
			{
				"x": 4.3481328972,
				"y": 1.9217996138,
				"z": 5.2829036254,
				"element": "H" 
			},
			{
				"x": 3.7357971561,
				"y": 2.3399941252,
				"z": 3.6768531817,
				"element": "H" 
			},
			{
				"x": 4.0567590018,
				"y": 0.6509668124,
				"z": 4.0876769504,
				"element": "H" 
			},
			{
				"x": 2.2098130597,
				"y": 0.7271436336,
				"z": 5.8137885071,
				"element": "H" 
			},
			{
				"x": 1.8930208664,
				"y": 2.4038722848,
				"z": 5.4065620232,
				"element": "H" 
			},
			{
				"x": 1.2883483313,
				"y": 1.7121957162,
				"z": 3.0586808247,
				"element": "H" 
			},
			{
				"x": 1.5919290543,
				"y": 0.0384192604,
				"z": 3.4754908482,
				"element": "H" 
			},
			{
				"x": -0.1727436659,
				"y": 0.1919957712,
				"z": 5.2796973153,
				"element": "H" 
			},
			{
				"x": -0.5336765322,
				"y": 1.8310171707,
				"z": 4.7733837523,
				"element": "H" 
			},
			{
				"x": -0.8785179758,
				"y": -0.6729715713,
				"z": 3.0396640655,
				"element": "H" 
			},
			{
				"x": -3.0513278697,
				"y": 1.0826086204,
				"z": 4.2861658634,
				"element": "H" 
			},
			{
				"x": -2.391323393,
				"y": -0.3100050813,
				"z": 5.1145815868,
				"element": "H" 
			},
			{
				"x": -3.8437490496,
				"y": -0.4408376248,
				"z": 2.3987310204,
				"element": "H" 
			},
			{
				"x": -4.4887019667,
				"y": -0.9405987683,
				"z": 3.96160363,
				"element": "H" 
			},
			{
				"x": -3.1309541972,
				"y": -1.8179165393,
				"z": 3.2421051791,
				"element": "H" 
			},
			{
				"x": -2.3497127232,
				"y": 0.9600526161,
				"z": 1.6640231065,
				"element": "H" 
			},
			{
				"x": -1.4806479749,
				"y": 2.2540744258,
				"z": 2.4917237139,
				"element": "H" 
			},
			{
				"x": -0.870914108,
				"y": 1.9030998409,
				"z": -2.1594587727,
				"element": "H" 
			},
			{
				"x": -2.4592261854,
				"y": 2.1071080942,
				"z": -1.3994113074,
				"element": "H" 
			},
			{
				"x": -2.6335546872,
				"y": 1.8542710218,
				"z": -3.8295733655,
				"element": "H" 
			},
			{
				"x": -0.4873859216,
				"y": 0.4483514454,
				"z": -3.9526708041,
				"element": "H" 
			},
			{
				"x": -1.4639109987,
				"y": -0.9514008365,
				"z": -3.5611395002,
				"element": "H" 
			},
			{
				"x": -2.848067527,
				"y": -0.5429516401,
				"z": -5.6695489011,
				"element": "H" 
			},
			{
				"x": -1.8375536552,
				"y": 0.8613396336,
				"z": -6.0280403642,
				"element": "H" 
			},
			{
				"x": -1.1354322006,
				"y": -0.7615465969,
				"z": -6.0314481852,
				"element": "H" 
			},
			{
				"x": -3.9911177717,
				"y": -0.5002954398,
				"z": -3.8011769129,
				"element": "H" 
			},
			{
				"x": -3.7982046053,
				"y": -0.319034517,
				"z": -2.0779093382,
				"element": "H" 
			},
			{
				"x": -5.9765175255,
				"y": 0.5213390614,
				"z": -3.0234866284,
				"element": "H" 
			},
			{
				"x": -5.1100547434,
				"y": 1.6936774882,
				"z": -3.9974692721,
				"element": "H" 
			},
			{
				"x": -6.131360323,
				"y": 2.7846775235,
				"z": -2.0913482574,
				"element": "H" 
			},
			{
				"x": -4.3956856874,
				"y": 2.9122727339,
				"z": -1.9403867168,
				"element": "H" 
			},
			{
				"x": -5.4716863228,
				"y": 2.3561342073,
				"z": 0.2596069743,
				"element": "H" 
			},
			{
				"x": -6.152204004,
				"y": 0.8775222512,
				"z": -0.431989596,
				"element": "H" 
			},
			{
				"x": -4.4037759542,
				"y": 1.0362119124,
				"z": -0.2339796336,
				"element": "H" 
			},
			{
				"x": 2.288744348,
				"y": 1.1166250054,
				"z": 0.6439311565,
				"element": "H" 
			},
			{
				"x": 2.8131626286,
				"y": -0.3483766434,
				"z": -0.1925410997,
				"element": "H" 
			},
			{
				"x": 4.2267883667,
				"y": 1.5616845091,
				"z": -0.7459657222,
				"element": "H" 
			},
			{
				"x": 4.0570081414,
				"y": 1.5120920815,
				"z": -3.2608170098,
				"element": "H" 
			},
			{
				"x": 2.5230080646,
				"y": 0.6692216249,
				"z": -3.1207623361,
				"element": "H" 
			},
			{
				"x": 4.442593456,
				"y": -0.8971896137,
				"z": -3.5843777728,
				"element": "H" 
			},
			{
				"x": 5.2102064335,
				"y": -0.4159137829,
				"z": -2.0665181296,
				"element": "H" 
			},
			{
				"x": 3.6739960509,
				"y": -1.2940910071,
				"z": -2.0495277737,
				"element": "H" 
			},
			{
				"x": 3.4069894191,
				"y": 3.4599056674,
				"z": -2.1106469745,
				"element": "H" 
			},
			{
				"x": 1.7597813876,
				"y": 2.8639881643,
				"z": -1.9990484557,
				"element": "H" 
			},
			{
				"x": 1.7254286056,
				"y": 3.2730047467,
				"z": 0.4465312639,
				"element": "H" 
			},
			{
				"x": 3.4314094207,
				"y": 3.70346907,
				"z": 0.4335314225,
				"element": "H" 
			},
			{
				"x": 2.9194363687,
				"y": 5.6671542768,
				"z": -1.0430418735,
				"element": "H" 
			},
			{
				"x": 1.2214380432,
				"y": 5.2255325686,
				"z": -1.0492445509,
				"element": "H" 
			},
			{
				"x": 1.6485257042,
				"y": 7.0467131009,
				"z": 0.618008401,
				"element": "H" 
			},
			{
				"x": 2.8220709011,
				"y": 6.0255457547,
				"z": 1.4595962571,
				"element": "H" 
			},
			{
				"x": 1.1115089601,
				"y": 5.5812685198,
				"z": 1.4511461239,
				"element": "H" 
			},
			{
				"x": -1.4324132982,
				"y": -2.5248307639,
				"z": -0.8528773262,
				"element": "H" 
			},
			{
				"x": 0.318735543,
				"y": -2.5799799732,
				"z": -1.1041308483,
				"element": "H" 
			},
			{
				"x": -1.1803825743,
				"y": -3.7755625124,
				"z": 1.2650393887,
				"element": "H" 
			},
			{
				"x": -0.0182039678,
				"y": -5.1129476368,
				"z": -1.2276812213,
				"element": "H" 
			},
			{
				"x": -0.3892739031,
				"y": -5.9915986154,
				"z": 0.2407365393,
				"element": "H" 
			},
			{
				"x": -2.8077393538,
				"y": -5.2752494599,
				"z": 0.06965678,
				"element": "H" 
			},
			{
				"x": -2.4522469109,
				"y": -4.4441468348,
				"z": -1.4483500838,
				"element": "H" 
			},
			{
				"x": -2.2745863496,
				"y": -6.1949477875,
				"z": -1.3434285304,
				"element": "H" 
			},
			{
				"x": 0.8739073918,
				"y": -4.8102187641,
				"z": 1.9753042586,
				"element": "H" 
			},
			{
				"x": 1.0494874941,
				"y": -3.0633360524,
				"z": 1.9117956062,
				"element": "H" 
			},
			{
				"x": 2.1484664425,
				"y": -5.0164752667,
				"z": -0.1879273,
				"element": "H" 
			},
			{
				"x": 2.3233752762,
				"y": -3.2704466738,
				"z": -0.2504996583,
				"element": "H" 
			},
			{
				"x": 3.5694578211,
				"y": -3.3161764245,
				"z": 1.9261862798,
				"element": "H" 
			},
			{
				"x": 3.4002776022,
				"y": -5.0609602895,
				"z": 1.9874606302,
				"element": "H" 
			},
			{
				"x": 5.6582651134,
				"y": -4.4303969275,
				"z": 1.1036583038,
				"element": "H" 
			},
			{
				"x": 4.9089947875,
				"y": -3.5148426737,
				"z": -0.2110493554,
				"element": "H" 
			},
			{
				"x": 4.7375290099,
				"y": -5.2727673684,
				"z": -0.1496447366,
				"element": "H" 
			}
		],
		 "valence_orbital": [ 
			{
				"type": "occ",
				"energy": -0.28793,
				"method": "rhf"
			},
			{
				"type": "occ",
				"energy": -0.28543,
				"method": "rhf"
			},
			{
				"type": "occ",
				"energy": -0.27632,
				"method": "rhf"
			},
			{
				"type": "occ",
				"energy": -0.27219,
				"method": "rhf"
			},
			{
				"type": "occ",
				"energy": -0.26702,
				"method": "rhf"
			},
			{
				"type": "unocc",
				"energy": 0.04453,
				"method": "rhf"
			},
			{
				"type": "unocc",
				"energy": 0.05963,
				"method": "rhf"
			},
			{
				"type": "unocc",
				"energy": 0.06974,
				"method": "rhf"
			},
			{
				"type": "unocc",
				"energy": 0.07778,
				"method": "rhf"
			},
			{
				"type": "unocc",
				"energy": 0.08631,
				"method": "rhf"
			}
		],
		"cosmo_sigma_profile": { 
			"-0.025": 0.0,
			"-0.024": 0.0,
			"-0.023": 0.0,
			"-0.022": 0.0,
			"-0.021": 0.0,
			"-0.02": 0.0,
			"-0.019": 0.0,
			"-0.018": 0.0,
			"-0.017": 0.0,
			"-0.016": 0.0,
			"-0.015": 0.0,
			"-0.014": 0.0,
			"-0.013": 0.0,
			"-0.012": 0.0,
			"-0.011": 0.0,
			"-0.01": 0.0,
			"-0.009": 0.0,
			"-0.008": 0.0,
			"-0.007": 0.0,
			"-0.006": 0.0,
			"-0.005": 0.0444465297792,
			"-0.004": 4.76106215596,
			"-0.003": 39.2749540583,
			"-0.002": 126.754760811,
			"-0.001": 157.784567083,
			"0.0": 163.264985384,
			"0.001": 143.804083514,
			"0.002": 74.9588690602,
			"0.003": 15.8394219637,
			"0.004": 11.6915218423,
			"0.005": 9.25386676752,
			"0.006": 8.02512579457,
			"0.007": 6.03017267435,
			"0.008": 1.71532571086,
			"0.009": 0.392405907018,
			"0.01": 0.0,
			"0.011": 0.0,
			"0.012": 0.0,
			"0.013": 0.0,
			"0.014": 0.0,
			"0.015": 0.0,
			"0.016": 0.0,
			"0.017": 0.0,
			"0.018": 0.0,
			"0.019": 0.0,
			"0.02": 0.0,
			"0.021": 0.0,
			"0.022": 0.0,
			"0.023": 0.0,
			"0.024": 0.0,
			"0.025": 0.0
		}
	}
}
