{
	 "smiles": "OC1=CC=CC=C1C1NN2C(S1)=NN=C2C1=CC=C(C=C1)[N+]([O-])=O", 
	 "Tm": 468.15, 
	 "num_atms": 35, 
	 "gaussian": { 
		 "optdone": 1, 
		 "sigma_profile": "yes", 
		 "theory": "DFT", 
		 "functional": "B3LYP", 
		 "basiset": "6-31G**", 
		 "properties": { 
			 "R2extent": 10519.926, 
			 "electric_dipole_moment_norm": 8.56103179821, 
			 "electric_quadrupole_moment_norm": 36.4681223597, 
			 "total_energy": -1475.66935811, 
			 "HOMO_LUMO_gap": 0.13401, 
			 "cosmo_polarized_energy": -27.4, 
			 "cosmo_cavitation_energy": 42.21, 
			 "cosmo_dispersion_energy": -30.33, 
			 "cosmo_repulsion_energy": 2.21, 
			 "cosmo_total_nonelectrostatic_energy": 14.1, 
			 "SMD_solvation_energy": 7.02 
		},
		"coords": [
			{
				"x": 2.0610970415,
				"y": -2.8849939842,
				"z": 3.9613705449,
				"element": "O" 
			},
			{
				"x": 1.1289945847,
				"y": -1.8850283994,
				"z": 3.8945834725,
				"element": "C" 
			},
			{
				"x": 0.5463090202,
				"y": -1.3145132466,
				"z": 5.026185232,
				"element": "C" 
			},
			{
				"x": -0.4028534284,
				"y": -0.3024078829,
				"z": 4.8789421084,
				"element": "C" 
			},
			{
				"x": -0.7745654529,
				"y": 0.1324483637,
				"z": 3.6071027582,
				"element": "C" 
			},
			{
				"x": -0.1895364708,
				"y": -0.4451349945,
				"z": 2.4792032086,
				"element": "C" 
			},
			{
				"x": 0.7718239533,
				"y": -1.451126764,
				"z": 2.6050232616,
				"element": "C" 
			},
			{
				"x": 1.4407574444,
				"y": -2.1117600393,
				"z": 1.4313557477,
				"element": "C" 
			},
			{
				"x": 0.8437146693,
				"y": -1.7767660866,
				"z": 0.1340024814,
				"element": "N" 
			},
			{
				"x": 1.5242064083,
				"y": -0.6304235478,
				"z": -0.3234442931,
				"element": "N" 
			},
			{
				"x": 2.7949192008,
				"y": -0.4088702295,
				"z": 0.1327063057,
				"element": "C" 
			},
			{
				"x": 3.2995774334,
				"y": -1.6045690748,
				"z": 1.3128703047,
				"element": "S" 
			},
			{
				"x": 3.3020879616,
				"y": 0.6722743018,
				"z": -0.4102441335,
				"element": "N" 
			},
			{
				"x": 2.3341136035,
				"y": 1.1652604518,
				"z": -1.2631912159,
				"element": "N" 
			},
			{
				"x": 1.257953917,
				"y": 0.3956030014,
				"z": -1.2060389869,
				"element": "C" 
			},
			{
				"x": 0.023969204,
				"y": 0.6288024467,
				"z": -1.953362304,
				"element": "C" 
			},
			{
				"x": -1.120559098,
				"y": -0.1736990132,
				"z": -1.7939684341,
				"element": "C" 
			},
			{
				"x": -2.2747382001,
				"y": 0.0946371444,
				"z": -2.5228055127,
				"element": "C" 
			},
			{
				"x": -2.2776488742,
				"y": 1.1662986462,
				"z": -3.4122283411,
				"element": "C" 
			},
			{
				"x": -1.1563551221,
				"y": 1.979258987,
				"z": -3.5893076918,
				"element": "C" 
			},
			{
				"x": -0.0088089742,
				"y": 1.7078816503,
				"z": -2.8589713734,
				"element": "C" 
			},
			{
				"x": -3.4951789916,
				"y": 1.4481195442,
				"z": -4.1840871994,
				"element": "N" 
			},
			{
				"x": -4.4673407609,
				"y": 0.7129921422,
				"z": -4.0068281161,
				"element": "O" 
			},
			{
				"x": -3.4703723281,
				"y": 2.4021840258,
				"z": -4.9614870282,
				"element": "O" 
			},
			{
				"x": 2.2711519561,
				"y": -3.0744244058,
				"z": 4.8849951773,
				"element": "H" 
			},
			{
				"x": 0.8338337507,
				"y": -1.6629352452,
				"z": 6.0156924045,
				"element": "H" 
			},
			{
				"x": -0.852797654,
				"y": 0.1401162206,
				"z": 5.7624530077,
				"element": "H" 
			},
			{
				"x": -1.5178307712,
				"y": 0.9141852184,
				"z": 3.4903874668,
				"element": "H" 
			},
			{
				"x": -0.4895150542,
				"y": -0.1203172618,
				"z": 1.4894409395,
				"element": "H" 
			},
			{
				"x": 1.4429724106,
				"y": -3.1962782592,
				"z": 1.5456317969,
				"element": "H" 
			},
			{
				"x": 1.056430212,
				"y": -2.5275426368,
				"z": -0.5254905368,
				"element": "H" 
			},
			{
				"x": -1.1096857591,
				"y": -1.001557511,
				"z": -1.0942183297,
				"element": "H" 
			},
			{
				"x": -3.1674275894,
				"y": -0.5082922748,
				"z": -2.4140282647,
				"element": "H" 
			},
			{
				"x": -1.2016577301,
				"y": 2.8029435928,
				"z": -4.2905709585,
				"element": "H" 
			},
			{
				"x": 0.8784594878,
				"y": 2.3203351202,
				"z": -2.9706734986,
				"element": "H" 
			}
		],
		 "valence_orbital": [ 
			{
				"type": "occ",
				"energy": -0.27964,
				"method": "rhf"
			},
			{
				"type": "occ",
				"energy": -0.27055,
				"method": "rhf"
			},
			{
				"type": "occ",
				"energy": -0.26273,
				"method": "rhf"
			},
			{
				"type": "occ",
				"energy": -0.24515,
				"method": "rhf"
			},
			{
				"type": "occ",
				"energy": -0.22875,
				"method": "rhf"
			},
			{
				"type": "unocc",
				"energy": -0.09474,
				"method": "rhf"
			},
			{
				"type": "unocc",
				"energy": -0.0455,
				"method": "rhf"
			},
			{
				"type": "unocc",
				"energy": -0.02997,
				"method": "rhf"
			},
			{
				"type": "unocc",
				"energy": -0.02739,
				"method": "rhf"
			},
			{
				"type": "unocc",
				"energy": -0.01222,
				"method": "rhf"
			}
		],
		"cosmo_sigma_profile": { 
			"-0.025": 0.0,
			"-0.024": 0.0,
			"-0.023": 0.0,
			"-0.022": 0.0,
			"-0.021": 0.0,
			"-0.02": 0.0,
			"-0.019": 0.0580615841322,
			"-0.018": 1.02101628188,
			"-0.017": 0.973517194824,
			"-0.016": 2.51401357965,
			"-0.015": 3.54302831018,
			"-0.014": 3.03590216651,
			"-0.013": 2.4845207664,
			"-0.012": 2.59522312771,
			"-0.011": 2.36052377832,
			"-0.01": 3.55213881182,
			"-0.009": 3.49623670975,
			"-0.008": 3.86231332166,
			"-0.007": 9.15384997118,
			"-0.006": 16.2575350929,
			"-0.005": 17.4687841574,
			"-0.004": 20.4897959552,
			"-0.003": 17.7979432425,
			"-0.002": 20.6714445705,
			"-0.001": 21.2177800132,
			"0.0": 28.2885464106,
			"0.001": 28.8521074641,
			"0.002": 19.0027208117,
			"0.003": 17.5093415905,
			"0.004": 19.8993004373,
			"0.005": 17.8685131339,
			"0.006": 11.8231616368,
			"0.007": 10.4065517718,
			"0.008": 10.8998918895,
			"0.009": 6.43179752735,
			"0.01": 4.26851801962,
			"0.011": 2.83294234521,
			"0.012": 3.56912512531,
			"0.013": 3.08276804351,
			"0.014": 2.55146572687,
			"0.015": 1.45243592354,
			"0.016": 0.682175444087,
			"0.017": 0.00437981370811,
			"0.018": 0.0,
			"0.019": 0.0,
			"0.02": 0.0,
			"0.021": 0.0,
			"0.022": 0.0,
			"0.023": 0.0,
			"0.024": 0.0,
			"0.025": 0.0
		}
	}
}
