{
	 "smiles": "COC1=CC=C(F)C(F)=C1C(O)=O", 
	 "Tm": 400.65, 
	 "num_atms": 19, 
	 "gaussian": { 
		 "optdone": 1, 
		 "sigma_profile": "yes", 
		 "theory": "DFT", 
		 "functional": "B3LYP", 
		 "basiset": "6-31G**", 
		 "properties": { 
			 "R2extent": 3390.338, 
			 "electric_dipole_moment_norm": 7.96690313987, 
			 "electric_quadrupole_moment_norm": 14.9975165411, 
			 "total_energy": -733.790135347, 
			 "HOMO_LUMO_gap": 0.19121, 
			 "cosmo_polarized_energy": -16.19, 
			 "cosmo_cavitation_energy": 24.42, 
			 "cosmo_dispersion_energy": -18.0, 
			 "cosmo_repulsion_energy": 1.37, 
			 "cosmo_total_nonelectrostatic_energy": 7.79, 
			 "SMD_solvation_energy": 7.11 
		},
		"coords": [
			{
				"x": -1.0189435561,
				"y": -2.1432125202,
				"z": 1.3775771165,
				"element": "C" 
			},
			{
				"x": 0.0857133115,
				"y": -1.6866605177,
				"z": 0.5998409603,
				"element": "O" 
			},
			{
				"x": 0.7669427401,
				"y": -0.5556345914,
				"z": 0.9809736591,
				"element": "C" 
			},
			{
				"x": 0.4083159331,
				"y": 0.1773867586,
				"z": 2.1116764405,
				"element": "C" 
			},
			{
				"x": 1.1347189406,
				"y": 1.3164763639,
				"z": 2.464938698,
				"element": "C" 
			},
			{
				"x": 2.2071085345,
				"y": 1.7071418996,
				"z": 1.6878889543,
				"element": "C" 
			},
			{
				"x": 2.9292105312,
				"y": 2.7931454343,
				"z": 2.0084646623,
				"element": "F" 
			},
			{
				"x": 2.5657718816,
				"y": 0.9788910451,
				"z": 0.5503775543,
				"element": "C" 
			},
			{
				"x": 3.62003324,
				"y": 1.423331132,
				"z": -0.1280278552,
				"element": "F" 
			},
			{
				"x": 1.8595515244,
				"y": -0.1687988782,
				"z": 0.1575539011,
				"element": "C" 
			},
			{
				"x": 2.292109415,
				"y": -0.8905788757,
				"z": -1.1040148929,
				"element": "C" 
			},
			{
				"x": 1.7905111259,
				"y": -2.1241920216,
				"z": -1.3086757933,
				"element": "O" 
			},
			{
				"x": 3.0637115315,
				"y": -0.4049837412,
				"z": -1.8963867077,
				"element": "O" 
			},
			{
				"x": -0.7088610685,
				"y": -2.390439411,
				"z": 2.3988754181,
				"element": "H" 
			},
			{
				"x": -1.3805412547,
				"y": -3.0419042209,
				"z": 0.8778062961,
				"element": "H" 
			},
			{
				"x": -1.8167435119,
				"y": -1.3933012033,
				"z": 1.402369725,
				"element": "H" 
			},
			{
				"x": -0.4290636437,
				"y": -0.1242257098,
				"z": 2.7265430289,
				"element": "H" 
			},
			{
				"x": 0.8745158849,
				"y": 1.8993638229,
				"z": 3.3414664685,
				"element": "H" 
			},
			{
				"x": 1.1210384404,
				"y": -2.3306047653,
				"z": -0.6311476337,
				"element": "H" 
			}
		],
		 "valence_orbital": [ 
			{
				"type": "occ",
				"energy": -0.34349,
				"method": "rhf"
			},
			{
				"type": "occ",
				"energy": -0.3036,
				"method": "rhf"
			},
			{
				"type": "occ",
				"energy": -0.27453,
				"method": "rhf"
			},
			{
				"type": "occ",
				"energy": -0.26254,
				"method": "rhf"
			},
			{
				"type": "occ",
				"energy": -0.24729,
				"method": "rhf"
			},
			{
				"type": "unocc",
				"energy": -0.05608,
				"method": "rhf"
			},
			{
				"type": "unocc",
				"energy": -0.01226,
				"method": "rhf"
			},
			{
				"type": "unocc",
				"energy": 0.05032,
				"method": "rhf"
			},
			{
				"type": "unocc",
				"energy": 0.05067,
				"method": "rhf"
			},
			{
				"type": "unocc",
				"energy": 0.07003,
				"method": "rhf"
			}
		],
		"cosmo_sigma_profile": { 
			"-0.025": 0.0,
			"-0.024": 0.0,
			"-0.023": 0.0,
			"-0.022": 0.0,
			"-0.021": 0.0,
			"-0.02": 0.0,
			"-0.019": 0.0,
			"-0.018": 0.0,
			"-0.017": 0.0,
			"-0.016": 0.0,
			"-0.015": 0.0,
			"-0.014": 0.0,
			"-0.013": 0.0,
			"-0.012": 0.0,
			"-0.011": 0.146983458274,
			"-0.01": 0.718438754615,
			"-0.009": 2.40544517687,
			"-0.008": 6.69662574506,
			"-0.007": 12.4494705854,
			"-0.006": 13.6340268484,
			"-0.005": 11.7372942181,
			"-0.004": 12.0950058227,
			"-0.003": 11.3543586538,
			"-0.002": 13.7511351257,
			"-0.001": 18.9576156773,
			"0.0": 13.2459969238,
			"0.001": 9.76954215392,
			"0.002": 9.08919502685,
			"0.003": 15.2515416574,
			"0.004": 11.6625848116,
			"0.005": 3.05108493826,
			"0.006": 2.96827697397,
			"0.007": 2.45509490103,
			"0.008": 2.55093785269,
			"0.009": 3.37311186414,
			"0.01": 4.25418381886,
			"0.011": 5.76768225856,
			"0.012": 6.60749652876,
			"0.013": 2.19883057134,
			"0.014": 0.317034051767,
			"0.015": 0.0,
			"0.016": 0.0,
			"0.017": 0.0,
			"0.018": 0.0,
			"0.019": 0.0,
			"0.02": 0.0,
			"0.021": 0.0,
			"0.022": 0.0,
			"0.023": 0.0,
			"0.024": 0.0,
			"0.025": 0.0
		}
	}
}
