{
	 "smiles": "CCN1C(=O)NC(Cl)=CC1=O", 
	 "Tm": 484.15, 
	 "num_atms": 18, 
	 "gaussian": { 
		 "optdone": 1, 
		 "sigma_profile": "yes", 
		 "theory": "DFT", 
		 "functional": "B3LYP", 
		 "basiset": "6-31G**", 
		 "properties": { 
			 "R2extent": 2687.8097, 
			 "electric_dipole_moment_norm": 2.19203928113, 
			 "electric_quadrupole_moment_norm": 14.214630042, 
			 "total_energy": -953.035388728, 
			 "HOMO_LUMO_gap": 0.20794, 
			 "cosmo_polarized_energy": -12.55, 
			 "cosmo_cavitation_energy": 24.1, 
			 "cosmo_dispersion_energy": -17.82, 
			 "cosmo_repulsion_energy": 1.43, 
			 "cosmo_total_nonelectrostatic_energy": 7.71, 
			 "SMD_solvation_energy": 5.39 
		},
		"coords": [
			{
				"x": -1.01976849,
				"y": -2.054359937,
				"z": -0.714081052,
				"element": "C" 
			},
			{
				"x": 0.3586371884,
				"y": -1.5664225777,
				"z": -0.2697538283,
				"element": "C" 
			},
			{
				"x": 0.5293149509,
				"y": -0.1130128728,
				"z": -0.464873419,
				"element": "N" 
			},
			{
				"x": 0.1335762713,
				"y": 0.7151003334,
				"z": 0.5751960177,
				"element": "C" 
			},
			{
				"x": -0.3338043061,
				"y": 0.3268756835,
				"z": 1.6318832008,
				"element": "O" 
			},
			{
				"x": 0.3172302819,
				"y": 2.0821283736,
				"z": 0.3349238945,
				"element": "N" 
			},
			{
				"x": 0.8203617556,
				"y": 2.5831743319,
				"z": -0.8367983274,
				"element": "C" 
			},
			{
				"x": 0.9418619463,
				"y": 4.3162175389,
				"z": -0.8996960356,
				"element": "Cl" 
			},
			{
				"x": 1.1861321545,
				"y": 1.7783095443,
				"z": -1.8531064403,
				"element": "C" 
			},
			{
				"x": 1.0395611663,
				"y": 0.3327214247,
				"z": -1.7120249449,
				"element": "C" 
			},
			{
				"x": 1.3296042599,
				"y": -0.4681703606,
				"z": -2.5883918422,
				"element": "O" 
			},
			{
				"x": -1.8098154698,
				"y": -1.5679408548,
				"z": -0.1352533035,
				"element": "H" 
			},
			{
				"x": -1.0981434757,
				"y": -3.1347700629,
				"z": -0.556481806,
				"element": "H" 
			},
			{
				"x": -1.1768905781,
				"y": -1.8528784909,
				"z": -1.7771110095,
				"element": "H" 
			},
			{
				"x": 0.5172759973,
				"y": -1.76314703,
				"z": 0.7910319347,
				"element": "H" 
			},
			{
				"x": 1.1443920016,
				"y": -2.0463549659,
				"z": -0.8535283822,
				"element": "H" 
			},
			{
				"x": 0.0312262656,
				"y": 2.6930395852,
				"z": 1.0870744036,
				"element": "H" 
			},
			{
				"x": 1.58094808,
				"y": 2.159690337,
				"z": -2.7829090603,
				"element": "H" 
			}
		],
		 "valence_orbital": [ 
			{
				"type": "occ",
				"energy": -0.33542,
				"method": "rhf"
			},
			{
				"type": "occ",
				"energy": -0.30028,
				"method": "rhf"
			},
			{
				"type": "occ",
				"energy": -0.27784,
				"method": "rhf"
			},
			{
				"type": "occ",
				"energy": -0.26824,
				"method": "rhf"
			},
			{
				"type": "occ",
				"energy": -0.25685,
				"method": "rhf"
			},
			{
				"type": "unocc",
				"energy": -0.04891,
				"method": "rhf"
			},
			{
				"type": "unocc",
				"energy": -0.00822,
				"method": "rhf"
			},
			{
				"type": "unocc",
				"energy": 0.00265,
				"method": "rhf"
			},
			{
				"type": "unocc",
				"energy": 0.08081,
				"method": "rhf"
			},
			{
				"type": "unocc",
				"energy": 0.10273,
				"method": "rhf"
			}
		],
		"cosmo_sigma_profile": { 
			"-0.025": 0.0,
			"-0.024": 0.0,
			"-0.023": 0.0,
			"-0.022": 0.0,
			"-0.021": 0.0,
			"-0.02": 0.0,
			"-0.019": 0.0,
			"-0.018": 0.117492642119,
			"-0.017": 0.879571193893,
			"-0.016": 0.888741828823,
			"-0.015": 1.12108465628,
			"-0.014": 0.5860744919,
			"-0.013": 0.754188498585,
			"-0.012": 1.14170596431,
			"-0.011": 1.16389911418,
			"-0.01": 0.758427786336,
			"-0.009": 1.90675274264,
			"-0.008": 2.66166974235,
			"-0.007": 2.47572865161,
			"-0.006": 3.90912111906,
			"-0.005": 8.06100645894,
			"-0.004": 14.1473363665,
			"-0.003": 24.2135764878,
			"-0.002": 22.1571292289,
			"-0.001": 18.0337113307,
			"0.0": 19.0922867301,
			"0.001": 15.6274960038,
			"0.002": 11.487548774,
			"0.003": 4.95111113553,
			"0.004": 2.99062585619,
			"0.005": 2.84066955192,
			"0.006": 3.61604390484,
			"0.007": 2.55173744601,
			"0.008": 2.10786039001,
			"0.009": 2.46078229772,
			"0.01": 3.03753318621,
			"0.011": 4.32901247864,
			"0.012": 9.28114359733,
			"0.013": 4.23136661143,
			"0.014": 0.486254465294,
			"0.015": 0.0,
			"0.016": 0.0,
			"0.017": 0.0,
			"0.018": 0.0,
			"0.019": 0.0,
			"0.02": 0.0,
			"0.021": 0.0,
			"0.022": 0.0,
			"0.023": 0.0,
			"0.024": 0.0,
			"0.025": 0.0
		}
	}
}
