{
	 "smiles": "NC1=CC(=CC=C1)C1=NN=CO1", 
	 "Tm": 340.15, 
	 "num_atms": 19, 
	 "gaussian": { 
		 "optdone": 1, 
		 "sigma_profile": "yes", 
		 "theory": "DFT", 
		 "functional": "B3LYP", 
		 "basiset": "6-31G**", 
		 "properties": { 
			 "R2extent": 2416.1341, 
			 "electric_dipole_moment_norm": 3.53617311369, 
			 "electric_quadrupole_moment_norm": 15.9962175479, 
			 "total_energy": -548.518164994, 
			 "HOMO_LUMO_gap": 0.16668, 
			 "cosmo_polarized_energy": -14.63, 
			 "cosmo_cavitation_energy": 23.99, 
			 "cosmo_dispersion_energy": -17.99, 
			 "cosmo_repulsion_energy": 1.41, 
			 "cosmo_total_nonelectrostatic_energy": 7.41, 
			 "SMD_solvation_energy": 3.36 
		},
		"coords": [
			{
				"x": 0.5250262295,
				"y": 2.7961259347,
				"z": -1.3834598699,
				"element": "N" 
			},
			{
				"x": 0.5939724547,
				"y": 1.9117513165,
				"z": -0.3096826827,
				"element": "C" 
			},
			{
				"x": -0.2079247553,
				"y": 0.7627874437,
				"z": -0.2781561559,
				"element": "C" 
			},
			{
				"x": -0.1777499406,
				"y": -0.0932044711,
				"z": 0.8299920565,
				"element": "C" 
			},
			{
				"x": 0.6543522097,
				"y": 0.1831871721,
				"z": 1.9247642219,
				"element": "C" 
			},
			{
				"x": 1.4511072357,
				"y": 1.3266270296,
				"z": 1.8890868424,
				"element": "C" 
			},
			{
				"x": 1.4276886023,
				"y": 2.1835117777,
				"z": 0.7923319183,
				"element": "C" 
			},
			{
				"x": -1.0274614612,
				"y": -1.2798642458,
				"z": 0.8135379141,
				"element": "C" 
			},
			{
				"x": -1.8353269307,
				"y": -1.6893325254,
				"z": -0.1220043831,
				"element": "N" 
			},
			{
				"x": -2.4166523441,
				"y": -2.8722124052,
				"z": 0.3387877985,
				"element": "N" 
			},
			{
				"x": -1.9138955842,
				"y": -3.0797711745,
				"z": 1.5097992671,
				"element": "C" 
			},
			{
				"x": -1.0269239641,
				"y": -2.1246126892,
				"z": 1.891268705,
				"element": "O" 
			},
			{
				"x": 1.340095749,
				"y": 3.375882116,
				"z": -1.5252932707,
				"element": "H" 
			},
			{
				"x": 0.1764494948,
				"y": 2.4055769229,
				"z": -2.2476500535,
				"element": "H" 
			},
			{
				"x": -0.8637408696,
				"y": 0.5245281432,
				"z": -1.1097959649,
				"element": "H" 
			},
			{
				"x": 0.6750708396,
				"y": -0.4835635745,
				"z": 2.7787745797,
				"element": "H" 
			},
			{
				"x": 2.1025010692,
				"y": 1.5543226737,
				"z": 2.7278041798,
				"element": "H" 
			},
			{
				"x": 2.0517152554,
				"y": 3.0736594934,
				"z": 0.7831430884,
				"element": "H" 
			},
			{
				"x": -2.1096032901,
				"y": -3.8916989378,
				"z": 2.1930518091,
				"element": "H" 
			}
		],
		 "valence_orbital": [ 
			{
				"type": "occ",
				"energy": -0.32031,
				"method": "rhf"
			},
			{
				"type": "occ",
				"energy": -0.29319,
				"method": "rhf"
			},
			{
				"type": "occ",
				"energy": -0.27573,
				"method": "rhf"
			},
			{
				"type": "occ",
				"energy": -0.24145,
				"method": "rhf"
			},
			{
				"type": "occ",
				"energy": -0.21248,
				"method": "rhf"
			},
			{
				"type": "unocc",
				"energy": -0.0458,
				"method": "rhf"
			},
			{
				"type": "unocc",
				"energy": 0.00139,
				"method": "rhf"
			},
			{
				"type": "unocc",
				"energy": 0.01719,
				"method": "rhf"
			},
			{
				"type": "unocc",
				"energy": 0.06356,
				"method": "rhf"
			},
			{
				"type": "unocc",
				"energy": 0.07846,
				"method": "rhf"
			}
		],
		"cosmo_sigma_profile": { 
			"-0.025": 0.0,
			"-0.024": 0.0,
			"-0.023": 0.0,
			"-0.022": 0.0,
			"-0.021": 0.0,
			"-0.02": 0.0,
			"-0.019": 0.0,
			"-0.018": 0.0,
			"-0.017": 0.0,
			"-0.016": 0.0,
			"-0.015": 0.0,
			"-0.014": 0.0,
			"-0.013": 1.30384550415,
			"-0.012": 5.22663684281,
			"-0.011": 4.59191954503,
			"-0.01": 4.54812173931,
			"-0.009": 4.28640613389,
			"-0.008": 4.26524188057,
			"-0.007": 5.33063621579,
			"-0.006": 8.07698615789,
			"-0.005": 8.87210208361,
			"-0.004": 12.4925683398,
			"-0.003": 10.9431569254,
			"-0.002": 10.624673159,
			"-0.001": 11.2214424212,
			"0.0": 10.4347628608,
			"0.001": 10.2200259813,
			"0.002": 12.162188101,
			"0.003": 11.7144080967,
			"0.004": 14.4026468731,
			"0.005": 12.0917756791,
			"0.006": 4.12671418892,
			"0.007": 2.91182680458,
			"0.008": 1.75156772478,
			"0.009": 3.65235614385,
			"0.01": 3.76468161565,
			"0.011": 3.48242712491,
			"0.012": 4.12417774436,
			"0.013": 3.00081063045,
			"0.014": 2.57899024256,
			"0.015": 0.700193893482,
			"0.016": 0.0,
			"0.017": 0.0,
			"0.018": 0.0,
			"0.019": 0.0,
			"0.02": 0.0,
			"0.021": 0.0,
			"0.022": 0.0,
			"0.023": 0.0,
			"0.024": 0.0,
			"0.025": 0.0
		}
	}
}
