{
	 "smiles": "NC(=O)C1=C(Cl)N=CC(=C1)[N+]([O-])=O", 
	 "Tm": 446.15, 
	 "num_atms": 17, 
	 "gaussian": { 
		 "optdone": 1, 
		 "sigma_profile": "yes", 
		 "theory": "DFT", 
		 "functional": "B3LYP", 
		 "basiset": "6-31G**", 
		 "properties": { 
			 "R2extent": 3611.6205, 
			 "electric_dipole_moment_norm": 3.67234639161, 
			 "electric_quadrupole_moment_norm": 23.0584623731, 
			 "total_energy": -1081.06440459, 
			 "HOMO_LUMO_gap": 0.16203, 
			 "cosmo_polarized_energy": -18.62, 
			 "cosmo_cavitation_energy": 25.28, 
			 "cosmo_dispersion_energy": -18.49, 
			 "cosmo_repulsion_energy": 1.49, 
			 "cosmo_total_nonelectrostatic_energy": 8.28, 
			 "SMD_solvation_energy": 5.92 
		},
		"coords": [
			{
				"x": 2.6794716398,
				"y": -0.9646795689,
				"z": -1.8940906507,
				"element": "N" 
			},
			{
				"x": 1.9462084019,
				"y": -1.5801109556,
				"z": -0.9159969594,
				"element": "C" 
			},
			{
				"x": 2.4403713694,
				"y": -2.2322607203,
				"z": -0.0138897673,
				"element": "O" 
			},
			{
				"x": 0.4585479901,
				"y": -1.3108180523,
				"z": -0.9938680911,
				"element": "C" 
			},
			{
				"x": -0.5234226792,
				"y": -2.3199467032,
				"z": -0.879840389,
				"element": "C" 
			},
			{
				"x": -0.0557100514,
				"y": -3.9978370003,
				"z": -0.8125590501,
				"element": "Cl" 
			},
			{
				"x": -1.829062379,
				"y": -2.0931993313,
				"z": -0.8571477544,
				"element": "N" 
			},
			{
				"x": -2.261436915,
				"y": -0.8326658674,
				"z": -0.9405295063,
				"element": "C" 
			},
			{
				"x": -1.3754828812,
				"y": 0.2323907468,
				"z": -1.0718513992,
				"element": "C" 
			},
			{
				"x": -0.0035750323,
				"y": -0.000624604,
				"z": -1.1017863178,
				"element": "C" 
			},
			{
				"x": -1.8854891755,
				"y": 1.6028817224,
				"z": -1.1808030998,
				"element": "N" 
			},
			{
				"x": -3.1040428386,
				"y": 1.7567078795,
				"z": -1.1354584527,
				"element": "O" 
			},
			{
				"x": -1.0585006623,
				"y": 2.503754136,
				"z": -1.313752794,
				"element": "O" 
			},
			{
				"x": 3.6717441161,
				"y": -1.1543206212,
				"z": -1.9053248966,
				"element": "H" 
			},
			{
				"x": 2.2508613757,
				"y": -0.6362987548,
				"z": -2.745443865,
				"element": "H" 
			},
			{
				"x": -3.3321583115,
				"y": -0.6619137639,
				"z": -0.9067829166,
				"element": "H" 
			},
			{
				"x": 0.681876033,
				"y": 0.8342414585,
				"z": -1.1894740898,
				"element": "H" 
			}
		],
		 "valence_orbital": [ 
			{
				"type": "occ",
				"energy": -0.31315,
				"method": "rhf"
			},
			{
				"type": "occ",
				"energy": -0.30343,
				"method": "rhf"
			},
			{
				"type": "occ",
				"energy": -0.29669,
				"method": "rhf"
			},
			{
				"type": "occ",
				"energy": -0.29301,
				"method": "rhf"
			},
			{
				"type": "occ",
				"energy": -0.2756,
				"method": "rhf"
			},
			{
				"type": "unocc",
				"energy": -0.11357,
				"method": "rhf"
			},
			{
				"type": "unocc",
				"energy": -0.0756,
				"method": "rhf"
			},
			{
				"type": "unocc",
				"energy": -0.03854,
				"method": "rhf"
			},
			{
				"type": "unocc",
				"energy": 0.00884,
				"method": "rhf"
			},
			{
				"type": "unocc",
				"energy": 0.02222,
				"method": "rhf"
			}
		],
		"cosmo_sigma_profile": { 
			"-0.025": 0.0,
			"-0.024": 0.0,
			"-0.023": 0.0,
			"-0.022": 0.0,
			"-0.021": 0.0,
			"-0.02": 0.0,
			"-0.019": 0.0,
			"-0.018": 0.0,
			"-0.017": 0.0,
			"-0.016": 0.227967044826,
			"-0.015": 1.89933418997,
			"-0.014": 2.42125064206,
			"-0.013": 2.72116874115,
			"-0.012": 2.11234211324,
			"-0.011": 2.8396873295,
			"-0.01": 2.51113450154,
			"-0.009": 4.81601960114,
			"-0.008": 7.18256296366,
			"-0.007": 6.62195065829,
			"-0.006": 8.84889873,
			"-0.005": 12.9002343889,
			"-0.004": 14.2618173118,
			"-0.003": 11.6255049843,
			"-0.002": 9.36168862666,
			"-0.001": 8.73908865838,
			"0.0": 10.1200309505,
			"0.001": 9.01444086104,
			"0.002": 9.92336485473,
			"0.003": 11.4739845996,
			"0.004": 9.09702308517,
			"0.005": 7.7329104149,
			"0.006": 9.81876805493,
			"0.007": 10.7355720088,
			"0.008": 6.70345786315,
			"0.009": 5.7708769438,
			"0.01": 2.90548754828,
			"0.011": 3.70718292051,
			"0.012": 5.22807793165,
			"0.013": 4.10458745615,
			"0.014": 0.131921552304,
			"0.015": 0.0,
			"0.016": 0.0,
			"0.017": 0.0,
			"0.018": 0.0,
			"0.019": 0.0,
			"0.02": 0.0,
			"0.021": 0.0,
			"0.022": 0.0,
			"0.023": 0.0,
			"0.024": 0.0,
			"0.025": 0.0
		}
	}
}
