{
	 "smiles": "OC(=O)C1=NN2C=C(Br)C=NC2=N1", 
	 "Tm": 473.15, 
	 "num_atms": 16, 
	 "gaussian": { 
		 "optdone": 1, 
		 "sigma_profile": "yes", 
		 "theory": "DFT", 
		 "functional": "B3LYP", 
		 "basiset": "6-31G**", 
		 "properties": { 
			 "R2extent": 5681.4203, 
			 "electric_dipole_moment_norm": 7.61586421951, 
			 "electric_quadrupole_moment_norm": 23.7363902312, 
			 "total_energy": -3171.27412676, 
			 "HOMO_LUMO_gap": 0.18084, 
			 "cosmo_polarized_energy": -20.51, 
			 "cosmo_cavitation_energy": 24.69, 
			 "cosmo_dispersion_energy": -19.09, 
			 "cosmo_repulsion_energy": 1.49, 
			 "cosmo_total_nonelectrostatic_energy": 7.09, 
			 "SMD_solvation_energy": 0.57 
		},
		"coords": [
			{
				"x": -2.5063522299,
				"y": -2.7103901458,
				"z": -0.3779924407,
				"element": "O" 
			},
			{
				"x": -1.7161685277,
				"y": -3.1785447735,
				"z": 0.6123433961,
				"element": "C" 
			},
			{
				"x": -1.7607831914,
				"y": -4.3164972382,
				"z": 0.9986737332,
				"element": "O" 
			},
			{
				"x": -0.782876929,
				"y": -2.1446781629,
				"z": 1.1764404187,
				"element": "C" 
			},
			{
				"x": -0.8097714696,
				"y": -0.8966012337,
				"z": 0.6741129471,
				"element": "N" 
			},
			{
				"x": 0.1349018068,
				"y": -0.2843462558,
				"z": 1.410408472,
				"element": "N" 
			},
			{
				"x": 0.5426951251,
				"y": 1.010900661,
				"z": 1.3361796325,
				"element": "C" 
			},
			{
				"x": 1.5315656725,
				"y": 1.3844375487,
				"z": 2.2087407756,
				"element": "C" 
			},
			{
				"x": 2.1885229487,
				"y": 3.1596842497,
				"z": 2.2080058824,
				"element": "Br" 
			},
			{
				"x": 2.0648951775,
				"y": 0.425485413,
				"z": 3.1207479071,
				"element": "C" 
			},
			{
				"x": 1.6591461945,
				"y": -0.8248659541,
				"z": 3.1799629482,
				"element": "N" 
			},
			{
				"x": 0.6893561963,
				"y": -1.1976455483,
				"z": 2.3267322454,
				"element": "C" 
			},
			{
				"x": 0.0972155795,
				"y": -2.3780061879,
				"z": 2.1681830344,
				"element": "N" 
			},
			{
				"x": -2.3064819096,
				"y": -1.7706241033,
				"z": -0.530503748,
				"element": "H" 
			},
			{
				"x": 0.0660337115,
				"y": 1.649541798,
				"z": 0.6042425391,
				"element": "H" 
			},
			{
				"x": 2.8490018448,
				"y": 0.729749933,
				"z": 3.8094222569,
				"element": "H" 
			}
		],
		 "valence_orbital": [ 
			{
				"type": "occ",
				"energy": -0.3152,
				"method": "rhf"
			},
			{
				"type": "occ",
				"energy": -0.31134,
				"method": "rhf"
			},
			{
				"type": "occ",
				"energy": -0.29705,
				"method": "rhf"
			},
			{
				"type": "occ",
				"energy": -0.28345,
				"method": "rhf"
			},
			{
				"type": "occ",
				"energy": -0.28233,
				"method": "rhf"
			},
			{
				"type": "unocc",
				"energy": -0.10149,
				"method": "rhf"
			},
			{
				"type": "unocc",
				"energy": -0.06694,
				"method": "rhf"
			},
			{
				"type": "unocc",
				"energy": -0.03701,
				"method": "rhf"
			},
			{
				"type": "unocc",
				"energy": -0.02747,
				"method": "rhf"
			},
			{
				"type": "unocc",
				"energy": 0.07656,
				"method": "rhf"
			}
		],
		"cosmo_sigma_profile": { 
			"-0.025": 0.0,
			"-0.024": 0.0,
			"-0.023": 0.0,
			"-0.022": 0.0,
			"-0.021": 0.0,
			"-0.02": 0.0,
			"-0.019": 0.0,
			"-0.018": 0.0,
			"-0.017": 0.0,
			"-0.016": 0.236391365412,
			"-0.015": 0.814953411155,
			"-0.014": 0.315914193659,
			"-0.013": 1.42550648447,
			"-0.012": 2.8646640956,
			"-0.011": 2.59831305562,
			"-0.01": 3.00169226242,
			"-0.009": 5.56950864882,
			"-0.008": 6.51952655195,
			"-0.007": 8.9482186821,
			"-0.006": 12.4562441364,
			"-0.005": 12.5785724898,
			"-0.004": 15.2689016412,
			"-0.003": 12.4560149671,
			"-0.002": 9.51605345885,
			"-0.001": 9.18804229079,
			"0.0": 9.4737926975,
			"0.001": 10.4192071284,
			"0.002": 13.6119157955,
			"0.003": 10.55679301,
			"0.004": 5.0552414839,
			"0.005": 4.8465751637,
			"0.006": 4.23612313537,
			"0.007": 4.82559493302,
			"0.008": 5.9805416073,
			"0.009": 7.19709711331,
			"0.01": 7.86991356613,
			"0.011": 7.44289123184,
			"0.012": 4.98389021583,
			"0.013": 2.32405322891,
			"0.014": 1.30907607042,
			"0.015": 0.163865204512,
			"0.016": 0.0,
			"0.017": 0.0,
			"0.018": 0.0,
			"0.019": 0.0,
			"0.02": 0.0,
			"0.021": 0.0,
			"0.022": 0.0,
			"0.023": 0.0,
			"0.024": 0.0,
			"0.025": 0.0
		}
	}
}
