{
	 "smiles": "O=C1CCS(=O)(=O)CC1", 
	 "Tm": 441.15, 
	 "num_atms": 17, 
	 "gaussian": { 
		 "optdone": 1, 
		 "sigma_profile": "yes", 
		 "theory": "DFT", 
		 "functional": "B3LYP", 
		 "basiset": "6-31G**", 
		 "properties": { 
			 "R2extent": 3100.3494, 
			 "electric_dipole_moment_norm": 2.23008809916, 
			 "electric_quadrupole_moment_norm": 26.7607614727, 
			 "total_energy": -819.144001993, 
			 "HOMO_LUMO_gap": 0.22724, 
			 "cosmo_polarized_energy": -18.82, 
			 "cosmo_cavitation_energy": 21.12, 
			 "cosmo_dispersion_energy": -16.37, 
			 "cosmo_repulsion_energy": 1.29, 
			 "cosmo_total_nonelectrostatic_energy": 6.04, 
			 "SMD_solvation_energy": 3.14 
		},
		"coords": [
			{
				"x": -0.7231494544,
				"y": -1.0413813156,
				"z": 2.3653568959,
				"element": "O" 
			},
			{
				"x": 0.3819565075,
				"y": -0.8792970543,
				"z": 1.8934600006,
				"element": "C" 
			},
			{
				"x": 1.1015597875,
				"y": -1.9888329372,
				"z": 1.1241958094,
				"element": "C" 
			},
			{
				"x": 2.6220541603,
				"y": -1.9617513441,
				"z": 1.308124221,
				"element": "C" 
			},
			{
				"x": 3.3669462481,
				"y": -0.4406085909,
				"z": 0.6162367657,
				"element": "S" 
			},
			{
				"x": 4.4788841844,
				"y": -0.0454648516,
				"z": 1.495235179,
				"element": "O" 
			},
			{
				"x": 3.5728900583,
				"y": -0.6421232887,
				"z": -0.8267291362,
				"element": "O" 
			},
			{
				"x": 2.0125874894,
				"y": 0.7720758046,
				"z": 0.8227403574,
				"element": "C" 
			},
			{
				"x": 1.1327535515,
				"y": 0.446329899,
				"z": 2.0336413535,
				"element": "C" 
			},
			{
				"x": 0.6869494534,
				"y": -2.9484356451,
				"z": 1.4441324041,
				"element": "H" 
			},
			{
				"x": 0.8563429409,
				"y": -1.8803656813,
				"z": 0.0583929743,
				"element": "H" 
			},
			{
				"x": 3.1153787358,
				"y": -2.7772353827,
				"z": 0.7736160763,
				"element": "H" 
			},
			{
				"x": 2.9133225492,
				"y": -2.0008367626,
				"z": 2.3604305567,
				"element": "H" 
			},
			{
				"x": 2.519049827,
				"y": 1.7344462582,
				"z": 0.9296070571,
				"element": "H" 
			},
			{
				"x": 1.4478647244,
				"y": 0.7710927876,
				"z": -0.1125658489,
				"element": "H" 
			},
			{
				"x": 0.39768675,
				"y": 1.236992571,
				"z": 2.2057421428,
				"element": "H" 
			},
			{
				"x": 1.7545224867,
				"y": 0.3929955337,
				"z": 2.9382831911,
				"element": "H" 
			}
		],
		 "valence_orbital": [ 
			{
				"type": "occ",
				"energy": -0.32975,
				"method": "rhf"
			},
			{
				"type": "occ",
				"energy": -0.31731,
				"method": "rhf"
			},
			{
				"type": "occ",
				"energy": -0.30345,
				"method": "rhf"
			},
			{
				"type": "occ",
				"energy": -0.29075,
				"method": "rhf"
			},
			{
				"type": "occ",
				"energy": -0.26961,
				"method": "rhf"
			},
			{
				"type": "unocc",
				"energy": -0.04237,
				"method": "rhf"
			},
			{
				"type": "unocc",
				"energy": 0.04366,
				"method": "rhf"
			},
			{
				"type": "unocc",
				"energy": 0.05624,
				"method": "rhf"
			},
			{
				"type": "unocc",
				"energy": 0.06799,
				"method": "rhf"
			},
			{
				"type": "unocc",
				"energy": 0.07166,
				"method": "rhf"
			}
		],
		"cosmo_sigma_profile": { 
			"-0.025": 0.0,
			"-0.024": 0.0,
			"-0.023": 0.0,
			"-0.022": 0.0,
			"-0.021": 0.0,
			"-0.02": 0.0,
			"-0.019": 0.0,
			"-0.018": 0.0,
			"-0.017": 0.0,
			"-0.016": 0.0,
			"-0.015": 0.0,
			"-0.014": 0.0,
			"-0.013": 0.0,
			"-0.012": 0.141763315697,
			"-0.011": 1.71711106012,
			"-0.01": 2.53167120586,
			"-0.009": 6.86453715129,
			"-0.008": 12.2300956061,
			"-0.007": 14.6881025565,
			"-0.006": 18.3211703079,
			"-0.005": 15.2963842138,
			"-0.004": 11.9454525828,
			"-0.003": 4.98147893941,
			"-0.002": 3.77486171299,
			"-0.001": 3.71703654337,
			"0.0": 3.57448744454,
			"0.001": 3.00898279453,
			"0.002": 2.97038130534,
			"0.003": 3.05745290616,
			"0.004": 3.99706641293,
			"0.005": 2.61995916483,
			"0.006": 2.36862735347,
			"0.007": 2.50983129591,
			"0.008": 4.3956349276,
			"0.009": 5.31272610985,
			"0.01": 7.57426296099,
			"0.011": 13.6639109008,
			"0.012": 13.1311265608,
			"0.013": 1.70360008939,
			"0.014": 0.0,
			"0.015": 0.0,
			"0.016": 0.0,
			"0.017": 0.0,
			"0.018": 0.0,
			"0.019": 0.0,
			"0.02": 0.0,
			"0.021": 0.0,
			"0.022": 0.0,
			"0.023": 0.0,
			"0.024": 0.0,
			"0.025": 0.0
		}
	}
}
