{
	 "smiles": "CC1=CC=C(O1)C1=CC=C(S1)C(O)=O", 
	 "Tm": 471.15, 
	 "num_atms": 22, 
	 "gaussian": { 
		 "optdone": 1, 
		 "sigma_profile": "yes", 
		 "theory": "DFT", 
		 "functional": "B3LYP", 
		 "basiset": "6-31G**", 
		 "properties": { 
			 "R2extent": 5500.7525, 
			 "electric_dipole_moment_norm": 6.32642110597, 
			 "electric_quadrupole_moment_norm": 36.6345504035, 
			 "total_energy": -1009.72887669, 
			 "HOMO_LUMO_gap": 0.1389, 
			 "cosmo_polarized_energy": -16.34, 
			 "cosmo_cavitation_energy": 29.0, 
			 "cosmo_dispersion_energy": -21.76, 
			 "cosmo_repulsion_energy": 1.67, 
			 "cosmo_total_nonelectrostatic_energy": 8.9, 
			 "SMD_solvation_energy": 6.41 
		},
		"coords": [
			{
				"x": 1.7717941803,
				"y": 2.7671119817,
				"z": 0.0527270287,
				"element": "C" 
			},
			{
				"x": 1.7259344991,
				"y": 1.3163229266,
				"z": -0.2710109148,
				"element": "C" 
			},
			{
				"x": 2.6516092519,
				"y": 0.4222944672,
				"z": -0.7332926463,
				"element": "C" 
			},
			{
				"x": 1.9908035639,
				"y": -0.8370484275,
				"z": -0.8431855031,
				"element": "C" 
			},
			{
				"x": 0.6948869295,
				"y": -0.6346819255,
				"z": -0.4392940195,
				"element": "C" 
			},
			{
				"x": 0.5282775432,
				"y": 0.6834255031,
				"z": -0.0878555764,
				"element": "O" 
			},
			{
				"x": -0.4605339274,
				"y": -1.4846487722,
				"z": -0.3180116426,
				"element": "C" 
			},
			{
				"x": -1.7252416154,
				"y": -1.1232644747,
				"z": 0.1162986237,
				"element": "C" 
			},
			{
				"x": -2.6334013567,
				"y": -2.2063216214,
				"z": 0.1132204144,
				"element": "C" 
			},
			{
				"x": -2.0753279372,
				"y": -3.3910965129,
				"z": -0.3208810617,
				"element": "C" 
			},
			{
				"x": -0.3918799246,
				"y": -3.1767614669,
				"z": -0.7312691068,
				"element": "S" 
			},
			{
				"x": -2.6437305613,
				"y": -4.7419304061,
				"z": -0.4736791372,
				"element": "C" 
			},
			{
				"x": -3.9694208688,
				"y": -4.8861933825,
				"z": -0.2023270136,
				"element": "O" 
			},
			{
				"x": -1.9880847488,
				"y": -5.6992495042,
				"z": -0.8221104108,
				"element": "O" 
			},
			{
				"x": 1.5205600818,
				"y": 2.950401362,
				"z": 1.1037795458,
				"element": "H" 
			},
			{
				"x": 1.0619614045,
				"y": 3.3358938043,
				"z": -0.5588694538,
				"element": "H" 
			},
			{
				"x": 2.7747280176,
				"y": 3.1572274646,
				"z": -0.1334623975,
				"element": "H" 
			},
			{
				"x": 3.6838257268,
				"y": 0.639858961,
				"z": -0.9671497411,
				"element": "H" 
			},
			{
				"x": 2.4177104152,
				"y": -1.7720321336,
				"z": -1.1773221913,
				"element": "H" 
			},
			{
				"x": -1.9731469024,
				"y": -0.115083688,
				"z": 0.4229812506,
				"element": "H" 
			},
			{
				"x": -3.6657562571,
				"y": -2.0984475422,
				"z": 0.4336332267,
				"element": "H" 
			},
			{
				"x": -4.3705675142,
				"y": -4.0354766128,
				"z": 0.0209807264,
				"element": "H" 
			}
		],
		 "valence_orbital": [ 
			{
				"type": "occ",
				"energy": -0.29423,
				"method": "rhf"
			},
			{
				"type": "occ",
				"energy": -0.27933,
				"method": "rhf"
			},
			{
				"type": "occ",
				"energy": -0.27351,
				"method": "rhf"
			},
			{
				"type": "occ",
				"energy": -0.26655,
				"method": "rhf"
			},
			{
				"type": "occ",
				"energy": -0.20872,
				"method": "rhf"
			},
			{
				"type": "unocc",
				"energy": -0.06982,
				"method": "rhf"
			},
			{
				"type": "unocc",
				"energy": -0.00478,
				"method": "rhf"
			},
			{
				"type": "unocc",
				"energy": 0.01978,
				"method": "rhf"
			},
			{
				"type": "unocc",
				"energy": 0.04223,
				"method": "rhf"
			},
			{
				"type": "unocc",
				"energy": 0.05066,
				"method": "rhf"
			}
		],
		"cosmo_sigma_profile": { 
			"-0.025": 0.0,
			"-0.024": 0.0,
			"-0.023": 0.0,
			"-0.022": 0.0,
			"-0.021": 0.0,
			"-0.02": 0.0209730339928,
			"-0.019": 0.675789917403,
			"-0.018": 1.18909031673,
			"-0.017": 1.24197741438,
			"-0.016": 0.75548242111,
			"-0.015": 1.1602733108,
			"-0.014": 0.497335385514,
			"-0.013": 1.09512994223,
			"-0.012": 2.07164604309,
			"-0.011": 1.04026420694,
			"-0.01": 1.00948297353,
			"-0.009": 1.41280172826,
			"-0.008": 3.33010063396,
			"-0.007": 6.30500089831,
			"-0.006": 9.5188254622,
			"-0.005": 14.2482288191,
			"-0.004": 12.490322533,
			"-0.003": 13.8603098874,
			"-0.002": 16.7107185235,
			"-0.001": 16.2904714284,
			"0.0": 13.249675531,
			"0.001": 21.0266785663,
			"0.002": 28.1090643814,
			"0.003": 20.6254337849,
			"0.004": 10.2219211484,
			"0.005": 6.91349270806,
			"0.006": 4.15396736887,
			"0.007": 2.62207162781,
			"0.008": 2.65547633275,
			"0.009": 2.87596518484,
			"0.01": 5.27219071651,
			"0.011": 4.75775481664,
			"0.012": 5.37652516901,
			"0.013": 1.89717436845,
			"0.014": 0.155621222117,
			"0.015": 0.0,
			"0.016": 0.0,
			"0.017": 0.0,
			"0.018": 0.0,
			"0.019": 0.0,
			"0.02": 0.0,
			"0.021": 0.0,
			"0.022": 0.0,
			"0.023": 0.0,
			"0.024": 0.0,
			"0.025": 0.0
		}
	}
}
