{
	 "smiles": "COC1=CC=C(CC(N)=S)C=C1OC", 
	 "Tm": 410.15, 
	 "num_atms": 27, 
	 "gaussian": { 
		 "optdone": 1, 
		 "sigma_profile": "yes", 
		 "theory": "DFT", 
		 "functional": "B3LYP", 
		 "basiset": "6-31G**", 
		 "properties": { 
			 "R2extent": 5475.6547, 
			 "electric_dipole_moment_norm": 5.55828360557, 
			 "electric_quadrupole_moment_norm": 32.950841083, 
			 "total_energy": -992.263852289, 
			 "HOMO_LUMO_gap": 0.17506, 
			 "cosmo_polarized_energy": -16.79, 
			 "cosmo_cavitation_energy": 32.31, 
			 "cosmo_dispersion_energy": -23.15, 
			 "cosmo_repulsion_energy": 1.82, 
			 "cosmo_total_nonelectrostatic_energy": 10.98, 
			 "SMD_solvation_energy": 5.87 
		},
		"coords": [
			{
				"x": 1.1458799608,
				"y": -1.6158696549,
				"z": 1.598868653,
				"element": "C" 
			},
			{
				"x": 1.0421099158,
				"y": -0.1966715524,
				"z": 1.4241238087,
				"element": "O" 
			},
			{
				"x": 0.2313762278,
				"y": 0.2056568019,
				"z": 0.3884103678,
				"element": "C" 
			},
			{
				"x": -0.944427805,
				"y": 0.896927858,
				"z": 0.6792825824,
				"element": "C" 
			},
			{
				"x": -1.7749980206,
				"y": 1.3509913388,
				"z": -0.3475281151,
				"element": "C" 
			},
			{
				"x": -1.451179446,
				"y": 1.1110795126,
				"z": -1.6901218213,
				"element": "C" 
			},
			{
				"x": -2.3595455804,
				"y": 1.5705302785,
				"z": -2.8118097035,
				"element": "C" 
			},
			{
				"x": -3.3791258273,
				"y": 0.5468500391,
				"z": -3.3249568705,
				"element": "C" 
			},
			{
				"x": -3.6699679573,
				"y": -0.451247082,
				"z": -2.4756572638,
				"element": "N" 
			},
			{
				"x": -4.1103712603,
				"y": 0.7111910004,
				"z": -4.8116033792,
				"element": "S" 
			},
			{
				"x": -0.2619383224,
				"y": 0.4242867074,
				"z": -1.9758545565,
				"element": "C" 
			},
			{
				"x": 0.5832065012,
				"y": -0.0171475224,
				"z": -0.9588564258,
				"element": "C" 
			},
			{
				"x": 1.7284517348,
				"y": -0.6995851133,
				"z": -1.2988458834,
				"element": "O" 
			},
			{
				"x": 2.9509104978,
				"y": -0.0013291485,
				"z": -1.0245607884,
				"element": "C" 
			},
			{
				"x": 1.8238061123,
				"y": -1.7700549938,
				"z": 2.4405113571,
				"element": "H" 
			},
			{
				"x": 0.1665197662,
				"y": -2.0479885577,
				"z": 1.8400457437,
				"element": "H" 
			},
			{
				"x": 1.5481518121,
				"y": -2.1004662382,
				"z": 0.7042979624,
				"element": "H" 
			},
			{
				"x": -1.1890954901,
				"y": 1.0761417111,
				"z": 1.7215438243,
				"element": "H" 
			},
			{
				"x": -2.6802709098,
				"y": 1.8999298321,
				"z": -0.1009516168,
				"element": "H" 
			},
			{
				"x": -1.7793571079,
				"y": 1.8981550225,
				"z": -3.67693574,
				"element": "H" 
			},
			{
				"x": -2.9406542565,
				"y": 2.4431382283,
				"z": -2.4895123537,
				"element": "H" 
			},
			{
				"x": -3.1785236089,
				"y": -0.5519823472,
				"z": -1.5979140055,
				"element": "H" 
			},
			{
				"x": -4.346160224,
				"y": -1.1472643559,
				"z": -2.7535508057,
				"element": "H" 
			},
			{
				"x": 0.0335435493,
				"y": 0.2281138765,
				"z": -3.0026601041,
				"element": "H" 
			},
			{
				"x": 3.0499044366,
				"y": 0.226339382,
				"z": 0.0411347166,
				"element": "H" 
			},
			{
				"x": 3.0021489813,
				"y": 0.9288206359,
				"z": -1.6037275682,
				"element": "H" 
			},
			{
				"x": 3.7579063207,
				"y": -0.6662456588,
				"z": -1.3380720149,
				"element": "H" 
			}
		],
		 "valence_orbital": [ 
			{
				"type": "occ",
				"energy": -0.27474,
				"method": "rhf"
			},
			{
				"type": "occ",
				"energy": -0.25554,
				"method": "rhf"
			},
			{
				"type": "occ",
				"energy": -0.24163,
				"method": "rhf"
			},
			{
				"type": "occ",
				"energy": -0.22485,
				"method": "rhf"
			},
			{
				"type": "occ",
				"energy": -0.20105,
				"method": "rhf"
			},
			{
				"type": "unocc",
				"energy": -0.02599,
				"method": "rhf"
			},
			{
				"type": "unocc",
				"energy": -0.01662,
				"method": "rhf"
			},
			{
				"type": "unocc",
				"energy": -0.01167,
				"method": "rhf"
			},
			{
				"type": "unocc",
				"energy": 0.0742,
				"method": "rhf"
			},
			{
				"type": "unocc",
				"energy": 0.08192,
				"method": "rhf"
			}
		],
		"cosmo_sigma_profile": { 
			"-0.025": 0.0,
			"-0.024": 0.0,
			"-0.023": 0.0,
			"-0.022": 0.0,
			"-0.021": 0.0,
			"-0.02": 0.0,
			"-0.019": 0.0,
			"-0.018": 0.0,
			"-0.017": 0.0,
			"-0.016": 0.0,
			"-0.015": 0.694810914147,
			"-0.014": 1.51438502575,
			"-0.013": 2.1059667298,
			"-0.012": 2.15624089537,
			"-0.011": 2.03477644592,
			"-0.01": 1.41984501813,
			"-0.009": 1.23116446321,
			"-0.008": 1.65517691476,
			"-0.007": 4.59896700835,
			"-0.006": 14.7711453038,
			"-0.005": 18.0457143554,
			"-0.004": 20.5724319125,
			"-0.003": 25.8384281321,
			"-0.002": 24.4899415841,
			"-0.001": 17.2678126052,
			"0.0": 16.215988676,
			"0.001": 12.8017284676,
			"0.002": 13.4957979631,
			"0.003": 12.7972243312,
			"0.004": 10.9948565211,
			"0.005": 7.86733980445,
			"0.006": 5.74216524212,
			"0.007": 4.5551001048,
			"0.008": 6.83099345663,
			"0.009": 8.31982599633,
			"0.01": 8.49130900749,
			"0.011": 6.29883265491,
			"0.012": 4.4088014841,
			"0.013": 1.24524793255,
			"0.014": 0.00112158899568,
			"0.015": 0.0,
			"0.016": 0.0,
			"0.017": 0.0,
			"0.018": 0.0,
			"0.019": 0.0,
			"0.02": 0.0,
			"0.021": 0.0,
			"0.022": 0.0,
			"0.023": 0.0,
			"0.024": 0.0,
			"0.025": 0.0
		}
	}
}
