{
	 "smiles": "CCC1(NC(=O)N(N)C1=O)C1=CC=CC=C1", 
	 "Tm": 290.15, 
	 "num_atms": 29, 
	 "gaussian": { 
		 "optdone": 1, 
		 "sigma_profile": "yes", 
		 "theory": "DFT", 
		 "functional": "B3LYP", 
		 "basiset": "6-31G**", 
		 "properties": { 
			 "R2extent": 4851.1858, 
			 "electric_dipole_moment_norm": 2.73040993442, 
			 "electric_quadrupole_moment_norm": 14.7824979009, 
			 "total_energy": -741.71716736, 
			 "HOMO_LUMO_gap": 0.22783, 
			 "cosmo_polarized_energy": -18.72, 
			 "cosmo_cavitation_energy": 32.32, 
			 "cosmo_dispersion_energy": -22.53, 
			 "cosmo_repulsion_energy": 1.77, 
			 "cosmo_total_nonelectrostatic_energy": 11.56, 
			 "SMD_solvation_energy": 7.6 
		},
		"coords": [
			{
				"x": 1.7938799479,
				"y": 0.1182293375,
				"z": -2.2624888875,
				"element": "C" 
			},
			{
				"x": 1.4005861859,
				"y": 1.5723320923,
				"z": -1.9895861276,
				"element": "C" 
			},
			{
				"x": 0.4066103406,
				"y": 1.7552715444,
				"z": -0.8095711377,
				"element": "C" 
			},
			{
				"x": -0.9001995633,
				"y": 1.1691918519,
				"z": -1.1139458534,
				"element": "N" 
			},
			{
				"x": -1.8900542083,
				"y": 2.0986762509,
				"z": -1.2746069295,
				"element": "C" 
			},
			{
				"x": -3.0407204019,
				"y": 1.9477224186,
				"z": -1.6366949022,
				"element": "O" 
			},
			{
				"x": -1.3104618594,
				"y": 3.347740925,
				"z": -0.9505418075,
				"element": "N" 
			},
			{
				"x": -2.0197926094,
				"y": 4.5513559888,
				"z": -1.0186318159,
				"element": "N" 
			},
			{
				"x": 0.0498492293,
				"y": 3.2655976771,
				"z": -0.7128634334,
				"element": "C" 
			},
			{
				"x": 0.8192241344,
				"y": 4.1719303974,
				"z": -0.4871615481,
				"element": "O" 
			},
			{
				"x": 0.9873687843,
				"y": 1.2578006173,
				"z": 0.5201441761,
				"element": "C" 
			},
			{
				"x": 2.1652270079,
				"y": 1.8324529207,
				"z": 1.0231134654,
				"element": "C" 
			},
			{
				"x": 2.7167237193,
				"y": 1.3802315119,
				"z": 2.2210187731,
				"element": "C" 
			},
			{
				"x": 2.1059722923,
				"y": 0.3463140845,
				"z": 2.9341801441,
				"element": "C" 
			},
			{
				"x": 0.9316390569,
				"y": -0.2237123931,
				"z": 2.4444891655,
				"element": "C" 
			},
			{
				"x": 0.3740642282,
				"y": 0.2316273443,
				"z": 1.2474569104,
				"element": "C" 
			},
			{
				"x": 2.2649784159,
				"y": -0.3400245617,
				"z": -1.3885217436,
				"element": "H" 
			},
			{
				"x": 2.5029082638,
				"y": 0.0695444041,
				"z": -3.0941882208,
				"element": "H" 
			},
			{
				"x": 0.9303295607,
				"y": -0.4961664879,
				"z": -2.5432702396,
				"element": "H" 
			},
			{
				"x": 2.2897628974,
				"y": 2.1694521476,
				"z": -1.7678706155,
				"element": "H" 
			},
			{
				"x": 0.9442781464,
				"y": 2.0119002388,
				"z": -2.8850127569,
				"element": "H" 
			},
			{
				"x": -1.0198270362,
				"y": 0.2474678783,
				"z": -1.5054879995,
				"element": "H" 
			},
			{
				"x": -2.6275379889,
				"y": 4.4874069353,
				"z": -1.8338471703,
				"element": "H" 
			},
			{
				"x": -2.6284026559,
				"y": 4.6054636869,
				"z": -0.2030723919,
				"element": "H" 
			},
			{
				"x": 2.6283898361,
				"y": 2.6575214866,
				"z": 0.4936345453,
				"element": "H" 
			},
			{
				"x": 3.6243863232,
				"y": 1.8414117388,
				"z": 2.5997060582,
				"element": "H" 
			},
			{
				"x": 2.5390487352,
				"y": -0.0063349328,
				"z": 3.8657386952,
				"element": "H" 
			},
			{
				"x": 0.4416461649,
				"y": -1.0226272294,
				"z": 2.9938375313,
				"element": "H" 
			},
			{
				"x": -0.5499769473,
				"y": -0.2059778743,
				"z": 0.8855441163,
				"element": "H" 
			}
		],
		 "valence_orbital": [ 
			{
				"type": "occ",
				"energy": -0.27882,
				"method": "rhf"
			},
			{
				"type": "occ",
				"energy": -0.26656,
				"method": "rhf"
			},
			{
				"type": "occ",
				"energy": -0.26431,
				"method": "rhf"
			},
			{
				"type": "occ",
				"energy": -0.25398,
				"method": "rhf"
			},
			{
				"type": "occ",
				"energy": -0.24684,
				"method": "rhf"
			},
			{
				"type": "unocc",
				"energy": -0.01901,
				"method": "rhf"
			},
			{
				"type": "unocc",
				"energy": -0.00635,
				"method": "rhf"
			},
			{
				"type": "unocc",
				"energy": 0.0034,
				"method": "rhf"
			},
			{
				"type": "unocc",
				"energy": 0.05058,
				"method": "rhf"
			},
			{
				"type": "unocc",
				"energy": 0.0669,
				"method": "rhf"
			}
		],
		"cosmo_sigma_profile": { 
			"-0.025": 0.0,
			"-0.024": 0.0,
			"-0.023": 0.0,
			"-0.022": 0.0,
			"-0.021": 0.0,
			"-0.02": 0.0,
			"-0.019": 0.0,
			"-0.018": 0.0,
			"-0.017": 0.0,
			"-0.016": 0.0,
			"-0.015": 0.294057658969,
			"-0.014": 1.35514194558,
			"-0.013": 2.3204994027,
			"-0.012": 4.4984711132,
			"-0.011": 4.30832586964,
			"-0.01": 2.80664314249,
			"-0.009": 4.72960953929,
			"-0.008": 3.04914207445,
			"-0.007": 4.25053827936,
			"-0.006": 9.6752515713,
			"-0.005": 15.382052801,
			"-0.004": 21.8768008941,
			"-0.003": 20.6849891306,
			"-0.002": 20.2433268177,
			"-0.001": 18.3272919774,
			"0.0": 19.6441738168,
			"0.001": 14.5030944186,
			"0.002": 10.5363451576,
			"0.003": 9.74622843657,
			"0.004": 11.6419359659,
			"0.005": 11.6879111211,
			"0.006": 6.12465989831,
			"0.007": 3.51000823745,
			"0.008": 3.55925477329,
			"0.009": 2.66993429597,
			"0.01": 3.17129040313,
			"0.011": 6.60450262323,
			"0.012": 9.08524834091,
			"0.013": 5.30673233197,
			"0.014": 1.2606065828,
			"0.015": 1.60038299329,
			"0.016": 0.906737431548,
			"0.017": 0.120559688754,
			"0.018": 0.0,
			"0.019": 0.0,
			"0.02": 0.0,
			"0.021": 0.0,
			"0.022": 0.0,
			"0.023": 0.0,
			"0.024": 0.0,
			"0.025": 0.0
		}
	}
}
