{
	 "smiles": "COC1=C(F)C=C(C=C1)C1=CSC(N)=N1", 
	 "Tm": 459.15, 
	 "num_atms": 24, 
	 "gaussian": { 
		 "optdone": 1, 
		 "sigma_profile": "yes", 
		 "theory": "DFT", 
		 "functional": "B3LYP", 
		 "basiset": "6-31G**", 
		 "properties": { 
			 "R2extent": 4998.7495, 
			 "electric_dipole_moment_norm": 1.64553225736, 
			 "electric_quadrupole_moment_norm": 22.3931876882, 
			 "total_energy": -1069.2186619, 
			 "HOMO_LUMO_gap": 0.16668, 
			 "cosmo_polarized_energy": -12.28, 
			 "cosmo_cavitation_energy": 30.51, 
			 "cosmo_dispersion_energy": -23.2, 
			 "cosmo_repulsion_energy": 1.74, 
			 "cosmo_total_nonelectrostatic_energy": 9.05, 
			 "SMD_solvation_energy": 5.0 
		},
		"coords": [
			{
				"x": 3.4057984732,
				"y": -2.3406456473,
				"z": 3.0516660347,
				"element": "C" 
			},
			{
				"x": 1.981727384,
				"y": -2.2505336152,
				"z": 3.1348725316,
				"element": "O" 
			},
			{
				"x": 1.2916413746,
				"y": -1.5291878201,
				"z": 2.2080839974,
				"element": "C" 
			},
			{
				"x": 1.7649216041,
				"y": -0.4015479664,
				"z": 1.5192898868,
				"element": "C" 
			},
			{
				"x": 3.0244111988,
				"y": 0.0540996286,
				"z": 1.7471256219,
				"element": "F" 
			},
			{
				"x": 0.9815607993,
				"y": 0.2867619376,
				"z": 0.6078284158,
				"element": "C" 
			},
			{
				"x": -0.3383520452,
				"y": -0.1152341664,
				"z": 0.3534179306,
				"element": "C" 
			},
			{
				"x": -0.8309982617,
				"y": -1.2301394995,
				"z": 1.0522201399,
				"element": "C" 
			},
			{
				"x": -0.0288338462,
				"y": -1.9210536604,
				"z": 1.9526400271,
				"element": "C" 
			},
			{
				"x": -1.1979414688,
				"y": 0.5961403865,
				"z": -0.6092908629,
				"element": "C" 
			},
			{
				"x": -0.8369428554,
				"y": 1.658893298,
				"z": -1.3930464298,
				"element": "C" 
			},
			{
				"x": -2.1763593287,
				"y": 2.1734631067,
				"z": -2.3859299054,
				"element": "S" 
			},
			{
				"x": -3.1454576329,
				"y": 0.89602985,
				"z": -1.6364012202,
				"element": "C" 
			},
			{
				"x": -4.4426173697,
				"y": 0.6630886082,
				"z": -2.035676804,
				"element": "N" 
			},
			{
				"x": -2.5150084206,
				"y": 0.1781782616,
				"z": -0.7573906043,
				"element": "N" 
			},
			{
				"x": 3.7310014757,
				"y": -2.5702923042,
				"z": 2.0307441829,
				"element": "H" 
			},
			{
				"x": 3.8925635107,
				"y": -1.4210224608,
				"z": 3.3848161424,
				"element": "H" 
			},
			{
				"x": 3.6837882053,
				"y": -3.1638758317,
				"z": 3.7126622187,
				"element": "H" 
			},
			{
				"x": 1.4244626137,
				"y": 1.1485624705,
				"z": 0.1204921778,
				"element": "H" 
			},
			{
				"x": -1.8492588759,
				"y": -1.5510618088,
				"z": 0.8685871636,
				"element": "H" 
			},
			{
				"x": -0.4046086226,
				"y": -2.7887533437,
				"z": 2.4851948213,
				"element": "H" 
			},
			{
				"x": 0.1111661232,
				"y": 2.1704586096,
				"z": -1.4582889096,
				"element": "H" 
			},
			{
				"x": -4.979929587,
				"y": 1.4660645638,
				"z": -2.3300563211,
				"element": "H" 
			},
			{
				"x": -4.9409344477,
				"y": 0.0459074036,
				"z": -1.4075602352,
				"element": "H" 
			}
		],
		 "valence_orbital": [ 
			{
				"type": "occ",
				"energy": -0.27632,
				"method": "rhf"
			},
			{
				"type": "occ",
				"energy": -0.27369,
				"method": "rhf"
			},
			{
				"type": "occ",
				"energy": -0.24634,
				"method": "rhf"
			},
			{
				"type": "occ",
				"energy": -0.23143,
				"method": "rhf"
			},
			{
				"type": "occ",
				"energy": -0.19469,
				"method": "rhf"
			},
			{
				"type": "unocc",
				"energy": -0.02801,
				"method": "rhf"
			},
			{
				"type": "unocc",
				"energy": 0.00583,
				"method": "rhf"
			},
			{
				"type": "unocc",
				"energy": 0.00896,
				"method": "rhf"
			},
			{
				"type": "unocc",
				"energy": 0.01782,
				"method": "rhf"
			},
			{
				"type": "unocc",
				"energy": 0.06859,
				"method": "rhf"
			}
		],
		"cosmo_sigma_profile": { 
			"-0.025": 0.0,
			"-0.024": 0.0,
			"-0.023": 0.0,
			"-0.022": 0.0,
			"-0.021": 0.0,
			"-0.02": 0.0,
			"-0.019": 0.0,
			"-0.018": 0.0,
			"-0.017": 0.0,
			"-0.016": 0.0,
			"-0.015": 0.21706017503,
			"-0.014": 2.12480678643,
			"-0.013": 2.37647714338,
			"-0.012": 2.78426704143,
			"-0.011": 3.16129517164,
			"-0.01": 2.96433394552,
			"-0.009": 3.57271684155,
			"-0.008": 4.45736663899,
			"-0.007": 4.22851334089,
			"-0.006": 8.11011885711,
			"-0.005": 11.9461018918,
			"-0.004": 14.1851261872,
			"-0.003": 17.8400154512,
			"-0.002": 11.642670271,
			"-0.001": 10.6838080688,
			"0.0": 15.1779968207,
			"0.001": 17.6884261746,
			"0.002": 21.2418990839,
			"0.003": 26.0259172077,
			"0.004": 31.7746882099,
			"0.005": 12.4583467588,
			"0.006": 4.83179787068,
			"0.007": 3.4987204468,
			"0.008": 4.36324321971,
			"0.009": 2.94824200417,
			"0.01": 3.11610101479,
			"0.011": 2.76783796919,
			"0.012": 0.304857781028,
			"0.013": 0.0,
			"0.014": 0.0,
			"0.015": 0.0,
			"0.016": 0.0,
			"0.017": 0.0,
			"0.018": 0.0,
			"0.019": 0.0,
			"0.02": 0.0,
			"0.021": 0.0,
			"0.022": 0.0,
			"0.023": 0.0,
			"0.024": 0.0,
			"0.025": 0.0
		}
	}
}
