{
	 "smiles": "NC1=C(C#N)C(C2=C(O1)N(N=C2C(F)(F)F)C1=CC=CC=C1)C1=CC=CC=C1Cl", 
	 "Tm": 439.15, 
	 "num_atms": 41, 
	 "gaussian": { 
		 "optdone": 1, 
		 "sigma_profile": "yes", 
		 "theory": "DFT", 
		 "functional": "B3LYP", 
		 "basiset": "6-31G**", 
		 "properties": { 
			 "R2extent": 11737.14, 
			 "electric_dipole_moment_norm": 6.55710543685, 
			 "electric_quadrupole_moment_norm": 31.788172813, 
			 "total_energy": -1823.25114843, 
			 "HOMO_LUMO_gap": 0.18463, 
			 "cosmo_polarized_energy": -20.34, 
			 "cosmo_cavitation_energy": 50.34, 
			 "cosmo_dispersion_energy": -32.54, 
			 "cosmo_repulsion_energy": 2.39, 
			 "cosmo_total_nonelectrostatic_energy": 20.19, 
			 "SMD_solvation_energy": 9.75 
		},
		"coords": [
			{
				"x": -1.6199216728,
				"y": 2.5292436827,
				"z": 2.5598225147,
				"element": "N" 
			},
			{
				"x": -1.0699545571,
				"y": 1.7865467909,
				"z": 1.5534668681,
				"element": "C" 
			},
			{
				"x": -0.8616261281,
				"y": 2.1900416053,
				"z": 0.2641274857,
				"element": "C" 
			},
			{
				"x": -1.1470367637,
				"y": 3.5521879834,
				"z": -0.0181707887,
				"element": "C" 
			},
			{
				"x": -1.3887922186,
				"y": 4.6796906961,
				"z": -0.1968588893,
				"element": "N" 
			},
			{
				"x": -0.362278402,
				"y": 1.2809570139,
				"z": -0.8681171836,
				"element": "C" 
			},
			{
				"x": -0.013224079,
				"y": -0.0403997295,
				"z": -0.2407669794,
				"element": "C" 
			},
			{
				"x": -0.24428288,
				"y": -0.3091875557,
				"z": 1.0838582174,
				"element": "C" 
			},
			{
				"x": -0.7834008366,
				"y": 0.5215293193,
				"z": 2.0146624478,
				"element": "O" 
			},
			{
				"x": 0.1943494012,
				"y": -1.5656249884,
				"z": 1.3805195229,
				"element": "N" 
			},
			{
				"x": 0.7253849849,
				"y": -2.1418789735,
				"z": 0.2674511416,
				"element": "N" 
			},
			{
				"x": 0.6032903219,
				"y": -1.2331261015,
				"z": -0.6928124081,
				"element": "C" 
			},
			{
				"x": 1.0355827647,
				"y": -1.5561806665,
				"z": -2.0905170366,
				"element": "C" 
			},
			{
				"x": 0.0018211966,
				"y": -1.9966203775,
				"z": -2.8399065365,
				"element": "F" 
			},
			{
				"x": 1.518873224,
				"y": -0.4464915289,
				"z": -2.6965505279,
				"element": "F" 
			},
			{
				"x": 1.9904101274,
				"y": -2.4986812932,
				"z": -2.1183852305,
				"element": "F" 
			},
			{
				"x": 0.2064244004,
				"y": -2.2642343033,
				"z": 2.6235274222,
				"element": "C" 
			},
			{
				"x": -0.7806988035,
				"y": -2.0262168211,
				"z": 3.5851123069,
				"element": "C" 
			},
			{
				"x": -0.7384569008,
				"y": -2.7265921105,
				"z": 4.7909493924,
				"element": "C" 
			},
			{
				"x": 0.2644597906,
				"y": -3.6663928162,
				"z": 5.0310652175,
				"element": "C" 
			},
			{
				"x": 1.234698385,
				"y": -3.9059368468,
				"z": 4.0550750031,
				"element": "C" 
			},
			{
				"x": 1.2155157032,
				"y": -3.2055096804,
				"z": 2.8512555531,
				"element": "C" 
			},
			{
				"x": -1.3885521836,
				"y": 1.1606224009,
				"z": -2.000443826,
				"element": "C" 
			},
			{
				"x": -2.5801134214,
				"y": 0.4526484106,
				"z": -1.7875692027,
				"element": "C" 
			},
			{
				"x": -3.547944786,
				"y": 0.3283804306,
				"z": -2.7790515998,
				"element": "C" 
			},
			{
				"x": -3.3399652372,
				"y": 0.921986679,
				"z": -4.025545827,
				"element": "C" 
			},
			{
				"x": -2.1684236249,
				"y": 1.633923801,
				"z": -4.2670508615,
				"element": "C" 
			},
			{
				"x": -1.2073581029,
				"y": 1.749228488,
				"z": -3.2596002818,
				"element": "C" 
			},
			{
				"x": 0.2476946122,
				"y": 2.6703572627,
				"z": -3.6385590895,
				"element": "Cl" 
			},
			{
				"x": -1.321559387,
				"y": 2.2947114335,
				"z": 3.4963281626,
				"element": "H" 
			},
			{
				"x": -1.7317911219,
				"y": 3.5160353136,
				"z": 2.3709871723,
				"element": "H" 
			},
			{
				"x": 0.5427768835,
				"y": 1.7252786876,
				"z": -1.2910328941,
				"element": "H" 
			},
			{
				"x": -1.5738633189,
				"y": -1.3142268674,
				"z": 3.3931326992,
				"element": "H" 
			},
			{
				"x": -1.5044286069,
				"y": -2.5428176669,
				"z": 5.5383360791,
				"element": "H" 
			},
			{
				"x": 0.287639036,
				"y": -4.2116991246,
				"z": 5.9695199727,
				"element": "H" 
			},
			{
				"x": 2.01675932,
				"y": -4.6381471819,
				"z": 4.2315222947,
				"element": "H" 
			},
			{
				"x": 1.9592936817,
				"y": -3.3797316778,
				"z": 2.0833249189,
				"element": "H" 
			},
			{
				"x": -2.7405750007,
				"y": -0.0107961198,
				"z": -0.8180420522,
				"element": "H" 
			},
			{
				"x": -4.4583539666,
				"y": -0.2289775123,
				"z": -2.5813896406,
				"element": "H" 
			},
			{
				"x": -4.0853448556,
				"y": 0.8332324178,
				"z": -4.8100084661,
				"element": "H" 
			},
			{
				"x": -1.9896269774,
				"y": 2.1027675269,
				"z": -5.2281650709,
				"element": "H" 
			}
		],
		 "valence_orbital": [ 
			{
				"type": "occ",
				"energy": -0.26712,
				"method": "rhf"
			},
			{
				"type": "occ",
				"energy": -0.25552,
				"method": "rhf"
			},
			{
				"type": "occ",
				"energy": -0.24718,
				"method": "rhf"
			},
			{
				"type": "occ",
				"energy": -0.24416,
				"method": "rhf"
			},
			{
				"type": "occ",
				"energy": -0.23023,
				"method": "rhf"
			},
			{
				"type": "unocc",
				"energy": -0.0456,
				"method": "rhf"
			},
			{
				"type": "unocc",
				"energy": -0.02586,
				"method": "rhf"
			},
			{
				"type": "unocc",
				"energy": -0.02109,
				"method": "rhf"
			},
			{
				"type": "unocc",
				"energy": -0.0155,
				"method": "rhf"
			},
			{
				"type": "unocc",
				"energy": -0.00727,
				"method": "rhf"
			}
		],
		"cosmo_sigma_profile": { 
			"-0.025": 0.0,
			"-0.024": 0.0,
			"-0.023": 0.0,
			"-0.022": 0.0,
			"-0.021": 0.0,
			"-0.02": 0.0,
			"-0.019": 0.0,
			"-0.018": 0.0,
			"-0.017": 0.0,
			"-0.016": 0.214916214925,
			"-0.015": 1.45403300624,
			"-0.014": 1.67406204381,
			"-0.013": 2.88284690099,
			"-0.012": 2.17410516832,
			"-0.011": 1.67969272993,
			"-0.01": 1.7921839289,
			"-0.009": 2.46310082217,
			"-0.008": 2.0830282024,
			"-0.007": 9.18217168206,
			"-0.006": 21.3771414165,
			"-0.005": 24.5446489221,
			"-0.004": 25.9984802841,
			"-0.003": 23.5748912012,
			"-0.002": 23.3188083118,
			"-0.001": 24.7939433635,
			"0.0": 28.5785227993,
			"0.001": 33.7896181252,
			"0.002": 58.0940201259,
			"0.003": 48.9478802997,
			"0.004": 28.8760475166,
			"0.005": 9.76982720182,
			"0.006": 4.40186536879,
			"0.007": 3.93524632173,
			"0.008": 5.1248483045,
			"0.009": 3.78624125437,
			"0.01": 4.21040013097,
			"0.011": 3.53545860066,
			"0.012": 3.04380636083,
			"0.013": 2.58123312433,
			"0.014": 0.828747502285,
			"0.015": 0.0,
			"0.016": 0.0,
			"0.017": 0.0,
			"0.018": 0.0,
			"0.019": 0.0,
			"0.02": 0.0,
			"0.021": 0.0,
			"0.022": 0.0,
			"0.023": 0.0,
			"0.024": 0.0,
			"0.025": 0.0
		}
	}
}
