{
	 "smiles": "CC(C)C1CCC(C)CC1OC(=O)CO", 
	 "Tm": 359.15, 
	 "num_atms": 37, 
	 "gaussian": { 
		 "optdone": 1, 
		 "sigma_profile": "yes", 
		 "theory": "DFT", 
		 "functional": "B3LYP", 
		 "basiset": "6-31G**", 
		 "properties": { 
			 "R2extent": 4151.5464, 
			 "electric_dipole_moment_norm": 2.55498701758, 
			 "electric_quadrupole_moment_norm": 6.27020355331, 
			 "total_energy": -696.227275914, 
			 "HOMO_LUMO_gap": 0.27033, 
			 "cosmo_polarized_energy": -9.02, 
			 "cosmo_cavitation_energy": 36.08, 
			 "cosmo_dispersion_energy": -24.83, 
			 "cosmo_repulsion_energy": 1.96, 
			 "cosmo_total_nonelectrostatic_energy": 13.21, 
			 "SMD_solvation_energy": 6.65 
		},
		"coords": [
			{
				"x": 2.5972773038,
				"y": 1.1149405575,
				"z": 1.3862321197,
				"element": "C" 
			},
			{
				"x": 1.8004165553,
				"y": 0.2819823319,
				"z": 0.3621524924,
				"element": "C" 
			},
			{
				"x": 2.7024995121,
				"y": 0.0587770656,
				"z": -0.8673528913,
				"element": "C" 
			},
			{
				"x": 0.4303067663,
				"y": 0.9373419172,
				"z": 0.0125518387,
				"element": "C" 
			},
			{
				"x": -0.277084416,
				"y": 1.5171380784,
				"z": 1.2762691814,
				"element": "C" 
			},
			{
				"x": -1.7972523607,
				"y": 1.7611606698,
				"z": 1.1131482417,
				"element": "C" 
			},
			{
				"x": -2.1762961414,
				"y": 2.0346108617,
				"z": -0.3479010527,
				"element": "C" 
			},
			{
				"x": -3.6485119484,
				"y": 2.4233250087,
				"z": -0.515855899,
				"element": "C" 
			},
			{
				"x": -1.8153411086,
				"y": 0.7934771188,
				"z": -1.1960531043,
				"element": "C" 
			},
			{
				"x": -0.6053542317,
				"y": 0.011393552,
				"z": -0.647232325,
				"element": "C" 
			},
			{
				"x": -0.0303053184,
				"y": -0.7368604992,
				"z": -1.7582511318,
				"element": "O" 
			},
			{
				"x": -0.4666042808,
				"y": -1.998980861,
				"z": -1.9564154916,
				"element": "C" 
			},
			{
				"x": -1.2991770064,
				"y": -2.5663194876,
				"z": -1.284467451,
				"element": "O" 
			},
			{
				"x": 0.1917286377,
				"y": -2.6187932685,
				"z": -3.1847290382,
				"element": "C" 
			},
			{
				"x": 1.3156603144,
				"y": -1.9290525288,
				"z": -3.6801990261,
				"element": "O" 
			},
			{
				"x": 3.5657997131,
				"y": 0.642026998,
				"z": 1.5779833564,
				"element": "H" 
			},
			{
				"x": 2.7976533159,
				"y": 2.1225752751,
				"z": 1.0008123482,
				"element": "H" 
			},
			{
				"x": 2.0885116579,
				"y": 1.2186426748,
				"z": 2.3474137463,
				"element": "H" 
			},
			{
				"x": 1.5894316491,
				"y": -0.6963886327,
				"z": 0.8212585234,
				"element": "H" 
			},
			{
				"x": 2.2811827068,
				"y": -0.6342355387,
				"z": -1.593749258,
				"element": "H" 
			},
			{
				"x": 2.8942342422,
				"y": 1.0122216819,
				"z": -1.3765497658,
				"element": "H" 
			},
			{
				"x": 3.6736437712,
				"y": -0.338457919,
				"z": -0.5521580141,
				"element": "H" 
			},
			{
				"x": 0.6336808061,
				"y": 1.7676678324,
				"z": -0.6804974824,
				"element": "H" 
			},
			{
				"x": 0.2159080101,
				"y": 2.4554925085,
				"z": 1.5470929073,
				"element": "H" 
			},
			{
				"x": -0.1174163928,
				"y": 0.831786405,
				"z": 2.1173641074,
				"element": "H" 
			},
			{
				"x": -2.3625864624,
				"y": 0.8855915978,
				"z": 1.4605871454,
				"element": "H" 
			},
			{
				"x": -2.1084532867,
				"y": 2.5945110664,
				"z": 1.7536819223,
				"element": "H" 
			},
			{
				"x": -1.5651125182,
				"y": 2.8793426462,
				"z": -0.6966606301,
				"element": "H" 
			},
			{
				"x": -4.3072654969,
				"y": 1.6321489548,
				"z": -0.1382896329,
				"element": "H" 
			},
			{
				"x": -3.8811277968,
				"y": 3.3426728473,
				"z": 0.032416518,
				"element": "H" 
			},
			{
				"x": -3.8997935814,
				"y": 2.5894315314,
				"z": -1.5693235034,
				"element": "H" 
			},
			{
				"x": -2.6710921992,
				"y": 0.1099650867,
				"z": -1.2502338871,
				"element": "H" 
			},
			{
				"x": -1.5853673822,
				"y": 1.0972482137,
				"z": -2.2241689151,
				"element": "H" 
			},
			{
				"x": -0.9348275902,
				"y": -0.7334907837,
				"z": 0.0829069351,
				"element": "H" 
			},
			{
				"x": -0.6040900134,
				"y": -2.7254650046,
				"z": -3.9413479187,
				"element": "H" 
			},
			{
				"x": 0.5056347991,
				"y": -3.6307895491,
				"z": -2.9133713308,
				"element": "H" 
			},
			{
				"x": 1.1199897715,
				"y": -0.9840384088,
				"z": -3.6232636342,
				"element": "H" 
			}
		],
		 "valence_orbital": [ 
			{
				"type": "occ",
				"energy": -0.30923,
				"method": "rhf"
			},
			{
				"type": "occ",
				"energy": -0.30146,
				"method": "rhf"
			},
			{
				"type": "occ",
				"energy": -0.29149,
				"method": "rhf"
			},
			{
				"type": "occ",
				"energy": -0.28598,
				"method": "rhf"
			},
			{
				"type": "occ",
				"energy": -0.26231,
				"method": "rhf"
			},
			{
				"type": "unocc",
				"energy": 0.00802,
				"method": "rhf"
			},
			{
				"type": "unocc",
				"energy": 0.07092,
				"method": "rhf"
			},
			{
				"type": "unocc",
				"energy": 0.07912,
				"method": "rhf"
			},
			{
				"type": "unocc",
				"energy": 0.09035,
				"method": "rhf"
			},
			{
				"type": "unocc",
				"energy": 0.09546,
				"method": "rhf"
			}
		],
		"cosmo_sigma_profile": { 
			"-0.025": 0.0,
			"-0.024": 0.0,
			"-0.023": 0.0,
			"-0.022": 0.0,
			"-0.021": 0.0,
			"-0.02": 0.0,
			"-0.019": 0.0,
			"-0.018": 0.0,
			"-0.017": 0.0,
			"-0.016": 0.0,
			"-0.015": 0.0,
			"-0.014": 0.228722629323,
			"-0.013": 0.310080564042,
			"-0.012": 0.871005244897,
			"-0.011": 0.444428204304,
			"-0.01": 1.0365774321,
			"-0.009": 0.722203890939,
			"-0.008": 0.89652159385,
			"-0.007": 4.10774849857,
			"-0.006": 6.40231457847,
			"-0.005": 5.25672983714,
			"-0.004": 7.47424627995,
			"-0.003": 21.8191133698,
			"-0.002": 52.2563691525,
			"-0.001": 47.9769314257,
			"0.0": 37.1661376322,
			"0.001": 31.6532992339,
			"0.002": 18.996076842,
			"0.003": 6.21637224377,
			"0.004": 3.74138030872,
			"0.005": 3.50989065417,
			"0.006": 2.8572927791,
			"0.007": 1.87105358419,
			"0.008": 2.93289921539,
			"0.009": 2.34091602895,
			"0.01": 2.67070547024,
			"0.011": 4.39479683781,
			"0.012": 6.12426886676,
			"0.013": 2.79033447284,
			"0.014": 0.565604512352,
			"0.015": 0.0,
			"0.016": 0.0,
			"0.017": 0.0,
			"0.018": 0.0,
			"0.019": 0.0,
			"0.02": 0.0,
			"0.021": 0.0,
			"0.022": 0.0,
			"0.023": 0.0,
			"0.024": 0.0,
			"0.025": 0.0
		}
	}
}
