{
	 "smiles": "FC(F)(F)C(Cl)(Cl)Cl", 
	 "Tm": 287.35, 
	 "num_atms": 8, 
	 "gaussian": { 
		 "optdone": 1, 
		 "sigma_profile": "yes", 
		 "theory": "DFT", 
		 "functional": "B3LYP", 
		 "basiset": "6-31G**", 
		 "properties": { 
			 "R2extent": 1742.2516, 
			 "electric_dipole_moment_norm": 0.184794291037, 
			 "electric_quadrupole_moment_norm": 0.459603165785, 
			 "total_energy": -1756.28620501, 
			 "HOMO_LUMO_gap": 0.26835, 
			 "cosmo_polarized_energy": -1.05, 
			 "cosmo_cavitation_energy": 18.76, 
			 "cosmo_dispersion_energy": -13.79, 
			 "cosmo_repulsion_energy": 1.09, 
			 "cosmo_total_nonelectrostatic_energy": 6.05, 
			 "SMD_solvation_energy": 3.5 
		},
		"coords": [
			{
				"x": -0.736141954,
				"y": 0.3281656699,
				"z": 2.1085239998,
				"element": "F" 
			},
			{
				"x": 0.1509475209,
				"y": 0.154308457,
				"z": 1.1241592964,
				"element": "C" 
			},
			{
				"x": -0.2050236189,
				"y": -0.915428827,
				"z": 0.4064872787,
				"element": "F" 
			},
			{
				"x": 1.3541236408,
				"y": -0.0678024524,
				"z": 1.6618708143,
				"element": "F" 
			},
			{
				"x": 0.19625719,
				"y": 1.4239828349,
				"z": 0.2105901068,
				"element": "C" 
			},
			{
				"x": 0.67518128,
				"y": 2.8302946743,
				"z": 1.2055299876,
				"element": "Cl" 
			},
			{
				"x": 1.3918704802,
				"y": 1.1523126732,
				"z": -1.0908460617,
				"element": "Cl" 
			},
			{
				"x": -1.428414539,
				"y": 1.68656697,
				"z": -0.4883154218,
				"element": "Cl" 
			}
		],
		 "valence_orbital": [ 
			{
				"type": "occ",
				"energy": -0.37101,
				"method": "rhf"
			},
			{
				"type": "occ",
				"energy": -0.34984,
				"method": "rhf"
			},
			{
				"type": "occ",
				"energy": -0.34051,
				"method": "rhf"
			},
			{
				"type": "occ",
				"energy": -0.34051,
				"method": "rhf"
			},
			{
				"type": "occ",
				"energy": -0.32541,
				"method": "rhf"
			},
			{
				"type": "unocc",
				"energy": -0.05706,
				"method": "rhf"
			},
			{
				"type": "unocc",
				"energy": -0.02212,
				"method": "rhf"
			},
			{
				"type": "unocc",
				"energy": -0.02212,
				"method": "rhf"
			},
			{
				"type": "unocc",
				"energy": 0.13658,
				"method": "rhf"
			},
			{
				"type": "unocc",
				"energy": 0.16417,
				"method": "rhf"
			}
		],
		"cosmo_sigma_profile": { 
			"-0.025": 0.0,
			"-0.024": 0.0,
			"-0.023": 0.0,
			"-0.022": 0.0,
			"-0.021": 0.0,
			"-0.02": 0.0,
			"-0.019": 0.0,
			"-0.018": 0.0,
			"-0.017": 0.0,
			"-0.016": 0.0,
			"-0.015": 0.0,
			"-0.014": 0.0,
			"-0.013": 0.0,
			"-0.012": 0.0,
			"-0.011": 0.0,
			"-0.01": 0.0,
			"-0.009": 0.0,
			"-0.008": 0.0,
			"-0.007": 0.0,
			"-0.006": 0.9903279144,
			"-0.005": 3.98122612311,
			"-0.004": 5.92070856922,
			"-0.003": 7.35728182976,
			"-0.002": 9.25077625905,
			"-0.001": 17.5096476252,
			"0.0": 28.3592728657,
			"0.001": 61.1356606884,
			"0.002": 22.7527105481,
			"0.003": 0.0,
			"0.004": 0.0,
			"0.005": 0.0,
			"0.006": 0.0,
			"0.007": 0.0,
			"0.008": 0.0,
			"0.009": 0.0,
			"0.01": 0.0,
			"0.011": 0.0,
			"0.012": 0.0,
			"0.013": 0.0,
			"0.014": 0.0,
			"0.015": 0.0,
			"0.016": 0.0,
			"0.017": 0.0,
			"0.018": 0.0,
			"0.019": 0.0,
			"0.02": 0.0,
			"0.021": 0.0,
			"0.022": 0.0,
			"0.023": 0.0,
			"0.024": 0.0,
			"0.025": 0.0
		}
	}
}
