{
	 "smiles": "COC1=C(F)C=C(C=C1)C1=NNC(=O)C2=C1C=CC=C2", 
	 "Tm": 543.15, 
	 "num_atms": 31, 
	 "gaussian": { 
		 "optdone": 1, 
		 "sigma_profile": "yes", 
		 "theory": "DFT", 
		 "functional": "B3LYP", 
		 "basiset": "6-31G**", 
		 "properties": { 
			 "R2extent": 6939.5933, 
			 "electric_dipole_moment_norm": 5.09162725069, 
			 "electric_quadrupole_moment_norm": 14.9557768371, 
			 "total_energy": -937.995297398, 
			 "HOMO_LUMO_gap": 0.15968, 
			 "cosmo_polarized_energy": -15.45, 
			 "cosmo_cavitation_energy": 36.09, 
			 "cosmo_dispersion_energy": -26.32, 
			 "cosmo_repulsion_energy": 1.97, 
			 "cosmo_total_nonelectrostatic_energy": 11.74, 
			 "SMD_solvation_energy": 7.09 
		},
		"coords": [
			{
				"x": 3.4065055199,
				"y": 3.5969897564,
				"z": 2.8784885183,
				"element": "C" 
			},
			{
				"x": 2.0417174041,
				"y": 3.7994970406,
				"z": 2.5421441033,
				"element": "O" 
			},
			{
				"x": 1.3631975664,
				"y": 2.7612021666,
				"z": 1.9904396635,
				"element": "C" 
			},
			{
				"x": 0.0110247741,
				"y": 2.9992130631,
				"z": 1.6812860247,
				"element": "C" 
			},
			{
				"x": -0.497610919,
				"y": 4.2158802985,
				"z": 1.9510949188,
				"element": "F" 
			},
			{
				"x": -0.7913744499,
				"y": 2.0318112023,
				"z": 1.1116011563,
				"element": "C" 
			},
			{
				"x": -0.2645912962,
				"y": 0.7613352716,
				"z": 0.8160671156,
				"element": "C" 
			},
			{
				"x": 1.0759243629,
				"y": 0.5100920436,
				"z": 1.130001848,
				"element": "C" 
			},
			{
				"x": 1.8829039573,
				"y": 1.4948002729,
				"z": 1.7088390795,
				"element": "C" 
			},
			{
				"x": -1.1576151181,
				"y": -0.2874570035,
				"z": 0.2527669239,
				"element": "C" 
			},
			{
				"x": -2.3255043145,
				"y": -0.3863018723,
				"z": 0.8289359634,
				"element": "N" 
			},
			{
				"x": -3.1835682681,
				"y": -1.3287751363,
				"z": 0.3797248038,
				"element": "N" 
			},
			{
				"x": -2.9808022576,
				"y": -2.2893469119,
				"z": -0.6010108732,
				"element": "C" 
			},
			{
				"x": -3.8385606659,
				"y": -3.1296458791,
				"z": -0.8514951567,
				"element": "O" 
			},
			{
				"x": -1.6819748349,
				"y": -2.1501832634,
				"z": -1.2781175495,
				"element": "C" 
			},
			{
				"x": -0.7768563475,
				"y": -1.1397542898,
				"z": -0.8735680557,
				"element": "C" 
			},
			{
				"x": 0.4178221066,
				"y": -0.9854723632,
				"z": -1.6086874123,
				"element": "C" 
			},
			{
				"x": 0.7057850212,
				"y": -1.8324271594,
				"z": -2.6698620376,
				"element": "C" 
			},
			{
				"x": -0.185603933,
				"y": -2.8533126005,
				"z": -3.0369206998,
				"element": "C" 
			},
			{
				"x": -1.3791174893,
				"y": -3.0045660319,
				"z": -2.3473644515,
				"element": "C" 
			},
			{
				"x": 4.0079293111,
				"y": 3.3521246754,
				"z": 1.9937181926,
				"element": "H" 
			},
			{
				"x": 3.5240696859,
				"y": 2.8018701461,
				"z": 3.6256159927,
				"element": "H" 
			},
			{
				"x": 3.7536517751,
				"y": 4.5411443693,
				"z": 3.2998206938,
				"element": "H" 
			},
			{
				"x": -1.828950336,
				"y": 2.2633124168,
				"z": 0.9010642359,
				"element": "H" 
			},
			{
				"x": 1.4988018857,
				"y": -0.4730004438,
				"z": 0.9520096275,
				"element": "H" 
			},
			{
				"x": 2.9138706435,
				"y": 1.2625171446,
				"z": 1.9475516502,
				"element": "H" 
			},
			{
				"x": -4.06501744,
				"y": -1.3714037479,
				"z": 0.8760716918,
				"element": "H" 
			},
			{
				"x": 1.1066477277,
				"y": -0.1902713364,
				"z": -1.350799556,
				"element": "H" 
			},
			{
				"x": 1.6292162636,
				"y": -1.697070334,
				"z": -3.2255585134,
				"element": "H" 
			},
			{
				"x": 0.0536490653,
				"y": -3.5109739793,
				"z": -3.8671355612,
				"element": "H" 
			},
			{
				"x": -2.1061694004,
				"y": -3.7641275151,
				"z": -2.6141223366,
				"element": "H" 
			}
		],
		 "valence_orbital": [ 
			{
				"type": "occ",
				"energy": -0.26761,
				"method": "rhf"
			},
			{
				"type": "occ",
				"energy": -0.25816,
				"method": "rhf"
			},
			{
				"type": "occ",
				"energy": -0.25066,
				"method": "rhf"
			},
			{
				"type": "occ",
				"energy": -0.24227,
				"method": "rhf"
			},
			{
				"type": "occ",
				"energy": -0.2159,
				"method": "rhf"
			},
			{
				"type": "unocc",
				"energy": -0.05622,
				"method": "rhf"
			},
			{
				"type": "unocc",
				"energy": -0.04517,
				"method": "rhf"
			},
			{
				"type": "unocc",
				"energy": -0.01193,
				"method": "rhf"
			},
			{
				"type": "unocc",
				"energy": -0.00811,
				"method": "rhf"
			},
			{
				"type": "unocc",
				"energy": 0.0411,
				"method": "rhf"
			}
		],
		"cosmo_sigma_profile": { 
			"-0.025": 0.0,
			"-0.024": 0.0,
			"-0.023": 0.0,
			"-0.022": 0.0,
			"-0.021": 0.0,
			"-0.02": 0.0,
			"-0.019": 0.0,
			"-0.018": 0.0,
			"-0.017": 0.0,
			"-0.016": 0.379429225267,
			"-0.015": 1.0836416245,
			"-0.014": 1.2174800342,
			"-0.013": 0.602359708227,
			"-0.012": 0.863328428386,
			"-0.011": 0.989119035391,
			"-0.01": 0.662446679158,
			"-0.009": 0.892839540143,
			"-0.008": 0.739566251232,
			"-0.007": 8.27451402415,
			"-0.006": 19.8268644624,
			"-0.005": 22.9691243527,
			"-0.004": 23.344951905,
			"-0.003": 18.8039790533,
			"-0.002": 16.8106428477,
			"-0.001": 19.4837128655,
			"0.0": 20.2919537527,
			"0.001": 27.7298137473,
			"0.002": 24.5472390454,
			"0.003": 21.8344522981,
			"0.004": 15.8240295411,
			"0.005": 8.4575192583,
			"0.006": 4.83952395157,
			"0.007": 4.76109083262,
			"0.008": 3.52193801913,
			"0.009": 4.03943463164,
			"0.01": 3.89188963375,
			"0.011": 2.33954659585,
			"0.012": 2.8562882485,
			"0.013": 6.0008757528,
			"0.014": 2.18974278086,
			"0.015": 0.0,
			"0.016": 0.0,
			"0.017": 0.0,
			"0.018": 0.0,
			"0.019": 0.0,
			"0.02": 0.0,
			"0.021": 0.0,
			"0.022": 0.0,
			"0.023": 0.0,
			"0.024": 0.0,
			"0.025": 0.0
		}
	}
}
