{
	 "smiles": "[O-][N+](=O)C=CC1=CC=CC=C1Cl", 
	 "Tm": 321.15, 
	 "num_atms": 18, 
	 "gaussian": { 
		 "optdone": 1, 
		 "sigma_profile": "yes", 
		 "theory": "DFT", 
		 "functional": "B3LYP", 
		 "basiset": "6-31G**", 
		 "properties": { 
			 "R2extent": 3615.7865, 
			 "electric_dipole_moment_norm": 6.20173298764, 
			 "electric_quadrupole_moment_norm": 18.0314520832, 
			 "total_energy": -973.739072429, 
			 "HOMO_LUMO_gap": 0.15805, 
			 "cosmo_polarized_energy": -10.51, 
			 "cosmo_cavitation_energy": 25.35, 
			 "cosmo_dispersion_energy": -18.53, 
			 "cosmo_repulsion_energy": 1.47, 
			 "cosmo_total_nonelectrostatic_energy": 8.29, 
			 "SMD_solvation_energy": 6.86 
		},
		"coords": [
			{
				"x": -2.0259562034,
				"y": -0.7213697957,
				"z": 4.1831120199,
				"element": "O" 
			},
			{
				"x": -2.4305478991,
				"y": -1.6315228042,
				"z": 3.4585124483,
				"element": "N" 
			},
			{
				"x": -3.308341285,
				"y": -2.4441037622,
				"z": 3.7621645351,
				"element": "O" 
			},
			{
				"x": -1.8551586182,
				"y": -1.797253513,
				"z": 2.1335772118,
				"element": "C" 
			},
			{
				"x": -0.889139828,
				"y": -0.9732057944,
				"z": 1.7066715613,
				"element": "C" 
			},
			{
				"x": -0.242695285,
				"y": -1.0188757232,
				"z": 0.3971929614,
				"element": "C" 
			},
			{
				"x": -0.7720514049,
				"y": -1.778828136,
				"z": -0.6671268313,
				"element": "C" 
			},
			{
				"x": -0.1603829726,
				"y": -1.8198157212,
				"z": -1.9126318688,
				"element": "C" 
			},
			{
				"x": 1.0102833173,
				"y": -1.0895802911,
				"z": -2.1358639098,
				"element": "C" 
			},
			{
				"x": 1.5585592912,
				"y": -0.321848227,
				"z": -1.1110458696,
				"element": "C" 
			},
			{
				"x": 0.9366966439,
				"y": -0.2875680815,
				"z": 0.1365691556,
				"element": "C" 
			},
			{
				"x": 1.6866904657,
				"y": 0.6917819253,
				"z": 1.3873308072,
				"element": "Cl" 
			},
			{
				"x": -2.2965652363,
				"y": -2.6336189616,
				"z": 1.6109020734,
				"element": "H" 
			},
			{
				"x": -0.5603312079,
				"y": -0.2133415014,
				"z": 2.4082513021,
				"element": "H" 
			},
			{
				"x": -1.6926235405,
				"y": -2.3309499372,
				"z": -0.5093407694,
				"element": "H" 
			},
			{
				"x": -0.5970514289,
				"y": -2.4122971174,
				"z": -2.7101386132,
				"element": "H" 
			},
			{
				"x": 1.4954672923,
				"y": -1.1119453288,
				"z": -3.1067546717,
				"element": "H" 
			},
			{
				"x": 2.4654478994,
				"y": 0.2506427706,
				"z": -1.2691815421,
				"element": "H" 
			}
		],
		 "valence_orbital": [ 
			{
				"type": "occ",
				"energy": -0.30401,
				"method": "rhf"
			},
			{
				"type": "occ",
				"energy": -0.30342,
				"method": "rhf"
			},
			{
				"type": "occ",
				"energy": -0.28638,
				"method": "rhf"
			},
			{
				"type": "occ",
				"energy": -0.27441,
				"method": "rhf"
			},
			{
				"type": "occ",
				"energy": -0.26071,
				"method": "rhf"
			},
			{
				"type": "unocc",
				"energy": -0.10266,
				"method": "rhf"
			},
			{
				"type": "unocc",
				"energy": -0.03594,
				"method": "rhf"
			},
			{
				"type": "unocc",
				"energy": -0.0308,
				"method": "rhf"
			},
			{
				"type": "unocc",
				"energy": 0.01246,
				"method": "rhf"
			},
			{
				"type": "unocc",
				"energy": 0.03646,
				"method": "rhf"
			}
		],
		"cosmo_sigma_profile": { 
			"-0.025": 0.0,
			"-0.024": 0.0,
			"-0.023": 0.0,
			"-0.022": 0.0,
			"-0.021": 0.0,
			"-0.02": 0.0,
			"-0.019": 0.0,
			"-0.018": 0.0,
			"-0.017": 0.0,
			"-0.016": 0.0,
			"-0.015": 0.0,
			"-0.014": 0.0,
			"-0.013": 0.0,
			"-0.012": 0.0,
			"-0.011": 0.712669488927,
			"-0.01": 2.27060196872,
			"-0.009": 1.98157695945,
			"-0.008": 3.87439058043,
			"-0.007": 9.39088267765,
			"-0.006": 10.0726562302,
			"-0.005": 10.5711308725,
			"-0.004": 10.9475905898,
			"-0.003": 13.0879475634,
			"-0.002": 16.1248681222,
			"-0.001": 17.2779570317,
			"0.0": 19.315233919,
			"0.001": 18.6493918757,
			"0.002": 18.7593113082,
			"0.003": 11.9425125131,
			"0.004": 8.62107124709,
			"0.005": 2.44532742387,
			"0.006": 3.84962877711,
			"0.007": 4.15703831682,
			"0.008": 11.2698019644,
			"0.009": 6.32813088467,
			"0.01": 3.7646004601,
			"0.011": 1.03381455494,
			"0.012": 0.0,
			"0.013": 0.0,
			"0.014": 0.0,
			"0.015": 0.0,
			"0.016": 0.0,
			"0.017": 0.0,
			"0.018": 0.0,
			"0.019": 0.0,
			"0.02": 0.0,
			"0.021": 0.0,
			"0.022": 0.0,
			"0.023": 0.0,
			"0.024": 0.0,
			"0.025": 0.0
		}
	}
}
