{
	 "smiles": "COC1=C(N)C=C(NC(C)=O)C=C1", 
	 "Tm": 380.15, 
	 "num_atms": 25, 
	 "gaussian": { 
		 "optdone": 1, 
		 "sigma_profile": "yes", 
		 "theory": "DFT", 
		 "functional": "B3LYP", 
		 "basiset": "6-31G**", 
		 "properties": { 
			 "R2extent": 3323.4497, 
			 "electric_dipole_moment_norm": 5.2882212293, 
			 "electric_quadrupole_moment_norm": 17.5893974422, 
			 "total_energy": -610.147058656, 
			 "HOMO_LUMO_gap": 0.19512, 
			 "cosmo_polarized_energy": -15.8, 
			 "cosmo_cavitation_energy": 28.69, 
			 "cosmo_dispersion_energy": -20.87, 
			 "cosmo_repulsion_energy": 1.68, 
			 "cosmo_total_nonelectrostatic_energy": 9.49, 
			 "SMD_solvation_energy": 6.49 
		},
		"coords": [
			{
				"x": -1.6687524254,
				"y": 2.045311003,
				"z": -3.2939125579,
				"element": "C" 
			},
			{
				"x": -1.8545389349,
				"y": 1.4320480908,
				"z": -2.0297922045,
				"element": "O" 
			},
			{
				"x": -0.7400165992,
				"y": 1.0031839248,
				"z": -1.3501229871,
				"element": "C" 
			},
			{
				"x": -1.0141226345,
				"y": 0.4060796613,
				"z": -0.0952478424,
				"element": "C" 
			},
			{
				"x": -2.3375898359,
				"y": 0.2354247505,
				"z": 0.2974317624,
				"element": "N" 
			},
			{
				"x": 0.0554330245,
				"y": -0.0625573074,
				"z": 0.6722536199,
				"element": "C" 
			},
			{
				"x": 1.3802811628,
				"y": 0.0824151348,
				"z": 0.2347552322,
				"element": "C" 
			},
			{
				"x": 2.4678977283,
				"y": -0.4104033219,
				"z": 1.0032973449,
				"element": "N" 
			},
			{
				"x": 2.798045451,
				"y": -0.21836607,
				"z": 2.3307904091,
				"element": "C" 
			},
			{
				"x": 1.8768135622,
				"y": 0.6340729471,
				"z": 3.1859133504,
				"element": "C" 
			},
			{
				"x": 3.8150499431,
				"y": -0.7253813139,
				"z": 2.7854920877,
				"element": "O" 
			},
			{
				"x": 1.634289803,
				"y": 0.6676013598,
				"z": -1.0067750877,
				"element": "C" 
			},
			{
				"x": 0.5716296971,
				"y": 1.1177214145,
				"z": -1.7984588393,
				"element": "C" 
			},
			{
				"x": -1.0617896347,
				"y": 2.9569205277,
				"z": -3.2159278459,
				"element": "H" 
			},
			{
				"x": -2.6646616819,
				"y": 2.306427696,
				"z": -3.6554941614,
				"element": "H" 
			},
			{
				"x": -1.1941499678,
				"y": 1.3598059965,
				"z": -4.0077941067,
				"element": "H" 
			},
			{
				"x": -2.4942247187,
				"y": 0.1892255876,
				"z": 1.2938128348,
				"element": "H" 
			},
			{
				"x": -2.9923825806,
				"y": 0.8338041464,
				"z": -0.1860740284,
				"element": "H" 
			},
			{
				"x": -0.1514795459,
				"y": -0.5724928923,
				"z": 1.607483725,
				"element": "H" 
			},
			{
				"x": 3.1980150755,
				"y": -0.9025500751,
				"z": 0.5030759138,
				"element": "H" 
			},
			{
				"x": 1.3768202661,
				"y": 1.4237111943,
				"z": 2.6213899625,
				"element": "H" 
			},
			{
				"x": 1.1071391703,
				"y": 0.0076090178,
				"z": 3.649309294,
				"element": "H" 
			},
			{
				"x": 2.4819967664,
				"y": 1.063766667,
				"z": 3.9851855211,
				"element": "H" 
			},
			{
				"x": 2.6567498725,
				"y": 0.7859699795,
				"z": -1.3512127041,
				"element": "H" 
			},
			{
				"x": 0.7844470367,
				"y": 1.5733518812,
				"z": -2.7584786925,
				"element": "H" 
			}
		],
		 "valence_orbital": [ 
			{
				"type": "occ",
				"energy": -0.31633,
				"method": "rhf"
			},
			{
				"type": "occ",
				"energy": -0.26592,
				"method": "rhf"
			},
			{
				"type": "occ",
				"energy": -0.24114,
				"method": "rhf"
			},
			{
				"type": "occ",
				"energy": -0.22388,
				"method": "rhf"
			},
			{
				"type": "occ",
				"energy": -0.19284,
				"method": "rhf"
			},
			{
				"type": "unocc",
				"energy": 0.00228,
				"method": "rhf"
			},
			{
				"type": "unocc",
				"energy": 0.00592,
				"method": "rhf"
			},
			{
				"type": "unocc",
				"energy": 0.04527,
				"method": "rhf"
			},
			{
				"type": "unocc",
				"energy": 0.08119,
				"method": "rhf"
			},
			{
				"type": "unocc",
				"energy": 0.08968,
				"method": "rhf"
			}
		],
		"cosmo_sigma_profile": { 
			"-0.025": 0.0,
			"-0.024": 0.0,
			"-0.023": 0.0,
			"-0.022": 0.0,
			"-0.021": 0.0,
			"-0.02": 0.0,
			"-0.019": 0.0,
			"-0.018": 0.0,
			"-0.017": 0.0,
			"-0.016": 0.0,
			"-0.015": 0.0,
			"-0.014": 0.200368417724,
			"-0.013": 1.07677213604,
			"-0.012": 2.14704469191,
			"-0.011": 2.77116665983,
			"-0.01": 3.31454554836,
			"-0.009": 3.32100245093,
			"-0.008": 3.2937622088,
			"-0.007": 5.21276976248,
			"-0.006": 12.6999344296,
			"-0.005": 19.4205607066,
			"-0.004": 17.737712879,
			"-0.003": 19.6309789008,
			"-0.002": 15.4993909094,
			"-0.001": 16.9824108394,
			"0.0": 11.3509645478,
			"0.001": 8.70039626144,
			"0.002": 10.2190837848,
			"0.003": 11.216069519,
			"0.004": 11.6066229738,
			"0.005": 11.1615885228,
			"0.006": 10.299013837,
			"0.007": 3.74052532035,
			"0.008": 3.57620505122,
			"0.009": 1.70344013134,
			"0.01": 2.49676152083,
			"0.011": 2.22716472466,
			"0.012": 2.1680442772,
			"0.013": 4.0403837856,
			"0.014": 6.66946726938,
			"0.015": 1.89042974905,
			"0.016": 0.0543248637646,
			"0.017": 0.0,
			"0.018": 0.0,
			"0.019": 0.0,
			"0.02": 0.0,
			"0.021": 0.0,
			"0.022": 0.0,
			"0.023": 0.0,
			"0.024": 0.0,
			"0.025": 0.0
		}
	}
}
