{
	 "smiles": "CCCCCCCCCCCCCCCCCCCCC", 
	 "Tm": 313.15, 
	 "num_atms": 65, 
	 "gaussian": { 
		 "optdone": 1, 
		 "sigma_profile": "yes", 
		 "theory": "DFT", 
		 "functional": "B3LYP", 
		 "basiset": "6-31G**", 
		 "properties": { 
			 "R2extent": 11763.3118, 
			 "electric_dipole_moment_norm": 0.081238537653, 
			 "electric_quadrupole_moment_norm": 0.971345314499, 
			 "total_energy": -826.816601289, 
			 "HOMO_LUMO_gap": 0.35657, 
			 "cosmo_polarized_energy": -1.35, 
			 "cosmo_cavitation_energy": 61.3, 
			 "cosmo_dispersion_energy": -37.22, 
			 "cosmo_repulsion_energy": 2.96, 
			 "cosmo_total_nonelectrostatic_energy": 27.04, 
			 "SMD_solvation_energy": 7.7 
		},
		"coords": [
			{
				"x": -2.4372757111,
				"y": -1.2972054925,
				"z": 3.7728496703,
				"element": "C" 
			},
			{
				"x": -1.1664244655,
				"y": -0.4521300376,
				"z": 3.6358119962,
				"element": "C" 
			},
			{
				"x": -0.4330054217,
				"y": -0.2546027806,
				"z": 4.9702042884,
				"element": "C" 
			},
			{
				"x": 0.8139769921,
				"y": 0.6423951827,
				"z": 4.8956122746,
				"element": "C" 
			},
			{
				"x": 1.9695056208,
				"y": 0.0574773096,
				"z": 4.06896697,
				"element": "C" 
			},
			{
				"x": 3.2748972855,
				"y": 0.8697558512,
				"z": 4.1378423738,
				"element": "C" 
			},
			{
				"x": 3.2035574821,
				"y": 2.3053898896,
				"z": 3.5830392468,
				"element": "C" 
			},
			{
				"x": 2.8163433224,
				"y": 2.4334232317,
				"z": 2.0988273054,
				"element": "C" 
			},
			{
				"x": 3.8067230357,
				"y": 1.7751150491,
				"z": 1.1264670103,
				"element": "C" 
			},
			{
				"x": 3.5349675293,
				"y": 2.0787700918,
				"z": -0.3581541113,
				"element": "C" 
			},
			{
				"x": 2.1904352841,
				"y": 1.5805054918,
				"z": -0.9193415288,
				"element": "C" 
			},
			{
				"x": 2.0208160113,
				"y": 0.0537711696,
				"z": -0.9044722562,
				"element": "C" 
			},
			{
				"x": 0.6918898637,
				"y": -0.4466528667,
				"z": -1.4974684772,
				"element": "C" 
			},
			{
				"x": 0.5562986156,
				"y": -0.2414991929,
				"z": -3.0160097803,
				"element": "C" 
			},
			{
				"x": -0.7142428578,
				"y": -0.8452418093,
				"z": -3.6598402284,
				"element": "C" 
			},
			{
				"x": -1.9162478023,
				"y": 0.1105875235,
				"z": -3.8139121642,
				"element": "C" 
			},
			{
				"x": -2.638105059,
				"y": 0.6178913568,
				"z": -2.5466598573,
				"element": "C" 
			},
			{
				"x": -3.7275051125,
				"y": -0.2991236906,
				"z": -1.9593270834,
				"element": "C" 
			},
			{
				"x": -3.2600334577,
				"y": -1.6184398273,
				"z": -1.3285891469,
				"element": "C" 
			},
			{
				"x": -4.3947497865,
				"y": -2.3825355579,
				"z": -0.6325136749,
				"element": "C" 
			},
			{
				"x": -3.9404404613,
				"y": -3.7043780723,
				"z": -0.0053028483,
				"element": "C" 
			},
			{
				"x": -2.2081374096,
				"y": -2.2970137808,
				"z": 4.1594300793,
				"element": "H" 
			},
			{
				"x": -3.1497756442,
				"y": -0.8330562049,
				"z": 4.4645975868,
				"element": "H" 
			},
			{
				"x": -2.9429373124,
				"y": -1.4219022933,
				"z": 2.8093610246,
				"element": "H" 
			},
			{
				"x": -1.4236867398,
				"y": 0.5315136408,
				"z": 3.2185135819,
				"element": "H" 
			},
			{
				"x": -0.4962402014,
				"y": -0.925393516,
				"z": 2.9073593639,
				"element": "H" 
			},
			{
				"x": -0.1490921745,
				"y": -1.2371317344,
				"z": 5.3747422043,
				"element": "H" 
			},
			{
				"x": -1.1365274079,
				"y": 0.177774978,
				"z": 5.6950584182,
				"element": "H" 
			},
			{
				"x": 1.1745025511,
				"y": 0.8299881154,
				"z": 5.9166890956,
				"element": "H" 
			},
			{
				"x": 0.5236579349,
				"y": 1.6224893502,
				"z": 4.4934573562,
				"element": "H" 
			},
			{
				"x": 2.1774488839,
				"y": -0.959967941,
				"z": 4.4286498555,
				"element": "H" 
			},
			{
				"x": 1.6605175657,
				"y": -0.0548181491,
				"z": 3.0221194294,
				"element": "H" 
			},
			{
				"x": 3.6005686123,
				"y": 0.9229544215,
				"z": 5.1859208751,
				"element": "H" 
			},
			{
				"x": 4.0615597899,
				"y": 0.3157233997,
				"z": 3.6102175825,
				"element": "H" 
			},
			{
				"x": 2.495696406,
				"y": 2.891495385,
				"z": 4.1827543252,
				"element": "H" 
			},
			{
				"x": 4.1835181897,
				"y": 2.7793477346,
				"z": 3.7324389683,
				"element": "H" 
			},
			{
				"x": 1.8108844937,
				"y": 2.0219460628,
				"z": 1.9438495786,
				"element": "H" 
			},
			{
				"x": 2.740687408,
				"y": 3.5021137712,
				"z": 1.8538244995,
				"element": "H" 
			},
			{
				"x": 4.8204204099,
				"y": 2.124614308,
				"z": 1.367616183,
				"element": "H" 
			},
			{
				"x": 3.8220934937,
				"y": 0.6897340291,
				"z": 1.2851056296,
				"element": "H" 
			},
			{
				"x": 3.594292776,
				"y": 3.1655971013,
				"z": -0.5086225429,
				"element": "H" 
			},
			{
				"x": 4.3469550714,
				"y": 1.6464397702,
				"z": -0.9590962991,
				"element": "H" 
			},
			{
				"x": 2.0993179837,
				"y": 1.9470985167,
				"z": -1.9492594718,
				"element": "H" 
			},
			{
				"x": 1.3603210888,
				"y": 2.0396321984,
				"z": -0.3652436649,
				"element": "H" 
			},
			{
				"x": 2.8573456317,
				"y": -0.4086251297,
				"z": -1.4492480483,
				"element": "H" 
			},
			{
				"x": 2.0965490305,
				"y": -0.3096291787,
				"z": 0.1282862258,
				"element": "H" 
			},
			{
				"x": -0.13878725,
				"y": 0.0376781326,
				"z": -0.9686240234,
				"element": "H" 
			},
			{
				"x": 0.5952549288,
				"y": -1.5204255119,
				"z": -1.2865366564,
				"element": "H" 
			},
			{
				"x": 1.4376662332,
				"y": -0.697641583,
				"z": -3.4874088509,
				"element": "H" 
			},
			{
				"x": 0.6091993921,
				"y": 0.8272045077,
				"z": -3.2621344133,
				"element": "H" 
			},
			{
				"x": -0.4551168865,
				"y": -1.1834724182,
				"z": -4.6713648173,
				"element": "H" 
			},
			{
				"x": -1.0030764592,
				"y": -1.751041511,
				"z": -3.1138383667,
				"element": "H" 
			},
			{
				"x": -1.5598293744,
				"y": 0.9850856714,
				"z": -4.3755909114,
				"element": "H" 
			},
			{
				"x": -2.661379225,
				"y": -0.370007741,
				"z": -4.4638786385,
				"element": "H" 
			},
			{
				"x": -3.1263525485,
				"y": 1.5667730134,
				"z": -2.8045834552,
				"element": "H" 
			},
			{
				"x": -1.9084958933,
				"y": 0.8695472145,
				"z": -1.7673251452,
				"element": "H" 
			},
			{
				"x": -4.2715605338,
				"y": 0.2721934864,
				"z": -1.193821347,
				"element": "H" 
			},
			{
				"x": -4.4648496455,
				"y": -0.5198507884,
				"z": -2.7450568385,
				"element": "H" 
			},
			{
				"x": -2.8160001156,
				"y": -2.2672230874,
				"z": -2.0939487115,
				"element": "H" 
			},
			{
				"x": -2.4615155401,
				"y": -1.4149147104,
				"z": -0.600771348,
				"element": "H" 
			},
			{
				"x": -4.8387037946,
				"y": -1.7425794156,
				"z": 0.1425861113,
				"element": "H" 
			},
			{
				"x": -5.1967041418,
				"y": -2.5778172866,
				"z": -1.3577590013,
				"element": "H" 
			},
			{
				"x": -3.5219986615,
				"y": -4.379046027,
				"z": -0.7611105443,
				"element": "H" 
			},
			{
				"x": -4.7723395678,
				"y": -4.2251379579,
				"z": 0.4803368664,
				"element": "H" 
			},
			{
				"x": -3.1656322546,
				"y": -3.5379216621,
				"z": 0.7520782762,
				"element": "H" 
			}
		],
		 "valence_orbital": [ 
			{
				"type": "occ",
				"energy": -0.29876,
				"method": "rhf"
			},
			{
				"type": "occ",
				"energy": -0.29656,
				"method": "rhf"
			},
			{
				"type": "occ",
				"energy": -0.29573,
				"method": "rhf"
			},
			{
				"type": "occ",
				"energy": -0.29477,
				"method": "rhf"
			},
			{
				"type": "occ",
				"energy": -0.29307,
				"method": "rhf"
			},
			{
				"type": "unocc",
				"energy": 0.0635,
				"method": "rhf"
			},
			{
				"type": "unocc",
				"energy": 0.07387,
				"method": "rhf"
			},
			{
				"type": "unocc",
				"energy": 0.09012,
				"method": "rhf"
			},
			{
				"type": "unocc",
				"energy": 0.09626,
				"method": "rhf"
			},
			{
				"type": "unocc",
				"energy": 0.10013,
				"method": "rhf"
			}
		],
		"cosmo_sigma_profile": { 
			"-0.025": 0.0,
			"-0.024": 0.0,
			"-0.023": 0.0,
			"-0.022": 0.0,
			"-0.021": 0.0,
			"-0.02": 0.0,
			"-0.019": 0.0,
			"-0.018": 0.0,
			"-0.017": 0.0,
			"-0.016": 0.0,
			"-0.015": 0.0,
			"-0.014": 0.0,
			"-0.013": 0.0,
			"-0.012": 0.0,
			"-0.011": 0.0,
			"-0.01": 0.0,
			"-0.009": 0.0,
			"-0.008": 0.0,
			"-0.007": 0.0,
			"-0.006": 0.0,
			"-0.005": 0.0,
			"-0.004": 0.0,
			"-0.003": 2.43587999932,
			"-0.002": 46.1853342815,
			"-0.001": 121.851441121,
			"0.0": 129.827813232,
			"0.001": 115.904021239,
			"0.002": 49.6993469412,
			"0.003": 1.19307964705,
			"0.004": 0.0,
			"0.005": 0.0,
			"0.006": 0.0,
			"0.007": 0.0,
			"0.008": 0.0,
			"0.009": 0.0,
			"0.01": 0.0,
			"0.011": 0.0,
			"0.012": 0.0,
			"0.013": 0.0,
			"0.014": 0.0,
			"0.015": 0.0,
			"0.016": 0.0,
			"0.017": 0.0,
			"0.018": 0.0,
			"0.019": 0.0,
			"0.02": 0.0,
			"0.021": 0.0,
			"0.022": 0.0,
			"0.023": 0.0,
			"0.024": 0.0,
			"0.025": 0.0
		}
	}
}
