{
	 "smiles": "CC1=CC=C(C=C1)C(=O)NCC(O)=O", 
	 "Tm": 437.15, 
	 "num_atms": 25, 
	 "gaussian": { 
		 "optdone": 1, 
		 "sigma_profile": "yes", 
		 "theory": "DFT", 
		 "functional": "B3LYP", 
		 "basiset": "6-31G**", 
		 "properties": { 
			 "R2extent": 3751.476, 
			 "electric_dipole_moment_norm": 3.06249913959, 
			 "electric_quadrupole_moment_norm": 22.0878390154, 
			 "total_energy": -668.144895527, 
			 "HOMO_LUMO_gap": 0.2028, 
			 "cosmo_polarized_energy": -18.36, 
			 "cosmo_cavitation_energy": 29.23, 
			 "cosmo_dispersion_energy": -20.97, 
			 "cosmo_repulsion_energy": 1.67, 
			 "cosmo_total_nonelectrostatic_energy": 9.92, 
			 "SMD_solvation_energy": 7.08 
		},
		"coords": [
			{
				"x": 0.9013720299,
				"y": -3.3384616999,
				"z": -2.1041045379,
				"element": "C" 
			},
			{
				"x": 1.0356661499,
				"y": -2.1300130003,
				"z": -1.2101922653,
				"element": "C" 
			},
			{
				"x": 0.4595054486,
				"y": -2.1082275619,
				"z": 0.0665706308,
				"element": "C" 
			},
			{
				"x": 0.5502289366,
				"y": -0.9798114913,
				"z": 0.8797899966,
				"element": "C" 
			},
			{
				"x": 1.2344748439,
				"y": 0.1603446784,
				"z": 0.4338264769,
				"element": "C" 
			},
			{
				"x": 1.8405310907,
				"y": 0.1340173364,
				"z": -0.8315539088,
				"element": "C" 
			},
			{
				"x": 1.731705874,
				"y": -0.9897981444,
				"z": -1.6419503732,
				"element": "C" 
			},
			{
				"x": 1.4411159021,
				"y": 1.3839589995,
				"z": 1.2666721195,
				"element": "C" 
			},
			{
				"x": 2.44129701,
				"y": 2.0783572212,
				"z": 1.1625966844,
				"element": "O" 
			},
			{
				"x": 0.4747394827,
				"y": 1.7134116112,
				"z": 2.2331822375,
				"element": "N" 
			},
			{
				"x": -0.9719171613,
				"y": 1.5555955023,
				"z": 2.0635272442,
				"element": "C" 
			},
			{
				"x": -1.635414224,
				"y": 0.749328292,
				"z": 3.1905314766,
				"element": "C" 
			},
			{
				"x": -0.7758225394,
				"y": 0.1656404153,
				"z": 4.0498662812,
				"element": "O" 
			},
			{
				"x": -2.8314721985,
				"y": 0.6334421706,
				"z": 3.2816892364,
				"element": "O" 
			},
			{
				"x": 0.0687652961,
				"y": -3.214100512,
				"z": -2.8077302986,
				"element": "H" 
			},
			{
				"x": 0.7075135235,
				"y": -4.245911329,
				"z": -1.5255965517,
				"element": "H" 
			},
			{
				"x": 1.8059072723,
				"y": -3.4982445062,
				"z": -2.6987678742,
				"element": "H" 
			},
			{
				"x": -0.0621828909,
				"y": -2.9878225567,
				"z": 0.4340189885,
				"element": "H" 
			},
			{
				"x": 0.1148637557,
				"y": -1.0096924705,
				"z": 1.8731978326,
				"element": "H" 
			},
			{
				"x": 2.3999236307,
				"y": 1.0044319962,
				"z": -1.157733889,
				"element": "H" 
			},
			{
				"x": 2.2003767089,
				"y": -0.990084251,
				"z": -2.6227468296,
				"element": "H" 
			},
			{
				"x": 0.7513664783,
				"y": 2.5851548997,
				"z": 2.6742931432,
				"element": "H" 
			},
			{
				"x": -1.1878866467,
				"y": 1.0415199923,
				"z": 1.1244224945,
				"element": "H" 
			},
			{
				"x": -1.4708265553,
				"y": 2.5284165437,
				"z": 2.0150266018,
				"element": "H" 
			},
			{
				"x": 0.1222687822,
				"y": 0.4471478645,
				"z": 3.7835650835,
				"element": "H" 
			}
		],
		 "valence_orbital": [ 
			{
				"type": "occ",
				"energy": -0.30387,
				"method": "rhf"
			},
			{
				"type": "occ",
				"energy": -0.28361,
				"method": "rhf"
			},
			{
				"type": "occ",
				"energy": -0.26835,
				"method": "rhf"
			},
			{
				"type": "occ",
				"energy": -0.26258,
				"method": "rhf"
			},
			{
				"type": "occ",
				"energy": -0.25476,
				"method": "rhf"
			},
			{
				"type": "unocc",
				"energy": -0.05196,
				"method": "rhf"
			},
			{
				"type": "unocc",
				"energy": -0.01922,
				"method": "rhf"
			},
			{
				"type": "unocc",
				"energy": 0.00483,
				"method": "rhf"
			},
			{
				"type": "unocc",
				"energy": 0.03316,
				"method": "rhf"
			},
			{
				"type": "unocc",
				"energy": 0.06145,
				"method": "rhf"
			}
		],
		"cosmo_sigma_profile": { 
			"-0.025": 0.0,
			"-0.024": 0.0,
			"-0.023": 0.0,
			"-0.022": 0.0,
			"-0.021": 0.0,
			"-0.02": 0.0,
			"-0.019": 0.0,
			"-0.018": 0.0,
			"-0.017": 0.0,
			"-0.016": 0.0,
			"-0.015": 0.282038340578,
			"-0.014": 1.9824763583,
			"-0.013": 2.2088354534,
			"-0.012": 2.74318988867,
			"-0.011": 3.24336289314,
			"-0.01": 3.60055978703,
			"-0.009": 3.24155006228,
			"-0.008": 5.23067149988,
			"-0.007": 6.0627702244,
			"-0.006": 10.1283286157,
			"-0.005": 18.3205587463,
			"-0.004": 19.7678609644,
			"-0.003": 14.8104852632,
			"-0.002": 15.2120038945,
			"-0.001": 15.2861875466,
			"0.0": 15.5684845688,
			"0.001": 10.0264913535,
			"0.002": 10.2408154222,
			"0.003": 10.3775790673,
			"0.004": 13.1535266875,
			"0.005": 5.45980136554,
			"0.006": 3.23735084072,
			"0.007": 4.19062166072,
			"0.008": 4.71902776627,
			"0.009": 4.72894911712,
			"0.01": 6.06357922479,
			"0.011": 7.60493752967,
			"0.012": 9.40278628274,
			"0.013": 5.18734699669,
			"0.014": 0.167330465076,
			"0.015": 0.0,
			"0.016": 0.0,
			"0.017": 0.0,
			"0.018": 0.0,
			"0.019": 0.0,
			"0.02": 0.0,
			"0.021": 0.0,
			"0.022": 0.0,
			"0.023": 0.0,
			"0.024": 0.0,
			"0.025": 0.0
		}
	}
}
