{
	 "smiles": "[O-][N+](=O)C1=C2CCNC2=CC=C1", 
	 "Tm": 385.15, 
	 "num_atms": 20, 
	 "gaussian": { 
		 "optdone": 1, 
		 "sigma_profile": "yes", 
		 "theory": "DFT", 
		 "functional": "B3LYP", 
		 "basiset": "6-31G**", 
		 "properties": { 
			 "R2extent": 2354.0876, 
			 "electric_dipole_moment_norm": 5.29206129216, 
			 "electric_quadrupole_moment_norm": 7.9114884415, 
			 "total_energy": -569.524415371, 
			 "HOMO_LUMO_gap": 0.13154, 
			 "cosmo_polarized_energy": -10.39, 
			 "cosmo_cavitation_energy": 23.64, 
			 "cosmo_dispersion_energy": -17.98, 
			 "cosmo_repulsion_energy": 1.43, 
			 "cosmo_total_nonelectrostatic_energy": 7.09, 
			 "SMD_solvation_energy": 4.53 
		},
		"coords": [
			{
				"x": 2.5668021747,
				"y": -0.0657272024,
				"z": -2.6408437196,
				"element": "O" 
			},
			{
				"x": 1.8241527772,
				"y": -0.2097363594,
				"z": -1.6701823516,
				"element": "N" 
			},
			{
				"x": 2.1944769711,
				"y": -0.6274812286,
				"z": -0.5700917686,
				"element": "O" 
			},
			{
				"x": 0.4046641473,
				"y": 0.1300921219,
				"z": -1.8324102187,
				"element": "C" 
			},
			{
				"x": -0.4516821966,
				"y": 0.115318138,
				"z": -0.7369242804,
				"element": "C" 
			},
			{
				"x": -0.2631713497,
				"y": -0.2202446093,
				"z": 0.7259993361,
				"element": "C" 
			},
			{
				"x": -1.5798604574,
				"y": 0.2918220233,
				"z": 1.361841301,
				"element": "C" 
			},
			{
				"x": -2.5296968393,
				"y": 0.3059262552,
				"z": 0.2352586532,
				"element": "N" 
			},
			{
				"x": -1.8099437916,
				"y": 0.4272141395,
				"z": -0.9505026561,
				"element": "C" 
			},
			{
				"x": -2.2893276588,
				"y": 0.7635660902,
				"z": -2.2180464169,
				"element": "C" 
			},
			{
				"x": -1.3913135791,
				"y": 0.7850203831,
				"z": -3.2916692766,
				"element": "C" 
			},
			{
				"x": -0.047379668,
				"y": 0.4731268548,
				"z": -3.114968338,
				"element": "C" 
			},
			{
				"x": 0.6253760917,
				"y": 0.2356781551,
				"z": 1.1635849741,
				"element": "H" 
			},
			{
				"x": -0.1513968446,
				"y": -1.3041536583,
				"z": 0.8492234099,
				"element": "H" 
			},
			{
				"x": -1.4357310318,
				"y": 1.3020355725,
				"z": 1.7743614632,
				"element": "H" 
			},
			{
				"x": -1.9385905093,
				"y": -0.3553886791,
				"z": 2.1668850135,
				"element": "H" 
			},
			{
				"x": -3.3557495895,
				"y": 0.8804690816,
				"z": 0.3366131582,
				"element": "H" 
			},
			{
				"x": -3.3375029379,
				"y": 1.0042029204,
				"z": -2.3692970855,
				"element": "H" 
			},
			{
				"x": -1.7505693605,
				"y": 1.0503084957,
				"z": -4.2812074959,
				"element": "H" 
			},
			{
				"x": 0.6572436522,
				"y": 0.4853515059,
				"z": -3.9354237014,
				"element": "H" 
			}
		],
		 "valence_orbital": [ 
			{
				"type": "occ",
				"energy": -0.30086,
				"method": "rhf"
			},
			{
				"type": "occ",
				"energy": -0.29807,
				"method": "rhf"
			},
			{
				"type": "occ",
				"energy": -0.28217,
				"method": "rhf"
			},
			{
				"type": "occ",
				"energy": -0.26797,
				"method": "rhf"
			},
			{
				"type": "occ",
				"energy": -0.21128,
				"method": "rhf"
			},
			{
				"type": "unocc",
				"energy": -0.07974,
				"method": "rhf"
			},
			{
				"type": "unocc",
				"energy": -0.00755,
				"method": "rhf"
			},
			{
				"type": "unocc",
				"energy": 0.01446,
				"method": "rhf"
			},
			{
				"type": "unocc",
				"energy": 0.07602,
				"method": "rhf"
			},
			{
				"type": "unocc",
				"energy": 0.09294,
				"method": "rhf"
			}
		],
		"cosmo_sigma_profile": { 
			"-0.025": 0.0,
			"-0.024": 0.0,
			"-0.023": 0.0,
			"-0.022": 0.0,
			"-0.021": 0.0,
			"-0.02": 0.0,
			"-0.019": 0.0,
			"-0.018": 0.0,
			"-0.017": 0.0,
			"-0.016": 0.0,
			"-0.015": 0.0,
			"-0.014": 0.0170324878463,
			"-0.013": 1.12125281453,
			"-0.012": 1.50675612154,
			"-0.011": 1.38534363452,
			"-0.01": 1.16526011426,
			"-0.009": 1.62478124755,
			"-0.008": 1.61765794798,
			"-0.007": 3.93330504181,
			"-0.006": 6.9715781734,
			"-0.005": 11.6551934289,
			"-0.004": 19.5300766276,
			"-0.003": 17.3694116842,
			"-0.002": 17.6367092581,
			"-0.001": 12.5358845476,
			"0.0": 9.78580133323,
			"0.001": 10.3027084531,
			"0.002": 10.8263113916,
			"0.003": 11.9905533722,
			"0.004": 11.5023684419,
			"0.005": 4.01053287116,
			"0.006": 4.77809461567,
			"0.007": 5.90078433976,
			"0.008": 8.82925832101,
			"0.009": 5.39796785366,
			"0.01": 4.50700423096,
			"0.011": 1.62688840387,
			"0.012": 0.412613309447,
			"0.013": 0.107212673645,
			"0.014": 0.0,
			"0.015": 0.0,
			"0.016": 0.0,
			"0.017": 0.0,
			"0.018": 0.0,
			"0.019": 0.0,
			"0.02": 0.0,
			"0.021": 0.0,
			"0.022": 0.0,
			"0.023": 0.0,
			"0.024": 0.0,
			"0.025": 0.0
		}
	}
}
