{
	 "smiles": "BrC1=NC=C(C=O)C=C1", 
	 "Tm": 380.15, 
	 "num_atms": 13, 
	 "gaussian": { 
		 "optdone": 1, 
		 "sigma_profile": "yes", 
		 "theory": "DFT", 
		 "functional": "B3LYP", 
		 "basiset": "6-31G**", 
		 "properties": { 
			 "R2extent": 2343.1503, 
			 "electric_dipole_moment_norm": 3.4832858539, 
			 "electric_quadrupole_moment_norm": 7.93898227042, 
			 "total_energy": -2932.40874822, 
			 "HOMO_LUMO_gap": 0.18279, 
			 "cosmo_polarized_energy": -9.97, 
			 "cosmo_cavitation_energy": 20.6, 
			 "cosmo_dispersion_energy": -15.6, 
			 "cosmo_repulsion_energy": 1.27, 
			 "cosmo_total_nonelectrostatic_energy": 6.27, 
			 "SMD_solvation_energy": 2.14 
		},
		"coords": [
			{
				"x": 1.1392052723,
				"y": 1.0859353273,
				"z": 2.3051287586,
				"element": "Br" 
			},
			{
				"x": 0.2636890346,
				"y": 0.6805453732,
				"z": 0.6510663379,
				"element": "C" 
			},
			{
				"x": -0.8457808017,
				"y": 1.3524806689,
				"z": 0.386529617,
				"element": "N" 
			},
			{
				"x": -1.4666540427,
				"y": 1.0791232463,
				"z": -0.7642601563,
				"element": "C" 
			},
			{
				"x": -1.0000121316,
				"y": 0.1287866647,
				"z": -1.6839764647,
				"element": "C" 
			},
			{
				"x": -1.7337482985,
				"y": -0.1296455058,
				"z": -2.9439685629,
				"element": "C" 
			},
			{
				"x": -2.7574143316,
				"y": 0.4379869218,
				"z": -3.2688888518,
				"element": "O" 
			},
			{
				"x": 0.176815581,
				"y": -0.5641322826,
				"z": -1.37286865,
				"element": "C" 
			},
			{
				"x": 0.8336221329,
				"y": -0.2903877795,
				"z": -0.1793715752,
				"element": "C" 
			},
			{
				"x": -2.3775506734,
				"y": 1.6311938609,
				"z": -0.9808038748,
				"element": "H" 
			},
			{
				"x": -1.2722252994,
				"y": -0.9035227323,
				"z": -3.5974372659,
				"element": "H" 
			},
			{
				"x": 0.5717435129,
				"y": -1.3092204084,
				"z": -2.059868821,
				"element": "H" 
			},
			{
				"x": 1.7460100452,
				"y": -0.7983433545,
				"z": 0.107019509,
				"element": "H" 
			}
		],
		 "valence_orbital": [ 
			{
				"type": "occ",
				"energy": -0.31618,
				"method": "rhf"
			},
			{
				"type": "occ",
				"energy": -0.30045,
				"method": "rhf"
			},
			{
				"type": "occ",
				"energy": -0.29169,
				"method": "rhf"
			},
			{
				"type": "occ",
				"energy": -0.26925,
				"method": "rhf"
			},
			{
				"type": "occ",
				"energy": -0.2683,
				"method": "rhf"
			},
			{
				"type": "unocc",
				"energy": -0.08551,
				"method": "rhf"
			},
			{
				"type": "unocc",
				"energy": -0.05224,
				"method": "rhf"
			},
			{
				"type": "unocc",
				"energy": -0.00278,
				"method": "rhf"
			},
			{
				"type": "unocc",
				"energy": 0.01229,
				"method": "rhf"
			},
			{
				"type": "unocc",
				"energy": 0.09307,
				"method": "rhf"
			}
		],
		"cosmo_sigma_profile": { 
			"-0.025": 0.0,
			"-0.024": 0.0,
			"-0.023": 0.0,
			"-0.022": 0.0,
			"-0.021": 0.0,
			"-0.02": 0.0,
			"-0.019": 0.0,
			"-0.018": 0.0,
			"-0.017": 0.0,
			"-0.016": 0.0,
			"-0.015": 0.0,
			"-0.014": 0.0,
			"-0.013": 0.0,
			"-0.012": 0.0,
			"-0.011": 0.0,
			"-0.01": 0.84593629151,
			"-0.009": 4.97530783632,
			"-0.008": 6.92099524213,
			"-0.007": 8.66532225955,
			"-0.006": 6.62506020304,
			"-0.005": 7.49792528546,
			"-0.004": 8.66450440418,
			"-0.003": 9.43115004076,
			"-0.002": 16.9896900896,
			"-0.001": 18.6059000612,
			"0.0": 11.8618217084,
			"0.001": 7.55079508128,
			"0.002": 9.06268636874,
			"0.003": 10.8625528066,
			"0.004": 11.3303466892,
			"0.005": 4.24651037059,
			"0.006": 4.14378711515,
			"0.007": 2.54524949657,
			"0.008": 3.24748556003,
			"0.009": 3.09570027958,
			"0.01": 4.80898777656,
			"0.011": 4.4735404298,
			"0.012": 1.98233703723,
			"0.013": 0.999986837057,
			"0.014": 0.375150028488,
			"0.015": 0.0,
			"0.016": 0.0,
			"0.017": 0.0,
			"0.018": 0.0,
			"0.019": 0.0,
			"0.02": 0.0,
			"0.021": 0.0,
			"0.022": 0.0,
			"0.023": 0.0,
			"0.024": 0.0,
			"0.025": 0.0
		}
	}
}
