{
	 "smiles": "CC(C)(C)OC(=O)NC1CCCCCC1O", 
	 "Tm": 359.15, 
	 "num_atms": 39, 
	 "gaussian": { 
		 "optdone": 1, 
		 "sigma_profile": "yes", 
		 "theory": "DFT", 
		 "functional": "B3LYP", 
		 "basiset": "6-31G**", 
		 "properties": { 
			 "R2extent": 4922.1295, 
			 "electric_dipole_moment_norm": 3.27220483619, 
			 "electric_quadrupole_moment_norm": 14.5907574745, 
			 "total_energy": -751.600602962, 
			 "HOMO_LUMO_gap": 0.29978, 
			 "cosmo_polarized_energy": -13.15, 
			 "cosmo_cavitation_energy": 37.87, 
			 "cosmo_dispersion_energy": -25.97, 
			 "cosmo_repulsion_energy": 2.05, 
			 "cosmo_total_nonelectrostatic_energy": 13.95, 
			 "SMD_solvation_energy": 6.52 
		},
		"coords": [
			{
				"x": -0.2065565984,
				"y": 3.1172670588,
				"z": 2.5854191379,
				"element": "C" 
			},
			{
				"x": 0.7027751164,
				"y": 1.9511793808,
				"z": 2.9826272489,
				"element": "C" 
			},
			{
				"x": 2.1269227264,
				"y": 2.4451815858,
				"z": 3.2600283094,
				"element": "C" 
			},
			{
				"x": 0.1134720874,
				"y": 1.1825303265,
				"z": 4.1704127247,
				"element": "C" 
			},
			{
				"x": 0.6867030664,
				"y": 1.1071353054,
				"z": 1.7790427305,
				"element": "O" 
			},
			{
				"x": 1.4054321131,
				"y": -0.0426463366,
				"z": 1.7285494999,
				"element": "C" 
			},
			{
				"x": 2.086097129,
				"y": -0.5061376106,
				"z": 2.6313684605,
				"element": "O" 
			},
			{
				"x": 1.2574161047,
				"y": -0.6555855415,
				"z": 0.5141701633,
				"element": "N" 
			},
			{
				"x": 0.6212202451,
				"y": -0.0843950821,
				"z": -0.6739189824,
				"element": "C" 
			},
			{
				"x": -0.9131536717,
				"y": -0.2518762852,
				"z": -0.6818312164,
				"element": "C" 
			},
			{
				"x": -1.4696677385,
				"y": -1.6805331217,
				"z": -0.6277570959,
				"element": "C" 
			},
			{
				"x": -1.0103305128,
				"y": -2.6360393676,
				"z": -1.7432961993,
				"element": "C" 
			},
			{
				"x": 0.4503724735,
				"y": -3.099663521,
				"z": -1.5954847893,
				"element": "C" 
			},
			{
				"x": 1.5463036512,
				"y": -2.1193881445,
				"z": -2.0701158023,
				"element": "C" 
			},
			{
				"x": 1.2811612676,
				"y": -0.6023968867,
				"z": -1.9633810896,
				"element": "C" 
			},
			{
				"x": 2.514833465,
				"y": 0.1069469997,
				"z": -2.0958409181,
				"element": "O" 
			},
			{
				"x": -0.2784237668,
				"y": 3.8349771622,
				"z": 3.4081415965,
				"element": "H" 
			},
			{
				"x": -1.2134500639,
				"y": 2.7602055346,
				"z": 2.3493414869,
				"element": "H" 
			},
			{
				"x": 0.1907033955,
				"y": 3.6351331754,
				"z": 1.707514497,
				"element": "H" 
			},
			{
				"x": 2.1125621714,
				"y": 3.1626007922,
				"z": 4.0871607301,
				"element": "H" 
			},
			{
				"x": 2.5310540084,
				"y": 2.95147113,
				"z": 2.377605058,
				"element": "H" 
			},
			{
				"x": 2.7824398356,
				"y": 1.6147881996,
				"z": 3.5225195885,
				"element": "H" 
			},
			{
				"x": 0.7472686865,
				"y": 0.3369968034,
				"z": 4.4378684509,
				"element": "H" 
			},
			{
				"x": -0.8873104943,
				"y": 0.8130049367,
				"z": 3.9243935706,
				"element": "H" 
			},
			{
				"x": 0.0260541052,
				"y": 1.8500179415,
				"z": 5.0340612243,
				"element": "H" 
			},
			{
				"x": 1.8714544283,
				"y": -1.4482620849,
				"z": 0.4090494892,
				"element": "H" 
			},
			{
				"x": 0.8194683072,
				"y": 0.9923058572,
				"z": -0.6696161294,
				"element": "H" 
			},
			{
				"x": -1.3029270395,
				"y": 0.3079513663,
				"z": 0.1746236871,
				"element": "H" 
			},
			{
				"x": -1.2926422332,
				"y": 0.2556702854,
				"z": -1.5798350736,
				"element": "H" 
			},
			{
				"x": -2.5646046682,
				"y": -1.6107709679,
				"z": -0.6476694658,
				"element": "H" 
			},
			{
				"x": -1.2124412965,
				"y": -2.1294160463,
				"z": 0.3405702899,
				"element": "H" 
			},
			{
				"x": -1.1758958109,
				"y": -2.1816413883,
				"z": -2.7305344927,
				"element": "H" 
			},
			{
				"x": -1.6515034689,
				"y": -3.5254878649,
				"z": -1.712626592,
				"element": "H" 
			},
			{
				"x": 0.6130444378,
				"y": -3.345803598,
				"z": -0.5387026626,
				"element": "H" 
			},
			{
				"x": 0.5894479554,
				"y": -4.0402043686,
				"z": -2.1411061255,
				"element": "H" 
			},
			{
				"x": 2.4789710588,
				"y": -2.3289704938,
				"z": -1.530348349,
				"element": "H" 
			},
			{
				"x": 1.7730587397,
				"y": -2.3183286084,
				"z": -3.1268500577,
				"element": "H" 
			},
			{
				"x": 0.600517504,
				"y": -0.3109028458,
				"z": -2.7785530011,
				"element": "H" 
			},
			{
				"x": 2.967553284,
				"y": -0.2259136772,
				"z": -2.8817999014,
				"element": "H" 
			}
		],
		 "valence_orbital": [ 
			{
				"type": "occ",
				"energy": -0.3115,
				"method": "rhf"
			},
			{
				"type": "occ",
				"energy": -0.2798,
				"method": "rhf"
			},
			{
				"type": "occ",
				"energy": -0.26927,
				"method": "rhf"
			},
			{
				"type": "occ",
				"energy": -0.25196,
				"method": "rhf"
			},
			{
				"type": "occ",
				"energy": -0.23859,
				"method": "rhf"
			},
			{
				"type": "unocc",
				"energy": 0.06119,
				"method": "rhf"
			},
			{
				"type": "unocc",
				"energy": 0.06186,
				"method": "rhf"
			},
			{
				"type": "unocc",
				"energy": 0.07562,
				"method": "rhf"
			},
			{
				"type": "unocc",
				"energy": 0.08495,
				"method": "rhf"
			},
			{
				"type": "unocc",
				"energy": 0.09406,
				"method": "rhf"
			}
		],
		"cosmo_sigma_profile": { 
			"-0.025": 0.0,
			"-0.024": 0.0,
			"-0.023": 0.0,
			"-0.022": 0.0,
			"-0.021": 0.0,
			"-0.02": 0.0,
			"-0.019": 0.0,
			"-0.018": 0.0,
			"-0.017": 0.0,
			"-0.016": 0.0,
			"-0.015": 0.70615525651,
			"-0.014": 1.11665496376,
			"-0.013": 0.792373409999,
			"-0.012": 0.978329575029,
			"-0.011": 2.31661733335,
			"-0.01": 1.64773614986,
			"-0.009": 1.5834875131,
			"-0.008": 2.21931773499,
			"-0.007": 1.94661439812,
			"-0.006": 2.71860316342,
			"-0.005": 2.74687513879,
			"-0.004": 15.8667208635,
			"-0.003": 33.0509901461,
			"-0.002": 36.6795571971,
			"-0.001": 40.5530411458,
			"0.0": 47.2194156697,
			"0.001": 38.0329555883,
			"0.002": 11.6834979294,
			"0.003": 8.58723956379,
			"0.004": 5.43771896188,
			"0.005": 5.22480837857,
			"0.006": 4.03766676112,
			"0.007": 2.52120890898,
			"0.008": 3.13572189462,
			"0.009": 2.8687937795,
			"0.01": 2.3796226143,
			"0.011": 1.92511849327,
			"0.012": 3.32593436268,
			"0.013": 4.31751255879,
			"0.014": 4.92282248367,
			"0.015": 0.437017830996,
			"0.016": 0.0,
			"0.017": 0.0,
			"0.018": 0.0,
			"0.019": 0.0,
			"0.02": 0.0,
			"0.021": 0.0,
			"0.022": 0.0,
			"0.023": 0.0,
			"0.024": 0.0,
			"0.025": 0.0
		}
	}
}
