{
	 "smiles": "OC(=O)C=CC1=CC=CC2=C(Br)C=CC=C12", 
	 "Tm": 543.15, 
	 "num_atms": 25, 
	 "gaussian": { 
		 "optdone": 1, 
		 "sigma_profile": "yes", 
		 "theory": "DFT", 
		 "functional": "B3LYP", 
		 "basiset": "6-31G**", 
		 "properties": { 
			 "R2extent": 7079.5379, 
			 "electric_dipole_moment_norm": 4.18067706837, 
			 "electric_quadrupole_moment_norm": 29.1496575536, 
			 "total_energy": -3222.6574085, 
			 "HOMO_LUMO_gap": 0.14717, 
			 "cosmo_polarized_energy": -16.8, 
			 "cosmo_cavitation_energy": 32.02, 
			 "cosmo_dispersion_energy": -23.73, 
			 "cosmo_repulsion_energy": 1.82, 
			 "cosmo_total_nonelectrostatic_energy": 10.11, 
			 "SMD_solvation_energy": 5.38 
		},
		"coords": [
			{
				"x": -0.4353633051,
				"y": -4.0176892964,
				"z": 2.3096601487,
				"element": "O" 
			},
			{
				"x": -1.4471928017,
				"y": -3.7633333836,
				"z": 1.432442312,
				"element": "C" 
			},
			{
				"x": -2.4237918922,
				"y": -4.4754752291,
				"z": 1.4098531993,
				"element": "O" 
			},
			{
				"x": -1.302812418,
				"y": -2.5858349397,
				"z": 0.5360406116,
				"element": "C" 
			},
			{
				"x": -0.5364796002,
				"y": -1.5087207501,
				"z": 0.7880431032,
				"element": "C" 
			},
			{
				"x": -0.4896168809,
				"y": -0.2849397753,
				"z": -0.0268326428,
				"element": "C" 
			},
			{
				"x": -1.6236647435,
				"y": 0.1402125954,
				"z": -0.7033925289,
				"element": "C" 
			},
			{
				"x": -1.621121451,
				"y": 1.320580405,
				"z": -1.4707664929,
				"element": "C" 
			},
			{
				"x": -0.4873060477,
				"y": 2.0951438222,
				"z": -1.5559312801,
				"element": "C" 
			},
			{
				"x": 0.7021311831,
				"y": 1.7153270462,
				"z": -0.8818727967,
				"element": "C" 
			},
			{
				"x": 1.9061360271,
				"y": 2.4784355884,
				"z": -0.9383573669,
				"element": "C" 
			},
			{
				"x": 1.9710860507,
				"y": 4.1100729827,
				"z": -1.9404452358,
				"element": "Br" 
			},
			{
				"x": 3.0537782691,
				"y": 2.0849869303,
				"z": -0.2920660883,
				"element": "C" 
			},
			{
				"x": 3.0561987912,
				"y": 0.8835086249,
				"z": 0.4484344199,
				"element": "C" 
			},
			{
				"x": 1.9208883042,
				"y": 0.111260612,
				"z": 0.5339988392,
				"element": "C" 
			},
			{
				"x": 0.7145376766,
				"y": 0.5014288179,
				"z": -0.1067789807,
				"element": "C" 
			},
			{
				"x": 0.3373305411,
				"y": -3.4811053316,
				"z": 2.0863068182,
				"element": "H" 
			},
			{
				"x": -1.9474034356,
				"y": -2.6260525206,
				"z": -0.3365781694,
				"element": "H" 
			},
			{
				"x": 0.0749628756,
				"y": -1.5038016986,
				"z": 1.6896768772,
				"element": "H" 
			},
			{
				"x": -2.5422756527,
				"y": -0.4297976763,
				"z": -0.6097227367,
				"element": "H" 
			},
			{
				"x": -2.5278302675,
				"y": 1.6272109334,
				"z": -1.9829241539,
				"element": "H" 
			},
			{
				"x": -0.4899915143,
				"y": 3.009923869,
				"z": -2.1362098795,
				"element": "H" 
			},
			{
				"x": 3.9502895194,
				"y": 2.6902206489,
				"z": -0.3572021877,
				"element": "H" 
			},
			{
				"x": 3.9684796469,
				"y": 0.5707568001,
				"z": 0.9469922709,
				"element": "H" 
			},
			{
				"x": 1.9586311255,
				"y": -0.8185190753,
				"z": 1.0892319401,
				"element": "H" 
			}
		],
		 "valence_orbital": [ 
			{
				"type": "occ",
				"energy": -0.29708,
				"method": "rhf"
			},
			{
				"type": "occ",
				"energy": -0.27728,
				"method": "rhf"
			},
			{
				"type": "occ",
				"energy": -0.26885,
				"method": "rhf"
			},
			{
				"type": "occ",
				"energy": -0.26791,
				"method": "rhf"
			},
			{
				"type": "occ",
				"energy": -0.2299,
				"method": "rhf"
			},
			{
				"type": "unocc",
				"energy": -0.08273,
				"method": "rhf"
			},
			{
				"type": "unocc",
				"energy": -0.04377,
				"method": "rhf"
			},
			{
				"type": "unocc",
				"energy": -0.03378,
				"method": "rhf"
			},
			{
				"type": "unocc",
				"energy": -0.00263,
				"method": "rhf"
			},
			{
				"type": "unocc",
				"energy": 0.01996,
				"method": "rhf"
			}
		],
		"cosmo_sigma_profile": { 
			"-0.025": 0.0,
			"-0.024": 0.0,
			"-0.023": 0.0,
			"-0.022": 0.0,
			"-0.021": 0.0,
			"-0.02": 0.0,
			"-0.019": 0.0286418855186,
			"-0.018": 0.865261853459,
			"-0.017": 1.1872739654,
			"-0.016": 1.12543379094,
			"-0.015": 1.20926575405,
			"-0.014": 1.23417126836,
			"-0.013": 0.940677485237,
			"-0.012": 1.08226723778,
			"-0.011": 2.0570485742,
			"-0.01": 1.45597465559,
			"-0.009": 1.56920041455,
			"-0.008": 2.53955286215,
			"-0.007": 10.2679728021,
			"-0.006": 14.4408959714,
			"-0.005": 14.069234881,
			"-0.004": 13.3849822475,
			"-0.003": 13.7665875722,
			"-0.002": 13.8043753054,
			"-0.001": 14.8801123265,
			"0.0": 17.1089547075,
			"0.001": 24.7544763012,
			"0.002": 36.0382814722,
			"0.003": 25.1552094142,
			"0.004": 14.2813976625,
			"0.005": 4.60449438502,
			"0.006": 1.99894999842,
			"0.007": 2.54941375759,
			"0.008": 3.00819476251,
			"0.009": 2.78712402551,
			"0.01": 4.58178540685,
			"0.011": 5.07179897199,
			"0.012": 6.34933580816,
			"0.013": 2.76734038215,
			"0.014": 0.176353720704,
			"0.015": 0.0,
			"0.016": 0.0,
			"0.017": 0.0,
			"0.018": 0.0,
			"0.019": 0.0,
			"0.02": 0.0,
			"0.021": 0.0,
			"0.022": 0.0,
			"0.023": 0.0,
			"0.024": 0.0,
			"0.025": 0.0
		}
	}
}
