{
	 "smiles": "NC1=NC2=C(C=CC=C2)N1CCCN1C=CN=C1", 
	 "Tm": 452.15, 
	 "num_atms": 33, 
	 "gaussian": { 
		 "optdone": 1, 
		 "sigma_profile": "yes", 
		 "theory": "DFT", 
		 "functional": "B3LYP", 
		 "basiset": "6-31G**", 
		 "properties": { 
			 "R2extent": 4895.7719, 
			 "electric_dipole_moment_norm": 6.21005172442, 
			 "electric_quadrupole_moment_norm": 12.5214454257, 
			 "total_energy": -778.185946294, 
			 "HOMO_LUMO_gap": 0.20122, 
			 "cosmo_polarized_energy": -23.55, 
			 "cosmo_cavitation_energy": 35.23, 
			 "cosmo_dispersion_energy": -24.2, 
			 "cosmo_repulsion_energy": 1.83, 
			 "cosmo_total_nonelectrostatic_energy": 12.86, 
			 "SMD_solvation_energy": 2.01 
		},
		"coords": [
			{
				"x": 1.1394598365,
				"y": -0.6652190928,
				"z": 2.7096465103,
				"element": "N" 
			},
			{
				"x": 0.8597629189,
				"y": 0.6427681551,
				"z": 2.3343158472,
				"element": "C" 
			},
			{
				"x": 0.2341306012,
				"y": 1.5265249363,
				"z": 3.071239709,
				"element": "N" 
			},
			{
				"x": 0.246987408,
				"y": 2.6898006661,
				"z": 2.3128456449,
				"element": "C" 
			},
			{
				"x": 0.9009073994,
				"y": 2.4677012705,
				"z": 1.0764083999,
				"element": "C" 
			},
			{
				"x": 1.0425135598,
				"y": 3.4675188307,
				"z": 0.1157360385,
				"element": "C" 
			},
			{
				"x": 0.510592929,
				"y": 4.7225740625,
				"z": 0.4230209385,
				"element": "C" 
			},
			{
				"x": -0.143949958,
				"y": 4.9582533237,
				"z": 1.6440442792,
				"element": "C" 
			},
			{
				"x": -0.2839346751,
				"y": 3.9510698711,
				"z": 2.5985211401,
				"element": "C" 
			},
			{
				"x": 1.2967532962,
				"y": 1.1270970813,
				"z": 1.1088884853,
				"element": "N" 
			},
			{
				"x": 2.2671102035,
				"y": 0.5038623149,
				"z": 0.2181498127,
				"element": "C" 
			},
			{
				"x": 1.743515798,
				"y": -0.6470377919,
				"z": -0.6629746216,
				"element": "C" 
			},
			{
				"x": 0.3600080095,
				"y": -0.4244187326,
				"z": -1.3028819943,
				"element": "C" 
			},
			{
				"x": -0.7432789165,
				"y": -0.8580885584,
				"z": -0.4503094466,
				"element": "N" 
			},
			{
				"x": -1.0078656693,
				"y": -2.1622837433,
				"z": -0.064757961,
				"element": "C" 
			},
			{
				"x": -2.1363382729,
				"y": -2.0929175096,
				"z": 0.7170225275,
				"element": "C" 
			},
			{
				"x": -2.5737874352,
				"y": -0.7937918655,
				"z": 0.8251916455,
				"element": "N" 
			},
			{
				"x": -1.7211044528,
				"y": -0.0846215388,
				"z": 0.1161148803,
				"element": "C" 
			},
			{
				"x": 0.761524874,
				"y": -1.354087836,
				"z": 2.0644370487,
				"element": "H" 
			},
			{
				"x": 0.7626641692,
				"y": -0.8287126858,
				"z": 3.6371871614,
				"element": "H" 
			},
			{
				"x": 1.5461461027,
				"y": 3.2950155406,
				"z": -0.8315043765,
				"element": "H" 
			},
			{
				"x": 0.6045178307,
				"y": 5.5289468356,
				"z": -0.2982558468,
				"element": "H" 
			},
			{
				"x": -0.5491128844,
				"y": 5.9455843578,
				"z": 1.8455467844,
				"element": "H" 
			},
			{
				"x": -0.7898705544,
				"y": 4.1273906459,
				"z": 3.5422269617,
				"element": "H" 
			},
			{
				"x": 3.1107581213,
				"y": 0.1391687389,
				"z": 0.8150685943,
				"element": "H" 
			},
			{
				"x": 2.6490795803,
				"y": 1.3024088119,
				"z": -0.423360887,
				"element": "H" 
			},
			{
				"x": 2.4822296293,
				"y": -0.8032972647,
				"z": -1.4580621836,
				"element": "H" 
			},
			{
				"x": 1.7188128103,
				"y": -1.58088827,
				"z": -0.0916977321,
				"element": "H" 
			},
			{
				"x": 0.2991467488,
				"y": -0.976948357,
				"z": -2.2467154807,
				"element": "H" 
			},
			{
				"x": 0.1995327,
				"y": 0.6321892814,
				"z": -1.5356018169,
				"element": "H" 
			},
			{
				"x": -0.4089028515,
				"y": -2.9930183774,
				"z": -0.4073334978,
				"element": "H" 
			},
			{
				"x": -2.6603992276,
				"y": -2.907385545,
				"z": 1.1987797975,
				"element": "H" 
			},
			{
				"x": -1.7412096288,
				"y": 0.9894424446,
				"z": -0.0120363618,
				"element": "H" 
			}
		],
		 "valence_orbital": [ 
			{
				"type": "occ",
				"energy": -0.26446,
				"method": "rhf"
			},
			{
				"type": "occ",
				"energy": -0.26244,
				"method": "rhf"
			},
			{
				"type": "occ",
				"energy": -0.23086,
				"method": "rhf"
			},
			{
				"type": "occ",
				"energy": -0.21771,
				"method": "rhf"
			},
			{
				"type": "occ",
				"energy": -0.20264,
				"method": "rhf"
			},
			{
				"type": "unocc",
				"energy": -0.00142,
				"method": "rhf"
			},
			{
				"type": "unocc",
				"energy": 0.0188,
				"method": "rhf"
			},
			{
				"type": "unocc",
				"energy": 0.02568,
				"method": "rhf"
			},
			{
				"type": "unocc",
				"energy": 0.05064,
				"method": "rhf"
			},
			{
				"type": "unocc",
				"energy": 0.06708,
				"method": "rhf"
			}
		],
		"cosmo_sigma_profile": { 
			"-0.025": 0.0,
			"-0.024": 0.0,
			"-0.023": 0.0,
			"-0.022": 0.00157616827351,
			"-0.021": 0.0178624078417,
			"-0.02": 0.0064524818848,
			"-0.019": 0.0,
			"-0.018": 0.0,
			"-0.017": 0.0,
			"-0.016": 0.0,
			"-0.015": 0.0,
			"-0.014": 0.0,
			"-0.013": 0.855995262199,
			"-0.012": 1.01252527565,
			"-0.011": 1.00778912985,
			"-0.01": 1.77351655246,
			"-0.009": 2.32362814668,
			"-0.008": 5.83021166958,
			"-0.007": 11.8575718596,
			"-0.006": 20.6396206937,
			"-0.005": 28.3757555109,
			"-0.004": 25.9847209999,
			"-0.003": 22.6137454867,
			"-0.002": 19.4622314135,
			"-0.001": 13.4393176056,
			"0.0": 11.3090230982,
			"0.001": 9.83674694229,
			"0.002": 13.1183355921,
			"0.003": 12.2539487216,
			"0.004": 12.9088947309,
			"0.005": 13.9485049227,
			"0.006": 13.1310976291,
			"0.007": 8.52274288646,
			"0.008": 3.5938100532,
			"0.009": 4.05587155866,
			"0.01": 3.33914333826,
			"0.011": 2.65389372422,
			"0.012": 2.87350618082,
			"0.013": 3.24778402159,
			"0.014": 2.05973519428,
			"0.015": 2.34406276509,
			"0.016": 1.73822455593,
			"0.017": 2.09356383973,
			"0.018": 1.46151990119,
			"0.019": 0.165511178503,
			"0.02": 0.0,
			"0.021": 0.0,
			"0.022": 0.0,
			"0.023": 0.0,
			"0.024": 0.0,
			"0.025": 0.0
		}
	}
}
