{
	 "smiles": "CCOC(=O)C1=C(N)N(N=C1)C1=CC=C(F)C=C1", 
	 "Tm": 427.15, 
	 "num_atms": 30, 
	 "gaussian": { 
		 "optdone": 1, 
		 "sigma_profile": "yes", 
		 "theory": "DFT", 
		 "functional": "B3LYP", 
		 "basiset": "6-31G**", 
		 "properties": { 
			 "R2extent": 6896.7536, 
			 "electric_dipole_moment_norm": 1.65694137796, 
			 "electric_quadrupole_moment_norm": 7.16620392258, 
			 "total_energy": -879.053120513, 
			 "HOMO_LUMO_gap": 0.19289, 
			 "cosmo_polarized_energy": -12.12, 
			 "cosmo_cavitation_energy": 35.03, 
			 "cosmo_dispersion_energy": -25.47, 
			 "cosmo_repulsion_energy": 1.95, 
			 "cosmo_total_nonelectrostatic_energy": 11.51, 
			 "SMD_solvation_energy": 6.83 
		},
		"coords": [
			{
				"x": -3.8021381243,
				"y": 0.5567629027,
				"z": -4.2296593175,
				"element": "C" 
			},
			{
				"x": -2.3518346715,
				"y": 1.002230518,
				"z": -4.3467583632,
				"element": "C" 
			},
			{
				"x": -1.5283518213,
				"y": 0.393440826,
				"z": -3.3258126928,
				"element": "O" 
			},
			{
				"x": -1.4853883217,
				"y": 1.0195432362,
				"z": -2.1276909705,
				"element": "C" 
			},
			{
				"x": -2.0958742597,
				"y": 2.0597953472,
				"z": -1.8865323589,
				"element": "O" 
			},
			{
				"x": -0.6516490803,
				"y": 0.3302645368,
				"z": -1.1642307353,
				"element": "C" 
			},
			{
				"x": -0.4614715724,
				"y": 0.7761568733,
				"z": 0.1507613936,
				"element": "C" 
			},
			{
				"x": -0.9266980006,
				"y": 1.929092029,
				"z": 0.7254271012,
				"element": "N" 
			},
			{
				"x": 0.3297076028,
				"y": -0.1520806214,
				"z": 0.7634571048,
				"element": "N" 
			},
			{
				"x": 0.6432672625,
				"y": -1.2023942899,
				"z": -0.0880481773,
				"element": "N" 
			},
			{
				"x": 0.0627658532,
				"y": -0.8963476057,
				"z": -1.2294150804,
				"element": "C" 
			},
			{
				"x": 0.7913794911,
				"y": -0.1871613236,
				"z": 2.1052179821,
				"element": "C" 
			},
			{
				"x": 1.1604407123,
				"y": 0.9890566554,
				"z": 2.7707554232,
				"element": "C" 
			},
			{
				"x": 1.6091263421,
				"y": 0.9299600765,
				"z": 4.0904675877,
				"element": "C" 
			},
			{
				"x": 1.7041862173,
				"y": -0.3068822451,
				"z": 4.7159078806,
				"element": "C" 
			},
			{
				"x": 2.1422349553,
				"y": -0.3658386361,
				"z": 5.989869094,
				"element": "F" 
			},
			{
				"x": 1.3655306769,
				"y": -1.4874932022,
				"z": 4.0616172296,
				"element": "C" 
			},
			{
				"x": 0.9017285054,
				"y": -1.4255334701,
				"z": 2.75099913,
				"element": "C" 
			},
			{
				"x": -3.8786920415,
				"y": -0.5340972853,
				"z": -4.2622809843,
				"element": "H" 
			},
			{
				"x": -4.2380176973,
				"y": 0.9147733492,
				"z": -3.2938084592,
				"element": "H" 
			},
			{
				"x": -4.3860269587,
				"y": 0.9675968409,
				"z": -5.0602451926,
				"element": "H" 
			},
			{
				"x": -1.9063373294,
				"y": 0.669548281,
				"z": -5.2875113302,
				"element": "H" 
			},
			{
				"x": -2.2667258621,
				"y": 2.0886560051,
				"z": -4.2694622796,
				"element": "H" 
			},
			{
				"x": -1.6166071862,
				"y": 2.3798008146,
				"z": 0.128693824,
				"element": "H" 
			},
			{
				"x": -1.153269887,
				"y": 1.8899323815,
				"z": 1.7101986644,
				"element": "H" 
			},
			{
				"x": 0.1605328701,
				"y": -1.5558873797,
				"z": -2.0807970909,
				"element": "H" 
			},
			{
				"x": 1.1194760988,
				"y": 1.9418845373,
				"z": 2.2554246098,
				"element": "H" 
			},
			{
				"x": 1.9014779578,
				"y": 1.8265458027,
				"z": 4.6258116508,
				"element": "H" 
			},
			{
				"x": 1.461195959,
				"y": -2.4345194616,
				"z": 4.5812896462,
				"element": "H" 
			},
			{
				"x": 0.6357323094,
				"y": -2.3251054927,
				"z": 2.2095547109,
				"element": "H" 
			}
		],
		 "valence_orbital": [ 
			{
				"type": "occ",
				"energy": -0.28875,
				"method": "rhf"
			},
			{
				"type": "occ",
				"energy": -0.27418,
				"method": "rhf"
			},
			{
				"type": "occ",
				"energy": -0.26964,
				"method": "rhf"
			},
			{
				"type": "occ",
				"energy": -0.2325,
				"method": "rhf"
			},
			{
				"type": "occ",
				"energy": -0.21791,
				"method": "rhf"
			},
			{
				"type": "unocc",
				"energy": -0.02502,
				"method": "rhf"
			},
			{
				"type": "unocc",
				"energy": -0.02356,
				"method": "rhf"
			},
			{
				"type": "unocc",
				"energy": -0.00472,
				"method": "rhf"
			},
			{
				"type": "unocc",
				"energy": 0.03641,
				"method": "rhf"
			},
			{
				"type": "unocc",
				"energy": 0.08064,
				"method": "rhf"
			}
		],
		"cosmo_sigma_profile": { 
			"-0.025": 0.0,
			"-0.024": 0.0,
			"-0.023": 0.0,
			"-0.022": 0.0,
			"-0.021": 0.0,
			"-0.02": 0.0,
			"-0.019": 0.0,
			"-0.018": 0.0,
			"-0.017": 0.0,
			"-0.016": 0.0,
			"-0.015": 0.0,
			"-0.014": 0.443119076914,
			"-0.013": 1.0949597784,
			"-0.012": 1.39868480257,
			"-0.011": 1.15459194621,
			"-0.01": 2.5220179937,
			"-0.009": 2.02029917167,
			"-0.008": 4.4562366789,
			"-0.007": 8.49036728376,
			"-0.006": 10.2524910147,
			"-0.005": 14.4481937935,
			"-0.004": 16.5713582004,
			"-0.003": 21.0114252496,
			"-0.002": 18.9877790156,
			"-0.001": 20.5178286579,
			"0.0": 28.6833466471,
			"0.001": 24.8053125234,
			"0.002": 26.9905873985,
			"0.003": 21.2738689497,
			"0.004": 17.8598614825,
			"0.005": 8.43218538113,
			"0.006": 4.59129699184,
			"0.007": 6.32805042427,
			"0.008": 3.50036392775,
			"0.009": 3.85599967462,
			"0.01": 2.73872607295,
			"0.011": 2.55134144628,
			"0.012": 3.03990555611,
			"0.013": 1.17200270479,
			"0.014": 0.718939059417,
			"0.015": 0.0960120586874,
			"0.016": 0.0,
			"0.017": 0.0,
			"0.018": 0.0,
			"0.019": 0.0,
			"0.02": 0.0,
			"0.021": 0.0,
			"0.022": 0.0,
			"0.023": 0.0,
			"0.024": 0.0,
			"0.025": 0.0
		}
	}
}
