{
	 "smiles": "ClC1=CC2=C(C3=C(O2)C=C(Cl)C=C3Cl)C(Cl)=C1", 
	 "Tm": 480.15, 
	 "num_atms": 21, 
	 "gaussian": { 
		 "optdone": 1, 
		 "sigma_profile": "yes", 
		 "theory": "DFT", 
		 "functional": "B3LYP", 
		 "basiset": "6-31G**", 
		 "properties": { 
			 "R2extent": 7178.3051, 
			 "electric_dipole_moment_norm": 1.19789200682, 
			 "electric_quadrupole_moment_norm": 4.02995844644, 
			 "total_energy": -2375.67722574, 
			 "HOMO_LUMO_gap": 0.1731, 
			 "cosmo_polarized_energy": -4.9, 
			 "cosmo_cavitation_energy": 32.88, 
			 "cosmo_dispersion_energy": -25.04, 
			 "cosmo_repulsion_energy": 1.9, 
			 "cosmo_total_nonelectrostatic_energy": 9.74, 
			 "SMD_solvation_energy": 4.51 
		},
		"coords": [
			{
				"x": 0.3017302847,
				"y": 4.8130759367,
				"z": -1.7539877436,
				"element": "Cl" 
			},
			{
				"x": 0.4294484006,
				"y": 3.2393933174,
				"z": -0.998564275,
				"element": "C" 
			},
			{
				"x": 0.4894958395,
				"y": 2.1022977817,
				"z": -1.7945236364,
				"element": "C" 
			},
			{
				"x": 0.589657267,
				"y": 0.8973954265,
				"z": -1.1175130243,
				"element": "C" 
			},
			{
				"x": 0.6349454599,
				"y": 0.7313594824,
				"z": 0.2887986078,
				"element": "C" 
			},
			{
				"x": 0.7407288569,
				"y": -0.7193959972,
				"z": 0.4904133421,
				"element": "C" 
			},
			{
				"x": 0.7474235529,
				"y": -1.2653531106,
				"z": -0.8169563721,
				"element": "C" 
			},
			{
				"x": 0.6570509603,
				"y": -0.2972742335,
				"z": -1.7764629624,
				"element": "O" 
			},
			{
				"x": 0.83331739,
				"y": -2.610215527,
				"z": -1.1396448217,
				"element": "C" 
			},
			{
				"x": 0.9199667518,
				"y": -3.4852932469,
				"z": -0.0640669291,
				"element": "C" 
			},
			{
				"x": 1.032660452,
				"y": -5.206400032,
				"z": -0.3616335879,
				"element": "Cl" 
			},
			{
				"x": 0.9195990742,
				"y": -3.0259789303,
				"z": 1.2566124359,
				"element": "C" 
			},
			{
				"x": 0.8313751294,
				"y": -1.6619041112,
				"z": 1.5364558353,
				"element": "C" 
			},
			{
				"x": 0.8423565189,
				"y": -1.2365562265,
				"z": 3.2299015735,
				"element": "Cl" 
			},
			{
				"x": 0.5698448244,
				"y": 1.9252007088,
				"z": 1.0379583647,
				"element": "C" 
			},
			{
				"x": 0.6078967212,
				"y": 1.9812068194,
				"z": 2.7827314494,
				"element": "Cl" 
			},
			{
				"x": 0.4684793617,
				"y": 3.1603480563,
				"z": 0.3969231423,
				"element": "C" 
			},
			{
				"x": 0.460746025,
				"y": 2.1417552165,
				"z": -2.8757938213,
				"element": "H" 
			},
			{
				"x": 0.8319936873,
				"y": -2.9451507589,
				"z": -2.1688907424,
				"element": "H" 
			},
			{
				"x": 0.9883146526,
				"y": -3.7320152035,
				"z": 2.0742152037,
				"element": "H" 
			},
			{
				"x": 0.4198687898,
				"y": 4.064004632,
				"z": 0.9908279618,
				"element": "H" 
			}
		],
		 "valence_orbital": [ 
			{
				"type": "occ",
				"energy": -0.30391,
				"method": "rhf"
			},
			{
				"type": "occ",
				"energy": -0.29337,
				"method": "rhf"
			},
			{
				"type": "occ",
				"energy": -0.27393,
				"method": "rhf"
			},
			{
				"type": "occ",
				"energy": -0.25084,
				"method": "rhf"
			},
			{
				"type": "occ",
				"energy": -0.24058,
				"method": "rhf"
			},
			{
				"type": "unocc",
				"energy": -0.06748,
				"method": "rhf"
			},
			{
				"type": "unocc",
				"energy": -0.0329,
				"method": "rhf"
			},
			{
				"type": "unocc",
				"energy": -0.01748,
				"method": "rhf"
			},
			{
				"type": "unocc",
				"energy": -0.00286,
				"method": "rhf"
			},
			{
				"type": "unocc",
				"energy": -0.00027,
				"method": "rhf"
			}
		],
		"cosmo_sigma_profile": { 
			"-0.025": 0.0,
			"-0.024": 0.0,
			"-0.023": 0.0,
			"-0.022": 0.0,
			"-0.021": 0.0,
			"-0.02": 0.0,
			"-0.019": 0.0,
			"-0.018": 0.0,
			"-0.017": 0.0,
			"-0.016": 0.0,
			"-0.015": 0.0,
			"-0.014": 0.0,
			"-0.013": 0.0,
			"-0.012": 0.0,
			"-0.011": 0.0,
			"-0.01": 0.410665784048,
			"-0.009": 3.27547977106,
			"-0.008": 4.86635191174,
			"-0.007": 6.25990395906,
			"-0.006": 5.50617238862,
			"-0.005": 5.39636480573,
			"-0.004": 9.06324057199,
			"-0.003": 11.9545918057,
			"-0.002": 21.5477609953,
			"-0.001": 32.9880141906,
			"0.0": 49.7175656002,
			"0.001": 37.6085384509,
			"0.002": 21.4074524324,
			"0.003": 29.3923297323,
			"0.004": 29.3068034086,
			"0.005": 5.18007317068,
			"0.006": 1.2841897585,
			"0.007": 0.237416667558,
			"0.008": 0.0,
			"0.009": 0.0,
			"0.01": 0.0,
			"0.011": 0.0,
			"0.012": 0.0,
			"0.013": 0.0,
			"0.014": 0.0,
			"0.015": 0.0,
			"0.016": 0.0,
			"0.017": 0.0,
			"0.018": 0.0,
			"0.019": 0.0,
			"0.02": 0.0,
			"0.021": 0.0,
			"0.022": 0.0,
			"0.023": 0.0,
			"0.024": 0.0,
			"0.025": 0.0
		}
	}
}
