{
	 "smiles": "CC1=C2C=CC=CC2=NC2=CC=CC=C12", 
	 "Tm": 391.15, 
	 "num_atms": 26, 
	 "gaussian": { 
		 "optdone": 1, 
		 "sigma_profile": "yes", 
		 "theory": "DFT", 
		 "functional": "B3LYP", 
		 "basiset": "6-31G**", 
		 "properties": { 
			 "R2extent": 3686.5779, 
			 "electric_dipole_moment_norm": 2.29948565988, 
			 "electric_quadrupole_moment_norm": 11.0512833454, 
			 "total_energy": -594.888511057, 
			 "HOMO_LUMO_gap": 0.13362, 
			 "cosmo_polarized_energy": -8.25, 
			 "cosmo_cavitation_energy": 28.67, 
			 "cosmo_dispersion_energy": -21.69, 
			 "cosmo_repulsion_energy": 1.64, 
			 "cosmo_total_nonelectrostatic_energy": 8.62, 
			 "SMD_solvation_energy": 2.97 
		},
		"coords": [
			{
				"x": 2.3674320089,
				"y": -0.4798317724,
				"z": 1.9560410703,
				"element": "C" 
			},
			{
				"x": 1.5969194877,
				"y": -0.6224060017,
				"z": 0.664425609,
				"element": "C" 
			},
			{
				"x": 1.4420120603,
				"y": -1.8838654684,
				"z": 0.0466862694,
				"element": "C" 
			},
			{
				"x": 2.0076780207,
				"y": -3.0956705622,
				"z": 0.559421535,
				"element": "C" 
			},
			{
				"x": 1.8225039534,
				"y": -4.29385669,
				"z": -0.0802065997,
				"element": "C" 
			},
			{
				"x": 1.0555796769,
				"y": -4.3672063203,
				"z": -1.2782082264,
				"element": "C" 
			},
			{
				"x": 0.5001747881,
				"y": -3.2346624831,
				"z": -1.8089258676,
				"element": "C" 
			},
			{
				"x": 0.6762930402,
				"y": -1.9624750355,
				"z": -1.1775529029,
				"element": "C" 
			},
			{
				"x": 0.1129843878,
				"y": -0.896617571,
				"z": -1.7659499748,
				"element": "N" 
			},
			{
				"x": 0.2836271543,
				"y": 0.3045734425,
				"z": -1.1935948396,
				"element": "C" 
			},
			{
				"x": -0.3083987876,
				"y": 1.4346677888,
				"z": -1.8420493594,
				"element": "C" 
			},
			{
				"x": -0.1676147372,
				"y": 2.6951750739,
				"z": -1.3281593662,
				"element": "C" 
			},
			{
				"x": 0.5760897586,
				"y": 2.9004152492,
				"z": -0.13084238,
				"element": "C" 
			},
			{
				"x": 1.1518170742,
				"y": 1.8431809762,
				"z": 0.524783289,
				"element": "C" 
			},
			{
				"x": 1.0281106872,
				"y": 0.5048544236,
				"z": 0.0299066395,
				"element": "C" 
			},
			{
				"x": 2.293943218,
				"y": -1.3782300689,
				"z": 2.571050637,
				"element": "H" 
			},
			{
				"x": 1.9946401292,
				"y": 0.3498604739,
				"z": 2.5588608147,
				"element": "H" 
			},
			{
				"x": 3.4327278031,
				"y": -0.2966463923,
				"z": 1.7667564961,
				"element": "H" 
			},
			{
				"x": 2.6057935591,
				"y": -3.0664432974,
				"z": 1.4631906179,
				"element": "H" 
			},
			{
				"x": 2.2652295735,
				"y": -5.1980900233,
				"z": 0.3273609125,
				"element": "H" 
			},
			{
				"x": 0.9174526997,
				"y": -5.3270008417,
				"z": -1.7676969267,
				"element": "H" 
			},
			{
				"x": -0.0855696177,
				"y": -3.2516769897,
				"z": -2.7221465866,
				"element": "H" 
			},
			{
				"x": -0.8633823108,
				"y": 1.2412057046,
				"z": -2.7541481955,
				"element": "H" 
			},
			{
				"x": -0.6191816019,
				"y": 3.5458178846,
				"z": -1.8305316875,
				"element": "H" 
			},
			{
				"x": 0.6877696818,
				"y": 3.9063454729,
				"z": 0.2633482003,
				"element": "H" 
			},
			{
				"x": 1.7225682924,
				"y": 2.0291830277,
				"z": 1.4275808221,
				"element": "H" 
			}
		],
		 "valence_orbital": [ 
			{
				"type": "occ",
				"energy": -0.29539,
				"method": "rhf"
			},
			{
				"type": "occ",
				"energy": -0.25661,
				"method": "rhf"
			},
			{
				"type": "occ",
				"energy": -0.2478,
				"method": "rhf"
			},
			{
				"type": "occ",
				"energy": -0.24204,
				"method": "rhf"
			},
			{
				"type": "occ",
				"energy": -0.20485,
				"method": "rhf"
			},
			{
				"type": "unocc",
				"energy": -0.07123,
				"method": "rhf"
			},
			{
				"type": "unocc",
				"energy": -0.01509,
				"method": "rhf"
			},
			{
				"type": "unocc",
				"energy": 0.00528,
				"method": "rhf"
			},
			{
				"type": "unocc",
				"energy": 0.03595,
				"method": "rhf"
			},
			{
				"type": "unocc",
				"energy": 0.05915,
				"method": "rhf"
			}
		],
		"cosmo_sigma_profile": { 
			"-0.025": 0.0,
			"-0.024": 0.0,
			"-0.023": 0.0,
			"-0.022": 0.0,
			"-0.021": 0.0,
			"-0.02": 0.0,
			"-0.019": 0.0,
			"-0.018": 0.0,
			"-0.017": 0.0,
			"-0.016": 0.0,
			"-0.015": 0.0,
			"-0.014": 0.0,
			"-0.013": 0.0,
			"-0.012": 0.0,
			"-0.011": 0.0,
			"-0.01": 0.0,
			"-0.009": 0.0,
			"-0.008": 0.0516313063599,
			"-0.007": 3.22468151885,
			"-0.006": 13.1180454029,
			"-0.005": 19.9862481251,
			"-0.004": 20.5951991892,
			"-0.003": 20.1761995642,
			"-0.002": 16.1320169981,
			"-0.001": 16.6734758726,
			"0.0": 12.8723708709,
			"0.001": 17.1978124526,
			"0.002": 21.5021281525,
			"0.003": 23.3925926667,
			"0.004": 23.4355758763,
			"0.005": 10.2215168386,
			"0.006": 1.86527646627,
			"0.007": 1.51104527495,
			"0.008": 1.45555942701,
			"0.009": 1.52192349474,
			"0.01": 1.05071268298,
			"0.011": 1.10374036737,
			"0.012": 0.777149636779,
			"0.013": 0.656132772489,
			"0.014": 0.887599711548,
			"0.015": 0.770404145352,
			"0.016": 0.349369552869,
			"0.017": 0.0,
			"0.018": 0.0,
			"0.019": 0.0,
			"0.02": 0.0,
			"0.021": 0.0,
			"0.022": 0.0,
			"0.023": 0.0,
			"0.024": 0.0,
			"0.025": 0.0
		}
	}
}
