{
	 "smiles": "OC1=CC=C(C=CC2=CC=CC=C2)C=C1", 
	 "Tm": 460.15, 
	 "num_atms": 27, 
	 "gaussian": { 
		 "optdone": 1, 
		 "sigma_profile": "yes", 
		 "theory": "DFT", 
		 "functional": "B3LYP", 
		 "basiset": "6-31G**", 
		 "properties": { 
			 "R2extent": 4510.8473, 
			 "electric_dipole_moment_norm": 1.39762699602, 
			 "electric_quadrupole_moment_norm": 8.05156646063, 
			 "total_energy": -615.928828131, 
			 "HOMO_LUMO_gap": 0.15936, 
			 "cosmo_polarized_energy": -9.96, 
			 "cosmo_cavitation_energy": 30.98, 
			 "cosmo_dispersion_energy": -22.26, 
			 "cosmo_repulsion_energy": 1.74, 
			 "cosmo_total_nonelectrostatic_energy": 10.46, 
			 "SMD_solvation_energy": 5.44 
		},
		"coords": [
			{
				"x": -3.8038411651,
				"y": -1.0951091567,
				"z": -1.9284010508,
				"element": "O" 
			},
			{
				"x": -2.690353062,
				"y": -1.2816210713,
				"z": -1.1603106822,
				"element": "C" 
			},
			{
				"x": -2.5042310371,
				"y": -2.5418815592,
				"z": -0.5823312294,
				"element": "C" 
			},
			{
				"x": -1.3822988234,
				"y": -2.7782963934,
				"z": 0.2032715545,
				"element": "C" 
			},
			{
				"x": -0.4262401821,
				"y": -1.7756577703,
				"z": 0.4581538045,
				"element": "C" 
			},
			{
				"x": 0.7594745781,
				"y": -2.1094731117,
				"z": 1.2650472522,
				"element": "C" 
			},
			{
				"x": 1.5491558878,
				"y": -1.3456482465,
				"z": 2.0501107386,
				"element": "C" 
			},
			{
				"x": 1.4155479606,
				"y": 0.0574537172,
				"z": 2.4862449506,
				"element": "C" 
			},
			{
				"x": 0.1737912911,
				"y": 0.6603201411,
				"z": 2.7624747194,
				"element": "C" 
			},
			{
				"x": 0.104055937,
				"y": 1.9723195156,
				"z": 3.2253806004,
				"element": "C" 
			},
			{
				"x": 1.2706224675,
				"y": 2.715044539,
				"z": 3.4282133377,
				"element": "C" 
			},
			{
				"x": 2.5109002684,
				"y": 2.1265976356,
				"z": 3.1757990575,
				"element": "C" 
			},
			{
				"x": 2.5805773857,
				"y": 0.8107660692,
				"z": 2.7203279337,
				"element": "C" 
			},
			{
				"x": -0.6259237302,
				"y": -0.5233288209,
				"z": -0.1499078981,
				"element": "C" 
			},
			{
				"x": -1.7402631439,
				"y": -0.2756052986,
				"z": -0.9457161775,
				"element": "C" 
			},
			{
				"x": -3.8047112545,
				"y": -0.1914175736,
				"z": -2.2698215845,
				"element": "H" 
			},
			{
				"x": -3.2397690013,
				"y": -3.3182291325,
				"z": -0.7653568017,
				"element": "H" 
			},
			{
				"x": -1.2419241737,
				"y": -3.7641316621,
				"z": 0.6395555051,
				"element": "H" 
			},
			{
				"x": 1.0525630711,
				"y": -3.1567787245,
				"z": 1.1899828128,
				"element": "H" 
			},
			{
				"x": 2.4330050651,
				"y": -1.842620132,
				"z": 2.4496070758,
				"element": "H" 
			},
			{
				"x": -0.7372636994,
				"y": 0.0880509174,
				"z": 2.6246240325,
				"element": "H" 
			},
			{
				"x": -0.8653026267,
				"y": 2.4146265456,
				"z": 3.4385803379,
				"element": "H" 
			},
			{
				"x": 1.2126550506,
				"y": 3.7376332515,
				"z": 3.7899100695,
				"element": "H" 
			},
			{
				"x": 3.425538201,
				"y": 2.6896324368,
				"z": 3.3398729149,
				"element": "H" 
			},
			{
				"x": 3.5502432457,
				"y": 0.3550785879,
				"z": 2.5352241075,
				"element": "H" 
			},
			{
				"x": 0.1065584595,
				"y": 0.2634145535,
				"z": -0.0085013203,
				"element": "H" 
			},
			{
				"x": -1.8676669698,
				"y": 0.6998607428,
				"z": -1.4114340608,
				"element": "H" 
			}
		],
		 "valence_orbital": [ 
			{
				"type": "occ",
				"energy": -0.2872,
				"method": "rhf"
			},
			{
				"type": "occ",
				"energy": -0.25365,
				"method": "rhf"
			},
			{
				"type": "occ",
				"energy": -0.24596,
				"method": "rhf"
			},
			{
				"type": "occ",
				"energy": -0.24198,
				"method": "rhf"
			},
			{
				"type": "occ",
				"energy": -0.19754,
				"method": "rhf"
			},
			{
				"type": "unocc",
				"energy": -0.03818,
				"method": "rhf"
			},
			{
				"type": "unocc",
				"energy": -0.00559,
				"method": "rhf"
			},
			{
				"type": "unocc",
				"energy": 0.00685,
				"method": "rhf"
			},
			{
				"type": "unocc",
				"energy": 0.01775,
				"method": "rhf"
			},
			{
				"type": "unocc",
				"energy": 0.0685,
				"method": "rhf"
			}
		],
		"cosmo_sigma_profile": { 
			"-0.025": 0.0,
			"-0.024": 0.0,
			"-0.023": 0.0,
			"-0.022": 0.0,
			"-0.021": 0.0,
			"-0.02": 0.0,
			"-0.019": 0.0,
			"-0.018": 0.316720027826,
			"-0.017": 0.964061935249,
			"-0.016": 1.40719818672,
			"-0.015": 1.27741465261,
			"-0.014": 0.463900087635,
			"-0.013": 1.26698382125,
			"-0.012": 0.658285049481,
			"-0.011": 1.04104553174,
			"-0.01": 1.42646607062,
			"-0.009": 1.16737488775,
			"-0.008": 0.634261739126,
			"-0.007": 1.54469539849,
			"-0.006": 6.84554286702,
			"-0.005": 19.8656028134,
			"-0.004": 22.2861817218,
			"-0.003": 21.651692509,
			"-0.002": 13.9970993721,
			"-0.001": 15.6918405524,
			"0.0": 12.7641666635,
			"0.001": 16.2026739256,
			"0.002": 15.6860587672,
			"0.003": 21.8657308982,
			"0.004": 24.4506835189,
			"0.005": 22.5880247161,
			"0.006": 12.8314027151,
			"0.007": 1.80025456865,
			"0.008": 0.979749548846,
			"0.009": 1.77088343467,
			"0.01": 1.78488315335,
			"0.011": 1.74740154509,
			"0.012": 0.609423096637,
			"0.013": 0.0,
			"0.014": 0.0,
			"0.015": 0.0,
			"0.016": 0.0,
			"0.017": 0.0,
			"0.018": 0.0,
			"0.019": 0.0,
			"0.02": 0.0,
			"0.021": 0.0,
			"0.022": 0.0,
			"0.023": 0.0,
			"0.024": 0.0,
			"0.025": 0.0
		}
	}
}
