{
	 "smiles": "CC1=NC(=CN1CCC(N)=NO)[N+]([O-])=O", 
	 "Tm": 480.15, 
	 "num_atms": 26, 
	 "gaussian": { 
		 "optdone": 1, 
		 "sigma_profile": "yes", 
		 "theory": "DFT", 
		 "functional": "B3LYP", 
		 "basiset": "6-31G**", 
		 "properties": { 
			 "R2extent": 3942.2873, 
			 "electric_dipole_moment_norm": 9.97855413474, 
			 "electric_quadrupole_moment_norm": 22.9442772952, 
			 "total_energy": -772.65323652, 
			 "HOMO_LUMO_gap": 0.17397, 
			 "cosmo_polarized_energy": -28.12, 
			 "cosmo_cavitation_energy": 31.19, 
			 "cosmo_dispersion_energy": -21.51, 
			 "cosmo_repulsion_energy": 1.74, 
			 "cosmo_total_nonelectrostatic_energy": 11.42, 
			 "SMD_solvation_energy": 6.52 
		},
		"coords": [
			{
				"x": -0.1184027549,
				"y": 2.1407721204,
				"z": 0.4684177279,
				"element": "C" 
			},
			{
				"x": 0.9944080245,
				"y": 1.2095329961,
				"z": 0.1127188982,
				"element": "C" 
			},
			{
				"x": 1.9529085467,
				"y": 1.4773839257,
				"z": -0.7490742125,
				"element": "N" 
			},
			{
				"x": 2.7445806767,
				"y": 0.3691220458,
				"z": -0.7462698609,
				"element": "C" 
			},
			{
				"x": 2.2878464075,
				"y": -0.5953470695,
				"z": 0.1176799673,
				"element": "C" 
			},
			{
				"x": 1.159294845,
				"y": -0.0490649947,
				"z": 0.6742850046,
				"element": "N" 
			},
			{
				"x": 0.2915940446,
				"y": -0.716489774,
				"z": 1.6409528914,
				"element": "C" 
			},
			{
				"x": -0.5492415078,
				"y": -1.8519485769,
				"z": 1.0199675675,
				"element": "C" 
			},
			{
				"x": -1.5313201984,
				"y": -1.3813201237,
				"z": -0.0184863371,
				"element": "C" 
			},
			{
				"x": -2.5799962083,
				"y": -0.5745469165,
				"z": 0.3934089895,
				"element": "N" 
			},
			{
				"x": -1.2793513569,
				"y": -1.6835107637,
				"z": -1.245071134,
				"element": "N" 
			},
			{
				"x": -2.2865203871,
				"y": -1.1409291773,
				"z": -2.0873039403,
				"element": "O" 
			},
			{
				"x": 3.9258054138,
				"y": 0.2487127932,
				"z": -1.5623596723,
				"element": "N" 
			},
			{
				"x": 4.2240285353,
				"y": 1.1806376228,
				"z": -2.302206919,
				"element": "O" 
			},
			{
				"x": 4.560382772,
				"y": -0.8087003619,
				"z": -1.4498149973,
				"element": "O" 
			},
			{
				"x": -0.0326746758,
				"y": 3.0208897236,
				"z": -0.169733515,
				"element": "H" 
			},
			{
				"x": -0.055249789,
				"y": 2.4698713385,
				"z": 1.5130522881,
				"element": "H" 
			},
			{
				"x": -1.1006612849,
				"y": 1.6821342376,
				"z": 0.3160500933,
				"element": "H" 
			},
			{
				"x": 2.6646698612,
				"y": -1.5742796702,
				"z": 0.3636768675,
				"element": "H" 
			},
			{
				"x": -0.35570495,
				"y": 0.0425842342,
				"z": 2.0838801194,
				"element": "H" 
			},
			{
				"x": 0.9167763521,
				"y": -1.1242349769,
				"z": 2.4416700189,
				"element": "H" 
			},
			{
				"x": -1.0807896979,
				"y": -2.358874244,
				"z": 1.8371369958,
				"element": "H" 
			},
			{
				"x": 0.1067315203,
				"y": -2.5883213877,
				"z": 0.5500715834,
				"element": "H" 
			},
			{
				"x": -3.277314035,
				"y": -0.4280490005,
				"z": -0.3259611984,
				"element": "H" 
			},
			{
				"x": -2.9678751367,
				"y": -0.7816723559,
				"z": 1.3035930216,
				"element": "H" 
			},
			{
				"x": -1.999225017,
				"y": -1.4328516447,
				"z": -2.9610802473,
				"element": "H" 
			}
		],
		 "valence_orbital": [ 
			{
				"type": "occ",
				"energy": -0.28408,
				"method": "rhf"
			},
			{
				"type": "occ",
				"energy": -0.28365,
				"method": "rhf"
			},
			{
				"type": "occ",
				"energy": -0.2672,
				"method": "rhf"
			},
			{
				"type": "occ",
				"energy": -0.24223,
				"method": "rhf"
			},
			{
				"type": "occ",
				"energy": -0.23406,
				"method": "rhf"
			},
			{
				"type": "unocc",
				"energy": -0.06009,
				"method": "rhf"
			},
			{
				"type": "unocc",
				"energy": 0.0083,
				"method": "rhf"
			},
			{
				"type": "unocc",
				"energy": 0.01358,
				"method": "rhf"
			},
			{
				"type": "unocc",
				"energy": 0.05041,
				"method": "rhf"
			},
			{
				"type": "unocc",
				"energy": 0.07231,
				"method": "rhf"
			}
		],
		"cosmo_sigma_profile": { 
			"-0.025": 0.0,
			"-0.024": 0.0,
			"-0.023": 0.0,
			"-0.022": 0.0,
			"-0.021": 0.0,
			"-0.02": 0.0,
			"-0.019": 0.0,
			"-0.018": 0.0,
			"-0.017": 0.418770864886,
			"-0.016": 0.77912872401,
			"-0.015": 0.88977251754,
			"-0.014": 1.66083718162,
			"-0.013": 2.04416911257,
			"-0.012": 2.53592099464,
			"-0.011": 4.26788712939,
			"-0.01": 5.81231154508,
			"-0.009": 6.19608873149,
			"-0.008": 7.34407258171,
			"-0.007": 12.9469548064,
			"-0.006": 14.2055832028,
			"-0.005": 13.993137737,
			"-0.004": 12.6442296828,
			"-0.003": 11.9928123171,
			"-0.002": 14.2640185943,
			"-0.001": 14.7989489651,
			"0.0": 11.4676735476,
			"0.001": 9.61862081298,
			"0.002": 10.3648092013,
			"0.003": 8.83256090311,
			"0.004": 8.01709175071,
			"0.005": 8.28775632663,
			"0.006": 6.23204346088,
			"0.007": 8.49519689709,
			"0.008": 14.6078584999,
			"0.009": 11.3844101888,
			"0.01": 8.06986725612,
			"0.011": 4.77790518231,
			"0.012": 2.32368808791,
			"0.013": 2.05547796714,
			"0.014": 2.28810856528,
			"0.015": 1.51037486069,
			"0.016": 1.0378954955,
			"0.017": 0.227504608615,
			"0.018": 0.0,
			"0.019": 0.0,
			"0.02": 0.0,
			"0.021": 0.0,
			"0.022": 0.0,
			"0.023": 0.0,
			"0.024": 0.0,
			"0.025": 0.0
		}
	}
}
