{
	 "smiles": "[O-][N+](=O)C1=CC=CNC1=O", 
	 "Tm": 505.15, 
	 "num_atms": 14, 
	 "gaussian": { 
		 "optdone": 1, 
		 "sigma_profile": "yes", 
		 "theory": "DFT", 
		 "functional": "B3LYP", 
		 "basiset": "6-31G**", 
		 "properties": { 
			 "R2extent": 1614.0436, 
			 "electric_dipole_moment_norm": 7.83718312342, 
			 "electric_quadrupole_moment_norm": 7.39769840356, 
			 "total_energy": -528.006537596, 
			 "HOMO_LUMO_gap": 0.15325, 
			 "cosmo_polarized_energy": -21.96, 
			 "cosmo_cavitation_energy": 19.49, 
			 "cosmo_dispersion_energy": -14.66, 
			 "cosmo_repulsion_energy": 1.19, 
			 "cosmo_total_nonelectrostatic_energy": 6.03, 
			 "SMD_solvation_energy": 6.75 
		},
		"coords": [
			{
				"x": 2.5466423423,
				"y": -2.0965145472,
				"z": 1.8095659169,
				"element": "O" 
			},
			{
				"x": 1.3354599776,
				"y": -1.9639967075,
				"z": 1.598650065,
				"element": "N" 
			},
			{
				"x": 0.4625705857,
				"y": -2.6990929429,
				"z": 2.044851849,
				"element": "O" 
			},
			{
				"x": 0.9258077,
				"y": -0.8293660264,
				"z": 0.7682594736,
				"element": "C" 
			},
			{
				"x": 1.8578314836,
				"y": 0.1488284262,
				"z": 0.523240049,
				"element": "C" 
			},
			{
				"x": 1.5477981258,
				"y": 1.2955495947,
				"z": -0.2419467743,
				"element": "C" 
			},
			{
				"x": 0.2790050907,
				"y": 1.401677594,
				"z": -0.7479667572,
				"element": "C" 
			},
			{
				"x": -0.6325727502,
				"y": 0.4285395655,
				"z": -0.515950632,
				"element": "N" 
			},
			{
				"x": -0.4369050783,
				"y": -0.7676798815,
				"z": 0.235065748,
				"element": "C" 
			},
			{
				"x": -1.3574272097,
				"y": -1.5585921374,
				"z": 0.3254182648,
				"element": "O" 
			},
			{
				"x": 2.8480160362,
				"y": 0.0105404234,
				"z": 0.9430451088,
				"element": "H" 
			},
			{
				"x": 2.2827765318,
				"y": 2.0684010354,
				"z": -0.4228436152,
				"element": "H" 
			},
			{
				"x": -0.0558060908,
				"y": 2.2440021684,
				"z": -1.3439920119,
				"element": "H" 
			},
			{
				"x": -1.5690967446,
				"y": 0.4989034354,
				"z": -0.8974966842,
				"element": "H" 
			}
		],
		 "valence_orbital": [ 
			{
				"type": "occ",
				"energy": -0.30786,
				"method": "rhf"
			},
			{
				"type": "occ",
				"energy": -0.29976,
				"method": "rhf"
			},
			{
				"type": "occ",
				"energy": -0.28664,
				"method": "rhf"
			},
			{
				"type": "occ",
				"energy": -0.26547,
				"method": "rhf"
			},
			{
				"type": "occ",
				"energy": -0.24985,
				"method": "rhf"
			},
			{
				"type": "unocc",
				"energy": -0.0966,
				"method": "rhf"
			},
			{
				"type": "unocc",
				"energy": -0.03435,
				"method": "rhf"
			},
			{
				"type": "unocc",
				"energy": -0.00895,
				"method": "rhf"
			},
			{
				"type": "unocc",
				"energy": 0.04393,
				"method": "rhf"
			},
			{
				"type": "unocc",
				"energy": 0.09513,
				"method": "rhf"
			}
		],
		"cosmo_sigma_profile": { 
			"-0.025": 0.0,
			"-0.024": 0.0,
			"-0.023": 0.0,
			"-0.022": 0.0,
			"-0.021": 0.0,
			"-0.02": 0.0,
			"-0.019": 0.0,
			"-0.018": 0.127761956798,
			"-0.017": 1.65252670565,
			"-0.016": 1.46202291326,
			"-0.015": 1.38134371694,
			"-0.014": 1.00127136546,
			"-0.013": 1.23489377036,
			"-0.012": 1.66462937862,
			"-0.011": 3.73300442531,
			"-0.01": 2.79237072237,
			"-0.009": 3.1866467384,
			"-0.008": 6.65822727184,
			"-0.007": 6.60318355211,
			"-0.006": 5.78575764225,
			"-0.005": 6.4478277451,
			"-0.004": 10.222613454,
			"-0.003": 12.4138433324,
			"-0.002": 10.2244487147,
			"-0.001": 10.1862109972,
			"0.0": 7.18295459591,
			"0.001": 4.85154122522,
			"0.002": 2.85077903162,
			"0.003": 2.32077119574,
			"0.004": 2.83968149522,
			"0.005": 3.18084457946,
			"0.006": 3.433433583,
			"0.007": 5.29803414964,
			"0.008": 9.26613903204,
			"0.009": 7.59561035452,
			"0.01": 6.01588269695,
			"0.011": 2.92101871357,
			"0.012": 4.5295503273,
			"0.013": 4.44449769566,
			"0.014": 1.71828478965,
			"0.015": 1.41855602104,
			"0.016": 0.216095260709,
			"0.017": 0.0,
			"0.018": 0.0,
			"0.019": 0.0,
			"0.02": 0.0,
			"0.021": 0.0,
			"0.022": 0.0,
			"0.023": 0.0,
			"0.024": 0.0,
			"0.025": 0.0
		}
	}
}
