{
	 "smiles": "OC1=C(F)C2=C(C(F)=C1F)C(F)=C(F)C(F)=C2F", 
	 "Tm": 395.15, 
	 "num_atms": 19, 
	 "gaussian": { 
		 "optdone": 1, 
		 "sigma_profile": "yes", 
		 "theory": "DFT", 
		 "functional": "B3LYP", 
		 "basiset": "6-31G**", 
		 "properties": { 
			 "R2extent": 5001.125, 
			 "electric_dipole_moment_norm": 1.95442529916, 
			 "electric_quadrupole_moment_norm": 8.85520194801, 
			 "total_energy": -1155.68210006, 
			 "HOMO_LUMO_gap": 0.16638, 
			 "cosmo_polarized_energy": -6.86, 
			 "cosmo_cavitation_energy": 27.76, 
			 "cosmo_dispersion_energy": -19.88, 
			 "cosmo_repulsion_energy": 1.35, 
			 "cosmo_total_nonelectrostatic_energy": 9.23, 
			 "SMD_solvation_energy": 8.1 
		},
		"coords": [
			{
				"x": -1.3605791904,
				"y": -2.0929745757,
				"z": -1.0694458392,
				"element": "O" 
			},
			{
				"x": -0.4418911591,
				"y": -1.2443027933,
				"z": -0.557796274,
				"element": "C" 
			},
			{
				"x": -0.2320024715,
				"y": 0.0246805941,
				"z": -1.0559199793,
				"element": "C" 
			},
			{
				"x": -1.0093972478,
				"y": 0.3866102207,
				"z": -2.1068260849,
				"element": "F" 
			},
			{
				"x": 0.7277514628,
				"y": 0.9132932519,
				"z": -0.5224088134,
				"element": "C" 
			},
			{
				"x": 1.5186817996,
				"y": 0.4615777362,
				"z": 0.5945546579,
				"element": "C" 
			},
			{
				"x": 1.2895611321,
				"y": -0.8470140051,
				"z": 1.0943461724,
				"element": "C" 
			},
			{
				"x": 2.0006411862,
				"y": -1.3093739653,
				"z": 2.1305719025,
				"element": "F" 
			},
			{
				"x": 0.3420088245,
				"y": -1.6734213535,
				"z": 0.5384800715,
				"element": "C" 
			},
			{
				"x": 0.1466242328,
				"y": -2.9008213514,
				"z": 1.0283622111,
				"element": "F" 
			},
			{
				"x": 2.4865894669,
				"y": 1.3427636161,
				"z": 1.1412200573,
				"element": "C" 
			},
			{
				"x": 3.2433949909,
				"y": 0.9651769167,
				"z": 2.1789231471,
				"element": "F" 
			},
			{
				"x": 2.6732745154,
				"y": 2.6027917511,
				"z": 0.6229364198,
				"element": "C" 
			},
			{
				"x": 3.5867881052,
				"y": 3.427652522,
				"z": 1.1426316273,
				"element": "F" 
			},
			{
				"x": 1.8988850376,
				"y": 3.0439222888,
				"z": -0.4699867292,
				"element": "C" 
			},
			{
				"x": 2.1028487695,
				"y": 4.2727251999,
				"z": -0.9514935314,
				"element": "F" 
			},
			{
				"x": 0.9506231049,
				"y": 2.2196234432,
				"z": -1.0277608826,
				"element": "C" 
			},
			{
				"x": 0.2357906991,
				"y": 2.6771254555,
				"z": -2.0653262916,
				"element": "F" 
			},
			{
				"x": -1.8019932589,
				"y": -1.6432349519,
				"z": -1.8057618413,
				"element": "H" 
			}
		],
		 "valence_orbital": [ 
			{
				"type": "occ",
				"energy": -0.3807,
				"method": "rhf"
			},
			{
				"type": "occ",
				"energy": -0.31504,
				"method": "rhf"
			},
			{
				"type": "occ",
				"energy": -0.29556,
				"method": "rhf"
			},
			{
				"type": "occ",
				"energy": -0.25965,
				"method": "rhf"
			},
			{
				"type": "occ",
				"energy": -0.2284,
				"method": "rhf"
			},
			{
				"type": "unocc",
				"energy": -0.06202,
				"method": "rhf"
			},
			{
				"type": "unocc",
				"energy": -0.04105,
				"method": "rhf"
			},
			{
				"type": "unocc",
				"energy": 0.01487,
				"method": "rhf"
			},
			{
				"type": "unocc",
				"energy": 0.02043,
				"method": "rhf"
			},
			{
				"type": "unocc",
				"energy": 0.02966,
				"method": "rhf"
			}
		],
		"cosmo_sigma_profile": { 
			"-0.025": 0.0,
			"-0.024": 0.0,
			"-0.023": 0.0,
			"-0.022": 0.0,
			"-0.021": 0.0,
			"-0.02": 0.0,
			"-0.019": 0.0,
			"-0.018": 0.583545131252,
			"-0.017": 0.742361395715,
			"-0.016": 0.704417728811,
			"-0.015": 0.436461453113,
			"-0.014": 0.507252551567,
			"-0.013": 1.28950890327,
			"-0.012": 1.30282347868,
			"-0.011": 0.768235196429,
			"-0.01": 0.799633671423,
			"-0.009": 0.55779287014,
			"-0.008": 1.40351800843,
			"-0.007": 0.816506028182,
			"-0.006": 1.51757314609,
			"-0.005": 1.94864375278,
			"-0.004": 9.62981219932,
			"-0.003": 33.4497929596,
			"-0.002": 26.3424908811,
			"-0.001": 12.6997219258,
			"0.0": 11.5548803842,
			"0.001": 13.1181777216,
			"0.002": 37.0966992478,
			"0.003": 49.2845783551,
			"0.004": 10.6264838186,
			"0.005": 2.11705523423,
			"0.006": 1.69921525339,
			"0.007": 1.80345790713,
			"0.008": 1.79057817507,
			"0.009": 1.7496964847,
			"0.01": 0.140943458472,
			"0.011": 0.0,
			"0.012": 0.0,
			"0.013": 0.0,
			"0.014": 0.0,
			"0.015": 0.0,
			"0.016": 0.0,
			"0.017": 0.0,
			"0.018": 0.0,
			"0.019": 0.0,
			"0.02": 0.0,
			"0.021": 0.0,
			"0.022": 0.0,
			"0.023": 0.0,
			"0.024": 0.0,
			"0.025": 0.0
		}
	}
}
