{
	 "smiles": "O=C1CC2(CCCC2)C(=O)O1", 
	 "Tm": 307.15, 
	 "num_atms": 21, 
	 "gaussian": { 
		 "optdone": 1, 
		 "sigma_profile": "yes", 
		 "theory": "DFT", 
		 "functional": "B3LYP", 
		 "basiset": "6-31G**", 
		 "properties": { 
			 "R2extent": 2240.3302, 
			 "electric_dipole_moment_norm": 4.65769527771, 
			 "electric_quadrupole_moment_norm": 12.3506865198, 
			 "total_energy": -536.573094867, 
			 "HOMO_LUMO_gap": 0.2503, 
			 "cosmo_polarized_energy": -11.75, 
			 "cosmo_cavitation_energy": 23.39, 
			 "cosmo_dispersion_energy": -17.39, 
			 "cosmo_repulsion_energy": 1.4, 
			 "cosmo_total_nonelectrostatic_energy": 7.41, 
			 "SMD_solvation_energy": 5.33 
		},
		"coords": [
			{
				"x": 1.4370227339,
				"y": 3.3488537947,
				"z": 1.864753119,
				"element": "O" 
			},
			{
				"x": 1.288029477,
				"y": 2.2008169461,
				"z": 1.5624839749,
				"element": "C" 
			},
			{
				"x": 0.216870912,
				"y": 1.5563697133,
				"z": 0.7025320114,
				"element": "C" 
			},
			{
				"x": 0.3499489064,
				"y": 0.0489445112,
				"z": 0.9674873228,
				"element": "C" 
			},
			{
				"x": -0.6604198124,
				"y": -0.4956083772,
				"z": 2.0350569208,
				"element": "C" 
			},
			{
				"x": -0.8097924173,
				"y": -1.9827741082,
				"z": 1.6938265577,
				"element": "C" 
			},
			{
				"x": -0.8599448947,
				"y": -1.9749805679,
				"z": 0.1582982199,
				"element": "C" 
			},
			{
				"x": 0.1893015411,
				"y": -0.9151998893,
				"z": -0.2519184164,
				"element": "C" 
			},
			{
				"x": 1.7508418236,
				"y": -0.0435775412,
				"z": 1.572483747,
				"element": "C" 
			},
			{
				"x": 2.4302452868,
				"y": -1.016167785,
				"z": 1.7475003695,
				"element": "O" 
			},
			{
				"x": 2.1785100797,
				"y": 1.2156116546,
				"z": 1.9777574994,
				"element": "O" 
			},
			{
				"x": 0.4389707739,
				"y": 1.8098489673,
				"z": -0.3411498503,
				"element": "H" 
			},
			{
				"x": -0.7610564715,
				"y": 1.9813087242,
				"z": 0.9403864229,
				"element": "H" 
			},
			{
				"x": -1.617826897,
				"y": 0.0207811688,
				"z": 1.8933225736,
				"element": "H" 
			},
			{
				"x": -0.3381183722,
				"y": -0.307011938,
				"z": 3.064251139,
				"element": "H" 
			},
			{
				"x": -1.6933235986,
				"y": -2.4338656409,
				"z": 2.1558041682,
				"element": "H" 
			},
			{
				"x": 0.0714785692,
				"y": -2.533166376,
				"z": 2.040786744,
				"element": "H" 
			},
			{
				"x": -1.8584228838,
				"y": -1.6685055882,
				"z": -0.1767800273,
				"element": "H" 
			},
			{
				"x": -0.6557274318,
				"y": -2.9540517003,
				"z": -0.2841308732,
				"element": "H" 
			},
			{
				"x": -0.1064108038,
				"y": -0.3658264595,
				"z": -1.150491196,
				"element": "H" 
			},
			{
				"x": 1.1496234795,
				"y": -1.3944995084,
				"z": -0.461160427,
				"element": "H" 
			}
		],
		 "valence_orbital": [ 
			{
				"type": "occ",
				"energy": -0.34407,
				"method": "rhf"
			},
			{
				"type": "occ",
				"energy": -0.33829,
				"method": "rhf"
			},
			{
				"type": "occ",
				"energy": -0.33026,
				"method": "rhf"
			},
			{
				"type": "occ",
				"energy": -0.30106,
				"method": "rhf"
			},
			{
				"type": "occ",
				"energy": -0.27939,
				"method": "rhf"
			},
			{
				"type": "unocc",
				"energy": -0.02909,
				"method": "rhf"
			},
			{
				"type": "unocc",
				"energy": -0.00197,
				"method": "rhf"
			},
			{
				"type": "unocc",
				"energy": 0.06769,
				"method": "rhf"
			},
			{
				"type": "unocc",
				"energy": 0.0803,
				"method": "rhf"
			},
			{
				"type": "unocc",
				"energy": 0.091,
				"method": "rhf"
			}
		],
		"cosmo_sigma_profile": { 
			"-0.025": 0.0,
			"-0.024": 0.0,
			"-0.023": 0.0,
			"-0.022": 0.0,
			"-0.021": 0.0,
			"-0.02": 0.0,
			"-0.019": 0.0,
			"-0.018": 0.0,
			"-0.017": 0.0,
			"-0.016": 0.0,
			"-0.015": 0.0,
			"-0.014": 0.0,
			"-0.013": 0.0,
			"-0.012": 0.0,
			"-0.011": 0.383731666867,
			"-0.01": 1.12952104222,
			"-0.009": 2.17390876383,
			"-0.008": 5.1800292383,
			"-0.007": 8.07273208725,
			"-0.006": 9.07428463942,
			"-0.005": 9.52325412971,
			"-0.004": 13.4375547056,
			"-0.003": 17.7411332321,
			"-0.002": 19.8658100735,
			"-0.001": 19.3847588501,
			"0.0": 15.2660075153,
			"0.001": 8.57265134019,
			"0.002": 3.10530516115,
			"0.003": 3.7582353414,
			"0.004": 3.62734282075,
			"0.005": 4.42755946002,
			"0.006": 4.8266333813,
			"0.007": 6.40941797578,
			"0.008": 6.07038531342,
			"0.009": 5.62981133076,
			"0.01": 10.3951085911,
			"0.011": 5.31703160315,
			"0.012": 0.196804592738,
			"0.013": 0.0,
			"0.014": 0.0,
			"0.015": 0.0,
			"0.016": 0.0,
			"0.017": 0.0,
			"0.018": 0.0,
			"0.019": 0.0,
			"0.02": 0.0,
			"0.021": 0.0,
			"0.022": 0.0,
			"0.023": 0.0,
			"0.024": 0.0,
			"0.025": 0.0
		}
	}
}
