{
	 "smiles": "CC(C(O)=O)C1=CC(Cl)=C(Cl)C=C1", 
	 "Tm": 313.15, 
	 "num_atms": 21, 
	 "gaussian": { 
		 "optdone": 1, 
		 "sigma_profile": "yes", 
		 "theory": "DFT", 
		 "functional": "B3LYP", 
		 "basiset": "6-31G**", 
		 "properties": { 
			 "R2extent": 3653.3688, 
			 "electric_dipole_moment_norm": 2.32510185583, 
			 "electric_quadrupole_moment_norm": 14.5167864991, 
			 "total_energy": -1418.62910308, 
			 "HOMO_LUMO_gap": 0.21684, 
			 "cosmo_polarized_energy": -10.51, 
			 "cosmo_cavitation_energy": 28.95, 
			 "cosmo_dispersion_energy": -20.82, 
			 "cosmo_repulsion_energy": 1.69, 
			 "cosmo_total_nonelectrostatic_energy": 9.82, 
			 "SMD_solvation_energy": 5.71 
		},
		"coords": [
			{
				"x": -2.0956431775,
				"y": -1.8529432967,
				"z": -1.342536338,
				"element": "C" 
			},
			{
				"x": -1.0984073014,
				"y": -0.8133880748,
				"z": -1.8909975698,
				"element": "C" 
			},
			{
				"x": -1.7984696896,
				"y": 0.4240608528,
				"z": -2.4455696574,
				"element": "C" 
			},
			{
				"x": -2.7460896431,
				"y": 0.907332434,
				"z": -1.6018639783,
				"element": "O" 
			},
			{
				"x": -1.5524897254,
				"y": 0.9430485432,
				"z": -3.5099742941,
				"element": "O" 
			},
			{
				"x": -0.0416072852,
				"y": -0.4210887589,
				"z": -0.860807397,
				"element": "C" 
			},
			{
				"x": -0.3897307373,
				"y": 0.2318103795,
				"z": 0.3272564578,
				"element": "C" 
			},
			{
				"x": 0.5809130576,
				"y": 0.560772507,
				"z": 1.2737374428,
				"element": "C" 
			},
			{
				"x": 0.0797643404,
				"y": 1.3776182509,
				"z": 2.7355052518,
				"element": "Cl" 
			},
			{
				"x": 1.9253587517,
				"y": 0.2383328333,
				"z": 1.0429836931,
				"element": "C" 
			},
			{
				"x": 3.1739120465,
				"y": 0.6283857909,
				"z": 2.199522464,
				"element": "Cl" 
			},
			{
				"x": 2.2783613206,
				"y": -0.4094528417,
				"z": -0.141548261,
				"element": "C" 
			},
			{
				"x": 1.3044259781,
				"y": -0.7329989338,
				"z": -1.0828462477,
				"element": "C" 
			},
			{
				"x": -2.6479112395,
				"y": -1.4606402397,
				"z": -0.485821455,
				"element": "H" 
			},
			{
				"x": -2.8199127259,
				"y": -2.141113626,
				"z": -2.1107870082,
				"element": "H" 
			},
			{
				"x": -1.5576129803,
				"y": -2.7502025168,
				"z": -1.0243127698,
				"element": "H" 
			},
			{
				"x": -0.5772315647,
				"y": -1.2365671169,
				"z": -2.7538110526,
				"element": "H" 
			},
			{
				"x": -3.1064233649,
				"y": 1.7039036522,
				"z": -2.0273666283,
				"element": "H" 
			},
			{
				"x": -1.4206395456,
				"y": 0.5037459932,
				"z": 0.5215870795,
				"element": "H" 
			},
			{
				"x": 3.3197995627,
				"y": -0.6545693699,
				"z": -0.3179687798,
				"element": "H" 
			},
			{
				"x": 1.5993339228,
				"y": -1.2341464618,
				"z": -2.0000809518,
				"element": "H" 
			}
		],
		 "valence_orbital": [ 
			{
				"type": "occ",
				"energy": -0.32661,
				"method": "rhf"
			},
			{
				"type": "occ",
				"energy": -0.31041,
				"method": "rhf"
			},
			{
				"type": "occ",
				"energy": -0.28515,
				"method": "rhf"
			},
			{
				"type": "occ",
				"energy": -0.26363,
				"method": "rhf"
			},
			{
				"type": "occ",
				"energy": -0.24967,
				"method": "rhf"
			},
			{
				"type": "unocc",
				"energy": -0.03283,
				"method": "rhf"
			},
			{
				"type": "unocc",
				"energy": -0.0279,
				"method": "rhf"
			},
			{
				"type": "unocc",
				"energy": -8e-05,
				"method": "rhf"
			},
			{
				"type": "unocc",
				"energy": 0.00799,
				"method": "rhf"
			},
			{
				"type": "unocc",
				"energy": 0.05795,
				"method": "rhf"
			}
		],
		"cosmo_sigma_profile": { 
			"-0.025": 0.0,
			"-0.024": 0.0,
			"-0.023": 0.0,
			"-0.022": 0.0,
			"-0.021": 0.0,
			"-0.02": 0.0,
			"-0.019": 0.128416803881,
			"-0.018": 0.819110697787,
			"-0.017": 0.832081518456,
			"-0.016": 0.959110966708,
			"-0.015": 0.986897038605,
			"-0.014": 0.718318310345,
			"-0.013": 0.0802286955645,
			"-0.012": 0.72706419015,
			"-0.011": 0.869984485126,
			"-0.01": 0.678596709943,
			"-0.009": 0.54213853218,
			"-0.008": 2.88427004544,
			"-0.007": 7.08193791372,
			"-0.006": 7.31134608605,
			"-0.005": 10.5854442456,
			"-0.004": 13.8622924269,
			"-0.003": 14.599116358,
			"-0.002": 15.4831061436,
			"-0.001": 19.4748473702,
			"0.0": 24.7490406274,
			"0.001": 24.9816582169,
			"0.002": 22.6376607238,
			"0.003": 17.4416792121,
			"0.004": 19.3616868391,
			"0.005": 8.27366116095,
			"0.006": 2.48558209054,
			"0.007": 2.2147519414,
			"0.008": 1.59881793628,
			"0.009": 1.69349081687,
			"0.01": 1.96016914549,
			"0.011": 4.51776362049,
			"0.012": 3.78607562283,
			"0.013": 0.433561244613,
			"0.014": 0.0,
			"0.015": 0.0,
			"0.016": 0.0,
			"0.017": 0.0,
			"0.018": 0.0,
			"0.019": 0.0,
			"0.02": 0.0,
			"0.021": 0.0,
			"0.022": 0.0,
			"0.023": 0.0,
			"0.024": 0.0,
			"0.025": 0.0
		}
	}
}
