{
	 "smiles": "FC(F)(F)C1=NC2=C(C(Cl)=CC(Cl)=C2)C(Cl)=C1", 
	 "Tm": 385.15, 
	 "num_atms": 20, 
	 "gaussian": { 
		 "optdone": 1, 
		 "sigma_profile": "yes", 
		 "theory": "DFT", 
		 "functional": "B3LYP", 
		 "basiset": "6-31G**", 
		 "properties": { 
			 "R2extent": 6226.3801, 
			 "electric_dipole_moment_norm": 1.54058860829, 
			 "electric_quadrupole_moment_norm": 5.17203997181, 
			 "total_energy": -2117.71662072, 
			 "HOMO_LUMO_gap": 0.15942, 
			 "cosmo_polarized_energy": -5.48, 
			 "cosmo_cavitation_energy": 31.82, 
			 "cosmo_dispersion_energy": -23.35, 
			 "cosmo_repulsion_energy": 1.73, 
			 "cosmo_total_nonelectrostatic_energy": 10.2, 
			 "SMD_solvation_energy": 4.36 
		},
		"coords": [
			{
				"x": -0.6216333948,
				"y": -4.2241776192,
				"z": 1.5934239417,
				"element": "F" 
			},
			{
				"x": -0.779584981,
				"y": -3.5842412736,
				"z": 0.4131182424,
				"element": "C" 
			},
			{
				"x": -2.0949686477,
				"y": -3.5470021933,
				"z": 0.1399711127,
				"element": "F" 
			},
			{
				"x": -0.1820315594,
				"y": -4.3235588935,
				"z": -0.5369755653,
				"element": "F" 
			},
			{
				"x": -0.1918672196,
				"y": -2.1827257772,
				"z": 0.4659787268,
				"element": "C" 
			},
			{
				"x": -0.3015872855,
				"y": -1.4834683621,
				"z": -0.638401076,
				"element": "N" 
			},
			{
				"x": 0.2049886851,
				"y": -0.2232272084,
				"z": -0.6536753098,
				"element": "C" 
			},
			{
				"x": 0.8616174584,
				"y": 0.3952546076,
				"z": 0.4829022704,
				"element": "C" 
			},
			{
				"x": 1.3343337344,
				"y": 1.7343549696,
				"z": 0.2816421408,
				"element": "C" 
			},
			{
				"x": 2.1561934562,
				"y": 2.6743668624,
				"z": 1.5131993204,
				"element": "Cl" 
			},
			{
				"x": 1.1700365882,
				"y": 2.3864993517,
				"z": -0.9223544822,
				"element": "C" 
			},
			{
				"x": 0.5258061263,
				"y": 1.7492374212,
				"z": -2.0021281852,
				"element": "C" 
			},
			{
				"x": 0.3475561457,
				"y": 2.6272233208,
				"z": -3.5027606116,
				"element": "Cl" 
			},
			{
				"x": 0.0495642002,
				"y": 0.4712688296,
				"z": -1.8809357335,
				"element": "C" 
			},
			{
				"x": 0.9417029845,
				"y": -0.4302529271,
				"z": 1.6488244366,
				"element": "C" 
			},
			{
				"x": 1.6771405078,
				"y": 0.0581031495,
				"z": 3.1559138719,
				"element": "Cl" 
			},
			{
				"x": 0.4194014474,
				"y": -1.707416861,
				"z": 1.6390715489,
				"element": "C" 
			},
			{
				"x": 1.5403517637,
				"y": 3.3974360775,
				"z": -1.036693126,
				"element": "H" 
			},
			{
				"x": -0.4491866873,
				"y": -0.0447765315,
				"z": -2.6913930967,
				"element": "H" 
			},
			{
				"x": 0.4806666774,
				"y": -2.330296943,
				"z": 2.5208715738,
				"element": "H" 
			}
		],
		 "valence_orbital": [ 
			{
				"type": "occ",
				"energy": -0.31259,
				"method": "rhf"
			},
			{
				"type": "occ",
				"energy": -0.30951,
				"method": "rhf"
			},
			{
				"type": "occ",
				"energy": -0.29519,
				"method": "rhf"
			},
			{
				"type": "occ",
				"energy": -0.28328,
				"method": "rhf"
			},
			{
				"type": "occ",
				"energy": -0.25494,
				"method": "rhf"
			},
			{
				"type": "unocc",
				"energy": -0.09552,
				"method": "rhf"
			},
			{
				"type": "unocc",
				"energy": -0.06052,
				"method": "rhf"
			},
			{
				"type": "unocc",
				"energy": -0.01853,
				"method": "rhf"
			},
			{
				"type": "unocc",
				"energy": -0.00907,
				"method": "rhf"
			},
			{
				"type": "unocc",
				"energy": 0.00557,
				"method": "rhf"
			}
		],
		"cosmo_sigma_profile": { 
			"-0.025": 0.0,
			"-0.024": 0.0,
			"-0.023": 0.0,
			"-0.022": 0.0,
			"-0.021": 0.0,
			"-0.02": 0.0,
			"-0.019": 0.0,
			"-0.018": 0.0,
			"-0.017": 0.0,
			"-0.016": 0.0,
			"-0.015": 0.0,
			"-0.014": 0.0,
			"-0.013": 0.0,
			"-0.012": 0.0,
			"-0.011": 0.0,
			"-0.01": 0.0337677183931,
			"-0.009": 1.77472745814,
			"-0.008": 4.02426153378,
			"-0.007": 3.95880113756,
			"-0.006": 5.05876959726,
			"-0.005": 8.16073209618,
			"-0.004": 11.6144662164,
			"-0.003": 21.5593012788,
			"-0.002": 27.0892328404,
			"-0.001": 28.8530827464,
			"0.0": 26.8181612386,
			"0.001": 20.5709177435,
			"0.002": 44.731711745,
			"0.003": 37.0905620645,
			"0.004": 14.1167145976,
			"0.005": 2.49481102132,
			"0.006": 2.18664569026,
			"0.007": 0.898154200375,
			"0.008": 1.16590844298,
			"0.009": 0.859946620463,
			"0.01": 0.845351579057,
			"0.011": 0.394104659071,
			"0.012": 0.0,
			"0.013": 0.0,
			"0.014": 0.0,
			"0.015": 0.0,
			"0.016": 0.0,
			"0.017": 0.0,
			"0.018": 0.0,
			"0.019": 0.0,
			"0.02": 0.0,
			"0.021": 0.0,
			"0.022": 0.0,
			"0.023": 0.0,
			"0.024": 0.0,
			"0.025": 0.0
		}
	}
}
