{
	 "smiles": "C1COCCOC2=C(OCCOCCO1)C=C1C=CC=CC1=C2", 
	 "Tm": 391.15, 
	 "num_atms": 45, 
	 "gaussian": { 
		 "optdone": 1, 
		 "sigma_profile": "yes", 
		 "theory": "DFT", 
		 "functional": "B3LYP", 
		 "basiset": "6-31G**", 
		 "properties": { 
			 "R2extent": 8722.2045, 
			 "electric_dipole_moment_norm": 2.9012912901, 
			 "electric_quadrupole_moment_norm": 10.4600729037, 
			 "total_energy": -1075.22830102, 
			 "HOMO_LUMO_gap": 0.17205, 
			 "cosmo_polarized_energy": -15.66, 
			 "cosmo_cavitation_energy": 45.44, 
			 "cosmo_dispersion_energy": -31.45, 
			 "cosmo_repulsion_energy": 2.35, 
			 "cosmo_total_nonelectrostatic_energy": 16.35, 
			 "SMD_solvation_energy": 7.03 
		},
		"coords": [
			{
				"x": -2.2258940712,
				"y": -2.929615193,
				"z": 2.0167659297,
				"element": "C" 
			},
			{
				"x": -3.3642308702,
				"y": -1.9241296665,
				"z": 2.1482380315,
				"element": "C" 
			},
			{
				"x": -3.3080732173,
				"y": -0.8655194169,
				"z": 1.2014308543,
				"element": "O" 
			},
			{
				"x": -2.5890336282,
				"y": 0.265566766,
				"z": 1.6542501381,
				"element": "C" 
			},
			{
				"x": -2.6057352129,
				"y": 1.3377626835,
				"z": 0.5768265217,
				"element": "C" 
			},
			{
				"x": -1.7707673489,
				"y": 1.0338364792,
				"z": -0.5471241138,
				"element": "O" 
			},
			{
				"x": -0.4173551905,
				"y": 1.2193485047,
				"z": -0.3673938538,
				"element": "C" 
			},
			{
				"x": 0.4290833136,
				"y": 0.0663910243,
				"z": -0.3206448675,
				"element": "C" 
			},
			{
				"x": -0.0836833849,
				"y": -1.2009848123,
				"z": -0.3614737592,
				"element": "O" 
			},
			{
				"x": -0.9504120961,
				"y": -1.5607821117,
				"z": -1.4691150907,
				"element": "C" 
			},
			{
				"x": -0.4564594607,
				"y": -2.852643943,
				"z": -2.117898001,
				"element": "C" 
			},
			{
				"x": -0.9003400618,
				"y": -4.0439226063,
				"z": -1.4980362579,
				"element": "O" 
			},
			{
				"x": -0.3923424134,
				"y": -4.3216985206,
				"z": -0.1983575413,
				"element": "C" 
			},
			{
				"x": -1.5514079746,
				"y": -4.7878868294,
				"z": 0.6754219899,
				"element": "C" 
			},
			{
				"x": -2.5139336388,
				"y": -3.7749836033,
				"z": 0.917958031,
				"element": "O" 
			},
			{
				"x": 1.788697129,
				"y": 0.2272587349,
				"z": -0.1561047297,
				"element": "C" 
			},
			{
				"x": 2.3725393734,
				"y": 1.5139995802,
				"z": -0.0299357989,
				"element": "C" 
			},
			{
				"x": 3.7706227787,
				"y": 1.699735167,
				"z": 0.1461977437,
				"element": "C" 
			},
			{
				"x": 4.3074787831,
				"y": 2.9638483631,
				"z": 0.2463137449,
				"element": "C" 
			},
			{
				"x": 3.470602821,
				"y": 4.1047484384,
				"z": 0.1743688726,
				"element": "C" 
			},
			{
				"x": 2.1118393264,
				"y": 3.9588400781,
				"z": 0.0045102915,
				"element": "C" 
			},
			{
				"x": 1.5262153622,
				"y": 2.6686937546,
				"z": -0.1010059887,
				"element": "C" 
			},
			{
				"x": 0.1303545317,
				"y": 2.4800667654,
				"z": -0.2757410419,
				"element": "C" 
			},
			{
				"x": -1.2693355204,
				"y": -2.4021137562,
				"z": 1.8862492365,
				"element": "H" 
			},
			{
				"x": -2.1596927225,
				"y": -3.5231927191,
				"z": 2.9461220601,
				"element": "H" 
			},
			{
				"x": -3.3809362036,
				"y": -1.5204406837,
				"z": 3.1725236151,
				"element": "H" 
			},
			{
				"x": -4.3070525446,
				"y": -2.453231321,
				"z": 1.9751879674,
				"element": "H" 
			},
			{
				"x": -1.5490884095,
				"y": 0.0140298564,
				"z": 1.9122237325,
				"element": "H" 
			},
			{
				"x": -3.0626024845,
				"y": 0.6805907559,
				"z": 2.5618187107,
				"element": "H" 
			},
			{
				"x": -2.3087361049,
				"y": 2.2975740318,
				"z": 1.0190855207,
				"element": "H" 
			},
			{
				"x": -3.6181062928,
				"y": 1.4322016956,
				"z": 0.1754204522,
				"element": "H" 
			},
			{
				"x": -0.9426023265,
				"y": -0.7570840478,
				"z": -2.2111410522,
				"element": "H" 
			},
			{
				"x": -1.9657224986,
				"y": -1.6856352591,
				"z": -1.0859859413,
				"element": "H" 
			},
			{
				"x": 0.6420261091,
				"y": -2.8172956549,
				"z": -2.1988245769,
				"element": "H" 
			},
			{
				"x": -0.8638405639,
				"y": -2.8986269237,
				"z": -3.1345273237,
				"element": "H" 
			},
			{
				"x": 0.3584038233,
				"y": -5.1272952202,
				"z": -0.256689444,
				"element": "H" 
			},
			{
				"x": 0.0918370423,
				"y": -3.4432232016,
				"z": 0.2386587076,
				"element": "H" 
			},
			{
				"x": -1.1616340013,
				"y": -5.1974152415,
				"z": 1.6223299752,
				"element": "H" 
			},
			{
				"x": -2.0808988681,
				"y": -5.5908809293,
				"z": 0.1516879101,
				"element": "H" 
			},
			{
				"x": 2.4128859596,
				"y": -0.6603595638,
				"z": -0.1146614349,
				"element": "H" 
			},
			{
				"x": 4.4115487806,
				"y": 0.8234032097,
				"z": 0.1995472197,
				"element": "H" 
			},
			{
				"x": 5.3778400429,
				"y": 3.0907630992,
				"z": 0.380743123,
				"element": "H" 
			},
			{
				"x": 3.9058917722,
				"y": 5.0966311412,
				"z": 0.2542575553,
				"element": "H" 
			},
			{
				"x": 1.4669485664,
				"y": 4.8322695519,
				"z": -0.0511993858,
				"element": "H" 
			},
			{
				"x": -0.524198405,
				"y": 3.3453015435,
				"z": -0.337977732,
				"element": "H" 
			}
		],
		 "valence_orbital": [ 
			{
				"type": "occ",
				"energy": -0.2554,
				"method": "rhf"
			},
			{
				"type": "occ",
				"energy": -0.25288,
				"method": "rhf"
			},
			{
				"type": "occ",
				"energy": -0.23843,
				"method": "rhf"
			},
			{
				"type": "occ",
				"energy": -0.22264,
				"method": "rhf"
			},
			{
				"type": "occ",
				"energy": -0.2092,
				"method": "rhf"
			},
			{
				"type": "unocc",
				"energy": -0.03715,
				"method": "rhf"
			},
			{
				"type": "unocc",
				"energy": -0.00415,
				"method": "rhf"
			},
			{
				"type": "unocc",
				"energy": 0.03124,
				"method": "rhf"
			},
			{
				"type": "unocc",
				"energy": 0.07945,
				"method": "rhf"
			},
			{
				"type": "unocc",
				"energy": 0.09217,
				"method": "rhf"
			}
		],
		"cosmo_sigma_profile": { 
			"-0.025": 0.0,
			"-0.024": 0.0,
			"-0.023": 0.0,
			"-0.022": 0.0,
			"-0.021": 0.0,
			"-0.02": 0.0,
			"-0.019": 0.0,
			"-0.018": 0.0,
			"-0.017": 0.0,
			"-0.016": 0.0,
			"-0.015": 0.0,
			"-0.014": 0.0,
			"-0.013": 0.0,
			"-0.012": 0.0,
			"-0.011": 0.0,
			"-0.01": 0.0,
			"-0.009": 0.0,
			"-0.008": 0.0,
			"-0.007": 0.535504940612,
			"-0.006": 14.6901750851,
			"-0.005": 34.2295368626,
			"-0.004": 52.7693928149,
			"-0.003": 44.4010573005,
			"-0.002": 28.6925378037,
			"-0.001": 20.6859374194,
			"0.0": 16.1861774217,
			"0.001": 16.4883765015,
			"0.002": 17.3792997192,
			"0.003": 20.7106514342,
			"0.004": 31.8011093903,
			"0.005": 17.9980130784,
			"0.006": 9.96019694307,
			"0.007": 6.42283031574,
			"0.008": 6.46538440395,
			"0.009": 4.28611299473,
			"0.01": 3.61928650626,
			"0.011": 4.7190196815,
			"0.012": 3.59988328652,
			"0.013": 1.88418685083,
			"0.014": 0.157201016349,
			"0.015": 0.0,
			"0.016": 0.0,
			"0.017": 0.0,
			"0.018": 0.0,
			"0.019": 0.0,
			"0.02": 0.0,
			"0.021": 0.0,
			"0.022": 0.0,
			"0.023": 0.0,
			"0.024": 0.0,
			"0.025": 0.0
		}
	}
}
