{
	 "smiles": "CC(C)C(C(C)C)C(C)C", 
	 "Tm": 191.35, 
	 "num_atms": 32, 
	 "gaussian": { 
		 "optdone": 1, 
		 "sigma_profile": "yes", 
		 "theory": "DFT", 
		 "functional": "B3LYP", 
		 "basiset": "6-31G**", 
		 "properties": { 
			 "R2extent": 1850.3759, 
			 "electric_dipole_moment_norm": 0.162036168802, 
			 "electric_quadrupole_moment_norm": 0.675855428328, 
			 "total_energy": -394.34200312, 
			 "HOMO_LUMO_gap": 0.34978, 
			 "cosmo_polarized_energy": -0.93, 
			 "cosmo_cavitation_energy": 29.18, 
			 "cosmo_dispersion_energy": -20.56, 
			 "cosmo_repulsion_energy": 1.63, 
			 "cosmo_total_nonelectrostatic_energy": 10.25, 
			 "SMD_solvation_energy": 5.21 
		},
		"coords": [
			{
				"x": 1.5802526845,
				"y": -1.3298249045,
				"z": -1.1438498701,
				"element": "C" 
			},
			{
				"x": 0.8560833538,
				"y": -0.0173668394,
				"z": -0.7971191066,
				"element": "C" 
			},
			{
				"x": 0.2708299524,
				"y": 0.6063807096,
				"z": -2.0805534086,
				"element": "C" 
			},
			{
				"x": -0.1079859658,
				"y": -0.1177821666,
				"z": 0.4328049845,
				"element": "C" 
			},
			{
				"x": -0.6914474336,
				"y": 1.2797799814,
				"z": 0.8386783421,
				"element": "C" 
			},
			{
				"x": 0.3583537364,
				"y": 2.4085586975,
				"z": 0.8214169506,
				"element": "C" 
			},
			{
				"x": -1.329703943,
				"y": 1.2664362276,
				"z": 2.242896912,
				"element": "C" 
			},
			{
				"x": -1.2278383713,
				"y": -1.2145520626,
				"z": 0.4002222392,
				"element": "C" 
			},
			{
				"x": -2.082717779,
				"y": -1.271644699,
				"z": -0.8779128699,
				"element": "C" 
			},
			{
				"x": -0.7322815741,
				"y": -2.6249718636,
				"z": 0.7750148758,
				"element": "C" 
			},
			{
				"x": 0.914969021,
				"y": -2.0595533626,
				"z": -1.615454606,
				"element": "H" 
			},
			{
				"x": 2.3926063924,
				"y": -1.1318936878,
				"z": -1.8527154395,
				"element": "H" 
			},
			{
				"x": 2.0212330728,
				"y": -1.7980393812,
				"z": -0.2575798706,
				"element": "H" 
			},
			{
				"x": 1.6475551214,
				"y": 0.664881077,
				"z": -0.4638103922,
				"element": "H" 
			},
			{
				"x": 1.0837647803,
				"y": 0.85542733,
				"z": -2.7724525455,
				"element": "H" 
			},
			{
				"x": -0.2844783548,
				"y": 1.5282795154,
				"z": -1.8855888092,
				"element": "H" 
			},
			{
				"x": -0.400034235,
				"y": -0.0767076729,
				"z": -2.606560601,
				"element": "H" 
			},
			{
				"x": 0.5491239449,
				"y": -0.4051448888,
				"z": 1.2701248816,
				"element": "H" 
			},
			{
				"x": -1.4796055887,
				"y": 1.5469353655,
				"z": 0.1193848169,
				"element": "H" 
			},
			{
				"x": -0.084427059,
				"y": 3.3400661469,
				"z": 1.1900412594,
				"element": "H" 
			},
			{
				"x": 0.7585557472,
				"y": 2.6131913817,
				"z": -0.1738655149,
				"element": "H" 
			},
			{
				"x": 1.2028707132,
				"y": 2.1670670218,
				"z": 1.4792668729,
				"element": "H" 
			},
			{
				"x": -1.6878204769,
				"y": 2.2675241151,
				"z": 2.5059072059,
				"element": "H" 
			},
			{
				"x": -0.5931059979,
				"y": 0.9716074199,
				"z": 3.0008210041,
				"element": "H" 
			},
			{
				"x": -2.1835255172,
				"y": 0.5903112969,
				"z": 2.3293088555,
				"element": "H" 
			},
			{
				"x": -1.919541442,
				"y": -0.9438348012,
				"z": 1.204289349,
				"element": "H" 
			},
			{
				"x": -1.5334423902,
				"y": -1.6997906523,
				"z": -1.7221300584,
				"element": "H" 
			},
			{
				"x": -2.4460789325,
				"y": -0.2840598611,
				"z": -1.1787948934,
				"element": "H" 
			},
			{
				"x": -2.9600596518,
				"y": -1.906957189,
				"z": -0.7107706614,
				"element": "H" 
			},
			{
				"x": -1.5866488564,
				"y": -3.2926126171,
				"z": 0.9366064424,
				"element": "H" 
			},
			{
				"x": -0.1111262469,
				"y": -3.0777361655,
				"z": -0.0014871059,
				"element": "H" 
			},
			{
				"x": -0.1481287043,
				"y": -2.607973471,
				"z": 1.701860761,
				"element": "H" 
			}
		],
		 "valence_orbital": [ 
			{
				"type": "occ",
				"energy": -0.32614,
				"method": "rhf"
			},
			{
				"type": "occ",
				"energy": -0.32131,
				"method": "rhf"
			},
			{
				"type": "occ",
				"energy": -0.29922,
				"method": "rhf"
			},
			{
				"type": "occ",
				"energy": -0.29109,
				"method": "rhf"
			},
			{
				"type": "occ",
				"energy": -0.27833,
				"method": "rhf"
			},
			{
				"type": "unocc",
				"energy": 0.07145,
				"method": "rhf"
			},
			{
				"type": "unocc",
				"energy": 0.1015,
				"method": "rhf"
			},
			{
				"type": "unocc",
				"energy": 0.11018,
				"method": "rhf"
			},
			{
				"type": "unocc",
				"energy": 0.11672,
				"method": "rhf"
			},
			{
				"type": "unocc",
				"energy": 0.12934,
				"method": "rhf"
			}
		],
		"cosmo_sigma_profile": { 
			"-0.025": 0.0,
			"-0.024": 0.0,
			"-0.023": 0.0,
			"-0.022": 0.0,
			"-0.021": 0.0,
			"-0.02": 0.0,
			"-0.019": 0.0,
			"-0.018": 0.0,
			"-0.017": 0.0,
			"-0.016": 0.0,
			"-0.015": 0.0,
			"-0.014": 0.0,
			"-0.013": 0.0,
			"-0.012": 0.0,
			"-0.011": 0.0,
			"-0.01": 0.0,
			"-0.009": 0.0,
			"-0.008": 0.0,
			"-0.007": 0.0,
			"-0.006": 0.0,
			"-0.005": 0.0,
			"-0.004": 0.192298811537,
			"-0.003": 5.08444885807,
			"-0.002": 34.1863601096,
			"-0.001": 46.7762894222,
			"0.0": 53.0048328567,
			"0.001": 41.8435782499,
			"0.002": 36.5549985513,
			"0.003": 5.09050161667,
			"0.004": 0.0,
			"0.005": 0.0,
			"0.006": 0.0,
			"0.007": 0.0,
			"0.008": 0.0,
			"0.009": 0.0,
			"0.01": 0.0,
			"0.011": 0.0,
			"0.012": 0.0,
			"0.013": 0.0,
			"0.014": 0.0,
			"0.015": 0.0,
			"0.016": 0.0,
			"0.017": 0.0,
			"0.018": 0.0,
			"0.019": 0.0,
			"0.02": 0.0,
			"0.021": 0.0,
			"0.022": 0.0,
			"0.023": 0.0,
			"0.024": 0.0,
			"0.025": 0.0
		}
	}
}
