{
	 "smiles": "O=C1CCCC2=C1C=CO2", 
	 "Tm": 334.15, 
	 "num_atms": 18, 
	 "gaussian": { 
		 "optdone": 1, 
		 "sigma_profile": "yes", 
		 "theory": "DFT", 
		 "functional": "B3LYP", 
		 "basiset": "6-31G**", 
		 "properties": { 
			 "R2extent": 1663.2248, 
			 "electric_dipole_moment_norm": 3.1152050719, 
			 "electric_quadrupole_moment_norm": 10.5715623859, 
			 "total_energy": -460.104863103, 
			 "HOMO_LUMO_gap": 0.19989, 
			 "cosmo_polarized_energy": -9.07, 
			 "cosmo_cavitation_energy": 21.2, 
			 "cosmo_dispersion_energy": -16.08, 
			 "cosmo_repulsion_energy": 1.3, 
			 "cosmo_total_nonelectrostatic_energy": 6.42, 
			 "SMD_solvation_energy": 4.68 
		},
		"coords": [
			{
				"x": 2.3913903775,
				"y": 0.6652968421,
				"z": -1.391777546,
				"element": "O" 
			},
			{
				"x": 1.8665439284,
				"y": 0.3298635475,
				"z": -0.3406166589,
				"element": "C" 
			},
			{
				"x": 2.4206742344,
				"y": -0.8106875848,
				"z": 0.5238391482,
				"element": "C" 
			},
			{
				"x": 2.1350555674,
				"y": -0.6528906047,
				"z": 2.0298061137,
				"element": "C" 
			},
			{
				"x": 0.6328981348,
				"y": -0.4619045869,
				"z": 2.3327066813,
				"element": "C" 
			},
			{
				"x": 0.099781349,
				"y": 0.5543435464,
				"z": 1.3853242608,
				"element": "C" 
			},
			{
				"x": 0.638446245,
				"y": 0.9368726228,
				"z": 0.1832307508,
				"element": "C" 
			},
			{
				"x": -0.2378354137,
				"y": 1.9457210826,
				"z": -0.3526175167,
				"element": "C" 
			},
			{
				"x": -1.232507888,
				"y": 2.0882755358,
				"z": 0.5575218896,
				"element": "C" 
			},
			{
				"x": -1.0394537327,
				"y": 1.2413102022,
				"z": 1.6314629038,
				"element": "O" 
			},
			{
				"x": 1.962216028,
				"y": -1.7402486629,
				"z": 0.1542519085,
				"element": "H" 
			},
			{
				"x": 3.4931742068,
				"y": -0.8899024543,
				"z": 0.3259572023,
				"element": "H" 
			},
			{
				"x": 2.514002516,
				"y": -1.5240652145,
				"z": 2.573795464,
				"element": "H" 
			},
			{
				"x": 2.6815317345,
				"y": 0.2198280381,
				"z": 2.4070851047,
				"element": "H" 
			},
			{
				"x": 0.0943416973,
				"y": -1.4132399401,
				"z": 2.2086980043,
				"element": "H" 
			},
			{
				"x": 0.4750881287,
				"y": -0.1465881154,
				"z": 3.3699278478,
				"element": "H" 
			},
			{
				"x": -0.1217647481,
				"y": 2.4728601605,
				"z": -1.2877081659,
				"element": "H" 
			},
			{
				"x": -2.1124823652,
				"y": 2.7092555855,
				"z": 0.6147126077,
				"element": "H" 
			}
		],
		 "valence_orbital": [ 
			{
				"type": "occ",
				"energy": -0.35207,
				"method": "rhf"
			},
			{
				"type": "occ",
				"energy": -0.34141,
				"method": "rhf"
			},
			{
				"type": "occ",
				"energy": -0.28224,
				"method": "rhf"
			},
			{
				"type": "occ",
				"energy": -0.23881,
				"method": "rhf"
			},
			{
				"type": "occ",
				"energy": -0.23338,
				"method": "rhf"
			},
			{
				"type": "unocc",
				"energy": -0.03349,
				"method": "rhf"
			},
			{
				"type": "unocc",
				"energy": 0.01292,
				"method": "rhf"
			},
			{
				"type": "unocc",
				"energy": 0.08023,
				"method": "rhf"
			},
			{
				"type": "unocc",
				"energy": 0.10512,
				"method": "rhf"
			},
			{
				"type": "unocc",
				"energy": 0.12668,
				"method": "rhf"
			}
		],
		"cosmo_sigma_profile": { 
			"-0.025": 0.0,
			"-0.024": 0.0,
			"-0.023": 0.0,
			"-0.022": 0.0,
			"-0.021": 0.0,
			"-0.02": 0.0,
			"-0.019": 0.0,
			"-0.018": 0.0,
			"-0.017": 0.0,
			"-0.016": 0.0,
			"-0.015": 0.0,
			"-0.014": 0.0,
			"-0.013": 0.0,
			"-0.012": 0.0,
			"-0.011": 0.0,
			"-0.01": 0.103186886399,
			"-0.009": 1.78536182215,
			"-0.008": 2.13039576969,
			"-0.007": 2.99198939097,
			"-0.006": 5.42725914379,
			"-0.005": 14.1088831134,
			"-0.004": 19.2129447687,
			"-0.003": 20.9857669049,
			"-0.002": 16.6892950515,
			"-0.001": 13.3937855824,
			"0.0": 8.6216440917,
			"0.001": 8.74452971372,
			"0.002": 10.3629373629,
			"0.003": 8.4193265415,
			"0.004": 7.67652355852,
			"0.005": 3.6656923513,
			"0.006": 3.24441347234,
			"0.007": 2.79777599503,
			"0.008": 2.36598824967,
			"0.009": 1.60989763438,
			"0.01": 2.11259656953,
			"0.011": 2.30307141014,
			"0.012": 3.81160889436,
			"0.013": 4.26941673692,
			"0.014": 1.46950287821,
			"0.015": 0.0132692319605,
			"0.016": 0.0,
			"0.017": 0.0,
			"0.018": 0.0,
			"0.019": 0.0,
			"0.02": 0.0,
			"0.021": 0.0,
			"0.022": 0.0,
			"0.023": 0.0,
			"0.024": 0.0,
			"0.025": 0.0
		}
	}
}
