{
	 "smiles": "O=C(N1CCNCC1)C1=C2C=CC=CC2=NN1", 
	 "Tm": 453.15, 
	 "num_atms": 31, 
	 "gaussian": { 
		 "optdone": 1, 
		 "sigma_profile": "yes", 
		 "theory": "DFT", 
		 "functional": "B3LYP", 
		 "basiset": "6-31G**", 
		 "properties": { 
			 "R2extent": 5403.2389, 
			 "electric_dipole_moment_norm": 3.63192993049, 
			 "electric_quadrupole_moment_norm": 11.4981579733, 
			 "total_energy": -759.931254839, 
			 "HOMO_LUMO_gap": 0.16198, 
			 "cosmo_polarized_energy": -14.3, 
			 "cosmo_cavitation_energy": 32.92, 
			 "cosmo_dispersion_energy": -24.35, 
			 "cosmo_repulsion_energy": 1.87, 
			 "cosmo_total_nonelectrostatic_energy": 10.44, 
			 "SMD_solvation_energy": 1.41 
		},
		"coords": [
			{
				"x": -2.8552502196,
				"y": 0.1746451193,
				"z": -0.1175542485,
				"element": "O" 
			},
			{
				"x": -1.7439453756,
				"y": -0.2345711914,
				"z": 0.238829878,
				"element": "C" 
			},
			{
				"x": -0.689480696,
				"y": 0.6092449454,
				"z": 0.4862108021,
				"element": "N" 
			},
			{
				"x": 0.4091443693,
				"y": 0.3215921121,
				"z": 1.4136019349,
				"element": "C" 
			},
			{
				"x": 0.2527050348,
				"y": 1.1480802993,
				"z": 2.6973733688,
				"element": "C" 
			},
			{
				"x": 0.1631310509,
				"y": 2.5656847021,
				"z": 2.3550038822,
				"element": "N" 
			},
			{
				"x": -1.0063191399,
				"y": 2.8330843061,
				"z": 1.514609072,
				"element": "C" 
			},
			{
				"x": -0.8697808391,
				"y": 2.0402014926,
				"z": 0.2124607779,
				"element": "C" 
			},
			{
				"x": -1.5520522385,
				"y": -1.7007687151,
				"z": 0.3705443066,
				"element": "C" 
			},
			{
				"x": -0.5326385522,
				"y": -2.6682809907,
				"z": 0.2269147666,
				"element": "C" 
			},
			{
				"x": 0.8544828142,
				"y": -2.6648688649,
				"z": -0.0693829253,
				"element": "C" 
			},
			{
				"x": 1.5084988419,
				"y": -3.8747731555,
				"z": -0.1540886273,
				"element": "C" 
			},
			{
				"x": 0.8285693222,
				"y": -5.112066406,
				"z": 0.0423572524,
				"element": "C" 
			},
			{
				"x": -0.520576347,
				"y": -5.1528948074,
				"z": 0.3090609722,
				"element": "C" 
			},
			{
				"x": -1.2170674711,
				"y": -3.9227062714,
				"z": 0.3920462482,
				"element": "C" 
			},
			{
				"x": -2.5436240979,
				"y": -3.7458997508,
				"z": 0.6008555968,
				"element": "N" 
			},
			{
				"x": -2.6864724171,
				"y": -2.4244442239,
				"z": 0.567504396,
				"element": "N" 
			},
			{
				"x": 1.3600156628,
				"y": 0.5837447543,
				"z": 0.9327849084,
				"element": "H" 
			},
			{
				"x": 0.4205174543,
				"y": -0.7392295571,
				"z": 1.6567523886,
				"element": "H" 
			},
			{
				"x": 1.1282245848,
				"y": 0.9859932369,
				"z": 3.3358276728,
				"element": "H" 
			},
			{
				"x": -0.636292516,
				"y": 0.7758073181,
				"z": 3.2420956657,
				"element": "H" 
			},
			{
				"x": 0.1233963951,
				"y": 3.1268347827,
				"z": 3.2008173411,
				"element": "H" 
			},
			{
				"x": -1.0460584043,
				"y": 3.9038088743,
				"z": 1.2870808232,
				"element": "H" 
			},
			{
				"x": -1.9603872489,
				"y": 2.5522872674,
				"z": 1.9972413551,
				"element": "H" 
			},
			{
				"x": -1.7561056145,
				"y": 2.1534142857,
				"z": -0.4105340258,
				"element": "H" 
			},
			{
				"x": 0.01410678,
				"y": 2.3938693519,
				"z": -0.3326041436,
				"element": "H" 
			},
			{
				"x": 1.3889650502,
				"y": -1.7378437056,
				"z": -0.2459010735,
				"element": "H" 
			},
			{
				"x": 2.5698277212,
				"y": -3.8920543714,
				"z": -0.3844466286,
				"element": "H" 
			},
			{
				"x": 1.3920507526,
				"y": -6.0374524262,
				"z": -0.032733529,
				"element": "H" 
			},
			{
				"x": -1.0542771162,
				"y": -6.0878906883,
				"z": 0.4441347752,
				"element": "H" 
			},
			{
				"x": -3.6034075403,
				"y": -1.9985477223,
				"z": 0.6271370166,
				"element": "H" 
			}
		],
		 "valence_orbital": [ 
			{
				"type": "occ",
				"energy": -0.26377,
				"method": "rhf"
			},
			{
				"type": "occ",
				"energy": -0.25178,
				"method": "rhf"
			},
			{
				"type": "occ",
				"energy": -0.2478,
				"method": "rhf"
			},
			{
				"type": "occ",
				"energy": -0.22984,
				"method": "rhf"
			},
			{
				"type": "occ",
				"energy": -0.21255,
				"method": "rhf"
			},
			{
				"type": "unocc",
				"energy": -0.05057,
				"method": "rhf"
			},
			{
				"type": "unocc",
				"energy": -0.00128,
				"method": "rhf"
			},
			{
				"type": "unocc",
				"energy": 0.02803,
				"method": "rhf"
			},
			{
				"type": "unocc",
				"energy": 0.0732,
				"method": "rhf"
			},
			{
				"type": "unocc",
				"energy": 0.08568,
				"method": "rhf"
			}
		],
		"cosmo_sigma_profile": { 
			"-0.025": 0.0,
			"-0.024": 0.0,
			"-0.023": 0.0,
			"-0.022": 0.0,
			"-0.021": 0.0,
			"-0.02": 0.0,
			"-0.019": 0.0,
			"-0.018": 0.0,
			"-0.017": 0.0639897655748,
			"-0.016": 0.668824874889,
			"-0.015": 0.770234089857,
			"-0.014": 0.655479994336,
			"-0.013": 0.543955639305,
			"-0.012": 0.865498529728,
			"-0.011": 1.29482189527,
			"-0.01": 2.21909268897,
			"-0.009": 1.9065433652,
			"-0.008": 1.78036817796,
			"-0.007": 2.27425191233,
			"-0.006": 8.64861084874,
			"-0.005": 17.2175877173,
			"-0.004": 29.0648092919,
			"-0.003": 29.2484637574,
			"-0.002": 27.4781600602,
			"-0.001": 20.5196665803,
			"0.0": 13.8357287229,
			"0.001": 15.8106946409,
			"0.002": 12.1141224075,
			"0.003": 14.5226799345,
			"0.004": 14.0875092176,
			"0.005": 11.797954042,
			"0.006": 3.12460725741,
			"0.007": 3.10534952813,
			"0.008": 3.38461012516,
			"0.009": 3.20089101617,
			"0.01": 3.17032048435,
			"0.011": 3.38798671249,
			"0.012": 3.67533795634,
			"0.013": 5.09123422008,
			"0.014": 2.63520212312,
			"0.015": 0.993510118545,
			"0.016": 0.87850334253,
			"0.017": 0.498017934963,
			"0.018": 0.0114675851258,
			"0.019": 0.0,
			"0.02": 0.0,
			"0.021": 0.0,
			"0.022": 0.0,
			"0.023": 0.0,
			"0.024": 0.0,
			"0.025": 0.0
		}
	}
}
