{
	 "smiles": "CSC1=CC=C(OC2=C(C=C(C=C2)C(F)(F)F)[N+]([O-])=O)C=C1", 
	 "Tm": 315.15, 
	 "num_atms": 32, 
	 "gaussian": { 
		 "optdone": 1, 
		 "sigma_profile": "yes", 
		 "theory": "DFT", 
		 "functional": "B3LYP", 
		 "basiset": "6-31G**", 
		 "properties": { 
			 "R2extent": 11302.2241, 
			 "electric_dipole_moment_norm": 4.25975120752, 
			 "electric_quadrupole_moment_norm": 22.2085719588, 
			 "total_energy": -1517.53307888, 
			 "HOMO_LUMO_gap": 0.14519, 
			 "cosmo_polarized_energy": -12.94, 
			 "cosmo_cavitation_energy": 41.52, 
			 "cosmo_dispersion_energy": -28.8, 
			 "cosmo_repulsion_energy": 2.11, 
			 "cosmo_total_nonelectrostatic_energy": 14.84, 
			 "SMD_solvation_energy": 10.74 
		},
		"coords": [
			{
				"x": 2.0966063508,
				"y": -4.4000043199,
				"z": -4.607279773,
				"element": "C" 
			},
			{
				"x": 2.7679997946,
				"y": -2.8181442489,
				"z": -3.9632446873,
				"element": "S" 
			},
			{
				"x": 1.6037035802,
				"y": -2.4737028553,
				"z": -2.6405885357,
				"element": "C" 
			},
			{
				"x": 1.7168024105,
				"y": -3.1192106991,
				"z": -1.4012620257,
				"element": "C" 
			},
			{
				"x": 0.8285508007,
				"y": -2.8289025665,
				"z": -0.3662008781,
				"element": "C" 
			},
			{
				"x": -0.1683867236,
				"y": -1.8778463329,
				"z": -0.5741698867,
				"element": "C" 
			},
			{
				"x": -1.0926905489,
				"y": -1.6668044976,
				"z": 0.4442760724,
				"element": "O" 
			},
			{
				"x": -1.1628745999,
				"y": -0.4713603661,
				"z": 1.0791155469,
				"element": "C" 
			},
			{
				"x": -2.2724653246,
				"y": -0.2061625914,
				"z": 1.9086408345,
				"element": "C" 
			},
			{
				"x": -2.3445664271,
				"y": 0.9650809169,
				"z": 2.6594562301,
				"element": "C" 
			},
			{
				"x": -1.3290105795,
				"y": 1.9103381295,
				"z": 2.5755301657,
				"element": "C" 
			},
			{
				"x": -0.2259510405,
				"y": 1.6636954671,
				"z": 1.7505641299,
				"element": "C" 
			},
			{
				"x": -0.1383409092,
				"y": 0.4864252859,
				"z": 1.0196695915,
				"element": "C" 
			},
			{
				"x": -1.4331866699,
				"y": 3.2109008176,
				"z": 3.3240406525,
				"element": "C" 
			},
			{
				"x": -2.2493763287,
				"y": 3.111832787,
				"z": 4.3929504341,
				"element": "F" 
			},
			{
				"x": -1.9215091054,
				"y": 4.1987202968,
				"z": 2.5392638298,
				"element": "F" 
			},
			{
				"x": -0.2236242619,
				"y": 3.6241933697,
				"z": 3.7637191241,
				"element": "F" 
			},
			{
				"x": -3.4083387536,
				"y": -1.1350969134,
				"z": 2.0175621196,
				"element": "N" 
			},
			{
				"x": -4.0497832485,
				"y": -1.1043680022,
				"z": 3.0689594342,
				"element": "O" 
			},
			{
				"x": -3.6656379388,
				"y": -1.8519519571,
				"z": 1.0558543358,
				"element": "O" 
			},
			{
				"x": -0.2996822597,
				"y": -1.2207037158,
				"z": -1.7973952471,
				"element": "C" 
			},
			{
				"x": 0.5913925477,
				"y": -1.5218284996,
				"z": -2.827117485,
				"element": "C" 
			},
			{
				"x": 2.1040694185,
				"y": -5.1733751982,
				"z": -3.8364656627,
				"element": "H" 
			},
			{
				"x": 1.0841673555,
				"y": -4.2664792067,
				"z": -4.9935180457,
				"element": "H" 
			},
			{
				"x": 2.7562992257,
				"y": -4.70330539,
				"z": -5.4236334625,
				"element": "H" 
			},
			{
				"x": 2.5080314979,
				"y": -3.8455974335,
				"z": -1.2453200835,
				"element": "H" 
			},
			{
				"x": 0.8987075851,
				"y": -3.3262741161,
				"z": 0.5953854136,
				"element": "H" 
			},
			{
				"x": -3.2019260808,
				"y": 1.1127211074,
				"z": 3.3035054041,
				"element": "H" 
			},
			{
				"x": 0.5791386021,
				"y": 2.3887716751,
				"z": 1.6959203718,
				"element": "H" 
			},
			{
				"x": 0.7316069526,
				"y": 0.2895556964,
				"z": 0.4052729864,
				"element": "H" 
			},
			{
				"x": -1.0966411386,
				"y": -0.4984105494,
				"z": -1.9409814574,
				"element": "H" 
			},
			{
				"x": 0.4987158174,
				"y": -1.0227060897,
				"z": -3.7861094467,
				"element": "H" 
			}
		],
		 "valence_orbital": [ 
			{
				"type": "occ",
				"energy": -0.28711,
				"method": "rhf"
			},
			{
				"type": "occ",
				"energy": -0.28016,
				"method": "rhf"
			},
			{
				"type": "occ",
				"energy": -0.27393,
				"method": "rhf"
			},
			{
				"type": "occ",
				"energy": -0.25702,
				"method": "rhf"
			},
			{
				"type": "occ",
				"energy": -0.23652,
				"method": "rhf"
			},
			{
				"type": "unocc",
				"energy": -0.09133,
				"method": "rhf"
			},
			{
				"type": "unocc",
				"energy": -0.04448,
				"method": "rhf"
			},
			{
				"type": "unocc",
				"energy": -0.03359,
				"method": "rhf"
			},
			{
				"type": "unocc",
				"energy": -0.03135,
				"method": "rhf"
			},
			{
				"type": "unocc",
				"energy": -0.0178,
				"method": "rhf"
			}
		],
		"cosmo_sigma_profile": { 
			"-0.025": 0.0,
			"-0.024": 0.0,
			"-0.023": 0.0,
			"-0.022": 0.0,
			"-0.021": 0.0,
			"-0.02": 0.0,
			"-0.019": 0.0,
			"-0.018": 0.0,
			"-0.017": 0.0,
			"-0.016": 0.0,
			"-0.015": 0.0,
			"-0.014": 0.0,
			"-0.013": 0.0,
			"-0.012": 0.0,
			"-0.011": 0.0,
			"-0.01": 0.0,
			"-0.009": 0.927800686106,
			"-0.008": 5.50764374085,
			"-0.007": 12.9852230716,
			"-0.006": 16.912386415,
			"-0.005": 20.594629305,
			"-0.004": 20.6985672397,
			"-0.003": 21.93971555,
			"-0.002": 28.2619977247,
			"-0.001": 30.9784747671,
			"0.0": 26.1251824614,
			"0.001": 24.4331190409,
			"0.002": 37.8702710281,
			"0.003": 33.0708201981,
			"0.004": 7.67897720215,
			"0.005": 6.43511310108,
			"0.006": 7.23572894832,
			"0.007": 10.6090863194,
			"0.008": 11.5647662911,
			"0.009": 8.15021370372,
			"0.01": 3.58548480855,
			"0.011": 0.0472651102894,
			"0.012": 0.0,
			"0.013": 0.0,
			"0.014": 0.0,
			"0.015": 0.0,
			"0.016": 0.0,
			"0.017": 0.0,
			"0.018": 0.0,
			"0.019": 0.0,
			"0.02": 0.0,
			"0.021": 0.0,
			"0.022": 0.0,
			"0.023": 0.0,
			"0.024": 0.0,
			"0.025": 0.0
		}
	}
}
