{
	 "smiles": "CCOC1=CC(=CC=C1C(O)=O)[N+]([O-])=O", 
	 "Tm": 422.65, 
	 "num_atms": 24, 
	 "gaussian": { 
		 "optdone": 1, 
		 "sigma_profile": "yes", 
		 "theory": "DFT", 
		 "functional": "B3LYP", 
		 "basiset": "6-31G**", 
		 "properties": { 
			 "R2extent": 3910.9511, 
			 "electric_dipole_moment_norm": 4.82992729241, 
			 "electric_quadrupole_moment_norm": 27.3783706957, 
			 "total_energy": -779.16176597, 
			 "HOMO_LUMO_gap": 0.16009, 
			 "cosmo_polarized_energy": -15.92, 
			 "cosmo_cavitation_energy": 29.25, 
			 "cosmo_dispersion_energy": -21.19, 
			 "cosmo_repulsion_energy": 1.65, 
			 "cosmo_total_nonelectrostatic_energy": 9.71, 
			 "SMD_solvation_energy": 8.84 
		},
		"coords": [
			{
				"x": -2.2589322548,
				"y": 2.6396083961,
				"z": 0.6398937403,
				"element": "C" 
			},
			{
				"x": -1.3473573324,
				"y": 1.4478675431,
				"z": 0.8619297594,
				"element": "C" 
			},
			{
				"x": -0.9184413042,
				"y": 0.9791256999,
				"z": -0.432047904,
				"element": "O" 
			},
			{
				"x": -0.0806798418,
				"y": -0.0974790079,
				"z": -0.5302959934,
				"element": "C" 
			},
			{
				"x": 0.3909601586,
				"y": -0.780632843,
				"z": 0.5920638806,
				"element": "C" 
			},
			{
				"x": 1.2404035806,
				"y": -1.8668390473,
				"z": 0.4031122774,
				"element": "C" 
			},
			{
				"x": 1.6403451013,
				"y": -2.3017232753,
				"z": -0.8548648412,
				"element": "C" 
			},
			{
				"x": 1.1594018833,
				"y": -1.6074746894,
				"z": -1.9599728988,
				"element": "C" 
			},
			{
				"x": 0.3026963718,
				"y": -0.5082461662,
				"z": -1.8305404868,
				"element": "C" 
			},
			{
				"x": -0.1361903784,
				"y": 0.1434287612,
				"z": -3.1260695386,
				"element": "C" 
			},
			{
				"x": -0.9587975808,
				"y": 1.2020800764,
				"z": -3.0516442469,
				"element": "O" 
			},
			{
				"x": 0.2424608131,
				"y": -0.2764212377,
				"z": -4.1970363788,
				"element": "O" 
			},
			{
				"x": 1.7298258066,
				"y": -2.5781156704,
				"z": 1.6006075368,
				"element": "N" 
			},
			{
				"x": 2.4783344402,
				"y": -3.5360684199,
				"z": 1.4241537411,
				"element": "O" 
			},
			{
				"x": 1.3575646746,
				"y": -2.1671790451,
				"z": 2.6994556368,
				"element": "O" 
			},
			{
				"x": -2.6039530873,
				"y": 3.0212199742,
				"z": 1.6051603865,
				"element": "H" 
			},
			{
				"x": -1.730434503,
				"y": 3.444642164,
				"z": 0.1217745554,
				"element": "H" 
			},
			{
				"x": -3.1350756959,
				"y": 2.3567579059,
				"z": 0.0498010994,
				"element": "H" 
			},
			{
				"x": -0.4646638723,
				"y": 1.7243743984,
				"z": 1.4508064672,
				"element": "H" 
			},
			{
				"x": -1.871153276,
				"y": 0.6351135024,
				"z": 1.3790830293,
				"element": "H" 
			},
			{
				"x": 0.1243202763,
				"y": -0.5015716232,
				"z": 1.6009172163,
				"element": "H" 
			},
			{
				"x": 2.3025618554,
				"y": -3.1519392608,
				"z": -0.9504496418,
				"element": "H" 
			},
			{
				"x": 1.4354964203,
				"y": -1.8986827548,
				"z": -2.9670712404,
				"element": "H" 
			},
			{
				"x": -1.1600922554,
				"y": 1.4011546193,
				"z": -2.1180661559,
				"element": "H" 
			}
		],
		 "valence_orbital": [ 
			{
				"type": "occ",
				"energy": -0.31742,
				"method": "rhf"
			},
			{
				"type": "occ",
				"energy": -0.30394,
				"method": "rhf"
			},
			{
				"type": "occ",
				"energy": -0.29132,
				"method": "rhf"
			},
			{
				"type": "occ",
				"energy": -0.27896,
				"method": "rhf"
			},
			{
				"type": "occ",
				"energy": -0.26829,
				"method": "rhf"
			},
			{
				"type": "unocc",
				"energy": -0.1082,
				"method": "rhf"
			},
			{
				"type": "unocc",
				"energy": -0.03829,
				"method": "rhf"
			},
			{
				"type": "unocc",
				"energy": -0.03002,
				"method": "rhf"
			},
			{
				"type": "unocc",
				"energy": 0.04892,
				"method": "rhf"
			},
			{
				"type": "unocc",
				"energy": 0.06374,
				"method": "rhf"
			}
		],
		"cosmo_sigma_profile": { 
			"-0.025": 0.0,
			"-0.024": 0.0,
			"-0.023": 0.0,
			"-0.022": 0.0,
			"-0.021": 0.0,
			"-0.02": 0.0,
			"-0.019": 0.0,
			"-0.018": 0.0,
			"-0.017": 0.0,
			"-0.016": 0.0,
			"-0.015": 0.0,
			"-0.014": 0.0,
			"-0.013": 0.0,
			"-0.012": 0.0,
			"-0.011": 0.0,
			"-0.01": 0.0,
			"-0.009": 0.873656508897,
			"-0.008": 5.14187755785,
			"-0.007": 10.9747513282,
			"-0.006": 16.1022890245,
			"-0.005": 17.8062106777,
			"-0.004": 20.7044197399,
			"-0.003": 19.6227122572,
			"-0.002": 20.4707939869,
			"-0.001": 25.9673995396,
			"0.0": 17.7576646885,
			"0.001": 7.84316355562,
			"0.002": 5.1497246556,
			"0.003": 4.8317837835,
			"0.004": 4.85696464664,
			"0.005": 5.14128194212,
			"0.006": 6.50340125739,
			"0.007": 11.7659950547,
			"0.008": 8.76247966769,
			"0.009": 6.49478008157,
			"0.01": 5.39515931994,
			"0.011": 5.76955385462,
			"0.012": 4.19070149508,
			"0.013": 1.56817164722,
			"0.014": 0.0691514340869,
			"0.015": 0.0,
			"0.016": 0.0,
			"0.017": 0.0,
			"0.018": 0.0,
			"0.019": 0.0,
			"0.02": 0.0,
			"0.021": 0.0,
			"0.022": 0.0,
			"0.023": 0.0,
			"0.024": 0.0,
			"0.025": 0.0
		}
	}
}
