{
	 "smiles": "CC1=NN(C(=O)C1=NO)C1=CC=CC=C1", 
	 "Tm": 405.15, 
	 "num_atms": 24, 
	 "gaussian": { 
		 "optdone": 1, 
		 "sigma_profile": "yes", 
		 "theory": "DFT", 
		 "functional": "B3LYP", 
		 "basiset": "6-31G**", 
		 "properties": { 
			 "R2extent": 3901.5751, 
			 "electric_dipole_moment_norm": 2.1877346297, 
			 "electric_quadrupole_moment_norm": 10.7675886233, 
			 "total_energy": -701.114601245, 
			 "HOMO_LUMO_gap": 0.1227, 
			 "cosmo_polarized_energy": -8.2, 
			 "cosmo_cavitation_energy": 28.66, 
			 "cosmo_dispersion_energy": -21.44, 
			 "cosmo_repulsion_energy": 1.66, 
			 "cosmo_total_nonelectrostatic_energy": 8.88, 
			 "SMD_solvation_energy": 4.91 
		},
		"coords": [
			{
				"x": -1.1585604788,
				"y": 0.1534129128,
				"z": 3.0454692781,
				"element": "C" 
			},
			{
				"x": -0.9161252924,
				"y": -0.4608681641,
				"z": 1.7086931924,
				"element": "C" 
			},
			{
				"x": -0.4065104563,
				"y": 0.2030468063,
				"z": 0.7162206537,
				"element": "N" 
			},
			{
				"x": -0.3067516593,
				"y": -0.6574477818,
				"z": -0.3987259523,
				"element": "N" 
			},
			{
				"x": -0.768760758,
				"y": -1.9172243613,
				"z": -0.1107989866,
				"element": "C" 
			},
			{
				"x": -0.8395802862,
				"y": -2.9284406799,
				"z": -0.827597969,
				"element": "O" 
			},
			{
				"x": -1.191310118,
				"y": -1.8316302241,
				"z": 1.3032536185,
				"element": "C" 
			},
			{
				"x": -1.7000761587,
				"y": -2.7811405713,
				"z": 2.0273060094,
				"element": "N" 
			},
			{
				"x": -1.8564864953,
				"y": -3.969523054,
				"z": 1.41661799,
				"element": "O" 
			},
			{
				"x": 0.2275182838,
				"y": -0.1479519047,
				"z": -1.6125626827,
				"element": "C" 
			},
			{
				"x": 0.6400595777,
				"y": 1.1902279941,
				"z": -1.6690207538,
				"element": "C" 
			},
			{
				"x": 1.1648617087,
				"y": 1.6963100012,
				"z": -2.8562052677,
				"element": "C" 
			},
			{
				"x": 1.28324981,
				"y": 0.8855915743,
				"z": -3.9863284749,
				"element": "C" 
			},
			{
				"x": 0.8692719167,
				"y": -0.445278585,
				"z": -3.9185330379,
				"element": "C" 
			},
			{
				"x": 0.3410519556,
				"y": -0.9734050199,
				"z": -2.7411343881,
				"element": "C" 
			},
			{
				"x": -0.8474450181,
				"y": 1.1993861407,
				"z": 3.0361645432,
				"element": "H" 
			},
			{
				"x": -2.2193967278,
				"y": 0.0941540778,
				"z": 3.3102831233,
				"element": "H" 
			},
			{
				"x": -0.6029366484,
				"y": -0.382124678,
				"z": 3.8223112173,
				"element": "H" 
			},
			{
				"x": -1.5356730504,
				"y": -3.8922888816,
				"z": 0.4747883693,
				"element": "H" 
			},
			{
				"x": 0.5455778922,
				"y": 1.8133482174,
				"z": -0.7894710359,
				"element": "H" 
			},
			{
				"x": 1.4827378619,
				"y": 2.7342109817,
				"z": -2.8934422782,
				"element": "H" 
			},
			{
				"x": 1.6931125576,
				"y": 1.2862519199,
				"z": -4.9084331748,
				"element": "H" 
			},
			{
				"x": 0.9554789752,
				"y": -1.0877104686,
				"z": -4.7899832812,
				"element": "H" 
			},
			{
				"x": 0.0210926082,
				"y": -2.0053062518,
				"z": -2.6917707117,
				"element": "H" 
			}
		],
		 "valence_orbital": [ 
			{
				"type": "occ",
				"energy": -0.31542,
				"method": "rhf"
			},
			{
				"type": "occ",
				"energy": -0.27501,
				"method": "rhf"
			},
			{
				"type": "occ",
				"energy": -0.27119,
				"method": "rhf"
			},
			{
				"type": "occ",
				"energy": -0.25636,
				"method": "rhf"
			},
			{
				"type": "occ",
				"energy": -0.22745,
				"method": "rhf"
			},
			{
				"type": "unocc",
				"energy": -0.10475,
				"method": "rhf"
			},
			{
				"type": "unocc",
				"energy": -0.02237,
				"method": "rhf"
			},
			{
				"type": "unocc",
				"energy": -0.00631,
				"method": "rhf"
			},
			{
				"type": "unocc",
				"energy": 0.03606,
				"method": "rhf"
			},
			{
				"type": "unocc",
				"energy": 0.08262,
				"method": "rhf"
			}
		],
		"cosmo_sigma_profile": { 
			"-0.025": 0.0,
			"-0.024": 0.0,
			"-0.023": 0.0,
			"-0.022": 0.0,
			"-0.021": 0.0,
			"-0.02": 0.0,
			"-0.019": 0.0,
			"-0.018": 0.0,
			"-0.017": 0.0,
			"-0.016": 0.0,
			"-0.015": 0.0,
			"-0.014": 0.0,
			"-0.013": 0.0,
			"-0.012": 0.0,
			"-0.011": 0.0,
			"-0.01": 0.368931977207,
			"-0.009": 0.582205231121,
			"-0.008": 0.877262065357,
			"-0.007": 3.39883255039,
			"-0.006": 16.1935921307,
			"-0.005": 20.3053280674,
			"-0.004": 21.0367214381,
			"-0.003": 19.1122388591,
			"-0.002": 20.0247287439,
			"-0.001": 15.073780642,
			"0.0": 12.8701121377,
			"0.001": 13.8694315659,
			"0.002": 15.2901289204,
			"0.003": 14.3907776301,
			"0.004": 15.2069666426,
			"0.005": 14.8152365875,
			"0.006": 5.51409506733,
			"0.007": 6.78417094035,
			"0.008": 6.7119093572,
			"0.009": 6.36694286696,
			"0.01": 1.44043048155,
			"0.011": 0.482176419174,
			"0.012": 0.0,
			"0.013": 0.0,
			"0.014": 0.0,
			"0.015": 0.0,
			"0.016": 0.0,
			"0.017": 0.0,
			"0.018": 0.0,
			"0.019": 0.0,
			"0.02": 0.0,
			"0.021": 0.0,
			"0.022": 0.0,
			"0.023": 0.0,
			"0.024": 0.0,
			"0.025": 0.0
		}
	}
}
