{
	 "smiles": "COC1=CC=C(C=C1)N1C=NC=N1", 
	 "Tm": 370.15, 
	 "num_atms": 22, 
	 "gaussian": { 
		 "optdone": 1, 
		 "sigma_profile": "yes", 
		 "theory": "DFT", 
		 "functional": "B3LYP", 
		 "basiset": "6-31G**", 
		 "properties": { 
			 "R2extent": 3759.3928, 
			 "electric_dipole_moment_norm": 3.750273822, 
			 "electric_quadrupole_moment_norm": 9.52766972874, 
			 "total_energy": -587.82776264, 
			 "HOMO_LUMO_gap": 0.19019, 
			 "cosmo_polarized_energy": -11.31, 
			 "cosmo_cavitation_energy": 26.35, 
			 "cosmo_dispersion_energy": -19.75, 
			 "cosmo_repulsion_energy": 1.52, 
			 "cosmo_total_nonelectrostatic_energy": 8.11, 
			 "SMD_solvation_energy": 3.58 
		},
		"coords": [
			{
				"x": 0.3400979221,
				"y": 0.9707663529,
				"z": 3.265029322,
				"element": "C" 
			},
			{
				"x": 0.1098638083,
				"y": -0.3795802017,
				"z": 2.8915035398,
				"element": "O" 
			},
			{
				"x": 0.0872816534,
				"y": -0.687231059,
				"z": 1.5641109032,
				"element": "C" 
			},
			{
				"x": 0.2753054325,
				"y": 0.232304491,
				"z": 0.5253474821,
				"element": "C" 
			},
			{
				"x": 0.231713153,
				"y": -0.193694363,
				"z": -0.8025571044,
				"element": "C" 
			},
			{
				"x": 0.0010950401,
				"y": -1.5354150886,
				"z": -1.1056045946,
				"element": "C" 
			},
			{
				"x": -0.1874362222,
				"y": -2.4580524426,
				"z": -0.0669912601,
				"element": "C" 
			},
			{
				"x": -0.1443110796,
				"y": -2.0356602476,
				"z": 1.2537656433,
				"element": "C" 
			},
			{
				"x": -0.0399989294,
				"y": -1.9515105826,
				"z": -2.4666355326,
				"element": "N" 
			},
			{
				"x": -0.2458177234,
				"y": -3.1851704501,
				"z": -3.0008210534,
				"element": "C" 
			},
			{
				"x": -0.2055770364,
				"y": -3.1362388491,
				"z": -4.3203686995,
				"element": "N" 
			},
			{
				"x": 0.0343367228,
				"y": -1.8160673336,
				"z": -4.5572929133,
				"element": "C" 
			},
			{
				"x": 0.1425102637,
				"y": -1.0577552828,
				"z": -3.4787315784,
				"element": "N" 
			},
			{
				"x": 0.3169305051,
				"y": 0.9892988685,
				"z": 4.3553692256,
				"element": "H" 
			},
			{
				"x": -0.4402714969,
				"y": 1.6367840593,
				"z": 2.8750612789,
				"element": "H" 
			},
			{
				"x": 1.3191542711,
				"y": 1.3250109183,
				"z": 2.9177658477,
				"element": "H" 
			},
			{
				"x": 0.456082268,
				"y": 1.2800173227,
				"z": 0.7324606064,
				"element": "H" 
			},
			{
				"x": 0.3758833987,
				"y": 0.5093866518,
				"z": -1.6132671826,
				"element": "H" 
			},
			{
				"x": -0.3682568821,
				"y": -3.506484271,
				"z": -0.2767283582,
				"element": "H" 
			},
			{
				"x": -0.2884703486,
				"y": -2.738405848,
				"z": 2.0672829907,
				"element": "H" 
			},
			{
				"x": -0.4170188336,
				"y": -4.0709322405,
				"z": -2.4082882464,
				"element": "H" 
			},
			{
				"x": 0.1318041134,
				"y": -1.4004704046,
				"z": -5.5508103161,
				"element": "H" 
			}
		],
		 "valence_orbital": [ 
			{
				"type": "occ",
				"energy": -0.29665,
				"method": "rhf"
			},
			{
				"type": "occ",
				"energy": -0.2749,
				"method": "rhf"
			},
			{
				"type": "occ",
				"energy": -0.27353,
				"method": "rhf"
			},
			{
				"type": "occ",
				"energy": -0.26406,
				"method": "rhf"
			},
			{
				"type": "occ",
				"energy": -0.21748,
				"method": "rhf"
			},
			{
				"type": "unocc",
				"energy": -0.02729,
				"method": "rhf"
			},
			{
				"type": "unocc",
				"energy": -0.01606,
				"method": "rhf"
			},
			{
				"type": "unocc",
				"energy": 0.04109,
				"method": "rhf"
			},
			{
				"type": "unocc",
				"energy": 0.05665,
				"method": "rhf"
			},
			{
				"type": "unocc",
				"energy": 0.07783,
				"method": "rhf"
			}
		],
		"cosmo_sigma_profile": { 
			"-0.025": 0.0,
			"-0.024": 0.0,
			"-0.023": 0.0,
			"-0.022": 0.0,
			"-0.021": 0.0,
			"-0.02": 0.0,
			"-0.019": 0.0,
			"-0.018": 0.0,
			"-0.017": 0.0,
			"-0.016": 0.0,
			"-0.015": 0.0,
			"-0.014": 0.0,
			"-0.013": 0.0,
			"-0.012": 0.513164344659,
			"-0.011": 2.62521697547,
			"-0.01": 1.83261536913,
			"-0.009": 2.98474094041,
			"-0.008": 3.92904197072,
			"-0.007": 5.48558703132,
			"-0.006": 13.7004916441,
			"-0.005": 16.9931351805,
			"-0.004": 16.5618384779,
			"-0.003": 15.2580834272,
			"-0.002": 10.5343983991,
			"-0.001": 12.7786346567,
			"0.0": 11.3819200836,
			"0.001": 13.9663805664,
			"0.002": 15.8132385726,
			"0.003": 17.1742119559,
			"0.004": 16.0320475999,
			"0.005": 5.5058760851,
			"0.006": 4.23135533827,
			"0.007": 4.85410301765,
			"0.008": 3.92177235545,
			"0.009": 3.26547692484,
			"0.01": 3.93461325502,
			"0.011": 2.7247323096,
			"0.012": 1.52355284128,
			"0.013": 1.26278624577,
			"0.014": 0.680078525019,
			"0.015": 1.32033182105,
			"0.016": 0.899124824306,
			"0.017": 0.172238854127,
			"0.018": 0.0,
			"0.019": 0.0,
			"0.02": 0.0,
			"0.021": 0.0,
			"0.022": 0.0,
			"0.023": 0.0,
			"0.024": 0.0,
			"0.025": 0.0
		}
	}
}
