{
	 "smiles": "CC1=CC(N)=NN1C1=CC(F)=CC=C1", 
	 "Tm": 343.15, 
	 "num_atms": 24, 
	 "gaussian": { 
		 "optdone": 1, 
		 "sigma_profile": "yes", 
		 "theory": "DFT", 
		 "functional": "B3LYP", 
		 "basiset": "6-31G**", 
		 "properties": { 
			 "R2extent": 3270.2982, 
			 "electric_dipole_moment_norm": 3.21302043878, 
			 "electric_quadrupole_moment_norm": 9.02090048221, 
			 "total_energy": -651.165848998, 
			 "HOMO_LUMO_gap": 0.17913, 
			 "cosmo_polarized_energy": -11.54, 
			 "cosmo_cavitation_energy": 28.4, 
			 "cosmo_dispersion_energy": -20.75, 
			 "cosmo_repulsion_energy": 1.61, 
			 "cosmo_total_nonelectrostatic_energy": 9.26, 
			 "SMD_solvation_energy": 4.63 
		},
		"coords": [
			{
				"x": -0.7149482098,
				"y": -1.92677827,
				"z": 1.6867793988,
				"element": "C" 
			},
			{
				"x": 0.3546570694,
				"y": -1.4575271539,
				"z": 0.7499322105,
				"element": "C" 
			},
			{
				"x": 1.3009472897,
				"y": -2.2113099561,
				"z": 0.0867604602,
				"element": "C" 
			},
			{
				"x": 2.0136110034,
				"y": -1.2904585066,
				"z": -0.7261053664,
				"element": "C" 
			},
			{
				"x": 3.0307897502,
				"y": -1.5762094421,
				"z": -1.6331788842,
				"element": "N" 
			},
			{
				"x": 1.5570774881,
				"y": -0.0534749768,
				"z": -0.5829101016,
				"element": "N" 
			},
			{
				"x": 0.5349829573,
				"y": -0.1577126248,
				"z": 0.3332023583,
				"element": "N" 
			},
			{
				"x": -0.2117122555,
				"y": 1.0050298055,
				"z": 0.6328130898,
				"element": "C" 
			},
			{
				"x": -0.3713150595,
				"y": 1.9707941489,
				"z": -0.3706473301,
				"element": "C" 
			},
			{
				"x": -1.0946994418,
				"y": 3.1165916094,
				"z": -0.078333416,
				"element": "C" 
			},
			{
				"x": -1.2488644331,
				"y": 4.0438903656,
				"z": -1.0467427526,
				"element": "F" 
			},
			{
				"x": -1.6769218189,
				"y": 3.3439502325,
				"z": 1.1650857928,
				"element": "C" 
			},
			{
				"x": -1.4994000239,
				"y": 2.3768538008,
				"z": 2.1534405001,
				"element": "C" 
			},
			{
				"x": -0.7638692017,
				"y": 1.2174418575,
				"z": 1.9041409241,
				"element": "C" 
			},
			{
				"x": -0.8601833396,
				"y": -3.001233537,
				"z": 1.5516839964,
				"element": "H" 
			},
			{
				"x": -0.4557154065,
				"y": -1.7612779395,
				"z": 2.7391585304,
				"element": "H" 
			},
			{
				"x": -1.6696461953,
				"y": -1.426971911,
				"z": 1.4991211675,
				"element": "H" 
			},
			{
				"x": 1.436083045,
				"y": -3.2808713803,
				"z": 0.1565748791,
				"element": "H" 
			},
			{
				"x": 3.6834064241,
				"y": -2.2774303175,
				"z": -1.307744272,
				"element": "H" 
			},
			{
				"x": 3.5124636985,
				"y": -0.7391454641,
				"z": -1.9386608555,
				"element": "H" 
			},
			{
				"x": 0.0705721834,
				"y": 1.8244604851,
				"z": -1.3471777696,
				"element": "H" 
			},
			{
				"x": -2.2369380105,
				"y": 4.2551243659,
				"z": 1.3418708418,
				"element": "H" 
			},
			{
				"x": -1.9237875652,
				"y": 2.5351514016,
				"z": 3.1402218962,
				"element": "H" 
			},
			{
				"x": -0.5953899477,
				"y": 0.505013407,
				"z": 2.7009147019,
				"element": "H" 
			}
		],
		 "valence_orbital": [ 
			{
				"type": "occ",
				"energy": -0.28263,
				"method": "rhf"
			},
			{
				"type": "occ",
				"energy": -0.26356,
				"method": "rhf"
			},
			{
				"type": "occ",
				"energy": -0.24677,
				"method": "rhf"
			},
			{
				"type": "occ",
				"energy": -0.23198,
				"method": "rhf"
			},
			{
				"type": "occ",
				"energy": -0.19811,
				"method": "rhf"
			},
			{
				"type": "unocc",
				"energy": -0.01898,
				"method": "rhf"
			},
			{
				"type": "unocc",
				"energy": -0.00085,
				"method": "rhf"
			},
			{
				"type": "unocc",
				"energy": 0.03936,
				"method": "rhf"
			},
			{
				"type": "unocc",
				"energy": 0.07669,
				"method": "rhf"
			},
			{
				"type": "unocc",
				"energy": 0.08512,
				"method": "rhf"
			}
		],
		"cosmo_sigma_profile": { 
			"-0.025": 0.0,
			"-0.024": 0.0,
			"-0.023": 0.0,
			"-0.022": 0.0,
			"-0.021": 0.0,
			"-0.02": 0.0,
			"-0.019": 0.0,
			"-0.018": 0.0,
			"-0.017": 0.0,
			"-0.016": 0.0,
			"-0.015": 0.0,
			"-0.014": 0.0,
			"-0.013": 0.431749097357,
			"-0.012": 2.16853619799,
			"-0.011": 2.47973802684,
			"-0.01": 1.94069759698,
			"-0.009": 2.06415314386,
			"-0.008": 3.03681617844,
			"-0.007": 7.76329643694,
			"-0.006": 11.5145301422,
			"-0.005": 15.0695132423,
			"-0.004": 15.9672589991,
			"-0.003": 13.7266689026,
			"-0.002": 14.403382947,
			"-0.001": 14.6468411617,
			"0.0": 12.9733739421,
			"0.001": 16.984616034,
			"0.002": 16.4117755865,
			"0.003": 18.1434244023,
			"0.004": 22.3049376808,
			"0.005": 10.7191300019,
			"0.006": 5.58543113093,
			"0.007": 3.33337643108,
			"0.008": 2.85384661875,
			"0.009": 2.90561811922,
			"0.01": 1.87878378968,
			"0.011": 2.05665598835,
			"0.012": 1.39173154913,
			"0.013": 1.17130249015,
			"0.014": 1.58410833625,
			"0.015": 1.14082089266,
			"0.016": 0.049209350977,
			"0.017": 0.0,
			"0.018": 0.0,
			"0.019": 0.0,
			"0.02": 0.0,
			"0.021": 0.0,
			"0.022": 0.0,
			"0.023": 0.0,
			"0.024": 0.0,
			"0.025": 0.0
		}
	}
}
