{
	 "smiles": "CN1C(=O)C(C2=NNC(=O)C2=N/NC2=CC(Cl)=CC=C2Cl)=C(O)C2=CC=CC=C12", 
	 "Tm": 557.15, 
	 "num_atms": 42, 
	 "gaussian": { 
		 "optdone": 1, 
		 "sigma_profile": "yes", 
		 "theory": "DFT", 
		 "functional": "B3LYP", 
		 "basiset": "6-31G**", 
		 "properties": { 
			 "R2extent": 16310.5279, 
			 "electric_dipole_moment_norm": 2.40080340095, 
			 "electric_quadrupole_moment_norm": 16.2434649072, 
			 "total_energy": -2151.66067701, 
			 "HOMO_LUMO_gap": 0.11694, 
			 "cosmo_polarized_energy": -17.41, 
			 "cosmo_cavitation_energy": 50.17, 
			 "cosmo_dispersion_energy": -36.06, 
			 "cosmo_repulsion_energy": 2.63, 
			 "cosmo_total_nonelectrostatic_energy": 16.73, 
			 "SMD_solvation_energy": 7.83 
		},
		"coords": [
			{
				"x": -0.1919026491,
				"y": -2.7947249822,
				"z": 1.7085592089,
				"element": "C" 
			},
			{
				"x": -0.3807455834,
				"y": -1.3641809637,
				"z": 1.9483524298,
				"element": "N" 
			},
			{
				"x": -0.9769226881,
				"y": -0.6184476402,
				"z": 0.9069028011,
				"element": "C" 
			},
			{
				"x": -1.35228829,
				"y": -1.1884050651,
				"z": -0.1166476098,
				"element": "O" 
			},
			{
				"x": -1.1286003185,
				"y": 0.8200036276,
				"z": 1.1357342621,
				"element": "C" 
			},
			{
				"x": -1.5907605838,
				"y": 1.6947026149,
				"z": 0.0567542639,
				"element": "C" 
			},
			{
				"x": -2.1326219596,
				"y": 2.8612469242,
				"z": 0.3652382377,
				"element": "N" 
			},
			{
				"x": -2.3823285667,
				"y": 3.5557023807,
				"z": -0.8040718923,
				"element": "N" 
			},
			{
				"x": -2.0339809838,
				"y": 2.861216913,
				"z": -1.9305544332,
				"element": "C" 
			},
			{
				"x": -2.1451215044,
				"y": 3.2130469903,
				"z": -3.111143829,
				"element": "O" 
			},
			{
				"x": -1.4669316721,
				"y": 1.6056460013,
				"z": -1.3957081174,
				"element": "C" 
			},
			{
				"x": -0.8889239027,
				"y": 0.6722182193,
				"z": -2.1072230139,
				"element": "N" 
			},
			{
				"x": -0.8476607732,
				"y": 0.8214993241,
				"z": -3.4092995916,
				"element": "N" 
			},
			{
				"x": -0.2828762648,
				"y": -0.1890445086,
				"z": -4.1957988147,
				"element": "C" 
			},
			{
				"x": 0.0862192624,
				"y": -1.4145886569,
				"z": -3.6183592383,
				"element": "C" 
			},
			{
				"x": 0.6489449379,
				"y": -2.3971373907,
				"z": -4.4211910322,
				"element": "C" 
			},
			{
				"x": 1.1123222373,
				"y": -3.9275879679,
				"z": -3.696937261,
				"element": "Cl" 
			},
			{
				"x": 0.8487275335,
				"y": -2.2057246064,
				"z": -5.7906925655,
				"element": "C" 
			},
			{
				"x": 0.470051062,
				"y": -0.9930980691,
				"z": -6.360678619,
				"element": "C" 
			},
			{
				"x": -0.0905101578,
				"y": 0.0098420279,
				"z": -5.5732010562,
				"element": "C" 
			},
			{
				"x": -0.5528106442,
				"y": 1.5303025202,
				"z": -6.3165669856,
				"element": "Cl" 
			},
			{
				"x": -0.8769961584,
				"y": 1.3553418739,
				"z": 2.3934788671,
				"element": "C" 
			},
			{
				"x": -1.1245416792,
				"y": 2.6255265468,
				"z": 2.7147377267,
				"element": "O" 
			},
			{
				"x": -0.2902928866,
				"y": 0.5482370025,
				"z": 3.4371730156,
				"element": "C" 
			},
			{
				"x": 0.0350907372,
				"y": 1.0988382702,
				"z": 4.6906957882,
				"element": "C" 
			},
			{
				"x": 0.6193590282,
				"y": 0.3208251896,
				"z": 5.6765428715,
				"element": "C" 
			},
			{
				"x": 0.8813461878,
				"y": -1.0313669382,
				"z": 5.4154315932,
				"element": "C" 
			},
			{
				"x": 0.5625203717,
				"y": -1.5996071357,
				"z": 4.1891546968,
				"element": "C" 
			},
			{
				"x": -0.031565541,
				"y": -0.8197005947,
				"z": 3.1756760414,
				"element": "C" 
			},
			{
				"x": -0.7474550032,
				"y": -3.3862673558,
				"z": 2.4429720163,
				"element": "H" 
			},
			{
				"x": -0.5701670813,
				"y": -3.0060709636,
				"z": 0.7115456174,
				"element": "H" 
			},
			{
				"x": 0.8690980189,
				"y": -3.057956506,
				"z": 1.7639455127,
				"element": "H" 
			},
			{
				"x": -2.8492339916,
				"y": 4.4480384831,
				"z": -0.7635638697,
				"element": "H" 
			},
			{
				"x": -1.2559907306,
				"y": 1.6668322992,
				"z": -3.8317014745,
				"element": "H" 
			},
			{
				"x": -0.0909811774,
				"y": -1.5693023167,
				"z": -2.5602522503,
				"element": "H" 
			},
			{
				"x": 1.2866737929,
				"y": -2.9890410405,
				"z": -6.3978103781,
				"element": "H" 
			},
			{
				"x": 0.6108092215,
				"y": -0.8173116949,
				"z": -7.4212224268,
				"element": "H" 
			},
			{
				"x": -1.5897886068,
				"y": 3.0504460361,
				"z": 1.9424063337,
				"element": "H" 
			},
			{
				"x": -0.1814582895,
				"y": 2.1471017397,
				"z": 4.860129372,
				"element": "H" 
			},
			{
				"x": 0.8699936889,
				"y": 0.7527932111,
				"z": 6.6398852089,
				"element": "H" 
			},
			{
				"x": 1.3388867847,
				"y": -1.652377417,
				"z": 6.1802308404,
				"element": "H" 
			},
			{
				"x": 0.7743148232,
				"y": -2.6469663817,
				"z": 4.0186777539,
				"element": "H" 
			}
		],
		 "valence_orbital": [ 
			{
				"type": "occ",
				"energy": -0.25546,
				"method": "rhf"
			},
			{
				"type": "occ",
				"energy": -0.2505,
				"method": "rhf"
			},
			{
				"type": "occ",
				"energy": -0.23052,
				"method": "rhf"
			},
			{
				"type": "occ",
				"energy": -0.22474,
				"method": "rhf"
			},
			{
				"type": "occ",
				"energy": -0.21306,
				"method": "rhf"
			},
			{
				"type": "unocc",
				"energy": -0.09612,
				"method": "rhf"
			},
			{
				"type": "unocc",
				"energy": -0.053,
				"method": "rhf"
			},
			{
				"type": "unocc",
				"energy": -0.02685,
				"method": "rhf"
			},
			{
				"type": "unocc",
				"energy": -0.01144,
				"method": "rhf"
			},
			{
				"type": "unocc",
				"energy": -0.00553,
				"method": "rhf"
			}
		],
		"cosmo_sigma_profile": { 
			"-0.025": 0.0,
			"-0.024": 0.0,
			"-0.023": 0.0,
			"-0.022": 0.0,
			"-0.021": 0.0,
			"-0.02": 0.0,
			"-0.019": 0.0,
			"-0.018": 0.00289564723561,
			"-0.017": 0.905693449003,
			"-0.016": 1.67340046621,
			"-0.015": 1.1500578949,
			"-0.014": 0.616498520704,
			"-0.013": 0.975056469841,
			"-0.012": 0.900896773491,
			"-0.011": 1.18301647158,
			"-0.01": 0.594210438581,
			"-0.009": 1.10456308463,
			"-0.008": 4.74040007959,
			"-0.007": 8.38123189466,
			"-0.006": 16.9156563308,
			"-0.005": 21.0307612296,
			"-0.004": 23.1829393664,
			"-0.003": 26.9448746827,
			"-0.002": 34.3483746921,
			"-0.001": 35.2512422989,
			"0.0": 44.8772621663,
			"0.001": 44.8675694968,
			"0.002": 35.4912124981,
			"0.003": 29.8764583025,
			"0.004": 28.7917523385,
			"0.005": 10.5211531835,
			"0.006": 5.70424894326,
			"0.007": 6.28004935988,
			"0.008": 3.76975737995,
			"0.009": 4.91862197755,
			"0.01": 2.44754291732,
			"0.011": 3.70596694001,
			"0.012": 3.58635288632,
			"0.013": 3.76552887761,
			"0.014": 1.0378536635,
			"0.015": 0.0,
			"0.016": 0.0,
			"0.017": 0.0,
			"0.018": 0.0,
			"0.019": 0.0,
			"0.02": 0.0,
			"0.021": 0.0,
			"0.022": 0.0,
			"0.023": 0.0,
			"0.024": 0.0,
			"0.025": 0.0
		}
	}
}
