{
	 "smiles": "COC1=CC=CC=C1C1=CC=CC=C1", 
	 "Tm": 303.15, 
	 "num_atms": 26, 
	 "gaussian": { 
		 "optdone": 1, 
		 "sigma_profile": "yes", 
		 "theory": "DFT", 
		 "functional": "B3LYP", 
		 "basiset": "6-31G**", 
		 "properties": { 
			 "R2extent": 2984.5431, 
			 "electric_dipole_moment_norm": 1.59518918627, 
			 "electric_quadrupole_moment_norm": 9.26240630236, 
			 "total_energy": -577.831875226, 
			 "HOMO_LUMO_gap": 0.19012, 
			 "cosmo_polarized_energy": -7.08, 
			 "cosmo_cavitation_energy": 29.23, 
			 "cosmo_dispersion_energy": -21.32, 
			 "cosmo_repulsion_energy": 1.67, 
			 "cosmo_total_nonelectrostatic_energy": 9.58, 
			 "SMD_solvation_energy": 5.57 
		},
		"coords": [
			{
				"x": 2.1982709918,
				"y": -0.4549498472,
				"z": -2.4941043131,
				"element": "C" 
			},
			{
				"x": 1.1418300916,
				"y": -0.3431576745,
				"z": -1.5555417068,
				"element": "O" 
			},
			{
				"x": 1.2869090467,
				"y": -0.9309334777,
				"z": -0.3296712565,
				"element": "C" 
			},
			{
				"x": 2.413318558,
				"y": -1.6781605178,
				"z": 0.0324173574,
				"element": "C" 
			},
			{
				"x": 2.5071774296,
				"y": -2.23838367,
				"z": 1.3086519483,
				"element": "C" 
			},
			{
				"x": 1.4813039977,
				"y": -2.0557223063,
				"z": 2.2308080149,
				"element": "C" 
			},
			{
				"x": 0.3606240759,
				"y": -1.3087709885,
				"z": 1.8643007108,
				"element": "C" 
			},
			{
				"x": 0.2300048265,
				"y": -0.7329033307,
				"z": 0.5935518387,
				"element": "C" 
			},
			{
				"x": -0.9816507156,
				"y": 0.0684837083,
				"z": 0.2680089333,
				"element": "C" 
			},
			{
				"x": -1.4757250694,
				"y": 0.9957136985,
				"z": 1.2014510299,
				"element": "C" 
			},
			{
				"x": -2.6366142808,
				"y": 1.7256255689,
				"z": 0.9464569079,
				"element": "C" 
			},
			{
				"x": -3.3301437793,
				"y": 1.5434754757,
				"z": -0.2505250243,
				"element": "C" 
			},
			{
				"x": -2.8496699643,
				"y": 0.6274354937,
				"z": -1.1889361954,
				"element": "C" 
			},
			{
				"x": -1.6882836738,
				"y": -0.1002114757,
				"z": -0.935247152,
				"element": "C" 
			},
			{
				"x": 3.1296696949,
				"y": -0.0192164613,
				"z": -2.1101621012,
				"element": "H" 
			},
			{
				"x": 1.8769120221,
				"y": 0.1043404186,
				"z": -3.3742408405,
				"element": "H" 
			},
			{
				"x": 2.3827698933,
				"y": -1.4990814725,
				"z": -2.7787604907,
				"element": "H" 
			},
			{
				"x": 3.2232748725,
				"y": -1.8244575166,
				"z": -0.6719161531,
				"element": "H" 
			},
			{
				"x": 3.3872316972,
				"y": -2.8186469635,
				"z": 1.5710507776,
				"element": "H" 
			},
			{
				"x": 1.5438631335,
				"y": -2.493640268,
				"z": 3.2221549041,
				"element": "H" 
			},
			{
				"x": -0.4529176121,
				"y": -1.1788566431,
				"z": 2.5719374391,
				"element": "H" 
			},
			{
				"x": -0.9314080544,
				"y": 1.1569588643,
				"z": 2.1275292021,
				"element": "H" 
			},
			{
				"x": -2.9944439021,
				"y": 2.4413626619,
				"z": 1.6815022904,
				"element": "H" 
			},
			{
				"x": -4.2339624687,
				"y": 2.1114056235,
				"z": -0.4522419204,
				"element": "H" 
			},
			{
				"x": -3.3838679706,
				"y": 0.4754680991,
				"z": -2.1229239857,
				"element": "H" 
			},
			{
				"x": -1.3245728403,
				"y": -0.8089769991,
				"z": -1.670150215,
				"element": "H" 
			}
		],
		 "valence_orbital": [ 
			{
				"type": "occ",
				"energy": -0.31505,
				"method": "rhf"
			},
			{
				"type": "occ",
				"energy": -0.26335,
				"method": "rhf"
			},
			{
				"type": "occ",
				"energy": -0.24116,
				"method": "rhf"
			},
			{
				"type": "occ",
				"energy": -0.23188,
				"method": "rhf"
			},
			{
				"type": "occ",
				"energy": -0.20872,
				"method": "rhf"
			},
			{
				"type": "unocc",
				"energy": -0.0186,
				"method": "rhf"
			},
			{
				"type": "unocc",
				"energy": 0.00823,
				"method": "rhf"
			},
			{
				"type": "unocc",
				"energy": 0.01239,
				"method": "rhf"
			},
			{
				"type": "unocc",
				"energy": 0.03143,
				"method": "rhf"
			},
			{
				"type": "unocc",
				"energy": 0.09295,
				"method": "rhf"
			}
		],
		"cosmo_sigma_profile": { 
			"-0.025": 0.0,
			"-0.024": 0.0,
			"-0.023": 0.0,
			"-0.022": 0.0,
			"-0.021": 0.0,
			"-0.02": 0.0,
			"-0.019": 0.0,
			"-0.018": 0.0,
			"-0.017": 0.0,
			"-0.016": 0.0,
			"-0.015": 0.0,
			"-0.014": 0.0,
			"-0.013": 0.0,
			"-0.012": 0.0,
			"-0.011": 0.0,
			"-0.01": 0.0,
			"-0.009": 0.0,
			"-0.008": 0.0,
			"-0.007": 0.182535788163,
			"-0.006": 8.30811397065,
			"-0.005": 23.84611526,
			"-0.004": 26.7385394669,
			"-0.003": 27.3578387361,
			"-0.002": 16.7551419264,
			"-0.001": 15.5700725001,
			"0.0": 11.5114880555,
			"0.001": 13.0817744605,
			"0.002": 14.4098208875,
			"0.003": 17.06081313,
			"0.004": 17.2716964825,
			"0.005": 17.3756344587,
			"0.006": 16.7929985506,
			"0.007": 3.23740839187,
			"0.008": 1.56032338197,
			"0.009": 1.36057898017,
			"0.01": 0.920180479146,
			"0.011": 0.219638042135,
			"0.012": 0.0,
			"0.013": 0.0,
			"0.014": 0.0,
			"0.015": 0.0,
			"0.016": 0.0,
			"0.017": 0.0,
			"0.018": 0.0,
			"0.019": 0.0,
			"0.02": 0.0,
			"0.021": 0.0,
			"0.022": 0.0,
			"0.023": 0.0,
			"0.024": 0.0,
			"0.025": 0.0
		}
	}
}
