{
	 "smiles": "[O-][N+](=O)C1=CC=C(C=C1)N1CCOC1=O", 
	 "Tm": 428.15, 
	 "num_atms": 23, 
	 "gaussian": { 
		 "optdone": 1, 
		 "sigma_profile": "yes", 
		 "theory": "DFT", 
		 "functional": "B3LYP", 
		 "basiset": "6-31G**", 
		 "properties": { 
			 "R2extent": 4110.0278, 
			 "electric_dipole_moment_norm": 7.21592717882, 
			 "electric_quadrupole_moment_norm": 23.8738469944, 
			 "total_energy": -758.090658385, 
			 "HOMO_LUMO_gap": 0.16336, 
			 "cosmo_polarized_energy": -17.78, 
			 "cosmo_cavitation_energy": 27.75, 
			 "cosmo_dispersion_energy": -20.93, 
			 "cosmo_repulsion_energy": 1.61, 
			 "cosmo_total_nonelectrostatic_energy": 8.43, 
			 "SMD_solvation_energy": 7.89 
		},
		"coords": [
			{
				"x": 0.2901427728,
				"y": 0.5594210833,
				"z": -4.8498031661,
				"element": "O" 
			},
			{
				"x": -0.6160319081,
				"y": 0.0391274901,
				"z": -4.1978900875,
				"element": "N" 
			},
			{
				"x": -1.6191092325,
				"y": -0.483955916,
				"z": -4.6872000613,
				"element": "O" 
			},
			{
				"x": -0.4932237154,
				"y": 0.0414192462,
				"z": -2.7392309157,
				"element": "C" 
			},
			{
				"x": 0.6274021307,
				"y": 0.6204221499,
				"z": -2.1437566852,
				"element": "C" 
			},
			{
				"x": 0.7510872227,
				"y": 0.6234023924,
				"z": -0.7617206435,
				"element": "C" 
			},
			{
				"x": -0.2568228206,
				"y": 0.0438641056,
				"z": 0.0373331775,
				"element": "C" 
			},
			{
				"x": -1.3807427309,
				"y": -0.5338629892,
				"z": -0.5864531434,
				"element": "C" 
			},
			{
				"x": -1.4997544478,
				"y": -0.5358671265,
				"z": -1.9703460008,
				"element": "C" 
			},
			{
				"x": -0.1608621338,
				"y": 0.0074746626,
				"z": 1.4383333469,
				"element": "N" 
			},
			{
				"x": -1.1695326982,
				"y": -0.6240975139,
				"z": 2.2842346623,
				"element": "C" 
			},
			{
				"x": -0.5040612317,
				"y": -0.5288774474,
				"z": 3.6647451586,
				"element": "C" 
			},
			{
				"x": 0.4728069269,
				"y": 0.5126641224,
				"z": 3.5302622096,
				"element": "O" 
			},
			{
				"x": 0.7410683812,
				"y": 0.7427772324,
				"z": 2.2144226078,
				"element": "C" 
			},
			{
				"x": 1.6238717023,
				"y": 1.4764798667,
				"z": 1.8456425878,
				"element": "O" 
			},
			{
				"x": 1.3926267433,
				"y": 1.0608539498,
				"z": -2.7707226201,
				"element": "H" 
			},
			{
				"x": 1.6109309873,
				"y": 1.0764549503,
				"z": -0.2906088672,
				"element": "H" 
			},
			{
				"x": -2.1723340342,
				"y": -0.9800222132,
				"z": 0.0027849747,
				"element": "H" 
			},
			{
				"x": -2.3596195538,
				"y": -0.974980392,
				"z": -2.4603130176,
				"element": "H" 
			},
			{
				"x": -1.350105379,
				"y": -1.6610284974,
				"z": 1.9879525242,
				"element": "H" 
			},
			{
				"x": -2.1202906854,
				"y": -0.0769918377,
				"z": 2.2391320443,
				"element": "H" 
			},
			{
				"x": -1.1980934732,
				"y": -0.2540217212,
				"z": 4.460521737,
				"element": "H" 
			},
			{
				"x": 0.0083471776,
				"y": -1.4579555972,
				"z": 3.9361801777,
				"element": "H" 
			}
		],
		 "valence_orbital": [ 
			{
				"type": "occ",
				"energy": -0.30399,
				"method": "rhf"
			},
			{
				"type": "occ",
				"energy": -0.29702,
				"method": "rhf"
			},
			{
				"type": "occ",
				"energy": -0.28572,
				"method": "rhf"
			},
			{
				"type": "occ",
				"energy": -0.28028,
				"method": "rhf"
			},
			{
				"type": "occ",
				"energy": -0.24845,
				"method": "rhf"
			},
			{
				"type": "unocc",
				"energy": -0.08509,
				"method": "rhf"
			},
			{
				"type": "unocc",
				"energy": -0.02902,
				"method": "rhf"
			},
			{
				"type": "unocc",
				"energy": -0.00602,
				"method": "rhf"
			},
			{
				"type": "unocc",
				"energy": 0.0374,
				"method": "rhf"
			},
			{
				"type": "unocc",
				"energy": 0.0579,
				"method": "rhf"
			}
		],
		"cosmo_sigma_profile": { 
			"-0.025": 0.0,
			"-0.024": 0.0,
			"-0.023": 0.0,
			"-0.022": 0.0,
			"-0.021": 0.0,
			"-0.02": 0.0,
			"-0.019": 0.0,
			"-0.018": 0.0,
			"-0.017": 0.0,
			"-0.016": 0.0,
			"-0.015": 0.0,
			"-0.014": 0.0,
			"-0.013": 0.0,
			"-0.012": 0.0,
			"-0.011": 0.0,
			"-0.01": 0.0,
			"-0.009": 1.23162578061,
			"-0.008": 10.3845571929,
			"-0.007": 24.190926623,
			"-0.006": 17.5931359963,
			"-0.005": 12.8560738618,
			"-0.004": 10.4457798389,
			"-0.003": 10.8994025428,
			"-0.002": 10.4239012761,
			"-0.001": 13.4567717598,
			"0.0": 14.5612261839,
			"0.001": 17.428669081,
			"0.002": 12.9267548256,
			"0.003": 5.78815718773,
			"0.004": 4.73312813382,
			"0.005": 5.1698483795,
			"0.006": 5.35958039754,
			"0.007": 7.85252374525,
			"0.008": 13.3647516253,
			"0.009": 9.00025336754,
			"0.01": 7.17224606927,
			"0.011": 4.74583824812,
			"0.012": 2.58407394474,
			"0.013": 0.424847551369,
			"0.014": 0.0,
			"0.015": 0.0,
			"0.016": 0.0,
			"0.017": 0.0,
			"0.018": 0.0,
			"0.019": 0.0,
			"0.02": 0.0,
			"0.021": 0.0,
			"0.022": 0.0,
			"0.023": 0.0,
			"0.024": 0.0,
			"0.025": 0.0
		}
	}
}
