{
	 "smiles": "CC1=CC(=C(C)C=C1)S(=O)(=O)NN", 
	 "Tm": 349.15, 
	 "num_atms": 25, 
	 "gaussian": { 
		 "optdone": 1, 
		 "sigma_profile": "yes", 
		 "theory": "DFT", 
		 "functional": "B3LYP", 
		 "basiset": "6-31G**", 
		 "properties": { 
			 "R2extent": 3421.381, 
			 "electric_dipole_moment_norm": 4.22234437605, 
			 "electric_quadrupole_moment_norm": 3.88097548562, 
			 "total_energy": -970.133469783, 
			 "HOMO_LUMO_gap": 0.21127, 
			 "cosmo_polarized_energy": -13.67, 
			 "cosmo_cavitation_energy": 29.17, 
			 "cosmo_dispersion_energy": -21.51, 
			 "cosmo_repulsion_energy": 1.67, 
			 "cosmo_total_nonelectrostatic_energy": 9.33, 
			 "SMD_solvation_energy": 5.0 
		},
		"coords": [
			{
				"x": -2.8594785182,
				"y": -0.1904278245,
				"z": 1.9893784335,
				"element": "C" 
			},
			{
				"x": -1.6234020986,
				"y": 0.4869457442,
				"z": 1.4471128996,
				"element": "C" 
			},
			{
				"x": -1.2858093858,
				"y": 0.3956445283,
				"z": 0.0931287946,
				"element": "C" 
			},
			{
				"x": -0.1254815672,
				"y": 0.9991096837,
				"z": -0.398221108,
				"element": "C" 
			},
			{
				"x": 0.7584625798,
				"y": 1.7175827101,
				"z": 0.4321011437,
				"element": "C" 
			},
			{
				"x": 2.0239756813,
				"y": 2.3772394804,
				"z": -0.0568756328,
				"element": "C" 
			},
			{
				"x": 0.396607336,
				"y": 1.8037021803,
				"z": 1.7824209221,
				"element": "C" 
			},
			{
				"x": -0.7611548026,
				"y": 1.2077078772,
				"z": 2.2805236408,
				"element": "C" 
			},
			{
				"x": 0.2024789681,
				"y": 0.7758835301,
				"z": -2.1513743427,
				"element": "S" 
			},
			{
				"x": -0.9150385129,
				"y": 0.0019297041,
				"z": -2.7164213768,
				"element": "O" 
			},
			{
				"x": 1.5927635696,
				"y": 0.3585129927,
				"z": -2.3679424637,
				"element": "O" 
			},
			{
				"x": 0.1250267901,
				"y": 2.3862078221,
				"z": -2.7698129283,
				"element": "N" 
			},
			{
				"x": -1.1419783757,
				"y": 2.838165753,
				"z": -3.2037190829,
				"element": "N" 
			},
			{
				"x": -2.618314838,
				"y": -1.1755786621,
				"z": 2.4072109108,
				"element": "H" 
			},
			{
				"x": -3.6080114291,
				"y": -0.3429472347,
				"z": 1.206907744,
				"element": "H" 
			},
			{
				"x": -3.3187939246,
				"y": 0.3979055479,
				"z": 2.7897071566,
				"element": "H" 
			},
			{
				"x": -1.9192316073,
				"y": -0.151143218,
				"z": -0.5972766582,
				"element": "H" 
			},
			{
				"x": 1.8059492121,
				"y": 3.1113324046,
				"z": -0.8388509274,
				"element": "H" 
			},
			{
				"x": 2.7086404195,
				"y": 1.6439650238,
				"z": -0.4911418727,
				"element": "H" 
			},
			{
				"x": 2.5285852727,
				"y": 2.8865376686,
				"z": 0.7676716466,
				"element": "H" 
			},
			{
				"x": 1.0445885544,
				"y": 2.3549044263,
				"z": 2.4585582835,
				"element": "H" 
			},
			{
				"x": -0.9962110422,
				"y": 1.3058198583,
				"z": 3.3376309846,
				"element": "H" 
			},
			{
				"x": 0.8023950909,
				"y": 2.4247056033,
				"z": -3.531111765,
				"element": "H" 
			},
			{
				"x": -1.6799269545,
				"y": 2.0637410295,
				"z": -3.5969913644,
				"element": "H" 
			},
			{
				"x": -1.6387404176,
				"y": 3.1967533708,
				"z": -2.3929130375,
				"element": "H" 
			}
		],
		 "valence_orbital": [ 
			{
				"type": "occ",
				"energy": -0.3073,
				"method": "rhf"
			},
			{
				"type": "occ",
				"energy": -0.28923,
				"method": "rhf"
			},
			{
				"type": "occ",
				"energy": -0.26737,
				"method": "rhf"
			},
			{
				"type": "occ",
				"energy": -0.26587,
				"method": "rhf"
			},
			{
				"type": "occ",
				"energy": -0.25079,
				"method": "rhf"
			},
			{
				"type": "unocc",
				"energy": -0.03952,
				"method": "rhf"
			},
			{
				"type": "unocc",
				"energy": -0.01392,
				"method": "rhf"
			},
			{
				"type": "unocc",
				"energy": 0.05924,
				"method": "rhf"
			},
			{
				"type": "unocc",
				"energy": 0.06807,
				"method": "rhf"
			},
			{
				"type": "unocc",
				"energy": 0.08078,
				"method": "rhf"
			}
		],
		"cosmo_sigma_profile": { 
			"-0.025": 0.0,
			"-0.024": 0.0,
			"-0.023": 0.0,
			"-0.022": 0.0,
			"-0.021": 0.0,
			"-0.02": 0.0,
			"-0.019": 0.0,
			"-0.018": 0.0,
			"-0.017": 0.0,
			"-0.016": 0.0,
			"-0.015": 0.0641173487893,
			"-0.014": 0.772303651016,
			"-0.013": 1.05409548571,
			"-0.012": 2.03210766706,
			"-0.011": 2.30770621497,
			"-0.01": 3.26993491457,
			"-0.009": 3.5761737879,
			"-0.008": 3.03282847856,
			"-0.007": 3.81160971405,
			"-0.006": 9.44378101788,
			"-0.005": 14.1301281057,
			"-0.004": 16.0034144251,
			"-0.003": 15.443635929,
			"-0.002": 18.2460562713,
			"-0.001": 23.0952320046,
			"0.0": 22.5968126707,
			"0.001": 14.562832738,
			"0.002": 13.0356081939,
			"0.003": 13.3749664779,
			"0.004": 9.51150307996,
			"0.005": 4.18327249092,
			"0.006": 4.09165756216,
			"0.007": 4.14392852513,
			"0.008": 4.32491691547,
			"0.009": 4.97717284848,
			"0.01": 6.70593078088,
			"0.011": 7.4920683413,
			"0.012": 2.93131224803,
			"0.013": 0.789821290541,
			"0.014": 0.741439495696,
			"0.015": 0.560345027804,
			"0.016": 0.0885832510523,
			"0.017": 0.0,
			"0.018": 0.0,
			"0.019": 0.0,
			"0.02": 0.0,
			"0.021": 0.0,
			"0.022": 0.0,
			"0.023": 0.0,
			"0.024": 0.0,
			"0.025": 0.0
		}
	}
}
