{
	 "smiles": "OC(=O)C1=CC=CC=C1C(=O)C1=CC=C(Cl)C=C1", 
	 "Tm": 423.15, 
	 "num_atms": 27, 
	 "gaussian": { 
		 "optdone": 1, 
		 "sigma_profile": "yes", 
		 "theory": "DFT", 
		 "functional": "B3LYP", 
		 "basiset": "6-31G**", 
		 "properties": { 
			 "R2extent": 6509.4305, 
			 "electric_dipole_moment_norm": 6.18045821764, 
			 "electric_quadrupole_moment_norm": 27.4284379269, 
			 "total_energy": -1224.79148169, 
			 "HOMO_LUMO_gap": 0.1615, 
			 "cosmo_polarized_energy": -14.92, 
			 "cosmo_cavitation_energy": 33.7, 
			 "cosmo_dispersion_energy": -24.62, 
			 "cosmo_repulsion_energy": 1.88, 
			 "cosmo_total_nonelectrostatic_energy": 10.96, 
			 "SMD_solvation_energy": 6.83 
		},
		"coords": [
			{
				"x": -2.2468597164,
				"y": -3.4597866284,
				"z": 1.0338774048,
				"element": "O" 
			},
			{
				"x": -1.0363606625,
				"y": -3.8357042362,
				"z": 1.4445551123,
				"element": "C" 
			},
			{
				"x": -0.9008968762,
				"y": -4.6710941988,
				"z": 2.3145093742,
				"element": "O" 
			},
			{
				"x": 0.1954812509,
				"y": -3.2506711247,
				"z": 0.7596864379,
				"element": "C" 
			},
			{
				"x": 1.2987369967,
				"y": -4.1151707741,
				"z": 0.7733845443,
				"element": "C" 
			},
			{
				"x": 2.5164175287,
				"y": -3.7645317859,
				"z": 0.1964046451,
				"element": "C" 
			},
			{
				"x": 2.6687000869,
				"y": -2.5071836305,
				"z": -0.3851574062,
				"element": "C" 
			},
			{
				"x": 1.6042564027,
				"y": -1.6106318361,
				"z": -0.3621691573,
				"element": "C" 
			},
			{
				"x": 0.3589434596,
				"y": -1.9569794123,
				"z": 0.196167941,
				"element": "C" 
			},
			{
				"x": -0.7325205684,
				"y": -0.9353843537,
				"z": 0.0734825873,
				"element": "C" 
			},
			{
				"x": -1.8751259206,
				"y": -1.2578276598,
				"z": -0.2698057525,
				"element": "O" 
			},
			{
				"x": -0.4399970099,
				"y": 0.5051630016,
				"z": 0.3244547453,
				"element": "C" 
			},
			{
				"x": 0.61234119,
				"y": 0.9355834458,
				"z": 1.1492531412,
				"element": "C" 
			},
			{
				"x": 0.7988431158,
				"y": 2.2903867849,
				"z": 1.4134838135,
				"element": "C" 
			},
			{
				"x": -0.0680110552,
				"y": 3.2204133462,
				"z": 0.8382679602,
				"element": "C" 
			},
			{
				"x": 0.170301455,
				"y": 4.9255924904,
				"z": 1.1534325634,
				"element": "Cl" 
			},
			{
				"x": -1.127068187,
				"y": 2.816484782,
				"z": 0.0196288198,
				"element": "C" 
			},
			{
				"x": -1.3138058522,
				"y": 1.4613600366,
				"z": -0.2217239306,
				"element": "C" 
			},
			{
				"x": -2.1950955899,
				"y": -2.7568360854,
				"z": 0.3424390468,
				"element": "H" 
			},
			{
				"x": 1.1704294862,
				"y": -5.0767069831,
				"z": 1.2567894946,
				"element": "H" 
			},
			{
				"x": 3.3417995619,
				"y": -4.47002503,
				"z": 0.2055773357,
				"element": "H" 
			},
			{
				"x": 3.6089404742,
				"y": -2.219115324,
				"z": -0.8452554651,
				"element": "H" 
			},
			{
				"x": 1.7267799338,
				"y": -0.6284150793,
				"z": -0.8054537079,
				"element": "H" 
			},
			{
				"x": 1.2771535237,
				"y": 0.2110744917,
				"z": 1.6061705365,
				"element": "H" 
			},
			{
				"x": 1.6025374005,
				"y": 2.6236533246,
				"z": 2.0601410347,
				"element": "H" 
			},
			{
				"x": -1.7917333977,
				"y": 3.5561101729,
				"z": -0.4122996752,
				"element": "H" 
			},
			{
				"x": -2.1390870305,
				"y": 1.1210422655,
				"z": -0.8375414437,
				"element": "H" 
			}
		],
		 "valence_orbital": [ 
			{
				"type": "occ",
				"energy": -0.28843,
				"method": "rhf"
			},
			{
				"type": "occ",
				"energy": -0.28009,
				"method": "rhf"
			},
			{
				"type": "occ",
				"energy": -0.27957,
				"method": "rhf"
			},
			{
				"type": "occ",
				"energy": -0.27107,
				"method": "rhf"
			},
			{
				"type": "occ",
				"energy": -0.25877,
				"method": "rhf"
			},
			{
				"type": "unocc",
				"energy": -0.09727,
				"method": "rhf"
			},
			{
				"type": "unocc",
				"energy": -0.05059,
				"method": "rhf"
			},
			{
				"type": "unocc",
				"energy": -0.0422,
				"method": "rhf"
			},
			{
				"type": "unocc",
				"energy": -0.03029,
				"method": "rhf"
			},
			{
				"type": "unocc",
				"energy": 0.0122,
				"method": "rhf"
			}
		],
		"cosmo_sigma_profile": { 
			"-0.025": 0.0,
			"-0.024": 0.0,
			"-0.023": 0.0,
			"-0.022": 0.0,
			"-0.021": 0.0,
			"-0.02": 0.0,
			"-0.019": 0.0,
			"-0.018": 0.0,
			"-0.017": 0.0,
			"-0.016": 0.0,
			"-0.015": 0.0,
			"-0.014": 0.0,
			"-0.013": 0.0,
			"-0.012": 0.0,
			"-0.011": 0.0,
			"-0.01": 0.0,
			"-0.009": 0.102694856016,
			"-0.008": 4.83817145397,
			"-0.007": 15.6525608856,
			"-0.006": 20.2227337313,
			"-0.005": 17.1950457109,
			"-0.004": 16.6559387111,
			"-0.003": 17.3379070319,
			"-0.002": 17.2415184087,
			"-0.001": 18.6164202768,
			"0.0": 24.5382534926,
			"0.001": 31.1165896573,
			"0.002": 25.5508082485,
			"0.003": 14.4019959044,
			"0.004": 12.2108036929,
			"0.005": 4.92055809953,
			"0.006": 3.94712879026,
			"0.007": 3.9038642263,
			"0.008": 3.38157163856,
			"0.009": 4.77256755951,
			"0.01": 3.60643878991,
			"0.011": 4.6681858032,
			"0.012": 6.37579648482,
			"0.013": 2.56441201834,
			"0.014": 0.578805607509,
			"0.015": 0.0,
			"0.016": 0.0,
			"0.017": 0.0,
			"0.018": 0.0,
			"0.019": 0.0,
			"0.02": 0.0,
			"0.021": 0.0,
			"0.022": 0.0,
			"0.023": 0.0,
			"0.024": 0.0,
			"0.025": 0.0
		}
	}
}
