{
	 "smiles": "CC(C)(C)OC(=O)N1CCN(CC1)C1=CC=C(CO)C=C1", 
	 "Tm": 383.15, 
	 "num_atms": 45, 
	 "gaussian": { 
		 "optdone": 1, 
		 "sigma_profile": "yes", 
		 "theory": "DFT", 
		 "functional": "B3LYP", 
		 "basiset": "6-31G**", 
		 "properties": { 
			 "R2extent": 11960.8121, 
			 "electric_dipole_moment_norm": 2.98140374656, 
			 "electric_quadrupole_moment_norm": 19.5770909961, 
			 "total_energy": -959.361259005, 
			 "HOMO_LUMO_gap": 0.19107, 
			 "cosmo_polarized_energy": -14.46, 
			 "cosmo_cavitation_energy": 45.25, 
			 "cosmo_dispersion_energy": -32.07, 
			 "cosmo_repulsion_energy": 2.46, 
			 "cosmo_total_nonelectrostatic_energy": 15.64, 
			 "SMD_solvation_energy": 6.78 
		},
		"coords": [
			{
				"x": 4.3282696959,
				"y": -1.9005581223,
				"z": -2.4933972756,
				"element": "C" 
			},
			{
				"x": 2.9695902275,
				"y": -1.6966121778,
				"z": -3.1691258626,
				"element": "C" 
			},
			{
				"x": 2.3848757408,
				"y": -3.036321404,
				"z": -3.6291083883,
				"element": "C" 
			},
			{
				"x": 3.0798132991,
				"y": -0.686044768,
				"z": -4.3158905891,
				"element": "C" 
			},
			{
				"x": 2.1534141018,
				"y": -1.1356035659,
				"z": -2.0806814349,
				"element": "O" 
			},
			{
				"x": 0.8492065387,
				"y": -0.8220769377,
				"z": -2.2803846314,
				"element": "C" 
			},
			{
				"x": 0.2365873649,
				"y": -0.9375953172,
				"z": -3.3335208687,
				"element": "O" 
			},
			{
				"x": 0.2907693501,
				"y": -0.3485151026,
				"z": -1.1224404362,
				"element": "N" 
			},
			{
				"x": 1.0487849701,
				"y": -0.1687153949,
				"z": 0.1170004566,
				"element": "C" 
			},
			{
				"x": 0.0985465428,
				"y": 0.0339990145,
				"z": 1.2984941051,
				"element": "C" 
			},
			{
				"x": -0.7987379612,
				"y": 1.1573610453,
				"z": 1.069120191,
				"element": "N" 
			},
			{
				"x": -1.2372485253,
				"y": 1.3949352573,
				"z": -0.304600149,
				"element": "C" 
			},
			{
				"x": -1.0881745953,
				"y": 0.1312017117,
				"z": -1.1508238207,
				"element": "C" 
			},
			{
				"x": -1.33134791,
				"y": 1.8866170065,
				"z": 2.1257304224,
				"element": "C" 
			},
			{
				"x": -1.2328402089,
				"y": 1.4379788237,
				"z": 3.4610836742,
				"element": "C" 
			},
			{
				"x": -1.7657394853,
				"y": 2.1883620422,
				"z": 4.5065288158,
				"element": "C" 
			},
			{
				"x": -2.415912333,
				"y": 3.405381037,
				"z": 4.2824444665,
				"element": "C" 
			},
			{
				"x": -2.9689801072,
				"y": 4.2328654162,
				"z": 5.4223790143,
				"element": "C" 
			},
			{
				"x": -4.2105843205,
				"y": 4.8607183175,
				"z": 5.1174148528,
				"element": "O" 
			},
			{
				"x": -2.5244364694,
				"y": 3.8463214102,
				"z": 2.957309563,
				"element": "C" 
			},
			{
				"x": -1.9977747209,
				"y": 3.1130556482,
				"z": 1.8998524485,
				"element": "C" 
			},
			{
				"x": 5.0443747577,
				"y": -2.3172841694,
				"z": -3.2078200053,
				"element": "H" 
			},
			{
				"x": 4.7222334078,
				"y": -0.9496651268,
				"z": -2.1228865092,
				"element": "H" 
			},
			{
				"x": 4.2409300135,
				"y": -2.5906504909,
				"z": -1.64895601,
				"element": "H" 
			},
			{
				"x": 2.2827570388,
				"y": -3.7181464758,
				"z": -2.7786785374,
				"element": "H" 
			},
			{
				"x": 3.0587567423,
				"y": -3.5004800232,
				"z": -4.3565848814,
				"element": "H" 
			},
			{
				"x": 1.4074349901,
				"y": -2.8972863364,
				"z": -4.091198336,
				"element": "H" 
			},
			{
				"x": 3.4634180451,
				"y": 0.2694497276,
				"z": -3.9439650871,
				"element": "H" 
			},
			{
				"x": 2.1092039325,
				"y": -0.5204305791,
				"z": -4.7835211237,
				"element": "H" 
			},
			{
				"x": 3.7786619593,
				"y": -1.0614215594,
				"z": -5.0705610192,
				"element": "H" 
			},
			{
				"x": 1.6684644755,
				"y": -1.0499975947,
				"z": 0.2994128286,
				"element": "H" 
			},
			{
				"x": 1.7230589411,
				"y": 0.6952037748,
				"z": 0.0385611766,
				"element": "H" 
			},
			{
				"x": -0.4477589987,
				"y": -0.9029058017,
				"z": 1.5001924781,
				"element": "H" 
			},
			{
				"x": 0.7124659509,
				"y": 0.2421115548,
				"z": 2.1798244319,
				"element": "H" 
			},
			{
				"x": -2.294945251,
				"y": 1.6820508537,
				"z": -0.3041294347,
				"element": "H" 
			},
			{
				"x": -0.6763385854,
				"y": 2.2188380322,
				"z": -0.7740413134,
				"element": "H" 
			},
			{
				"x": -1.3520257694,
				"y": 0.3350332284,
				"z": -2.1895043376,
				"element": "H" 
			},
			{
				"x": -1.7761642313,
				"y": -0.6423617987,
				"z": -0.7815659818,
				"element": "H" 
			},
			{
				"x": -0.7724457117,
				"y": 0.4828679755,
				"z": 3.6862531829,
				"element": "H" 
			},
			{
				"x": -1.682090794,
				"y": 1.8044050949,
				"z": 5.5213623543,
				"element": "H" 
			},
			{
				"x": -2.291585422,
				"y": 5.0605994612,
				"z": 5.6669282004,
				"element": "H" 
			},
			{
				"x": -3.043750939,
				"y": 3.6081664408,
				"z": 6.3275210026,
				"element": "H" 
			},
			{
				"x": -4.8078792025,
				"y": 4.1685383511,
				"z": 4.8032414303,
				"element": "H" 
			},
			{
				"x": -3.032523091,
				"y": 4.7853135078,
				"z": 2.7560472298,
				"element": "H" 
			},
			{
				"x": -2.0806334532,
				"y": 3.5104980135,
				"z": 0.8945837074,
				"element": "H" 
			}
		],
		 "valence_orbital": [ 
			{
				"type": "occ",
				"energy": -0.2632,
				"method": "rhf"
			},
			{
				"type": "occ",
				"energy": -0.26092,
				"method": "rhf"
			},
			{
				"type": "occ",
				"energy": -0.24529,
				"method": "rhf"
			},
			{
				"type": "occ",
				"energy": -0.23902,
				"method": "rhf"
			},
			{
				"type": "occ",
				"energy": -0.18913,
				"method": "rhf"
			},
			{
				"type": "unocc",
				"energy": 0.00194,
				"method": "rhf"
			},
			{
				"type": "unocc",
				"energy": 0.01349,
				"method": "rhf"
			},
			{
				"type": "unocc",
				"energy": 0.05222,
				"method": "rhf"
			},
			{
				"type": "unocc",
				"energy": 0.07284,
				"method": "rhf"
			},
			{
				"type": "unocc",
				"energy": 0.08672,
				"method": "rhf"
			}
		],
		"cosmo_sigma_profile": { 
			"-0.025": 0.0,
			"-0.024": 0.0,
			"-0.023": 0.0,
			"-0.022": 0.0,
			"-0.021": 0.0,
			"-0.02": 0.0,
			"-0.019": 0.0,
			"-0.018": 0.0,
			"-0.017": 0.0,
			"-0.016": 0.0,
			"-0.015": 0.375688429706,
			"-0.014": 1.08079153342,
			"-0.013": 0.653076446692,
			"-0.012": 0.741562712095,
			"-0.011": 0.840242667614,
			"-0.01": 0.453279104474,
			"-0.009": 1.17475638299,
			"-0.008": 0.739229317102,
			"-0.007": 0.81476440533,
			"-0.006": 3.61451329003,
			"-0.005": 19.0015936714,
			"-0.004": 45.9351791106,
			"-0.003": 46.5663972287,
			"-0.002": 35.0786950623,
			"-0.001": 31.8000175506,
			"0.0": 35.9611150995,
			"0.001": 30.655486086,
			"0.002": 13.8673726674,
			"0.003": 13.1998350767,
			"0.004": 13.0090049288,
			"0.005": 12.1463327621,
			"0.006": 11.8123627112,
			"0.007": 10.7371230515,
			"0.008": 2.66469185683,
			"0.009": 2.96044619475,
			"0.01": 2.91313461553,
			"0.011": 2.55188201501,
			"0.012": 2.83128576205,
			"0.013": 4.41136001603,
			"0.014": 3.78192212645,
			"0.015": 0.711753119847,
			"0.016": 0.0,
			"0.017": 0.0,
			"0.018": 0.0,
			"0.019": 0.0,
			"0.02": 0.0,
			"0.021": 0.0,
			"0.022": 0.0,
			"0.023": 0.0,
			"0.024": 0.0,
			"0.025": 0.0
		}
	}
}
