{
	 "smiles": "NC(=O)C1=C(F)C(F)=C(N)C(F)=C1F", 
	 "Tm": 458.15, 
	 "num_atms": 18, 
	 "gaussian": { 
		 "optdone": 1, 
		 "sigma_profile": "yes", 
		 "theory": "DFT", 
		 "functional": "B3LYP", 
		 "basiset": "6-31G**", 
		 "properties": { 
			 "R2extent": 2849.7985, 
			 "electric_dipole_moment_norm": 4.35198362359, 
			 "electric_quadrupole_moment_norm": 16.5221201606, 
			 "total_energy": -853.215584724, 
			 "HOMO_LUMO_gap": 0.19454, 
			 "cosmo_polarized_energy": -15.6, 
			 "cosmo_cavitation_energy": 24.75, 
			 "cosmo_dispersion_energy": -18.13, 
			 "cosmo_repulsion_energy": 1.35, 
			 "cosmo_total_nonelectrostatic_energy": 7.98, 
			 "SMD_solvation_energy": 6.64 
		},
		"coords": [
			{
				"x": 0.1054766259,
				"y": -2.2272625278,
				"z": 3.4242257332,
				"element": "N" 
			},
			{
				"x": -0.6099739,
				"y": -1.1837758953,
				"z": 2.9030806692,
				"element": "C" 
			},
			{
				"x": -1.5344777253,
				"y": -0.6629194379,
				"z": 3.5089614377,
				"element": "O" 
			},
			{
				"x": -0.2235543495,
				"y": -0.7402098443,
				"z": 1.5126676217,
				"element": "C" 
			},
			{
				"x": -1.170936469,
				"y": -0.1015901419,
				"z": 0.6904736667,
				"element": "C" 
			},
			{
				"x": -2.4352313514,
				"y": 0.0570544066,
				"z": 1.0817420547,
				"element": "F" 
			},
			{
				"x": -0.8436887591,
				"y": 0.3652387491,
				"z": -0.575208849,
				"element": "C" 
			},
			{
				"x": -1.7819689069,
				"y": 0.9706580763,
				"z": -1.3344455354,
				"element": "F" 
			},
			{
				"x": 0.4465140109,
				"y": 0.2421208982,
				"z": -1.1049773544,
				"element": "C" 
			},
			{
				"x": 0.7490808444,
				"y": 0.6627728051,
				"z": -2.3789605463,
				"element": "N" 
			},
			{
				"x": 1.3951294699,
				"y": -0.3882560348,
				"z": -0.2908443271,
				"element": "C" 
			},
			{
				"x": 2.6580184036,
				"y": -0.5113233491,
				"z": -0.754826358,
				"element": "F" 
			},
			{
				"x": 1.064082534,
				"y": -0.85968549,
				"z": 0.9687822539,
				"element": "C" 
			},
			{
				"x": 2.0601569174,
				"y": -1.4490679883,
				"z": 1.6718572835,
				"element": "F" 
			},
			{
				"x": 0.9749402662,
				"y": -2.5295464788,
				"z": 3.0167000251,
				"element": "H" 
			},
			{
				"x": -0.0812466468,
				"y": -2.445500574,
				"z": 4.3916297086,
				"element": "H" 
			},
			{
				"x": 1.7274193811,
				"y": 0.8096072389,
				"z": -2.5769582399,
				"element": "H" 
			},
			{
				"x": 0.1184596546,
				"y": 1.3400855882,
				"z": -2.7809992442,
				"element": "H" 
			}
		],
		 "valence_orbital": [ 
			{
				"type": "occ",
				"energy": -0.32492,
				"method": "rhf"
			},
			{
				"type": "occ",
				"energy": -0.26817,
				"method": "rhf"
			},
			{
				"type": "occ",
				"energy": -0.25417,
				"method": "rhf"
			},
			{
				"type": "occ",
				"energy": -0.25104,
				"method": "rhf"
			},
			{
				"type": "occ",
				"energy": -0.23241,
				"method": "rhf"
			},
			{
				"type": "unocc",
				"energy": -0.03787,
				"method": "rhf"
			},
			{
				"type": "unocc",
				"energy": -0.00893,
				"method": "rhf"
			},
			{
				"type": "unocc",
				"energy": 0.0253,
				"method": "rhf"
			},
			{
				"type": "unocc",
				"energy": 0.05568,
				"method": "rhf"
			},
			{
				"type": "unocc",
				"energy": 0.08175,
				"method": "rhf"
			}
		],
		"cosmo_sigma_profile": { 
			"-0.025": 0.0,
			"-0.024": 0.0,
			"-0.023": 0.0,
			"-0.022": 0.0,
			"-0.021": 0.0,
			"-0.02": 0.0,
			"-0.019": 0.0,
			"-0.018": 0.0,
			"-0.017": 0.0,
			"-0.016": 0.0,
			"-0.015": 0.0603379813991,
			"-0.014": 2.00976431891,
			"-0.013": 3.58881763932,
			"-0.012": 4.47983252847,
			"-0.011": 4.59548319372,
			"-0.01": 2.81344245701,
			"-0.009": 4.80878636438,
			"-0.008": 4.43885804415,
			"-0.007": 3.83278970259,
			"-0.006": 3.23414861553,
			"-0.005": 3.94780769839,
			"-0.004": 4.67862318397,
			"-0.003": 7.52353548639,
			"-0.002": 21.4530347699,
			"-0.001": 19.4168961222,
			"0.0": 14.009956885,
			"0.001": 11.1634175147,
			"0.002": 16.1866849533,
			"0.003": 25.9824343722,
			"0.004": 11.6116701888,
			"0.005": 2.96721001599,
			"0.006": 3.49315553424,
			"0.007": 2.50725773219,
			"0.008": 2.03134626595,
			"0.009": 2.81668072679,
			"0.01": 2.39971491866,
			"0.011": 1.88719560232,
			"0.012": 2.70972978216,
			"0.013": 5.5057897867,
			"0.014": 2.95449296487,
			"0.015": 0.0474222646921,
			"0.016": 0.0,
			"0.017": 0.0,
			"0.018": 0.0,
			"0.019": 0.0,
			"0.02": 0.0,
			"0.021": 0.0,
			"0.022": 0.0,
			"0.023": 0.0,
			"0.024": 0.0,
			"0.025": 0.0
		}
	}
}
