{
	 "smiles": "NC(=O)C1=C(N)SC=C1", 
	 "Tm": 434.15, 
	 "num_atms": 15, 
	 "gaussian": { 
		 "optdone": 1, 
		 "sigma_profile": "yes", 
		 "theory": "DFT", 
		 "functional": "B3LYP", 
		 "basiset": "6-31G**", 
		 "properties": { 
			 "R2extent": 1707.0599, 
			 "electric_dipole_moment_norm": 3.75678077881, 
			 "electric_quadrupole_moment_norm": 10.4739350867, 
			 "total_energy": -777.064407047, 
			 "HOMO_LUMO_gap": 0.18855, 
			 "cosmo_polarized_energy": -15.44, 
			 "cosmo_cavitation_energy": 20.55, 
			 "cosmo_dispersion_energy": -16.17, 
			 "cosmo_repulsion_energy": 1.28, 
			 "cosmo_total_nonelectrostatic_energy": 5.67, 
			 "SMD_solvation_energy": 4.47 
		},
		"coords": [
			{
				"x": 0.1547338668,
				"y": -1.64325804,
				"z": -0.09959662,
				"element": "N" 
			},
			{
				"x": -0.5986546486,
				"y": -0.4751950812,
				"z": -0.2146750846,
				"element": "C" 
			},
			{
				"x": -1.6593654802,
				"y": -0.4600703624,
				"z": -0.8268808578,
				"element": "O" 
			},
			{
				"x": -0.0617094051,
				"y": 0.7184136108,
				"z": 0.4751461314,
				"element": "C" 
			},
			{
				"x": 0.9253305055,
				"y": 0.7451634716,
				"z": 1.44720314,
				"element": "C" 
			},
			{
				"x": 1.6521123489,
				"y": -0.3174123481,
				"z": 1.9720729768,
				"element": "N" 
			},
			{
				"x": 1.234525113,
				"y": 2.380017955,
				"z": 1.9884930519,
				"element": "S" 
			},
			{
				"x": 0.018003099,
				"y": 3.0209593363,
				"z": 0.9011902888,
				"element": "C" 
			},
			{
				"x": -0.5771845875,
				"y": 2.0301945039,
				"z": 0.1911987959,
				"element": "C" 
			},
			{
				"x": 1.1625871264,
				"y": -1.5411110119,
				"z": -0.0762877346,
				"element": "H" 
			},
			{
				"x": -0.1784239878,
				"y": -2.3775683862,
				"z": -0.7122318278,
				"element": "H" 
			},
			{
				"x": 1.1170725521,
				"y": -1.1786210396,
				"z": 2.0188545626,
				"element": "H" 
			},
			{
				"x": 2.1282946961,
				"y": -0.1204529701,
				"z": 2.8426188227,
				"element": "H" 
			},
			{
				"x": -0.1545720559,
				"y": 4.0868014434,
				"z": 0.8674382518,
				"element": "H" 
			},
			{
				"x": -1.3645491427,
				"y": 2.1832389185,
				"z": -0.5363438971,
				"element": "H" 
			}
		],
		 "valence_orbital": [ 
			{
				"type": "occ",
				"energy": -0.32209,
				"method": "rhf"
			},
			{
				"type": "occ",
				"energy": -0.27554,
				"method": "rhf"
			},
			{
				"type": "occ",
				"energy": -0.25465,
				"method": "rhf"
			},
			{
				"type": "occ",
				"energy": -0.24503,
				"method": "rhf"
			},
			{
				"type": "occ",
				"energy": -0.20794,
				"method": "rhf"
			},
			{
				"type": "unocc",
				"energy": -0.01939,
				"method": "rhf"
			},
			{
				"type": "unocc",
				"energy": 0.00826,
				"method": "rhf"
			},
			{
				"type": "unocc",
				"energy": 0.01859,
				"method": "rhf"
			},
			{
				"type": "unocc",
				"energy": 0.0732,
				"method": "rhf"
			},
			{
				"type": "unocc",
				"energy": 0.08978,
				"method": "rhf"
			}
		],
		"cosmo_sigma_profile": { 
			"-0.025": 0.0,
			"-0.024": 0.0,
			"-0.023": 0.0,
			"-0.022": 0.0,
			"-0.021": 0.0,
			"-0.02": 0.0,
			"-0.019": 0.0,
			"-0.018": 0.0,
			"-0.017": 0.0,
			"-0.016": 0.0,
			"-0.015": 0.113501691386,
			"-0.014": 1.23359654511,
			"-0.013": 2.51165245191,
			"-0.012": 4.098873236,
			"-0.011": 4.90684523896,
			"-0.01": 3.85564606092,
			"-0.009": 4.84019349105,
			"-0.008": 5.61919225594,
			"-0.007": 5.70636500559,
			"-0.006": 6.89014119287,
			"-0.005": 6.37922230776,
			"-0.004": 6.4570916979,
			"-0.003": 6.49413214325,
			"-0.002": 6.36299871762,
			"-0.001": 7.79654169105,
			"0.0": 7.01273409776,
			"0.001": 9.04605102957,
			"0.002": 11.6235051256,
			"0.003": 13.201513252,
			"0.004": 13.9017639133,
			"0.005": 9.96454645825,
			"0.006": 5.18043127627,
			"0.007": 3.0440347621,
			"0.008": 2.26289486394,
			"0.009": 2.33302203445,
			"0.01": 1.60705425631,
			"0.011": 1.77145873622,
			"0.012": 2.07059298833,
			"0.013": 3.83116549801,
			"0.014": 4.981053468,
			"0.015": 0.657295400588,
			"0.016": 0.0,
			"0.017": 0.0,
			"0.018": 0.0,
			"0.019": 0.0,
			"0.02": 0.0,
			"0.021": 0.0,
			"0.022": 0.0,
			"0.023": 0.0,
			"0.024": 0.0,
			"0.025": 0.0
		}
	}
}
