{
	 "smiles": "CCN1C(=O)OC(C)(C)C1=O", 
	 "Tm": 349.65, 
	 "num_atms": 22, 
	 "gaussian": { 
		 "optdone": 1, 
		 "sigma_profile": "yes", 
		 "theory": "DFT", 
		 "functional": "B3LYP", 
		 "basiset": "6-31G**", 
		 "properties": { 
			 "R2extent": 1698.123, 
			 "electric_dipole_moment_norm": 1.62332279292, 
			 "electric_quadrupole_moment_norm": 17.8998403219, 
			 "total_energy": -553.851541015, 
			 "HOMO_LUMO_gap": 0.25372, 
			 "cosmo_polarized_energy": -11.01, 
			 "cosmo_cavitation_energy": 25.56, 
			 "cosmo_dispersion_energy": -17.76, 
			 "cosmo_repulsion_energy": 1.44, 
			 "cosmo_total_nonelectrostatic_energy": 9.25, 
			 "SMD_solvation_energy": 6.48 
		},
		"coords": [
			{
				"x": -2.568869868,
				"y": 1.7910747217,
				"z": 0.6829868599,
				"element": "C" 
			},
			{
				"x": -1.0550875873,
				"y": 1.9926180188,
				"z": 0.6120498546,
				"element": "C" 
			},
			{
				"x": -0.358282331,
				"y": 0.8236409067,
				"z": 0.0765823788,
				"element": "N" 
			},
			{
				"x": -0.2927365406,
				"y": 0.5328017419,
				"z": -1.2909406446,
				"element": "C" 
			},
			{
				"x": -0.7676544113,
				"y": 1.1865788183,
				"z": -2.1839018835,
				"element": "O" 
			},
			{
				"x": 0.4053496186,
				"y": -0.619106226,
				"z": -1.4580097844,
				"element": "O" 
			},
			{
				"x": 0.8411734169,
				"y": -1.1478832655,
				"z": -0.1721711082,
				"element": "C" 
			},
			{
				"x": 2.3680633389,
				"y": -1.1807102833,
				"z": -0.1407726945,
				"element": "C" 
			},
			{
				"x": 0.2102684514,
				"y": -2.523123278,
				"z": 0.0373470815,
				"element": "C" 
			},
			{
				"x": 0.2909845684,
				"y": -0.1296520815,
				"z": 0.8325234439,
				"element": "C" 
			},
			{
				"x": 0.4062292766,
				"y": -0.1530337738,
				"z": 2.0413209062,
				"element": "O" 
			},
			{
				"x": -2.9788559417,
				"y": 1.6042831201,
				"z": -0.3130150118,
				"element": "H" 
			},
			{
				"x": -3.0450015669,
				"y": 2.6899998547,
				"z": 1.0865693818,
				"element": "H" 
			},
			{
				"x": -2.8208088775,
				"y": 0.9493502612,
				"z": 1.3347283057,
				"element": "H" 
			},
			{
				"x": -0.8079222517,
				"y": 2.8413523893,
				"z": -0.0310016655,
				"element": "H" 
			},
			{
				"x": -0.6324888467,
				"y": 2.166125609,
				"z": 1.6047170813,
				"element": "H" 
			},
			{
				"x": 2.7439567085,
				"y": -1.8851413082,
				"z": -0.8874442843,
				"element": "H" 
			},
			{
				"x": 2.7065144021,
				"y": -1.4931579148,
				"z": 0.8504501107,
				"element": "H" 
			},
			{
				"x": 2.7818910808,
				"y": -0.1915919404,
				"z": -0.3551465958,
				"element": "H" 
			},
			{
				"x": -0.8783293527,
				"y": -2.4681653369,
				"z": -0.0497555187,
				"element": "H" 
			},
			{
				"x": 0.4623041297,
				"y": -2.8930088127,
				"z": 1.0345107121,
				"element": "H" 
			},
			{
				"x": 0.5846025835,
				"y": -3.2258512204,
				"z": -0.7117269252,
				"element": "H" 
			}
		],
		 "valence_orbital": [ 
			{
				"type": "occ",
				"energy": -0.36419,
				"method": "rhf"
			},
			{
				"type": "occ",
				"energy": -0.30747,
				"method": "rhf"
			},
			{
				"type": "occ",
				"energy": -0.30225,
				"method": "rhf"
			},
			{
				"type": "occ",
				"energy": -0.28459,
				"method": "rhf"
			},
			{
				"type": "occ",
				"energy": -0.27056,
				"method": "rhf"
			},
			{
				"type": "unocc",
				"energy": -0.01684,
				"method": "rhf"
			},
			{
				"type": "unocc",
				"energy": 0.04591,
				"method": "rhf"
			},
			{
				"type": "unocc",
				"energy": 0.08276,
				"method": "rhf"
			},
			{
				"type": "unocc",
				"energy": 0.09587,
				"method": "rhf"
			},
			{
				"type": "unocc",
				"energy": 0.10605,
				"method": "rhf"
			}
		],
		"cosmo_sigma_profile": { 
			"-0.025": 0.0,
			"-0.024": 0.0,
			"-0.023": 0.0,
			"-0.022": 0.0,
			"-0.021": 0.0,
			"-0.02": 0.0,
			"-0.019": 0.0,
			"-0.018": 0.0,
			"-0.017": 0.0,
			"-0.016": 0.0,
			"-0.015": 0.0,
			"-0.014": 0.0,
			"-0.013": 0.0,
			"-0.012": 0.0,
			"-0.011": 0.0,
			"-0.01": 0.0,
			"-0.009": 0.367228940622,
			"-0.008": 1.75116047679,
			"-0.007": 2.57319960844,
			"-0.006": 8.23475983013,
			"-0.005": 20.31213857,
			"-0.004": 23.8654188239,
			"-0.003": 25.6512302034,
			"-0.002": 22.8558369797,
			"-0.001": 21.5729370099,
			"0.0": 11.9724443309,
			"0.001": 6.29669767962,
			"0.002": 5.39212963628,
			"0.003": 4.01675837734,
			"0.004": 4.64523292006,
			"0.005": 3.15031449183,
			"0.006": 2.95662400777,
			"0.007": 4.61136402082,
			"0.008": 4.41046126354,
			"0.009": 5.44855806721,
			"0.01": 4.79125231838,
			"0.011": 8.91519811749,
			"0.012": 6.37007275621,
			"0.013": 0.390032790536,
			"0.014": 0.0,
			"0.015": 0.0,
			"0.016": 0.0,
			"0.017": 0.0,
			"0.018": 0.0,
			"0.019": 0.0,
			"0.02": 0.0,
			"0.021": 0.0,
			"0.022": 0.0,
			"0.023": 0.0,
			"0.024": 0.0,
			"0.025": 0.0
		}
	}
}
