{
	 "smiles": "OC1=CC=C(Cl)C(O)=C1", 
	 "Tm": 379.15, 
	 "num_atms": 14, 
	 "gaussian": { 
		 "optdone": 1, 
		 "sigma_profile": "yes", 
		 "theory": "DFT", 
		 "functional": "B3LYP", 
		 "basiset": "6-31G**", 
		 "properties": { 
			 "R2extent": 2182.0239, 
			 "electric_dipole_moment_norm": 1.03954471284, 
			 "electric_quadrupole_moment_norm": 5.24618820955, 
			 "total_energy": -842.28467458, 
			 "HOMO_LUMO_gap": 0.21135, 
			 "cosmo_polarized_energy": -9.63, 
			 "cosmo_cavitation_energy": 19.95, 
			 "cosmo_dispersion_energy": -15.4, 
			 "cosmo_repulsion_energy": 1.26, 
			 "cosmo_total_nonelectrostatic_energy": 5.8, 
			 "SMD_solvation_energy": 3.92 
		},
		"coords": [
			{
				"x": 1.0035137103,
				"y": -0.7910734497,
				"z": -1.5586477274,
				"element": "O" 
			},
			{
				"x": 0.1599118866,
				"y": -0.7095921184,
				"z": -0.4902147118,
				"element": "C" 
			},
			{
				"x": 0.6063989023,
				"y": 0.0120926334,
				"z": 0.6252763323,
				"element": "C" 
			},
			{
				"x": -0.2190595891,
				"y": 0.1226554119,
				"z": 1.73847281,
				"element": "C" 
			},
			{
				"x": -1.4762287559,
				"y": -0.4779178128,
				"z": 1.7437757454,
				"element": "C" 
			},
			{
				"x": -2.5319250284,
				"y": -0.3434732011,
				"z": 3.1523274125,
				"element": "Cl" 
			},
			{
				"x": -1.9308757164,
				"y": -1.2018941431,
				"z": 0.6318129128,
				"element": "C" 
			},
			{
				"x": -3.1428393598,
				"y": -1.8057955784,
				"z": 0.5820685452,
				"element": "O" 
			},
			{
				"x": -1.0988141386,
				"y": -1.3120703385,
				"z": -0.4874537337,
				"element": "C" 
			},
			{
				"x": 0.5852483662,
				"y": -1.309708753,
				"z": -2.2580174032,
				"element": "H" 
			},
			{
				"x": 1.5871887474,
				"y": 0.4726294615,
				"z": 0.6034846572,
				"element": "H" 
			},
			{
				"x": 0.1084374654,
				"y": 0.6768767586,
				"z": 2.6113638573,
				"element": "H" 
			},
			{
				"x": -3.6032757053,
				"y": -1.645231079,
				"z": 1.4202962811,
				"element": "H" 
			},
			{
				"x": -1.4620807848,
				"y": -1.8752977915,
				"z": -1.3424449777,
				"element": "H" 
			}
		],
		 "valence_orbital": [ 
			{
				"type": "occ",
				"energy": -0.35893,
				"method": "rhf"
			},
			{
				"type": "occ",
				"energy": -0.32868,
				"method": "rhf"
			},
			{
				"type": "occ",
				"energy": -0.31022,
				"method": "rhf"
			},
			{
				"type": "occ",
				"energy": -0.24444,
				"method": "rhf"
			},
			{
				"type": "occ",
				"energy": -0.21927,
				"method": "rhf"
			},
			{
				"type": "unocc",
				"energy": -0.00792,
				"method": "rhf"
			},
			{
				"type": "unocc",
				"energy": 0.00953,
				"method": "rhf"
			},
			{
				"type": "unocc",
				"energy": 0.02066,
				"method": "rhf"
			},
			{
				"type": "unocc",
				"energy": 0.06681,
				"method": "rhf"
			},
			{
				"type": "unocc",
				"energy": 0.08957,
				"method": "rhf"
			}
		],
		"cosmo_sigma_profile": { 
			"-0.025": 0.0,
			"-0.024": 0.0,
			"-0.023": 0.0,
			"-0.022": 0.0,
			"-0.021": 0.0,
			"-0.02": 0.0,
			"-0.019": 0.023341254285,
			"-0.018": 0.908208753294,
			"-0.017": 1.08250634331,
			"-0.016": 1.14933018533,
			"-0.015": 1.17936284951,
			"-0.014": 1.93089507836,
			"-0.013": 1.22343406443,
			"-0.012": 1.08113964795,
			"-0.011": 2.19354918733,
			"-0.01": 2.57245527648,
			"-0.009": 2.13935326168,
			"-0.008": 2.2583391267,
			"-0.007": 4.5124655921,
			"-0.006": 6.00186121414,
			"-0.005": 6.16964741169,
			"-0.004": 6.24144752241,
			"-0.003": 5.5204762928,
			"-0.002": 6.63738818711,
			"-0.001": 8.77538856483,
			"0.0": 9.35247716063,
			"0.001": 10.4368611838,
			"0.002": 13.8717416809,
			"0.003": 20.6782802801,
			"0.004": 20.1541380349,
			"0.005": 8.71623256695,
			"0.006": 2.07102385497,
			"0.007": 2.74688506105,
			"0.008": 2.44196243287,
			"0.009": 3.07138456039,
			"0.01": 3.74251300538,
			"0.011": 2.51996595937,
			"0.012": 0.258198444932,
			"0.013": 0.0,
			"0.014": 0.0,
			"0.015": 0.0,
			"0.016": 0.0,
			"0.017": 0.0,
			"0.018": 0.0,
			"0.019": 0.0,
			"0.02": 0.0,
			"0.021": 0.0,
			"0.022": 0.0,
			"0.023": 0.0,
			"0.024": 0.0,
			"0.025": 0.0
		}
	}
}
