{
	 "smiles": "CC1(NC(=O)NC1=O)C1=CC2=C(OCCCO2)C=C1", 
	 "Tm": 466.15, 
	 "num_atms": 33, 
	 "gaussian": { 
		 "optdone": 1, 
		 "sigma_profile": "yes", 
		 "theory": "DFT", 
		 "functional": "B3LYP", 
		 "basiset": "6-31G**", 
		 "properties": { 
			 "R2extent": 5939.5058, 
			 "electric_dipole_moment_norm": 2.44206293121, 
			 "electric_quadrupole_moment_norm": 19.3412373138, 
			 "total_energy": -914.241165674, 
			 "HOMO_LUMO_gap": 0.20692, 
			 "cosmo_polarized_energy": -19.73, 
			 "cosmo_cavitation_energy": 35.88, 
			 "cosmo_dispersion_energy": -25.93, 
			 "cosmo_repulsion_energy": 2.01, 
			 "cosmo_total_nonelectrostatic_energy": 11.96, 
			 "SMD_solvation_energy": 7.81 
		},
		"coords": [
			{
				"x": -3.6699352222,
				"y": -1.3515304613,
				"z": -0.0412781684,
				"element": "C" 
			},
			{
				"x": -2.3257857359,
				"y": -1.0151095102,
				"z": -0.7201216803,
				"element": "C" 
			},
			{
				"x": -1.6689592336,
				"y": -2.2181987765,
				"z": -1.2272751771,
				"element": "N" 
			},
			{
				"x": -1.6032503222,
				"y": -2.2865286584,
				"z": -2.5963505417,
				"element": "C" 
			},
			{
				"x": -1.1993104559,
				"y": -3.1943112027,
				"z": -3.2919147785,
				"element": "O" 
			},
			{
				"x": -2.1164418047,
				"y": -1.0547019971,
				"z": -3.0552362794,
				"element": "N" 
			},
			{
				"x": -2.6025868919,
				"y": -0.2538304957,
				"z": -2.046729756,
				"element": "C" 
			},
			{
				"x": -3.1566592837,
				"y": 0.8184815189,
				"z": -2.1656567963,
				"element": "O" 
			},
			{
				"x": -1.426766219,
				"y": -0.1812040914,
				"z": 0.2007039001,
				"element": "C" 
			},
			{
				"x": -0.1739374315,
				"y": -0.6460408758,
				"z": 0.6036066009,
				"element": "C" 
			},
			{
				"x": 0.6335236709,
				"y": 0.0887392379,
				"z": 1.4776449645,
				"element": "C" 
			},
			{
				"x": 0.1877219248,
				"y": 1.3380277033,
				"z": 1.9479778397,
				"element": "C" 
			},
			{
				"x": 0.8709406458,
				"y": 2.093537398,
				"z": 2.8690638933,
				"element": "O" 
			},
			{
				"x": 2.2137168683,
				"y": 2.4766232179,
				"z": 2.5559630964,
				"element": "C" 
			},
			{
				"x": 3.217015393,
				"y": 1.3398902699,
				"z": 2.7150971931,
				"element": "C" 
			},
			{
				"x": 3.0221994039,
				"y": 0.2169736915,
				"z": 1.7027107676,
				"element": "C" 
			},
			{
				"x": 1.8016454778,
				"y": -0.5061956041,
				"z": 1.8904820485,
				"element": "O" 
			},
			{
				"x": -1.0562940265,
				"y": 1.8136415973,
				"z": 1.5212343428,
				"element": "C" 
			},
			{
				"x": -1.8621569286,
				"y": 1.0679569764,
				"z": 0.6672872837,
				"element": "C" 
			},
			{
				"x": -3.4919203377,
				"y": -1.9130356184,
				"z": 0.8808136145,
				"element": "H" 
			},
			{
				"x": -4.2969793845,
				"y": -1.9518629539,
				"z": -0.7075215688,
				"element": "H" 
			},
			{
				"x": -4.2075302966,
				"y": -0.435695163,
				"z": 0.2110780889,
				"element": "H" 
			},
			{
				"x": -1.5436445098,
				"y": -3.0584147858,
				"z": -0.6837180118,
				"element": "H" 
			},
			{
				"x": -2.1775733182,
				"y": -0.8300645915,
				"z": -4.0380005015,
				"element": "H" 
			},
			{
				"x": 0.2111488019,
				"y": -1.5967339019,
				"z": 0.253722819,
				"element": "H" 
			},
			{
				"x": 2.2525934527,
				"y": 2.8852478202,
				"z": 1.5351118371,
				"element": "H" 
			},
			{
				"x": 2.4427782379,
				"y": 3.2859941136,
				"z": 3.2547274141,
				"element": "H" 
			},
			{
				"x": 4.2293786154,
				"y": 1.748455562,
				"z": 2.5928605469,
				"element": "H" 
			},
			{
				"x": 3.1457577327,
				"y": 0.9312217369,
				"z": 3.7293119388,
				"element": "H" 
			},
			{
				"x": 3.0642910735,
				"y": 0.6107789113,
				"z": 0.6762057668,
				"element": "H" 
			},
			{
				"x": 3.8103943736,
				"y": -0.5332656646,
				"z": 1.8111043945,
				"element": "H" 
			},
			{
				"x": -1.3801652648,
				"y": 2.7813653362,
				"z": 1.890648989,
				"element": "H" 
			},
			{
				"x": -2.8107090051,
				"y": 1.4730892611,
				"z": 0.3342459192,
				"element": "H" 
			}
		],
		 "valence_orbital": [ 
			{
				"type": "occ",
				"energy": -0.28506,
				"method": "rhf"
			},
			{
				"type": "occ",
				"energy": -0.27108,
				"method": "rhf"
			},
			{
				"type": "occ",
				"energy": -0.26429,
				"method": "rhf"
			},
			{
				"type": "occ",
				"energy": -0.24323,
				"method": "rhf"
			},
			{
				"type": "occ",
				"energy": -0.22451,
				"method": "rhf"
			},
			{
				"type": "unocc",
				"energy": -0.01759,
				"method": "rhf"
			},
			{
				"type": "unocc",
				"energy": -0.00391,
				"method": "rhf"
			},
			{
				"type": "unocc",
				"energy": 0.00577,
				"method": "rhf"
			},
			{
				"type": "unocc",
				"energy": 0.05987,
				"method": "rhf"
			},
			{
				"type": "unocc",
				"energy": 0.07359,
				"method": "rhf"
			}
		],
		"cosmo_sigma_profile": { 
			"-0.025": 0.0,
			"-0.024": 0.0,
			"-0.023": 0.0,
			"-0.022": 0.0,
			"-0.021": 0.0,
			"-0.02": 0.0,
			"-0.019": 0.0,
			"-0.018": 0.0,
			"-0.017": 0.619974410343,
			"-0.016": 1.26193758583,
			"-0.015": 2.27230645317,
			"-0.014": 1.91585749792,
			"-0.013": 1.823653474,
			"-0.012": 1.47302654332,
			"-0.011": 2.49056221048,
			"-0.01": 1.38565471715,
			"-0.009": 2.79090708282,
			"-0.008": 2.41978615261,
			"-0.007": 2.97240104795,
			"-0.006": 9.82112386628,
			"-0.005": 25.6082167902,
			"-0.004": 30.7752022723,
			"-0.003": 25.6479042026,
			"-0.002": 23.5741871882,
			"-0.001": 20.8649430444,
			"0.0": 12.3449577196,
			"0.001": 12.0046607488,
			"0.002": 11.3578163199,
			"0.003": 13.4689686818,
			"0.004": 14.4451058723,
			"0.005": 9.82000650692,
			"0.006": 6.43447623009,
			"0.007": 5.6458380711,
			"0.008": 5.57117567457,
			"0.009": 4.30824570715,
			"0.01": 5.78921230505,
			"0.011": 9.24900646213,
			"0.012": 8.2614414345,
			"0.013": 6.25458177279,
			"0.014": 0.678144851746,
			"0.015": 0.0,
			"0.016": 0.0,
			"0.017": 0.0,
			"0.018": 0.0,
			"0.019": 0.0,
			"0.02": 0.0,
			"0.021": 0.0,
			"0.022": 0.0,
			"0.023": 0.0,
			"0.024": 0.0,
			"0.025": 0.0
		}
	}
}
