{
	 "smiles": "CC1(C)CCCCC1O", 
	 "Tm": 281.15, 
	 "num_atms": 25, 
	 "gaussian": { 
		 "optdone": 1, 
		 "sigma_profile": "yes", 
		 "theory": "DFT", 
		 "functional": "B3LYP", 
		 "basiset": "6-31G**", 
		 "properties": { 
			 "R2extent": 1386.4639, 
			 "electric_dipole_moment_norm": 1.42221366538, 
			 "electric_quadrupole_moment_norm": 5.78418541888, 
			 "total_energy": -389.724943092, 
			 "HOMO_LUMO_gap": 0.32312, 
			 "cosmo_polarized_energy": -5.34, 
			 "cosmo_cavitation_energy": 23.84, 
			 "cosmo_dispersion_energy": -17.81, 
			 "cosmo_repulsion_energy": 1.44, 
			 "cosmo_total_nonelectrostatic_energy": 7.46, 
			 "SMD_solvation_energy": 3.48 
		},
		"coords": [
			{
				"x": 1.8305568913,
				"y": -0.0180591782,
				"z": 0.8139547013,
				"element": "C" 
			},
			{
				"x": 1.1144064293,
				"y": -0.8570496609,
				"z": -0.2642143261,
				"element": "C" 
			},
			{
				"x": 2.1277897481,
				"y": -1.8598213889,
				"z": -0.849505565,
				"element": "C" 
			},
			{
				"x": 0.567508895,
				"y": 0.0535921034,
				"z": -1.4164065789,
				"element": "C" 
			},
			{
				"x": -0.9440151255,
				"y": 0.3598433309,
				"z": -1.336346346,
				"element": "C" 
			},
			{
				"x": -1.4107856755,
				"y": 0.5572114166,
				"z": 0.1112043239,
				"element": "C" 
			},
			{
				"x": -1.1491085515,
				"y": -0.7081233732,
				"z": 0.9628781627,
				"element": "C" 
			},
			{
				"x": -0.0787248036,
				"y": -1.6314593297,
				"z": 0.3602510837,
				"element": "C" 
			},
			{
				"x": 0.3168056315,
				"y": -2.5150002881,
				"z": 1.4106716042,
				"element": "O" 
			},
			{
				"x": 1.2006711674,
				"y": 0.7904338121,
				"z": 1.1960121913,
				"element": "H" 
			},
			{
				"x": 2.1168647205,
				"y": -0.6484232137,
				"z": 1.6607311446,
				"element": "H" 
			},
			{
				"x": 2.7368730251,
				"y": 0.439841313,
				"z": 0.4018301127,
				"element": "H" 
			},
			{
				"x": 2.6014796298,
				"y": -2.4623596908,
				"z": -0.0655500786,
				"element": "H" 
			},
			{
				"x": 2.930819601,
				"y": -1.3351851975,
				"z": -1.3786407848,
				"element": "H" 
			},
			{
				"x": 1.6500675286,
				"y": -2.5392313581,
				"z": -1.5665878831,
				"element": "H" 
			},
			{
				"x": 1.1295673567,
				"y": 0.9957354955,
				"z": -1.4058668163,
				"element": "H" 
			},
			{
				"x": 0.7802741446,
				"y": -0.4108391125,
				"z": -2.3868557945,
				"element": "H" 
			},
			{
				"x": -1.5157217982,
				"y": -0.4620285134,
				"z": -1.7870589519,
				"element": "H" 
			},
			{
				"x": -1.1704851997,
				"y": 1.248402728,
				"z": -1.9370129673,
				"element": "H" 
			},
			{
				"x": -0.880403014,
				"y": 1.4169381809,
				"z": 0.5390335856,
				"element": "H" 
			},
			{
				"x": -2.4748792772,
				"y": 0.8167784819,
				"z": 0.1358243146,
				"element": "H" 
			},
			{
				"x": -2.0675032539,
				"y": -1.2924767648,
				"z": 1.0844845347,
				"element": "H" 
			},
			{
				"x": -0.8257419633,
				"y": -0.4364460354,
				"z": 1.9731607506,
				"element": "H" 
			},
			{
				"x": -0.5381748976,
				"y": -2.2198226048,
				"z": -0.4520794124,
				"element": "H" 
			},
			{
				"x": 0.8311587913,
				"y": -3.2322511522,
				"z": 1.020188995,
				"element": "H" 
			}
		],
		 "valence_orbital": [ 
			{
				"type": "occ",
				"energy": -0.32878,
				"method": "rhf"
			},
			{
				"type": "occ",
				"energy": -0.30977,
				"method": "rhf"
			},
			{
				"type": "occ",
				"energy": -0.29971,
				"method": "rhf"
			},
			{
				"type": "occ",
				"energy": -0.28848,
				"method": "rhf"
			},
			{
				"type": "occ",
				"energy": -0.25293,
				"method": "rhf"
			},
			{
				"type": "unocc",
				"energy": 0.07019,
				"method": "rhf"
			},
			{
				"type": "unocc",
				"energy": 0.08356,
				"method": "rhf"
			},
			{
				"type": "unocc",
				"energy": 0.10691,
				"method": "rhf"
			},
			{
				"type": "unocc",
				"energy": 0.12566,
				"method": "rhf"
			},
			{
				"type": "unocc",
				"energy": 0.1408,
				"method": "rhf"
			}
		],
		"cosmo_sigma_profile": { 
			"-0.025": 0.0,
			"-0.024": 0.0,
			"-0.023": 0.0,
			"-0.022": 0.0,
			"-0.021": 0.0,
			"-0.02": 0.0,
			"-0.019": 0.0,
			"-0.018": 0.0,
			"-0.017": 0.0,
			"-0.016": 0.0,
			"-0.015": 0.00832708612012,
			"-0.014": 0.547464266869,
			"-0.013": 0.782498423436,
			"-0.012": 0.80495775222,
			"-0.011": 1.04476172446,
			"-0.01": 0.754010933398,
			"-0.009": 0.988990179506,
			"-0.008": 1.23803773664,
			"-0.007": 1.01377180134,
			"-0.006": 0.491170941449,
			"-0.005": 2.09823403061,
			"-0.004": 1.45077118691,
			"-0.003": 10.1776554178,
			"-0.002": 30.7818249731,
			"-0.001": 34.1063546254,
			"0.0": 32.0462081203,
			"0.001": 28.9881486576,
			"0.002": 15.5879845725,
			"0.003": 2.88979659135,
			"0.004": 1.25628074475,
			"0.005": 1.362803393,
			"0.006": 2.19148440009,
			"0.007": 0.992784545758,
			"0.008": 1.02252633788,
			"0.009": 1.63158787236,
			"0.01": 1.63252727267,
			"0.011": 0.911696084608,
			"0.012": 1.2229116833,
			"0.013": 1.22090652624,
			"0.014": 1.81518348525,
			"0.015": 0.832570059097,
			"0.016": 0.0,
			"0.017": 0.0,
			"0.018": 0.0,
			"0.019": 0.0,
			"0.02": 0.0,
			"0.021": 0.0,
			"0.022": 0.0,
			"0.023": 0.0,
			"0.024": 0.0,
			"0.025": 0.0
		}
	}
}
