{
	 "smiles": "NCC1=CC(NC(=O)C2=CC=NC=C2)=CC=C1", 
	 "Tm": 402.15, 
	 "num_atms": 30, 
	 "gaussian": { 
		 "optdone": 1, 
		 "sigma_profile": "yes", 
		 "theory": "DFT", 
		 "functional": "B3LYP", 
		 "basiset": "6-31G**", 
		 "properties": { 
			 "R2extent": 4479.395, 
			 "electric_dipole_moment_norm": 3.87202250381, 
			 "electric_quadrupole_moment_norm": 13.074182202, 
			 "total_energy": -742.697164461, 
			 "HOMO_LUMO_gap": 0.17734, 
			 "cosmo_polarized_energy": -17.09, 
			 "cosmo_cavitation_energy": 34.58, 
			 "cosmo_dispersion_energy": -23.72, 
			 "cosmo_repulsion_energy": 1.87, 
			 "cosmo_total_nonelectrostatic_energy": 12.73, 
			 "SMD_solvation_energy": 3.61 
		},
		"coords": [
			{
				"x": -0.7309421424,
				"y": -2.9409595422,
				"z": 2.5877681867,
				"element": "N" 
			},
			{
				"x": -1.4335350627,
				"y": -2.1058617716,
				"z": 1.6011752318,
				"element": "C" 
			},
			{
				"x": -0.8030091069,
				"y": -2.0582390974,
				"z": 0.2180144857,
				"element": "C" 
			},
			{
				"x": 0.1598757801,
				"y": -1.0893535555,
				"z": -0.0860756082,
				"element": "C" 
			},
			{
				"x": 0.7855318979,
				"y": -1.0660340741,
				"z": -1.3391019149,
				"element": "C" 
			},
			{
				"x": 1.7785870037,
				"y": -0.1053823204,
				"z": -1.6668698684,
				"element": "N" 
			},
			{
				"x": 1.9325029481,
				"y": 1.2099464671,
				"z": -1.2728288819,
				"element": "C" 
			},
			{
				"x": 3.0312874571,
				"y": 1.7478897023,
				"z": -1.3392719206,
				"element": "O" 
			},
			{
				"x": 0.72502386,
				"y": 1.9969877909,
				"z": -0.8414130633,
				"element": "C" 
			},
			{
				"x": 0.910598514,
				"y": 3.025237413,
				"z": 0.0881296657,
				"element": "C" 
			},
			{
				"x": -0.1820999334,
				"y": 3.8151715831,
				"z": 0.4415537251,
				"element": "C" 
			},
			{
				"x": -1.4074822895,
				"y": 3.6661192909,
				"z": -0.0795475368,
				"element": "N" 
			},
			{
				"x": -1.5677329709,
				"y": 2.6976533279,
				"z": -0.9897437611,
				"element": "C" 
			},
			{
				"x": -0.5481765426,
				"y": 1.8371968282,
				"z": -1.3990868051,
				"element": "C" 
			},
			{
				"x": 0.4660339538,
				"y": -2.044836583,
				"z": -2.2897077875,
				"element": "C" 
			},
			{
				"x": -0.4782633658,
				"y": -3.0239226882,
				"z": -1.9853839043,
				"element": "C" 
			},
			{
				"x": -1.1177581973,
				"y": -3.0261409806,
				"z": -0.7457364203,
				"element": "C" 
			},
			{
				"x": 0.2263223781,
				"y": -2.6094724739,
				"z": 2.6903898555,
				"element": "H" 
			},
			{
				"x": -0.6558245606,
				"y": -3.8923103613,
				"z": 2.2327142884,
				"element": "H" 
			},
			{
				"x": -1.5000437536,
				"y": -1.0919004414,
				"z": 2.0108097082,
				"element": "H" 
			},
			{
				"x": -2.4602566741,
				"y": -2.4804220717,
				"z": 1.521065157,
				"element": "H" 
			},
			{
				"x": 0.4272932199,
				"y": -0.3468314903,
				"z": 0.659772246,
				"element": "H" 
			},
			{
				"x": 2.6299761588,
				"y": -0.4640714113,
				"z": -2.0836531019,
				"element": "H" 
			},
			{
				"x": 1.8939380785,
				"y": 3.2003721008,
				"z": 0.5103557659,
				"element": "H" 
			},
			{
				"x": -0.066603219,
				"y": 4.6116698238,
				"z": 1.1743195793,
				"element": "H" 
			},
			{
				"x": -2.564441067,
				"y": 2.6008246618,
				"z": -1.4165128914,
				"element": "H" 
			},
			{
				"x": -0.7465529901,
				"y": 1.0725847557,
				"z": -2.1415726778,
				"element": "H" 
			},
			{
				"x": 0.9483569313,
				"y": -2.0238994684,
				"z": -3.2628000863,
				"element": "H" 
			},
			{
				"x": -0.7266711501,
				"y": -3.777282173,
				"z": -2.7273747145,
				"element": "H" 
			},
			{
				"x": -1.8659351556,
				"y": -3.7829332412,
				"z": -0.5225869512,
				"element": "H" 
			}
		],
		 "valence_orbital": [ 
			{
				"type": "occ",
				"energy": -0.267,
				"method": "rhf"
			},
			{
				"type": "occ",
				"energy": -0.2646,
				"method": "rhf"
			},
			{
				"type": "occ",
				"energy": -0.2565,
				"method": "rhf"
			},
			{
				"type": "occ",
				"energy": -0.24026,
				"method": "rhf"
			},
			{
				"type": "occ",
				"energy": -0.23543,
				"method": "rhf"
			},
			{
				"type": "unocc",
				"energy": -0.05809,
				"method": "rhf"
			},
			{
				"type": "unocc",
				"energy": -0.02393,
				"method": "rhf"
			},
			{
				"type": "unocc",
				"energy": -0.01688,
				"method": "rhf"
			},
			{
				"type": "unocc",
				"energy": -0.01129,
				"method": "rhf"
			},
			{
				"type": "unocc",
				"energy": 0.04186,
				"method": "rhf"
			}
		],
		"cosmo_sigma_profile": { 
			"-0.025": 0.0,
			"-0.024": 0.0,
			"-0.023": 0.0,
			"-0.022": 0.0,
			"-0.021": 0.0,
			"-0.02": 0.0,
			"-0.019": 0.0,
			"-0.018": 0.0,
			"-0.017": 0.0,
			"-0.016": 0.0,
			"-0.015": 0.192022247642,
			"-0.014": 0.964812064735,
			"-0.013": 1.29433563397,
			"-0.012": 0.879150865431,
			"-0.011": 1.04392440016,
			"-0.01": 1.49570573696,
			"-0.009": 2.95792279321,
			"-0.008": 3.90056141856,
			"-0.007": 9.60989210877,
			"-0.006": 20.5420130709,
			"-0.005": 21.4326704888,
			"-0.004": 22.6593632484,
			"-0.003": 20.4952883858,
			"-0.002": 16.3742879261,
			"-0.001": 18.3366771543,
			"0.0": 19.0046202818,
			"0.001": 21.7423099527,
			"0.002": 18.2764556475,
			"0.003": 11.9889073988,
			"0.004": 11.90707074,
			"0.005": 10.3081819999,
			"0.006": 3.49641148301,
			"0.007": 3.77089901954,
			"0.008": 3.97643191387,
			"0.009": 3.6513530707,
			"0.01": 2.68568360035,
			"0.011": 3.29559915176,
			"0.012": 5.50446091764,
			"0.013": 5.95693561406,
			"0.014": 2.07503489902,
			"0.015": 1.79486398228,
			"0.016": 1.12417089052,
			"0.017": 0.409052244409,
			"0.018": 1.07701863278,
			"0.019": 0.531985340785,
			"0.02": 0.236416146924,
			"0.021": 0.0,
			"0.022": 0.0,
			"0.023": 0.0,
			"0.024": 0.0,
			"0.025": 0.0
		}
	}
}
