{
	 "smiles": "OC(=O)C1=C(N=CC=N1)C(=O)NCC1=CC=C(F)C=C1", 
	 "Tm": 444.15, 
	 "num_atms": 30, 
	 "gaussian": { 
		 "optdone": 1, 
		 "sigma_profile": "yes", 
		 "theory": "DFT", 
		 "functional": "B3LYP", 
		 "basiset": "6-31G**", 
		 "properties": { 
			 "R2extent": 7021.164, 
			 "electric_dipole_moment_norm": 4.82741756636, 
			 "electric_quadrupole_moment_norm": 30.1257115466, 
			 "total_energy": -991.174706532, 
			 "HOMO_LUMO_gap": 0.14979, 
			 "cosmo_polarized_energy": -21.76, 
			 "cosmo_cavitation_energy": 36.85, 
			 "cosmo_dispersion_energy": -25.34, 
			 "cosmo_repulsion_energy": 1.93, 
			 "cosmo_total_nonelectrostatic_energy": 13.43, 
			 "SMD_solvation_energy": 6.46 
		},
		"coords": [
			{
				"x": 0.6347762708,
				"y": 0.213636732,
				"z": 4.281254518,
				"element": "O" 
			},
			{
				"x": -0.0617419145,
				"y": -0.0913308912,
				"z": 3.1785709345,
				"element": "C" 
			},
			{
				"x": -0.5122212857,
				"y": -1.1932038546,
				"z": 2.9607200678,
				"element": "O" 
			},
			{
				"x": -0.2015523975,
				"y": 1.0538973698,
				"z": 2.2075280107,
				"element": "C" 
			},
			{
				"x": -0.9852170475,
				"y": 0.9650769938,
				"z": 1.0439133361,
				"element": "C" 
			},
			{
				"x": -0.9699737113,
				"y": 1.9534844685,
				"z": 0.1368798841,
				"element": "N" 
			},
			{
				"x": -0.2284873684,
				"y": 3.0296742613,
				"z": 0.4142738283,
				"element": "C" 
			},
			{
				"x": 0.4935920245,
				"y": 3.1470117603,
				"z": 1.6046371161,
				"element": "C" 
			},
			{
				"x": 0.5169486873,
				"y": 2.1480174769,
				"z": 2.48873186,
				"element": "N" 
			},
			{
				"x": -2.04384933,
				"y": -0.1070866956,
				"z": 0.8287591066,
				"element": "C" 
			},
			{
				"x": -3.1270185907,
				"y": 0.0625498102,
				"z": 1.3693525514,
				"element": "O" 
			},
			{
				"x": -1.77030207,
				"y": -1.1182684393,
				"z": -0.03261499,
				"element": "N" 
			},
			{
				"x": -0.4656877089,
				"y": -1.5063685399,
				"z": -0.5513944659,
				"element": "C" 
			},
			{
				"x": -0.4265207035,
				"y": -1.5762348175,
				"z": -2.0668696667,
				"element": "C" 
			},
			{
				"x": 0.0701287613,
				"y": -2.7116055108,
				"z": -2.7148537648,
				"element": "C" 
			},
			{
				"x": 0.1354739078,
				"y": -2.7753386348,
				"z": -4.1083437886,
				"element": "C" 
			},
			{
				"x": -0.3096982437,
				"y": -1.6842510188,
				"z": -4.8431629766,
				"element": "C" 
			},
			{
				"x": -0.255840319,
				"y": -1.7347161532,
				"z": -6.1904673004,
				"element": "F" 
			},
			{
				"x": -0.8136920046,
				"y": -0.5398908769,
				"z": -4.2312036312,
				"element": "C" 
			},
			{
				"x": -0.8689282498,
				"y": -0.4927688454,
				"z": -2.8401973832,
				"element": "C" 
			},
			{
				"x": 0.9251396667,
				"y": 1.143479066,
				"z": 4.1872506008,
				"element": "H" 
			},
			{
				"x": -0.2112986959,
				"y": 3.8225886051,
				"z": -0.3295889309,
				"element": "H" 
			},
			{
				"x": 1.0646436677,
				"y": 4.0412438403,
				"z": 1.8390829787,
				"element": "H" 
			},
			{
				"x": -2.538606658,
				"y": -1.7670752213,
				"z": -0.153839169,
				"element": "H" 
			},
			{
				"x": -0.1682984185,
				"y": -2.4702423724,
				"z": -0.1213283184,
				"element": "H" 
			},
			{
				"x": 0.2617837984,
				"y": -0.7735741118,
				"z": -0.1889320978,
				"element": "H" 
			},
			{
				"x": 0.4109810788,
				"y": -3.560683498,
				"z": -2.1276780052,
				"element": "H" 
			},
			{
				"x": 0.5155429744,
				"y": -3.6512001614,
				"z": -4.6227951463,
				"element": "H" 
			},
			{
				"x": -1.1527262982,
				"y": 0.2886922629,
				"z": -4.8437186277,
				"element": "H" 
			},
			{
				"x": -1.2611498218,
				"y": 0.3911869958,
				"z": -2.3448665304,
				"element": "H" 
			}
		],
		 "valence_orbital": [ 
			{
				"type": "occ",
				"energy": -0.27979,
				"method": "rhf"
			},
			{
				"type": "occ",
				"energy": -0.26845,
				"method": "rhf"
			},
			{
				"type": "occ",
				"energy": -0.26331,
				"method": "rhf"
			},
			{
				"type": "occ",
				"energy": -0.25696,
				"method": "rhf"
			},
			{
				"type": "occ",
				"energy": -0.24298,
				"method": "rhf"
			},
			{
				"type": "unocc",
				"energy": -0.09319,
				"method": "rhf"
			},
			{
				"type": "unocc",
				"energy": -0.0707,
				"method": "rhf"
			},
			{
				"type": "unocc",
				"energy": -0.01814,
				"method": "rhf"
			},
			{
				"type": "unocc",
				"energy": -0.00826,
				"method": "rhf"
			},
			{
				"type": "unocc",
				"energy": 0.01767,
				"method": "rhf"
			}
		],
		"cosmo_sigma_profile": { 
			"-0.025": 0.0,
			"-0.024": 0.0,
			"-0.023": 0.0,
			"-0.022": 0.0,
			"-0.021": 0.0,
			"-0.02": 0.0,
			"-0.019": 0.0,
			"-0.018": 0.0,
			"-0.017": 0.0,
			"-0.016": 0.0,
			"-0.015": 0.198748388413,
			"-0.014": 1.69297807034,
			"-0.013": 1.30873400142,
			"-0.012": 1.56050646896,
			"-0.011": 2.37197423296,
			"-0.01": 2.13866177161,
			"-0.009": 7.24218879549,
			"-0.008": 7.83798133674,
			"-0.007": 14.4613236689,
			"-0.006": 18.6456717908,
			"-0.005": 18.2467201242,
			"-0.004": 18.5647908492,
			"-0.003": 18.0335437046,
			"-0.002": 16.4566211382,
			"-0.001": 13.5216013587,
			"0.0": 15.0189692396,
			"0.001": 19.7730959644,
			"0.002": 17.7126345847,
			"0.003": 18.3924774726,
			"0.004": 24.750263572,
			"0.005": 10.0000850575,
			"0.006": 5.5007046276,
			"0.007": 5.8447966212,
			"0.008": 5.59271000939,
			"0.009": 7.53968570212,
			"0.01": 6.35071388977,
			"0.011": 5.00974886133,
			"0.012": 6.44135163957,
			"0.013": 5.28772467546,
			"0.014": 0.595099139322,
			"0.015": 0.0,
			"0.016": 0.0,
			"0.017": 0.0,
			"0.018": 0.0,
			"0.019": 0.0,
			"0.02": 0.0,
			"0.021": 0.0,
			"0.022": 0.0,
			"0.023": 0.0,
			"0.024": 0.0,
			"0.025": 0.0
		}
	}
}
