{
	 "smiles": "CCC(=O)OCC(C)C", 
	 "Tm": 201.75, 
	 "num_atms": 23, 
	 "gaussian": { 
		 "optdone": 1, 
		 "sigma_profile": "yes", 
		 "theory": "DFT", 
		 "functional": "B3LYP", 
		 "basiset": "6-31G**", 
		 "properties": { 
			 "R2extent": 2254.4237, 
			 "electric_dipole_moment_norm": 1.8983934471, 
			 "electric_quadrupole_moment_norm": 8.50468532869, 
			 "total_energy": -425.662289607, 
			 "HOMO_LUMO_gap": 0.284, 
			 "cosmo_polarized_energy": -6.21, 
			 "cosmo_cavitation_energy": 25.63, 
			 "cosmo_dispersion_energy": -18.29, 
			 "cosmo_repulsion_energy": 1.55, 
			 "cosmo_total_nonelectrostatic_energy": 8.9, 
			 "SMD_solvation_energy": 5.54 
		},
		"coords": [
			{
				"x": 0.7925857728,
				"y": -1.057595271,
				"z": 2.6678711617,
				"element": "C" 
			},
			{
				"x": 0.3557308148,
				"y": -0.0428953909,
				"z": 1.6137368374,
				"element": "C" 
			},
			{
				"x": -0.4503342938,
				"y": -0.6697757728,
				"z": 0.4917643494,
				"element": "C" 
			},
			{
				"x": -0.7400780166,
				"y": -1.8435657214,
				"z": 0.4022258284,
				"element": "O" 
			},
			{
				"x": -0.8163049333,
				"y": 0.2622699234,
				"z": -0.4178626129,
				"element": "O" 
			},
			{
				"x": -1.5918731382,
				"y": -0.2154124456,
				"z": -1.5391324567,
				"element": "C" 
			},
			{
				"x": -1.8721542132,
				"y": 0.9630793898,
				"z": -2.4680855534,
				"element": "C" 
			},
			{
				"x": -0.5757566114,
				"y": 1.5685658233,
				"z": -3.0231376257,
				"element": "C" 
			},
			{
				"x": -2.8136291884,
				"y": 0.5147188519,
				"z": -3.5954829518,
				"element": "C" 
			},
			{
				"x": 1.4116783693,
				"y": -1.8414558942,
				"z": 2.22383211,
				"element": "H" 
			},
			{
				"x": -0.0728152707,
				"y": -1.5452613251,
				"z": 3.1240902306,
				"element": "H" 
			},
			{
				"x": 1.3691983631,
				"y": -0.5663305219,
				"z": 3.4569882255,
				"element": "H" 
			},
			{
				"x": -0.2531755561,
				"y": 0.7567529658,
				"z": 2.0533189153,
				"element": "H" 
			},
			{
				"x": 1.2174860887,
				"y": 0.4632166115,
				"z": 1.1613440692,
				"element": "H" 
			},
			{
				"x": -1.0303827999,
				"y": -1.0059007975,
				"z": -2.051102,
				"element": "H" 
			},
			{
				"x": -2.5188839819,
				"y": -0.6615914164,
				"z": -1.1630659885,
				"element": "H" 
			},
			{
				"x": -2.3857595773,
				"y": 1.7305920925,
				"z": -1.8725704373,
				"element": "H" 
			},
			{
				"x": -0.0384082695,
				"y": 0.8383468778,
				"z": -3.6408920571,
				"element": "H" 
			},
			{
				"x": -0.7890280764,
				"y": 2.4411009844,
				"z": -3.649290799,
				"element": "H" 
			},
			{
				"x": 0.0901883301,
				"y": 1.8821454355,
				"z": -2.2150112124,
				"element": "H" 
			},
			{
				"x": -3.7561273847,
				"y": 0.1178655488,
				"z": -3.2028574502,
				"element": "H" 
			},
			{
				"x": -3.0533696101,
				"y": 1.3533718308,
				"z": -4.2566249353,
				"element": "H" 
			},
			{
				"x": -2.3502868175,
				"y": -0.2673417786,
				"z": -4.2089556471,
				"element": "H" 
			}
		],
		 "valence_orbital": [ 
			{
				"type": "occ",
				"energy": -0.33982,
				"method": "rhf"
			},
			{
				"type": "occ",
				"energy": -0.33294,
				"method": "rhf"
			},
			{
				"type": "occ",
				"energy": -0.32741,
				"method": "rhf"
			},
			{
				"type": "occ",
				"energy": -0.29445,
				"method": "rhf"
			},
			{
				"type": "occ",
				"energy": -0.26593,
				"method": "rhf"
			},
			{
				"type": "unocc",
				"energy": 0.01807,
				"method": "rhf"
			},
			{
				"type": "unocc",
				"energy": 0.08451,
				"method": "rhf"
			},
			{
				"type": "unocc",
				"energy": 0.10213,
				"method": "rhf"
			},
			{
				"type": "unocc",
				"energy": 0.11942,
				"method": "rhf"
			},
			{
				"type": "unocc",
				"energy": 0.12814,
				"method": "rhf"
			}
		],
		"cosmo_sigma_profile": { 
			"-0.025": 0.0,
			"-0.024": 0.0,
			"-0.023": 0.0,
			"-0.022": 0.0,
			"-0.021": 0.0,
			"-0.02": 0.0,
			"-0.019": 0.0,
			"-0.018": 0.0,
			"-0.017": 0.0,
			"-0.016": 0.0,
			"-0.015": 0.0,
			"-0.014": 0.0,
			"-0.013": 0.0,
			"-0.012": 0.0,
			"-0.011": 0.0,
			"-0.01": 0.0,
			"-0.009": 0.0,
			"-0.008": 0.0,
			"-0.007": 0.0,
			"-0.006": 1.36430994774,
			"-0.005": 6.66067464933,
			"-0.004": 14.591356613,
			"-0.003": 28.385256084,
			"-0.002": 33.5670376452,
			"-0.001": 26.2526001709,
			"0.0": 22.5337627123,
			"0.001": 24.8881128898,
			"0.002": 8.96109213992,
			"0.003": 4.51742627563,
			"0.004": 3.18520685358,
			"0.005": 3.40418068917,
			"0.006": 2.91133860436,
			"0.007": 2.43826565003,
			"0.008": 2.1724865448,
			"0.009": 1.72583493547,
			"0.01": 2.13979252911,
			"0.011": 2.05147499776,
			"0.012": 4.79629675144,
			"0.013": 2.00322936553,
			"0.014": 0.00758303400689,
			"0.015": 0.0,
			"0.016": 0.0,
			"0.017": 0.0,
			"0.018": 0.0,
			"0.019": 0.0,
			"0.02": 0.0,
			"0.021": 0.0,
			"0.022": 0.0,
			"0.023": 0.0,
			"0.024": 0.0,
			"0.025": 0.0
		}
	}
}
