{
	 "smiles": "CC1CCC2=CC=C(CCC(C)=O)C=C2N1C(=O)C1=CC=CC=C1", 
	 "Tm": 347.15, 
	 "num_atms": 47, 
	 "gaussian": { 
		 "optdone": 1, 
		 "sigma_profile": "yes", 
		 "theory": "DFT", 
		 "functional": "B3LYP", 
		 "basiset": "6-31G**", 
		 "properties": { 
			 "R2extent": 8867.459, 
			 "electric_dipole_moment_norm": 1.58671217617, 
			 "electric_quadrupole_moment_norm": 24.1270703491, 
			 "total_energy": -1019.33194644, 
			 "HOMO_LUMO_gap": 0.17296, 
			 "cosmo_polarized_energy": -15.05, 
			 "cosmo_cavitation_energy": 48.2, 
			 "cosmo_dispersion_energy": -31.83, 
			 "cosmo_repulsion_energy": 2.47, 
			 "cosmo_total_nonelectrostatic_energy": 18.85, 
			 "SMD_solvation_energy": 8.54 
		},
		"coords": [
			{
				"x": -0.7095155899,
				"y": 3.5209019082,
				"z": 0.6070935878,
				"element": "C" 
			},
			{
				"x": 0.589014707,
				"y": 3.0993741643,
				"z": -0.0896177283,
				"element": "C" 
			},
			{
				"x": 0.7117220614,
				"y": 3.5675072246,
				"z": -1.5479810315,
				"element": "C" 
			},
			{
				"x": -0.3472735501,
				"y": 2.916176079,
				"z": -2.4471224093,
				"element": "C" 
			},
			{
				"x": -0.6339063995,
				"y": 1.4712777267,
				"z": -2.0846771019,
				"element": "C" 
			},
			{
				"x": -1.4964713217,
				"y": 0.7102220992,
				"z": -2.8828803345,
				"element": "C" 
			},
			{
				"x": -1.8579511806,
				"y": -0.5911420598,
				"z": -2.5506937513,
				"element": "C" 
			},
			{
				"x": -1.3809800621,
				"y": -1.1665278471,
				"z": -1.3638611084,
				"element": "C" 
			},
			{
				"x": -1.8047019025,
				"y": -2.5574729572,
				"z": -0.9333268191,
				"element": "C" 
			},
			{
				"x": -3.0923915745,
				"y": -2.576877544,
				"z": -0.0899112425,
				"element": "C" 
			},
			{
				"x": -4.3776202289,
				"y": -2.402839512,
				"z": -0.8946868574,
				"element": "C" 
			},
			{
				"x": -5.6239325414,
				"y": -2.0499577323,
				"z": -0.1032522506,
				"element": "C" 
			},
			{
				"x": -4.4122781626,
				"y": -2.5574557142,
				"z": -2.1017609039,
				"element": "O" 
			},
			{
				"x": -0.5286899914,
				"y": -0.414193345,
				"z": -0.5540248219,
				"element": "C" 
			},
			{
				"x": -0.1131687128,
				"y": 0.8781684235,
				"z": -0.9165913991,
				"element": "C" 
			},
			{
				"x": 0.7667288759,
				"y": 1.6281744212,
				"z": -0.0858104273,
				"element": "N" 
			},
			{
				"x": 1.7247290203,
				"y": 1.1114464979,
				"z": 0.7799132789,
				"element": "C" 
			},
			{
				"x": 2.1319229109,
				"y": 1.7728365111,
				"z": 1.7331956991,
				"element": "O" 
			},
			{
				"x": 2.3500379665,
				"y": -0.2270151103,
				"z": 0.495711969,
				"element": "C" 
			},
			{
				"x": 2.6418043365,
				"y": -0.6710339436,
				"z": -0.8018489551,
				"element": "C" 
			},
			{
				"x": 3.3365674024,
				"y": -1.8644601539,
				"z": -0.9948866887,
				"element": "C" 
			},
			{
				"x": 3.7342748299,
				"y": -2.631243676,
				"z": 0.1028452473,
				"element": "C" 
			},
			{
				"x": 3.4540692304,
				"y": -2.1893754064,
				"z": 1.3981512837,
				"element": "C" 
			},
			{
				"x": 2.7796871583,
				"y": -0.9855286106,
				"z": 1.593379464,
				"element": "C" 
			},
			{
				"x": -0.6901315284,
				"y": 3.1995492756,
				"z": 1.6519352357,
				"element": "H" 
			},
			{
				"x": -1.5931285646,
				"y": 3.085767071,
				"z": 0.1305738856,
				"element": "H" 
			},
			{
				"x": -0.8127923372,
				"y": 4.6110979639,
				"z": 0.5858510089,
				"element": "H" 
			},
			{
				"x": 1.4262300004,
				"y": 3.4923940818,
				"z": 0.4874633388,
				"element": "H" 
			},
			{
				"x": 0.6324572688,
				"y": 4.6592564761,
				"z": -1.5963673138,
				"element": "H" 
			},
			{
				"x": 1.7159097487,
				"y": 3.3046981335,
				"z": -1.9001903074,
				"element": "H" 
			},
			{
				"x": -0.0433869863,
				"y": 2.9867744675,
				"z": -3.4983774354,
				"element": "H" 
			},
			{
				"x": -1.2885543155,
				"y": 3.4779799109,
				"z": -2.3745134884,
				"element": "H" 
			},
			{
				"x": -1.8940185676,
				"y": 1.1599018391,
				"z": -3.790337878,
				"element": "H" 
			},
			{
				"x": -2.5306815304,
				"y": -1.1564749979,
				"z": -3.186874594,
				"element": "H" 
			},
			{
				"x": -0.9998897043,
				"y": -3.0144434282,
				"z": -0.3478641302,
				"element": "H" 
			},
			{
				"x": -1.9649525892,
				"y": -3.1863032418,
				"z": -1.8141941366,
				"element": "H" 
			},
			{
				"x": -3.0562171198,
				"y": -1.8231035738,
				"z": 0.7066208495,
				"element": "H" 
			},
			{
				"x": -3.1891274774,
				"y": -3.5447192715,
				"z": 0.4258846038,
				"element": "H" 
			},
			{
				"x": -6.5079287333,
				"y": -2.1521113498,
				"z": -0.7342747086,
				"element": "H" 
			},
			{
				"x": -5.721282604,
				"y": -2.6794770468,
				"z": 0.7880777875,
				"element": "H" 
			},
			{
				"x": -5.5496244978,
				"y": -1.0126066407,
				"z": 0.2457728497,
				"element": "H" 
			},
			{
				"x": -0.1696812383,
				"y": -0.8424140118,
				"z": 0.3754186187,
				"element": "H" 
			},
			{
				"x": 2.3333233465,
				"y": -0.0809066332,
				"z": -1.6580617795,
				"element": "H" 
			},
			{
				"x": 3.5678005007,
				"y": -2.1956932284,
				"z": -2.0031334349,
				"element": "H" 
			},
			{
				"x": 4.2679893625,
				"y": -3.5649083964,
				"z": -0.050836695,
				"element": "H" 
			},
			{
				"x": 3.7716821197,
				"y": -2.776595891,
				"z": 2.2550103386,
				"element": "H" 
			},
			{
				"x": 2.5864281651,
				"y": -0.6092229517,
				"z": 2.592460686,
				"element": "H" 
			}
		],
		 "valence_orbital": [ 
			{
				"type": "occ",
				"energy": -0.25498,
				"method": "rhf"
			},
			{
				"type": "occ",
				"energy": -0.24937,
				"method": "rhf"
			},
			{
				"type": "occ",
				"energy": -0.24103,
				"method": "rhf"
			},
			{
				"type": "occ",
				"energy": -0.23319,
				"method": "rhf"
			},
			{
				"type": "occ",
				"energy": -0.20855,
				"method": "rhf"
			},
			{
				"type": "unocc",
				"energy": -0.03559,
				"method": "rhf"
			},
			{
				"type": "unocc",
				"energy": -0.01546,
				"method": "rhf"
			},
			{
				"type": "unocc",
				"energy": -0.00893,
				"method": "rhf"
			},
			{
				"type": "unocc",
				"energy": 0.00166,
				"method": "rhf"
			},
			{
				"type": "unocc",
				"energy": 0.00779,
				"method": "rhf"
			}
		],
		"cosmo_sigma_profile": { 
			"-0.025": 0.0,
			"-0.024": 0.0,
			"-0.023": 0.0,
			"-0.022": 0.0,
			"-0.021": 0.0,
			"-0.02": 0.0,
			"-0.019": 0.0,
			"-0.018": 0.0,
			"-0.017": 0.0,
			"-0.016": 0.0,
			"-0.015": 0.0,
			"-0.014": 0.0,
			"-0.013": 0.0,
			"-0.012": 0.0,
			"-0.011": 0.0,
			"-0.01": 0.0,
			"-0.009": 0.0,
			"-0.008": 0.0,
			"-0.007": 0.907681112097,
			"-0.006": 14.2468628517,
			"-0.005": 23.5561882715,
			"-0.004": 37.069735533,
			"-0.003": 49.7497992995,
			"-0.002": 49.6741537864,
			"-0.001": 39.0723465865,
			"0.0": 33.4559121205,
			"0.001": 20.6689321785,
			"0.002": 18.4595467894,
			"0.003": 16.8520117606,
			"0.004": 20.7185082515,
			"0.005": 17.2143293901,
			"0.006": 7.75012145853,
			"0.007": 3.95933412196,
			"0.008": 3.08902924878,
			"0.009": 3.05910231098,
			"0.01": 3.640609411,
			"0.011": 3.95655106373,
			"0.012": 5.26988154247,
			"0.013": 5.56475886062,
			"0.014": 1.90934791516,
			"0.015": 0.017709299682,
			"0.016": 0.0,
			"0.017": 0.0,
			"0.018": 0.0,
			"0.019": 0.0,
			"0.02": 0.0,
			"0.021": 0.0,
			"0.022": 0.0,
			"0.023": 0.0,
			"0.024": 0.0,
			"0.025": 0.0
		}
	}
}
