{
	 "smiles": "O=C=NC1=CC=C(CC2=CC=C(C=C2)N=C=O)C=C1", 
	 "Tm": 310.75, 
	 "num_atms": 29, 
	 "gaussian": { 
		 "optdone": 1, 
		 "sigma_profile": "yes", 
		 "theory": "DFT", 
		 "functional": "B3LYP", 
		 "basiset": "6-31G**", 
		 "properties": { 
			 "R2extent": 8508.3798, 
			 "electric_dipole_moment_norm": 2.73521009979, 
			 "electric_quadrupole_moment_norm": 27.1701356103, 
			 "total_energy": -837.58103261, 
			 "HOMO_LUMO_gap": 0.19993, 
			 "cosmo_polarized_energy": -9.02, 
			 "cosmo_cavitation_energy": 37.11, 
			 "cosmo_dispersion_energy": -25.42, 
			 "cosmo_repulsion_energy": 1.97, 
			 "cosmo_total_nonelectrostatic_energy": 13.66, 
			 "SMD_solvation_energy": 10.69 
		},
		"coords": [
			{
				"x": 3.9380437167,
				"y": 2.6558882001,
				"z": -4.7809908134,
				"element": "O" 
			},
			{
				"x": 3.0205046972,
				"y": 2.5263120307,
				"z": -4.0520474705,
				"element": "C" 
			},
			{
				"x": 2.0808795902,
				"y": 2.5372845691,
				"z": -3.2909208667,
				"element": "N" 
			},
			{
				"x": 1.1931343221,
				"y": 1.6597065752,
				"z": -2.6614776488,
				"element": "C" 
			},
			{
				"x": 1.2566850805,
				"y": 0.2733438367,
				"z": -2.8508783176,
				"element": "C" 
			},
			{
				"x": 0.3464060905,
				"y": -0.5562114498,
				"z": -2.1981567539,
				"element": "C" 
			},
			{
				"x": -0.6388383774,
				"y": -0.0349352564,
				"z": -1.3511729694,
				"element": "C" 
			},
			{
				"x": -1.6420739203,
				"y": -0.9451568457,
				"z": -0.6624086808,
				"element": "C" 
			},
			{
				"x": -1.6917418187,
				"y": -0.8026425852,
				"z": 0.8496635455,
				"element": "C" 
			},
			{
				"x": -2.892150978,
				"y": -0.5197584272,
				"z": 1.5104232751,
				"element": "C" 
			},
			{
				"x": -2.9477374838,
				"y": -0.4092798708,
				"z": 2.899431446,
				"element": "C" 
			},
			{
				"x": -1.7865399893,
				"y": -0.5820233863,
				"z": 3.6581010053,
				"element": "C" 
			},
			{
				"x": -0.5726011672,
				"y": -0.8643143734,
				"z": 3.0113472734,
				"element": "C" 
			},
			{
				"x": -0.5344067509,
				"y": -0.9697054638,
				"z": 1.6258108057,
				"element": "C" 
			},
			{
				"x": -1.8750870885,
				"y": -0.4645832884,
				"z": 5.048340601,
				"element": "N" 
			},
			{
				"x": -1.1786834086,
				"y": -0.5301062887,
				"z": 6.0349009106,
				"element": "C" 
			},
			{
				"x": -0.6168442991,
				"y": -0.5657987435,
				"z": 7.0707705882,
				"element": "O" 
			},
			{
				"x": -0.6854090406,
				"y": 1.3552827237,
				"z": -1.1703898295,
				"element": "C" 
			},
			{
				"x": 0.21427383,
				"y": 2.1973054855,
				"z": -1.8152020586,
				"element": "C" 
			},
			{
				"x": 2.0150157475,
				"y": -0.1484004446,
				"z": -3.5039405621,
				"element": "H" 
			},
			{
				"x": 0.4041961734,
				"y": -1.6303262944,
				"z": -2.3555855424,
				"element": "H" 
			},
			{
				"x": -1.408247361,
				"y": -1.9851933694,
				"z": -0.9224668872,
				"element": "H" 
			},
			{
				"x": -2.6443240639,
				"y": -0.7530910082,
				"z": -1.0654767716,
				"element": "H" 
			},
			{
				"x": -3.8028347475,
				"y": -0.3857861057,
				"z": 0.9322421912,
				"element": "H" 
			},
			{
				"x": -3.8817407174,
				"y": -0.1890106963,
				"z": 3.4051695282,
				"element": "H" 
			},
			{
				"x": 0.3314142668,
				"y": -0.997587997,
				"z": 3.598350988,
				"element": "H" 
			},
			{
				"x": 0.412705047,
				"y": -1.1792276869,
				"z": 1.1359771214,
				"element": "H" 
			},
			{
				"x": -1.4340293922,
				"y": 1.783682645,
				"z": -0.5096089922,
				"element": "H" 
			},
			{
				"x": 0.1733320427,
				"y": 3.2720335158,
				"z": -1.6735051149,
				"element": "H" 
			}
		],
		 "valence_orbital": [ 
			{
				"type": "occ",
				"energy": -0.30862,
				"method": "rhf"
			},
			{
				"type": "occ",
				"energy": -0.26715,
				"method": "rhf"
			},
			{
				"type": "occ",
				"energy": -0.26507,
				"method": "rhf"
			},
			{
				"type": "occ",
				"energy": -0.24064,
				"method": "rhf"
			},
			{
				"type": "occ",
				"energy": -0.23017,
				"method": "rhf"
			},
			{
				"type": "unocc",
				"energy": -0.03024,
				"method": "rhf"
			},
			{
				"type": "unocc",
				"energy": -0.02594,
				"method": "rhf"
			},
			{
				"type": "unocc",
				"energy": -0.01953,
				"method": "rhf"
			},
			{
				"type": "unocc",
				"energy": -0.01044,
				"method": "rhf"
			},
			{
				"type": "unocc",
				"energy": 0.01096,
				"method": "rhf"
			}
		],
		"cosmo_sigma_profile": { 
			"-0.025": 0.0,
			"-0.024": 0.0,
			"-0.023": 0.0,
			"-0.022": 0.0,
			"-0.021": 0.0,
			"-0.02": 0.0,
			"-0.019": 0.0,
			"-0.018": 0.0,
			"-0.017": 0.0,
			"-0.016": 0.0,
			"-0.015": 0.0,
			"-0.014": 0.0,
			"-0.013": 0.0,
			"-0.012": 0.0,
			"-0.011": 0.0,
			"-0.01": 0.0,
			"-0.009": 0.000246303889697,
			"-0.008": 2.48259204267,
			"-0.007": 6.67185484073,
			"-0.006": 16.5160132483,
			"-0.005": 21.2811639962,
			"-0.004": 24.6132877183,
			"-0.003": 23.8413625728,
			"-0.002": 26.5733041631,
			"-0.001": 20.4292981558,
			"0.0": 19.8085896065,
			"0.001": 20.5286936713,
			"0.002": 24.9656202677,
			"0.003": 24.3089604514,
			"0.004": 27.3499754588,
			"0.005": 15.0733167995,
			"0.006": 5.51602065072,
			"0.007": 12.3525349527,
			"0.008": 8.06222797461,
			"0.009": 0.0,
			"0.01": 0.0,
			"0.011": 0.0,
			"0.012": 0.0,
			"0.013": 0.0,
			"0.014": 0.0,
			"0.015": 0.0,
			"0.016": 0.0,
			"0.017": 0.0,
			"0.018": 0.0,
			"0.019": 0.0,
			"0.02": 0.0,
			"0.021": 0.0,
			"0.022": 0.0,
			"0.023": 0.0,
			"0.024": 0.0,
			"0.025": 0.0
		}
	}
}
