{
	 "smiles": "NC(=O)C1=C(SC2=CC=C(C=C2)C(O)=O)N=CC=C1", 
	 "Tm": 531.15, 
	 "num_atms": 29, 
	 "gaussian": { 
		 "optdone": 1, 
		 "sigma_profile": "yes", 
		 "theory": "DFT", 
		 "functional": "B3LYP", 
		 "basiset": "6-31G**", 
		 "properties": { 
			 "R2extent": 7065.6717, 
			 "electric_dipole_moment_norm": 5.31574062196, 
			 "electric_quadrupole_moment_norm": 24.2974813689, 
			 "total_energy": -1234.79224159, 
			 "HOMO_LUMO_gap": 0.17434, 
			 "cosmo_polarized_energy": -23.19, 
			 "cosmo_cavitation_energy": 36.66, 
			 "cosmo_dispersion_energy": -26.14, 
			 "cosmo_repulsion_energy": 2.0, 
			 "cosmo_total_nonelectrostatic_energy": 12.52, 
			 "SMD_solvation_energy": 6.37 
		},
		"coords": [
			{
				"x": -3.2858766492,
				"y": -1.6979098029,
				"z": -0.6593226339,
				"element": "N" 
			},
			{
				"x": -2.0447829713,
				"y": -1.1478321861,
				"z": -0.821371903,
				"element": "C" 
			},
			{
				"x": -1.8377369323,
				"y": -0.1721981398,
				"z": -1.5285701115,
				"element": "O" 
			},
			{
				"x": -0.9247673656,
				"y": -1.9035961674,
				"z": -0.1461981856,
				"element": "C" 
			},
			{
				"x": -0.0960891576,
				"y": -1.3237890043,
				"z": 0.8332176901,
				"element": "C" 
			},
			{
				"x": -0.5500583,
				"y": 0.2542979864,
				"z": 1.5884233682,
				"element": "S" 
			},
			{
				"x": 0.7397308411,
				"y": 1.3309738248,
				"z": 0.9525602818,
				"element": "C" 
			},
			{
				"x": 1.557977454,
				"y": 2.014124963,
				"z": 1.8601428062,
				"element": "C" 
			},
			{
				"x": 2.52421705,
				"y": 2.9022062086,
				"z": 1.3922194022,
				"element": "C" 
			},
			{
				"x": 2.6871548907,
				"y": 3.0977000526,
				"z": 0.0144472608,
				"element": "C" 
			},
			{
				"x": 1.8650002805,
				"y": 2.4080799016,
				"z": -0.8889948111,
				"element": "C" 
			},
			{
				"x": 0.8849965467,
				"y": 1.5359303046,
				"z": -0.4279064595,
				"element": "C" 
			},
			{
				"x": 3.7098058768,
				"y": 4.0224874453,
				"z": -0.5382640542,
				"element": "C" 
			},
			{
				"x": 4.4425528416,
				"y": 4.6437418392,
				"z": 0.4219716604,
				"element": "O" 
			},
			{
				"x": 3.8990109079,
				"y": 4.2264907365,
				"z": -1.7217462195,
				"element": "O" 
			},
			{
				"x": 0.9894716398,
				"y": -1.9304424232,
				"z": 1.3169793449,
				"element": "N" 
			},
			{
				"x": 1.3003367557,
				"y": -3.1449530612,
				"z": 0.8528502977,
				"element": "C" 
			},
			{
				"x": 0.5205814622,
				"y": -3.8320975941,
				"z": -0.0783030414,
				"element": "C" 
			},
			{
				"x": -0.6110162797,
				"y": -3.1972334783,
				"z": -0.5814572574,
				"element": "C" 
			},
			{
				"x": -4.0685671752,
				"y": -1.18647674,
				"z": -1.0425160554,
				"element": "H" 
			},
			{
				"x": -3.4656617155,
				"y": -2.3550074081,
				"z": 0.0837946279,
				"element": "H" 
			},
			{
				"x": 1.4428154706,
				"y": 1.8402404761,
				"z": 2.9247780199,
				"element": "H" 
			},
			{
				"x": 3.1613317538,
				"y": 3.4333635306,
				"z": 2.0901496507,
				"element": "H" 
			},
			{
				"x": 2.0008046099,
				"y": 2.5813900353,
				"z": -1.9512910792,
				"element": "H" 
			},
			{
				"x": 0.2223210424,
				"y": 1.023914335,
				"z": -1.1190104332,
				"element": "H" 
			},
			{
				"x": 5.067951127,
				"y": 5.2129301777,
				"z": -0.0554653671,
				"element": "H" 
			},
			{
				"x": 2.2065931823,
				"y": -3.5923503876,
				"z": 1.2562784888,
				"element": "H" 
			},
			{
				"x": 0.7992310654,
				"y": -4.8289127585,
				"z": -0.4041382847,
				"element": "H" 
			},
			{
				"x": -1.2358282523,
				"y": -3.6806726659,
				"z": -1.327157003,
				"element": "H" 
			}
		],
		 "valence_orbital": [ 
			{
				"type": "occ",
				"energy": -0.27132,
				"method": "rhf"
			},
			{
				"type": "occ",
				"energy": -0.26524,
				"method": "rhf"
			},
			{
				"type": "occ",
				"energy": -0.25839,
				"method": "rhf"
			},
			{
				"type": "occ",
				"energy": -0.25508,
				"method": "rhf"
			},
			{
				"type": "occ",
				"energy": -0.22558,
				"method": "rhf"
			},
			{
				"type": "unocc",
				"energy": -0.05124,
				"method": "rhf"
			},
			{
				"type": "unocc",
				"energy": -0.04696,
				"method": "rhf"
			},
			{
				"type": "unocc",
				"energy": -0.03891,
				"method": "rhf"
			},
			{
				"type": "unocc",
				"energy": -0.00443,
				"method": "rhf"
			},
			{
				"type": "unocc",
				"energy": 0.01439,
				"method": "rhf"
			}
		],
		"cosmo_sigma_profile": { 
			"-0.025": 0.0,
			"-0.024": 0.0,
			"-0.023": 0.0,
			"-0.022": 0.0,
			"-0.021": 0.0,
			"-0.02": 0.0,
			"-0.019": 0.11385818969,
			"-0.018": 0.783361536723,
			"-0.017": 0.993768237397,
			"-0.016": 1.02492570544,
			"-0.015": 1.7395499082,
			"-0.014": 2.82648082722,
			"-0.013": 2.23236061596,
			"-0.012": 3.25928902978,
			"-0.011": 3.65257649962,
			"-0.01": 2.88151126383,
			"-0.009": 3.03678096773,
			"-0.008": 6.59652425478,
			"-0.007": 12.6367706945,
			"-0.006": 14.0117155307,
			"-0.005": 13.6029071845,
			"-0.004": 12.4740647296,
			"-0.003": 13.4059952098,
			"-0.002": 16.6203194404,
			"-0.001": 18.2075219992,
			"0.0": 23.2889589954,
			"0.001": 27.2540763259,
			"0.002": 22.6923019338,
			"0.003": 19.87239892,
			"0.004": 10.3308227253,
			"0.005": 9.54417955959,
			"0.006": 9.65036376904,
			"0.007": 7.03424266264,
			"0.008": 5.11965150771,
			"0.009": 5.36929750859,
			"0.01": 6.39738791143,
			"0.011": 7.62149548999,
			"0.012": 6.51995898162,
			"0.013": 3.29914998595,
			"0.014": 1.56308579858,
			"0.015": 0.355339787417,
			"0.016": 0.0,
			"0.017": 0.0,
			"0.018": 0.0,
			"0.019": 0.0,
			"0.02": 0.0,
			"0.021": 0.0,
			"0.022": 0.0,
			"0.023": 0.0,
			"0.024": 0.0,
			"0.025": 0.0
		}
	}
}
