{
	 "smiles": "CCC(C)(OC(N)=O)C#C", 
	 "Tm": 328.95, 
	 "num_atms": 21, 
	 "gaussian": { 
		 "optdone": 1, 
		 "sigma_profile": "yes", 
		 "theory": "DFT", 
		 "functional": "B3LYP", 
		 "basiset": "6-31G**", 
		 "properties": { 
			 "R2extent": 1654.1987, 
			 "electric_dipole_moment_norm": 2.33736701654, 
			 "electric_quadrupole_moment_norm": 9.49332641965, 
			 "total_energy": -478.527304075, 
			 "HOMO_LUMO_gap": 0.28995, 
			 "cosmo_polarized_energy": -12.62, 
			 "cosmo_cavitation_energy": 24.89, 
			 "cosmo_dispersion_energy": -17.02, 
			 "cosmo_repulsion_energy": 1.42, 
			 "cosmo_total_nonelectrostatic_energy": 9.29, 
			 "SMD_solvation_energy": 6.93 
		},
		"coords": [
			{
				"x": -0.6677323727,
				"y": 0.357883,
				"z": -1.6890598478,
				"element": "C" 
			},
			{
				"x": -0.6858682374,
				"y": -0.5100266893,
				"z": -0.4267996993,
				"element": "C" 
			},
			{
				"x": 0.6459492884,
				"y": -0.5329068096,
				"z": 0.3649747778,
				"element": "C" 
			},
			{
				"x": 1.8109447509,
				"y": -1.1002988169,
				"z": -0.4626032121,
				"element": "C" 
			},
			{
				"x": 1.0985201218,
				"y": 0.8217859874,
				"z": 0.6837682874,
				"element": "O" 
			},
			{
				"x": 0.3454639758,
				"y": 1.6055626633,
				"z": 1.5068711684,
				"element": "C" 
			},
			{
				"x": 0.9799298513,
				"y": 2.8075383399,
				"z": 1.6830103126,
				"element": "N" 
			},
			{
				"x": -0.7327803985,
				"y": 1.3157032547,
				"z": 1.984042752,
				"element": "O" 
			},
			{
				"x": 0.4973773807,
				"y": -1.3300783409,
				"z": 1.5937206218,
				"element": "C" 
			},
			{
				"x": 0.410991331,
				"y": -2.0509908536,
				"z": 2.5580190024,
				"element": "C" 
			},
			{
				"x": -1.6629550011,
				"y": 0.3700847771,
				"z": -2.1439504796,
				"element": "H" 
			},
			{
				"x": 0.0322581121,
				"y": -0.0147765189,
				"z": -2.4433874229,
				"element": "H" 
			},
			{
				"x": -0.3951400095,
				"y": 1.3917072826,
				"z": -1.4583829974,
				"element": "H" 
			},
			{
				"x": -1.467058478,
				"y": -0.165818888,
				"z": 0.2525113362,
				"element": "H" 
			},
			{
				"x": -0.917289717,
				"y": -1.5499178872,
				"z": -0.6858606082,
				"element": "H" 
			},
			{
				"x": 1.9870130537,
				"y": -0.4801240866,
				"z": -1.3443279405,
				"element": "H" 
			},
			{
				"x": 2.7222911006,
				"y": -1.1200985695,
				"z": 0.1388785047,
				"element": "H" 
			},
			{
				"x": 1.5792117858,
				"y": -2.1195754326,
				"z": -0.7812733685,
				"element": "H" 
			},
			{
				"x": 1.9598504552,
				"y": 2.8782506156,
				"z": 1.4588102433,
				"element": "H" 
			},
			{
				"x": 0.6154763795,
				"y": 3.3922842604,
				"z": 2.4177165909,
				"element": "H" 
			},
			{
				"x": 0.3111466273,
				"y": -2.661987288,
				"z": 3.4250219788,
				"element": "H" 
			}
		],
		 "valence_orbital": [ 
			{
				"type": "occ",
				"energy": -0.29685,
				"method": "rhf"
			},
			{
				"type": "occ",
				"energy": -0.28113,
				"method": "rhf"
			},
			{
				"type": "occ",
				"energy": -0.26863,
				"method": "rhf"
			},
			{
				"type": "occ",
				"energy": -0.26692,
				"method": "rhf"
			},
			{
				"type": "occ",
				"energy": -0.25417,
				"method": "rhf"
			},
			{
				"type": "unocc",
				"energy": 0.03578,
				"method": "rhf"
			},
			{
				"type": "unocc",
				"energy": 0.05428,
				"method": "rhf"
			},
			{
				"type": "unocc",
				"energy": 0.05871,
				"method": "rhf"
			},
			{
				"type": "unocc",
				"energy": 0.08638,
				"method": "rhf"
			},
			{
				"type": "unocc",
				"energy": 0.10159,
				"method": "rhf"
			}
		],
		"cosmo_sigma_profile": { 
			"-0.025": 0.0,
			"-0.024": 0.0,
			"-0.023": 0.0,
			"-0.022": 0.0,
			"-0.021": 0.0,
			"-0.02": 0.0,
			"-0.019": 0.0,
			"-0.018": 0.0,
			"-0.017": 0.0,
			"-0.016": 0.0,
			"-0.015": 0.455534589319,
			"-0.014": 2.05530735219,
			"-0.013": 2.05596459191,
			"-0.012": 2.19891471194,
			"-0.011": 3.5589786088,
			"-0.01": 3.31232002639,
			"-0.009": 2.82227169503,
			"-0.008": 2.88898877472,
			"-0.007": 2.34853059934,
			"-0.006": 2.41967306773,
			"-0.005": 7.0062498374,
			"-0.004": 11.8837989791,
			"-0.003": 14.1785247445,
			"-0.002": 17.2878508545,
			"-0.001": 22.8471697213,
			"0.0": 19.3557679015,
			"0.001": 13.2141986514,
			"0.002": 8.13946135809,
			"0.003": 8.80894850302,
			"0.004": 7.93854292467,
			"0.005": 9.32979981501,
			"0.006": 9.58731979209,
			"0.007": 4.00217376819,
			"0.008": 2.82048884396,
			"0.009": 2.05153865923,
			"0.01": 2.08476717019,
			"0.011": 2.00686535823,
			"0.012": 2.69839398397,
			"0.013": 5.51822514022,
			"0.014": 1.00015327903,
			"0.015": 0.0,
			"0.016": 0.0,
			"0.017": 0.0,
			"0.018": 0.0,
			"0.019": 0.0,
			"0.02": 0.0,
			"0.021": 0.0,
			"0.022": 0.0,
			"0.023": 0.0,
			"0.024": 0.0,
			"0.025": 0.0
		}
	}
}
