{
	 "smiles": "CC1=C(Br)C=C(Br)C(N)=C1Br", 
	 "Tm": 374.15, 
	 "num_atms": 17, 
	 "gaussian": { 
		 "optdone": 1, 
		 "sigma_profile": "yes", 
		 "theory": "DFT", 
		 "functional": "B3LYP", 
		 "basiset": "6-31G**", 
		 "properties": { 
			 "R2extent": 6557.8881, 
			 "electric_dipole_moment_norm": 1.80438007637, 
			 "electric_quadrupole_moment_norm": 7.77446440084, 
			 "total_energy": -8039.33459708, 
			 "HOMO_LUMO_gap": 0.1804, 
			 "cosmo_polarized_energy": -5.47, 
			 "cosmo_cavitation_energy": 26.78, 
			 "cosmo_dispersion_energy": -21.35, 
			 "cosmo_repulsion_energy": 1.7, 
			 "cosmo_total_nonelectrostatic_energy": 7.12, 
			 "SMD_solvation_energy": 1.36 
		},
		"coords": [
			{
				"x": -1.4788728438,
				"y": -2.8407268164,
				"z": 0.4024411024,
				"element": "C" 
			},
			{
				"x": -0.5142928894,
				"y": -1.9432648291,
				"z": -0.3274598276,
				"element": "C" 
			},
			{
				"x": -0.9188290734,
				"y": -1.014269038,
				"z": -1.2992794777,
				"element": "C" 
			},
			{
				"x": -2.7602445624,
				"y": -0.8067579871,
				"z": -1.7937917974,
				"element": "Br" 
			},
			{
				"x": -0.004073275,
				"y": -0.1931070903,
				"z": -1.9537141982,
				"element": "C" 
			},
			{
				"x": 1.3442240738,
				"y": -0.2865357695,
				"z": -1.6516965594,
				"element": "C" 
			},
			{
				"x": 2.5703034588,
				"y": 0.8657457461,
				"z": -2.5641128745,
				"element": "Br" 
			},
			{
				"x": 1.8361977582,
				"y": -1.1990225888,
				"z": -0.6955167051,
				"element": "C" 
			},
			{
				"x": 3.177864271,
				"y": -1.3236557341,
				"z": -0.4367433041,
				"element": "N" 
			},
			{
				"x": 0.8619463418,
				"y": -1.9982857031,
				"z": -0.0579272353,
				"element": "C" 
			},
			{
				"x": 1.4936291225,
				"y": -3.2382434581,
				"z": 1.2684246835,
				"element": "Br" 
			},
			{
				"x": -1.2288405025,
				"y": -3.8935114218,
				"z": 0.2365041508,
				"element": "H" 
			},
			{
				"x": -1.4280704247,
				"y": -2.6667329041,
				"z": 1.4820757008,
				"element": "H" 
			},
			{
				"x": -2.5014638644,
				"y": -2.6699001458,
				"z": 0.0707524019,
				"element": "H" 
			},
			{
				"x": -0.3431891202,
				"y": 0.5185916707,
				"z": -2.6948800689,
				"element": "H" 
			},
			{
				"x": 3.767915415,
				"y": -0.5602370563,
				"z": -0.7318527344,
				"element": "H" 
			},
			{
				"x": 3.4370961147,
				"y": -1.7866868743,
				"z": 0.4210767434,
				"element": "H" 
			}
		],
		 "valence_orbital": [ 
			{
				"type": "occ",
				"energy": -0.30174,
				"method": "rhf"
			},
			{
				"type": "occ",
				"energy": -0.2876,
				"method": "rhf"
			},
			{
				"type": "occ",
				"energy": -0.28477,
				"method": "rhf"
			},
			{
				"type": "occ",
				"energy": -0.24876,
				"method": "rhf"
			},
			{
				"type": "occ",
				"energy": -0.21488,
				"method": "rhf"
			},
			{
				"type": "unocc",
				"energy": -0.03448,
				"method": "rhf"
			},
			{
				"type": "unocc",
				"energy": -0.02768,
				"method": "rhf"
			},
			{
				"type": "unocc",
				"energy": -0.00835,
				"method": "rhf"
			},
			{
				"type": "unocc",
				"energy": 0.02028,
				"method": "rhf"
			},
			{
				"type": "unocc",
				"energy": 0.02424,
				"method": "rhf"
			}
		],
		"cosmo_sigma_profile": { 
			"-0.025": 0.0,
			"-0.024": 0.0,
			"-0.023": 0.0,
			"-0.022": 0.0,
			"-0.021": 0.0,
			"-0.02": 0.0,
			"-0.019": 0.0,
			"-0.018": 0.0,
			"-0.017": 0.0,
			"-0.016": 0.0,
			"-0.015": 0.0,
			"-0.014": 0.0,
			"-0.013": 0.14855466461,
			"-0.012": 1.51652669208,
			"-0.011": 1.66345066022,
			"-0.01": 2.22085291016,
			"-0.009": 1.64209583838,
			"-0.008": 2.42797125875,
			"-0.007": 3.36440136334,
			"-0.006": 3.05980515015,
			"-0.005": 6.98763887913,
			"-0.004": 11.8111309749,
			"-0.003": 13.5125428793,
			"-0.002": 15.3449986053,
			"-0.001": 22.5565108066,
			"0.0": 22.947708249,
			"0.001": 25.7364516672,
			"0.002": 35.7086398046,
			"0.003": 21.9684542402,
			"0.004": 20.7715177144,
			"0.005": 6.78652309059,
			"0.006": 0.775420913363,
			"0.007": 0.834153911153,
			"0.008": 0.427303076499,
			"0.009": 0.360842961735,
			"0.01": 0.922813214106,
			"0.011": 0.240759676171,
			"0.012": 0.0,
			"0.013": 0.0,
			"0.014": 0.0,
			"0.015": 0.0,
			"0.016": 0.0,
			"0.017": 0.0,
			"0.018": 0.0,
			"0.019": 0.0,
			"0.02": 0.0,
			"0.021": 0.0,
			"0.022": 0.0,
			"0.023": 0.0,
			"0.024": 0.0,
			"0.025": 0.0
		}
	}
}
