{
	 "smiles": "C1CCOCC1", 
	 "Tm": 226.15, 
	 "num_atms": 16, 
	 "gaussian": { 
		 "optdone": 1, 
		 "sigma_profile": "yes", 
		 "theory": "DFT", 
		 "functional": "B3LYP", 
		 "basiset": "6-31G**", 
		 "properties": { 
			 "R2extent": 635.0887, 
			 "electric_dipole_moment_norm": 1.40075286543, 
			 "electric_quadrupole_moment_norm": 3.3887890492, 
			 "total_energy": -271.77943462, 
			 "HOMO_LUMO_gap": 0.33283, 
			 "cosmo_polarized_energy": -3.48, 
			 "cosmo_cavitation_energy": 16.98, 
			 "cosmo_dispersion_energy": -13.43, 
			 "cosmo_repulsion_energy": 1.16, 
			 "cosmo_total_nonelectrostatic_energy": 4.72, 
			 "SMD_solvation_energy": 2.48 
		},
		"coords": [
			{
				"x": 0.3594462442,
				"y": -0.5119913853,
				"z": -1.1674779997,
				"element": "C" 
			},
			{
				"x": 0.9800590258,
				"y": 0.6341475473,
				"z": -0.3532516528,
				"element": "C" 
			},
			{
				"x": -0.0435499284,
				"y": 1.7553028292,
				"z": -0.1534324121,
				"element": "C" 
			},
			{
				"x": -1.2368606819,
				"y": 1.2781318082,
				"z": 0.4567311665,
				"element": "O" 
			},
			{
				"x": -1.87702605,
				"y": 0.2802571265,
				"z": -0.3296855463,
				"element": "C" 
			},
			{
				"x": -0.977114649,
				"y": -0.940442825,
				"z": -0.5415711809,
				"element": "C" 
			},
			{
				"x": 0.1830154135,
				"y": -0.1695383247,
				"z": -2.1971442544,
				"element": "H" 
			},
			{
				"x": 1.0489686689,
				"y": -1.3613040471,
				"z": -1.2324312927,
				"element": "H" 
			},
			{
				"x": 1.2915381252,
				"y": 0.2628421072,
				"z": 0.6312738423,
				"element": "H" 
			},
			{
				"x": 1.8738820412,
				"y": 1.0315479771,
				"z": -0.8498462279,
				"element": "H" 
			},
			{
				"x": 0.3435058299,
				"y": 2.5369751769,
				"z": 0.5073665396,
				"element": "H" 
			},
			{
				"x": -0.2804264156,
				"y": 2.2221977571,
				"z": -1.1267339333,
				"element": "H" 
			},
			{
				"x": -2.7932386354,
				"y": 0.0134060997,
				"z": 0.2058764966,
				"element": "H" 
			},
			{
				"x": -2.1685473162,
				"y": 0.7033241703,
				"z": -1.3081856229,
				"element": "H" 
			},
			{
				"x": -0.7954391918,
				"y": -1.4163263022,
				"z": 0.4303862055,
				"element": "H" 
			},
			{
				"x": -1.4909124804,
				"y": -1.675229715,
				"z": -1.1736741275,
				"element": "H" 
			}
		],
		 "valence_orbital": [ 
			{
				"type": "occ",
				"energy": -0.34924,
				"method": "rhf"
			},
			{
				"type": "occ",
				"energy": -0.33234,
				"method": "rhf"
			},
			{
				"type": "occ",
				"energy": -0.31966,
				"method": "rhf"
			},
			{
				"type": "occ",
				"energy": -0.293,
				"method": "rhf"
			},
			{
				"type": "occ",
				"energy": -0.24258,
				"method": "rhf"
			},
			{
				"type": "unocc",
				"energy": 0.09025,
				"method": "rhf"
			},
			{
				"type": "unocc",
				"energy": 0.11547,
				"method": "rhf"
			},
			{
				"type": "unocc",
				"energy": 0.13341,
				"method": "rhf"
			},
			{
				"type": "unocc",
				"energy": 0.13567,
				"method": "rhf"
			},
			{
				"type": "unocc",
				"energy": 0.14615,
				"method": "rhf"
			}
		],
		"cosmo_sigma_profile": { 
			"-0.025": 0.0,
			"-0.024": 0.0,
			"-0.023": 0.0,
			"-0.022": 0.0,
			"-0.021": 0.0,
			"-0.02": 0.0,
			"-0.019": 0.0,
			"-0.018": 0.0,
			"-0.017": 0.0,
			"-0.016": 0.0,
			"-0.015": 0.0,
			"-0.014": 0.0,
			"-0.013": 0.0,
			"-0.012": 0.0,
			"-0.011": 0.0,
			"-0.01": 0.0,
			"-0.009": 0.0,
			"-0.008": 0.0,
			"-0.007": 0.0,
			"-0.006": 0.0,
			"-0.005": 0.523851782636,
			"-0.004": 4.37455217547,
			"-0.003": 17.5698496688,
			"-0.002": 32.3390440495,
			"-0.001": 25.9663728951,
			"0.0": 19.1003104549,
			"0.001": 11.223084463,
			"0.002": 2.12792889343,
			"0.003": 1.99576160068,
			"0.004": 1.87726621155,
			"0.005": 1.02589702436,
			"0.006": 1.50949426226,
			"0.007": 1.58552937012,
			"0.008": 1.25724224571,
			"0.009": 1.04272145393,
			"0.01": 1.29833820737,
			"0.011": 1.0082669797,
			"0.012": 1.34107459333,
			"0.013": 1.81744386284,
			"0.014": 1.82835840666,
			"0.015": 0.0236961057274,
			"0.016": 0.0,
			"0.017": 0.0,
			"0.018": 0.0,
			"0.019": 0.0,
			"0.02": 0.0,
			"0.021": 0.0,
			"0.022": 0.0,
			"0.023": 0.0,
			"0.024": 0.0,
			"0.025": 0.0
		}
	}
}
