{
	 "smiles": "NC1=CC(Br)=CN=C1N", 
	 "Tm": 435.15, 
	 "num_atms": 15, 
	 "gaussian": { 
		 "optdone": 1, 
		 "sigma_profile": "yes", 
		 "theory": "DFT", 
		 "functional": "B3LYP", 
		 "basiset": "6-31G**", 
		 "properties": { 
			 "R2extent": 3493.4435, 
			 "electric_dipole_moment_norm": 3.54932098999, 
			 "electric_quadrupole_moment_norm": 10.5419865718, 
			 "total_energy": -2929.81353732, 
			 "HOMO_LUMO_gap": 0.18722, 
			 "cosmo_polarized_energy": -11.84, 
			 "cosmo_cavitation_energy": 21.32, 
			 "cosmo_dispersion_energy": -16.64, 
			 "cosmo_repulsion_energy": 1.37, 
			 "cosmo_total_nonelectrostatic_energy": 6.05, 
			 "SMD_solvation_energy": 1.17 
		},
		"coords": [
			{
				"x": 1.4776169887,
				"y": 0.1430167207,
				"z": -2.9062431157,
				"element": "N" 
			},
			{
				"x": 0.6377163011,
				"y": -0.4410470373,
				"z": -1.9480986061,
				"element": "C" 
			},
			{
				"x": -0.4404670571,
				"y": -1.2628395177,
				"z": -2.2566391354,
				"element": "C" 
			},
			{
				"x": -1.2216406285,
				"y": -1.7669564339,
				"z": -1.2120671347,
				"element": "C" 
			},
			{
				"x": -2.7137944285,
				"y": -2.8968905421,
				"z": -1.5960100452,
				"element": "Br" 
			},
			{
				"x": -0.9029761889,
				"y": -1.4555397687,
				"z": 0.1015433954,
				"element": "C" 
			},
			{
				"x": 0.1238351727,
				"y": -0.6462974682,
				"z": 0.4061669946,
				"element": "N" 
			},
			{
				"x": 0.8647650375,
				"y": -0.1440980879,
				"z": -0.576351458,
				"element": "C" 
			},
			{
				"x": 1.950145597,
				"y": 0.6683227437,
				"z": -0.2425545776,
				"element": "N" 
			},
			{
				"x": 1.3578747996,
				"y": -0.2319759793,
				"z": -3.8392373885,
				"element": "H" 
			},
			{
				"x": 2.4549945128,
				"y": 0.1179301193,
				"z": -2.6318026261,
				"element": "H" 
			},
			{
				"x": -0.6637032673,
				"y": -1.5207298937,
				"z": -3.2870043744,
				"element": "H" 
			},
			{
				"x": -1.4863234879,
				"y": -1.8482691725,
				"z": 0.9288737875,
				"element": "H" 
			},
			{
				"x": 2.0411642769,
				"y": 1.4868395576,
				"z": -0.8354353186,
				"element": "H" 
			},
			{
				"x": 1.941492372,
				"y": 0.9089347599,
				"z": 0.7415596028,
				"element": "H" 
			}
		],
		 "valence_orbital": [ 
			{
				"type": "occ",
				"energy": -0.28896,
				"method": "rhf"
			},
			{
				"type": "occ",
				"energy": -0.28661,
				"method": "rhf"
			},
			{
				"type": "occ",
				"energy": -0.26123,
				"method": "rhf"
			},
			{
				"type": "occ",
				"energy": -0.25014,
				"method": "rhf"
			},
			{
				"type": "occ",
				"energy": -0.20308,
				"method": "rhf"
			},
			{
				"type": "unocc",
				"energy": -0.01586,
				"method": "rhf"
			},
			{
				"type": "unocc",
				"energy": 0.0049,
				"method": "rhf"
			},
			{
				"type": "unocc",
				"energy": 0.01301,
				"method": "rhf"
			},
			{
				"type": "unocc",
				"energy": 0.06614,
				"method": "rhf"
			},
			{
				"type": "unocc",
				"energy": 0.10278,
				"method": "rhf"
			}
		],
		"cosmo_sigma_profile": { 
			"-0.025": 0.0,
			"-0.024": 0.0,
			"-0.023": 0.0,
			"-0.022": 0.0,
			"-0.021": 0.0,
			"-0.02": 0.0,
			"-0.019": 0.0,
			"-0.018": 0.0,
			"-0.017": 0.0,
			"-0.016": 0.0,
			"-0.015": 0.0,
			"-0.014": 0.0,
			"-0.013": 0.931252022977,
			"-0.012": 4.2064764546,
			"-0.011": 4.98873071663,
			"-0.01": 4.49484393591,
			"-0.009": 6.03778262654,
			"-0.008": 5.05749015998,
			"-0.007": 5.15814153422,
			"-0.006": 6.66505217091,
			"-0.005": 4.66590349985,
			"-0.004": 6.51437792283,
			"-0.003": 6.54707216959,
			"-0.002": 6.95410799086,
			"-0.001": 7.84229001474,
			"0.0": 8.39633640929,
			"0.001": 11.1851498337,
			"0.002": 15.3037841092,
			"0.003": 20.1503060946,
			"0.004": 13.4139383612,
			"0.005": 13.4269284959,
			"0.006": 3.41366567454,
			"0.007": 2.95309220318,
			"0.008": 3.06551368512,
			"0.009": 1.76220908665,
			"0.01": 2.00290566944,
			"0.011": 2.50609598492,
			"0.012": 1.72422052308,
			"0.013": 1.51907162659,
			"0.014": 1.38998059999,
			"0.015": 0.486703795314,
			"0.016": 0.0528309556462,
			"0.017": 0.0,
			"0.018": 0.0,
			"0.019": 0.0,
			"0.02": 0.0,
			"0.021": 0.0,
			"0.022": 0.0,
			"0.023": 0.0,
			"0.024": 0.0,
			"0.025": 0.0
		}
	}
}
