{
	 "smiles": "FC(F)(F)COC(=O)NC1=CC(NC(=O)C2=CC=CO2)=CC=C1", 
	 "Tm": 441.15, 
	 "num_atms": 34, 
	 "gaussian": { 
		 "optdone": 1, 
		 "sigma_profile": "yes", 
		 "theory": "DFT", 
		 "functional": "B3LYP", 
		 "basiset": "6-31G**", 
		 "properties": { 
			 "R2extent": 10095.7216, 
			 "electric_dipole_moment_norm": 4.75959275359, 
			 "electric_quadrupole_moment_norm": 26.0872999028, 
			 "total_energy": -1250.04215683, 
			 "HOMO_LUMO_gap": 0.18216, 
			 "cosmo_polarized_energy": -20.75, 
			 "cosmo_cavitation_energy": 41.9, 
			 "cosmo_dispersion_energy": -28.18, 
			 "cosmo_repulsion_energy": 2.1, 
			 "cosmo_total_nonelectrostatic_energy": 15.82, 
			 "SMD_solvation_energy": 10.95 
		},
		"coords": [
			{
				"x": -0.8722627903,
				"y": 0.5126297063,
				"z": 2.2240654178,
				"element": "F" 
			},
			{
				"x": -1.6437885923,
				"y": -0.5260232968,
				"z": 2.6118176621,
				"element": "C" 
			},
			{
				"x": -0.8233664849,
				"y": -1.5036423975,
				"z": 3.0369221461,
				"element": "F" 
			},
			{
				"x": -2.3984357363,
				"y": -0.1195979508,
				"z": 3.6508536122,
				"element": "F" 
			},
			{
				"x": -2.539063561,
				"y": -1.0030655936,
				"z": 1.4814228967,
				"element": "C" 
			},
			{
				"x": -1.721999163,
				"y": -1.3584984256,
				"z": 0.3722075419,
				"element": "O" 
			},
			{
				"x": -1.5623960817,
				"y": -2.6950372233,
				"z": 0.1435677258,
				"element": "C" 
			},
			{
				"x": -2.1966968755,
				"y": -3.5691507005,
				"z": 0.6988765351,
				"element": "O" 
			},
			{
				"x": -0.6202996794,
				"y": -2.9450758663,
				"z": -0.8190547021,
				"element": "N" 
			},
			{
				"x": 0.2588996454,
				"y": -2.1110057379,
				"z": -1.5491073229,
				"element": "C" 
			},
			{
				"x": 0.6232711226,
				"y": -0.8205543116,
				"z": -1.1461091202,
				"element": "C" 
			},
			{
				"x": 1.5343283141,
				"y": -0.0796418426,
				"z": -1.9109835957,
				"element": "C" 
			},
			{
				"x": 1.9083204895,
				"y": 1.1967696504,
				"z": -1.4251549483,
				"element": "N" 
			},
			{
				"x": 2.2802384161,
				"y": 2.3595277006,
				"z": -2.0861145348,
				"element": "C" 
			},
			{
				"x": 2.9380063524,
				"y": 3.2141852327,
				"z": -1.5079675038,
				"element": "O" 
			},
			{
				"x": 1.7687759996,
				"y": 2.5743967324,
				"z": -3.4563807741,
				"element": "C" 
			},
			{
				"x": 0.6903040667,
				"y": 2.1204214514,
				"z": -4.173743962,
				"element": "C" 
			},
			{
				"x": 0.6747529957,
				"y": 2.8567756277,
				"z": -5.3949010474,
				"element": "C" 
			},
			{
				"x": 1.7440012092,
				"y": 3.704166198,
				"z": -5.3325074598,
				"element": "C" 
			},
			{
				"x": 2.4115188256,
				"y": 3.5521091539,
				"z": -4.1662913806,
				"element": "O" 
			},
			{
				"x": 2.0984321296,
				"y": -0.6277805682,
				"z": -3.0708726625,
				"element": "C" 
			},
			{
				"x": 1.7183556394,
				"y": -1.9071455971,
				"z": -3.468965801,
				"element": "C" 
			},
			{
				"x": 0.8077527931,
				"y": -2.650026567,
				"z": -2.7228100707,
				"element": "C" 
			},
			{
				"x": -3.1880020713,
				"y": -0.1817386848,
				"z": 1.1717532989,
				"element": "H" 
			},
			{
				"x": -3.1295567506,
				"y": -1.8570151313,
				"z": 1.8169397076,
				"element": "H" 
			},
			{
				"x": -0.588933815,
				"y": -3.9285039768,
				"z": -1.0486778646,
				"element": "H" 
			},
			{
				"x": 0.2068841491,
				"y": -0.382743556,
				"z": -0.2498838013,
				"element": "H" 
			},
			{
				"x": 2.1199855732,
				"y": 1.2589279726,
				"z": -0.4365138174,
				"element": "H" 
			},
			{
				"x": -0.0080160086,
				"y": 1.3583608501,
				"z": -3.8627063426,
				"element": "H" 
			},
			{
				"x": -0.0341577725,
				"y": 2.7694022831,
				"z": -6.2054129377,
				"element": "H" 
			},
			{
				"x": 2.14590325,
				"y": 4.4404941956,
				"z": -6.0116788473,
				"element": "H" 
			},
			{
				"x": 2.8284870266,
				"y": -0.0663059208,
				"z": -3.6408875011,
				"element": "H" 
			},
			{
				"x": 2.1501446624,
				"y": -2.3390357516,
				"z": -4.3667551307,
				"element": "H" 
			},
			{
				"x": 0.5216127222,
				"y": -3.6476776545,
				"z": -3.0445454156,
				"element": "H" 
			}
		],
		 "valence_orbital": [ 
			{
				"type": "occ",
				"energy": -0.29008,
				"method": "rhf"
			},
			{
				"type": "occ",
				"energy": -0.2608,
				"method": "rhf"
			},
			{
				"type": "occ",
				"energy": -0.24551,
				"method": "rhf"
			},
			{
				"type": "occ",
				"energy": -0.24135,
				"method": "rhf"
			},
			{
				"type": "occ",
				"energy": -0.22586,
				"method": "rhf"
			},
			{
				"type": "unocc",
				"energy": -0.0437,
				"method": "rhf"
			},
			{
				"type": "unocc",
				"energy": -0.02196,
				"method": "rhf"
			},
			{
				"type": "unocc",
				"energy": -0.01016,
				"method": "rhf"
			},
			{
				"type": "unocc",
				"energy": 0.03764,
				"method": "rhf"
			},
			{
				"type": "unocc",
				"energy": 0.0474,
				"method": "rhf"
			}
		],
		"cosmo_sigma_profile": { 
			"-0.025": 0.0,
			"-0.024": 0.0,
			"-0.023": 0.0,
			"-0.022": 0.0,
			"-0.021": 0.0,
			"-0.02": 0.0,
			"-0.019": 0.0,
			"-0.018": 0.0,
			"-0.017": 0.0,
			"-0.016": 0.371449679572,
			"-0.015": 0.883843746856,
			"-0.014": 2.25105289007,
			"-0.013": 2.15956825117,
			"-0.012": 2.05453573262,
			"-0.011": 1.42959526193,
			"-0.01": 3.78400977485,
			"-0.009": 7.97064391302,
			"-0.008": 8.73256950239,
			"-0.007": 11.8206411157,
			"-0.006": 15.1128042646,
			"-0.005": 16.8926144562,
			"-0.004": 15.2827157344,
			"-0.003": 16.1343990545,
			"-0.002": 19.7983995281,
			"-0.001": 20.2318032145,
			"0.0": 23.9445902527,
			"0.001": 28.4653494085,
			"0.002": 44.2326930084,
			"0.003": 33.4833553126,
			"0.004": 14.7813270731,
			"0.005": 7.93573945313,
			"0.006": 2.90394947069,
			"0.007": 2.58719774609,
			"0.008": 3.56668137708,
			"0.009": 3.56405236925,
			"0.01": 3.69427605832,
			"0.011": 5.15903408701,
			"0.012": 8.3114006779,
			"0.013": 6.36716722032,
			"0.014": 2.17522346928,
			"0.015": 0.121862424096,
			"0.016": 0.0,
			"0.017": 0.0,
			"0.018": 0.0,
			"0.019": 0.0,
			"0.02": 0.0,
			"0.021": 0.0,
			"0.022": 0.0,
			"0.023": 0.0,
			"0.024": 0.0,
			"0.025": 0.0
		}
	}
}
