{
	 "smiles": "COC(=O)CC(=O)C1=CC(Br)=CN=C1", 
	 "Tm": 363.65, 
	 "num_atms": 22, 
	 "gaussian": { 
		 "optdone": 1, 
		 "sigma_profile": "yes", 
		 "theory": "DFT", 
		 "functional": "B3LYP", 
		 "basiset": "6-31G**", 
		 "properties": { 
			 "R2extent": 8133.7869, 
			 "electric_dipole_moment_norm": 1.98738675904, 
			 "electric_quadrupole_moment_norm": 11.4859783832, 
			 "total_energy": -3199.59901779, 
			 "HOMO_LUMO_gap": 0.18445, 
			 "cosmo_polarized_energy": -13.89, 
			 "cosmo_cavitation_energy": 30.3, 
			 "cosmo_dispersion_energy": -22.01, 
			 "cosmo_repulsion_energy": 1.74, 
			 "cosmo_total_nonelectrostatic_energy": 10.03, 
			 "SMD_solvation_energy": 4.69 
		},
		"coords": [
			{
				"x": -3.5544362969,
				"y": -0.9730689711,
				"z": -1.2650633784,
				"element": "C" 
			},
			{
				"x": -2.1978387749,
				"y": -0.5558363554,
				"z": -1.0310046227,
				"element": "O" 
			},
			{
				"x": -1.256796078,
				"y": -1.4675572314,
				"z": -1.3390831651,
				"element": "C" 
			},
			{
				"x": -1.4832622471,
				"y": -2.5452486689,
				"z": -1.8389976519,
				"element": "O" 
			},
			{
				"x": 0.1247218273,
				"y": -0.9563813953,
				"z": -0.9751668438,
				"element": "C" 
			},
			{
				"x": 0.4179820996,
				"y": -1.161145399,
				"z": 0.5126081104,
				"element": "C" 
			},
			{
				"x": -0.4018619488,
				"y": -1.6713888744,
				"z": 1.2549990139,
				"element": "O" 
			},
			{
				"x": 1.7523315062,
				"y": -0.7203648215,
				"z": 1.0363810948,
				"element": "C" 
			},
			{
				"x": 2.0236796639,
				"y": -0.9149294303,
				"z": 2.3984879465,
				"element": "C" 
			},
			{
				"x": 3.2554872639,
				"y": -0.5080217842,
				"z": 2.8864559476,
				"element": "C" 
			},
			{
				"x": 3.7023968453,
				"y": -0.735892904,
				"z": 4.7232485403,
				"element": "Br" 
			},
			{
				"x": 4.1828462267,
				"y": 0.0781100797,
				"z": 2.0166514361,
				"element": "C" 
			},
			{
				"x": 3.9324631474,
				"y": 0.2663292791,
				"z": 0.7188881594,
				"element": "N" 
			},
			{
				"x": 2.7440765717,
				"y": -0.1255881474,
				"z": 0.2455703193,
				"element": "C" 
			},
			{
				"x": -3.7045676045,
				"y": -1.2177880136,
				"z": -2.3193818878,
				"element": "H" 
			},
			{
				"x": -3.7906788304,
				"y": -1.8506370257,
				"z": -0.65878086,
				"element": "H" 
			},
			{
				"x": -4.1764528734,
				"y": -0.1270600426,
				"z": -0.9740821006,
				"element": "H" 
			},
			{
				"x": 0.8623301738,
				"y": -1.501807132,
				"z": -1.5717608766,
				"element": "H" 
			},
			{
				"x": 0.2096988612,
				"y": 0.1091544421,
				"z": -1.2154888467,
				"element": "H" 
			},
			{
				"x": 1.2718501401,
				"y": -1.37405891,
				"z": 3.0301450996,
				"element": "H" 
			},
			{
				"x": 5.1525933902,
				"y": 0.4016958443,
				"z": 2.3860001334,
				"element": "H" 
			},
			{
				"x": 2.5844369363,
				"y": 0.0468854617,
				"z": -0.8159255676,
				"element": "H" 
			}
		],
		 "valence_orbital": [ 
			{
				"type": "occ",
				"energy": -0.30372,
				"method": "rhf"
			},
			{
				"type": "occ",
				"energy": -0.28938,
				"method": "rhf"
			},
			{
				"type": "occ",
				"energy": -0.28025,
				"method": "rhf"
			},
			{
				"type": "occ",
				"energy": -0.27007,
				"method": "rhf"
			},
			{
				"type": "occ",
				"energy": -0.26935,
				"method": "rhf"
			},
			{
				"type": "unocc",
				"energy": -0.0849,
				"method": "rhf"
			},
			{
				"type": "unocc",
				"energy": -0.04936,
				"method": "rhf"
			},
			{
				"type": "unocc",
				"energy": -0.00965,
				"method": "rhf"
			},
			{
				"type": "unocc",
				"energy": 0.00399,
				"method": "rhf"
			},
			{
				"type": "unocc",
				"energy": 0.0083,
				"method": "rhf"
			}
		],
		"cosmo_sigma_profile": { 
			"-0.025": 0.0,
			"-0.024": 0.0,
			"-0.023": 0.0,
			"-0.022": 0.0,
			"-0.021": 0.0,
			"-0.02": 0.0,
			"-0.019": 0.0,
			"-0.018": 0.0,
			"-0.017": 0.0,
			"-0.016": 0.0,
			"-0.015": 0.0,
			"-0.014": 0.0,
			"-0.013": 0.0,
			"-0.012": 0.0,
			"-0.011": 0.0,
			"-0.01": 0.465542813029,
			"-0.009": 8.11593532642,
			"-0.008": 8.19854425727,
			"-0.007": 8.69207433057,
			"-0.006": 13.2166898199,
			"-0.005": 16.269280127,
			"-0.004": 17.4048557845,
			"-0.003": 17.0410955351,
			"-0.002": 21.4477172481,
			"-0.001": 22.2335749621,
			"0.0": 13.712319902,
			"0.001": 11.6025315573,
			"0.002": 12.284397581,
			"0.003": 15.1273660061,
			"0.004": 11.898621906,
			"0.005": 4.62610751493,
			"0.006": 6.31081929791,
			"0.007": 7.20650199352,
			"0.008": 5.79646351138,
			"0.009": 4.86948746349,
			"0.01": 6.35770538611,
			"0.011": 6.37839470871,
			"0.012": 4.56107846332,
			"0.013": 0.844118353183,
			"0.014": 0.893961928709,
			"0.015": 0.436905633369,
			"0.016": 0.0,
			"0.017": 0.0,
			"0.018": 0.0,
			"0.019": 0.0,
			"0.02": 0.0,
			"0.021": 0.0,
			"0.022": 0.0,
			"0.023": 0.0,
			"0.024": 0.0,
			"0.025": 0.0
		}
	}
}
