{
	 "smiles": "OCCNC1=CC=C(NCCO)C2=C1C(=O)C1=C(C=CC=C1)C2=O", 
	 "Tm": 521.15, 
	 "num_atms": 42, 
	 "gaussian": { 
		 "optdone": 1, 
		 "sigma_profile": "yes", 
		 "theory": "DFT", 
		 "functional": "B3LYP", 
		 "basiset": "6-31G**", 
		 "properties": { 
			 "R2extent": 9229.0228, 
			 "electric_dipole_moment_norm": 2.3814672998, 
			 "electric_quadrupole_moment_norm": 18.6665880918, 
			 "total_energy": -1107.17311074, 
			 "HOMO_LUMO_gap": 0.08961, 
			 "cosmo_polarized_energy": -20.2, 
			 "cosmo_cavitation_energy": 43.67, 
			 "cosmo_dispersion_energy": -32.09, 
			 "cosmo_repulsion_energy": 2.41, 
			 "cosmo_total_nonelectrostatic_energy": 13.99, 
			 "SMD_solvation_energy": 6.24 
		},
		"coords": [
			{
				"x": -3.2040041201,
				"y": -2.8159624989,
				"z": -2.3838595941,
				"element": "O" 
			},
			{
				"x": -3.2873916082,
				"y": -1.8342721621,
				"z": -3.4053584188,
				"element": "C" 
			},
			{
				"x": -3.0690447625,
				"y": -0.4115501203,
				"z": -2.8755757019,
				"element": "C" 
			},
			{
				"x": -1.7543926635,
				"y": -0.219405864,
				"z": -2.2830083131,
				"element": "N" 
			},
			{
				"x": -1.4696414326,
				"y": -0.2226454063,
				"z": -0.9425771324,
				"element": "C" 
			},
			{
				"x": -2.3855231277,
				"y": -0.7944358355,
				"z": -0.0114196845,
				"element": "C" 
			},
			{
				"x": -2.1306052179,
				"y": -0.8157122285,
				"z": 1.332209307,
				"element": "C" 
			},
			{
				"x": -0.9275580996,
				"y": -0.2855107576,
				"z": 1.8798832042,
				"element": "C" 
			},
			{
				"x": -0.6925323922,
				"y": -0.3419737832,
				"z": 3.2228279516,
				"element": "N" 
			},
			{
				"x": -1.401241862,
				"y": -1.1423487025,
				"z": 4.2028419918,
				"element": "C" 
			},
			{
				"x": -2.6038677719,
				"y": -0.4625067353,
				"z": 4.8803951858,
				"element": "C" 
			},
			{
				"x": -3.7726989223,
				"y": -0.3996337492,
				"z": 4.0709793717,
				"element": "O" 
			},
			{
				"x": 0.015662449,
				"y": 0.2938925531,
				"z": 0.9821993213,
				"element": "C" 
			},
			{
				"x": -0.2584586266,
				"y": 0.3274561583,
				"z": -0.4350568601,
				"element": "C" 
			},
			{
				"x": 0.703364637,
				"y": 0.9297222837,
				"z": -1.3626010338,
				"element": "C" 
			},
			{
				"x": 0.5219843603,
				"y": 0.97354567,
				"z": -2.5989406834,
				"element": "O" 
			},
			{
				"x": 1.9545280897,
				"y": 1.5074711971,
				"z": -0.8143559637,
				"element": "C" 
			},
			{
				"x": 2.2266450778,
				"y": 1.4623755229,
				"z": 0.5620305599,
				"element": "C" 
			},
			{
				"x": 3.4223690942,
				"y": 2.0066804378,
				"z": 1.0532255044,
				"element": "C" 
			},
			{
				"x": 4.3348614692,
				"y": 2.5888644878,
				"z": 0.1808524027,
				"element": "C" 
			},
			{
				"x": 4.0626912792,
				"y": 2.6345971922,
				"z": -1.1937581066,
				"element": "C" 
			},
			{
				"x": 2.8802529423,
				"y": 2.0962830894,
				"z": -1.6883079996,
				"element": "C" 
			},
			{
				"x": 1.261651107,
				"y": 0.8536433262,
				"z": 1.5100435125,
				"element": "C" 
			},
			{
				"x": 1.5487856449,
				"y": 0.8503666921,
				"z": 2.727373488,
				"element": "O" 
			},
			{
				"x": -2.2892600842,
				"y": -2.8179418057,
				"z": -2.0700126126,
				"element": "H" 
			},
			{
				"x": -2.5679018498,
				"y": -2.0375250758,
				"z": -4.2135427384,
				"element": "H" 
			},
			{
				"x": -4.2946393786,
				"y": -1.9128280042,
				"z": -3.8292771304,
				"element": "H" 
			},
			{
				"x": -3.1712243782,
				"y": 0.294182915,
				"z": -3.7095711762,
				"element": "H" 
			},
			{
				"x": -3.8539727334,
				"y": -0.1653486846,
				"z": -2.1521376912,
				"element": "H" 
			},
			{
				"x": -1.0272331114,
				"y": 0.2434268109,
				"z": -2.8315805648,
				"element": "H" 
			},
			{
				"x": -3.2932417539,
				"y": -1.2546222615,
				"z": -0.3829109688,
				"element": "H" 
			},
			{
				"x": -2.8822469593,
				"y": -1.1995563213,
				"z": 2.0090835942,
				"element": "H" 
			},
			{
				"x": 0.2078366878,
				"y": 0.0667378223,
				"z": 3.4789601866,
				"element": "H" 
			},
			{
				"x": -0.6767231755,
				"y": -1.3891374873,
				"z": 4.988464143,
				"element": "H" 
			},
			{
				"x": -1.7229313251,
				"y": -2.0993445849,
				"z": 3.7673373147,
				"element": "H" 
			},
			{
				"x": -2.3395511485,
				"y": 0.5720523802,
				"z": 5.1195030588,
				"element": "H" 
			},
			{
				"x": -2.8112150453,
				"y": -0.982525397,
				"z": 5.8285837548,
				"element": "H" 
			},
			{
				"x": -4.1974086038,
				"y": -1.2665074447,
				"z": 4.0949508591,
				"element": "H" 
			},
			{
				"x": 3.6060875532,
				"y": 1.9590999456,
				"z": 2.1207570274,
				"element": "H" 
			},
			{
				"x": 5.2598142678,
				"y": 3.0093468669,
				"z": 0.5652322587,
				"element": "H" 
			},
			{
				"x": 4.7766784632,
				"y": 3.0907800711,
				"z": -1.8735985182,
				"element": "H" 
			},
			{
				"x": 2.6449970315,
				"y": 2.1155694879,
				"z": -2.7465831058,
				"element": "H" 
			}
		],
		 "valence_orbital": [ 
			{
				"type": "occ",
				"energy": -0.25274,
				"method": "rhf"
			},
			{
				"type": "occ",
				"energy": -0.25191,
				"method": "rhf"
			},
			{
				"type": "occ",
				"energy": -0.24719,
				"method": "rhf"
			},
			{
				"type": "occ",
				"energy": -0.23993,
				"method": "rhf"
			},
			{
				"type": "occ",
				"energy": -0.17804,
				"method": "rhf"
			},
			{
				"type": "unocc",
				"energy": -0.08843,
				"method": "rhf"
			},
			{
				"type": "unocc",
				"energy": -0.03525,
				"method": "rhf"
			},
			{
				"type": "unocc",
				"energy": -0.01097,
				"method": "rhf"
			},
			{
				"type": "unocc",
				"energy": 0.01729,
				"method": "rhf"
			},
			{
				"type": "unocc",
				"energy": 0.05799,
				"method": "rhf"
			}
		],
		"cosmo_sigma_profile": { 
			"-0.025": 0.0,
			"-0.024": 0.0,
			"-0.023": 0.0,
			"-0.022": 0.0,
			"-0.021": 0.0,
			"-0.02": 0.0,
			"-0.019": 0.0,
			"-0.018": 0.0,
			"-0.017": 0.0,
			"-0.016": 0.554482430342,
			"-0.015": 0.911687661767,
			"-0.014": 1.91664254614,
			"-0.013": 1.53627188453,
			"-0.012": 1.47182135538,
			"-0.011": 2.09475857204,
			"-0.01": 1.60367177516,
			"-0.009": 2.24901703684,
			"-0.008": 4.97928324699,
			"-0.007": 6.07010496877,
			"-0.006": 16.786096317,
			"-0.005": 30.1564096145,
			"-0.004": 35.220880067,
			"-0.003": 23.6326372283,
			"-0.002": 20.0620692667,
			"-0.001": 18.4624163673,
			"0.0": 20.3806322621,
			"0.001": 23.2395332996,
			"0.002": 32.9713960397,
			"0.003": 30.1199674179,
			"0.004": 16.7480247762,
			"0.005": 8.27348507459,
			"0.006": 5.09070460456,
			"0.007": 6.97876246972,
			"0.008": 5.05760804955,
			"0.009": 6.414807156,
			"0.01": 4.40361167736,
			"0.011": 5.75913564368,
			"0.012": 7.08271953309,
			"0.013": 3.52054754434,
			"0.014": 2.98205794074,
			"0.015": 0.286075135141,
			"0.016": 0.0,
			"0.017": 0.0,
			"0.018": 0.0,
			"0.019": 0.0,
			"0.02": 0.0,
			"0.021": 0.0,
			"0.022": 0.0,
			"0.023": 0.0,
			"0.024": 0.0,
			"0.025": 0.0
		}
	}
}
