{
	 "smiles": "CS(=O)(=O)NC1(CCCCC1)C(O)=O", 
	 "Tm": 388.15, 
	 "num_atms": 29, 
	 "gaussian": { 
		 "optdone": 1, 
		 "sigma_profile": "yes", 
		 "theory": "DFT", 
		 "functional": "B3LYP", 
		 "basiset": "6-31G**", 
		 "properties": { 
			 "R2extent": 3140.462, 
			 "electric_dipole_moment_norm": 3.72781644532, 
			 "electric_quadrupole_moment_norm": 12.055294293, 
			 "total_energy": -1067.67985451, 
			 "HOMO_LUMO_gap": 0.26383, 
			 "cosmo_polarized_energy": -18.48, 
			 "cosmo_cavitation_energy": 30.6, 
			 "cosmo_dispersion_energy": -22.6, 
			 "cosmo_repulsion_energy": 1.73, 
			 "cosmo_total_nonelectrostatic_energy": 9.72, 
			 "SMD_solvation_energy": 4.71 
		},
		"coords": [
			{
				"x": -1.9514268751,
				"y": 1.9728987698,
				"z": -0.1641348443,
				"element": "C" 
			},
			{
				"x": -1.5802868127,
				"y": 0.3378602707,
				"z": 0.4915731821,
				"element": "S" 
			},
			{
				"x": -2.2807808824,
				"y": 0.2121166015,
				"z": 1.7734035731,
				"element": "O" 
			},
			{
				"x": -1.7754940941,
				"y": -0.6318148349,
				"z": -0.5926084278,
				"element": "O" 
			},
			{
				"x": 0.0781704276,
				"y": 0.4472791353,
				"z": 0.8740072827,
				"element": "N" 
			},
			{
				"x": 1.0760661952,
				"y": -0.2896827831,
				"z": 0.0578549921,
				"element": "C" 
			},
			{
				"x": 1.1719469068,
				"y": 0.2903121654,
				"z": -1.3838354275,
				"element": "C" 
			},
			{
				"x": 2.6191261105,
				"y": 0.5240653834,
				"z": -1.8661583402,
				"element": "C" 
			},
			{
				"x": 3.5445033096,
				"y": -0.6310420586,
				"z": -1.4683153204,
				"element": "C" 
			},
			{
				"x": 3.6103184178,
				"y": -0.7894478009,
				"z": 0.0732055739,
				"element": "C" 
			},
			{
				"x": 2.4301512894,
				"y": -0.1080272657,
				"z": 0.7953767602,
				"element": "C" 
			},
			{
				"x": 0.7805625895,
				"y": -1.8038526871,
				"z": 0.0168440543,
				"element": "C" 
			},
			{
				"x": 0.3174599598,
				"y": -2.2482012639,
				"z": 1.2092767514,
				"element": "O" 
			},
			{
				"x": 1.0040069858,
				"y": -2.5431468912,
				"z": -0.9140536089,
				"element": "O" 
			},
			{
				"x": -1.7056618015,
				"y": 2.7159863565,
				"z": 0.5943299106,
				"element": "H" 
			},
			{
				"x": -1.3785402177,
				"y": 2.1362888167,
				"z": -1.0766048184,
				"element": "H" 
			},
			{
				"x": -3.021188246,
				"y": 1.9832423934,
				"z": -0.3812523058,
				"element": "H" 
			},
			{
				"x": 0.13548451,
				"y": 0.1854631396,
				"z": 1.8570695931,
				"element": "H" 
			},
			{
				"x": 0.6578920503,
				"y": -0.3884642968,
				"z": -2.0665366077,
				"element": "H" 
			},
			{
				"x": 0.639128775,
				"y": 1.2444896703,
				"z": -1.4030712002,
				"element": "H" 
			},
			{
				"x": 3.0052120131,
				"y": 1.4651564739,
				"z": -1.4526905473,
				"element": "H" 
			},
			{
				"x": 2.6115582535,
				"y": 0.6503493764,
				"z": -2.954294403,
				"element": "H" 
			},
			{
				"x": 4.5490959738,
				"y": -0.4718994475,
				"z": -1.8743967788,
				"element": "H" 
			},
			{
				"x": 3.1600382374,
				"y": -1.5530822,
				"z": -1.9140393941,
				"element": "H" 
			},
			{
				"x": 3.6416317695,
				"y": -1.8526737817,
				"z": 0.3340236568,
				"element": "H" 
			},
			{
				"x": 4.5347058829,
				"y": -0.3514149937,
				"z": 0.4656226969,
				"element": "H" 
			},
			{
				"x": 2.5991602265,
				"y": 0.9711714772,
				"z": 0.8708521585,
				"element": "H" 
			},
			{
				"x": 2.3444076646,
				"y": -0.4886450313,
				"z": 1.8195253913,
				"element": "H" 
			},
			{
				"x": 0.1518513808,
				"y": -3.1997846937,
				"z": 1.1047264474,
				"element": "H" 
			}
		],
		 "valence_orbital": [ 
			{
				"type": "occ",
				"energy": -0.31402,
				"method": "rhf"
			},
			{
				"type": "occ",
				"energy": -0.31136,
				"method": "rhf"
			},
			{
				"type": "occ",
				"energy": -0.30101,
				"method": "rhf"
			},
			{
				"type": "occ",
				"energy": -0.29411,
				"method": "rhf"
			},
			{
				"type": "occ",
				"energy": -0.26156,
				"method": "rhf"
			},
			{
				"type": "unocc",
				"energy": 0.00227,
				"method": "rhf"
			},
			{
				"type": "unocc",
				"energy": 0.05761,
				"method": "rhf"
			},
			{
				"type": "unocc",
				"energy": 0.06069,
				"method": "rhf"
			},
			{
				"type": "unocc",
				"energy": 0.07749,
				"method": "rhf"
			},
			{
				"type": "unocc",
				"energy": 0.08034,
				"method": "rhf"
			}
		],
		"cosmo_sigma_profile": { 
			"-0.025": 0.0,
			"-0.024": 0.0,
			"-0.023": 0.0,
			"-0.022": 0.0,
			"-0.021": 0.0,
			"-0.02": 0.0,
			"-0.019": 0.299924862285,
			"-0.018": 0.826812625366,
			"-0.017": 0.889322490583,
			"-0.016": 1.02045705913,
			"-0.015": 0.927455556107,
			"-0.014": 0.535767971038,
			"-0.013": 0.7885150597,
			"-0.012": 1.53713529203,
			"-0.011": 1.67149434853,
			"-0.01": 1.24530577611,
			"-0.009": 2.94822967191,
			"-0.008": 8.70125040497,
			"-0.007": 6.94672063758,
			"-0.006": 7.99686419512,
			"-0.005": 8.05095217803,
			"-0.004": 14.0649666353,
			"-0.003": 22.8771038775,
			"-0.002": 25.8050621444,
			"-0.001": 23.2949344976,
			"0.0": 20.6767265457,
			"0.001": 13.8572667852,
			"0.002": 5.02833175888,
			"0.003": 4.72016521376,
			"0.004": 5.31489462433,
			"0.005": 6.49393439541,
			"0.006": 6.74555549004,
			"0.007": 5.85064482883,
			"0.008": 5.97690670087,
			"0.009": 6.04869222147,
			"0.01": 8.34236477407,
			"0.011": 13.6595459721,
			"0.012": 4.68786111715,
			"0.013": 0.0,
			"0.014": 0.0,
			"0.015": 0.0,
			"0.016": 0.0,
			"0.017": 0.0,
			"0.018": 0.0,
			"0.019": 0.0,
			"0.02": 0.0,
			"0.021": 0.0,
			"0.022": 0.0,
			"0.023": 0.0,
			"0.024": 0.0,
			"0.025": 0.0
		}
	}
}
