{
	 "smiles": "CC1=NN(C(C)=C1)C1=CC=C(C=C1)C(O)=O", 
	 "Tm": 436.15, 
	 "num_atms": 28, 
	 "gaussian": { 
		 "optdone": 1, 
		 "sigma_profile": "yes", 
		 "theory": "DFT", 
		 "functional": "B3LYP", 
		 "basiset": "6-31G**", 
		 "properties": { 
			 "R2extent": 5056.5113, 
			 "electric_dipole_moment_norm": 5.89794108991, 
			 "electric_quadrupole_moment_norm": 23.4476488067, 
			 "total_energy": -724.461768829, 
			 "HOMO_LUMO_gap": 0.17683, 
			 "cosmo_polarized_energy": -17.81, 
			 "cosmo_cavitation_energy": 32.29, 
			 "cosmo_dispersion_energy": -23.51, 
			 "cosmo_repulsion_energy": 1.83, 
			 "cosmo_total_nonelectrostatic_energy": 10.61, 
			 "SMD_solvation_energy": 6.07 
		},
		"coords": [
			{
				"x": 2.8621658758,
				"y": -0.2027243258,
				"z": 3.6345555741,
				"element": "C" 
			},
			{
				"x": 2.321826279,
				"y": -0.1238243074,
				"z": 2.2398560864,
				"element": "C" 
			},
			{
				"x": 1.0201728785,
				"y": 0.023876946,
				"z": 2.0298176578,
				"element": "N" 
			},
			{
				"x": 0.8689651136,
				"y": 0.04038959,
				"z": 0.6692410042,
				"element": "N" 
			},
			{
				"x": 2.0814092343,
				"y": -0.076262793,
				"z": 0.0175705273,
				"element": "C" 
			},
			{
				"x": 2.2788364975,
				"y": -0.0183068825,
				"z": -1.4655656129,
				"element": "C" 
			},
			{
				"x": 3.0298423302,
				"y": -0.188497392,
				"z": 1.0113828942,
				"element": "C" 
			},
			{
				"x": -0.4303983304,
				"y": 0.2406483049,
				"z": 0.148079183,
				"element": "C" 
			},
			{
				"x": -0.8343371186,
				"y": -0.3448722569,
				"z": -1.0584276326,
				"element": "C" 
			},
			{
				"x": -2.1238732764,
				"y": -0.1257198467,
				"z": -1.5380360758,
				"element": "C" 
			},
			{
				"x": -3.0339982397,
				"y": 0.6606373658,
				"z": -0.8207052248,
				"element": "C" 
			},
			{
				"x": -2.617915309,
				"y": 1.2408871602,
				"z": 0.3874755778,
				"element": "C" 
			},
			{
				"x": -1.3364160531,
				"y": 1.0309171977,
				"z": 0.8743819005,
				"element": "C" 
			},
			{
				"x": -4.4257215097,
				"y": 0.9458119266,
				"z": -1.2920571369,
				"element": "C" 
			},
			{
				"x": -4.9525575569,
				"y": 0.0855402087,
				"z": -2.20707453,
				"element": "O" 
			},
			{
				"x": -5.0798211848,
				"y": 1.8847237626,
				"z": -0.9026861056,
				"element": "O" 
			},
			{
				"x": 3.5988827998,
				"y": 0.58674152,
				"z": 3.8204237692,
				"element": "H" 
			},
			{
				"x": 3.3600287647,
				"y": -1.1618835428,
				"z": 3.8154922543,
				"element": "H" 
			},
			{
				"x": 2.0489310163,
				"y": -0.0946189682,
				"z": 4.3552774961,
				"element": "H" 
			},
			{
				"x": 1.6501547476,
				"y": 0.7449158323,
				"z": -1.9338937143,
				"element": "H" 
			},
			{
				"x": 2.0645004639,
				"y": -0.9741972338,
				"z": -1.9580693167,
				"element": "H" 
			},
			{
				"x": 3.322465613,
				"y": 0.2274698468,
				"z": -1.6752466121,
				"element": "H" 
			},
			{
				"x": 4.0962061459,
				"y": -0.2887909741,
				"z": 0.8665411527,
				"element": "H" 
			},
			{
				"x": -0.1597584136,
				"y": -0.9851157975,
				"z": -1.6118137076,
				"element": "H" 
			},
			{
				"x": -2.3968167179,
				"y": -0.5626936284,
				"z": -2.4955461142,
				"element": "H" 
			},
			{
				"x": -3.3209893625,
				"y": 1.8641420531,
				"z": 0.9292803476,
				"element": "H" 
			},
			{
				"x": -1.0132704667,
				"y": 1.4631643286,
				"z": 1.8130198875,
				"element": "H" 
			},
			{
				"x": -4.3951142203,
				"y": -0.7007580945,
				"z": -2.2845735292,
				"element": "H" 
			}
		],
		 "valence_orbital": [ 
			{
				"type": "occ",
				"energy": -0.28921,
				"method": "rhf"
			},
			{
				"type": "occ",
				"energy": -0.27544,
				"method": "rhf"
			},
			{
				"type": "occ",
				"energy": -0.26971,
				"method": "rhf"
			},
			{
				"type": "occ",
				"energy": -0.24524,
				"method": "rhf"
			},
			{
				"type": "occ",
				"energy": -0.23283,
				"method": "rhf"
			},
			{
				"type": "unocc",
				"energy": -0.056,
				"method": "rhf"
			},
			{
				"type": "unocc",
				"energy": -0.02505,
				"method": "rhf"
			},
			{
				"type": "unocc",
				"energy": 0.01137,
				"method": "rhf"
			},
			{
				"type": "unocc",
				"energy": 0.05359,
				"method": "rhf"
			},
			{
				"type": "unocc",
				"energy": 0.05868,
				"method": "rhf"
			}
		],
		"cosmo_sigma_profile": { 
			"-0.025": 0.0,
			"-0.024": 0.0,
			"-0.023": 0.0,
			"-0.022": 0.0,
			"-0.021": 0.0,
			"-0.02": 0.0,
			"-0.019": 0.195854414533,
			"-0.018": 0.809088987249,
			"-0.017": 1.27003764141,
			"-0.016": 0.540374175481,
			"-0.015": 0.848376692183,
			"-0.014": 1.05939900674,
			"-0.013": 1.3089458104,
			"-0.012": 1.47424281223,
			"-0.011": 1.18953937932,
			"-0.01": 0.936037584534,
			"-0.009": 1.51887838114,
			"-0.008": 3.05277811921,
			"-0.007": 6.53762855654,
			"-0.006": 10.1879670763,
			"-0.005": 15.3901379767,
			"-0.004": 18.7852128405,
			"-0.003": 21.8157128979,
			"-0.002": 22.1460149589,
			"-0.001": 21.619957782,
			"0.0": 20.1101339018,
			"0.001": 16.4458530132,
			"0.002": 17.6144043059,
			"0.003": 15.4622894943,
			"0.004": 9.35145654832,
			"0.005": 8.58483694464,
			"0.006": 4.89600394648,
			"0.007": 3.61527703276,
			"0.008": 4.6445308026,
			"0.009": 5.17393659079,
			"0.01": 5.68394133923,
			"0.011": 6.04683764689,
			"0.012": 6.06168748421,
			"0.013": 2.24918017882,
			"0.014": 0.906375278047,
			"0.015": 0.200059181638,
			"0.016": 0.0,
			"0.017": 0.0,
			"0.018": 0.0,
			"0.019": 0.0,
			"0.02": 0.0,
			"0.021": 0.0,
			"0.022": 0.0,
			"0.023": 0.0,
			"0.024": 0.0,
			"0.025": 0.0
		}
	}
}
