{
	 "smiles": "NC(=N)C1=CC=C(N)C=C1", 
	 "Tm": 455.15, 
	 "num_atms": 19, 
	 "gaussian": { 
		 "optdone": 1, 
		 "sigma_profile": "yes", 
		 "theory": "DFT", 
		 "functional": "B3LYP", 
		 "basiset": "6-31G**", 
		 "properties": { 
			 "R2extent": 1762.3284, 
			 "electric_dipole_moment_norm": 4.80942026132, 
			 "electric_quadrupole_moment_norm": 7.3007211137, 
			 "total_energy": -436.427922502, 
			 "HOMO_LUMO_gap": 0.19343, 
			 "cosmo_polarized_energy": -16.11, 
			 "cosmo_cavitation_energy": 22.83, 
			 "cosmo_dispersion_energy": -17.0, 
			 "cosmo_repulsion_energy": 1.39, 
			 "cosmo_total_nonelectrostatic_energy": 7.23, 
			 "SMD_solvation_energy": 2.98 
		},
		"coords": [
			{
				"x": 2.1925517384,
				"y": -1.28085472,
				"z": 2.2171663781,
				"element": "N" 
			},
			{
				"x": 1.3591400956,
				"y": -1.7407696267,
				"z": 1.2017494104,
				"element": "C" 
			},
			{
				"x": 1.5414340893,
				"y": -2.9293214408,
				"z": 0.7461977368,
				"element": "N" 
			},
			{
				"x": 0.3528230899,
				"y": -0.7516318348,
				"z": 0.7192046,
				"element": "C" 
			},
			{
				"x": -0.878938559,
				"y": -1.1844841788,
				"z": 0.2040404591,
				"element": "C" 
			},
			{
				"x": -1.826902492,
				"y": -0.2820130276,
				"z": -0.2595902524,
				"element": "C" 
			},
			{
				"x": -1.5729713706,
				"y": 1.1022003138,
				"z": -0.2285284831,
				"element": "C" 
			},
			{
				"x": -2.4948421772,
				"y": 2.007046424,
				"z": -0.7445090053,
				"element": "N" 
			},
			{
				"x": -0.3410770371,
				"y": 1.5425876621,
				"z": 0.2880131776,
				"element": "C" 
			},
			{
				"x": 0.5980487382,
				"y": 0.6303074551,
				"z": 0.7554956144,
				"element": "C" 
			},
			{
				"x": 1.7545962479,
				"y": -0.704638584,
				"z": 2.9229780578,
				"element": "H" 
			},
			{
				"x": 2.7782493486,
				"y": -2.0158307227,
				"z": 2.5938461285,
				"element": "H" 
			},
			{
				"x": 0.9619469298,
				"y": -3.0821448692,
				"z": -0.0794273681,
				"element": "H" 
			},
			{
				"x": -1.1056365891,
				"y": -2.2469991528,
				"z": 0.1911090294,
				"element": "H" 
			},
			{
				"x": -2.7764818813,
				"y": -0.643409221,
				"z": -0.646727758,
				"element": "H" 
			},
			{
				"x": -2.4220445733,
				"y": 2.9545553611,
				"z": -0.4021079222,
				"element": "H" 
			},
			{
				"x": -3.4507955698,
				"y": 1.6841344418,
				"z": -0.7916028404,
				"element": "H" 
			},
			{
				"x": -0.120088749,
				"y": 2.6070560252,
				"z": 0.3093457661,
				"element": "H" 
			},
			{
				"x": 1.5502887205,
				"y": 0.9897096954,
				"z": 1.1332472712,
				"element": "H" 
			}
		],
		 "valence_orbital": [ 
			{
				"type": "occ",
				"energy": -0.30679,
				"method": "rhf"
			},
			{
				"type": "occ",
				"energy": -0.25442,
				"method": "rhf"
			},
			{
				"type": "occ",
				"energy": -0.24511,
				"method": "rhf"
			},
			{
				"type": "occ",
				"energy": -0.23116,
				"method": "rhf"
			},
			{
				"type": "occ",
				"energy": -0.20444,
				"method": "rhf"
			},
			{
				"type": "unocc",
				"energy": -0.01101,
				"method": "rhf"
			},
			{
				"type": "unocc",
				"energy": -0.00459,
				"method": "rhf"
			},
			{
				"type": "unocc",
				"energy": 0.06696,
				"method": "rhf"
			},
			{
				"type": "unocc",
				"energy": 0.07866,
				"method": "rhf"
			},
			{
				"type": "unocc",
				"energy": 0.09744,
				"method": "rhf"
			}
		],
		"cosmo_sigma_profile": { 
			"-0.025": 0.0,
			"-0.024": 0.0,
			"-0.023": 0.0,
			"-0.022": 0.0,
			"-0.021": 0.0,
			"-0.02": 0.0,
			"-0.019": 0.0,
			"-0.018": 0.0,
			"-0.017": 0.0,
			"-0.016": 0.0,
			"-0.015": 0.0,
			"-0.014": 0.0,
			"-0.013": 1.21744383903,
			"-0.012": 4.58549961356,
			"-0.011": 4.5180643605,
			"-0.01": 5.1285626726,
			"-0.009": 5.79186772136,
			"-0.008": 5.88607932276,
			"-0.007": 8.03950573601,
			"-0.006": 8.00428667192,
			"-0.005": 9.97786892771,
			"-0.004": 10.8001445197,
			"-0.003": 8.17845727294,
			"-0.002": 8.49775265654,
			"-0.001": 7.90445445699,
			"0.0": 7.46481870729,
			"0.001": 7.38741886319,
			"0.002": 9.52678467885,
			"0.003": 9.86418559882,
			"0.004": 9.26403487065,
			"0.005": 12.4143699608,
			"0.006": 10.4965113205,
			"0.007": 3.42854905924,
			"0.008": 2.64324828094,
			"0.009": 2.8568702527,
			"0.01": 2.46768077361,
			"0.011": 2.25069435236,
			"0.012": 2.4132029634,
			"0.013": 2.6340489369,
			"0.014": 1.47615337386,
			"0.015": 1.00981348266,
			"0.016": 1.29967551178,
			"0.017": 0.835915064809,
			"0.018": 1.23329648304,
			"0.019": 0.730119167127,
			"0.02": 0.205654068856,
			"0.021": 0.0,
			"0.022": 0.0,
			"0.023": 0.0,
			"0.024": 0.0,
			"0.025": 0.0
		}
	}
}
