{
	 "smiles": "OC1=CC=C(CC(=O)NC2CCNCC2)C=C1", 
	 "Tm": 485.15, 
	 "num_atms": 35, 
	 "gaussian": { 
		 "optdone": 1, 
		 "sigma_profile": "yes", 
		 "theory": "DFT", 
		 "functional": "B3LYP", 
		 "basiset": "6-31G**", 
		 "properties": { 
			 "R2extent": 5122.848, 
			 "electric_dipole_moment_norm": 4.11992039486, 
			 "electric_quadrupole_moment_norm": 18.9215328703, 
			 "total_energy": -766.184674365, 
			 "HOMO_LUMO_gap": 0.20965, 
			 "cosmo_polarized_energy": -19.69, 
			 "cosmo_cavitation_energy": 36.74, 
			 "cosmo_dispersion_energy": -25.46, 
			 "cosmo_repulsion_energy": 2.0, 
			 "cosmo_total_nonelectrostatic_energy": 13.28, 
			 "SMD_solvation_energy": 3.53 
		},
		"coords": [
			{
				"x": 2.0229534759,
				"y": 3.8894677766,
				"z": -2.6443561608,
				"element": "O" 
			},
			{
				"x": 1.7435718751,
				"y": 2.5603884288,
				"z": -2.489358419,
				"element": "C" 
			},
			{
				"x": 2.566889496,
				"y": 1.6909662707,
				"z": -1.7692993369,
				"element": "C" 
			},
			{
				"x": 2.2184120587,
				"y": 0.3437790154,
				"z": -1.6493478559,
				"element": "C" 
			},
			{
				"x": 1.0565354742,
				"y": -0.1606093866,
				"z": -2.2404990962,
				"element": "C" 
			},
			{
				"x": 0.6848648435,
				"y": -1.6309048591,
				"z": -2.129657145,
				"element": "C" 
			},
			{
				"x": -0.7633059928,
				"y": -1.835679006,
				"z": -1.678717909,
				"element": "C" 
			},
			{
				"x": -1.6621203767,
				"y": -1.9832635938,
				"z": -2.5017422458,
				"element": "O" 
			},
			{
				"x": -1.0334047395,
				"y": -1.8540083813,
				"z": -0.3346206467,
				"element": "N" 
			},
			{
				"x": -0.1923560416,
				"y": -1.4493430474,
				"z": 0.7901949904,
				"element": "C" 
			},
			{
				"x": -0.4520036698,
				"y": -2.3901659419,
				"z": 1.9916874913,
				"element": "C" 
			},
			{
				"x": -0.1051373294,
				"y": -1.68623436,
				"z": 3.3104226082,
				"element": "C" 
			},
			{
				"x": -0.9084487606,
				"y": -0.4745549163,
				"z": 3.553173668,
				"element": "N" 
			},
			{
				"x": -1.4275326194,
				"y": 0.1656387781,
				"z": 2.3336501826,
				"element": "C" 
			},
			{
				"x": -0.4023757553,
				"y": 0.0361094812,
				"z": 1.2069362553,
				"element": "C" 
			},
			{
				"x": 0.2417452869,
				"y": 0.7276584974,
				"z": -2.9620986327,
				"element": "C" 
			},
			{
				"x": 0.5750293978,
				"y": 2.0718848831,
				"z": -3.0871338871,
				"element": "C" 
			},
			{
				"x": 2.8520743781,
				"y": 4.0932272667,
				"z": -2.1927050732,
				"element": "H" 
			},
			{
				"x": 3.4772207403,
				"y": 2.0619817175,
				"z": -1.3024235113,
				"element": "H" 
			},
			{
				"x": 2.8719807238,
				"y": -0.3218733239,
				"z": -1.0903554727,
				"element": "H" 
			},
			{
				"x": 1.3897184969,
				"y": -2.1462675079,
				"z": -1.4699460663,
				"element": "H" 
			},
			{
				"x": 0.743221058,
				"y": -2.1111367186,
				"z": -3.1112175724,
				"element": "H" 
			},
			{
				"x": -2.0275595541,
				"y": -1.9365133834,
				"z": -0.1522765035,
				"element": "H" 
			},
			{
				"x": 0.8459415482,
				"y": -1.5658001811,
				"z": 0.4717771921,
				"element": "H" 
			},
			{
				"x": 0.114310869,
				"y": -3.3204568761,
				"z": 1.8743671854,
				"element": "H" 
			},
			{
				"x": -1.5134435272,
				"y": -2.6722150388,
				"z": 2.0070370777,
				"element": "H" 
			},
			{
				"x": -0.2383204955,
				"y": -2.3692181216,
				"z": 4.1554849556,
				"element": "H" 
			},
			{
				"x": 0.9626186038,
				"y": -1.42085689,
				"z": 3.3018923945,
				"element": "H" 
			},
			{
				"x": -1.6784150381,
				"y": -0.692694135,
				"z": 4.1762159077,
				"element": "H" 
			},
			{
				"x": -2.3865612484,
				"y": -0.2674653755,
				"z": 1.9926410621,
				"element": "H" 
			},
			{
				"x": -1.6268333533,
				"y": 1.2233366109,
				"z": 2.5440631408,
				"element": "H" 
			},
			{
				"x": 0.5495529716,
				"y": 0.4541508747,
				"z": 1.5542915689,
				"element": "H" 
			},
			{
				"x": -0.7063176737,
				"y": 0.6200330255,
				"z": 0.3341639884,
				"element": "H" 
			},
			{
				"x": -0.6657616015,
				"y": 0.3515260084,
				"z": -3.425835167,
				"element": "H" 
			},
			{
				"x": -0.0540435207,
				"y": 2.7580124093,
				"z": -3.6448089674,
				"element": "H" 
			}
		],
		 "valence_orbital": [ 
			{
				"type": "occ",
				"energy": -0.25277,
				"method": "rhf"
			},
			{
				"type": "occ",
				"energy": -0.24647,
				"method": "rhf"
			},
			{
				"type": "occ",
				"energy": -0.23829,
				"method": "rhf"
			},
			{
				"type": "occ",
				"energy": -0.21644,
				"method": "rhf"
			},
			{
				"type": "occ",
				"energy": -0.21576,
				"method": "rhf"
			},
			{
				"type": "unocc",
				"energy": -0.00611,
				"method": "rhf"
			},
			{
				"type": "unocc",
				"energy": 0.00758,
				"method": "rhf"
			},
			{
				"type": "unocc",
				"energy": 0.03513,
				"method": "rhf"
			},
			{
				"type": "unocc",
				"energy": 0.0655,
				"method": "rhf"
			},
			{
				"type": "unocc",
				"energy": 0.06989,
				"method": "rhf"
			}
		],
		"cosmo_sigma_profile": { 
			"-0.025": 0.0,
			"-0.024": 0.0,
			"-0.023": 0.0,
			"-0.022": 0.0,
			"-0.021": 0.0,
			"-0.02": 0.0,
			"-0.019": 0.0,
			"-0.018": 0.160041092997,
			"-0.017": 1.28750965234,
			"-0.016": 0.804383214815,
			"-0.015": 0.806168669298,
			"-0.014": 1.57447311829,
			"-0.013": 1.07712558686,
			"-0.012": 1.42091441871,
			"-0.011": 1.17479266508,
			"-0.01": 3.04997639981,
			"-0.009": 4.0551855307,
			"-0.008": 3.46161272745,
			"-0.007": 6.68951361081,
			"-0.006": 10.6587247663,
			"-0.005": 13.8547225488,
			"-0.004": 19.7007808143,
			"-0.003": 27.8303638043,
			"-0.002": 30.102576238,
			"-0.001": 26.3179650641,
			"0.0": 22.7490776683,
			"0.001": 13.8364795105,
			"0.002": 13.1461419965,
			"0.003": 14.5384340697,
			"0.004": 15.3384159283,
			"0.005": 12.9057414118,
			"0.006": 7.00227480606,
			"0.007": 2.20151525858,
			"0.008": 3.51986965076,
			"0.009": 3.78060686752,
			"0.01": 3.18156213874,
			"0.011": 4.03974093747,
			"0.012": 2.98121946007,
			"0.013": 2.80896840134,
			"0.014": 5.47376408003,
			"0.015": 3.23595195127,
			"0.016": 0.635681901577,
			"0.017": 0.677607043823,
			"0.018": 0.279962844142,
			"0.019": 0.417290629474,
			"0.02": 0.0,
			"0.021": 0.0,
			"0.022": 0.0,
			"0.023": 0.0,
			"0.024": 0.0,
			"0.025": 0.0
		}
	}
}
