{
	 "smiles": "CCOC1=C(OCC)C=C(C=C1)S(=O)(=O)N1CCNCC1", 
	 "Tm": 406.15, 
	 "num_atms": 43, 
	 "gaussian": { 
		 "optdone": 1, 
		 "sigma_profile": "yes", 
		 "theory": "DFT", 
		 "functional": "B3LYP", 
		 "basiset": "6-31G**", 
		 "properties": { 
			 "R2extent": 8867.0838, 
			 "electric_dipole_moment_norm": 6.35033459985, 
			 "electric_quadrupole_moment_norm": 14.6713373, 
			 "total_energy": -1355.23922075, 
			 "HOMO_LUMO_gap": 0.18224, 
			 "cosmo_polarized_energy": -19.39, 
			 "cosmo_cavitation_energy": 45.09, 
			 "cosmo_dispersion_energy": -31.97, 
			 "cosmo_repulsion_energy": 2.47, 
			 "cosmo_total_nonelectrostatic_energy": 15.59, 
			 "SMD_solvation_energy": 3.85 
		},
		"coords": [
			{
				"x": 4.5657807842,
				"y": 1.9378539811,
				"z": -1.7385368816,
				"element": "C" 
			},
			{
				"x": 4.6447686604,
				"y": 1.3938269003,
				"z": -0.316731619,
				"element": "C" 
			},
			{
				"x": 3.8857025404,
				"y": 0.1892049902,
				"z": -0.1486248682,
				"element": "O" 
			},
			{
				"x": 2.5382956902,
				"y": 0.2462567173,
				"z": 0.0206338198,
				"element": "C" 
			},
			{
				"x": 1.8804537162,
				"y": -1.0053788255,
				"z": 0.103922037,
				"element": "C" 
			},
			{
				"x": 2.5708572922,
				"y": -2.1785705542,
				"z": -0.0472844656,
				"element": "O" 
			},
			{
				"x": 3.4077920978,
				"y": -2.5687737594,
				"z": 1.0589850735,
				"element": "C" 
			},
			{
				"x": 4.0647252511,
				"y": -3.8861166706,
				"z": 0.6907750743,
				"element": "C" 
			},
			{
				"x": 0.5012967343,
				"y": -1.0507800652,
				"z": 0.2816131883,
				"element": "C" 
			},
			{
				"x": -0.231604303,
				"y": 0.1355266973,
				"z": 0.3677164689,
				"element": "C" 
			},
			{
				"x": 0.4052216324,
				"y": 1.3730589172,
				"z": 0.3003221829,
				"element": "C" 
			},
			{
				"x": 1.7866695576,
				"y": 1.4259991567,
				"z": 0.1245065853,
				"element": "C" 
			},
			{
				"x": -1.9993015757,
				"y": 0.0612778549,
				"z": 0.6358234473,
				"element": "S" 
			},
			{
				"x": -2.3525636666,
				"y": -1.3594846103,
				"z": 0.7919188476,
				"element": "O" 
			},
			{
				"x": -2.369765339,
				"y": 1.0303058557,
				"z": 1.6748388727,
				"element": "O" 
			},
			{
				"x": -2.5916753039,
				"y": 0.6969725965,
				"z": -0.8210211183,
				"element": "N" 
			},
			{
				"x": -3.8434530871,
				"y": 1.4797647603,
				"z": -0.7489674189,
				"element": "C" 
			},
			{
				"x": -5.0904106344,
				"y": 0.5967530277,
				"z": -0.9154937985,
				"element": "C" 
			},
			{
				"x": -5.0410551374,
				"y": -0.2668460744,
				"z": -2.100061725,
				"element": "N" 
			},
			{
				"x": -3.8054559051,
				"y": -1.0561631578,
				"z": -2.1358158793,
				"element": "C" 
			},
			{
				"x": -2.5337416281,
				"y": -0.2031446735,
				"z": -1.9918453722,
				"element": "C" 
			},
			{
				"x": 3.5485041537,
				"y": 2.2372730301,
				"z": -2.0042028691,
				"element": "H" 
			},
			{
				"x": 5.2167823332,
				"y": 2.8126533937,
				"z": -1.8387477719,
				"element": "H" 
			},
			{
				"x": 4.8957749873,
				"y": 1.1782302526,
				"z": -2.4524818418,
				"element": "H" 
			},
			{
				"x": 4.3395093261,
				"y": 2.1420576135,
				"z": 0.4249548651,
				"element": "H" 
			},
			{
				"x": 5.669952279,
				"y": 1.0978012115,
				"z": -0.0794328156,
				"element": "H" 
			},
			{
				"x": 4.1575969507,
				"y": -1.7926950753,
				"z": 1.2475029896,
				"element": "H" 
			},
			{
				"x": 2.7860923814,
				"y": -2.6751563748,
				"z": 1.9588927854,
				"element": "H" 
			},
			{
				"x": 3.3101563772,
				"y": -4.653064854,
				"z": 0.4941641467,
				"element": "H" 
			},
			{
				"x": 4.6803065184,
				"y": -3.7704082765,
				"z": -0.2058562747,
				"element": "H" 
			},
			{
				"x": 4.7044214874,
				"y": -4.2296538184,
				"z": 1.5098606054,
				"element": "H" 
			},
			{
				"x": 0.0060776171,
				"y": -2.0123911309,
				"z": 0.351134053,
				"element": "H" 
			},
			{
				"x": -0.1696938351,
				"y": 2.2886679477,
				"z": 0.3827474164,
				"element": "H" 
			},
			{
				"x": 2.2707870991,
				"y": 2.3929872734,
				"z": 0.0637247243,
				"element": "H" 
			},
			{
				"x": -3.7946167644,
				"y": 2.2137432978,
				"z": -1.5661201436,
				"element": "H" 
			},
			{
				"x": -3.8545415613,
				"y": 2.0266381115,
				"z": 0.1954174459,
				"element": "H" 
			},
			{
				"x": -5.9864009021,
				"y": 1.2258992199,
				"z": -0.9718779181,
				"element": "H" 
			},
			{
				"x": -5.198580401,
				"y": -0.0456351759,
				"z": -0.0325671499,
				"element": "H" 
			},
			{
				"x": -5.0938126321,
				"y": 0.3127351799,
				"z": -2.9369720247,
				"element": "H" 
			},
			{
				"x": -3.8384109673,
				"y": -1.7800574327,
				"z": -1.314495449,
				"element": "H" 
			},
			{
				"x": -3.7707320748,
				"y": -1.6187998363,
				"z": -3.0759512854,
				"element": "H" 
			},
			{
				"x": -1.6381825154,
				"y": -0.8274028739,
				"z": -1.9214473544,
				"element": "H" 
			},
			{
				"x": -2.4099272334,
				"y": 0.441235253,
				"z": -2.8737185848,
				"element": "H" 
			}
		],
		 "valence_orbital": [ 
			{
				"type": "occ",
				"energy": -0.27595,
				"method": "rhf"
			},
			{
				"type": "occ",
				"energy": -0.26536,
				"method": "rhf"
			},
			{
				"type": "occ",
				"energy": -0.25591,
				"method": "rhf"
			},
			{
				"type": "occ",
				"energy": -0.22929,
				"method": "rhf"
			},
			{
				"type": "occ",
				"energy": -0.20568,
				"method": "rhf"
			},
			{
				"type": "unocc",
				"energy": -0.02344,
				"method": "rhf"
			},
			{
				"type": "unocc",
				"energy": -0.01295,
				"method": "rhf"
			},
			{
				"type": "unocc",
				"energy": 0.06293,
				"method": "rhf"
			},
			{
				"type": "unocc",
				"energy": 0.07927,
				"method": "rhf"
			},
			{
				"type": "unocc",
				"energy": 0.08445,
				"method": "rhf"
			}
		],
		"cosmo_sigma_profile": { 
			"-0.025": 0.0,
			"-0.024": 0.0,
			"-0.023": 0.0,
			"-0.022": 0.0,
			"-0.021": 0.0,
			"-0.02": 0.0,
			"-0.019": 0.0,
			"-0.018": 0.0,
			"-0.017": 0.0,
			"-0.016": 0.0,
			"-0.015": 0.0,
			"-0.014": 0.0,
			"-0.013": 0.0,
			"-0.012": 0.0,
			"-0.011": 0.0,
			"-0.01": 1.01036590243,
			"-0.009": 1.93966714392,
			"-0.008": 4.37797810414,
			"-0.007": 6.997570727,
			"-0.006": 10.3010730029,
			"-0.005": 22.4899436376,
			"-0.004": 39.8180501954,
			"-0.003": 41.3685468552,
			"-0.002": 37.45191999,
			"-0.001": 32.1803603841,
			"0.0": 31.2261033479,
			"0.001": 23.2955798817,
			"0.002": 17.7200258304,
			"0.003": 14.9432368347,
			"0.004": 9.12239652609,
			"0.005": 6.87163586602,
			"0.006": 6.98439557718,
			"0.007": 5.66772454653,
			"0.008": 5.50207996497,
			"0.009": 6.35008389037,
			"0.01": 8.50252917395,
			"0.011": 8.88205971262,
			"0.012": 6.88015836573,
			"0.013": 1.1758705626,
			"0.014": 0.354704544613,
			"0.015": 0.709708183971,
			"0.016": 0.254254534496,
			"0.017": 0.63272508784,
			"0.018": 0.579973025693,
			"0.019": 0.0,
			"0.02": 0.0,
			"0.021": 0.0,
			"0.022": 0.0,
			"0.023": 0.0,
			"0.024": 0.0,
			"0.025": 0.0
		}
	}
}
