{
	 "smiles": "CN1C=CC(=C1)C(=O)CCl", 
	 "Tm": 323.15, 
	 "num_atms": 18, 
	 "gaussian": { 
		 "optdone": 1, 
		 "sigma_profile": "yes", 
		 "theory": "DFT", 
		 "functional": "B3LYP", 
		 "basiset": "6-31G**", 
		 "properties": { 
			 "R2extent": 2337.1185, 
			 "electric_dipole_moment_norm": 5.39231704187, 
			 "electric_quadrupole_moment_norm": 12.6379904447, 
			 "total_energy": -861.721015991, 
			 "HOMO_LUMO_gap": 0.18447, 
			 "cosmo_polarized_energy": -12.55, 
			 "cosmo_cavitation_energy": 23.97, 
			 "cosmo_dispersion_energy": -17.4, 
			 "cosmo_repulsion_energy": 1.42, 
			 "cosmo_total_nonelectrostatic_energy": 8.0, 
			 "SMD_solvation_energy": 5.16 
		},
		"coords": [
			{
				"x": 1.4386753913,
				"y": -2.5385148417,
				"z": 0.6448564589,
				"element": "C" 
			},
			{
				"x": 0.5371553568,
				"y": -1.7409037118,
				"z": -0.170493311,
				"element": "N" 
			},
			{
				"x": -0.4618346407,
				"y": -2.2518999247,
				"z": -0.9855642317,
				"element": "C" 
			},
			{
				"x": -1.0509747117,
				"y": -1.2105720431,
				"z": -1.652304165,
				"element": "C" 
			},
			{
				"x": -0.3900088115,
				"y": -0.0103023214,
				"z": -1.2355823239,
				"element": "C" 
			},
			{
				"x": 0.588490797,
				"y": -0.3881878167,
				"z": -0.3196239261,
				"element": "C" 
			},
			{
				"x": -0.7465605963,
				"y": 1.3313653371,
				"z": -1.6902856317,
				"element": "C" 
			},
			{
				"x": -1.6540382405,
				"y": 1.5358508184,
				"z": -2.4862661294,
				"element": "O" 
			},
			{
				"x": -0.0184993451,
				"y": 2.5504680234,
				"z": -1.1060044708,
				"element": "C" 
			},
			{
				"x": 1.7630666437,
				"y": 2.5803866056,
				"z": -1.4753939987,
				"element": "Cl" 
			},
			{
				"x": 1.9574119746,
				"y": -1.8873251887,
				"z": 1.3503194632,
				"element": "H" 
			},
			{
				"x": 0.8725249945,
				"y": -3.2835901799,
				"z": 1.2102228197,
				"element": "H" 
			},
			{
				"x": 2.1822173204,
				"y": -3.052332007,
				"z": 0.0263886971,
				"element": "H" 
			},
			{
				"x": -0.6594195161,
				"y": -3.3137568726,
				"z": -1.0075635552,
				"element": "H" 
			},
			{
				"x": -1.8704562796,
				"y": -1.2614497704,
				"z": -2.3533347924,
				"element": "H" 
			},
			{
				"x": 1.3221968825,
				"y": 0.2009230644,
				"z": 0.2099314871,
				"element": "H" 
			},
			{
				"x": -0.4520382493,
				"y": 3.4448006887,
				"z": -1.5493914447,
				"element": "H" 
			},
			{
				"x": -0.1097089701,
				"y": 2.5829401405,
				"z": -0.0178109454,
				"element": "H" 
			}
		],
		 "valence_orbital": [ 
			{
				"type": "occ",
				"energy": -0.30866,
				"method": "rhf"
			},
			{
				"type": "occ",
				"energy": -0.29918,
				"method": "rhf"
			},
			{
				"type": "occ",
				"energy": -0.24846,
				"method": "rhf"
			},
			{
				"type": "occ",
				"energy": -0.24493,
				"method": "rhf"
			},
			{
				"type": "occ",
				"energy": -0.22791,
				"method": "rhf"
			},
			{
				"type": "unocc",
				"energy": -0.04344,
				"method": "rhf"
			},
			{
				"type": "unocc",
				"energy": 0.02156,
				"method": "rhf"
			},
			{
				"type": "unocc",
				"energy": 0.03789,
				"method": "rhf"
			},
			{
				"type": "unocc",
				"energy": 0.08064,
				"method": "rhf"
			},
			{
				"type": "unocc",
				"energy": 0.09929,
				"method": "rhf"
			}
		],
		"cosmo_sigma_profile": { 
			"-0.025": 0.0,
			"-0.024": 0.0,
			"-0.023": 0.0,
			"-0.022": 0.0,
			"-0.021": 0.0,
			"-0.02": 0.0,
			"-0.019": 0.0,
			"-0.018": 0.0,
			"-0.017": 0.0,
			"-0.016": 0.0,
			"-0.015": 0.0,
			"-0.014": 0.0,
			"-0.013": 0.0,
			"-0.012": 0.0,
			"-0.011": 0.0,
			"-0.01": 0.0,
			"-0.009": 1.64363561589,
			"-0.008": 6.83557232148,
			"-0.007": 11.2135120229,
			"-0.006": 16.1723447982,
			"-0.005": 15.476056961,
			"-0.004": 14.0802336504,
			"-0.003": 13.9153851324,
			"-0.002": 9.13278935487,
			"-0.001": 8.01524311649,
			"0.0": 8.54446389796,
			"0.001": 8.98907325673,
			"0.002": 9.63990117893,
			"0.003": 11.3064881381,
			"0.004": 12.7935200724,
			"0.005": 16.0205017149,
			"0.006": 12.2279089535,
			"0.007": 2.24956461071,
			"0.008": 1.67088680011,
			"0.009": 1.11034852522,
			"0.01": 2.32310619418,
			"0.011": 2.9585287695,
			"0.012": 4.44582621862,
			"0.013": 2.20518909218,
			"0.014": 0.0925386452769,
			"0.015": 0.0,
			"0.016": 0.0,
			"0.017": 0.0,
			"0.018": 0.0,
			"0.019": 0.0,
			"0.02": 0.0,
			"0.021": 0.0,
			"0.022": 0.0,
			"0.023": 0.0,
			"0.024": 0.0,
			"0.025": 0.0
		}
	}
}
