{
	 "smiles": "OC(=O)CCCC1CCCCC1", 
	 "Tm": 304.15, 
	 "num_atms": 30, 
	 "gaussian": { 
		 "optdone": 1, 
		 "sigma_profile": "yes", 
		 "theory": "DFT", 
		 "functional": "B3LYP", 
		 "basiset": "6-31G**", 
		 "properties": { 
			 "R2extent": 3236.0032, 
			 "electric_dipole_moment_norm": 4.06339834867, 
			 "electric_quadrupole_moment_norm": 17.7256054286, 
			 "total_energy": -542.391010664, 
			 "HOMO_LUMO_gap": 0.27433, 
			 "cosmo_polarized_energy": -13.18, 
			 "cosmo_cavitation_energy": 29.94, 
			 "cosmo_dispersion_energy": -21.49, 
			 "cosmo_repulsion_energy": 1.73, 
			 "cosmo_total_nonelectrostatic_energy": 10.19, 
			 "SMD_solvation_energy": 4.86 
		},
		"coords": [
			{
				"x": 2.3279304033,
				"y": -3.1889312211,
				"z": 1.3800383069,
				"element": "O" 
			},
			{
				"x": 1.2885887831,
				"y": -2.3151389482,
				"z": 1.2521366846,
				"element": "C" 
			},
			{
				"x": 0.1648481191,
				"y": -2.7364986915,
				"z": 1.13065345,
				"element": "O" 
			},
			{
				"x": 1.6638597542,
				"y": -0.8407897155,
				"z": 1.2344195965,
				"element": "C" 
			},
			{
				"x": 2.389727865,
				"y": -0.4273861457,
				"z": -0.0695392034,
				"element": "C" 
			},
			{
				"x": 1.6305897056,
				"y": -0.7176471841,
				"z": -1.3831214535,
				"element": "C" 
			},
			{
				"x": 0.5855189655,
				"y": 0.3123234965,
				"z": -1.8685897008,
				"element": "C" 
			},
			{
				"x": 1.2071562606,
				"y": 1.6610703301,
				"z": -2.2821857588,
				"element": "C" 
			},
			{
				"x": 0.1591880377,
				"y": 2.6024223695,
				"z": -2.8995162329,
				"element": "C" 
			},
			{
				"x": -1.0427580671,
				"y": 2.8084007002,
				"z": -1.9647902527,
				"element": "C" 
			},
			{
				"x": -1.653582729,
				"y": 1.4673639956,
				"z": -1.5296656661,
				"element": "C" 
			},
			{
				"x": -0.5919650378,
				"y": 0.5496172121,
				"z": -0.9026524337,
				"element": "C" 
			},
			{
				"x": 3.1601181664,
				"y": -2.704841304,
				"z": 1.4759709598,
				"element": "H" 
			},
			{
				"x": 2.3118576175,
				"y": -0.6197379628,
				"z": 2.0934023108,
				"element": "H" 
			},
			{
				"x": 0.7391294357,
				"y": -0.280681493,
				"z": 1.3674719419,
				"element": "H" 
			},
			{
				"x": 3.3536606543,
				"y": -0.9528246397,
				"z": -0.1082829881,
				"element": "H" 
			},
			{
				"x": 2.641563272,
				"y": 0.6366665166,
				"z": 0.0025662202,
				"element": "H" 
			},
			{
				"x": 1.1440512651,
				"y": -1.6979885392,
				"z": -1.3055108011,
				"element": "H" 
			},
			{
				"x": 2.3775800328,
				"y": -0.8184819131,
				"z": -2.1812119926,
				"element": "H" 
			},
			{
				"x": 0.1557486399,
				"y": -0.1268624256,
				"z": -2.7831772147,
				"element": "H" 
			},
			{
				"x": 1.6522282542,
				"y": 2.1499779213,
				"z": -1.4032868333,
				"element": "H" 
			},
			{
				"x": 2.0268942553,
				"y": 1.493877548,
				"z": -2.99313866,
				"element": "H" 
			},
			{
				"x": 0.6176190667,
				"y": 3.5672989923,
				"z": -3.1481892135,
				"element": "H" 
			},
			{
				"x": -0.1921784502,
				"y": 2.1719353548,
				"z": -3.8480397224,
				"element": "H" 
			},
			{
				"x": -1.800101545,
				"y": 3.433097752,
				"z": -2.4535928333,
				"element": "H" 
			},
			{
				"x": -0.7144983441,
				"y": 3.3595252463,
				"z": -1.0715477955,
				"element": "H" 
			},
			{
				"x": -2.0944632784,
				"y": 0.9669837671,
				"z": -2.4035486566,
				"element": "H" 
			},
			{
				"x": -2.4737907116,
				"y": 1.6352300438,
				"z": -0.8214672188,
				"element": "H" 
			},
			{
				"x": -1.0330124712,
				"y": -0.407029904,
				"z": -0.5982174812,
				"element": "H" 
			},
			{
				"x": -0.2221079192,
				"y": 1.0311488413,
				"z": 0.0136126422,
				"element": "H" 
			}
		],
		 "valence_orbital": [ 
			{
				"type": "occ",
				"energy": -0.31285,
				"method": "rhf"
			},
			{
				"type": "occ",
				"energy": -0.30816,
				"method": "rhf"
			},
			{
				"type": "occ",
				"energy": -0.2925,
				"method": "rhf"
			},
			{
				"type": "occ",
				"energy": -0.29136,
				"method": "rhf"
			},
			{
				"type": "occ",
				"energy": -0.26497,
				"method": "rhf"
			},
			{
				"type": "unocc",
				"energy": 0.00936,
				"method": "rhf"
			},
			{
				"type": "unocc",
				"energy": 0.04466,
				"method": "rhf"
			},
			{
				"type": "unocc",
				"energy": 0.08716,
				"method": "rhf"
			},
			{
				"type": "unocc",
				"energy": 0.09355,
				"method": "rhf"
			},
			{
				"type": "unocc",
				"energy": 0.10865,
				"method": "rhf"
			}
		],
		"cosmo_sigma_profile": { 
			"-0.025": 0.0,
			"-0.024": 0.0,
			"-0.023": 0.0,
			"-0.022": 0.0,
			"-0.021": 0.0,
			"-0.02": 0.0,
			"-0.019": 0.0422473314667,
			"-0.018": 0.74982235477,
			"-0.017": 1.21637091504,
			"-0.016": 0.61873824726,
			"-0.015": 1.34689282992,
			"-0.014": 1.13785774009,
			"-0.013": 0.830660689365,
			"-0.012": 1.04116978864,
			"-0.011": 1.65637905093,
			"-0.01": 1.12307716854,
			"-0.009": 1.07212524112,
			"-0.008": 1.08563638131,
			"-0.007": 2.27073960387,
			"-0.006": 3.01895747272,
			"-0.005": 3.92807853842,
			"-0.004": 6.41465006501,
			"-0.003": 11.4113071122,
			"-0.002": 30.659474997,
			"-0.001": 41.8111564007,
			"0.0": 41.1079037302,
			"0.001": 29.9090035049,
			"0.002": 10.569763155,
			"0.003": 3.53235701119,
			"0.004": 3.19310049899,
			"0.005": 2.38190042122,
			"0.006": 2.61382904676,
			"0.007": 2.26781811811,
			"0.008": 2.09610055933,
			"0.009": 3.09328144327,
			"0.01": 4.23034167036,
			"0.011": 5.31636475689,
			"0.012": 5.58406056808,
			"0.013": 2.67065180831,
			"0.014": 0.235554829885,
			"0.015": 0.0,
			"0.016": 0.0,
			"0.017": 0.0,
			"0.018": 0.0,
			"0.019": 0.0,
			"0.02": 0.0,
			"0.021": 0.0,
			"0.022": 0.0,
			"0.023": 0.0,
			"0.024": 0.0,
			"0.025": 0.0
		}
	}
}
