{
	 "smiles": "NC1=CC(N)=C(C=C1C(=O)CI)C(=O)CI", 
	 "Tm": 438.15, 
	 "num_atms": 26, 
	 "gaussian": { 
		 "optdone": 1, 
		 "sigma_profile": "no", 
		 "theory": "DFT", 
		 "functional": "B3LYP", 
		 "basiset": "6-31G**", 
		 "properties": { 
			 "R2extent": 4272.8286, 
			 "electric_dipole_moment_norm": 5.73260917035, 
			 "electric_quadrupole_moment_norm": 14.1032976743, 
			 "total_energy": -669.837193128, 
			 "HOMO_LUMO_gap": 0.1389, 
			 "cosmo_polarized_energy": -200331.72, 
			 "cosmo_cavitation_energy": 35.84, 
			 "cosmo_dispersion_energy": -28.29, 
			 "cosmo_repulsion_energy": 2.16, 
			 "cosmo_total_nonelectrostatic_energy": 9.72, 
			 "SMD_solvation_energy": 4.98 
		},
		"coords": [
			{
				"x": 1.2547718768,
				"y": -2.6500354038,
				"z": 1.8977002222,
				"element": "N" 
			},
			{
				"x": 0.903727654,
				"y": -1.488525703,
				"z": 1.3044132325,
				"element": "C" 
			},
			{
				"x": 1.6568790398,
				"y": -0.3218814858,
				"z": 1.5192314048,
				"element": "C" 
			},
			{
				"x": 1.3468972172,
				"y": 0.9029624277,
				"z": 0.9272127402,
				"element": "C" 
			},
			{
				"x": 2.1541883997,
				"y": 1.9922245991,
				"z": 1.2071237103,
				"element": "N" 
			},
			{
				"x": 0.228108713,
				"y": 0.9809570508,
				"z": 0.0304420471,
				"element": "C" 
			},
			{
				"x": -0.5401108086,
				"y": -0.1764680225,
				"z": -0.1341645691,
				"element": "C" 
			},
			{
				"x": -0.2602624038,
				"y": -1.4100174538,
				"z": 0.4561009765,
				"element": "C" 
			},
			{
				"x": -1.1012424244,
				"y": -2.5887536422,
				"z": 0.2207995497,
				"element": "C" 
			},
			{
				"x": -0.8520043465,
				"y": -3.7011653118,
				"z": 0.701282195,
				"element": "O" 
			},
			{
				"x": -2.3334668303,
				"y": -2.4879767465,
				"z": -0.6686705435,
				"element": "C" 
			},
			{
				"x": -4.0708265418,
				"y": -1.7583546242,
				"z": 0.4412072636,
				"element": "I" 
			},
			{
				"x": -0.1865736772,
				"y": 2.1267320439,
				"z": -0.8204696413,
				"element": "C" 
			},
			{
				"x": -1.2359480447,
				"y": 2.1015310584,
				"z": -1.4545447895,
				"element": "O" 
			},
			{
				"x": 0.7302597099,
				"y": 3.3246991994,
				"z": -1.0485116335,
				"element": "C" 
			},
			{
				"x": 0.2541369547,
				"y": 4.9814031453,
				"z": 0.3124383013,
				"element": "I" 
			},
			{
				"x": 2.0574105351,
				"y": -2.6920934859,
				"z": 2.5033017888,
				"element": "H" 
			},
			{
				"x": 0.6668298924,
				"y": -3.4604378749,
				"z": 1.7302577443,
				"element": "H" 
			},
			{
				"x": 2.5041520371,
				"y": -0.3732181303,
				"z": 2.1996879001,
				"element": "H" 
			},
			{
				"x": 1.70014816,
				"y": 2.8944691452,
				"z": 1.2849197601,
				"element": "H" 
			},
			{
				"x": 2.8162149464,
				"y": 1.841970229,
				"z": 1.9566024656,
				"element": "H" 
			},
			{
				"x": -1.397180468,
				"y": -0.065866606,
				"z": -0.7871216451,
				"element": "H" 
			},
			{
				"x": -2.2311306591,
				"y": -1.8196662719,
				"z": -1.5204161941,
				"element": "H" 
			},
			{
				"x": -2.6061568978,
				"y": -3.4903721771,
				"z": -0.9884021813,
				"element": "H" 
			},
			{
				"x": 1.7896700904,
				"y": 3.1243207985,
				"z": -0.9020500955,
				"element": "H" 
			},
			{
				"x": 0.5223078757,
				"y": 3.7286632422,
				"z": -2.0362700092,
				"element": "H" 
			}
		],
		 "valence_orbital": [ 
			{
				"type": "occ",
				"energy": -0.26018,
				"method": "rhf"
			},
			{
				"type": "occ",
				"energy": -0.25715,
				"method": "rhf"
			},
			{
				"type": "occ",
				"energy": -0.25269,
				"method": "rhf"
			},
			{
				"type": "occ",
				"energy": -0.2365,
				"method": "rhf"
			},
			{
				"type": "occ",
				"energy": -0.22267,
				"method": "rhf"
			},
			{
				"type": "unocc",
				"energy": -0.08377,
				"method": "rhf"
			},
			{
				"type": "unocc",
				"energy": -0.07479,
				"method": "rhf"
			},
			{
				"type": "unocc",
				"energy": -0.03268,
				"method": "rhf"
			},
			{
				"type": "unocc",
				"energy": -0.03028,
				"method": "rhf"
			},
			{
				"type": "unocc",
				"energy": 0.02156,
				"method": "rhf"
			}
		],
		"cosmo_sigma_profile": { 
			"0.0": 0.0,
			"0.0": 0.0,
			"0.0": 0.0,
			"0.0": 0.0,
			"0.0": 0.0,
			"0.0": 0.0,
			"0.0": 0.0,
			"0.0": 0.0,
			"0.0": 0.0,
			"0.0": 0.0,
			"0.0": 0.0,
			"0.0": 0.0,
			"0.0": 0.0,
			"0.0": 0.0,
			"0.0": 0.0,
			"0.0": 0.0,
			"0.0": 0.0,
			"0.0": 0.0,
			"0.0": 0.0,
			"0.0": 0.0,
			"0.0": 0.0,
			"0.0": 0.0,
			"0.0": 0.0,
			"0.0": 0.0,
			"0.0": 0.0,
			"0.0": 0.0,
			"0.0": 0.0,
			"0.0": 0.0,
			"0.0": 0.0,
			"0.0": 0.0,
			"0.0": 0.0,
			"0.0": 0.0,
			"0.0": 0.0,
			"0.0": 0.0,
			"0.0": 0.0,
			"0.0": 0.0,
			"0.0": 0.0,
			"0.0": 0.0,
			"0.0": 0.0,
			"0.0": 0.0,
			"0.0": 0.0,
			"0.0": 0.0,
			"0.0": 0.0,
			"0.0": 0.0,
			"0.0": 0.0,
			"0.0": 0.0,
			"0.0": 0.0,
			"0.0": 0.0,
			"0.0": 0.0,
			"0.0": 0.0,
			"0.0": 0.0
		}
	}
}
