{
	 "smiles": "COC1=CC=C(C=C1)C(=O)NNC(=O)C1=CC=CC2=C1C=CC=C2", 
	 "Tm": 462.15, 
	 "num_atms": 40, 
	 "gaussian": { 
		 "optdone": 1, 
		 "sigma_profile": "yes", 
		 "theory": "DFT", 
		 "functional": "B3LYP", 
		 "basiset": "6-31G**", 
		 "properties": { 
			 "R2extent": 9274.5723, 
			 "electric_dipole_moment_norm": 7.26954386671, 
			 "electric_quadrupole_moment_norm": 18.63194238, 
			 "total_energy": -1068.8333052, 
			 "HOMO_LUMO_gap": 0.16856, 
			 "cosmo_polarized_energy": -21.6, 
			 "cosmo_cavitation_energy": 44.63, 
			 "cosmo_dispersion_energy": -30.24, 
			 "cosmo_repulsion_energy": 2.31, 
			 "cosmo_total_nonelectrostatic_energy": 16.69, 
			 "SMD_solvation_energy": 9.25 
		},
		"coords": [
			{
				"x": -0.202893075,
				"y": 5.3837756248,
				"z": 1.5322929796,
				"element": "C" 
			},
			{
				"x": 0.6861798829,
				"y": 4.6815970444,
				"z": 0.6749853806,
				"element": "O" 
			},
			{
				"x": 0.6673888663,
				"y": 3.3225632024,
				"z": 0.6915473992,
				"element": "C" 
			},
			{
				"x": 1.5737070556,
				"y": 2.6905929484,
				"z": -0.1777700104,
				"element": "C" 
			},
			{
				"x": 1.6325701553,
				"y": 1.3088816538,
				"z": -0.2346352885,
				"element": "C" 
			},
			{
				"x": 0.7840019366,
				"y": 0.5176103676,
				"z": 0.5597747933,
				"element": "C" 
			},
			{
				"x": -0.104544809,
				"y": 1.1559213499,
				"z": 1.4326649465,
				"element": "C" 
			},
			{
				"x": -0.1704116686,
				"y": 2.5480565102,
				"z": 1.5051285818,
				"element": "C" 
			},
			{
				"x": 0.9102878396,
				"y": -0.9638892287,
				"z": 0.4369965353,
				"element": "C" 
			},
			{
				"x": 1.8987231288,
				"y": -1.5161242643,
				"z": -0.0247273606,
				"element": "O" 
			},
			{
				"x": -0.176349555,
				"y": -1.6970039448,
				"z": 0.9041221195,
				"element": "N" 
			},
			{
				"x": -0.1834635529,
				"y": -3.0801755036,
				"z": 0.7816646507,
				"element": "N" 
			},
			{
				"x": -0.1246850295,
				"y": -3.7063007158,
				"z": -0.469981321,
				"element": "C" 
			},
			{
				"x": 0.3563099764,
				"y": -4.8216297518,
				"z": -0.5644347267,
				"element": "O" 
			},
			{
				"x": -0.7146625425,
				"y": -2.971379549,
				"z": -1.6413922994,
				"element": "C" 
			},
			{
				"x": 0.0715666495,
				"y": -2.9065058392,
				"z": -2.7764610701,
				"element": "C" 
			},
			{
				"x": -0.377602043,
				"y": -2.242271532,
				"z": -3.9383457521,
				"element": "C" 
			},
			{
				"x": -1.624910688,
				"y": -1.6624415526,
				"z": -3.9613793118,
				"element": "C" 
			},
			{
				"x": -2.4821577097,
				"y": -1.7359537396,
				"z": -2.8314345952,
				"element": "C" 
			},
			{
				"x": -2.0322417919,
				"y": -2.4070915149,
				"z": -1.6442867933,
				"element": "C" 
			},
			{
				"x": -2.9358350807,
				"y": -2.5058279223,
				"z": -0.5468180918,
				"element": "C" 
			},
			{
				"x": -4.1933824346,
				"y": -1.9455367494,
				"z": -0.6075532177,
				"element": "C" 
			},
			{
				"x": -4.6228788904,
				"y": -1.26134103,
				"z": -1.7694991615,
				"element": "C" 
			},
			{
				"x": -3.7847537102,
				"y": -1.1668760601,
				"z": -2.8561068935,
				"element": "C" 
			},
			{
				"x": -0.0210709746,
				"y": 6.4436311809,
				"z": 1.3497181814,
				"element": "H" 
			},
			{
				"x": -1.2507662103,
				"y": 5.1520292339,
				"z": 1.3038681457,
				"element": "H" 
			},
			{
				"x": -0.0059340555,
				"y": 5.1602405049,
				"z": 2.5882801696,
				"element": "H" 
			},
			{
				"x": 2.218252141,
				"y": 3.3108349612,
				"z": -0.7917237421,
				"element": "H" 
			},
			{
				"x": 2.3345006093,
				"y": 0.8087628278,
				"z": -0.8931502898,
				"element": "H" 
			},
			{
				"x": -0.7355845858,
				"y": 0.5740119377,
				"z": 2.0979460252,
				"element": "H" 
			},
			{
				"x": -0.8609381699,
				"y": 3.0123988567,
				"z": 2.1986071235,
				"element": "H" 
			},
			{
				"x": -1.0893856775,
				"y": -1.266774471,
				"z": 0.9568603944,
				"element": "H" 
			},
			{
				"x": 0.397620679,
				"y": -3.5561828355,
				"z": 1.4648379308,
				"element": "H" 
			},
			{
				"x": 1.055886711,
				"y": -3.3617012367,
				"z": -2.7540771117,
				"element": "H" 
			},
			{
				"x": 0.2688516911,
				"y": -2.1905074883,
				"z": -4.8091085823,
				"element": "H" 
			},
			{
				"x": -1.9774711183,
				"y": -1.1447647225,
				"z": -4.8497682225,
				"element": "H" 
			},
			{
				"x": -2.6305714857,
				"y": -3.0520749882,
				"z": 0.3400846016,
				"element": "H" 
			},
			{
				"x": -4.8665205339,
				"y": -2.040182335,
				"z": 0.2398737556,
				"element": "H" 
			},
			{
				"x": -5.61624535,
				"y": -0.8238352617,
				"z": -1.803569497,
				"element": "H" 
			},
			{
				"x": -4.1100865797,
				"y": -0.6578359678,
				"z": -3.7598303747,
				"element": "H" 
			}
		],
		 "valence_orbital": [ 
			{
				"type": "occ",
				"energy": -0.25992,
				"method": "rhf"
			},
			{
				"type": "occ",
				"energy": -0.24904,
				"method": "rhf"
			},
			{
				"type": "occ",
				"energy": -0.24652,
				"method": "rhf"
			},
			{
				"type": "occ",
				"energy": -0.23295,
				"method": "rhf"
			},
			{
				"type": "occ",
				"energy": -0.22073,
				"method": "rhf"
			},
			{
				"type": "unocc",
				"energy": -0.05217,
				"method": "rhf"
			},
			{
				"type": "unocc",
				"energy": -0.03547,
				"method": "rhf"
			},
			{
				"type": "unocc",
				"energy": -0.01504,
				"method": "rhf"
			},
			{
				"type": "unocc",
				"energy": -0.01347,
				"method": "rhf"
			},
			{
				"type": "unocc",
				"energy": 0.00024,
				"method": "rhf"
			}
		],
		"cosmo_sigma_profile": { 
			"-0.025": 0.0,
			"-0.024": 0.0,
			"-0.023": 0.0,
			"-0.022": 0.0,
			"-0.021": 0.0,
			"-0.02": 0.0,
			"-0.019": 0.0,
			"-0.018": 0.0,
			"-0.017": 0.0,
			"-0.016": 0.0,
			"-0.015": 0.0812101217861,
			"-0.014": 0.891460162472,
			"-0.013": 1.30370783356,
			"-0.012": 1.64117001573,
			"-0.011": 1.31319756291,
			"-0.01": 2.7742325406,
			"-0.009": 2.27518123786,
			"-0.008": 2.90482902422,
			"-0.007": 7.94944831469,
			"-0.006": 27.6169251977,
			"-0.005": 29.7282078817,
			"-0.004": 31.2343465628,
			"-0.003": 24.8357788042,
			"-0.002": 19.9316550117,
			"-0.001": 17.6182319,
			"0.0": 20.1558454882,
			"0.001": 21.8891009826,
			"0.002": 25.1709216148,
			"0.003": 37.7422001347,
			"0.004": 28.9923198935,
			"0.005": 8.2318983679,
			"0.006": 5.81170679566,
			"0.007": 5.18047636358,
			"0.008": 4.31253684647,
			"0.009": 4.9813216358,
			"0.01": 3.56795902547,
			"0.011": 4.98106677391,
			"0.012": 7.29748599502,
			"0.013": 6.25212997531,
			"0.014": 0.391493378147,
			"0.015": 0.0,
			"0.016": 0.0,
			"0.017": 0.0,
			"0.018": 0.0,
			"0.019": 0.0,
			"0.02": 0.0,
			"0.021": 0.0,
			"0.022": 0.0,
			"0.023": 0.0,
			"0.024": 0.0,
			"0.025": 0.0
		}
	}
}
