{
	 "smiles": "NC(=S)NCC1=CC=C(F)C=C1", 
	 "Tm": 393.15, 
	 "num_atms": 21, 
	 "gaussian": { 
		 "optdone": 1, 
		 "sigma_profile": "yes", 
		 "theory": "DFT", 
		 "functional": "B3LYP", 
		 "basiset": "6-31G**", 
		 "properties": { 
			 "R2extent": 3608.385, 
			 "electric_dipole_moment_norm": 5.02286389324, 
			 "electric_quadrupole_moment_norm": 19.3676543851, 
			 "total_energy": -917.817988706, 
			 "HOMO_LUMO_gap": 0.17158, 
			 "cosmo_polarized_energy": -18.38, 
			 "cosmo_cavitation_energy": 27.23, 
			 "cosmo_dispersion_energy": -19.89, 
			 "cosmo_repulsion_energy": 1.54, 
			 "cosmo_total_nonelectrostatic_energy": 8.88, 
			 "SMD_solvation_energy": 3.93 
		},
		"coords": [
			{
				"x": 2.4819508639,
				"y": 0.6885213259,
				"z": 0.1846961731,
				"element": "N" 
			},
			{
				"x": 2.1045620698,
				"y": -0.6201676339,
				"z": 0.2453618766,
				"element": "C" 
			},
			{
				"x": 3.1504373636,
				"y": -1.8439032043,
				"z": 0.7319003489,
				"element": "S" 
			},
			{
				"x": 0.8231656897,
				"y": -0.8863834994,
				"z": -0.1413654216,
				"element": "N" 
			},
			{
				"x": -0.0557709496,
				"y": 0.0390876332,
				"z": -0.8469273674,
				"element": "C" 
			},
			{
				"x": -0.661276179,
				"y": 1.1336264116,
				"z": 0.0239578855,
				"element": "C" 
			},
			{
				"x": -1.022990484,
				"y": 0.8867577761,
				"z": 1.3556281287,
				"element": "C" 
			},
			{
				"x": -1.623347992,
				"y": 1.8782991177,
				"z": 2.1295837922,
				"element": "C" 
			},
			{
				"x": -1.8612286425,
				"y": 3.1235641005,
				"z": 1.5562551938,
				"element": "C" 
			},
			{
				"x": -2.4398001155,
				"y": 4.0867119892,
				"z": 2.300458477,
				"element": "F" 
			},
			{
				"x": -1.5107072805,
				"y": 3.405691892,
				"z": 0.2412807133,
				"element": "C" 
			},
			{
				"x": -0.9063582187,
				"y": 2.4024582855,
				"z": -0.5176594009,
				"element": "C" 
			},
			{
				"x": 3.3833836957,
				"y": 0.8906727904,
				"z": 0.5892609409,
				"element": "H" 
			},
			{
				"x": 1.784713112,
				"y": 1.4201323929,
				"z": 0.234413968,
				"element": "H" 
			},
			{
				"x": 0.6135046476,
				"y": -1.8726476866,
				"z": -0.1759816191,
				"element": "H" 
			},
			{
				"x": 0.478679357,
				"y": 0.4996546219,
				"z": -1.6889840568,
				"element": "H" 
			},
			{
				"x": -0.858335924,
				"y": -0.5671485648,
				"z": -1.2811071891,
				"element": "H" 
			},
			{
				"x": -0.8200627217,
				"y": -0.0870675001,
				"z": 1.7906961474,
				"element": "H" 
			},
			{
				"x": -1.9048790255,
				"y": 1.7017227893,
				"z": 3.1620433543,
				"element": "H" 
			},
			{
				"x": -1.7040839384,
				"y": 4.3917390793,
				"z": -0.1667832546,
				"element": "H" 
			},
			{
				"x": -0.6254553276,
				"y": 2.6121778837,
				"z": -1.5470286903,
				"element": "H" 
			}
		],
		 "valence_orbital": [ 
			{
				"type": "occ",
				"energy": -0.27882,
				"method": "rhf"
			},
			{
				"type": "occ",
				"energy": -0.27767,
				"method": "rhf"
			},
			{
				"type": "occ",
				"energy": -0.25772,
				"method": "rhf"
			},
			{
				"type": "occ",
				"energy": -0.2101,
				"method": "rhf"
			},
			{
				"type": "occ",
				"energy": -0.2011,
				"method": "rhf"
			},
			{
				"type": "unocc",
				"energy": -0.02952,
				"method": "rhf"
			},
			{
				"type": "unocc",
				"energy": -0.02066,
				"method": "rhf"
			},
			{
				"type": "unocc",
				"energy": -0.00014,
				"method": "rhf"
			},
			{
				"type": "unocc",
				"energy": 0.06054,
				"method": "rhf"
			},
			{
				"type": "unocc",
				"energy": 0.07773,
				"method": "rhf"
			}
		],
		"cosmo_sigma_profile": { 
			"-0.025": 0.0,
			"-0.024": 0.0,
			"-0.023": 0.0,
			"-0.022": 0.0,
			"-0.021": 0.0,
			"-0.02": 0.0,
			"-0.019": 0.0,
			"-0.018": 0.0,
			"-0.017": 0.0,
			"-0.016": 0.0,
			"-0.015": 0.1537518639,
			"-0.014": 1.91435072096,
			"-0.013": 2.39121220533,
			"-0.012": 2.54450859186,
			"-0.011": 2.90399758584,
			"-0.01": 2.93043998496,
			"-0.009": 3.52605144974,
			"-0.008": 3.89839310125,
			"-0.007": 10.7356300671,
			"-0.006": 13.2248594023,
			"-0.005": 13.6485681307,
			"-0.004": 14.5217055996,
			"-0.003": 10.3082859013,
			"-0.002": 11.2911728326,
			"-0.001": 10.0471437776,
			"0.0": 11.0378443692,
			"0.001": 16.1154548458,
			"0.002": 12.1851565397,
			"0.003": 13.9530361334,
			"0.004": 16.5979901807,
			"0.005": 7.96254918718,
			"0.006": 4.45303824219,
			"0.007": 3.68388429889,
			"0.008": 3.52876659212,
			"0.009": 4.15264336154,
			"0.01": 4.44464615893,
			"0.011": 6.10460039698,
			"0.012": 8.41794764861,
			"0.013": 2.8470943545,
			"0.014": 0.00589005410456,
			"0.015": 0.0,
			"0.016": 0.0,
			"0.017": 0.0,
			"0.018": 0.0,
			"0.019": 0.0,
			"0.02": 0.0,
			"0.021": 0.0,
			"0.022": 0.0,
			"0.023": 0.0,
			"0.024": 0.0,
			"0.025": 0.0
		}
	}
}
