{
	 "smiles": "CCC(OC1=C(C)C=CC=C1)C(O)=O", 
	 "Tm": 323.15, 
	 "num_atms": 28, 
	 "gaussian": { 
		 "optdone": 1, 
		 "sigma_profile": "yes", 
		 "theory": "DFT", 
		 "functional": "B3LYP", 
		 "basiset": "6-31G**", 
		 "properties": { 
			 "R2extent": 3077.4607, 
			 "electric_dipole_moment_norm": 0.921714934239, 
			 "electric_quadrupole_moment_norm": 5.83523027138, 
			 "total_energy": -653.29685366, 
			 "HOMO_LUMO_gap": 0.21029, 
			 "cosmo_polarized_energy": -10.91, 
			 "cosmo_cavitation_energy": 31.18, 
			 "cosmo_dispersion_energy": -21.51, 
			 "cosmo_repulsion_energy": 1.72, 
			 "cosmo_total_nonelectrostatic_energy": 11.4, 
			 "SMD_solvation_energy": 6.55 
		},
		"coords": [
			{
				"x": -1.6121691348,
				"y": -1.7866163858,
				"z": -2.0178156371,
				"element": "C" 
			},
			{
				"x": -1.9863266011,
				"y": -1.6225528457,
				"z": -0.5417223962,
				"element": "C" 
			},
			{
				"x": -0.9021816377,
				"y": -0.9573337685,
				"z": 0.3250916551,
				"element": "C" 
			},
			{
				"x": -0.6473794359,
				"y": 0.3269161994,
				"z": -0.2151896225,
				"element": "O" 
			},
			{
				"x": 0.04573611,
				"y": 1.2519836211,
				"z": 0.5308599337,
				"element": "C" 
			},
			{
				"x": 0.1936065954,
				"y": 2.5140172433,
				"z": -0.0808753262,
				"element": "C" 
			},
			{
				"x": -0.3748358766,
				"y": 2.7589693828,
				"z": -1.4553049231,
				"element": "C" 
			},
			{
				"x": 0.8751238191,
				"y": 3.506208152,
				"z": 0.6244942467,
				"element": "C" 
			},
			{
				"x": 1.4026123128,
				"y": 3.2738700659,
				"z": 1.8986348497,
				"element": "C" 
			},
			{
				"x": 1.248564649,
				"y": 2.0203484344,
				"z": 2.4815292151,
				"element": "C" 
			},
			{
				"x": 0.5707421629,
				"y": 1.0029894609,
				"z": 1.8016741834,
				"element": "C" 
			},
			{
				"x": 0.3404922388,
				"y": -1.8489989843,
				"z": 0.4010509282,
				"element": "C" 
			},
			{
				"x": 1.3083218766,
				"y": -1.4987964737,
				"z": -0.4679361186,
				"element": "O" 
			},
			{
				"x": 0.4212077588,
				"y": -2.8029507067,
				"z": 1.1441375976,
				"element": "O" 
			},
			{
				"x": -2.4484118929,
				"y": -2.2215843191,
				"z": -2.5734371162,
				"element": "H" 
			},
			{
				"x": -1.3679126147,
				"y": -0.8210700587,
				"z": -2.4672817122,
				"element": "H" 
			},
			{
				"x": -0.7474116597,
				"y": -2.4447727567,
				"z": -2.1473278946,
				"element": "H" 
			},
			{
				"x": -2.8870070328,
				"y": -1.0056111531,
				"z": -0.4502115427,
				"element": "H" 
			},
			{
				"x": -2.2128608331,
				"y": -2.5941184464,
				"z": -0.0890464876,
				"element": "H" 
			},
			{
				"x": -1.2803947182,
				"y": -0.8789176318,
				"z": 1.3516868071,
				"element": "H" 
			},
			{
				"x": -0.1867199647,
				"y": 3.7870394002,
				"z": -1.7758081189,
				"element": "H" 
			},
			{
				"x": 0.066586234,
				"y": 2.0813905721,
				"z": -2.1945824276,
				"element": "H" 
			},
			{
				"x": -1.4560061624,
				"y": 2.5831213593,
				"z": -1.4773783882,
				"element": "H" 
			},
			{
				"x": 0.993503146,
				"y": 4.483171554,
				"z": 0.1621969369,
				"element": "H" 
			},
			{
				"x": 1.9283341707,
				"y": 4.0652705248,
				"z": 2.4239635921,
				"element": "H" 
			},
			{
				"x": 1.6542787738,
				"y": 1.8186006506,
				"z": 3.4686728787,
				"element": "H" 
			},
			{
				"x": 0.4680685568,
				"y": 0.0314316969,
				"z": 2.2712709081,
				"element": "H" 
			},
			{
				"x": 2.03093916,
				"y": -2.136704787,
				"z": -0.3376460207,
				"element": "H" 
			}
		],
		 "valence_orbital": [ 
			{
				"type": "occ",
				"energy": -0.32475,
				"method": "rhf"
			},
			{
				"type": "occ",
				"energy": -0.31843,
				"method": "rhf"
			},
			{
				"type": "occ",
				"energy": -0.27824,
				"method": "rhf"
			},
			{
				"type": "occ",
				"energy": -0.24207,
				"method": "rhf"
			},
			{
				"type": "occ",
				"energy": -0.21643,
				"method": "rhf"
			},
			{
				"type": "unocc",
				"energy": -0.00614,
				"method": "rhf"
			},
			{
				"type": "unocc",
				"energy": 0.009,
				"method": "rhf"
			},
			{
				"type": "unocc",
				"energy": 0.01405,
				"method": "rhf"
			},
			{
				"type": "unocc",
				"energy": 0.06709,
				"method": "rhf"
			},
			{
				"type": "unocc",
				"energy": 0.09489,
				"method": "rhf"
			}
		],
		"cosmo_sigma_profile": { 
			"-0.025": 0.0,
			"-0.024": 0.0,
			"-0.023": 0.0,
			"-0.022": 0.0,
			"-0.021": 0.0,
			"-0.02": 0.0,
			"-0.019": 0.350144009804,
			"-0.018": 0.732799967789,
			"-0.017": 1.1781021126,
			"-0.016": 0.877340804893,
			"-0.015": 1.07985582141,
			"-0.014": 0.248952213508,
			"-0.013": 0.381903832516,
			"-0.012": 0.736436476444,
			"-0.011": 0.848103287621,
			"-0.01": 0.892094648036,
			"-0.009": 0.399355785823,
			"-0.008": 1.10753514869,
			"-0.007": 3.63141647672,
			"-0.006": 5.91919065161,
			"-0.005": 12.2406229024,
			"-0.004": 21.5250644337,
			"-0.003": 24.4987107992,
			"-0.002": 23.4428648537,
			"-0.001": 22.0613331097,
			"0.0": 22.2481752475,
			"0.001": 18.9657468498,
			"0.002": 11.9244951374,
			"0.003": 10.6784555779,
			"0.004": 11.6296488103,
			"0.005": 13.0569739774,
			"0.006": 12.4813200184,
			"0.007": 5.57660812653,
			"0.008": 2.77204625129,
			"0.009": 2.6269440488,
			"0.01": 3.33586599689,
			"0.011": 4.47140413805,
			"0.012": 3.15417410578,
			"0.013": 0.214525760787,
			"0.014": 0.0,
			"0.015": 0.0,
			"0.016": 0.0,
			"0.017": 0.0,
			"0.018": 0.0,
			"0.019": 0.0,
			"0.02": 0.0,
			"0.021": 0.0,
			"0.022": 0.0,
			"0.023": 0.0,
			"0.024": 0.0,
			"0.025": 0.0
		}
	}
}
