{
	 "smiles": "CN(C)CCCNS(=O)(=O)C1=CC(=CC=C1)C#N", 
	 "Tm": 375.15, 
	 "num_atms": 35, 
	 "gaussian": { 
		 "optdone": 1, 
		 "sigma_profile": "yes", 
		 "theory": "DFT", 
		 "functional": "B3LYP", 
		 "basiset": "6-31G**", 
		 "properties": { 
			 "R2extent": 9165.4212, 
			 "electric_dipole_moment_norm": 4.91070883376, 
			 "electric_quadrupole_moment_norm": 37.4962723741, 
			 "total_energy": -1180.31136286, 
			 "HOMO_LUMO_gap": 0.14515, 
			 "cosmo_polarized_energy": -19.11, 
			 "cosmo_cavitation_energy": 40.2, 
			 "cosmo_dispersion_energy": -27.66, 
			 "cosmo_repulsion_energy": 2.11, 
			 "cosmo_total_nonelectrostatic_energy": 14.65, 
			 "SMD_solvation_energy": 4.5 
		},
		"coords": [
			{
				"x": 1.9703657373,
				"y": 0.2133527229,
				"z": 4.3890720461,
				"element": "C" 
			},
			{
				"x": 1.4268417516,
				"y": 0.9828250831,
				"z": 3.2784227232,
				"element": "N" 
			},
			{
				"x": 0.2775988575,
				"y": 0.3103449052,
				"z": 2.6860478112,
				"element": "C" 
			},
			{
				"x": 2.4731289286,
				"y": 1.3117017057,
				"z": 2.3109719585,
				"element": "C" 
			},
			{
				"x": 2.0179283085,
				"y": 2.2949284108,
				"z": 1.2113245243,
				"element": "C" 
			},
			{
				"x": 1.7302805712,
				"y": 1.6234483263,
				"z": -0.1391033309,
				"element": "C" 
			},
			{
				"x": 1.277719648,
				"y": 2.5477511978,
				"z": -1.193446978,
				"element": "N" 
			},
			{
				"x": -0.3472873675,
				"y": 2.9652480847,
				"z": -1.2920743965,
				"element": "S" 
			},
			{
				"x": -1.0472459057,
				"y": 2.6150557911,
				"z": -0.0494909064,
				"element": "O" 
			},
			{
				"x": -0.3668480101,
				"y": 4.3245368871,
				"z": -1.838564285,
				"element": "O" 
			},
			{
				"x": -0.9724216534,
				"y": 1.8449795145,
				"z": -2.5565504615,
				"element": "C" 
			},
			{
				"x": -0.5707481479,
				"y": 2.0268127352,
				"z": -3.8785441424,
				"element": "C" 
			},
			{
				"x": -1.0733245015,
				"y": 1.1637670049,
				"z": -4.8617723215,
				"element": "C" 
			},
			{
				"x": -1.9731826284,
				"y": 0.1396704691,
				"z": -4.5110818363,
				"element": "C" 
			},
			{
				"x": -2.3676004973,
				"y": -0.0142655182,
				"z": -3.1859184608,
				"element": "C" 
			},
			{
				"x": -1.8702028981,
				"y": 0.8399984919,
				"z": -2.1978573943,
				"element": "C" 
			},
			{
				"x": -0.6700804038,
				"y": 1.3254123274,
				"z": -6.2294230516,
				"element": "C" 
			},
			{
				"x": -0.3434419795,
				"y": 1.4494216581,
				"z": -7.338556381,
				"element": "N" 
			},
			{
				"x": 2.7823494588,
				"y": 0.771231594,
				"z": 4.8672312879,
				"element": "H" 
			},
			{
				"x": 2.3693160661,
				"y": -0.7754864273,
				"z": 4.0871056811,
				"element": "H" 
			},
			{
				"x": 1.1896786195,
				"y": 0.0448100396,
				"z": 5.1375765132,
				"element": "H" 
			},
			{
				"x": 0.5374210208,
				"y": -0.6552552724,
				"z": 2.2055328668,
				"element": "H" 
			},
			{
				"x": -0.2042440659,
				"y": 0.9512632213,
				"z": 1.9432536832,
				"element": "H" 
			},
			{
				"x": -0.4611590835,
				"y": 0.1039491514,
				"z": 3.4668082562,
				"element": "H" 
			},
			{
				"x": 2.8967159806,
				"y": 0.3971959485,
				"z": 1.8406821608,
				"element": "H" 
			},
			{
				"x": 3.2945648495,
				"y": 1.7643944909,
				"z": 2.8767576267,
				"element": "H" 
			},
			{
				"x": 1.1309155397,
				"y": 2.8341948347,
				"z": 1.5561432089,
				"element": "H" 
			},
			{
				"x": 2.8029990841,
				"y": 3.0457570638,
				"z": 1.0538682384,
				"element": "H" 
			},
			{
				"x": 2.6338768957,
				"y": 1.1309696669,
				"z": -0.5168129682,
				"element": "H" 
			},
			{
				"x": 0.9714004441,
				"y": 0.8437528735,
				"z": -0.0378531592,
				"element": "H" 
			},
			{
				"x": 1.8252311413,
				"y": 3.4002622119,
				"z": -1.2833318011,
				"element": "H" 
			},
			{
				"x": 0.1125514609,
				"y": 2.8248421709,
				"z": -4.1453242224,
				"element": "H" 
			},
			{
				"x": -2.355578208,
				"y": -0.5201291449,
				"z": -5.2824304346,
				"element": "H" 
			},
			{
				"x": -3.0676921916,
				"y": -0.7991749851,
				"z": -2.9186046938,
				"element": "H" 
			},
			{
				"x": -2.1755268217,
				"y": 0.7446327646,
				"z": -1.161957361,
				"element": "H" 
			}
		],
		 "valence_orbital": [ 
			{
				"type": "occ",
				"energy": -0.3127,
				"method": "rhf"
			},
			{
				"type": "occ",
				"energy": -0.30288,
				"method": "rhf"
			},
			{
				"type": "occ",
				"energy": -0.28413,
				"method": "rhf"
			},
			{
				"type": "occ",
				"energy": -0.27207,
				"method": "rhf"
			},
			{
				"type": "occ",
				"energy": -0.2144,
				"method": "rhf"
			},
			{
				"type": "unocc",
				"energy": -0.06925,
				"method": "rhf"
			},
			{
				"type": "unocc",
				"energy": -0.0555,
				"method": "rhf"
			},
			{
				"type": "unocc",
				"energy": 0.02351,
				"method": "rhf"
			},
			{
				"type": "unocc",
				"energy": 0.04219,
				"method": "rhf"
			},
			{
				"type": "unocc",
				"energy": 0.0477,
				"method": "rhf"
			}
		],
		"cosmo_sigma_profile": { 
			"-0.025": 0.0,
			"-0.024": 0.0,
			"-0.023": 0.0,
			"-0.022": 0.0,
			"-0.021": 0.0,
			"-0.02": 0.0,
			"-0.019": 0.0,
			"-0.018": 0.0,
			"-0.017": 0.0,
			"-0.016": 0.0,
			"-0.015": 0.0396825765241,
			"-0.014": 1.1056897046,
			"-0.013": 0.578176838431,
			"-0.012": 0.924174822494,
			"-0.011": 1.71644345786,
			"-0.01": 1.02485897253,
			"-0.009": 4.171904505,
			"-0.008": 8.70129836361,
			"-0.007": 9.64993774681,
			"-0.006": 10.1038850409,
			"-0.005": 13.5898666145,
			"-0.004": 20.9877020377,
			"-0.003": 28.5210774265,
			"-0.002": 33.8568653111,
			"-0.001": 36.7596834479,
			"0.0": 40.0370182506,
			"0.001": 18.7829363102,
			"0.002": 9.70638439031,
			"0.003": 7.58554034289,
			"0.004": 7.48294154059,
			"0.005": 7.981830184,
			"0.006": 5.95933102871,
			"0.007": 7.57640501481,
			"0.008": 7.40353560117,
			"0.009": 7.59123272652,
			"0.01": 9.96395179378,
			"0.011": 9.83807924405,
			"0.012": 3.89302478799,
			"0.013": 1.1604189036,
			"0.014": 0.393042946242,
			"0.015": 0.400610780677,
			"0.016": 0.524161320567,
			"0.017": 0.183136468756,
			"0.018": 0.0,
			"0.019": 0.0,
			"0.02": 0.0,
			"0.021": 0.0,
			"0.022": 0.0,
			"0.023": 0.0,
			"0.024": 0.0,
			"0.025": 0.0
		}
	}
}
