{
	 "smiles": "CS(=O)(=O)N1CCN(CCN)CC1", 
	 "Tm": 284.15, 
	 "num_atms": 30, 
	 "gaussian": { 
		 "optdone": 1, 
		 "sigma_profile": "yes", 
		 "theory": "DFT", 
		 "functional": "B3LYP", 
		 "basiset": "6-31G**", 
		 "properties": { 
			 "R2extent": 3829.8473, 
			 "electric_dipole_moment_norm": 2.74338018692, 
			 "electric_quadrupole_moment_norm": 22.7541285772, 
			 "total_energy": -989.800077442, 
			 "HOMO_LUMO_gap": 0.285, 
			 "cosmo_polarized_energy": -16.35, 
			 "cosmo_cavitation_energy": 31.7, 
			 "cosmo_dispersion_energy": -23.06, 
			 "cosmo_repulsion_energy": 1.78, 
			 "cosmo_total_nonelectrostatic_energy": 10.43, 
			 "SMD_solvation_energy": 1.52 
		},
		"coords": [
			{
				"x": -3.0569924494,
				"y": 1.4358574078,
				"z": -2.6240301379,
				"element": "C" 
			},
			{
				"x": -1.3877370364,
				"y": 1.10865303,
				"z": -2.027583152,
				"element": "S" 
			},
			{
				"x": -0.9340584797,
				"y": -0.1354956235,
				"z": -2.660269963,
				"element": "O" 
			},
			{
				"x": -0.6252964024,
				"y": 2.3550356123,
				"z": -2.1686432759,
				"element": "O" 
			},
			{
				"x": -1.6456946509,
				"y": 0.8087366419,
				"z": -0.3821248658,
				"element": "N" 
			},
			{
				"x": -1.4189351389,
				"y": -0.5593489864,
				"z": 0.1178778303,
				"element": "C" 
			},
			{
				"x": 0.0066251371,
				"y": -0.7496072231,
				"z": 0.640731597,
				"element": "C" 
			},
			{
				"x": 0.3147852415,
				"y": 0.2531828716,
				"z": 1.6644473731,
				"element": "N" 
			},
			{
				"x": 1.6171410958,
				"y": 0.0286109164,
				"z": 2.3027125044,
				"element": "C" 
			},
			{
				"x": 1.6908356822,
				"y": 0.6623778426,
				"z": 3.7028906136,
				"element": "C" 
			},
			{
				"x": 0.6733732863,
				"y": 0.1992115196,
				"z": 4.6467964794,
				"element": "N" 
			},
			{
				"x": 0.1932589333,
				"y": 1.6015000131,
				"z": 1.0992023285,
				"element": "C" 
			},
			{
				"x": -1.2269722234,
				"y": 1.8417901045,
				"z": 0.5825552964,
				"element": "C" 
			},
			{
				"x": -3.4579240286,
				"y": 2.2982836896,
				"z": -2.0904727965,
				"element": "H" 
			},
			{
				"x": -2.9833630868,
				"y": 1.6482975967,
				"z": -3.6922610148,
				"element": "H" 
			},
			{
				"x": -3.6704682994,
				"y": 0.5512712989,
				"z": -2.450748098,
				"element": "H" 
			},
			{
				"x": -2.1326101993,
				"y": -0.7219612421,
				"z": 0.9349054054,
				"element": "H" 
			},
			{
				"x": -1.6292719659,
				"y": -1.2728300565,
				"z": -0.6790356683,
				"element": "H" 
			},
			{
				"x": 0.0912827666,
				"y": -1.7465276818,
				"z": 1.0884280328,
				"element": "H" 
			},
			{
				"x": 0.7088174595,
				"y": -0.7053322689,
				"z": -0.2124920134,
				"element": "H" 
			},
			{
				"x": 2.4519233829,
				"y": 0.3910497635,
				"z": 1.6722833441,
				"element": "H" 
			},
			{
				"x": 1.7507303569,
				"y": -1.0554810468,
				"z": 2.4082071163,
				"element": "H" 
			},
			{
				"x": 1.6110823604,
				"y": 1.7539834318,
				"z": 3.6231891206,
				"element": "H" 
			},
			{
				"x": 2.6834621202,
				"y": 0.4656459162,
				"z": 4.1247510149,
				"element": "H" 
			},
			{
				"x": -0.2244116694,
				"y": 0.225259656,
				"z": 4.1650791202,
				"element": "H" 
			},
			{
				"x": 0.8379703563,
				"y": -0.7824687911,
				"z": 4.8632458706,
				"element": "H" 
			},
			{
				"x": 0.4137347302,
				"y": 2.3408777856,
				"z": 1.8756429967,
				"element": "H" 
			},
			{
				"x": 0.9088801277,
				"y": 1.7627065359,
				"z": 0.2716420261,
				"element": "H" 
			},
			{
				"x": -1.2956851915,
				"y": 2.8233789304,
				"z": 0.1128725587,
				"element": "H" 
			},
			{
				"x": -1.9343822153,
				"y": 1.8030423555,
				"z": 1.4199003562,
				"element": "H" 
			}
		],
		 "valence_orbital": [ 
			{
				"type": "occ",
				"energy": -0.30218,
				"method": "rhf"
			},
			{
				"type": "occ",
				"energy": -0.29821,
				"method": "rhf"
			},
			{
				"type": "occ",
				"energy": -0.25584,
				"method": "rhf"
			},
			{
				"type": "occ",
				"energy": -0.23155,
				"method": "rhf"
			},
			{
				"type": "occ",
				"energy": -0.22278,
				"method": "rhf"
			},
			{
				"type": "unocc",
				"energy": 0.06222,
				"method": "rhf"
			},
			{
				"type": "unocc",
				"energy": 0.0709,
				"method": "rhf"
			},
			{
				"type": "unocc",
				"energy": 0.07943,
				"method": "rhf"
			},
			{
				"type": "unocc",
				"energy": 0.09027,
				"method": "rhf"
			},
			{
				"type": "unocc",
				"energy": 0.09758,
				"method": "rhf"
			}
		],
		"cosmo_sigma_profile": { 
			"-0.025": 0.0,
			"-0.024": 0.0,
			"-0.023": 0.0,
			"-0.022": 0.0,
			"-0.021": 0.0,
			"-0.02": 0.0,
			"-0.019": 0.0,
			"-0.018": 0.0,
			"-0.017": 0.0,
			"-0.016": 0.0,
			"-0.015": 0.0,
			"-0.014": 0.0,
			"-0.013": 0.0,
			"-0.012": 0.0,
			"-0.011": 0.0,
			"-0.01": 0.0321687655263,
			"-0.009": 1.89679779167,
			"-0.008": 6.53822773385,
			"-0.007": 7.35947888982,
			"-0.006": 8.51531615101,
			"-0.005": 17.873951812,
			"-0.004": 31.6118820049,
			"-0.003": 27.9652591887,
			"-0.002": 29.5679378927,
			"-0.001": 24.0586591596,
			"0.0": 14.0634544419,
			"0.001": 7.14497901156,
			"0.002": 6.6648361414,
			"0.003": 6.39783833096,
			"0.004": 5.62597135467,
			"0.005": 6.37618964484,
			"0.006": 3.73567797753,
			"0.007": 3.93753078787,
			"0.008": 3.8785998494,
			"0.009": 4.03888697539,
			"0.01": 5.16303478342,
			"0.011": 10.2801121618,
			"0.012": 7.06995837844,
			"0.013": 0.751058712715,
			"0.014": 0.727937550008,
			"0.015": 1.01105661369,
			"0.016": 0.768922058355,
			"0.017": 0.403084464346,
			"0.018": 0.774010981346,
			"0.019": 0.412889054251,
			"0.02": 0.864350157493,
			"0.021": 0.120173849029,
			"0.022": 0.0,
			"0.023": 0.0,
			"0.024": 0.0,
			"0.025": 0.0
		}
	}
}
