{
	 "smiles": "NC1=CC=C(C(=O)OC2=CC=CC=C2)C(O)=C1", 
	 "Tm": 426.15, 
	 "num_atms": 28, 
	 "gaussian": { 
		 "optdone": 1, 
		 "sigma_profile": "yes", 
		 "theory": "DFT", 
		 "functional": "B3LYP", 
		 "basiset": "6-31G**", 
		 "properties": { 
			 "R2extent": 4350.8876, 
			 "electric_dipole_moment_norm": 7.02246325444, 
			 "electric_quadrupole_moment_norm": 19.6761627895, 
			 "total_energy": -782.432942287, 
			 "HOMO_LUMO_gap": 0.18269, 
			 "cosmo_polarized_energy": -21.75, 
			 "cosmo_cavitation_energy": 32.63, 
			 "cosmo_dispersion_energy": -23.08, 
			 "cosmo_repulsion_energy": 1.81, 
			 "cosmo_total_nonelectrostatic_energy": 11.36, 
			 "SMD_solvation_energy": 6.82 
		},
		"coords": [
			{
				"x": 3.0437242864,
				"y": -1.9820649912,
				"z": -3.280765307,
				"element": "N" 
			},
			{
				"x": 2.1826840108,
				"y": -1.9928340029,
				"z": -2.1963428406,
				"element": "C" 
			},
			{
				"x": 1.3561071373,
				"y": -3.1076009978,
				"z": -1.9470044485,
				"element": "C" 
			},
			{
				"x": 0.467193696,
				"y": -3.0782868596,
				"z": -0.887695144,
				"element": "C" 
			},
			{
				"x": 0.3244100069,
				"y": -1.9552047786,
				"z": -0.0529784038,
				"element": "C" 
			},
			{
				"x": -0.6514518485,
				"y": -2.0694776614,
				"z": 1.0611806261,
				"element": "C" 
			},
			{
				"x": -0.9101408058,
				"y": -3.1192534618,
				"z": 1.6038190026,
				"element": "O" 
			},
			{
				"x": -1.2773037448,
				"y": -0.9298610429,
				"z": 1.5275043497,
				"element": "O" 
			},
			{
				"x": -1.7449230836,
				"y": 0.0709929593,
				"z": 0.6967916966,
				"element": "C" 
			},
			{
				"x": -1.7208325385,
				"y": 1.3723551648,
				"z": 1.203603403,
				"element": "C" 
			},
			{
				"x": -2.2602438001,
				"y": 2.4126371673,
				"z": 0.4501362957,
				"element": "C" 
			},
			{
				"x": -2.8163244405,
				"y": 2.1619150219,
				"z": -0.8077896722,
				"element": "C" 
			},
			{
				"x": -2.8401399119,
				"y": 0.8567400799,
				"z": -1.3004415209,
				"element": "C" 
			},
			{
				"x": -2.31442577,
				"y": -0.1973388335,
				"z": -0.5499789916,
				"element": "C" 
			},
			{
				"x": 1.1806828841,
				"y": -0.8584204047,
				"z": -0.2866872413,
				"element": "C" 
			},
			{
				"x": 1.1345345002,
				"y": 0.1946789729,
				"z": 0.572481171,
				"element": "O" 
			},
			{
				"x": 2.0888900721,
				"y": -0.8801039609,
				"z": -1.3464372201,
				"element": "C" 
			},
			{
				"x": 3.3014080615,
				"y": -2.8828548962,
				"z": -3.6566983365,
				"element": "H" 
			},
			{
				"x": 3.8130462093,
				"y": -1.3294297317,
				"z": -3.245903022,
				"element": "H" 
			},
			{
				"x": 1.4216956321,
				"y": -3.982840881,
				"z": -2.586722934,
				"element": "H" 
			},
			{
				"x": -0.1585090624,
				"y": -3.9395192532,
				"z": -0.6781955469,
				"element": "H" 
			},
			{
				"x": -1.2794182808,
				"y": 1.5438955033,
				"z": 2.1792378833,
				"element": "H" 
			},
			{
				"x": -2.243843153,
				"y": 3.423947467,
				"z": 0.8467822428,
				"element": "H" 
			},
			{
				"x": -3.2345246388,
				"y": 2.9750610351,
				"z": -1.3933213604,
				"element": "H" 
			},
			{
				"x": -3.282080384,
				"y": 0.6481995803,
				"z": -2.2706111844,
				"element": "H" 
			},
			{
				"x": -2.3555989501,
				"y": -1.214537111,
				"z": -0.9238197583,
				"element": "H" 
			},
			{
				"x": 1.7160952138,
				"y": 0.895984223,
				"z": 0.2517032427,
				"element": "H" 
			},
			{
				"x": 2.7436887021,
				"y": -0.0248783066,
				"z": -1.5044469812,
				"element": "H" 
			}
		],
		 "valence_orbital": [ 
			{
				"type": "occ",
				"energy": -0.26329,
				"method": "rhf"
			},
			{
				"type": "occ",
				"energy": -0.24945,
				"method": "rhf"
			},
			{
				"type": "occ",
				"energy": -0.23986,
				"method": "rhf"
			},
			{
				"type": "occ",
				"energy": -0.22624,
				"method": "rhf"
			},
			{
				"type": "occ",
				"energy": -0.21351,
				"method": "rhf"
			},
			{
				"type": "unocc",
				"energy": -0.03082,
				"method": "rhf"
			},
			{
				"type": "unocc",
				"energy": -0.00247,
				"method": "rhf"
			},
			{
				"type": "unocc",
				"energy": 0.0053,
				"method": "rhf"
			},
			{
				"type": "unocc",
				"energy": 0.01067,
				"method": "rhf"
			},
			{
				"type": "unocc",
				"energy": 0.05073,
				"method": "rhf"
			}
		],
		"cosmo_sigma_profile": { 
			"-0.025": 0.0,
			"-0.024": 0.0,
			"-0.023": 0.0,
			"-0.022": 0.0,
			"-0.021": 0.0,
			"-0.02": 0.0,
			"-0.019": 0.0208713654767,
			"-0.018": 0.723481830862,
			"-0.017": 1.37312501154,
			"-0.016": 0.557308787925,
			"-0.015": 0.991754857455,
			"-0.014": 1.47118481028,
			"-0.013": 3.81050383586,
			"-0.012": 3.38311814538,
			"-0.011": 3.86006460168,
			"-0.01": 4.28769417968,
			"-0.009": 4.94964597795,
			"-0.008": 4.31810706599,
			"-0.007": 5.08637941508,
			"-0.006": 12.4780738672,
			"-0.005": 15.0709771016,
			"-0.004": 16.7309356412,
			"-0.003": 14.3380088075,
			"-0.002": 12.3259195822,
			"-0.001": 11.7994036338,
			"0.0": 11.0393838959,
			"0.001": 11.9966617327,
			"0.002": 14.0598701058,
			"0.003": 19.4859638647,
			"0.004": 25.2750249786,
			"0.005": 20.6985031193,
			"0.006": 8.75323419891,
			"0.007": 4.56328236519,
			"0.008": 4.8418727849,
			"0.009": 4.19363435596,
			"0.01": 4.83506522393,
			"0.011": 5.27243277645,
			"0.012": 5.63032556128,
			"0.013": 1.94063387661,
			"0.014": 0.167260678123,
			"0.015": 0.0,
			"0.016": 0.0,
			"0.017": 0.0,
			"0.018": 0.0,
			"0.019": 0.0,
			"0.02": 0.0,
			"0.021": 0.0,
			"0.022": 0.0,
			"0.023": 0.0,
			"0.024": 0.0,
			"0.025": 0.0
		}
	}
}
