{
	 "smiles": "CC1CC2OC(=O)C(=C)C2C(O)C2(C)C1C=CC2=O", 
	 "Tm": 441.15, 
	 "num_atms": 37, 
	 "gaussian": { 
		 "optdone": 1, 
		 "sigma_profile": "yes", 
		 "theory": "DFT", 
		 "functional": "B3LYP", 
		 "basiset": "6-31G**", 
		 "properties": { 
			 "R2extent": 5135.747, 
			 "electric_dipole_moment_norm": 6.84854985307, 
			 "electric_quadrupole_moment_norm": 18.3047319803, 
			 "total_energy": -883.311790478, 
			 "HOMO_LUMO_gap": 0.18362, 
			 "cosmo_polarized_energy": -17.83, 
			 "cosmo_cavitation_energy": 36.27, 
			 "cosmo_dispersion_energy": -25.46, 
			 "cosmo_repulsion_energy": 1.88, 
			 "cosmo_total_nonelectrostatic_energy": 12.69, 
			 "SMD_solvation_energy": 7.75 
		},
		"coords": [
			{
				"x": -2.6657795431,
				"y": 0.5026586952,
				"z": 1.9738571001,
				"element": "C" 
			},
			{
				"x": -1.4582875003,
				"y": 0.1496715358,
				"z": 1.0859215438,
				"element": "C" 
			},
			{
				"x": -1.7139006358,
				"y": -1.1747340422,
				"z": 0.3389710309,
				"element": "C" 
			},
			{
				"x": -0.8645939616,
				"y": -1.2917960473,
				"z": -0.9098623492,
				"element": "C" 
			},
			{
				"x": -1.2780377757,
				"y": -2.4394642654,
				"z": -1.6859318087,
				"element": "O" 
			},
			{
				"x": -0.2309789618,
				"y": -2.8580989536,
				"z": -2.4677001249,
				"element": "C" 
			},
			{
				"x": -0.3625430054,
				"y": -3.68534143,
				"z": -3.3346291674,
				"element": "O" 
			},
			{
				"x": 1.0031442984,
				"y": -2.1266806334,
				"z": -2.0358411803,
				"element": "C" 
			},
			{
				"x": 2.1106904077,
				"y": -2.152863621,
				"z": -2.7793969062,
				"element": "C" 
			},
			{
				"x": 0.6547140001,
				"y": -1.464658828,
				"z": -0.7169086029,
				"element": "C" 
			},
			{
				"x": 1.3716883765,
				"y": -0.1580878965,
				"z": -0.3047275111,
				"element": "C" 
			},
			{
				"x": 2.7379156222,
				"y": -0.152216994,
				"z": -0.6830033362,
				"element": "O" 
			},
			{
				"x": 1.2699159119,
				"y": 0.1546282249,
				"z": 1.234267134,
				"element": "C" 
			},
			{
				"x": 2.0042393848,
				"y": 1.4901097581,
				"z": 1.5021232059,
				"element": "C" 
			},
			{
				"x": -0.14597323,
				"y": 0.1917195692,
				"z": 1.9232545783,
				"element": "C" 
			},
			{
				"x": -0.0605049925,
				"y": -0.8788019577,
				"z": 2.9878266078,
				"element": "C" 
			},
			{
				"x": 1.1287420813,
				"y": -1.4979156643,
				"z": 3.047524874,
				"element": "C" 
			},
			{
				"x": 2.0094483996,
				"y": -0.9689492164,
				"z": 1.9992502558,
				"element": "C" 
			},
			{
				"x": 3.1483237886,
				"y": -1.3488640203,
				"z": 1.7441166247,
				"element": "O" 
			},
			{
				"x": -2.5043241622,
				"y": 1.4373859239,
				"z": 2.5211840396,
				"element": "H" 
			},
			{
				"x": -2.8780169968,
				"y": -0.2837290428,
				"z": 2.7065144288,
				"element": "H" 
			},
			{
				"x": -3.5650948295,
				"y": 0.6243501274,
				"z": 1.3626486046,
				"element": "H" 
			},
			{
				"x": -1.3742221026,
				"y": 0.948875873,
				"z": 0.3357019904,
				"element": "H" 
			},
			{
				"x": -2.7650171012,
				"y": -1.2183545393,
				"z": 0.0326867819,
				"element": "H" 
			},
			{
				"x": -1.5410744016,
				"y": -2.0368712697,
				"z": 0.9951482332,
				"element": "H" 
			},
			{
				"x": -1.0361230113,
				"y": -0.4022847584,
				"z": -1.5364178575,
				"element": "H" 
			},
			{
				"x": 2.1032569308,
				"y": -2.7242426815,
				"z": -3.7035168875,
				"element": "H" 
			},
			{
				"x": 3.0028292856,
				"y": -1.6108936985,
				"z": -2.4967909898,
				"element": "H" 
			},
			{
				"x": 0.8056429702,
				"y": -2.2237080489,
				"z": 0.066317175,
				"element": "H" 
			},
			{
				"x": 0.9133425659,
				"y": 0.67340054,
				"z": -0.857141528,
				"element": "H" 
			},
			{
				"x": 3.2194085992,
				"y": -0.6721655557,
				"z": -0.0101957372,
				"element": "H" 
			},
			{
				"x": 2.0386822421,
				"y": 1.7077725099,
				"z": 2.5746628342,
				"element": "H" 
			},
			{
				"x": 3.0236149137,
				"y": 1.4544150835,
				"z": 1.1178932065,
				"element": "H" 
			},
			{
				"x": 1.47923283,
				"y": 2.3131719775,
				"z": 1.0047562542,
				"element": "H" 
			},
			{
				"x": -0.2053998656,
				"y": 1.1520452448,
				"z": 2.4568230607,
				"element": "H" 
			},
			{
				"x": -0.892621602,
				"y": -1.0874086423,
				"z": 3.6537945502,
				"element": "H" 
			},
			{
				"x": 1.4333610703,
				"y": -2.2765732558,
				"z": 3.736719872,
				"element": "H" 
			}
		],
		 "valence_orbital": [ 
			{
				"type": "occ",
				"energy": -0.29091,
				"method": "rhf"
			},
			{
				"type": "occ",
				"energy": -0.27485,
				"method": "rhf"
			},
			{
				"type": "occ",
				"energy": -0.26949,
				"method": "rhf"
			},
			{
				"type": "occ",
				"energy": -0.26078,
				"method": "rhf"
			},
			{
				"type": "occ",
				"energy": -0.25729,
				"method": "rhf"
			},
			{
				"type": "unocc",
				"energy": -0.07367,
				"method": "rhf"
			},
			{
				"type": "unocc",
				"energy": -0.03708,
				"method": "rhf"
			},
			{
				"type": "unocc",
				"energy": 0.03193,
				"method": "rhf"
			},
			{
				"type": "unocc",
				"energy": 0.06158,
				"method": "rhf"
			},
			{
				"type": "unocc",
				"energy": 0.07399,
				"method": "rhf"
			}
		],
		"cosmo_sigma_profile": { 
			"-0.025": 0.0,
			"-0.024": 0.0,
			"-0.023": 0.0,
			"-0.022": 0.0,
			"-0.021": 0.0,
			"-0.02": 0.0,
			"-0.019": 0.0,
			"-0.018": 0.0,
			"-0.017": 0.0,
			"-0.016": 0.0,
			"-0.015": 0.0,
			"-0.014": 0.0,
			"-0.013": 0.0,
			"-0.012": 0.0,
			"-0.011": 0.0,
			"-0.01": 0.0,
			"-0.009": 0.0,
			"-0.008": 1.49240896176,
			"-0.007": 6.93999661439,
			"-0.006": 14.9059825243,
			"-0.005": 23.8069454627,
			"-0.004": 33.7535882096,
			"-0.003": 31.9069784414,
			"-0.002": 25.3094809462,
			"-0.001": 24.4261367335,
			"0.0": 26.093575849,
			"0.001": 18.1619325173,
			"0.002": 9.47167170396,
			"0.003": 8.39389909003,
			"0.004": 5.96518572293,
			"0.005": 5.29511630466,
			"0.006": 5.7577435463,
			"0.007": 4.33070796039,
			"0.008": 5.09757739284,
			"0.009": 5.63446194662,
			"0.01": 7.82924093543,
			"0.011": 8.03737373116,
			"0.012": 7.44755295587,
			"0.013": 3.11019440082,
			"0.014": 0.714866979523,
			"0.015": 0.0503143342479,
			"0.016": 0.0,
			"0.017": 0.0,
			"0.018": 0.0,
			"0.019": 0.0,
			"0.02": 0.0,
			"0.021": 0.0,
			"0.022": 0.0,
			"0.023": 0.0,
			"0.024": 0.0,
			"0.025": 0.0
		}
	}
}
