{
	 "smiles": "OC(=O)C1C2CC3CC(C2)CC1C3", 
	 "Tm": 395.15, 
	 "num_atms": 29, 
	 "gaussian": { 
		 "optdone": 1, 
		 "sigma_profile": "yes", 
		 "theory": "DFT", 
		 "functional": "B3LYP", 
		 "basiset": "6-31G**", 
		 "properties": { 
			 "R2extent": 2729.3255, 
			 "electric_dipole_moment_norm": 1.47947327451, 
			 "electric_quadrupole_moment_norm": 4.43858166648, 
			 "total_energy": -579.307517808, 
			 "HOMO_LUMO_gap": 0.27429, 
			 "cosmo_polarized_energy": -7.43, 
			 "cosmo_cavitation_energy": 27.0, 
			 "cosmo_dispersion_energy": -20.68, 
			 "cosmo_repulsion_energy": 1.6, 
			 "cosmo_total_nonelectrostatic_energy": 7.93, 
			 "SMD_solvation_energy": 4.23 
		},
		"coords": [
			{
				"x": 2.2414073385,
				"y": -1.8203352582,
				"z": -2.5659054272,
				"element": "O" 
			},
			{
				"x": 1.1113410803,
				"y": -1.4087282138,
				"z": -1.9342127895,
				"element": "C" 
			},
			{
				"x": 0.1804165964,
				"y": -2.1626745565,
				"z": -1.7428657045,
				"element": "O" 
			},
			{
				"x": 1.1643562969,
				"y": 0.0661012072,
				"z": -1.5733802971,
				"element": "C" 
			},
			{
				"x": 2.4969121549,
				"y": 0.4992012059,
				"z": -0.9012513971,
				"element": "C" 
			},
			{
				"x": 2.5019241768,
				"y": 2.0377353713,
				"z": -0.77827365,
				"element": "C" 
			},
			{
				"x": 1.311571366,
				"y": 2.5007193767,
				"z": 0.0873577443,
				"element": "C" 
			},
			{
				"x": 1.4320853808,
				"y": 1.8735441497,
				"z": 1.4927611507,
				"element": "C" 
			},
			{
				"x": 1.4171121361,
				"y": 0.3343520054,
				"z": 1.3777517624,
				"element": "C" 
			},
			{
				"x": 2.6039211325,
				"y": -0.127622824,
				"z": 0.5053841509,
				"element": "C" 
			},
			{
				"x": 0.0971007597,
				"y": -0.1184801221,
				"z": 0.7202585881,
				"element": "C" 
			},
			{
				"x": -0.0272231377,
				"y": 0.5022098632,
				"z": -0.6887587327,
				"element": "C" 
			},
			{
				"x": -0.0075900868,
				"y": 2.0409681583,
				"z": -0.5701592797,
				"element": "C" 
			},
			{
				"x": 2.0970046007,
				"y": -2.7571320945,
				"z": -2.7816168562,
				"element": "H" 
			},
			{
				"x": 1.0984783402,
				"y": 0.5865844604,
				"z": -2.5418664551,
				"element": "H" 
			},
			{
				"x": 3.3368920838,
				"y": 0.1719221064,
				"z": -1.5216250391,
				"element": "H" 
			},
			{
				"x": 2.4482308106,
				"y": 2.4959195755,
				"z": -1.7748488395,
				"element": "H" 
			},
			{
				"x": 3.4470062381,
				"y": 2.3674630746,
				"z": -0.3275096772,
				"element": "H" 
			},
			{
				"x": 1.3201522001,
				"y": 3.5950397045,
				"z": 0.1686217483,
				"element": "H" 
			},
			{
				"x": 0.6025109513,
				"y": 2.2106635499,
				"z": 2.1280941585,
				"element": "H" 
			},
			{
				"x": 2.3596695034,
				"y": 2.2089014187,
				"z": 1.9756049684,
				"element": "H" 
			},
			{
				"x": 1.5022437555,
				"y": -0.1108448483,
				"z": 2.3771379035,
				"element": "H" 
			},
			{
				"x": 2.6200121042,
				"y": -1.2231716232,
				"z": 0.4352621885,
				"element": "H" 
			},
			{
				"x": 3.5538918807,
				"y": 0.1711886306,
				"z": 0.9672686712,
				"element": "H" 
			},
			{
				"x": 0.0529455696,
				"y": -1.210114964,
				"z": 0.6523053783,
				"element": "H" 
			},
			{
				"x": -0.7566877162,
				"y": 0.1984377597,
				"z": 1.333203686,
				"element": "H" 
			},
			{
				"x": -0.9598526725,
				"y": 0.1679666366,
				"z": -1.1548109587,
				"element": "H" 
			},
			{
				"x": -0.115260592,
				"y": 2.5008190525,
				"z": -1.5618963512,
				"element": "H" 
			},
			{
				"x": -0.8638722517,
				"y": 2.3756671973,
				"z": 0.0292693561,
				"element": "H" 
			}
		],
		 "valence_orbital": [ 
			{
				"type": "occ",
				"energy": -0.31435,
				"method": "rhf"
			},
			{
				"type": "occ",
				"energy": -0.28676,
				"method": "rhf"
			},
			{
				"type": "occ",
				"energy": -0.28092,
				"method": "rhf"
			},
			{
				"type": "occ",
				"energy": -0.27976,
				"method": "rhf"
			},
			{
				"type": "occ",
				"energy": -0.26497,
				"method": "rhf"
			},
			{
				"type": "unocc",
				"energy": 0.00932,
				"method": "rhf"
			},
			{
				"type": "unocc",
				"energy": 0.06664,
				"method": "rhf"
			},
			{
				"type": "unocc",
				"energy": 0.08367,
				"method": "rhf"
			},
			{
				"type": "unocc",
				"energy": 0.12025,
				"method": "rhf"
			},
			{
				"type": "unocc",
				"energy": 0.1251,
				"method": "rhf"
			}
		],
		"cosmo_sigma_profile": { 
			"-0.025": 0.0,
			"-0.024": 0.0,
			"-0.023": 0.0,
			"-0.022": 0.0,
			"-0.021": 0.0,
			"-0.02": 0.0,
			"-0.019": 0.0,
			"-0.018": 0.498205235063,
			"-0.017": 0.779655716573,
			"-0.016": 0.677169724277,
			"-0.015": 1.34917995372,
			"-0.014": 0.422729641047,
			"-0.013": 0.532342755253,
			"-0.012": 0.46519616282,
			"-0.011": 1.07287573858,
			"-0.01": 0.693462729107,
			"-0.009": 0.412757792236,
			"-0.008": 0.495561797591,
			"-0.007": 0.726260983767,
			"-0.006": 1.74711192638,
			"-0.005": 3.75050996663,
			"-0.004": 4.09177064954,
			"-0.003": 9.57373975421,
			"-0.002": 33.2593200975,
			"-0.001": 40.1170246461,
			"0.0": 37.8915707545,
			"0.001": 28.3709493436,
			"0.002": 8.86948615606,
			"0.003": 3.703820639,
			"0.004": 2.70263725406,
			"0.005": 3.32670717913,
			"0.006": 3.1998364401,
			"0.007": 2.24961683867,
			"0.008": 3.40046219648,
			"0.009": 2.56853163736,
			"0.01": 2.00955293066,
			"0.011": 2.88549984522,
			"0.012": 4.49428432438,
			"0.013": 0.820719561407,
			"0.014": 0.0,
			"0.015": 0.0,
			"0.016": 0.0,
			"0.017": 0.0,
			"0.018": 0.0,
			"0.019": 0.0,
			"0.02": 0.0,
			"0.021": 0.0,
			"0.022": 0.0,
			"0.023": 0.0,
			"0.024": 0.0,
			"0.025": 0.0
		}
	}
}
