{
	 "smiles": "CCOC(=O)C1=CC(=O)C2=CC(I)=CC=C2O1", 
	 "Tm": 422.15, 
	 "num_atms": 26, 
	 "gaussian": { 
		 "optdone": 1, 
		 "sigma_profile": "no", 
		 "theory": "DFT", 
		 "functional": "B3LYP", 
		 "basiset": "6-31G**", 
		 "properties": { 
			 "R2extent": 6359.7924, 
			 "electric_dipole_moment_norm": 5.61874662536, 
			 "electric_quadrupole_moment_norm": 15.0190722327, 
			 "total_energy": -774.983174045, 
			 "HOMO_LUMO_gap": 0.15545, 
			 "cosmo_polarized_energy": -104599.93, 
			 "cosmo_cavitation_energy": 35.05, 
			 "cosmo_dispersion_energy": -26.74, 
			 "cosmo_repulsion_energy": 2.07, 
			 "cosmo_total_nonelectrostatic_energy": 10.37, 
			 "SMD_solvation_energy": 7.23 
		},
		"coords": [
			{
				"x": 3.0815821623,
				"y": -1.1828376235,
				"z": 1.8388937579,
				"element": "C" 
			},
			{
				"x": 1.6702978102,
				"y": -1.4989113268,
				"z": 2.2924109365,
				"element": "C" 
			},
			{
				"x": 0.7680388677,
				"y": -0.6704058977,
				"z": 1.5138470804,
				"element": "O" 
			},
			{
				"x": -0.5333680559,
				"y": -0.8210903589,
				"z": 1.7860606093,
				"element": "C" 
			},
			{
				"x": -0.9919718504,
				"y": -1.5803541945,
				"z": 2.6138569786,
				"element": "O" 
			},
			{
				"x": -1.4004455587,
				"y": 0.0673563496,
				"z": 0.9428271044,
				"element": "C" 
			},
			{
				"x": -2.74618203,
				"y": 0.0631806354,
				"z": 1.0682720367,
				"element": "C" 
			},
			{
				"x": -3.5908670036,
				"y": 0.9305442547,
				"z": 0.2454503771,
				"element": "C" 
			},
			{
				"x": -4.8155136583,
				"y": 0.9597082554,
				"z": 0.3255383839,
				"element": "O" 
			},
			{
				"x": -2.8228315175,
				"y": 1.7769131322,
				"z": -0.7009290948,
				"element": "C" 
			},
			{
				"x": -3.481768338,
				"y": 2.6675371053,
				"z": -1.5646542324,
				"element": "C" 
			},
			{
				"x": -2.744353013,
				"y": 3.4482613551,
				"z": -2.4403759656,
				"element": "C" 
			},
			{
				"x": -3.7303950732,
				"y": 4.7934863398,
				"z": -3.7459307161,
				"element": "I" 
			},
			{
				"x": -1.3405543974,
				"y": 3.3606399745,
				"z": -2.4761693102,
				"element": "C" 
			},
			{
				"x": -0.6785904146,
				"y": 2.4846024467,
				"z": -1.6277884977,
				"element": "C" 
			},
			{
				"x": -1.4245866963,
				"y": 1.6972472922,
				"z": -0.7443855109,
				"element": "C" 
			},
			{
				"x": -0.7192268991,
				"y": 0.8505596819,
				"z": 0.069677789,
				"element": "O" 
			},
			{
				"x": 3.7940882838,
				"y": -1.7903472696,
				"z": 2.4051850791,
				"element": "H" 
			},
			{
				"x": 3.3196187549,
				"y": -0.1285448974,
				"z": 2.0051684778,
				"element": "H" 
			},
			{
				"x": 3.2099720691,
				"y": -1.4033444664,
				"z": 0.7755339688,
				"element": "H" 
			},
			{
				"x": 1.4058072592,
				"y": -2.5480842635,
				"z": 2.1293084878,
				"element": "H" 
			},
			{
				"x": 1.5148950215,
				"y": -1.2792470083,
				"z": 3.3530354688,
				"element": "H" 
			},
			{
				"x": -3.2025612883,
				"y": -0.5976032475,
				"z": 1.7943156278,
				"element": "H" 
			},
			{
				"x": -4.5636487787,
				"y": 2.7099509699,
				"z": -1.5110713986,
				"element": "H" 
			},
			{
				"x": -0.7715388678,
				"y": 3.975125719,
				"z": -3.1644916011,
				"element": "H" 
			},
			{
				"x": 0.4025032121,
				"y": 2.3980570425,
				"z": -1.6355858367,
				"element": "H" 
			}
		],
		 "valence_orbital": [ 
			{
				"type": "occ",
				"energy": -0.28171,
				"method": "rhf"
			},
			{
				"type": "occ",
				"energy": -0.27615,
				"method": "rhf"
			},
			{
				"type": "occ",
				"energy": -0.27488,
				"method": "rhf"
			},
			{
				"type": "occ",
				"energy": -0.25617,
				"method": "rhf"
			},
			{
				"type": "occ",
				"energy": -0.24359,
				"method": "rhf"
			},
			{
				"type": "unocc",
				"energy": -0.08814,
				"method": "rhf"
			},
			{
				"type": "unocc",
				"energy": -0.04879,
				"method": "rhf"
			},
			{
				"type": "unocc",
				"energy": -0.04666,
				"method": "rhf"
			},
			{
				"type": "unocc",
				"energy": -0.0254,
				"method": "rhf"
			},
			{
				"type": "unocc",
				"energy": 0.03281,
				"method": "rhf"
			}
		],
		"cosmo_sigma_profile": { 
			"0.0": 0.0,
			"0.0": 0.0,
			"0.0": 0.0,
			"0.0": 0.0,
			"0.0": 0.0,
			"0.0": 0.0,
			"0.0": 0.0,
			"0.0": 0.0,
			"0.0": 0.0,
			"0.0": 0.0,
			"0.0": 0.0,
			"0.0": 0.0,
			"0.0": 0.0,
			"0.0": 0.0,
			"0.0": 0.0,
			"0.0": 0.0,
			"0.0": 0.0,
			"0.0": 0.0,
			"0.0": 0.0,
			"0.0": 0.0,
			"0.0": 0.0,
			"0.0": 0.0,
			"0.0": 0.0,
			"0.0": 0.0,
			"0.0": 0.0,
			"0.0": 0.0,
			"0.0": 0.0,
			"0.0": 0.0,
			"0.0": 0.0,
			"0.0": 0.0,
			"0.0": 0.0,
			"0.0": 0.0,
			"0.0": 0.0,
			"0.0": 0.0,
			"0.0": 0.0,
			"0.0": 0.0,
			"0.0": 0.0,
			"0.0": 0.0,
			"0.0": 0.0,
			"0.0": 0.0,
			"0.0": 0.0,
			"0.0": 0.0,
			"0.0": 0.0,
			"0.0": 0.0,
			"0.0": 0.0,
			"0.0": 0.0,
			"0.0": 0.0,
			"0.0": 0.0,
			"0.0": 0.0,
			"0.0": 0.0,
			"0.0": 0.0
		}
	}
}
