{
	 "smiles": "CC1=CC=C(CC2=CN=C(N)S2)C=C1", 
	 "Tm": 416.15, 
	 "num_atms": 26, 
	 "gaussian": { 
		 "optdone": 1, 
		 "sigma_profile": "yes", 
		 "theory": "DFT", 
		 "functional": "B3LYP", 
		 "basiset": "6-31G**", 
		 "properties": { 
			 "R2extent": 4929.9979, 
			 "electric_dipole_moment_norm": 1.81688782813, 
			 "electric_quadrupole_moment_norm": 13.6083486438, 
			 "total_energy": -934.09905301, 
			 "HOMO_LUMO_gap": 0.19968, 
			 "cosmo_polarized_energy": -11.68, 
			 "cosmo_cavitation_energy": 31.61, 
			 "cosmo_dispersion_energy": -23.03, 
			 "cosmo_repulsion_energy": 1.8, 
			 "cosmo_total_nonelectrostatic_energy": 10.38, 
			 "SMD_solvation_energy": 3.2 
		},
		"coords": [
			{
				"x": 1.5879450402,
				"y": 0.9773136098,
				"z": 3.6311367925,
				"element": "C" 
			},
			{
				"x": 0.9228667063,
				"y": 0.5263410335,
				"z": 2.3517133629,
				"element": "C" 
			},
			{
				"x": 1.3942150748,
				"y": 0.9615924378,
				"z": 1.103463546,
				"element": "C" 
			},
			{
				"x": 0.7717722644,
				"y": 0.5705919782,
				"z": -0.0785852869,
				"element": "C" 
			},
			{
				"x": -0.3449479764,
				"y": -0.2766282879,
				"z": -0.0564966328,
				"element": "C" 
			},
			{
				"x": -1.0069719561,
				"y": -0.7341104771,
				"z": -1.3492333253,
				"element": "C" 
			},
			{
				"x": -1.3830767014,
				"y": 0.3656294378,
				"z": -2.3002604428,
				"element": "C" 
			},
			{
				"x": -0.9291317792,
				"y": 0.6008557591,
				"z": -3.5628325429,
				"element": "C" 
			},
			{
				"x": -1.4309667724,
				"y": 1.6971586587,
				"z": -4.2350208478,
				"element": "N" 
			},
			{
				"x": -2.2971070333,
				"y": 2.3228198208,
				"z": -3.4923313318,
				"element": "C" 
			},
			{
				"x": -3.0252063182,
				"y": 3.4161611044,
				"z": -3.9126767087,
				"element": "N" 
			},
			{
				"x": -2.5659302913,
				"y": 1.6119815706,
				"z": -1.893781766,
				"element": "S" 
			},
			{
				"x": -0.8167264909,
				"y": -0.712615573,
				"z": 1.1844492832,
				"element": "C" 
			},
			{
				"x": -0.1915657905,
				"y": -0.3182024218,
				"z": 2.3698383265,
				"element": "C" 
			},
			{
				"x": 2.6794851343,
				"y": 0.9482890223,
				"z": 3.5472709422,
				"element": "H" 
			},
			{
				"x": 1.3121335909,
				"y": 2.0094038148,
				"z": 3.8813918245,
				"element": "H" 
			},
			{
				"x": 1.2980143378,
				"y": 0.346816513,
				"z": 4.4766109689,
				"element": "H" 
			},
			{
				"x": 2.2618329846,
				"y": 1.6162308101,
				"z": 1.0594029849,
				"element": "H" 
			},
			{
				"x": 1.1502815889,
				"y": 0.9278172187,
				"z": -1.0329667183,
				"element": "H" 
			},
			{
				"x": -0.3260087527,
				"y": -1.4017188785,
				"z": -1.894143435,
				"element": "H" 
			},
			{
				"x": -1.8874603635,
				"y": -1.3400701753,
				"z": -1.1005545341,
				"element": "H" 
			},
			{
				"x": -0.1938329383,
				"y": -0.0233795946,
				"z": -4.0603846025,
				"element": "H" 
			},
			{
				"x": -3.2724032468,
				"y": 4.0932993862,
				"z": -3.2047019119,
				"element": "H" 
			},
			{
				"x": -2.6447879968,
				"y": 3.8308534386,
				"z": -4.7540597948,
				"element": "H" 
			},
			{
				"x": -1.6806362159,
				"y": -1.3720219395,
				"z": 1.2282472231,
				"element": "H" 
			},
			{
				"x": -0.5787860982,
				"y": -0.6729082667,
				"z": 3.3221046267,
				"element": "H" 
			}
		],
		 "valence_orbital": [ 
			{
				"type": "occ",
				"energy": -0.2678,
				"method": "rhf"
			},
			{
				"type": "occ",
				"energy": -0.26645,
				"method": "rhf"
			},
			{
				"type": "occ",
				"energy": -0.24478,
				"method": "rhf"
			},
			{
				"type": "occ",
				"energy": -0.23091,
				"method": "rhf"
			},
			{
				"type": "occ",
				"energy": -0.20326,
				"method": "rhf"
			},
			{
				"type": "unocc",
				"energy": -0.00358,
				"method": "rhf"
			},
			{
				"type": "unocc",
				"energy": 0.00101,
				"method": "rhf"
			},
			{
				"type": "unocc",
				"energy": 0.00634,
				"method": "rhf"
			},
			{
				"type": "unocc",
				"energy": 0.01939,
				"method": "rhf"
			},
			{
				"type": "unocc",
				"energy": 0.07038,
				"method": "rhf"
			}
		],
		"cosmo_sigma_profile": { 
			"-0.025": 0.0,
			"-0.024": 0.0,
			"-0.023": 0.0,
			"-0.022": 0.0,
			"-0.021": 0.0,
			"-0.02": 0.0,
			"-0.019": 0.0,
			"-0.018": 0.0,
			"-0.017": 0.0,
			"-0.016": 0.0,
			"-0.015": 0.0987646982155,
			"-0.014": 1.5407160597,
			"-0.013": 2.81559743804,
			"-0.012": 2.29867512658,
			"-0.011": 2.37512497145,
			"-0.01": 2.64229822188,
			"-0.009": 2.12969643686,
			"-0.008": 1.82930958459,
			"-0.007": 2.16592388965,
			"-0.006": 5.34063331784,
			"-0.005": 15.1224846646,
			"-0.004": 20.6400155669,
			"-0.003": 20.6953797017,
			"-0.002": 21.5419186754,
			"-0.001": 18.8430523762,
			"0.0": 20.0944793878,
			"0.001": 15.870958423,
			"0.002": 17.4242671455,
			"0.003": 17.5827004775,
			"0.004": 16.569683762,
			"0.005": 15.6630192927,
			"0.006": 11.0984271293,
			"0.007": 5.75063244904,
			"0.008": 2.29662875988,
			"0.009": 1.73687422192,
			"0.01": 1.22070614193,
			"0.011": 2.46076350129,
			"0.012": 1.40500965377,
			"0.013": 1.11515084482,
			"0.014": 1.15258570701,
			"0.015": 0.825409525711,
			"0.016": 0.670238213237,
			"0.017": 0.000100675953503,
			"0.018": 0.0,
			"0.019": 0.0,
			"0.02": 0.0,
			"0.021": 0.0,
			"0.022": 0.0,
			"0.023": 0.0,
			"0.024": 0.0,
			"0.025": 0.0
		}
	}
}
