{
	 "smiles": "CC1=C(N=C(N1)C1=CC(C)=CC=C1)C(O)=O", 
	 "Tm": 423.15, 
	 "num_atms": 28, 
	 "gaussian": { 
		 "optdone": 1, 
		 "sigma_profile": "yes", 
		 "theory": "DFT", 
		 "functional": "B3LYP", 
		 "basiset": "6-31G**", 
		 "properties": { 
			 "R2extent": 5145.014, 
			 "electric_dipole_moment_norm": 8.0836381537, 
			 "electric_quadrupole_moment_norm": 21.3337724838, 
			 "total_energy": -724.486793633, 
			 "HOMO_LUMO_gap": 0.18018, 
			 "cosmo_polarized_energy": -26.95, 
			 "cosmo_cavitation_energy": 32.6, 
			 "cosmo_dispersion_energy": -23.71, 
			 "cosmo_repulsion_energy": 1.85, 
			 "cosmo_total_nonelectrostatic_energy": 10.75, 
			 "SMD_solvation_energy": 5.08 
		},
		"coords": [
			{
				"x": 3.3490697639,
				"y": -0.9405998581,
				"z": 0.0026764715,
				"element": "C" 
			},
			{
				"x": 2.0829653075,
				"y": -0.3562779215,
				"z": -0.5396879437,
				"element": "C" 
			},
			{
				"x": 1.7921860707,
				"y": 0.7697883642,
				"z": -1.3002793709,
				"element": "C" 
			},
			{
				"x": 0.4335710412,
				"y": 0.9122321209,
				"z": -1.4621007147,
				"element": "N" 
			},
			{
				"x": -0.1195989795,
				"y": -0.1063524722,
				"z": -0.8361265106,
				"element": "C" 
			},
			{
				"x": 0.8511691423,
				"y": -0.9003479502,
				"z": -0.2596819639,
				"element": "N" 
			},
			{
				"x": -1.5583071042,
				"y": -0.3750286022,
				"z": -0.7506942212,
				"element": "C" 
			},
			{
				"x": -2.0660212943,
				"y": -1.5756653353,
				"z": -0.2285345913,
				"element": "C" 
			},
			{
				"x": -3.4409612867,
				"y": -1.8143840891,
				"z": -0.1467017017,
				"element": "C" 
			},
			{
				"x": -3.9728737546,
				"y": -3.1022298468,
				"z": 0.438153764,
				"element": "C" 
			},
			{
				"x": -4.3168185537,
				"y": -0.8233250326,
				"z": -0.6110255744,
				"element": "C" 
			},
			{
				"x": -3.8249082639,
				"y": 0.3711425327,
				"z": -1.1393259772,
				"element": "C" 
			},
			{
				"x": -2.4542997018,
				"y": 0.6019399006,
				"z": -1.2110558293,
				"element": "C" 
			},
			{
				"x": 2.7271543345,
				"y": 1.7914630817,
				"z": -1.8382957576,
				"element": "C" 
			},
			{
				"x": 3.9733030444,
				"y": 1.3232077047,
				"z": -2.1751908601,
				"element": "O" 
			},
			{
				"x": 2.4674282951,
				"y": 2.9602106664,
				"z": -1.964856441,
				"element": "O" 
			},
			{
				"x": 4.1832662846,
				"y": -0.2549075502,
				"z": -0.1566979242,
				"element": "H" 
			},
			{
				"x": 3.5988628251,
				"y": -1.9003972941,
				"z": -0.4677361331,
				"element": "H" 
			},
			{
				"x": 3.2730543097,
				"y": -1.1162124905,
				"z": 1.0819877799,
				"element": "H" 
			},
			{
				"x": 0.6922383021,
				"y": -1.7021071265,
				"z": 0.3319743061,
				"element": "H" 
			},
			{
				"x": -1.3890349051,
				"y": -2.3584349431,
				"z": 0.1079219098,
				"element": "H" 
			},
			{
				"x": -4.7848930651,
				"y": -3.5119552748,
				"z": -0.1712496086,
				"element": "H" 
			},
			{
				"x": -3.1911125421,
				"y": -3.8638117063,
				"z": 0.5118544053,
				"element": "H" 
			},
			{
				"x": -4.3750185636,
				"y": -2.9439314855,
				"z": 1.4463004156,
				"element": "H" 
			},
			{
				"x": -5.3896825741,
				"y": -0.9920250415,
				"z": -0.5616233892,
				"element": "H" 
			},
			{
				"x": -4.516391589,
				"y": 1.1280197641,
				"z": -1.498239725,
				"element": "H" 
			},
			{
				"x": -2.0559885822,
				"y": 1.5244789887,
				"z": -1.6183950636,
				"element": "H" 
			},
			{
				"x": 3.9392420389,
				"y": 0.3598108964,
				"z": -2.2529697509,
				"element": "H" 
			}
		],
		 "valence_orbital": [ 
			{
				"type": "occ",
				"energy": -0.28043,
				"method": "rhf"
			},
			{
				"type": "occ",
				"energy": -0.2777,
				"method": "rhf"
			},
			{
				"type": "occ",
				"energy": -0.25992,
				"method": "rhf"
			},
			{
				"type": "occ",
				"energy": -0.25134,
				"method": "rhf"
			},
			{
				"type": "occ",
				"energy": -0.21819,
				"method": "rhf"
			},
			{
				"type": "unocc",
				"energy": -0.03801,
				"method": "rhf"
			},
			{
				"type": "unocc",
				"energy": -0.01663,
				"method": "rhf"
			},
			{
				"type": "unocc",
				"energy": -0.00492,
				"method": "rhf"
			},
			{
				"type": "unocc",
				"energy": 0.04774,
				"method": "rhf"
			},
			{
				"type": "unocc",
				"energy": 0.05645,
				"method": "rhf"
			}
		],
		"cosmo_sigma_profile": { 
			"-0.025": 0.0,
			"-0.024": 0.0,
			"-0.023": 0.0,
			"-0.022": 0.0,
			"-0.021": 0.0,
			"-0.02": 0.0,
			"-0.019": 0.0,
			"-0.018": 0.187996757675,
			"-0.017": 1.41207598227,
			"-0.016": 1.93373603409,
			"-0.015": 1.8839677163,
			"-0.014": 2.80710993145,
			"-0.013": 1.73851602871,
			"-0.012": 2.75361485372,
			"-0.011": 2.4568620975,
			"-0.01": 2.6267320581,
			"-0.009": 2.37869803157,
			"-0.008": 2.50358219515,
			"-0.007": 4.30820392735,
			"-0.006": 10.1739778688,
			"-0.005": 14.7345753229,
			"-0.004": 22.9016724286,
			"-0.003": 20.1587367066,
			"-0.002": 19.8959081621,
			"-0.001": 18.2324875803,
			"0.0": 17.9019242146,
			"0.001": 14.6530660775,
			"0.002": 11.5502102201,
			"0.003": 12.446139891,
			"0.004": 13.10187948,
			"0.005": 12.7596129122,
			"0.006": 5.14474468003,
			"0.007": 3.45333618681,
			"0.008": 4.15034333067,
			"0.009": 3.80840220911,
			"0.01": 5.39630655823,
			"0.011": 6.42281155886,
			"0.012": 6.8319510761,
			"0.013": 4.77955692565,
			"0.014": 2.08080362314,
			"0.015": 1.42503570701,
			"0.016": 0.86165512265,
			"0.017": 0.00985481514717,
			"0.018": 0.0,
			"0.019": 0.0,
			"0.02": 0.0,
			"0.021": 0.0,
			"0.022": 0.0,
			"0.023": 0.0,
			"0.024": 0.0,
			"0.025": 0.0
		}
	}
}
