{
	 "smiles": "CC1=C(NC(=O)OC(C)(C)C)C=CC(=C1)C(O)=O", 
	 "Tm": 452.15, 
	 "num_atms": 35, 
	 "gaussian": { 
		 "optdone": 1, 
		 "sigma_profile": "yes", 
		 "theory": "DFT", 
		 "functional": "B3LYP", 
		 "basiset": "6-31G**", 
		 "properties": { 
			 "R2extent": 7072.528, 
			 "electric_dipole_moment_norm": 3.19977180124, 
			 "electric_quadrupole_moment_norm": 34.2753623845, 
			 "total_energy": -861.329708733, 
			 "HOMO_LUMO_gap": 0.19436, 
			 "cosmo_polarized_energy": -19.73, 
			 "cosmo_cavitation_energy": 38.27, 
			 "cosmo_dispersion_energy": -25.81, 
			 "cosmo_repulsion_energy": 2.0, 
			 "cosmo_total_nonelectrostatic_energy": 14.47, 
			 "SMD_solvation_energy": 8.92 
		},
		"coords": [
			{
				"x": -2.3335458142,
				"y": -0.8095222668,
				"z": 0.1369863697,
				"element": "C" 
			},
			{
				"x": -1.4626402406,
				"y": -2.0056700062,
				"z": 0.4204055786,
				"element": "C" 
			},
			{
				"x": -0.469027669,
				"y": -1.983657261,
				"z": 1.422875515,
				"element": "C" 
			},
			{
				"x": -0.2515115634,
				"y": -0.8264857674,
				"z": 2.2218258838,
				"element": "N" 
			},
			{
				"x": 0.3343225656,
				"y": 0.3703755454,
				"z": 1.8368466858,
				"element": "C" 
			},
			{
				"x": 0.6508093505,
				"y": 1.2180061994,
				"z": 2.65267636,
				"element": "O" 
			},
			{
				"x": 0.4847762257,
				"y": 0.4356237087,
				"z": 0.5018022912,
				"element": "O" 
			},
			{
				"x": 1.1237961167,
				"y": 1.610284149,
				"z": -0.129252991,
				"element": "C" 
			},
			{
				"x": 1.0998711314,
				"y": 1.2432606931,
				"z": -1.6146579618,
				"element": "C" 
			},
			{
				"x": 0.291361379,
				"y": 2.8673800239,
				"z": 0.1397860722,
				"element": "C" 
			},
			{
				"x": 2.5647771176,
				"y": 1.7468936153,
				"z": 0.3727258564,
				"element": "C" 
			},
			{
				"x": 0.2793005304,
				"y": -3.1342376264,
				"z": 1.7018062838,
				"element": "C" 
			},
			{
				"x": 0.0660966931,
				"y": -4.312416935,
				"z": 0.9944667469,
				"element": "C" 
			},
			{
				"x": -0.9011551464,
				"y": -4.3490629119,
				"z": -0.0182028991,
				"element": "C" 
			},
			{
				"x": -1.6386482517,
				"y": -3.1920004133,
				"z": -0.2951913885,
				"element": "C" 
			},
			{
				"x": -1.1812145,
				"y": -5.566552167,
				"z": -0.8448479182,
				"element": "C" 
			},
			{
				"x": -0.7851913052,
				"y": -6.7620122915,
				"z": -0.3275105934,
				"element": "O" 
			},
			{
				"x": -1.7298670765,
				"y": -5.5290517086,
				"z": -1.9212987066,
				"element": "O" 
			},
			{
				"x": -3.238941606,
				"y": -1.1088461867,
				"z": -0.396484314,
				"element": "H" 
			},
			{
				"x": -1.8025577964,
				"y": -0.072632272,
				"z": -0.4727784973,
				"element": "H" 
			},
			{
				"x": -2.6228350863,
				"y": -0.3074965397,
				"z": 1.0652663838,
				"element": "H" 
			},
			{
				"x": -0.1705137342,
				"y": -0.9651238821,
				"z": 3.2199769786,
				"element": "H" 
			},
			{
				"x": 1.5756134513,
				"y": 2.0345447251,
				"z": -2.2013754288,
				"element": "H" 
			},
			{
				"x": 0.0729251111,
				"y": 1.1217707011,
				"z": -1.9714615433,
				"element": "H" 
			},
			{
				"x": 1.6389024125,
				"y": 0.3082740047,
				"z": -1.7909237548,
				"element": "H" 
			},
			{
				"x": 0.7111262052,
				"y": 3.7090662452,
				"z": -0.4204801788,
				"element": "H" 
			},
			{
				"x": 0.2893324208,
				"y": 3.1164046425,
				"z": 1.2011028931,
				"element": "H" 
			},
			{
				"x": -0.7409346148,
				"y": 2.7212662761,
				"z": -0.1937110103,
				"element": "H" 
			},
			{
				"x": 2.589215167,
				"y": 1.9861318781,
				"z": 1.4360097016,
				"element": "H" 
			},
			{
				"x": 3.0689344177,
				"y": 2.5457488082,
				"z": -0.1803891363,
				"element": "H" 
			},
			{
				"x": 3.1164063653,
				"y": 0.8169038694,
				"z": 0.202745291,
				"element": "H" 
			},
			{
				"x": 1.0474920647,
				"y": -3.0893725984,
				"z": 2.4684627547,
				"element": "H" 
			},
			{
				"x": 0.6948800147,
				"y": -5.1734035294,
				"z": 1.2076740536,
				"element": "H" 
			},
			{
				"x": -2.3859246642,
				"y": -3.2441516711,
				"z": -1.0806301047,
				"element": "H" 
			},
			{
				"x": -0.5207296714,
				"y": -6.6535390505,
				"z": 0.596254727,
				"element": "H" 
			}
		],
		 "valence_orbital": [ 
			{
				"type": "occ",
				"energy": -0.29505,
				"method": "rhf"
			},
			{
				"type": "occ",
				"energy": -0.27659,
				"method": "rhf"
			},
			{
				"type": "occ",
				"energy": -0.27326,
				"method": "rhf"
			},
			{
				"type": "occ",
				"energy": -0.26438,
				"method": "rhf"
			},
			{
				"type": "occ",
				"energy": -0.24649,
				"method": "rhf"
			},
			{
				"type": "unocc",
				"energy": -0.05213,
				"method": "rhf"
			},
			{
				"type": "unocc",
				"energy": -0.02302,
				"method": "rhf"
			},
			{
				"type": "unocc",
				"energy": 0.03556,
				"method": "rhf"
			},
			{
				"type": "unocc",
				"energy": 0.05191,
				"method": "rhf"
			},
			{
				"type": "unocc",
				"energy": 0.05981,
				"method": "rhf"
			}
		],
		"cosmo_sigma_profile": { 
			"-0.025": 0.0,
			"-0.024": 0.0,
			"-0.023": 0.0,
			"-0.022": 0.0,
			"-0.021": 0.0,
			"-0.02": 0.0,
			"-0.019": 0.108341431075,
			"-0.018": 0.80599980502,
			"-0.017": 1.09082038511,
			"-0.016": 0.898073143537,
			"-0.015": 1.1908977067,
			"-0.014": 1.58309715609,
			"-0.013": 2.38111859522,
			"-0.012": 2.55838105372,
			"-0.011": 1.93044795186,
			"-0.01": 1.95159375554,
			"-0.009": 2.60411775274,
			"-0.008": 3.62855576051,
			"-0.007": 4.89035625808,
			"-0.006": 6.06636477752,
			"-0.005": 9.07819973024,
			"-0.004": 20.3884296585,
			"-0.003": 26.7075493991,
			"-0.002": 27.7841861683,
			"-0.001": 32.2142402553,
			"0.0": 40.2460436965,
			"0.001": 24.3761221357,
			"0.002": 14.193012839,
			"0.003": 15.7568447687,
			"0.004": 7.50381277875,
			"0.005": 5.67200182457,
			"0.006": 5.42761353869,
			"0.007": 5.29557373926,
			"0.008": 4.54410406826,
			"0.009": 3.97608902709,
			"0.01": 5.69643392927,
			"0.011": 7.2851651239,
			"0.012": 7.52915918521,
			"0.013": 5.27645900367,
			"0.014": 0.592100933179,
			"0.015": 0.0,
			"0.016": 0.0,
			"0.017": 0.0,
			"0.018": 0.0,
			"0.019": 0.0,
			"0.02": 0.0,
			"0.021": 0.0,
			"0.022": 0.0,
			"0.023": 0.0,
			"0.024": 0.0,
			"0.025": 0.0
		}
	}
}
