{
	 "smiles": "CC(C)C(CCC(C)C(O)=O)C=NNC(N)=O", 
	 "Tm": 425.15, 
	 "num_atms": 38, 
	 "gaussian": { 
		 "optdone": 1, 
		 "sigma_profile": "yes", 
		 "theory": "DFT", 
		 "functional": "B3LYP", 
		 "basiset": "6-31G**", 
		 "properties": { 
			 "R2extent": 6330.1922, 
			 "electric_dipole_moment_norm": 5.86109359164, 
			 "electric_quadrupole_moment_norm": 16.5830416242, 
			 "total_energy": -821.767072177, 
			 "HOMO_LUMO_gap": 0.21954, 
			 "cosmo_polarized_energy": -22.21, 
			 "cosmo_cavitation_energy": 39.24, 
			 "cosmo_dispersion_energy": -26.14, 
			 "cosmo_repulsion_energy": 2.05, 
			 "cosmo_total_nonelectrostatic_energy": 15.15, 
			 "SMD_solvation_energy": 8.79 
		},
		"coords": [
			{
				"x": -2.8754742647,
				"y": 0.0080781712,
				"z": -0.0868100138,
				"element": "C" 
			},
			{
				"x": -2.1671242018,
				"y": 0.676841282,
				"z": -1.2746419577,
				"element": "C" 
			},
			{
				"x": -3.1545823473,
				"y": 1.5846459503,
				"z": -2.0289285751,
				"element": "C" 
			},
			{
				"x": -0.8612875929,
				"y": 1.4610040326,
				"z": -0.9148853778,
				"element": "C" 
			},
			{
				"x": 0.3888643944,
				"y": 0.5906313873,
				"z": -0.6099391238,
				"element": "C" 
			},
			{
				"x": 0.3768721704,
				"y": -0.3227664587,
				"z": 0.63485996,
				"element": "C" 
			},
			{
				"x": 1.7861158209,
				"y": -0.5269456613,
				"z": 1.2503717256,
				"element": "C" 
			},
			{
				"x": 2.7268384697,
				"y": -1.3296520701,
				"z": 0.348199254,
				"element": "C" 
			},
			{
				"x": 1.6330375896,
				"y": -1.209660445,
				"z": 2.6119624379,
				"element": "C" 
			},
			{
				"x": 1.1745239632,
				"y": -0.4262630496,
				"z": 3.6248783357,
				"element": "O" 
			},
			{
				"x": 1.8527423343,
				"y": -2.3798351453,
				"z": 2.8132585214,
				"element": "O" 
			},
			{
				"x": -1.0804589662,
				"y": 2.5692259681,
				"z": 0.0959465561,
				"element": "C" 
			},
			{
				"x": -0.9367427223,
				"y": 2.3875010575,
				"z": 1.3551101947,
				"element": "N" 
			},
			{
				"x": -1.0905026306,
				"y": 3.4472649493,
				"z": 2.195972366,
				"element": "N" 
			},
			{
				"x": -0.7312038159,
				"y": 3.3508915846,
				"z": 3.5375923607,
				"element": "C" 
			},
			{
				"x": -0.4830472945,
				"y": 2.0574538586,
				"z": 3.9770908502,
				"element": "N" 
			},
			{
				"x": -0.6339587459,
				"y": 4.3463460858,
				"z": 4.2342045114,
				"element": "O" 
			},
			{
				"x": -3.1853874488,
				"y": 0.7481978084,
				"z": 0.6582662101,
				"element": "H" 
			},
			{
				"x": -3.7766483771,
				"y": -0.5083273204,
				"z": -0.4344578572,
				"element": "H" 
			},
			{
				"x": -2.2481234699,
				"y": -0.7304924317,
				"z": 0.4155661103,
				"element": "H" 
			},
			{
				"x": -1.8507261483,
				"y": -0.1143321997,
				"z": -1.9695500797,
				"element": "H" 
			},
			{
				"x": -2.6915919084,
				"y": 2.046239999,
				"z": -2.9081758707,
				"element": "H" 
			},
			{
				"x": -3.5299789492,
				"y": 2.3887883827,
				"z": -1.3849533846,
				"element": "H" 
			},
			{
				"x": -4.0227379579,
				"y": 1.0123145631,
				"z": -2.3714385313,
				"element": "H" 
			},
			{
				"x": -0.5978643179,
				"y": 1.9898699096,
				"z": -1.8419471542,
				"element": "H" 
			},
			{
				"x": 0.5945032416,
				"y": -0.0092173916,
				"z": -1.5047158587,
				"element": "H" 
			},
			{
				"x": 1.2320736005,
				"y": 1.2876317997,
				"z": -0.5182983248,
				"element": "H" 
			},
			{
				"x": -0.2689488497,
				"y": 0.1164213214,
				"z": 1.3943262125,
				"element": "H" 
			},
			{
				"x": -0.0376044828,
				"y": -1.3075905524,
				"z": 0.3890846225,
				"element": "H" 
			},
			{
				"x": 2.2152647749,
				"y": 0.4712517103,
				"z": 1.4260095754,
				"element": "H" 
			},
			{
				"x": 3.7197303926,
				"y": -1.4222746017,
				"z": 0.7967811202,
				"element": "H" 
			},
			{
				"x": 2.337844781,
				"y": -2.3407106772,
				"z": 0.2017871171,
				"element": "H" 
			},
			{
				"x": 2.8375476464,
				"y": -0.8484096382,
				"z": -0.6279200529,
				"element": "H" 
			},
			{
				"x": 1.0683318278,
				"y": 0.5044029482,
				"z": 3.3611591386,
				"element": "H" 
			},
			{
				"x": -1.3452439287,
				"y": 3.5627535546,
				"z": -0.292525119,
				"element": "H" 
			},
			{
				"x": -1.162317785,
				"y": 4.3976053449,
				"z": 1.8389395798,
				"element": "H" 
			},
			{
				"x": -0.9997146715,
				"y": 1.3208499895,
				"z": 3.5142187285,
				"element": "H" 
			},
			{
				"x": -0.4703201301,
				"y": 1.9958659842,
				"z": 4.9867017929,
				"element": "H" 
			}
		],
		 "valence_orbital": [ 
			{
				"type": "occ",
				"energy": -0.29841,
				"method": "rhf"
			},
			{
				"type": "occ",
				"energy": -0.29174,
				"method": "rhf"
			},
			{
				"type": "occ",
				"energy": -0.2759,
				"method": "rhf"
			},
			{
				"type": "occ",
				"energy": -0.25744,
				"method": "rhf"
			},
			{
				"type": "occ",
				"energy": -0.25088,
				"method": "rhf"
			},
			{
				"type": "unocc",
				"energy": -0.03134,
				"method": "rhf"
			},
			{
				"type": "unocc",
				"energy": 0.01724,
				"method": "rhf"
			},
			{
				"type": "unocc",
				"energy": 0.04513,
				"method": "rhf"
			},
			{
				"type": "unocc",
				"energy": 0.06065,
				"method": "rhf"
			},
			{
				"type": "unocc",
				"energy": 0.06312,
				"method": "rhf"
			}
		],
		"cosmo_sigma_profile": { 
			"-0.025": 0.0,
			"-0.024": 0.0,
			"-0.023": 0.0,
			"-0.022": 0.0,
			"-0.021": 0.0,
			"-0.02": 0.0,
			"-0.019": 0.0,
			"-0.018": 0.0,
			"-0.017": 0.0,
			"-0.016": 0.0,
			"-0.015": 0.102771193275,
			"-0.014": 1.57963302923,
			"-0.013": 2.73565740068,
			"-0.012": 3.18889637003,
			"-0.011": 4.15046200656,
			"-0.01": 3.1726145384,
			"-0.009": 4.2830556636,
			"-0.008": 4.90170894821,
			"-0.007": 6.06021479018,
			"-0.006": 6.26008274372,
			"-0.005": 7.63458871999,
			"-0.004": 12.2588738396,
			"-0.003": 31.8178490421,
			"-0.002": 43.8873498789,
			"-0.001": 35.5778465492,
			"0.0": 28.6962919187,
			"0.001": 26.7495122009,
			"0.002": 16.506731147,
			"0.003": 7.86290096594,
			"0.004": 5.65324332201,
			"0.005": 3.49667127898,
			"0.006": 3.14588384524,
			"0.007": 3.53103279415,
			"0.008": 3.69359806011,
			"0.009": 3.53772699684,
			"0.01": 4.67638402877,
			"0.011": 6.02096980366,
			"0.012": 8.40361203577,
			"0.013": 9.54699649852,
			"0.014": 4.94990486577,
			"0.015": 0.189451342879,
			"0.016": 0.0,
			"0.017": 0.0,
			"0.018": 0.0,
			"0.019": 0.0,
			"0.02": 0.0,
			"0.021": 0.0,
			"0.022": 0.0,
			"0.023": 0.0,
			"0.024": 0.0,
			"0.025": 0.0
		}
	}
}
