{
	 "smiles": "CCCNC(=O)C1=CC(=CC=C1)C(O)=O", 
	 "Tm": 503.15, 
	 "num_atms": 28, 
	 "gaussian": { 
		 "optdone": 1, 
		 "sigma_profile": "yes", 
		 "theory": "DFT", 
		 "functional": "B3LYP", 
		 "basiset": "6-31G**", 
		 "properties": { 
			 "R2extent": 5552.1691, 
			 "electric_dipole_moment_norm": 6.64048517881, 
			 "electric_quadrupole_moment_norm": 24.4654274099, 
			 "total_energy": -707.465204237, 
			 "HOMO_LUMO_gap": 0.19804, 
			 "cosmo_polarized_energy": -20.48, 
			 "cosmo_cavitation_energy": 32.31, 
			 "cosmo_dispersion_energy": -23.04, 
			 "cosmo_repulsion_energy": 1.82, 
			 "cosmo_total_nonelectrostatic_energy": 11.09, 
			 "SMD_solvation_energy": 7.03 
		},
		"coords": [
			{
				"x": -4.2223048184,
				"y": -0.5049517052,
				"z": -0.525687175,
				"element": "C" 
			},
			{
				"x": -3.3536133743,
				"y": -1.764348324,
				"z": -0.4710926971,
				"element": "C" 
			},
			{
				"x": -1.8996977794,
				"y": -1.5325429869,
				"z": -0.9057271478,
				"element": "C" 
			},
			{
				"x": -1.1822907944,
				"y": -0.6166231487,
				"z": -0.025227494,
				"element": "N" 
			},
			{
				"x": -0.5673508334,
				"y": 0.5162513074,
				"z": -0.4780828743,
				"element": "C" 
			},
			{
				"x": -0.574845133,
				"y": 0.8548426119,
				"z": -1.6596020042,
				"element": "O" 
			},
			{
				"x": 0.1486009232,
				"y": 1.3490028716,
				"z": 0.5560553644,
				"element": "C" 
			},
			{
				"x": 1.0762295607,
				"y": 2.2793057149,
				"z": 0.0735525404,
				"element": "C" 
			},
			{
				"x": 1.7938831082,
				"y": 3.0987682876,
				"z": 0.9480147522,
				"element": "C" 
			},
			{
				"x": 1.5543374686,
				"y": 3.0078348005,
				"z": 2.3273793834,
				"element": "C" 
			},
			{
				"x": 0.6216557183,
				"y": 2.0982425412,
				"z": 2.8155990447,
				"element": "C" 
			},
			{
				"x": -0.0792025072,
				"y": 1.2701115676,
				"z": 1.9355411214,
				"element": "C" 
			},
			{
				"x": 2.803093771,
				"y": 4.1139479196,
				"z": 0.4901358831,
				"element": "C" 
			},
			{
				"x": 3.2354751477,
				"y": 4.0250402676,
				"z": -0.7920481733,
				"element": "O" 
			},
			{
				"x": 3.2326521553,
				"y": 4.9822379855,
				"z": 1.2137547757,
				"element": "O" 
			},
			{
				"x": -4.2652516119,
				"y": -0.1000531063,
				"z": -1.5424071874,
				"element": "H" 
			},
			{
				"x": -3.8237610907,
				"y": 0.2795721457,
				"z": 0.1250733939,
				"element": "H" 
			},
			{
				"x": -5.2465931536,
				"y": -0.718900004,
				"z": -0.204956842,
				"element": "H" 
			},
			{
				"x": -3.7751505987,
				"y": -2.5395171701,
				"z": -1.1234468347,
				"element": "H" 
			},
			{
				"x": -3.3670737056,
				"y": -2.1852847177,
				"z": 0.5442858767,
				"element": "H" 
			},
			{
				"x": -1.3651662095,
				"y": -2.4908170565,
				"z": -0.9471021506,
				"element": "H" 
			},
			{
				"x": -1.8568380728,
				"y": -1.0877091041,
				"z": -1.9025104494,
				"element": "H" 
			},
			{
				"x": -1.0120443352,
				"y": -0.9130892043,
				"z": 0.9236057505,
				"element": "H" 
			},
			{
				"x": 1.1695130089,
				"y": 2.3424538471,
				"z": -1.0075736193,
				"element": "H" 
			},
			{
				"x": 2.1052223335,
				"y": 3.6659264098,
				"z": 2.9903253671,
				"element": "H" 
			},
			{
				"x": 0.429453998,
				"y": 2.0379124948,
				"z": 3.8824331729,
				"element": "H" 
			},
			{
				"x": -0.82867627,
				"y": 0.5931288495,
				"z": 2.335691126,
				"element": "H" 
			},
			{
				"x": 2.8890430948,
				"y": 3.2283569055,
				"z": -1.2169829035,
				"element": "H" 
			}
		],
		 "valence_orbital": [ 
			{
				"type": "occ",
				"energy": -0.28135,
				"method": "rhf"
			},
			{
				"type": "occ",
				"energy": -0.2761,
				"method": "rhf"
			},
			{
				"type": "occ",
				"energy": -0.27351,
				"method": "rhf"
			},
			{
				"type": "occ",
				"energy": -0.26318,
				"method": "rhf"
			},
			{
				"type": "occ",
				"energy": -0.25968,
				"method": "rhf"
			},
			{
				"type": "unocc",
				"energy": -0.06164,
				"method": "rhf"
			},
			{
				"type": "unocc",
				"energy": -0.04486,
				"method": "rhf"
			},
			{
				"type": "unocc",
				"energy": 0.02496,
				"method": "rhf"
			},
			{
				"type": "unocc",
				"energy": 0.05445,
				"method": "rhf"
			},
			{
				"type": "unocc",
				"energy": 0.06797,
				"method": "rhf"
			}
		],
		"cosmo_sigma_profile": { 
			"-0.025": 0.0,
			"-0.024": 0.0,
			"-0.023": 0.0,
			"-0.022": 0.0,
			"-0.021": 0.0,
			"-0.02": 0.0,
			"-0.019": 0.413609905782,
			"-0.018": 1.19148491334,
			"-0.017": 0.773485550466,
			"-0.016": 0.557679589382,
			"-0.015": 1.4226016399,
			"-0.014": 2.19185331189,
			"-0.013": 2.77790086884,
			"-0.012": 1.79233555419,
			"-0.011": 2.08264727766,
			"-0.01": 2.38079858277,
			"-0.009": 3.14148770004,
			"-0.008": 3.30494911207,
			"-0.007": 5.93364245783,
			"-0.006": 7.70674858941,
			"-0.005": 8.56349573285,
			"-0.004": 13.3431686867,
			"-0.003": 19.2007536145,
			"-0.002": 24.5931886634,
			"-0.001": 24.8504204874,
			"0.0": 25.0183563141,
			"0.001": 23.171496693,
			"0.002": 20.9467934014,
			"0.003": 8.4610063709,
			"0.004": 3.65168848214,
			"0.005": 4.27056297086,
			"0.006": 4.10184812338,
			"0.007": 3.74818788287,
			"0.008": 4.27287687184,
			"0.009": 4.77995079951,
			"0.01": 6.43709481563,
			"0.011": 6.14447732468,
			"0.012": 6.44523571136,
			"0.013": 5.32404077889,
			"0.014": 3.03725092397,
			"0.015": 0.0,
			"0.016": 0.0,
			"0.017": 0.0,
			"0.018": 0.0,
			"0.019": 0.0,
			"0.02": 0.0,
			"0.021": 0.0,
			"0.022": 0.0,
			"0.023": 0.0,
			"0.024": 0.0,
			"0.025": 0.0
		}
	}
}
