{
	 "smiles": "CC(C)(C)OC(=O)N1C=CC=C1C=O", 
	 "Tm": 324.15, 
	 "num_atms": 27, 
	 "gaussian": { 
		 "optdone": 1, 
		 "sigma_profile": "yes", 
		 "theory": "DFT", 
		 "functional": "B3LYP", 
		 "basiset": "6-31G**", 
		 "properties": { 
			 "R2extent": 3520.5959, 
			 "electric_dipole_moment_norm": 3.22745470766, 
			 "electric_quadrupole_moment_norm": 18.8875914534, 
			 "total_energy": -669.328078201, 
			 "HOMO_LUMO_gap": 0.1741, 
			 "cosmo_polarized_energy": -10.07, 
			 "cosmo_cavitation_energy": 30.46, 
			 "cosmo_dispersion_energy": -21.09, 
			 "cosmo_repulsion_energy": 1.63, 
			 "cosmo_total_nonelectrostatic_energy": 11.0, 
			 "SMD_solvation_energy": 7.91 
		},
		"coords": [
			{
				"x": 0.5854625598,
				"y": -2.5682012457,
				"z": 0.8363953479,
				"element": "C" 
			},
			{
				"x": 1.1274816661,
				"y": -1.5027713253,
				"z": -0.1176844181,
				"element": "C" 
			},
			{
				"x": 1.7117710748,
				"y": -2.1411688889,
				"z": -1.3799437652,
				"element": "C" 
			},
			{
				"x": 2.1205524364,
				"y": -0.5811588071,
				"z": 0.594113897,
				"element": "C" 
			},
			{
				"x": -0.0994071826,
				"y": -0.7354750203,
				"z": -0.4698889566,
				"element": "O" 
			},
			{
				"x": -0.040500655,
				"y": 0.3023769927,
				"z": -1.3027512225,
				"element": "C" 
			},
			{
				"x": 0.9427760876,
				"y": 0.7458694316,
				"z": -1.8568115588,
				"element": "O" 
			},
			{
				"x": -1.3183389406,
				"y": 0.8822222578,
				"z": -1.4968637797,
				"element": "N" 
			},
			{
				"x": -1.4482520765,
				"y": 1.9761595259,
				"z": -2.3364469926,
				"element": "C" 
			},
			{
				"x": -2.7655422424,
				"y": 2.3596310925,
				"z": -2.3685387971,
				"element": "C" 
			},
			{
				"x": -3.4814739904,
				"y": 1.476285147,
				"z": -1.5216633241,
				"element": "C" 
			},
			{
				"x": -2.5954766846,
				"y": 0.562766212,
				"z": -0.9806149288,
				"element": "C" 
			},
			{
				"x": -2.9681865779,
				"y": -0.5091077478,
				"z": -0.052884184,
				"element": "C" 
			},
			{
				"x": -4.1257144558,
				"y": -0.6657842158,
				"z": 0.3087530225,
				"element": "O" 
			},
			{
				"x": -0.1608287711,
				"y": -3.1940483527,
				"z": 0.3389767441,
				"element": "H" 
			},
			{
				"x": 1.4035673309,
				"y": -3.2107908215,
				"z": 1.1741614968,
				"element": "H" 
			},
			{
				"x": 0.1247017688,
				"y": -2.1074379824,
				"z": 1.7147255588,
				"element": "H" 
			},
			{
				"x": 2.538543954,
				"y": -2.8010212638,
				"z": -1.0989262982,
				"element": "H" 
			},
			{
				"x": 0.9543924882,
				"y": -2.7457932249,
				"z": -1.8881509135,
				"element": "H" 
			},
			{
				"x": 2.087396602,
				"y": -1.3859076151,
				"z": -2.0705480413,
				"element": "H" 
			},
			{
				"x": 2.4997805128,
				"y": 0.1893624159,
				"z": -0.0773887768,
				"element": "H" 
			},
			{
				"x": 1.6470359671,
				"y": -0.1026153478,
				"z": 1.4568098844,
				"element": "H" 
			},
			{
				"x": 2.9647197409,
				"y": -1.1751932389,
				"z": 0.9580460145,
				"element": "H" 
			},
			{
				"x": -0.5723383143,
				"y": 2.3681513094,
				"z": -2.8279223026,
				"element": "H" 
			},
			{
				"x": -3.1668825895,
				"y": 3.1849474586,
				"z": -2.9391716661,
				"element": "H" 
			},
			{
				"x": -4.5395936426,
				"y": 1.4753505057,
				"z": -1.3026231542,
				"element": "H" 
			},
			{
				"x": -2.1632460661,
				"y": -1.1679472512,
				"z": 0.305841114,
				"element": "H" 
			}
		],
		 "valence_orbital": [ 
			{
				"type": "occ",
				"energy": -0.31826,
				"method": "rhf"
			},
			{
				"type": "occ",
				"energy": -0.29808,
				"method": "rhf"
			},
			{
				"type": "occ",
				"energy": -0.26974,
				"method": "rhf"
			},
			{
				"type": "occ",
				"energy": -0.24547,
				"method": "rhf"
			},
			{
				"type": "occ",
				"energy": -0.23375,
				"method": "rhf"
			},
			{
				"type": "unocc",
				"energy": -0.05965,
				"method": "rhf"
			},
			{
				"type": "unocc",
				"energy": 0.00472,
				"method": "rhf"
			},
			{
				"type": "unocc",
				"energy": 0.06539,
				"method": "rhf"
			},
			{
				"type": "unocc",
				"energy": 0.06955,
				"method": "rhf"
			},
			{
				"type": "unocc",
				"energy": 0.07872,
				"method": "rhf"
			}
		],
		"cosmo_sigma_profile": { 
			"-0.025": 0.0,
			"-0.024": 0.0,
			"-0.023": 0.0,
			"-0.022": 0.0,
			"-0.021": 0.0,
			"-0.02": 0.0,
			"-0.019": 0.0,
			"-0.018": 0.0,
			"-0.017": 0.0,
			"-0.016": 0.0,
			"-0.015": 0.0,
			"-0.014": 0.0,
			"-0.013": 0.0,
			"-0.012": 0.0,
			"-0.011": 0.0,
			"-0.01": 0.0,
			"-0.009": 0.186682853566,
			"-0.008": 1.8124454487,
			"-0.007": 3.78402824612,
			"-0.006": 4.35211297464,
			"-0.005": 10.7540575553,
			"-0.004": 25.3079524384,
			"-0.003": 30.4524549554,
			"-0.002": 28.5839912998,
			"-0.001": 28.3101669117,
			"0.0": 30.2518170098,
			"0.001": 14.8777900581,
			"0.002": 10.9800045557,
			"0.003": 11.3890723963,
			"0.004": 7.9227477997,
			"0.005": 3.06174125756,
			"0.006": 3.50175476678,
			"0.007": 2.88239441171,
			"0.008": 2.77186237308,
			"0.009": 3.84714287748,
			"0.01": 3.93176675872,
			"0.011": 5.0922234833,
			"0.012": 4.7229929519,
			"0.013": 2.07975827039,
			"0.014": 0.432968934885,
			"0.015": 0.0,
			"0.016": 0.0,
			"0.017": 0.0,
			"0.018": 0.0,
			"0.019": 0.0,
			"0.02": 0.0,
			"0.021": 0.0,
			"0.022": 0.0,
			"0.023": 0.0,
			"0.024": 0.0,
			"0.025": 0.0
		}
	}
}
