{
	 "smiles": "NC1=NN2C=CC=CC2=N1", 
	 "Tm": 397.15, 
	 "num_atms": 16, 
	 "gaussian": { 
		 "optdone": 1, 
		 "sigma_profile": "yes", 
		 "theory": "DFT", 
		 "functional": "B3LYP", 
		 "basiset": "6-31G**", 
		 "properties": { 
			 "R2extent": 1331.903, 
			 "electric_dipole_moment_norm": 1.69551548799, 
			 "electric_quadrupole_moment_norm": 10.0237932595, 
			 "total_energy": -451.252805473, 
			 "HOMO_LUMO_gap": 0.18279, 
			 "cosmo_polarized_energy": -12.14, 
			 "cosmo_cavitation_energy": 20.33, 
			 "cosmo_dispersion_energy": -15.7, 
			 "cosmo_repulsion_energy": 1.26, 
			 "cosmo_total_nonelectrostatic_energy": 5.89, 
			 "SMD_solvation_energy": 0.81 
		},
		"coords": [
			{
				"x": -3.1315459931,
				"y": 0.7028585934,
				"z": 1.353951078,
				"element": "N" 
			},
			{
				"x": -1.8607219821,
				"y": 0.4287557249,
				"z": 0.9146739278,
				"element": "C" 
			},
			{
				"x": -1.3815248354,
				"y": -0.8267310935,
				"z": 0.9004085122,
				"element": "N" 
			},
			{
				"x": -0.1503831494,
				"y": -0.6365681157,
				"z": 0.3519478578,
				"element": "N" 
			},
			{
				"x": 0.7759294811,
				"y": -1.5986960872,
				"z": 0.1027733912,
				"element": "C" 
			},
			{
				"x": 1.9759342381,
				"y": -1.2264222478,
				"z": -0.4541535916,
				"element": "C" 
			},
			{
				"x": 2.2246061074,
				"y": 0.1360015256,
				"z": -0.7562045771,
				"element": "C" 
			},
			{
				"x": 1.2749103999,
				"y": 1.1035539678,
				"z": -0.4985756961,
				"element": "C" 
			},
			{
				"x": 0.045483224,
				"y": 0.7164706243,
				"z": 0.0735928734,
				"element": "C" 
			},
			{
				"x": -1.0452358555,
				"y": 1.3992253895,
				"z": 0.4338078274,
				"element": "N" 
			},
			{
				"x": -3.5327501507,
				"y": 0.0125495449,
				"z": 1.9713413526,
				"element": "H" 
			},
			{
				"x": -3.2765205817,
				"y": 1.661890986,
				"z": 1.6325777429,
				"element": "H" 
			},
			{
				"x": 0.4930437888,
				"y": -2.6095320918,
				"z": 0.366638446,
				"element": "H" 
			},
			{
				"x": 2.7213671035,
				"y": -1.9859992626,
				"z": -0.6572100392,
				"element": "H" 
			},
			{
				"x": 3.1753580912,
				"y": 0.4185319278,
				"z": -1.1968564786,
				"element": "H" 
			},
			{
				"x": 1.4385501137,
				"y": 2.1513106142,
				"z": -0.7206126266,
				"element": "H" 
			}
		],
		 "valence_orbital": [ 
			{
				"type": "occ",
				"energy": -0.31797,
				"method": "rhf"
			},
			{
				"type": "occ",
				"energy": -0.30316,
				"method": "rhf"
			},
			{
				"type": "occ",
				"energy": -0.27145,
				"method": "rhf"
			},
			{
				"type": "occ",
				"energy": -0.22716,
				"method": "rhf"
			},
			{
				"type": "occ",
				"energy": -0.21546,
				"method": "rhf"
			},
			{
				"type": "unocc",
				"energy": -0.03267,
				"method": "rhf"
			},
			{
				"type": "unocc",
				"energy": 0.00072,
				"method": "rhf"
			},
			{
				"type": "unocc",
				"energy": 0.07432,
				"method": "rhf"
			},
			{
				"type": "unocc",
				"energy": 0.08651,
				"method": "rhf"
			},
			{
				"type": "unocc",
				"energy": 0.10272,
				"method": "rhf"
			}
		],
		"cosmo_sigma_profile": { 
			"-0.025": 0.0,
			"-0.024": 0.0,
			"-0.023": 0.0,
			"-0.022": 0.0,
			"-0.021": 0.0,
			"-0.02": 0.0,
			"-0.019": 0.0,
			"-0.018": 0.0,
			"-0.017": 0.0,
			"-0.016": 0.0,
			"-0.015": 0.0,
			"-0.014": 0.390210044851,
			"-0.013": 2.23295049347,
			"-0.012": 2.27920271341,
			"-0.011": 1.98025493066,
			"-0.01": 2.56933029376,
			"-0.009": 3.75893770407,
			"-0.008": 4.4435458726,
			"-0.007": 8.93841122349,
			"-0.006": 9.08187891929,
			"-0.005": 9.39475205929,
			"-0.004": 7.46753576899,
			"-0.003": 6.09412142011,
			"-0.002": 7.21697765369,
			"-0.001": 11.4138954621,
			"0.0": 12.0237521559,
			"0.001": 11.7873828238,
			"0.002": 12.4947707717,
			"0.003": 11.2566376602,
			"0.004": 3.96526236869,
			"0.005": 4.58091114773,
			"0.006": 4.15178238986,
			"0.007": 3.26184316721,
			"0.008": 3.40658553453,
			"0.009": 2.99056037284,
			"0.01": 3.31205638875,
			"0.011": 2.74760251901,
			"0.012": 2.40101307738,
			"0.013": 1.97301120209,
			"0.014": 2.33841383952,
			"0.015": 1.8621054591,
			"0.016": 0.979058528446,
			"0.017": 0.475757804438,
			"0.018": 0.0,
			"0.019": 0.0,
			"0.02": 0.0,
			"0.021": 0.0,
			"0.022": 0.0,
			"0.023": 0.0,
			"0.024": 0.0,
			"0.025": 0.0
		}
	}
}
