{
	 "smiles": "OC(=O)C1=CSC2=C1CCCC2", 
	 "Tm": 433.15, 
	 "num_atms": 22, 
	 "gaussian": { 
		 "optdone": 1, 
		 "sigma_profile": "yes", 
		 "theory": "DFT", 
		 "functional": "B3LYP", 
		 "basiset": "6-31G**", 
		 "properties": { 
			 "R2extent": 3006.0639, 
			 "electric_dipole_moment_norm": 5.53091808292, 
			 "electric_quadrupole_moment_norm": 19.1759255203, 
			 "total_energy": -897.630397163, 
			 "HOMO_LUMO_gap": 0.19745, 
			 "cosmo_polarized_energy": -12.6, 
			 "cosmo_cavitation_energy": 25.75, 
			 "cosmo_dispersion_energy": -19.98, 
			 "cosmo_repulsion_energy": 1.53, 
			 "cosmo_total_nonelectrostatic_energy": 7.31, 
			 "SMD_solvation_energy": 4.45 
		},
		"coords": [
			{
				"x": -0.5923789982,
				"y": 3.4818888578,
				"z": 2.4594602487,
				"element": "O" 
			},
			{
				"x": 0.3557220138,
				"y": 2.5159632858,
				"z": 2.6129692027,
				"element": "C" 
			},
			{
				"x": 1.0851633767,
				"y": 2.5466004944,
				"z": 3.5770894686,
				"element": "O" 
			},
			{
				"x": 0.4294780355,
				"y": 1.4546857793,
				"z": 1.5666071977,
				"element": "C" 
			},
			{
				"x": 1.1237839599,
				"y": 0.3062911502,
				"z": 1.8557747298,
				"element": "C" 
			},
			{
				"x": 1.1004345991,
				"y": -0.8122811075,
				"z": 0.548962522,
				"element": "S" 
			},
			{
				"x": 0.151882896,
				"y": 0.2745295454,
				"z": -0.4361380229,
				"element": "C" 
			},
			{
				"x": -0.1287299406,
				"y": 1.4407088651,
				"z": 0.2300173807,
				"element": "C" 
			},
			{
				"x": -0.9104383389,
				"y": 2.5517696427,
				"z": -0.4432977581,
				"element": "C" 
			},
			{
				"x": -0.9879815097,
				"y": 2.3580850898,
				"z": -1.9685677575,
				"element": "C" 
			},
			{
				"x": -1.3430732172,
				"y": 0.9111612588,
				"z": -2.3330709673,
				"element": "C" 
			},
			{
				"x": -0.2542228974,
				"y": -0.0612509012,
				"z": -1.8461178369,
				"element": "C" 
			},
			{
				"x": -1.1796484835,
				"y": 3.2718223346,
				"z": 1.7215832981,
				"element": "H" 
			},
			{
				"x": 1.635839999,
				"y": 0.0895258123,
				"z": 2.7822143134,
				"element": "H" 
			},
			{
				"x": -1.9394624596,
				"y": 2.5829607161,
				"z": -0.0457648301,
				"element": "H" 
			},
			{
				"x": -0.4569121559,
				"y": 3.525521544,
				"z": -0.2222674162,
				"element": "H" 
			},
			{
				"x": -1.7229506406,
				"y": 3.052943592,
				"z": -2.3884091562,
				"element": "H" 
			},
			{
				"x": -0.0177478622,
				"y": 2.615922756,
				"z": -2.4120855303,
				"element": "H" 
			},
			{
				"x": -1.4701164624,
				"y": 0.8085027259,
				"z": -3.4159969652,
				"element": "H" 
			},
			{
				"x": -2.3033822842,
				"y": 0.6444352396,
				"z": -1.8730126927,
				"element": "H" 
			},
			{
				"x": -0.6125212171,
				"y": -1.0955979462,
				"z": -1.9094540915,
				"element": "H" 
			},
			{
				"x": 0.6204615875,
				"y": 0.0010112652,
				"z": -2.5090953368,
				"element": "H" 
			}
		],
		 "valence_orbital": [ 
			{
				"type": "occ",
				"energy": -0.33296,
				"method": "rhf"
			},
			{
				"type": "occ",
				"energy": -0.30907,
				"method": "rhf"
			},
			{
				"type": "occ",
				"energy": -0.26893,
				"method": "rhf"
			},
			{
				"type": "occ",
				"energy": -0.25817,
				"method": "rhf"
			},
			{
				"type": "occ",
				"energy": -0.23741,
				"method": "rhf"
			},
			{
				"type": "unocc",
				"energy": -0.03996,
				"method": "rhf"
			},
			{
				"type": "unocc",
				"energy": 0.0041,
				"method": "rhf"
			},
			{
				"type": "unocc",
				"energy": 0.01874,
				"method": "rhf"
			},
			{
				"type": "unocc",
				"energy": 0.06363,
				"method": "rhf"
			},
			{
				"type": "unocc",
				"energy": 0.08147,
				"method": "rhf"
			}
		],
		"cosmo_sigma_profile": { 
			"-0.025": 0.0,
			"-0.024": 0.0,
			"-0.023": 0.0,
			"-0.022": 0.0,
			"-0.021": 0.0,
			"-0.02": 0.0,
			"-0.019": 0.0,
			"-0.018": 0.0,
			"-0.017": 0.0,
			"-0.016": 0.031411495338,
			"-0.015": 0.921773963619,
			"-0.014": 0.955260452117,
			"-0.013": 1.52981417845,
			"-0.012": 0.574266549266,
			"-0.011": 1.16828641319,
			"-0.01": 1.2251058513,
			"-0.009": 1.38132882149,
			"-0.008": 2.49900104836,
			"-0.007": 3.24869007808,
			"-0.006": 4.24118255115,
			"-0.005": 8.31744156094,
			"-0.004": 14.0463636086,
			"-0.003": 25.4458270168,
			"-0.002": 25.249385649,
			"-0.001": 21.7303221714,
			"0.0": 16.3657917242,
			"0.001": 11.2745792207,
			"0.002": 12.555284066,
			"0.003": 16.2043847463,
			"0.004": 6.24588277975,
			"0.005": 2.35116986166,
			"0.006": 1.91089949164,
			"0.007": 2.72163255262,
			"0.008": 2.71554890685,
			"0.009": 2.55176908905,
			"0.01": 4.6028816169,
			"0.011": 4.81642398917,
			"0.012": 5.7956387636,
			"0.013": 2.37706027318,
			"0.014": 0.473364117169,
			"0.015": 0.0,
			"0.016": 0.0,
			"0.017": 0.0,
			"0.018": 0.0,
			"0.019": 0.0,
			"0.02": 0.0,
			"0.021": 0.0,
			"0.022": 0.0,
			"0.023": 0.0,
			"0.024": 0.0,
			"0.0": 0.0
		}
	}
}
