{
	 "smiles": "FC(F)(F)COC1=CC=C(OCC(F)(F)F)C(=C1)C(=O)NCC1CCCCN1", 
	 "Tm": 419.15, 
	 "num_atms": 48, 
	 "gaussian": { 
		 "optdone": 1, 
		 "sigma_profile": "yes", 
		 "theory": "DFT", 
		 "functional": "B3LYP", 
		 "basiset": "6-31G**", 
		 "properties": { 
			 "R2extent": 16081.3411, 
			 "electric_dipole_moment_norm": 4.92503247096, 
			 "electric_quadrupole_moment_norm": 15.0699785544, 
			 "total_energy": -1594.0739239, 
			 "HOMO_LUMO_gap": 0.18136, 
			 "cosmo_polarized_energy": -16.58, 
			 "cosmo_cavitation_energy": 51.97, 
			 "cosmo_dispersion_energy": -34.02, 
			 "cosmo_repulsion_energy": 2.5, 
			 "cosmo_total_nonelectrostatic_energy": 20.45, 
			 "SMD_solvation_energy": 8.26 
		},
		"coords": [
			{
				"x": -2.9979419746,
				"y": 5.4844413919,
				"z": 1.0219627751,
				"element": "F" 
			},
			{
				"x": -1.8324918208,
				"y": 6.0238694564,
				"z": 0.6067793881,
				"element": "C" 
			},
			{
				"x": -2.067061661,
				"y": 6.6627467568,
				"z": -0.5497227947,
				"element": "F" 
			},
			{
				"x": -1.4519224425,
				"y": 6.9388526966,
				"z": 1.5255908545,
				"element": "F" 
			},
			{
				"x": -0.7284710448,
				"y": 4.9837525439,
				"z": 0.4595326181,
				"element": "C" 
			},
			{
				"x": -1.0022294445,
				"y": 4.050438763,
				"z": -0.561671863,
				"element": "O" 
			},
			{
				"x": -1.5312451197,
				"y": 2.8175204433,
				"z": -0.2510601818,
				"element": "C" 
			},
			{
				"x": -2.2060576744,
				"y": 2.5075581815,
				"z": 0.9326407402,
				"element": "C" 
			},
			{
				"x": -2.6903950318,
				"y": 1.2122214444,
				"z": 1.1263263471,
				"element": "C" 
			},
			{
				"x": -2.5292184491,
				"y": 0.2391913512,
				"z": 0.1446703966,
				"element": "C" 
			},
			{
				"x": -2.9354532037,
				"y": -1.0661601761,
				"z": 0.3901924159,
				"element": "O" 
			},
			{
				"x": -4.1981777432,
				"y": -1.4708737903,
				"z": -0.1375619074,
				"element": "C" 
			},
			{
				"x": -5.3193539772,
				"y": -1.2440708591,
				"z": 0.8626836047,
				"element": "C" 
			},
			{
				"x": -5.5218749197,
				"y": 0.0676643971,
				"z": 1.1167097742,
				"element": "F" 
			},
			{
				"x": -5.0719843564,
				"y": -1.8476604789,
				"z": 2.0408393389,
				"element": "F" 
			},
			{
				"x": -6.4699618478,
				"y": -1.7488169714,
				"z": 0.36762504,
				"element": "F" 
			},
			{
				"x": -1.8514975716,
				"y": 0.547414796,
				"z": -1.0458589795,
				"element": "C" 
			},
			{
				"x": -1.3537831273,
				"y": 1.8369969316,
				"z": -1.23353922,
				"element": "C" 
			},
			{
				"x": -1.7466789489,
				"y": -0.4896863801,
				"z": -2.1374315312,
				"element": "C" 
			},
			{
				"x": -2.7471747486,
				"y": -0.854689218,
				"z": -2.7524895493,
				"element": "O" 
			},
			{
				"x": -0.505996837,
				"y": -0.9738269423,
				"z": -2.4357145666,
				"element": "N" 
			},
			{
				"x": 0.7248928059,
				"y": -0.8866440385,
				"z": -1.6565091033,
				"element": "C" 
			},
			{
				"x": 1.0405782116,
				"y": -2.1827665234,
				"z": -0.8706829861,
				"element": "C" 
			},
			{
				"x": 2.4616457827,
				"y": -2.0954343488,
				"z": -0.2642677701,
				"element": "C" 
			},
			{
				"x": 2.5906056254,
				"y": -3.0029781181,
				"z": 0.9655447481,
				"element": "C" 
			},
			{
				"x": 1.6195623188,
				"y": -2.5481547101,
				"z": 2.0797861872,
				"element": "C" 
			},
			{
				"x": 0.3659140184,
				"y": -1.8817502446,
				"z": 1.4717376084,
				"element": "C" 
			},
			{
				"x": 0.0735733193,
				"y": -2.5043034709,
				"z": 0.1813942276,
				"element": "N" 
			},
			{
				"x": -0.5585708931,
				"y": 4.5088527676,
				"z": 1.4313076649,
				"element": "H" 
			},
			{
				"x": 0.1784778873,
				"y": 5.5212205754,
				"z": 0.1683106166,
				"element": "H" 
			},
			{
				"x": -2.3922424455,
				"y": 3.2614399366,
				"z": 1.6864273028,
				"element": "H" 
			},
			{
				"x": -3.2154248698,
				"y": 0.9540929824,
				"z": 2.0386050822,
				"element": "H" 
			},
			{
				"x": -4.1359980809,
				"y": -2.5452398632,
				"z": -0.3249269639,
				"element": "H" 
			},
			{
				"x": -4.4239419232,
				"y": -0.9632006524,
				"z": -1.0776866638,
				"element": "H" 
			},
			{
				"x": -0.8243482967,
				"y": 2.1010022038,
				"z": -2.1431141988,
				"element": "H" 
			},
			{
				"x": -0.5331316178,
				"y": -1.6628400266,
				"z": -3.1795039344,
				"element": "H" 
			},
			{
				"x": 0.6358778792,
				"y": -0.0459824505,
				"z": -0.9648615792,
				"element": "H" 
			},
			{
				"x": 1.5545149125,
				"y": -0.6594661197,
				"z": -2.3388657596,
				"element": "H" 
			},
			{
				"x": 1.0241318371,
				"y": -3.0128926456,
				"z": -1.5949579285,
				"element": "H" 
			},
			{
				"x": 3.2008411613,
				"y": -2.3555292651,
				"z": -1.0296707839,
				"element": "H" 
			},
			{
				"x": 2.6765402656,
				"y": -1.0582222874,
				"z": 0.0301723639,
				"element": "H" 
			},
			{
				"x": 3.6233037448,
				"y": -3.0056765499,
				"z": 1.3313563998,
				"element": "H" 
			},
			{
				"x": 2.3566212082,
				"y": -4.0315386574,
				"z": 0.6703011994,
				"element": "H" 
			},
			{
				"x": 1.3292435603,
				"y": -3.4125084294,
				"z": 2.6861427257,
				"element": "H" 
			},
			{
				"x": 2.1148820473,
				"y": -1.8379811026,
				"z": 2.7532488466,
				"element": "H" 
			},
			{
				"x": -0.5036169996,
				"y": -2.0209958475,
				"z": 2.1201339293,
				"element": "H" 
			},
			{
				"x": 0.5226783802,
				"y": -0.788769308,
				"z": 1.4019584406,
				"element": "H" 
			},
			{
				"x": -0.8813378949,
				"y": -2.3167181437,
				"z": -0.1086823715,
				"element": "H" 
			}
		],
		 "valence_orbital": [ 
			{
				"type": "occ",
				"energy": -0.27741,
				"method": "rhf"
			},
			{
				"type": "occ",
				"energy": -0.26516,
				"method": "rhf"
			},
			{
				"type": "occ",
				"energy": -0.25467,
				"method": "rhf"
			},
			{
				"type": "occ",
				"energy": -0.23532,
				"method": "rhf"
			},
			{
				"type": "occ",
				"energy": -0.21114,
				"method": "rhf"
			},
			{
				"type": "unocc",
				"energy": -0.02978,
				"method": "rhf"
			},
			{
				"type": "unocc",
				"energy": -0.01081,
				"method": "rhf"
			},
			{
				"type": "unocc",
				"energy": 0.02101,
				"method": "rhf"
			},
			{
				"type": "unocc",
				"energy": 0.06768,
				"method": "rhf"
			},
			{
				"type": "unocc",
				"energy": 0.07206,
				"method": "rhf"
			}
		],
		"cosmo_sigma_profile": { 
			"-0.025": 0.0,
			"-0.024": 0.0,
			"-0.023": 0.0,
			"-0.022": 0.0,
			"-0.021": 0.0,
			"-0.02": 0.0,
			"-0.019": 0.0,
			"-0.018": 0.0,
			"-0.017": 0.0,
			"-0.016": 0.0,
			"-0.015": 0.0,
			"-0.014": 0.1611274565,
			"-0.013": 1.15601044589,
			"-0.012": 1.29651682047,
			"-0.011": 0.973120278809,
			"-0.01": 2.36471829484,
			"-0.009": 6.03091869211,
			"-0.008": 8.84804542046,
			"-0.007": 10.4736658642,
			"-0.006": 13.6589610665,
			"-0.005": 13.4831930435,
			"-0.004": 18.7116420691,
			"-0.003": 27.9279044825,
			"-0.002": 34.2645760193,
			"-0.001": 36.6938624337,
			"0.0": 38.5545133911,
			"0.001": 36.2736498134,
			"0.002": 57.0634783162,
			"0.003": 57.294242787,
			"0.004": 9.58206312858,
			"0.005": 5.07144828318,
			"0.006": 4.47335048889,
			"0.007": 4.5857424919,
			"0.008": 3.61949179039,
			"0.009": 1.65216247121,
			"0.01": 1.54575460718,
			"0.011": 2.51052774971,
			"0.012": 3.05937631133,
			"0.013": 3.88973848678,
			"0.014": 2.4309350012,
			"0.015": 0.686065799712,
			"0.016": 0.377030996071,
			"0.017": 0.417753047842,
			"0.018": 0.100387447452,
			"0.019": 0.0,
			"0.02": 0.0,
			"0.021": 0.0,
			"0.022": 0.0,
			"0.023": 0.0,
			"0.024": 0.0,
			"0.025": 0.0
		}
	}
}
