{
	 "smiles": "CC1=C2C(=O)C3=C(C=CC=C3)C(=O)C2=C(C)C=C1", 
	 "Tm": 413.15, 
	 "num_atms": 30, 
	 "gaussian": { 
		 "optdone": 1, 
		 "sigma_profile": "yes", 
		 "theory": "DFT", 
		 "functional": "B3LYP", 
		 "basiset": "6-31G**", 
		 "properties": { 
			 "R2extent": 4380.1191, 
			 "electric_dipole_moment_norm": 0.333130439918, 
			 "electric_quadrupole_moment_norm": 16.0045750243, 
			 "total_energy": -767.409193892, 
			 "HOMO_LUMO_gap": 0.15041, 
			 "cosmo_polarized_energy": -8.27, 
			 "cosmo_cavitation_energy": 32.75, 
			 "cosmo_dispersion_energy": -24.39, 
			 "cosmo_repulsion_energy": 1.8, 
			 "cosmo_total_nonelectrostatic_energy": 10.16, 
			 "SMD_solvation_energy": 5.92 
		},
		"coords": [
			{
				"x": -3.7431606597,
				"y": -0.254909256,
				"z": -0.1597167775,
				"element": "C" 
			},
			{
				"x": -2.458703101,
				"y": 0.5391180747,
				"z": -0.1978496593,
				"element": "C" 
			},
			{
				"x": -1.158487392,
				"y": -0.0201423303,
				"z": -0.2620567363,
				"element": "C" 
			},
			{
				"x": -1.0040557793,
				"y": -1.5081192416,
				"z": -0.2963348804,
				"element": "C" 
			},
			{
				"x": -1.972408806,
				"y": -2.2648092248,
				"z": -0.2706724735,
				"element": "O" 
			},
			{
				"x": 0.3663042179,
				"y": -2.0868703033,
				"z": -0.3637413651,
				"element": "C" 
			},
			{
				"x": 1.4967773985,
				"y": -1.260504725,
				"z": -0.3949434297,
				"element": "C" 
			},
			{
				"x": 2.7757568854,
				"y": -1.8289645899,
				"z": -0.4583176669,
				"element": "C" 
			},
			{
				"x": 2.9211875933,
				"y": -3.2123448605,
				"z": -0.4901778616,
				"element": "C" 
			},
			{
				"x": 1.7903695968,
				"y": -4.0389576555,
				"z": -0.4590057962,
				"element": "C" 
			},
			{
				"x": 0.5180749258,
				"y": -3.4792987472,
				"z": -0.3960747719,
				"element": "C" 
			},
			{
				"x": 1.3630148667,
				"y": 0.2221858295,
				"z": -0.3617641134,
				"element": "C" 
			},
			{
				"x": 2.3778524462,
				"y": 0.9151664994,
				"z": -0.3904240837,
				"element": "O" 
			},
			{
				"x": -0.0060760368,
				"y": 0.8222608179,
				"z": -0.2938536603,
				"element": "C" 
			},
			{
				"x": -0.1426554857,
				"y": 2.2321429266,
				"z": -0.261673123,
				"element": "C" 
			},
			{
				"x": 1.0038704499,
				"y": 3.2152177299,
				"z": -0.2905527012,
				"element": "C" 
			},
			{
				"x": -1.4403882572,
				"y": 2.752997888,
				"z": -0.1982507074,
				"element": "C" 
			},
			{
				"x": -2.5594857351,
				"y": 1.9349432012,
				"z": -0.1674164265,
				"element": "C" 
			},
			{
				"x": -3.851952404,
				"y": -0.8950483388,
				"z": -1.0386995437,
				"element": "H" 
			},
			{
				"x": -3.7800731522,
				"y": -0.9277813272,
				"z": 0.7005745557,
				"element": "H" 
			},
			{
				"x": -4.5956083907,
				"y": 0.4291005219,
				"z": -0.1116094342,
				"element": "H" 
			},
			{
				"x": 3.6331697758,
				"y": -1.1653306564,
				"z": -0.4813070119,
				"element": "H" 
			},
			{
				"x": 3.9133074426,
				"y": -3.6516826299,
				"z": -0.539318872,
				"element": "H" 
			},
			{
				"x": 1.9065637711,
				"y": -5.1185915058,
				"z": -0.4839889412,
				"element": "H" 
			},
			{
				"x": -0.3744349229,
				"y": -4.0948294175,
				"z": -0.3707863101,
				"element": "H" 
			},
			{
				"x": 1.6868023939,
				"y": 3.0685339793,
				"z": 0.5498708037,
				"element": "H" 
			},
			{
				"x": 1.6148824053,
				"y": 3.1013205235,
				"z": -1.1893921363,
				"element": "H" 
			},
			{
				"x": 0.6122678151,
				"y": 4.2361198692,
				"z": -0.2551072231,
				"element": "H" 
			},
			{
				"x": -1.5697303271,
				"y": 3.8316622563,
				"z": -0.1725996011,
				"element": "H" 
			},
			{
				"x": -3.5466815345,
				"y": 2.3865146922,
				"z": -0.1181100521,
				"element": "H" 
			}
		],
		 "valence_orbital": [ 
			{
				"type": "occ",
				"energy": -0.2631,
				"method": "rhf"
			},
			{
				"type": "occ",
				"energy": -0.26274,
				"method": "rhf"
			},
			{
				"type": "occ",
				"energy": -0.25904,
				"method": "rhf"
			},
			{
				"type": "occ",
				"energy": -0.24902,
				"method": "rhf"
			},
			{
				"type": "occ",
				"energy": -0.24829,
				"method": "rhf"
			},
			{
				"type": "unocc",
				"energy": -0.09788,
				"method": "rhf"
			},
			{
				"type": "unocc",
				"energy": -0.05077,
				"method": "rhf"
			},
			{
				"type": "unocc",
				"energy": -0.02009,
				"method": "rhf"
			},
			{
				"type": "unocc",
				"energy": -0.00786,
				"method": "rhf"
			},
			{
				"type": "unocc",
				"energy": 0.05651,
				"method": "rhf"
			}
		],
		"cosmo_sigma_profile": { 
			"-0.025": 0.0,
			"-0.024": 0.0,
			"-0.023": 0.0,
			"-0.022": 0.0,
			"-0.021": 0.0,
			"-0.02": 0.0,
			"-0.019": 0.0,
			"-0.018": 0.0,
			"-0.017": 0.0,
			"-0.016": 0.0,
			"-0.015": 0.0,
			"-0.014": 0.0,
			"-0.013": 0.0,
			"-0.012": 0.0,
			"-0.011": 0.0,
			"-0.01": 0.0,
			"-0.009": 0.0,
			"-0.008": 0.0723784038619,
			"-0.007": 4.92786244547,
			"-0.006": 12.4090703514,
			"-0.005": 16.5467326231,
			"-0.004": 16.9095707167,
			"-0.003": 20.6372669056,
			"-0.002": 22.9712605957,
			"-0.001": 25.0175568706,
			"0.0": 34.7870556854,
			"0.001": 28.0979857704,
			"0.002": 28.7512521931,
			"0.003": 19.368577828,
			"0.004": 3.75291447577,
			"0.005": 4.01591888552,
			"0.006": 3.80183062047,
			"0.007": 4.28265221508,
			"0.008": 2.20823533652,
			"0.009": 3.10164759239,
			"0.01": 4.26682866045,
			"0.011": 3.89708014117,
			"0.012": 2.63959211314,
			"0.013": 0.00342893607093,
			"0.014": 0.0,
			"0.015": 0.0,
			"0.016": 0.0,
			"0.017": 0.0,
			"0.018": 0.0,
			"0.019": 0.0,
			"0.02": 0.0,
			"0.021": 0.0,
			"0.022": 0.0,
			"0.023": 0.0,
			"0.024": 0.0,
			"0.025": 0.0
		}
	}
}
