{
	 "smiles": "CC(N)(CO)CO", 
	 "Tm": 383.15, 
	 "num_atms": 18, 
	 "gaussian": { 
		 "optdone": 1, 
		 "sigma_profile": "yes", 
		 "theory": "DFT", 
		 "functional": "B3LYP", 
		 "basiset": "6-31G**", 
		 "properties": { 
			 "R2extent": 853.389, 
			 "electric_dipole_moment_norm": 0.979233291918, 
			 "electric_quadrupole_moment_norm": 11.6104434661, 
			 "total_energy": -364.228588739, 
			 "HOMO_LUMO_gap": 0.29279, 
			 "cosmo_polarized_energy": -15.6, 
			 "cosmo_cavitation_energy": 19.89, 
			 "cosmo_dispersion_energy": -14.63, 
			 "cosmo_repulsion_energy": 1.25, 
			 "cosmo_total_nonelectrostatic_energy": 6.52, 
			 "SMD_solvation_energy": 2.89 
		},
		"coords": [
			{
				"x": 0.1126110731,
				"y": -1.1305677512,
				"z": 1.0638341097,
				"element": "C" 
			},
			{
				"x": -0.2744352625,
				"y": -0.0069748317,
				"z": 0.0931186787,
				"element": "C" 
			},
			{
				"x": -1.0018049576,
				"y": -0.6096966473,
				"z": -1.0331653876,
				"element": "N" 
			},
			{
				"x": 0.9788621733,
				"y": 0.7047693628,
				"z": -0.4389353016,
				"element": "C" 
			},
			{
				"x": 1.9115318716,
				"y": -0.2421801389,
				"z": -0.935090169,
				"element": "O" 
			},
			{
				"x": -1.1619586932,
				"y": 1.0477397247,
				"z": 0.8037781328,
				"element": "C" 
			},
			{
				"x": -0.5577940702,
				"y": 1.7092744048,
				"z": 1.9082826159,
				"element": "O" 
			},
			{
				"x": -0.7821994444,
				"y": -1.6381413344,
				"z": 1.4452247801,
				"element": "H" 
			},
			{
				"x": 0.6774939323,
				"y": -0.741925419,
				"z": 1.9184086504,
				"element": "H" 
			},
			{
				"x": 0.7381109925,
				"y": -1.8611941239,
				"z": 0.550185631,
				"element": "H" 
			},
			{
				"x": -1.8568322324,
				"y": -1.0508176428,
				"z": -0.6996847801,
				"element": "H" 
			},
			{
				"x": -1.2827431739,
				"y": 0.1095635251,
				"z": -1.6972395589,
				"element": "H" 
			},
			{
				"x": 0.6682736687,
				"y": 1.4112819306,
				"z": -1.2296364462,
				"element": "H" 
			},
			{
				"x": 1.3994237847,
				"y": 1.3001089898,
				"z": 0.3835099634,
				"element": "H" 
			},
			{
				"x": 2.7290502868,
				"y": 0.2281978575,
				"z": -1.1369401501,
				"element": "H" 
			},
			{
				"x": -2.1064626585,
				"y": 0.5593009462,
				"z": 1.0971570632,
				"element": "H" 
			},
			{
				"x": -1.4180858289,
				"y": 1.8408384045,
				"z": 0.0902880619,
				"element": "H" 
			},
			{
				"x": -0.4430414614,
				"y": 1.0604227434,
				"z": 2.6139041066,
				"element": "H" 
			}
		],
		 "valence_orbital": [ 
			{
				"type": "occ",
				"energy": -0.33498,
				"method": "rhf"
			},
			{
				"type": "occ",
				"energy": -0.31363,
				"method": "rhf"
			},
			{
				"type": "occ",
				"energy": -0.28258,
				"method": "rhf"
			},
			{
				"type": "occ",
				"energy": -0.25838,
				"method": "rhf"
			},
			{
				"type": "occ",
				"energy": -0.22606,
				"method": "rhf"
			},
			{
				"type": "unocc",
				"energy": 0.06673,
				"method": "rhf"
			},
			{
				"type": "unocc",
				"energy": 0.07723,
				"method": "rhf"
			},
			{
				"type": "unocc",
				"energy": 0.09182,
				"method": "rhf"
			},
			{
				"type": "unocc",
				"energy": 0.12053,
				"method": "rhf"
			},
			{
				"type": "unocc",
				"energy": 0.13088,
				"method": "rhf"
			}
		],
		"cosmo_sigma_profile": { 
			"-0.025": 0.0,
			"-0.024": 0.0,
			"-0.023": 0.0,
			"-0.022": 0.0,
			"-0.021": 0.0,
			"-0.02": 0.0,
			"-0.019": 0.0,
			"-0.018": 0.0,
			"-0.017": 0.0,
			"-0.016": 0.23809290954,
			"-0.015": 1.36018009785,
			"-0.014": 2.06201125313,
			"-0.013": 1.49750799163,
			"-0.012": 1.73763454416,
			"-0.011": 2.11282706848,
			"-0.01": 2.10043778019,
			"-0.009": 3.65175860835,
			"-0.008": 4.60109654836,
			"-0.007": 6.80158327125,
			"-0.006": 6.73242711886,
			"-0.005": 7.62733783961,
			"-0.004": 11.0896541823,
			"-0.003": 12.6468196184,
			"-0.002": 11.6601028806,
			"-0.001": 10.4589667453,
			"0.0": 8.17461123827,
			"0.001": 7.83267707023,
			"0.002": 5.75102478476,
			"0.003": 3.46555014969,
			"0.004": 3.50368656692,
			"0.005": 3.23674615941,
			"0.006": 3.22680211101,
			"0.007": 2.67765282704,
			"0.008": 1.88106980228,
			"0.009": 3.45276218136,
			"0.01": 3.23832276258,
			"0.011": 3.23934466016,
			"0.012": 3.66522133297,
			"0.013": 2.99734412794,
			"0.014": 2.53713858862,
			"0.015": 1.1525937249,
			"0.016": 1.68049217375,
			"0.017": 0.991710279425,
			"0.018": 1.03870178494,
			"0.019": 1.23389845341,
			"0.02": 0.637346356828,
			"0.021": 0.157756946371,
			"0.022": 0.0,
			"0.023": 0.0,
			"0.024": 0.0,
			"0.025": 0.0
		}
	}
}
