{
	 "smiles": "CC(CSC1=C(NC(=O)CCl)C=CC=C1)C#N", 
	 "Tm": 368.15, 
	 "num_atms": 30, 
	 "gaussian": { 
		 "optdone": 1, 
		 "sigma_profile": "yes", 
		 "theory": "DFT", 
		 "functional": "B3LYP", 
		 "basiset": "6-31G**", 
		 "properties": { 
			 "R2extent": 6768.6179, 
			 "electric_dipole_moment_norm": 3.3189841247, 
			 "electric_quadrupole_moment_norm": 19.9864732259, 
			 "total_energy": -1508.22584676, 
			 "HOMO_LUMO_gap": 0.19885, 
			 "cosmo_polarized_energy": -16.84, 
			 "cosmo_cavitation_energy": 38.04, 
			 "cosmo_dispersion_energy": -25.56, 
			 "cosmo_repulsion_energy": 1.98, 
			 "cosmo_total_nonelectrostatic_energy": 14.46, 
			 "SMD_solvation_energy": 7.61 
		},
		"coords": [
			{
				"x": 3.4653254943,
				"y": 1.1320139964,
				"z": -0.8803000167,
				"element": "C" 
			},
			{
				"x": 2.4356400742,
				"y": 0.0031090405,
				"z": -0.6596476387,
				"element": "C" 
			},
			{
				"x": 2.2770613121,
				"y": -0.3168127564,
				"z": 0.840714947,
				"element": "C" 
			},
			{
				"x": 0.9741453317,
				"y": -1.5553018112,
				"z": 1.25306013,
				"element": "S" 
			},
			{
				"x": -0.517673972,
				"y": -0.6831580836,
				"z": 0.7628785226,
				"element": "C" 
			},
			{
				"x": -1.1397316745,
				"y": 0.2559524813,
				"z": 1.6234553689,
				"element": "C" 
			},
			{
				"x": -0.5446553007,
				"y": 0.500933043,
				"z": 2.8758696014,
				"element": "N" 
			},
			{
				"x": -0.9032458973,
				"y": 1.4217231191,
				"z": 3.8150550353,
				"element": "C" 
			},
			{
				"x": -1.8199404553,
				"y": 2.2275410355,
				"z": 3.7295364638,
				"element": "O" 
			},
			{
				"x": -0.0981555075,
				"y": 1.4379866407,
				"z": 5.1196893027,
				"element": "C" 
			},
			{
				"x": 1.4273183354,
				"y": 0.4587601948,
				"z": 5.1658295265,
				"element": "Cl" 
			},
			{
				"x": -2.3174353128,
				"y": 0.8953105716,
				"z": 1.2059876685,
				"element": "C" 
			},
			{
				"x": -2.8715670069,
				"y": 0.5909067876,
				"z": -0.0363262273,
				"element": "C" 
			},
			{
				"x": -2.2773406922,
				"y": -0.3476641706,
				"z": -0.8794874328,
				"element": "C" 
			},
			{
				"x": -1.1032171807,
				"y": -0.9807547191,
				"z": -0.4732767934,
				"element": "C" 
			},
			{
				"x": 2.8107775431,
				"y": -1.1929536141,
				"z": -1.4295570971,
				"element": "C" 
			},
			{
				"x": 3.1285219595,
				"y": -2.121784794,
				"z": -2.049071125,
				"element": "N" 
			},
			{
				"x": 3.1450626633,
				"y": 2.0349423625,
				"z": -0.3524076995,
				"element": "H" 
			},
			{
				"x": 3.5599390524,
				"y": 1.3688719619,
				"z": -1.9429019974,
				"element": "H" 
			},
			{
				"x": 4.4511003515,
				"y": 0.8416149175,
				"z": -0.5056533402,
				"element": "H" 
			},
			{
				"x": 1.4620493305,
				"y": 0.3358579404,
				"z": -1.0408432583,
				"element": "H" 
			},
			{
				"x": 3.20133764,
				"y": -0.7441093322,
				"z": 1.2409888879,
				"element": "H" 
			},
			{
				"x": 2.0749795266,
				"y": 0.6121098112,
				"z": 1.3811363053,
				"element": "H" 
			},
			{
				"x": 0.2285234001,
				"y": -0.119866589,
				"z": 3.1022161916,
				"element": "H" 
			},
			{
				"x": -0.7374459873,
				"y": 1.0712656964,
				"z": 5.9244761955,
				"element": "H" 
			},
			{
				"x": 0.1709918005,
				"y": 2.4726217598,
				"z": 5.3292136599,
				"element": "H" 
			},
			{
				"x": -2.78021872,
				"y": 1.618943744,
				"z": 1.8619034081,
				"element": "H" 
			},
			{
				"x": -3.7848711317,
				"y": 1.0940579401,
				"z": -0.3403028878,
				"element": "H" 
			},
			{
				"x": -2.7190598273,
				"y": -0.5861362295,
				"z": -1.8418339028,
				"element": "H" 
			},
			{
				"x": -0.624615149,
				"y": -1.7177809449,
				"z": -1.1103017981,
				"element": "H" 
			}
		],
		 "valence_orbital": [ 
			{
				"type": "occ",
				"energy": -0.31516,
				"method": "rhf"
			},
			{
				"type": "occ",
				"energy": -0.27356,
				"method": "rhf"
			},
			{
				"type": "occ",
				"energy": -0.26729,
				"method": "rhf"
			},
			{
				"type": "occ",
				"energy": -0.25377,
				"method": "rhf"
			},
			{
				"type": "occ",
				"energy": -0.23859,
				"method": "rhf"
			},
			{
				"type": "unocc",
				"energy": -0.03974,
				"method": "rhf"
			},
			{
				"type": "unocc",
				"energy": -0.02615,
				"method": "rhf"
			},
			{
				"type": "unocc",
				"energy": 0.00407,
				"method": "rhf"
			},
			{
				"type": "unocc",
				"energy": 0.0205,
				"method": "rhf"
			},
			{
				"type": "unocc",
				"energy": 0.02961,
				"method": "rhf"
			}
		],
		"cosmo_sigma_profile": { 
			"-0.025": 0.0,
			"-0.024": 0.0,
			"-0.023": 0.0,
			"-0.022": 0.0,
			"-0.021": 0.0,
			"-0.02": 0.0,
			"-0.019": 0.0,
			"-0.018": 0.0,
			"-0.017": 0.0,
			"-0.016": 0.0,
			"-0.015": 0.0,
			"-0.014": 0.0,
			"-0.013": 0.0,
			"-0.012": 0.0,
			"-0.011": 0.0,
			"-0.01": 0.610389576668,
			"-0.009": 4.06083596038,
			"-0.008": 4.78134670082,
			"-0.007": 11.9802569833,
			"-0.006": 22.1766184698,
			"-0.005": 27.0311807864,
			"-0.004": 24.3490851829,
			"-0.003": 22.4203821292,
			"-0.002": 20.1209350011,
			"-0.001": 21.1315316683,
			"0.0": 18.6366584619,
			"0.001": 15.8453076704,
			"0.002": 17.9191630711,
			"0.003": 19.24922633,
			"0.004": 19.7407286459,
			"0.005": 14.1419119751,
			"0.006": 7.89929142956,
			"0.007": 5.43236068937,
			"0.008": 4.65390265544,
			"0.009": 5.35219289878,
			"0.01": 5.52889437779,
			"0.011": 5.45117587232,
			"0.012": 5.37274153457,
			"0.013": 3.39338991883,
			"0.014": 0.349275677919,
			"0.015": 0.0,
			"0.016": 0.0,
			"0.017": 0.0,
			"0.018": 0.0,
			"0.019": 0.0,
			"0.02": 0.0,
			"0.021": 0.0,
			"0.022": 0.0,
			"0.023": 0.0,
			"0.024": 0.0,
			"0.025": 0.0
		}
	}
}
