{
	 "smiles": "COC1=CC=C(C=C1)C1=NNC(=C1)C(=O)NN", 
	 "Tm": 485.15, 
	 "num_atms": 29, 
	 "gaussian": { 
		 "optdone": 1, 
		 "sigma_profile": "yes", 
		 "theory": "DFT", 
		 "functional": "B3LYP", 
		 "basiset": "6-31G**", 
		 "properties": { 
			 "R2extent": 7726.8057, 
			 "electric_dipole_moment_norm": 1.32233612217, 
			 "electric_quadrupole_moment_norm": 17.270050107, 
			 "total_energy": -795.815959315, 
			 "HOMO_LUMO_gap": 0.16935, 
			 "cosmo_polarized_energy": -18.68, 
			 "cosmo_cavitation_energy": 34.24, 
			 "cosmo_dispersion_energy": -25.28, 
			 "cosmo_repulsion_energy": 1.95, 
			 "cosmo_total_nonelectrostatic_energy": 10.92, 
			 "SMD_solvation_energy": 6.67 
		},
		"coords": [
			{
				"x": -3.4741952026,
				"y": -1.6362356424,
				"z": -2.9736204512,
				"element": "C" 
			},
			{
				"x": -2.1354728137,
				"y": -1.9519675392,
				"z": -2.6264339482,
				"element": "O" 
			},
			{
				"x": -1.4754533792,
				"y": -1.1160088371,
				"z": -1.7735920416,
				"element": "C" 
			},
			{
				"x": -0.1556991765,
				"y": -1.4769052897,
				"z": -1.4648488626,
				"element": "C" 
			},
			{
				"x": 0.6002089356,
				"y": -0.6914642933,
				"z": -0.6061335179,
				"element": "C" 
			},
			{
				"x": 0.0696541741,
				"y": 0.4754163406,
				"z": -0.0280763908,
				"element": "C" 
			},
			{
				"x": -1.25031694,
				"y": 0.8227310567,
				"z": -0.3463176636,
				"element": "C" 
			},
			{
				"x": -2.0213542314,
				"y": 0.0430667044,
				"z": -1.2073477113,
				"element": "C" 
			},
			{
				"x": 0.8657775271,
				"y": 1.3120267543,
				"z": 0.8830183912,
				"element": "C" 
			},
			{
				"x": 0.342633258,
				"y": 2.4265915048,
				"z": 1.4271042668,
				"element": "N" 
			},
			{
				"x": 1.317701792,
				"y": 2.9324149027,
				"z": 2.186868846,
				"element": "N" 
			},
			{
				"x": 2.4599011628,
				"y": 2.1975284545,
				"z": 2.165335242,
				"element": "C" 
			},
			{
				"x": 2.2027607661,
				"y": 1.126632973,
				"z": 1.3213047324,
				"element": "C" 
			},
			{
				"x": 3.6001139558,
				"y": 2.676064082,
				"z": 2.9759261355,
				"element": "C" 
			},
			{
				"x": 3.5168920963,
				"y": 3.707308619,
				"z": 3.6442970665,
				"element": "O" 
			},
			{
				"x": 4.7319001371,
				"y": 1.9166826099,
				"z": 2.9415851018,
				"element": "N" 
			},
			{
				"x": 5.8805050956,
				"y": 2.2531361142,
				"z": 3.6779825579,
				"element": "N" 
			},
			{
				"x": -3.8034271761,
				"y": -2.4236469743,
				"z": -3.6534485587,
				"element": "H" 
			},
			{
				"x": -3.5431532099,
				"y": -0.6672206706,
				"z": -3.4847200176,
				"element": "H" 
			},
			{
				"x": -4.1295300729,
				"y": -1.6235136743,
				"z": -2.0930866002,
				"element": "H" 
			},
			{
				"x": 0.2532706673,
				"y": -2.3774410156,
				"z": -1.9111763097,
				"element": "H" 
			},
			{
				"x": 1.6193640527,
				"y": -0.9937873899,
				"z": -0.3839085335,
				"element": "H" 
			},
			{
				"x": -1.6748562368,
				"y": 1.7199879086,
				"z": 0.0912307373,
				"element": "H" 
			},
			{
				"x": -3.038080451,
				"y": 0.3462826267,
				"z": -1.4277939453,
				"element": "H" 
			},
			{
				"x": 1.1927378606,
				"y": 3.7832356005,
				"z": 2.7176044229,
				"element": "H" 
			},
			{
				"x": 2.876714272,
				"y": 0.326040967,
				"z": 1.0555460856,
				"element": "H" 
			},
			{
				"x": 4.7875090117,
				"y": 1.0620729262,
				"z": 2.4095650111,
				"element": "H" 
			},
			{
				"x": 6.1740996974,
				"y": 3.1837510673,
				"z": 3.3810368947,
				"element": "H" 
			},
			{
				"x": 5.5997944277,
				"y": 2.3566201141,
				"z": 4.6531990606,
				"element": "H" 
			}
		],
		 "valence_orbital": [ 
			{
				"type": "occ",
				"energy": -0.27087,
				"method": "rhf"
			},
			{
				"type": "occ",
				"energy": -0.27001,
				"method": "rhf"
			},
			{
				"type": "occ",
				"energy": -0.25685,
				"method": "rhf"
			},
			{
				"type": "occ",
				"energy": -0.24933,
				"method": "rhf"
			},
			{
				"type": "occ",
				"energy": -0.2033,
				"method": "rhf"
			},
			{
				"type": "unocc",
				"energy": -0.03395,
				"method": "rhf"
			},
			{
				"type": "unocc",
				"energy": -0.01197,
				"method": "rhf"
			},
			{
				"type": "unocc",
				"energy": 0.00179,
				"method": "rhf"
			},
			{
				"type": "unocc",
				"energy": 0.06848,
				"method": "rhf"
			},
			{
				"type": "unocc",
				"energy": 0.07984,
				"method": "rhf"
			}
		],
		"cosmo_sigma_profile": { 
			"-0.025": 0.0,
			"-0.024": 0.0,
			"-0.023": 0.0,
			"-0.022": 0.0,
			"-0.021": 0.0,
			"-0.02": 0.0,
			"-0.019": 0.0,
			"-0.018": 0.0,
			"-0.017": 0.00232615472152,
			"-0.016": 0.522917558667,
			"-0.015": 1.55609127132,
			"-0.014": 1.9051190546,
			"-0.013": 1.99166919157,
			"-0.012": 2.80843050802,
			"-0.011": 3.95165660438,
			"-0.01": 4.92062895538,
			"-0.009": 4.95748698627,
			"-0.008": 5.76970025861,
			"-0.007": 5.29325708678,
			"-0.006": 12.5249618246,
			"-0.005": 18.9145100368,
			"-0.004": 18.2195389497,
			"-0.003": 17.2575503479,
			"-0.002": 14.3958526833,
			"-0.001": 15.6237123949,
			"0.0": 14.6015581302,
			"0.001": 12.9974602587,
			"0.002": 14.0177043723,
			"0.003": 19.970123942,
			"0.004": 21.6803869945,
			"0.005": 17.0671936602,
			"0.006": 7.1544405328,
			"0.007": 5.00720132304,
			"0.008": 4.82738544192,
			"0.009": 3.66578546529,
			"0.01": 5.15629714217,
			"0.011": 3.50131418371,
			"0.012": 4.55465077799,
			"0.013": 5.3064868318,
			"0.014": 1.39386655799,
			"0.015": 0.468315195807,
			"0.016": 0.568340442911,
			"0.017": 0.0277431111469,
			"0.018": 0.0,
			"0.019": 0.0,
			"0.02": 0.0,
			"0.021": 0.0,
			"0.022": 0.0,
			"0.023": 0.0,
			"0.024": 0.0,
			"0.025": 0.0
		}
	}
}
