{
	 "smiles": "NC1=C(C=NN1)C1=CC=C(F)C=C1", 
	 "Tm": 447.15, 
	 "num_atms": 21, 
	 "gaussian": { 
		 "optdone": 1, 
		 "sigma_profile": "yes", 
		 "theory": "DFT", 
		 "functional": "B3LYP", 
		 "basiset": "6-31G**", 
		 "properties": { 
			 "R2extent": 3045.3717, 
			 "electric_dipole_moment_norm": 3.40126506612, 
			 "electric_quadrupole_moment_norm": 15.5862469873, 
			 "total_energy": -611.847828797, 
			 "HOMO_LUMO_gap": 0.18638, 
			 "cosmo_polarized_energy": -15.22, 
			 "cosmo_cavitation_energy": 25.82, 
			 "cosmo_dispersion_energy": -19.02, 
			 "cosmo_repulsion_energy": 1.48, 
			 "cosmo_total_nonelectrostatic_energy": 8.27, 
			 "SMD_solvation_energy": 3.86 
		},
		"coords": [
			{
				"x": -0.0234295052,
				"y": -0.1923154921,
				"z": 2.3333433357,
				"element": "N" 
			},
			{
				"x": -0.8420377759,
				"y": 0.3021581005,
				"z": 1.3184518047,
				"element": "C" 
			},
			{
				"x": -0.5793205449,
				"y": 0.596692661,
				"z": -0.0211118722,
				"element": "C" 
			},
			{
				"x": -1.8400213994,
				"y": 1.0351614347,
				"z": -0.5173901834,
				"element": "C" 
			},
			{
				"x": -2.7967504429,
				"y": 1.0153042914,
				"z": 0.398016043,
				"element": "N" 
			},
			{
				"x": -2.1592732502,
				"y": 0.5668416361,
				"z": 1.5192573857,
				"element": "N" 
			},
			{
				"x": 0.7015097894,
				"y": 0.5015955731,
				"z": -0.7309205084,
				"element": "C" 
			},
			{
				"x": 1.6187209796,
				"y": -0.5329076862,
				"z": -0.4620204921,
				"element": "C" 
			},
			{
				"x": 2.8412327514,
				"y": -0.6129464425,
				"z": -1.1296784509,
				"element": "C" 
			},
			{
				"x": 3.1420674658,
				"y": 0.341679866,
				"z": -2.0925357604,
				"element": "C" 
			},
			{
				"x": 4.3213945505,
				"y": 0.2687302708,
				"z": -2.7476947718,
				"element": "F" 
			},
			{
				"x": 2.2574734722,
				"y": 1.3695528301,
				"z": -2.4022106938,
				"element": "C" 
			},
			{
				"x": 1.0485756882,
				"y": 1.4469265847,
				"z": -1.7154407433,
				"element": "C" 
			},
			{
				"x": -0.2038103984,
				"y": 0.2252883699,
				"z": 3.2400003859,
				"element": "H" 
			},
			{
				"x": 0.9583461231,
				"y": -0.0972333261,
				"z": 2.1007584306,
				"element": "H" 
			},
			{
				"x": -2.0727550483,
				"y": 1.348278894,
				"z": -1.527209128,
				"element": "H" 
			},
			{
				"x": -2.6964853285,
				"y": 0.4011878797,
				"z": 2.3556594021,
				"element": "H" 
			},
			{
				"x": 1.3564758279,
				"y": -1.3102952103,
				"z": 0.2500612527,
				"element": "H" 
			},
			{
				"x": 3.547104505,
				"y": -1.4114960379,
				"z": -0.9271787357,
				"element": "H" 
			},
			{
				"x": 2.5273060829,
				"y": 2.0976401013,
				"z": -3.159842181,
				"element": "H" 
			},
			{
				"x": 0.3648764576,
				"y": 2.2619557018,
				"z": -1.9327145193,
				"element": "H" 
			}
		],
		 "valence_orbital": [ 
			{
				"type": "occ",
				"energy": -0.28488,
				"method": "rhf"
			},
			{
				"type": "occ",
				"energy": -0.27145,
				"method": "rhf"
			},
			{
				"type": "occ",
				"energy": -0.25986,
				"method": "rhf"
			},
			{
				"type": "occ",
				"energy": -0.23564,
				"method": "rhf"
			},
			{
				"type": "occ",
				"energy": -0.19902,
				"method": "rhf"
			},
			{
				"type": "unocc",
				"energy": -0.01264,
				"method": "rhf"
			},
			{
				"type": "unocc",
				"energy": -0.00576,
				"method": "rhf"
			},
			{
				"type": "unocc",
				"energy": 0.03025,
				"method": "rhf"
			},
			{
				"type": "unocc",
				"energy": 0.06471,
				"method": "rhf"
			},
			{
				"type": "unocc",
				"energy": 0.08699,
				"method": "rhf"
			}
		],
		"cosmo_sigma_profile": { 
			"-0.025": 0.0,
			"-0.024": 0.0,
			"-0.023": 0.0,
			"-0.022": 0.0,
			"-0.021": 0.0,
			"-0.02": 0.0,
			"-0.019": 0.0,
			"-0.018": 0.0,
			"-0.017": 0.132662281045,
			"-0.016": 1.51309653612,
			"-0.015": 1.95777030439,
			"-0.014": 2.44680286343,
			"-0.013": 3.10234924735,
			"-0.012": 3.01497198761,
			"-0.011": 2.72817690596,
			"-0.01": 3.183687317,
			"-0.009": 2.62429054616,
			"-0.008": 2.20512235274,
			"-0.007": 5.66015960316,
			"-0.006": 10.0298526271,
			"-0.005": 12.3597913632,
			"-0.004": 10.8281179253,
			"-0.003": 9.02001748652,
			"-0.002": 7.85331954419,
			"-0.001": 8.41188208064,
			"0.0": 9.17734068598,
			"0.001": 13.8638385018,
			"0.002": 13.6451561931,
			"0.003": 16.9039170789,
			"0.004": 25.3858080178,
			"0.005": 16.6808008578,
			"0.006": 4.3367414314,
			"0.007": 2.81186006462,
			"0.008": 1.98007248467,
			"0.009": 1.63790513436,
			"0.01": 2.82276755362,
			"0.011": 2.03614007969,
			"0.012": 1.62155463527,
			"0.013": 2.39055255888,
			"0.014": 1.26802146924,
			"0.015": 1.27276025661,
			"0.016": 1.32248478286,
			"0.017": 0.466685828392,
			"0.018": 0.0,
			"0.019": 0.0,
			"0.02": 0.0,
			"0.021": 0.0,
			"0.022": 0.0,
			"0.023": 0.0,
			"0.024": 0.0,
			"0.025": 0.0
		}
	}
}
