{
	 "smiles": "NS(=O)(=O)C1=C(F)C=CC=C1F", 
	 "Tm": 463.15, 
	 "num_atms": 17, 
	 "gaussian": { 
		 "optdone": 1, 
		 "sigma_profile": "yes", 
		 "theory": "DFT", 
		 "functional": "B3LYP", 
		 "basiset": "6-31G**", 
		 "properties": { 
			 "R2extent": 2027.7535, 
			 "electric_dipole_moment_norm": 6.60928407999, 
			 "electric_quadrupole_moment_norm": 9.91368865105, 
			 "total_energy": -1034.62280189, 
			 "HOMO_LUMO_gap": 0.22132, 
			 "cosmo_polarized_energy": -17.86, 
			 "cosmo_cavitation_energy": 23.47, 
			 "cosmo_dispersion_energy": -17.9, 
			 "cosmo_repulsion_energy": 1.34, 
			 "cosmo_total_nonelectrostatic_energy": 6.91, 
			 "SMD_solvation_energy": 4.47 
		},
		"coords": [
			{
				"x": -0.1568614977,
				"y": -2.3505810712,
				"z": 0.9430208562,
				"element": "N" 
			},
			{
				"x": -0.0580795482,
				"y": -0.7170048422,
				"z": 1.2803948868,
				"element": "S" 
			},
			{
				"x": 1.3076013582,
				"y": -0.4863237369,
				"z": 1.7307187432,
				"element": "O" 
			},
			{
				"x": -1.2250804126,
				"y": -0.3776035574,
				"z": 2.0848535344,
				"element": "O" 
			},
			{
				"x": -0.2724558352,
				"y": 0.1221858536,
				"z": -0.313754622,
				"element": "C" 
			},
			{
				"x": -1.3522908646,
				"y": -0.2088119362,
				"z": -1.1410833418,
				"element": "C" 
			},
			{
				"x": -2.1822475572,
				"y": -1.2043099342,
				"z": -0.7537417978,
				"element": "F" 
			},
			{
				"x": -1.6045388477,
				"y": 0.4206233688,
				"z": -2.3493612026,
				"element": "C" 
			},
			{
				"x": -0.7492893022,
				"y": 1.4484393555,
				"z": -2.7510732811,
				"element": "C" 
			},
			{
				"x": 0.3290743398,
				"y": 1.8263739862,
				"z": -1.9556462794,
				"element": "C" 
			},
			{
				"x": 0.5526726009,
				"y": 1.1682768984,
				"z": -0.7482598541,
				"element": "C" 
			},
			{
				"x": 1.5836087029,
				"y": 1.5703665794,
				"z": -0.0014947751,
				"element": "F" 
			},
			{
				"x": -1.039656322,
				"y": -2.6159083363,
				"z": 0.5188632977,
				"element": "H" 
			},
			{
				"x": 0.6588637499,
				"y": -2.6953584054,
				"z": 0.447389665,
				"element": "H" 
			},
			{
				"x": -2.4549764643,
				"y": 0.1083276251,
				"z": -2.9440810183,
				"element": "H" 
			},
			{
				"x": -0.9289697818,
				"y": 1.9595451991,
				"z": -3.6911807254,
				"element": "H" 
			},
			{
				"x": 1.0017256818,
				"y": 2.6266629537,
				"z": -2.2419640856,
				"element": "H" 
			}
		],
		 "valence_orbital": [ 
			{
				"type": "occ",
				"energy": -0.32039,
				"method": "rhf"
			},
			{
				"type": "occ",
				"energy": -0.31098,
				"method": "rhf"
			},
			{
				"type": "occ",
				"energy": -0.30687,
				"method": "rhf"
			},
			{
				"type": "occ",
				"energy": -0.28049,
				"method": "rhf"
			},
			{
				"type": "occ",
				"energy": -0.2732,
				"method": "rhf"
			},
			{
				"type": "unocc",
				"energy": -0.05188,
				"method": "rhf"
			},
			{
				"type": "unocc",
				"energy": -0.02739,
				"method": "rhf"
			},
			{
				"type": "unocc",
				"energy": 0.02727,
				"method": "rhf"
			},
			{
				"type": "unocc",
				"energy": 0.05921,
				"method": "rhf"
			},
			{
				"type": "unocc",
				"energy": 0.07293,
				"method": "rhf"
			}
		],
		"cosmo_sigma_profile": { 
			"-0.025": 0.0,
			"-0.024": 0.0,
			"-0.023": 0.0,
			"-0.022": 0.0,
			"-0.021": 0.0,
			"-0.02": 0.0,
			"-0.019": 0.0,
			"-0.018": 0.0,
			"-0.017": 0.0,
			"-0.016": 0.7351704178,
			"-0.015": 1.89025164831,
			"-0.014": 1.39589804796,
			"-0.013": 2.53279784477,
			"-0.012": 2.71965327689,
			"-0.011": 2.02530068367,
			"-0.01": 1.51138827227,
			"-0.009": 3.27929250543,
			"-0.008": 8.93176554067,
			"-0.007": 8.06376727633,
			"-0.006": 7.96348593845,
			"-0.005": 6.50618789087,
			"-0.004": 7.14245222216,
			"-0.003": 7.50250437695,
			"-0.002": 11.0793835982,
			"-0.001": 15.9365585731,
			"0.0": 13.6094391071,
			"0.001": 12.7246821248,
			"0.002": 10.4944141397,
			"0.003": 11.3716295113,
			"0.004": 5.2807416491,
			"0.005": 4.88624566364,
			"0.006": 4.46003965346,
			"0.007": 3.63974632198,
			"0.008": 5.78366642236,
			"0.009": 6.30867951664,
			"0.01": 11.6448391605,
			"0.011": 9.13841171684,
			"0.012": 0.290591220706,
			"0.013": 0.0,
			"0.014": 0.0,
			"0.015": 0.0,
			"0.016": 0.0,
			"0.017": 0.0,
			"0.018": 0.0,
			"0.019": 0.0,
			"0.02": 0.0,
			"0.021": 0.0,
			"0.022": 0.0,
			"0.023": 0.0,
			"0.024": 0.0,
			"0.025": 0.0
		}
	}
}
