{
	 "smiles": "CCS(=O)(=O)NC1=NC2=C(S1)C=C(N)C=C2", 
	 "Tm": 491.15, 
	 "num_atms": 27, 
	 "gaussian": { 
		 "optdone": 1, 
		 "sigma_profile": "yes", 
		 "theory": "DFT", 
		 "functional": "B3LYP", 
		 "basiset": "6-31G**", 
		 "properties": { 
			 "R2extent": 5890.6777, 
			 "electric_dipole_moment_norm": 5.25685372062, 
			 "electric_quadrupole_moment_norm": 17.8224588652, 
			 "total_energy": -1460.61293538, 
			 "HOMO_LUMO_gap": 0.1717, 
			 "cosmo_polarized_energy": -20.41, 
			 "cosmo_cavitation_energy": 33.96, 
			 "cosmo_dispersion_energy": -25.44, 
			 "cosmo_repulsion_energy": 1.89, 
			 "cosmo_total_nonelectrostatic_energy": 10.42, 
			 "SMD_solvation_energy": 2.64 
		},
		"coords": [
			{
				"x": -2.1788879956,
				"y": -2.18115033,
				"z": 3.0858631688,
				"element": "C" 
			},
			{
				"x": -1.9371192296,
				"y": -2.9379653544,
				"z": 1.7844102342,
				"element": "C" 
			},
			{
				"x": -2.6160006275,
				"y": -2.0941750666,
				"z": 0.3235243045,
				"element": "S" 
			},
			{
				"x": -2.2179606552,
				"y": -2.8633580962,
				"z": -0.8533843402,
				"element": "O" 
			},
			{
				"x": -4.0049158193,
				"y": -1.7232177808,
				"z": 0.5870915113,
				"element": "O" 
			},
			{
				"x": -1.7958218868,
				"y": -0.5987719594,
				"z": 0.2376307374,
				"element": "N" 
			},
			{
				"x": -0.4080747375,
				"y": -0.4770560323,
				"z": 0.1428741684,
				"element": "C" 
			},
			{
				"x": 0.2491487774,
				"y": 0.3859800525,
				"z": 0.8475986723,
				"element": "N" 
			},
			{
				"x": 1.5907281396,
				"y": 0.3856240749,
				"z": 0.4906755924,
				"element": "C" 
			},
			{
				"x": 1.9542059233,
				"y": -0.5415821412,
				"z": -0.5130138161,
				"element": "C" 
			},
			{
				"x": 0.5246156904,
				"y": -1.417021592,
				"z": -1.0488306105,
				"element": "S" 
			},
			{
				"x": 3.2686482405,
				"y": -0.6814247299,
				"z": -0.952625852,
				"element": "C" 
			},
			{
				"x": 4.2569031291,
				"y": 0.1365319427,
				"z": -0.3843620093,
				"element": "C" 
			},
			{
				"x": 5.5947123108,
				"y": -0.0034317355,
				"z": -0.7589573611,
				"element": "N" 
			},
			{
				"x": 3.8976594136,
				"y": 1.0694927761,
				"z": 0.6168316064,
				"element": "C" 
			},
			{
				"x": 2.5869035113,
				"y": 1.1959293547,
				"z": 1.0513915173,
				"element": "C" 
			},
			{
				"x": -1.6425592708,
				"y": -1.2279447952,
				"z": 3.0982183002,
				"element": "H" 
			},
			{
				"x": -3.2444599746,
				"y": -1.9915647031,
				"z": 3.2350878564,
				"element": "H" 
			},
			{
				"x": -1.813591264,
				"y": -2.7792076853,
				"z": 3.9256668269,
				"element": "H" 
			},
			{
				"x": -0.8756882009,
				"y": -3.0922567332,
				"z": 1.5716367503,
				"element": "H" 
			},
			{
				"x": -2.4320163508,
				"y": -3.9138447248,
				"z": 1.7709536775,
				"element": "H" 
			},
			{
				"x": -2.2099605186,
				"y": 0.1033847424,
				"z": 0.8446086438,
				"element": "H" 
			},
			{
				"x": 3.5316394481,
				"y": -1.4029753995,
				"z": -1.7206815382,
				"element": "H" 
			},
			{
				"x": 5.7472271594,
				"y": -0.4102502693,
				"z": -1.6715011515,
				"element": "H" 
			},
			{
				"x": 6.1686932513,
				"y": 0.8155087365,
				"z": -0.6129346603,
				"element": "H" 
			},
			{
				"x": 4.672475468,
				"y": 1.6930970876,
				"z": 1.0549900233,
				"element": "H" 
			},
			{
				"x": 2.3205960683,
				"y": 1.9134503614,
				"z": 1.8206377479,
				"element": "H" 
			}
		],
		 "valence_orbital": [ 
			{
				"type": "occ",
				"energy": -0.30255,
				"method": "rhf"
			},
			{
				"type": "occ",
				"energy": -0.28687,
				"method": "rhf"
			},
			{
				"type": "occ",
				"energy": -0.27881,
				"method": "rhf"
			},
			{
				"type": "occ",
				"energy": -0.23718,
				"method": "rhf"
			},
			{
				"type": "occ",
				"energy": -0.20018,
				"method": "rhf"
			},
			{
				"type": "unocc",
				"energy": -0.02848,
				"method": "rhf"
			},
			{
				"type": "unocc",
				"energy": -0.00777,
				"method": "rhf"
			},
			{
				"type": "unocc",
				"energy": 0.01031,
				"method": "rhf"
			},
			{
				"type": "unocc",
				"energy": 0.0349,
				"method": "rhf"
			},
			{
				"type": "unocc",
				"energy": 0.05245,
				"method": "rhf"
			}
		],
		"cosmo_sigma_profile": { 
			"-0.025": 0.0,
			"-0.024": 0.0,
			"-0.023": 0.0,
			"-0.022": 0.0,
			"-0.021": 0.0,
			"-0.02": 0.0,
			"-0.019": 0.0,
			"-0.018": 0.0,
			"-0.017": 0.0,
			"-0.016": 0.534521448662,
			"-0.015": 0.694687389195,
			"-0.014": 0.654460451714,
			"-0.013": 1.33516082291,
			"-0.012": 4.1618817643,
			"-0.011": 3.89445708415,
			"-0.01": 4.62190175699,
			"-0.009": 6.11431384446,
			"-0.008": 6.80694097587,
			"-0.007": 11.1345140609,
			"-0.006": 13.6729874028,
			"-0.005": 16.6591257126,
			"-0.004": 16.2839754514,
			"-0.003": 14.9209883465,
			"-0.002": 14.7778211318,
			"-0.001": 14.4000227333,
			"0.0": 11.3748417493,
			"0.001": 13.6059011397,
			"0.002": 16.3208888544,
			"0.003": 16.8326386054,
			"0.004": 18.9036003074,
			"0.005": 15.8434331234,
			"0.006": 8.82313749976,
			"0.007": 5.34334564033,
			"0.008": 4.24378683963,
			"0.009": 7.3337010928,
			"0.01": 11.4049152082,
			"0.011": 7.57833416483,
			"0.012": 1.17089179142,
			"0.013": 1.5585920965,
			"0.014": 0.95060597542,
			"0.015": 0.0,
			"0.016": 0.0,
			"0.017": 0.0,
			"0.018": 0.0,
			"0.019": 0.0,
			"0.02": 0.0,
			"0.021": 0.0,
			"0.022": 0.0,
			"0.023": 0.0,
			"0.024": 0.0,
			"0.025": 0.0
		}
	}
}
