{
	 "smiles": "OC(=O)CN1C(=O)C2CCCCC2C1=O", 
	 "Tm": 362.15, 
	 "num_atms": 28, 
	 "gaussian": { 
		 "optdone": 1, 
		 "sigma_profile": "yes", 
		 "theory": "DFT", 
		 "functional": "B3LYP", 
		 "basiset": "6-31G**", 
		 "properties": { 
			 "R2extent": 4004.8037, 
			 "electric_dipole_moment_norm": 6.89602907549, 
			 "electric_quadrupole_moment_norm": 27.3624224138, 
			 "total_energy": -744.600136952, 
			 "HOMO_LUMO_gap": 0.21758, 
			 "cosmo_polarized_energy": -17.32, 
			 "cosmo_cavitation_energy": 29.7, 
			 "cosmo_dispersion_energy": -21.57, 
			 "cosmo_repulsion_energy": 1.68, 
			 "cosmo_total_nonelectrostatic_energy": 9.82, 
			 "SMD_solvation_energy": 6.31 
		},
		"coords": [
			{
				"x": 4.1508549412,
				"y": 1.5970435284,
				"z": 2.0950285624,
				"element": "O" 
			},
			{
				"x": 4.0346962863,
				"y": 0.2637624662,
				"z": 2.1687528819,
				"element": "C" 
			},
			{
				"x": 4.9895586707,
				"y": -0.4622827142,
				"z": 2.2963764596,
				"element": "O" 
			},
			{
				"x": 2.5970608311,
				"y": -0.2934903543,
				"z": 2.139554067,
				"element": "C" 
			},
			{
				"x": 1.8093800505,
				"y": 0.0973907554,
				"z": 0.9695877985,
				"element": "N" 
			},
			{
				"x": 1.3424748961,
				"y": 1.3750022416,
				"z": 0.7371328282,
				"element": "C" 
			},
			{
				"x": 1.623895789,
				"y": 2.3431663914,
				"z": 1.4368994913,
				"element": "O" 
			},
			{
				"x": 0.4441084204,
				"y": 1.3719048056,
				"z": -0.4910185591,
				"element": "C" 
			},
			{
				"x": -0.9858399208,
				"y": 1.8395127381,
				"z": -0.1414171359,
				"element": "C" 
			},
			{
				"x": -1.7413131479,
				"y": 0.7915958169,
				"z": 0.689278745,
				"element": "C" 
			},
			{
				"x": -1.7936593799,
				"y": -0.6080616135,
				"z": 0.0079949242,
				"element": "C" 
			},
			{
				"x": -0.8818588943,
				"y": -0.7237901891,
				"z": -1.2284484344,
				"element": "C" 
			},
			{
				"x": 0.5019594087,
				"y": -0.0891668198,
				"z": -1.0075908039,
				"element": "C" 
			},
			{
				"x": 1.3161324396,
				"y": -0.843788366,
				"z": 0.0411025554,
				"element": "C" 
			},
			{
				"x": 1.5178695425,
				"y": -2.034435076,
				"z": 0.11142102,
				"element": "O" 
			},
			{
				"x": 3.2669519904,
				"y": 2.024254679,
				"z": 2.0165211702,
				"element": "H" 
			},
			{
				"x": 2.0708926551,
				"y": 0.0410664171,
				"z": 3.0417329997,
				"element": "H" 
			},
			{
				"x": 2.6561787723,
				"y": -1.3807807547,
				"z": 2.1313477936,
				"element": "H" 
			},
			{
				"x": 0.8834363178,
				"y": 2.0757834884,
				"z": -1.2060121052,
				"element": "H" 
			},
			{
				"x": -1.5211569557,
				"y": 2.0408141682,
				"z": -1.0762715618,
				"element": "H" 
			},
			{
				"x": -0.9234280763,
				"y": 2.7889923533,
				"z": 0.3993525251,
				"element": "H" 
			},
			{
				"x": -1.2580520569,
				"y": 0.7088486872,
				"z": 1.6708882006,
				"element": "H" 
			},
			{
				"x": -2.7538872024,
				"y": 1.1551068684,
				"z": 0.8906156118,
				"element": "H" 
			},
			{
				"x": -2.8187673319,
				"y": -0.8448509709,
				"z": -0.2948031839,
				"element": "H" 
			},
			{
				"x": -1.5093549078,
				"y": -1.3787538618,
				"z": 0.7328617649,
				"element": "H" 
			},
			{
				"x": -0.7498738835,
				"y": -1.7746720999,
				"z": -1.5023203906,
				"element": "H" 
			},
			{
				"x": -1.3460107532,
				"y": -0.2280522227,
				"z": -2.0886427351,
				"element": "H" 
			},
			{
				"x": 1.0745514989,
				"y": -0.1493203625,
				"z": -1.9407244893,
				"element": "H" 
			}
		],
		 "valence_orbital": [ 
			{
				"type": "occ",
				"energy": -0.31331,
				"method": "rhf"
			},
			{
				"type": "occ",
				"energy": -0.30763,
				"method": "rhf"
			},
			{
				"type": "occ",
				"energy": -0.30562,
				"method": "rhf"
			},
			{
				"type": "occ",
				"energy": -0.28214,
				"method": "rhf"
			},
			{
				"type": "occ",
				"energy": -0.26392,
				"method": "rhf"
			},
			{
				"type": "unocc",
				"energy": -0.04634,
				"method": "rhf"
			},
			{
				"type": "unocc",
				"energy": -0.00826,
				"method": "rhf"
			},
			{
				"type": "unocc",
				"energy": 0.00898,
				"method": "rhf"
			},
			{
				"type": "unocc",
				"energy": 0.06381,
				"method": "rhf"
			},
			{
				"type": "unocc",
				"energy": 0.08021,
				"method": "rhf"
			}
		],
		"cosmo_sigma_profile": { 
			"-0.025": 0.0,
			"-0.024": 0.0,
			"-0.023": 0.0,
			"-0.022": 0.0,
			"-0.021": 0.0,
			"-0.02": 0.0,
			"-0.019": 0.0,
			"-0.018": 0.0,
			"-0.017": 0.0,
			"-0.016": 0.0,
			"-0.015": 0.0,
			"-0.014": 0.0,
			"-0.013": 0.0,
			"-0.012": 0.0,
			"-0.011": 0.0543618215177,
			"-0.01": 1.517419745,
			"-0.009": 3.61340613469,
			"-0.008": 5.76954216887,
			"-0.007": 14.6627515698,
			"-0.006": 12.5947823314,
			"-0.005": 12.747443149,
			"-0.004": 19.5364127922,
			"-0.003": 22.4448150282,
			"-0.002": 23.9722339538,
			"-0.001": 24.2248579431,
			"0.0": 14.3759546214,
			"0.001": 7.78373315357,
			"0.002": 5.44694870729,
			"0.003": 4.49070446425,
			"0.004": 5.1411788357,
			"0.005": 3.3855731932,
			"0.006": 5.54904530312,
			"0.007": 5.52090466107,
			"0.008": 4.45242350932,
			"0.009": 7.53561812593,
			"0.01": 8.83084881558,
			"0.011": 11.9610515252,
			"0.012": 6.10500595199,
			"0.013": 1.07646806467,
			"0.014": 0.0,
			"0.015": 0.0,
			"0.016": 0.0,
			"0.017": 0.0,
			"0.018": 0.0,
			"0.019": 0.0,
			"0.02": 0.0,
			"0.021": 0.0,
			"0.022": 0.0,
			"0.023": 0.0,
			"0.024": 0.0,
			"0.0": 0.0
		}
	}
}
