{
	 "smiles": "CC1=C(C)C=C(OC2=NC=C(N)C=C2)C=C1", 
	 "Tm": 330.15, 
	 "num_atms": 30, 
	 "gaussian": { 
		 "optdone": 1, 
		 "sigma_profile": "yes", 
		 "theory": "DFT", 
		 "functional": "B3LYP", 
		 "basiset": "6-31G**", 
		 "properties": { 
			 "R2extent": 4960.334, 
			 "electric_dipole_moment_norm": 3.68399471905, 
			 "electric_quadrupole_moment_norm": 18.3958155035, 
			 "total_energy": -688.550904882, 
			 "HOMO_LUMO_gap": 0.17762, 
			 "cosmo_polarized_energy": -14.88, 
			 "cosmo_cavitation_energy": 33.79, 
			 "cosmo_dispersion_energy": -24.32, 
			 "cosmo_repulsion_energy": 1.9, 
			 "cosmo_total_nonelectrostatic_energy": 11.37, 
			 "SMD_solvation_energy": 4.38 
		},
		"coords": [
			{
				"x": 2.8282637962,
				"y": -0.6633175287,
				"z": -4.2195563957,
				"element": "C" 
			},
			{
				"x": 2.3418783651,
				"y": -0.2350930113,
				"z": -2.8553550354,
				"element": "C" 
			},
			{
				"x": 1.916754058,
				"y": -1.1879207185,
				"z": -1.9027375762,
				"element": "C" 
			},
			{
				"x": 1.9458187402,
				"y": -2.6642538067,
				"z": -2.2218912458,
				"element": "C" 
			},
			{
				"x": 1.4760318147,
				"y": -0.7583298682,
				"z": -0.647717595,
				"element": "C" 
			},
			{
				"x": 1.4427289664,
				"y": 0.6024204184,
				"z": -0.3289434535,
				"element": "C" 
			},
			{
				"x": 1.0838301556,
				"y": 1.0556800634,
				"z": 0.9264253443,
				"element": "O" 
			},
			{
				"x": -0.0464686846,
				"y": 0.5673534742,
				"z": 1.5457273554,
				"element": "C" 
			},
			{
				"x": 0.0305143039,
				"y": 0.5277019749,
				"z": 2.86797351,
				"element": "N" 
			},
			{
				"x": -1.0481796958,
				"y": 0.1380097778,
				"z": 3.5522137933,
				"element": "C" 
			},
			{
				"x": -2.2604407705,
				"y": -0.2459618132,
				"z": 2.9591634041,
				"element": "C" 
			},
			{
				"x": -3.3324551623,
				"y": -0.7157638229,
				"z": 3.7248293973,
				"element": "N" 
			},
			{
				"x": -2.3173164637,
				"y": -0.1909320952,
				"z": 1.5568282083,
				"element": "C" 
			},
			{
				"x": -1.205872909,
				"y": 0.2255681949,
				"z": 0.8362360165,
				"element": "C" 
			},
			{
				"x": 1.8614405805,
				"y": 1.5497576283,
				"z": -1.2593439579,
				"element": "C" 
			},
			{
				"x": 2.3091726378,
				"y": 1.1195138845,
				"z": -2.5083187541,
				"element": "C" 
			},
			{
				"x": 3.703090623,
				"y": -1.3219588978,
				"z": -4.1525959701,
				"element": "H" 
			},
			{
				"x": 3.1113775406,
				"y": 0.2020285854,
				"z": -4.8247749613,
				"element": "H" 
			},
			{
				"x": 2.0597268505,
				"y": -1.2181811242,
				"z": -4.7719969546,
				"element": "H" 
			},
			{
				"x": 1.5903096398,
				"y": -3.2593502018,
				"z": -1.3768651966,
				"element": "H" 
			},
			{
				"x": 1.3164123375,
				"y": -2.9029401689,
				"z": -3.0879933981,
				"element": "H" 
			},
			{
				"x": 2.9592326853,
				"y": -3.004170791,
				"z": -2.4675149548,
				"element": "H" 
			},
			{
				"x": 1.1633433671,
				"y": -1.4869427828,
				"z": 0.0940754465,
				"element": "H" 
			},
			{
				"x": -0.9482071998,
				"y": 0.1222283006,
				"z": 4.6378727319,
				"element": "H" 
			},
			{
				"x": -3.3179973034,
				"y": -0.4184778149,
				"z": 4.6916255261,
				"element": "H" 
			},
			{
				"x": -4.2438673891,
				"y": -0.5688471017,
				"z": 3.3117449109,
				"element": "H" 
			},
			{
				"x": -3.2309696467,
				"y": -0.4680115162,
				"z": 1.0364687727,
				"element": "H" 
			},
			{
				"x": -1.2335917465,
				"y": 0.2884890741,
				"z": -0.2453288197,
				"element": "H" 
			},
			{
				"x": 1.8386256884,
				"y": 2.6014672205,
				"z": -0.9943168571,
				"element": "H" 
			},
			{
				"x": 2.6381148207,
				"y": 1.8587344671,
				"z": -3.2345332912,
				"element": "H" 
			}
		],
		 "valence_orbital": [ 
			{
				"type": "occ",
				"energy": -0.27491,
				"method": "rhf"
			},
			{
				"type": "occ",
				"energy": -0.25643,
				"method": "rhf"
			},
			{
				"type": "occ",
				"energy": -0.24119,
				"method": "rhf"
			},
			{
				"type": "occ",
				"energy": -0.22415,
				"method": "rhf"
			},
			{
				"type": "occ",
				"energy": -0.1966,
				"method": "rhf"
			},
			{
				"type": "unocc",
				"energy": -0.01898,
				"method": "rhf"
			},
			{
				"type": "unocc",
				"energy": 0.00468,
				"method": "rhf"
			},
			{
				"type": "unocc",
				"energy": 0.00651,
				"method": "rhf"
			},
			{
				"type": "unocc",
				"energy": 0.02219,
				"method": "rhf"
			},
			{
				"type": "unocc",
				"energy": 0.07531,
				"method": "rhf"
			}
		],
		"cosmo_sigma_profile": { 
			"-0.025": 0.0,
			"-0.024": 0.0,
			"-0.023": 0.0,
			"-0.022": 0.0,
			"-0.021": 0.0,
			"-0.02": 0.0,
			"-0.019": 0.0,
			"-0.018": 0.0,
			"-0.017": 0.0,
			"-0.016": 0.0,
			"-0.015": 0.0,
			"-0.014": 0.0,
			"-0.013": 0.967432569332,
			"-0.012": 2.99084067156,
			"-0.011": 3.02006184533,
			"-0.01": 3.35751893195,
			"-0.009": 3.44055864313,
			"-0.008": 3.1929884897,
			"-0.007": 5.14881258982,
			"-0.006": 8.48327246196,
			"-0.005": 13.6885651794,
			"-0.004": 21.6044012783,
			"-0.003": 21.8095514732,
			"-0.002": 18.9892879176,
			"-0.001": 21.5656470871,
			"0.0": 24.4437467464,
			"0.001": 19.8727379199,
			"0.002": 17.6529540338,
			"0.003": 19.0414090107,
			"0.004": 16.0481925523,
			"0.005": 11.3792004591,
			"0.006": 7.70785607513,
			"0.007": 2.88980221591,
			"0.008": 3.22203678492,
			"0.009": 2.86770648381,
			"0.01": 3.09963838484,
			"0.011": 2.01106578596,
			"0.012": 2.44114778919,
			"0.013": 2.23299846239,
			"0.014": 2.1649041728,
			"0.015": 1.27302122356,
			"0.016": 0.994031540181,
			"0.017": 0.326090593852,
			"0.018": 0.0,
			"0.019": 0.0,
			"0.02": 0.0,
			"0.021": 0.0,
			"0.022": 0.0,
			"0.023": 0.0,
			"0.024": 0.0,
			"0.025": 0.0
		}
	}
}
