{
	 "smiles": "CCCCCC(=O)OCC(COC(=O)CCCCC)OC(=O)CCCCC", 
	 "Tm": 213.15, 
	 "num_atms": 65, 
	 "gaussian": { 
		 "optdone": 1, 
		 "sigma_profile": "yes", 
		 "theory": "DFT", 
		 "functional": "B3LYP", 
		 "basiset": "6-31G**", 
		 "properties": { 
			 "R2extent": 15250.8476, 
			 "electric_dipole_moment_norm": 1.93300410243, 
			 "electric_quadrupole_moment_norm": 11.4838569875, 
			 "total_energy": -1274.56302065, 
			 "HOMO_LUMO_gap": 0.27546, 
			 "cosmo_polarized_energy": -12.89, 
			 "cosmo_cavitation_energy": 64.44, 
			 "cosmo_dispersion_energy": -39.14, 
			 "cosmo_repulsion_energy": 3.1, 
			 "cosmo_total_nonelectrostatic_energy": 28.4, 
			 "SMD_solvation_energy": 11.22 
		},
		"coords": [
			{
				"x": 0.0434850465,
				"y": -2.7050880257,
				"z": 4.8104582406,
				"element": "C" 
			},
			{
				"x": 1.5267848945,
				"y": -2.6260180498,
				"z": 4.4304385194,
				"element": "C" 
			},
			{
				"x": 2.0099701306,
				"y": -1.2145658243,
				"z": 4.0523579481,
				"element": "C" 
			},
			{
				"x": 1.3407839532,
				"y": -0.5846647592,
				"z": 2.8186295864,
				"element": "C" 
			},
			{
				"x": 1.6219854809,
				"y": -1.3529091609,
				"z": 1.5168718687,
				"element": "C" 
			},
			{
				"x": 1.0430546325,
				"y": -0.7377977924,
				"z": 0.2633213493,
				"element": "C" 
			},
			{
				"x": 1.6110004771,
				"y": -0.6806337163,
				"z": -0.80850899,
				"element": "O" 
			},
			{
				"x": -0.2238132865,
				"y": -0.2874044372,
				"z": 0.4644000741,
				"element": "O" 
			},
			{
				"x": -0.9336792498,
				"y": 0.2364195565,
				"z": -0.6748899006,
				"element": "C" 
			},
			{
				"x": -2.2671285375,
				"y": -0.4814202244,
				"z": -0.842710139,
				"element": "C" 
			},
			{
				"x": -2.1532431825,
				"y": -2.0053079455,
				"z": -0.8882377547,
				"element": "C" 
			},
			{
				"x": -1.256286686,
				"y": -2.3663226485,
				"z": -1.9504446587,
				"element": "O" 
			},
			{
				"x": -0.2118541056,
				"y": -3.1865531864,
				"z": -1.6381077044,
				"element": "C" 
			},
			{
				"x": -0.0563360287,
				"y": -3.6844721918,
				"z": -0.5436335849,
				"element": "O" 
			},
			{
				"x": 0.7139900499,
				"y": -3.3416721845,
				"z": -2.8216776284,
				"element": "C" 
			},
			{
				"x": 1.7473115015,
				"y": -4.4580553602,
				"z": -2.6343799487,
				"element": "C" 
			},
			{
				"x": 2.8084510629,
				"y": -4.5295875671,
				"z": -3.7532424891,
				"element": "C" 
			},
			{
				"x": 4.0945874215,
				"y": -3.7199857239,
				"z": -3.5040633228,
				"element": "C" 
			},
			{
				"x": 3.922620132,
				"y": -2.2000368133,
				"z": -3.391215532,
				"element": "C" 
			},
			{
				"x": -3.1517772091,
				"y": -0.23067099,
				"z": 0.2748469709,
				"element": "O" 
			},
			{
				"x": -3.8388427152,
				"y": 0.9401901322,
				"z": 0.265246536,
				"element": "C" 
			},
			{
				"x": -3.7229104623,
				"y": 1.775359448,
				"z": -0.6066215526,
				"element": "O" 
			},
			{
				"x": -4.7802508799,
				"y": 1.0375423571,
				"z": 1.4492368314,
				"element": "C" 
			},
			{
				"x": -4.8797429008,
				"y": 2.4571332395,
				"z": 2.0351286779,
				"element": "C" 
			},
			{
				"x": -3.7514018252,
				"y": 2.8316775262,
				"z": 3.0102013882,
				"element": "C" 
			},
			{
				"x": -2.333567699,
				"y": 2.8317954588,
				"z": 2.4203045109,
				"element": "C" 
			},
			{
				"x": -1.2818793156,
				"y": 3.3297204584,
				"z": 3.4176861249,
				"element": "C" 
			},
			{
				"x": -0.1903599686,
				"y": -2.0189401739,
				"z": 5.6331066925,
				"element": "H" 
			},
			{
				"x": -0.6094894245,
				"y": -2.4481564763,
				"z": 3.9698609781,
				"element": "H" 
			},
			{
				"x": -0.2254365491,
				"y": -3.715764138,
				"z": 5.1342637725,
				"element": "H" 
			},
			{
				"x": 1.7310795519,
				"y": -3.3253649666,
				"z": 3.6094863353,
				"element": "H" 
			},
			{
				"x": 2.1316414631,
				"y": -2.977986787,
				"z": 5.2757140699,
				"element": "H" 
			},
			{
				"x": 3.0963895642,
				"y": -1.242532605,
				"z": 3.8917694735,
				"element": "H" 
			},
			{
				"x": 1.8476973798,
				"y": -0.5465068223,
				"z": 4.909011872,
				"element": "H" 
			},
			{
				"x": 1.7049486252,
				"y": 0.444728783,
				"z": 2.7114150716,
				"element": "H" 
			},
			{
				"x": 0.2592477067,
				"y": -0.5097574365,
				"z": 2.9665007365,
				"element": "H" 
			},
			{
				"x": 2.6967045519,
				"y": -1.4610288758,
				"z": 1.3440136424,
				"element": "H" 
			},
			{
				"x": 1.2027297426,
				"y": -2.3661317864,
				"z": 1.5664778967,
				"element": "H" 
			},
			{
				"x": -1.1081248908,
				"y": 1.3004855577,
				"z": -0.5043589017,
				"element": "H" 
			},
			{
				"x": -0.3260472829,
				"y": 0.1073687322,
				"z": -1.5716050791,
				"element": "H" 
			},
			{
				"x": -2.7313203875,
				"y": -0.0916596653,
				"z": -1.7540637886,
				"element": "H" 
			},
			{
				"x": -1.7810650479,
				"y": -2.3921322943,
				"z": 0.0605965186,
				"element": "H" 
			},
			{
				"x": -3.1318974979,
				"y": -2.4456156684,
				"z": -1.0986517983,
				"element": "H" 
			},
			{
				"x": 0.1074584645,
				"y": -3.5006468204,
				"z": -3.7209288272,
				"element": "H" 
			},
			{
				"x": 1.1967430031,
				"y": -2.3665678704,
				"z": -2.9513522744,
				"element": "H" 
			},
			{
				"x": 2.2348510059,
				"y": -4.3315860303,
				"z": -1.6614151959,
				"element": "H" 
			},
			{
				"x": 1.2109536456,
				"y": -5.4122249828,
				"z": -2.5743257218,
				"element": "H" 
			},
			{
				"x": 3.1000516416,
				"y": -5.5784474967,
				"z": -3.8881353403,
				"element": "H" 
			},
			{
				"x": 2.3608885428,
				"y": -4.2213076353,
				"z": -4.7091571482,
				"element": "H" 
			},
			{
				"x": 4.5723668387,
				"y": -4.0964655129,
				"z": -2.5889938169,
				"element": "H" 
			},
			{
				"x": 4.7956377073,
				"y": -3.9386333391,
				"z": -4.3203834241,
				"element": "H" 
			},
			{
				"x": 3.4178197304,
				"y": -1.7905947686,
				"z": -4.2747229072,
				"element": "H" 
			},
			{
				"x": 4.8981242667,
				"y": -1.7071971562,
				"z": -3.3162780871,
				"element": "H" 
			},
			{
				"x": 3.3463231147,
				"y": -1.9075382316,
				"z": -2.5081244271,
				"element": "H" 
			},
			{
				"x": -4.4922701464,
				"y": 0.3019050633,
				"z": 2.2061077635,
				"element": "H" 
			},
			{
				"x": -5.7637008673,
				"y": 0.7303883969,
				"z": 1.068900119,
				"element": "H" 
			},
			{
				"x": -5.8366252835,
				"y": 2.5441678497,
				"z": 2.5624238678,
				"element": "H" 
			},
			{
				"x": -4.912750857,
				"y": 3.1692562443,
				"z": 1.2027611231,
				"element": "H" 
			},
			{
				"x": -3.9660660249,
				"y": 3.8316696838,
				"z": 3.4110333901,
				"element": "H" 
			},
			{
				"x": -3.7801240045,
				"y": 2.1498779834,
				"z": 3.8727581995,
				"element": "H" 
			},
			{
				"x": -2.3151385531,
				"y": 3.4578368544,
				"z": 1.5189219773,
				"element": "H" 
			},
			{
				"x": -2.0615302929,
				"y": 1.8184300608,
				"z": 2.0971590069,
				"element": "H" 
			},
			{
				"x": -0.2775966443,
				"y": 3.3111289889,
				"z": 2.9821912485,
				"element": "H" 
			},
			{
				"x": -1.2643439692,
				"y": 2.7070195238,
				"z": 4.3196497111,
				"element": "H" 
			},
			{
				"x": -1.4897795541,
				"y": 4.3589522426,
				"z": 3.7319778506,
				"element": "H" 
			}
		],
		 "valence_orbital": [ 
			{
				"type": "occ",
				"energy": -0.3037,
				"method": "rhf"
			},
			{
				"type": "occ",
				"energy": -0.29549,
				"method": "rhf"
			},
			{
				"type": "occ",
				"energy": -0.27929,
				"method": "rhf"
			},
			{
				"type": "occ",
				"energy": -0.27367,
				"method": "rhf"
			},
			{
				"type": "occ",
				"energy": -0.27212,
				"method": "rhf"
			},
			{
				"type": "unocc",
				"energy": 0.00334,
				"method": "rhf"
			},
			{
				"type": "unocc",
				"energy": 0.00745,
				"method": "rhf"
			},
			{
				"type": "unocc",
				"energy": 0.01064,
				"method": "rhf"
			},
			{
				"type": "unocc",
				"energy": 0.07007,
				"method": "rhf"
			},
			{
				"type": "unocc",
				"energy": 0.08624,
				"method": "rhf"
			}
		],
		"cosmo_sigma_profile": { 
			"-0.025": 0.0,
			"-0.024": 0.0,
			"-0.023": 0.0,
			"-0.022": 0.0,
			"-0.021": 0.0,
			"-0.02": 0.0,
			"-0.019": 0.0,
			"-0.018": 0.0,
			"-0.017": 0.0,
			"-0.016": 0.0,
			"-0.015": 0.0,
			"-0.014": 0.0,
			"-0.013": 0.0,
			"-0.012": 0.0,
			"-0.011": 0.0,
			"-0.01": 0.0,
			"-0.009": 0.0,
			"-0.008": 0.00485761655456,
			"-0.007": 4.35164215647,
			"-0.006": 10.3825946893,
			"-0.005": 12.522183019,
			"-0.004": 22.6023405845,
			"-0.003": 43.108974895,
			"-0.002": 79.1147976145,
			"-0.001": 79.4037673199,
			"0.0": 76.1005894078,
			"0.001": 63.3084058803,
			"0.002": 30.049252536,
			"0.003": 14.5236661622,
			"0.004": 11.6658525634,
			"0.005": 9.54426475987,
			"0.006": 8.40849177927,
			"0.007": 6.96537293817,
			"0.008": 5.10305135788,
			"0.009": 4.3626732416,
			"0.01": 5.5193696002,
			"0.011": 6.48008599248,
			"0.012": 4.1598688598,
			"0.013": 0.23960008285,
			"0.014": 0.0,
			"0.015": 0.0,
			"0.016": 0.0,
			"0.017": 0.0,
			"0.018": 0.0,
			"0.019": 0.0,
			"0.02": 0.0,
			"0.021": 0.0,
			"0.022": 0.0,
			"0.023": 0.0,
			"0.024": 0.0,
			"0.025": 0.0
		}
	}
}
