{
	 "smiles": "CC1=CC=C(NS(=O)(=O)C2=C(SC=C2)C(O)=O)C=C1", 
	 "Tm": 466.15, 
	 "num_atms": 30, 
	 "gaussian": { 
		 "optdone": 1, 
		 "sigma_profile": "yes", 
		 "theory": "DFT", 
		 "functional": "B3LYP", 
		 "basiset": "6-31G**", 
		 "properties": { 
			 "R2extent": 8331.2016, 
			 "electric_dipole_moment_norm": 4.40393243136, 
			 "electric_quadrupole_moment_norm": 8.27483065506, 
			 "total_energy": -1615.85193599, 
			 "HOMO_LUMO_gap": 0.14716, 
			 "cosmo_polarized_energy": -21.3, 
			 "cosmo_cavitation_energy": 37.74, 
			 "cosmo_dispersion_energy": -27.63, 
			 "cosmo_repulsion_energy": 2.04, 
			 "cosmo_total_nonelectrostatic_energy": 12.15, 
			 "SMD_solvation_energy": 7.17 
		},
		"coords": [
			{
				"x": -2.2018098202,
				"y": -4.1409749113,
				"z": -2.2118894855,
				"element": "C" 
			},
			{
				"x": -1.0794424728,
				"y": -3.3888324865,
				"z": -1.5365989265,
				"element": "C" 
			},
			{
				"x": -1.30358231,
				"y": -2.1458433596,
				"z": -0.9294138762,
				"element": "C" 
			},
			{
				"x": -0.2837595415,
				"y": -1.4491969183,
				"z": -0.2861890092,
				"element": "C" 
			},
			{
				"x": 1.0004728249,
				"y": -2.00209548,
				"z": -0.2171003454,
				"element": "C" 
			},
			{
				"x": 2.0850648889,
				"y": -1.2976573413,
				"z": 0.3788488664,
				"element": "N" 
			},
			{
				"x": 2.0096125649,
				"y": -0.5981877006,
				"z": 1.9311452956,
				"element": "S" 
			},
			{
				"x": 3.3492479016,
				"y": -0.8089107119,
				"z": 2.4803091516,
				"element": "O" 
			},
			{
				"x": 0.7993808984,
				"y": -1.0416682926,
				"z": 2.6148553084,
				"element": "O" 
			},
			{
				"x": 1.8181014195,
				"y": 1.1484711452,
				"z": 1.5227530322,
				"element": "C" 
			},
			{
				"x": 1.6925689988,
				"y": 2.1709611755,
				"z": 2.4492453273,
				"element": "C" 
			},
			{
				"x": 1.5124439403,
				"y": 3.7056782961,
				"z": 1.6535781094,
				"element": "S" 
			},
			{
				"x": 1.6127965813,
				"y": 2.9698901191,
				"z": 0.102167072,
				"element": "C" 
			},
			{
				"x": 1.7762221651,
				"y": 1.6106532427,
				"z": 0.1761887125,
				"element": "C" 
			},
			{
				"x": 1.6901520193,
				"y": 2.2084007571,
				"z": 3.9247619759,
				"element": "C" 
			},
			{
				"x": 1.9162611012,
				"y": 1.0083768247,
				"z": 4.4814493785,
				"element": "O" 
			},
			{
				"x": 1.5104335588,
				"y": 3.2284339725,
				"z": 4.5625414205,
				"element": "O" 
			},
			{
				"x": 1.2411917828,
				"y": -3.2455580873,
				"z": -0.8113418306,
				"element": "C" 
			},
			{
				"x": 0.2146100457,
				"y": -3.9184155533,
				"z": -1.4713424052,
				"element": "C" 
			},
			{
				"x": -2.9014967155,
				"y": -3.458857143,
				"z": -2.705076422,
				"element": "H" 
			},
			{
				"x": -2.7795444917,
				"y": -4.7287432633,
				"z": -1.4874804601,
				"element": "H" 
			},
			{
				"x": -1.8211609202,
				"y": -4.8366068571,
				"z": -2.9656009219,
				"element": "H" 
			},
			{
				"x": -2.2965399485,
				"y": -1.7048241729,
				"z": -0.9670964313,
				"element": "H" 
			},
			{
				"x": -0.4894742048,
				"y": -0.4856237993,
				"z": 0.1657215569,
				"element": "H" 
			},
			{
				"x": 2.9851628233,
				"y": -1.7621703248,
				"z": 0.3074136108,
				"element": "H" 
			},
			{
				"x": 1.5493518913,
				"y": 3.5753606078,
				"z": -0.7918648205,
				"element": "H" 
			},
			{
				"x": 1.8648111044,
				"y": 0.95576348,
				"z": -0.6793084818,
				"element": "H" 
			},
			{
				"x": 1.8865816236,
				"y": 1.1288847703,
				"z": 5.4447911577,
				"element": "H" 
			},
			{
				"x": 2.2343410415,
				"y": -3.6854979702,
				"z": -0.762160493,
				"element": "H" 
			},
			{
				"x": 0.4257012495,
				"y": -4.8791100175,
				"z": -1.9341060665,
				"element": "H" 
			}
		],
		 "valence_orbital": [ 
			{
				"type": "occ",
				"energy": -0.29085,
				"method": "rhf"
			},
			{
				"type": "occ",
				"energy": -0.27821,
				"method": "rhf"
			},
			{
				"type": "occ",
				"energy": -0.2663,
				"method": "rhf"
			},
			{
				"type": "occ",
				"energy": -0.25683,
				"method": "rhf"
			},
			{
				"type": "occ",
				"energy": -0.22545,
				"method": "rhf"
			},
			{
				"type": "unocc",
				"energy": -0.07829,
				"method": "rhf"
			},
			{
				"type": "unocc",
				"energy": -0.00983,
				"method": "rhf"
			},
			{
				"type": "unocc",
				"energy": -0.00709,
				"method": "rhf"
			},
			{
				"type": "unocc",
				"energy": 0.00213,
				"method": "rhf"
			},
			{
				"type": "unocc",
				"energy": 0.00945,
				"method": "rhf"
			}
		],
		"cosmo_sigma_profile": { 
			"-0.025": 0.0,
			"-0.024": 0.0,
			"-0.023": 0.0,
			"-0.022": 0.0,
			"-0.021": 0.0,
			"-0.02": 0.172024089512,
			"-0.019": 1.12622339748,
			"-0.018": 0.440631204684,
			"-0.017": 1.11237538879,
			"-0.016": 0.989662293393,
			"-0.015": 1.48942266736,
			"-0.014": 1.82032948727,
			"-0.013": 2.09965452297,
			"-0.012": 0.948678060343,
			"-0.011": 2.4845265104,
			"-0.01": 4.42198334679,
			"-0.009": 4.41788424643,
			"-0.008": 4.62819454286,
			"-0.007": 6.76984151813,
			"-0.006": 9.40507298108,
			"-0.005": 13.2761638156,
			"-0.004": 21.307920076,
			"-0.003": 23.0325062043,
			"-0.002": 21.9968748686,
			"-0.001": 25.0524810499,
			"0.0": 29.0751976351,
			"0.001": 24.0768123561,
			"0.002": 13.3321976244,
			"0.003": 10.2847626214,
			"0.004": 10.5476944616,
			"0.005": 13.6215028713,
			"0.006": 7.782944757,
			"0.007": 4.85503380392,
			"0.008": 6.41333558017,
			"0.009": 9.23455430218,
			"0.01": 14.7438568404,
			"0.011": 12.2497898432,
			"0.012": 0.683001549307,
			"0.013": 0.0,
			"0.014": 0.0,
			"0.015": 0.0,
			"0.016": 0.0,
			"0.017": 0.0,
			"0.018": 0.0,
			"0.019": 0.0,
			"0.02": 0.0,
			"0.021": 0.0,
			"0.022": 0.0,
			"0.023": 0.0,
			"0.024": 0.0,
			"0.025": 0.0
		}
	}
}
