{
	 "smiles": "COC(=O)C1=C(C)NC(C)=C(C1C1=CC=CO1)C(=O)OC", 
	 "Tm": 459.15, 
	 "num_atms": 38, 
	 "gaussian": { 
		 "optdone": 1, 
		 "sigma_profile": "yes", 
		 "theory": "DFT", 
		 "functional": "B3LYP", 
		 "basiset": "6-31G**", 
		 "properties": { 
			 "R2extent": 6414.106, 
			 "electric_dipole_moment_norm": 4.23381094051, 
			 "electric_quadrupole_moment_norm": 11.0452519224, 
			 "total_energy": -1012.69381158, 
			 "HOMO_LUMO_gap": 0.1599, 
			 "cosmo_polarized_energy": -20.94, 
			 "cosmo_cavitation_energy": 41.59, 
			 "cosmo_dispersion_energy": -28.1, 
			 "cosmo_repulsion_energy": 2.21, 
			 "cosmo_total_nonelectrostatic_energy": 15.7, 
			 "SMD_solvation_energy": 10.94 
		},
		"coords": [
			{
				"x": -1.3180860159,
				"y": 4.1323564173,
				"z": -1.3170164882,
				"element": "C" 
			},
			{
				"x": -1.4398861744,
				"y": 2.7977935839,
				"z": -0.8056997427,
				"element": "O" 
			},
			{
				"x": -0.4719356182,
				"y": 1.9348051285,
				"z": -1.2275198508,
				"element": "C" 
			},
			{
				"x": 0.412407448,
				"y": 2.2867548906,
				"z": -1.9888882104,
				"element": "O" 
			},
			{
				"x": -0.6108211683,
				"y": 0.5643034648,
				"z": -0.7111754533,
				"element": "C" 
			},
			{
				"x": -1.6517654033,
				"y": 0.0932672836,
				"z": 0.0285308357,
				"element": "C" 
			},
			{
				"x": -2.7996637112,
				"y": 0.8664193907,
				"z": 0.6274788517,
				"element": "C" 
			},
			{
				"x": -1.7269886038,
				"y": -1.2790308286,
				"z": 0.2373694393,
				"element": "N" 
			},
			{
				"x": -1.0587172554,
				"y": -2.2146803413,
				"z": -0.5433240756,
				"element": "C" 
			},
			{
				"x": -1.6658603439,
				"y": -3.5898425958,
				"z": -0.4869459748,
				"element": "C" 
			},
			{
				"x": 0.0050164612,
				"y": -1.7975720452,
				"z": -1.285238288,
				"element": "C" 
			},
			{
				"x": 0.5328849027,
				"y": -0.3872660965,
				"z": -1.0639338334,
				"element": "C" 
			},
			{
				"x": 1.5966590499,
				"y": -0.3849981706,
				"z": 0.0085798601,
				"element": "C" 
			},
			{
				"x": 2.032183597,
				"y": -1.309670314,
				"z": 0.9146204375,
				"element": "C" 
			},
			{
				"x": 3.074180301,
				"y": -0.6805938218,
				"z": 1.6751987463,
				"element": "C" 
			},
			{
				"x": 3.192497137,
				"y": 0.580324759,
				"z": 1.179542618,
				"element": "C" 
			},
			{
				"x": 2.302631227,
				"y": 0.7769443317,
				"z": 0.1642177549,
				"element": "O" 
			},
			{
				"x": 0.6967462892,
				"y": -2.6962215921,
				"z": -2.2283595553,
				"element": "C" 
			},
			{
				"x": 0.4304583552,
				"y": -3.8657144822,
				"z": -2.4666959614,
				"element": "O" 
			},
			{
				"x": 1.7221838577,
				"y": -2.0601268397,
				"z": -2.8500680256,
				"element": "O" 
			},
			{
				"x": 2.455620565,
				"y": -2.8534596598,
				"z": -3.7906434738,
				"element": "C" 
			},
			{
				"x": -0.3644107605,
				"y": 4.5763547685,
				"z": -1.020459476,
				"element": "H" 
			},
			{
				"x": -1.3794601613,
				"y": 4.1373605679,
				"z": -2.4083432496,
				"element": "H" 
			},
			{
				"x": -2.1501444408,
				"y": 4.6899662881,
				"z": -0.8853119725,
				"element": "H" 
			},
			{
				"x": -3.5273604713,
				"y": 1.1483716421,
				"z": -0.1402635884,
				"element": "H" 
			},
			{
				"x": -3.3159946127,
				"y": 0.2605920999,
				"z": 1.3799073534,
				"element": "H" 
			},
			{
				"x": -2.4548232756,
				"y": 1.7871513203,
				"z": 1.0948155347,
				"element": "H" 
			},
			{
				"x": -2.5140346845,
				"y": -1.6171229932,
				"z": 0.7707174169,
				"element": "H" 
			},
			{
				"x": -1.9285724505,
				"y": -3.8382993236,
				"z": 0.5487195591,
				"element": "H" 
			},
			{
				"x": -0.9835149779,
				"y": -4.3350520998,
				"z": -0.8859976315,
				"element": "H" 
			},
			{
				"x": -2.5882374885,
				"y": -3.625071846,
				"z": -1.0802385244,
				"element": "H" 
			},
			{
				"x": 0.9946143202,
				"y": -0.0162158082,
				"z": -1.9807665158,
				"element": "H" 
			},
			{
				"x": 1.662348532,
				"y": -2.3182320574,
				"z": 1.0226572089,
				"element": "H" 
			},
			{
				"x": 3.6531157159,
				"y": -1.1142464548,
				"z": 2.4782735189,
				"element": "H" 
			},
			{
				"x": 3.8275838171,
				"y": 1.4198166942,
				"z": 1.4169168915,
				"element": "H" 
			},
			{
				"x": 2.9115965959,
				"y": -3.7158145471,
				"z": -3.2971884946,
				"element": "H" 
			},
			{
				"x": 1.8010517374,
				"y": -3.2140111516,
				"z": -4.5886243288,
				"element": "H" 
			},
			{
				"x": 3.2237977086,
				"y": -2.1935395617,
				"z": -4.194043312,
				"element": "H" 
			}
		],
		 "valence_orbital": [ 
			{
				"type": "occ",
				"energy": -0.26116,
				"method": "rhf"
			},
			{
				"type": "occ",
				"energy": -0.26019,
				"method": "rhf"
			},
			{
				"type": "occ",
				"energy": -0.25344,
				"method": "rhf"
			},
			{
				"type": "occ",
				"energy": -0.20968,
				"method": "rhf"
			},
			{
				"type": "occ",
				"energy": -0.20443,
				"method": "rhf"
			},
			{
				"type": "unocc",
				"energy": -0.04453,
				"method": "rhf"
			},
			{
				"type": "unocc",
				"energy": -0.00073,
				"method": "rhf"
			},
			{
				"type": "unocc",
				"energy": 0.03018,
				"method": "rhf"
			},
			{
				"type": "unocc",
				"energy": 0.06245,
				"method": "rhf"
			},
			{
				"type": "unocc",
				"energy": 0.08204,
				"method": "rhf"
			}
		],
		"cosmo_sigma_profile": { 
			"-0.025": 0.0,
			"-0.024": 0.0,
			"-0.023": 0.0,
			"-0.022": 0.0,
			"-0.021": 0.0,
			"-0.02": 0.0,
			"-0.019": 0.0,
			"-0.018": 0.0,
			"-0.017": 0.0,
			"-0.016": 0.074227122961,
			"-0.015": 1.15010434686,
			"-0.014": 1.43293216575,
			"-0.013": 1.12352423048,
			"-0.012": 1.46116476486,
			"-0.011": 2.22832414991,
			"-0.01": 1.08246231288,
			"-0.009": 1.77266422816,
			"-0.008": 3.86317828816,
			"-0.007": 4.604047551,
			"-0.006": 14.0963809692,
			"-0.005": 24.4909429132,
			"-0.004": 27.1601942147,
			"-0.003": 32.8470018617,
			"-0.002": 28.0254439845,
			"-0.001": 26.3430760261,
			"0.0": 23.1026999012,
			"0.001": 18.7960056388,
			"0.002": 17.6865658811,
			"0.003": 19.1922623361,
			"0.004": 18.0613548072,
			"0.005": 13.1481716296,
			"0.006": 12.5839942565,
			"0.007": 6.38377179814,
			"0.008": 4.46336100119,
			"0.009": 2.64930058144,
			"0.01": 4.56710702754,
			"0.011": 4.32873505605,
			"0.012": 7.05974393474,
			"0.013": 5.96330934557,
			"0.014": 0.0648120835515,
			"0.015": 0.0,
			"0.016": 0.0,
			"0.017": 0.0,
			"0.018": 0.0,
			"0.019": 0.0,
			"0.02": 0.0,
			"0.021": 0.0,
			"0.022": 0.0,
			"0.023": 0.0,
			"0.024": 0.0,
			"0.025": 0.0
		}
	}
}
