{
	 "smiles": "C=CCNC1=NC(=CS1)C1=CC=CC=C1", 
	 "Tm": 348.15, 
	 "num_atms": 27, 
	 "gaussian": { 
		 "optdone": 1, 
		 "sigma_profile": "yes", 
		 "theory": "DFT", 
		 "functional": "B3LYP", 
		 "basiset": "6-31G**", 
		 "properties": { 
			 "R2extent": 5632.0685, 
			 "electric_dipole_moment_norm": 2.26927758769, 
			 "electric_quadrupole_moment_norm": 13.1390149003, 
			 "total_energy": -972.174082318, 
			 "HOMO_LUMO_gap": 0.17033, 
			 "cosmo_polarized_energy": -9.78, 
			 "cosmo_cavitation_energy": 32.95, 
			 "cosmo_dispersion_energy": -24.57, 
			 "cosmo_repulsion_energy": 1.87, 
			 "cosmo_total_nonelectrostatic_energy": 10.25, 
			 "SMD_solvation_energy": 4.06 
		},
		"coords": [
			{
				"x": 2.5903575608,
				"y": 0.151510488,
				"z": 4.8572739367,
				"element": "C" 
			},
			{
				"x": 1.635875199,
				"y": 0.819201464,
				"z": 4.2105068066,
				"element": "C" 
			},
			{
				"x": 0.6057419768,
				"y": 0.171160352,
				"z": 3.3268591675,
				"element": "C" 
			},
			{
				"x": 0.6475700574,
				"y": 0.749835545,
				"z": 1.9881687831,
				"element": "N" 
			},
			{
				"x": -0.3196185709,
				"y": 0.5154071588,
				"z": 1.0462797691,
				"element": "C" 
			},
			{
				"x": -0.1494082389,
				"y": 0.7238284818,
				"z": -0.2272430475,
				"element": "N" 
			},
			{
				"x": -1.3072080926,
				"y": 0.4618120595,
				"z": -0.9454413841,
				"element": "C" 
			},
			{
				"x": -2.3710841294,
				"y": 0.0371147543,
				"z": -0.1955575245,
				"element": "C" 
			},
			{
				"x": -1.9391848429,
				"y": -0.0529800879,
				"z": 1.4924461885,
				"element": "S" 
			},
			{
				"x": -1.2919693912,
				"y": 0.6562538183,
				"z": -2.4093116834,
				"element": "C" 
			},
			{
				"x": -2.4064133018,
				"y": 0.3542276694,
				"z": -3.2108711916,
				"element": "C" 
			},
			{
				"x": -2.3678282361,
				"y": 0.5504418752,
				"z": -4.5888170846,
				"element": "C" 
			},
			{
				"x": -1.2141574885,
				"y": 1.0513139184,
				"z": -5.1979669051,
				"element": "C" 
			},
			{
				"x": -0.1006246673,
				"y": 1.3525876468,
				"z": -4.4123845522,
				"element": "C" 
			},
			{
				"x": -0.1372385928,
				"y": 1.1575819135,
				"z": -3.0325566755,
				"element": "C" 
			},
			{
				"x": 3.3047723066,
				"y": 0.6577583187,
				"z": 5.4992080336,
				"element": "H" 
			},
			{
				"x": 2.6873761624,
				"y": -0.9285329361,
				"z": 4.7746725024,
				"element": "H" 
			},
			{
				"x": 1.5622904531,
				"y": 1.9020031951,
				"z": 4.3022260454,
				"element": "H" 
			},
			{
				"x": -0.3944924636,
				"y": 0.3629642126,
				"z": 3.7393896914,
				"element": "H" 
			},
			{
				"x": 0.7453884266,
				"y": -0.9213038323,
				"z": 3.3144793476,
				"element": "H" 
			},
			{
				"x": 1.5671113948,
				"y": 0.8604103923,
				"z": 1.5787568452,
				"element": "H" 
			},
			{
				"x": -3.3686974069,
				"y": -0.2285467217,
				"z": -0.509599724,
				"element": "H" 
			},
			{
				"x": -3.3111098925,
				"y": -0.0405315847,
				"z": -2.7582567696,
				"element": "H" 
			},
			{
				"x": -3.2404995426,
				"y": 0.3099795059,
				"z": -5.189698574,
				"element": "H" 
			},
			{
				"x": -1.1852722002,
				"y": 1.2033074417,
				"z": -6.2731297085,
				"element": "H" 
			},
			{
				"x": 0.8021630047,
				"y": 1.7420864642,
				"z": -4.8749523165,
				"element": "H" 
			},
			{
				"x": 0.7237605158,
				"y": 1.3895084872,
				"z": -2.416279976,
				"element": "H" 
			}
		],
		 "valence_orbital": [ 
			{
				"type": "occ",
				"energy": -0.27908,
				"method": "rhf"
			},
			{
				"type": "occ",
				"energy": -0.2681,
				"method": "rhf"
			},
			{
				"type": "occ",
				"energy": -0.24328,
				"method": "rhf"
			},
			{
				"type": "occ",
				"energy": -0.23708,
				"method": "rhf"
			},
			{
				"type": "occ",
				"energy": -0.19447,
				"method": "rhf"
			},
			{
				"type": "unocc",
				"energy": -0.02414,
				"method": "rhf"
			},
			{
				"type": "unocc",
				"energy": -0.00416,
				"method": "rhf"
			},
			{
				"type": "unocc",
				"energy": 0.00681,
				"method": "rhf"
			},
			{
				"type": "unocc",
				"energy": 0.02091,
				"method": "rhf"
			},
			{
				"type": "unocc",
				"energy": 0.0224,
				"method": "rhf"
			}
		],
		"cosmo_sigma_profile": { 
			"-0.025": 0.0,
			"-0.024": 0.0,
			"-0.023": 0.0,
			"-0.022": 0.0,
			"-0.021": 0.0,
			"-0.02": 0.0,
			"-0.019": 0.0,
			"-0.018": 0.0,
			"-0.017": 0.0,
			"-0.016": 0.0,
			"-0.015": 0.0,
			"-0.014": 0.179163021907,
			"-0.013": 0.651294638665,
			"-0.012": 0.828237842582,
			"-0.011": 1.18877226658,
			"-0.01": 0.433744032085,
			"-0.009": 1.6803866938,
			"-0.008": 3.28942695374,
			"-0.007": 3.95058513246,
			"-0.006": 8.93501580698,
			"-0.005": 20.9788062782,
			"-0.004": 22.9828587013,
			"-0.003": 24.88107219,
			"-0.002": 18.4107126937,
			"-0.001": 16.6429076841,
			"0.0": 15.9952762376,
			"0.001": 16.2110296105,
			"0.002": 19.3595925694,
			"0.003": 20.2343056259,
			"0.004": 26.6635498498,
			"0.005": 20.2569771862,
			"0.006": 12.1564095418,
			"0.007": 2.5831598091,
			"0.008": 2.04704927266,
			"0.009": 1.69283516916,
			"0.01": 1.64891586781,
			"0.011": 1.65088723111,
			"0.012": 0.158197084814,
			"0.013": 0.0,
			"0.014": 0.0,
			"0.015": 0.0,
			"0.016": 0.0,
			"0.017": 0.0,
			"0.018": 0.0,
			"0.019": 0.0,
			"0.02": 0.0,
			"0.021": 0.0,
			"0.022": 0.0,
			"0.023": 0.0,
			"0.024": 0.0,
			"0.025": 0.0
		}
	}
}
