{
	 "smiles": "CCOC1=CC=CC=C1", 
	 "Tm": 243.35, 
	 "num_atms": 19, 
	 "gaussian": { 
		 "optdone": 1, 
		 "sigma_profile": "yes", 
		 "theory": "DFT", 
		 "functional": "B3LYP", 
		 "basiset": "6-31G**", 
		 "properties": { 
			 "R2extent": 1833.0838, 
			 "electric_dipole_moment_norm": 1.33270058903, 
			 "electric_quadrupole_moment_norm": 6.64827685344, 
			 "total_energy": -386.097925486, 
			 "HOMO_LUMO_gap": 0.21814, 
			 "cosmo_polarized_energy": -5.01, 
			 "cosmo_cavitation_energy": 22.13, 
			 "cosmo_dispersion_energy": -16.62, 
			 "cosmo_repulsion_energy": 1.38, 
			 "cosmo_total_nonelectrostatic_energy": 6.9, 
			 "SMD_solvation_energy": 4.22 
		},
		"coords": [
			{
				"x": 2.5227965255,
				"y": -3.8700420903,
				"z": -0.1950660611,
				"element": "C" 
			},
			{
				"x": 2.2582337765,
				"y": -2.3905852125,
				"z": -0.415211274,
				"element": "C" 
			},
			{
				"x": 1.2609726399,
				"y": -1.9882723674,
				"z": 0.5209684099,
				"element": "O" 
			},
			{
				"x": 0.8470006406,
				"y": -0.6868139403,
				"z": 0.5223934542,
				"element": "C" 
			},
			{
				"x": 1.3331909091,
				"y": 0.3043065341,
				"z": -0.3394282219,
				"element": "C" 
			},
			{
				"x": 0.8310345885,
				"y": 1.6065131685,
				"z": -0.2433030579,
				"element": "C" 
			},
			{
				"x": -0.144517887,
				"y": 1.9316358827,
				"z": 0.6961183485,
				"element": "C" 
			},
			{
				"x": -0.6246485616,
				"y": 0.9349433216,
				"z": 1.5533390734,
				"element": "C" 
			},
			{
				"x": -0.1361028375,
				"y": -0.3639282405,
				"z": 1.4707040168,
				"element": "C" 
			},
			{
				"x": 3.28562313,
				"y": -4.2249137007,
				"z": -0.8949456076,
				"element": "H" 
			},
			{
				"x": 1.6101356175,
				"y": -4.4518559343,
				"z": -0.3514567081,
				"element": "H" 
			},
			{
				"x": 2.8754313372,
				"y": -4.050650178,
				"z": 0.8242197922,
				"element": "H" 
			},
			{
				"x": 3.1748922109,
				"y": -1.8026420588,
				"z": -0.2634208959,
				"element": "H" 
			},
			{
				"x": 1.9077469119,
				"y": -2.2044354733,
				"z": -1.4406328743,
				"element": "H" 
			},
			{
				"x": 2.0919115868,
				"y": 0.0774973983,
				"z": -1.0788889295,
				"element": "H" 
			},
			{
				"x": 1.214003169,
				"y": 2.3691632114,
				"z": -0.9159904702,
				"element": "H" 
			},
			{
				"x": -0.5276096135,
				"y": 2.945186001,
				"z": 0.7625982092,
				"element": "H" 
			},
			{
				"x": -1.3856185296,
				"y": 1.171860733,
				"z": 2.2918169613,
				"element": "H" 
			},
			{
				"x": -0.4969756142,
				"y": -1.1490670544,
				"z": 2.127285835,
				"element": "H" 
			}
		],
		 "valence_orbital": [ 
			{
				"type": "occ",
				"energy": -0.34933,
				"method": "rhf"
			},
			{
				"type": "occ",
				"energy": -0.31927,
				"method": "rhf"
			},
			{
				"type": "occ",
				"energy": -0.31093,
				"method": "rhf"
			},
			{
				"type": "occ",
				"energy": -0.24532,
				"method": "rhf"
			},
			{
				"type": "occ",
				"energy": -0.21404,
				"method": "rhf"
			},
			{
				"type": "unocc",
				"energy": 0.0041,
				"method": "rhf"
			},
			{
				"type": "unocc",
				"energy": 0.01849,
				"method": "rhf"
			},
			{
				"type": "unocc",
				"energy": 0.09479,
				"method": "rhf"
			},
			{
				"type": "unocc",
				"energy": 0.10044,
				"method": "rhf"
			},
			{
				"type": "unocc",
				"energy": 0.13092,
				"method": "rhf"
			}
		],
		"cosmo_sigma_profile": { 
			"-0.025": 0.0,
			"-0.024": 0.0,
			"-0.023": 0.0,
			"-0.022": 0.0,
			"-0.021": 0.0,
			"-0.02": 0.0,
			"-0.019": 0.0,
			"-0.018": 0.0,
			"-0.017": 0.0,
			"-0.016": 0.0,
			"-0.015": 0.0,
			"-0.014": 0.0,
			"-0.013": 0.0,
			"-0.012": 0.0,
			"-0.011": 0.0,
			"-0.01": 0.0,
			"-0.009": 0.0,
			"-0.008": 0.0,
			"-0.007": 0.0283120712016,
			"-0.006": 3.79045610074,
			"-0.005": 13.1771945057,
			"-0.004": 21.3576759258,
			"-0.003": 22.6435631888,
			"-0.002": 16.5892273711,
			"-0.001": 14.6374082505,
			"0.0": 13.5174239814,
			"0.001": 11.0006769605,
			"0.002": 7.6871589856,
			"0.003": 8.96510063029,
			"0.004": 11.0944824439,
			"0.005": 11.3865129593,
			"0.006": 10.9268179582,
			"0.007": 3.55476429009,
			"0.008": 1.52383264845,
			"0.009": 1.59030808435,
			"0.01": 1.46185477303,
			"0.011": 0.298675539047,
			"0.012": 0.0,
			"0.013": 0.0,
			"0.014": 0.0,
			"0.015": 0.0,
			"0.016": 0.0,
			"0.017": 0.0,
			"0.018": 0.0,
			"0.019": 0.0,
			"0.02": 0.0,
			"0.021": 0.0,
			"0.022": 0.0,
			"0.023": 0.0,
			"0.024": 0.0,
			"0.025": 0.0
		}
	}
}
