{
	 "smiles": "O=C1CN(CCCN1)C1=CC=CC=C1", 
	 "Tm": 465.15, 
	 "num_atms": 28, 
	 "gaussian": { 
		 "optdone": 1, 
		 "sigma_profile": "yes", 
		 "theory": "DFT", 
		 "functional": "B3LYP", 
		 "basiset": "6-31G**", 
		 "properties": { 
			 "R2extent": 3218.4539, 
			 "electric_dipole_moment_norm": 4.32055890482, 
			 "electric_quadrupole_moment_norm": 15.8666518223, 
			 "total_energy": -612.337436396, 
			 "HOMO_LUMO_gap": 0.1947, 
			 "cosmo_polarized_energy": -13.69, 
			 "cosmo_cavitation_energy": 29.32, 
			 "cosmo_dispersion_energy": -21.62, 
			 "cosmo_repulsion_energy": 1.69, 
			 "cosmo_total_nonelectrostatic_energy": 9.39, 
			 "SMD_solvation_energy": 4.23 
		},
		"coords": [
			{
				"x": 0.1364476191,
				"y": 3.8805188912,
				"z": 0.6369816897,
				"element": "O" 
			},
			{
				"x": 0.7407705573,
				"y": 2.9337467184,
				"z": 0.1456192459,
				"element": "C" 
			},
			{
				"x": 1.4198844507,
				"y": 1.8875625499,
				"z": 1.0441384915,
				"element": "C" 
			},
			{
				"x": 1.3016968639,
				"y": 0.5101571939,
				"z": 0.6105765944,
				"element": "N" 
			},
			{
				"x": 2.3204615724,
				"y": 0.00976776,
				"z": -0.2971218085,
				"element": "C" 
			},
			{
				"x": 2.6738314362,
				"y": 1.0418628488,
				"z": -1.3830363545,
				"element": "C" 
			},
			{
				"x": 1.4343039862,
				"y": 1.7016359717,
				"z": -2.002241837,
				"element": "C" 
			},
			{
				"x": 0.8761296139,
				"y": 2.7984265254,
				"z": -1.2099306581,
				"element": "N" 
			},
			{
				"x": 0.2724009949,
				"y": -0.3017462834,
				"z": 1.0977790041,
				"element": "C" 
			},
			{
				"x": -0.9094098614,
				"y": 0.2678556253,
				"z": 1.6204471996,
				"element": "C" 
			},
			{
				"x": -1.9320953232,
				"y": -0.542849372,
				"z": 2.1070878536,
				"element": "C" 
			},
			{
				"x": -1.8246006581,
				"y": -1.934567083,
				"z": 2.0805668712,
				"element": "C" 
			},
			{
				"x": -0.6610316638,
				"y": -2.5047028901,
				"z": 1.5637765417,
				"element": "C" 
			},
			{
				"x": 0.3790224662,
				"y": -1.7083480481,
				"z": 1.0871953976,
				"element": "C" 
			},
			{
				"x": 0.9866744954,
				"y": 2.0161739537,
				"z": 2.0370283298,
				"element": "H" 
			},
			{
				"x": 2.4823366383,
				"y": 2.1519473915,
				"z": 1.1324759363,
				"element": "H" 
			},
			{
				"x": 3.239322745,
				"y": -0.2979732271,
				"z": 0.2305884911,
				"element": "H" 
			},
			{
				"x": 1.9207966309,
				"y": -0.8804455276,
				"z": -0.7904587929,
				"element": "H" 
			},
			{
				"x": 3.3399673843,
				"y": 1.8213229096,
				"z": -0.9969073827,
				"element": "H" 
			},
			{
				"x": 3.2326843842,
				"y": 0.5251876973,
				"z": -2.1718547143,
				"element": "H" 
			},
			{
				"x": 1.7097427214,
				"y": 2.1331745371,
				"z": -2.9699900408,
				"element": "H" 
			},
			{
				"x": 0.6723870898,
				"y": 0.9326574706,
				"z": -2.1985153933,
				"element": "H" 
			},
			{
				"x": 0.3621277981,
				"y": 3.5088496119,
				"z": -1.7150754287,
				"element": "H" 
			},
			{
				"x": -1.0423838582,
				"y": 1.3443608066,
				"z": 1.6218369648,
				"element": "H" 
			},
			{
				"x": -2.8307892469,
				"y": -0.0738261229,
				"z": 2.4986719999,
				"element": "H" 
			},
			{
				"x": -2.628607363,
				"y": -2.55980371,
				"z": 2.4558125211,
				"element": "H" 
			},
			{
				"x": -0.5463696789,
				"y": -3.5853591132,
				"z": 1.5445050988,
				"element": "H" 
			},
			{
				"x": 1.2875982054,
				"y": -2.1848870856,
				"z": 0.7360441797,
				"element": "H" 
			}
		],
		 "valence_orbital": [ 
			{
				"type": "occ",
				"energy": -0.28661,
				"method": "rhf"
			},
			{
				"type": "occ",
				"energy": -0.25103,
				"method": "rhf"
			},
			{
				"type": "occ",
				"energy": -0.2448,
				"method": "rhf"
			},
			{
				"type": "occ",
				"energy": -0.24101,
				"method": "rhf"
			},
			{
				"type": "occ",
				"energy": -0.18884,
				"method": "rhf"
			},
			{
				"type": "unocc",
				"energy": 0.00586,
				"method": "rhf"
			},
			{
				"type": "unocc",
				"energy": 0.02039,
				"method": "rhf"
			},
			{
				"type": "unocc",
				"energy": 0.025,
				"method": "rhf"
			},
			{
				"type": "unocc",
				"energy": 0.07125,
				"method": "rhf"
			},
			{
				"type": "unocc",
				"energy": 0.09241,
				"method": "rhf"
			}
		],
		"cosmo_sigma_profile": { 
			"-0.025": 0.0,
			"-0.024": 0.0,
			"-0.023": 0.0,
			"-0.022": 0.0,
			"-0.021": 0.0,
			"-0.02": 0.0,
			"-0.019": 0.0,
			"-0.018": 0.0,
			"-0.017": 0.0,
			"-0.016": 0.0,
			"-0.015": 0.0,
			"-0.014": 0.0604953472111,
			"-0.013": 0.981462716688,
			"-0.012": 1.14298679942,
			"-0.011": 1.02465258797,
			"-0.01": 1.35265894891,
			"-0.009": 1.04494778875,
			"-0.008": 0.822570800187,
			"-0.007": 3.05941295801,
			"-0.006": 7.06428331497,
			"-0.005": 17.9485797219,
			"-0.004": 28.7764966993,
			"-0.003": 29.8660872969,
			"-0.002": 23.9689519162,
			"-0.001": 16.3648401637,
			"0.0": 11.7745591436,
			"0.001": 9.11736301185,
			"0.002": 11.5747704039,
			"0.003": 9.12815946913,
			"0.004": 10.1106317695,
			"0.005": 8.84294013626,
			"0.006": 8.67724561659,
			"0.007": 8.93162466768,
			"0.008": 3.40529242333,
			"0.009": 0.845730675927,
			"0.01": 1.68561201194,
			"0.011": 1.12715638299,
			"0.012": 1.27564535189,
			"0.013": 2.68754092883,
			"0.014": 5.60709634544,
			"0.015": 2.53400777207,
			"0.016": 0.0581947879648,
			"0.017": 0.0,
			"0.018": 0.0,
			"0.019": 0.0,
			"0.02": 0.0,
			"0.021": 0.0,
			"0.022": 0.0,
			"0.023": 0.0,
			"0.024": 0.0,
			"0.025": 0.0
		}
	}
}
