{
	 "smiles": "CN1COCC2=C1C=CC1=C2N=C2C(C=CC(N)=C2CO)=C1", 
	 "Tm": 508.15, 
	 "num_atms": 39, 
	 "gaussian": { 
		 "optdone": 1, 
		 "sigma_profile": "yes", 
		 "theory": "DFT", 
		 "functional": "B3LYP", 
		 "basiset": "6-31G**", 
		 "properties": { 
			 "R2extent": 8143.166, 
			 "electric_dipole_moment_norm": 1.53621598416, 
			 "electric_quadrupole_moment_norm": 20.8332986879, 
			 "total_energy": -972.753870505, 
			 "HOMO_LUMO_gap": 0.12231, 
			 "cosmo_polarized_energy": -18.2, 
			 "cosmo_cavitation_energy": 40.23, 
			 "cosmo_dispersion_energy": -29.93, 
			 "cosmo_repulsion_energy": 2.23, 
			 "cosmo_total_nonelectrostatic_energy": 12.53, 
			 "SMD_solvation_energy": 4.41 
		},
		"coords": [
			{
				"x": 2.9730920891,
				"y": -4.8289497342,
				"z": 2.4135470531,
				"element": "C" 
			},
			{
				"x": 2.5033197092,
				"y": -3.9467526813,
				"z": 1.3629180233,
				"element": "N" 
			},
			{
				"x": 3.463271109,
				"y": -3.5679515814,
				"z": 0.3325606165,
				"element": "C" 
			},
			{
				"x": 2.8079671242,
				"y": -3.1710056361,
				"z": -0.8378802992,
				"element": "O" 
			},
			{
				"x": 2.0472242177,
				"y": -1.9775051609,
				"z": -0.6401502223,
				"element": "C" 
			},
			{
				"x": 1.2682942755,
				"y": -2.0103006798,
				"z": 0.6526031479,
				"element": "C" 
			},
			{
				"x": 1.5069699689,
				"y": -3.0041554331,
				"z": 1.5998565124,
				"element": "C" 
			},
			{
				"x": 0.7225552494,
				"y": -3.0435578559,
				"z": 2.8018102691,
				"element": "C" 
			},
			{
				"x": -0.2485667135,
				"y": -2.1093184221,
				"z": 3.035270367,
				"element": "C" 
			},
			{
				"x": -0.5070156007,
				"y": -1.0686734538,
				"z": 2.0984082277,
				"element": "C" 
			},
			{
				"x": 0.2678409658,
				"y": -1.0210536379,
				"z": 0.8818515714,
				"element": "C" 
			},
			{
				"x": 0.0842386924,
				"y": -0.0730136644,
				"z": -0.0575979241,
				"element": "N" 
			},
			{
				"x": -0.8474864445,
				"y": 0.8813441981,
				"z": 0.1335479491,
				"element": "C" 
			},
			{
				"x": -1.6730851909,
				"y": 0.9109634449,
				"z": 1.3236033087,
				"element": "C" 
			},
			{
				"x": -2.6527725662,
				"y": 1.9372584648,
				"z": 1.4628775206,
				"element": "C" 
			},
			{
				"x": -2.8121507173,
				"y": 2.8848451954,
				"z": 0.4941319907,
				"element": "C" 
			},
			{
				"x": -2.0012243844,
				"y": 2.8733864465,
				"z": -0.6884469853,
				"element": "C" 
			},
			{
				"x": -2.2279122791,
				"y": 3.8320641583,
				"z": -1.6617787704,
				"element": "N" 
			},
			{
				"x": -1.0347719735,
				"y": 1.8858378575,
				"z": -0.8704928636,
				"element": "C" 
			},
			{
				"x": -0.2268391504,
				"y": 1.8396842252,
				"z": -2.1392584415,
				"element": "C" 
			},
			{
				"x": 0.3751330004,
				"y": 3.1305883671,
				"z": -2.385706169,
				"element": "O" 
			},
			{
				"x": -1.4752228528,
				"y": -0.0805454397,
				"z": 2.2852934764,
				"element": "C" 
			},
			{
				"x": 2.1549591425,
				"y": -5.4424256947,
				"z": 2.8029276725,
				"element": "H" 
			},
			{
				"x": 3.7154690813,
				"y": -5.5103636246,
				"z": 1.9895774508,
				"element": "H" 
			},
			{
				"x": 3.4393152349,
				"y": -4.2996942238,
				"z": 3.2604012218,
				"element": "H" 
			},
			{
				"x": 4.126147078,
				"y": -2.7573477674,
				"z": 0.6962394391,
				"element": "H" 
			},
			{
				"x": 4.0738354397,
				"y": -4.4408256641,
				"z": 0.0852660736,
				"element": "H" 
			},
			{
				"x": 1.3674203198,
				"y": -1.9065133649,
				"z": -1.4930052212,
				"element": "H" 
			},
			{
				"x": 2.7032508724,
				"y": -1.0925537415,
				"z": -0.6800814024,
				"element": "H" 
			},
			{
				"x": 0.9068162354,
				"y": -3.8169413944,
				"z": 3.5376333002,
				"element": "H" 
			},
			{
				"x": -0.8319591723,
				"y": -2.1477492738,
				"z": 3.9519080263,
				"element": "H" 
			},
			{
				"x": -3.2712190759,
				"y": 1.9539929238,
				"z": 2.3569329947,
				"element": "H" 
			},
			{
				"x": -3.5610545446,
				"y": 3.6655205764,
				"z": 0.6036205417,
				"element": "H" 
			},
			{
				"x": -1.4095302915,
				"y": 4.0390072399,
				"z": -2.2256427086,
				"element": "H" 
			},
			{
				"x": -2.7382567039,
				"y": 4.6490511223,
				"z": -1.3584141175,
				"element": "H" 
			},
			{
				"x": 0.5384783196,
				"y": 1.0658232799,
				"z": -2.0422919682,
				"element": "H" 
			},
			{
				"x": -0.8839820904,
				"y": 1.5770289847,
				"z": -2.9851919439,
				"element": "H" 
			},
			{
				"x": 0.8459246416,
				"y": 3.0691730635,
				"z": -3.2266962284,
				"element": "H" 
			},
			{
				"x": -2.0831730149,
				"y": -0.0832714182,
				"z": 3.188548511,
				"element": "H" 
			}
		],
		 "valence_orbital": [ 
			{
				"type": "occ",
				"energy": -0.24111,
				"method": "rhf"
			},
			{
				"type": "occ",
				"energy": -0.23745,
				"method": "rhf"
			},
			{
				"type": "occ",
				"energy": -0.23259,
				"method": "rhf"
			},
			{
				"type": "occ",
				"energy": -0.19032,
				"method": "rhf"
			},
			{
				"type": "occ",
				"energy": -0.17939,
				"method": "rhf"
			},
			{
				"type": "unocc",
				"energy": -0.05708,
				"method": "rhf"
			},
			{
				"type": "unocc",
				"energy": -0.00019,
				"method": "rhf"
			},
			{
				"type": "unocc",
				"energy": 0.01485,
				"method": "rhf"
			},
			{
				"type": "unocc",
				"energy": 0.04138,
				"method": "rhf"
			},
			{
				"type": "unocc",
				"energy": 0.06869,
				"method": "rhf"
			}
		],
		"cosmo_sigma_profile": { 
			"-0.025": 0.0,
			"-0.024": 0.0,
			"-0.023": 0.0,
			"-0.022": 0.0,
			"-0.021": 0.0,
			"-0.02": 0.0,
			"-0.019": 0.0,
			"-0.018": 0.0,
			"-0.017": 0.0,
			"-0.016": 0.495272870868,
			"-0.015": 1.03404001626,
			"-0.014": 1.32517622345,
			"-0.013": 1.22465239019,
			"-0.012": 2.10309851027,
			"-0.011": 2.71485624152,
			"-0.01": 1.52318441006,
			"-0.009": 2.34205990461,
			"-0.008": 3.49593239524,
			"-0.007": 9.73403473721,
			"-0.006": 18.9265665387,
			"-0.005": 16.779070479,
			"-0.004": 26.9309152063,
			"-0.003": 29.2081609546,
			"-0.002": 24.1062603006,
			"-0.001": 15.8095891637,
			"0.0": 14.2537314318,
			"0.001": 14.9355136656,
			"0.002": 16.0037212447,
			"0.003": 26.4954373505,
			"0.004": 29.8495173862,
			"0.005": 17.7075925115,
			"0.006": 8.55283549022,
			"0.007": 7.52577159956,
			"0.008": 5.96115839612,
			"0.009": 5.04607319486,
			"0.01": 4.41802033276,
			"0.011": 3.35071490542,
			"0.012": 2.52188157111,
			"0.013": 3.4903287181,
			"0.014": 0.774306857243,
			"0.015": 0.0713867367395,
			"0.016": 0.0,
			"0.017": 0.0,
			"0.018": 0.0,
			"0.019": 0.0,
			"0.02": 0.0,
			"0.021": 0.0,
			"0.022": 0.0,
			"0.023": 0.0,
			"0.024": 0.0,
			"0.025": 0.0
		}
	}
}
