{
	 "smiles": "CCN(CC)S(=O)(=O)C1=CC(=CC=C1)C(O)=O", 
	 "Tm": 438.15, 
	 "num_atms": 32, 
	 "gaussian": { 
		 "optdone": 1, 
		 "sigma_profile": "yes", 
		 "theory": "DFT", 
		 "functional": "B3LYP", 
		 "basiset": "6-31G**", 
		 "properties": { 
			 "R2extent": 5296.8492, 
			 "electric_dipole_moment_norm": 6.05117478594, 
			 "electric_quadrupole_moment_norm": 23.9438901764, 
			 "total_energy": -1181.98339911, 
			 "HOMO_LUMO_gap": 0.18239, 
			 "cosmo_polarized_energy": -22.68, 
			 "cosmo_cavitation_energy": 36.78, 
			 "cosmo_dispersion_energy": -25.29, 
			 "cosmo_repulsion_energy": 1.93, 
			 "cosmo_total_nonelectrostatic_energy": 13.42, 
			 "SMD_solvation_energy": 6.52 
		},
		"coords": [
			{
				"x": 1.9879161006,
				"y": -2.0845174368,
				"z": 2.0505167363,
				"element": "C" 
			},
			{
				"x": 0.6131330649,
				"y": -1.4773384038,
				"z": 2.3254223346,
				"element": "C" 
			},
			{
				"x": -0.376422263,
				"y": -1.8884675925,
				"z": 1.3068086663,
				"element": "N" 
			},
			{
				"x": -0.8258396293,
				"y": -3.3063327312,
				"z": 1.3543808342,
				"element": "C" 
			},
			{
				"x": -0.5547820499,
				"y": -4.0470508838,
				"z": 0.0476396225,
				"element": "C" 
			},
			{
				"x": -1.6048058078,
				"y": -0.7608923276,
				"z": 1.0169433522,
				"element": "S" 
			},
			{
				"x": -2.5846336883,
				"y": -1.437900692,
				"z": 0.1603877578,
				"element": "O" 
			},
			{
				"x": -2.0313522934,
				"y": -0.0882206121,
				"z": 2.2508261583,
				"element": "O" 
			},
			{
				"x": -0.742123202,
				"y": 0.4685223127,
				"z": 0.0199762741,
				"element": "C" 
			},
			{
				"x": -0.5000200059,
				"y": 1.7301253441,
				"z": 0.5504552272,
				"element": "C" 
			},
			{
				"x": 0.1263364186,
				"y": 2.7003693138,
				"z": -0.2454139397,
				"element": "C" 
			},
			{
				"x": 0.5157950278,
				"y": 2.3755599643,
				"z": -1.5508211972,
				"element": "C" 
			},
			{
				"x": 0.2683017709,
				"y": 1.1019558255,
				"z": -2.0695704238,
				"element": "C" 
			},
			{
				"x": -0.3703810802,
				"y": 0.1424377543,
				"z": -1.2886246794,
				"element": "C" 
			},
			{
				"x": 0.3913396936,
				"y": 4.0416408406,
				"z": 0.376349777,
				"element": "C" 
			},
			{
				"x": 0.5491642813,
				"y": 5.0886560071,
				"z": -0.4759633442,
				"element": "O" 
			},
			{
				"x": 0.4734887285,
				"y": 4.2092480101,
				"z": 1.5689305213,
				"element": "O" 
			},
			{
				"x": 1.966809145,
				"y": -3.1782051443,
				"z": 2.0827754447,
				"element": "H" 
			},
			{
				"x": 2.7008666366,
				"y": -1.745346874,
				"z": 2.8087668959,
				"element": "H" 
			},
			{
				"x": 2.3550735041,
				"y": -1.7795387563,
				"z": 1.0663877378,
				"element": "H" 
			},
			{
				"x": 0.2608659831,
				"y": -1.7418560855,
				"z": 3.3321573745,
				"element": "H" 
			},
			{
				"x": 0.6922501131,
				"y": -0.3873673887,
				"z": 2.3003580779,
				"element": "H" 
			},
			{
				"x": -0.2868838081,
				"y": -3.777808014,
				"z": 2.1821872669,
				"element": "H" 
			},
			{
				"x": -1.89017319,
				"y": -3.361600695,
				"z": 1.6001024523,
				"element": "H" 
			},
			{
				"x": 0.5072474487,
				"y": -4.0099648496,
				"z": -0.2134887838,
				"element": "H" 
			},
			{
				"x": -0.8514776339,
				"y": -5.0976796382,
				"z": 0.1395284193,
				"element": "H" 
			},
			{
				"x": -1.1318547173,
				"y": -3.6017244917,
				"z": -0.7665292363,
				"element": "H" 
			},
			{
				"x": -0.7982753535,
				"y": 1.972618572,
				"z": 1.5641375362,
				"element": "H" 
			},
			{
				"x": 1.0470063986,
				"y": 3.099018291,
				"z": -2.1642821942,
				"element": "H" 
			},
			{
				"x": 0.5771567513,
				"y": 0.8597806684,
				"z": -3.0815215299,
				"element": "H" 
			},
			{
				"x": -0.5813312931,
				"y": -0.846180116,
				"z": -1.6812374634,
				"element": "H" 
			},
			{
				"x": 0.2778049491,
				"y": 4.8395598295,
				"z": -1.3702856754,
				"element": "H" 
			}
		],
		 "valence_orbital": [ 
			{
				"type": "occ",
				"energy": -0.30212,
				"method": "rhf"
			},
			{
				"type": "occ",
				"energy": -0.29322,
				"method": "rhf"
			},
			{
				"type": "occ",
				"energy": -0.29144,
				"method": "rhf"
			},
			{
				"type": "occ",
				"energy": -0.27856,
				"method": "rhf"
			},
			{
				"type": "occ",
				"energy": -0.25224,
				"method": "rhf"
			},
			{
				"type": "unocc",
				"energy": -0.06985,
				"method": "rhf"
			},
			{
				"type": "unocc",
				"energy": -0.04853,
				"method": "rhf"
			},
			{
				"type": "unocc",
				"energy": 0.02288,
				"method": "rhf"
			},
			{
				"type": "unocc",
				"energy": 0.04719,
				"method": "rhf"
			},
			{
				"type": "unocc",
				"energy": 0.05927,
				"method": "rhf"
			}
		],
		"cosmo_sigma_profile": { 
			"-0.025": 0.0,
			"-0.024": 0.0,
			"-0.023": 0.0,
			"-0.022": 0.0,
			"-0.021": 0.0,
			"-0.02": 0.0966139030366,
			"-0.019": 0.624288589552,
			"-0.018": 1.27374876174,
			"-0.017": 0.992703761209,
			"-0.016": 0.966007704537,
			"-0.015": 0.652526230695,
			"-0.014": 0.977354419091,
			"-0.013": 1.56383634404,
			"-0.012": 1.08647114948,
			"-0.011": 1.33635312703,
			"-0.01": 0.990019494329,
			"-0.009": 1.96146773312,
			"-0.008": 4.91665461778,
			"-0.007": 7.08123148596,
			"-0.006": 8.09006355061,
			"-0.005": 15.2047336021,
			"-0.004": 23.9685682799,
			"-0.003": 29.7687399944,
			"-0.002": 28.185591592,
			"-0.001": 25.1530319191,
			"0.0": 28.5448584963,
			"0.001": 24.2112912645,
			"0.002": 9.59455326219,
			"0.003": 5.9353465699,
			"0.004": 4.90767147153,
			"0.005": 7.42775312125,
			"0.006": 5.14737525436,
			"0.007": 4.53239744282,
			"0.008": 6.69945118643,
			"0.009": 7.43420434587,
			"0.01": 10.832836719,
			"0.011": 13.4489459959,
			"0.012": 6.64648286305,
			"0.013": 0.628616000075,
			"0.014": 0.0,
			"0.015": 0.0,
			"0.016": 0.0,
			"0.017": 0.0,
			"0.018": 0.0,
			"0.019": 0.0,
			"0.02": 0.0,
			"0.021": 0.0,
			"0.022": 0.0,
			"0.023": 0.0,
			"0.024": 0.0,
			"0.0": 0.0
		}
	}
}
