{
	 "smiles": "CC1=NN(C(C)=C1N)C(C)(C)C", 
	 "Tm": 328.15, 
	 "num_atms": 29, 
	 "gaussian": { 
		 "optdone": 1, 
		 "sigma_profile": "yes", 
		 "theory": "DFT", 
		 "functional": "B3LYP", 
		 "basiset": "6-31G**", 
		 "properties": { 
			 "R2extent": 2415.8116, 
			 "electric_dipole_moment_norm": 1.11165040368, 
			 "electric_quadrupole_moment_norm": 9.30462065052, 
			 "total_energy": -517.457426734, 
			 "HOMO_LUMO_gap": 0.23867, 
			 "cosmo_polarized_energy": -9.43, 
			 "cosmo_cavitation_energy": 29.77, 
			 "cosmo_dispersion_energy": -21.01, 
			 "cosmo_repulsion_energy": 1.69, 
			 "cosmo_total_nonelectrostatic_energy": 10.45, 
			 "SMD_solvation_energy": 4.78 
		},
		"coords": [
			{
				"x": 0.2893424599,
				"y": 3.0036183943,
				"z": -0.11699495,
				"element": "C" 
			},
			{
				"x": -0.1806756553,
				"y": 1.5961284635,
				"z": 0.0904121088,
				"element": "C" 
			},
			{
				"x": -0.1546462526,
				"y": 0.7132232857,
				"z": -0.9046990198,
				"element": "N" 
			},
			{
				"x": -0.6548994824,
				"y": -0.4452025328,
				"z": -0.3967488155,
				"element": "N" 
			},
			{
				"x": -0.9625260572,
				"y": -0.318962507,
				"z": 0.9364941493,
				"element": "C" 
			},
			{
				"x": -1.4892362647,
				"y": -1.3633407306,
				"z": 1.8690688093,
				"element": "C" 
			},
			{
				"x": -0.6806893016,
				"y": 0.999299529,
				"z": 1.273320051,
				"element": "C" 
			},
			{
				"x": -0.861604319,
				"y": 1.5583503041,
				"z": 2.5710728482,
				"element": "N" 
			},
			{
				"x": -0.6601796173,
				"y": -1.6542337575,
				"z": -1.2677558971,
				"element": "C" 
			},
			{
				"x": -2.003857809,
				"y": -2.3960214774,
				"z": -1.1380290626,
				"element": "C" 
			},
			{
				"x": 0.5159301819,
				"y": -2.5672644597,
				"z": -0.8673251495,
				"element": "C" 
			},
			{
				"x": -0.4871159047,
				"y": -1.2134555425,
				"z": -2.7310335047,
				"element": "C" 
			},
			{
				"x": -0.4854435129,
				"y": 3.7324261411,
				"z": 0.1504195364,
				"element": "H" 
			},
			{
				"x": 1.1738918505,
				"y": 3.2348892014,
				"z": 0.4900767785,
				"element": "H" 
			},
			{
				"x": 0.5539202071,
				"y": 3.1535680127,
				"z": -1.1661096628,
				"element": "H" 
			},
			{
				"x": -2.5486967719,
				"y": -1.5905824802,
				"z": 1.7023866951,
				"element": "H" 
			},
			{
				"x": -1.3894040652,
				"y": -0.9673475963,
				"z": 2.8835000987,
				"element": "H" 
			},
			{
				"x": -0.9362596231,
				"y": -2.3060024147,
				"z": 1.8132041955,
				"element": "H" 
			},
			{
				"x": -1.7723714577,
				"y": 2.0008673092,
				"z": 2.6690644456,
				"element": "H" 
			},
			{
				"x": -0.1628122354,
				"y": 2.2702163687,
				"z": 2.7609002194,
				"element": "H" 
			},
			{
				"x": -2.0382129359,
				"y": -3.2095167616,
				"z": -1.8692188371,
				"element": "H" 
			},
			{
				"x": -2.8389697129,
				"y": -1.7193341876,
				"z": -1.3429448256,
				"element": "H" 
			},
			{
				"x": -2.14961642,
				"y": -2.8377179533,
				"z": -0.1513015033,
				"element": "H" 
			},
			{
				"x": 0.4265150844,
				"y": -2.9166150332,
				"z": 0.1650806554,
				"element": "H" 
			},
			{
				"x": 1.4619787595,
				"y": -2.0270468477,
				"z": -0.9646766736,
				"element": "H" 
			},
			{
				"x": 0.5516491181,
				"y": -3.4471822008,
				"z": -1.5181101485,
				"element": "H" 
			},
			{
				"x": -1.2937643014,
				"y": -0.5436372538,
				"z": -3.0388032671,
				"element": "H" 
			},
			{
				"x": -0.5091352565,
				"y": -2.1044696107,
				"z": -3.3665109019,
				"element": "H" 
			},
			{
				"x": 0.4563892951,
				"y": -0.6896536624,
				"z": -2.8831383721,
				"element": "H" 
			}
		],
		 "valence_orbital": [ 
			{
				"type": "occ",
				"energy": -0.32864,
				"method": "rhf"
			},
			{
				"type": "occ",
				"energy": -0.28109,
				"method": "rhf"
			},
			{
				"type": "occ",
				"energy": -0.24831,
				"method": "rhf"
			},
			{
				"type": "occ",
				"energy": -0.21894,
				"method": "rhf"
			},
			{
				"type": "occ",
				"energy": -0.2021,
				"method": "rhf"
			},
			{
				"type": "unocc",
				"energy": 0.03657,
				"method": "rhf"
			},
			{
				"type": "unocc",
				"energy": 0.07656,
				"method": "rhf"
			},
			{
				"type": "unocc",
				"energy": 0.08461,
				"method": "rhf"
			},
			{
				"type": "unocc",
				"energy": 0.08799,
				"method": "rhf"
			},
			{
				"type": "unocc",
				"energy": 0.11049,
				"method": "rhf"
			}
		],
		"cosmo_sigma_profile": { 
			"-0.025": 0.0,
			"-0.024": 0.0,
			"-0.023": 0.0,
			"-0.022": 0.0,
			"-0.021": 0.0,
			"-0.02": 0.0,
			"-0.019": 0.0,
			"-0.018": 0.0,
			"-0.017": 0.0,
			"-0.016": 0.0,
			"-0.015": 0.0,
			"-0.014": 0.0,
			"-0.013": 0.0,
			"-0.012": 0.0,
			"-0.011": 0.453555392036,
			"-0.01": 2.32790091088,
			"-0.009": 2.67979623132,
			"-0.008": 2.57079112837,
			"-0.007": 2.57061680324,
			"-0.006": 2.94579934452,
			"-0.005": 6.4788039442,
			"-0.004": 16.9014685363,
			"-0.003": 26.3622334427,
			"-0.002": 27.0304223535,
			"-0.001": 27.1349152461,
			"0.0": 35.0885183861,
			"0.001": 23.7998455205,
			"0.002": 8.27590501809,
			"0.003": 7.19729962664,
			"0.004": 4.97778989076,
			"0.005": 5.22255994548,
			"0.006": 7.3061516791,
			"0.007": 4.1987567385,
			"0.008": 3.70014120374,
			"0.009": 2.89088456837,
			"0.01": 1.92566228174,
			"0.011": 2.38676247039,
			"0.012": 2.0035574642,
			"0.013": 2.35195348203,
			"0.014": 1.23686307001,
			"0.015": 0.699557177312,
			"0.016": 0.374505024857,
			"0.017": 0.0,
			"0.018": 0.0,
			"0.019": 0.0,
			"0.02": 0.0,
			"0.021": 0.0,
			"0.022": 0.0,
			"0.023": 0.0,
			"0.024": 0.0,
			"0.025": 0.0
		}
	}
}
