{
	 "smiles": "N[C@@H](CN1C=CC(=O)C(O)=C1)C(O)=O", 
	 "Tm": 501.15, 
	 "num_atms": 24, 
	 "gaussian": { 
		 "optdone": 1, 
		 "sigma_profile": "yes", 
		 "theory": "DFT", 
		 "functional": "B3LYP", 
		 "basiset": "6-31G**", 
		 "properties": { 
			 "R2extent": 3650.0771, 
			 "electric_dipole_moment_norm": 4.19178803376, 
			 "electric_quadrupole_moment_norm": 37.7645782536, 
			 "total_energy": -721.257121543, 
			 "HOMO_LUMO_gap": 0.18267, 
			 "cosmo_polarized_energy": -38.29, 
			 "cosmo_cavitation_energy": 28.71, 
			 "cosmo_dispersion_energy": -20.44, 
			 "cosmo_repulsion_energy": 1.62, 
			 "cosmo_total_nonelectrostatic_energy": 9.89, 
			 "SMD_solvation_energy": 6.92 
		},
		"coords": [
			{
				"x": -0.0426855668,
				"y": -0.2954728651,
				"z": -2.1632124915,
				"element": "N" 
			},
			{
				"x": 1.1768908611,
				"y": -0.688083621,
				"z": -1.4497800616,
				"element": "C" 
			},
			{
				"x": 1.0071832073,
				"y": -1.1635379852,
				"z": 0.0071385127,
				"element": "C" 
			},
			{
				"x": 0.482158307,
				"y": -0.1257395559,
				"z": 0.8913216758,
				"element": "N" 
			},
			{
				"x": 1.3175716083,
				"y": 0.8269403258,
				"z": 1.4116951035,
				"element": "C" 
			},
			{
				"x": 0.8487147939,
				"y": 1.9004553553,
				"z": 2.1046581646,
				"element": "C" 
			},
			{
				"x": -0.5718782952,
				"y": 2.1277294583,
				"z": 2.336171924,
				"element": "C" 
			},
			{
				"x": -1.0382346232,
				"y": 3.0931432017,
				"z": 2.9418222293,
				"element": "O" 
			},
			{
				"x": -1.4226718082,
				"y": 1.0536252337,
				"z": 1.77420065,
				"element": "C" 
			},
			{
				"x": -2.7532026509,
				"y": 1.1971687944,
				"z": 2.0052935926,
				"element": "O" 
			},
			{
				"x": -0.8853030663,
				"y": 0.0087369855,
				"z": 1.0829654688,
				"element": "C" 
			},
			{
				"x": 1.925014354,
				"y": -1.7649800534,
				"z": -2.2685849135,
				"element": "C" 
			},
			{
				"x": 1.5728167708,
				"y": -1.7957611379,
				"z": -3.5587590499,
				"element": "O" 
			},
			{
				"x": 2.7648371808,
				"y": -2.4883471984,
				"z": -1.7853067709,
				"element": "O" 
			},
			{
				"x": -0.3407086839,
				"y": 0.6424422471,
				"z": -1.9141175328,
				"element": "H" 
			},
			{
				"x": -0.8142469113,
				"y": -0.9258196478,
				"z": -1.9563954559,
				"element": "H" 
			},
			{
				"x": 1.8372341901,
				"y": 0.1889515985,
				"z": -1.443249502,
				"element": "H" 
			},
			{
				"x": 0.3332548622,
				"y": -2.0258145009,
				"z": 0.0452522407,
				"element": "H" 
			},
			{
				"x": 1.9769979972,
				"y": -1.501169986,
				"z": 0.3772330101,
				"element": "H" 
			},
			{
				"x": 2.3761054847,
				"y": 0.6606273482,
				"z": 1.2390273542,
				"element": "H" 
			},
			{
				"x": 1.5435126727,
				"y": 2.6232613676,
				"z": 2.51633869,
				"element": "H" 
			},
			{
				"x": -3.2324518211,
				"y": 0.4329803073,
				"z": 1.6580319036,
				"element": "H" 
			},
			{
				"x": -1.4956397749,
				"y": -0.7926616202,
				"z": 0.6771538842,
				"element": "H" 
			},
			{
				"x": 0.8531309118,
				"y": -1.1288740513,
				"z": -3.6473986262,
				"element": "H" 
			}
		],
		 "valence_orbital": [ 
			{
				"type": "occ",
				"energy": -0.31744,
				"method": "rhf"
			},
			{
				"type": "occ",
				"energy": -0.27804,
				"method": "rhf"
			},
			{
				"type": "occ",
				"energy": -0.26914,
				"method": "rhf"
			},
			{
				"type": "occ",
				"energy": -0.22564,
				"method": "rhf"
			},
			{
				"type": "occ",
				"energy": -0.21007,
				"method": "rhf"
			},
			{
				"type": "unocc",
				"energy": -0.0274,
				"method": "rhf"
			},
			{
				"type": "unocc",
				"energy": -0.01082,
				"method": "rhf"
			},
			{
				"type": "unocc",
				"energy": -0.00507,
				"method": "rhf"
			},
			{
				"type": "unocc",
				"energy": 0.03647,
				"method": "rhf"
			},
			{
				"type": "unocc",
				"energy": 0.05341,
				"method": "rhf"
			}
		],
		"cosmo_sigma_profile": { 
			"-0.025": 0.0,
			"-0.024": 0.0,
			"-0.023": 0.0,
			"-0.022": 0.0,
			"-0.021": 0.0,
			"-0.02": 0.0,
			"-0.019": 0.0466493362153,
			"-0.018": 1.10153269481,
			"-0.017": 1.24468152052,
			"-0.016": 1.24833909025,
			"-0.015": 0.967829656452,
			"-0.014": 0.995697105936,
			"-0.013": 2.59867989095,
			"-0.012": 5.08639101227,
			"-0.011": 5.61395347532,
			"-0.01": 8.70041744114,
			"-0.009": 11.6383215156,
			"-0.008": 12.9817054638,
			"-0.007": 10.548660395,
			"-0.006": 12.3689366052,
			"-0.005": 9.09530423259,
			"-0.004": 8.64128683735,
			"-0.003": 6.76326595086,
			"-0.002": 7.18320954183,
			"-0.001": 7.6815840523,
			"0.0": 6.92810449446,
			"0.001": 10.5880673582,
			"0.002": 12.1751710829,
			"0.003": 7.71265664182,
			"0.004": 7.1028912106,
			"0.005": 5.75975791813,
			"0.006": 4.3714544886,
			"0.007": 5.64802526771,
			"0.008": 4.12975814623,
			"0.009": 5.70980837939,
			"0.01": 7.5427504166,
			"0.011": 6.80192888578,
			"0.012": 6.49508282725,
			"0.013": 4.10896476753,
			"0.014": 3.58729649859,
			"0.015": 6.16605316787,
			"0.016": 4.5665693997,
			"0.017": 2.33781478643,
			"0.018": 0.441177695815,
			"0.019": 0.0,
			"0.02": 0.0,
			"0.021": 0.0,
			"0.022": 0.0,
			"0.023": 0.0,
			"0.024": 0.0,
			"0.025": 0.0
		}
	}
}
