{
	 "smiles": "C(OC1=C2C=CNC2=CC=C1)C1CO1", 
	 "Tm": 326.15, 
	 "num_atms": 25, 
	 "gaussian": { 
		 "optdone": 1, 
		 "sigma_profile": "yes", 
		 "theory": "DFT", 
		 "functional": "B3LYP", 
		 "basiset": "6-31G**", 
		 "properties": { 
			 "R2extent": 3452.0532, 
			 "electric_dipole_moment_norm": 3.32443519113, 
			 "electric_quadrupole_moment_norm": 17.3266386631, 
			 "total_energy": -630.934963647, 
			 "HOMO_LUMO_gap": 0.1937, 
			 "cosmo_polarized_energy": -13.11, 
			 "cosmo_cavitation_energy": 29.23, 
			 "cosmo_dispersion_energy": -21.07, 
			 "cosmo_repulsion_energy": 1.66, 
			 "cosmo_total_nonelectrostatic_energy": 9.82, 
			 "SMD_solvation_energy": 5.01 
		},
		"coords": [
			{
				"x": -0.5079423563,
				"y": 1.4664929688,
				"z": -0.1641800532,
				"element": "C" 
			},
			{
				"x": 0.5586927117,
				"y": 0.5756764518,
				"z": 0.1741117995,
				"element": "O" 
			},
			{
				"x": 0.1720031069,
				"y": -0.7357065692,
				"z": 0.3819769718,
				"element": "C" 
			},
			{
				"x": -0.0087376502,
				"y": -1.6071955514,
				"z": -0.7098826289,
				"element": "C" 
			},
			{
				"x": 0.105982207,
				"y": -1.4717194025,
				"z": -2.1348929314,
				"element": "C" 
			},
			{
				"x": -0.190198105,
				"y": -2.6950589579,
				"z": -2.6758400568,
				"element": "C" 
			},
			{
				"x": -0.4844828429,
				"y": -3.5902780833,
				"z": -1.6632976672,
				"element": "N" 
			},
			{
				"x": -0.376936311,
				"y": -2.9546373044,
				"z": -0.4423448253,
				"element": "C" 
			},
			{
				"x": -0.5589955652,
				"y": -3.4450250994,
				"z": 0.8569438504,
				"element": "C" 
			},
			{
				"x": -0.3613553202,
				"y": -2.5561091024,
				"z": 1.9061919103,
				"element": "C" 
			},
			{
				"x": -0.0025202679,
				"y": -1.2123681803,
				"z": 1.6741180688,
				"element": "C" 
			},
			{
				"x": 0.0693044312,
				"y": 2.8587108585,
				"z": -0.226492224,
				"element": "C" 
			},
			{
				"x": 0.4915408371,
				"y": 3.4576492593,
				"z": -1.4986394102,
				"element": "C" 
			},
			{
				"x": -0.7514716928,
				"y": 3.8280212983,
				"z": -0.8856699567,
				"element": "O" 
			},
			{
				"x": -1.2973766033,
				"y": 1.4180522961,
				"z": 0.5996730784,
				"element": "H" 
			},
			{
				"x": -0.9587554109,
				"y": 1.2054855582,
				"z": -1.1311958016,
				"element": "H" 
			},
			{
				"x": 0.387660574,
				"y": -0.584889063,
				"z": -2.6825256307,
				"element": "H" 
			},
			{
				"x": -0.2142844108,
				"y": -3.0103292883,
				"z": -3.70917827,
				"element": "H" 
			},
			{
				"x": -0.7225580719,
				"y": -4.5594307963,
				"z": -1.7952514968,
				"element": "H" 
			},
			{
				"x": -0.8369381536,
				"y": -4.478922719,
				"z": 1.0391743884,
				"element": "H" 
			},
			{
				"x": -0.4874273579,
				"y": -2.8997457971,
				"z": 2.9285503515,
				"element": "H" 
			},
			{
				"x": 0.1516123329,
				"y": -0.5311236334,
				"z": 2.5047876321,
				"element": "H" 
			},
			{
				"x": 0.5440857277,
				"y": 3.2033449099,
				"z": 0.6937125427,
				"element": "H" 
			},
			{
				"x": 1.2598072824,
				"y": 4.2303184453,
				"z": -1.5033863571,
				"element": "H" 
			},
			{
				"x": 0.4057909089,
				"y": 2.8785875016,
				"z": -2.4183632843,
				"element": "H" 
			}
		],
		 "valence_orbital": [ 
			{
				"type": "occ",
				"energy": -0.27542,
				"method": "rhf"
			},
			{
				"type": "occ",
				"energy": -0.26792,
				"method": "rhf"
			},
			{
				"type": "occ",
				"energy": -0.26255,
				"method": "rhf"
			},
			{
				"type": "occ",
				"energy": -0.22151,
				"method": "rhf"
			},
			{
				"type": "occ",
				"energy": -0.2003,
				"method": "rhf"
			},
			{
				"type": "unocc",
				"energy": -0.0066,
				"method": "rhf"
			},
			{
				"type": "unocc",
				"energy": 0.0281,
				"method": "rhf"
			},
			{
				"type": "unocc",
				"energy": 0.06791,
				"method": "rhf"
			},
			{
				"type": "unocc",
				"energy": 0.07566,
				"method": "rhf"
			},
			{
				"type": "unocc",
				"energy": 0.08875,
				"method": "rhf"
			}
		],
		"cosmo_sigma_profile": { 
			"-0.025": 0.0,
			"-0.024": 0.0,
			"-0.023": 0.0,
			"-0.022": 0.0,
			"-0.021": 0.0,
			"-0.02": 0.0,
			"-0.019": 0.0,
			"-0.018": 0.0,
			"-0.017": 0.0,
			"-0.016": 0.517655094879,
			"-0.015": 1.36809074118,
			"-0.014": 1.72314991637,
			"-0.013": 1.05083323474,
			"-0.012": 1.05492846055,
			"-0.011": 1.34145765035,
			"-0.01": 1.32508109433,
			"-0.009": 1.38827128695,
			"-0.008": 3.09988131273,
			"-0.007": 5.21387574076,
			"-0.006": 12.3973628043,
			"-0.005": 19.6191621732,
			"-0.004": 19.8180939414,
			"-0.003": 17.4509146629,
			"-0.002": 17.6889075235,
			"-0.001": 13.6647426027,
			"0.0": 9.92512811374,
			"0.001": 10.4291325477,
			"0.002": 10.4291822174,
			"0.003": 10.9404376984,
			"0.004": 12.1319197668,
			"0.005": 19.1609596222,
			"0.006": 15.2361332449,
			"0.007": 9.10360648558,
			"0.008": 2.73835165755,
			"0.009": 2.56861814388,
			"0.01": 3.54438078057,
			"0.011": 5.05678883854,
			"0.012": 2.46156426251,
			"0.013": 0.269537405231,
			"0.014": 0.0,
			"0.015": 0.0,
			"0.016": 0.0,
			"0.017": 0.0,
			"0.018": 0.0,
			"0.019": 0.0,
			"0.02": 0.0,
			"0.021": 0.0,
			"0.022": 0.0,
			"0.023": 0.0,
			"0.024": 0.0,
			"0.025": 0.0
		}
	}
}
