{
	 "smiles": "OC(CN1CCNCC1)C1=CC=CC=C1", 
	 "Tm": 341.15, 
	 "num_atms": 33, 
	 "gaussian": { 
		 "optdone": 1, 
		 "sigma_profile": "yes", 
		 "theory": "DFT", 
		 "functional": "B3LYP", 
		 "basiset": "6-31G**", 
		 "properties": { 
			 "R2extent": 3754.9272, 
			 "electric_dipole_moment_norm": 3.589862684, 
			 "electric_quadrupole_moment_norm": 11.4957752401, 
			 "total_energy": -652.820650244, 
			 "HOMO_LUMO_gap": 0.21252, 
			 "cosmo_polarized_energy": -10.74, 
			 "cosmo_cavitation_energy": 33.08, 
			 "cosmo_dispersion_energy": -23.73, 
			 "cosmo_repulsion_energy": 1.87, 
			 "cosmo_total_nonelectrostatic_energy": 11.22, 
			 "SMD_solvation_energy": 2.66 
		},
		"coords": [
			{
				"x": 0.0078523792,
				"y": 2.496985962,
				"z": 0.1990027552,
				"element": "O" 
			},
			{
				"x": -0.6526624591,
				"y": 1.4277781505,
				"z": 0.8436473956,
				"element": "C" 
			},
			{
				"x": 0.4287888732,
				"y": 0.4488643898,
				"z": 1.3884839498,
				"element": "C" 
			},
			{
				"x": 1.4858584097,
				"y": 0.2454114257,
				"z": 0.4004394957,
				"element": "N" 
			},
			{
				"x": 1.1685439193,
				"y": -0.7741131244,
				"z": -0.6216549354,
				"element": "C" 
			},
			{
				"x": 2.4487790428,
				"y": -1.27000659,
				"z": -1.3186861244,
				"element": "C" 
			},
			{
				"x": 3.3745247976,
				"y": -0.1508870868,
				"z": -1.4471414257,
				"element": "N" 
			},
			{
				"x": 3.8838920782,
				"y": 0.2975691414,
				"z": -0.1433162187,
				"element": "C" 
			},
			{
				"x": 2.8268923104,
				"y": 0.0563012483,
				"z": 0.9523157569,
				"element": "C" 
			},
			{
				"x": -1.7140274048,
				"y": 0.7699599906,
				"z": -0.039962565,
				"element": "C" 
			},
			{
				"x": -1.9275469969,
				"y": 1.2101404023,
				"z": -1.3504275956,
				"element": "C" 
			},
			{
				"x": -2.9113644372,
				"y": 0.6206839562,
				"z": -2.147707019,
				"element": "C" 
			},
			{
				"x": -3.70249602,
				"y": -0.4118520733,
				"z": -1.6422879187,
				"element": "C" 
			},
			{
				"x": -3.5080919055,
				"y": -0.8466715603,
				"z": -0.3289668403,
				"element": "C" 
			},
			{
				"x": -2.5239127926,
				"y": -0.2574357508,
				"z": 0.4649091195,
				"element": "C" 
			},
			{
				"x": 0.8308054607,
				"y": 2.0889037553,
				"z": -0.1389357387,
				"element": "H" 
			},
			{
				"x": -1.1734864361,
				"y": 1.8432404355,
				"z": 1.718641199,
				"element": "H" 
			},
			{
				"x": 0.8819546646,
				"y": 0.9255572253,
				"z": 2.2633645048,
				"element": "H" 
			},
			{
				"x": -0.0284871994,
				"y": -0.4966291297,
				"z": 1.7237012355,
				"element": "H" 
			},
			{
				"x": 0.4910005629,
				"y": -0.3304955229,
				"z": -1.3556518971,
				"element": "H" 
			},
			{
				"x": 0.6435892148,
				"y": -1.6346502549,
				"z": -0.1715550235,
				"element": "H" 
			},
			{
				"x": 2.1917627886,
				"y": -1.6391061443,
				"z": -2.3164940223,
				"element": "H" 
			},
			{
				"x": 2.8710661829,
				"y": -2.1291310793,
				"z": -0.7638345039,
				"element": "H" 
			},
			{
				"x": 4.1428192266,
				"y": -0.3848908082,
				"z": -2.066878864,
				"element": "H" 
			},
			{
				"x": 4.8121723179,
				"y": -0.2160084722,
				"z": 0.1619503308,
				"element": "H" 
			},
			{
				"x": 4.1105936821,
				"y": 1.3691336543,
				"z": -0.2081289307,
				"element": "H" 
			},
			{
				"x": 2.9815235858,
				"y": 0.7719841992,
				"z": 1.7648140526,
				"element": "H" 
			},
			{
				"x": 2.9533044649,
				"y": -0.9504689691,
				"z": 1.3905273473,
				"element": "H" 
			},
			{
				"x": -1.3185723707,
				"y": 2.0252618319,
				"z": -1.7258550305,
				"element": "H" 
			},
			{
				"x": -3.0632051493,
				"y": 0.9741312242,
				"z": -3.1641684637,
				"element": "H" 
			},
			{
				"x": -4.4694736069,
				"y": -0.8687604172,
				"z": -2.2613365703,
				"element": "H" 
			},
			{
				"x": -4.1262614306,
				"y": -1.6420483106,
				"z": 0.0787825406,
				"element": "H" 
			},
			{
				"x": -2.393335753,
				"y": -0.5961516984,
				"z": 1.490610004,
				"element": "H" 
			}
		],
		 "valence_orbital": [ 
			{
				"type": "occ",
				"energy": -0.25714,
				"method": "rhf"
			},
			{
				"type": "occ",
				"energy": -0.24197,
				"method": "rhf"
			},
			{
				"type": "occ",
				"energy": -0.23385,
				"method": "rhf"
			},
			{
				"type": "occ",
				"energy": -0.2301,
				"method": "rhf"
			},
			{
				"type": "occ",
				"energy": -0.208,
				"method": "rhf"
			},
			{
				"type": "unocc",
				"energy": 0.00452,
				"method": "rhf"
			},
			{
				"type": "unocc",
				"energy": 0.00907,
				"method": "rhf"
			},
			{
				"type": "unocc",
				"energy": 0.06788,
				"method": "rhf"
			},
			{
				"type": "unocc",
				"energy": 0.09846,
				"method": "rhf"
			},
			{
				"type": "unocc",
				"energy": 0.10486,
				"method": "rhf"
			}
		],
		"cosmo_sigma_profile": { 
			"-0.025": 0.0,
			"-0.024": 0.0,
			"-0.023": 0.0,
			"-0.022": 0.0,
			"-0.021": 0.0,
			"-0.02": 0.0,
			"-0.019": 0.0,
			"-0.018": 0.0,
			"-0.017": 0.0,
			"-0.016": 0.0,
			"-0.015": 0.0,
			"-0.014": 0.0,
			"-0.013": 0.0,
			"-0.012": 0.0,
			"-0.011": 0.0785954040129,
			"-0.01": 0.955072954959,
			"-0.009": 1.54163705921,
			"-0.008": 0.892897292043,
			"-0.007": 1.14894357338,
			"-0.006": 3.47502275839,
			"-0.005": 16.2844022818,
			"-0.004": 24.4562989675,
			"-0.003": 28.719833905,
			"-0.002": 43.4285940962,
			"-0.001": 35.2893878125,
			"0.0": 17.8796133235,
			"0.001": 12.0938290143,
			"0.002": 10.3300883665,
			"0.003": 9.88336955876,
			"0.004": 10.0985039717,
			"0.005": 10.8495094814,
			"0.006": 8.99536136363,
			"0.007": 4.39589649023,
			"0.008": 1.52037589614,
			"0.009": 2.6214812127,
			"0.01": 2.07087609249,
			"0.011": 1.40269695089,
			"0.012": 2.29600118516,
			"0.013": 1.44092714994,
			"0.014": 2.20046671,
			"0.015": 1.92691157897,
			"0.016": 0.715104526954,
			"0.017": 0.534991366856,
			"0.018": 0.30382317095,
			"0.019": 0.105315802964,
			"0.02": 0.0,
			"0.021": 0.0,
			"0.022": 0.0,
			"0.023": 0.0,
			"0.024": 0.0,
			"0.025": 0.0
		}
	}
}
