{
	 "smiles": "C1COCCOC2=C(OCCOCCOCCOC3=CC=CC=C3OCCO1)C=CC=C2", 
	 "Tm": 377.15, 
	 "num_atms": 64, 
	 "gaussian": { 
		 "optdone": 1, 
		 "sigma_profile": "yes", 
		 "theory": "DFT", 
		 "functional": "B3LYP", 
		 "basiset": "6-31G**", 
		 "properties": { 
			 "R2extent": 16739.7668, 
			 "electric_dipole_moment_norm": 1.61328842431, 
			 "electric_quadrupole_moment_norm": 13.2642898121, 
			 "total_energy": -1535.50921206, 
			 "HOMO_LUMO_gap": 0.21389, 
			 "cosmo_polarized_energy": -18.3, 
			 "cosmo_cavitation_energy": 64.12, 
			 "cosmo_dispersion_energy": -39.3, 
			 "cosmo_repulsion_energy": 2.96, 
			 "cosmo_total_nonelectrostatic_energy": 27.79, 
			 "SMD_solvation_energy": 10.24 
		},
		"coords": [
			{
				"x": -1.9856295992,
				"y": -1.5064722595,
				"z": -0.0572816317,
				"element": "C" 
			},
			{
				"x": -3.1755974822,
				"y": -2.2664377668,
				"z": 0.5423609777,
				"element": "C" 
			},
			{
				"x": -3.4047910206,
				"y": -1.9435202579,
				"z": 1.9063926607,
				"element": "O" 
			},
			{
				"x": -4.1020149277,
				"y": -0.7312453817,
				"z": 2.1611733076,
				"element": "C" 
			},
			{
				"x": -3.1628685165,
				"y": 0.2729489321,
				"z": 2.83431713,
				"element": "C" 
			},
			{
				"x": -3.8689371933,
				"y": 1.4514416198,
				"z": 3.2619071777,
				"element": "O" 
			},
			{
				"x": -4.2339469685,
				"y": 2.3438326425,
				"z": 2.2786444612,
				"element": "C" 
			},
			{
				"x": -3.2761636982,
				"y": 3.0716886765,
				"z": 1.5472937184,
				"element": "C" 
			},
			{
				"x": -1.9269347432,
				"y": 2.8533235949,
				"z": 1.7486321147,
				"element": "O" 
			},
			{
				"x": -1.3666062419,
				"y": 3.571126095,
				"z": 2.8625341088,
				"element": "C" 
			},
			{
				"x": 0.1281783896,
				"y": 3.3008666149,
				"z": 2.9292022627,
				"element": "C" 
			},
			{
				"x": 0.8335305089,
				"y": 3.8395974476,
				"z": 1.8246918083,
				"element": "O" 
			},
			{
				"x": 1.0200225614,
				"y": 2.9330005776,
				"z": 0.743431944,
				"element": "C" 
			},
			{
				"x": 1.4227650672,
				"y": 3.7617597058,
				"z": -0.4755929051,
				"element": "C" 
			},
			{
				"x": 1.7250721974,
				"y": 2.9694036594,
				"z": -1.6123510715,
				"element": "O" 
			},
			{
				"x": 0.6117536581,
				"y": 2.3766438059,
				"z": -2.267638088,
				"element": "C" 
			},
			{
				"x": 0.4956905863,
				"y": 0.8817227577,
				"z": -1.9981702429,
				"element": "C" 
			},
			{
				"x": 1.5981770002,
				"y": 0.1831269885,
				"z": -2.6033059793,
				"element": "O" 
			},
			{
				"x": 2.5857128023,
				"y": -0.2847943244,
				"z": -1.7670042987,
				"element": "C" 
			},
			{
				"x": 3.8682368079,
				"y": 0.2585718223,
				"z": -1.8583009038,
				"element": "C" 
			},
			{
				"x": 4.9042686485,
				"y": -0.2355506515,
				"z": -1.065218446,
				"element": "C" 
			},
			{
				"x": 4.6595399515,
				"y": -1.2738442475,
				"z": -0.1643764199,
				"element": "C" 
			},
			{
				"x": 3.3820553039,
				"y": -1.8278480638,
				"z": -0.0739641653,
				"element": "C" 
			},
			{
				"x": 2.3440356466,
				"y": -1.3476474327,
				"z": -0.874682948,
				"element": "C" 
			},
			{
				"x": 1.0869094935,
				"y": -1.8962853035,
				"z": -0.7229309771,
				"element": "O" 
			},
			{
				"x": 0.5592139865,
				"y": -2.5904128254,
				"z": -1.8635515368,
				"element": "C" 
			},
			{
				"x": -0.8577731318,
				"y": -3.0289900182,
				"z": -1.5366101694,
				"element": "C" 
			},
			{
				"x": -1.7468243585,
				"y": -1.9276724416,
				"z": -1.398174724,
				"element": "O" 
			},
			{
				"x": -3.6889409604,
				"y": 3.9987197973,
				"z": 0.5894339816,
				"element": "C" 
			},
			{
				"x": -5.0476058693,
				"y": 4.224659837,
				"z": 0.363038784,
				"element": "C" 
			},
			{
				"x": -5.9991507558,
				"y": 3.5227897284,
				"z": 1.1049257873,
				"element": "C" 
			},
			{
				"x": -5.5920116888,
				"y": 2.5837107771,
				"z": 2.0536544927,
				"element": "C" 
			},
			{
				"x": -2.2044134533,
				"y": -0.4335462115,
				"z": -0.1038348806,
				"element": "H" 
			},
			{
				"x": -1.0981478553,
				"y": -1.6406367751,
				"z": 0.5710227738,
				"element": "H" 
			},
			{
				"x": -4.0730471604,
				"y": -2.086991761,
				"z": -0.0677059749,
				"element": "H" 
			},
			{
				"x": -2.9717492855,
				"y": -3.3426591019,
				"z": 0.5189541649,
				"element": "H" 
			},
			{
				"x": -4.5190800347,
				"y": -0.307196392,
				"z": 1.2377394985,
				"element": "H" 
			},
			{
				"x": -4.9399265199,
				"y": -0.9471502449,
				"z": 2.8364683729,
				"element": "H" 
			},
			{
				"x": -2.7538884258,
				"y": -0.1697857574,
				"z": 3.7460863996,
				"element": "H" 
			},
			{
				"x": -2.3321608713,
				"y": 0.5396733469,
				"z": 2.1749929092,
				"element": "H" 
			},
			{
				"x": -1.5414119733,
				"y": 4.6462515409,
				"z": 2.7260846053,
				"element": "H" 
			},
			{
				"x": -1.8482814974,
				"y": 3.2496122392,
				"z": 3.7960058265,
				"element": "H" 
			},
			{
				"x": 0.3118870116,
				"y": 2.2214175803,
				"z": 3.0296336315,
				"element": "H" 
			},
			{
				"x": 0.5159680857,
				"y": 3.7897635276,
				"z": 3.8316416013,
				"element": "H" 
			},
			{
				"x": 0.0936416072,
				"y": 2.3849016,
				"z": 0.5407394549,
				"element": "H" 
			},
			{
				"x": 1.812174288,
				"y": 2.2035632522,
				"z": 0.9742366028,
				"element": "H" 
			},
			{
				"x": 0.6221467862,
				"y": 4.4843614765,
				"z": -0.6980995826,
				"element": "H" 
			},
			{
				"x": 2.3294244235,
				"y": 4.3292700278,
				"z": -0.2449425998,
				"element": "H" 
			},
			{
				"x": -0.3291204215,
				"y": 2.8707425075,
				"z": -1.9793250297,
				"element": "H" 
			},
			{
				"x": 0.7519275523,
				"y": 2.5241717543,
				"z": -3.3455722974,
				"element": "H" 
			},
			{
				"x": 0.4575770568,
				"y": 0.6706307095,
				"z": -0.9267651263,
				"element": "H" 
			},
			{
				"x": -0.4228458862,
				"y": 0.4915059907,
				"z": -2.452140552,
				"element": "H" 
			},
			{
				"x": 4.0213729586,
				"y": 1.0837821125,
				"z": -2.5452319709,
				"element": "H" 
			},
			{
				"x": 5.8959948274,
				"y": 0.2000401645,
				"z": -1.1423570017,
				"element": "H" 
			},
			{
				"x": 5.4596001305,
				"y": -1.6575569946,
				"z": 0.4616295356,
				"element": "H" 
			},
			{
				"x": 3.1641106462,
				"y": -2.6407250232,
				"z": 0.6119135132,
				"element": "H" 
			},
			{
				"x": 1.1780361806,
				"y": -3.4745056584,
				"z": -2.0792964964,
				"element": "H" 
			},
			{
				"x": 0.562757787,
				"y": -1.93696879,
				"z": -2.7415395391,
				"element": "H" 
			},
			{
				"x": -1.2263953938,
				"y": -3.6466394912,
				"z": -2.3650146593,
				"element": "H" 
			},
			{
				"x": -0.8513246285,
				"y": -3.6510655799,
				"z": -0.6310319769,
				"element": "H" 
			},
			{
				"x": -2.9261834475,
				"y": 4.5370959819,
				"z": 0.0348863632,
				"element": "H" 
			},
			{
				"x": -5.3585131272,
				"y": 4.9496228643,
				"z": -0.3829506122,
				"element": "H" 
			},
			{
				"x": -7.0583196839,
				"y": 3.6971909208,
				"z": 0.9410728229,
				"element": "H" 
			},
			{
				"x": -6.3138751299,
				"y": 2.022616078,
				"z": 2.6388200137,
				"element": "H" 
			}
		],
		 "valence_orbital": [ 
			{
				"type": "occ",
				"energy": -0.25061,
				"method": "rhf"
			},
			{
				"type": "occ",
				"energy": -0.24333,
				"method": "rhf"
			},
			{
				"type": "occ",
				"energy": -0.23536,
				"method": "rhf"
			},
			{
				"type": "occ",
				"energy": -0.23102,
				"method": "rhf"
			},
			{
				"type": "occ",
				"energy": -0.22074,
				"method": "rhf"
			},
			{
				"type": "unocc",
				"energy": -0.00685,
				"method": "rhf"
			},
			{
				"type": "unocc",
				"energy": -0.00225,
				"method": "rhf"
			},
			{
				"type": "unocc",
				"energy": 0.00592,
				"method": "rhf"
			},
			{
				"type": "unocc",
				"energy": 0.00906,
				"method": "rhf"
			},
			{
				"type": "unocc",
				"energy": 0.06788,
				"method": "rhf"
			}
		],
		"cosmo_sigma_profile": { 
			"-0.025": 0.0,
			"-0.024": 0.0,
			"-0.023": 0.0,
			"-0.022": 0.0,
			"-0.021": 0.0,
			"-0.02": 0.0,
			"-0.019": 0.0,
			"-0.018": 0.0,
			"-0.017": 0.0,
			"-0.016": 0.0,
			"-0.015": 0.0,
			"-0.014": 0.0,
			"-0.013": 0.0,
			"-0.012": 0.0,
			"-0.011": 0.0,
			"-0.01": 0.0,
			"-0.009": 0.0,
			"-0.008": 0.0,
			"-0.007": 0.0647543838295,
			"-0.006": 15.0081213706,
			"-0.005": 52.4720186022,
			"-0.004": 63.3811188521,
			"-0.003": 55.8382343857,
			"-0.002": 49.5637751116,
			"-0.001": 39.8742909335,
			"0.0": 29.2707140298,
			"0.001": 26.9507145472,
			"0.002": 25.7915010529,
			"0.003": 30.8633143957,
			"0.004": 28.7807978521,
			"0.005": 28.6604492823,
			"0.006": 15.2161259695,
			"0.007": 8.90765324982,
			"0.008": 7.11417808072,
			"0.009": 6.65682969342,
			"0.01": 5.59121234631,
			"0.011": 5.61845142678,
			"0.012": 4.71317063782,
			"0.013": 2.75758014925,
			"0.014": 0.0808950930399,
			"0.015": 0.0,
			"0.016": 0.0,
			"0.017": 0.0,
			"0.018": 0.0,
			"0.019": 0.0,
			"0.02": 0.0,
			"0.021": 0.0,
			"0.022": 0.0,
			"0.023": 0.0,
			"0.024": 0.0,
			"0.025": 0.0
		}
	}
}
