{
	 "smiles": "CCCCCCCCN1CCCC1=O", 
	 "Tm": 248.15, 
	 "num_atms": 37, 
	 "gaussian": { 
		 "optdone": 1, 
		 "sigma_profile": "yes", 
		 "theory": "DFT", 
		 "functional": "B3LYP", 
		 "basiset": "6-31G**", 
		 "properties": { 
			 "R2extent": 5094.9055, 
			 "electric_dipole_moment_norm": 3.72964194528, 
			 "electric_quadrupole_moment_norm": 15.6475251049, 
			 "total_energy": -601.153018702, 
			 "HOMO_LUMO_gap": 0.26718, 
			 "cosmo_polarized_energy": -9.71, 
			 "cosmo_cavitation_energy": 36.98, 
			 "cosmo_dispersion_energy": -25.52, 
			 "cosmo_repulsion_energy": 2.08, 
			 "cosmo_total_nonelectrostatic_energy": 13.54, 
			 "SMD_solvation_energy": 5.27 
		},
		"coords": [
			{
				"x": -1.5739407205,
				"y": -0.1343620358,
				"z": 4.3658744395,
				"element": "C" 
			},
			{
				"x": -0.6742502364,
				"y": -1.3341668377,
				"z": 4.0476036729,
				"element": "C" 
			},
			{
				"x": 0.7657456197,
				"y": -1.0027046346,
				"z": 3.6153089512,
				"element": "C" 
			},
			{
				"x": 0.9191160684,
				"y": -0.2275661326,
				"z": 2.2866166933,
				"element": "C" 
			},
			{
				"x": 0.9525737169,
				"y": 1.3033394731,
				"z": 2.4271110989,
				"element": "C" 
			},
			{
				"x": 1.2551180239,
				"y": 2.0848573986,
				"z": 1.1356212714,
				"element": "C" 
			},
			{
				"x": 0.1957938123,
				"y": 1.9816266925,
				"z": 0.0154015588,
				"element": "C" 
			},
			{
				"x": 0.483737666,
				"y": 0.8787456294,
				"z": -1.0192742594,
				"element": "C" 
			},
			{
				"x": -0.5052133023,
				"y": 0.8068329857,
				"z": -2.0815044186,
				"element": "N" 
			},
			{
				"x": -1.8494528963,
				"y": 0.2762989827,
				"z": -1.8931655137,
				"element": "C" 
			},
			{
				"x": -2.3933583879,
				"y": 0.1719114932,
				"z": -3.3354209651,
				"element": "C" 
			},
			{
				"x": -1.6073046807,
				"y": 1.2475601807,
				"z": -4.1015487765,
				"element": "C" 
			},
			{
				"x": -0.3136935075,
				"y": 1.4126029595,
				"z": -3.3002709703,
				"element": "C" 
			},
			{
				"x": 0.704229026,
				"y": 1.9887244253,
				"z": -3.6545558822,
				"element": "O" 
			},
			{
				"x": -1.1196839247,
				"y": 0.514436527,
				"z": 5.1236468621,
				"element": "H" 
			},
			{
				"x": -1.7694715296,
				"y": 0.4773634789,
				"z": 3.4795633101,
				"element": "H" 
			},
			{
				"x": -2.5436772535,
				"y": -0.466254777,
				"z": 4.7522334293,
				"element": "H" 
			},
			{
				"x": -1.1475426124,
				"y": -1.9415185112,
				"z": 3.2633944544,
				"element": "H" 
			},
			{
				"x": -0.6224061596,
				"y": -1.9794172793,
				"z": 4.9343412146,
				"element": "H" 
			},
			{
				"x": 1.3059839529,
				"y": -1.9536912185,
				"z": 3.5275136414,
				"element": "H" 
			},
			{
				"x": 1.2695172819,
				"y": -0.4477642151,
				"z": 4.4195930725,
				"element": "H" 
			},
			{
				"x": 1.8536297778,
				"y": -0.5404886071,
				"z": 1.8014961753,
				"element": "H" 
			},
			{
				"x": 0.11225657,
				"y": -0.5289880194,
				"z": 1.6047881047,
				"element": "H" 
			},
			{
				"x": 0.0041905617,
				"y": 1.6651675863,
				"z": 2.8431279083,
				"element": "H" 
			},
			{
				"x": 1.72119978,
				"y": 1.5608360318,
				"z": 3.1687566518,
				"element": "H" 
			},
			{
				"x": 2.2338344209,
				"y": 1.7762184965,
				"z": 0.7410129392,
				"element": "H" 
			},
			{
				"x": 1.3681578341,
				"y": 3.1407350521,
				"z": 1.4086074525,
				"element": "H" 
			},
			{
				"x": -0.7973763687,
				"y": 1.8306981467,
				"z": 0.4601744132,
				"element": "H" 
			},
			{
				"x": 0.1477275427,
				"y": 2.929469751,
				"z": -0.5327178657,
				"element": "H" 
			},
			{
				"x": 1.440789984,
				"y": 1.0822001359,
				"z": -1.5084320641,
				"element": "H" 
			},
			{
				"x": 0.5523248587,
				"y": -0.1041214327,
				"z": -0.5386203209,
				"element": "H" 
			},
			{
				"x": -1.815514343,
				"y": -0.694130984,
				"z": -1.3835692802,
				"element": "H" 
			},
			{
				"x": -2.4646545904,
				"y": 0.9499865343,
				"z": -1.2773776244,
				"element": "H" 
			},
			{
				"x": -2.1635301852,
				"y": -0.8185642009,
				"z": -3.7407748373,
				"element": "H" 
			},
			{
				"x": -3.4769691152,
				"y": 0.3059463245,
				"z": -3.3771033894,
				"element": "H" 
			},
			{
				"x": -1.3840314259,
				"y": 0.9934426639,
				"z": -5.1398877003,
				"element": "H" 
			},
			{
				"x": -2.1261552582,
				"y": 2.2142379362,
				"z": -4.1063634473,
				"element": "H" 
			}
		],
		 "valence_orbital": [ 
			{
				"type": "occ",
				"energy": -0.31736,
				"method": "rhf"
			},
			{
				"type": "occ",
				"energy": -0.30848,
				"method": "rhf"
			},
			{
				"type": "occ",
				"energy": -0.3025,
				"method": "rhf"
			},
			{
				"type": "occ",
				"energy": -0.2383,
				"method": "rhf"
			},
			{
				"type": "occ",
				"energy": -0.22927,
				"method": "rhf"
			},
			{
				"type": "unocc",
				"energy": 0.03791,
				"method": "rhf"
			},
			{
				"type": "unocc",
				"energy": 0.07185,
				"method": "rhf"
			},
			{
				"type": "unocc",
				"energy": 0.08531,
				"method": "rhf"
			},
			{
				"type": "unocc",
				"energy": 0.09601,
				"method": "rhf"
			},
			{
				"type": "unocc",
				"energy": 0.10339,
				"method": "rhf"
			}
		],
		"cosmo_sigma_profile": { 
			"-0.025": 0.0,
			"-0.024": 0.0,
			"-0.023": 0.0,
			"-0.022": 0.0,
			"-0.021": 0.0,
			"-0.02": 0.0,
			"-0.019": 0.0,
			"-0.018": 0.0,
			"-0.017": 0.0,
			"-0.016": 0.0,
			"-0.015": 0.0,
			"-0.014": 0.0,
			"-0.013": 0.0,
			"-0.012": 0.0,
			"-0.011": 0.0,
			"-0.01": 0.0,
			"-0.009": 0.0,
			"-0.008": 0.0,
			"-0.007": 0.0,
			"-0.006": 0.247933757762,
			"-0.005": 5.38700433253,
			"-0.004": 17.2118980309,
			"-0.003": 31.9236584202,
			"-0.002": 46.9665873114,
			"-0.001": 55.495506319,
			"0.0": 49.4873219856,
			"0.001": 35.7748630966,
			"0.002": 14.129663156,
			"0.003": 3.2903218064,
			"0.004": 1.61254478731,
			"0.005": 1.64909945389,
			"0.006": 1.64034300841,
			"0.007": 1.3276814777,
			"0.008": 1.24603692215,
			"0.009": 1.72219162158,
			"0.01": 1.26074082366,
			"0.011": 1.25901517792,
			"0.012": 1.60449791501,
			"0.013": 2.29265407806,
			"0.014": 5.41606639295,
			"0.015": 3.47765652539,
			"0.016": 0.397330415561,
			"0.017": 0.0,
			"0.018": 0.0,
			"0.019": 0.0,
			"0.02": 0.0,
			"0.021": 0.0,
			"0.022": 0.0,
			"0.023": 0.0,
			"0.024": 0.0,
			"0.025": 0.0
		}
	}
}
