{
	 "smiles": "OC(=O)C(Cl)(Cl)CCl", 
	 "Tm": 338.65, 
	 "num_atms": 11, 
	 "gaussian": { 
		 "optdone": 1, 
		 "sigma_profile": "yes", 
		 "theory": "DFT", 
		 "functional": "B3LYP", 
		 "basiset": "6-31G**", 
		 "properties": { 
			 "R2extent": 1579.553, 
			 "electric_dipole_moment_norm": 1.20111895331, 
			 "electric_quadrupole_moment_norm": 9.073361257, 
			 "total_energy": -1647.14560028, 
			 "HOMO_LUMO_gap": 0.24595, 
			 "cosmo_polarized_energy": -9.72, 
			 "cosmo_cavitation_energy": 20.43, 
			 "cosmo_dispersion_energy": -15.24, 
			 "cosmo_repulsion_energy": 1.27, 
			 "cosmo_total_nonelectrostatic_energy": 6.46, 
			 "SMD_solvation_energy": 3.87 
		},
		"coords": [
			{
				"x": -1.8897773821,
				"y": -0.9961778772,
				"z": 1.3969815633,
				"element": "O" 
			},
			{
				"x": -0.8953945719,
				"y": -0.110296759,
				"z": 1.2797105937,
				"element": "C" 
			},
			{
				"x": -0.8055435436,
				"y": 0.8591025841,
				"z": 1.9876046045,
				"element": "O" 
			},
			{
				"x": 0.1596484883,
				"y": -0.3891398835,
				"z": 0.1708054512,
				"element": "C" 
			},
			{
				"x": -0.708726436,
				"y": -0.4480881785,
				"z": -1.4193404918,
				"element": "Cl" 
			},
			{
				"x": 0.9074406416,
				"y": -2.0052353025,
				"z": 0.5100073256,
				"element": "Cl" 
			},
			{
				"x": 1.2112823486,
				"y": 0.719426211,
				"z": 0.1845449294,
				"element": "C" 
			},
			{
				"x": 2.4956730534,
				"y": 0.5238889194,
				"z": -1.0495184755,
				"element": "Cl" 
			},
			{
				"x": -1.8031673306,
				"y": -1.711200679,
				"z": 0.7464956182,
				"element": "H" 
			},
			{
				"x": 1.6833121321,
				"y": 0.7386701103,
				"z": 1.1660513837,
				"element": "H" 
			},
			{
				"x": 0.7139526003,
				"y": 1.6725508549,
				"z": 0.0091574977,
				"element": "H" 
			}
		],
		 "valence_orbital": [ 
			{
				"type": "occ",
				"energy": -0.34799,
				"method": "rhf"
			},
			{
				"type": "occ",
				"energy": -0.33442,
				"method": "rhf"
			},
			{
				"type": "occ",
				"energy": -0.32197,
				"method": "rhf"
			},
			{
				"type": "occ",
				"energy": -0.31456,
				"method": "rhf"
			},
			{
				"type": "occ",
				"energy": -0.305,
				"method": "rhf"
			},
			{
				"type": "unocc",
				"energy": -0.05905,
				"method": "rhf"
			},
			{
				"type": "unocc",
				"energy": -0.04959,
				"method": "rhf"
			},
			{
				"type": "unocc",
				"energy": 0.01515,
				"method": "rhf"
			},
			{
				"type": "unocc",
				"energy": 0.03492,
				"method": "rhf"
			},
			{
				"type": "unocc",
				"energy": 0.05208,
				"method": "rhf"
			}
		],
		"cosmo_sigma_profile": { 
			"-0.025": 0.0,
			"-0.024": 0.0,
			"-0.023": 0.0,
			"-0.022": 0.0,
			"-0.021": 0.0,
			"-0.02": 0.0110534316126,
			"-0.019": 0.386110062021,
			"-0.018": 0.906015245716,
			"-0.017": 0.624782169168,
			"-0.016": 0.287899219905,
			"-0.015": 0.495722528161,
			"-0.014": 0.993660313606,
			"-0.013": 0.954072275144,
			"-0.012": 0.665886344093,
			"-0.011": 0.708352979108,
			"-0.01": 3.57273025046,
			"-0.009": 5.18769575352,
			"-0.008": 3.51080995785,
			"-0.007": 4.73190527712,
			"-0.006": 3.96703335673,
			"-0.005": 5.11989451921,
			"-0.004": 6.71524506259,
			"-0.003": 8.8619262244,
			"-0.002": 9.16187706741,
			"-0.001": 9.93389895561,
			"0.0": 13.0469791878,
			"0.001": 13.8127389364,
			"0.002": 15.9693510624,
			"0.003": 14.4938165516,
			"0.004": 12.1988631761,
			"0.005": 12.2908423917,
			"0.006": 4.39520643801,
			"0.007": 4.05796530738,
			"0.008": 4.47465252482,
			"0.009": 3.99409263803,
			"0.01": 2.9893190774,
			"0.011": 0.477983523083,
			"0.012": 0.0,
			"0.013": 0.0,
			"0.014": 0.0,
			"0.015": 0.0,
			"0.016": 0.0,
			"0.017": 0.0,
			"0.018": 0.0,
			"0.019": 0.0,
			"0.02": 0.0,
			"0.021": 0.0,
			"0.022": 0.0,
			"0.023": 0.0,
			"0.024": 0.0,
			"0.025": 0.0
		}
	}
}
