{
	 "smiles": "CCC1=CC=C(C=C1)C(C(Cl)Cl)C1=CC=C(CC)C=C1", 
	 "Tm": 329.15, 
	 "num_atms": 40, 
	 "gaussian": { 
		 "optdone": 1, 
		 "sigma_profile": "yes", 
		 "theory": "DFT", 
		 "functional": "B3LYP", 
		 "basiset": "6-31G**", 
		 "properties": { 
			 "R2extent": 9152.5866, 
			 "electric_dipole_moment_norm": 2.76264762501, 
			 "electric_quadrupole_moment_norm": 14.8036155952, 
			 "total_energy": -1618.37692114, 
			 "HOMO_LUMO_gap": 0.21037, 
			 "cosmo_polarized_energy": -8.73, 
			 "cosmo_cavitation_energy": 45.35, 
			 "cosmo_dispersion_energy": -30.78, 
			 "cosmo_repulsion_energy": 2.44, 
			 "cosmo_total_nonelectrostatic_energy": 17.01, 
			 "SMD_solvation_energy": 6.65 
		},
		"coords": [
			{
				"x": 0.2572860516,
				"y": 1.2455597373,
				"z": 5.871753115,
				"element": "C" 
			},
			{
				"x": 1.3254115652,
				"y": 2.1399034816,
				"z": 5.2164670577,
				"element": "C" 
			},
			{
				"x": 1.3847346112,
				"y": 1.9792218379,
				"z": 3.7124472481,
				"element": "C" 
			},
			{
				"x": 0.6066763106,
				"y": 2.7769029332,
				"z": 2.8662965957,
				"element": "C" 
			},
			{
				"x": 0.6272344714,
				"y": 2.6098244514,
				"z": 1.4801987736,
				"element": "C" 
			},
			{
				"x": 1.4400521753,
				"y": 1.6334212688,
				"z": 0.8905272187,
				"element": "C" 
			},
			{
				"x": 2.224953733,
				"y": 0.8370392769,
				"z": 1.7374436728,
				"element": "C" 
			},
			{
				"x": 2.1975258255,
				"y": 1.00391079,
				"z": 3.1194260173,
				"element": "C" 
			},
			{
				"x": 1.5114303077,
				"y": 1.3458038122,
				"z": -0.6058844559,
				"element": "C" 
			},
			{
				"x": 1.3971619356,
				"y": 2.5402673556,
				"z": -1.579523765,
				"element": "C" 
			},
			{
				"x": -0.259147591,
				"y": 3.2590220656,
				"z": -1.7382561813,
				"element": "Cl" 
			},
			{
				"x": 2.6062108853,
				"y": 3.8293663098,
				"z": -1.1984276355,
				"element": "Cl" 
			},
			{
				"x": 0.5916080836,
				"y": 0.212275029,
				"z": -1.0671279043,
				"element": "C" 
			},
			{
				"x": 1.0161342705,
				"y": -0.6435554229,
				"z": -2.0918642459,
				"element": "C" 
			},
			{
				"x": 0.1948323614,
				"y": -1.6694679641,
				"z": -2.5574131345,
				"element": "C" 
			},
			{
				"x": -1.0775783055,
				"y": -1.8777072797,
				"z": -2.010461349,
				"element": "C" 
			},
			{
				"x": -1.9536389986,
				"y": -3.0189233567,
				"z": -2.4813342475,
				"element": "C" 
			},
			{
				"x": -1.7323007282,
				"y": -4.3138324717,
				"z": -1.678549036,
				"element": "C" 
			},
			{
				"x": -1.4959512506,
				"y": -1.0217227607,
				"z": -0.9826961083,
				"element": "C" 
			},
			{
				"x": -0.6781655368,
				"y": 0.0056589074,
				"z": -0.5156134373,
				"element": "C" 
			},
			{
				"x": 0.452520064,
				"y": 0.1876936841,
				"z": 5.6677432625,
				"element": "H" 
			},
			{
				"x": 0.2413484426,
				"y": 1.384902218,
				"z": 6.9578680064,
				"element": "H" 
			},
			{
				"x": -0.7399660302,
				"y": 1.4785391281,
				"z": 5.484538218,
				"element": "H" 
			},
			{
				"x": 1.1193893685,
				"y": 3.1880106815,
				"z": 5.4641156714,
				"element": "H" 
			},
			{
				"x": 2.3058497201,
				"y": 1.9051657769,
				"z": 5.6481592703,
				"element": "H" 
			},
			{
				"x": -0.0255645463,
				"y": 3.5511678939,
				"z": 3.2949565763,
				"element": "H" 
			},
			{
				"x": 0.0156700953,
				"y": 3.257890566,
				"z": 0.864566885,
				"element": "H" 
			},
			{
				"x": 2.8701171105,
				"y": 0.0751509987,
				"z": 1.3060072852,
				"element": "H" 
			},
			{
				"x": 2.8245772834,
				"y": 0.3742917695,
				"z": 3.7465791763,
				"element": "H" 
			},
			{
				"x": 2.5370287984,
				"y": 1.0025527792,
				"z": -0.7956855175,
				"element": "H" 
			},
			{
				"x": 1.6373976158,
				"y": 2.2014006538,
				"z": -2.5847822085,
				"element": "H" 
			},
			{
				"x": 2.003216455,
				"y": -0.5099817539,
				"z": -2.5305713597,
				"element": "H" 
			},
			{
				"x": 0.5489269358,
				"y": -2.3194646067,
				"z": -3.3542251718,
				"element": "H" 
			},
			{
				"x": -3.0073148098,
				"y": -2.7245198179,
				"z": -2.406893891,
				"element": "H" 
			},
			{
				"x": -1.759401392,
				"y": -3.2148348693,
				"z": -3.5426164505,
				"element": "H" 
			},
			{
				"x": -2.3811712061,
				"y": -5.1169022679,
				"z": -2.0435225625,
				"element": "H" 
			},
			{
				"x": -1.9482751321,
				"y": -4.1585290578,
				"z": -0.6165392254,
				"element": "H" 
			},
			{
				"x": -0.6942388266,
				"y": -4.6525170603,
				"z": -1.7589739398,
				"element": "H" 
			},
			{
				"x": -2.4799891399,
				"y": -1.1606928258,
				"z": -0.5408474802,
				"element": "H" 
			},
			{
				"x": -1.0262909838,
				"y": 0.6486081089,
				"z": 0.2860152572,
				"element": "H" 
			}
		],
		 "valence_orbital": [ 
			{
				"type": "occ",
				"energy": -0.29514,
				"method": "rhf"
			},
			{
				"type": "occ",
				"energy": -0.25196,
				"method": "rhf"
			},
			{
				"type": "occ",
				"energy": -0.24839,
				"method": "rhf"
			},
			{
				"type": "occ",
				"energy": -0.24438,
				"method": "rhf"
			},
			{
				"type": "occ",
				"energy": -0.23093,
				"method": "rhf"
			},
			{
				"type": "unocc",
				"energy": -0.02056,
				"method": "rhf"
			},
			{
				"type": "unocc",
				"energy": -0.00859,
				"method": "rhf"
			},
			{
				"type": "unocc",
				"energy": -0.00251,
				"method": "rhf"
			},
			{
				"type": "unocc",
				"energy": 0.00226,
				"method": "rhf"
			},
			{
				"type": "unocc",
				"energy": 0.00964,
				"method": "rhf"
			}
		],
		"cosmo_sigma_profile": { 
			"-0.025": 0.0,
			"-0.024": 0.0,
			"-0.023": 0.0,
			"-0.022": 0.0,
			"-0.021": 0.0,
			"-0.02": 0.0,
			"-0.019": 0.0,
			"-0.018": 0.0,
			"-0.017": 0.0,
			"-0.016": 0.0,
			"-0.015": 0.0,
			"-0.014": 0.0,
			"-0.013": 0.0,
			"-0.012": 0.0,
			"-0.011": 0.0,
			"-0.01": 1.01412659687,
			"-0.009": 3.0211907735,
			"-0.008": 2.9310571909,
			"-0.007": 4.21462097472,
			"-0.006": 7.18504012877,
			"-0.005": 13.704747552,
			"-0.004": 21.9452481486,
			"-0.003": 35.5098372237,
			"-0.002": 37.2827773481,
			"-0.001": 38.6828272739,
			"0.0": 40.9512531209,
			"0.001": 36.7224678078,
			"0.002": 23.4053717309,
			"0.003": 21.3455249966,
			"0.004": 26.2736101539,
			"0.005": 29.7352943637,
			"0.006": 16.2651656361,
			"0.007": 1.52043544886,
			"0.008": 0.0,
			"0.009": 0.0,
			"0.01": 0.0,
			"0.011": 0.0,
			"0.012": 0.0,
			"0.013": 0.0,
			"0.014": 0.0,
			"0.015": 0.0,
			"0.016": 0.0,
			"0.017": 0.0,
			"0.018": 0.0,
			"0.019": 0.0,
			"0.02": 0.0,
			"0.021": 0.0,
			"0.022": 0.0,
			"0.023": 0.0,
			"0.024": 0.0,
			"0.025": 0.0
		}
	}
}
