{
	 "smiles": "CN(C)C(=O)C1=CC(N)=C(C)C=C1", 
	 "Tm": 371.15, 
	 "num_atms": 27, 
	 "gaussian": { 
		 "optdone": 1, 
		 "sigma_profile": "yes", 
		 "theory": "DFT", 
		 "functional": "B3LYP", 
		 "basiset": "6-31G**", 
		 "properties": { 
			 "R2extent": 3312.2742, 
			 "electric_dipole_moment_norm": 3.99449023531, 
			 "electric_quadrupole_moment_norm": 18.2756723953, 
			 "total_energy": -574.248955494, 
			 "HOMO_LUMO_gap": 0.18591, 
			 "cosmo_polarized_energy": -14.63, 
			 "cosmo_cavitation_energy": 29.56, 
			 "cosmo_dispersion_energy": -21.45, 
			 "cosmo_repulsion_energy": 1.71, 
			 "cosmo_total_nonelectrostatic_energy": 9.82, 
			 "SMD_solvation_energy": 5.53 
		},
		"coords": [
			{
				"x": -4.2596517986,
				"y": -0.5578648238,
				"z": -0.1593762575,
				"element": "C" 
			},
			{
				"x": -2.8398446441,
				"y": -0.4227719455,
				"z": 0.1369819355,
				"element": "N" 
			},
			{
				"x": -2.5104156929,
				"y": 0.646904909,
				"z": 1.0686439918,
				"element": "C" 
			},
			{
				"x": -1.9459731699,
				"y": -1.0192864065,
				"z": -0.7307498271,
				"element": "C" 
			},
			{
				"x": -2.3259038351,
				"y": -1.5867531676,
				"z": -1.7540653141,
				"element": "O" 
			},
			{
				"x": -0.4826251709,
				"y": -1.0133416822,
				"z": -0.3759021874,
				"element": "C" 
			},
			{
				"x": 0.4273259439,
				"y": -0.8710076757,
				"z": -1.4265251902,
				"element": "C" 
			},
			{
				"x": 1.8090735986,
				"y": -0.9302257352,
				"z": -1.2054747288,
				"element": "C" 
			},
			{
				"x": 2.6996072529,
				"y": -0.8286014662,
				"z": -2.2775426718,
				"element": "N" 
			},
			{
				"x": 2.2961645108,
				"y": -1.1652165605,
				"z": 0.1027681281,
				"element": "C" 
			},
			{
				"x": 3.7797377013,
				"y": -1.2593426204,
				"z": 0.3539178573,
				"element": "C" 
			},
			{
				"x": 1.3716799299,
				"y": -1.3292668921,
				"z": 1.1363057667,
				"element": "C" 
			},
			{
				"x": -0.0041442837,
				"y": -1.2532112816,
				"z": 0.9187756089,
				"element": "C" 
			},
			{
				"x": -4.6447606515,
				"y": 0.3207936827,
				"z": -0.6962880885,
				"element": "H" 
			},
			{
				"x": -4.4091672536,
				"y": -1.4368034742,
				"z": -0.7837971619,
				"element": "H" 
			},
			{
				"x": -4.8196688688,
				"y": -0.6616995601,
				"z": 0.7767214464,
				"element": "H" 
			},
			{
				"x": -1.4362959217,
				"y": 0.8159101165,
				"z": 1.0993225615,
				"element": "H" 
			},
			{
				"x": -2.8578637558,
				"y": 0.407937316,
				"z": 2.0820569865,
				"element": "H" 
			},
			{
				"x": -2.9992718459,
				"y": 1.5811384654,
				"z": 0.7579275904,
				"element": "H" 
			},
			{
				"x": 0.0416643348,
				"y": -0.7309932868,
				"z": -2.4323511991,
				"element": "H" 
			},
			{
				"x": 3.6059845475,
				"y": -0.4383224645,
				"z": -2.0612167857,
				"element": "H" 
			},
			{
				"x": 2.3066758847,
				"y": -0.4269840654,
				"z": -3.1175730398,
				"element": "H" 
			},
			{
				"x": 4.2958665057,
				"y": -0.3122374102,
				"z": 0.1391790999,
				"element": "H" 
			},
			{
				"x": 4.2438185915,
				"y": -2.026377765,
				"z": -0.278498146,
				"element": "H" 
			},
			{
				"x": 3.9877615881,
				"y": -1.5098695429,
				"z": 1.3970718039,
				"element": "H" 
			},
			{
				"x": 1.7428415302,
				"y": -1.5308360786,
				"z": 2.1383767869,
				"element": "H" 
			},
			{
				"x": -0.6943150271,
				"y": -1.4110705844,
				"z": 1.7408110342,
				"element": "H" 
			}
		],
		 "valence_orbital": [ 
			{
				"type": "occ",
				"energy": -0.30516,
				"method": "rhf"
			},
			{
				"type": "occ",
				"energy": -0.25109,
				"method": "rhf"
			},
			{
				"type": "occ",
				"energy": -0.23381,
				"method": "rhf"
			},
			{
				"type": "occ",
				"energy": -0.22517,
				"method": "rhf"
			},
			{
				"type": "occ",
				"energy": -0.20221,
				"method": "rhf"
			},
			{
				"type": "unocc",
				"energy": -0.0163,
				"method": "rhf"
			},
			{
				"type": "unocc",
				"energy": 0.01368,
				"method": "rhf"
			},
			{
				"type": "unocc",
				"energy": 0.06242,
				"method": "rhf"
			},
			{
				"type": "unocc",
				"energy": 0.07541,
				"method": "rhf"
			},
			{
				"type": "unocc",
				"energy": 0.09424,
				"method": "rhf"
			}
		],
		"cosmo_sigma_profile": { 
			"-0.025": 0.0,
			"-0.024": 0.0,
			"-0.023": 0.0,
			"-0.022": 0.0,
			"-0.021": 0.0,
			"-0.02": 0.0,
			"-0.019": 0.0,
			"-0.018": 0.0,
			"-0.017": 0.0,
			"-0.016": 0.0,
			"-0.015": 0.0,
			"-0.014": 0.0,
			"-0.013": 0.0850565142768,
			"-0.012": 1.87400163549,
			"-0.011": 2.01681214676,
			"-0.01": 3.30036689689,
			"-0.009": 3.2091852394,
			"-0.008": 3.20465205637,
			"-0.007": 2.58416462869,
			"-0.006": 3.4959175565,
			"-0.005": 11.7972046238,
			"-0.004": 24.7084839997,
			"-0.003": 25.7312750959,
			"-0.002": 27.7791995976,
			"-0.001": 22.4478924129,
			"0.0": 16.7353124933,
			"0.001": 12.1641892288,
			"0.002": 10.2300296766,
			"0.003": 8.29930956021,
			"0.004": 7.78732024231,
			"0.005": 10.296827074,
			"0.006": 9.4519547465,
			"0.007": 2.75457449143,
			"0.008": 2.49959676654,
			"0.009": 2.3377359078,
			"0.01": 2.70749122846,
			"0.011": 2.30481854044,
			"0.012": 2.13188161341,
			"0.013": 3.24200575774,
			"0.014": 5.58720134328,
			"0.015": 1.73453457737,
			"0.016": 0.0598478735578,
			"0.017": 0.0,
			"0.018": 0.0,
			"0.019": 0.0,
			"0.02": 0.0,
			"0.021": 0.0,
			"0.022": 0.0,
			"0.023": 0.0,
			"0.024": 0.0,
			"0.025": 0.0
		}
	}
}
