{
	 "smiles": "CC(C)(C)OC(=O)NC(CC1=CC=C(C=C1)C#N)C(O)=O", 
	 "Tm": 426.15, 
	 "num_atms": 39, 
	 "gaussian": { 
		 "optdone": 1, 
		 "sigma_profile": "yes", 
		 "theory": "DFT", 
		 "functional": "B3LYP", 
		 "basiset": "6-31G**", 
		 "properties": { 
			 "R2extent": 7762.8349, 
			 "electric_dipole_moment_norm": 4.2374265504, 
			 "electric_quadrupole_moment_norm": 45.7041249241, 
			 "total_energy": -992.880914526, 
			 "HOMO_LUMO_gap": 0.20302, 
			 "cosmo_polarized_energy": -25.03, 
			 "cosmo_cavitation_energy": 43.66, 
			 "cosmo_dispersion_energy": -28.1, 
			 "cosmo_repulsion_energy": 2.17, 
			 "cosmo_total_nonelectrostatic_energy": 17.73, 
			 "SMD_solvation_energy": 10.28 
		},
		"coords": [
			{
				"x": -0.0670363966,
				"y": 1.9501875629,
				"z": 3.4585344186,
				"element": "C" 
			},
			{
				"x": 0.9537518415,
				"y": 1.1020372749,
				"z": 2.6949108113,
				"element": "C" 
			},
			{
				"x": 0.9087932191,
				"y": -0.373521727,
				"z": 3.102015229,
				"element": "C" 
			},
			{
				"x": 2.3656790448,
				"y": 1.6705302732,
				"z": 2.8481482305,
				"element": "C" 
			},
			{
				"x": 0.7175178744,
				"y": 1.2268997961,
				"z": 1.238062315,
				"element": "O" 
			},
			{
				"x": -0.4488054139,
				"y": 0.8461825324,
				"z": 0.6878707722,
				"element": "C" 
			},
			{
				"x": -1.3994315373,
				"y": 0.3303085931,
				"z": 1.2479544167,
				"element": "O" 
			},
			{
				"x": -0.4458667576,
				"y": 1.1709479402,
				"z": -0.6630501133,
				"element": "N" 
			},
			{
				"x": -1.4254258301,
				"y": 0.5650438828,
				"z": -1.5708200337,
				"element": "C" 
			},
			{
				"x": -1.46099049,
				"y": -0.9795154182,
				"z": -1.5862467151,
				"element": "C" 
			},
			{
				"x": -0.1578144177,
				"y": -1.5894059449,
				"z": -2.0457074509,
				"element": "C" 
			},
			{
				"x": 0.1580582652,
				"y": -1.660968376,
				"z": -3.4121156632,
				"element": "C" 
			},
			{
				"x": 1.3681221056,
				"y": -2.1915346649,
				"z": -3.8455477994,
				"element": "C" 
			},
			{
				"x": 2.2981833588,
				"y": -2.6693159466,
				"z": -2.9059866026,
				"element": "C" 
			},
			{
				"x": 1.9925253525,
				"y": -2.6113026293,
				"z": -1.5366848132,
				"element": "C" 
			},
			{
				"x": 0.7769620404,
				"y": -2.0756818797,
				"z": -1.1200020906,
				"element": "C" 
			},
			{
				"x": 3.5496261151,
				"y": -3.2158394126,
				"z": -3.3432027287,
				"element": "C" 
			},
			{
				"x": 4.5670895745,
				"y": -3.6552428829,
				"z": -3.6970353325,
				"element": "N" 
			},
			{
				"x": -2.8401028497,
				"y": 1.1462266815,
				"z": -1.3435753941,
				"element": "C" 
			},
			{
				"x": -2.8694337338,
				"y": 2.3882594548,
				"z": -0.8277781353,
				"element": "O" 
			},
			{
				"x": -3.841241667,
				"y": 0.5683403477,
				"z": -1.6857739221,
				"element": "O" 
			},
			{
				"x": -0.0369636284,
				"y": 2.9878861109,
				"z": 3.1116863258,
				"element": "H" 
			},
			{
				"x": 0.1796030858,
				"y": 1.9436852366,
				"z": 4.5248621007,
				"element": "H" 
			},
			{
				"x": -1.0780393823,
				"y": 1.5615556586,
				"z": 3.3320011332,
				"element": "H" 
			},
			{
				"x": 1.6153458174,
				"y": -0.9558102657,
				"z": 2.5016927436,
				"element": "H" 
			},
			{
				"x": -0.0927106941,
				"y": -0.7865587603,
				"z": 2.9778912331,
				"element": "H" 
			},
			{
				"x": 1.2001607988,
				"y": -0.470913556,
				"z": 4.1525473382,
				"element": "H" 
			},
			{
				"x": 2.4033109246,
				"y": 2.7106667364,
				"z": 2.5121479953,
				"element": "H" 
			},
			{
				"x": 2.6697481008,
				"y": 1.6350937726,
				"z": 3.8981784259,
				"element": "H" 
			},
			{
				"x": 3.0833527512,
				"y": 1.0908514658,
				"z": 2.2605327167,
				"element": "H" 
			},
			{
				"x": 0.4696609307,
				"y": 1.3722360733,
				"z": -1.0429496419,
				"element": "H" 
			},
			{
				"x": -1.1386132708,
				"y": 0.9135383499,
				"z": -2.5715175352,
				"element": "H" 
			},
			{
				"x": -1.7228882144,
				"y": -1.3277242345,
				"z": -0.5848611061,
				"element": "H" 
			},
			{
				"x": -2.2807350317,
				"y": -1.2642809505,
				"z": -2.2508589587,
				"element": "H" 
			},
			{
				"x": -0.5598596603,
				"y": -1.3052817949,
				"z": -4.1470058009,
				"element": "H" 
			},
			{
				"x": 1.5992104463,
				"y": -2.2462969238,
				"z": -4.9041795841,
				"element": "H" 
			},
			{
				"x": 2.7061732729,
				"y": -2.9887510181,
				"z": -0.8118384924,
				"element": "H" 
			},
			{
				"x": 0.5420983732,
				"y": -2.0454921375,
				"z": -0.0597379967,
				"element": "H" 
			},
			{
				"x": -1.9580143176,
				"y": 2.6291607797,
				"z": -0.5861602951,
				"element": "H" 
			}
		],
		 "valence_orbital": [ 
			{
				"type": "occ",
				"energy": -0.30709,
				"method": "rhf"
			},
			{
				"type": "occ",
				"energy": -0.29086,
				"method": "rhf"
			},
			{
				"type": "occ",
				"energy": -0.28256,
				"method": "rhf"
			},
			{
				"type": "occ",
				"energy": -0.27535,
				"method": "rhf"
			},
			{
				"type": "occ",
				"energy": -0.2606,
				"method": "rhf"
			},
			{
				"type": "unocc",
				"energy": -0.05758,
				"method": "rhf"
			},
			{
				"type": "unocc",
				"energy": -0.03277,
				"method": "rhf"
			},
			{
				"type": "unocc",
				"energy": 0.00275,
				"method": "rhf"
			},
			{
				"type": "unocc",
				"energy": 0.01814,
				"method": "rhf"
			},
			{
				"type": "unocc",
				"energy": 0.03287,
				"method": "rhf"
			}
		],
		"cosmo_sigma_profile": { 
			"-0.025": 0.0,
			"-0.024": 0.0,
			"-0.023": 0.0,
			"-0.022": 0.0,
			"-0.021": 0.0,
			"-0.02": 0.0,
			"-0.019": 0.0,
			"-0.018": 0.0,
			"-0.017": 0.0,
			"-0.016": 0.0,
			"-0.015": 0.923161811602,
			"-0.014": 2.10874641095,
			"-0.013": 2.0591924796,
			"-0.012": 1.19251592587,
			"-0.011": 2.30175401126,
			"-0.01": 4.06153145626,
			"-0.009": 5.26240772946,
			"-0.008": 6.86565569824,
			"-0.007": 11.4177426459,
			"-0.006": 10.6757265219,
			"-0.005": 14.964346417,
			"-0.004": 27.46090835,
			"-0.003": 29.421006516,
			"-0.002": 26.6834397683,
			"-0.001": 30.7055559454,
			"0.0": 36.9239989508,
			"0.001": 21.871187809,
			"0.002": 18.1331230489,
			"0.003": 12.5491195673,
			"0.004": 7.76965397167,
			"0.005": 9.21034722147,
			"0.006": 8.29702648695,
			"0.007": 8.54740593,
			"0.008": 7.43327038194,
			"0.009": 8.55841611812,
			"0.01": 10.0025295539,
			"0.011": 8.91717205557,
			"0.012": 8.09906081067,
			"0.013": 2.68724334821,
			"0.014": 0.110389009651,
			"0.015": 0.0,
			"0.016": 0.0,
			"0.017": 0.0,
			"0.018": 0.0,
			"0.019": 0.0,
			"0.02": 0.0,
			"0.021": 0.0,
			"0.022": 0.0,
			"0.023": 0.0,
			"0.024": 0.0,
			"0.025": 0.0
		}
	}
}
