{
	 "smiles": "CCNC1=C(N)C=C(C=C1)S(=O)(=O)C(F)F", 
	 "Tm": 389.15, 
	 "num_atms": 28, 
	 "gaussian": { 
		 "optdone": 1, 
		 "sigma_profile": "yes", 
		 "theory": "DFT", 
		 "functional": "B3LYP", 
		 "basiset": "6-31G**", 
		 "properties": { 
			 "R2extent": 5379.7674, 
			 "electric_dipole_moment_norm": 6.87096674712, 
			 "electric_quadrupole_moment_norm": 20.3058224022, 
			 "total_energy": -1207.91557096, 
			 "HOMO_LUMO_gap": 0.17946, 
			 "cosmo_polarized_energy": -19.88, 
			 "cosmo_cavitation_energy": 33.79, 
			 "cosmo_dispersion_energy": -23.97, 
			 "cosmo_repulsion_energy": 1.82, 
			 "cosmo_total_nonelectrostatic_energy": 11.64, 
			 "SMD_solvation_energy": 4.89 
		},
		"coords": [
			{
				"x": 1.3555145705,
				"y": -4.0913584056,
				"z": -0.6927755565,
				"element": "C" 
			},
			{
				"x": 0.1411656425,
				"y": -3.7305242607,
				"z": 0.1594733549,
				"element": "C" 
			},
			{
				"x": -0.8124106229,
				"y": -2.8620910254,
				"z": -0.5668066407,
				"element": "N" 
			},
			{
				"x": -0.4348392977,
				"y": -1.4920673563,
				"z": -0.7215607228,
				"element": "C" 
			},
			{
				"x": -0.6332713714,
				"y": -0.5372238547,
				"z": 0.3132794985,
				"element": "C" 
			},
			{
				"x": -1.1466593625,
				"y": -0.9156311022,
				"z": 1.5475328207,
				"element": "N" 
			},
			{
				"x": -0.255654352,
				"y": 0.7949025084,
				"z": 0.0886246245,
				"element": "C" 
			},
			{
				"x": 0.3172455961,
				"y": 1.1546557644,
				"z": -1.129360104,
				"element": "C" 
			},
			{
				"x": 0.5278912283,
				"y": 0.2332027717,
				"z": -2.1559033654,
				"element": "C" 
			},
			{
				"x": 0.1334303849,
				"y": -1.085260107,
				"z": -1.9321435084,
				"element": "C" 
			},
			{
				"x": 0.8083341588,
				"y": 2.8572141268,
				"z": -1.3729260756,
				"element": "S" 
			},
			{
				"x": 0.9730399356,
				"y": 3.1049504032,
				"z": -2.8121800686,
				"element": "O" 
			},
			{
				"x": -0.0111997395,
				"y": 3.7239652139,
				"z": -0.5177035352,
				"element": "O" 
			},
			{
				"x": 2.540668565,
				"y": 2.8736912331,
				"z": -0.6729501774,
				"element": "C" 
			},
			{
				"x": 2.9810688337,
				"y": 4.1436562738,
				"z": -0.728487678,
				"element": "F" 
			},
			{
				"x": 2.4911604134,
				"y": 2.4696120708,
				"z": 0.6151138688,
				"element": "F" 
			},
			{
				"x": 1.0445820999,
				"y": -4.5913808223,
				"z": -1.6148947343,
				"element": "H" 
			},
			{
				"x": 2.0211340264,
				"y": -4.7609978558,
				"z": -0.1382416714,
				"element": "H" 
			},
			{
				"x": 1.9298768809,
				"y": -3.2003219015,
				"z": -0.9634483168,
				"element": "H" 
			},
			{
				"x": 0.4773734331,
				"y": -3.2766136025,
				"z": 1.1055473906,
				"element": "H" 
			},
			{
				"x": -0.4054478624,
				"y": -4.644503614,
				"z": 0.4177099456,
				"element": "H" 
			},
			{
				"x": -1.741355132,
				"y": -2.9448288667,
				"z": -0.163661704,
				"element": "H" 
			},
			{
				"x": -1.6506913973,
				"y": -1.7885436007,
				"z": 1.5805686944,
				"element": "H" 
			},
			{
				"x": -1.5776806275,
				"y": -0.1843815433,
				"z": 2.0942152133,
				"element": "H" 
			},
			{
				"x": -0.4091093957,
				"y": 1.5475284811,
				"z": 0.855312649,
				"element": "H" 
			},
			{
				"x": 0.9440865828,
				"y": 0.5510407039,
				"z": -3.1045707629,
				"element": "H" 
			},
			{
				"x": 0.2379026466,
				"y": -1.833271969,
				"z": -2.7109478525,
				"element": "H" 
			},
			{
				"x": 3.1864441624,
				"y": 2.2124803367,
				"z": -1.2612155857,
				"element": "H" 
			}
		],
		 "valence_orbital": [ 
			{
				"type": "occ",
				"energy": -0.30583,
				"method": "rhf"
			},
			{
				"type": "occ",
				"energy": -0.28662,
				"method": "rhf"
			},
			{
				"type": "occ",
				"energy": -0.27668,
				"method": "rhf"
			},
			{
				"type": "occ",
				"energy": -0.247,
				"method": "rhf"
			},
			{
				"type": "occ",
				"energy": -0.22297,
				"method": "rhf"
			},
			{
				"type": "unocc",
				"energy": -0.04351,
				"method": "rhf"
			},
			{
				"type": "unocc",
				"energy": -0.01051,
				"method": "rhf"
			},
			{
				"type": "unocc",
				"energy": 0.04225,
				"method": "rhf"
			},
			{
				"type": "unocc",
				"energy": 0.05276,
				"method": "rhf"
			},
			{
				"type": "unocc",
				"energy": 0.06592,
				"method": "rhf"
			}
		],
		"cosmo_sigma_profile": { 
			"-0.025": 0.0,
			"-0.024": 0.0,
			"-0.023": 0.0,
			"-0.022": 0.0,
			"-0.021": 0.0,
			"-0.02": 0.0,
			"-0.019": 0.0,
			"-0.018": 0.0,
			"-0.017": 0.0,
			"-0.016": 0.0190828435392,
			"-0.015": 0.80353031862,
			"-0.014": 1.64023527163,
			"-0.013": 2.97894477199,
			"-0.012": 4.62280977265,
			"-0.011": 8.66088719242,
			"-0.01": 4.19727787394,
			"-0.009": 4.68208503937,
			"-0.008": 4.87953899277,
			"-0.007": 4.17933171934,
			"-0.006": 6.55213089341,
			"-0.005": 9.1207641618,
			"-0.004": 9.84923224281,
			"-0.003": 12.6443062616,
			"-0.002": 17.5285662653,
			"-0.001": 22.0065683353,
			"0.0": 19.9810956163,
			"0.001": 22.6967399203,
			"0.002": 32.8227490331,
			"0.003": 23.6195857573,
			"0.004": 8.13745469629,
			"0.005": 4.50970179037,
			"0.006": 5.04880146278,
			"0.007": 4.25288178099,
			"0.008": 4.54148816216,
			"0.009": 6.43590211206,
			"0.01": 10.3416603073,
			"0.011": 7.98577284274,
			"0.012": 1.2126282503,
			"0.013": 0.675351072625,
			"0.014": 0.381194884308,
			"0.015": 0.341847973846,
			"0.016": 0.00282048384133,
			"0.017": 0.0,
			"0.018": 0.0,
			"0.019": 0.0,
			"0.02": 0.0,
			"0.021": 0.0,
			"0.022": 0.0,
			"0.023": 0.0,
			"0.024": 0.0,
			"0.025": 0.0
		}
	}
}
