{
	 "smiles": "COC1=C(F)C=C(CBr)C=C1F", 
	 "Tm": 314.15, 
	 "num_atms": 19, 
	 "gaussian": { 
		 "optdone": 1, 
		 "sigma_profile": "yes", 
		 "theory": "DFT", 
		 "functional": "B3LYP", 
		 "basiset": "6-31G**", 
		 "properties": { 
			 "R2extent": 6106.5964, 
			 "electric_dipole_moment_norm": 1.71272614273, 
			 "electric_quadrupole_moment_norm": 11.8907193172, 
			 "total_energy": -3155.34612236, 
			 "HOMO_LUMO_gap": 0.19027, 
			 "cosmo_polarized_energy": -7.7, 
			 "cosmo_cavitation_energy": 26.56, 
			 "cosmo_dispersion_energy": -19.36, 
			 "cosmo_repulsion_energy": 1.53, 
			 "cosmo_total_nonelectrostatic_energy": 8.72, 
			 "SMD_solvation_energy": 5.04 
		},
		"coords": [
			{
				"x": 0.4250826583,
				"y": -1.8902268467,
				"z": 1.1643659484,
				"element": "C" 
			},
			{
				"x": 1.2310341563,
				"y": -1.0596680761,
				"z": 0.3193659386,
				"element": "O" 
			},
			{
				"x": 0.8671418201,
				"y": 0.229285181,
				"z": 0.1159109421,
				"element": "C" 
			},
			{
				"x": -0.4405569372,
				"y": 0.7267220246,
				"z": 0.0225541086,
				"element": "C" 
			},
			{
				"x": -1.4801758463,
				"y": -0.1286556961,
				"z": 0.1601580538,
				"element": "F" 
			},
			{
				"x": -0.7152798802,
				"y": 2.0658748871,
				"z": -0.2177622959,
				"element": "C" 
			},
			{
				"x": 0.3330792889,
				"y": 2.9734957325,
				"z": -0.4013194084,
				"element": "C" 
			},
			{
				"x": 0.0509098025,
				"y": 4.4120034505,
				"z": -0.6769052424,
				"element": "C" 
			},
			{
				"x": -0.0496986295,
				"y": 5.5090012966,
				"z": 1.0042998994,
				"element": "Br" 
			},
			{
				"x": 1.6530889598,
				"y": 2.5064456622,
				"z": -0.3312381558,
				"element": "C" 
			},
			{
				"x": 1.896754518,
				"y": 1.1679641207,
				"z": -0.0742597394,
				"element": "C" 
			},
			{
				"x": 3.1634712587,
				"y": 0.7271220662,
				"z": -0.0037572401,
				"element": "F" 
			},
			{
				"x": 0.157159243,
				"y": -1.3681724815,
				"z": 2.0893643465,
				"element": "H" 
			},
			{
				"x": -0.4840318534,
				"y": -2.2200087562,
				"z": 0.6570932035,
				"element": "H" 
			},
			{
				"x": 1.0502476071,
				"y": -2.7522672454,
				"z": 1.4020843937,
				"element": "H" 
			},
			{
				"x": -1.7527213023,
				"y": 2.379485611,
				"z": -0.2662906513,
				"element": "H" 
			},
			{
				"x": 0.8362030597,
				"y": 4.8906952249,
				"z": -1.2584110729,
				"element": "H" 
			},
			{
				"x": -0.9149116649,
				"y": 4.5674504671,
				"z": -1.1533854112,
				"element": "H" 
			},
			{
				"x": 2.4982037415,
				"y": 3.1747533777,
				"z": -0.4571676172,
				"element": "H" 
			}
		],
		 "valence_orbital": [ 
			{
				"type": "occ",
				"energy": -0.31788,
				"method": "rhf"
			},
			{
				"type": "occ",
				"energy": -0.27492,
				"method": "rhf"
			},
			{
				"type": "occ",
				"energy": -0.2738,
				"method": "rhf"
			},
			{
				"type": "occ",
				"energy": -0.2562,
				"method": "rhf"
			},
			{
				"type": "occ",
				"energy": -0.23372,
				"method": "rhf"
			},
			{
				"type": "unocc",
				"energy": -0.04345,
				"method": "rhf"
			},
			{
				"type": "unocc",
				"energy": -0.01031,
				"method": "rhf"
			},
			{
				"type": "unocc",
				"energy": 0.02585,
				"method": "rhf"
			},
			{
				"type": "unocc",
				"energy": 0.05398,
				"method": "rhf"
			},
			{
				"type": "unocc",
				"energy": 0.10089,
				"method": "rhf"
			}
		],
		"cosmo_sigma_profile": { 
			"-0.025": 0.0,
			"-0.024": 0.0,
			"-0.023": 0.0,
			"-0.022": 0.0,
			"-0.021": 0.0,
			"-0.02": 0.0,
			"-0.019": 0.0,
			"-0.018": 0.0,
			"-0.017": 0.0,
			"-0.016": 0.0,
			"-0.015": 0.0,
			"-0.014": 0.0,
			"-0.013": 0.0,
			"-0.012": 0.0,
			"-0.011": 0.0,
			"-0.01": 0.0,
			"-0.009": 0.516471049883,
			"-0.008": 8.57054959471,
			"-0.007": 8.08334423154,
			"-0.006": 10.7642968245,
			"-0.005": 12.6894413741,
			"-0.004": 13.9950213544,
			"-0.003": 13.0258086292,
			"-0.002": 11.4732760591,
			"-0.001": 13.5097585761,
			"0.0": 20.5998725102,
			"0.001": 17.3162882365,
			"0.002": 14.4489335824,
			"0.003": 16.955648708,
			"0.004": 20.2976877431,
			"0.005": 9.37240551802,
			"0.006": 13.8579280176,
			"0.007": 5.48837267562,
			"0.008": 1.74497706105,
			"0.009": 1.9519708831,
			"0.01": 0.97403442399,
			"0.011": 0.0,
			"0.012": 0.0,
			"0.013": 0.0,
			"0.014": 0.0,
			"0.015": 0.0,
			"0.016": 0.0,
			"0.017": 0.0,
			"0.018": 0.0,
			"0.019": 0.0,
			"0.02": 0.0,
			"0.021": 0.0,
			"0.022": 0.0,
			"0.023": 0.0,
			"0.024": 0.0,
			"0.025": 0.0
		}
	}
}
