{
	 "smiles": "CCN1C(=O)NC2=C(C=CC(=C2)C(O)=O)C1=O", 
	 "Tm": 621.15, 
	 "num_atms": 27, 
	 "gaussian": { 
		 "optdone": 1, 
		 "sigma_profile": "yes", 
		 "theory": "DFT", 
		 "functional": "B3LYP", 
		 "basiset": "6-31G**", 
		 "properties": { 
			 "R2extent": 5547.1428, 
			 "electric_dipole_moment_norm": 2.73390877682, 
			 "electric_quadrupole_moment_norm": 19.6666007065, 
			 "total_energy": -835.677068167, 
			 "HOMO_LUMO_gap": 0.16317, 
			 "cosmo_polarized_energy": -18.37, 
			 "cosmo_cavitation_energy": 31.9, 
			 "cosmo_dispersion_energy": -23.31, 
			 "cosmo_repulsion_energy": 1.77, 
			 "cosmo_total_nonelectrostatic_energy": 10.36, 
			 "SMD_solvation_energy": 7.73 
		},
		"coords": [
			{
				"x": 1.2839248785,
				"y": -3.8828394495,
				"z": 0.7095236625,
				"element": "C" 
			},
			{
				"x": 1.2585110076,
				"y": -2.7776446267,
				"z": -0.3457760141,
				"element": "C" 
			},
			{
				"x": 0.6309221827,
				"y": -1.5377112928,
				"z": 0.1545245763,
				"element": "N" 
			},
			{
				"x": 1.4691895304,
				"y": -0.6179524594,
				"z": 0.7951068842,
				"element": "C" 
			},
			{
				"x": 2.6669332924,
				"y": -0.7973731788,
				"z": 0.9443302095,
				"element": "O" 
			},
			{
				"x": 0.8463952743,
				"y": 0.5307107273,
				"z": 1.2525423423,
				"element": "N" 
			},
			{
				"x": -0.5054694335,
				"y": 0.8114543144,
				"z": 1.1408874,
				"element": "C" 
			},
			{
				"x": -1.3332227842,
				"y": -0.1346221454,
				"z": 0.5147262917,
				"element": "C" 
			},
			{
				"x": -2.7059074169,
				"y": 0.1153796972,
				"z": 0.3872241297,
				"element": "C" 
			},
			{
				"x": -3.2514809554,
				"y": 1.2930758876,
				"z": 0.8736458264,
				"element": "C" 
			},
			{
				"x": -2.4180769577,
				"y": 2.2369399493,
				"z": 1.4998046726,
				"element": "C" 
			},
			{
				"x": -1.0496191843,
				"y": 2.003184439,
				"z": 1.6367058079,
				"element": "C" 
			},
			{
				"x": -3.0466391286,
				"y": 3.4899105684,
				"z": 2.0094543428,
				"element": "C" 
			},
			{
				"x": -2.1571838351,
				"y": 4.3293528403,
				"z": 2.5940330972,
				"element": "O" 
			},
			{
				"x": -4.228171174,
				"y": 3.7526988531,
				"z": 1.9219059758,
				"element": "O" 
			},
			{
				"x": -0.7568671652,
				"y": -1.3934603557,
				"z": -0.0032950285,
				"element": "C" 
			},
			{
				"x": -1.4258948798,
				"y": -2.2648478295,
				"z": -0.5412009849,
				"element": "O" 
			},
			{
				"x": 1.7515412264,
				"y": -4.7810031677,
				"z": 0.2935801315,
				"element": "H" 
			},
			{
				"x": 1.8630045568,
				"y": -3.5711354004,
				"z": 1.5831007732,
				"element": "H" 
			},
			{
				"x": 0.2694307169,
				"y": -4.1420262429,
				"z": 1.0243952658,
				"element": "H" 
			},
			{
				"x": 2.2699703146,
				"y": -2.5145837754,
				"z": -0.6556827614,
				"element": "H" 
			},
			{
				"x": 0.6768857689,
				"y": -3.0864265159,
				"z": -1.2146365646,
				"element": "H" 
			},
			{
				"x": 1.4692701722,
				"y": 1.1811530661,
				"z": 1.7106850174,
				"element": "H" 
			},
			{
				"x": -3.3147252056,
				"y": -0.6381452109,
				"z": -0.1002314486,
				"element": "H" 
			},
			{
				"x": -4.3097424186,
				"y": 1.5090422203,
				"z": 0.7855179923,
				"element": "H" 
			},
			{
				"x": -0.4167778575,
				"y": 2.7380878669,
				"z": 2.1217635691,
				"element": "H" 
			},
			{
				"x": -2.6700005252,
				"y": 5.1014812213,
				"z": 2.8848648339,
				"element": "H" 
			}
		],
		 "valence_orbital": [ 
			{
				"type": "occ",
				"energy": -0.29148,
				"method": "rhf"
			},
			{
				"type": "occ",
				"energy": -0.28205,
				"method": "rhf"
			},
			{
				"type": "occ",
				"energy": -0.27648,
				"method": "rhf"
			},
			{
				"type": "occ",
				"energy": -0.2709,
				"method": "rhf"
			},
			{
				"type": "occ",
				"energy": -0.24464,
				"method": "rhf"
			},
			{
				"type": "unocc",
				"energy": -0.08147,
				"method": "rhf"
			},
			{
				"type": "unocc",
				"energy": -0.02857,
				"method": "rhf"
			},
			{
				"type": "unocc",
				"energy": 0.0005,
				"method": "rhf"
			},
			{
				"type": "unocc",
				"energy": 0.02691,
				"method": "rhf"
			},
			{
				"type": "unocc",
				"energy": 0.06458,
				"method": "rhf"
			}
		],
		"cosmo_sigma_profile": { 
			"-0.025": 0.0,
			"-0.024": 0.0,
			"-0.023": 0.0,
			"-0.022": 0.0,
			"-0.021": 0.0,
			"-0.02": 0.0,
			"-0.019": 0.178221414136,
			"-0.018": 1.07952287168,
			"-0.017": 1.28774560672,
			"-0.016": 2.27168737348,
			"-0.015": 1.87315081102,
			"-0.014": 2.17309892837,
			"-0.013": 1.65284158302,
			"-0.012": 1.96327171592,
			"-0.011": 1.87868405027,
			"-0.01": 2.24629124123,
			"-0.009": 1.63371228964,
			"-0.008": 1.74350354173,
			"-0.007": 4.31510268308,
			"-0.006": 5.9079468537,
			"-0.005": 10.0663666742,
			"-0.004": 15.713736587,
			"-0.003": 23.7968114113,
			"-0.002": 26.6676259623,
			"-0.001": 21.069349779,
			"0.0": 27.3975153014,
			"0.001": 20.2955994123,
			"0.002": 13.0320070676,
			"0.003": 7.29535378623,
			"0.004": 5.77178056392,
			"0.005": 5.45815242151,
			"0.006": 6.344596449,
			"0.007": 4.98694023338,
			"0.008": 3.87756945046,
			"0.009": 4.94788981014,
			"0.01": 4.93889414226,
			"0.011": 9.4682366205,
			"0.012": 10.0572472549,
			"0.013": 3.01800575194,
			"0.014": 0.00475565479881,
			"0.015": 0.0,
			"0.016": 0.0,
			"0.017": 0.0,
			"0.018": 0.0,
			"0.019": 0.0,
			"0.02": 0.0,
			"0.021": 0.0,
			"0.022": 0.0,
			"0.023": 0.0,
			"0.024": 0.0,
			"0.025": 0.0
		}
	}
}
