{
	 "smiles": "NC1=C2C(SC3=C2CCCC3)=NC(CCl)=N1", 
	 "Tm": 448.15, 
	 "num_atms": 28, 
	 "gaussian": { 
		 "optdone": 1, 
		 "sigma_profile": "yes", 
		 "theory": "DFT", 
		 "functional": "B3LYP", 
		 "basiset": "6-31G**", 
		 "properties": { 
			 "R2extent": 6408.6645, 
			 "electric_dipole_moment_norm": 6.43852775796, 
			 "electric_quadrupole_moment_norm": 19.0240543896, 
			 "total_energy": -1449.07485181, 
			 "HOMO_LUMO_gap": 0.17263, 
			 "cosmo_polarized_energy": -14.11, 
			 "cosmo_cavitation_energy": 33.41, 
			 "cosmo_dispersion_energy": -25.61, 
			 "cosmo_repulsion_energy": 1.97, 
			 "cosmo_total_nonelectrostatic_energy": 9.78, 
			 "SMD_solvation_energy": 0.71 
		},
		"coords": [
			{
				"x": 0.0768656574,
				"y": -0.4455946119,
				"z": 2.7947216526,
				"element": "N" 
			},
			{
				"x": 1.1683398085,
				"y": -0.3411964105,
				"z": 1.9749800935,
				"element": "C" 
			},
			{
				"x": 1.0744889366,
				"y": -0.0275582527,
				"z": 0.5910135358,
				"element": "C" 
			},
			{
				"x": 2.3179000403,
				"y": 0.0378846251,
				"z": -0.067012232,
				"element": "C" 
			},
			{
				"x": 2.1208605315,
				"y": 0.4742026292,
				"z": -1.7542722353,
				"element": "S" 
			},
			{
				"x": 0.373058008,
				"y": 0.545896561,
				"z": -1.5585629814,
				"element": "C" 
			},
			{
				"x": -0.0392603244,
				"y": 0.2532507779,
				"z": -0.2884650215,
				"element": "C" 
			},
			{
				"x": -1.5063487661,
				"y": 0.2267547959,
				"z": 0.0824406226,
				"element": "C" 
			},
			{
				"x": -2.4132327404,
				"y": 0.2173821673,
				"z": -1.1612144203,
				"element": "C" 
			},
			{
				"x": -1.9401784156,
				"y": 1.2320893918,
				"z": -2.2098932777,
				"element": "C" 
			},
			{
				"x": -0.5285958839,
				"y": 0.8843675608,
				"z": -2.7139998349,
				"element": "C" 
			},
			{
				"x": 3.5122448003,
				"y": -0.1973339272,
				"z": 0.484100301,
				"element": "N" 
			},
			{
				"x": 3.4554713964,
				"y": -0.5138138316,
				"z": 1.7787807845,
				"element": "C" 
			},
			{
				"x": 4.7640009794,
				"y": -0.8143643552,
				"z": 2.4552303357,
				"element": "C" 
			},
			{
				"x": 5.0654481485,
				"y": -2.6142498238,
				"z": 2.548283048,
				"element": "Cl" 
			},
			{
				"x": 2.3561571883,
				"y": -0.5805535067,
				"z": 2.5452013691,
				"element": "N" 
			},
			{
				"x": -0.775964183,
				"y": 0.0298668332,
				"z": 2.551489344,
				"element": "H" 
			},
			{
				"x": 0.2922912781,
				"y": -0.525427939,
				"z": 3.7781776261,
				"element": "H" 
			},
			{
				"x": -1.7217794262,
				"y": -0.6568704329,
				"z": 0.6954299709,
				"element": "H" 
			},
			{
				"x": -1.7493321088,
				"y": 1.105780751,
				"z": 0.7008205779,
				"element": "H" 
			},
			{
				"x": -3.4471342341,
				"y": 0.4240577199,
				"z": -0.8642933625,
				"element": "H" 
			},
			{
				"x": -2.4057084002,
				"y": -0.7871933502,
				"z": -1.6034741995,
				"element": "H" 
			},
			{
				"x": -1.9312885649,
				"y": 2.23677959,
				"z": -1.7676729976,
				"element": "H" 
			},
			{
				"x": -2.6358040348,
				"y": 1.2633306548,
				"z": -3.0553522854,
				"element": "H" 
			},
			{
				"x": -0.578838199,
				"y": 0.0313475801,
				"z": -3.4061114399,
				"element": "H" 
			},
			{
				"x": -0.1145054638,
				"y": 1.7195834173,
				"z": -3.2916706157,
				"element": "H" 
			},
			{
				"x": 4.762918739,
				"y": -0.4587752447,
				"z": 3.4844611358,
				"element": "H" 
			},
			{
				"x": 5.5913252329,
				"y": -0.393943369,
				"z": 1.8871645061,
				"element": "H" 
			}
		],
		 "valence_orbital": [ 
			{
				"type": "occ",
				"energy": -0.28227,
				"method": "rhf"
			},
			{
				"type": "occ",
				"energy": -0.26952,
				"method": "rhf"
			},
			{
				"type": "occ",
				"energy": -0.25611,
				"method": "rhf"
			},
			{
				"type": "occ",
				"energy": -0.25446,
				"method": "rhf"
			},
			{
				"type": "occ",
				"energy": -0.21356,
				"method": "rhf"
			},
			{
				"type": "unocc",
				"energy": -0.04093,
				"method": "rhf"
			},
			{
				"type": "unocc",
				"energy": -0.01516,
				"method": "rhf"
			},
			{
				"type": "unocc",
				"energy": 0.01826,
				"method": "rhf"
			},
			{
				"type": "unocc",
				"energy": 0.01953,
				"method": "rhf"
			},
			{
				"type": "unocc",
				"energy": 0.05764,
				"method": "rhf"
			}
		],
		"cosmo_sigma_profile": { 
			"-0.025": 0.0,
			"-0.024": 0.0,
			"-0.023": 0.0,
			"-0.022": 0.0,
			"-0.021": 0.0,
			"-0.02": 0.0,
			"-0.019": 0.0,
			"-0.018": 0.0,
			"-0.017": 0.0,
			"-0.016": 0.0,
			"-0.015": 0.0,
			"-0.014": 0.390585708837,
			"-0.013": 1.72543819125,
			"-0.012": 2.13907180827,
			"-0.011": 2.53057548416,
			"-0.01": 3.15460735206,
			"-0.009": 1.91314732949,
			"-0.008": 3.50287368856,
			"-0.007": 5.76328903903,
			"-0.006": 5.47583072172,
			"-0.005": 8.89201109437,
			"-0.004": 15.3848718103,
			"-0.003": 24.4932769974,
			"-0.002": 28.6914996946,
			"-0.001": 26.4666934372,
			"0.0": 22.4740390215,
			"0.001": 19.4922997639,
			"0.002": 18.652243986,
			"0.003": 17.2020744275,
			"0.004": 14.2355557356,
			"0.005": 11.6579955258,
			"0.006": 13.4990869096,
			"0.007": 8.28044952467,
			"0.008": 3.36960057848,
			"0.009": 2.4954216834,
			"0.01": 2.30024718446,
			"0.011": 1.24784190011,
			"0.012": 1.49367433553,
			"0.013": 1.27229070816,
			"0.014": 0.545887742999,
			"0.015": 0.0,
			"0.016": 0.0,
			"0.017": 0.0,
			"0.018": 0.0,
			"0.019": 0.0,
			"0.02": 0.0,
			"0.021": 0.0,
			"0.022": 0.0,
			"0.023": 0.0,
			"0.024": 0.0,
			"0.025": 0.0
		}
	}
}
