{
	 "smiles": "OC(=O)C1=CC=C(CN2CCCCC2=O)C=C1", 
	 "Tm": 455.15, 
	 "num_atms": 32, 
	 "gaussian": { 
		 "optdone": 1, 
		 "sigma_profile": "yes", 
		 "theory": "DFT", 
		 "functional": "B3LYP", 
		 "basiset": "6-31G**", 
		 "properties": { 
			 "R2extent": 5902.1633, 
			 "electric_dipole_moment_norm": 3.41456893473, 
			 "electric_quadrupole_moment_norm": 21.1049947223, 
			 "total_energy": -784.893884043, 
			 "HOMO_LUMO_gap": 0.19128, 
			 "cosmo_polarized_energy": -15.8, 
			 "cosmo_cavitation_energy": 34.77, 
			 "cosmo_dispersion_energy": -24.97, 
			 "cosmo_repulsion_energy": 1.94, 
			 "cosmo_total_nonelectrostatic_energy": 11.74, 
			 "SMD_solvation_energy": 6.56 
		},
		"coords": [
			{
				"x": -2.851701933,
				"y": 4.0913662095,
				"z": -1.8805310116,
				"element": "O" 
			},
			{
				"x": -1.8933082306,
				"y": 3.6388001715,
				"z": -2.7287715848,
				"element": "C" 
			},
			{
				"x": -1.9083108287,
				"y": 3.9044957485,
				"z": -3.9152695609,
				"element": "O" 
			},
			{
				"x": -0.8620425573,
				"y": 2.8083452104,
				"z": -2.0548889347,
				"element": "C" 
			},
			{
				"x": 0.1784544966,
				"y": 2.2925761078,
				"z": -2.8360313439,
				"element": "C" 
			},
			{
				"x": 1.1679434908,
				"y": 1.5080642047,
				"z": -2.2478730056,
				"element": "C" 
			},
			{
				"x": 1.1361767796,
				"y": 1.2260123983,
				"z": -0.8763938398,
				"element": "C" 
			},
			{
				"x": 2.2033442937,
				"y": 0.3663682329,
				"z": -0.225573931,
				"element": "C" 
			},
			{
				"x": 1.6946081396,
				"y": -0.9282981706,
				"z": 0.2412451883,
				"element": "N" 
			},
			{
				"x": 1.5667323019,
				"y": -1.9753693835,
				"z": -0.7777087131,
				"element": "C" 
			},
			{
				"x": 0.7463975409,
				"y": -3.1723706807,
				"z": -0.3031129003,
				"element": "C" 
			},
			{
				"x": 1.2093448246,
				"y": -3.6052911908,
				"z": 1.0882546033,
				"element": "C" 
			},
			{
				"x": 0.9807078252,
				"y": -2.452748613,
				"z": 2.0690519332,
				"element": "C" 
			},
			{
				"x": 1.4425562327,
				"y": -1.0816198569,
				"z": 1.5827693603,
				"element": "C" 
			},
			{
				"x": 1.5540009646,
				"y": -0.1479506928,
				"z": 2.3762419266,
				"element": "O" 
			},
			{
				"x": 0.0914617163,
				"y": 1.7492941453,
				"z": -0.0972855737,
				"element": "C" 
			},
			{
				"x": -0.8993317778,
				"y": 2.5333859943,
				"z": -0.6786265414,
				"element": "C" 
			},
			{
				"x": -3.4590621075,
				"y": 4.6153492449,
				"z": -2.4279809794,
				"element": "H" 
			},
			{
				"x": 0.1931758208,
				"y": 2.5168757245,
				"z": -3.8973051501,
				"element": "H" 
			},
			{
				"x": 1.9775648427,
				"y": 1.1155585,
				"z": -2.8584612861,
				"element": "H" 
			},
			{
				"x": 3.0186597878,
				"y": 0.1795105239,
				"z": -0.9346756584,
				"element": "H" 
			},
			{
				"x": 2.6121941556,
				"y": 0.8754521188,
				"z": 0.6495439831,
				"element": "H" 
			},
			{
				"x": 2.5735085241,
				"y": -2.3089590902,
				"z": -1.0759946937,
				"element": "H" 
			},
			{
				"x": 1.1039465817,
				"y": -1.5282904512,
				"z": -1.6657905861,
				"element": "H" 
			},
			{
				"x": 0.8508416102,
				"y": -3.9812655491,
				"z": -1.0341108013,
				"element": "H" 
			},
			{
				"x": -0.3169201699,
				"y": -2.9027191629,
				"z": -0.2698000423,
				"element": "H" 
			},
			{
				"x": 2.2749425671,
				"y": -3.8681736227,
				"z": 1.0552524304,
				"element": "H" 
			},
			{
				"x": 0.6741973586,
				"y": -4.5005822981,
				"z": 1.4225374411,
				"element": "H" 
			},
			{
				"x": 1.4731098202,
				"y": -2.6180683579,
				"z": 3.0314792555,
				"element": "H" 
			},
			{
				"x": -0.0902174238,
				"y": -2.3525777942,
				"z": 2.2900312967,
				"element": "H" 
			},
			{
				"x": 0.0742288205,
				"y": 1.5386107921,
				"z": 0.9679832091,
				"element": "H" 
			},
			{
				"x": -1.7016034675,
				"y": 2.9402195872,
				"z": -0.0734044892,
				"element": "H" 
			}
		],
		 "valence_orbital": [ 
			{
				"type": "occ",
				"energy": -0.27467,
				"method": "rhf"
			},
			{
				"type": "occ",
				"energy": -0.26131,
				"method": "rhf"
			},
			{
				"type": "occ",
				"energy": -0.25916,
				"method": "rhf"
			},
			{
				"type": "occ",
				"energy": -0.24178,
				"method": "rhf"
			},
			{
				"type": "occ",
				"energy": -0.23942,
				"method": "rhf"
			},
			{
				"type": "unocc",
				"energy": -0.04814,
				"method": "rhf"
			},
			{
				"type": "unocc",
				"energy": -0.00941,
				"method": "rhf"
			},
			{
				"type": "unocc",
				"energy": 0.02434,
				"method": "rhf"
			},
			{
				"type": "unocc",
				"energy": 0.05569,
				"method": "rhf"
			},
			{
				"type": "unocc",
				"energy": 0.07965,
				"method": "rhf"
			}
		],
		"cosmo_sigma_profile": { 
			"-0.025": 0.0,
			"-0.024": 0.0,
			"-0.023": 0.0,
			"-0.022": 0.0,
			"-0.021": 0.0,
			"-0.02": 0.0,
			"-0.019": 0.0547493429498,
			"-0.018": 0.700496319451,
			"-0.017": 1.05313569195,
			"-0.016": 0.962988429365,
			"-0.015": 0.533785180286,
			"-0.014": 0.222100088042,
			"-0.013": 0.367244208077,
			"-0.012": 1.00936045278,
			"-0.011": 1.41869557713,
			"-0.01": 0.567034473856,
			"-0.009": 0.110670367094,
			"-0.008": 0.746332311325,
			"-0.007": 2.25716509019,
			"-0.006": 7.8722397241,
			"-0.005": 13.7082999544,
			"-0.004": 28.1602438126,
			"-0.003": 36.0638607345,
			"-0.002": 32.8292703324,
			"-0.001": 24.9941650226,
			"0.0": 20.4816850116,
			"0.001": 16.4252108299,
			"0.002": 14.1815646479,
			"0.003": 16.5079333336,
			"0.004": 10.8644409551,
			"0.005": 4.19989476028,
			"0.006": 4.19042814669,
			"0.007": 5.15687580695,
			"0.008": 3.53480217055,
			"0.009": 2.26993011365,
			"0.01": 3.04314042076,
			"0.011": 5.39957925925,
			"0.012": 6.0358708889,
			"0.013": 1.73167403441,
			"0.014": 3.72517704949,
			"0.015": 2.43153151609,
			"0.016": 0.2932659078,
			"0.017": 0.0,
			"0.018": 0.0,
			"0.019": 0.0,
			"0.02": 0.0,
			"0.021": 0.0,
			"0.022": 0.0,
			"0.023": 0.0,
			"0.024": 0.0,
			"0.025": 0.0
		}
	}
}
