{
	 "smiles": "COC1=CC=C(NC(=O)CCl)C=C1", 
	 "Tm": 396.15, 
	 "num_atms": 23, 
	 "gaussian": { 
		 "optdone": 1, 
		 "sigma_profile": "yes", 
		 "theory": "DFT", 
		 "functional": "B3LYP", 
		 "basiset": "6-31G**", 
		 "properties": { 
			 "R2extent": 4008.3314, 
			 "electric_dipole_moment_norm": 4.761575232, 
			 "electric_quadrupole_moment_norm": 19.1710452276, 
			 "total_energy": -1014.37264142, 
			 "HOMO_LUMO_gap": 0.19338, 
			 "cosmo_polarized_energy": -13.56, 
			 "cosmo_cavitation_energy": 28.87, 
			 "cosmo_dispersion_energy": -21.02, 
			 "cosmo_repulsion_energy": 1.68, 
			 "cosmo_total_nonelectrostatic_energy": 9.53, 
			 "SMD_solvation_energy": 6.21 
		},
		"coords": [
			{
				"x": 0.8944694786,
				"y": -2.3761116677,
				"z": 2.7440047272,
				"element": "C" 
			},
			{
				"x": 1.0866826606,
				"y": -2.4891864703,
				"z": 1.3418531923,
				"element": "O" 
			},
			{
				"x": 0.8293878683,
				"y": -1.3994836699,
				"z": 0.5651250059,
				"element": "C" 
			},
			{
				"x": 1.0438960242,
				"y": -1.5686379859,
				"z": -0.8122834986,
				"element": "C" 
			},
			{
				"x": 0.7969407002,
				"y": -0.5248488214,
				"z": -1.6915342296,
				"element": "C" 
			},
			{
				"x": 0.3496945112,
				"y": 0.7198628946,
				"z": -1.2180631597,
				"element": "C" 
			},
			{
				"x": 0.1502137065,
				"y": 1.7796846047,
				"z": -2.1469078345,
				"element": "N" 
			},
			{
				"x": -0.9269691426,
				"y": 2.6104398387,
				"z": -2.3506569355,
				"element": "C" 
			},
			{
				"x": -0.9096140764,
				"y": 3.469494205,
				"z": -3.2184827808,
				"element": "O" 
			},
			{
				"x": -2.1672296722,
				"y": 2.3933116389,
				"z": -1.4860967813,
				"element": "C" 
			},
			{
				"x": -2.2368670475,
				"y": 3.5989380994,
				"z": -0.1304897062,
				"element": "Cl" 
			},
			{
				"x": 0.1651985428,
				"y": 0.8934473904,
				"z": 0.1556064441,
				"element": "C" 
			},
			{
				"x": 0.3831413837,
				"y": -0.1629628681,
				"z": 1.0445223742,
				"element": "C" 
			},
			{
				"x": 1.548782172,
				"y": -1.6113691225,
				"z": 3.1816527101,
				"element": "H" 
			},
			{
				"x": -0.1485495944,
				"y": -2.1407588679,
				"z": 2.9916282816,
				"element": "H" 
			},
			{
				"x": 1.1515128223,
				"y": -3.3501792406,
				"z": 3.1624299536,
				"element": "H" 
			},
			{
				"x": 1.3922221351,
				"y": -2.5323550924,
				"z": -1.1684937272,
				"element": "H" 
			},
			{
				"x": 0.9440945001,
				"y": -0.6690907762,
				"z": -2.7582448126,
				"element": "H" 
			},
			{
				"x": 0.8800990485,
				"y": 1.9394919632,
				"z": -2.8316135899,
				"element": "H" 
			},
			{
				"x": -3.0378952853,
				"y": 2.5848068136,
				"z": -2.1109270193,
				"element": "H" 
			},
			{
				"x": -2.2198369244,
				"y": 1.4030510361,
				"z": -1.0363385262,
				"element": "H" 
			},
			{
				"x": -0.1428600783,
				"y": 1.8598302593,
				"z": 0.5400373012,
				"element": "H" 
			},
			{
				"x": 0.221886267,
				"y": 0.0013258388,
				"z": 2.1030726112,
				"element": "H" 
			}
		],
		 "valence_orbital": [ 
			{
				"type": "occ",
				"energy": -0.30355,
				"method": "rhf"
			},
			{
				"type": "occ",
				"energy": -0.27897,
				"method": "rhf"
			},
			{
				"type": "occ",
				"energy": -0.26673,
				"method": "rhf"
			},
			{
				"type": "occ",
				"energy": -0.25893,
				"method": "rhf"
			},
			{
				"type": "occ",
				"energy": -0.22044,
				"method": "rhf"
			},
			{
				"type": "unocc",
				"energy": -0.02706,
				"method": "rhf"
			},
			{
				"type": "unocc",
				"energy": -0.01785,
				"method": "rhf"
			},
			{
				"type": "unocc",
				"energy": 0.00098,
				"method": "rhf"
			},
			{
				"type": "unocc",
				"energy": 0.061,
				"method": "rhf"
			},
			{
				"type": "unocc",
				"energy": 0.08391,
				"method": "rhf"
			}
		],
		"cosmo_sigma_profile": { 
			"-0.025": 0.0,
			"-0.024": 0.0,
			"-0.023": 0.0,
			"-0.022": 0.0,
			"-0.021": 0.0,
			"-0.02": 0.0,
			"-0.019": 0.0,
			"-0.018": 0.0,
			"-0.017": 0.0,
			"-0.016": 0.0,
			"-0.015": 0.168753855,
			"-0.014": 1.03978136697,
			"-0.013": 0.897451674392,
			"-0.012": 1.4044922633,
			"-0.011": 0.898029429247,
			"-0.01": 0.80461904289,
			"-0.009": 1.56783756531,
			"-0.008": 4.23521732307,
			"-0.007": 7.92899483053,
			"-0.006": 15.6582206264,
			"-0.005": 18.6791577822,
			"-0.004": 18.5295875255,
			"-0.003": 17.531153664,
			"-0.002": 12.8004963164,
			"-0.001": 12.0846411387,
			"0.0": 13.4330298781,
			"0.001": 12.3883512817,
			"0.002": 14.6321971865,
			"0.003": 15.0779468771,
			"0.004": 18.7757025623,
			"0.005": 12.8864784309,
			"0.006": 7.51323822309,
			"0.007": 2.97028503261,
			"0.008": 2.48010907544,
			"0.009": 2.53411907664,
			"0.01": 2.46979230924,
			"0.011": 1.99341441158,
			"0.012": 3.73303736967,
			"0.013": 5.46965837624,
			"0.014": 1.33666946518,
			"0.015": 0.0,
			"0.016": 0.0,
			"0.017": 0.0,
			"0.018": 0.0,
			"0.019": 0.0,
			"0.02": 0.0,
			"0.021": 0.0,
			"0.022": 0.0,
			"0.023": 0.0,
			"0.024": 0.0,
			"0.0": 0.0
		}
	}
}
