{
	 "smiles": "FC(F)(F)C1=NC(=NC=C1)N1CCCNCC1", 
	 "Tm": 323.65, 
	 "num_atms": 30, 
	 "gaussian": { 
		 "optdone": 1, 
		 "sigma_profile": "yes", 
		 "theory": "DFT", 
		 "functional": "B3LYP", 
		 "basiset": "6-31G**", 
		 "properties": { 
			 "R2extent": 4678.0808, 
			 "electric_dipole_moment_norm": 2.86156000985, 
			 "electric_quadrupole_moment_norm": 10.2528593909, 
			 "total_energy": -907.426041842, 
			 "HOMO_LUMO_gap": 0.15841, 
			 "cosmo_polarized_energy": -8.93, 
			 "cosmo_cavitation_energy": 33.23, 
			 "cosmo_dispersion_energy": -23.42, 
			 "cosmo_repulsion_energy": 1.76, 
			 "cosmo_total_nonelectrostatic_energy": 11.57, 
			 "SMD_solvation_energy": 2.14 
		},
		"coords": [
			{
				"x": -3.7818091532,
				"y": -1.562399122,
				"z": -1.2535796724,
				"element": "F" 
			},
			{
				"x": -3.5804146765,
				"y": -0.2962310811,
				"z": -0.844109972,
				"element": "C" 
			},
			{
				"x": -3.8492794588,
				"y": -0.245310876,
				"z": 0.4739968229,
				"element": "F" 
			},
			{
				"x": -4.4821262539,
				"y": 0.4867089346,
				"z": -1.4761975686,
				"element": "F" 
			},
			{
				"x": -2.1584715866,
				"y": 0.1545332831,
				"z": -1.131037799,
				"element": "C" 
			},
			{
				"x": -1.215743506,
				"y": -0.5762548747,
				"z": -0.5464237946,
				"element": "N" 
			},
			{
				"x": 0.0631039869,
				"y": -0.2034391848,
				"z": -0.7793697608,
				"element": "C" 
			},
			{
				"x": 0.4381732748,
				"y": 0.8628358788,
				"z": -1.5324821433,
				"element": "N" 
			},
			{
				"x": -0.5408878647,
				"y": 1.5601416301,
				"z": -2.0966668746,
				"element": "C" 
			},
			{
				"x": -1.8965257243,
				"y": 1.2556825536,
				"z": -1.9397642248,
				"element": "C" 
			},
			{
				"x": 1.0557434977,
				"y": -0.9545654776,
				"z": -0.225702142,
				"element": "N" 
			},
			{
				"x": 2.4594536173,
				"y": -0.563725862,
				"z": -0.359129363,
				"element": "C" 
			},
			{
				"x": 2.9368266803,
				"y": 0.4802672374,
				"z": 0.6695264916,
				"element": "C" 
			},
			{
				"x": 2.3147467263,
				"y": 0.338388504,
				"z": 2.080787573,
				"element": "C" 
			},
			{
				"x": 2.0835157968,
				"y": -1.0065387537,
				"z": 2.605920066,
				"element": "N" 
			},
			{
				"x": 0.8605645631,
				"y": -1.6690451562,
				"z": 2.1666571238,
				"element": "C" 
			},
			{
				"x": 0.7667807605,
				"y": -2.0669375018,
				"z": 0.6796359827,
				"element": "C" 
			},
			{
				"x": -0.2333037227,
				"y": 2.4115940485,
				"z": -2.7025944564,
				"element": "H" 
			},
			{
				"x": -2.6819407632,
				"y": 1.8378999005,
				"z": -2.4008894383,
				"element": "H" 
			},
			{
				"x": 3.040884982,
				"y": -1.4847631821,
				"z": -0.2479861944,
				"element": "H" 
			},
			{
				"x": 2.6269254284,
				"y": -0.1870914854,
				"z": -1.3697106543,
				"element": "H" 
			},
			{
				"x": 2.7145002023,
				"y": 1.4870187788,
				"z": 0.2976540233,
				"element": "H" 
			},
			{
				"x": 4.0308019774,
				"y": 0.4052285035,
				"z": 0.7301932223,
				"element": "H" 
			},
			{
				"x": 1.3434403332,
				"y": 0.8459345767,
				"z": 2.0953056253,
				"element": "H" 
			},
			{
				"x": 2.9510867736,
				"y": 0.8859432232,
				"z": 2.7885249781,
				"element": "H" 
			},
			{
				"x": 2.8981082721,
				"y": -1.6037029532,
				"z": 2.4945112844,
				"element": "H" 
			},
			{
				"x": 0.7175048882,
				"y": -2.5746431799,
				"z": 2.7707763346,
				"element": "H" 
			},
			{
				"x": 0.0226025893,
				"y": -1.0009663534,
				"z": 2.3996798047,
				"element": "H" 
			},
			{
				"x": 1.4920674022,
				"y": -2.8615229533,
				"z": 0.4609919208,
				"element": "H" 
			},
			{
				"x": -0.2313290427,
				"y": -2.4488390555,
				"z": 0.4591828051,
				"element": "H" 
			}
		],
		 "valence_orbital": [ 
			{
				"type": "occ",
				"energy": -0.31916,
				"method": "rhf"
			},
			{
				"type": "occ",
				"energy": -0.31088,
				"method": "rhf"
			},
			{
				"type": "occ",
				"energy": -0.25543,
				"method": "rhf"
			},
			{
				"type": "occ",
				"energy": -0.22855,
				"method": "rhf"
			},
			{
				"type": "occ",
				"energy": -0.20852,
				"method": "rhf"
			},
			{
				"type": "unocc",
				"energy": -0.05011,
				"method": "rhf"
			},
			{
				"type": "unocc",
				"energy": -0.00972,
				"method": "rhf"
			},
			{
				"type": "unocc",
				"energy": 0.07395,
				"method": "rhf"
			},
			{
				"type": "unocc",
				"energy": 0.10315,
				"method": "rhf"
			},
			{
				"type": "unocc",
				"energy": 0.11282,
				"method": "rhf"
			}
		],
		"cosmo_sigma_profile": { 
			"-0.025": 0.0,
			"-0.024": 0.0,
			"-0.023": 0.0,
			"-0.022": 0.0,
			"-0.021": 0.0,
			"-0.02": 0.0,
			"-0.019": 0.0,
			"-0.018": 0.0,
			"-0.017": 0.0,
			"-0.016": 0.0,
			"-0.015": 0.0,
			"-0.014": 0.0,
			"-0.013": 0.0,
			"-0.012": 0.0,
			"-0.011": 0.0,
			"-0.01": 0.558258061764,
			"-0.009": 1.33632819719,
			"-0.008": 3.0407462914,
			"-0.007": 6.60605959574,
			"-0.006": 7.90505073976,
			"-0.005": 8.91417086817,
			"-0.004": 14.1065466291,
			"-0.003": 27.1690903773,
			"-0.002": 29.9510344636,
			"-0.001": 28.7188437111,
			"0.0": 23.5552357701,
			"0.001": 19.7864534221,
			"0.002": 28.1852113168,
			"0.003": 27.5208202995,
			"0.004": 7.57365776721,
			"0.005": 5.09871100072,
			"0.006": 5.222023745,
			"0.007": 4.48195011919,
			"0.008": 3.66822777446,
			"0.009": 2.06705574585,
			"0.01": 1.44702510278,
			"0.011": 1.16095577548,
			"0.012": 0.86191460802,
			"0.013": 0.768069118797,
			"0.014": 0.506948207735,
			"0.015": 0.753085971765,
			"0.016": 0.315948253651,
			"0.017": 0.670667199645,
			"0.018": 0.143495069131,
			"0.019": 0.0,
			"0.02": 0.0,
			"0.021": 0.0,
			"0.022": 0.0,
			"0.023": 0.0,
			"0.024": 0.0,
			"0.025": 0.0
		}
	}
}
