{
	 "smiles": "C1SC2=NN=C(N2CN1C1=CC=CC=C1)C1=CN=CC=C1", 
	 "Tm": 487.15, 
	 "num_atms": 34, 
	 "gaussian": { 
		 "optdone": 1, 
		 "sigma_profile": "yes", 
		 "theory": "DFT", 
		 "functional": "B3LYP", 
		 "basiset": "6-31G**", 
		 "properties": { 
			 "R2extent": 7129.883, 
			 "electric_dipole_moment_norm": 7.84097984502, 
			 "electric_quadrupole_moment_norm": 26.4534262216, 
			 "total_energy": -1251.32802845, 
			 "HOMO_LUMO_gap": 0.17518, 
			 "cosmo_polarized_energy": -24.61, 
			 "cosmo_cavitation_energy": 38.91, 
			 "cosmo_dispersion_energy": -27.76, 
			 "cosmo_repulsion_energy": 2.03, 
			 "cosmo_total_nonelectrostatic_energy": 13.18, 
			 "SMD_solvation_energy": 0.97 
		},
		"coords": [
			{
				"x": -2.8881662626,
				"y": 0.294113115,
				"z": -0.0214330156,
				"element": "C" 
			},
			{
				"x": -3.0094105658,
				"y": 2.0199144778,
				"z": -0.7929381385,
				"element": "S" 
			},
			{
				"x": -1.4312039576,
				"y": 2.0389959962,
				"z": -1.5799392209,
				"element": "C" 
			},
			{
				"x": -1.0150524126,
				"y": 2.9944855913,
				"z": -2.3776111143,
				"element": "N" 
			},
			{
				"x": 0.2838687419,
				"y": 2.6879343927,
				"z": -2.728667801,
				"element": "N" 
			},
			{
				"x": 0.6174534742,
				"y": 1.5639892906,
				"z": -2.1318671431,
				"element": "C" 
			},
			{
				"x": -0.4449782031,
				"y": 1.1031244239,
				"z": -1.3684474548,
				"element": "N" 
			},
			{
				"x": -0.6703243657,
				"y": -0.2178437767,
				"z": -0.7494655734,
				"element": "C" 
			},
			{
				"x": -1.5748732143,
				"y": -0.1222785158,
				"z": 0.3722427496,
				"element": "N" 
			},
			{
				"x": -1.0364018255,
				"y": 0.2808981467,
				"z": 1.6345221475,
				"element": "C" 
			},
			{
				"x": -1.5690997871,
				"y": 1.3444864391,
				"z": 2.3747230961,
				"element": "C" 
			},
			{
				"x": -1.0374176166,
				"y": 1.6624063496,
				"z": 3.6268005045,
				"element": "C" 
			},
			{
				"x": 0.035190572,
				"y": 0.9433402089,
				"z": 4.1505433742,
				"element": "C" 
			},
			{
				"x": 0.5691783246,
				"y": -0.1164768698,
				"z": 3.4133881477,
				"element": "C" 
			},
			{
				"x": 0.0336934549,
				"y": -0.4539322381,
				"z": 2.1729216141,
				"element": "C" 
			},
			{
				"x": 1.9289249421,
				"y": 0.9151941909,
				"z": -2.2525508226,
				"element": "C" 
			},
			{
				"x": 2.5528627934,
				"y": 0.8575978815,
				"z": -3.5120086742,
				"element": "C" 
			},
			{
				"x": 3.7557849639,
				"y": 0.3195810147,
				"z": -3.7230930595,
				"element": "N" 
			},
			{
				"x": 4.3988718057,
				"y": -0.1950992735,
				"z": -2.6664362818,
				"element": "C" 
			},
			{
				"x": 3.8819981528,
				"y": -0.1815795449,
				"z": -1.3703369869,
				"element": "C" 
			},
			{
				"x": 2.6301248665,
				"y": 0.3905456595,
				"z": -1.1574287693,
				"element": "C" 
			},
			{
				"x": -3.277344354,
				"y": -0.4082382349,
				"z": -0.7616281467,
				"element": "H" 
			},
			{
				"x": -3.5579300334,
				"y": 0.3162260155,
				"z": 0.8380613773,
				"element": "H" 
			},
			{
				"x": 0.2894359262,
				"y": -0.6235572131,
				"z": -0.4432269945,
				"element": "H" 
			},
			{
				"x": -1.1049021776,
				"y": -0.8878367297,
				"z": -1.5000815459,
				"element": "H" 
			},
			{
				"x": -2.3729766299,
				"y": 1.9466741822,
				"z": 1.9678532861,
				"element": "H" 
			},
			{
				"x": -1.4610672135,
				"y": 2.4927096817,
				"z": 4.1841805254,
				"element": "H" 
			},
			{
				"x": 0.448779103,
				"y": 1.2007179046,
				"z": 5.1205328251,
				"element": "H" 
			},
			{
				"x": 1.3936321704,
				"y": -0.6992989525,
				"z": 3.8138849265,
				"element": "H" 
			},
			{
				"x": 0.4230080421,
				"y": -1.313728065,
				"z": 1.6355466242,
				"element": "H" 
			},
			{
				"x": 2.040716101,
				"y": 1.2758776765,
				"z": -4.3750960508,
				"element": "H" 
			},
			{
				"x": 5.3757654076,
				"y": -0.6320527727,
				"z": -2.8651684986,
				"element": "H" 
			},
			{
				"x": 4.4556597182,
				"y": -0.5927542846,
				"z": -0.5457034229,
				"element": "H" 
			},
			{
				"x": 2.2216000589,
				"y": 0.4611638323,
				"z": -0.1529724829,
				"element": "H" 
			}
		],
		 "valence_orbital": [ 
			{
				"type": "occ",
				"energy": -0.26772,
				"method": "rhf"
			},
			{
				"type": "occ",
				"energy": -0.26165,
				"method": "rhf"
			},
			{
				"type": "occ",
				"energy": -0.25396,
				"method": "rhf"
			},
			{
				"type": "occ",
				"energy": -0.23486,
				"method": "rhf"
			},
			{
				"type": "occ",
				"energy": -0.22062,
				"method": "rhf"
			},
			{
				"type": "unocc",
				"energy": -0.04544,
				"method": "rhf"
			},
			{
				"type": "unocc",
				"energy": -0.02974,
				"method": "rhf"
			},
			{
				"type": "unocc",
				"energy": -0.02211,
				"method": "rhf"
			},
			{
				"type": "unocc",
				"energy": -0.01695,
				"method": "rhf"
			},
			{
				"type": "unocc",
				"energy": 0.00496,
				"method": "rhf"
			}
		],
		"cosmo_sigma_profile": { 
			"-0.025": 0.0,
			"-0.024": 0.0,
			"-0.023": 0.0,
			"-0.022": 0.0,
			"-0.021": 0.0,
			"-0.02": 0.0,
			"-0.019": 0.0,
			"-0.018": 0.0,
			"-0.017": 0.0,
			"-0.016": 0.0,
			"-0.015": 0.0,
			"-0.014": 0.0,
			"-0.013": 0.0,
			"-0.012": 0.0,
			"-0.011": 0.291570666681,
			"-0.01": 2.14799974494,
			"-0.009": 7.32816702648,
			"-0.008": 10.840437435,
			"-0.007": 16.1356221051,
			"-0.006": 23.2834162101,
			"-0.005": 22.9133361183,
			"-0.004": 22.2033879675,
			"-0.003": 18.0016629454,
			"-0.002": 16.2966704779,
			"-0.001": 15.3276290069,
			"0.0": 18.736319083,
			"0.001": 23.805037627,
			"0.002": 20.7003640181,
			"0.003": 18.1362184247,
			"0.004": 17.7829500671,
			"0.005": 16.9654200252,
			"0.006": 8.72883720691,
			"0.007": 4.52101046941,
			"0.008": 3.50151965325,
			"0.009": 3.33312707864,
			"0.01": 2.90192453965,
			"0.011": 2.72871017376,
			"0.012": 4.35238430397,
			"0.013": 3.94915971274,
			"0.014": 4.03604990521,
			"0.015": 3.04728923259,
			"0.016": 2.76584269994,
			"0.017": 0.317643679428,
			"0.018": 0.0,
			"0.019": 0.0,
			"0.02": 0.0,
			"0.021": 0.0,
			"0.022": 0.0,
			"0.023": 0.0,
			"0.024": 0.0,
			"0.025": 0.0
		}
	}
}
