{
	 "smiles": "COC1=CC2=C(NC(=O)C2=NO)C=C1", 
	 "Tm": 510.15, 
	 "num_atms": 22, 
	 "gaussian": { 
		 "optdone": 1, 
		 "sigma_profile": "yes", 
		 "theory": "DFT", 
		 "functional": "B3LYP", 
		 "basiset": "6-31G**", 
		 "properties": { 
			 "R2extent": 3160.6345, 
			 "electric_dipole_moment_norm": 3.59642722851, 
			 "electric_quadrupole_moment_norm": 27.1484028834, 
			 "total_energy": -682.892623563, 
			 "HOMO_LUMO_gap": 0.13203, 
			 "cosmo_polarized_energy": -17.42, 
			 "cosmo_cavitation_energy": 27.04, 
			 "cosmo_dispersion_energy": -20.06, 
			 "cosmo_repulsion_energy": 1.58, 
			 "cosmo_total_nonelectrostatic_energy": 8.57, 
			 "SMD_solvation_energy": 5.95 
		},
		"coords": [
			{
				"x": 2.452656634,
				"y": -0.652758789,
				"z": -2.6909259788,
				"element": "C" 
			},
			{
				"x": 2.2778870445,
				"y": -1.2347216362,
				"z": -1.4096046806,
				"element": "O" 
			},
			{
				"x": 1.1437983361,
				"y": -0.9235252959,
				"z": -0.7111654612,
				"element": "C" 
			},
			{
				"x": 0.1389886764,
				"y": -0.0655823436,
				"z": -1.177419186,
				"element": "C" 
			},
			{
				"x": -0.9696629744,
				"y": 0.1645546849,
				"z": -0.3566928744,
				"element": "C" 
			},
			{
				"x": -1.0720552188,
				"y": -0.4514253533,
				"z": 0.9064896597,
				"element": "C" 
			},
			{
				"x": -2.2671622414,
				"y": -0.0629565041,
				"z": 1.5293930152,
				"element": "N" 
			},
			{
				"x": -3.0090775838,
				"y": 0.8076693289,
				"z": 0.7430037704,
				"element": "C" 
			},
			{
				"x": -4.0802449929,
				"y": 1.3017883286,
				"z": 1.0292464562,
				"element": "O" 
			},
			{
				"x": -2.1728140282,
				"y": 0.9788883043,
				"z": -0.5181831023,
				"element": "C" 
			},
			{
				"x": -2.6169949428,
				"y": 1.7471555247,
				"z": -1.4487529429,
				"element": "N" 
			},
			{
				"x": -1.7504665474,
				"y": 1.8049213479,
				"z": -2.5324571467,
				"element": "O" 
			},
			{
				"x": -0.076185612,
				"y": -1.3027749444,
				"z": 1.3705712301,
				"element": "C" 
			},
			{
				"x": 1.0292130348,
				"y": -1.5310399703,
				"z": 0.5500951623,
				"element": "C" 
			},
			{
				"x": 2.4930245752,
				"y": 0.443132775,
				"z": -2.6371927903,
				"element": "H" 
			},
			{
				"x": 1.6524229497,
				"y": -0.9463887171,
				"z": -3.3829529328,
				"element": "H" 
			},
			{
				"x": 3.4060970004,
				"y": -1.0287915673,
				"z": -3.0649738847,
				"element": "H" 
			},
			{
				"x": 0.1968761433,
				"y": 0.4169577263,
				"z": -2.1419699427,
				"element": "H" 
			},
			{
				"x": -2.5810114904,
				"y": -0.361761636,
				"z": 2.4397311657,
				"element": "H" 
			},
			{
				"x": -2.2093086077,
				"y": 2.4062719874,
				"z": -3.1354563584,
				"element": "H" 
			},
			{
				"x": -0.1476239066,
				"y": -1.781118441,
				"z": 2.3424418976,
				"element": "H" 
			},
			{
				"x": 1.829843752,
				"y": -2.1883948098,
				"z": 0.8726749247,
				"element": "H" 
			}
		],
		 "valence_orbital": [ 
			{
				"type": "occ",
				"energy": -0.29017,
				"method": "rhf"
			},
			{
				"type": "occ",
				"energy": -0.28298,
				"method": "rhf"
			},
			{
				"type": "occ",
				"energy": -0.25942,
				"method": "rhf"
			},
			{
				"type": "occ",
				"energy": -0.25,
				"method": "rhf"
			},
			{
				"type": "occ",
				"energy": -0.20412,
				"method": "rhf"
			},
			{
				"type": "unocc",
				"energy": -0.07209,
				"method": "rhf"
			},
			{
				"type": "unocc",
				"energy": -0.00514,
				"method": "rhf"
			},
			{
				"type": "unocc",
				"energy": 0.02961,
				"method": "rhf"
			},
			{
				"type": "unocc",
				"energy": 0.05844,
				"method": "rhf"
			},
			{
				"type": "unocc",
				"energy": 0.08867,
				"method": "rhf"
			}
		],
		"cosmo_sigma_profile": { 
			"-0.025": 0.0,
			"-0.024": 0.0,
			"-0.023": 0.0,
			"-0.022": 0.0,
			"-0.021": 0.0,
			"-0.02": 0.0,
			"-0.019": 0.452445700478,
			"-0.018": 1.14149795001,
			"-0.017": 1.28918792406,
			"-0.016": 1.69043847352,
			"-0.015": 1.58628045159,
			"-0.014": 1.83685030456,
			"-0.013": 2.02890859456,
			"-0.012": 1.73554656379,
			"-0.011": 1.94392661598,
			"-0.01": 2.33634838489,
			"-0.009": 1.88429813921,
			"-0.008": 2.10620541748,
			"-0.007": 3.93652129942,
			"-0.006": 10.2518000084,
			"-0.005": 14.3109438543,
			"-0.004": 14.1412475075,
			"-0.003": 15.468854378,
			"-0.002": 9.93201550946,
			"-0.001": 10.8080776708,
			"0.0": 12.4402940179,
			"0.001": 13.6491647927,
			"0.002": 15.4276975734,
			"0.003": 20.8122661599,
			"0.004": 12.8693574769,
			"0.005": 5.39240001502,
			"0.006": 5.3147219951,
			"0.007": 4.33209420734,
			"0.008": 2.91654184036,
			"0.009": 3.46067635547,
			"0.01": 3.96371942877,
			"0.011": 4.07702445319,
			"0.012": 7.06739237698,
			"0.013": 4.7542631628,
			"0.014": 0.83328351716,
			"0.015": 0.0,
			"0.016": 0.0,
			"0.017": 0.0,
			"0.018": 0.0,
			"0.019": 0.0,
			"0.02": 0.0,
			"0.021": 0.0,
			"0.022": 0.0,
			"0.023": 0.0,
			"0.024": 0.0,
			"0.025": 0.0
		}
	}
}
