{
	 "smiles": "NCCC1=CC(O)=C(O)C=C1", 
	 "Tm": 492.15, 
	 "num_atms": 22, 
	 "gaussian": { 
		 "optdone": 1, 
		 "sigma_profile": "yes", 
		 "theory": "DFT", 
		 "functional": "B3LYP", 
		 "basiset": "6-31G**", 
		 "properties": { 
			 "R2extent": 2645.3329, 
			 "electric_dipole_moment_norm": 3.24028535472, 
			 "electric_quadrupole_moment_norm": 9.39895929079, 
			 "total_energy": -516.672095786, 
			 "HOMO_LUMO_gap": 0.20857, 
			 "cosmo_polarized_energy": -13.19, 
			 "cosmo_cavitation_energy": 25.1, 
			 "cosmo_dispersion_energy": -18.58, 
			 "cosmo_repulsion_energy": 1.52, 
			 "cosmo_total_nonelectrostatic_energy": 8.04, 
			 "SMD_solvation_energy": 3.47 
		},
		"coords": [
			{
				"x": -0.4831360737,
				"y": -2.4447459266,
				"z": -1.6248104226,
				"element": "N" 
			},
			{
				"x": 0.5346051744,
				"y": -1.4394004604,
				"z": -1.9348433053,
				"element": "C" 
			},
			{
				"x": 0.8630973217,
				"y": -0.5925219443,
				"z": -0.6907324449,
				"element": "C" 
			},
			{
				"x": -0.3008478603,
				"y": 0.2488787235,
				"z": -0.2101088849,
				"element": "C" 
			},
			{
				"x": -0.5310558264,
				"y": 1.5239772268,
				"z": -0.7540852382,
				"element": "C" 
			},
			{
				"x": -1.6179732616,
				"y": 2.2868822219,
				"z": -0.344560946,
				"element": "C" 
			},
			{
				"x": -1.9114480941,
				"y": 3.5461393709,
				"z": -0.8213122097,
				"element": "O" 
			},
			{
				"x": -2.5123671335,
				"y": 1.7970665939,
				"z": 0.6232833274,
				"element": "C" 
			},
			{
				"x": -3.5759173995,
				"y": 2.5495208879,
				"z": 1.0270016418,
				"element": "O" 
			},
			{
				"x": -2.2926748445,
				"y": 0.5356423502,
				"z": 1.1673853174,
				"element": "C" 
			},
			{
				"x": -1.1969445728,
				"y": -0.2284326786,
				"z": 0.7538969033,
				"element": "C" 
			},
			{
				"x": -0.6722016289,
				"y": -3.0139682004,
				"z": -2.4457600649,
				"element": "H" 
			},
			{
				"x": -1.356533147,
				"y": -1.9793982452,
				"z": -1.3876331555,
				"element": "H" 
			},
			{
				"x": 0.2608596535,
				"y": -0.7578468515,
				"z": -2.7613803876,
				"element": "H" 
			},
			{
				"x": 1.444678702,
				"y": -1.9655913374,
				"z": -2.2483857247,
				"element": "H" 
			},
			{
				"x": 1.1834457373,
				"y": -1.2718206208,
				"z": 0.106416285,
				"element": "H" 
			},
			{
				"x": 1.7153843122,
				"y": 0.0555096249,
				"z": -0.9296144487,
				"element": "H" 
			},
			{
				"x": 0.1515164215,
				"y": 1.9257395771,
				"z": -1.502039139,
				"element": "H" 
			},
			{
				"x": -1.2420560256,
				"y": 3.8164671307,
				"z": -1.4614193009,
				"element": "H" 
			},
			{
				"x": -3.5404418824,
				"y": 3.385938271,
				"z": 0.5395275388,
				"element": "H" 
			},
			{
				"x": -2.98432911,
				"y": 0.1676032452,
				"z": 1.9183339821,
				"element": "H" 
			},
			{
				"x": -1.0351604622,
				"y": -1.209738959,
				"z": 1.1901406769,
				"element": "H" 
			}
		],
		 "valence_orbital": [ 
			{
				"type": "occ",
				"energy": -0.32939,
				"method": "rhf"
			},
			{
				"type": "occ",
				"energy": -0.31248,
				"method": "rhf"
			},
			{
				"type": "occ",
				"energy": -0.23548,
				"method": "rhf"
			},
			{
				"type": "occ",
				"energy": -0.22925,
				"method": "rhf"
			},
			{
				"type": "occ",
				"energy": -0.20293,
				"method": "rhf"
			},
			{
				"type": "unocc",
				"energy": 0.00564,
				"method": "rhf"
			},
			{
				"type": "unocc",
				"energy": 0.01934,
				"method": "rhf"
			},
			{
				"type": "unocc",
				"energy": 0.05435,
				"method": "rhf"
			},
			{
				"type": "unocc",
				"energy": 0.08959,
				"method": "rhf"
			},
			{
				"type": "unocc",
				"energy": 0.10459,
				"method": "rhf"
			}
		],
		"cosmo_sigma_profile": { 
			"-0.025": 0.0,
			"-0.024": 0.0,
			"-0.023": 0.0,
			"-0.022": 0.0,
			"-0.021": 0.0,
			"-0.02": 0.0,
			"-0.019": 0.0,
			"-0.018": 0.441169292932,
			"-0.017": 1.34180658978,
			"-0.016": 0.902068199319,
			"-0.015": 1.30794452517,
			"-0.014": 1.35916999918,
			"-0.013": 1.83656644358,
			"-0.012": 1.07458598472,
			"-0.011": 1.39882846022,
			"-0.01": 1.83458668585,
			"-0.009": 3.51073220607,
			"-0.008": 3.45472727636,
			"-0.007": 3.84142408654,
			"-0.006": 5.31154175534,
			"-0.005": 7.86694233961,
			"-0.004": 10.5892498053,
			"-0.003": 14.5246870349,
			"-0.002": 16.7809341526,
			"-0.001": 18.7343305122,
			"0.0": 15.635427962,
			"0.001": 9.327300105,
			"0.002": 10.2041322707,
			"0.003": 11.2050745948,
			"0.004": 12.5980821722,
			"0.005": 11.8353513457,
			"0.006": 9.16286376812,
			"0.007": 4.30991240481,
			"0.008": 2.88545614112,
			"0.009": 1.6568693688,
			"0.01": 2.48530204029,
			"0.011": 3.30310562544,
			"0.012": 2.00199694936,
			"0.013": 0.468739919443,
			"0.014": 0.363458953771,
			"0.015": 0.782835841017,
			"0.016": 0.331075754827,
			"0.017": 0.305744114791,
			"0.018": 0.842777564881,
			"0.019": 0.312992646104,
			"0.02": 0.490805290979,
			"0.021": 0.000919229243838,
			"0.022": 0.0,
			"0.023": 0.0,
			"0.024": 0.0,
			"0.025": 0.0
		}
	}
}
