{
	 "smiles": "CC1=CC=CC2=CC3=CC=C4C=CC=CC4=C3C=C12", 
	 "Tm": 391.15, 
	 "num_atms": 33, 
	 "gaussian": { 
		 "optdone": 1, 
		 "sigma_profile": "yes", 
		 "theory": "DFT", 
		 "functional": "B3LYP", 
		 "basiset": "6-31G**", 
		 "properties": { 
			 "R2extent": 5701.7818, 
			 "electric_dipole_moment_norm": 0.355229137318, 
			 "electric_quadrupole_moment_norm": 12.961573114, 
			 "total_energy": -732.50193399, 
			 "HOMO_LUMO_gap": 0.13807, 
			 "cosmo_polarized_energy": -7.17, 
			 "cosmo_cavitation_energy": 35.33, 
			 "cosmo_dispersion_energy": -26.09, 
			 "cosmo_repulsion_energy": 1.91, 
			 "cosmo_total_nonelectrostatic_energy": 11.16, 
			 "SMD_solvation_energy": 5.05 
		},
		"coords": [
			{
				"x": 2.615074676,
				"y": 1.5132809389,
				"z": -2.0861721271,
				"element": "C" 
			},
			{
				"x": 1.106090729,
				"y": 1.482398696,
				"z": -2.0816289128,
				"element": "C" 
			},
			{
				"x": 0.3930184417,
				"y": 2.118073252,
				"z": -3.0739591338,
				"element": "C" 
			},
			{
				"x": -1.0277009888,
				"y": 2.1104336389,
				"z": -3.1021072059,
				"element": "C" 
			},
			{
				"x": -1.735313697,
				"y": 1.4593949072,
				"z": -2.1260407425,
				"element": "C" 
			},
			{
				"x": -1.0524212968,
				"y": 0.783196968,
				"z": -1.0727237922,
				"element": "C" 
			},
			{
				"x": -1.7443684459,
				"y": 0.1055173154,
				"z": -0.0556534168,
				"element": "C" 
			},
			{
				"x": -1.0856214459,
				"y": -0.5581773151,
				"z": 0.9775287194,
				"element": "C" 
			},
			{
				"x": -1.8247482346,
				"y": -1.2441939502,
				"z": 2.0058590039,
				"element": "C" 
			},
			{
				"x": -1.1911830929,
				"y": -1.8923975649,
				"z": 3.0143136562,
				"element": "C" 
			},
			{
				"x": 0.2473140176,
				"y": -1.9227289788,
				"z": 3.1003553972,
				"element": "C" 
			},
			{
				"x": 0.8869623971,
				"y": -2.6036471366,
				"z": 4.1586245453,
				"element": "C" 
			},
			{
				"x": 2.2665676533,
				"y": -2.6417776635,
				"z": 4.2548277261,
				"element": "C" 
			},
			{
				"x": 3.0446661045,
				"y": -1.9917366497,
				"z": 3.2827945927,
				"element": "C" 
			},
			{
				"x": 2.4364331416,
				"y": -1.3175782211,
				"z": 2.2357209213,
				"element": "C" 
			},
			{
				"x": 1.0313026599,
				"y": -1.2611014385,
				"z": 2.1106989769,
				"element": "C" 
			},
			{
				"x": 0.354693506,
				"y": -0.5579966429,
				"z": 1.0172366679,
				"element": "C" 
			},
			{
				"x": 1.0412492085,
				"y": 0.115626065,
				"z": 0.0064539135,
				"element": "C" 
			},
			{
				"x": 0.3871554623,
				"y": 0.7902992803,
				"z": -1.0433757139,
				"element": "C" 
			},
			{
				"x": 2.9882114613,
				"y": 2.0801803314,
				"z": -2.9427908885,
				"element": "H" 
			},
			{
				"x": 3.0419840007,
				"y": 0.5046554552,
				"z": -2.1424688491,
				"element": "H" 
			},
			{
				"x": 3.0146526771,
				"y": 1.9802550768,
				"z": -1.1778630849,
				"element": "H" 
			},
			{
				"x": 0.9309880265,
				"y": 2.6419079029,
				"z": -3.8600123903,
				"element": "H" 
			},
			{
				"x": -1.5465113933,
				"y": 2.6259827824,
				"z": -3.9052122084,
				"element": "H" 
			},
			{
				"x": -2.8220568803,
				"y": 1.4471902831,
				"z": -2.1377686957,
				"element": "H" 
			},
			{
				"x": -2.8321081505,
				"y": 0.098917381,
				"z": -0.0758881181,
				"element": "H" 
			},
			{
				"x": -2.9102703399,
				"y": -1.2291062537,
				"z": 1.9527325532,
				"element": "H" 
			},
			{
				"x": -1.7607806149,
				"y": -2.4064012946,
				"z": 3.7842958262,
				"element": "H" 
			},
			{
				"x": 0.2714584587,
				"y": -3.1020631734,
				"z": 4.9034177392,
				"element": "H" 
			},
			{
				"x": 2.7447590106,
				"y": -3.1696425992,
				"z": 5.0746765504,
				"element": "H" 
			},
			{
				"x": 4.1285371887,
				"y": -2.0158303756,
				"z": 3.3494356825,
				"element": "H" 
			},
			{
				"x": 3.0654708736,
				"y": -0.8260333888,
				"z": 1.5017602783,
				"element": "H" 
			},
			{
				"x": 2.1237948861,
				"y": 0.1271023722,
				"z": 0.0190325298,
				"element": "H" 
			}
		],
		 "valence_orbital": [ 
			{
				"type": "occ",
				"energy": -0.28118,
				"method": "rhf"
			},
			{
				"type": "occ",
				"energy": -0.26217,
				"method": "rhf"
			},
			{
				"type": "occ",
				"energy": -0.24263,
				"method": "rhf"
			},
			{
				"type": "occ",
				"energy": -0.21736,
				"method": "rhf"
			},
			{
				"type": "occ",
				"energy": -0.19408,
				"method": "rhf"
			},
			{
				"type": "unocc",
				"energy": -0.05601,
				"method": "rhf"
			},
			{
				"type": "unocc",
				"energy": -0.0331,
				"method": "rhf"
			},
			{
				"type": "unocc",
				"energy": -0.00116,
				"method": "rhf"
			},
			{
				"type": "unocc",
				"energy": 0.01566,
				"method": "rhf"
			},
			{
				"type": "unocc",
				"energy": 0.04353,
				"method": "rhf"
			}
		],
		"cosmo_sigma_profile": { 
			"-0.025": 0.0,
			"-0.024": 0.0,
			"-0.023": 0.0,
			"-0.022": 0.0,
			"-0.021": 0.0,
			"-0.02": 0.0,
			"-0.019": 0.0,
			"-0.018": 0.0,
			"-0.017": 0.0,
			"-0.016": 0.0,
			"-0.015": 0.0,
			"-0.014": 0.0,
			"-0.013": 0.0,
			"-0.012": 0.0,
			"-0.011": 0.0,
			"-0.01": 0.0,
			"-0.009": 0.0,
			"-0.008": 0.666634029451,
			"-0.007": 1.71609676002,
			"-0.006": 15.0001110081,
			"-0.005": 23.3453212357,
			"-0.004": 27.9215760625,
			"-0.003": 24.0315992833,
			"-0.002": 18.3730056483,
			"-0.001": 17.9716012345,
			"0.0": 18.854577172,
			"0.001": 16.7863115769,
			"0.002": 18.5788036934,
			"0.003": 28.0584079641,
			"0.004": 43.9129119781,
			"0.005": 23.7426432936,
			"0.006": 4.61661113396,
			"0.007": 0.0,
			"0.008": 0.0,
			"0.009": 0.0,
			"0.01": 0.0,
			"0.011": 0.0,
			"0.012": 0.0,
			"0.013": 0.0,
			"0.014": 0.0,
			"0.015": 0.0,
			"0.016": 0.0,
			"0.017": 0.0,
			"0.018": 0.0,
			"0.019": 0.0,
			"0.02": 0.0,
			"0.021": 0.0,
			"0.022": 0.0,
			"0.023": 0.0,
			"0.024": 0.0,
			"0.025": 0.0
		}
	}
}
