{
	 "smiles": "CC1=C(C)C=C2C(CCl)=CC(=O)OC2=C1", 
	 "Tm": 462.15, 
	 "num_atms": 26, 
	 "gaussian": { 
		 "optdone": 1, 
		 "sigma_profile": "yes", 
		 "theory": "DFT", 
		 "functional": "B3LYP", 
		 "basiset": "6-31G**", 
		 "properties": { 
			 "R2extent": 5201.4615, 
			 "electric_dipole_moment_norm": 6.56947451247, 
			 "electric_quadrupole_moment_norm": 14.0494319761, 
			 "total_energy": -1074.56788159, 
			 "HOMO_LUMO_gap": 0.16514, 
			 "cosmo_polarized_energy": -13.58, 
			 "cosmo_cavitation_energy": 31.21, 
			 "cosmo_dispersion_energy": -23.01, 
			 "cosmo_repulsion_energy": 1.78, 
			 "cosmo_total_nonelectrostatic_energy": 9.98, 
			 "SMD_solvation_energy": 6.03 
		},
		"coords": [
			{
				"x": -2.4003096857,
				"y": 1.062053575,
				"z": -2.7085057945,
				"element": "C" 
			},
			{
				"x": -1.8264498406,
				"y": 0.8103459687,
				"z": -1.3363400156,
				"element": "C" 
			},
			{
				"x": -1.0862029201,
				"y": 1.8172659766,
				"z": -0.6637134566,
				"element": "C" 
			},
			{
				"x": -0.8554271645,
				"y": 3.1643954581,
				"z": -1.3052965983,
				"element": "C" 
			},
			{
				"x": -0.5737815423,
				"y": 1.5452559378,
				"z": 0.6003134387,
				"element": "C" 
			},
			{
				"x": -0.7614749055,
				"y": 0.3042908779,
				"z": 1.2417398164,
				"element": "C" 
			},
			{
				"x": -0.251090681,
				"y": -0.0417364493,
				"z": 2.5617581249,
				"element": "C" 
			},
			{
				"x": 0.5394256713,
				"y": 1.0145855042,
				"z": 3.2952920078,
				"element": "C" 
			},
			{
				"x": 1.1476708011,
				"y": 0.5347647139,
				"z": 4.9237308203,
				"element": "Cl" 
			},
			{
				"x": -0.5030441803,
				"y": -1.2731842848,
				"z": 3.0645204037,
				"element": "C" 
			},
			{
				"x": -1.2692452524,
				"y": -2.2799423779,
				"z": 2.339569345,
				"element": "C" 
			},
			{
				"x": -1.5267470044,
				"y": -3.3927154237,
				"z": 2.7338476111,
				"element": "O" 
			},
			{
				"x": -1.7387179995,
				"y": -1.9079403952,
				"z": 1.0814014726,
				"element": "O" 
			},
			{
				"x": -1.4983631858,
				"y": -0.6740565459,
				"z": 0.5526733878,
				"element": "C" 
			},
			{
				"x": -2.0210958671,
				"y": -0.4212749011,
				"z": -0.7163946611,
				"element": "C" 
			},
			{
				"x": -1.6144588352,
				"y": 1.3064523949,
				"z": -3.4331228203,
				"element": "H" 
			},
			{
				"x": -2.938279947,
				"y": 0.1865295162,
				"z": -3.0791888394,
				"element": "H" 
			},
			{
				"x": -3.0975020535,
				"y": 1.908370197,
				"z": -2.7025027858,
				"element": "H" 
			},
			{
				"x": -0.3165622164,
				"y": 3.0738308633,
				"z": -2.256043624,
				"element": "H" 
			},
			{
				"x": -1.8000851155,
				"y": 3.6757874659,
				"z": -1.5257252692,
				"element": "H" 
			},
			{
				"x": -0.2694806661,
				"y": 3.8168910264,
				"z": -0.6528462872,
				"element": "H" 
			},
			{
				"x": -0.0094608218,
				"y": 2.3247294796,
				"z": 1.1033075877,
				"element": "H" 
			},
			{
				"x": 1.4182943162,
				"y": 1.3017321354,
				"z": 2.7130562296,
				"element": "H" 
			},
			{
				"x": -0.0724009022,
				"y": 1.9068617228,
				"z": 3.448174051,
				"element": "H" 
			},
			{
				"x": -0.1458157245,
				"y": -1.577424794,
				"z": 4.0394506759,
				"element": "H" 
			},
			{
				"x": -2.5826942774,
				"y": -1.2105676417,
				"z": -1.2056548203,
				"element": "H" 
			}
		],
		 "valence_orbital": [ 
			{
				"type": "occ",
				"energy": -0.31413,
				"method": "rhf"
			},
			{
				"type": "occ",
				"energy": -0.30171,
				"method": "rhf"
			},
			{
				"type": "occ",
				"energy": -0.27184,
				"method": "rhf"
			},
			{
				"type": "occ",
				"energy": -0.25629,
				"method": "rhf"
			},
			{
				"type": "occ",
				"energy": -0.23258,
				"method": "rhf"
			},
			{
				"type": "unocc",
				"energy": -0.06744,
				"method": "rhf"
			},
			{
				"type": "unocc",
				"energy": -0.01449,
				"method": "rhf"
			},
			{
				"type": "unocc",
				"energy": 0.0001,
				"method": "rhf"
			},
			{
				"type": "unocc",
				"energy": 0.00966,
				"method": "rhf"
			},
			{
				"type": "unocc",
				"energy": 0.07769,
				"method": "rhf"
			}
		],
		"cosmo_sigma_profile": { 
			"-0.025": 0.0,
			"-0.024": 0.0,
			"-0.023": 0.0,
			"-0.022": 0.0,
			"-0.021": 0.0,
			"-0.02": 0.0,
			"-0.019": 0.0,
			"-0.018": 0.0,
			"-0.017": 0.0,
			"-0.016": 0.0,
			"-0.015": 0.0,
			"-0.014": 0.0,
			"-0.013": 0.0,
			"-0.012": 0.0,
			"-0.011": 0.0,
			"-0.01": 0.0324571484868,
			"-0.009": 4.91671005385,
			"-0.008": 7.12268241274,
			"-0.007": 5.54952854185,
			"-0.006": 8.34184149204,
			"-0.005": 12.8195741511,
			"-0.004": 20.6014606844,
			"-0.003": 19.0228911785,
			"-0.002": 19.6652574892,
			"-0.001": 26.57706852,
			"0.0": 27.1229139354,
			"0.001": 20.2797004346,
			"0.002": 15.5881917274,
			"0.003": 16.558367744,
			"0.004": 9.19312551995,
			"0.005": 8.65223876705,
			"0.006": 6.12273564006,
			"0.007": 2.6023669025,
			"0.008": 1.62995033643,
			"0.009": 2.16341334807,
			"0.01": 3.08575977001,
			"0.011": 3.27315404811,
			"0.012": 6.28477583515,
			"0.013": 3.24020883485,
			"0.014": 0.184288525186,
			"0.015": 0.0,
			"0.016": 0.0,
			"0.017": 0.0,
			"0.018": 0.0,
			"0.019": 0.0,
			"0.02": 0.0,
			"0.021": 0.0,
			"0.022": 0.0,
			"0.023": 0.0,
			"0.024": 0.0,
			"0.025": 0.0
		}
	}
}
