{
	 "smiles": "OC(=O)CC1=CC=C(S1)S(=O)(=O)N1CCOCC1", 
	 "Tm": 390.15, 
	 "num_atms": 31, 
	 "gaussian": { 
		 "optdone": 1, 
		 "sigma_profile": "yes", 
		 "theory": "DFT", 
		 "functional": "B3LYP", 
		 "basiset": "6-31G**", 
		 "properties": { 
			 "R2extent": 6371.181, 
			 "electric_dipole_moment_norm": 6.14325837646, 
			 "electric_quadrupole_moment_norm": 19.9395839044, 
			 "total_energy": -1616.042657, 
			 "HOMO_LUMO_gap": 0.19461, 
			 "cosmo_polarized_energy": -22.84, 
			 "cosmo_cavitation_energy": 36.9, 
			 "cosmo_dispersion_energy": -27.09, 
			 "cosmo_repulsion_energy": 2.03, 
			 "cosmo_total_nonelectrostatic_energy": 11.85, 
			 "SMD_solvation_energy": 5.11 
		},
		"coords": [
			{
				"x": -5.420993249,
				"y": 1.0339547192,
				"z": 2.5341437077,
				"element": "O" 
			},
			{
				"x": -4.2114715706,
				"y": 1.1978154687,
				"z": 1.958198732,
				"element": "C" 
			},
			{
				"x": -3.6444600345,
				"y": 2.2657599098,
				"z": 1.9002167987,
				"element": "O" 
			},
			{
				"x": -3.7117205032,
				"y": -0.1006428582,
				"z": 1.3533562903,
				"element": "C" 
			},
			{
				"x": -2.2198057004,
				"y": -0.2269015914,
				"z": 1.2221725752,
				"element": "C" 
			},
			{
				"x": -1.5094735845,
				"y": -1.3986532417,
				"z": 1.3293240832,
				"element": "C" 
			},
			{
				"x": -0.1184718334,
				"y": -1.2445571667,
				"z": 1.0788644009,
				"element": "C" 
			},
			{
				"x": 0.2070556742,
				"y": 0.0538231384,
				"z": 0.7785138642,
				"element": "C" 
			},
			{
				"x": -1.1748823167,
				"y": 1.1152994155,
				"z": 0.8314789278,
				"element": "S" 
			},
			{
				"x": 1.8362701809,
				"y": 0.6437270939,
				"z": 0.381346996,
				"element": "S" 
			},
			{
				"x": 1.8952714613,
				"y": 2.0502543733,
				"z": 0.7790431501,
				"element": "O" 
			},
			{
				"x": 2.7685694336,
				"y": -0.3691732782,
				"z": 0.8759779955,
				"element": "O" 
			},
			{
				"x": 1.9768270869,
				"y": 0.6198168001,
				"z": -1.2869054781,
				"element": "N" 
			},
			{
				"x": 1.3662761827,
				"y": 1.7059692157,
				"z": -2.0816172151,
				"element": "C" 
			},
			{
				"x": 0.3863946845,
				"y": 1.1335242114,
				"z": -3.1017073008,
				"element": "C" 
			},
			{
				"x": 0.9960050192,
				"y": 0.1923965898,
				"z": -3.9845858764,
				"element": "O" 
			},
			{
				"x": 2.1264073572,
				"y": -0.4866144324,
				"z": -3.4462905073,
				"element": "C" 
			},
			{
				"x": 2.0298683281,
				"y": -0.7013323638,
				"z": -1.9391493848,
				"element": "C" 
			},
			{
				"x": -5.6981441418,
				"y": 1.9108644752,
				"z": 2.8507509706,
				"element": "H" 
			},
			{
				"x": -4.1893890674,
				"y": -0.1658081103,
				"z": 0.363558805,
				"element": "H" 
			},
			{
				"x": -4.1030618453,
				"y": -0.9417893695,
				"z": 1.9318589225,
				"element": "H" 
			},
			{
				"x": -1.9732874965,
				"y": -2.3456370893,
				"z": 1.5840932068,
				"element": "H" 
			},
			{
				"x": 0.6172039572,
				"y": -2.0363835332,
				"z": 1.1452480646,
				"element": "H" 
			},
			{
				"x": 2.1619658428,
				"y": 2.2614460798,
				"z": -2.5920897071,
				"element": "H" 
			},
			{
				"x": 0.8623402966,
				"y": 2.4112632504,
				"z": -1.4174324756,
				"element": "H" 
			},
			{
				"x": -0.017025779,
				"y": 1.9400579888,
				"z": -3.7235176177,
				"element": "H" 
			},
			{
				"x": -0.4573873294,
				"y": 0.6627279433,
				"z": -2.5745920991,
				"element": "H" 
			},
			{
				"x": 2.1815902802,
				"y": -1.456500777,
				"z": -3.9504915835,
				"element": "H" 
			},
			{
				"x": 3.0513624309,
				"y": 0.0642797909,
				"z": -3.6750513787,
				"element": "H" 
			},
			{
				"x": 1.1350271624,
				"y": -1.3012899575,
				"z": -1.7119043792,
				"element": "H" 
			},
			{
				"x": 2.9061390729,
				"y": -1.242896695,
				"z": -1.5756124882,
				"element": "H" 
			}
		],
		 "valence_orbital": [ 
			{
				"type": "occ",
				"energy": -0.29887,
				"method": "rhf"
			},
			{
				"type": "occ",
				"energy": -0.26906,
				"method": "rhf"
			},
			{
				"type": "occ",
				"energy": -0.26844,
				"method": "rhf"
			},
			{
				"type": "occ",
				"energy": -0.25652,
				"method": "rhf"
			},
			{
				"type": "occ",
				"energy": -0.24054,
				"method": "rhf"
			},
			{
				"type": "unocc",
				"energy": -0.04593,
				"method": "rhf"
			},
			{
				"type": "unocc",
				"energy": -0.0116,
				"method": "rhf"
			},
			{
				"type": "unocc",
				"energy": 0.02318,
				"method": "rhf"
			},
			{
				"type": "unocc",
				"energy": 0.03543,
				"method": "rhf"
			},
			{
				"type": "unocc",
				"energy": 0.05156,
				"method": "rhf"
			}
		],
		"cosmo_sigma_profile": { 
			"-0.025": 0.0,
			"-0.024": 0.0,
			"-0.023": 0.0,
			"-0.022": 0.0,
			"-0.021": 0.0,
			"-0.02": 0.0,
			"-0.019": 0.398017647578,
			"-0.018": 0.934072494074,
			"-0.017": 0.987677444972,
			"-0.016": 1.20185090695,
			"-0.015": 0.394525311047,
			"-0.014": 0.47669699343,
			"-0.013": 0.740030314624,
			"-0.012": 0.710237985866,
			"-0.011": 0.84853100351,
			"-0.01": 0.861252769392,
			"-0.009": 2.5501640031,
			"-0.008": 7.63358704979,
			"-0.007": 9.69575926033,
			"-0.006": 18.0635881396,
			"-0.005": 27.8385498888,
			"-0.004": 28.8904031666,
			"-0.003": 22.7864451619,
			"-0.002": 17.4870583668,
			"-0.001": 13.2694005208,
			"0.0": 11.4721444002,
			"0.001": 15.0747737701,
			"0.002": 16.6424474774,
			"0.003": 12.7754646777,
			"0.004": 10.2504219612,
			"0.005": 9.08987758567,
			"0.006": 7.82405788995,
			"0.007": 9.04844436336,
			"0.008": 8.22559980522,
			"0.009": 7.94122139701,
			"0.01": 11.1617522161,
			"0.011": 12.8137077471,
			"0.012": 3.64015340885,
			"0.013": 1.5942974263,
			"0.014": 0.255145029634,
			"0.015": 0.0,
			"0.016": 0.0,
			"0.017": 0.0,
			"0.018": 0.0,
			"0.019": 0.0,
			"0.02": 0.0,
			"0.021": 0.0,
			"0.022": 0.0,
			"0.023": 0.0,
			"0.024": 0.0,
			"0.0": 0.0
		}
	}
}
