{
	 "smiles": "OC(=O)CC1=C(Cl)C=NC=C1F", 
	 "Tm": 373.15, 
	 "num_atms": 17, 
	 "gaussian": { 
		 "optdone": 1, 
		 "sigma_profile": "yes", 
		 "theory": "DFT", 
		 "functional": "B3LYP", 
		 "basiset": "6-31G**", 
		 "properties": { 
			 "R2extent": 2496.4001, 
			 "electric_dipole_moment_norm": 2.38841779637, 
			 "electric_quadrupole_moment_norm": 4.36844170958, 
			 "total_energy": -1034.98928885, 
			 "HOMO_LUMO_gap": 0.21665, 
			 "cosmo_polarized_energy": -11.34, 
			 "cosmo_cavitation_energy": 24.54, 
			 "cosmo_dispersion_energy": -17.52, 
			 "cosmo_repulsion_energy": 1.39, 
			 "cosmo_total_nonelectrostatic_energy": 8.41, 
			 "SMD_solvation_energy": 4.27 
		},
		"coords": [
			{
				"x": 0.3157911119,
				"y": -2.4272778201,
				"z": 1.3490263726,
				"element": "O" 
			},
			{
				"x": -0.2033414286,
				"y": -1.4685231815,
				"z": 0.5490649567,
				"element": "C" 
			},
			{
				"x": -1.1585153337,
				"y": -1.6456566834,
				"z": -0.1688659643,
				"element": "O" 
			},
			{
				"x": 0.5948197665,
				"y": -0.1778248084,
				"z": 0.6836942272,
				"element": "C" 
			},
			{
				"x": -0.0187954072,
				"y": 0.9615003279,
				"z": -0.0797679904,
				"element": "C" 
			},
			{
				"x": -0.8451760156,
				"y": 1.9456123582,
				"z": 0.4734221534,
				"element": "C" 
			},
			{
				"x": -1.2526559856,
				"y": 1.9213965994,
				"z": 2.1798197512,
				"element": "Cl" 
			},
			{
				"x": -1.3661248066,
				"y": 2.9694018913,
				"z": -0.3241714267,
				"element": "C" 
			},
			{
				"x": -1.1152472849,
				"y": 3.0625208051,
				"z": -1.6310293798,
				"element": "N" 
			},
			{
				"x": -0.3349975696,
				"y": 2.1338279592,
				"z": -2.1917837258,
				"element": "C" 
			},
			{
				"x": 0.2106001192,
				"y": 1.0941841206,
				"z": -1.4499203666,
				"element": "C" 
			},
			{
				"x": 0.9971789028,
				"y": 0.187467959,
				"z": -2.0608763314,
				"element": "F" 
			},
			{
				"x": -0.2242852861,
				"y": -3.2232235119,
				"z": 1.2083487381,
				"element": "H" 
			},
			{
				"x": 0.6899871898,
				"y": 0.059529966,
				"z": 1.7456018443,
				"element": "H" 
			},
			{
				"x": 1.6030383471,
				"y": -0.3837915274,
				"z": 0.3090400078,
				"element": "H" 
			},
			{
				"x": -2.0040816168,
				"y": 3.7295295828,
				"z": 0.1181906218,
				"element": "H" 
			},
			{
				"x": -0.1321947025,
				"y": 2.2066259633,
				"z": -3.256993488,
				"element": "H" 
			}
		],
		 "valence_orbital": [ 
			{
				"type": "occ",
				"energy": -0.33188,
				"method": "rhf"
			},
			{
				"type": "occ",
				"energy": -0.29318,
				"method": "rhf"
			},
			{
				"type": "occ",
				"energy": -0.28645,
				"method": "rhf"
			},
			{
				"type": "occ",
				"energy": -0.27518,
				"method": "rhf"
			},
			{
				"type": "occ",
				"energy": -0.26324,
				"method": "rhf"
			},
			{
				"type": "unocc",
				"energy": -0.04659,
				"method": "rhf"
			},
			{
				"type": "unocc",
				"energy": -0.02539,
				"method": "rhf"
			},
			{
				"type": "unocc",
				"energy": -0.00154,
				"method": "rhf"
			},
			{
				"type": "unocc",
				"energy": 0.01443,
				"method": "rhf"
			},
			{
				"type": "unocc",
				"energy": 0.06897,
				"method": "rhf"
			}
		],
		"cosmo_sigma_profile": { 
			"-0.025": 0.0,
			"-0.024": 0.0,
			"-0.023": 0.0,
			"-0.022": 0.0,
			"-0.021": 0.0,
			"-0.02": 0.0,
			"-0.019": 0.253020619196,
			"-0.018": 0.766405143358,
			"-0.017": 1.1237442669,
			"-0.016": 0.846337074167,
			"-0.015": 0.800403181023,
			"-0.014": 0.960571180469,
			"-0.013": 0.309230809987,
			"-0.012": 0.858953889741,
			"-0.011": 0.965402328055,
			"-0.01": 0.395906768374,
			"-0.009": 1.0403383628,
			"-0.008": 5.63958540252,
			"-0.007": 6.72504051225,
			"-0.006": 9.06672539584,
			"-0.005": 9.23697928209,
			"-0.004": 10.2616000851,
			"-0.003": 11.3299878213,
			"-0.002": 15.7513179383,
			"-0.001": 17.4869305473,
			"0.0": 16.6916118649,
			"0.001": 14.312059141,
			"0.002": 11.2241696664,
			"0.003": 19.6760067323,
			"0.004": 9.81614676097,
			"0.005": 3.56534811987,
			"0.006": 4.31883026475,
			"0.007": 4.00809790531,
			"0.008": 4.65939132996,
			"0.009": 3.69844031955,
			"0.01": 3.22614480023,
			"0.011": 6.26628418396,
			"0.012": 1.56397742707,
			"0.013": 1.12434769444,
			"0.014": 0.592122715006,
			"0.015": 0.567481199653,
			"0.016": 0.0,
			"0.017": 0.0,
			"0.018": 0.0,
			"0.019": 0.0,
			"0.02": 0.0,
			"0.021": 0.0,
			"0.022": 0.0,
			"0.023": 0.0,
			"0.024": 0.0,
			"0.025": 0.0
		}
	}
}
