{
	 "smiles": "SC1=NN=C(NCC2=CC=CC=C2)S1", 
	 "Tm": 420.15, 
	 "num_atms": 23, 
	 "gaussian": { 
		 "optdone": 1, 
		 "sigma_profile": "yes", 
		 "theory": "DFT", 
		 "functional": "B3LYP", 
		 "basiset": "6-31G**", 
		 "properties": { 
			 "R2extent": 8181.7127, 
			 "electric_dipole_moment_norm": 5.24416529964, 
			 "electric_quadrupole_moment_norm": 25.580763542, 
			 "total_energy": -1308.96922926, 
			 "HOMO_LUMO_gap": 0.19361, 
			 "cosmo_polarized_energy": -15.12, 
			 "cosmo_cavitation_energy": 31.26, 
			 "cosmo_dispersion_energy": -23.85, 
			 "cosmo_repulsion_energy": 1.8, 
			 "cosmo_total_nonelectrostatic_energy": 9.21, 
			 "SMD_solvation_energy": 2.12 
		},
		"coords": [
			{
				"x": -5.8179393603,
				"y": -3.5919151981,
				"z": 3.159214572,
				"element": "S" 
			},
			{
				"x": -4.5780451701,
				"y": -2.4318671468,
				"z": 2.6600985455,
				"element": "C" 
			},
			{
				"x": -4.555881007,
				"y": -1.1913935092,
				"z": 3.0390093049,
				"element": "N" 
			},
			{
				"x": -3.5684181325,
				"y": -0.4475460387,
				"z": 2.4711721167,
				"element": "N" 
			},
			{
				"x": -2.828594537,
				"y": -1.140826246,
				"z": 1.6299793808,
				"element": "C" 
			},
			{
				"x": -1.8038293374,
				"y": -0.5860197249,
				"z": 0.9288775156,
				"element": "N" 
			},
			{
				"x": -0.7824702066,
				"y": -1.3632690221,
				"z": 0.2342711999,
				"element": "C" 
			},
			{
				"x": 0.078773665,
				"y": -0.4752012209,
				"z": -0.6391393024,
				"element": "C" 
			},
			{
				"x": -0.508603689,
				"y": 0.3769295614,
				"z": -1.5851406393,
				"element": "C" 
			},
			{
				"x": 0.2862390811,
				"y": 1.1815980414,
				"z": -2.4001246998,
				"element": "C" 
			},
			{
				"x": 1.6782809697,
				"y": 1.1416124545,
				"z": -2.2830913933,
				"element": "C" 
			},
			{
				"x": 2.27004007,
				"y": 0.2959755386,
				"z": -1.3447766941,
				"element": "C" 
			},
			{
				"x": 1.4724187217,
				"y": -0.5053233007,
				"z": -0.5247235099,
				"element": "C" 
			},
			{
				"x": -3.311507599,
				"y": -2.8256632062,
				"z": 1.4715510919,
				"element": "S" 
			},
			{
				"x": -5.017734364,
				"y": -4.3787506928,
				"z": 3.9121332122,
				"element": "H" 
			},
			{
				"x": -1.5403216142,
				"y": 0.3349286345,
				"z": 1.2575370597,
				"element": "H" 
			},
			{
				"x": -0.1487911387,
				"y": -1.920431517,
				"z": 0.9404413792,
				"element": "H" 
			},
			{
				"x": -1.297101934,
				"y": -2.1092831977,
				"z": -0.3865009779,
				"element": "H" 
			},
			{
				"x": -1.5908792756,
				"y": 0.4093358887,
				"z": -1.6755817561,
				"element": "H" 
			},
			{
				"x": -0.1800246081,
				"y": 1.8382313235,
				"z": -3.1289538686,
				"element": "H" 
			},
			{
				"x": 2.2966591563,
				"y": 1.7681857131,
				"z": -2.9191643236,
				"element": "H" 
			},
			{
				"x": 3.3510301698,
				"y": 0.2626214929,
				"z": -1.2449316826,
				"element": "H" 
			},
			{
				"x": 1.9367001397,
				"y": -1.1583286274,
				"z": 0.2101434694,
				"element": "H" 
			}
		],
		 "valence_orbital": [ 
			{
				"type": "occ",
				"energy": -0.26888,
				"method": "rhf"
			},
			{
				"type": "occ",
				"energy": -0.26441,
				"method": "rhf"
			},
			{
				"type": "occ",
				"energy": -0.26228,
				"method": "rhf"
			},
			{
				"type": "occ",
				"energy": -0.25458,
				"method": "rhf"
			},
			{
				"type": "occ",
				"energy": -0.22546,
				"method": "rhf"
			},
			{
				"type": "unocc",
				"energy": -0.03185,
				"method": "rhf"
			},
			{
				"type": "unocc",
				"energy": -0.02361,
				"method": "rhf"
			},
			{
				"type": "unocc",
				"energy": -0.01504,
				"method": "rhf"
			},
			{
				"type": "unocc",
				"energy": -0.00186,
				"method": "rhf"
			},
			{
				"type": "unocc",
				"energy": 0.02522,
				"method": "rhf"
			}
		],
		"cosmo_sigma_profile": { 
			"-0.025": 0.0,
			"-0.024": 0.0,
			"-0.023": 0.0,
			"-0.022": 0.0,
			"-0.021": 0.0,
			"-0.02": 0.0,
			"-0.019": 0.0,
			"-0.018": 0.0,
			"-0.017": 0.0,
			"-0.016": 0.0,
			"-0.015": 0.0304630545511,
			"-0.014": 1.1864012758,
			"-0.013": 0.549805613677,
			"-0.012": 0.614488078948,
			"-0.011": 3.19832841738,
			"-0.01": 3.6127231801,
			"-0.009": 2.73195827465,
			"-0.008": 2.18493655026,
			"-0.007": 4.13207262449,
			"-0.006": 14.1807173126,
			"-0.005": 19.5617524245,
			"-0.004": 20.6335627466,
			"-0.003": 18.4656076011,
			"-0.002": 15.8601608071,
			"-0.001": 20.0047200652,
			"0.0": 16.8478604669,
			"0.001": 18.6240006684,
			"0.002": 16.7084383358,
			"0.003": 14.5051502586,
			"0.004": 12.7757139838,
			"0.005": 14.1086830903,
			"0.006": 7.57492593647,
			"0.007": 4.40635168997,
			"0.008": 3.63336506206,
			"0.009": 2.7599484698,
			"0.01": 3.08383940148,
			"0.011": 3.03286998529,
			"0.012": 3.36556862409,
			"0.013": 2.79487512509,
			"0.014": 2.47787762083,
			"0.015": 1.28854664035,
			"0.016": 0.0175996667894,
			"0.017": 0.0,
			"0.018": 0.0,
			"0.019": 0.0,
			"0.02": 0.0,
			"0.021": 0.0,
			"0.022": 0.0,
			"0.023": 0.0,
			"0.024": 0.0,
			"0.025": 0.0
		}
	}
}
