{
	 "smiles": "OC(=O)C1=CN2C=CC=CC2=N1", 
	 "Tm": 516.15, 
	 "num_atms": 18, 
	 "gaussian": { 
		 "optdone": 1, 
		 "sigma_profile": "yes", 
		 "theory": "DFT", 
		 "functional": "B3LYP", 
		 "basiset": "6-31G**", 
		 "properties": { 
			 "R2extent": 2846.8306, 
			 "electric_dipole_moment_norm": 5.38841913737, 
			 "electric_quadrupole_moment_norm": 17.6532938793, 
			 "total_energy": -568.422041877, 
			 "HOMO_LUMO_gap": 0.1702, 
			 "cosmo_polarized_energy": -18.19, 
			 "cosmo_cavitation_energy": 23.32, 
			 "cosmo_dispersion_energy": -17.45, 
			 "cosmo_repulsion_energy": 1.37, 
			 "cosmo_total_nonelectrostatic_energy": 7.23, 
			 "SMD_solvation_energy": 4.09 
		},
		"coords": [
			{
				"x": -3.9048463157,
				"y": -2.5984467977,
				"z": 0.9298122356,
				"element": "O" 
			},
			{
				"x": -3.908432332,
				"y": -1.3512602403,
				"z": 0.3784647957,
				"element": "C" 
			},
			{
				"x": -4.9287580695,
				"y": -0.7467339188,
				"z": 0.1384675629,
				"element": "O" 
			},
			{
				"x": -2.5323304326,
				"y": -0.8744948847,
				"z": 0.130805964,
				"element": "C" 
			},
			{
				"x": -1.3628820981,
				"y": -1.5675240501,
				"z": 0.4060686298,
				"element": "C" 
			},
			{
				"x": -0.3485731132,
				"y": -0.7331399502,
				"z": 0.0099281385,
				"element": "N" 
			},
			{
				"x": 1.0201077616,
				"y": -0.8847833699,
				"z": 0.0404773783,
				"element": "C" 
			},
			{
				"x": 1.8101583972,
				"y": 0.1244172665,
				"z": -0.4269080403,
				"element": "C" 
			},
			{
				"x": 1.2291948698,
				"y": 1.3227255734,
				"z": -0.9413799659,
				"element": "C" 
			},
			{
				"x": -0.1331586913,
				"y": 1.4768848306,
				"z": -0.9732183383,
				"element": "C" 
			},
			{
				"x": -0.9665798563,
				"y": 0.4368707696,
				"z": -0.4910199258,
				"element": "C" 
			},
			{
				"x": -2.2871816771,
				"y": 0.3513830442,
				"z": -0.4178997379,
				"element": "N" 
			},
			{
				"x": -4.839645828,
				"y": -2.8289274479,
				"z": 1.0567225007,
				"element": "H" 
			},
			{
				"x": -1.1863970459,
				"y": -2.541644185,
				"z": 0.8322295293,
				"element": "H" 
			},
			{
				"x": 1.3952138502,
				"y": -1.8178041888,
				"z": 0.4430952017,
				"element": "H" 
			},
			{
				"x": 2.8868811796,
				"y": 0.0022481793,
				"z": -0.4016059498,
				"element": "H" 
			},
			{
				"x": 1.8766501126,
				"y": 2.1123089697,
				"z": -1.3078473801,
				"element": "H" 
			},
			{
				"x": -0.6111207115,
				"y": 2.3710204,
				"z": -1.3558925986,
				"element": "H" 
			}
		],
		 "valence_orbital": [ 
			{
				"type": "occ",
				"energy": -0.31132,
				"method": "rhf"
			},
			{
				"type": "occ",
				"energy": -0.28012,
				"method": "rhf"
			},
			{
				"type": "occ",
				"energy": -0.26922,
				"method": "rhf"
			},
			{
				"type": "occ",
				"energy": -0.25569,
				"method": "rhf"
			},
			{
				"type": "occ",
				"energy": -0.22278,
				"method": "rhf"
			},
			{
				"type": "unocc",
				"energy": -0.05258,
				"method": "rhf"
			},
			{
				"type": "unocc",
				"energy": -0.01872,
				"method": "rhf"
			},
			{
				"type": "unocc",
				"energy": 0.00952,
				"method": "rhf"
			},
			{
				"type": "unocc",
				"energy": 0.07907,
				"method": "rhf"
			},
			{
				"type": "unocc",
				"energy": 0.08481,
				"method": "rhf"
			}
		],
		"cosmo_sigma_profile": { 
			"-0.025": 0.0,
			"-0.024": 0.0,
			"-0.023": 0.0,
			"-0.022": 0.0,
			"-0.021": 0.0,
			"-0.02": 0.0,
			"-0.019": 0.0884808417984,
			"-0.018": 0.770083485669,
			"-0.017": 1.08036332817,
			"-0.016": 0.433713141596,
			"-0.015": 0.834944363671,
			"-0.014": 0.887418893831,
			"-0.013": 0.32228371526,
			"-0.012": 0.554385591587,
			"-0.011": 1.68929818538,
			"-0.01": 4.45475276104,
			"-0.009": 4.2878507721,
			"-0.008": 5.27639639997,
			"-0.007": 9.81658628069,
			"-0.006": 9.37987436801,
			"-0.005": 10.7789117645,
			"-0.004": 6.04663646156,
			"-0.003": 8.12993591658,
			"-0.002": 12.1147024911,
			"-0.001": 13.425153748,
			"0.0": 12.7171758541,
			"0.001": 16.3391676701,
			"0.002": 15.8009419007,
			"0.003": 9.91590179238,
			"0.004": 3.51133522506,
			"0.005": 4.43370049813,
			"0.006": 2.89419508416,
			"0.007": 4.25148389564,
			"0.008": 2.99574104328,
			"0.009": 2.74604626061,
			"0.01": 3.19052538982,
			"0.011": 4.82622017068,
			"0.012": 5.57971682532,
			"0.013": 2.06032678404,
			"0.014": 1.42283988038,
			"0.015": 2.07458331505,
			"0.016": 1.66067822688,
			"0.017": 0.995751830015,
			"0.018": 0.128553200206,
			"0.019": 0.0,
			"0.02": 0.0,
			"0.021": 0.0,
			"0.022": 0.0,
			"0.023": 0.0,
			"0.024": 0.0,
			"0.0": 0.0
		}
	}
}
