{
	 "smiles": "CC(C)C1=C(OCCC(O)=O)C=C(C)C=C1", 
	 "Tm": 367.15, 
	 "num_atms": 34, 
	 "gaussian": { 
		 "optdone": 1, 
		 "sigma_profile": "yes", 
		 "theory": "DFT", 
		 "functional": "B3LYP", 
		 "basiset": "6-31G**", 
		 "properties": { 
			 "R2extent": 4384.7027, 
			 "electric_dipole_moment_norm": 2.51601371419, 
			 "electric_quadrupole_moment_norm": 14.198273613, 
			 "total_energy": -731.927448546, 
			 "HOMO_LUMO_gap": 0.22221, 
			 "cosmo_polarized_energy": -11.63, 
			 "cosmo_cavitation_energy": 36.43, 
			 "cosmo_dispersion_energy": -24.67, 
			 "cosmo_repulsion_energy": 1.98, 
			 "cosmo_total_nonelectrostatic_energy": 13.74, 
			 "SMD_solvation_energy": 7.67 
		},
		"coords": [
			{
				"x": -2.8085530637,
				"y": -0.5895936447,
				"z": 1.6686378664,
				"element": "C" 
			},
			{
				"x": -2.2668401692,
				"y": 0.7205320233,
				"z": 1.0653079382,
				"element": "C" 
			},
			{
				"x": -2.8462415628,
				"y": 0.9694590498,
				"z": -0.3412151402,
				"element": "C" 
			},
			{
				"x": -0.7453786234,
				"y": 0.8076952433,
				"z": 1.0888786337,
				"element": "C" 
			},
			{
				"x": 0.0974195892,
				"y": -0.0829689836,
				"z": 0.3976242748,
				"element": "C" 
			},
			{
				"x": -0.4786975323,
				"y": -1.0813939919,
				"z": -0.3723626316,
				"element": "O" 
			},
			{
				"x": -0.0660917854,
				"y": -2.4281709094,
				"z": -0.1275858019,
				"element": "C" 
			},
			{
				"x": -0.3539711185,
				"y": -3.2364226051,
				"z": -1.3863192932,
				"element": "C" 
			},
			{
				"x": 0.4191125698,
				"y": -2.7677511933,
				"z": -2.6029634714,
				"element": "C" 
			},
			{
				"x": 1.7243274788,
				"y": -2.5211262478,
				"z": -2.3150833989,
				"element": "O" 
			},
			{
				"x": -0.0311078998,
				"y": -2.6515565979,
				"z": -3.718787004,
				"element": "O" 
			},
			{
				"x": 1.48694833,
				"y": 0.0660262501,
				"z": 0.4197035585,
				"element": "C" 
			},
			{
				"x": 2.095962139,
				"y": 1.0896071763,
				"z": 1.1531535646,
				"element": "C" 
			},
			{
				"x": 3.5974926718,
				"y": 1.2587610812,
				"z": 1.1427016539,
				"element": "C" 
			},
			{
				"x": 1.2695879969,
				"y": 1.9693439276,
				"z": 1.8600027657,
				"element": "C" 
			},
			{
				"x": -0.1167224372,
				"y": 1.8294833271,
				"z": 1.81296132,
				"element": "C" 
			},
			{
				"x": -2.4000623824,
				"y": -0.7647131848,
				"z": 2.6693027619,
				"element": "H" 
			},
			{
				"x": -3.9002705559,
				"y": -0.5460482535,
				"z": 1.7524341161,
				"element": "H" 
			},
			{
				"x": -2.5561752758,
				"y": -1.4465164393,
				"z": 1.0391584294,
				"element": "H" 
			},
			{
				"x": -2.6216961112,
				"y": 1.5362780749,
				"z": 1.7093187483,
				"element": "H" 
			},
			{
				"x": -2.5122854537,
				"y": 1.9334198771,
				"z": -0.7382301601,
				"element": "H" 
			},
			{
				"x": -3.9416622091,
				"y": 0.9792037309,
				"z": -0.3067108945,
				"element": "H" 
			},
			{
				"x": -2.5312862492,
				"y": 0.1881357683,
				"z": -1.0371973879,
				"element": "H" 
			},
			{
				"x": -0.6314602362,
				"y": -2.8382895417,
				"z": 0.721274574,
				"element": "H" 
			},
			{
				"x": 0.9981593853,
				"y": -2.4741185867,
				"z": 0.1178024273,
				"element": "H" 
			},
			{
				"x": -1.414561033,
				"y": -3.1989767531,
				"z": -1.6430584718,
				"element": "H" 
			},
			{
				"x": -0.0887720083,
				"y": -4.2852415034,
				"z": -1.2008036278,
				"element": "H" 
			},
			{
				"x": 2.130719103,
				"y": -2.2325785785,
				"z": -3.1494708378,
				"element": "H" 
			},
			{
				"x": 2.0952108692,
				"y": -0.6152515209,
				"z": -0.1689287998,
				"element": "H" 
			},
			{
				"x": 3.9444997018,
				"y": 1.7903464476,
				"z": 2.0337114221,
				"element": "H" 
			},
			{
				"x": 4.11124646,
				"y": 0.2930447581,
				"z": 1.1031645574,
				"element": "H" 
			},
			{
				"x": 3.9264574022,
				"y": 1.8368120682,
				"z": 0.2698539262,
				"element": "H" 
			},
			{
				"x": 1.7105456747,
				"y": 2.7730765763,
				"z": 2.4440527593,
				"element": "H" 
			},
			{
				"x": -0.7386536643,
				"y": 2.5316931554,
				"z": 2.3632716231,
				"element": "H" 
			}
		],
		 "valence_orbital": [ 
			{
				"type": "occ",
				"energy": -0.31816,
				"method": "rhf"
			},
			{
				"type": "occ",
				"energy": -0.28466,
				"method": "rhf"
			},
			{
				"type": "occ",
				"energy": -0.27465,
				"method": "rhf"
			},
			{
				"type": "occ",
				"energy": -0.23526,
				"method": "rhf"
			},
			{
				"type": "occ",
				"energy": -0.22019,
				"method": "rhf"
			},
			{
				"type": "unocc",
				"energy": 0.00202,
				"method": "rhf"
			},
			{
				"type": "unocc",
				"energy": 0.00423,
				"method": "rhf"
			},
			{
				"type": "unocc",
				"energy": 0.01263,
				"method": "rhf"
			},
			{
				"type": "unocc",
				"energy": 0.06783,
				"method": "rhf"
			},
			{
				"type": "unocc",
				"energy": 0.09204,
				"method": "rhf"
			}
		],
		"cosmo_sigma_profile": { 
			"-0.025": 0.0,
			"-0.024": 0.0,
			"-0.023": 0.0,
			"-0.022": 0.0,
			"-0.021": 0.0,
			"-0.02": 0.0,
			"-0.019": 0.0,
			"-0.018": 0.533637928823,
			"-0.017": 1.32439011047,
			"-0.016": 0.75302380472,
			"-0.015": 0.331785215557,
			"-0.014": 0.948233259681,
			"-0.013": 0.621663056108,
			"-0.012": 0.719789826515,
			"-0.011": 0.98899012204,
			"-0.01": 0.774383275538,
			"-0.009": 0.354269847786,
			"-0.008": 1.66290564172,
			"-0.007": 3.95856437915,
			"-0.006": 4.50088025763,
			"-0.005": 12.0095097164,
			"-0.004": 23.5974612286,
			"-0.003": 26.3190009262,
			"-0.002": 27.6794493242,
			"-0.001": 28.1967744718,
			"0.0": 31.5238988731,
			"0.001": 28.7099209363,
			"0.002": 21.4075176406,
			"0.003": 10.7827827529,
			"0.004": 13.5224459745,
			"0.005": 13.3694486878,
			"0.006": 10.1275156231,
			"0.007": 5.26735276083,
			"0.008": 1.99149417414,
			"0.009": 2.06713552265,
			"0.01": 1.99827140571,
			"0.011": 4.16186569699,
			"0.012": 4.36562026446,
			"0.013": 0.902728602921,
			"0.014": 0.0,
			"0.015": 0.0,
			"0.016": 0.0,
			"0.017": 0.0,
			"0.018": 0.0,
			"0.019": 0.0,
			"0.02": 0.0,
			"0.021": 0.0,
			"0.022": 0.0,
			"0.023": 0.0,
			"0.024": 0.0,
			"0.025": 0.0
		}
	}
}
