{
	 "smiles": "CNCC(O)COC1=C(C=CC=C1)C(F)(F)F", 
	 "Tm": 399.15, 
	 "num_atms": 31, 
	 "gaussian": { 
		 "optdone": 1, 
		 "sigma_profile": "yes", 
		 "theory": "DFT", 
		 "functional": "B3LYP", 
		 "basiset": "6-31G**", 
		 "properties": { 
			 "R2extent": 5717.1851, 
			 "electric_dipole_moment_norm": 2.48371323224, 
			 "electric_quadrupole_moment_norm": 11.3505615522, 
			 "total_energy": -932.308672815, 
			 "HOMO_LUMO_gap": 0.19543, 
			 "cosmo_polarized_energy": -11.55, 
			 "cosmo_cavitation_energy": 35.11, 
			 "cosmo_dispersion_energy": -24.12, 
			 "cosmo_repulsion_energy": 1.84, 
			 "cosmo_total_nonelectrostatic_energy": 12.83, 
			 "SMD_solvation_energy": 6.18 
		},
		"coords": [
			{
				"x": -3.0324460135,
				"y": 0.1506249406,
				"z": -1.3954831944,
				"element": "C" 
			},
			{
				"x": -1.8804312835,
				"y": -0.4555858285,
				"z": -0.7296506126,
				"element": "N" 
			},
			{
				"x": -0.7817177812,
				"y": -0.8310122366,
				"z": -1.6173786206,
				"element": "C" 
			},
			{
				"x": 0.2237919262,
				"y": 0.3035420357,
				"z": -1.8476452927,
				"element": "C" 
			},
			{
				"x": -0.4245983063,
				"y": 1.3525776048,
				"z": -2.5634304273,
				"element": "O" 
			},
			{
				"x": 0.7756249938,
				"y": 0.8484338552,
				"z": -0.5283143144,
				"element": "C" 
			},
			{
				"x": 1.5388476722,
				"y": -0.2043033726,
				"z": 0.0623842226,
				"element": "O" 
			},
			{
				"x": 1.9700285932,
				"y": -0.0920376273,
				"z": 1.3424501311,
				"element": "C" 
			},
			{
				"x": 2.5362915504,
				"y": -1.2525649186,
				"z": 1.9126318332,
				"element": "C" 
			},
			{
				"x": 3.0186621079,
				"y": -1.2155729967,
				"z": 3.2196656597,
				"element": "C" 
			},
			{
				"x": 2.9458146008,
				"y": -0.0439339778,
				"z": 3.9747270652,
				"element": "C" 
			},
			{
				"x": 2.381571729,
				"y": 1.0971827856,
				"z": 3.4088786228,
				"element": "C" 
			},
			{
				"x": 1.8942721645,
				"y": 1.0816640508,
				"z": 2.1002273867,
				"element": "C" 
			},
			{
				"x": 2.6045755399,
				"y": -2.5227126829,
				"z": 1.1077599424,
				"element": "C" 
			},
			{
				"x": 1.3772980994,
				"y": -2.9482524804,
				"z": 0.718057291,
				"element": "F" 
			},
			{
				"x": 3.1565411581,
				"y": -3.5332144091,
				"z": 1.8196165532,
				"element": "F" 
			},
			{
				"x": 3.3443876316,
				"y": -2.3822796067,
				"z": -0.0134479977,
				"element": "F" 
			},
			{
				"x": -3.8213818632,
				"y": 0.3315254429,
				"z": -0.658368308,
				"element": "H" 
			},
			{
				"x": -2.7400963701,
				"y": 1.1084998182,
				"z": -1.8293380672,
				"element": "H" 
			},
			{
				"x": -3.4544430407,
				"y": -0.4699480802,
				"z": -2.2069326396,
				"element": "H" 
			},
			{
				"x": -2.1821174916,
				"y": -1.2758471324,
				"z": -0.2147999784,
				"element": "H" 
			},
			{
				"x": -1.1292274974,
				"y": -1.1790322429,
				"z": -2.6058468889,
				"element": "H" 
			},
			{
				"x": -0.2248377482,
				"y": -1.6494323333,
				"z": -1.1513269825,
				"element": "H" 
			},
			{
				"x": 1.0606478243,
				"y": -0.1098512051,
				"z": -2.4326743933,
				"element": "H" 
			},
			{
				"x": 0.242680526,
				"y": 1.9985333943,
				"z": -2.8287519204,
				"element": "H" 
			},
			{
				"x": 1.4171990093,
				"y": 1.7234273598,
				"z": -0.7110129464,
				"element": "H" 
			},
			{
				"x": -0.0613724297,
				"y": 1.1314946465,
				"z": 0.117944998,
				"element": "H" 
			},
			{
				"x": 3.449148877,
				"y": -2.1155101726,
				"z": 3.6433544102,
				"element": "H" 
			},
			{
				"x": 3.323509237,
				"y": -0.0270383721,
				"z": 4.9916655166,
				"element": "H" 
			},
			{
				"x": 2.3165619605,
				"y": 2.0158072784,
				"z": 3.9850348043,
				"element": "H" 
			},
			{
				"x": 1.4606146243,
				"y": 1.9784164631,
				"z": 1.6746041473,
				"element": "H" 
			}
		],
		 "valence_orbital": [ 
			{
				"type": "occ",
				"energy": -0.31782,
				"method": "rhf"
			},
			{
				"type": "occ",
				"energy": -0.2776,
				"method": "rhf"
			},
			{
				"type": "occ",
				"energy": -0.26479,
				"method": "rhf"
			},
			{
				"type": "occ",
				"energy": -0.23089,
				"method": "rhf"
			},
			{
				"type": "occ",
				"energy": -0.21698,
				"method": "rhf"
			},
			{
				"type": "unocc",
				"energy": -0.02155,
				"method": "rhf"
			},
			{
				"type": "unocc",
				"energy": 0.00062,
				"method": "rhf"
			},
			{
				"type": "unocc",
				"energy": 0.05899,
				"method": "rhf"
			},
			{
				"type": "unocc",
				"energy": 0.08831,
				"method": "rhf"
			},
			{
				"type": "unocc",
				"energy": 0.09745,
				"method": "rhf"
			}
		],
		"cosmo_sigma_profile": { 
			"-0.025": 0.0,
			"-0.024": 0.0,
			"-0.023": 0.0,
			"-0.022": 0.0,
			"-0.021": 0.0,
			"-0.02": 0.0,
			"-0.019": 0.0,
			"-0.018": 0.0,
			"-0.017": 0.0,
			"-0.016": 0.39151573735,
			"-0.015": 1.40284696788,
			"-0.014": 1.08458036957,
			"-0.013": 0.84567666982,
			"-0.012": 1.17005018947,
			"-0.011": 1.04051125599,
			"-0.01": 2.77233891802,
			"-0.009": 1.51828780048,
			"-0.008": 2.46346355591,
			"-0.007": 5.3288378789,
			"-0.006": 12.4667709813,
			"-0.005": 14.8974326053,
			"-0.004": 15.3002435198,
			"-0.003": 14.7295122684,
			"-0.002": 20.1742012506,
			"-0.001": 25.5636266271,
			"0.0": 21.5697757558,
			"0.001": 21.0015550321,
			"0.002": 23.3213383144,
			"0.003": 36.8531588612,
			"0.004": 21.8116171329,
			"0.005": 8.81591492658,
			"0.006": 4.24684282732,
			"0.007": 4.18499191487,
			"0.008": 4.45040187287,
			"0.009": 3.51651516747,
			"0.01": 1.86030781597,
			"0.011": 1.42806975232,
			"0.012": 1.2760492231,
			"0.013": 1.05282380487,
			"0.014": 0.153147559217,
			"0.015": 0.0,
			"0.016": 0.0,
			"0.017": 0.0,
			"0.018": 0.0,
			"0.019": 0.0,
			"0.02": 0.0,
			"0.021": 0.0,
			"0.022": 0.0,
			"0.023": 0.0,
			"0.024": 0.0,
			"0.025": 0.0
		}
	}
}
