{
	 "smiles": "CC(=O)C1=CC=C(C=C1)N1CCOCC1", 
	 "Tm": 369.15, 
	 "num_atms": 30, 
	 "gaussian": { 
		 "optdone": 1, 
		 "sigma_profile": "yes", 
		 "theory": "DFT", 
		 "functional": "B3LYP", 
		 "basiset": "6-31G**", 
		 "properties": { 
			 "R2extent": 4774.841, 
			 "electric_dipole_moment_norm": 3.7186563447, 
			 "electric_quadrupole_moment_norm": 20.9976215615, 
			 "total_energy": -671.503374953, 
			 "HOMO_LUMO_gap": 0.16545, 
			 "cosmo_polarized_energy": -13.02, 
			 "cosmo_cavitation_energy": 31.79, 
			 "cosmo_dispersion_energy": -23.66, 
			 "cosmo_repulsion_energy": 1.83, 
			 "cosmo_total_nonelectrostatic_energy": 9.96, 
			 "SMD_solvation_energy": 4.67 
		},
		"coords": [
			{
				"x": -0.3399256724,
				"y": -1.785958947,
				"z": 4.8218808946,
				"element": "C" 
			},
			{
				"x": 0.5405140634,
				"y": -0.7873789006,
				"z": 4.0841526723,
				"element": "C" 
			},
			{
				"x": 1.323318513,
				"y": -0.0797506905,
				"z": 4.7055565857,
				"element": "O" 
			},
			{
				"x": 0.4289521304,
				"y": -0.6907158207,
				"z": 2.6022196653,
				"element": "C" 
			},
			{
				"x": -0.4432561884,
				"y": -1.4806947461,
				"z": 1.834622727,
				"element": "C" 
			},
			{
				"x": -0.5090967499,
				"y": -1.3514399829,
				"z": 0.4550280559,
				"element": "C" 
			},
			{
				"x": 0.2992804944,
				"y": -0.4163353388,
				"z": -0.2309319157,
				"element": "C" 
			},
			{
				"x": 1.171261555,
				"y": 0.3809678426,
				"z": 0.5451068932,
				"element": "C" 
			},
			{
				"x": 1.2318149116,
				"y": 0.2379734395,
				"z": 1.9238276162,
				"element": "C" 
			},
			{
				"x": 0.255899856,
				"y": -0.3260781281,
				"z": -1.6280710561,
				"element": "N" 
			},
			{
				"x": 1.1808411459,
				"y": 0.5776123179,
				"z": -2.3109933642,
				"element": "C" 
			},
			{
				"x": 1.2727148335,
				"y": 0.2112463352,
				"z": -3.7928935961,
				"element": "C" 
			},
			{
				"x": -0.0009184812,
				"y": 0.2099505414,
				"z": -4.4178362501,
				"element": "O" 
			},
			{
				"x": -0.8576063301,
				"y": -0.7272221496,
				"z": -3.7840245064,
				"element": "C" 
			},
			{
				"x": -1.0454600604,
				"y": -0.394942216,
				"z": -2.3060753895,
				"element": "C" 
			},
			{
				"x": -1.4020597941,
				"y": -1.5782281108,
				"z": 4.6509243128,
				"element": "H" 
			},
			{
				"x": -0.125456386,
				"y": -1.7168361042,
				"z": 5.8887166357,
				"element": "H" 
			},
			{
				"x": -0.1484196292,
				"y": -2.8090588872,
				"z": 4.4793536144,
				"element": "H" 
			},
			{
				"x": -1.0770913214,
				"y": -2.2200102081,
				"z": 2.3146030036,
				"element": "H" 
			},
			{
				"x": -1.1716744718,
				"y": -2.0068346272,
				"z": -0.0986263827,
				"element": "H" 
			},
			{
				"x": 1.7910204741,
				"y": 1.1339073248,
				"z": 0.074063265,
				"element": "H" 
			},
			{
				"x": 1.8991553879,
				"y": 0.8593633319,
				"z": 2.5123014897,
				"element": "H" 
			},
			{
				"x": 2.1760373074,
				"y": 0.4769124259,
				"z": -1.8699381001,
				"element": "H" 
			},
			{
				"x": 0.8671610363,
				"y": 1.6313023604,
				"z": -2.2113379663,
				"element": "H" 
			},
			{
				"x": 1.7461030112,
				"y": -0.7791422463,
				"z": -3.8935794705,
				"element": "H" 
			},
			{
				"x": 1.8843968779,
				"y": 0.946700553,
				"z": -4.3231694135,
				"element": "H" 
			},
			{
				"x": -1.8178467264,
				"y": -0.6811843662,
				"z": -4.305829954,
				"element": "H" 
			},
			{
				"x": -0.4488244475,
				"y": -1.7461967987,
				"z": -3.8842275831,
				"element": "H" 
			},
			{
				"x": -1.5748689813,
				"y": 0.5689836958,
				"z": -2.217013653,
				"element": "H" 
			},
			{
				"x": -1.6713663583,
				"y": -1.1604118995,
				"z": -1.8462088304,
				"element": "H" 
			}
		],
		 "valence_orbital": [ 
			{
				"type": "occ",
				"energy": -0.29178,
				"method": "rhf"
			},
			{
				"type": "occ",
				"energy": -0.26407,
				"method": "rhf"
			},
			{
				"type": "occ",
				"energy": -0.25586,
				"method": "rhf"
			},
			{
				"type": "occ",
				"energy": -0.23649,
				"method": "rhf"
			},
			{
				"type": "occ",
				"energy": -0.20701,
				"method": "rhf"
			},
			{
				"type": "unocc",
				"energy": -0.04156,
				"method": "rhf"
			},
			{
				"type": "unocc",
				"energy": -0.00529,
				"method": "rhf"
			},
			{
				"type": "unocc",
				"energy": 0.05004,
				"method": "rhf"
			},
			{
				"type": "unocc",
				"energy": 0.0805,
				"method": "rhf"
			},
			{
				"type": "unocc",
				"energy": 0.0951,
				"method": "rhf"
			}
		],
		"cosmo_sigma_profile": { 
			"-0.025": 0.0,
			"-0.024": 0.0,
			"-0.023": 0.0,
			"-0.022": 0.0,
			"-0.021": 0.0,
			"-0.02": 0.0,
			"-0.019": 0.0,
			"-0.018": 0.0,
			"-0.017": 0.0,
			"-0.016": 0.0,
			"-0.015": 0.0,
			"-0.014": 0.0,
			"-0.013": 0.0,
			"-0.012": 0.0,
			"-0.011": 0.0,
			"-0.01": 0.0,
			"-0.009": 0.0,
			"-0.008": 1.14208068914,
			"-0.007": 2.87532219027,
			"-0.006": 13.508102183,
			"-0.005": 24.3314718314,
			"-0.004": 32.2972858573,
			"-0.003": 30.9603420158,
			"-0.002": 22.1007292836,
			"-0.001": 17.8258867745,
			"0.0": 13.254943122,
			"0.001": 10.7342250875,
			"0.002": 9.81515232028,
			"0.003": 11.5908417784,
			"0.004": 13.7872651222,
			"0.005": 13.7403001662,
			"0.006": 4.16879005209,
			"0.007": 4.43162065528,
			"0.008": 2.83370336105,
			"0.009": 2.46297290858,
			"0.01": 3.0170642455,
			"0.011": 3.55831240144,
			"0.012": 5.08570433703,
			"0.013": 5.61879143364,
			"0.014": 1.36962954875,
			"0.015": 0.0341990230237,
			"0.016": 0.0,
			"0.017": 0.0,
			"0.018": 0.0,
			"0.019": 0.0,
			"0.02": 0.0,
			"0.021": 0.0,
			"0.022": 0.0,
			"0.023": 0.0,
			"0.024": 0.0,
			"0.025": 0.0
		}
	}
}
