{
	 "smiles": "[O-][N+](=O)C1=CC=CC2=C1C(C=O)=CC=C2", 
	 "Tm": 398.15, 
	 "num_atms": 22, 
	 "gaussian": { 
		 "optdone": 1, 
		 "sigma_profile": "yes", 
		 "theory": "DFT", 
		 "functional": "B3LYP", 
		 "basiset": "6-31G**", 
		 "properties": { 
			 "R2extent": 2769.8564, 
			 "electric_dipole_moment_norm": 6.76468368144, 
			 "electric_quadrupole_moment_norm": 14.4024765044, 
			 "total_energy": -703.693817454, 
			 "HOMO_LUMO_gap": 0.15754, 
			 "cosmo_polarized_energy": -15.63, 
			 "cosmo_cavitation_energy": 26.89, 
			 "cosmo_dispersion_energy": -19.57, 
			 "cosmo_repulsion_energy": 1.48, 
			 "cosmo_total_nonelectrostatic_energy": 8.8, 
			 "SMD_solvation_energy": 7.43 
		},
		"coords": [
			{
				"x": -0.015950864,
				"y": -2.7915253342,
				"z": -0.3481974396,
				"element": "O" 
			},
			{
				"x": 0.4168115396,
				"y": -1.6834491793,
				"z": -0.6484372287,
				"element": "N" 
			},
			{
				"x": 1.2690597247,
				"y": -1.4612936365,
				"z": -1.5059891797,
				"element": "O" 
			},
			{
				"x": -0.0319684423,
				"y": -0.5305627558,
				"z": 0.1561861015,
				"element": "C" 
			},
			{
				"x": -0.1204258033,
				"y": -0.7693409478,
				"z": 1.5111232288,
				"element": "C" 
			},
			{
				"x": -0.280350602,
				"y": 0.3010545398,
				"z": 2.4132180148,
				"element": "C" 
			},
			{
				"x": -0.3023441341,
				"y": 1.5904365393,
				"z": 1.9361108128,
				"element": "C" 
			},
			{
				"x": -0.2505764262,
				"y": 1.8565252521,
				"z": 0.541532637,
				"element": "C" 
			},
			{
				"x": -0.1805273021,
				"y": 0.7745352144,
				"z": -0.4001088628,
				"element": "C" 
			},
			{
				"x": -0.284631636,
				"y": 1.0958601924,
				"z": -1.7968395531,
				"element": "C" 
			},
			{
				"x": -0.6689424096,
				"y": 0.125972906,
				"z": -2.8561374402,
				"element": "C" 
			},
			{
				"x": -1.2054953862,
				"y": -0.9458514204,
				"z": -2.665785693,
				"element": "O" 
			},
			{
				"x": -0.25908776,
				"y": 2.4208840301,
				"z": -2.1995497195,
				"element": "C" 
			},
			{
				"x": -0.2223386477,
				"y": 3.4831658738,
				"z": -1.2722342366,
				"element": "C" 
			},
			{
				"x": -0.2618948368,
				"y": 3.1998068219,
				"z": 0.0712717215,
				"element": "C" 
			},
			{
				"x": -0.0179758294,
				"y": -1.7885661736,
				"z": 1.8640765167,
				"element": "H" 
			},
			{
				"x": -0.3367548981,
				"y": 0.1014815995,
				"z": 3.478198033,
				"element": "H" 
			},
			{
				"x": -0.3614676801,
				"y": 2.4311470779,
				"z": 2.6215625808,
				"element": "H" 
			},
			{
				"x": -0.5058983842,
				"y": 0.5081987337,
				"z": -3.8871190849,
				"element": "H" 
			},
			{
				"x": -0.327257698,
				"y": 2.6423275703,
				"z": -3.2619490541,
				"element": "H" 
			},
			{
				"x": -0.2108739675,
				"y": 4.5104340918,
				"z": -1.6219708502,
				"element": "H" 
			},
			{
				"x": -0.2983085567,
				"y": 4.0014590046,
				"z": 0.8037386952,
				"element": "H" 
			}
		],
		 "valence_orbital": [ 
			{
				"type": "occ",
				"energy": -0.29868,
				"method": "rhf"
			},
			{
				"type": "occ",
				"energy": -0.28135,
				"method": "rhf"
			},
			{
				"type": "occ",
				"energy": -0.2746,
				"method": "rhf"
			},
			{
				"type": "occ",
				"energy": -0.26073,
				"method": "rhf"
			},
			{
				"type": "occ",
				"energy": -0.24755,
				"method": "rhf"
			},
			{
				"type": "unocc",
				"energy": -0.09001,
				"method": "rhf"
			},
			{
				"type": "unocc",
				"energy": -0.0723,
				"method": "rhf"
			},
			{
				"type": "unocc",
				"energy": -0.03909,
				"method": "rhf"
			},
			{
				"type": "unocc",
				"energy": -0.0129,
				"method": "rhf"
			},
			{
				"type": "unocc",
				"energy": 0.03211,
				"method": "rhf"
			}
		],
		"cosmo_sigma_profile": { 
			"-0.025": 0.0,
			"-0.024": 0.0,
			"-0.023": 0.0,
			"-0.022": 0.0,
			"-0.021": 0.0,
			"-0.02": 0.0,
			"-0.019": 0.0,
			"-0.018": 0.0,
			"-0.017": 0.0,
			"-0.016": 0.0,
			"-0.015": 0.0,
			"-0.014": 0.0,
			"-0.013": 0.0,
			"-0.012": 0.0,
			"-0.011": 0.0,
			"-0.01": 0.0,
			"-0.009": 1.60083597138,
			"-0.008": 10.4110511907,
			"-0.007": 16.6137845475,
			"-0.006": 16.3549076381,
			"-0.005": 12.5226086706,
			"-0.004": 10.1707674441,
			"-0.003": 10.9672160835,
			"-0.002": 8.4211118186,
			"-0.001": 12.6723186417,
			"0.0": 21.6030713205,
			"0.001": 21.7094674671,
			"0.002": 15.0939527781,
			"0.003": 4.68302342011,
			"0.004": 4.38863361821,
			"0.005": 3.85989093802,
			"0.006": 6.815344914,
			"0.007": 11.3683089908,
			"0.008": 11.5941429029,
			"0.009": 6.61752349765,
			"0.01": 4.97605062262,
			"0.011": 2.48460319354,
			"0.012": 1.57462046493,
			"0.013": 0.2995074894,
			"0.014": 0.0,
			"0.015": 0.0,
			"0.016": 0.0,
			"0.017": 0.0,
			"0.018": 0.0,
			"0.019": 0.0,
			"0.02": 0.0,
			"0.021": 0.0,
			"0.022": 0.0,
			"0.023": 0.0,
			"0.024": 0.0,
			"0.025": 0.0
		}
	}
}
