{
	 "smiles": "C#CC1=NC2=C(S1)C=CC=C2", 
	 "Tm": 313.15, 
	 "num_atms": 16, 
	 "gaussian": { 
		 "optdone": 1, 
		 "sigma_profile": "yes", 
		 "theory": "DFT", 
		 "functional": "B3LYP", 
		 "basiset": "6-31G**", 
		 "properties": { 
			 "R2extent": 2159.1072, 
			 "electric_dipole_moment_norm": 1.16847062436, 
			 "electric_quadrupole_moment_norm": 11.3258683941, 
			 "total_energy": -798.839198554, 
			 "HOMO_LUMO_gap": 0.17357, 
			 "cosmo_polarized_energy": -7.09, 
			 "cosmo_cavitation_energy": 23.31, 
			 "cosmo_dispersion_energy": -17.34, 
			 "cosmo_repulsion_energy": 1.31, 
			 "cosmo_total_nonelectrostatic_energy": 7.28, 
			 "SMD_solvation_energy": 3.02 
		},
		"coords": [
			{
				"x": 3.3529807884,
				"y": 1.5165763594,
				"z": 2.0964954059,
				"element": "C" 
			},
			{
				"x": 2.3658270628,
				"y": 0.9807227878,
				"z": 1.6477688613,
				"element": "C" 
			},
			{
				"x": 1.2048320438,
				"y": 0.3303163757,
				"z": 1.1608028067,
				"element": "C" 
			},
			{
				"x": 0.6831206087,
				"y": 0.5125815194,
				"z": -0.0178381613,
				"element": "N" 
			},
			{
				"x": -0.4426750068,
				"y": -0.2683287987,
				"z": -0.1860302921,
				"element": "C" 
			},
			{
				"x": -0.7961940616,
				"y": -1.0858350438,
				"z": 0.918925244,
				"element": "C" 
			},
			{
				"x": 0.3562519251,
				"y": -0.8400345674,
				"z": 2.2109115191,
				"element": "S" 
			},
			{
				"x": -1.9147672762,
				"y": -1.9230467351,
				"z": 0.8759372607,
				"element": "C" 
			},
			{
				"x": -2.6791543836,
				"y": -1.934862223,
				"z": -0.2870488187,
				"element": "C" 
			},
			{
				"x": -2.3395791981,
				"y": -1.1291070165,
				"z": -1.3900071924,
				"element": "C" 
			},
			{
				"x": -1.2296152515,
				"y": -0.2972375723,
				"z": -1.3494784405,
				"element": "C" 
			},
			{
				"x": 4.2246381518,
				"y": 1.9975821987,
				"z": 2.4768047674,
				"element": "H" 
			},
			{
				"x": -2.1820482221,
				"y": -2.546734334,
				"z": 1.722779117,
				"element": "H" 
			},
			{
				"x": -3.5524925525,
				"y": -2.5777844878,
				"z": -0.3423529027,
				"element": "H" 
			},
			{
				"x": -2.9559990242,
				"y": -1.1607529701,
				"z": -2.2831702872,
				"element": "H" 
			},
			{
				"x": -0.952625604,
				"y": 0.3306445075,
				"z": -2.1896988873,
				"element": "H" 
			}
		],
		 "valence_orbital": [ 
			{
				"type": "occ",
				"energy": -0.30287,
				"method": "rhf"
			},
			{
				"type": "occ",
				"energy": -0.29436,
				"method": "rhf"
			},
			{
				"type": "occ",
				"energy": -0.28325,
				"method": "rhf"
			},
			{
				"type": "occ",
				"energy": -0.24066,
				"method": "rhf"
			},
			{
				"type": "occ",
				"energy": -0.23602,
				"method": "rhf"
			},
			{
				"type": "unocc",
				"energy": -0.06245,
				"method": "rhf"
			},
			{
				"type": "unocc",
				"energy": -0.0112,
				"method": "rhf"
			},
			{
				"type": "unocc",
				"energy": -0.00017,
				"method": "rhf"
			},
			{
				"type": "unocc",
				"energy": 0.01698,
				"method": "rhf"
			},
			{
				"type": "unocc",
				"energy": 0.02322,
				"method": "rhf"
			}
		],
		"cosmo_sigma_profile": { 
			"-0.025": 0.0,
			"-0.024": 0.0,
			"-0.023": 0.0,
			"-0.022": 0.0,
			"-0.021": 0.0,
			"-0.02": 0.0,
			"-0.019": 0.0,
			"-0.018": 0.0,
			"-0.017": 0.0,
			"-0.016": 0.0,
			"-0.015": 0.0,
			"-0.014": 0.121947825904,
			"-0.013": 1.47645200879,
			"-0.012": 0.905225973846,
			"-0.011": 0.825852109263,
			"-0.01": 1.86406467888,
			"-0.009": 0.896754946546,
			"-0.008": 1.50583204569,
			"-0.007": 6.42036587708,
			"-0.006": 9.68226645311,
			"-0.005": 10.254716093,
			"-0.004": 9.83974923968,
			"-0.003": 7.8909541237,
			"-0.002": 11.2970067243,
			"-0.001": 15.0619720198,
			"0.0": 16.0012044013,
			"0.001": 20.2041446006,
			"0.002": 19.7095036838,
			"0.003": 23.2015219222,
			"0.004": 18.0251688197,
			"0.005": 6.51591737845,
			"0.006": 2.43190483668,
			"0.007": 1.60240858127,
			"0.008": 0.963868488438,
			"0.009": 0.905818542861,
			"0.01": 1.59460006976,
			"0.011": 1.05432380692,
			"0.012": 0.433442149472,
			"0.013": 1.1051484044,
			"0.014": 0.653640750875,
			"0.015": 0.00757499475254,
			"0.016": 0.0,
			"0.017": 0.0,
			"0.018": 0.0,
			"0.019": 0.0,
			"0.02": 0.0,
			"0.021": 0.0,
			"0.022": 0.0,
			"0.023": 0.0,
			"0.024": 0.0,
			"0.025": 0.0
		}
	}
}
