{
	 "smiles": "S=C1NCCCN1", 
	 "Tm": 484.15, 
	 "num_atms": 15, 
	 "gaussian": { 
		 "optdone": 1, 
		 "sigma_profile": "yes", 
		 "theory": "DFT", 
		 "functional": "B3LYP", 
		 "basiset": "6-31G**", 
		 "properties": { 
			 "R2extent": 1676.3363, 
			 "electric_dipole_moment_norm": 6.31645662773, 
			 "electric_quadrupole_moment_norm": 22.6152472779, 
			 "total_energy": -664.957538055, 
			 "HOMO_LUMO_gap": 0.20497, 
			 "cosmo_polarized_energy": -17.42, 
			 "cosmo_cavitation_energy": 18.97, 
			 "cosmo_dispersion_energy": -15.28, 
			 "cosmo_repulsion_energy": 1.26, 
			 "cosmo_total_nonelectrostatic_energy": 4.94, 
			 "SMD_solvation_energy": 0.67 
		},
		"coords": [
			{
				"x": -1.9834194821,
				"y": -0.7423858881,
				"z": 3.5440575405,
				"element": "S" 
			},
			{
				"x": -1.2696473156,
				"y": -0.5213595034,
				"z": 2.0305989384,
				"element": "C" 
			},
			{
				"x": 0.0561803714,
				"y": -0.2527162208,
				"z": 1.8971540198,
				"element": "N" 
			},
			{
				"x": 0.7705875996,
				"y": -0.1465823263,
				"z": 0.6298689844,
				"element": "C" 
			},
			{
				"x": -0.1822426036,
				"y": 0.363397967,
				"z": -0.4514158794,
				"element": "C" 
			},
			{
				"x": -1.4442230903,
				"y": -0.4993625889,
				"z": -0.4661778548,
				"element": "C" 
			},
			{
				"x": -1.9947476398,
				"y": -0.5790070015,
				"z": 0.8822383786,
				"element": "N" 
			},
			{
				"x": 0.5694677277,
				"y": -0.2531930119,
				"z": 2.7655444712,
				"element": "H" 
			},
			{
				"x": 1.1897924277,
				"y": -1.1203881467,
				"z": 0.3333036609,
				"element": "H" 
			},
			{
				"x": 1.6105611621,
				"y": 0.5428855113,
				"z": 0.7615353392,
				"element": "H" 
			},
			{
				"x": 0.3070534707,
				"y": 0.3296343257,
				"z": -1.4292523572,
				"element": "H" 
			},
			{
				"x": -0.4518207041,
				"y": 1.4038181684,
				"z": -0.2415862377,
				"element": "H" 
			},
			{
				"x": -2.2021986277,
				"y": -0.0646025584,
				"z": -1.1255018593,
				"element": "H" 
			},
			{
				"x": -1.2096519999,
				"y": -1.5026820057,
				"z": -0.8538688594,
				"element": "H" 
			},
			{
				"x": -2.9660912962,
				"y": -0.8160567206,
				"z": 1.0159017147,
				"element": "H" 
			}
		],
		 "valence_orbital": [ 
			{
				"type": "occ",
				"energy": -0.35307,
				"method": "rhf"
			},
			{
				"type": "occ",
				"energy": -0.34359,
				"method": "rhf"
			},
			{
				"type": "occ",
				"energy": -0.25737,
				"method": "rhf"
			},
			{
				"type": "occ",
				"energy": -0.19823,
				"method": "rhf"
			},
			{
				"type": "occ",
				"energy": -0.19444,
				"method": "rhf"
			},
			{
				"type": "unocc",
				"energy": 0.01053,
				"method": "rhf"
			},
			{
				"type": "unocc",
				"energy": 0.0566,
				"method": "rhf"
			},
			{
				"type": "unocc",
				"energy": 0.10158,
				"method": "rhf"
			},
			{
				"type": "unocc",
				"energy": 0.10771,
				"method": "rhf"
			},
			{
				"type": "unocc",
				"energy": 0.11242,
				"method": "rhf"
			}
		],
		"cosmo_sigma_profile": { 
			"-0.025": 0.0,
			"-0.024": 0.0,
			"-0.023": 0.0,
			"-0.022": 0.0,
			"-0.021": 0.0,
			"-0.02": 0.0,
			"-0.019": 0.0,
			"-0.018": 0.0,
			"-0.017": 0.0,
			"-0.016": 0.0,
			"-0.015": 0.0057738121464,
			"-0.014": 1.25543590937,
			"-0.013": 2.05378285697,
			"-0.012": 2.05812603832,
			"-0.011": 1.63963573959,
			"-0.01": 1.91817963662,
			"-0.009": 2.27512262011,
			"-0.008": 1.71549491213,
			"-0.007": 2.23885730301,
			"-0.006": 7.41793561788,
			"-0.005": 16.4345145135,
			"-0.004": 21.8658375624,
			"-0.003": 17.9081170703,
			"-0.002": 9.15042737578,
			"-0.001": 5.6046132881,
			"0.0": 3.51745971677,
			"0.001": 3.08957372036,
			"0.002": 3.94885576308,
			"0.003": 2.56632939209,
			"0.004": 3.43009975584,
			"0.005": 3.05663882739,
			"0.006": 3.08600545046,
			"0.007": 3.3754731325,
			"0.008": 3.71488946944,
			"0.009": 2.74140487302,
			"0.01": 4.38453833159,
			"0.011": 4.19286683363,
			"0.012": 6.37716658982,
			"0.013": 8.9499453781,
			"0.014": 1.30840279365,
			"0.015": 0.0,
			"0.016": 0.0,
			"0.017": 0.0,
			"0.018": 0.0,
			"0.019": 0.0,
			"0.02": 0.0,
			"0.021": 0.0,
			"0.022": 0.0,
			"0.023": 0.0,
			"0.024": 0.0,
			"0.025": 0.0
		}
	}
}
