{
	 "smiles": "CCC(C)(N)C(O)=O", 
	 "Tm": 550.15, 
	 "num_atms": 19, 
	 "gaussian": { 
		 "optdone": 1, 
		 "sigma_profile": "yes", 
		 "theory": "DFT", 
		 "functional": "B3LYP", 
		 "basiset": "6-31G**", 
		 "properties": { 
			 "R2extent": 1003.5512, 
			 "electric_dipole_moment_norm": 1.96201622063, 
			 "electric_quadrupole_moment_norm": 8.32773835204, 
			 "total_energy": -402.382129769, 
			 "HOMO_LUMO_gap": 0.24148, 
			 "cosmo_polarized_energy": -10.26, 
			 "cosmo_cavitation_energy": 21.28, 
			 "cosmo_dispersion_energy": -15.35, 
			 "cosmo_repulsion_energy": 1.3, 
			 "cosmo_total_nonelectrostatic_energy": 7.23, 
			 "SMD_solvation_energy": 4.39 
		},
		"coords": [
			{
				"x": 2.2594980849,
				"y": -0.4638379082,
				"z": -0.9253999252,
				"element": "C" 
			},
			{
				"x": 1.4599473447,
				"y": -0.5631370092,
				"z": 0.3754956102,
				"element": "C" 
			},
			{
				"x": -0.0574170974,
				"y": -0.8041445037,
				"z": 0.1775189675,
				"element": "C" 
			},
			{
				"x": -0.7733793961,
				"y": -0.7850328137,
				"z": 1.5541549772,
				"element": "C" 
			},
			{
				"x": -0.2599631273,
				"y": -2.0577660877,
				"z": -0.5541935004,
				"element": "N" 
			},
			{
				"x": -0.70374084,
				"y": 0.3032252055,
				"z": -0.6600429119,
				"element": "C" 
			},
			{
				"x": -0.2895894756,
				"y": 1.540329332,
				"z": -0.3002745334,
				"element": "O" 
			},
			{
				"x": -1.5449215956,
				"y": 0.1271819412,
				"z": -1.5156406584,
				"element": "O" 
			},
			{
				"x": 3.3327380567,
				"y": -0.4089408843,
				"z": -0.7167805183,
				"element": "H" 
			},
			{
				"x": 2.0685111011,
				"y": -1.3357343213,
				"z": -1.5555577243,
				"element": "H" 
			},
			{
				"x": 1.9883870261,
				"y": 0.4344915433,
				"z": -1.4904340519,
				"element": "H" 
			},
			{
				"x": 1.8344355493,
				"y": -1.4046043325,
				"z": 0.9735970647,
				"element": "H" 
			},
			{
				"x": 1.6016933192,
				"y": 0.3386720736,
				"z": 0.9800731873,
				"element": "H" 
			},
			{
				"x": -1.8455121725,
				"y": -0.9718800109,
				"z": 1.4343772891,
				"element": "H" 
			},
			{
				"x": -0.356780735,
				"y": -1.5745624021,
				"z": 2.1895497314,
				"element": "H" 
			},
			{
				"x": -0.641155792,
				"y": 0.1709589639,
				"z": 2.069793101,
				"element": "H" 
			},
			{
				"x": -0.2346068849,
				"y": -2.8420445338,
				"z": 0.091310462,
				"element": "H" 
			},
			{
				"x": -1.1714891665,
				"y": -2.0441609886,
				"z": -1.0040271992,
				"element": "H" 
			},
			{
				"x": -0.7921541991,
				"y": 2.1619867364,
				"z": -0.8533193676,
				"element": "H" 
			}
		],
		 "valence_orbital": [ 
			{
				"type": "occ",
				"energy": -0.33808,
				"method": "rhf"
			},
			{
				"type": "occ",
				"energy": -0.33077,
				"method": "rhf"
			},
			{
				"type": "occ",
				"energy": -0.32095,
				"method": "rhf"
			},
			{
				"type": "occ",
				"energy": -0.27606,
				"method": "rhf"
			},
			{
				"type": "occ",
				"energy": -0.23479,
				"method": "rhf"
			},
			{
				"type": "unocc",
				"energy": 0.00669,
				"method": "rhf"
			},
			{
				"type": "unocc",
				"energy": 0.06804,
				"method": "rhf"
			},
			{
				"type": "unocc",
				"energy": 0.08623,
				"method": "rhf"
			},
			{
				"type": "unocc",
				"energy": 0.13187,
				"method": "rhf"
			},
			{
				"type": "unocc",
				"energy": 0.13456,
				"method": "rhf"
			}
		],
		"cosmo_sigma_profile": { 
			"-0.025": 0.0,
			"-0.024": 0.0,
			"-0.023": 0.0,
			"-0.022": 0.0,
			"-0.021": 0.0,
			"-0.02": 0.0,
			"-0.019": 0.0,
			"-0.018": 1.02899447711,
			"-0.017": 0.755437953267,
			"-0.016": 1.00246525433,
			"-0.015": 0.474946731125,
			"-0.014": 0.40307191521,
			"-0.013": 0.523112724273,
			"-0.012": 0.608782416056,
			"-0.011": 1.71481552051,
			"-0.01": 1.55768035973,
			"-0.009": 1.56522521285,
			"-0.008": 2.50975088869,
			"-0.007": 3.33279558058,
			"-0.006": 4.83278582967,
			"-0.005": 4.15151261015,
			"-0.004": 7.76523796382,
			"-0.003": 14.2934956766,
			"-0.002": 17.5975744705,
			"-0.001": 17.0272359855,
			"0.0": 19.9540077382,
			"0.001": 13.7357701424,
			"0.002": 10.2880787849,
			"0.003": 4.21234682414,
			"0.004": 3.38306870283,
			"0.005": 3.5751017437,
			"0.006": 3.96325496945,
			"0.007": 2.70686101928,
			"0.008": 4.04992271975,
			"0.009": 3.87683201057,
			"0.01": 3.01919789449,
			"0.011": 4.77570958345,
			"0.012": 3.39792244216,
			"0.013": 0.71325119867,
			"0.014": 0.548293684567,
			"0.015": 0.790417251535,
			"0.016": 0.172967040922,
			"0.017": 0.0,
			"0.018": 0.0,
			"0.019": 0.0,
			"0.02": 0.0,
			"0.021": 0.0,
			"0.022": 0.0,
			"0.023": 0.0,
			"0.024": 0.0,
			"0.025": 0.0
		}
	}
}
