{
	 "smiles": "NC1=CC=C(C=C1)C(=O)NCC(F)(F)F", 
	 "Tm": 431.15, 
	 "num_atms": 24, 
	 "gaussian": { 
		 "optdone": 1, 
		 "sigma_profile": "yes", 
		 "theory": "DFT", 
		 "functional": "B3LYP", 
		 "basiset": "6-31G**", 
		 "properties": { 
			 "R2extent": 4596.0016, 
			 "electric_dipole_moment_norm": 5.24325962546, 
			 "electric_quadrupole_moment_norm": 16.6938804288, 
			 "total_energy": -832.653872889, 
			 "HOMO_LUMO_gap": 0.18733, 
			 "cosmo_polarized_energy": -17.09, 
			 "cosmo_cavitation_energy": 29.87, 
			 "cosmo_dispersion_energy": -20.76, 
			 "cosmo_repulsion_energy": 1.59, 
			 "cosmo_total_nonelectrostatic_energy": 10.7, 
			 "SMD_solvation_energy": 5.94 
		},
		"coords": [
			{
				"x": -0.6274922611,
				"y": -3.2437522424,
				"z": -1.3164123985,
				"element": "N" 
			},
			{
				"x": -0.2722713459,
				"y": -2.037694201,
				"z": -0.7317862816,
				"element": "C" 
			},
			{
				"x": 0.0858308549,
				"y": -0.9303878825,
				"z": -1.5266717347,
				"element": "C" 
			},
			{
				"x": 0.4944677887,
				"y": 0.2566595962,
				"z": -0.938430485,
				"element": "C" 
			},
			{
				"x": 0.535159042,
				"y": 0.3989672186,
				"z": 0.4574539905,
				"element": "C" 
			},
			{
				"x": 0.195190805,
				"y": -0.7101190291,
				"z": 1.2479831378,
				"element": "C" 
			},
			{
				"x": -0.1997172688,
				"y": -1.9099292963,
				"z": 0.6683629183,
				"element": "C" 
			},
			{
				"x": 1.0376666244,
				"y": 1.6867918015,
				"z": 1.0150249737,
				"element": "C" 
			},
			{
				"x": 1.884830499,
				"y": 2.3566040121,
				"z": 0.4384517994,
				"element": "O" 
			},
			{
				"x": 0.5703223734,
				"y": 2.0907246547,
				"z": 2.2704001682,
				"element": "N" 
			},
			{
				"x": -0.8076414204,
				"y": 1.9872876309,
				"z": 2.7074845178,
				"element": "C" 
			},
			{
				"x": -1.6626148929,
				"y": 3.1517853873,
				"z": 2.2252056929,
				"element": "C" 
			},
			{
				"x": -2.9236886908,
				"y": 3.038499053,
				"z": 2.6931746958,
				"element": "F" 
			},
			{
				"x": -1.720023627,
				"y": 3.2040713846,
				"z": 0.8805978265,
				"element": "F" 
			},
			{
				"x": -1.1661205725,
				"y": 4.3329890256,
				"z": 2.6582998551,
				"element": "F" 
			},
			{
				"x": -1.1589182979,
				"y": -3.8838894179,
				"z": -0.7446809778,
				"element": "H" 
			},
			{
				"x": -0.9486896173,
				"y": -3.2029897296,
				"z": -2.2726182452,
				"element": "H" 
			},
			{
				"x": 0.0508065686,
				"y": -1.0169183139,
				"z": -2.609785753,
				"element": "H" 
			},
			{
				"x": 0.7905414814,
				"y": 1.1003894196,
				"z": -1.5530533963,
				"element": "H" 
			},
			{
				"x": 0.2754525538,
				"y": -0.6485019832,
				"z": 2.3293999815,
				"element": "H" 
			},
			{
				"x": -0.4392574842,
				"y": -2.7639224081,
				"z": 1.2968908635,
				"element": "H" 
			},
			{
				"x": 1.0184697087,
				"y": 2.962814497,
				"z": 2.5336009748,
				"element": "H" 
			},
			{
				"x": -0.8631340987,
				"y": 1.9709542436,
				"z": 3.8008973154,
				"element": "H" 
			},
			{
				"x": -1.2587687226,
				"y": 1.0702665794,
				"z": 2.330310561,
				"element": "H" 
			}
		],
		 "valence_orbital": [ 
			{
				"type": "occ",
				"energy": -0.31523,
				"method": "rhf"
			},
			{
				"type": "occ",
				"energy": -0.26956,
				"method": "rhf"
			},
			{
				"type": "occ",
				"energy": -0.25928,
				"method": "rhf"
			},
			{
				"type": "occ",
				"energy": -0.24497,
				"method": "rhf"
			},
			{
				"type": "occ",
				"energy": -0.21324,
				"method": "rhf"
			},
			{
				"type": "unocc",
				"energy": -0.02591,
				"method": "rhf"
			},
			{
				"type": "unocc",
				"energy": -0.00832,
				"method": "rhf"
			},
			{
				"type": "unocc",
				"energy": 0.05337,
				"method": "rhf"
			},
			{
				"type": "unocc",
				"energy": 0.07227,
				"method": "rhf"
			},
			{
				"type": "unocc",
				"energy": 0.0906,
				"method": "rhf"
			}
		],
		"cosmo_sigma_profile": { 
			"-0.025": 0.0,
			"-0.024": 0.0,
			"-0.023": 0.0,
			"-0.022": 0.0,
			"-0.021": 0.0,
			"-0.02": 0.0,
			"-0.019": 0.0,
			"-0.018": 0.0,
			"-0.017": 0.0,
			"-0.016": 0.0,
			"-0.015": 0.0,
			"-0.014": 0.0620776307664,
			"-0.013": 2.03213976435,
			"-0.012": 3.80206974399,
			"-0.011": 4.31093202506,
			"-0.01": 3.19282630909,
			"-0.009": 4.90838832861,
			"-0.008": 7.49162399869,
			"-0.007": 9.05233095497,
			"-0.006": 12.6200933506,
			"-0.005": 12.5476320121,
			"-0.004": 11.4936697724,
			"-0.003": 9.40306507597,
			"-0.002": 8.81800391674,
			"-0.001": 9.45069380936,
			"0.0": 12.5457780041,
			"0.001": 14.6200101271,
			"0.002": 25.7915230365,
			"0.003": 33.572380324,
			"0.004": 11.2792661129,
			"0.005": 13.1275821475,
			"0.006": 3.67068134101,
			"0.007": 2.98855677917,
			"0.008": 2.53780142367,
			"0.009": 2.39536159865,
			"0.01": 1.80379280782,
			"0.011": 2.83928096006,
			"0.012": 2.807140605,
			"0.013": 5.65743738498,
			"0.014": 2.53176343199,
			"0.015": 0.039557945777,
			"0.016": 0.0,
			"0.017": 0.0,
			"0.018": 0.0,
			"0.019": 0.0,
			"0.02": 0.0,
			"0.021": 0.0,
			"0.022": 0.0,
			"0.023": 0.0,
			"0.024": 0.0,
			"0.025": 0.0
		}
	}
}
