{
	 "smiles": "OC(=O)C(O)(O)C(O)(O)C(O)=O", 
	 "Tm": 387.15, 
	 "num_atms": 18, 
	 "gaussian": { 
		 "optdone": 1, 
		 "sigma_profile": "yes", 
		 "theory": "DFT", 
		 "functional": "B3LYP", 
		 "basiset": "6-31G**", 
		 "properties": { 
			 "R2extent": 2502.1955, 
			 "electric_dipole_moment_norm": 4.45930742829, 
			 "electric_quadrupole_moment_norm": 15.3974466195, 
			 "total_energy": -757.840778844, 
			 "HOMO_LUMO_gap": 0.23913, 
			 "cosmo_polarized_energy": -19.74, 
			 "cosmo_cavitation_energy": 22.26, 
			 "cosmo_dispersion_energy": -16.84, 
			 "cosmo_repulsion_energy": 1.35, 
			 "cosmo_total_nonelectrostatic_energy": 6.76, 
			 "SMD_solvation_energy": 6.42 
		},
		"coords": [
			{
				"x": -1.2953048566,
				"y": 3.2105140781,
				"z": 0.599241241,
				"element": "O" 
			},
			{
				"x": -0.1392017128,
				"y": 2.5721581946,
				"z": 0.3312846106,
				"element": "C" 
			},
			{
				"x": 0.9043392361,
				"y": 2.8145093137,
				"z": 0.8904726948,
				"element": "O" 
			},
			{
				"x": -0.2583569333,
				"y": 1.5179312709,
				"z": -0.7954729762,
				"element": "C" 
			},
			{
				"x": 0.8798299124,
				"y": 0.6862979454,
				"z": -0.704945379,
				"element": "O" 
			},
			{
				"x": -0.3499611805,
				"y": 2.2438829568,
				"z": -1.9687325342,
				"element": "O" 
			},
			{
				"x": -1.4575784198,
				"y": 0.5330150564,
				"z": -0.5995514935,
				"element": "C" 
			},
			{
				"x": -2.6996067437,
				"y": 1.1332744847,
				"z": -0.5793272737,
				"element": "O" 
			},
			{
				"x": -1.2510876977,
				"y": -0.1996286593,
				"z": 0.6048891183,
				"element": "O" 
			},
			{
				"x": -1.5125473098,
				"y": -0.4518566311,
				"z": -1.8046486929,
				"element": "C" 
			},
			{
				"x": -1.7876049927,
				"y": -1.7072400764,
				"z": -1.4632709916,
				"element": "O" 
			},
			{
				"x": -1.3404367791,
				"y": -0.0971668274,
				"z": -2.9529039249,
				"element": "O" 
			},
			{
				"x": -1.1178430855,
				"y": 3.8615657111,
				"z": 1.3006130401,
				"element": "H" 
			},
			{
				"x": 1.6229920259,
				"y": 1.2465860581,
				"z": -0.4254681003,
				"element": "H" 
			},
			{
				"x": -0.6450631949,
				"y": 1.6143887412,
				"z": -2.6617538789,
				"element": "H" 
			},
			{
				"x": -2.6591924624,
				"y": 1.9156850137,
				"z": -0.0067664784,
				"element": "H" 
			},
			{
				"x": -0.2876005403,
				"y": -0.3320104498,
				"z": 0.6649119379,
				"element": "H" 
			},
			{
				"x": -1.8330752654,
				"y": -1.7219061806,
				"z": -0.4854709189,
				"element": "H" 
			}
		],
		 "valence_orbital": [ 
			{
				"type": "occ",
				"energy": -0.33354,
				"method": "rhf"
			},
			{
				"type": "occ",
				"energy": -0.32496,
				"method": "rhf"
			},
			{
				"type": "occ",
				"energy": -0.31631,
				"method": "rhf"
			},
			{
				"type": "occ",
				"energy": -0.30693,
				"method": "rhf"
			},
			{
				"type": "occ",
				"energy": -0.27654,
				"method": "rhf"
			},
			{
				"type": "unocc",
				"energy": -0.03741,
				"method": "rhf"
			},
			{
				"type": "unocc",
				"energy": -0.01313,
				"method": "rhf"
			},
			{
				"type": "unocc",
				"energy": 0.03747,
				"method": "rhf"
			},
			{
				"type": "unocc",
				"energy": 0.06518,
				"method": "rhf"
			},
			{
				"type": "unocc",
				"energy": 0.0936,
				"method": "rhf"
			}
		],
		"cosmo_sigma_profile": { 
			"-0.025": 0.0,
			"-0.024": 0.0,
			"-0.023": 0.0,
			"-0.022": 0.0,
			"-0.021": 0.0356148310177,
			"-0.02": 1.30069896361,
			"-0.019": 0.700439224994,
			"-0.018": 0.869399972777,
			"-0.017": 1.43599120056,
			"-0.016": 0.866071899441,
			"-0.015": 1.44468037627,
			"-0.014": 3.18019046194,
			"-0.013": 3.69196688881,
			"-0.012": 3.94926916717,
			"-0.011": 3.71518063648,
			"-0.01": 2.87377688146,
			"-0.009": 4.56985803196,
			"-0.008": 5.1039207593,
			"-0.007": 4.25129416204,
			"-0.006": 5.27770071682,
			"-0.005": 5.91223266951,
			"-0.004": 7.04127269346,
			"-0.003": 5.94614255161,
			"-0.002": 5.7684560583,
			"-0.001": 7.55194099777,
			"0.0": 7.57364242483,
			"0.001": 6.93985735149,
			"0.002": 5.90665358888,
			"0.003": 8.00334244715,
			"0.004": 9.15829857387,
			"0.005": 9.82013403342,
			"0.006": 8.93906837936,
			"0.007": 9.07952089339,
			"0.008": 11.7633134059,
			"0.009": 11.3293085298,
			"0.01": 7.9936666075,
			"0.011": 3.2080618996,
			"0.012": 0.17792446953,
			"0.013": 0.0,
			"0.014": 0.0,
			"0.015": 0.0,
			"0.016": 0.0,
			"0.017": 0.0,
			"0.018": 0.0,
			"0.019": 0.0,
			"0.02": 0.0,
			"0.021": 0.0,
			"0.022": 0.0,
			"0.023": 0.0,
			"0.024": 0.0,
			"0.025": 0.0
		}
	}
}
