{
	 "smiles": "CN1C=CC2=C1C=CC(=C2)N=C=O", 
	 "Tm": 316.65, 
	 "num_atms": 21, 
	 "gaussian": { 
		 "optdone": 1, 
		 "sigma_profile": "yes", 
		 "theory": "DFT", 
		 "functional": "B3LYP", 
		 "basiset": "6-31G**", 
		 "properties": { 
			 "R2extent": 4005.7324, 
			 "electric_dipole_moment_norm": 5.42309600597, 
			 "electric_quadrupole_moment_norm": 14.8114081988, 
			 "total_energy": -570.613317306, 
			 "HOMO_LUMO_gap": 0.18528, 
			 "cosmo_polarized_energy": -8.31, 
			 "cosmo_cavitation_energy": 26.41, 
			 "cosmo_dispersion_energy": -19.05, 
			 "cosmo_repulsion_energy": 1.49, 
			 "cosmo_total_nonelectrostatic_energy": 8.85, 
			 "SMD_solvation_energy": 7.04 
		},
		"coords": [
			{
				"x": -1.8662344309,
				"y": -0.8357806324,
				"z": -2.8438885714,
				"element": "C" 
			},
			{
				"x": -1.3322643469,
				"y": -1.0849272342,
				"z": -1.520678857,
				"element": "N" 
			},
			{
				"x": -2.0604536272,
				"y": -1.1651667575,
				"z": -0.3464094824,
				"element": "C" 
			},
			{
				"x": -1.2291467949,
				"y": -1.4114064851,
				"z": 0.7148949021,
				"element": "C" 
			},
			{
				"x": 0.1031102302,
				"y": -1.4924234309,
				"z": 0.1877149368,
				"element": "C" 
			},
			{
				"x": 0.0012267765,
				"y": -1.2827464038,
				"z": -1.2180911636,
				"element": "C" 
			},
			{
				"x": 1.1240824873,
				"y": -1.2960561953,
				"z": -2.052805181,
				"element": "C" 
			},
			{
				"x": 2.3631491439,
				"y": -1.5224152544,
				"z": -1.4700488846,
				"element": "C" 
			},
			{
				"x": 2.4843114205,
				"y": -1.7325128699,
				"z": -0.0773983646,
				"element": "C" 
			},
			{
				"x": 1.3654241284,
				"y": -1.7194305552,
				"z": 0.7556391255,
				"element": "C" 
			},
			{
				"x": 3.773663593,
				"y": -1.9536880391,
				"z": 0.4269857828,
				"element": "N" 
			},
			{
				"x": 4.3565910768,
				"y": -2.167245923,
				"z": 1.4623069691,
				"element": "C" 
			},
			{
				"x": 5.0437897527,
				"y": -2.379103692,
				"z": 2.3995046461,
				"element": "O" 
			},
			{
				"x": -1.6470581547,
				"y": -1.6691739165,
				"z": -3.5209136294,
				"element": "H" 
			},
			{
				"x": -1.4472757252,
				"y": 0.081831706,
				"z": -3.2722200904,
				"element": "H" 
			},
			{
				"x": -2.9494550478,
				"y": -0.7219598702,
				"z": -2.7754882345,
				"element": "H" 
			},
			{
				"x": -3.1338919371,
				"y": -1.0367087247,
				"z": -0.3703467757,
				"element": "H" 
			},
			{
				"x": -1.5302976392,
				"y": -1.5216185471,
				"z": 1.7466092283,
				"element": "H" 
			},
			{
				"x": 1.0405124897,
				"y": -1.1356347026,
				"z": -3.1231694177,
				"element": "H" 
			},
			{
				"x": 3.2630973465,
				"y": -1.5421481656,
				"z": -2.0745477511,
				"element": "H" 
			},
			{
				"x": 1.4773192582,
				"y": -1.8827843065,
				"z": 1.8234508126,
				"element": "H" 
			}
		],
		 "valence_orbital": [ 
			{
				"type": "occ",
				"energy": -0.29673,
				"method": "rhf"
			},
			{
				"type": "occ",
				"energy": -0.29537,
				"method": "rhf"
			},
			{
				"type": "occ",
				"energy": -0.27707,
				"method": "rhf"
			},
			{
				"type": "occ",
				"energy": -0.21431,
				"method": "rhf"
			},
			{
				"type": "occ",
				"energy": -0.20448,
				"method": "rhf"
			},
			{
				"type": "unocc",
				"energy": -0.0192,
				"method": "rhf"
			},
			{
				"type": "unocc",
				"energy": 0.00587,
				"method": "rhf"
			},
			{
				"type": "unocc",
				"energy": 0.02577,
				"method": "rhf"
			},
			{
				"type": "unocc",
				"energy": 0.0651,
				"method": "rhf"
			},
			{
				"type": "unocc",
				"energy": 0.08253,
				"method": "rhf"
			}
		],
		"cosmo_sigma_profile": { 
			"-0.025": 0.0,
			"-0.024": 0.0,
			"-0.023": 0.0,
			"-0.022": 0.0,
			"-0.021": 0.0,
			"-0.02": 0.0,
			"-0.019": 0.0,
			"-0.018": 0.0,
			"-0.017": 0.0,
			"-0.016": 0.0,
			"-0.015": 0.0,
			"-0.014": 0.0,
			"-0.013": 0.0,
			"-0.012": 0.0,
			"-0.011": 0.0,
			"-0.01": 0.0,
			"-0.009": 0.244762282482,
			"-0.008": 3.19373812032,
			"-0.007": 6.21234559528,
			"-0.006": 11.72111208,
			"-0.005": 18.064807581,
			"-0.004": 17.9351531571,
			"-0.003": 18.2173034204,
			"-0.002": 17.5540523132,
			"-0.001": 13.3843520215,
			"0.0": 10.2351520197,
			"0.001": 10.7500799977,
			"0.002": 11.9808053622,
			"0.003": 13.9047571318,
			"0.004": 16.06877146,
			"0.005": 19.6594980072,
			"0.006": 10.5081422185,
			"0.007": 5.40621667826,
			"0.008": 7.85721036853,
			"0.009": 0.200217845683,
			"0.01": 0.0,
			"0.011": 0.0,
			"0.012": 0.0,
			"0.013": 0.0,
			"0.014": 0.0,
			"0.015": 0.0,
			"0.016": 0.0,
			"0.017": 0.0,
			"0.018": 0.0,
			"0.019": 0.0,
			"0.02": 0.0,
			"0.021": 0.0,
			"0.022": 0.0,
			"0.023": 0.0,
			"0.024": 0.0,
			"0.025": 0.0
		}
	}
}
