{
	 "smiles": "COC(=O)C1=CC=CC=C1N=C=O", 
	 "Tm": 320.15, 
	 "num_atms": 20, 
	 "gaussian": { 
		 "optdone": 1, 
		 "sigma_profile": "yes", 
		 "theory": "DFT", 
		 "functional": "B3LYP", 
		 "basiset": "6-31G**", 
		 "properties": { 
			 "R2extent": 2832.4711, 
			 "electric_dipole_moment_norm": 1.48041374284, 
			 "electric_quadrupole_moment_norm": 12.7488440802, 
			 "total_energy": -627.606517604, 
			 "HOMO_LUMO_gap": 0.18489, 
			 "cosmo_polarized_energy": -7.37, 
			 "cosmo_cavitation_energy": 25.66, 
			 "cosmo_dispersion_energy": -18.42, 
			 "cosmo_repulsion_energy": 1.44, 
			 "cosmo_total_nonelectrostatic_energy": 8.67, 
			 "SMD_solvation_energy": 7.92 
		},
		"coords": [
			{
				"x": -3.5780677481,
				"y": 1.4795961494,
				"z": -1.051183309,
				"element": "C" 
			},
			{
				"x": -2.1677987682,
				"y": 1.4564013229,
				"z": -0.7664231371,
				"element": "O" 
			},
			{
				"x": -1.6215225307,
				"y": 0.2365894259,
				"z": -0.5757736333,
				"element": "C" 
			},
			{
				"x": -2.2745709416,
				"y": -0.7866981133,
				"z": -0.6391078894,
				"element": "O" 
			},
			{
				"x": -0.1565777684,
				"y": 0.2699973036,
				"z": -0.2835831397,
				"element": "C" 
			},
			{
				"x": 0.4287937762,
				"y": -0.992143483,
				"z": -0.0825259877,
				"element": "C" 
			},
			{
				"x": 1.7799792267,
				"y": -1.1416058769,
				"z": 0.1991419117,
				"element": "C" 
			},
			{
				"x": 2.5881777896,
				"y": -0.0052785216,
				"z": 0.2867717804,
				"element": "C" 
			},
			{
				"x": 2.0376222912,
				"y": 1.2551160973,
				"z": 0.0927834603,
				"element": "C" 
			},
			{
				"x": 0.6712025309,
				"y": 1.4200612684,
				"z": -0.1930717722,
				"element": "C" 
			},
			{
				"x": 0.2639894876,
				"y": 2.7366098481,
				"z": -0.3619609467,
				"element": "N" 
			},
			{
				"x": -0.6744352169,
				"y": 3.4601609276,
				"z": -0.5990690137,
				"element": "C" 
			},
			{
				"x": -1.4655953134,
				"y": 4.3054438058,
				"z": -0.8144367733,
				"element": "O" 
			},
			{
				"x": -4.1396811063,
				"y": 1.0364112685,
				"z": -0.2257563768,
				"element": "H" 
			},
			{
				"x": -3.8268765858,
				"y": 2.5331789907,
				"z": -1.1706478904,
				"element": "H" 
			},
			{
				"x": -3.7901958546,
				"y": 0.9216699482,
				"z": -1.9659969822,
				"element": "H" 
			},
			{
				"x": -0.224741004,
				"y": -1.8540395428,
				"z": -0.1570805366,
				"element": "H" 
			},
			{
				"x": 2.1992563732,
				"y": -2.1313293785,
				"z": 0.3487623015,
				"element": "H" 
			},
			{
				"x": 3.6476397982,
				"y": -0.0989815189,
				"z": 0.5061464378,
				"element": "H" 
			},
			{
				"x": 2.6502015645,
				"y": 2.1476400786,
				"z": 0.1571114963,
				"element": "H" 
			}
		],
		 "valence_orbital": [ 
			{
				"type": "occ",
				"energy": -0.31066,
				"method": "rhf"
			},
			{
				"type": "occ",
				"energy": -0.30443,
				"method": "rhf"
			},
			{
				"type": "occ",
				"energy": -0.28346,
				"method": "rhf"
			},
			{
				"type": "occ",
				"energy": -0.26935,
				"method": "rhf"
			},
			{
				"type": "occ",
				"energy": -0.24288,
				"method": "rhf"
			},
			{
				"type": "unocc",
				"energy": -0.05799,
				"method": "rhf"
			},
			{
				"type": "unocc",
				"energy": -0.02301,
				"method": "rhf"
			},
			{
				"type": "unocc",
				"energy": 0.02637,
				"method": "rhf"
			},
			{
				"type": "unocc",
				"energy": 0.04718,
				"method": "rhf"
			},
			{
				"type": "unocc",
				"energy": 0.07885,
				"method": "rhf"
			}
		],
		"cosmo_sigma_profile": { 
			"-0.025": 0.0,
			"-0.024": 0.0,
			"-0.023": 0.0,
			"-0.022": 0.0,
			"-0.021": 0.0,
			"-0.02": 0.0,
			"-0.019": 0.0,
			"-0.018": 0.0,
			"-0.017": 0.0,
			"-0.016": 0.0,
			"-0.015": 0.0,
			"-0.014": 0.0,
			"-0.013": 0.0,
			"-0.012": 0.0,
			"-0.011": 0.0,
			"-0.01": 0.0,
			"-0.009": 0.0,
			"-0.008": 0.156224890218,
			"-0.007": 4.71541602728,
			"-0.006": 12.621300107,
			"-0.005": 14.9880515854,
			"-0.004": 15.4521034702,
			"-0.003": 19.6809469537,
			"-0.002": 19.417852396,
			"-0.001": 13.9653438555,
			"0.0": 16.6926029081,
			"0.001": 20.070123472,
			"0.002": 18.6702385408,
			"0.003": 15.8433665151,
			"0.004": 6.50710759016,
			"0.005": 2.87620464599,
			"0.006": 3.81519100523,
			"0.007": 6.60045722179,
			"0.008": 5.32935759874,
			"0.009": 1.12675039466,
			"0.01": 2.27077692019,
			"0.011": 3.58103099998,
			"0.012": 2.57607352999,
			"0.013": 0.0,
			"0.014": 0.0,
			"0.015": 0.0,
			"0.016": 0.0,
			"0.017": 0.0,
			"0.018": 0.0,
			"0.019": 0.0,
			"0.02": 0.0,
			"0.021": 0.0,
			"0.022": 0.0,
			"0.023": 0.0,
			"0.024": 0.0,
			"0.025": 0.0
		}
	}
}
