{
	 "smiles": "CC(C)(C)C1=CC=NC=C1", 
	 "Tm": 232.15, 
	 "num_atms": 23, 
	 "gaussian": { 
		 "optdone": 1, 
		 "sigma_profile": "yes", 
		 "theory": "DFT", 
		 "functional": "B3LYP", 
		 "basiset": "6-31G**", 
		 "properties": { 
			 "R2extent": 1596.9853, 
			 "electric_dipole_moment_norm": 2.7659104577, 
			 "electric_quadrupole_moment_norm": 7.30366682633, 
			 "total_energy": -405.552076605, 
			 "HOMO_LUMO_gap": 0.23023, 
			 "cosmo_polarized_energy": -6.15, 
			 "cosmo_cavitation_energy": 24.61, 
			 "cosmo_dispersion_energy": -17.72, 
			 "cosmo_repulsion_energy": 1.41, 
			 "cosmo_total_nonelectrostatic_energy": 8.3, 
			 "SMD_solvation_energy": 3.06 
		},
		"coords": [
			{
				"x": -0.7867298368,
				"y": 1.9705250067,
				"z": 0.067791865,
				"element": "C" 
			},
			{
				"x": -1.0484197428,
				"y": 0.556776996,
				"z": -0.5040374278,
				"element": "C" 
			},
			{
				"x": -0.7898963346,
				"y": 0.563352495,
				"z": -2.0295767697,
				"element": "C" 
			},
			{
				"x": -2.5274706769,
				"y": 0.2011629195,
				"z": -0.2633145066,
				"element": "C" 
			},
			{
				"x": -0.0941082645,
				"y": -0.4442022272,
				"z": 0.1661849529,
				"element": "C" 
			},
			{
				"x": 1.2974693197,
				"y": -0.2894364451,
				"z": 0.0587210516,
				"element": "C" 
			},
			{
				"x": 2.1498205635,
				"y": -1.2043655327,
				"z": 0.671484575,
				"element": "C" 
			},
			{
				"x": 1.730282228,
				"y": -2.2603419455,
				"z": 1.3822014863,
				"element": "N" 
			},
			{
				"x": 0.4062281253,
				"y": -2.4101105639,
				"z": 1.4861613379,
				"element": "C" 
			},
			{
				"x": -0.5294585248,
				"y": -1.5479983637,
				"z": 0.9091063498,
				"element": "C" 
			},
			{
				"x": -1.4544404035,
				"y": 2.6993292797,
				"z": -0.4048327342,
				"element": "H" 
			},
			{
				"x": -0.9653296873,
				"y": 1.996661183,
				"z": 1.1476772067,
				"element": "H" 
			},
			{
				"x": 0.2421022952,
				"y": 2.2975414435,
				"z": -0.1091111951,
				"element": "H" 
			},
			{
				"x": 0.2387784777,
				"y": 0.8498462522,
				"z": -2.2671908577,
				"element": "H" 
			},
			{
				"x": -1.4577158316,
				"y": 1.2778784253,
				"z": -2.5233680504,
				"element": "H" 
			},
			{
				"x": -0.970538321,
				"y": -0.4257402989,
				"z": -2.4629449201,
				"element": "H" 
			},
			{
				"x": -2.7817655487,
				"y": -0.78244979,
				"z": -0.6716271291,
				"element": "H" 
			},
			{
				"x": -2.779643289,
				"y": 0.2056617412,
				"z": 0.8021745864,
				"element": "H" 
			},
			{
				"x": -3.1685804964,
				"y": 0.9385483015,
				"z": -0.7567747057,
				"element": "H" 
			},
			{
				"x": 1.7264421143,
				"y": 0.5378487449,
				"z": -0.4983145679,
				"element": "H" 
			},
			{
				"x": 3.2286910208,
				"y": -1.0821804451,
				"z": 0.5867002164,
				"element": "H" 
			},
			{
				"x": 0.0646568433,
				"y": -3.2682120371,
				"z": 2.0636774853,
				"element": "H" 
			},
			{
				"x": -1.5843740299,
				"y": -1.7526951392,
				"z": 1.0493117508,
				"element": "H" 
			}
		],
		 "valence_orbital": [ 
			{
				"type": "occ",
				"energy": -0.3399,
				"method": "rhf"
			},
			{
				"type": "occ",
				"energy": -0.32529,
				"method": "rhf"
			},
			{
				"type": "occ",
				"energy": -0.26981,
				"method": "rhf"
			},
			{
				"type": "occ",
				"energy": -0.25588,
				"method": "rhf"
			},
			{
				"type": "occ",
				"energy": -0.24787,
				"method": "rhf"
			},
			{
				"type": "unocc",
				"energy": -0.01764,
				"method": "rhf"
			},
			{
				"type": "unocc",
				"energy": -0.0056,
				"method": "rhf"
			},
			{
				"type": "unocc",
				"energy": 0.07663,
				"method": "rhf"
			},
			{
				"type": "unocc",
				"energy": 0.11181,
				"method": "rhf"
			},
			{
				"type": "unocc",
				"energy": 0.11945,
				"method": "rhf"
			}
		],
		"cosmo_sigma_profile": { 
			"-0.025": 0.0,
			"-0.024": 0.0,
			"-0.023": 0.0,
			"-0.022": 0.0,
			"-0.021": 0.0,
			"-0.02": 0.0,
			"-0.019": 0.0,
			"-0.018": 0.0,
			"-0.017": 0.0,
			"-0.016": 0.0,
			"-0.015": 0.0,
			"-0.014": 0.0,
			"-0.013": 0.0,
			"-0.012": 0.0,
			"-0.011": 0.0,
			"-0.01": 0.0,
			"-0.009": 0.0,
			"-0.008": 0.0,
			"-0.007": 0.0613811843673,
			"-0.006": 6.68967683933,
			"-0.005": 9.74418881112,
			"-0.004": 11.4984049047,
			"-0.003": 24.5708230376,
			"-0.002": 23.692824938,
			"-0.001": 20.5582527224,
			"0.0": 22.0713303415,
			"0.001": 24.9519619075,
			"0.002": 12.3113006562,
			"0.003": 13.874220595,
			"0.004": 6.87141731049,
			"0.005": 2.3706642182,
			"0.006": 1.8795725966,
			"0.007": 1.18088487014,
			"0.008": 1.69284386407,
			"0.009": 0.943935754636,
			"0.01": 0.830427102468,
			"0.011": 1.34488156675,
			"0.012": 1.42596032142,
			"0.013": 0.665834463956,
			"0.014": 1.13882775778,
			"0.015": 0.793548337695,
			"0.016": 0.751690774689,
			"0.017": 0.904678652526,
			"0.018": 0.0143014059219,
			"0.019": 0.0,
			"0.02": 0.0,
			"0.021": 0.0,
			"0.022": 0.0,
			"0.023": 0.0,
			"0.024": 0.0,
			"0.025": 0.0
		}
	}
}
