{
	 "smiles": "CN(C)CCN", 
	 "Tm": 203.15, 
	 "num_atms": 18, 
	 "gaussian": { 
		 "optdone": 1, 
		 "sigma_profile": "yes", 
		 "theory": "DFT", 
		 "functional": "B3LYP", 
		 "basiset": "6-31G**", 
		 "properties": { 
			 "R2extent": 1080.3108, 
			 "electric_dipole_moment_norm": 1.60852126501, 
			 "electric_quadrupole_moment_norm": 5.70321500822, 
			 "total_energy": -269.138877118, 
			 "HOMO_LUMO_gap": 0.2634, 
			 "cosmo_polarized_energy": -6.21, 
			 "cosmo_cavitation_energy": 19.26, 
			 "cosmo_dispersion_energy": -14.3, 
			 "cosmo_repulsion_energy": 1.23, 
			 "cosmo_total_nonelectrostatic_energy": 6.2, 
			 "SMD_solvation_energy": 0.18 
		},
		"coords": [
			{
				"x": -0.1370336378,
				"y": 0.7277439879,
				"z": 0.8149348785,
				"element": "C" 
			},
			{
				"x": -0.2517645105,
				"y": 1.0975933139,
				"z": -0.5831404615,
				"element": "N" 
			},
			{
				"x": 0.1684263456,
				"y": 2.4636858537,
				"z": -0.8390930461,
				"element": "C" 
			},
			{
				"x": 0.2129806801,
				"y": 0.0843241917,
				"z": -1.5281100257,
				"element": "C" 
			},
			{
				"x": 1.7024240383,
				"y": -0.3122161095,
				"z": -1.527621582,
				"element": "C" 
			},
			{
				"x": 2.5567300608,
				"y": 0.7212500617,
				"z": -2.1277584942,
				"element": "N" 
			},
			{
				"x": -0.5514314917,
				"y": -0.2742376188,
				"z": 0.9707693135,
				"element": "H" 
			},
			{
				"x": 0.898859743,
				"y": 0.7292374877,
				"z": 1.2068582715,
				"element": "H" 
			},
			{
				"x": -0.7150400397,
				"y": 1.4295883117,
				"z": 1.4276885529,
				"element": "H" 
			},
			{
				"x": 1.2020621083,
				"y": 2.6968184088,
				"z": -0.5145055617,
				"element": "H" 
			},
			{
				"x": 0.0989829993,
				"y": 2.6808211303,
				"z": -1.9084062236,
				"element": "H" 
			},
			{
				"x": -0.4926019117,
				"y": 3.1565842542,
				"z": -0.3032967142,
				"element": "H" 
			},
			{
				"x": -0.0408119986,
				"y": 0.4242761809,
				"z": -2.5390659671,
				"element": "H" 
			},
			{
				"x": -0.3722927117,
				"y": -0.8249335784,
				"z": -1.3324707173,
				"element": "H" 
			},
			{
				"x": 2.0043300633,
				"y": -0.6114703373,
				"z": -0.5081518987,
				"element": "H" 
			},
			{
				"x": 1.7941273083,
				"y": -1.2124215844,
				"z": -2.1484739783,
				"element": "H" 
			},
			{
				"x": 2.676929076,
				"y": 1.4964705761,
				"z": -1.4817962184,
				"element": "H" 
			},
			{
				"x": 3.4879238787,
				"y": 0.3448854698,
				"z": -2.2883601275,
				"element": "H" 
			}
		],
		 "valence_orbital": [ 
			{
				"type": "occ",
				"energy": -0.36004,
				"method": "rhf"
			},
			{
				"type": "occ",
				"energy": -0.34662,
				"method": "rhf"
			},
			{
				"type": "occ",
				"energy": -0.34223,
				"method": "rhf"
			},
			{
				"type": "occ",
				"energy": -0.23325,
				"method": "rhf"
			},
			{
				"type": "occ",
				"energy": -0.19518,
				"method": "rhf"
			},
			{
				"type": "unocc",
				"energy": 0.06822,
				"method": "rhf"
			},
			{
				"type": "unocc",
				"energy": 0.11529,
				"method": "rhf"
			},
			{
				"type": "unocc",
				"energy": 0.11993,
				"method": "rhf"
			},
			{
				"type": "unocc",
				"energy": 0.12827,
				"method": "rhf"
			},
			{
				"type": "unocc",
				"energy": 0.148,
				"method": "rhf"
			}
		],
		"cosmo_sigma_profile": { 
			"-0.025": 0.0,
			"-0.024": 0.0,
			"-0.023": 0.0,
			"-0.022": 0.0,
			"-0.021": 0.0,
			"-0.02": 0.0,
			"-0.019": 0.0,
			"-0.018": 0.0,
			"-0.017": 0.0,
			"-0.016": 0.0,
			"-0.015": 0.0,
			"-0.014": 0.0,
			"-0.013": 0.0,
			"-0.012": 0.0,
			"-0.011": 0.0,
			"-0.01": 0.297489922514,
			"-0.009": 1.29686943407,
			"-0.008": 2.98766905756,
			"-0.007": 2.48005335476,
			"-0.006": 3.10660384358,
			"-0.005": 2.95547562361,
			"-0.004": 4.67315606309,
			"-0.003": 17.3478151051,
			"-0.002": 24.1075456494,
			"-0.001": 26.7047957697,
			"0.0": 24.7047532117,
			"0.001": 9.54698218974,
			"0.002": 3.59161295354,
			"0.003": 3.62016856589,
			"0.004": 1.88557124797,
			"0.005": 1.13095231417,
			"0.006": 1.99928812978,
			"0.007": 2.12292155989,
			"0.008": 1.78968990271,
			"0.009": 1.22291813477,
			"0.01": 1.69231885265,
			"0.011": 1.21693698942,
			"0.012": 1.56831032392,
			"0.013": 0.327932016128,
			"0.014": 1.26488668043,
			"0.015": 1.4145641137,
			"0.016": 0.864083798369,
			"0.017": 0.508659977835,
			"0.018": 0.457481767996,
			"0.019": 0.503462677991,
			"0.02": 0.386236429064,
			"0.021": 0.0,
			"0.022": 0.0,
			"0.023": 0.0,
			"0.024": 0.0,
			"0.025": 0.0
		}
	}
}
