{
	 "smiles": "ClC1=CC=C(C=C1)C1=CSC(=N1)C(=NNC1=C(Cl)C=C(Cl)C(Cl)=C1)C#N", 
	 "Tm": 449.15, 
	 "num_atms": 34, 
	 "gaussian": { 
		 "optdone": 1, 
		 "sigma_profile": "yes", 
		 "theory": "DFT", 
		 "functional": "B3LYP", 
		 "basiset": "6-31G**", 
		 "properties": { 
			 "R2extent": 25121.2297, 
			 "electric_dipole_moment_norm": 3.38883937212, 
			 "electric_quadrupole_moment_norm": 15.4778690394, 
			 "total_energy": -3110.52719257, 
			 "HOMO_LUMO_gap": 0.1234, 
			 "cosmo_polarized_energy": -16.25, 
			 "cosmo_cavitation_energy": 51.09, 
			 "cosmo_dispersion_energy": -36.44, 
			 "cosmo_repulsion_energy": 2.7, 
			 "cosmo_total_nonelectrostatic_energy": 17.35, 
			 "SMD_solvation_energy": 7.02 
		},
		"coords": [
			{
				"x": 4.1531772314,
				"y": -5.1935725643,
				"z": -5.3737876753,
				"element": "Cl" 
			},
			{
				"x": 3.4406651172,
				"y": -4.2244239848,
				"z": -4.0933951943,
				"element": "C" 
			},
			{
				"x": 2.7169728181,
				"y": -3.0777425904,
				"z": -4.4171804165,
				"element": "C" 
			},
			{
				"x": 2.1551163755,
				"y": -2.3148238661,
				"z": -3.3965562718,
				"element": "C" 
			},
			{
				"x": 2.3068099247,
				"y": -2.6830514955,
				"z": -2.049807386,
				"element": "C" 
			},
			{
				"x": 3.0407674507,
				"y": -3.8431720773,
				"z": -1.7534680297,
				"element": "C" 
			},
			{
				"x": 3.6073074042,
				"y": -4.6142412048,
				"z": -2.7640121163,
				"element": "C" 
			},
			{
				"x": 1.6993409008,
				"y": -1.8529897879,
				"z": -0.9923211678,
				"element": "C" 
			},
			{
				"x": 1.7587418772,
				"y": -2.067575341,
				"z": 0.3664165202,
				"element": "C" 
			},
			{
				"x": 0.9043759734,
				"y": -0.8404697299,
				"z": 1.2345473021,
				"element": "S" 
			},
			{
				"x": 0.5113759315,
				"y": -0.1016629637,
				"z": -0.3100850121,
				"element": "C" 
			},
			{
				"x": 0.984036289,
				"y": -0.7285942842,
				"z": -1.3510710741,
				"element": "N" 
			},
			{
				"x": -0.2823474957,
				"y": 1.116385032,
				"z": -0.4128478453,
				"element": "C" 
			},
			{
				"x": -0.7484850859,
				"y": 1.6818586704,
				"z": 0.6662369274,
				"element": "N" 
			},
			{
				"x": -1.4612641791,
				"y": 2.7955278892,
				"z": 0.5699303087,
				"element": "N" 
			},
			{
				"x": -2.0746713661,
				"y": 3.3976304333,
				"z": 1.6787278953,
				"element": "C" 
			},
			{
				"x": -1.5092994064,
				"y": 3.4756080759,
				"z": 2.9666507849,
				"element": "C" 
			},
			{
				"x": 0.0781195631,
				"y": 2.8528896206,
				"z": 3.3387211414,
				"element": "Cl" 
			},
			{
				"x": -2.2023743575,
				"y": 4.1192457498,
				"z": 3.9898435845,
				"element": "C" 
			},
			{
				"x": -3.4387199523,
				"y": 4.7217551755,
				"z": 3.7598492846,
				"element": "C" 
			},
			{
				"x": -4.2431776325,
				"y": 5.521212598,
				"z": 5.0808488392,
				"element": "Cl" 
			},
			{
				"x": -3.9935351972,
				"y": 4.6774873633,
				"z": 2.4738570712,
				"element": "C" 
			},
			{
				"x": -5.5293076164,
				"y": 5.4144397506,
				"z": 2.1122549276,
				"element": "Cl" 
			},
			{
				"x": -3.3155629895,
				"y": 4.0106719428,
				"z": 1.4581330954,
				"element": "C" 
			},
			{
				"x": -0.5465441186,
				"y": 1.6662530382,
				"z": -1.7153662836,
				"element": "C" 
			},
			{
				"x": -0.8548681213,
				"y": 2.2315068061,
				"z": -2.6855208757,
				"element": "N" 
			},
			{
				"x": 2.5951129143,
				"y": -2.7861391961,
				"z": -5.4544797142,
				"element": "H" 
			},
			{
				"x": 1.5901165625,
				"y": -1.4209631671,
				"z": -3.6347098382,
				"element": "H" 
			},
			{
				"x": 3.1776189142,
				"y": -4.1581158261,
				"z": -0.7236130432,
				"element": "H" 
			},
			{
				"x": 4.1723736199,
				"y": -5.5085232919,
				"z": -2.5260530826,
				"element": "H" 
			},
			{
				"x": 2.2504466063,
				"y": -2.8653539892,
				"z": 0.9033288803,
				"element": "H" 
			},
			{
				"x": -1.7325688714,
				"y": 3.1332125883,
				"z": -0.3538312641,
				"element": "H" 
			},
			{
				"x": -1.7601739856,
				"y": 4.1717513643,
				"z": 4.9771561772,
				"element": "H" 
			},
			{
				"x": -3.7698750988,
				"y": 3.9519792619,
				"z": 0.4746035506,
				"element": "H" 
			}
		],
		 "valence_orbital": [ 
			{
				"type": "occ",
				"energy": -0.28486,
				"method": "rhf"
			},
			{
				"type": "occ",
				"energy": -0.27079,
				"method": "rhf"
			},
			{
				"type": "occ",
				"energy": -0.26658,
				"method": "rhf"
			},
			{
				"type": "occ",
				"energy": -0.24549,
				"method": "rhf"
			},
			{
				"type": "occ",
				"energy": -0.22042,
				"method": "rhf"
			},
			{
				"type": "unocc",
				"energy": -0.09702,
				"method": "rhf"
			},
			{
				"type": "unocc",
				"energy": -0.05097,
				"method": "rhf"
			},
			{
				"type": "unocc",
				"energy": -0.04709,
				"method": "rhf"
			},
			{
				"type": "unocc",
				"energy": -0.03588,
				"method": "rhf"
			},
			{
				"type": "unocc",
				"energy": -0.02152,
				"method": "rhf"
			}
		],
		"cosmo_sigma_profile": { 
			"-0.025": 0.0,
			"-0.024": 0.0,
			"-0.023": 0.0,
			"-0.022": 0.0,
			"-0.021": 0.0,
			"-0.02": 0.0,
			"-0.019": 0.0,
			"-0.018": 0.0,
			"-0.017": 0.00504685122521,
			"-0.016": 1.01462734653,
			"-0.015": 1.51903279976,
			"-0.014": 1.24915561541,
			"-0.013": 1.17475053659,
			"-0.012": 1.20127686699,
			"-0.011": 1.69821426404,
			"-0.01": 5.64989730933,
			"-0.009": 6.2570200209,
			"-0.008": 5.71076871813,
			"-0.007": 10.6391401588,
			"-0.006": 12.1404491826,
			"-0.005": 12.8920547947,
			"-0.004": 15.0512810019,
			"-0.003": 19.5280252856,
			"-0.002": 27.4381167173,
			"-0.001": 43.0448644737,
			"0.0": 44.389423545,
			"0.001": 43.8373179551,
			"0.002": 48.0553893575,
			"0.003": 51.4149423568,
			"0.004": 35.3907966982,
			"0.005": 13.8642793104,
			"0.006": 4.65607682513,
			"0.007": 5.79284711116,
			"0.008": 4.11584094134,
			"0.009": 2.54998935972,
			"0.01": 2.49133175127,
			"0.011": 2.2366632546,
			"0.012": 0.729047869357,
			"0.013": 0.0,
			"0.014": 0.0,
			"0.015": 0.0,
			"0.016": 0.0,
			"0.017": 0.0,
			"0.018": 0.0,
			"0.019": 0.0,
			"0.02": 0.0,
			"0.021": 0.0,
			"0.022": 0.0,
			"0.023": 0.0,
			"0.024": 0.0,
			"0.025": 0.0
		}
	}
}
