{
	 "smiles": "C1CC11CC1", 
	 "Tm": 138.15, 
	 "num_atms": 13, 
	 "gaussian": { 
		 "optdone": 1, 
		 "sigma_profile": "yes", 
		 "theory": "DFT", 
		 "functional": "B3LYP", 
		 "basiset": "6-31G**", 
		 "properties": { 
			 "R2extent": 419.6814, 
			 "electric_dipole_moment_norm": 0.0, 
			 "electric_quadrupole_moment_norm": 1.27596861639, 
			 "total_energy": -195.279843188, 
			 "HOMO_LUMO_gap": 0.3699, 
			 "cosmo_polarized_energy": -1.4, 
			 "cosmo_cavitation_energy": 15.57, 
			 "cosmo_dispersion_energy": -11.54, 
			 "cosmo_repulsion_energy": 1.03, 
			 "cosmo_total_nonelectrostatic_energy": 5.06, 
			 "SMD_solvation_energy": 2.35 
		},
		"coords": [
			{
				"x": 1.3517063634,
				"y": -0.9800759837,
				"z": -0.6924793101,
				"element": "C" 
			},
			{
				"x": 1.1651999422,
				"y": 0.537409175,
				"z": -0.7576655233,
				"element": "C" 
			},
			{
				"x": 0.1284436971,
				"y": -0.3355662849,
				"z": -0.1512362647,
				"element": "C" 
			},
			{
				"x": -0.6623572673,
				"y": -0.3787679072,
				"z": 1.1047479664,
				"element": "C" 
			},
			{
				"x": -1.3408027076,
				"y": -0.5207727734,
				"z": -0.2595620557,
				"element": "C" 
			},
			{
				"x": 1.278303155,
				"y": -1.5383308771,
				"z": -1.6227242557,
				"element": "H" 
			},
			{
				"x": 2.0885028838,
				"y": -1.3688067242,
				"z": 0.006385073,
				"element": "H" 
			},
			{
				"x": 0.968736325,
				"y": 0.98074147,
				"z": -1.7309320212,
				"element": "H" 
			},
			{
				"x": 1.778857886,
				"y": 1.1502869114,
				"z": -0.1017747496,
				"element": "H" 
			},
			{
				"x": -0.5972770546,
				"y": -1.2652487771,
				"z": 1.7310927927,
				"element": "H" 
			},
			{
				"x": -0.8199952295,
				"y": 0.5467981552,
				"z": 1.653263566,
				"element": "H" 
			},
			{
				"x": -1.9461796775,
				"y": 0.3110977395,
				"z": -0.6115569988,
				"element": "H" 
			},
			{
				"x": -1.7235383162,
				"y": -1.5009641235,
				"z": -0.5336582191,
				"element": "H" 
			}
		],
		 "valence_orbital": [ 
			{
				"type": "occ",
				"energy": -0.35345,
				"method": "rhf"
			},
			{
				"type": "occ",
				"energy": -0.34228,
				"method": "rhf"
			},
			{
				"type": "occ",
				"energy": -0.28036,
				"method": "rhf"
			},
			{
				"type": "occ",
				"energy": -0.28035,
				"method": "rhf"
			},
			{
				"type": "occ",
				"energy": -0.26552,
				"method": "rhf"
			},
			{
				"type": "unocc",
				"energy": 0.10438,
				"method": "rhf"
			},
			{
				"type": "unocc",
				"energy": 0.10438,
				"method": "rhf"
			},
			{
				"type": "unocc",
				"energy": 0.12068,
				"method": "rhf"
			},
			{
				"type": "unocc",
				"energy": 0.12405,
				"method": "rhf"
			},
			{
				"type": "unocc",
				"energy": 0.1579,
				"method": "rhf"
			}
		],
		"cosmo_sigma_profile": { 
			"-0.025": 0.0,
			"-0.024": 0.0,
			"-0.023": 0.0,
			"-0.022": 0.0,
			"-0.021": 0.0,
			"-0.02": 0.0,
			"-0.019": 0.0,
			"-0.018": 0.0,
			"-0.017": 0.0,
			"-0.016": 0.0,
			"-0.015": 0.0,
			"-0.014": 0.0,
			"-0.013": 0.0,
			"-0.012": 0.0,
			"-0.011": 0.0,
			"-0.01": 0.0,
			"-0.009": 0.0,
			"-0.008": 0.0,
			"-0.007": 0.0,
			"-0.006": 0.0,
			"-0.005": 1.08339694398,
			"-0.004": 11.3057258034,
			"-0.003": 12.7494663933,
			"-0.002": 14.0192830139,
			"-0.001": 15.7004984782,
			"0.0": 15.0698769802,
			"0.001": 14.4094952686,
			"0.002": 12.7013558227,
			"0.003": 12.7397116369,
			"0.004": 7.52963483516,
			"0.005": 3.31853799743,
			"0.006": 1.64848704826,
			"0.007": 0.0,
			"0.008": 0.0,
			"0.009": 0.0,
			"0.01": 0.0,
			"0.011": 0.0,
			"0.012": 0.0,
			"0.013": 0.0,
			"0.014": 0.0,
			"0.015": 0.0,
			"0.016": 0.0,
			"0.017": 0.0,
			"0.018": 0.0,
			"0.019": 0.0,
			"0.02": 0.0,
			"0.021": 0.0,
			"0.022": 0.0,
			"0.023": 0.0,
			"0.024": 0.0,
			"0.025": 0.0
		}
	}
}
