{
	 "smiles": "CCN1C(S)=NN=C1N1CCOCC1", 
	 "Tm": 290.15, 
	 "num_atms": 28, 
	 "gaussian": { 
		 "optdone": 1, 
		 "sigma_profile": "yes", 
		 "theory": "DFT", 
		 "functional": "B3LYP", 
		 "basiset": "6-31G**", 
		 "properties": { 
			 "R2extent": 3866.809, 
			 "electric_dipole_moment_norm": 4.30831721789, 
			 "electric_quadrupole_moment_norm": 6.25281207698, 
			 "total_energy": -1005.66072567, 
			 "HOMO_LUMO_gap": 0.21444, 
			 "cosmo_polarized_energy": -16.03, 
			 "cosmo_cavitation_energy": 30.95, 
			 "cosmo_dispersion_energy": -22.99, 
			 "cosmo_repulsion_energy": 1.77, 
			 "cosmo_total_nonelectrostatic_energy": 9.72, 
			 "SMD_solvation_energy": 2.02 
		},
		"coords": [
			{
				"x": 0.3882955962,
				"y": 3.218150643,
				"z": -2.5362323126,
				"element": "C" 
			},
			{
				"x": -0.5837036662,
				"y": 2.5745919409,
				"z": -1.5439803191,
				"element": "C" 
			},
			{
				"x": -0.510193397,
				"y": 1.1146937219,
				"z": -1.5059827555,
				"element": "N" 
			},
			{
				"x": -1.0822944557,
				"y": 0.2080967075,
				"z": -2.36381735,
				"element": "C" 
			},
			{
				"x": -1.8996820165,
				"y": 0.689022681,
				"z": -3.8583462898,
				"element": "S" 
			},
			{
				"x": -0.950558035,
				"y": -1.0201719792,
				"z": -1.9259966203,
				"element": "N" 
			},
			{
				"x": -0.2506151211,
				"y": -0.9474557487,
				"z": -0.7325067866,
				"element": "N" 
			},
			{
				"x": 0.0004847069,
				"y": 0.3188361471,
				"z": -0.4899727707,
				"element": "C" 
			},
			{
				"x": 0.6055256905,
				"y": 0.8728339106,
				"z": 0.6389182023,
				"element": "N" 
			},
			{
				"x": 0.4099696713,
				"y": 0.1195883775,
				"z": 1.8949845807,
				"element": "C" 
			},
			{
				"x": 1.4337293125,
				"y": -1.0054331485,
				"z": 2.0662054607,
				"element": "C" 
			},
			{
				"x": 2.7634822679,
				"y": -0.4964632953,
				"z": 1.957749482,
				"element": "O" 
			},
			{
				"x": 2.976388182,
				"y": 0.11065055,
				"z": 0.6909595796,
				"element": "C" 
			},
			{
				"x": 2.0194423346,
				"y": 1.2884023611,
				"z": 0.4903777623,
				"element": "C" 
			},
			{
				"x": 0.2777879452,
				"y": 4.3065405612,
				"z": -2.5052863591,
				"element": "H" 
			},
			{
				"x": 0.1933432524,
				"y": 2.8872758077,
				"z": -3.5602094024,
				"element": "H" 
			},
			{
				"x": 1.4265978974,
				"y": 2.9746780362,
				"z": -2.2936378689,
				"element": "H" 
			},
			{
				"x": -1.6150167571,
				"y": 2.8510006092,
				"z": -1.7889837278,
				"element": "H" 
			},
			{
				"x": -0.3839281393,
				"y": 2.9092766908,
				"z": -0.5227792924,
				"element": "H" 
			},
			{
				"x": -2.333314858,
				"y": -0.5627120125,
				"z": -4.0988879201,
				"element": "H" 
			},
			{
				"x": -0.607257471,
				"y": -0.278400778,
				"z": 1.9104664706,
				"element": "H" 
			},
			{
				"x": 0.5196804413,
				"y": 0.8355364404,
				"z": 2.7195744773,
				"element": "H" 
			},
			{
				"x": 1.3538001742,
				"y": -1.4483664754,
				"z": 3.0638916432,
				"element": "H" 
			},
			{
				"x": 1.2562849244,
				"y": -1.7843252483,
				"z": 1.3120944559,
				"element": "H" 
			},
			{
				"x": 4.0165627297,
				"y": 0.4524546047,
				"z": 0.6757914795,
				"element": "H" 
			},
			{
				"x": 2.83760648,
				"y": -0.6254294796,
				"z": -0.1173754733,
				"element": "H" 
			},
			{
				"x": 2.1635401011,
				"y": 1.7404929505,
				"z": -0.4950279553,
				"element": "H" 
			},
			{
				"x": 2.2232422093,
				"y": 2.0532354242,
				"z": 1.2495096099,
				"element": "H" 
			}
		],
		 "valence_orbital": [ 
			{
				"type": "occ",
				"energy": -0.28817,
				"method": "rhf"
			},
			{
				"type": "occ",
				"energy": -0.27918,
				"method": "rhf"
			},
			{
				"type": "occ",
				"energy": -0.25166,
				"method": "rhf"
			},
			{
				"type": "occ",
				"energy": -0.24095,
				"method": "rhf"
			},
			{
				"type": "occ",
				"energy": -0.20903,
				"method": "rhf"
			},
			{
				"type": "unocc",
				"energy": 0.00541,
				"method": "rhf"
			},
			{
				"type": "unocc",
				"energy": 0.02083,
				"method": "rhf"
			},
			{
				"type": "unocc",
				"energy": 0.04543,
				"method": "rhf"
			},
			{
				"type": "unocc",
				"energy": 0.05861,
				"method": "rhf"
			},
			{
				"type": "unocc",
				"energy": 0.07845,
				"method": "rhf"
			}
		],
		"cosmo_sigma_profile": { 
			"-0.025": 0.0,
			"-0.024": 0.0,
			"-0.023": 0.0,
			"-0.022": 0.0,
			"-0.021": 0.0,
			"-0.02": 0.0,
			"-0.019": 0.0,
			"-0.018": 0.0,
			"-0.017": 0.0,
			"-0.016": 0.0,
			"-0.015": 0.0,
			"-0.014": 0.0,
			"-0.013": 0.0,
			"-0.012": 0.847040350147,
			"-0.011": 1.70419819174,
			"-0.01": 1.52978688527,
			"-0.009": 0.943013952993,
			"-0.008": 0.796873348943,
			"-0.007": 3.09883661242,
			"-0.006": 8.53153106055,
			"-0.005": 21.7017089345,
			"-0.004": 32.3113198202,
			"-0.003": 26.702710901,
			"-0.002": 28.3385277712,
			"-0.001": 22.1909229013,
			"0.0": 14.2508073629,
			"0.001": 11.384927005,
			"0.002": 9.72190801867,
			"0.003": 8.34361971891,
			"0.004": 7.51697887047,
			"0.005": 5.91417247959,
			"0.006": 6.20943253547,
			"0.007": 5.2232820403,
			"0.008": 3.53418339164,
			"0.009": 2.05201622793,
			"0.01": 2.69335072676,
			"0.011": 3.13204630898,
			"0.012": 4.28882496531,
			"0.013": 4.15681833346,
			"0.014": 4.26947433213,
			"0.015": 2.75573862296,
			"0.016": 1.05942645039,
			"0.017": 0.401707517842,
			"0.018": 0.0,
			"0.019": 0.0,
			"0.02": 0.0,
			"0.021": 0.0,
			"0.022": 0.0,
			"0.023": 0.0,
			"0.024": 0.0,
			"0.025": 0.0
		}
	}
}
