{
	 "smiles": "NC(=O)C1=CC=C(C=C1)C1=CSC(N)=N1", 
	 "Tm": 524.15, 
	 "num_atms": 24, 
	 "gaussian": { 
		 "optdone": 1, 
		 "sigma_profile": "yes", 
		 "theory": "DFT", 
		 "functional": "B3LYP", 
		 "basiset": "6-31G**", 
		 "properties": { 
			 "R2extent": 5715.8579, 
			 "electric_dipole_moment_norm": 4.71495659895, 
			 "electric_quadrupole_moment_norm": 18.8197403967, 
			 "total_energy": -1024.17569194, 
			 "HOMO_LUMO_gap": 0.15829, 
			 "cosmo_polarized_energy": -20.22, 
			 "cosmo_cavitation_energy": 30.57, 
			 "cosmo_dispersion_energy": -23.33, 
			 "cosmo_repulsion_energy": 1.77, 
			 "cosmo_total_nonelectrostatic_energy": 9.02, 
			 "SMD_solvation_energy": 4.57 
		},
		"coords": [
			{
				"x": -0.5555445957,
				"y": 3.006511564,
				"z": 2.5717625828,
				"element": "N" 
			},
			{
				"x": -0.9378643472,
				"y": 1.6839971571,
				"z": 2.5670375716,
				"element": "C" 
			},
			{
				"x": -1.4439188996,
				"y": 1.1591548542,
				"z": 3.5523543025,
				"element": "O" 
			},
			{
				"x": -0.6774553906,
				"y": 0.920160705,
				"z": 1.3026925101,
				"element": "C" 
			},
			{
				"x": -1.3408367953,
				"y": -0.3040829086,
				"z": 1.1365373442,
				"element": "C" 
			},
			{
				"x": -1.1528923173,
				"y": -1.0622788347,
				"z": -0.0105916039,
				"element": "C" 
			},
			{
				"x": -0.2838715395,
				"y": -0.6284637024,
				"z": -1.0287755768,
				"element": "C" 
			},
			{
				"x": 0.3946794586,
				"y": 0.5886052223,
				"z": -0.8501559674,
				"element": "C" 
			},
			{
				"x": 0.2000868563,
				"y": 1.3505899907,
				"z": 0.2982581445,
				"element": "C" 
			},
			{
				"x": -0.0656070495,
				"y": -1.4121810023,
				"z": -2.2582461922,
				"element": "C" 
			},
			{
				"x": -0.662668347,
				"y": -2.6026723073,
				"z": -2.5765644405,
				"element": "C" 
			},
			{
				"x": -0.1155615561,
				"y": -3.1681487964,
				"z": -4.1318000809,
				"element": "S" 
			},
			{
				"x": 0.9143605994,
				"y": -1.7304270764,
				"z": -4.2266990123,
				"element": "C" 
			},
			{
				"x": 1.671828906,
				"y": -1.4747848,
				"z": -5.3466039634,
				"element": "N" 
			},
			{
				"x": 0.8312947959,
				"y": -0.9332637734,
				"z": -3.2054311948,
				"element": "N" 
			},
			{
				"x": -0.4693220753,
				"y": 3.5131284041,
				"z": 1.704612021,
				"element": "H" 
			},
			{
				"x": -0.853470252,
				"y": 3.5345108065,
				"z": 3.3794396278,
				"element": "H" 
			},
			{
				"x": -2.0016113537,
				"y": -0.6398967025,
				"z": 1.9284724197,
				"element": "H" 
			},
			{
				"x": -1.6857948334,
				"y": -2.0025239572,
				"z": -0.1131145571,
				"element": "H" 
			},
			{
				"x": 1.0787250502,
				"y": 0.9192981454,
				"z": -1.6229100442,
				"element": "H" 
			},
			{
				"x": 0.7666882435,
				"y": 2.2695108772,
				"z": 0.4198351584,
				"element": "H" 
			},
			{
				"x": -1.3754332792,
				"y": -3.1831986062,
				"z": -2.0112065749,
				"element": "H" 
			},
			{
				"x": 2.3506876433,
				"y": -0.738321601,
				"z": -5.2039110955,
				"element": "H" 
			},
			{
				"x": 2.033301078,
				"y": -2.2739236581,
				"z": -5.847291379,
				"element": "H" 
			}
		],
		 "valence_orbital": [ 
			{
				"type": "occ",
				"energy": -0.26752,
				"method": "rhf"
			},
			{
				"type": "occ",
				"energy": -0.25681,
				"method": "rhf"
			},
			{
				"type": "occ",
				"energy": -0.25193,
				"method": "rhf"
			},
			{
				"type": "occ",
				"energy": -0.2432,
				"method": "rhf"
			},
			{
				"type": "occ",
				"energy": -0.20683,
				"method": "rhf"
			},
			{
				"type": "unocc",
				"energy": -0.04854,
				"method": "rhf"
			},
			{
				"type": "unocc",
				"energy": -0.0062,
				"method": "rhf"
			},
			{
				"type": "unocc",
				"energy": 0.00187,
				"method": "rhf"
			},
			{
				"type": "unocc",
				"energy": 0.00681,
				"method": "rhf"
			},
			{
				"type": "unocc",
				"energy": 0.04352,
				"method": "rhf"
			}
		],
		"cosmo_sigma_profile": { 
			"-0.025": 0.0,
			"-0.024": 0.0,
			"-0.023": 0.0,
			"-0.022": 0.0,
			"-0.021": 0.0,
			"-0.02": 0.0,
			"-0.019": 0.0,
			"-0.018": 0.0,
			"-0.017": 0.0,
			"-0.016": 0.0,
			"-0.015": 0.707548398428,
			"-0.014": 3.02063535589,
			"-0.013": 4.69958645596,
			"-0.012": 5.76313663938,
			"-0.011": 4.99671722147,
			"-0.01": 5.59797230113,
			"-0.009": 6.56280252797,
			"-0.008": 6.90899955115,
			"-0.007": 5.84683201776,
			"-0.006": 7.14071358632,
			"-0.005": 9.02858114514,
			"-0.004": 10.9038536346,
			"-0.003": 9.71840955072,
			"-0.002": 8.66117514767,
			"-0.001": 10.3494068689,
			"0.0": 13.1865691195,
			"0.001": 17.0017702151,
			"0.002": 20.3702840003,
			"0.003": 26.2504315743,
			"0.004": 26.5336540949,
			"0.005": 7.88082739059,
			"0.006": 5.38372325051,
			"0.007": 4.30585399692,
			"0.008": 3.71557863789,
			"0.009": 4.2401178201,
			"0.01": 3.53631379752,
			"0.011": 3.45696424906,
			"0.012": 2.09207701591,
			"0.013": 4.2844461946,
			"0.014": 4.35357393476,
			"0.015": 0.34785415972,
			"0.016": 0.0,
			"0.017": 0.0,
			"0.018": 0.0,
			"0.019": 0.0,
			"0.02": 0.0,
			"0.021": 0.0,
			"0.022": 0.0,
			"0.023": 0.0,
			"0.024": 0.0,
			"0.025": 0.0
		}
	}
}
