{
	 "smiles": "NC(CN1C=NC=N1)C1=CC=CC=C1", 
	 "Tm": 361.15, 
	 "num_atms": 26, 
	 "gaussian": { 
		 "optdone": 1, 
		 "sigma_profile": "yes", 
		 "theory": "DFT", 
		 "functional": "B3LYP", 
		 "basiset": "6-31G**", 
		 "properties": { 
			 "R2extent": 2924.3492, 
			 "electric_dipole_moment_norm": 3.57177092351, 
			 "electric_quadrupole_moment_norm": 11.1491856577, 
			 "total_energy": -607.28169253, 
			 "HOMO_LUMO_gap": 0.23295, 
			 "cosmo_polarized_energy": -15.3, 
			 "cosmo_cavitation_energy": 29.7, 
			 "cosmo_dispersion_energy": -20.49, 
			 "cosmo_repulsion_energy": 1.61, 
			 "cosmo_total_nonelectrostatic_energy": 10.83, 
			 "SMD_solvation_energy": 1.89 
		},
		"coords": [
			{
				"x": 0.9631576699,
				"y": -1.757742058,
				"z": -1.8943999778,
				"element": "N" 
			},
			{
				"x": 0.3163803226,
				"y": -0.5069539164,
				"z": -1.4862860722,
				"element": "C" 
			},
			{
				"x": 1.4399248915,
				"y": 0.5458044274,
				"z": -1.3436770317,
				"element": "C" 
			},
			{
				"x": 0.9374399777,
				"y": 1.891159733,
				"z": -1.1251034569,
				"element": "N" 
			},
			{
				"x": 1.0060976904,
				"y": 2.6749610162,
				"z": -0.0252723873,
				"element": "C" 
			},
			{
				"x": 0.3927322647,
				"y": 3.8282266576,
				"z": -0.2347811577,
				"element": "N" 
			},
			{
				"x": -0.0534671366,
				"y": 3.6904503685,
				"z": -1.5138189011,
				"element": "C" 
			},
			{
				"x": 0.2460266492,
				"y": 2.5385581564,
				"z": -2.1001410235,
				"element": "N" 
			},
			{
				"x": -0.5737264115,
				"y": -0.5674150854,
				"z": -0.2454047255,
				"element": "C" 
			},
			{
				"x": -1.7629933566,
				"y": 0.1723171074,
				"z": -0.2005726729,
				"element": "C" 
			},
			{
				"x": -2.5780321511,
				"y": 0.1509820862,
				"z": 0.9323780697,
				"element": "C" 
			},
			{
				"x": -2.2153007883,
				"y": -0.6138193865,
				"z": 2.0419891792,
				"element": "C" 
			},
			{
				"x": -1.0321442092,
				"y": -1.3547539013,
				"z": 2.010734548,
				"element": "C" 
			},
			{
				"x": -0.2203355051,
				"y": -1.3300111416,
				"z": 0.8761150649,
				"element": "C" 
			},
			{
				"x": 1.5489474617,
				"y": -2.1212631929,
				"z": -1.1457501328,
				"element": "H" 
			},
			{
				"x": 0.2558112803,
				"y": -2.4666871132,
				"z": -2.0701780455,
				"element": "H" 
			},
			{
				"x": -0.3022566779,
				"y": -0.1780611393,
				"z": -2.3283045608,
				"element": "H" 
			},
			{
				"x": 2.0413918677,
				"y": 0.5359097609,
				"z": -2.2556998044,
				"element": "H" 
			},
			{
				"x": 2.0882482025,
				"y": 0.2989988419,
				"z": -0.4962077105,
				"element": "H" 
			},
			{
				"x": 1.5051453874,
				"y": 2.3680123462,
				"z": 0.8835303634,
				"element": "H" 
			},
			{
				"x": -0.6099843366,
				"y": 4.4596162324,
				"z": -2.0319567031,
				"element": "H" 
			},
			{
				"x": -2.0460801075,
				"y": 0.7748509481,
				"z": -1.0598153007,
				"element": "H" 
			},
			{
				"x": -3.4966758656,
				"y": 0.730543286,
				"z": 0.9464985599,
				"element": "H" 
			},
			{
				"x": -2.8496363603,
				"y": -0.634764207,
				"z": 2.9233838774,
				"element": "H" 
			},
			{
				"x": -0.7425427318,
				"y": -1.9551819977,
				"z": 2.8687110458,
				"element": "H" 
			},
			{
				"x": 0.6914719723,
				"y": -1.922937829,
				"z": 0.865928956,
				"element": "H" 
			}
		],
		 "valence_orbital": [ 
			{
				"type": "occ",
				"energy": -0.27098,
				"method": "rhf"
			},
			{
				"type": "occ",
				"energy": -0.26302,
				"method": "rhf"
			},
			{
				"type": "occ",
				"energy": -0.25891,
				"method": "rhf"
			},
			{
				"type": "occ",
				"energy": -0.25485,
				"method": "rhf"
			},
			{
				"type": "occ",
				"energy": -0.24256,
				"method": "rhf"
			},
			{
				"type": "unocc",
				"energy": -0.00961,
				"method": "rhf"
			},
			{
				"type": "unocc",
				"energy": -0.00692,
				"method": "rhf"
			},
			{
				"type": "unocc",
				"energy": 0.01015,
				"method": "rhf"
			},
			{
				"type": "unocc",
				"energy": 0.05812,
				"method": "rhf"
			},
			{
				"type": "unocc",
				"energy": 0.06669,
				"method": "rhf"
			}
		],
		"cosmo_sigma_profile": { 
			"-0.025": 0.0,
			"-0.024": 0.0,
			"-0.023": 0.0,
			"-0.022": 0.0,
			"-0.021": 0.0,
			"-0.02": 0.0,
			"-0.019": 0.0,
			"-0.018": 0.0,
			"-0.017": 0.0,
			"-0.016": 0.0,
			"-0.015": 0.0,
			"-0.014": 0.0,
			"-0.013": 0.0,
			"-0.012": 0.0,
			"-0.011": 0.732204876035,
			"-0.01": 6.41396074228,
			"-0.009": 6.03974969967,
			"-0.008": 7.7371179881,
			"-0.007": 8.44529211942,
			"-0.006": 10.2743867102,
			"-0.005": 16.8477851526,
			"-0.004": 18.5554345457,
			"-0.003": 18.3494456026,
			"-0.002": 13.3163608878,
			"-0.001": 13.9004892601,
			"0.0": 11.9100392822,
			"0.001": 14.2443560687,
			"0.002": 14.5166216582,
			"0.003": 12.7782704788,
			"0.004": 12.2632728365,
			"0.005": 12.2431326157,
			"0.006": 8.97112252856,
			"0.007": 3.99119756364,
			"0.008": 3.53621705297,
			"0.009": 3.13701718267,
			"0.01": 2.21194167541,
			"0.011": 2.60735242923,
			"0.012": 2.88065797569,
			"0.013": 2.82569699621,
			"0.014": 2.35556041661,
			"0.015": 1.6836244175,
			"0.016": 1.64239796625,
			"0.017": 1.17326851506,
			"0.018": 0.318819695637,
			"0.019": 0.0,
			"0.02": 0.0,
			"0.021": 0.0,
			"0.022": 0.0,
			"0.023": 0.0,
			"0.024": 0.0,
			"0.025": 0.0
		}
	}
}
