{
	 "smiles": "CC1(C)C2CCC1(C)C(NC(=S)NC1=CC=CC=C1)C2NC(=S)NC1=CC=CC=C1", 
	 "Tm": 451.15, 
	 "num_atms": 60, 
	 "gaussian": { 
		 "optdone": 1, 
		 "sigma_profile": "yes", 
		 "theory": "DFT", 
		 "functional": "B3LYP", 
		 "basiset": "6-31G**", 
		 "properties": { 
			 "R2extent": 14086.9837, 
			 "electric_dipole_moment_norm": 4.29611600053, 
			 "electric_quadrupole_moment_norm": 27.093970769, 
			 "total_energy": -1948.04975698, 
			 "HOMO_LUMO_gap": 0.17369, 
			 "cosmo_polarized_energy": -24.97, 
			 "cosmo_cavitation_energy": 59.77, 
			 "cosmo_dispersion_energy": -38.63, 
			 "cosmo_repulsion_energy": 2.79, 
			 "cosmo_total_nonelectrostatic_energy": 23.94, 
			 "SMD_solvation_energy": 6.73 
		},
		"coords": [
			{
				"x": -2.8585186804,
				"y": 4.9610003247,
				"z": 0.4197060493,
				"element": "C" 
			},
			{
				"x": -2.3205177533,
				"y": 3.5173142216,
				"z": 0.3849360658,
				"element": "C" 
			},
			{
				"x": -3.5518512958,
				"y": 2.6077164239,
				"z": 0.1937627011,
				"element": "C" 
			},
			{
				"x": -1.1819168594,
				"y": 3.3004405867,
				"z": -0.6613282156,
				"element": "C" 
			},
			{
				"x": -0.0575726164,
				"y": 4.2235353989,
				"z": -0.1423113022,
				"element": "C" 
			},
			{
				"x": -0.2163175804,
				"y": 4.1347752373,
				"z": 1.4056364911,
				"element": "C" 
			},
			{
				"x": -1.3967881448,
				"y": 3.1421183885,
				"z": 1.6118904945,
				"element": "C" 
			},
			{
				"x": -2.0129528245,
				"y": 3.1852142139,
				"z": 3.005291577,
				"element": "C" 
			},
			{
				"x": -0.9208413022,
				"y": 1.7159675677,
				"z": 1.1885076411,
				"element": "C" 
			},
			{
				"x": 0.2886370208,
				"y": 1.2862271852,
				"z": 1.8746965534,
				"element": "N" 
			},
			{
				"x": 0.8988897571,
				"y": 0.063953387,
				"z": 1.7756890091,
				"element": "C" 
			},
			{
				"x": 2.5602883125,
				"y": -0.0487117317,
				"z": 2.1026645618,
				"element": "S" 
			},
			{
				"x": 0.1071662413,
				"y": -0.9691473955,
				"z": 1.3887522839,
				"element": "N" 
			},
			{
				"x": 0.452210788,
				"y": -2.3488890953,
				"z": 1.2540646393,
				"element": "C" 
			},
			{
				"x": 0.0468871463,
				"y": -3.0172255972,
				"z": 0.0938527289,
				"element": "C" 
			},
			{
				"x": 0.3005103238,
				"y": -4.3825467206,
				"z": -0.0406232729,
				"element": "C" 
			},
			{
				"x": 0.9613853672,
				"y": -5.0786245373,
				"z": 0.9721669429,
				"element": "C" 
			},
			{
				"x": 1.3638974556,
				"y": -4.4031643406,
				"z": 2.1268200603,
				"element": "C" 
			},
			{
				"x": 1.1056765383,
				"y": -3.0417376837,
				"z": 2.2787745321,
				"element": "C" 
			},
			{
				"x": -0.7881018965,
				"y": 1.8258356316,
				"z": -0.3969087677,
				"element": "C" 
			},
			{
				"x": 0.5057393386,
				"y": 1.4044118925,
				"z": -0.8921897051,
				"element": "N" 
			},
			{
				"x": 0.7080421384,
				"y": 0.3528063564,
				"z": -1.7518800041,
				"element": "C" 
			},
			{
				"x": -0.5069044777,
				"y": -0.2499190646,
				"z": -2.7529327492,
				"element": "S" 
			},
			{
				"x": 1.9863253328,
				"y": -0.1321718428,
				"z": -1.6699357475,
				"element": "N" 
			},
			{
				"x": 2.6386004089,
				"y": -1.0856189501,
				"z": -2.4926286158,
				"element": "C" 
			},
			{
				"x": 2.5008576844,
				"y": -1.0987439461,
				"z": -3.8861487012,
				"element": "C" 
			},
			{
				"x": 3.2224056321,
				"y": -2.0243496886,
				"z": -4.6381860784,
				"element": "C" 
			},
			{
				"x": 4.0925496841,
				"y": -2.9261500812,
				"z": -4.02145381,
				"element": "C" 
			},
			{
				"x": 4.2367524599,
				"y": -2.8991250945,
				"z": -2.6335957724,
				"element": "C" 
			},
			{
				"x": 3.5110856113,
				"y": -1.9873674081,
				"z": -1.8686734973,
				"element": "C" 
			},
			{
				"x": -3.576357403,
				"y": 5.085369226,
				"z": 1.2375844595,
				"element": "H" 
			},
			{
				"x": -2.0874578879,
				"y": 5.7233868991,
				"z": 0.5395334804,
				"element": "H" 
			},
			{
				"x": -3.390362128,
				"y": 5.1793201739,
				"z": -0.5126024459,
				"element": "H" 
			},
			{
				"x": -4.0505120125,
				"y": 2.8519458095,
				"z": -0.7500848496,
				"element": "H" 
			},
			{
				"x": -3.3348386683,
				"y": 1.5383223605,
				"z": 0.169803012,
				"element": "H" 
			},
			{
				"x": -4.2782323687,
				"y": 2.7750469717,
				"z": 0.9962974413,
				"element": "H" 
			},
			{
				"x": -1.4570411868,
				"y": 3.4744070787,
				"z": -1.7050927505,
				"element": "H" 
			},
			{
				"x": -0.1887172203,
				"y": 5.2474305052,
				"z": -0.5016260167,
				"element": "H" 
			},
			{
				"x": 0.9281065872,
				"y": 3.9039343122,
				"z": -0.4920938972,
				"element": "H" 
			},
			{
				"x": -0.4753863044,
				"y": 5.1031048631,
				"z": 1.8422706534,
				"element": "H" 
			},
			{
				"x": 0.7064299353,
				"y": 3.8354347014,
				"z": 1.9137434475,
				"element": "H" 
			},
			{
				"x": -2.3489904958,
				"y": 4.1959259688,
				"z": 3.2581574251,
				"element": "H" 
			},
			{
				"x": -1.2862557182,
				"y": 2.8781710508,
				"z": 3.7650724334,
				"element": "H" 
			},
			{
				"x": -2.8742933223,
				"y": 2.513047058,
				"z": 3.0852731367,
				"element": "H" 
			},
			{
				"x": -1.7166252389,
				"y": 1.0075323307,
				"z": 1.4444313408,
				"element": "H" 
			},
			{
				"x": 0.9469803425,
				"y": 2.0006550199,
				"z": 2.1510736522,
				"element": "H" 
			},
			{
				"x": -0.8150156977,
				"y": -0.7370646639,
				"z": 1.0451172017,
				"element": "H" 
			},
			{
				"x": -0.4377230219,
				"y": -2.4657248785,
				"z": -0.7078770157,
				"element": "H" 
			},
			{
				"x": -0.0098620682,
				"y": -4.894660743,
				"z": -0.9463035629,
				"element": "H" 
			},
			{
				"x": 1.1629234611,
				"y": -6.1401963176,
				"z": 0.8632509856,
				"element": "H" 
			},
			{
				"x": 1.8748347772,
				"y": -4.9389187317,
				"z": 2.9214607429,
				"element": "H" 
			},
			{
				"x": 1.4095571215,
				"y": -2.5166544321,
				"z": 3.1755729126,
				"element": "H" 
			},
			{
				"x": -1.5057677632,
				"y": 1.1690488732,
				"z": -0.8891146482,
				"element": "H" 
			},
			{
				"x": 1.314076278,
				"y": 1.6987278948,
				"z": -0.3587769413,
				"element": "H" 
			},
			{
				"x": 2.4569587993,
				"y": 0.0305765192,
				"z": -0.7818687868,
				"element": "H" 
			},
			{
				"x": 1.8338560778,
				"y": -0.3966700362,
				"z": -4.3692008002,
				"element": "H" 
			},
			{
				"x": 3.1077742544,
				"y": -2.0316879994,
				"z": -5.7183681751,
				"element": "H" 
			},
			{
				"x": 4.6532707458,
				"y": -3.6404137931,
				"z": -4.6169967789,
				"element": "H" 
			},
			{
				"x": 4.9095353642,
				"y": -3.5934879025,
				"z": -2.1387396407,
				"element": "H" 
			},
			{
				"x": 3.607910952,
				"y": -1.9760317563,
				"z": -0.7862121075,
				"element": "H" 
			}
		],
		 "valence_orbital": [ 
			{
				"type": "occ",
				"energy": -0.22914,
				"method": "rhf"
			},
			{
				"type": "occ",
				"energy": -0.22119,
				"method": "rhf"
			},
			{
				"type": "occ",
				"energy": -0.21087,
				"method": "rhf"
			},
			{
				"type": "occ",
				"energy": -0.20873,
				"method": "rhf"
			},
			{
				"type": "occ",
				"energy": -0.20322,
				"method": "rhf"
			},
			{
				"type": "unocc",
				"energy": -0.02953,
				"method": "rhf"
			},
			{
				"type": "unocc",
				"energy": -0.0219,
				"method": "rhf"
			},
			{
				"type": "unocc",
				"energy": -0.00129,
				"method": "rhf"
			},
			{
				"type": "unocc",
				"energy": 0.00679,
				"method": "rhf"
			},
			{
				"type": "unocc",
				"energy": 0.01443,
				"method": "rhf"
			}
		],
		"cosmo_sigma_profile": { 
			"-0.025": 0.0,
			"-0.024": 0.0,
			"-0.023": 0.0,
			"-0.022": 0.0,
			"-0.021": 0.0,
			"-0.02": 0.0,
			"-0.019": 0.000653044125445,
			"-0.018": 0.027030881873,
			"-0.017": 0.125752435877,
			"-0.016": 0.305868824195,
			"-0.015": 1.22871532026,
			"-0.014": 1.41005175778,
			"-0.013": 2.34926768502,
			"-0.012": 2.56749645054,
			"-0.011": 4.12226720508,
			"-0.01": 3.66749335061,
			"-0.009": 4.37642447696,
			"-0.008": 4.95143380415,
			"-0.007": 4.19040662597,
			"-0.006": 12.9944132843,
			"-0.005": 21.8954922598,
			"-0.004": 29.9689620462,
			"-0.003": 44.0545529887,
			"-0.002": 49.8005927204,
			"-0.001": 44.1876164528,
			"0.0": 41.2277175056,
			"0.001": 41.6182084989,
			"0.002": 25.408064798,
			"0.003": 24.0630812684,
			"0.004": 27.312371111,
			"0.005": 26.2326758898,
			"0.006": 14.7056319384,
			"0.007": 9.81224570421,
			"0.008": 8.50969796535,
			"0.009": 8.06968540962,
			"0.01": 7.9817497368,
			"0.011": 6.68615296485,
			"0.012": 2.23569025944,
			"0.013": 0.0,
			"0.014": 0.0,
			"0.015": 0.0,
			"0.016": 0.0,
			"0.017": 0.0,
			"0.018": 0.0,
			"0.019": 0.0,
			"0.02": 0.0,
			"0.021": 0.0,
			"0.022": 0.0,
			"0.023": 0.0,
			"0.024": 0.0,
			"0.025": 0.0
		}
	}
}
