{
	 "smiles": "C=CCCC1=CC=CC=C1", 
	 "Tm": 203.15, 
	 "num_atms": 22, 
	 "gaussian": { 
		 "optdone": 1, 
		 "sigma_profile": "yes", 
		 "theory": "DFT", 
		 "functional": "B3LYP", 
		 "basiset": "6-31G**", 
		 "properties": { 
			 "R2extent": 1874.2559, 
			 "electric_dipole_moment_norm": 0.528201533508, 
			 "electric_quadrupole_moment_norm": 3.97442123082, 
			 "total_energy": -388.277273427, 
			 "HOMO_LUMO_gap": 0.23681, 
			 "cosmo_polarized_energy": -4.5, 
			 "cosmo_cavitation_energy": 24.66, 
			 "cosmo_dispersion_energy": -17.62, 
			 "cosmo_repulsion_energy": 1.44, 
			 "cosmo_total_nonelectrostatic_energy": 8.47, 
			 "SMD_solvation_energy": 4.6 
		},
		"coords": [
			{
				"x": -0.8328890665,
				"y": -1.4545805752,
				"z": 1.2494318712,
				"element": "C" 
			},
			{
				"x": 0.3459838829,
				"y": -2.0768964334,
				"z": 1.2357497252,
				"element": "C" 
			},
			{
				"x": 1.7152809217,
				"y": -1.4528381266,
				"z": 1.1418301795,
				"element": "C" 
			},
			{
				"x": 1.7891221222,
				"y": 0.081338271,
				"z": 1.0257112142,
				"element": "C" 
			},
			{
				"x": 1.3266674733,
				"y": 0.6744132431,
				"z": -0.2941119494,
				"element": "C" 
			},
			{
				"x": 0.3770418211,
				"y": 1.7040481848,
				"z": -0.3251034103,
				"element": "C" 
			},
			{
				"x": -0.0268404659,
				"y": 2.2799387253,
				"z": -1.5313327686,
				"element": "C" 
			},
			{
				"x": 0.5174876934,
				"y": 1.8345571438,
				"z": -2.7359616629,
				"element": "C" 
			},
			{
				"x": 1.4707047438,
				"y": 0.8139135501,
				"z": -2.7211918527,
				"element": "C" 
			},
			{
				"x": 1.8711650322,
				"y": 0.2437871027,
				"z": -1.5128639473,
				"element": "C" 
			},
			{
				"x": -1.7597823929,
				"y": -2.0140156017,
				"z": 1.3356065303,
				"element": "H" 
			},
			{
				"x": -0.9258813495,
				"y": -0.3771913404,
				"z": 1.1619781704,
				"element": "H" 
			},
			{
				"x": 0.3565680148,
				"y": -3.1652786432,
				"z": 1.3129594805,
				"element": "H" 
			},
			{
				"x": 2.2863873318,
				"y": -1.7578154359,
				"z": 2.0313488798,
				"element": "H" 
			},
			{
				"x": 2.2509505402,
				"y": -1.9133906073,
				"z": 0.2993344003,
				"element": "H" 
			},
			{
				"x": 2.8352299706,
				"y": 0.3726582608,
				"z": 1.1906490312,
				"element": "H" 
			},
			{
				"x": 1.2192945625,
				"y": 0.5332917776,
				"z": 1.8456407829,
				"element": "H" 
			},
			{
				"x": -0.0500568553,
				"y": 2.0616181248,
				"z": 0.6092317851,
				"element": "H" 
			},
			{
				"x": -0.7668862804,
				"y": 3.0755458006,
				"z": -1.5278442338,
				"element": "H" 
			},
			{
				"x": 0.2051666264,
				"y": 2.278837301,
				"z": -3.6766847417,
				"element": "H" 
			},
			{
				"x": 1.9061882062,
				"y": 0.462824393,
				"z": -3.6528010731,
				"element": "H" 
			},
			{
				"x": 2.6211974674,
				"y": -0.5432651149,
				"z": -1.5196764105,
				"element": "H" 
			}
		],
		 "valence_orbital": [ 
			{
				"type": "occ",
				"energy": -0.32845,
				"method": "rhf"
			},
			{
				"type": "occ",
				"energy": -0.32549,
				"method": "rhf"
			},
			{
				"type": "occ",
				"energy": -0.24974,
				"method": "rhf"
			},
			{
				"type": "occ",
				"energy": -0.24431,
				"method": "rhf"
			},
			{
				"type": "occ",
				"energy": -0.23476,
				"method": "rhf"
			},
			{
				"type": "unocc",
				"energy": 0.00205,
				"method": "rhf"
			},
			{
				"type": "unocc",
				"energy": 0.0048,
				"method": "rhf"
			},
			{
				"type": "unocc",
				"energy": 0.02948,
				"method": "rhf"
			},
			{
				"type": "unocc",
				"energy": 0.09069,
				"method": "rhf"
			},
			{
				"type": "unocc",
				"energy": 0.10556,
				"method": "rhf"
			}
		],
		"cosmo_sigma_profile": { 
			"-0.025": 0.0,
			"-0.024": 0.0,
			"-0.023": 0.0,
			"-0.022": 0.0,
			"-0.021": 0.0,
			"-0.02": 0.0,
			"-0.019": 0.0,
			"-0.018": 0.0,
			"-0.017": 0.0,
			"-0.016": 0.0,
			"-0.015": 0.0,
			"-0.014": 0.0,
			"-0.013": 0.0,
			"-0.012": 0.0,
			"-0.011": 0.0,
			"-0.01": 0.0,
			"-0.009": 0.0,
			"-0.008": 0.0,
			"-0.007": 0.0,
			"-0.006": 1.4330068949,
			"-0.005": 11.8250666257,
			"-0.004": 21.2841586627,
			"-0.003": 25.4814503844,
			"-0.002": 24.5571733941,
			"-0.001": 19.4714698842,
			"0.0": 15.9231450094,
			"0.001": 12.7108686527,
			"0.002": 10.0935454809,
			"0.003": 9.84985935119,
			"0.004": 11.1404079184,
			"0.005": 10.1748005312,
			"0.006": 11.1264093486,
			"0.007": 8.30487592892,
			"0.008": 1.72510856466,
			"0.009": 0.0129655748917,
			"0.01": 0.0,
			"0.011": 0.0,
			"0.012": 0.0,
			"0.013": 0.0,
			"0.014": 0.0,
			"0.015": 0.0,
			"0.016": 0.0,
			"0.017": 0.0,
			"0.018": 0.0,
			"0.019": 0.0,
			"0.02": 0.0,
			"0.021": 0.0,
			"0.022": 0.0,
			"0.023": 0.0,
			"0.024": 0.0,
			"0.025": 0.0
		}
	}
}
