{
	 "smiles": "CC(O)CCC1=CC=C2CCC(C)NC2=C1", 
	 "Tm": 352.15, 
	 "num_atms": 37, 
	 "gaussian": { 
		 "optdone": 1, 
		 "sigma_profile": "yes", 
		 "theory": "DFT", 
		 "functional": "B3LYP", 
		 "basiset": "6-31G**", 
		 "properties": { 
			 "R2extent": 5027.1922, 
			 "electric_dipole_moment_norm": 2.48264262833, 
			 "electric_quadrupole_moment_norm": 6.60257422223, 
			 "total_energy": -676.142158107, 
			 "HOMO_LUMO_gap": 0.1946, 
			 "cosmo_polarized_energy": -10.53, 
			 "cosmo_cavitation_energy": 36.68, 
			 "cosmo_dispersion_energy": -25.77, 
			 "cosmo_repulsion_energy": 2.04, 
			 "cosmo_total_nonelectrostatic_energy": 12.95, 
			 "SMD_solvation_energy": 4.53 
		},
		"coords": [
			{
				"x": 0.323819824,
				"y": -1.691022669,
				"z": 3.6213808028,
				"element": "C" 
			},
			{
				"x": -0.9600570977,
				"y": -1.4414080079,
				"z": 4.4162149943,
				"element": "C" 
			},
			{
				"x": -0.9472774574,
				"y": -0.1464153986,
				"z": 5.0261640772,
				"element": "O" 
			},
			{
				"x": -2.261791018,
				"y": -1.5299002331,
				"z": 3.6066121739,
				"element": "C" 
			},
			{
				"x": -2.4809164178,
				"y": -0.4363426235,
				"z": 2.5378706643,
				"element": "C" 
			},
			{
				"x": -1.7228083429,
				"y": -0.5986316519,
				"z": 1.2331085027,
				"element": "C" 
			},
			{
				"x": -1.8806082985,
				"y": -1.7466266784,
				"z": 0.4403352198,
				"element": "C" 
			},
			{
				"x": -1.1953123397,
				"y": -1.857645273,
				"z": -0.7669532156,
				"element": "C" 
			},
			{
				"x": -0.3390337074,
				"y": -0.8555716461,
				"z": -1.2317757827,
				"element": "C" 
			},
			{
				"x": 0.4280495831,
				"y": -1.0058546049,
				"z": -2.5303725595,
				"element": "C" 
			},
			{
				"x": 0.9040587403,
				"y": 0.350368935,
				"z": -3.0706497163,
				"element": "C" 
			},
			{
				"x": 1.5663963343,
				"y": 1.1953814051,
				"z": -1.9692541266,
				"element": "C" 
			},
			{
				"x": 2.9005726053,
				"y": 0.607464924,
				"z": -1.4755211232,
				"element": "C" 
			},
			{
				"x": 0.5912404279,
				"y": 1.377150381,
				"z": -0.8953311097,
				"element": "N" 
			},
			{
				"x": -0.1888964321,
				"y": 0.3099545765,
				"z": -0.449749796,
				"element": "C" 
			},
			{
				"x": -0.8825508465,
				"y": 0.4147349176,
				"z": 0.7711383944,
				"element": "C" 
			},
			{
				"x": 0.3039026218,
				"y": -2.673020509,
				"z": 3.1375821827,
				"element": "H" 
			},
			{
				"x": 1.1936850699,
				"y": -1.6705071384,
				"z": 4.2907932611,
				"element": "H" 
			},
			{
				"x": 0.4641391805,
				"y": -0.9330991839,
				"z": 2.8480607739,
				"element": "H" 
			},
			{
				"x": -1.0264779725,
				"y": -2.2141534799,
				"z": 5.2022174742,
				"element": "H" 
			},
			{
				"x": -0.1174704581,
				"y": -0.0581886405,
				"z": 5.5118095442,
				"element": "H" 
			},
			{
				"x": -3.0852214455,
				"y": -1.462455244,
				"z": 4.3275390402,
				"element": "H" 
			},
			{
				"x": -2.3229693689,
				"y": -2.5271954419,
				"z": 3.1550238534,
				"element": "H" 
			},
			{
				"x": -2.2444680728,
				"y": 0.5331326876,
				"z": 2.9861956468,
				"element": "H" 
			},
			{
				"x": -3.5547893285,
				"y": -0.4165359666,
				"z": 2.3079906532,
				"element": "H" 
			},
			{
				"x": -2.5450690899,
				"y": -2.5447737434,
				"z": 0.7600100366,
				"element": "H" 
			},
			{
				"x": -1.3247211636,
				"y": -2.7512073528,
				"z": -1.3750618639,
				"element": "H" 
			},
			{
				"x": 1.2941685542,
				"y": -1.6660998447,
				"z": -2.3785804372,
				"element": "H" 
			},
			{
				"x": -0.1969270384,
				"y": -1.5057287125,
				"z": -3.2799963075,
				"element": "H" 
			},
			{
				"x": 0.0461960975,
				"y": 0.9109938096,
				"z": -3.4587706688,
				"element": "H" 
			},
			{
				"x": 1.6057391914,
				"y": 0.2099188513,
				"z": -3.8999282634,
				"element": "H" 
			},
			{
				"x": 1.7690383083,
				"y": 2.1917636143,
				"z": -2.3836072967,
				"element": "H" 
			},
			{
				"x": 2.7587511697,
				"y": -0.3761121635,
				"z": -1.0176941992,
				"element": "H" 
			},
			{
				"x": 3.613196513,
				"y": 0.5039278351,
				"z": -2.3018290023,
				"element": "H" 
			},
			{
				"x": 3.3547046153,
				"y": 1.2613315717,
				"z": -0.7227263172,
				"element": "H" 
			},
			{
				"x": 0.8681485422,
				"y": 2.0255430946,
				"z": -0.1707792418,
				"element": "H" 
			},
			{
				"x": -0.7627414824,
				"y": 1.3191296042,
				"z": 1.3655337319,
				"element": "H" 
			}
		],
		 "valence_orbital": [ 
			{
				"type": "occ",
				"energy": -0.30246,
				"method": "rhf"
			},
			{
				"type": "occ",
				"energy": -0.2772,
				"method": "rhf"
			},
			{
				"type": "occ",
				"energy": -0.25721,
				"method": "rhf"
			},
			{
				"type": "occ",
				"energy": -0.22091,
				"method": "rhf"
			},
			{
				"type": "occ",
				"energy": -0.18129,
				"method": "rhf"
			},
			{
				"type": "unocc",
				"energy": 0.01331,
				"method": "rhf"
			},
			{
				"type": "unocc",
				"energy": 0.02736,
				"method": "rhf"
			},
			{
				"type": "unocc",
				"energy": 0.07551,
				"method": "rhf"
			},
			{
				"type": "unocc",
				"energy": 0.07807,
				"method": "rhf"
			},
			{
				"type": "unocc",
				"energy": 0.11043,
				"method": "rhf"
			}
		],
		"cosmo_sigma_profile": { 
			"-0.025": 0.0,
			"-0.024": 0.0,
			"-0.023": 0.0,
			"-0.022": 0.0,
			"-0.021": 0.0,
			"-0.02": 0.0,
			"-0.019": 0.0,
			"-0.018": 0.0,
			"-0.017": 0.0,
			"-0.016": 0.0,
			"-0.015": 0.357434232314,
			"-0.014": 1.08310877134,
			"-0.013": 1.04825404314,
			"-0.012": 0.929544573395,
			"-0.011": 2.19312070523,
			"-0.01": 2.49852678421,
			"-0.009": 1.36502592629,
			"-0.008": 2.58084604491,
			"-0.007": 2.60393537294,
			"-0.006": 3.55470277866,
			"-0.005": 3.53039252065,
			"-0.004": 11.3343457645,
			"-0.003": 31.579454739,
			"-0.002": 43.7343143489,
			"-0.001": 39.1028070561,
			"0.0": 33.8920139465,
			"0.001": 27.5085949363,
			"0.002": 14.2354552911,
			"0.003": 10.2642430955,
			"0.004": 8.00682968252,
			"0.005": 7.67898826156,
			"0.006": 8.44323164427,
			"0.007": 8.86928868413,
			"0.008": 6.65708025765,
			"0.009": 2.67726432951,
			"0.01": 1.58113246468,
			"0.011": 2.07816750294,
			"0.012": 2.07442893769,
			"0.013": 1.27395699082,
			"0.014": 0.89168775433,
			"0.015": 0.626445739595,
			"0.016": 0.0038663634208,
			"0.017": 0.0,
			"0.018": 0.0,
			"0.019": 0.0,
			"0.02": 0.0,
			"0.021": 0.0,
			"0.022": 0.0,
			"0.023": 0.0,
			"0.024": 0.0,
			"0.025": 0.0
		}
	}
}
