{
	 "smiles": "CC(NC(C)=O)C1=CC=C(C=C1)C(=O)CCl", 
	 "Tm": 427.15, 
	 "num_atms": 30, 
	 "gaussian": { 
		 "optdone": 1, 
		 "sigma_profile": "yes", 
		 "theory": "DFT", 
		 "functional": "B3LYP", 
		 "basiset": "6-31G**", 
		 "properties": { 
			 "R2extent": 6285.5761, 
			 "electric_dipole_moment_norm": 5.02495923168, 
			 "electric_quadrupole_moment_norm": 17.4461199867, 
			 "total_energy": -1131.12840111, 
			 "HOMO_LUMO_gap": 0.18055, 
			 "cosmo_polarized_energy": -17.03, 
			 "cosmo_cavitation_energy": 35.25, 
			 "cosmo_dispersion_energy": -25.01, 
			 "cosmo_repulsion_energy": 1.99, 
			 "cosmo_total_nonelectrostatic_energy": 12.22, 
			 "SMD_solvation_energy": 6.57 
		},
		"coords": [
			{
				"x": -1.6961846272,
				"y": 1.1086316001,
				"z": -1.4535909574,
				"element": "C" 
			},
			{
				"x": -1.1757501449,
				"y": -0.3378321981,
				"z": -1.4372479504,
				"element": "C" 
			},
			{
				"x": -0.2596641711,
				"y": -0.6189627894,
				"z": -2.5602524307,
				"element": "N" 
			},
			{
				"x": 0.8300688061,
				"y": 0.1190702121,
				"z": -2.9306336492,
				"element": "C" 
			},
			{
				"x": 1.6043211972,
				"y": -0.4301953321,
				"z": -4.1226164717,
				"element": "C" 
			},
			{
				"x": 1.1812910413,
				"y": 1.152706615,
				"z": -2.3696502885,
				"element": "O" 
			},
			{
				"x": -0.6011859997,
				"y": -0.7466801761,
				"z": -0.0826515897,
				"element": "C" 
			},
			{
				"x": 0.5316843164,
				"y": -0.1186847715,
				"z": 0.4587614462,
				"element": "C" 
			},
			{
				"x": 1.0224432291,
				"y": -0.5016944786,
				"z": 1.7040596376,
				"element": "C" 
			},
			{
				"x": 0.3948088219,
				"y": -1.5196693703,
				"z": 2.4411433844,
				"element": "C" 
			},
			{
				"x": -0.7387546265,
				"y": -2.1454595764,
				"z": 1.9005533114,
				"element": "C" 
			},
			{
				"x": -1.2267008096,
				"y": -1.7611797448,
				"z": 0.6568677456,
				"element": "C" 
			},
			{
				"x": 0.8873883858,
				"y": -1.997159109,
				"z": 3.7638071867,
				"element": "C" 
			},
			{
				"x": 0.3679996027,
				"y": -2.9367249685,
				"z": 4.3456234664,
				"element": "O" 
			},
			{
				"x": 2.1048250915,
				"y": -1.3302787196,
				"z": 4.4130528829,
				"element": "C" 
			},
			{
				"x": 1.7233447685,
				"y": 0.3459523879,
				"z": 4.9974720099,
				"element": "Cl" 
			},
			{
				"x": -2.448862053,
				"y": 1.2316054606,
				"z": -0.6693393857,
				"element": "H" 
			},
			{
				"x": -0.8890406564,
				"y": 1.8217753711,
				"z": -1.2908656122,
				"element": "H" 
			},
			{
				"x": -2.1610933716,
				"y": 1.3270779,
				"z": -2.4199249022,
				"element": "H" 
			},
			{
				"x": -2.0347878075,
				"y": -0.9920064864,
				"z": -1.6240289269,
				"element": "H" 
			},
			{
				"x": -0.3908361074,
				"y": -1.5042737443,
				"z": -3.0251655081,
				"element": "H" 
			},
			{
				"x": 2.6170618037,
				"y": -0.6829837724,
				"z": -3.79573928,
				"element": "H" 
			},
			{
				"x": 1.1506375779,
				"y": -1.3101821459,
				"z": -4.586813862,
				"element": "H" 
			},
			{
				"x": 1.6927973988,
				"y": 0.3613013417,
				"z": -4.8710018958,
				"element": "H" 
			},
			{
				"x": 1.0272626664,
				"y": 0.6617358185,
				"z": -0.1082249217,
				"element": "H" 
			},
			{
				"x": 1.8908442564,
				"y": 0.0114036358,
				"z": 2.1032856301,
				"element": "H" 
			},
			{
				"x": -1.2166632044,
				"y": -2.9327668868,
				"z": 2.4737520779,
				"element": "H" 
			},
			{
				"x": -2.1078282839,
				"y": -2.2543694892,
				"z": 0.2526236779,
				"element": "H" 
			},
			{
				"x": 2.9475886658,
				"y": -1.2441289815,
				"z": 3.7246970421,
				"element": "H" 
			},
			{
				"x": 2.3841842337,
				"y": -1.9191276019,
				"z": 5.2845481331,
				"element": "H" 
			}
		],
		 "valence_orbital": [ 
			{
				"type": "occ",
				"energy": -0.26736,
				"method": "rhf"
			},
			{
				"type": "occ",
				"energy": -0.26232,
				"method": "rhf"
			},
			{
				"type": "occ",
				"energy": -0.25859,
				"method": "rhf"
			},
			{
				"type": "occ",
				"energy": -0.25371,
				"method": "rhf"
			},
			{
				"type": "occ",
				"energy": -0.2509,
				"method": "rhf"
			},
			{
				"type": "unocc",
				"energy": -0.07035,
				"method": "rhf"
			},
			{
				"type": "unocc",
				"energy": -0.01213,
				"method": "rhf"
			},
			{
				"type": "unocc",
				"energy": 0.002,
				"method": "rhf"
			},
			{
				"type": "unocc",
				"energy": 0.02068,
				"method": "rhf"
			},
			{
				"type": "unocc",
				"energy": 0.05323,
				"method": "rhf"
			}
		],
		"cosmo_sigma_profile": { 
			"-0.025": 0.0,
			"-0.024": 0.0,
			"-0.023": 0.0,
			"-0.022": 0.0,
			"-0.021": 0.0,
			"-0.02": 0.0,
			"-0.019": 0.0,
			"-0.018": 0.0,
			"-0.017": 0.0,
			"-0.016": 0.0,
			"-0.015": 0.0586786153574,
			"-0.014": 1.24134855697,
			"-0.013": 1.27255450023,
			"-0.012": 1.48167397095,
			"-0.011": 1.87225804764,
			"-0.01": 1.45613167399,
			"-0.009": 4.38313799722,
			"-0.008": 7.22398362397,
			"-0.007": 8.55223055674,
			"-0.006": 12.846883435,
			"-0.005": 15.5566354746,
			"-0.004": 17.8145294578,
			"-0.003": 17.7719426064,
			"-0.002": 20.1582252078,
			"-0.001": 23.3464119557,
			"0.0": 22.0004493505,
			"0.001": 20.6755306836,
			"0.002": 18.0321105551,
			"0.003": 21.9323800424,
			"0.004": 18.23376114,
			"0.005": 11.4384760392,
			"0.006": 6.23282899467,
			"0.007": 2.34087712443,
			"0.008": 4.04735969788,
			"0.009": 3.20244689808,
			"0.01": 3.59061983859,
			"0.011": 5.61104763049,
			"0.012": 2.78830101593,
			"0.013": 1.9030539726,
			"0.014": 2.31798520542,
			"0.015": 1.82831092181,
			"0.016": 0.117184989845,
			"0.017": 0.0,
			"0.018": 0.0,
			"0.019": 0.0,
			"0.02": 0.0,
			"0.021": 0.0,
			"0.022": 0.0,
			"0.023": 0.0,
			"0.024": 0.0,
			"0.025": 0.0
		}
	}
}
