{
	 "smiles": "OC(=O)CC1=CC2=C(CCC2)C=C1", 
	 "Tm": 361.15, 
	 "num_atms": 25, 
	 "gaussian": { 
		 "optdone": 1, 
		 "sigma_profile": "yes", 
		 "theory": "DFT", 
		 "functional": "B3LYP", 
		 "basiset": "6-31G**", 
		 "properties": { 
			 "R2extent": 2932.7037, 
			 "electric_dipole_moment_norm": 1.42780511976, 
			 "electric_quadrupole_moment_norm": 8.8884457089, 
			 "total_energy": -576.879961353, 
			 "HOMO_LUMO_gap": 0.22083, 
			 "cosmo_polarized_energy": -9.36, 
			 "cosmo_cavitation_energy": 28.2, 
			 "cosmo_dispersion_energy": -20.54, 
			 "cosmo_repulsion_energy": 1.66, 
			 "cosmo_total_nonelectrostatic_energy": 9.31, 
			 "SMD_solvation_energy": 5.18 
		},
		"coords": [
			{
				"x": 0.7952294754,
				"y": -0.8411446201,
				"z": -3.4725985482,
				"element": "O" 
			},
			{
				"x": 0.1001044257,
				"y": -1.5638326579,
				"z": -2.5626435995,
				"element": "C" 
			},
			{
				"x": 0.3811072538,
				"y": -2.7097559626,
				"z": -2.2856942351,
				"element": "O" 
			},
			{
				"x": -1.0183029047,
				"y": -0.7581606371,
				"z": -1.9280935407,
				"element": "C" 
			},
			{
				"x": -0.5608256181,
				"y": -0.1194891321,
				"z": -0.6236665097,
				"element": "C" 
			},
			{
				"x": -0.1831527866,
				"y": -0.9283397867,
				"z": 0.4598499184,
				"element": "C" 
			},
			{
				"x": 0.2382303598,
				"y": -0.3355220273,
				"z": 1.6459504919,
				"element": "C" 
			},
			{
				"x": 0.2856167751,
				"y": 1.0616586069,
				"z": 1.7697736047,
				"element": "C" 
			},
			{
				"x": 0.7533881774,
				"y": 1.454945561,
				"z": 3.1556839052,
				"element": "C" 
			},
			{
				"x": 1.3971704022,
				"y": 0.1502245898,
				"z": 3.6909858082,
				"element": "C" 
			},
			{
				"x": 0.6723637808,
				"y": -0.9951391427,
				"z": 2.9389448726,
				"element": "C" 
			},
			{
				"x": -0.0880914746,
				"y": 1.8698660768,
				"z": 0.6995738928,
				"element": "C" 
			},
			{
				"x": -0.5053644944,
				"y": 1.2736495767,
				"z": -0.4948517816,
				"element": "C" 
			},
			{
				"x": 1.5091782967,
				"y": -1.4211175514,
				"z": -3.7879544714,
				"element": "H" 
			},
			{
				"x": -1.8425465959,
				"y": -1.4534667617,
				"z": -1.7419845287,
				"element": "H" 
			},
			{
				"x": -1.3578478759,
				"y": 0.0096501705,
				"z": -2.6267629132,
				"element": "H" 
			},
			{
				"x": -0.2079108303,
				"y": -2.0099808628,
				"z": 0.3538368081,
				"element": "H" 
			},
			{
				"x": -0.1046492602,
				"y": 1.7510606955,
				"z": 3.7763534944,
				"element": "H" 
			},
			{
				"x": 1.4476285673,
				"y": 2.302126888,
				"z": 3.1544735933,
				"element": "H" 
			},
			{
				"x": 2.4603043278,
				"y": 0.1385892242,
				"z": 3.4255867186,
				"element": "H" 
			},
			{
				"x": 1.3299637766,
				"y": 0.0563943293,
				"z": 4.7785357571,
				"element": "H" 
			},
			{
				"x": -0.2069463374,
				"y": -1.3386129941,
				"z": 3.5026220472,
				"element": "H" 
			},
			{
				"x": 1.308936855,
				"y": -1.872571679,
				"z": 2.7838572449,
				"element": "H" 
			},
			{
				"x": -0.0512331377,
				"y": 2.9534069755,
				"z": 0.7805675915,
				"element": "H" 
			},
			{
				"x": -0.7883511578,
				"y": 1.8988611209,
				"z": -1.3377456209,
				"element": "H" 
			}
		],
		 "valence_orbital": [ 
			{
				"type": "occ",
				"energy": -0.32222,
				"method": "rhf"
			},
			{
				"type": "occ",
				"energy": -0.31608,
				"method": "rhf"
			},
			{
				"type": "occ",
				"energy": -0.27362,
				"method": "rhf"
			},
			{
				"type": "occ",
				"energy": -0.24182,
				"method": "rhf"
			},
			{
				"type": "occ",
				"energy": -0.22821,
				"method": "rhf"
			},
			{
				"type": "unocc",
				"energy": -0.00738,
				"method": "rhf"
			},
			{
				"type": "unocc",
				"energy": -0.00028,
				"method": "rhf"
			},
			{
				"type": "unocc",
				"energy": 0.02289,
				"method": "rhf"
			},
			{
				"type": "unocc",
				"energy": 0.08034,
				"method": "rhf"
			},
			{
				"type": "unocc",
				"energy": 0.10013,
				"method": "rhf"
			}
		],
		"cosmo_sigma_profile": { 
			"-0.025": 0.0,
			"-0.024": 0.0,
			"-0.023": 0.0,
			"-0.022": 0.0,
			"-0.021": 0.0,
			"-0.02": 0.0,
			"-0.019": 0.0,
			"-0.018": 0.742053484354,
			"-0.017": 0.952672802127,
			"-0.016": 0.733991387602,
			"-0.015": 0.746153203713,
			"-0.014": 0.596051887431,
			"-0.013": 0.913671312136,
			"-0.012": 0.73655388828,
			"-0.011": 0.57668376836,
			"-0.01": 1.07031881448,
			"-0.009": 0.658233561221,
			"-0.008": 0.524636685633,
			"-0.007": 1.09458169874,
			"-0.006": 5.34884398934,
			"-0.005": 8.55862417793,
			"-0.004": 14.9693280973,
			"-0.003": 24.6074529697,
			"-0.002": 26.8003422459,
			"-0.001": 25.9651848747,
			"0.0": 22.0044976131,
			"0.001": 15.8599355283,
			"0.002": 10.4210471633,
			"0.003": 9.66284579085,
			"0.004": 9.74485401689,
			"0.005": 9.94617031701,
			"0.006": 8.81998446155,
			"0.007": 3.65843042238,
			"0.008": 2.64902745345,
			"0.009": 3.18098697927,
			"0.01": 2.45203834869,
			"0.011": 2.93638879237,
			"0.012": 4.67027126215,
			"0.013": 0.556035128755,
			"0.014": 0.0,
			"0.015": 0.0,
			"0.016": 0.0,
			"0.017": 0.0,
			"0.018": 0.0,
			"0.019": 0.0,
			"0.02": 0.0,
			"0.021": 0.0,
			"0.022": 0.0,
			"0.023": 0.0,
			"0.024": 0.0,
			"0.025": 0.0
		}
	}
}
