{
	 "smiles": "O=C1C=COC=C1", 
	 "Tm": 305.65, 
	 "num_atms": 11, 
	 "gaussian": { 
		 "optdone": 1, 
		 "sigma_profile": "yes", 
		 "theory": "DFT", 
		 "functional": "B3LYP", 
		 "basiset": "6-31G**", 
		 "properties": { 
			 "R2extent": 1294.9317, 
			 "electric_dipole_moment_norm": 3.77695823779, 
			 "electric_quadrupole_moment_norm": 15.7549254854, 
			 "total_energy": -343.351457186, 
			 "HOMO_LUMO_gap": 0.19867, 
			 "cosmo_polarized_energy": -10.91, 
			 "cosmo_cavitation_energy": 15.49, 
			 "cosmo_dispersion_energy": -11.75, 
			 "cosmo_repulsion_energy": 0.99, 
			 "cosmo_total_nonelectrostatic_energy": 4.73, 
			 "SMD_solvation_energy": 4.91 
		},
		"coords": [
			{
				"x": -2.2661137295,
				"y": -2.6514325183,
				"z": 2.0478424718,
				"element": "O" 
			},
			{
				"x": -1.8685148868,
				"y": -1.6458328549,
				"z": 1.46432596,
				"element": "C" 
			},
			{
				"x": -2.5472052999,
				"y": -1.055910514,
				"z": 0.3005337294,
				"element": "C" 
			},
			{
				"x": -2.066511203,
				"y": 0.0481683294,
				"z": -0.3003561753,
				"element": "C" 
			},
			{
				"x": -0.9422505834,
				"y": 0.6967898027,
				"z": 0.1049763256,
				"element": "O" 
			},
			{
				"x": -0.272374234,
				"y": 0.1961203437,
				"z": 1.1771490472,
				"element": "C" 
			},
			{
				"x": -0.661797425,
				"y": -0.9004308698,
				"z": 1.8531955042,
				"element": "C" 
			},
			{
				"x": -3.4499189342,
				"y": -1.5274409453,
				"z": -0.0711180713,
				"element": "H" 
			},
			{
				"x": -2.5093024544,
				"y": 0.5390915177,
				"z": -1.158975554,
				"element": "H" 
			},
			{
				"x": 0.601605719,
				"y": 0.7956653079,
				"z": 1.4029831534,
				"element": "H" 
			},
			{
				"x": -0.0836169689,
				"y": -1.2497875991,
				"z": 2.7011436091,
				"element": "H" 
			}
		],
		 "valence_orbital": [ 
			{
				"type": "occ",
				"energy": -0.38368,
				"method": "rhf"
			},
			{
				"type": "occ",
				"energy": -0.3769,
				"method": "rhf"
			},
			{
				"type": "occ",
				"energy": -0.29925,
				"method": "rhf"
			},
			{
				"type": "occ",
				"energy": -0.25176,
				"method": "rhf"
			},
			{
				"type": "occ",
				"energy": -0.23836,
				"method": "rhf"
			},
			{
				"type": "unocc",
				"energy": -0.03969,
				"method": "rhf"
			},
			{
				"type": "unocc",
				"energy": -0.02127,
				"method": "rhf"
			},
			{
				"type": "unocc",
				"energy": 0.09391,
				"method": "rhf"
			},
			{
				"type": "unocc",
				"energy": 0.11235,
				"method": "rhf"
			},
			{
				"type": "unocc",
				"energy": 0.11632,
				"method": "rhf"
			}
		],
		"cosmo_sigma_profile": { 
			"-0.025": 0.0,
			"-0.024": 0.0,
			"-0.023": 0.0,
			"-0.022": 0.0,
			"-0.021": 0.0,
			"-0.02": 0.0,
			"-0.019": 0.0,
			"-0.018": 0.0,
			"-0.017": 0.0,
			"-0.016": 0.0,
			"-0.015": 0.0,
			"-0.014": 0.0,
			"-0.013": 0.0,
			"-0.012": 0.0,
			"-0.011": 0.254001841499,
			"-0.01": 4.37893409129,
			"-0.009": 3.50779687999,
			"-0.008": 6.04095501549,
			"-0.007": 7.60920619149,
			"-0.006": 6.3719849367,
			"-0.005": 5.25682352423,
			"-0.004": 4.7964526974,
			"-0.003": 6.37563161412,
			"-0.002": 9.89935875541,
			"-0.001": 11.1911648186,
			"0.0": 11.2102523834,
			"0.001": 11.5018655169,
			"0.002": 5.68514901875,
			"0.003": 2.51964705125,
			"0.004": 3.27827842311,
			"0.005": 2.87514047504,
			"0.006": 1.81192431777,
			"0.007": 1.2861964746,
			"0.008": 1.334744029,
			"0.009": 1.47353364359,
			"0.01": 1.48420198349,
			"0.011": 1.69228581003,
			"0.012": 2.12330298433,
			"0.013": 3.59845981446,
			"0.014": 5.27674975224,
			"0.015": 2.11969432632,
			"0.016": 0.00471067548265,
			"0.017": 0.0,
			"0.018": 0.0,
			"0.019": 0.0,
			"0.02": 0.0,
			"0.021": 0.0,
			"0.022": 0.0,
			"0.023": 0.0,
			"0.024": 0.0,
			"0.025": 0.0
		}
	}
}
