{
	 "smiles": "OC1=CC=CC(S)=C1", 
	 "Tm": 289.65, 
	 "num_atms": 14, 
	 "gaussian": { 
		 "optdone": 1, 
		 "sigma_profile": "yes", 
		 "theory": "DFT", 
		 "functional": "B3LYP", 
		 "basiset": "6-31G**", 
		 "properties": { 
			 "R2extent": 1459.9316, 
			 "electric_dipole_moment_norm": 1.62785476318, 
			 "electric_quadrupole_moment_norm": 10.8478825892, 
			 "total_energy": -705.656387758, 
			 "HOMO_LUMO_gap": 0.20835, 
			 "cosmo_polarized_energy": -10.45, 
			 "cosmo_cavitation_energy": 19.71, 
			 "cosmo_dispersion_energy": -15.33, 
			 "cosmo_repulsion_energy": 1.22, 
			 "cosmo_total_nonelectrostatic_energy": 5.6, 
			 "SMD_solvation_energy": 3.25 
		},
		"coords": [
			{
				"x": -2.3061087027,
				"y": 0.2757731092,
				"z": 1.0676305593,
				"element": "O" 
			},
			{
				"x": -0.9759755855,
				"y": -0.0339258723,
				"z": 1.067292659,
				"element": "C" 
			},
			{
				"x": -0.6012335761,
				"y": -1.2606773906,
				"z": 1.6249856814,
				"element": "C" 
			},
			{
				"x": 0.7460036138,
				"y": -1.6110755798,
				"z": 1.642728088,
				"element": "C" 
			},
			{
				"x": 1.7228158183,
				"y": -0.7647537059,
				"z": 1.1162337724,
				"element": "C" 
			},
			{
				"x": 1.3398030713,
				"y": 0.4615822288,
				"z": 0.5600998387,
				"element": "C" 
			},
			{
				"x": 2.6278292794,
				"y": 1.5123461457,
				"z": -0.0980432843,
				"element": "S" 
			},
			{
				"x": -0.0109383385,
				"y": 0.8280996093,
				"z": 0.5356963667,
				"element": "C" 
			},
			{
				"x": -2.4337380368,
				"y": 1.1415764625,
				"z": 0.658919942,
				"element": "H" 
			},
			{
				"x": -1.3672448333,
				"y": -1.9118780944,
				"z": 2.0310323389,
				"element": "H" 
			},
			{
				"x": 1.0433511668,
				"y": -2.5625696167,
				"z": 2.0741635322,
				"element": "H" 
			},
			{
				"x": 2.7684969032,
				"y": -1.05448706,
				"z": 1.1369278001,
				"element": "H" 
			},
			{
				"x": 1.8285813246,
				"y": 2.5065111511,
				"z": -0.5293401976,
				"element": "H" 
			},
			{
				"x": -0.3180421043,
				"y": 1.779578613,
				"z": 0.106772903,
				"element": "H" 
			}
		],
		 "valence_orbital": [ 
			{
				"type": "occ",
				"energy": -0.35287,
				"method": "rhf"
			},
			{
				"type": "occ",
				"energy": -0.33406,
				"method": "rhf"
			},
			{
				"type": "occ",
				"energy": -0.28897,
				"method": "rhf"
			},
			{
				"type": "occ",
				"energy": -0.23713,
				"method": "rhf"
			},
			{
				"type": "occ",
				"energy": -0.2143,
				"method": "rhf"
			},
			{
				"type": "unocc",
				"energy": -0.00595,
				"method": "rhf"
			},
			{
				"type": "unocc",
				"energy": 0.00873,
				"method": "rhf"
			},
			{
				"type": "unocc",
				"energy": 0.01293,
				"method": "rhf"
			},
			{
				"type": "unocc",
				"energy": 0.06375,
				"method": "rhf"
			},
			{
				"type": "unocc",
				"energy": 0.07078,
				"method": "rhf"
			}
		],
		"cosmo_sigma_profile": { 
			"-0.025": 0.0,
			"-0.024": 0.0,
			"-0.023": 0.0,
			"-0.022": 0.0,
			"-0.021": 0.0,
			"-0.02": 0.0,
			"-0.019": 0.0,
			"-0.018": 0.503664895016,
			"-0.017": 1.10528787385,
			"-0.016": 1.07557965337,
			"-0.015": 0.977076610535,
			"-0.014": 1.39268702457,
			"-0.013": 0.944511146188,
			"-0.012": 0.564703613959,
			"-0.011": 1.21716197016,
			"-0.01": 3.78754244616,
			"-0.009": 3.99956866843,
			"-0.008": 3.8025878824,
			"-0.007": 3.52822004511,
			"-0.006": 6.37213375659,
			"-0.005": 8.8531958659,
			"-0.004": 9.41409208736,
			"-0.003": 7.16203753262,
			"-0.002": 6.88651640991,
			"-0.001": 6.92365437773,
			"0.0": 5.22424820845,
			"0.001": 7.74979766515,
			"0.002": 9.44417655443,
			"0.003": 10.6823141703,
			"0.004": 17.2933700139,
			"0.005": 16.5309340301,
			"0.006": 9.00902132035,
			"0.007": 3.94804493535,
			"0.008": 3.91914023051,
			"0.009": 3.23353070378,
			"0.01": 1.498348927,
			"0.011": 2.06960384867,
			"0.012": 0.553592478101,
			"0.013": 0.0,
			"0.014": 0.0,
			"0.015": 0.0,
			"0.016": 0.0,
			"0.017": 0.0,
			"0.018": 0.0,
			"0.019": 0.0,
			"0.02": 0.0,
			"0.021": 0.0,
			"0.022": 0.0,
			"0.023": 0.0,
			"0.024": 0.0,
			"0.025": 0.0
		}
	}
}
