{
	 "smiles": "ClCC(=O)NC1=CC2=C(C=C1)C(=O)C1=C(C=CC=C1)C2=O", 
	 "Tm": 572.15, 
	 "num_atms": 31, 
	 "gaussian": { 
		 "optdone": 1, 
		 "sigma_profile": "yes", 
		 "theory": "DFT", 
		 "functional": "B3LYP", 
		 "basiset": "6-31G**", 
		 "properties": { 
			 "R2extent": 8882.3144, 
			 "electric_dipole_moment_norm": 4.53645591514, 
			 "electric_quadrupole_moment_norm": 21.8858085222, 
			 "total_energy": -1356.37174978, 
			 "HOMO_LUMO_gap": 0.13792, 
			 "cosmo_polarized_energy": -20.42, 
			 "cosmo_cavitation_energy": 37.99, 
			 "cosmo_dispersion_energy": -27.65, 
			 "cosmo_repulsion_energy": 2.06, 
			 "cosmo_total_nonelectrostatic_energy": 12.4, 
			 "SMD_solvation_energy": 7.3 
		},
		"coords": [
			{
				"x": 4.6318693257,
				"y": 2.8356771251,
				"z": 1.9209217392,
				"element": "Cl" 
			},
			{
				"x": 3.1242664555,
				"y": 1.8771319573,
				"z": 1.7994101688,
				"element": "C" 
			},
			{
				"x": 2.8135363024,
				"y": 1.1445734773,
				"z": 3.1061146339,
				"element": "C" 
			},
			{
				"x": 3.2741878569,
				"y": 1.470819691,
				"z": 4.1816427874,
				"element": "O" 
			},
			{
				"x": 1.9664644599,
				"y": 0.0424987033,
				"z": 3.0331137186,
				"element": "N" 
			},
			{
				"x": 1.3052347171,
				"y": -0.6052276966,
				"z": 1.9766542341,
				"element": "C" 
			},
			{
				"x": 0.8058766205,
				"y": 0.0614972407,
				"z": 0.8518917953,
				"element": "C" 
			},
			{
				"x": 0.1476864443,
				"y": -0.648979957,
				"z": -0.1545076607,
				"element": "C" 
			},
			{
				"x": -0.0515229067,
				"y": -2.0355856598,
				"z": -0.0391668916,
				"element": "C" 
			},
			{
				"x": 0.4222583683,
				"y": -2.6953261721,
				"z": 1.1031592398,
				"element": "C" 
			},
			{
				"x": 1.0926286896,
				"y": -1.9955440115,
				"z": 2.0933936783,
				"element": "C" 
			},
			{
				"x": -0.7581264819,
				"y": -2.8106956612,
				"z": -1.093194654,
				"element": "C" 
			},
			{
				"x": -0.9278524503,
				"y": -4.0213856608,
				"z": -0.9877419333,
				"element": "O" 
			},
			{
				"x": -1.2542411172,
				"y": -2.056835466,
				"z": -2.2818286347,
				"element": "C" 
			},
			{
				"x": -1.0657156798,
				"y": -0.6645597622,
				"z": -2.3976389457,
				"element": "C" 
			},
			{
				"x": -1.5477138576,
				"y": 0.0110343083,
				"z": -3.5251978276,
				"element": "C" 
			},
			{
				"x": -2.2106745282,
				"y": -0.6899606277,
				"z": -4.5293028041,
				"element": "C" 
			},
			{
				"x": -2.3976481378,
				"y": -2.0725857504,
				"z": -4.4144510008,
				"element": "C" 
			},
			{
				"x": -1.9218537347,
				"y": -2.7525905789,
				"z": -3.2958170318,
				"element": "C" 
			},
			{
				"x": -0.358606763,
				"y": 0.1096104598,
				"z": -1.339970379,
				"element": "C" 
			},
			{
				"x": -0.1914623312,
				"y": 1.3210781988,
				"z": -1.4314013793,
				"element": "O" 
			},
			{
				"x": 3.2341158235,
				"y": 1.1826047369,
				"z": 0.9659241004,
				"element": "H" 
			},
			{
				"x": 2.3175143714,
				"y": 2.575782111,
				"z": 1.5656168608,
				"element": "H" 
			},
			{
				"x": 1.9226306428,
				"y": -0.4205753699,
				"z": 3.9338028067,
				"element": "H" 
			},
			{
				"x": 0.8814514292,
				"y": 1.1342645062,
				"z": 0.7321367399,
				"element": "H" 
			},
			{
				"x": 0.2602561643,
				"y": -3.7647905116,
				"z": 1.1848427688,
				"element": "H" 
			},
			{
				"x": 1.472121155,
				"y": -2.5187498701,
				"z": 2.9669967644,
				"element": "H" 
			},
			{
				"x": -1.3896580793,
				"y": 1.0822631534,
				"z": -3.5899570697,
				"element": "H" 
			},
			{
				"x": -2.5827412068,
				"y": -0.1624798107,
				"z": -5.4025751201,
				"element": "H" 
			},
			{
				"x": -2.9150435376,
				"y": -2.6169664512,
				"z": -5.1988942651,
				"element": "H" 
			},
			{
				"x": -2.0545380145,
				"y": -3.8231966515,
				"z": -3.182276439,
				"element": "H" 
			}
		],
		 "valence_orbital": [ 
			{
				"type": "occ",
				"energy": -0.27974,
				"method": "rhf"
			},
			{
				"type": "occ",
				"energy": -0.27889,
				"method": "rhf"
			},
			{
				"type": "occ",
				"energy": -0.27518,
				"method": "rhf"
			},
			{
				"type": "occ",
				"energy": -0.26713,
				"method": "rhf"
			},
			{
				"type": "occ",
				"energy": -0.25108,
				"method": "rhf"
			},
			{
				"type": "unocc",
				"energy": -0.11316,
				"method": "rhf"
			},
			{
				"type": "unocc",
				"energy": -0.06926,
				"method": "rhf"
			},
			{
				"type": "unocc",
				"energy": -0.03942,
				"method": "rhf"
			},
			{
				"type": "unocc",
				"energy": -0.02509,
				"method": "rhf"
			},
			{
				"type": "unocc",
				"energy": -0.00435,
				"method": "rhf"
			}
		],
		"cosmo_sigma_profile": { 
			"-0.025": 0.0,
			"-0.024": 0.0,
			"-0.023": 0.0,
			"-0.022": 0.0,
			"-0.021": 0.0,
			"-0.02": 0.0,
			"-0.019": 0.0,
			"-0.018": 0.0,
			"-0.017": 0.0,
			"-0.016": 0.242874387969,
			"-0.015": 1.41654326055,
			"-0.014": 1.30323876269,
			"-0.013": 0.929887101171,
			"-0.012": 2.14128588674,
			"-0.011": 3.05833568715,
			"-0.01": 3.51927093004,
			"-0.009": 5.32098972356,
			"-0.008": 6.48745097578,
			"-0.007": 12.8080812356,
			"-0.006": 17.2881602179,
			"-0.005": 17.0456911808,
			"-0.004": 15.2904550532,
			"-0.003": 16.4849700619,
			"-0.002": 17.1929800405,
			"-0.001": 21.0775696314,
			"0.0": 28.0448552261,
			"0.001": 30.7932623923,
			"0.002": 24.5460873354,
			"0.003": 9.9854362607,
			"0.004": 9.75707481117,
			"0.005": 11.2907068389,
			"0.006": 9.0932903091,
			"0.007": 5.49582317382,
			"0.008": 4.25720472943,
			"0.009": 6.28782628932,
			"0.01": 7.08746514413,
			"0.011": 11.1222474978,
			"0.012": 6.74586481762,
			"0.013": 2.02905885287,
			"0.014": 0.331703873252,
			"0.015": 0.0,
			"0.016": 0.0,
			"0.017": 0.0,
			"0.018": 0.0,
			"0.019": 0.0,
			"0.02": 0.0,
			"0.021": 0.0,
			"0.022": 0.0,
			"0.023": 0.0,
			"0.024": 0.0,
			"0.0": 0.0
		}
	}
}
