{
	 "smiles": "[O-][N+](=O)C1=CC=C2C(=O)CC2=C1", 
	 "Tm": 349.15, 
	 "num_atms": 17, 
	 "gaussian": { 
		 "optdone": 1, 
		 "sigma_profile": "yes", 
		 "theory": "DFT", 
		 "functional": "B3LYP", 
		 "basiset": "6-31G**", 
		 "properties": { 
			 "R2extent": 3036.3765, 
			 "electric_dipole_moment_norm": 1.39962741113, 
			 "electric_quadrupole_moment_norm": 20.9146041414, 
			 "total_energy": -588.1411255, 
			 "HOMO_LUMO_gap": 0.15795, 
			 "cosmo_polarized_energy": -10.5, 
			 "cosmo_cavitation_energy": 22.86, 
			 "cosmo_dispersion_energy": -16.86, 
			 "cosmo_repulsion_energy": 1.35, 
			 "cosmo_total_nonelectrostatic_energy": 7.35, 
			 "SMD_solvation_energy": 6.68 
		},
		"coords": [
			{
				"x": 1.9173957056,
				"y": -3.8015264229,
				"z": -2.6358524917,
				"element": "O" 
			},
			{
				"x": 1.7681740618,
				"y": -2.5882306657,
				"z": -2.5058315839,
				"element": "N" 
			},
			{
				"x": 2.2983225579,
				"y": -1.7345545807,
				"z": -3.2143166134,
				"element": "O" 
			},
			{
				"x": 0.8845935729,
				"y": -2.11541824,
				"z": -1.4164567912,
				"element": "C" 
			},
			{
				"x": 0.2757118885,
				"y": -3.0826506718,
				"z": -0.6035300884,
				"element": "C" 
			},
			{
				"x": -0.5675138498,
				"y": -2.6899978384,
				"z": 0.4389363262,
				"element": "C" 
			},
			{
				"x": -0.7445031993,
				"y": -1.3177894539,
				"z": 0.5956498094,
				"element": "C" 
			},
			{
				"x": -1.4202579974,
				"y": -0.2335226314,
				"z": 1.3939146358,
				"element": "C" 
			},
			{
				"x": -2.1684475844,
				"y": -0.183084558,
				"z": 2.3331142417,
				"element": "O" 
			},
			{
				"x": -0.7326016009,
				"y": 0.8459195581,
				"z": 0.4764830861,
				"element": "C" 
			},
			{
				"x": -0.1269263809,
				"y": -0.3651054819,
				"z": -0.2275319474,
				"element": "C" 
			},
			{
				"x": 0.7124817765,
				"y": -0.7331870686,
				"z": -1.2663467585,
				"element": "C" 
			},
			{
				"x": 0.4787474831,
				"y": -4.1262784438,
				"z": -0.8088758439,
				"element": "H" 
			},
			{
				"x": -1.0474362077,
				"y": -3.4232797149,
				"z": 1.0782799997,
				"element": "H" 
			},
			{
				"x": -0.0344166999,
				"y": 1.5070318296,
				"z": 1.000413945,
				"element": "H" 
			},
			{
				"x": -1.4305318977,
				"y": 1.453640297,
				"z": -0.1088391996,
				"element": "H" 
			},
			{
				"x": 1.2166083717,
				"y": -0.0458659127,
				"z": -1.9339107258,
				"element": "H" 
			}
		],
		 "valence_orbital": [ 
			{
				"type": "occ",
				"energy": -0.31923,
				"method": "rhf"
			},
			{
				"type": "occ",
				"energy": -0.30325,
				"method": "rhf"
			},
			{
				"type": "occ",
				"energy": -0.29804,
				"method": "rhf"
			},
			{
				"type": "occ",
				"energy": -0.28783,
				"method": "rhf"
			},
			{
				"type": "occ",
				"energy": -0.27031,
				"method": "rhf"
			},
			{
				"type": "unocc",
				"energy": -0.11236,
				"method": "rhf"
			},
			{
				"type": "unocc",
				"energy": -0.05794,
				"method": "rhf"
			},
			{
				"type": "unocc",
				"energy": -0.03589,
				"method": "rhf"
			},
			{
				"type": "unocc",
				"energy": 0.03074,
				"method": "rhf"
			},
			{
				"type": "unocc",
				"energy": 0.07513,
				"method": "rhf"
			}
		],
		"cosmo_sigma_profile": { 
			"-0.025": 0.0,
			"-0.024": 0.0,
			"-0.023": 0.0,
			"-0.022": 0.0,
			"-0.021": 0.0,
			"-0.02": 0.0,
			"-0.019": 0.0,
			"-0.018": 0.0,
			"-0.017": 0.0,
			"-0.016": 0.0,
			"-0.015": 0.0,
			"-0.014": 0.0,
			"-0.013": 0.0,
			"-0.012": 0.0,
			"-0.011": 0.0,
			"-0.01": 0.0,
			"-0.009": 0.986813557612,
			"-0.008": 4.92553754893,
			"-0.007": 10.6381924868,
			"-0.006": 13.5527199523,
			"-0.005": 12.1810854661,
			"-0.004": 13.0100100649,
			"-0.003": 14.8569381724,
			"-0.002": 16.1069291278,
			"-0.001": 17.4976762859,
			"0.0": 15.5853074697,
			"0.001": 7.0403420306,
			"0.002": 4.50754552564,
			"0.003": 2.86270672598,
			"0.004": 4.33404690802,
			"0.005": 4.49943624633,
			"0.006": 6.40396288847,
			"0.007": 11.2390140664,
			"0.008": 7.35526446596,
			"0.009": 6.69244311153,
			"0.01": 6.03461115458,
			"0.011": 3.74438444085,
			"0.012": 0.707885351174,
			"0.013": 0.0,
			"0.014": 0.0,
			"0.015": 0.0,
			"0.016": 0.0,
			"0.017": 0.0,
			"0.018": 0.0,
			"0.019": 0.0,
			"0.02": 0.0,
			"0.021": 0.0,
			"0.022": 0.0,
			"0.023": 0.0,
			"0.024": 0.0,
			"0.025": 0.0
		}
	}
}
