{
	 "smiles": "OC1=CC=CC=C1N1CCNCC1", 
	 "Tm": 398.15, 
	 "num_atms": 27, 
	 "gaussian": { 
		 "optdone": 1, 
		 "sigma_profile": "yes", 
		 "theory": "DFT", 
		 "functional": "B3LYP", 
		 "basiset": "6-31G**", 
		 "properties": { 
			 "R2extent": 2748.5846, 
			 "electric_dipole_moment_norm": 2.31884065429, 
			 "electric_quadrupole_moment_norm": 8.16656113796, 
			 "total_energy": -574.192076332, 
			 "HOMO_LUMO_gap": 0.18931, 
			 "cosmo_polarized_energy": -10.75, 
			 "cosmo_cavitation_energy": 28.11, 
			 "cosmo_dispersion_energy": -20.97, 
			 "cosmo_repulsion_energy": 1.66, 
			 "cosmo_total_nonelectrostatic_energy": 8.8, 
			 "SMD_solvation_energy": 1.32 
		},
		"coords": [
			{
				"x": -1.7042492596,
				"y": -0.7348645873,
				"z": 0.3567124424,
				"element": "O" 
			},
			{
				"x": -1.7078022227,
				"y": 0.0377372439,
				"z": -0.7783954768,
				"element": "C" 
			},
			{
				"x": -2.712361721,
				"y": -0.090008658,
				"z": -1.7417428418,
				"element": "C" 
			},
			{
				"x": -2.6763128213,
				"y": 0.6680957594,
				"z": -2.9117083808,
				"element": "C" 
			},
			{
				"x": -1.6345912735,
				"y": 1.5727844836,
				"z": -3.1154043129,
				"element": "C" 
			},
			{
				"x": -0.6535094119,
				"y": 1.7218189895,
				"z": -2.1357731804,
				"element": "C" 
			},
			{
				"x": -0.6591027633,
				"y": 0.9708857347,
				"z": -0.9506322953,
				"element": "C" 
			},
			{
				"x": 0.3904268562,
				"y": 1.1538787133,
				"z": -0.017921502,
				"element": "N" 
			},
			{
				"x": 1.6829972109,
				"y": 0.5496428351,
				"z": -0.3603622596,
				"element": "C" 
			},
			{
				"x": 2.6770580469,
				"y": 0.8259547969,
				"z": 0.7720983228,
				"element": "C" 
			},
			{
				"x": 2.2663039691,
				"y": 0.2645942827,
				"z": 2.0679431336,
				"element": "N" 
			},
			{
				"x": 0.8024582048,
				"y": 0.1715145341,
				"z": 2.2367112133,
				"element": "C" 
			},
			{
				"x": 0.1018355346,
				"y": 1.258392515,
				"z": 1.4197337917,
				"element": "C" 
			},
			{
				"x": -2.4772818241,
				"y": -1.313612098,
				"z": 0.3389516904,
				"element": "H" 
			},
			{
				"x": -3.5149715212,
				"y": -0.8082522028,
				"z": -1.5800435234,
				"element": "H" 
			},
			{
				"x": -3.4595449264,
				"y": 0.5485557842,
				"z": -3.6543035525,
				"element": "H" 
			},
			{
				"x": -1.5961196584,
				"y": 2.1734429995,
				"z": -4.019013998,
				"element": "H" 
			},
			{
				"x": 0.1458039332,
				"y": 2.4460015535,
				"z": -2.2639011123,
				"element": "H" 
			},
			{
				"x": 2.0536682026,
				"y": 0.9785528583,
				"z": -1.3003754412,
				"element": "H" 
			},
			{
				"x": 1.6003224895,
				"y": -0.5416978897,
				"z": -0.5173013031,
				"element": "H" 
			},
			{
				"x": 3.6605523963,
				"y": 0.4235059079,
				"z": 0.5092043856,
				"element": "H" 
			},
			{
				"x": 2.7978334363,
				"y": 1.9138437883,
				"z": 0.8659347485,
				"element": "H" 
			},
			{
				"x": 2.6712216418,
				"y": -0.6592679661,
				"z": 2.1765635725,
				"element": "H" 
			},
			{
				"x": 0.3988999977,
				"y": -0.8007011667,
				"z": 1.9186920299,
				"element": "H" 
			},
			{
				"x": 0.5504290431,
				"y": 0.298886866,
				"z": 3.2984324651,
				"element": "H" 
			},
			{
				"x": 0.4232498939,
				"y": 2.24437025,
				"z": 1.7888168305,
				"element": "H" 
			},
			{
				"x": -0.9750134535,
				"y": 1.1912446726,
				"z": 1.5795845538,
				"element": "H" 
			}
		],
		 "valence_orbital": [ 
			{
				"type": "occ",
				"energy": -0.32173,
				"method": "rhf"
			},
			{
				"type": "occ",
				"energy": -0.25079,
				"method": "rhf"
			},
			{
				"type": "occ",
				"energy": -0.2227,
				"method": "rhf"
			},
			{
				"type": "occ",
				"energy": -0.20512,
				"method": "rhf"
			},
			{
				"type": "occ",
				"energy": -0.18585,
				"method": "rhf"
			},
			{
				"type": "unocc",
				"energy": 0.00346,
				"method": "rhf"
			},
			{
				"type": "unocc",
				"energy": 0.01753,
				"method": "rhf"
			},
			{
				"type": "unocc",
				"energy": 0.06477,
				"method": "rhf"
			},
			{
				"type": "unocc",
				"energy": 0.08755,
				"method": "rhf"
			},
			{
				"type": "unocc",
				"energy": 0.09666,
				"method": "rhf"
			}
		],
		"cosmo_sigma_profile": { 
			"-0.025": 0.0,
			"-0.024": 0.0,
			"-0.023": 0.0,
			"-0.022": 0.0,
			"-0.021": 0.0,
			"-0.02": 0.0,
			"-0.019": 0.0,
			"-0.018": 0.19143429925,
			"-0.017": 1.04581017435,
			"-0.016": 0.918403881203,
			"-0.015": 0.999522619673,
			"-0.014": 1.47709078688,
			"-0.013": 0.45379793805,
			"-0.012": 0.998145928087,
			"-0.011": 0.566331449677,
			"-0.01": 1.90407715486,
			"-0.009": 2.89863213302,
			"-0.008": 2.34019746243,
			"-0.007": 2.38938395275,
			"-0.006": 3.63631267854,
			"-0.005": 9.28658703134,
			"-0.004": 12.3472329226,
			"-0.003": 18.4401364886,
			"-0.002": 25.4241667962,
			"-0.001": 25.208292577,
			"0.0": 18.5932656938,
			"0.001": 14.286199292,
			"0.002": 11.7952646787,
			"0.003": 10.4224344076,
			"0.004": 11.4189131144,
			"0.005": 12.9199829905,
			"0.006": 13.2428379442,
			"0.007": 6.70728237652,
			"0.008": 1.92667349655,
			"0.009": 1.56571618275,
			"0.01": 1.57219203043,
			"0.011": 0.846157231521,
			"0.012": 0.378477665443,
			"0.013": 0.825358023991,
			"0.014": 0.283474269178,
			"0.015": 0.437816781938,
			"0.016": 0.659466011022,
			"0.017": 0.800173090849,
			"0.018": 0.44717066631,
			"0.019": 0.316739502851,
			"0.02": 0.0,
			"0.021": 0.0,
			"0.022": 0.0,
			"0.023": 0.0,
			"0.024": 0.0,
			"0.025": 0.0
		}
	}
}
