{
	 "smiles": "CN1C(C(CC1=O)C(N)=O)C1=CC(Cl)=CC=C1", 
	 "Tm": 462.15, 
	 "num_atms": 30, 
	 "gaussian": { 
		 "optdone": 1, 
		 "sigma_profile": "yes", 
		 "theory": "DFT", 
		 "functional": "B3LYP", 
		 "basiset": "6-31G**", 
		 "properties": { 
			 "R2extent": 5242.2079, 
			 "electric_dipole_moment_norm": 2.41029682197, 
			 "electric_quadrupole_moment_norm": 19.1855871247, 
			 "total_energy": -1185.2911912, 
			 "HOMO_LUMO_gap": 0.22427, 
			 "cosmo_polarized_energy": -19.28, 
			 "cosmo_cavitation_energy": 34.6, 
			 "cosmo_dispersion_energy": -23.96, 
			 "cosmo_repulsion_energy": 1.9, 
			 "cosmo_total_nonelectrostatic_energy": 12.53, 
			 "SMD_solvation_energy": 6.65 
		},
		"coords": [
			{
				"x": 0.2741807429,
				"y": -1.7565408995,
				"z": -2.6501799335,
				"element": "C" 
			},
			{
				"x": 0.3610108252,
				"y": -0.7547316821,
				"z": -1.6057263722,
				"element": "N" 
			},
			{
				"x": -0.6926068578,
				"y": -0.553611826,
				"z": -0.6168165182,
				"element": "C" 
			},
			{
				"x": -0.2960390728,
				"y": 0.8507560791,
				"z": -0.0391924594,
				"element": "C" 
			},
			{
				"x": 1.2325831632,
				"y": 0.8652805108,
				"z": -0.157676037,
				"element": "C" 
			},
			{
				"x": 1.4955719039,
				"y": -0.0083644351,
				"z": -1.3898331341,
				"element": "C" 
			},
			{
				"x": 2.5188103821,
				"y": -0.0534962788,
				"z": -2.0515597089,
				"element": "O" 
			},
			{
				"x": -0.989344225,
				"y": 1.1805530164,
				"z": 1.2799473422,
				"element": "C" 
			},
			{
				"x": -0.1957735752,
				"y": 1.5372692517,
				"z": 2.3268448814,
				"element": "N" 
			},
			{
				"x": -2.2113123822,
				"y": 1.1466339124,
				"z": 1.362136494,
				"element": "O" 
			},
			{
				"x": -0.7826414767,
				"y": -1.6825127422,
				"z": 0.4104539804,
				"element": "C" 
			},
			{
				"x": 0.3387840996,
				"y": -2.4524360304,
				"z": 0.7431079064,
				"element": "C" 
			},
			{
				"x": 0.2234391417,
				"y": -3.4637767096,
				"z": 1.6961690582,
				"element": "C" 
			},
			{
				"x": 1.6429097712,
				"y": -4.4229767328,
				"z": 2.1015191419,
				"element": "Cl" 
			},
			{
				"x": -0.9876850436,
				"y": -3.7354065867,
				"z": 2.3286400434,
				"element": "C" 
			},
			{
				"x": -2.1028449731,
				"y": -2.9671572364,
				"z": 1.9896079603,
				"element": "C" 
			},
			{
				"x": -2.0060027961,
				"y": -1.9525183728,
				"z": 1.0387701786,
				"element": "C" 
			},
			{
				"x": -0.5765898829,
				"y": -1.5548926154,
				"z": -3.3114327314,
				"element": "H" 
			},
			{
				"x": 0.1587414407,
				"y": -2.7614709425,
				"z": -2.2283468735,
				"element": "H" 
			},
			{
				"x": 1.2000418728,
				"y": -1.7102326739,
				"z": -3.2256604254,
				"element": "H" 
			},
			{
				"x": -1.6643448198,
				"y": -0.4726564961,
				"z": -1.1151132328,
				"element": "H" 
			},
			{
				"x": -0.6958028266,
				"y": 1.58395641,
				"z": -0.7498326996,
				"element": "H" 
			},
			{
				"x": 1.6679537219,
				"y": 1.8569798287,
				"z": -0.2962904183,
				"element": "H" 
			},
			{
				"x": 1.7296359296,
				"y": 0.3878933384,
				"z": 0.6967302768,
				"element": "H" 
			},
			{
				"x": -0.6455502918,
				"y": 1.7676521906,
				"z": 3.200174808,
				"element": "H" 
			},
			{
				"x": 0.8077841006,
				"y": 1.5753120391,
				"z": 2.2691871779,
				"element": "H" 
			},
			{
				"x": 1.2925617774,
				"y": -2.2837394233,
				"z": 0.2555689762,
				"element": "H" 
			},
			{
				"x": -1.0545078654,
				"y": -4.5303203421,
				"z": 3.0629662467,
				"element": "H" 
			},
			{
				"x": -3.0551852369,
				"y": -3.16682295,
				"z": 2.4717673791,
				"element": "H" 
			},
			{
				"x": -2.8727775468,
				"y": -1.3464216015,
				"z": 0.7982686926,
				"element": "H" 
			}
		],
		 "valence_orbital": [ 
			{
				"type": "occ",
				"energy": -0.26776,
				"method": "rhf"
			},
			{
				"type": "occ",
				"energy": -0.26443,
				"method": "rhf"
			},
			{
				"type": "occ",
				"energy": -0.25143,
				"method": "rhf"
			},
			{
				"type": "occ",
				"energy": -0.24676,
				"method": "rhf"
			},
			{
				"type": "occ",
				"energy": -0.24595,
				"method": "rhf"
			},
			{
				"type": "unocc",
				"energy": -0.02168,
				"method": "rhf"
			},
			{
				"type": "unocc",
				"energy": -0.0175,
				"method": "rhf"
			},
			{
				"type": "unocc",
				"energy": 0.01144,
				"method": "rhf"
			},
			{
				"type": "unocc",
				"energy": 0.02398,
				"method": "rhf"
			},
			{
				"type": "unocc",
				"energy": 0.02786,
				"method": "rhf"
			}
		],
		"cosmo_sigma_profile": { 
			"-0.025": 0.0,
			"-0.024": 0.0,
			"-0.023": 0.0,
			"-0.022": 0.0,
			"-0.021": 0.0,
			"-0.02": 0.0,
			"-0.019": 0.0,
			"-0.018": 0.0,
			"-0.017": 0.0,
			"-0.016": 0.0,
			"-0.015": 0.39456170368,
			"-0.014": 2.14065774687,
			"-0.013": 2.41201335133,
			"-0.012": 2.58272520014,
			"-0.011": 2.57440681066,
			"-0.01": 2.44723723284,
			"-0.009": 2.68460249782,
			"-0.008": 2.8098715315,
			"-0.007": 7.41763815395,
			"-0.006": 20.2201794307,
			"-0.005": 21.1282598646,
			"-0.004": 20.0842075252,
			"-0.003": 18.4818400189,
			"-0.002": 20.4461055211,
			"-0.001": 15.7733364519,
			"0.0": 12.2939998807,
			"0.001": 14.7328359965,
			"0.002": 16.2618851357,
			"0.003": 18.0770752509,
			"0.004": 22.0191729063,
			"0.005": 12.9052188426,
			"0.006": 3.07000222904,
			"0.007": 3.45109017261,
			"0.008": 2.34215345491,
			"0.009": 2.73190777464,
			"0.01": 2.945634197,
			"0.011": 3.00942512475,
			"0.012": 3.67781813661,
			"0.013": 7.33345142112,
			"0.014": 8.15038561509,
			"0.015": 1.32393611552,
			"0.016": 0.0,
			"0.017": 0.0,
			"0.018": 0.0,
			"0.019": 0.0,
			"0.02": 0.0,
			"0.021": 0.0,
			"0.022": 0.0,
			"0.023": 0.0,
			"0.024": 0.0,
			"0.025": 0.0
		}
	}
}
