{
	 "smiles": "CCC(CC)CC", 
	 "Tm": 154.15, 
	 "num_atms": 23, 
	 "gaussian": { 
		 "optdone": 1, 
		 "sigma_profile": "yes", 
		 "theory": "DFT", 
		 "functional": "B3LYP", 
		 "basiset": "6-31G**", 
		 "properties": { 
			 "R2extent": 1054.615, 
			 "electric_dipole_moment_norm": 0.0623099510512, 
			 "electric_quadrupole_moment_norm": 0.307406506112, 
			 "total_energy": -276.407145062, 
			 "HOMO_LUMO_gap": 0.37158, 
			 "cosmo_polarized_energy": -0.62, 
			 "cosmo_cavitation_energy": 22.82, 
			 "cosmo_dispersion_energy": -16.55, 
			 "cosmo_repulsion_energy": 1.39, 
			 "cosmo_total_nonelectrostatic_energy": 7.66, 
			 "SMD_solvation_energy": 3.88 
		},
		"coords": [
			{
				"x": -2.5831763431,
				"y": 0.0171981316,
				"z": 0.1021921998,
				"element": "C" 
			},
			{
				"x": -1.3512319252,
				"y": 0.9248416407,
				"z": 0.2049727016,
				"element": "C" 
			},
			{
				"x": -0.1000207296,
				"y": 0.3785088018,
				"z": -0.5129912643,
				"element": "C" 
			},
			{
				"x": 0.3986729075,
				"y": -0.9803025032,
				"z": 0.047296097,
				"element": "C" 
			},
			{
				"x": 0.5407919601,
				"y": -1.1192545082,
				"z": 1.5705732429,
				"element": "C" 
			},
			{
				"x": 1.0042192434,
				"y": 1.4550444843,
				"z": -0.6581346426,
				"element": "C" 
			},
			{
				"x": 1.6122248208,
				"y": 2.0452708799,
				"z": 0.6221977841,
				"element": "C" 
			},
			{
				"x": -3.4549626081,
				"y": 0.4810356142,
				"z": 0.5756033119,
				"element": "H" 
			},
			{
				"x": -2.8409477557,
				"y": -0.1808716868,
				"z": -0.9448604684,
				"element": "H" 
			},
			{
				"x": -2.4220033326,
				"y": -0.9500302233,
				"z": 0.5894089571,
				"element": "H" 
			},
			{
				"x": -1.5963887245,
				"y": 1.903464649,
				"z": -0.2294085068,
				"element": "H" 
			},
			{
				"x": -1.1291775243,
				"y": 1.1153218699,
				"z": 1.2621682928,
				"element": "H" 
			},
			{
				"x": -0.411287321,
				"y": 0.1646598759,
				"z": -1.5475042187,
				"element": "H" 
			},
			{
				"x": -0.2882468342,
				"y": -1.7640479705,
				"z": -0.2965842175,
				"element": "H" 
			},
			{
				"x": 1.3626022748,
				"y": -1.2107709549,
				"z": -0.4259186706,
				"element": "H" 
			},
			{
				"x": 1.2482063468,
				"y": -0.403155163,
				"z": 1.9959704465,
				"element": "H" 
			},
			{
				"x": -0.4163913568,
				"y": -0.9780716884,
				"z": 2.0830065287,
				"element": "H" 
			},
			{
				"x": 0.8983363558,
				"y": -2.1230680347,
				"z": 1.8246148308,
				"element": "H" 
			},
			{
				"x": 1.8133440799,
				"y": 1.0362714212,
				"z": -1.2716295184,
				"element": "H" 
			},
			{
				"x": 0.580520676,
				"y": 2.2797857664,
				"z": -1.2476627918,
				"element": "H" 
			},
			{
				"x": 0.8460828977,
				"y": 2.4455116747,
				"z": 1.2942235177,
				"element": "H" 
			},
			{
				"x": 2.289639153,
				"y": 2.8694846168,
				"z": 0.3734902642,
				"element": "H" 
			},
			{
				"x": 2.1945937394,
				"y": 1.3076733067,
				"z": 1.181476124,
				"element": "H" 
			}
		],
		 "valence_orbital": [ 
			{
				"type": "occ",
				"energy": -0.3394,
				"method": "rhf"
			},
			{
				"type": "occ",
				"energy": -0.3262,
				"method": "rhf"
			},
			{
				"type": "occ",
				"energy": -0.30255,
				"method": "rhf"
			},
			{
				"type": "occ",
				"energy": -0.29951,
				"method": "rhf"
			},
			{
				"type": "occ",
				"energy": -0.29533,
				"method": "rhf"
			},
			{
				"type": "unocc",
				"energy": 0.07625,
				"method": "rhf"
			},
			{
				"type": "unocc",
				"energy": 0.11163,
				"method": "rhf"
			},
			{
				"type": "unocc",
				"energy": 0.11364,
				"method": "rhf"
			},
			{
				"type": "unocc",
				"energy": 0.12585,
				"method": "rhf"
			},
			{
				"type": "unocc",
				"energy": 0.14131,
				"method": "rhf"
			}
		],
		"cosmo_sigma_profile": { 
			"-0.025": 0.0,
			"-0.024": 0.0,
			"-0.023": 0.0,
			"-0.022": 0.0,
			"-0.021": 0.0,
			"-0.02": 0.0,
			"-0.019": 0.0,
			"-0.018": 0.0,
			"-0.017": 0.0,
			"-0.016": 0.0,
			"-0.015": 0.0,
			"-0.014": 0.0,
			"-0.013": 0.0,
			"-0.012": 0.0,
			"-0.011": 0.0,
			"-0.01": 0.0,
			"-0.009": 0.0,
			"-0.008": 0.0,
			"-0.007": 0.0,
			"-0.006": 0.0,
			"-0.005": 0.0,
			"-0.004": 0.154212362652,
			"-0.003": 3.78874923792,
			"-0.002": 21.8967821563,
			"-0.001": 37.6050978504,
			"0.0": 44.2067669445,
			"0.001": 42.3839352138,
			"0.002": 23.2879587539,
			"0.003": 1.28418537446,
			"0.004": 0.0,
			"0.005": 0.0,
			"0.006": 0.0,
			"0.007": 0.0,
			"0.008": 0.0,
			"0.009": 0.0,
			"0.01": 0.0,
			"0.011": 0.0,
			"0.012": 0.0,
			"0.013": 0.0,
			"0.014": 0.0,
			"0.015": 0.0,
			"0.016": 0.0,
			"0.017": 0.0,
			"0.018": 0.0,
			"0.019": 0.0,
			"0.02": 0.0,
			"0.021": 0.0,
			"0.022": 0.0,
			"0.023": 0.0,
			"0.024": 0.0,
			"0.025": 0.0
		}
	}
}
