{
	 "smiles": "COC1=NC2=NC(NS(=O)(=O)C3=C(C=CN=C3OC)C(F)(F)F)=NN2C(OC)=C1", 
	 "Tm": 481.15, 
	 "num_atms": 42, 
	 "gaussian": { 
		 "optdone": 1, 
		 "sigma_profile": "yes", 
		 "theory": "DFT", 
		 "functional": "B3LYP", 
		 "basiset": "6-31G**", 
		 "properties": { 
			 "R2extent": 13359.7637, 
			 "electric_dipole_moment_norm": 6.08652081735, 
			 "electric_quadrupole_moment_norm": 25.3693109816, 
			 "total_energy": -1943.53237722, 
			 "HOMO_LUMO_gap": 0.16027, 
			 "cosmo_polarized_energy": -23.46, 
			 "cosmo_cavitation_energy": 49.65, 
			 "cosmo_dispersion_energy": -33.77, 
			 "cosmo_repulsion_energy": 2.45, 
			 "cosmo_total_nonelectrostatic_energy": 18.33, 
			 "SMD_solvation_energy": 7.13 
		},
		"coords": [
			{
				"x": 6.1694581703,
				"y": -2.6636145969,
				"z": 0.224356499,
				"element": "C" 
			},
			{
				"x": 5.6340104581,
				"y": -1.537952997,
				"z": -0.4864753041,
				"element": "O" 
			},
			{
				"x": 4.2979319858,
				"y": -1.4196529635,
				"z": -0.5286651692,
				"element": "C" 
			},
			{
				"x": 3.5434056546,
				"y": -2.3227017517,
				"z": 0.0752567383,
				"element": "N" 
			},
			{
				"x": 2.2217741371,
				"y": -2.132745582,
				"z": -0.0099376712,
				"element": "C" 
			},
			{
				"x": 1.2352269963,
				"y": -2.8892977765,
				"z": 0.4670780059,
				"element": "N" 
			},
			{
				"x": 0.1262661281,
				"y": -2.2301952572,
				"z": 0.0608500578,
				"element": "C" 
			},
			{
				"x": -1.1202347648,
				"y": -2.7343376129,
				"z": 0.4013230883,
				"element": "N" 
			},
			{
				"x": -2.6138440225,
				"y": -2.2694811078,
				"z": -0.2032053146,
				"element": "S" 
			},
			{
				"x": -2.4345279819,
				"y": -1.9336581466,
				"z": -1.6055925561,
				"element": "O" 
			},
			{
				"x": -3.5337266309,
				"y": -3.3116946923,
				"z": 0.2412942402,
				"element": "O" 
			},
			{
				"x": -3.0231708299,
				"y": -0.7275042358,
				"z": 0.6909615215,
				"element": "C" 
			},
			{
				"x": -2.6753208976,
				"y": -0.4198305823,
				"z": 2.0156931028,
				"element": "C" 
			},
			{
				"x": -3.0156073185,
				"y": 0.8369102983,
				"z": 2.535496244,
				"element": "C" 
			},
			{
				"x": -3.7091103177,
				"y": 1.7284717531,
				"z": 1.7320786252,
				"element": "C" 
			},
			{
				"x": -4.1321501208,
				"y": 1.4265890152,
				"z": 0.5032030922,
				"element": "N" 
			},
			{
				"x": -3.8370672626,
				"y": 0.2264655559,
				"z": 0.0097761073,
				"element": "C" 
			},
			{
				"x": -4.3491263278,
				"y": -0.1167806021,
				"z": -1.1732561765,
				"element": "O" 
			},
			{
				"x": -5.1562058133,
				"y": 0.8454965956,
				"z": -1.8650446615,
				"element": "C" 
			},
			{
				"x": -1.9378467506,
				"y": -1.343521008,
				"z": 2.9780565438,
				"element": "C" 
			},
			{
				"x": -0.6033881764,
				"y": -1.2973408233,
				"z": 2.7984900795,
				"element": "F" 
			},
			{
				"x": -2.3365311658,
				"y": -2.6264402484,
				"z": 2.8748881823,
				"element": "F" 
			},
			{
				"x": -2.1685586446,
				"y": -0.9731439136,
				"z": 4.2557629747,
				"element": "F" 
			},
			{
				"x": 0.2855720752,
				"y": -1.1063821756,
				"z": -0.629367812,
				"element": "N" 
			},
			{
				"x": 1.6581226527,
				"y": -1.0358229777,
				"z": -0.6848491699,
				"element": "N" 
			},
			{
				"x": 2.4410523123,
				"y": -0.1114563824,
				"z": -1.32076305,
				"element": "C" 
			},
			{
				"x": 1.9564809863,
				"y": 0.9057313609,
				"z": -2.0289627517,
				"element": "O" 
			},
			{
				"x": 0.6206216985,
				"y": 1.4296982352,
				"z": -1.8571688454,
				"element": "C" 
			},
			{
				"x": 3.8061071715,
				"y": -0.2961076962,
				"z": -1.2375939584,
				"element": "C" 
			},
			{
				"x": 5.866144604,
				"y": -2.6418008418,
				"z": 1.2741653281,
				"element": "H" 
			},
			{
				"x": 7.251893614,
				"y": -2.5683841768,
				"z": 0.1356800825,
				"element": "H" 
			},
			{
				"x": 5.8283168119,
				"y": -3.602414501,
				"z": -0.2191377096,
				"element": "H" 
			},
			{
				"x": -1.1335282426,
				"y": -3.5271061607,
				"z": 1.0293216478,
				"element": "H" 
			},
			{
				"x": -2.7495977827,
				"y": 1.0985909669,
				"z": 3.5503849511,
				"element": "H" 
			},
			{
				"x": -3.9574617259,
				"y": 2.7232279422,
				"z": 2.0955592087,
				"element": "H" 
			},
			{
				"x": -4.5876283616,
				"y": 1.7560220553,
				"z": -2.0696249621,
				"element": "H" 
			},
			{
				"x": -6.0419212323,
				"y": 1.1051975002,
				"z": -1.27976669,
				"element": "H" 
			},
			{
				"x": -5.4400300196,
				"y": 0.3529652667,
				"z": -2.7945585792,
				"element": "H" 
			},
			{
				"x": -0.1286362333,
				"y": 0.719092771,
				"z": -2.2014994507,
				"element": "H" 
			},
			{
				"x": 0.6119987129,
				"y": 2.337281859,
				"z": -2.461337799,
				"element": "H" 
			},
			{
				"x": 0.4347451278,
				"y": 1.6753519737,
				"z": -0.809109877,
				"element": "H" 
			},
			{
				"x": 4.4750913263,
				"y": 0.4075756609,
				"z": -1.7115588124,
				"element": "H" 
			}
		],
		 "valence_orbital": [ 
			{
				"type": "occ",
				"energy": -0.28302,
				"method": "rhf"
			},
			{
				"type": "occ",
				"energy": -0.28199,
				"method": "rhf"
			},
			{
				"type": "occ",
				"energy": -0.25975,
				"method": "rhf"
			},
			{
				"type": "occ",
				"energy": -0.23878,
				"method": "rhf"
			},
			{
				"type": "occ",
				"energy": -0.2341,
				"method": "rhf"
			},
			{
				"type": "unocc",
				"energy": -0.07383,
				"method": "rhf"
			},
			{
				"type": "unocc",
				"energy": -0.03383,
				"method": "rhf"
			},
			{
				"type": "unocc",
				"energy": -0.02907,
				"method": "rhf"
			},
			{
				"type": "unocc",
				"energy": -0.01023,
				"method": "rhf"
			},
			{
				"type": "unocc",
				"energy": 0.03829,
				"method": "rhf"
			}
		],
		"cosmo_sigma_profile": { 
			"-0.025": 0.0,
			"-0.024": 0.0,
			"-0.023": 0.0,
			"-0.022": 0.0,
			"-0.021": 0.0,
			"-0.02": 0.0,
			"-0.019": 0.0,
			"-0.018": 0.0,
			"-0.017": 0.0,
			"-0.016": 0.362049486628,
			"-0.015": 0.384532997336,
			"-0.014": 0.393136806382,
			"-0.013": 0.639985079848,
			"-0.012": 0.602755746581,
			"-0.011": 0.966315426709,
			"-0.01": 0.788473939084,
			"-0.009": 2.83223888068,
			"-0.008": 7.13540745481,
			"-0.007": 12.4788435952,
			"-0.006": 19.7313679209,
			"-0.005": 30.2551776409,
			"-0.004": 35.3575188362,
			"-0.003": 36.5778651724,
			"-0.002": 28.8960958013,
			"-0.001": 30.1838581059,
			"0.0": 26.8322887578,
			"0.001": 30.0939081186,
			"0.002": 28.758445344,
			"0.003": 14.6097552129,
			"0.004": 11.8931995897,
			"0.005": 11.1240757276,
			"0.006": 9.92614320817,
			"0.007": 9.7249505602,
			"0.008": 9.46432377723,
			"0.009": 10.8898124371,
			"0.01": 13.7589538882,
			"0.011": 7.39781747422,
			"0.012": 3.02070951895,
			"0.013": 1.65913513665,
			"0.014": 0.811880421784,
			"0.015": 0.803631817719,
			"0.016": 0.093389761316,
			"0.017": 0.0,
			"0.018": 0.0,
			"0.019": 0.0,
			"0.02": 0.0,
			"0.021": 0.0,
			"0.022": 0.0,
			"0.023": 0.0,
			"0.024": 0.0,
			"0.025": 0.0
		}
	}
}
