{
	 "smiles": "CC1=C(C=CC=C1N)C(N)=O", 
	 "Tm": 447.15, 
	 "num_atms": 21, 
	 "gaussian": { 
		 "optdone": 1, 
		 "sigma_profile": "yes", 
		 "theory": "DFT", 
		 "functional": "B3LYP", 
		 "basiset": "6-31G**", 
		 "properties": { 
			 "R2extent": 1834.9247, 
			 "electric_dipole_moment_norm": 4.13620353827, 
			 "electric_quadrupole_moment_norm": 13.426759831, 
			 "total_energy": -495.630509158, 
			 "HOMO_LUMO_gap": 0.18323, 
			 "cosmo_polarized_energy": -16.04, 
			 "cosmo_cavitation_energy": 24.06, 
			 "cosmo_dispersion_energy": -18.06, 
			 "cosmo_repulsion_energy": 1.46, 
			 "cosmo_total_nonelectrostatic_energy": 7.46, 
			 "SMD_solvation_energy": 4.83 
		},
		"coords": [
			{
				"x": -1.3797163819,
				"y": 0.6584724146,
				"z": -1.4047876209,
				"element": "C" 
			},
			{
				"x": -0.3290871089,
				"y": 0.1771933817,
				"z": -0.4315824621,
				"element": "C" 
			},
			{
				"x": -0.6233829913,
				"y": -0.3645183061,
				"z": 0.8355589702,
				"element": "C" 
			},
			{
				"x": 0.4074637668,
				"y": -0.7949879994,
				"z": 1.6891732777,
				"element": "C" 
			},
			{
				"x": 1.7366629743,
				"y": -0.6879970917,
				"z": 1.291177881,
				"element": "C" 
			},
			{
				"x": 2.0489792817,
				"y": -0.1364418601,
				"z": 0.0542737474,
				"element": "C" 
			},
			{
				"x": 1.031572971,
				"y": 0.2990871935,
				"z": -0.8089588528,
				"element": "C" 
			},
			{
				"x": 1.3633090854,
				"y": 0.7996609248,
				"z": -2.0691771982,
				"element": "N" 
			},
			{
				"x": -2.0461932537,
				"y": -0.5298553073,
				"z": 1.3087766898,
				"element": "C" 
			},
			{
				"x": -2.233379535,
				"y": -0.2976144761,
				"z": 2.6506898402,
				"element": "N" 
			},
			{
				"x": -2.9781758499,
				"y": -0.878614405,
				"z": 0.5919180301,
				"element": "O" 
			},
			{
				"x": -2.3856652306,
				"y": 0.4549011421,
				"z": -1.0476685154,
				"element": "H" 
			},
			{
				"x": -1.2839545883,
				"y": 1.7391266219,
				"z": -1.5892474881,
				"element": "H" 
			},
			{
				"x": -1.2601934492,
				"y": 0.1565053271,
				"z": -2.37297931,
				"element": "H" 
			},
			{
				"x": 0.1596364987,
				"y": -1.2506217072,
				"z": 2.6419220725,
				"element": "H" 
			},
			{
				"x": 2.5320429841,
				"y": -1.0357105411,
				"z": 1.9441154128,
				"element": "H" 
			},
			{
				"x": 3.0864382292,
				"y": -0.0466770222,
				"z": -0.2596524487,
				"element": "H" 
			},
			{
				"x": 2.3162682977,
				"y": 1.121546211,
				"z": -2.1635768701,
				"element": "H" 
			},
			{
				"x": 0.7010491543,
				"y": 1.4415910132,
				"z": -2.4797283612,
				"element": "H" 
			},
			{
				"x": -3.1873431262,
				"y": -0.323191457,
				"z": 2.9796299616,
				"element": "H" 
			},
			{
				"x": -1.5566317282,
				"y": 0.2223459433,
				"z": 3.1858232442,
				"element": "H" 
			}
		],
		 "valence_orbital": [ 
			{
				"type": "occ",
				"energy": -0.30789,
				"method": "rhf"
			},
			{
				"type": "occ",
				"energy": -0.26336,
				"method": "rhf"
			},
			{
				"type": "occ",
				"energy": -0.24786,
				"method": "rhf"
			},
			{
				"type": "occ",
				"energy": -0.23611,
				"method": "rhf"
			},
			{
				"type": "occ",
				"energy": -0.20316,
				"method": "rhf"
			},
			{
				"type": "unocc",
				"energy": -0.01993,
				"method": "rhf"
			},
			{
				"type": "unocc",
				"energy": 0.01116,
				"method": "rhf"
			},
			{
				"type": "unocc",
				"energy": 0.06054,
				"method": "rhf"
			},
			{
				"type": "unocc",
				"energy": 0.0802,
				"method": "rhf"
			},
			{
				"type": "unocc",
				"energy": 0.09051,
				"method": "rhf"
			}
		],
		"cosmo_sigma_profile": { 
			"-0.025": 0.0,
			"-0.024": 0.0,
			"-0.023": 0.0,
			"-0.022": 0.0,
			"-0.021": 0.0,
			"-0.02": 0.0,
			"-0.019": 0.0,
			"-0.018": 0.0,
			"-0.017": 0.0,
			"-0.016": 0.0,
			"-0.015": 0.0,
			"-0.014": 0.728552048571,
			"-0.013": 2.26549682305,
			"-0.012": 3.73448254486,
			"-0.011": 5.04466873113,
			"-0.01": 4.49975258521,
			"-0.009": 4.81691259448,
			"-0.008": 5.1925130212,
			"-0.007": 5.48466035364,
			"-0.006": 6.73357432918,
			"-0.005": 8.8054638841,
			"-0.004": 9.77439278043,
			"-0.003": 11.6092314941,
			"-0.002": 8.96628971121,
			"-0.001": 10.7131124363,
			"0.0": 14.2723061263,
			"0.001": 12.5277175681,
			"0.002": 9.44633290501,
			"0.003": 8.22134553527,
			"0.004": 9.77322079691,
			"0.005": 11.1667970501,
			"0.006": 10.5182805614,
			"0.007": 4.58014685588,
			"0.008": 2.6552720534,
			"0.009": 2.07921244485,
			"0.01": 2.38880361059,
			"0.011": 2.11112538153,
			"0.012": 2.31669695576,
			"0.013": 4.26065030157,
			"0.014": 4.90958713665,
			"0.015": 0.473284269319,
			"0.016": 0.0,
			"0.017": 0.0,
			"0.018": 0.0,
			"0.019": 0.0,
			"0.02": 0.0,
			"0.021": 0.0,
			"0.022": 0.0,
			"0.023": 0.0,
			"0.024": 0.0,
			"0.025": 0.0
		}
	}
}
