{
	 "smiles": "CC1=C(CNC(=O)CCl)C=CC=C1", 
	 "Tm": 379.15, 
	 "num_atms": 25, 
	 "gaussian": { 
		 "optdone": 1, 
		 "sigma_profile": "yes", 
		 "theory": "DFT", 
		 "functional": "B3LYP", 
		 "basiset": "6-31G**", 
		 "properties": { 
			 "R2extent": 3896.8889, 
			 "electric_dipole_moment_norm": 2.04132291664, 
			 "electric_quadrupole_moment_norm": 6.63680779065, 
			 "total_energy": -978.489915944, 
			 "HOMO_LUMO_gap": 0.23082, 
			 "cosmo_polarized_energy": -11.2, 
			 "cosmo_cavitation_energy": 30.2, 
			 "cosmo_dispersion_energy": -21.55, 
			 "cosmo_repulsion_energy": 1.73, 
			 "cosmo_total_nonelectrostatic_energy": 10.39, 
			 "SMD_solvation_energy": 4.73 
		},
		"coords": [
			{
				"x": 1.9430755837,
				"y": 2.2296177079,
				"z": 0.8531496441,
				"element": "C" 
			},
			{
				"x": 0.8423071112,
				"y": 1.2561583919,
				"z": 1.2182216276,
				"element": "C" 
			},
			{
				"x": 0.5126077053,
				"y": 0.1582555737,
				"z": 0.3970599906,
				"element": "C" 
			},
			{
				"x": 1.2266015146,
				"y": -0.106706593,
				"z": -0.9179909125,
				"element": "C" 
			},
			{
				"x": 0.5254730043,
				"y": 0.4375739711,
				"z": -2.0841386909,
				"element": "N" 
			},
			{
				"x": -0.319207844,
				"y": -0.3194073755,
				"z": -2.8191207862,
				"element": "C" 
			},
			{
				"x": -0.534594472,
				"y": -1.5135233505,
				"z": -2.6366465187,
				"element": "O" 
			},
			{
				"x": -1.0577925663,
				"y": 0.3440061878,
				"z": -3.9844862416,
				"element": "C" 
			},
			{
				"x": -0.7336842681,
				"y": 2.1108770153,
				"z": -4.2659972312,
				"element": "Cl" 
			},
			{
				"x": -0.5154359713,
				"y": -0.7125149267,
				"z": 0.7825784236,
				"element": "C" 
			},
			{
				"x": -1.2203871764,
				"y": -0.5132758056,
				"z": 1.9686405017,
				"element": "C" 
			},
			{
				"x": -0.8955911314,
				"y": 0.5685428545,
				"z": 2.7866374359,
				"element": "C" 
			},
			{
				"x": 0.1261416347,
				"y": 1.4394430451,
				"z": 2.4087506622,
				"element": "C" 
			},
			{
				"x": 1.770341707,
				"y": 2.7079816276,
				"z": -0.1182955018,
				"element": "H" 
			},
			{
				"x": 2.0161399928,
				"y": 3.0268505927,
				"z": 1.5973427706,
				"element": "H" 
			},
			{
				"x": 2.9236839162,
				"y": 1.7416073391,
				"z": 0.8002284936,
				"element": "H" 
			},
			{
				"x": 2.2390249455,
				"y": 0.3047220104,
				"z": -0.9126594761,
				"element": "H" 
			},
			{
				"x": 1.3023426199,
				"y": -1.1825670759,
				"z": -1.0882703866,
				"element": "H" 
			},
			{
				"x": 0.5675034121,
				"y": 1.4291323817,
				"z": -2.2726372838,
				"element": "H" 
			},
			{
				"x": -2.1295059183,
				"y": 0.2394074505,
				"z": -3.8149174193,
				"element": "H" 
			},
			{
				"x": -0.7924231914,
				"y": -0.1812201652,
				"z": -4.9020341892,
				"element": "H" 
			},
			{
				"x": -0.762093807,
				"y": -1.5471232489,
				"z": 0.1319741986,
				"element": "H" 
			},
			{
				"x": -2.0133565991,
				"y": -1.1993013856,
				"z": 2.2520177635,
				"element": "H" 
			},
			{
				"x": -1.432919124,
				"y": 0.7355261194,
				"z": 3.7159518615,
				"element": "H" 
			},
			{
				"x": 0.3766489219,
				"y": 2.2817376582,
				"z": 3.0490412646,
				"element": "H" 
			}
		],
		 "valence_orbital": [ 
			{
				"type": "occ",
				"energy": -0.31089,
				"method": "rhf"
			},
			{
				"type": "occ",
				"energy": -0.26738,
				"method": "rhf"
			},
			{
				"type": "occ",
				"energy": -0.25788,
				"method": "rhf"
			},
			{
				"type": "occ",
				"energy": -0.24553,
				"method": "rhf"
			},
			{
				"type": "occ",
				"energy": -0.24042,
				"method": "rhf"
			},
			{
				"type": "unocc",
				"energy": -0.0096,
				"method": "rhf"
			},
			{
				"type": "unocc",
				"energy": 0.00084,
				"method": "rhf"
			},
			{
				"type": "unocc",
				"energy": 0.01364,
				"method": "rhf"
			},
			{
				"type": "unocc",
				"energy": 0.0198,
				"method": "rhf"
			},
			{
				"type": "unocc",
				"energy": 0.0752,
				"method": "rhf"
			}
		],
		"cosmo_sigma_profile": { 
			"-0.025": 0.0,
			"-0.024": 0.0,
			"-0.023": 0.0,
			"-0.022": 0.0,
			"-0.021": 0.0,
			"-0.02": 0.0,
			"-0.019": 0.0,
			"-0.018": 0.0,
			"-0.017": 0.0,
			"-0.016": 0.0,
			"-0.015": 0.0,
			"-0.014": 0.0,
			"-0.013": 0.0,
			"-0.012": 0.00414788222027,
			"-0.011": 0.665106362556,
			"-0.01": 1.79939014549,
			"-0.009": 4.31001331096,
			"-0.008": 5.30983495307,
			"-0.007": 5.57439448049,
			"-0.006": 7.44064995602,
			"-0.005": 18.2474564162,
			"-0.004": 21.1407789211,
			"-0.003": 19.7067793008,
			"-0.002": 18.3984740737,
			"-0.001": 18.0311869774,
			"0.0": 17.6166738612,
			"0.001": 15.6325616295,
			"0.002": 14.2404167978,
			"0.003": 14.3158148925,
			"0.004": 14.4032913134,
			"0.005": 15.5046925555,
			"0.006": 12.6690677237,
			"0.007": 2.99454191885,
			"0.008": 1.31960258934,
			"0.009": 1.39913697325,
			"0.01": 1.15001444849,
			"0.011": 1.42555997459,
			"0.012": 2.20972677461,
			"0.013": 3.89385236985,
			"0.014": 2.03108089809,
			"0.015": 0.0523529822022,
			"0.016": 0.0,
			"0.017": 0.0,
			"0.018": 0.0,
			"0.019": 0.0,
			"0.02": 0.0,
			"0.021": 0.0,
			"0.022": 0.0,
			"0.023": 0.0,
			"0.024": 0.0,
			"0.025": 0.0
		}
	}
}
