{
	 "smiles": "NN1C(CC2=CC=CC=C2)=NC2=C(C=CC=C2)C1=O", 
	 "Tm": 384.15, 
	 "num_atms": 32, 
	 "gaussian": { 
		 "optdone": 1, 
		 "sigma_profile": "yes", 
		 "theory": "DFT", 
		 "functional": "B3LYP", 
		 "basiset": "6-31G**", 
		 "properties": { 
			 "R2extent": 6466.4857, 
			 "electric_dipole_moment_norm": 1.47579517888, 
			 "electric_quadrupole_moment_norm": 15.7455801005, 
			 "total_energy": -818.916983077, 
			 "HOMO_LUMO_gap": 0.18335, 
			 "cosmo_polarized_energy": -11.99, 
			 "cosmo_cavitation_energy": 35.71, 
			 "cosmo_dispersion_energy": -25.65, 
			 "cosmo_repulsion_energy": 1.94, 
			 "cosmo_total_nonelectrostatic_energy": 12.0, 
			 "SMD_solvation_energy": 5.24 
		},
		"coords": [
			{
				"x": -1.2401297266,
				"y": 2.5950107985,
				"z": -2.06893081,
				"element": "N" 
			},
			{
				"x": -0.1373504838,
				"y": 1.7049718236,
				"z": -2.0892042201,
				"element": "N" 
			},
			{
				"x": -0.3596521462,
				"y": 0.3436369277,
				"z": -1.9830146712,
				"element": "C" 
			},
			{
				"x": -1.7792224396,
				"y": -0.118134954,
				"z": -1.7557350694,
				"element": "C" 
			},
			{
				"x": -2.2536862534,
				"y": 0.1067201459,
				"z": -0.32475732,
				"element": "C" 
			},
			{
				"x": -1.5944914547,
				"y": -0.5213334833,
				"z": 0.7419689987,
				"element": "C" 
			},
			{
				"x": -2.0296329437,
				"y": -0.3342354064,
				"z": 2.0535392484,
				"element": "C" 
			},
			{
				"x": -3.130441925,
				"y": 0.484428053,
				"z": 2.3192775601,
				"element": "C" 
			},
			{
				"x": -3.7919353487,
				"y": 1.1141083964,
				"z": 1.2646025564,
				"element": "C" 
			},
			{
				"x": -3.3539740087,
				"y": 0.9274932056,
				"z": -0.0490982938,
				"element": "C" 
			},
			{
				"x": 0.598670459,
				"y": -0.5327357037,
				"z": -2.0266949602,
				"element": "N" 
			},
			{
				"x": 1.8943489188,
				"y": -0.083165365,
				"z": -2.2150699792,
				"element": "C" 
			},
			{
				"x": 2.2097515735,
				"y": 1.2872437913,
				"z": -2.3675247891,
				"element": "C" 
			},
			{
				"x": 3.5393998706,
				"y": 1.699987112,
				"z": -2.5632503675,
				"element": "C" 
			},
			{
				"x": 4.5532439518,
				"y": 0.7575879117,
				"z": -2.6066159847,
				"element": "C" 
			},
			{
				"x": 4.2478037623,
				"y": -0.6093159683,
				"z": -2.4564487283,
				"element": "C" 
			},
			{
				"x": 2.9412510029,
				"y": -1.0273000615,
				"z": -2.264487532,
				"element": "C" 
			},
			{
				"x": 1.1351163628,
				"y": 2.2709375968,
				"z": -2.3128018329,
				"element": "C" 
			},
			{
				"x": 1.2434363931,
				"y": 3.4871413334,
				"z": -2.4551224033,
				"element": "O" 
			},
			{
				"x": -1.4189299061,
				"y": 2.8333383186,
				"z": -1.0921262683,
				"element": "H" 
			},
			{
				"x": -0.8722753502,
				"y": 3.4433206658,
				"z": -2.5053281364,
				"element": "H" 
			},
			{
				"x": -1.784879131,
				"y": -1.185969593,
				"z": -1.9886226995,
				"element": "H" 
			},
			{
				"x": -2.4450422951,
				"y": 0.4003748842,
				"z": -2.4498750743,
				"element": "H" 
			},
			{
				"x": -0.7375598178,
				"y": -1.1570319308,
				"z": 0.5354086303,
				"element": "H" 
			},
			{
				"x": -1.5101657968,
				"y": -0.8291124136,
				"z": 2.8693496666,
				"element": "H" 
			},
			{
				"x": -3.4697683999,
				"y": 0.6286670274,
				"z": 3.3409643668,
				"element": "H" 
			},
			{
				"x": -4.6500035061,
				"y": 1.7508506441,
				"z": 1.4613048647,
				"element": "H" 
			},
			{
				"x": -3.8699357771,
				"y": 1.4200899266,
				"z": -0.8690359928,
				"element": "H" 
			},
			{
				"x": 3.7383446689,
				"y": 2.7605195966,
				"z": -2.6765052798,
				"element": "H" 
			},
			{
				"x": 5.5822030612,
				"y": 1.0692352803,
				"z": -2.7575495466,
				"element": "H" 
			},
			{
				"x": 5.0469790264,
				"y": -1.3443810304,
				"z": -2.4925055593,
				"element": "H" 
			},
			{
				"x": 2.6883276593,
				"y": -2.0760475293,
				"z": -2.148910373,
				"element": "H" 
			}
		],
		 "valence_orbital": [ 
			{
				"type": "occ",
				"energy": -0.26739,
				"method": "rhf"
			},
			{
				"type": "occ",
				"energy": -0.26002,
				"method": "rhf"
			},
			{
				"type": "occ",
				"energy": -0.25471,
				"method": "rhf"
			},
			{
				"type": "occ",
				"energy": -0.24721,
				"method": "rhf"
			},
			{
				"type": "occ",
				"energy": -0.22505,
				"method": "rhf"
			},
			{
				"type": "unocc",
				"energy": -0.0417,
				"method": "rhf"
			},
			{
				"type": "unocc",
				"energy": -0.03547,
				"method": "rhf"
			},
			{
				"type": "unocc",
				"energy": -0.00833,
				"method": "rhf"
			},
			{
				"type": "unocc",
				"energy": -0.00422,
				"method": "rhf"
			},
			{
				"type": "unocc",
				"energy": 0.02998,
				"method": "rhf"
			}
		],
		"cosmo_sigma_profile": { 
			"-0.025": 0.0,
			"-0.024": 0.0,
			"-0.023": 0.0,
			"-0.022": 0.0,
			"-0.021": 0.0,
			"-0.02": 0.0,
			"-0.019": 0.0,
			"-0.018": 0.0,
			"-0.017": 0.0,
			"-0.016": 0.0,
			"-0.015": 0.0,
			"-0.014": 0.0,
			"-0.013": 0.0,
			"-0.012": 1.07306126765,
			"-0.011": 2.16244819726,
			"-0.01": 2.30268498097,
			"-0.009": 1.25478973487,
			"-0.008": 2.0946727031,
			"-0.007": 3.77046569924,
			"-0.006": 13.0904622142,
			"-0.005": 22.5070431367,
			"-0.004": 26.5672734535,
			"-0.003": 25.867183028,
			"-0.002": 21.7913858322,
			"-0.001": 17.8274916626,
			"0.0": 17.9399164594,
			"0.001": 19.8342477576,
			"0.002": 22.1635335645,
			"0.003": 24.1725449545,
			"0.004": 18.5096034822,
			"0.005": 11.6721596929,
			"0.006": 7.96447487665,
			"0.007": 3.67406995345,
			"0.008": 2.72788507436,
			"0.009": 2.37759713704,
			"0.01": 3.15127671203,
			"0.011": 3.53894043334,
			"0.012": 4.61252250419,
			"0.013": 2.44395007909,
			"0.014": 0.625373470569,
			"0.015": 0.0314840008438,
			"0.016": 0.0,
			"0.017": 0.0,
			"0.018": 0.0,
			"0.019": 0.0,
			"0.02": 0.0,
			"0.021": 0.0,
			"0.022": 0.0,
			"0.023": 0.0,
			"0.024": 0.0,
			"0.025": 0.0
		}
	}
}
