{
	 "smiles": "OC(=O)CC1=C(C=CC=C1Cl)C(F)(F)F", 
	 "Tm": 424.15, 
	 "num_atms": 21, 
	 "gaussian": { 
		 "optdone": 1, 
		 "sigma_profile": "yes", 
		 "theory": "DFT", 
		 "functional": "B3LYP", 
		 "basiset": "6-31G**", 
		 "properties": { 
			 "R2extent": 4081.6492, 
			 "electric_dipole_moment_norm": 3.45699600954, 
			 "electric_quadrupole_moment_norm": 7.93471132808, 
			 "total_energy": -1256.75621169, 
			 "HOMO_LUMO_gap": 0.21516, 
			 "cosmo_polarized_energy": -10.46, 
			 "cosmo_cavitation_energy": 28.25, 
			 "cosmo_dispersion_energy": -19.93, 
			 "cosmo_repulsion_energy": 1.51, 
			 "cosmo_total_nonelectrostatic_energy": 9.83, 
			 "SMD_solvation_energy": 6.71 
		},
		"coords": [
			{
				"x": -2.1189583486,
				"y": -0.7197102949,
				"z": -1.624706793,
				"element": "O" 
			},
			{
				"x": -2.0729534334,
				"y": -2.0557902707,
				"z": -1.4365861929,
				"element": "C" 
			},
			{
				"x": -2.9279457578,
				"y": -2.8105201013,
				"z": -1.8374095942,
				"element": "O" 
			},
			{
				"x": -0.8187400789,
				"y": -2.5178533957,
				"z": -0.7031157506,
				"element": "C" 
			},
			{
				"x": -0.0036465067,
				"y": -1.442467541,
				"z": -0.0213909975,
				"element": "C" 
			},
			{
				"x": -0.2542665374,
				"y": -1.0468736318,
				"z": 1.310563997,
				"element": "C" 
			},
			{
				"x": 0.5101627238,
				"y": -0.0618197673,
				"z": 1.9361216827,
				"element": "C" 
			},
			{
				"x": 1.5496297082,
				"y": 0.5595357633,
				"z": 1.2474482643,
				"element": "C" 
			},
			{
				"x": 1.8201025101,
				"y": 0.1981559408,
				"z": -0.0676992644,
				"element": "C" 
			},
			{
				"x": 1.0458995584,
				"y": -0.786931402,
				"z": -0.6821558055,
				"element": "C" 
			},
			{
				"x": 1.4322132713,
				"y": -1.1865811564,
				"z": -2.3523699292,
				"element": "Cl" 
			},
			{
				"x": -1.3695654434,
				"y": -1.6973469545,
				"z": 2.0964312527,
				"element": "C" 
			},
			{
				"x": -2.5552578094,
				"y": -1.6241270083,
				"z": 1.4466017006,
				"element": "F" 
			},
			{
				"x": -1.5444253486,
				"y": -1.122822231,
				"z": 3.302844998,
				"element": "F" 
			},
			{
				"x": -1.1283522664,
				"y": -3.0135134286,
				"z": 2.3188520534,
				"element": "F" 
			},
			{
				"x": -2.9403244954,
				"y": -0.545538492,
				"z": -2.1148591907,
				"element": "H" 
			},
			{
				"x": -1.1416969909,
				"y": -3.2820721146,
				"z": 0.0037247891,
				"element": "H" 
			},
			{
				"x": -0.2071167951,
				"y": -3.0303132977,
				"z": -1.4512248593,
				"element": "H" 
			},
			{
				"x": 0.2872850755,
				"y": 0.2153992857,
				"z": 2.9589344382,
				"element": "H" 
			},
			{
				"x": 2.1464878018,
				"y": 1.3247356184,
				"z": 1.7331073363,
				"element": "H" 
			},
			{
				"x": 2.621769163,
				"y": 0.6708544796,
				"z": -0.623812135,
				"element": "H" 
			}
		],
		 "valence_orbital": [ 
			{
				"type": "occ",
				"energy": -0.32731,
				"method": "rhf"
			},
			{
				"type": "occ",
				"energy": -0.31864,
				"method": "rhf"
			},
			{
				"type": "occ",
				"energy": -0.29188,
				"method": "rhf"
			},
			{
				"type": "occ",
				"energy": -0.27304,
				"method": "rhf"
			},
			{
				"type": "occ",
				"energy": -0.25921,
				"method": "rhf"
			},
			{
				"type": "unocc",
				"energy": -0.04405,
				"method": "rhf"
			},
			{
				"type": "unocc",
				"energy": -0.03136,
				"method": "rhf"
			},
			{
				"type": "unocc",
				"energy": 0.00846,
				"method": "rhf"
			},
			{
				"type": "unocc",
				"energy": 0.0176,
				"method": "rhf"
			},
			{
				"type": "unocc",
				"energy": 0.07571,
				"method": "rhf"
			}
		],
		"cosmo_sigma_profile": { 
			"-0.025": 0.0,
			"-0.024": 0.0,
			"-0.023": 0.0,
			"-0.022": 0.0,
			"-0.021": 0.0,
			"-0.02": 0.0,
			"-0.019": 0.159364617491,
			"-0.018": 1.25998074032,
			"-0.017": 0.726854631094,
			"-0.016": 0.559866655985,
			"-0.015": 1.0274740487,
			"-0.014": 0.824724164746,
			"-0.013": 0.652875861281,
			"-0.012": 0.326691590287,
			"-0.011": 0.596849783199,
			"-0.01": 0.813320955907,
			"-0.009": 0.581523526487,
			"-0.008": 2.95405388788,
			"-0.007": 9.03141605044,
			"-0.006": 9.81207287328,
			"-0.005": 9.81939183507,
			"-0.004": 11.069691683,
			"-0.003": 12.4554152321,
			"-0.002": 13.1345155204,
			"-0.001": 14.7011446685,
			"0.0": 18.9531520027,
			"0.001": 24.2759379871,
			"0.002": 37.4777314809,
			"0.003": 21.3205920837,
			"0.004": 9.76958071105,
			"0.005": 4.67773199375,
			"0.006": 3.97459061001,
			"0.007": 2.9358981832,
			"0.008": 2.27913837045,
			"0.009": 1.3545797652,
			"0.01": 2.51660646109,
			"0.011": 4.57604842878,
			"0.012": 3.55518410909,
			"0.013": 0.362391754843,
			"0.014": 0.0,
			"0.015": 0.0,
			"0.016": 0.0,
			"0.017": 0.0,
			"0.018": 0.0,
			"0.019": 0.0,
			"0.02": 0.0,
			"0.021": 0.0,
			"0.022": 0.0,
			"0.023": 0.0,
			"0.024": 0.0,
			"0.025": 0.0
		}
	}
}
