{
	 "smiles": "OC(=O)C1=CC=C(OC2=CC=CN=C2)O1", 
	 "Tm": 425.15, 
	 "num_atms": 22, 
	 "gaussian": { 
		 "optdone": 1, 
		 "sigma_profile": "yes", 
		 "theory": "DFT", 
		 "functional": "B3LYP", 
		 "basiset": "6-31G**", 
		 "properties": { 
			 "R2extent": 4394.8699, 
			 "electric_dipole_moment_norm": 3.65374692747, 
			 "electric_quadrupole_moment_norm": 32.1581762572, 
			 "total_energy": -740.888832931, 
			 "HOMO_LUMO_gap": 0.18984, 
			 "cosmo_polarized_energy": -16.13, 
			 "cosmo_cavitation_energy": 28.46, 
			 "cosmo_dispersion_energy": -20.47, 
			 "cosmo_repulsion_energy": 1.61, 
			 "cosmo_total_nonelectrostatic_energy": 9.61, 
			 "SMD_solvation_energy": 5.75 
		},
		"coords": [
			{
				"x": 0.5406022505,
				"y": -3.5575911034,
				"z": 0.3708825759,
				"element": "O" 
			},
			{
				"x": -0.5816655119,
				"y": -3.6922119525,
				"z": 1.1200811527,
				"element": "C" 
			},
			{
				"x": -1.1811439154,
				"y": -4.7405528012,
				"z": 1.1857777983,
				"element": "O" 
			},
			{
				"x": -1.0177870215,
				"y": -2.4879080862,
				"z": 1.8398155586,
				"element": "C" 
			},
			{
				"x": -2.0759774659,
				"y": -2.2545672059,
				"z": 2.671229994,
				"element": "C" 
			},
			{
				"x": -2.0068144405,
				"y": -0.8828561607,
				"z": 3.0600876701,
				"element": "C" 
			},
			{
				"x": -0.8999201264,
				"y": -0.3783081422,
				"z": 2.4392403485,
				"element": "C" 
			},
			{
				"x": -0.3162463437,
				"y": 0.8274219344,
				"z": 2.5282078975,
				"element": "O" 
			},
			{
				"x": -0.0737436473,
				"y": 1.565505118,
				"z": 1.3719485274,
				"element": "C" 
			},
			{
				"x": -0.753333987,
				"y": 1.3788482065,
				"z": 0.1718094451,
				"element": "C" 
			},
			{
				"x": -0.4283104639,
				"y": 2.2260523515,
				"z": -0.8872284621,
				"element": "C" 
			},
			{
				"x": 0.5448011103,
				"y": 3.2076876585,
				"z": -0.6966699022,
				"element": "C" 
			},
			{
				"x": 1.1920981456,
				"y": 3.3850063987,
				"z": 0.4627320935,
				"element": "N" 
			},
			{
				"x": 0.8865424146,
				"y": 2.5739369297,
				"z": 1.4768514054,
				"element": "C" 
			},
			{
				"x": -0.2742523486,
				"y": -1.3287602377,
				"z": 1.69494779,
				"element": "O" 
			},
			{
				"x": 0.888734521,
				"y": -2.6560161482,
				"z": 0.4517795251,
				"element": "H" 
			},
			{
				"x": -2.8152429999,
				"y": -2.9883178015,
				"z": 2.9560744754,
				"element": "H" 
			},
			{
				"x": -2.674835447,
				"y": -0.3350771807,
				"z": 3.7067445434,
				"element": "H" 
			},
			{
				"x": -1.5089006519,
				"y": 0.6074917871,
				"z": 0.0668803273,
				"element": "H" 
			},
			{
				"x": -0.927494179,
				"y": 2.1250681827,
				"z": -1.8456571289,
				"element": "H" 
			},
			{
				"x": 0.817073193,
				"y": 3.8794656792,
				"z": -1.5075468221,
				"element": "H" 
			},
			{
				"x": 1.4109169148,
				"y": 2.7166825737,
				"z": 2.4192111871,
				"element": "H" 
			}
		],
		 "valence_orbital": [ 
			{
				"type": "occ",
				"energy": -0.30306,
				"method": "rhf"
			},
			{
				"type": "occ",
				"energy": -0.28164,
				"method": "rhf"
			},
			{
				"type": "occ",
				"energy": -0.27209,
				"method": "rhf"
			},
			{
				"type": "occ",
				"energy": -0.2692,
				"method": "rhf"
			},
			{
				"type": "occ",
				"energy": -0.24488,
				"method": "rhf"
			},
			{
				"type": "unocc",
				"energy": -0.05504,
				"method": "rhf"
			},
			{
				"type": "unocc",
				"energy": -0.04224,
				"method": "rhf"
			},
			{
				"type": "unocc",
				"energy": -0.0234,
				"method": "rhf"
			},
			{
				"type": "unocc",
				"energy": 0.02674,
				"method": "rhf"
			},
			{
				"type": "unocc",
				"energy": 0.07203,
				"method": "rhf"
			}
		],
		"cosmo_sigma_profile": { 
			"-0.025": 0.0,
			"-0.024": 0.0,
			"-0.023": 0.0,
			"-0.022": 0.0,
			"-0.021": 0.0,
			"-0.02": 0.0,
			"-0.019": 0.0,
			"-0.018": 0.0,
			"-0.017": 0.500245523757,
			"-0.016": 0.564587050472,
			"-0.015": 0.498971361767,
			"-0.014": 0.890456457164,
			"-0.013": 0.516700585514,
			"-0.012": 1.15866348594,
			"-0.011": 1.06911709302,
			"-0.01": 0.826161860789,
			"-0.009": 3.24663687951,
			"-0.008": 7.04287615611,
			"-0.007": 12.8889779777,
			"-0.006": 12.2233300082,
			"-0.005": 13.0063235006,
			"-0.004": 13.2027377006,
			"-0.003": 11.3058829635,
			"-0.002": 13.9495153611,
			"-0.001": 16.0358168497,
			"0.0": 23.4076867361,
			"0.001": 23.0542073658,
			"0.002": 17.4022004627,
			"0.003": 5.94599237203,
			"0.004": 5.43618465916,
			"0.005": 5.2652208499,
			"0.006": 4.86264432373,
			"0.007": 4.18199126189,
			"0.008": 4.1169928349,
			"0.009": 4.56841581985,
			"0.01": 5.70944390272,
			"0.011": 6.01062197861,
			"0.012": 6.1769210712,
			"0.013": 2.53066484281,
			"0.014": 0.933066771817,
			"0.015": 0.816507427819,
			"0.016": 0.5684308946,
			"0.017": 0.0558412678428,
			"0.018": 0.0,
			"0.019": 0.0,
			"0.02": 0.0,
			"0.021": 0.0,
			"0.022": 0.0,
			"0.023": 0.0,
			"0.024": 0.0,
			"0.025": 0.0
		}
	}
}
