{
	 "smiles": "CSC1=NN(C=C1C(N)=S)C1=CC=CC=C1", 
	 "Tm": 405.15, 
	 "num_atms": 27, 
	 "gaussian": { 
		 "optdone": 1, 
		 "sigma_profile": "yes", 
		 "theory": "DFT", 
		 "functional": "B3LYP", 
		 "basiset": "6-31G**", 
		 "properties": { 
			 "R2extent": 6701.5245, 
			 "electric_dipole_moment_norm": 6.34609045712, 
			 "electric_quadrupole_moment_norm": 28.5012268106, 
			 "total_energy": -1386.41658682, 
			 "HOMO_LUMO_gap": 0.14661, 
			 "cosmo_polarized_energy": -21.79, 
			 "cosmo_cavitation_energy": 34.46, 
			 "cosmo_dispersion_energy": -25.79, 
			 "cosmo_repulsion_energy": 1.92, 
			 "cosmo_total_nonelectrostatic_energy": 10.59, 
			 "SMD_solvation_energy": 4.8 
		},
		"coords": [
			{
				"x": -3.7581281638,
				"y": -0.3425176791,
				"z": 2.0552098373,
				"element": "C" 
			},
			{
				"x": -3.7077962886,
				"y": -1.8519154366,
				"z": 1.0201457584,
				"element": "S" 
			},
			{
				"x": -2.0698422361,
				"y": -1.7096302876,
				"z": 0.3909775311,
				"element": "C" 
			},
			{
				"x": -1.2388595433,
				"y": -0.7741445359,
				"z": 0.8378435918,
				"element": "N" 
			},
			{
				"x": -0.0737789129,
				"y": -0.9564627559,
				"z": 0.1452621535,
				"element": "N" 
			},
			{
				"x": -0.172221235,
				"y": -1.9756730363,
				"z": -0.7396245676,
				"element": "C" 
			},
			{
				"x": -1.450795821,
				"y": -2.5106727245,
				"z": -0.6311062734,
				"element": "C" 
			},
			{
				"x": -1.991369886,
				"y": -3.6206598967,
				"z": -1.4093106316,
				"element": "C" 
			},
			{
				"x": -1.3211066505,
				"y": -3.8963093324,
				"z": -2.5647184521,
				"element": "N" 
			},
			{
				"x": -3.2971029734,
				"y": -4.5389156928,
				"z": -0.9267066312,
				"element": "S" 
			},
			{
				"x": 1.0421686667,
				"y": -0.1171211236,
				"z": 0.4029028869,
				"element": "C" 
			},
			{
				"x": 0.8351966655,
				"y": 1.1317760946,
				"z": 0.9992595657,
				"element": "C" 
			},
			{
				"x": 1.9260792979,
				"y": 1.9637726662,
				"z": 1.241109808,
				"element": "C" 
			},
			{
				"x": 3.2177660938,
				"y": 1.5655292294,
				"z": 0.8895302633,
				"element": "C" 
			},
			{
				"x": 3.4150226705,
				"y": 0.315097223,
				"z": 0.3016126845,
				"element": "C" 
			},
			{
				"x": 2.3347941032,
				"y": -0.5335579124,
				"z": 0.0638070812,
				"element": "C" 
			},
			{
				"x": -3.6044447314,
				"y": 0.5535950273,
				"z": 1.4516237219,
				"element": "H" 
			},
			{
				"x": -4.7574322994,
				"y": -0.3264975465,
				"z": 2.495387491,
				"element": "H" 
			},
			{
				"x": -3.0057584375,
				"y": -0.3850184175,
				"z": 2.8436004677,
				"element": "H" 
			},
			{
				"x": 0.6563223098,
				"y": -2.2685458731,
				"z": -1.3656678366,
				"element": "H" 
			},
			{
				"x": -1.71206147,
				"y": -4.6192456162,
				"z": -3.1519575219,
				"element": "H" 
			},
			{
				"x": -0.7775098897,
				"y": -3.1771558149,
				"z": -3.0199472723,
				"element": "H" 
			},
			{
				"x": -0.1722015234,
				"y": 1.4270893051,
				"z": 1.2641217343,
				"element": "H" 
			},
			{
				"x": 1.762046413,
				"y": 2.9325610175,
				"z": 1.7035142383,
				"element": "H" 
			},
			{
				"x": 4.0631486316,
				"y": 2.2198155241,
				"z": 1.078304816,
				"element": "H" 
			},
			{
				"x": 4.4160667137,
				"y": -0.0130308947,
				"z": 0.038275317,
				"element": "H" 
			},
			{
				"x": 2.5050984961,
				"y": -1.5185615106,
				"z": -0.3575497612,
				"element": "H" 
			}
		],
		 "valence_orbital": [ 
			{
				"type": "occ",
				"energy": -0.26751,
				"method": "rhf"
			},
			{
				"type": "occ",
				"energy": -0.2543,
				"method": "rhf"
			},
			{
				"type": "occ",
				"energy": -0.22714,
				"method": "rhf"
			},
			{
				"type": "occ",
				"energy": -0.20898,
				"method": "rhf"
			},
			{
				"type": "occ",
				"energy": -0.20462,
				"method": "rhf"
			},
			{
				"type": "unocc",
				"energy": -0.05801,
				"method": "rhf"
			},
			{
				"type": "unocc",
				"energy": -0.02296,
				"method": "rhf"
			},
			{
				"type": "unocc",
				"energy": -0.01765,
				"method": "rhf"
			},
			{
				"type": "unocc",
				"energy": 0.02444,
				"method": "rhf"
			},
			{
				"type": "unocc",
				"energy": 0.04651,
				"method": "rhf"
			}
		],
		"cosmo_sigma_profile": { 
			"-0.025": 0.0,
			"-0.024": 0.0,
			"-0.023": 0.0,
			"-0.022": 0.0,
			"-0.021": 0.0,
			"-0.02": 0.0,
			"-0.019": 0.0,
			"-0.018": 0.0,
			"-0.017": 0.0,
			"-0.016": 0.17463944732,
			"-0.015": 1.70173664244,
			"-0.014": 2.76364700889,
			"-0.013": 3.19943942654,
			"-0.012": 3.14940059914,
			"-0.011": 4.42407315754,
			"-0.01": 2.98101564877,
			"-0.009": 3.82672199259,
			"-0.008": 3.54385432866,
			"-0.007": 5.37237131421,
			"-0.006": 12.4082945345,
			"-0.005": 17.4593748828,
			"-0.004": 16.9608877888,
			"-0.003": 14.3691603435,
			"-0.002": 17.2015288582,
			"-0.001": 18.4935064772,
			"0.0": 16.4699228982,
			"0.001": 16.885692636,
			"0.002": 18.9457389133,
			"0.003": 18.6726694374,
			"0.004": 19.8390844101,
			"0.005": 14.9476691664,
			"0.006": 7.89401799676,
			"0.007": 7.18005393754,
			"0.008": 10.0287744337,
			"0.009": 10.366242728,
			"0.01": 6.11786699494,
			"0.011": 3.46772223108,
			"0.012": 1.26694299542,
			"0.013": 0.0,
			"0.014": 0.0,
			"0.015": 0.0,
			"0.016": 0.0,
			"0.017": 0.0,
			"0.018": 0.0,
			"0.019": 0.0,
			"0.02": 0.0,
			"0.021": 0.0,
			"0.022": 0.0,
			"0.023": 0.0,
			"0.024": 0.0,
			"0.025": 0.0
		}
	}
}
