{
	 "smiles": "OCC1=CC(=NO1)C(O)=O", 
	 "Tm": 403.15, 
	 "num_atms": 15, 
	 "gaussian": { 
		 "optdone": 1, 
		 "sigma_profile": "yes", 
		 "theory": "DFT", 
		 "functional": "B3LYP", 
		 "basiset": "6-31G**", 
		 "properties": { 
			 "R2extent": 2218.9188, 
			 "electric_dipole_moment_norm": 5.99238401807, 
			 "electric_quadrupole_moment_norm": 23.6287543747, 
			 "total_energy": -549.117490305, 
			 "HOMO_LUMO_gap": 0.22222, 
			 "cosmo_polarized_energy": -22.29, 
			 "cosmo_cavitation_energy": 20.84, 
			 "cosmo_dispersion_energy": -15.38, 
			 "cosmo_repulsion_energy": 1.28, 
			 "cosmo_total_nonelectrostatic_energy": 6.75, 
			 "SMD_solvation_energy": 5.09 
		},
		"coords": [
			{
				"x": 1.3273409469,
				"y": -0.7037227469,
				"z": -2.8208841193,
				"element": "O" 
			},
			{
				"x": 1.5374446244,
				"y": 0.3201279239,
				"z": -1.8689224093,
				"element": "C" 
			},
			{
				"x": 1.2806146324,
				"y": -0.1603196942,
				"z": -0.4697049861,
				"element": "C" 
			},
			{
				"x": 0.581415805,
				"y": -1.217237096,
				"z": 0.0308723875,
				"element": "C" 
			},
			{
				"x": 0.7178097844,
				"y": -1.0662862259,
				"z": 1.4447144545,
				"element": "C" 
			},
			{
				"x": 1.4438972412,
				"y": -0.0135618552,
				"z": 1.7619141539,
				"element": "N" 
			},
			{
				"x": 1.8068280753,
				"y": 0.5549078163,
				"z": 0.5460775085,
				"element": "O" 
			},
			{
				"x": 0.1513107465,
				"y": -1.9190125033,
				"z": 2.5413411189,
				"element": "C" 
			},
			{
				"x": -0.0910808233,
				"y": -3.2077678677,
				"z": 2.1826718137,
				"element": "O" 
			},
			{
				"x": -0.0958158041,
				"y": -1.5228734807,
				"z": 3.648589247,
				"element": "O" 
			},
			{
				"x": 2.0330877201,
				"y": -1.3561413996,
				"z": -2.7202977945,
				"element": "H" 
			},
			{
				"x": 2.5453336299,
				"y": 0.7575010849,
				"z": -1.9196977635,
				"element": "H" 
			},
			{
				"x": 0.8309097801,
				"y": 1.1199507539,
				"z": -2.1181201645,
				"element": "H" 
			},
			{
				"x": 0.0136552474,
				"y": -1.9428147806,
				"z": -0.5314261798,
				"element": "H" 
			},
			{
				"x": 0.2751483938,
				"y": -3.3916499289,
				"z": 1.3060727329,
				"element": "H" 
			}
		],
		 "valence_orbital": [ 
			{
				"type": "occ",
				"energy": -0.33205,
				"method": "rhf"
			},
			{
				"type": "occ",
				"energy": -0.31885,
				"method": "rhf"
			},
			{
				"type": "occ",
				"energy": -0.31235,
				"method": "rhf"
			},
			{
				"type": "occ",
				"energy": -0.28743,
				"method": "rhf"
			},
			{
				"type": "occ",
				"energy": -0.28171,
				"method": "rhf"
			},
			{
				"type": "unocc",
				"energy": -0.05949,
				"method": "rhf"
			},
			{
				"type": "unocc",
				"energy": -0.01337,
				"method": "rhf"
			},
			{
				"type": "unocc",
				"energy": 0.04555,
				"method": "rhf"
			},
			{
				"type": "unocc",
				"energy": 0.05647,
				"method": "rhf"
			},
			{
				"type": "unocc",
				"energy": 0.07325,
				"method": "rhf"
			}
		],
		"cosmo_sigma_profile": { 
			"-0.025": 0.0,
			"-0.024": 0.0,
			"-0.023": 0.0,
			"-0.022": 0.0,
			"-0.021": 0.0,
			"-0.02": 0.00383346857009,
			"-0.019": 0.90180832204,
			"-0.018": 0.637914023941,
			"-0.017": 2.1781524788,
			"-0.016": 2.24914269924,
			"-0.015": 1.76648895785,
			"-0.014": 2.0342915987,
			"-0.013": 2.44382588781,
			"-0.012": 2.81043669571,
			"-0.011": 2.41426909162,
			"-0.01": 2.23224257598,
			"-0.009": 2.49082405164,
			"-0.008": 4.52066122728,
			"-0.007": 9.85583882672,
			"-0.006": 8.19329351451,
			"-0.005": 7.13468606394,
			"-0.004": 7.74366613194,
			"-0.003": 7.60789493218,
			"-0.002": 7.82100789921,
			"-0.001": 7.74934541967,
			"0.0": 6.49892505106,
			"0.001": 5.1543922401,
			"0.002": 4.72720468387,
			"0.003": 3.59478582835,
			"0.004": 5.79244198675,
			"0.005": 5.15224528243,
			"0.006": 8.3395868509,
			"0.007": 6.29941509192,
			"0.008": 5.3113812738,
			"0.009": 7.27579864635,
			"0.01": 9.15377152406,
			"0.011": 8.96362764415,
			"0.012": 4.74863623725,
			"0.013": 2.44839989395,
			"0.014": 0.0367159956883,
			"0.015": 0.0,
			"0.016": 0.0,
			"0.017": 0.0,
			"0.018": 0.0,
			"0.019": 0.0,
			"0.02": 0.0,
			"0.021": 0.0,
			"0.022": 0.0,
			"0.023": 0.0,
			"0.024": 0.0,
			"0.025": 0.0
		}
	}
}
