{
	 "smiles": "CN1CCN(CC1)C(=O)OC1N(C(=O)C2=C1SCCS2)C1=NC2=NC(Cl)=CC=C2C=C1", 
	 "Tm": 553.15, 
	 "num_atms": 51, 
	 "gaussian": { 
		 "optdone": 1, 
		 "sigma_profile": "yes", 
		 "theory": "DFT", 
		 "functional": "B3LYP", 
		 "basiset": "6-31G**", 
		 "properties": { 
			 "R2extent": 19365.9675, 
			 "electric_dipole_moment_norm": 8.8445498687, 
			 "electric_quadrupole_moment_norm": 55.4892323698, 
			 "total_energy": -2530.1858509, 
			 "HOMO_LUMO_gap": 0.14613, 
			 "cosmo_polarized_energy": -32.06, 
			 "cosmo_cavitation_energy": 58.26, 
			 "cosmo_dispersion_energy": -40.83, 
			 "cosmo_repulsion_energy": 3.02, 
			 "cosmo_total_nonelectrostatic_energy": 20.45, 
			 "SMD_solvation_energy": 3.46 
		},
		"coords": [
			{
				"x": 4.3388833202,
				"y": 1.9583435738,
				"z": -1.781064397,
				"element": "C" 
			},
			{
				"x": 3.6195150667,
				"y": 1.0475271865,
				"z": -0.908825398,
				"element": "N" 
			},
			{
				"x": 4.0897546686,
				"y": -0.3362457402,
				"z": -1.0412366087,
				"element": "C" 
			},
			{
				"x": 3.7531723142,
				"y": -1.1680545123,
				"z": 0.210012424,
				"element": "C" 
			},
			{
				"x": 2.5085643059,
				"y": -0.718142114,
				"z": 0.8234132897,
				"element": "N" 
			},
			{
				"x": 2.4134096485,
				"y": 0.7061980906,
				"z": 1.1785164286,
				"element": "C" 
			},
			{
				"x": 3.539162668,
				"y": 1.4791750203,
				"z": 0.4787972554,
				"element": "C" 
			},
			{
				"x": 1.5094635597,
				"y": -1.6058014415,
				"z": 1.0394065463,
				"element": "C" 
			},
			{
				"x": 1.5273775621,
				"y": -2.7949327034,
				"z": 0.7482559818,
				"element": "O" 
			},
			{
				"x": 0.4416898567,
				"y": -0.9871801282,
				"z": 1.6513876993,
				"element": "O" 
			},
			{
				"x": -0.6944079767,
				"y": -1.8079612662,
				"z": 1.9558470189,
				"element": "C" 
			},
			{
				"x": -1.8883785012,
				"y": -1.3011077695,
				"z": 1.2992077268,
				"element": "N" 
			},
			{
				"x": -2.8948066834,
				"y": -0.9809965664,
				"z": 2.2430360966,
				"element": "C" 
			},
			{
				"x": -4.0321382348,
				"y": -0.6335878451,
				"z": 2.025872501,
				"element": "O" 
			},
			{
				"x": -2.2839658606,
				"y": -1.2332498094,
				"z": 3.5802412554,
				"element": "C" 
			},
			{
				"x": -1.0347213726,
				"y": -1.709494954,
				"z": 3.427002802,
				"element": "C" 
			},
			{
				"x": 0.1233988239,
				"y": -2.2211532946,
				"z": 4.6360443605,
				"element": "S" 
			},
			{
				"x": -0.9904562362,
				"y": -2.3099616726,
				"z": 6.0971521237,
				"element": "C" 
			},
			{
				"x": -1.8858574895,
				"y": -1.0809512908,
				"z": 6.2760828705,
				"element": "C" 
			},
			{
				"x": -3.2226125669,
				"y": -0.9229421335,
				"z": 5.0252710942,
				"element": "S" 
			},
			{
				"x": -2.0084044154,
				"y": -1.1869630911,
				"z": -0.0986953412,
				"element": "C" 
			},
			{
				"x": -2.8435812046,
				"y": -0.2763115514,
				"z": -0.554917496,
				"element": "N" 
			},
			{
				"x": -3.0048108347,
				"y": -0.1633319762,
				"z": -1.8933880912,
				"element": "C" 
			},
			{
				"x": -3.8867282286,
				"y": 0.7896074362,
				"z": -2.3148876548,
				"element": "N" 
			},
			{
				"x": -4.0600658899,
				"y": 0.9315632913,
				"z": -3.5942899348,
				"element": "C" 
			},
			{
				"x": -5.2048194471,
				"y": 2.1730729526,
				"z": -4.1186949839,
				"element": "Cl" 
			},
			{
				"x": -3.4144551684,
				"y": 0.18337385,
				"z": -4.6132012033,
				"element": "C" 
			},
			{
				"x": -2.5182512836,
				"y": -0.7754566421,
				"z": -4.2077666401,
				"element": "C" 
			},
			{
				"x": -2.2851124301,
				"y": -0.9747635092,
				"z": -2.8253193011,
				"element": "C" 
			},
			{
				"x": -1.3752037301,
				"y": -1.9223812059,
				"z": -2.2955460149,
				"element": "C" 
			},
			{
				"x": -1.2293251713,
				"y": -2.043358927,
				"z": -0.9377259737,
				"element": "C" 
			},
			{
				"x": 3.8893645141,
				"y": 2.9552388823,
				"z": -1.7334467728,
				"element": "H" 
			},
			{
				"x": 5.4142711758,
				"y": 2.0511215532,
				"z": -1.5334533126,
				"element": "H" 
			},
			{
				"x": 4.2661116628,
				"y": 1.6068283189,
				"z": -2.8159143319,
				"element": "H" 
			},
			{
				"x": 3.6250067644,
				"y": -0.7774037174,
				"z": -1.9322044638,
				"element": "H" 
			},
			{
				"x": 5.1852384518,
				"y": -0.3862766292,
				"z": -1.1887953983,
				"element": "H" 
			},
			{
				"x": 3.6424990741,
				"y": -2.2229784125,
				"z": -0.0384430517,
				"element": "H" 
			},
			{
				"x": 4.5632488305,
				"y": -1.0845057343,
				"z": 0.9457922991,
				"element": "H" 
			},
			{
				"x": 2.4712609098,
				"y": 0.8412769826,
				"z": 2.2663946303,
				"element": "H" 
			},
			{
				"x": 1.4471621882,
				"y": 1.0867068598,
				"z": 0.8416440214,
				"element": "H" 
			},
			{
				"x": 4.4955776579,
				"y": 1.3696491363,
				"z": 1.0270428285,
				"element": "H" 
			},
			{
				"x": 3.2883491908,
				"y": 2.544181788,
				"z": 0.5053556294,
				"element": "H" 
			},
			{
				"x": -0.4516551,
				"y": -2.8323825326,
				"z": 1.6607900386,
				"element": "H" 
			},
			{
				"x": -1.5871391863,
				"y": -3.2222807105,
				"z": 6.0342211108,
				"element": "H" 
			},
			{
				"x": -0.3092400206,
				"y": -2.4007794359,
				"z": 6.9483106882,
				"element": "H" 
			},
			{
				"x": -2.4148508227,
				"y": -1.1525335632,
				"z": 7.2312061487,
				"element": "H" 
			},
			{
				"x": -1.2885306927,
				"y": -0.166540942,
				"z": 6.2851937818,
				"element": "H" 
			},
			{
				"x": -3.6299613013,
				"y": 0.3747263831,
				"z": -5.6569787178,
				"element": "H" 
			},
			{
				"x": -1.9866192094,
				"y": -1.3822866986,
				"z": -4.9363786966,
				"element": "H" 
			},
			{
				"x": -0.8025256453,
				"y": -2.5546423545,
				"z": -2.9691004779,
				"element": "H" 
			},
			{
				"x": -0.5304575106,
				"y": -2.7581504297,
				"z": -0.5204243891,
				"element": "H" 
			}
		],
		 "valence_orbital": [ 
			{
				"type": "occ",
				"energy": -0.25259,
				"method": "rhf"
			},
			{
				"type": "occ",
				"energy": -0.2434,
				"method": "rhf"
			},
			{
				"type": "occ",
				"energy": -0.23735,
				"method": "rhf"
			},
			{
				"type": "occ",
				"energy": -0.22063,
				"method": "rhf"
			},
			{
				"type": "occ",
				"energy": -0.21257,
				"method": "rhf"
			},
			{
				"type": "unocc",
				"energy": -0.06644,
				"method": "rhf"
			},
			{
				"type": "unocc",
				"energy": -0.04562,
				"method": "rhf"
			},
			{
				"type": "unocc",
				"energy": -0.02484,
				"method": "rhf"
			},
			{
				"type": "unocc",
				"energy": 0.00501,
				"method": "rhf"
			},
			{
				"type": "unocc",
				"energy": 0.0128,
				"method": "rhf"
			}
		],
		"cosmo_sigma_profile": { 
			"-0.025": 0.0,
			"-0.024": 0.0,
			"-0.023": 0.0,
			"-0.022": 0.0,
			"-0.021": 0.0,
			"-0.02": 0.0,
			"-0.019": 0.0,
			"-0.018": 0.0,
			"-0.017": 0.0,
			"-0.016": 0.0,
			"-0.015": 0.0,
			"-0.014": 0.0,
			"-0.013": 0.0,
			"-0.012": 0.0,
			"-0.011": 0.0,
			"-0.01": 0.113451274726,
			"-0.009": 5.1609874549,
			"-0.008": 14.9601426163,
			"-0.007": 16.6148860654,
			"-0.006": 17.3670904214,
			"-0.005": 26.8920621786,
			"-0.004": 37.774361793,
			"-0.003": 40.3668239622,
			"-0.002": 48.0743015903,
			"-0.001": 51.8820991172,
			"0.0": 41.0467392273,
			"0.001": 25.6380159544,
			"0.002": 19.7363116695,
			"0.003": 20.5704057256,
			"0.004": 22.7880253169,
			"0.005": 15.9411573809,
			"0.006": 11.3371627664,
			"0.007": 8.62983838531,
			"0.008": 5.8198258595,
			"0.009": 5.01044733981,
			"0.01": 5.55444209683,
			"0.011": 6.68155407364,
			"0.012": 8.76360658405,
			"0.013": 4.34763950772,
			"0.014": 2.54463020364,
			"0.015": 3.06269489362,
			"0.016": 1.90295413492,
			"0.017": 0.992694672647,
			"0.018": 0.195328912517,
			"0.019": 0.0,
			"0.02": 0.0,
			"0.021": 0.0,
			"0.022": 0.0,
			"0.023": 0.0,
			"0.024": 0.0,
			"0.025": 0.0
		}
	}
}
