{
	 "smiles": "CC1=C(N)C(C)=NO1", 
	 "Tm": 326.15, 
	 "num_atms": 16, 
	 "gaussian": { 
		 "optdone": 1, 
		 "sigma_profile": "yes", 
		 "theory": "DFT", 
		 "functional": "B3LYP", 
		 "basiset": "6-31G**", 
		 "properties": { 
			 "R2extent": 1043.3823, 
			 "electric_dipole_moment_norm": 3.96832002868, 
			 "electric_quadrupole_moment_norm": 9.06980678736, 
			 "total_energy": -380.034515606, 
			 "HOMO_LUMO_gap": 0.21466, 
			 "cosmo_polarized_energy": -12.47, 
			 "cosmo_cavitation_energy": 19.88, 
			 "cosmo_dispersion_energy": -14.69, 
			 "cosmo_repulsion_energy": 1.24, 
			 "cosmo_total_nonelectrostatic_energy": 6.43, 
			 "SMD_solvation_energy": 3.58 
		},
		"coords": [
			{
				"x": -0.6773141636,
				"y": 0.5861238943,
				"z": -2.2261469943,
				"element": "C" 
			},
			{
				"x": -0.7794018792,
				"y": -0.0022825422,
				"z": -0.8624902486,
				"element": "C" 
			},
			{
				"x": 0.0625792997,
				"y": -0.0402433135,
				"z": 0.2132845883,
				"element": "C" 
			},
			{
				"x": 1.3288974092,
				"y": 0.5430604133,
				"z": 0.4014078182,
				"element": "N" 
			},
			{
				"x": -0.6796998401,
				"y": -0.7525595369,
				"z": 1.2108660255,
				"element": "C" 
			},
			{
				"x": -0.2457204433,
				"y": -1.0865399667,
				"z": 2.602544547,
				"element": "C" 
			},
			{
				"x": -1.8624804504,
				"y": -1.1125863714,
				"z": 0.7648845639,
				"element": "N" 
			},
			{
				"x": -1.941539411,
				"y": -0.6308166457,
				"z": -0.5410490093,
				"element": "O" 
			},
			{
				"x": -1.2516276606,
				"y": 1.5158310424,
				"z": -2.3169270548,
				"element": "H" 
			},
			{
				"x": -1.0571307988,
				"y": -0.1132298433,
				"z": -2.9775132357,
				"element": "H" 
			},
			{
				"x": 0.365922988,
				"y": 0.8114886794,
				"z": -2.468767022,
				"element": "H" 
			},
			{
				"x": 1.6971914618,
				"y": 0.9603153694,
				"z": -0.4455940755,
				"element": "H" 
			},
			{
				"x": 2.0104757703,
				"y": -0.1134741209,
				"z": 0.7679438894,
				"element": "H" 
			},
			{
				"x": 0.6116904393,
				"y": -1.7705601274,
				"z": 2.6018921138,
				"element": "H" 
			},
			{
				"x": 0.057030573,
				"y": -0.1814010284,
				"z": 3.1398651338,
				"element": "H" 
			},
			{
				"x": -1.0635732942,
				"y": -1.5653259021,
				"z": 3.1445989604,
				"element": "H" 
			}
		],
		 "valence_orbital": [ 
			{
				"type": "occ",
				"energy": -0.36805,
				"method": "rhf"
			},
			{
				"type": "occ",
				"energy": -0.32717,
				"method": "rhf"
			},
			{
				"type": "occ",
				"energy": -0.28726,
				"method": "rhf"
			},
			{
				"type": "occ",
				"energy": -0.26155,
				"method": "rhf"
			},
			{
				"type": "occ",
				"energy": -0.20822,
				"method": "rhf"
			},
			{
				"type": "unocc",
				"energy": 0.00644,
				"method": "rhf"
			},
			{
				"type": "unocc",
				"energy": 0.05885,
				"method": "rhf"
			},
			{
				"type": "unocc",
				"energy": 0.08039,
				"method": "rhf"
			},
			{
				"type": "unocc",
				"energy": 0.09603,
				"method": "rhf"
			},
			{
				"type": "unocc",
				"energy": 0.12494,
				"method": "rhf"
			}
		],
		"cosmo_sigma_profile": { 
			"-0.025": 0.0,
			"-0.024": 0.0,
			"-0.023": 0.0,
			"-0.022": 0.0,
			"-0.021": 0.0,
			"-0.02": 0.0,
			"-0.019": 0.0,
			"-0.018": 0.0,
			"-0.017": 0.0,
			"-0.016": 0.0,
			"-0.015": 0.0,
			"-0.014": 0.0,
			"-0.013": 0.0109124915916,
			"-0.012": 1.16349877296,
			"-0.011": 3.12738668165,
			"-0.01": 3.02353510982,
			"-0.009": 3.69465978538,
			"-0.008": 4.08961436041,
			"-0.007": 3.66665677004,
			"-0.006": 4.67841506364,
			"-0.005": 11.3613424205,
			"-0.004": 12.4172234918,
			"-0.003": 12.0214257578,
			"-0.002": 14.9440204041,
			"-0.001": 15.6390380975,
			"0.0": 8.90140047292,
			"0.001": 5.29386145286,
			"0.002": 6.47457284769,
			"0.003": 7.32884820907,
			"0.004": 3.97361205417,
			"0.005": 4.46563863975,
			"0.006": 3.10159411806,
			"0.007": 2.69992923048,
			"0.008": 3.39697186332,
			"0.009": 5.23645269179,
			"0.01": 5.33590302787,
			"0.011": 2.13477841046,
			"0.012": 2.07413960888,
			"0.013": 2.26836135751,
			"0.014": 1.35554416287,
			"0.015": 1.90097689456,
			"0.016": 0.794377862579,
			"0.017": 0.000527606967591,
			"0.018": 0.0,
			"0.019": 0.0,
			"0.02": 0.0,
			"0.021": 0.0,
			"0.022": 0.0,
			"0.023": 0.0,
			"0.024": 0.0,
			"0.025": 0.0
		}
	}
}
