{
	 "smiles": "O=C(NC1=NC(=CS1)C1=CC=CC=C1)C1=CC=CC=C1", 
	 "Tm": 396.15, 
	 "num_atms": 32, 
	 "gaussian": { 
		 "optdone": 1, 
		 "sigma_profile": "yes", 
		 "theory": "DFT", 
		 "functional": "B3LYP", 
		 "basiset": "6-31G**", 
		 "properties": { 
			 "R2extent": 9151.9498, 
			 "electric_dipole_moment_norm": 3.89495343489, 
			 "electric_quadrupole_moment_norm": 25.0592683175, 
			 "total_energy": -1199.8579572, 
			 "HOMO_LUMO_gap": 0.15383, 
			 "cosmo_polarized_energy": -19.51, 
			 "cosmo_cavitation_energy": 39.02, 
			 "cosmo_dispersion_energy": -28.79, 
			 "cosmo_repulsion_energy": 2.13, 
			 "cosmo_total_nonelectrostatic_energy": 12.35, 
			 "SMD_solvation_energy": 6.02 
		},
		"coords": [
			{
				"x": 1.6877701047,
				"y": 1.2124352934,
				"z": 0.2023388328,
				"element": "O" 
			},
			{
				"x": 0.9090388782,
				"y": 2.1191353977,
				"z": 0.4247217522,
				"element": "C" 
			},
			{
				"x": -0.483291602,
				"y": 1.9599208883,
				"z": 0.4153273739,
				"element": "N" 
			},
			{
				"x": -1.173489148,
				"y": 0.7706227908,
				"z": 0.222355504,
				"element": "C" 
			},
			{
				"x": -0.7128406302,
				"y": -0.420437964,
				"z": 0.4128580066,
				"element": "N" 
			},
			{
				"x": -1.6685143117,
				"y": -1.3879845656,
				"z": 0.1419391813,
				"element": "C" 
			},
			{
				"x": -2.8871709552,
				"y": -0.8989830769,
				"z": -0.2533807949,
				"element": "C" 
			},
			{
				"x": -2.8629696566,
				"y": 0.8376772092,
				"z": -0.3187722168,
				"element": "S" 
			},
			{
				"x": -1.295163735,
				"y": -2.8072757227,
				"z": 0.2983657207,
				"element": "C" 
			},
			{
				"x": 0.0466478318,
				"y": -3.1444996979,
				"z": 0.5422334898,
				"element": "C" 
			},
			{
				"x": 0.4254469987,
				"y": -4.4784160982,
				"z": 0.684063272,
				"element": "C" 
			},
			{
				"x": -0.5241690051,
				"y": -5.4970024425,
				"z": 0.5874136854,
				"element": "C" 
			},
			{
				"x": -1.8618001489,
				"y": -5.1705059163,
				"z": 0.3491660111,
				"element": "C" 
			},
			{
				"x": -2.2444584099,
				"y": -3.8390603728,
				"z": 0.2077384656,
				"element": "C" 
			},
			{
				"x": 1.3620136783,
				"y": 3.5236297951,
				"z": 0.7079293448,
				"element": "C" 
			},
			{
				"x": 0.5968198853,
				"y": 4.460414647,
				"z": 1.4183788649,
				"element": "C" 
			},
			{
				"x": 1.0940393773,
				"y": 5.7430973973,
				"z": 1.6510038833,
				"element": "C" 
			},
			{
				"x": 2.3571021456,
				"y": 6.1001401088,
				"z": 1.1759903665,
				"element": "C" 
			},
			{
				"x": 3.1299412062,
				"y": 5.166318191,
				"z": 0.4801137867,
				"element": "C" 
			},
			{
				"x": 2.6389465449,
				"y": 3.8831856987,
				"z": 0.2542943561,
				"element": "C" 
			},
			{
				"x": -1.0334137446,
				"y": 2.8054259572,
				"z": 0.3905902066,
				"element": "H" 
			},
			{
				"x": -3.7844406117,
				"y": -1.4373208921,
				"z": -0.5182910016,
				"element": "H" 
			},
			{
				"x": 0.7777171914,
				"y": -2.3469072839,
				"z": 0.6146636733,
				"element": "H" 
			},
			{
				"x": 1.4677127899,
				"y": -4.7219395296,
				"z": 0.8701649673,
				"element": "H" 
			},
			{
				"x": -0.2273163468,
				"y": -6.5359210379,
				"z": 0.6989422857,
				"element": "H" 
			},
			{
				"x": -2.609986376,
				"y": -5.9549739031,
				"z": 0.2778252341,
				"element": "H" 
			},
			{
				"x": -3.2907254331,
				"y": -3.6036164207,
				"z": 0.0356790839,
				"element": "H" 
			},
			{
				"x": -0.369862423,
				"y": 4.1861619605,
				"z": 1.8323314754,
				"element": "H" 
			},
			{
				"x": 0.4994283948,
				"y": 6.4584509112,
				"z": 2.211341893,
				"element": "H" 
			},
			{
				"x": 2.7418302601,
				"y": 7.0998693986,
				"z": 1.3554393736,
				"element": "H" 
			},
			{
				"x": 4.1162799323,
				"y": 5.4391855251,
				"z": 0.1167417166,
				"element": "H" 
			},
			{
				"x": 3.2266773184,
				"y": 3.1382737543,
				"z": -0.2713077938,
				"element": "H" 
			}
		],
		 "valence_orbital": [ 
			{
				"type": "occ",
				"energy": -0.26506,
				"method": "rhf"
			},
			{
				"type": "occ",
				"energy": -0.25459,
				"method": "rhf"
			},
			{
				"type": "occ",
				"energy": -0.25144,
				"method": "rhf"
			},
			{
				"type": "occ",
				"energy": -0.24337,
				"method": "rhf"
			},
			{
				"type": "occ",
				"energy": -0.20784,
				"method": "rhf"
			},
			{
				"type": "unocc",
				"energy": -0.05401,
				"method": "rhf"
			},
			{
				"type": "unocc",
				"energy": -0.02949,
				"method": "rhf"
			},
			{
				"type": "unocc",
				"energy": -0.01837,
				"method": "rhf"
			},
			{
				"type": "unocc",
				"energy": -0.00174,
				"method": "rhf"
			},
			{
				"type": "unocc",
				"energy": 0.0024,
				"method": "rhf"
			}
		],
		"cosmo_sigma_profile": { 
			"-0.025": 0.0,
			"-0.024": 0.0,
			"-0.023": 0.0,
			"-0.022": 0.0,
			"-0.021": 0.0,
			"-0.02": 0.0,
			"-0.019": 0.0,
			"-0.018": 0.0,
			"-0.017": 0.288263654527,
			"-0.016": 1.11734674408,
			"-0.015": 1.41655603093,
			"-0.014": 0.864991068699,
			"-0.013": 1.73727881482,
			"-0.012": 1.04334772022,
			"-0.011": 1.354103019,
			"-0.01": 1.82639174149,
			"-0.009": 4.50372659579,
			"-0.008": 3.50708099119,
			"-0.007": 6.48581438784,
			"-0.006": 16.1780233774,
			"-0.005": 21.7720848136,
			"-0.004": 21.5219952828,
			"-0.003": 20.7684934076,
			"-0.002": 18.2795608353,
			"-0.001": 20.6566305455,
			"0.0": 20.7411174045,
			"0.001": 22.604103809,
			"0.002": 26.986341843,
			"0.003": 32.0307833817,
			"0.004": 25.682469134,
			"0.005": 14.3699551909,
			"0.006": 8.23360284377,
			"0.007": 2.36091642769,
			"0.008": 2.26481437121,
			"0.009": 2.16523198824,
			"0.01": 2.30381593319,
			"0.011": 2.44131873624,
			"0.012": 4.84493423341,
			"0.013": 3.85050136755,
			"0.014": 1.52574499593,
			"0.015": 1.06388223044,
			"0.016": 0.141260237514,
			"0.017": 0.0,
			"0.018": 0.0,
			"0.019": 0.0,
			"0.02": 0.0,
			"0.021": 0.0,
			"0.022": 0.0,
			"0.023": 0.0,
			"0.024": 0.0,
			"0.025": 0.0
		}
	}
}
