{
	 "smiles": "CCOC(=O)C1=C(C)C2=C(S1)N=C(CCl)N=C2Cl", 
	 "Tm": 442.15, 
	 "num_atms": 28, 
	 "gaussian": { 
		 "optdone": 1, 
		 "sigma_profile": "yes", 
		 "theory": "DFT", 
		 "functional": "B3LYP", 
		 "basiset": "6-31G**", 
		 "properties": { 
			 "R2extent": 8343.9555, 
			 "electric_dipole_moment_norm": 4.68920946536, 
			 "electric_quadrupole_moment_norm": 17.3659164305, 
			 "total_energy": -2003.74185325, 
			 "HOMO_LUMO_gap": 0.16289, 
			 "cosmo_polarized_energy": -11.05, 
			 "cosmo_cavitation_energy": 37.6, 
			 "cosmo_dispersion_energy": -27.79, 
			 "cosmo_repulsion_energy": 2.14, 
			 "cosmo_total_nonelectrostatic_energy": 11.95, 
			 "SMD_solvation_energy": 3.51 
		},
		"coords": [
			{
				"x": -3.3206528739,
				"y": -2.666470307,
				"z": -2.7475242609,
				"element": "C" 
			},
			{
				"x": -2.6128031305,
				"y": -1.434299385,
				"z": -3.2879513289,
				"element": "C" 
			},
			{
				"x": -2.0046639954,
				"y": -0.6606782222,
				"z": -2.2173251371,
				"element": "O" 
			},
			{
				"x": -0.7820586672,
				"y": -1.0554761835,
				"z": -1.8159900353,
				"element": "C" 
			},
			{
				"x": -0.1793380123,
				"y": -1.9966593752,
				"z": -2.3010737283,
				"element": "O" 
			},
			{
				"x": -0.1983453633,
				"y": -0.2430514686,
				"z": -0.7213054589,
				"element": "C" 
			},
			{
				"x": -0.6592613498,
				"y": 0.8437210546,
				"z": -0.0089972538,
				"element": "C" 
			},
			{
				"x": -1.9916300727,
				"y": 1.5177890568,
				"z": -0.1936786254,
				"element": "C" 
			},
			{
				"x": 0.3276347881,
				"y": 1.258853415,
				"z": 0.9670968194,
				"element": "C" 
			},
			{
				"x": 1.4974727893,
				"y": 0.4496510176,
				"z": 0.9462267691,
				"element": "C" 
			},
			{
				"x": 1.4080119065,
				"y": -0.8026784061,
				"z": -0.2528112203,
				"element": "S" 
			},
			{
				"x": 2.5606188169,
				"y": 0.6044978916,
				"z": 1.7374863528,
				"element": "N" 
			},
			{
				"x": 2.4725988357,
				"y": 1.6104952403,
				"z": 2.6023830983,
				"element": "C" 
			},
			{
				"x": 3.6282488492,
				"y": 1.8232870134,
				"z": 3.5382964189,
				"element": "C" 
			},
			{
				"x": 3.3247406711,
				"y": 1.0013784866,
				"z": 5.1350079873,
				"element": "Cl" 
			},
			{
				"x": 1.4326402241,
				"y": 2.462907897,
				"z": 2.7207982453,
				"element": "N" 
			},
			{
				"x": 0.3985042386,
				"y": 2.2905331666,
				"z": 1.9294086583,
				"element": "C" 
			},
			{
				"x": -0.903757534,
				"y": 3.4507511584,
				"z": 2.1395017429,
				"element": "Cl" 
			},
			{
				"x": -4.066509424,
				"y": -2.3913094306,
				"z": -1.9961879415,
				"element": "H" 
			},
			{
				"x": -3.8325329414,
				"y": -3.1835357407,
				"z": -3.5657983169,
				"element": "H" 
			},
			{
				"x": -2.6033499865,
				"y": -3.3589325713,
				"z": -2.3010388595,
				"element": "H" 
			},
			{
				"x": -1.8361056984,
				"y": -1.7037849464,
				"z": -4.0064983755,
				"element": "H" 
			},
			{
				"x": -3.3134112704,
				"y": -0.7362619141,
				"z": -3.7510926521,
				"element": "H" 
			},
			{
				"x": -2.5779465469,
				"y": 1.0191108376,
				"z": -0.9598052244,
				"element": "H" 
			},
			{
				"x": -2.5550295126,
				"y": 1.515458333,
				"z": 0.744028332,
				"element": "H" 
			},
			{
				"x": -1.8561172826,
				"y": 2.565912159,
				"z": -0.4773951741,
				"element": "H" 
			},
			{
				"x": 4.5355410035,
				"y": 1.3843018199,
				"z": 3.127908782,
				"element": "H" 
			},
			{
				"x": 3.7586015389,
				"y": 2.8817894033,
				"z": 3.7576303867,
				"element": "H" 
			}
		],
		 "valence_orbital": [ 
			{
				"type": "occ",
				"energy": -0.29824,
				"method": "rhf"
			},
			{
				"type": "occ",
				"energy": -0.29677,
				"method": "rhf"
			},
			{
				"type": "occ",
				"energy": -0.28102,
				"method": "rhf"
			},
			{
				"type": "occ",
				"energy": -0.27911,
				"method": "rhf"
			},
			{
				"type": "occ",
				"energy": -0.25247,
				"method": "rhf"
			},
			{
				"type": "unocc",
				"energy": -0.08958,
				"method": "rhf"
			},
			{
				"type": "unocc",
				"energy": -0.05465,
				"method": "rhf"
			},
			{
				"type": "unocc",
				"energy": -0.02967,
				"method": "rhf"
			},
			{
				"type": "unocc",
				"energy": -0.00042,
				"method": "rhf"
			},
			{
				"type": "unocc",
				"energy": 0.02792,
				"method": "rhf"
			}
		],
		"cosmo_sigma_profile": { 
			"-0.025": 0.0,
			"-0.024": 0.0,
			"-0.023": 0.0,
			"-0.022": 0.0,
			"-0.021": 0.0,
			"-0.02": 0.0,
			"-0.019": 0.0,
			"-0.018": 0.0,
			"-0.017": 0.0,
			"-0.016": 0.0,
			"-0.015": 0.0,
			"-0.014": 0.0,
			"-0.013": 0.0,
			"-0.012": 0.0,
			"-0.011": 0.0,
			"-0.01": 0.0,
			"-0.009": 1.04158057602,
			"-0.008": 3.34573752509,
			"-0.007": 4.0379140158,
			"-0.006": 8.8564473619,
			"-0.005": 17.9308134626,
			"-0.004": 26.3639772303,
			"-0.003": 29.957083605,
			"-0.002": 29.924706994,
			"-0.001": 36.0232103054,
			"0.0": 30.3048691901,
			"0.001": 21.9704685801,
			"0.002": 19.968212832,
			"0.003": 18.7987608133,
			"0.004": 12.4726894241,
			"0.005": 14.3244440815,
			"0.006": 11.0403365602,
			"0.007": 4.02321121403,
			"0.008": 3.69416395204,
			"0.009": 3.83628423459,
			"0.01": 3.13807213661,
			"0.011": 5.45019055184,
			"0.012": 0.783996356361,
			"0.013": 0.0,
			"0.014": 0.0,
			"0.015": 0.0,
			"0.016": 0.0,
			"0.017": 0.0,
			"0.018": 0.0,
			"0.019": 0.0,
			"0.02": 0.0,
			"0.021": 0.0,
			"0.022": 0.0,
			"0.023": 0.0,
			"0.024": 0.0,
			"0.025": 0.0
		}
	}
}
