{
	 "smiles": "CC(C)CCC[C@@H](C)CCC[C@@H](C)CCC[C@]1(C)CCC2=C(O1)C(C)=C(C)C(OC(C)=O)=C2C", 
	 "Tm": 245.15, 
	 "num_atms": 86, 
	 "gaussian": { 
		 "optdone": 1, 
		 "sigma_profile": "yes", 
		 "theory": "DFT", 
		 "functional": "B3LYP", 
		 "basiset": "6-31G**", 
		 "properties": { 
			 "R2extent": 18797.1385, 
			 "electric_dipole_moment_norm": 1.87665165921, 
			 "electric_quadrupole_moment_norm": 17.9775337524, 
			 "total_energy": -1438.39644476, 
			 "HOMO_LUMO_gap": 0.20419, 
			 "cosmo_polarized_energy": -11.24, 
			 "cosmo_cavitation_energy": 79.58, 
			 "cosmo_dispersion_energy": -43.9, 
			 "cosmo_repulsion_energy": 3.32, 
			 "cosmo_total_nonelectrostatic_energy": 39.0, 
			 "SMD_solvation_energy": 12.51 
		},
		"coords": [
			{
				"x": 0.4252378521,
				"y": 5.0622320888,
				"z": 1.2692996706,
				"element": "C" 
			},
			{
				"x": -0.4723811352,
				"y": 3.8317159693,
				"z": 1.0654176389,
				"element": "C" 
			},
			{
				"x": -1.3685920282,
				"y": 4.0016712825,
				"z": -0.1716178692,
				"element": "C" 
			},
			{
				"x": 0.3267936743,
				"y": 2.5093082992,
				"z": 1.0426643925,
				"element": "C" 
			},
			{
				"x": 1.341952705,
				"y": 2.3312095696,
				"z": -0.0968022367,
				"element": "C" 
			},
			{
				"x": 2.0461464322,
				"y": 0.9675096802,
				"z": -0.0307345287,
				"element": "C" 
			},
			{
				"x": 3.1630612697,
				"y": 0.7460695109,
				"z": -1.0702386059,
				"element": "C" 
			},
			{
				"x": 3.9184926098,
				"y": -0.5620714261,
				"z": -0.7791265548,
				"element": "C" 
			},
			{
				"x": 2.688103588,
				"y": 0.8768186203,
				"z": -2.539799911,
				"element": "C" 
			},
			{
				"x": 1.4755858263,
				"y": 0.0511495024,
				"z": -3.0184812373,
				"element": "C" 
			},
			{
				"x": 1.6966185409,
				"y": -1.4637072317,
				"z": -3.1758539362,
				"element": "C" 
			},
			{
				"x": 0.6933004039,
				"y": -2.1624635916,
				"z": -4.1213849816,
				"element": "C" 
			},
			{
				"x": 1.0997777638,
				"y": -3.6255250801,
				"z": -4.357699363,
				"element": "C" 
			},
			{
				"x": -0.8067546875,
				"y": -2.0278585134,
				"z": -3.7465719733,
				"element": "C" 
			},
			{
				"x": -1.3917099919,
				"y": -2.9318439472,
				"z": -2.6402710755,
				"element": "C" 
			},
			{
				"x": -0.9804056834,
				"y": -2.5911550833,
				"z": -1.1988089964,
				"element": "C" 
			},
			{
				"x": -1.695470301,
				"y": -3.4012306612,
				"z": -0.0896181169,
				"element": "C" 
			},
			{
				"x": -1.3282342492,
				"y": -4.8848199055,
				"z": -0.1480898429,
				"element": "C" 
			},
			{
				"x": -3.217974307,
				"y": -3.2124916209,
				"z": -0.0571937357,
				"element": "C" 
			},
			{
				"x": -3.5988322895,
				"y": -1.7498123107,
				"z": 0.1844770191,
				"element": "C" 
			},
			{
				"x": -2.7797881734,
				"y": -1.1429776009,
				"z": 1.3058298058,
				"element": "C" 
			},
			{
				"x": -1.6158707979,
				"y": -1.7929669029,
				"z": 1.7492951318,
				"element": "C" 
			},
			{
				"x": -1.158152534,
				"y": -2.9584811965,
				"z": 1.1840880654,
				"element": "O" 
			},
			{
				"x": -0.8568223145,
				"y": -1.2995719416,
				"z": 2.8283933672,
				"element": "C" 
			},
			{
				"x": 0.3798282088,
				"y": -2.0325245069,
				"z": 3.2923575177,
				"element": "C" 
			},
			{
				"x": -1.270628115,
				"y": -0.1202203459,
				"z": 3.4680648647,
				"element": "C" 
			},
			{
				"x": -0.4828815853,
				"y": 0.4316259961,
				"z": 4.6317487546,
				"element": "C" 
			},
			{
				"x": -2.4190348269,
				"y": 0.5289980166,
				"z": 2.9999247092,
				"element": "C" 
			},
			{
				"x": -2.7735241675,
				"y": 1.7558843653,
				"z": 3.5992351931,
				"element": "O" 
			},
			{
				"x": -3.8072884151,
				"y": 1.7636128347,
				"z": 4.4971511898,
				"element": "C" 
			},
			{
				"x": -4.0075302764,
				"y": 3.1585185251,
				"z": 5.0397774703,
				"element": "C" 
			},
			{
				"x": -4.4519500409,
				"y": 0.7883337923,
				"z": 4.7945571974,
				"element": "O" 
			},
			{
				"x": -3.1781004206,
				"y": 0.0542598336,
				"z": 1.9283506979,
				"element": "C" 
			},
			{
				"x": -4.4050572204,
				"y": 0.8024928309,
				"z": 1.464262819,
				"element": "C" 
			},
			{
				"x": -0.1754575559,
				"y": 5.9702129776,
				"z": 1.3941030845,
				"element": "H" 
			},
			{
				"x": 1.0548442365,
				"y": 4.9539431961,
				"z": 2.1598632461,
				"element": "H" 
			},
			{
				"x": 1.0876614775,
				"y": 5.2259398561,
				"z": 0.4116813879,
				"element": "H" 
			},
			{
				"x": -1.1373860376,
				"y": 3.7612332558,
				"z": 1.9380226884,
				"element": "H" 
			},
			{
				"x": -2.009797146,
				"y": 4.8847341959,
				"z": -0.0720406894,
				"element": "H" 
			},
			{
				"x": -2.0188182431,
				"y": 3.1310753313,
				"z": -0.3137603367,
				"element": "H" 
			},
			{
				"x": -0.7784128178,
				"y": 4.1307903229,
				"z": -1.0860056374,
				"element": "H" 
			},
			{
				"x": -0.3875941141,
				"y": 1.6763057753,
				"z": 1.0112260107,
				"element": "H" 
			},
			{
				"x": 0.8566278602,
				"y": 2.4109352224,
				"z": 2.0009264724,
				"element": "H" 
			},
			{
				"x": 2.0987546694,
				"y": 3.1265862579,
				"z": -0.0573689776,
				"element": "H" 
			},
			{
				"x": 0.8353476657,
				"y": 2.4391843477,
				"z": -1.0635317658,
				"element": "H" 
			},
			{
				"x": 2.4857382228,
				"y": 0.8499102325,
				"z": 0.9700134772,
				"element": "H" 
			},
			{
				"x": 1.2972890322,
				"y": 0.1674906421,
				"z": -0.1161363769,
				"element": "H" 
			},
			{
				"x": 3.8911881471,
				"y": 1.5605351183,
				"z": -0.9317352224,
				"element": "H" 
			},
			{
				"x": 4.3953280439,
				"y": -0.5197347243,
				"z": 0.2066906089,
				"element": "H" 
			},
			{
				"x": 3.2536739892,
				"y": -1.4311956641,
				"z": -0.7801321454,
				"element": "H" 
			},
			{
				"x": 4.7043915881,
				"y": -0.7432460601,
				"z": -1.5207710636,
				"element": "H" 
			},
			{
				"x": 2.4487191737,
				"y": 1.9329448554,
				"z": -2.7167521065,
				"element": "H" 
			},
			{
				"x": 3.5422876594,
				"y": 0.6571726856,
				"z": -3.1959544873,
				"element": "H" 
			},
			{
				"x": 0.6179357768,
				"y": 0.2405807112,
				"z": -2.3617211553,
				"element": "H" 
			},
			{
				"x": 1.1872082577,
				"y": 0.4534787823,
				"z": -4.0002378013,
				"element": "H" 
			},
			{
				"x": 1.6948386622,
				"y": -1.9560633911,
				"z": -2.1976116003,
				"element": "H" 
			},
			{
				"x": 2.7016928373,
				"y": -1.6295892966,
				"z": -3.5885517504,
				"element": "H" 
			},
			{
				"x": 0.7897136972,
				"y": -1.6449079594,
				"z": -5.0883705535,
				"element": "H" 
			},
			{
				"x": 2.103516776,
				"y": -3.6850511118,
				"z": -4.7919962924,
				"element": "H" 
			},
			{
				"x": 0.409504329,
				"y": -4.1285279821,
				"z": -5.0445774045,
				"element": "H" 
			},
			{
				"x": 1.1155401318,
				"y": -4.198986468,
				"z": -3.4239283099,
				"element": "H" 
			},
			{
				"x": -1.3762877921,
				"y": -2.2456549173,
				"z": -4.6600434715,
				"element": "H" 
			},
			{
				"x": -1.0291716434,
				"y": -0.9801873792,
				"z": -3.5070437097,
				"element": "H" 
			},
			{
				"x": -1.1502452405,
				"y": -3.9781289908,
				"z": -2.8604166029,
				"element": "H" 
			},
			{
				"x": -2.4838286003,
				"y": -2.8581301138,
				"z": -2.7209955594,
				"element": "H" 
			},
			{
				"x": 0.0926555015,
				"y": -2.7546282033,
				"z": -1.0566079834,
				"element": "H" 
			},
			{
				"x": -1.1512296473,
				"y": -1.5232600516,
				"z": -1.0171893857,
				"element": "H" 
			},
			{
				"x": -1.760259036,
				"y": -5.412376188,
				"z": 0.7068571146,
				"element": "H" 
			},
			{
				"x": -1.7044271975,
				"y": -5.3467957947,
				"z": -1.0650230137,
				"element": "H" 
			},
			{
				"x": -0.2419377459,
				"y": -5.012495304,
				"z": -0.1148913525,
				"element": "H" 
			},
			{
				"x": -3.6094277014,
				"y": -3.8326472688,
				"z": 0.7577773835,
				"element": "H" 
			},
			{
				"x": -3.6694626161,
				"y": -3.5827651696,
				"z": -0.9828129091,
				"element": "H" 
			},
			{
				"x": -3.4697221253,
				"y": -1.1694353801,
				"z": -0.7406421409,
				"element": "H" 
			},
			{
				"x": -4.6658412571,
				"y": -1.6894064984,
				"z": 0.4254125848,
				"element": "H" 
			},
			{
				"x": 0.5162251801,
				"y": -2.9582834577,
				"z": 2.7355367266,
				"element": "H" 
			},
			{
				"x": 0.3202572159,
				"y": -2.2783671916,
				"z": 4.3589899285,
				"element": "H" 
			},
			{
				"x": 1.2805258863,
				"y": -1.4202848935,
				"z": 3.1578109791,
				"element": "H" 
			},
			{
				"x": -0.5648815617,
				"y": -0.2202868584,
				"z": 5.5103102693,
				"element": "H" 
			},
			{
				"x": 0.5827032331,
				"y": 0.5054611308,
				"z": 4.3897412061,
				"element": "H" 
			},
			{
				"x": -0.8333089649,
				"y": 1.4242909111,
				"z": 4.9144864832,
				"element": "H" 
			},
			{
				"x": -4.1919418352,
				"y": 3.859501524,
				"z": 4.2205385208,
				"element": "H" 
			},
			{
				"x": -4.8500251354,
				"y": 3.1608443959,
				"z": 5.7304862694,
				"element": "H" 
			},
			{
				"x": -3.1027835066,
				"y": 3.4938845056,
				"z": 5.5557262515,
				"element": "H" 
			},
			{
				"x": -5.3104319093,
				"y": 0.4200180756,
				"z": 1.9514306661,
				"element": "H" 
			},
			{
				"x": -4.5463455269,
				"y": 0.7165670151,
				"z": 0.3839433578,
				"element": "H" 
			},
			{
				"x": -4.3277596066,
				"y": 1.8646261423,
				"z": 1.7061725482,
				"element": "H" 
			}
		],
		 "valence_orbital": [ 
			{
				"type": "occ",
				"energy": -0.28736,
				"method": "rhf"
			},
			{
				"type": "occ",
				"energy": -0.28398,
				"method": "rhf"
			},
			{
				"type": "occ",
				"energy": -0.26931,
				"method": "rhf"
			},
			{
				"type": "occ",
				"energy": -0.22098,
				"method": "rhf"
			},
			{
				"type": "occ",
				"energy": -0.20037,
				"method": "rhf"
			},
			{
				"type": "unocc",
				"energy": 0.00382,
				"method": "rhf"
			},
			{
				"type": "unocc",
				"energy": 0.01209,
				"method": "rhf"
			},
			{
				"type": "unocc",
				"energy": 0.02627,
				"method": "rhf"
			},
			{
				"type": "unocc",
				"energy": 0.05813,
				"method": "rhf"
			},
			{
				"type": "unocc",
				"energy": 0.07139,
				"method": "rhf"
			}
		],
		"cosmo_sigma_profile": { 
			"-0.025": 0.0,
			"-0.024": 0.0,
			"-0.023": 0.0,
			"-0.022": 0.0,
			"-0.021": 0.0,
			"-0.02": 0.0,
			"-0.019": 0.0,
			"-0.018": 0.0,
			"-0.017": 0.0,
			"-0.016": 0.0,
			"-0.015": 0.0,
			"-0.014": 0.0,
			"-0.013": 0.0,
			"-0.012": 0.0,
			"-0.011": 0.0,
			"-0.01": 0.0,
			"-0.009": 0.0,
			"-0.008": 0.0,
			"-0.007": 0.966051135999,
			"-0.006": 5.51140489158,
			"-0.005": 6.80647001237,
			"-0.004": 22.8291444046,
			"-0.003": 51.3144080595,
			"-0.002": 78.7527197252,
			"-0.001": 117.037868211,
			"0.0": 116.769688748,
			"0.001": 87.604051839,
			"0.002": 55.5343615395,
			"0.003": 23.1831853595,
			"0.004": 10.4234660249,
			"0.005": 7.79458200625,
			"0.006": 6.4147787461,
			"0.007": 4.46432395117,
			"0.008": 2.98877983258,
			"0.009": 2.26384358744,
			"0.01": 2.79726892792,
			"0.011": 3.47307759063,
			"0.012": 4.7778244179,
			"0.013": 0.692304277988,
			"0.014": 0.0,
			"0.015": 0.0,
			"0.016": 0.0,
			"0.017": 0.0,
			"0.018": 0.0,
			"0.019": 0.0,
			"0.02": 0.0,
			"0.021": 0.0,
			"0.022": 0.0,
			"0.023": 0.0,
			"0.024": 0.0,
			"0.025": 0.0
		}
	}
}
