{
	 "smiles": "CC1=CC2=C(S1)C=CC=C2", 
	 "Tm": 325.15, 
	 "num_atms": 18, 
	 "gaussian": { 
		 "optdone": 1, 
		 "sigma_profile": "yes", 
		 "theory": "DFT", 
		 "functional": "B3LYP", 
		 "basiset": "6-31G**", 
		 "properties": { 
			 "R2extent": 2279.6767, 
			 "electric_dipole_moment_norm": 0.962244376445, 
			 "electric_quadrupole_moment_norm": 8.06877327851, 
			 "total_energy": -745.975719639, 
			 "HOMO_LUMO_gap": 0.19181, 
			 "cosmo_polarized_energy": -4.62, 
			 "cosmo_cavitation_energy": 22.92, 
			 "cosmo_dispersion_energy": -17.71, 
			 "cosmo_repulsion_energy": 1.37, 
			 "cosmo_total_nonelectrostatic_energy": 6.58, 
			 "SMD_solvation_energy": 3.43 
		},
		"coords": [
			{
				"x": -1.8169727489,
				"y": -2.3732148774,
				"z": 1.374759878,
				"element": "C" 
			},
			{
				"x": -0.5978861793,
				"y": -1.514241804,
				"z": 1.2315178778,
				"element": "C" 
			},
			{
				"x": 0.5233999649,
				"y": -1.7598581513,
				"z": 0.5021062787,
				"element": "C" 
			},
			{
				"x": 1.5160062861,
				"y": -0.7185259269,
				"z": 0.5828134159,
				"element": "C" 
			},
			{
				"x": 1.0970364949,
				"y": 0.3473110313,
				"z": 1.4173961505,
				"element": "C" 
			},
			{
				"x": -0.5030594873,
				"y": 0.035325954,
				"z": 2.0759446739,
				"element": "S" 
			},
			{
				"x": 1.9034680353,
				"y": 1.466661723,
				"z": 1.6405411214,
				"element": "C" 
			},
			{
				"x": 3.1478582261,
				"y": 1.5200090177,
				"z": 1.0190947001,
				"element": "C" 
			},
			{
				"x": 3.5817496422,
				"y": 0.4726684837,
				"z": 0.1874306141,
				"element": "C" 
			},
			{
				"x": 2.7782936817,
				"y": -0.6388868724,
				"z": -0.0327930565,
				"element": "C" 
			},
			{
				"x": -1.700308026,
				"y": -3.2871000742,
				"z": 0.7859989833,
				"element": "H" 
			},
			{
				"x": -1.9891487046,
				"y": -2.6619708416,
				"z": 2.4180311692,
				"element": "H" 
			},
			{
				"x": -2.7192123135,
				"y": -1.8580377461,
				"z": 1.0254841881,
				"element": "H" 
			},
			{
				"x": 0.6530438479,
				"y": -2.6622949091,
				"z": -0.0866076621,
				"element": "H" 
			},
			{
				"x": 1.5691916797,
				"y": 2.2759315418,
				"z": 2.2826438395,
				"element": "H" 
			},
			{
				"x": 3.7895464947,
				"y": 2.3813186093,
				"z": 1.1796965039,
				"element": "H" 
			},
			{
				"x": 4.5565416532,
				"y": 0.5352287972,
				"z": -0.2873556384,
				"element": "H" 
			},
			{
				"x": 3.117451453,
				"y": -1.4461239551,
				"z": -0.6763030374,
				"element": "H" 
			}
		],
		 "valence_orbital": [ 
			{
				"type": "occ",
				"energy": -0.32749,
				"method": "rhf"
			},
			{
				"type": "occ",
				"energy": -0.31676,
				"method": "rhf"
			},
			{
				"type": "occ",
				"energy": -0.27785,
				"method": "rhf"
			},
			{
				"type": "occ",
				"energy": -0.22719,
				"method": "rhf"
			},
			{
				"type": "occ",
				"energy": -0.21206,
				"method": "rhf"
			},
			{
				"type": "unocc",
				"energy": -0.02025,
				"method": "rhf"
			},
			{
				"type": "unocc",
				"energy": 0.00284,
				"method": "rhf"
			},
			{
				"type": "unocc",
				"energy": 0.02303,
				"method": "rhf"
			},
			{
				"type": "unocc",
				"energy": 0.0549,
				"method": "rhf"
			},
			{
				"type": "unocc",
				"energy": 0.08924,
				"method": "rhf"
			}
		],
		"cosmo_sigma_profile": { 
			"-0.025": 0.0,
			"-0.024": 0.0,
			"-0.023": 0.0,
			"-0.022": 0.0,
			"-0.021": 0.0,
			"-0.02": 0.0,
			"-0.019": 0.0,
			"-0.018": 0.0,
			"-0.017": 0.0,
			"-0.016": 0.0,
			"-0.015": 0.0,
			"-0.014": 0.0,
			"-0.013": 0.0,
			"-0.012": 0.0,
			"-0.011": 0.0,
			"-0.01": 0.0,
			"-0.009": 0.0,
			"-0.008": 0.0,
			"-0.007": 1.00557681975,
			"-0.006": 7.80835179657,
			"-0.005": 17.3270024241,
			"-0.004": 16.8701423604,
			"-0.003": 18.0083867131,
			"-0.002": 14.0978082837,
			"-0.001": 15.6002557591,
			"0.0": 10.9454413257,
			"0.001": 10.4192570865,
			"0.002": 10.6494247153,
			"0.003": 15.5341064347,
			"0.004": 20.50932402,
			"0.005": 17.4090032584,
			"0.006": 9.28502179924,
			"0.007": 0.0932955783869,
			"0.008": 0.0,
			"0.009": 0.0,
			"0.01": 0.0,
			"0.011": 0.0,
			"0.012": 0.0,
			"0.013": 0.0,
			"0.014": 0.0,
			"0.015": 0.0,
			"0.016": 0.0,
			"0.017": 0.0,
			"0.018": 0.0,
			"0.019": 0.0,
			"0.02": 0.0,
			"0.021": 0.0,
			"0.022": 0.0,
			"0.023": 0.0,
			"0.024": 0.0,
			"0.025": 0.0
		}
	}
}
