{
	 "smiles": "O=C1NN=C(N2CCNCC2)C(=O)N1", 
	 "Tm": 424.15, 
	 "num_atms": 25, 
	 "gaussian": { 
		 "optdone": 1, 
		 "sigma_profile": "yes", 
		 "theory": "DFT", 
		 "functional": "B3LYP", 
		 "basiset": "6-31G**", 
		 "properties": { 
			 "R2extent": 3680.8979, 
			 "electric_dipole_moment_norm": 3.04882840941, 
			 "electric_quadrupole_moment_norm": 11.0691538791, 
			 "total_energy": -697.564410749, 
			 "HOMO_LUMO_gap": 0.15812, 
			 "cosmo_polarized_energy": -16.7, 
			 "cosmo_cavitation_energy": 27.7, 
			 "cosmo_dispersion_energy": -21.17, 
			 "cosmo_repulsion_energy": 1.67, 
			 "cosmo_total_nonelectrostatic_energy": 8.21, 
			 "SMD_solvation_energy": 2.12 
		},
		"coords": [
			{
				"x": -3.6679781702,
				"y": 3.1239715827,
				"z": 2.6489947825,
				"element": "O" 
			},
			{
				"x": -2.8623113428,
				"y": 2.5204309464,
				"z": 1.9615718778,
				"element": "C" 
			},
			{
				"x": -3.1536931157,
				"y": 1.8943700658,
				"z": 0.7783020626,
				"element": "N" 
			},
			{
				"x": -2.3082865058,
				"y": 1.1683258621,
				"z": -0.0166490524,
				"element": "N" 
			},
			{
				"x": -1.0488352624,
				"y": 1.0984177597,
				"z": 0.3223692376,
				"element": "C" 
			},
			{
				"x": -0.1735584323,
				"y": 0.4779085763,
				"z": -0.5327744221,
				"element": "N" 
			},
			{
				"x": 1.073291547,
				"y": -0.1804310946,
				"z": -0.0892399016,
				"element": "C" 
			},
			{
				"x": 1.1777822599,
				"y": -1.5641154007,
				"z": -0.7430487693,
				"element": "C" 
			},
			{
				"x": 1.1425371874,
				"y": -1.5335346774,
				"z": -2.2122281451,
				"element": "N" 
			},
			{
				"x": 0.4435977494,
				"y": -0.3593093153,
				"z": -2.753737341,
				"element": "C" 
			},
			{
				"x": -0.7017142875,
				"y": 0.0520204686,
				"z": -1.8348197609,
				"element": "C" 
			},
			{
				"x": -0.5175947312,
				"y": 1.7677911538,
				"z": 1.556010023,
				"element": "C" 
			},
			{
				"x": 0.6514730036,
				"y": 1.7946070666,
				"z": 1.9073304377,
				"element": "O" 
			},
			{
				"x": -1.5088676457,
				"y": 2.3937399351,
				"z": 2.2929932664,
				"element": "N" 
			},
			{
				"x": -4.1130757201,
				"y": 1.9258193913,
				"z": 0.4672981326,
				"element": "H" 
			},
			{
				"x": 1.9406694424,
				"y": 0.4362725988,
				"z": -0.3574927132,
				"element": "H" 
			},
			{
				"x": 1.0762407134,
				"y": -0.2737397656,
				"z": 0.9949597949,
				"element": "H" 
			},
			{
				"x": 2.10446446,
				"y": -2.0463988331,
				"z": -0.4155087705,
				"element": "H" 
			},
			{
				"x": 0.3531623012,
				"y": -2.1871711892,
				"z": -0.369717066,
				"element": "H" 
			},
			{
				"x": 2.0852131516,
				"y": -1.5682568633,
				"z": -2.5842446411,
				"element": "H" 
			},
			{
				"x": 0.0307551019,
				"y": -0.6018189519,
				"z": -3.7406109188,
				"element": "H" 
			},
			{
				"x": 1.1041304385,
				"y": 0.5140886218,
				"z": -2.8876975409,
				"element": "H" 
			},
			{
				"x": -1.2597488558,
				"y": 0.8864272262,
				"z": -2.2692055055,
				"element": "H" 
			},
			{
				"x": -1.416374114,
				"y": -0.7765063235,
				"z": -1.7214898837,
				"element": "H" 
			},
			{
				"x": -1.2125791731,
				"y": 2.874591159,
				"z": 3.1343348169,
				"element": "H" 
			}
		],
		 "valence_orbital": [ 
			{
				"type": "occ",
				"energy": -0.28962,
				"method": "rhf"
			},
			{
				"type": "occ",
				"energy": -0.27552,
				"method": "rhf"
			},
			{
				"type": "occ",
				"energy": -0.27323,
				"method": "rhf"
			},
			{
				"type": "occ",
				"energy": -0.2237,
				"method": "rhf"
			},
			{
				"type": "occ",
				"energy": -0.20839,
				"method": "rhf"
			},
			{
				"type": "unocc",
				"energy": -0.05027,
				"method": "rhf"
			},
			{
				"type": "unocc",
				"energy": 0.01586,
				"method": "rhf"
			},
			{
				"type": "unocc",
				"energy": 0.06829,
				"method": "rhf"
			},
			{
				"type": "unocc",
				"energy": 0.079,
				"method": "rhf"
			},
			{
				"type": "unocc",
				"energy": 0.09971,
				"method": "rhf"
			}
		],
		"cosmo_sigma_profile": { 
			"-0.025": 0.0,
			"-0.024": 0.0,
			"-0.023": 0.0,
			"-0.022": 0.0,
			"-0.021": 0.0,
			"-0.02": 0.0,
			"-0.019": 0.0,
			"-0.018": 0.0,
			"-0.017": 0.323395486768,
			"-0.016": 1.80192540314,
			"-0.015": 2.08057863192,
			"-0.014": 2.03113130695,
			"-0.013": 1.56363197263,
			"-0.012": 0.877114342869,
			"-0.011": 1.46127809837,
			"-0.01": 3.06454496949,
			"-0.009": 3.07283146975,
			"-0.008": 2.6430298673,
			"-0.007": 3.7580423376,
			"-0.006": 7.23079789162,
			"-0.005": 10.6452390762,
			"-0.004": 19.4986190168,
			"-0.003": 29.3574244166,
			"-0.002": 22.4847748147,
			"-0.001": 16.4253507676,
			"0.0": 11.0599227103,
			"0.001": 7.25282532015,
			"0.002": 6.28721122369,
			"0.003": 6.61733693699,
			"0.004": 6.82992685782,
			"0.005": 4.23183322203,
			"0.006": 5.38915017132,
			"0.007": 4.39738495586,
			"0.008": 4.50712638011,
			"0.009": 4.14836278424,
			"0.01": 4.43123621417,
			"0.011": 6.21382386218,
			"0.012": 7.85435597794,
			"0.013": 7.07458284762,
			"0.014": 0.984424070558,
			"0.015": 0.549127659821,
			"0.016": 0.173951209861,
			"0.017": 0.743537257316,
			"0.018": 0.490402157711,
			"0.019": 0.0,
			"0.02": 0.0,
			"0.021": 0.0,
			"0.022": 0.0,
			"0.023": 0.0,
			"0.024": 0.0,
			"0.025": 0.0
		}
	}
}
