{
	 "smiles": "COC(=O)C1=CC=C(O)C(=C1)[N+]([O-])=O", 
	 "Tm": 348.15, 
	 "num_atms": 21, 
	 "gaussian": { 
		 "optdone": 1, 
		 "sigma_profile": "yes", 
		 "theory": "DFT", 
		 "functional": "B3LYP", 
		 "basiset": "6-31G**", 
		 "properties": { 
			 "R2extent": 3827.4864, 
			 "electric_dipole_moment_norm": 1.78628278556, 
			 "electric_quadrupole_moment_norm": 14.8034661532, 
			 "total_energy": -739.85712477, 
			 "HOMO_LUMO_gap": 0.15202, 
			 "cosmo_polarized_energy": -10.15, 
			 "cosmo_cavitation_energy": 26.62, 
			 "cosmo_dispersion_energy": -19.82, 
			 "cosmo_repulsion_energy": 1.55, 
			 "cosmo_total_nonelectrostatic_energy": 8.35, 
			 "SMD_solvation_energy": 8.69 
		},
		"coords": [
			{
				"x": 2.5018464193,
				"y": -2.5535839109,
				"z": 1.8801231911,
				"element": "C" 
			},
			{
				"x": 1.3953876761,
				"y": -2.1499373179,
				"z": 1.0562106324,
				"element": "O" 
			},
			{
				"x": 1.0691175132,
				"y": -0.8419257232,
				"z": 1.1283391484,
				"element": "C" 
			},
			{
				"x": 1.6536159531,
				"y": -0.0410913421,
				"z": 1.8320625803,
				"element": "O" 
			},
			{
				"x": -0.0817332718,
				"y": -0.4947077756,
				"z": 0.2516407583,
				"element": "C" 
			},
			{
				"x": -0.5250152157,
				"y": 0.8455874914,
				"z": 0.233452119,
				"element": "C" 
			},
			{
				"x": -1.5871098656,
				"y": 1.2357844516,
				"z": -0.5572726196,
				"element": "C" 
			},
			{
				"x": -2.2593976437,
				"y": 0.3017728124,
				"z": -1.3705589657,
				"element": "C" 
			},
			{
				"x": -3.2771353634,
				"y": 0.7294456147,
				"z": -2.1138468023,
				"element": "O" 
			},
			{
				"x": -1.804922125,
				"y": -1.0436275358,
				"z": -1.3443156972,
				"element": "C" 
			},
			{
				"x": -0.727873702,
				"y": -1.4336438878,
				"z": -0.5409271535,
				"element": "C" 
			},
			{
				"x": -2.4501284846,
				"y": -2.0549002301,
				"z": -2.1555185888,
				"element": "N" 
			},
			{
				"x": -2.0406581774,
				"y": -3.2075516165,
				"z": -2.1151806185,
				"element": "O" 
			},
			{
				"x": -3.4150014615,
				"y": -1.7046245769,
				"z": -2.8760787841,
				"element": "O" 
			},
			{
				"x": 3.4067681114,
				"y": -2.0087179757,
				"z": 1.6005272571,
				"element": "H" 
			},
			{
				"x": 2.2851604381,
				"y": -2.3617868109,
				"z": 2.9337798311,
				"element": "H" 
			},
			{
				"x": 2.625602792,
				"y": -3.6213190581,
				"z": 1.7014651692,
				"element": "H" 
			},
			{
				"x": -0.0067304289,
				"y": 1.5637645817,
				"z": 0.8599800363,
				"element": "H" 
			},
			{
				"x": -1.9355792453,
				"y": 2.262325411,
				"z": -0.5786899792,
				"element": "H" 
			},
			{
				"x": -3.6133785887,
				"y": -0.06061452,
				"z": -2.6054466817,
				"element": "H" 
			},
			{
				"x": -0.4154353294,
				"y": -2.4692480813,
				"z": -0.5522448326,
				"element": "H" 
			}
		],
		 "valence_orbital": [ 
			{
				"type": "occ",
				"energy": -0.31346,
				"method": "rhf"
			},
			{
				"type": "occ",
				"energy": -0.31329,
				"method": "rhf"
			},
			{
				"type": "occ",
				"energy": -0.29446,
				"method": "rhf"
			},
			{
				"type": "occ",
				"energy": -0.28668,
				"method": "rhf"
			},
			{
				"type": "occ",
				"energy": -0.25855,
				"method": "rhf"
			},
			{
				"type": "unocc",
				"energy": -0.10653,
				"method": "rhf"
			},
			{
				"type": "unocc",
				"energy": -0.0567,
				"method": "rhf"
			},
			{
				"type": "unocc",
				"energy": -0.0166,
				"method": "rhf"
			},
			{
				"type": "unocc",
				"energy": 0.05007,
				"method": "rhf"
			},
			{
				"type": "unocc",
				"energy": 0.07965,
				"method": "rhf"
			}
		],
		"cosmo_sigma_profile": { 
			"-0.025": 0.0,
			"-0.024": 0.0,
			"-0.023": 0.0,
			"-0.022": 0.0,
			"-0.021": 0.0,
			"-0.02": 0.0,
			"-0.019": 0.0,
			"-0.018": 0.0,
			"-0.017": 0.0,
			"-0.016": 0.0,
			"-0.015": 0.0,
			"-0.014": 0.0,
			"-0.013": 0.0,
			"-0.012": 0.0,
			"-0.011": 0.208648077138,
			"-0.01": 0.540553725975,
			"-0.009": 0.922704551071,
			"-0.008": 4.88693487308,
			"-0.007": 8.31214530682,
			"-0.006": 13.0242746274,
			"-0.005": 14.1328131042,
			"-0.004": 16.3525608991,
			"-0.003": 18.777538714,
			"-0.002": 18.0754052684,
			"-0.001": 19.9287740755,
			"0.0": 16.8567778095,
			"0.001": 13.3071413271,
			"0.002": 8.58820925317,
			"0.003": 5.83678703805,
			"0.004": 7.01425119487,
			"0.005": 8.35130344309,
			"0.006": 7.31968437748,
			"0.007": 8.22172013259,
			"0.008": 7.10167709085,
			"0.009": 6.78741762512,
			"0.01": 2.75668281189,
			"0.011": 3.48798748694,
			"0.012": 2.9296340895,
			"0.013": 0.0,
			"0.014": 0.0,
			"0.015": 0.0,
			"0.016": 0.0,
			"0.017": 0.0,
			"0.018": 0.0,
			"0.019": 0.0,
			"0.02": 0.0,
			"0.021": 0.0,
			"0.022": 0.0,
			"0.023": 0.0,
			"0.024": 0.0,
			"0.025": 0.0
		}
	}
}
