{
	 "smiles": "ClN1C(=O)N(Cl)C(=O)N(Cl)C1=O", 
	 "Tm": 522.15, 
	 "num_atms": 12, 
	 "gaussian": { 
		 "optdone": 1, 
		 "sigma_profile": "yes", 
		 "theory": "DFT", 
		 "functional": "B3LYP", 
		 "basiset": "6-31G**", 
		 "properties": { 
			 "R2extent": 4083.2151, 
			 "electric_dipole_moment_norm": 0.0004472135955, 
			 "electric_quadrupole_moment_norm": 4.80590037038, 
			 "total_energy": -1884.7154776, 
			 "HOMO_LUMO_gap": 0.19258, 
			 "cosmo_polarized_energy": -11.92, 
			 "cosmo_cavitation_energy": 23.46, 
			 "cosmo_dispersion_energy": -17.95, 
			 "cosmo_repulsion_energy": 1.42, 
			 "cosmo_total_nonelectrostatic_energy": 6.93, 
			 "SMD_solvation_energy": 5.71 
		},
		"coords": [
			{
				"x": 2.3146125463,
				"y": -1.4670665518,
				"z": 3.5669208162,
				"element": "Cl" 
			},
			{
				"x": 1.7225615002,
				"y": -0.5173479296,
				"z": 2.2696961358,
				"element": "N" 
			},
			{
				"x": 1.3178544272,
				"y": 0.7914370605,
				"z": 2.597495177,
				"element": "C" 
			},
			{
				"x": 1.36814907,
				"y": 1.2527554271,
				"z": 3.7055449185,
				"element": "O" 
			},
			{
				"x": 0.847215264,
				"y": 1.4950597426,
				"z": 1.4716175616,
				"element": "N" 
			},
			{
				"x": 0.3268036137,
				"y": 3.1026229945,
				"z": 1.7546752162,
				"element": "Cl" 
			},
			{
				"x": 0.7514341688,
				"y": 1.0404906816,
				"z": 0.1418236683,
				"element": "C" 
			},
			{
				"x": 0.3362829251,
				"y": 1.7064084212,
				"z": -0.7677468948,
				"element": "O" 
			},
			{
				"x": 1.2002356428,
				"y": -0.2877203131,
				"z": 0.0053007726,
				"element": "N" 
			},
			{
				"x": 1.1284512371,
				"y": -0.9456070777,
				"z": -1.5749664723,
				"element": "Cl" 
			},
			{
				"x": 1.7006873331,
				"y": -1.1419401887,
				"z": 1.0073151926,
				"element": "C" 
			},
			{
				"x": 2.0657122718,
				"y": -2.2690922666,
				"z": 0.8088239084,
				"element": "O" 
			}
		],
		 "valence_orbital": [ 
			{
				"type": "occ",
				"energy": -0.34967,
				"method": "rhf"
			},
			{
				"type": "occ",
				"energy": -0.32368,
				"method": "rhf"
			},
			{
				"type": "occ",
				"energy": -0.30679,
				"method": "rhf"
			},
			{
				"type": "occ",
				"energy": -0.3036,
				"method": "rhf"
			},
			{
				"type": "occ",
				"energy": -0.3036,
				"method": "rhf"
			},
			{
				"type": "unocc",
				"energy": -0.11102,
				"method": "rhf"
			},
			{
				"type": "unocc",
				"energy": -0.05792,
				"method": "rhf"
			},
			{
				"type": "unocc",
				"energy": -0.05792,
				"method": "rhf"
			},
			{
				"type": "unocc",
				"energy": -0.04369,
				"method": "rhf"
			},
			{
				"type": "unocc",
				"energy": -0.04369,
				"method": "rhf"
			}
		],
		"cosmo_sigma_profile": { 
			"-0.025": 0.0,
			"-0.024": 0.0,
			"-0.023": 0.0,
			"-0.022": 0.0,
			"-0.021": 0.0,
			"-0.02": 0.0,
			"-0.019": 0.0,
			"-0.018": 0.0,
			"-0.017": 0.0,
			"-0.016": 0.162721244876,
			"-0.015": 1.01100056491,
			"-0.014": 0.720532241375,
			"-0.013": 1.14749311767,
			"-0.012": 1.81972888322,
			"-0.011": 1.18312730159,
			"-0.01": 3.03309014276,
			"-0.009": 5.11412265581,
			"-0.008": 8.09097230744,
			"-0.007": 7.99519446207,
			"-0.006": 8.8733621711,
			"-0.005": 8.92510351255,
			"-0.004": 10.0348964461,
			"-0.003": 8.26310322819,
			"-0.002": 10.1915419176,
			"-0.001": 11.7986942631,
			"0.0": 12.1159228442,
			"0.001": 20.0492796213,
			"0.002": 14.8445265359,
			"0.003": 6.3954834811,
			"0.004": 6.27578845418,
			"0.005": 5.79439965274,
			"0.006": 7.29134453092,
			"0.007": 6.83001646384,
			"0.008": 8.80556953738,
			"0.009": 17.4951183418,
			"0.01": 3.04158138022,
			"0.011": 0.0,
			"0.012": 0.0,
			"0.013": 0.0,
			"0.014": 0.0,
			"0.015": 0.0,
			"0.016": 0.0,
			"0.017": 0.0,
			"0.018": 0.0,
			"0.019": 0.0,
			"0.02": 0.0,
			"0.021": 0.0,
			"0.022": 0.0,
			"0.023": 0.0,
			"0.024": 0.0,
			"0.025": 0.0
		}
	}
}
