{
	 "smiles": "C[C@@]12CCCC1C1CC[C@H]3C[C@@H](CC4=CC=CC=C4)CC[C@]3(C)C1CC2", 
	 "Tm": 421.15, 
	 "num_atms": 64, 
	 "gaussian": { 
		 "optdone": 1, 
		 "sigma_profile": "yes", 
		 "theory": "DFT", 
		 "functional": "B3LYP", 
		 "basiset": "6-31G**", 
		 "properties": { 
			 "R2extent": 15288.048, 
			 "electric_dipole_moment_norm": 0.222444442502, 
			 "electric_quadrupole_moment_norm": 5.41910145504, 
			 "total_energy": -1013.70710529, 
			 "HOMO_LUMO_gap": 0.23745, 
			 "cosmo_polarized_energy": -3.85, 
			 "cosmo_cavitation_energy": 54.41, 
			 "cosmo_dispersion_energy": -38.14, 
			 "cosmo_repulsion_energy": 2.79, 
			 "cosmo_total_nonelectrostatic_energy": 19.07, 
			 "SMD_solvation_energy": 6.85 
		},
		"coords": [
			{
				"x": 4.5358147735,
				"y": 0.2677486532,
				"z": -0.8061320927,
				"element": "C" 
			},
			{
				"x": 3.9083593203,
				"y": 1.488913019,
				"z": -0.0982660478,
				"element": "C" 
			},
			{
				"x": 4.7941519344,
				"y": 2.7252435571,
				"z": -0.38691469,
				"element": "C" 
			},
			{
				"x": 4.3582438975,
				"y": 3.2136544147,
				"z": -1.8020849892,
				"element": "C" 
			},
			{
				"x": 2.9599188472,
				"y": 2.5744932941,
				"z": -2.0690448351,
				"element": "C" 
			},
			{
				"x": 2.5678508351,
				"y": 1.9765061904,
				"z": -0.7069153224,
				"element": "C" 
			},
			{
				"x": 1.3446524897,
				"y": 1.049097948,
				"z": -0.5869920193,
				"element": "C" 
			},
			{
				"x": 1.2064008497,
				"y": -0.135605425,
				"z": -1.5566371949,
				"element": "C" 
			},
			{
				"x": -0.2357773655,
				"y": -0.7028020255,
				"z": -1.4803312735,
				"element": "C" 
			},
			{
				"x": -0.943043622,
				"y": -0.3829175874,
				"z": -0.1432654522,
				"element": "C" 
			},
			{
				"x": -2.2350298886,
				"y": -1.2019706444,
				"z": 0.0262143638,
				"element": "C" 
			},
			{
				"x": -2.9977117104,
				"y": -0.8523341139,
				"z": 1.3166895168,
				"element": "C" 
			},
			{
				"x": -4.2813814264,
				"y": -1.7052409447,
				"z": 1.452303419,
				"element": "C" 
			},
			{
				"x": -5.1937963115,
				"y": -1.2912001019,
				"z": 2.5882486084,
				"element": "C" 
			},
			{
				"x": -6.0009173092,
				"y": -0.1492365006,
				"z": 2.472262433,
				"element": "C" 
			},
			{
				"x": -6.8322161654,
				"y": 0.2540272315,
				"z": 3.5170075464,
				"element": "C" 
			},
			{
				"x": -6.8745259621,
				"y": -0.4817899005,
				"z": 4.7036637538,
				"element": "C" 
			},
			{
				"x": -6.0806284508,
				"y": -1.6218438999,
				"z": 4.8329242218,
				"element": "C" 
			},
			{
				"x": -5.2498252492,
				"y": -2.0205677763,
				"z": 3.7834715328,
				"element": "C" 
			},
			{
				"x": -2.0676197563,
				"y": -0.9786210942,
				"z": 2.5353978254,
				"element": "C" 
			},
			{
				"x": -0.7844342481,
				"y": -0.1525145784,
				"z": 2.357055708,
				"element": "C" 
			},
			{
				"x": 0.0221657047,
				"y": -0.4922078357,
				"z": 1.0749824006,
				"element": "C" 
			},
			{
				"x": 0.5693316582,
				"y": -1.9353862006,
				"z": 1.1946266777,
				"element": "C" 
			},
			{
				"x": 1.1772935826,
				"y": 0.5830830422,
				"z": 0.8990735934,
				"element": "C" 
			},
			{
				"x": 2.5152868436,
				"y": 0.161180051,
				"z": 1.5570358033,
				"element": "C" 
			},
			{
				"x": 3.6541917666,
				"y": 1.1855072571,
				"z": 1.3873251286,
				"element": "C" 
			},
			{
				"x": 5.5209478247,
				"y": 0.0600994355,
				"z": -0.3718628347,
				"element": "H" 
			},
			{
				"x": 4.6838906269,
				"y": 0.4444732069,
				"z": -1.8758333011,
				"element": "H" 
			},
			{
				"x": 3.9383504567,
				"y": -0.6405188516,
				"z": -0.7072294149,
				"element": "H" 
			},
			{
				"x": 5.8652601416,
				"y": 2.5026055335,
				"z": -0.331280398,
				"element": "H" 
			},
			{
				"x": 4.5896824019,
				"y": 3.5028376044,
				"z": 0.3592725715,
				"element": "H" 
			},
			{
				"x": 4.3134139128,
				"y": 4.3063819995,
				"z": -1.8412797756,
				"element": "H" 
			},
			{
				"x": 5.0798445357,
				"y": 2.9069510056,
				"z": -2.5657375682,
				"element": "H" 
			},
			{
				"x": 3.0298610867,
				"y": 1.7989362163,
				"z": -2.8393474595,
				"element": "H" 
			},
			{
				"x": 2.2261885086,
				"y": 3.3052516056,
				"z": -2.4254910249,
				"element": "H" 
			},
			{
				"x": 2.3022334668,
				"y": 2.84210947,
				"z": -0.0765135588,
				"element": "H" 
			},
			{
				"x": 0.4873176204,
				"y": 1.7009281601,
				"z": -0.8080374245,
				"element": "H" 
			},
			{
				"x": 1.4313756678,
				"y": 0.1730729151,
				"z": -2.5833075614,
				"element": "H" 
			},
			{
				"x": 1.9307934244,
				"y": -0.9190766567,
				"z": -1.3132195163,
				"element": "H" 
			},
			{
				"x": -0.2190817499,
				"y": -1.7879774053,
				"z": -1.6400871385,
				"element": "H" 
			},
			{
				"x": -0.8432654481,
				"y": -0.2896588096,
				"z": -2.2954879434,
				"element": "H" 
			},
			{
				"x": -1.261091881,
				"y": 0.6693884364,
				"z": -0.1804875257,
				"element": "H" 
			},
			{
				"x": -2.8829481616,
				"y": -1.0273213886,
				"z": -0.8439466707,
				"element": "H" 
			},
			{
				"x": -2.0074601935,
				"y": -2.2771948768,
				"z": 0.0170498688,
				"element": "H" 
			},
			{
				"x": -3.3075223031,
				"y": 0.2021988655,
				"z": 1.2447815039,
				"element": "H" 
			},
			{
				"x": -3.9953081244,
				"y": -2.7578767823,
				"z": 1.5758784629,
				"element": "H" 
			},
			{
				"x": -4.8352856471,
				"y": -1.6447970248,
				"z": 0.5060794424,
				"element": "H" 
			},
			{
				"x": -5.9807049512,
				"y": 0.4257450474,
				"z": 1.5490214985,
				"element": "H" 
			},
			{
				"x": -7.4514957915,
				"y": 1.1397065776,
				"z": 3.403391312,
				"element": "H" 
			},
			{
				"x": -7.5237742121,
				"y": -0.1711801706,
				"z": 5.5173026842,
				"element": "H" 
			},
			{
				"x": -6.1089702895,
				"y": -2.2045896642,
				"z": 5.7496482346,
				"element": "H" 
			},
			{
				"x": -4.6382368761,
				"y": -2.9132272502,
				"z": 3.8907342302,
				"element": "H" 
			},
			{
				"x": -1.8223759925,
				"y": -2.0377475328,
				"z": 2.6949533803,
				"element": "H" 
			},
			{
				"x": -2.5907720065,
				"y": -0.6497428248,
				"z": 3.4403064031,
				"element": "H" 
			},
			{
				"x": -1.0652514589,
				"y": 0.9092250554,
				"z": 2.3165506131,
				"element": "H" 
			},
			{
				"x": -0.1405269486,
				"y": -0.2650976215,
				"z": 3.2393660942,
				"element": "H" 
			},
			{
				"x": -0.2417033725,
				"y": -2.6664786982,
				"z": 1.2284079195,
				"element": "H" 
			},
			{
				"x": 1.2123744143,
				"y": -2.2115496539,
				"z": 0.3549276542,
				"element": "H" 
			},
			{
				"x": 1.150954995,
				"y": -2.0644614626,
				"z": 2.1118039475,
				"element": "H" 
			},
			{
				"x": 0.847571337,
				"y": 1.4792343537,
				"z": 1.4452046874,
				"element": "H" 
			},
			{
				"x": 2.851333755,
				"y": -0.7980083764,
				"z": 1.1520928739,
				"element": "H" 
			},
			{
				"x": 2.3450401783,
				"y": -0.0124853208,
				"z": 2.6269194118,
				"element": "H" 
			},
			{
				"x": 4.5624412956,
				"y": 0.8082140519,
				"z": 1.8760211267,
				"element": "H" 
			},
			{
				"x": 3.3883447202,
				"y": 2.1209148021,
				"z": 1.9000365797,
				"element": "H" 
			}
		],
		 "valence_orbital": [ 
			{
				"type": "occ",
				"energy": -0.27674,
				"method": "rhf"
			},
			{
				"type": "occ",
				"energy": -0.26443,
				"method": "rhf"
			},
			{
				"type": "occ",
				"energy": -0.26117,
				"method": "rhf"
			},
			{
				"type": "occ",
				"energy": -0.24397,
				"method": "rhf"
			},
			{
				"type": "occ",
				"energy": -0.23468,
				"method": "rhf"
			},
			{
				"type": "unocc",
				"energy": 0.00277,
				"method": "rhf"
			},
			{
				"type": "unocc",
				"energy": 0.00563,
				"method": "rhf"
			},
			{
				"type": "unocc",
				"energy": 0.0681,
				"method": "rhf"
			},
			{
				"type": "unocc",
				"energy": 0.08003,
				"method": "rhf"
			},
			{
				"type": "unocc",
				"energy": 0.08515,
				"method": "rhf"
			}
		],
		"cosmo_sigma_profile": { 
			"-0.025": 0.0,
			"-0.024": 0.0,
			"-0.023": 0.0,
			"-0.022": 0.0,
			"-0.021": 0.0,
			"-0.02": 0.0,
			"-0.019": 0.0,
			"-0.018": 0.0,
			"-0.017": 0.0,
			"-0.016": 0.0,
			"-0.015": 0.0,
			"-0.014": 0.0,
			"-0.013": 0.0,
			"-0.012": 0.0,
			"-0.011": 0.0,
			"-0.01": 0.0,
			"-0.009": 0.0,
			"-0.008": 0.0,
			"-0.007": 0.0,
			"-0.006": 0.784863599477,
			"-0.005": 7.87701004721,
			"-0.004": 12.6227909602,
			"-0.003": 21.4423493563,
			"-0.002": 50.5546371901,
			"-0.001": 86.8226150281,
			"0.0": 84.288142988,
			"0.001": 63.7262505667,
			"0.002": 48.2108433884,
			"0.003": 12.7626753091,
			"0.004": 8.00782249845,
			"0.005": 8.23426508194,
			"0.006": 7.83702201614,
			"0.007": 4.29486066533,
			"0.008": 0.0200950804233,
			"0.009": 0.0,
			"0.01": 0.0,
			"0.011": 0.0,
			"0.012": 0.0,
			"0.013": 0.0,
			"0.014": 0.0,
			"0.015": 0.0,
			"0.016": 0.0,
			"0.017": 0.0,
			"0.018": 0.0,
			"0.019": 0.0,
			"0.02": 0.0,
			"0.021": 0.0,
			"0.022": 0.0,
			"0.023": 0.0,
			"0.024": 0.0,
			"0.025": 0.0
		}
	}
}
