{
	 "smiles": "CC(C)S(=O)(=O)C1=C(C=CC=C1)C(O)=O", 
	 "Tm": 423.15, 
	 "num_atms": 27, 
	 "gaussian": { 
		 "optdone": 1, 
		 "sigma_profile": "yes", 
		 "theory": "DFT", 
		 "functional": "B3LYP", 
		 "basiset": "6-31G**", 
		 "properties": { 
			 "R2extent": 3465.4012, 
			 "electric_dipole_moment_norm": 8.0333192262, 
			 "electric_quadrupole_moment_norm": 23.1797141576, 
			 "total_energy": -1087.31812064, 
			 "HOMO_LUMO_gap": 0.20898, 
			 "cosmo_polarized_energy": -24.47, 
			 "cosmo_cavitation_energy": 30.7, 
			 "cosmo_dispersion_energy": -22.18, 
			 "cosmo_repulsion_energy": 1.67, 
			 "cosmo_total_nonelectrostatic_energy": 10.19, 
			 "SMD_solvation_energy": 5.44 
		},
		"coords": [
			{
				"x": 2.1884062065,
				"y": 0.7667904524,
				"z": -0.7390874557,
				"element": "C" 
			},
			{
				"x": 1.821054585,
				"y": 1.7995364882,
				"z": 0.3242600828,
				"element": "C" 
			},
			{
				"x": 1.1486648019,
				"y": 3.0514145342,
				"z": -0.2373473129,
				"element": "C" 
			},
			{
				"x": 0.8532245521,
				"y": 1.0528356277,
				"z": 1.7116668265,
				"element": "S" 
			},
			{
				"x": 1.6094446597,
				"y": -0.1199502517,
				"z": 2.1796363879,
				"element": "O" 
			},
			{
				"x": 0.5183768829,
				"y": 2.1606717135,
				"z": 2.6217564086,
				"element": "O" 
			},
			{
				"x": -0.7130412741,
				"y": 0.4459717462,
				"z": 1.0219002544,
				"element": "C" 
			},
			{
				"x": -0.9712875704,
				"y": -0.9188821035,
				"z": 0.7964286241,
				"element": "C" 
			},
			{
				"x": -2.2600765132,
				"y": -1.2835006022,
				"z": 0.3748478203,
				"element": "C" 
			},
			{
				"x": -3.2462414128,
				"y": -0.3268816503,
				"z": 0.1492444912,
				"element": "C" 
			},
			{
				"x": -2.9787883699,
				"y": 1.0221206117,
				"z": 0.386205324,
				"element": "C" 
			},
			{
				"x": -1.7196200318,
				"y": 1.4031404148,
				"z": 0.8422301949,
				"element": "C" 
			},
			{
				"x": -0.0393268807,
				"y": -2.0937122184,
				"z": 1.0472520129,
				"element": "C" 
			},
			{
				"x": 1.0063124153,
				"y": -2.2405969028,
				"z": 0.2027766312,
				"element": "O" 
			},
			{
				"x": -0.3004790344,
				"y": -2.9400167569,
				"z": 1.8620463052,
				"element": "O" 
			},
			{
				"x": 2.6811460285,
				"y": -0.1013616811,
				"z": -0.2945240276,
				"element": "H" 
			},
			{
				"x": 1.3028906219,
				"y": 0.4541366551,
				"z": -1.307662245,
				"element": "H" 
			},
			{
				"x": 2.8816539603,
				"y": 1.2142540257,
				"z": -1.4580038285,
				"element": "H" 
			},
			{
				"x": 2.7230941669,
				"y": 2.0844778485,
				"z": 0.8802168133,
				"element": "H" 
			},
			{
				"x": 0.8993433428,
				"y": 3.7550193392,
				"z": 0.559382706,
				"element": "H" 
			},
			{
				"x": 1.8355259673,
				"y": 3.546321713,
				"z": -0.9314394892,
				"element": "H" 
			},
			{
				"x": 0.2381975731,
				"y": 2.8030590492,
				"z": -0.7917815346,
				"element": "H" 
			},
			{
				"x": -2.4810785479,
				"y": -2.3372882488,
				"z": 0.2396885187,
				"element": "H" 
			},
			{
				"x": -4.2304745162,
				"y": -0.6387202409,
				"z": -0.1867158654,
				"element": "H" 
			},
			{
				"x": -3.7520493534,
				"y": 1.7705343238,
				"z": 0.2441581566,
				"element": "H" 
			},
			{
				"x": -1.5179564019,
				"y": 2.4361725349,
				"z": 1.1013083185,
				"element": "H" 
			},
			{
				"x": 1.0754841424,
				"y": -1.4754464214,
				"z": -0.3835441184,
				"element": "H" 
			}
		],
		 "valence_orbital": [ 
			{
				"type": "occ",
				"energy": -0.30312,
				"method": "rhf"
			},
			{
				"type": "occ",
				"energy": -0.29617,
				"method": "rhf"
			},
			{
				"type": "occ",
				"energy": -0.29096,
				"method": "rhf"
			},
			{
				"type": "occ",
				"energy": -0.28574,
				"method": "rhf"
			},
			{
				"type": "occ",
				"energy": -0.26754,
				"method": "rhf"
			},
			{
				"type": "unocc",
				"energy": -0.05856,
				"method": "rhf"
			},
			{
				"type": "unocc",
				"energy": -0.04173,
				"method": "rhf"
			},
			{
				"type": "unocc",
				"energy": 0.01399,
				"method": "rhf"
			},
			{
				"type": "unocc",
				"energy": 0.04336,
				"method": "rhf"
			},
			{
				"type": "unocc",
				"energy": 0.05275,
				"method": "rhf"
			}
		],
		"cosmo_sigma_profile": { 
			"-0.025": 0.0,
			"-0.024": 0.0,
			"-0.023": 0.0,
			"-0.022": 0.0,
			"-0.021": 0.0,
			"-0.02": 0.0,
			"-0.019": 0.0,
			"-0.018": 0.00459560622881,
			"-0.017": 0.0461942909017,
			"-0.016": 0.32402413824,
			"-0.015": 1.14047467745,
			"-0.014": 1.01087633949,
			"-0.013": 0.803940865726,
			"-0.012": 1.05708133329,
			"-0.011": 1.20046778333,
			"-0.01": 1.33714096486,
			"-0.009": 1.25321355038,
			"-0.008": 7.10218996247,
			"-0.007": 13.2169862198,
			"-0.006": 19.2808155393,
			"-0.005": 19.4618958958,
			"-0.004": 18.0568105762,
			"-0.003": 18.2160192784,
			"-0.002": 17.7590773072,
			"-0.001": 15.3033435822,
			"0.0": 12.0033465464,
			"0.001": 12.5826981714,
			"0.002": 11.5445598675,
			"0.003": 4.30296736022,
			"0.004": 4.89360336485,
			"0.005": 3.37164265546,
			"0.006": 3.68578045188,
			"0.007": 5.52048665528,
			"0.008": 7.64576685378,
			"0.009": 9.60780622348,
			"0.01": 10.9043930764,
			"0.011": 12.9353526527,
			"0.012": 7.75102500797,
			"0.013": 0.11876114748,
			"0.014": 0.0,
			"0.015": 0.0,
			"0.016": 0.0,
			"0.017": 0.0,
			"0.018": 0.0,
			"0.019": 0.0,
			"0.02": 0.0,
			"0.021": 0.0,
			"0.022": 0.0,
			"0.023": 0.0,
			"0.024": 0.0,
			"0.025": 0.0
		}
	}
}
