{
	 "smiles": "CC1=CC=C(Br)C=N1", 
	 "Tm": 307.15, 
	 "num_atms": 14, 
	 "gaussian": { 
		 "optdone": 1, 
		 "sigma_profile": "yes", 
		 "theory": "DFT", 
		 "functional": "B3LYP", 
		 "basiset": "6-31G**", 
		 "properties": { 
			 "R2extent": 3607.0503, 
			 "electric_dipole_moment_norm": 2.18027964032, 
			 "electric_quadrupole_moment_norm": 5.0356230677, 
			 "total_energy": -2858.41067031, 
			 "HOMO_LUMO_gap": 0.21445, 
			 "cosmo_polarized_energy": -5.33, 
			 "cosmo_cavitation_energy": 20.27, 
			 "cosmo_dispersion_energy": -15.59, 
			 "cosmo_repulsion_energy": 1.29, 
			 "cosmo_total_nonelectrostatic_energy": 5.97, 
			 "SMD_solvation_energy": 1.2 
		},
		"coords": [
			{
				"x": -0.9768514476,
				"y": -0.2328731347,
				"z": -1.78304234,
				"element": "C" 
			},
			{
				"x": -0.9688139614,
				"y": -0.5774119277,
				"z": -0.3142485506,
				"element": "C" 
			},
			{
				"x": -1.2821794893,
				"y": -1.870616506,
				"z": 0.1328309608,
				"element": "C" 
			},
			{
				"x": -1.2640844353,
				"y": -2.1503887959,
				"z": 1.4950325181,
				"element": "C" 
			},
			{
				"x": -0.9302614311,
				"y": -1.1176207736,
				"z": 2.3690485472,
				"element": "C" 
			},
			{
				"x": -0.8813161004,
				"y": -1.4149727067,
				"z": 4.2527657031,
				"element": "Br" 
			},
			{
				"x": -0.6307205161,
				"y": 0.1412710172,
				"z": 1.8531997105,
				"element": "C" 
			},
			{
				"x": -0.6495194778,
				"y": 0.4053488536,
				"z": 0.5422479516,
				"element": "N" 
			},
			{
				"x": -0.7070946272,
				"y": 0.8158847007,
				"z": -1.9144639343,
				"element": "H" 
			},
			{
				"x": -1.9658448974,
				"y": -0.4001385497,
				"z": -2.2246758999,
				"element": "H" 
			},
			{
				"x": -0.2645380143,
				"y": -0.8521870689,
				"z": -2.3399858922,
				"element": "H" 
			},
			{
				"x": -1.5374423608,
				"y": -2.6488632407,
				"z": -0.5807252807,
				"element": "H" 
			},
			{
				"x": -1.5014837764,
				"y": -3.1395732462,
				"z": 1.8708788715,
				"element": "H" 
			},
			{
				"x": -0.3678494649,
				"y": 0.9605413785,
				"z": 2.5177376348,
				"element": "H" 
			}
		],
		 "valence_orbital": [ 
			{
				"type": "occ",
				"energy": -0.32452,
				"method": "rhf"
			},
			{
				"type": "occ",
				"energy": -0.29581,
				"method": "rhf"
			},
			{
				"type": "occ",
				"energy": -0.28977,
				"method": "rhf"
			},
			{
				"type": "occ",
				"energy": -0.26096,
				"method": "rhf"
			},
			{
				"type": "occ",
				"energy": -0.24699,
				"method": "rhf"
			},
			{
				"type": "unocc",
				"energy": -0.03254,
				"method": "rhf"
			},
			{
				"type": "unocc",
				"energy": -0.0222,
				"method": "rhf"
			},
			{
				"type": "unocc",
				"energy": 0.00349,
				"method": "rhf"
			},
			{
				"type": "unocc",
				"energy": 0.11018,
				"method": "rhf"
			},
			{
				"type": "unocc",
				"energy": 0.12063,
				"method": "rhf"
			}
		],
		"cosmo_sigma_profile": { 
			"-0.025": 0.0,
			"-0.024": 0.0,
			"-0.023": 0.0,
			"-0.022": 0.0,
			"-0.021": 0.0,
			"-0.02": 0.0,
			"-0.019": 0.0,
			"-0.018": 0.0,
			"-0.017": 0.0,
			"-0.016": 0.0,
			"-0.015": 0.0,
			"-0.014": 0.0,
			"-0.013": 0.0,
			"-0.012": 0.0,
			"-0.011": 0.0,
			"-0.01": 0.0,
			"-0.009": 0.0921049818478,
			"-0.008": 1.66990550473,
			"-0.007": 5.38996635895,
			"-0.006": 5.40403647985,
			"-0.005": 9.88789211602,
			"-0.004": 12.7321116231,
			"-0.003": 12.4168580229,
			"-0.002": 12.267838259,
			"-0.001": 14.9469407979,
			"0.0": 16.9928100258,
			"0.001": 20.6818563791,
			"0.002": 14.6955375387,
			"0.003": 9.62743019726,
			"0.004": 13.4939452776,
			"0.005": 4.89076947692,
			"0.006": 1.60253624837,
			"0.007": 0.979572917286,
			"0.008": 1.78743143794,
			"0.009": 0.66665098346,
			"0.01": 1.07020732917,
			"0.011": 0.955182535529,
			"0.012": 0.903257792083,
			"0.013": 0.757100413631,
			"0.014": 0.684078382407,
			"0.015": 0.790651184087,
			"0.016": 0.148318189192,
			"0.017": 0.0,
			"0.018": 0.0,
			"0.019": 0.0,
			"0.02": 0.0,
			"0.021": 0.0,
			"0.022": 0.0,
			"0.023": 0.0,
			"0.024": 0.0,
			"0.025": 0.0
		}
	}
}
