{
	 "smiles": "OC(=O)CN1C(COC2=CC=CC=C2)=NC2=C1C=CC=C2", 
	 "Tm": 473.15, 
	 "num_atms": 35, 
	 "gaussian": { 
		 "optdone": 1, 
		 "sigma_profile": "yes", 
		 "theory": "DFT", 
		 "functional": "B3LYP", 
		 "basiset": "6-31G**", 
		 "properties": { 
			 "R2extent": 7880.6545, 
			 "electric_dipole_moment_norm": 1.98532020843, 
			 "electric_quadrupole_moment_norm": 15.8389297407, 
			 "total_energy": -953.326358184, 
			 "HOMO_LUMO_gap": 0.20255, 
			 "cosmo_polarized_energy": -17.76, 
			 "cosmo_cavitation_energy": 40.06, 
			 "cosmo_dispersion_energy": -27.98, 
			 "cosmo_repulsion_energy": 2.14, 
			 "cosmo_total_nonelectrostatic_energy": 14.22, 
			 "SMD_solvation_energy": 5.94 
		},
		"coords": [
			{
				"x": 0.7545526083,
				"y": -2.9182601527,
				"z": 1.9539591013,
				"element": "O" 
			},
			{
				"x": 0.8047607789,
				"y": -3.3677119125,
				"z": 0.6817003576,
				"element": "C" 
			},
			{
				"x": 0.9321255549,
				"y": -4.5325896449,
				"z": 0.3857082236,
				"element": "O" 
			},
			{
				"x": 0.6194975821,
				"y": -2.2476121599,
				"z": -0.3381319632,
				"element": "C" 
			},
			{
				"x": 1.1739948033,
				"y": -0.9680182506,
				"z": 0.0466934237,
				"element": "N" 
			},
			{
				"x": 0.5322247202,
				"y": 0.0884195382,
				"z": 0.6740805134,
				"element": "C" 
			},
			{
				"x": -0.9036081725,
				"y": 0.047136288,
				"z": 1.088150849,
				"element": "C" 
			},
			{
				"x": -1.7148234431,
				"y": -0.2223521366,
				"z": -0.0592718422,
				"element": "O" 
			},
			{
				"x": -3.0765601463,
				"y": -0.2747028448,
				"z": 0.1103654329,
				"element": "C" 
			},
			{
				"x": -3.8173142903,
				"y": -0.5550402052,
				"z": -1.0464853681,
				"element": "C" 
			},
			{
				"x": -5.2041468794,
				"y": -0.6310708691,
				"z": -0.9798628701,
				"element": "C" 
			},
			{
				"x": -5.8693128792,
				"y": -0.4299159101,
				"z": 0.2346511959,
				"element": "C" 
			},
			{
				"x": -5.1267694191,
				"y": -0.149872716,
				"z": 1.3790911496,
				"element": "C" 
			},
			{
				"x": -3.7307394859,
				"y": -0.0695936897,
				"z": 1.329589252,
				"element": "C" 
			},
			{
				"x": 1.3222624641,
				"y": 1.1037647082,
				"z": 0.9236523849,
				"element": "N" 
			},
			{
				"x": 2.568532827,
				"y": 0.7171795576,
				"z": 0.452570465,
				"element": "C" 
			},
			{
				"x": 2.5000588217,
				"y": -0.5828072886,
				"z": -0.100195516,
				"element": "C" 
			},
			{
				"x": 3.6110717186,
				"y": -1.2240368808,
				"z": -0.6529907371,
				"element": "C" 
			},
			{
				"x": 4.8108861641,
				"y": -0.516126149,
				"z": -0.6388374767,
				"element": "C" 
			},
			{
				"x": 4.8967272631,
				"y": 0.7813981925,
				"z": -0.0945670102,
				"element": "C" 
			},
			{
				"x": 3.7846082233,
				"y": 1.4115156183,
				"z": 0.4544802374,
				"element": "C" 
			},
			{
				"x": 0.8575278492,
				"y": -3.6973844905,
				"z": 2.5264578902,
				"element": "H" 
			},
			{
				"x": -0.4530927173,
				"y": -2.1237038318,
				"z": -0.5143614337,
				"element": "H" 
			},
			{
				"x": 1.0694141656,
				"y": -2.5837705747,
				"z": -1.2747608526,
				"element": "H" 
			},
			{
				"x": -1.1430555159,
				"y": 1.0218186328,
				"z": 1.5246422095,
				"element": "H" 
			},
			{
				"x": -1.0629440541,
				"y": -0.7315460863,
				"z": 1.8480520147,
				"element": "H" 
			},
			{
				"x": -3.2859491763,
				"y": -0.7032964477,
				"z": -1.9811169521,
				"element": "H" 
			},
			{
				"x": -5.7695232723,
				"y": -0.8477155219,
				"z": -1.8817437819,
				"element": "H" 
			},
			{
				"x": -6.9519972218,
				"y": -0.4895439179,
				"z": 0.2838304439,
				"element": "H" 
			},
			{
				"x": -5.6294652431,
				"y": 0.0111533138,
				"z": 2.3285629929,
				"element": "H" 
			},
			{
				"x": -3.1767240534,
				"y": 0.1531189531,
				"z": 2.2336120434,
				"element": "H" 
			},
			{
				"x": 3.5555141936,
				"y": -2.2260605044,
				"z": -1.0676454018,
				"element": "H" 
			},
			{
				"x": 5.7017957676,
				"y": -0.9770588787,
				"z": -1.054906016,
				"element": "H" 
			},
			{
				"x": 5.8531940671,
				"y": 1.2954503744,
				"z": -0.1053107188,
				"element": "H" 
			},
			{
				"x": 3.8426763973,
				"y": 2.4101358873,
				"z": 0.8751377598,
				"element": "H" 
			}
		],
		 "valence_orbital": [ 
			{
				"type": "occ",
				"energy": -0.27367,
				"method": "rhf"
			},
			{
				"type": "occ",
				"energy": -0.25597,
				"method": "rhf"
			},
			{
				"type": "occ",
				"energy": -0.22844,
				"method": "rhf"
			},
			{
				"type": "occ",
				"energy": -0.22749,
				"method": "rhf"
			},
			{
				"type": "occ",
				"energy": -0.22555,
				"method": "rhf"
			},
			{
				"type": "unocc",
				"energy": -0.023,
				"method": "rhf"
			},
			{
				"type": "unocc",
				"energy": -0.01125,
				"method": "rhf"
			},
			{
				"type": "unocc",
				"energy": -0.00643,
				"method": "rhf"
			},
			{
				"type": "unocc",
				"energy": 0.00696,
				"method": "rhf"
			},
			{
				"type": "unocc",
				"energy": 0.01695,
				"method": "rhf"
			}
		],
		"cosmo_sigma_profile": { 
			"-0.025": 0.0,
			"-0.024": 0.0,
			"-0.023": 0.0,
			"-0.022": 0.0,
			"-0.021": 0.0,
			"-0.02": 0.0,
			"-0.019": 0.43372538011,
			"-0.018": 1.01291743545,
			"-0.017": 1.126621463,
			"-0.016": 0.485158305472,
			"-0.015": 1.39292955171,
			"-0.014": 0.371951073134,
			"-0.013": 0.30590775435,
			"-0.012": 0.707470725254,
			"-0.011": 1.17963714151,
			"-0.01": 0.399109980337,
			"-0.009": 2.40938520041,
			"-0.008": 6.18289978974,
			"-0.007": 11.6389535025,
			"-0.006": 18.3687539007,
			"-0.005": 24.780141859,
			"-0.004": 25.9965631861,
			"-0.003": 22.0283052423,
			"-0.002": 16.1552269354,
			"-0.001": 17.0808213302,
			"0.0": 17.9516161557,
			"0.001": 18.6912704102,
			"0.002": 19.3108409725,
			"0.003": 21.4017538502,
			"0.004": 24.991952298,
			"0.005": 23.0385433159,
			"0.006": 16.0378048663,
			"0.007": 4.04494415014,
			"0.008": 3.21458189152,
			"0.009": 3.15056261366,
			"0.01": 3.55911867836,
			"0.011": 6.36638455525,
			"0.012": 2.69615166155,
			"0.013": 0.902584972449,
			"0.014": 1.15058774359,
			"0.015": 0.967243221749,
			"0.016": 0.509530884366,
			"0.017": 0.558001047956,
			"0.018": 0.0,
			"0.019": 0.0,
			"0.02": 0.0,
			"0.021": 0.0,
			"0.022": 0.0,
			"0.023": 0.0,
			"0.024": 0.0,
			"0.025": 0.0
		}
	}
}
