{
	 "smiles": "CCC1=CC=C(NC(=O)C2=NN=C(CCl)S2)C=C1", 
	 "Tm": 400.15, 
	 "num_atms": 30, 
	 "gaussian": { 
		 "optdone": 1, 
		 "sigma_profile": "yes", 
		 "theory": "DFT", 
		 "functional": "B3LYP", 
		 "basiset": "6-31G**", 
		 "properties": { 
			 "R2extent": 8659.8035, 
			 "electric_dipole_moment_norm": 3.40980789195, 
			 "electric_quadrupole_moment_norm": 16.925679418, 
			 "total_energy": -1562.35181196, 
			 "HOMO_LUMO_gap": 0.15216, 
			 "cosmo_polarized_energy": -15.97, 
			 "cosmo_cavitation_energy": 38.72, 
			 "cosmo_dispersion_energy": -27.53, 
			 "cosmo_repulsion_energy": 2.15, 
			 "cosmo_total_nonelectrostatic_energy": 13.33, 
			 "SMD_solvation_energy": 4.87 
		},
		"coords": [
			{
				"x": -3.2932235717,
				"y": 2.4339965596,
				"z": -1.379001801,
				"element": "C" 
			},
			{
				"x": -2.1799684111,
				"y": 2.5947130131,
				"z": -2.4303785482,
				"element": "C" 
			},
			{
				"x": -0.9954101026,
				"y": 1.6881674355,
				"z": -2.1730234532,
				"element": "C" 
			},
			{
				"x": 0.0632349913,
				"y": 2.100848372,
				"z": -1.3513184087,
				"element": "C" 
			},
			{
				"x": 1.1425295044,
				"y": 1.2633366577,
				"z": -1.0847341507,
				"element": "C" 
			},
			{
				"x": 1.1700147231,
				"y": -0.0281565072,
				"z": -1.619155201,
				"element": "C" 
			},
			{
				"x": 2.2882550327,
				"y": -0.8943622759,
				"z": -1.4150604226,
				"element": "N" 
			},
			{
				"x": 2.925357058,
				"y": -1.3127403601,
				"z": -0.2807857471,
				"element": "C" 
			},
			{
				"x": 4.0083026936,
				"y": -1.8907904268,
				"z": -0.3244438902,
				"element": "O" 
			},
			{
				"x": 2.2765320343,
				"y": -1.1217380156,
				"z": 1.0555052454,
				"element": "C" 
			},
			{
				"x": 1.0539181331,
				"y": -0.7519294924,
				"z": 1.3172138613,
				"element": "N" 
			},
			{
				"x": 0.7705019439,
				"y": -0.7531535808,
				"z": 2.6478328211,
				"element": "N" 
			},
			{
				"x": 1.7917843925,
				"y": -1.1289280754,
				"z": 3.3810614749,
				"element": "C" 
			},
			{
				"x": 1.6963251088,
				"y": -1.1652289458,
				"z": 4.8701030033,
				"element": "C" 
			},
			{
				"x": 1.8050114464,
				"y": -2.8547178946,
				"z": 5.5357180797,
				"element": "Cl" 
			},
			{
				"x": 3.2176917669,
				"y": -1.5353708378,
				"z": 2.4712743367,
				"element": "S" 
			},
			{
				"x": 0.1269272737,
				"y": -0.4551356828,
				"z": -2.4443426268,
				"element": "C" 
			},
			{
				"x": -0.9386473911,
				"y": 0.4001931229,
				"z": -2.7202739363,
				"element": "C" 
			},
			{
				"x": -3.672353334,
				"y": 1.4071968368,
				"z": -1.363266215,
				"element": "H" 
			},
			{
				"x": -2.9210915107,
				"y": 2.6635992878,
				"z": -0.3754765403,
				"element": "H" 
			},
			{
				"x": -4.1325054757,
				"y": 3.1039669414,
				"z": -1.5930716842,
				"element": "H" 
			},
			{
				"x": -1.8446424867,
				"y": 3.6387261447,
				"z": -2.4440877763,
				"element": "H" 
			},
			{
				"x": -2.5902256797,
				"y": 2.3866481828,
				"z": -3.4257273998,
				"element": "H" 
			},
			{
				"x": 0.0506505881,
				"y": 3.1015488459,
				"z": -0.9265418452,
				"element": "H" 
			},
			{
				"x": 1.966112043,
				"y": 1.608536926,
				"z": -0.4682680303,
				"element": "H" 
			},
			{
				"x": 2.7901440973,
				"y": -1.1968471876,
				"z": -2.2423592366,
				"element": "H" 
			},
			{
				"x": 2.4973694787,
				"y": -0.5991904366,
				"z": 5.3467407913,
				"element": "H" 
			},
			{
				"x": 0.7268649744,
				"y": -0.7618480426,
				"z": 5.159750128,
				"element": "H" 
			},
			{
				"x": 0.1515894393,
				"y": -1.4572770023,
				"z": -2.8625075846,
				"element": "H" 
			},
			{
				"x": -1.7422487602,
				"y": 0.0571364378,
				"z": -3.3671752437,
				"element": "H" 
			}
		],
		 "valence_orbital": [ 
			{
				"type": "occ",
				"energy": -0.29076,
				"method": "rhf"
			},
			{
				"type": "occ",
				"energy": -0.28042,
				"method": "rhf"
			},
			{
				"type": "occ",
				"energy": -0.27009,
				"method": "rhf"
			},
			{
				"type": "occ",
				"energy": -0.25708,
				"method": "rhf"
			},
			{
				"type": "occ",
				"energy": -0.23447,
				"method": "rhf"
			},
			{
				"type": "unocc",
				"energy": -0.08231,
				"method": "rhf"
			},
			{
				"type": "unocc",
				"energy": -0.02582,
				"method": "rhf"
			},
			{
				"type": "unocc",
				"energy": -0.01013,
				"method": "rhf"
			},
			{
				"type": "unocc",
				"energy": -0.00549,
				"method": "rhf"
			},
			{
				"type": "unocc",
				"energy": 0.00052,
				"method": "rhf"
			}
		],
		"cosmo_sigma_profile": { 
			"-0.025": 0.0,
			"-0.024": 0.0,
			"-0.023": 0.0,
			"-0.022": 0.0,
			"-0.021": 0.0,
			"-0.02": 0.0,
			"-0.019": 0.0,
			"-0.018": 0.0,
			"-0.017": 0.0,
			"-0.016": 0.037315092284,
			"-0.015": 0.717599403117,
			"-0.014": 1.03467236771,
			"-0.013": 0.910413939757,
			"-0.012": 1.00149214293,
			"-0.011": 1.32665413691,
			"-0.01": 3.28413979311,
			"-0.009": 5.26782633889,
			"-0.008": 5.04576287632,
			"-0.007": 7.55529758491,
			"-0.006": 12.1661195345,
			"-0.005": 14.4659049237,
			"-0.004": 20.3471538687,
			"-0.003": 24.4471963784,
			"-0.002": 25.2858040888,
			"-0.001": 32.4621729063,
			"0.0": 30.2638018356,
			"0.001": 24.4496909868,
			"0.002": 15.3037222291,
			"0.003": 14.4358565481,
			"0.004": 15.1035665686,
			"0.005": 18.1139010976,
			"0.006": 7.36010595796,
			"0.007": 4.09313177821,
			"0.008": 4.1380453513,
			"0.009": 4.5568371086,
			"0.01": 4.78826853917,
			"0.011": 5.32687912925,
			"0.012": 7.29851840935,
			"0.013": 2.01913823967,
			"0.014": 0.150816430405,
			"0.015": 0.0,
			"0.016": 0.0,
			"0.017": 0.0,
			"0.018": 0.0,
			"0.019": 0.0,
			"0.02": 0.0,
			"0.021": 0.0,
			"0.022": 0.0,
			"0.023": 0.0,
			"0.024": 0.0,
			"0.025": 0.0
		}
	}
}
