{
	 "smiles": "NC1=C(Cl)C(Cl)=C(Cl)C(Cl)=C1", 
	 "Tm": 391.15, 
	 "num_atms": 14, 
	 "gaussian": { 
		 "optdone": 1, 
		 "sigma_profile": "yes", 
		 "theory": "DFT", 
		 "functional": "B3LYP", 
		 "basiset": "6-31G**", 
		 "properties": { 
			 "R2extent": 3847.9553, 
			 "electric_dipole_moment_norm": 4.02693941598, 
			 "electric_quadrupole_moment_norm": 8.46119006523, 
			 "total_energy": -2125.9576014, 
			 "HOMO_LUMO_gap": 0.18939, 
			 "cosmo_polarized_energy": -8.54, 
			 "cosmo_cavitation_energy": 25.05, 
			 "cosmo_dispersion_energy": -19.42, 
			 "cosmo_repulsion_energy": 1.56, 
			 "cosmo_total_nonelectrostatic_energy": 7.19, 
			 "SMD_solvation_energy": 3.24 
		},
		"coords": [
			{
				"x": 1.9199908053,
				"y": -2.1444903977,
				"z": 0.4179703902,
				"element": "N" 
			},
			{
				"x": 0.9570253536,
				"y": -1.2417440534,
				"z": 0.8175985864,
				"element": "C" 
			},
			{
				"x": -0.4125236093,
				"y": -1.456000195,
				"z": 0.5553716769,
				"element": "C" 
			},
			{
				"x": -0.8630945081,
				"y": -2.8723219926,
				"z": -0.3688354619,
				"element": "Cl" 
			},
			{
				"x": -1.3857909575,
				"y": -0.5595258078,
				"z": 1.0161247458,
				"element": "C" 
			},
			{
				"x": -3.0628533538,
				"y": -0.8579037213,
				"z": 0.6713544399,
				"element": "Cl" 
			},
			{
				"x": -1.0158227915,
				"y": 0.5811397099,
				"z": 1.7517439454,
				"element": "C" 
			},
			{
				"x": -2.2145306967,
				"y": 1.6986490818,
				"z": 2.3289072256,
				"element": "Cl" 
			},
			{
				"x": 0.3481359472,
				"y": 0.7903985471,
				"z": 2.0054109189,
				"element": "C" 
			},
			{
				"x": 0.887529332,
				"y": 2.1854254255,
				"z": 2.9076114845,
				"element": "Cl" 
			},
			{
				"x": 1.311928201,
				"y": -0.0981527608,
				"z": 1.5493072536,
				"element": "C" 
			},
			{
				"x": 2.8662840773,
				"y": -1.7990462356,
				"z": 0.3649365667,
				"element": "H" 
			},
			{
				"x": 1.6656179029,
				"y": -2.7847429001,
				"z": -0.3197312486,
				"element": "H" 
			},
			{
				"x": 2.3558042977,
				"y": 0.0937152999,
				"z": 1.7710294766,
				"element": "H" 
			}
		],
		 "valence_orbital": [ 
			{
				"type": "occ",
				"energy": -0.32548,
				"method": "rhf"
			},
			{
				"type": "occ",
				"energy": -0.30372,
				"method": "rhf"
			},
			{
				"type": "occ",
				"energy": -0.29901,
				"method": "rhf"
			},
			{
				"type": "occ",
				"energy": -0.25623,
				"method": "rhf"
			},
			{
				"type": "occ",
				"energy": -0.22647,
				"method": "rhf"
			},
			{
				"type": "unocc",
				"energy": -0.03708,
				"method": "rhf"
			},
			{
				"type": "unocc",
				"energy": -0.02987,
				"method": "rhf"
			},
			{
				"type": "unocc",
				"energy": -0.02041,
				"method": "rhf"
			},
			{
				"type": "unocc",
				"energy": 0.02289,
				"method": "rhf"
			},
			{
				"type": "unocc",
				"energy": 0.05615,
				"method": "rhf"
			}
		],
		"cosmo_sigma_profile": { 
			"-0.025": 0.0,
			"-0.024": 0.0,
			"-0.023": 0.0,
			"-0.022": 0.0,
			"-0.021": 0.0,
			"-0.02": 0.0,
			"-0.019": 0.0,
			"-0.018": 0.0,
			"-0.017": 0.0,
			"-0.016": 0.0,
			"-0.015": 0.182431818092,
			"-0.014": 1.52476327909,
			"-0.013": 2.31758828128,
			"-0.012": 2.70121014404,
			"-0.011": 2.52824160478,
			"-0.01": 3.28367500586,
			"-0.009": 2.34156184626,
			"-0.008": 2.76088692977,
			"-0.007": 2.9088593749,
			"-0.006": 3.14558973969,
			"-0.005": 3.21949599495,
			"-0.004": 3.96251986834,
			"-0.003": 7.66062120572,
			"-0.002": 10.8032470896,
			"-0.001": 18.2361614465,
			"0.0": 31.6098448607,
			"0.001": 23.9983394928,
			"0.002": 22.0092147873,
			"0.003": 25.979110488,
			"0.004": 28.5791425623,
			"0.005": 6.56193567356,
			"0.006": 0.534229967613,
			"0.007": 0.571808736537,
			"0.008": 1.11682182969,
			"0.009": 0.357386119057,
			"0.01": 0.575455802245,
			"0.011": 0.411759258918,
			"0.012": 0.0460121793407,
			"0.013": 0.0,
			"0.014": 0.0,
			"0.015": 0.0,
			"0.016": 0.0,
			"0.017": 0.0,
			"0.018": 0.0,
			"0.019": 0.0,
			"0.02": 0.0,
			"0.021": 0.0,
			"0.022": 0.0,
			"0.023": 0.0,
			"0.024": 0.0,
			"0.025": 0.0
		}
	}
}
