{
	 "smiles": "COC1=CC=C(C=N/C2=CC=C(C=C2)C2=NNC(=O)CC2)C=C1", 
	 "Tm": 487.15, 
	 "num_atms": 40, 
	 "gaussian": { 
		 "optdone": 1, 
		 "sigma_profile": "yes", 
		 "theory": "DFT", 
		 "functional": "B3LYP", 
		 "basiset": "6-31G**", 
		 "properties": { 
			 "R2extent": 11874.7515, 
			 "electric_dipole_moment_norm": 5.18781902344, 
			 "electric_quadrupole_moment_norm": 23.364179368, 
			 "total_energy": -1010.82650545, 
			 "HOMO_LUMO_gap": 0.14794, 
			 "cosmo_polarized_energy": -18.61, 
			 "cosmo_cavitation_energy": 44.39, 
			 "cosmo_dispersion_energy": -31.74, 
			 "cosmo_repulsion_energy": 2.42, 
			 "cosmo_total_nonelectrostatic_energy": 15.07, 
			 "SMD_solvation_energy": 6.65 
		},
		"coords": [
			{
				"x": -3.8234631795,
				"y": -3.3209716442,
				"z": -1.5509239787,
				"element": "C" 
			},
			{
				"x": -3.8184538023,
				"y": -2.4051824416,
				"z": -2.6384720397,
				"element": "O" 
			},
			{
				"x": -3.0655076889,
				"y": -1.2795509373,
				"z": -2.5375511389,
				"element": "C" 
			},
			{
				"x": -3.1045487171,
				"y": -0.4176281719,
				"z": -3.6456580567,
				"element": "C" 
			},
			{
				"x": -2.3686905107,
				"y": 0.7549689735,
				"z": -3.6312997701,
				"element": "C" 
			},
			{
				"x": -1.5638292883,
				"y": 1.1114517293,
				"z": -2.5288620648,
				"element": "C" 
			},
			{
				"x": -0.8302879319,
				"y": 2.38683436,
				"z": -2.6244428198,
				"element": "C" 
			},
			{
				"x": 0.0313647549,
				"y": 2.951074338,
				"z": -1.8668464787,
				"element": "N" 
			},
			{
				"x": 0.5794931676,
				"y": 2.4243398296,
				"z": -0.6930491647,
				"element": "C" 
			},
			{
				"x": 1.6553368408,
				"y": 1.514133585,
				"z": -0.7414711044,
				"element": "C" 
			},
			{
				"x": 2.2647976438,
				"y": 1.0792178742,
				"z": 0.4250783816,
				"element": "C" 
			},
			{
				"x": 1.8371735462,
				"y": 1.5303248693,
				"z": 1.6904610994,
				"element": "C" 
			},
			{
				"x": 0.7738548068,
				"y": 2.4487524861,
				"z": 1.7269708835,
				"element": "C" 
			},
			{
				"x": 0.162748807,
				"y": 2.9004913614,
				"z": 0.5602086859,
				"element": "C" 
			},
			{
				"x": 2.5133423549,
				"y": 1.0663422485,
				"z": 2.919389039,
				"element": "C" 
			},
			{
				"x": 3.609564801,
				"y": 0.3933108993,
				"z": 2.7805057497,
				"element": "N" 
			},
			{
				"x": 4.253947105,
				"y": -0.0266488235,
				"z": 3.9255002502,
				"element": "N" 
			},
			{
				"x": 3.7093286426,
				"y": -0.2054405688,
				"z": 5.1810253653,
				"element": "C" 
			},
			{
				"x": 4.3436621324,
				"y": -0.7232729948,
				"z": 6.0867724327,
				"element": "O" 
			},
			{
				"x": 2.2697849091,
				"y": 0.2591226229,
				"z": 5.2792809967,
				"element": "C" 
			},
			{
				"x": 1.9735444562,
				"y": 1.3989354512,
				"z": 4.2966420305,
				"element": "C" 
			},
			{
				"x": -1.5417915229,
				"y": 0.2393236694,
				"z": -1.4265179872,
				"element": "C" 
			},
			{
				"x": -2.2814303994,
				"y": -0.9407952322,
				"z": -1.4244929009,
				"element": "C" 
			},
			{
				"x": -2.8202564465,
				"y": -3.7190287972,
				"z": -1.3550506218,
				"element": "H" 
			},
			{
				"x": -4.213560584,
				"y": -2.8578797392,
				"z": -0.6361873434,
				"element": "H" 
			},
			{
				"x": -4.4823654576,
				"y": -4.1369576361,
				"z": -1.8501524414,
				"element": "H" 
			},
			{
				"x": -3.7196125698,
				"y": -0.6922846915,
				"z": -4.4960059464,
				"element": "H" 
			},
			{
				"x": -2.4094127918,
				"y": 1.4175248731,
				"z": -4.4923015087,
				"element": "H" 
			},
			{
				"x": -1.0880311611,
				"y": 2.9584413272,
				"z": -3.5234067872,
				"element": "H" 
			},
			{
				"x": 2.0004706053,
				"y": 1.1576778056,
				"z": -1.7071177458,
				"element": "H" 
			},
			{
				"x": 3.0885563898,
				"y": 0.375667973,
				"z": 0.3772374764,
				"element": "H" 
			},
			{
				"x": 0.4208839051,
				"y": 2.843497436,
				"z": 2.6741671039,
				"element": "H" 
			},
			{
				"x": -0.643846266,
				"y": 3.6251509531,
				"z": 0.6078540496,
				"element": "H" 
			},
			{
				"x": 5.1520825172,
				"y": -0.4600221457,
				"z": 3.7577635458,
				"element": "H" 
			},
			{
				"x": 1.6369198142,
				"y": -0.6098038779,
				"z": 5.0527847314,
				"element": "H" 
			},
			{
				"x": 2.0692437788,
				"y": 0.5418137984,
				"z": 6.3147278392,
				"element": "H" 
			},
			{
				"x": 2.4574485629,
				"y": 2.3239441262,
				"z": 4.6431162157,
				"element": "H" 
			},
			{
				"x": 0.9005481928,
				"y": 1.5975489997,
				"z": 4.2685925586,
				"element": "H" 
			},
			{
				"x": -0.9472323753,
				"y": 0.4805233357,
				"z": -0.5551678425,
				"element": "H" 
			},
			{
				"x": -2.2410770412,
				"y": -1.5868472239,
				"z": -0.5558006938,
				"element": "H" 
			}
		],
		 "valence_orbital": [ 
			{
				"type": "occ",
				"energy": -0.25364,
				"method": "rhf"
			},
			{
				"type": "occ",
				"energy": -0.24655,
				"method": "rhf"
			},
			{
				"type": "occ",
				"energy": -0.24282,
				"method": "rhf"
			},
			{
				"type": "occ",
				"energy": -0.23032,
				"method": "rhf"
			},
			{
				"type": "occ",
				"energy": -0.20006,
				"method": "rhf"
			},
			{
				"type": "unocc",
				"energy": -0.05212,
				"method": "rhf"
			},
			{
				"type": "unocc",
				"energy": -0.04086,
				"method": "rhf"
			},
			{
				"type": "unocc",
				"energy": -0.01661,
				"method": "rhf"
			},
			{
				"type": "unocc",
				"energy": -0.00036,
				"method": "rhf"
			},
			{
				"type": "unocc",
				"energy": 0.02227,
				"method": "rhf"
			}
		],
		"cosmo_sigma_profile": { 
			"-0.025": 0.0,
			"-0.024": 0.0,
			"-0.023": 0.0,
			"-0.022": 0.0,
			"-0.021": 0.0,
			"-0.02": 0.0,
			"-0.019": 0.0,
			"-0.018": 0.0,
			"-0.017": 0.0,
			"-0.016": 0.0,
			"-0.015": 0.462099716759,
			"-0.014": 1.10154520094,
			"-0.013": 0.763831552128,
			"-0.012": 0.731153497073,
			"-0.011": 1.30942892222,
			"-0.01": 0.324633506367,
			"-0.009": 0.422003317265,
			"-0.008": 1.4398771969,
			"-0.007": 9.34952704865,
			"-0.006": 28.5417730573,
			"-0.005": 32.5667954667,
			"-0.004": 33.7716993175,
			"-0.003": 27.6435518659,
			"-0.002": 22.2719232108,
			"-0.001": 19.0090544958,
			"0.0": 21.000475936,
			"0.001": 20.0661421469,
			"0.002": 23.8097078097,
			"0.003": 25.5402807149,
			"0.004": 26.8427335884,
			"0.005": 13.7126989056,
			"0.006": 4.40786368046,
			"0.007": 6.806914109,
			"0.008": 5.54280338996,
			"0.009": 4.58981791845,
			"0.01": 4.50890973945,
			"0.011": 2.82877013487,
			"0.012": 3.92562267659,
			"0.013": 6.80979774001,
			"0.014": 3.66880423415,
			"0.015": 0.505839024132,
			"0.016": 0.0,
			"0.017": 0.0,
			"0.018": 0.0,
			"0.019": 0.0,
			"0.02": 0.0,
			"0.021": 0.0,
			"0.022": 0.0,
			"0.023": 0.0,
			"0.024": 0.0,
			"0.025": 0.0
		}
	}
}
