{
	 "smiles": "CC(=O)N1CCC(CC1)NC(=O)CCl", 
	 "Tm": 394.15, 
	 "num_atms": 29, 
	 "gaussian": { 
		 "optdone": 1, 
		 "sigma_profile": "yes", 
		 "theory": "DFT", 
		 "functional": "B3LYP", 
		 "basiset": "6-31G**", 
		 "properties": { 
			 "R2extent": 5203.9664, 
			 "electric_dipole_moment_norm": 2.18653255635, 
			 "electric_quadrupole_moment_norm": 16.3575274614, 
			 "total_energy": -1072.17692541, 
			 "HOMO_LUMO_gap": 0.24278, 
			 "cosmo_polarized_energy": -18.09, 
			 "cosmo_cavitation_energy": 32.62, 
			 "cosmo_dispersion_energy": -23.46, 
			 "cosmo_repulsion_energy": 1.89, 
			 "cosmo_total_nonelectrostatic_energy": 11.04, 
			 "SMD_solvation_energy": 5.09 
		},
		"coords": [
			{
				"x": 0.0805103301,
				"y": -4.2372485531,
				"z": 0.8330473832,
				"element": "C" 
			},
			{
				"x": -0.7118438232,
				"y": -3.0327109927,
				"z": 1.322115424,
				"element": "C" 
			},
			{
				"x": -1.5990027018,
				"y": -3.1528232512,
				"z": 2.1623009339,
				"element": "O" 
			},
			{
				"x": -0.3813525298,
				"y": -1.8102756413,
				"z": 0.7836078211,
				"element": "N" 
			},
			{
				"x": 0.6451939919,
				"y": -1.6227575798,
				"z": -0.2503830602,
				"element": "C" 
			},
			{
				"x": 1.0685318153,
				"y": -0.1542181748,
				"z": -0.3064991128,
				"element": "C" 
			},
			{
				"x": -0.1113331159,
				"y": 0.7886734516,
				"z": -0.6447892335,
				"element": "C" 
			},
			{
				"x": -1.4294290542,
				"y": 0.2630611155,
				"z": -0.0304594018,
				"element": "C" 
			},
			{
				"x": -1.1741506848,
				"y": -0.6391712011,
				"z": 1.1782294238,
				"element": "C" 
			},
			{
				"x": -0.2861023832,
				"y": 0.9676360405,
				"z": -2.0877319634,
				"element": "N" 
			},
			{
				"x": 0.5072134806,
				"y": 1.7999870367,
				"z": -2.7991806942,
				"element": "C" 
			},
			{
				"x": 1.4349693275,
				"y": 2.4472252487,
				"z": -2.325803815,
				"element": "O" 
			},
			{
				"x": 0.2339752978,
				"y": 1.9630608593,
				"z": -4.2970614521,
				"element": "C" 
			},
			{
				"x": -1.1178713318,
				"y": 0.9696000332,
				"z": -4.9966709876,
				"element": "Cl" 
			},
			{
				"x": -0.3699967199,
				"y": -5.1263152815,
				"z": 1.2730907653,
				"element": "H" 
			},
			{
				"x": 0.0704974838,
				"y": -4.3267330956,
				"z": -0.2580623082,
				"element": "H" 
			},
			{
				"x": 1.1278087404,
				"y": -4.1795436491,
				"z": 1.1503148429,
				"element": "H" 
			},
			{
				"x": 1.5157342224,
				"y": -2.2447554451,
				"z": -0.0245796338,
				"element": "H" 
			},
			{
				"x": 0.274540892,
				"y": -1.9402332916,
				"z": -1.2383036834,
				"element": "H" 
			},
			{
				"x": 1.8679290997,
				"y": -0.0147571556,
				"z": -1.0381688276,
				"element": "H" 
			},
			{
				"x": 1.4809673832,
				"y": 0.1317613045,
				"z": 0.6675506306,
				"element": "H" 
			},
			{
				"x": 0.129944896,
				"y": 1.7764506867,
				"z": -0.2408026338,
				"element": "H" 
			},
			{
				"x": -2.081625622,
				"y": 1.0953845063,
				"z": 0.2515249669,
				"element": "H" 
			},
			{
				"x": -1.9768282398,
				"y": -0.3264430582,
				"z": -0.778330872,
				"element": "H" 
			},
			{
				"x": -0.6651584941,
				"y": -0.0779066895,
				"z": 1.9750067051,
				"element": "H" 
			},
			{
				"x": -2.1070533884,
				"y": -1.0138414859,
				"z": 1.6006516725,
				"element": "H" 
			},
			{
				"x": -1.0280099044,
				"y": 0.477518369,
				"z": -2.5676232649,
				"element": "H" 
			},
			{
				"x": 1.1402869404,
				"y": 1.7011565697,
				"z": -4.8429849073,
				"element": "H" 
			},
			{
				"x": -0.0034459077,
				"y": 3.0094193243,
				"z": -4.4908047177,
				"element": "H" 
			}
		],
		 "valence_orbital": [ 
			{
				"type": "occ",
				"energy": -0.31612,
				"method": "rhf"
			},
			{
				"type": "occ",
				"energy": -0.26864,
				"method": "rhf"
			},
			{
				"type": "occ",
				"energy": -0.26386,
				"method": "rhf"
			},
			{
				"type": "occ",
				"energy": -0.24278,
				"method": "rhf"
			},
			{
				"type": "occ",
				"energy": -0.23559,
				"method": "rhf"
			},
			{
				"type": "unocc",
				"energy": 0.00719,
				"method": "rhf"
			},
			{
				"type": "unocc",
				"energy": 0.01057,
				"method": "rhf"
			},
			{
				"type": "unocc",
				"energy": 0.03035,
				"method": "rhf"
			},
			{
				"type": "unocc",
				"energy": 0.06479,
				"method": "rhf"
			},
			{
				"type": "unocc",
				"energy": 0.0806,
				"method": "rhf"
			}
		],
		"cosmo_sigma_profile": { 
			"-0.025": 0.0,
			"-0.024": 0.0,
			"-0.023": 0.0,
			"-0.022": 0.0,
			"-0.021": 0.0,
			"-0.02": 0.0,
			"-0.019": 0.0,
			"-0.018": 0.0,
			"-0.017": 0.0,
			"-0.016": 0.0,
			"-0.015": 0.0,
			"-0.014": 0.0,
			"-0.013": 0.0,
			"-0.012": 0.385170020749,
			"-0.011": 1.01899069027,
			"-0.01": 1.22698400917,
			"-0.009": 3.42661253924,
			"-0.008": 5.32477056756,
			"-0.007": 5.67492634274,
			"-0.006": 9.56068692054,
			"-0.005": 19.2843204575,
			"-0.004": 33.3113489283,
			"-0.003": 29.9153061185,
			"-0.002": 24.7704482771,
			"-0.001": 22.3360529332,
			"0.0": 15.9601495975,
			"0.001": 9.10157453263,
			"0.002": 9.0063587767,
			"0.003": 7.4799772262,
			"0.004": 7.28903410997,
			"0.005": 9.27501799372,
			"0.006": 6.98212162888,
			"0.007": 2.47326391378,
			"0.008": 2.803533405,
			"0.009": 3.47338687129,
			"0.01": 2.64960080286,
			"0.011": 2.84057367829,
			"0.012": 2.68701901342,
			"0.013": 7.79406122225,
			"0.014": 7.25295642921,
			"0.015": 3.34756080087,
			"0.016": 0.493934414569,
			"0.017": 0.0,
			"0.018": 0.0,
			"0.019": 0.0,
			"0.02": 0.0,
			"0.021": 0.0,
			"0.022": 0.0,
			"0.023": 0.0,
			"0.024": 0.0,
			"0.025": 0.0
		}
	}
}
