{
	 "smiles": "CC1=CC(C(O)=O)C2=CC=CC=C12", 
	 "Tm": 412.15, 
	 "num_atms": 23, 
	 "gaussian": { 
		 "optdone": 1, 
		 "sigma_profile": "yes", 
		 "theory": "DFT", 
		 "functional": "B3LYP", 
		 "basiset": "6-31G**", 
		 "properties": { 
			 "R2extent": 2628.2264, 
			 "electric_dipole_moment_norm": 4.71147881986, 
			 "electric_quadrupole_moment_norm": 17.9990428123, 
			 "total_energy": -575.649311746, 
			 "HOMO_LUMO_gap": 0.18976, 
			 "cosmo_polarized_energy": -11.69, 
			 "cosmo_cavitation_energy": 26.75, 
			 "cosmo_dispersion_energy": -19.21, 
			 "cosmo_repulsion_energy": 1.52, 
			 "cosmo_total_nonelectrostatic_energy": 9.07, 
			 "SMD_solvation_energy": 5.49 
		},
		"coords": [
			{
				"x": -1.4168203703,
				"y": -1.4353829052,
				"z": -1.5662536375,
				"element": "C" 
			},
			{
				"x": -0.625363446,
				"y": -0.3374270729,
				"z": -0.9246505526,
				"element": "C" 
			},
			{
				"x": -0.7879590389,
				"y": 0.9928510436,
				"z": -1.0800053165,
				"element": "C" 
			},
			{
				"x": 0.2135594549,
				"y": 1.7804287564,
				"z": -0.2522640199,
				"element": "C" 
			},
			{
				"x": 0.991754986,
				"y": 2.7596023158,
				"z": -1.1555809877,
				"element": "C" 
			},
			{
				"x": 2.2307754061,
				"y": 2.3785840768,
				"z": -1.5387089743,
				"element": "O" 
			},
			{
				"x": 0.5129021292,
				"y": 3.7979582812,
				"z": -1.5366372925,
				"element": "O" 
			},
			{
				"x": 1.0074261673,
				"y": 0.6802441479,
				"z": 0.4201310291,
				"element": "C" 
			},
			{
				"x": 2.0762371278,
				"y": 0.7526952421,
				"z": 1.3081184294,
				"element": "C" 
			},
			{
				"x": 2.6344881833,
				"y": -0.4402508518,
				"z": 1.7904870248,
				"element": "C" 
			},
			{
				"x": 2.1223475351,
				"y": -1.6767929633,
				"z": 1.38790978,
				"element": "C" 
			},
			{
				"x": 1.0468550204,
				"y": -1.7536220209,
				"z": 0.4955294991,
				"element": "C" 
			},
			{
				"x": 0.4918184171,
				"y": -0.5691525379,
				"z": 0.0102097544,
				"element": "C" 
			},
			{
				"x": -2.1917335271,
				"y": -1.0349406421,
				"z": -2.2244303145,
				"element": "H" 
			},
			{
				"x": -1.9028165107,
				"y": -2.0652187966,
				"z": -0.8111444679,
				"element": "H" 
			},
			{
				"x": -0.7707886297,
				"y": -2.0925665638,
				"z": -2.1611835305,
				"element": "H" 
			},
			{
				"x": -1.5197200276,
				"y": 1.4832936407,
				"z": -1.7108915172,
				"element": "H" 
			},
			{
				"x": -0.3044004662,
				"y": 2.4138877541,
				"z": 0.4793304652,
				"element": "H" 
			},
			{
				"x": 2.4535128219,
				"y": 1.5339064519,
				"z": -1.1145862264,
				"element": "H" 
			},
			{
				"x": 2.4725611112,
				"y": 1.7126527326,
				"z": 1.6298807654,
				"element": "H" 
			},
			{
				"x": 3.4681447883,
				"y": -0.4014834736,
				"z": 2.4851088586,
				"element": "H" 
			},
			{
				"x": 2.565270897,
				"y": -2.5905842216,
				"z": 1.7735555822,
				"element": "H" 
			},
			{
				"x": 0.6559479708,
				"y": -2.7199823932,
				"z": 0.1898756494,
				"element": "H" 
			}
		],
		 "valence_orbital": [ 
			{
				"type": "occ",
				"energy": -0.31036,
				"method": "rhf"
			},
			{
				"type": "occ",
				"energy": -0.30014,
				"method": "rhf"
			},
			{
				"type": "occ",
				"energy": -0.27568,
				"method": "rhf"
			},
			{
				"type": "occ",
				"energy": -0.25606,
				"method": "rhf"
			},
			{
				"type": "occ",
				"energy": -0.23012,
				"method": "rhf"
			},
			{
				"type": "unocc",
				"energy": -0.04036,
				"method": "rhf"
			},
			{
				"type": "unocc",
				"energy": -0.0204,
				"method": "rhf"
			},
			{
				"type": "unocc",
				"energy": 0.0115,
				"method": "rhf"
			},
			{
				"type": "unocc",
				"energy": 0.04354,
				"method": "rhf"
			},
			{
				"type": "unocc",
				"energy": 0.08524,
				"method": "rhf"
			}
		],
		"cosmo_sigma_profile": { 
			"-0.025": 0.0,
			"-0.024": 0.0,
			"-0.023": 0.0,
			"-0.022": 0.0,
			"-0.021": 0.0,
			"-0.02": 0.0,
			"-0.019": 0.0,
			"-0.018": 0.0,
			"-0.017": 0.0,
			"-0.016": 0.0,
			"-0.015": 0.216060920792,
			"-0.014": 0.454926885812,
			"-0.013": 0.480328733928,
			"-0.012": 0.891685663676,
			"-0.011": 0.952798586788,
			"-0.01": 0.890979513974,
			"-0.009": 0.902658282458,
			"-0.008": 0.9060028347,
			"-0.007": 6.44342975248,
			"-0.006": 12.3022809604,
			"-0.005": 14.3302733257,
			"-0.004": 21.5582085905,
			"-0.003": 19.9160760282,
			"-0.002": 15.5227894267,
			"-0.001": 16.5924962259,
			"0.0": 15.6491803472,
			"0.001": 11.7798562077,
			"0.002": 12.7629132693,
			"0.003": 11.5969635468,
			"0.004": 11.4499997077,
			"0.005": 9.05049686959,
			"0.006": 2.53495491333,
			"0.007": 2.62066101967,
			"0.008": 2.69789587646,
			"0.009": 3.37021103822,
			"0.01": 5.02708140472,
			"0.011": 4.83865034804,
			"0.012": 5.25671923555,
			"0.013": 2.01559675399,
			"0.014": 0.0408761587403,
			"0.015": 0.0,
			"0.016": 0.0,
			"0.017": 0.0,
			"0.018": 0.0,
			"0.019": 0.0,
			"0.02": 0.0,
			"0.021": 0.0,
			"0.022": 0.0,
			"0.023": 0.0,
			"0.024": 0.0,
			"0.025": 0.0
		}
	}
}
