{
	 "smiles": "O[C@@H]([C@@H]1C[C@@H]2CC[N@]1C[C@@H]2C=C)C1=C2C=CC=CC2=NC=C1", 
	 "Tm": 475.15, 
	 "num_atms": 44, 
	 "gaussian": { 
		 "optdone": 1, 
		 "sigma_profile": "yes", 
		 "theory": "DFT", 
		 "functional": "B3LYP", 
		 "basiset": "6-31G**", 
		 "properties": { 
			 "R2extent": 8743.1213, 
			 "electric_dipole_moment_norm": 2.82676207701, 
			 "electric_quadrupole_moment_norm": 10.118184773, 
			 "total_energy": -921.96761749, 
			 "HOMO_LUMO_gap": 0.16182, 
			 "cosmo_polarized_energy": -12.61, 
			 "cosmo_cavitation_energy": 42.79, 
			 "cosmo_dispersion_energy": -30.14, 
			 "cosmo_repulsion_energy": 2.25, 
			 "cosmo_total_nonelectrostatic_energy": 14.9, 
			 "SMD_solvation_energy": 4.26 
		},
		"coords": [
			{
				"x": 0.6361887135,
				"y": 1.4994486931,
				"z": -2.7860531844,
				"element": "O" 
			},
			{
				"x": 0.0767694171,
				"y": 1.3056709646,
				"z": -1.4776658151,
				"element": "C" 
			},
			{
				"x": 0.4048891844,
				"y": -0.1317462741,
				"z": -1.0178017165,
				"element": "C" 
			},
			{
				"x": -0.0504824972,
				"y": -1.1805716942,
				"z": -2.0867830119,
				"element": "C" 
			},
			{
				"x": -0.9587990767,
				"y": -2.215880565,
				"z": -1.3978752638,
				"element": "C" 
			},
			{
				"x": -2.1661475322,
				"y": -1.4831049991,
				"z": -0.7822975647,
				"element": "C" 
			},
			{
				"x": -1.6232077245,
				"y": -0.4924301008,
				"z": 0.2934648383,
				"element": "C" 
			},
			{
				"x": -0.1493468113,
				"y": -0.4705282324,
				"z": 0.3121749897,
				"element": "N" 
			},
			{
				"x": 0.3448668191,
				"y": -1.804480979,
				"z": 0.6984972105,
				"element": "C" 
			},
			{
				"x": -0.1780797016,
				"y": -2.9262424134,
				"z": -0.255725699,
				"element": "C" 
			},
			{
				"x": 0.8537224843,
				"y": -3.8901783824,
				"z": -0.7932683218,
				"element": "C" 
			},
			{
				"x": 2.143512467,
				"y": -3.9989679767,
				"z": -0.4703170928,
				"element": "C" 
			},
			{
				"x": 0.4942738348,
				"y": 2.4455429164,
				"z": -0.5545048928,
				"element": "C" 
			},
			{
				"x": 0.1242080977,
				"y": 3.7940973731,
				"z": -0.8833751804,
				"element": "C" 
			},
			{
				"x": -0.634434409,
				"y": 4.1525759868,
				"z": -2.0327060754,
				"element": "C" 
			},
			{
				"x": -0.9804450678,
				"y": 5.4654631476,
				"z": -2.2679611308,
				"element": "C" 
			},
			{
				"x": -0.5804327354,
				"y": 6.4899107325,
				"z": -1.377102046,
				"element": "C" 
			},
			{
				"x": 0.166948626,
				"y": 6.1806740562,
				"z": -0.2643286385,
				"element": "C" 
			},
			{
				"x": 0.5375888218,
				"y": 4.8371026361,
				"z": 0.0096586879,
				"element": "C" 
			},
			{
				"x": 1.2832996362,
				"y": 4.6065241735,
				"z": 1.1318744318,
				"element": "N" 
			},
			{
				"x": 1.6135049066,
				"y": 3.3594524229,
				"z": 1.388139442,
				"element": "C" 
			},
			{
				"x": 1.241487139,
				"y": 2.2507389783,
				"z": 0.5883182231,
				"element": "C" 
			},
			{
				"x": 1.5854641139,
				"y": 1.6487588188,
				"z": -2.6758879372,
				"element": "H" 
			},
			{
				"x": -1.0045040396,
				"y": 1.3806451994,
				"z": -1.6439743157,
				"element": "H" 
			},
			{
				"x": 1.4967003312,
				"y": -0.1844119568,
				"z": -0.9077373889,
				"element": "H" 
			},
			{
				"x": -0.5876291091,
				"y": -0.6901232463,
				"z": -2.9047325891,
				"element": "H" 
			},
			{
				"x": 0.8166350833,
				"y": -1.6751189723,
				"z": -2.5351884647,
				"element": "H" 
			},
			{
				"x": -1.3005768646,
				"y": -2.9584784295,
				"z": -2.1283501202,
				"element": "H" 
			},
			{
				"x": -2.8642611255,
				"y": -2.2015706374,
				"z": -0.3368534165,
				"element": "H" 
			},
			{
				"x": -2.7151087983,
				"y": -0.9514168539,
				"z": -1.5684892572,
				"element": "H" 
			},
			{
				"x": -1.9528049785,
				"y": -0.7822329853,
				"z": 1.2968227874,
				"element": "H" 
			},
			{
				"x": -1.9935815879,
				"y": 0.5237196474,
				"z": 0.1301677917,
				"element": "H" 
			},
			{
				"x": 0.035087162,
				"y": -1.9966846506,
				"z": 1.731150381,
				"element": "H" 
			},
			{
				"x": 1.4378557712,
				"y": -1.7593664135,
				"z": 0.6948488354,
				"element": "H" 
			},
			{
				"x": -0.9127228903,
				"y": -3.5395091447,
				"z": 0.289379684,
				"element": "H" 
			},
			{
				"x": 0.4549302454,
				"y": -4.5916905502,
				"z": -1.5292358906,
				"element": "H" 
			},
			{
				"x": 2.6299671695,
				"y": -3.360333952,
				"z": 0.2609941523,
				"element": "H" 
			},
			{
				"x": 2.7700928656,
				"y": -4.7573994495,
				"z": -0.9301849577,
				"element": "H" 
			},
			{
				"x": -0.9124402535,
				"y": 3.3859458697,
				"z": -2.7457457569,
				"element": "H" 
			},
			{
				"x": -1.5599759123,
				"y": 5.7187163327,
				"z": -3.1512194462,
				"element": "H" 
			},
			{
				"x": -0.8608484589,
				"y": 7.5197409975,
				"z": -1.5790504412,
				"element": "H" 
			},
			{
				"x": 0.4976813084,
				"y": 6.9397093441,
				"z": 0.4371209906,
				"element": "H" 
			},
			{
				"x": 2.2065518585,
				"y": 3.1894003866,
				"z": 2.2867415156,
				"element": "H" 
			},
			{
				"x": 1.5072035179,
				"y": 1.2530301817,
				"z": 0.9122616545,
				"element": "H" 
			}
		],
		 "valence_orbital": [ 
			{
				"type": "occ",
				"energy": -0.25649,
				"method": "rhf"
			},
			{
				"type": "occ",
				"energy": -0.24773,
				"method": "rhf"
			},
			{
				"type": "occ",
				"energy": -0.24404,
				"method": "rhf"
			},
			{
				"type": "occ",
				"energy": -0.22654,
				"method": "rhf"
			},
			{
				"type": "occ",
				"energy": -0.21104,
				"method": "rhf"
			},
			{
				"type": "unocc",
				"energy": -0.04922,
				"method": "rhf"
			},
			{
				"type": "unocc",
				"energy": -0.00902,
				"method": "rhf"
			},
			{
				"type": "unocc",
				"energy": 0.01612,
				"method": "rhf"
			},
			{
				"type": "unocc",
				"energy": 0.02269,
				"method": "rhf"
			},
			{
				"type": "unocc",
				"energy": 0.06907,
				"method": "rhf"
			}
		],
		"cosmo_sigma_profile": { 
			"-0.025": 0.0,
			"-0.024": 0.0,
			"-0.023": 0.0,
			"-0.022": 0.0,
			"-0.021": 0.0,
			"-0.02": 0.0,
			"-0.019": 0.0,
			"-0.018": 0.0,
			"-0.017": 0.0,
			"-0.016": 0.201487233955,
			"-0.015": 0.924465937211,
			"-0.014": 0.845283466153,
			"-0.013": 0.580053329963,
			"-0.012": 0.773686376256,
			"-0.011": 1.0669935316,
			"-0.01": 1.2473224265,
			"-0.009": 0.734493147168,
			"-0.008": 1.15630753361,
			"-0.007": 1.47200824239,
			"-0.006": 7.9784502907,
			"-0.005": 17.1697835989,
			"-0.004": 29.476604983,
			"-0.003": 37.6699865945,
			"-0.002": 38.3353982552,
			"-0.001": 32.4195714605,
			"0.0": 28.7878520677,
			"0.001": 25.9070266532,
			"0.002": 21.6740994475,
			"0.003": 22.1905902564,
			"0.004": 20.6718103945,
			"0.005": 12.9601627851,
			"0.006": 7.50379115601,
			"0.007": 5.04986471463,
			"0.008": 3.58044796572,
			"0.009": 3.41023631572,
			"0.01": 3.69595754936,
			"0.011": 2.78648295859,
			"0.012": 1.54542465355,
			"0.013": 1.43709751926,
			"0.014": 1.3802328305,
			"0.015": 0.605026466521,
			"0.016": 0.869792866711,
			"0.017": 0.106635915433,
			"0.018": 0.0,
			"0.019": 0.0,
			"0.02": 0.0,
			"0.021": 0.0,
			"0.022": 0.0,
			"0.023": 0.0,
			"0.024": 0.0,
			"0.025": 0.0
		}
	}
}
