{
	 "smiles": "CC1=CC2=C(C=C1)N=CO2", 
	 "Tm": 303.15, 
	 "num_atms": 17, 
	 "gaussian": { 
		 "optdone": 1, 
		 "sigma_profile": "yes", 
		 "theory": "DFT", 
		 "functional": "B3LYP", 
		 "basiset": "6-31G**", 
		 "properties": { 
			 "R2extent": 1880.1573, 
			 "electric_dipole_moment_norm": 1.66647969685, 
			 "electric_quadrupole_moment_norm": 6.4129420986, 
			 "total_energy": -439.042598846, 
			 "HOMO_LUMO_gap": 0.20768, 
			 "cosmo_polarized_energy": -6.41, 
			 "cosmo_cavitation_energy": 20.98, 
			 "cosmo_dispersion_energy": -15.91, 
			 "cosmo_repulsion_energy": 1.26, 
			 "cosmo_total_nonelectrostatic_energy": 6.33, 
			 "SMD_solvation_energy": 2.68 
		},
		"coords": [
			{
				"x": 0.7063302844,
				"y": -0.6227703301,
				"z": 1.7871470671,
				"element": "C" 
			},
			{
				"x": 0.2043989161,
				"y": 0.0921257963,
				"z": 0.5530493021,
				"element": "C" 
			},
			{
				"x": -0.8211785177,
				"y": 1.0392710939,
				"z": 0.6498524605,
				"element": "C" 
			},
			{
				"x": -1.2188349343,
				"y": 1.6483741344,
				"z": -0.5326492303,
				"element": "C" 
			},
			{
				"x": -0.6588654124,
				"y": 1.3686143079,
				"z": -1.7838109871,
				"element": "C" 
			},
			{
				"x": 0.3659413744,
				"y": 0.4224471827,
				"z": -1.8823511803,
				"element": "C" 
			},
			{
				"x": 0.7784123698,
				"y": -0.1989908496,
				"z": -0.7077009271,
				"element": "C" 
			},
			{
				"x": -1.2941826414,
				"y": 2.1581711191,
				"z": -2.7492773876,
				"element": "N" 
			},
			{
				"x": -2.1564866504,
				"y": 2.8358199111,
				"z": -2.0705787582,
				"element": "C" 
			},
			{
				"x": -2.1916382002,
				"y": 2.6013486433,
				"z": -0.7192161899,
				"element": "O" 
			},
			{
				"x": 1.771506426,
				"y": -0.4261980806,
				"z": 1.9553271642,
				"element": "H" 
			},
			{
				"x": 0.1640655811,
				"y": -0.3062900803,
				"z": 2.6821523478,
				"element": "H" 
			},
			{
				"x": 0.591084452,
				"y": -1.7085769967,
				"z": 1.6927546119,
				"element": "H" 
			},
			{
				"x": -1.2820611179,
				"y": 1.2848158019,
				"z": 1.6008248941,
				"element": "H" 
			},
			{
				"x": 0.8166215384,
				"y": 0.1872971463,
				"z": -2.8407283509,
				"element": "H" 
			},
			{
				"x": 1.5731602571,
				"y": -0.9389985666,
				"z": -0.7536991952,
				"element": "H" 
			},
			{
				"x": -2.8595737253,
				"y": 3.570539767,
				"z": -2.4365956412,
				"element": "H" 
			}
		],
		 "valence_orbital": [ 
			{
				"type": "occ",
				"energy": -0.34996,
				"method": "rhf"
			},
			{
				"type": "occ",
				"energy": -0.32643,
				"method": "rhf"
			},
			{
				"type": "occ",
				"energy": -0.29091,
				"method": "rhf"
			},
			{
				"type": "occ",
				"energy": -0.24604,
				"method": "rhf"
			},
			{
				"type": "occ",
				"energy": -0.23199,
				"method": "rhf"
			},
			{
				"type": "unocc",
				"energy": -0.02431,
				"method": "rhf"
			},
			{
				"type": "unocc",
				"energy": 0.00442,
				"method": "rhf"
			},
			{
				"type": "unocc",
				"energy": 0.03902,
				"method": "rhf"
			},
			{
				"type": "unocc",
				"energy": 0.09677,
				"method": "rhf"
			},
			{
				"type": "unocc",
				"energy": 0.11971,
				"method": "rhf"
			}
		],
		"cosmo_sigma_profile": { 
			"-0.025": 0.0,
			"-0.024": 0.0,
			"-0.023": 0.0,
			"-0.022": 0.0,
			"-0.021": 0.0,
			"-0.02": 0.0,
			"-0.019": 0.0,
			"-0.018": 0.0,
			"-0.017": 0.0,
			"-0.016": 0.0,
			"-0.015": 0.0,
			"-0.014": 0.0,
			"-0.013": 0.0,
			"-0.012": 0.0294084617509,
			"-0.011": 1.785874691,
			"-0.01": 1.58023736201,
			"-0.009": 1.93864933186,
			"-0.008": 1.42236746592,
			"-0.007": 3.30402491637,
			"-0.006": 5.9851226571,
			"-0.005": 8.79970527191,
			"-0.004": 13.0998997076,
			"-0.003": 12.9441892616,
			"-0.002": 15.8782738532,
			"-0.001": 14.3872161877,
			"0.0": 15.361304425,
			"0.001": 13.7972994279,
			"0.002": 10.7822569695,
			"0.003": 12.7931365893,
			"0.004": 12.1428889555,
			"0.005": 6.59208146882,
			"0.006": 3.82887951757,
			"0.007": 2.45515886463,
			"0.008": 1.83982922768,
			"0.009": 0.976671547615,
			"0.01": 0.99768398804,
			"0.011": 1.31981794274,
			"0.012": 1.04838534265,
			"0.013": 0.885349421278,
			"0.014": 1.16598542594,
			"0.015": 1.02587921842,
			"0.016": 0.274476252396,
			"0.017": 0.0,
			"0.018": 0.0,
			"0.019": 0.0,
			"0.02": 0.0,
			"0.021": 0.0,
			"0.022": 0.0,
			"0.023": 0.0,
			"0.024": 0.0,
			"0.025": 0.0
		}
	}
}
