{
	 "smiles": "CCC(=O)NC1=CC=C(C=C1)S(Cl)(=O)=O", 
	 "Tm": 383.15, 
	 "num_atms": 25, 
	 "gaussian": { 
		 "optdone": 1, 
		 "sigma_profile": "yes", 
		 "theory": "DFT", 
		 "functional": "B3LYP", 
		 "basiset": "6-31G**", 
		 "properties": { 
			 "R2extent": 6058.0785, 
			 "electric_dipole_moment_norm": 3.80450435799, 
			 "electric_quadrupole_moment_norm": 28.8845778029, 
			 "total_energy": -1487.7394327, 
			 "HOMO_LUMO_gap": 0.16493, 
			 "cosmo_polarized_energy": -17.02, 
			 "cosmo_cavitation_energy": 32.79, 
			 "cosmo_dispersion_energy": -24.3, 
			 "cosmo_repulsion_energy": 1.87, 
			 "cosmo_total_nonelectrostatic_energy": 10.36, 
			 "SMD_solvation_energy": 4.94 
		},
		"coords": [
			{
				"x": 3.1265789723,
				"y": -1.7790787457,
				"z": -3.2836945987,
				"element": "C" 
			},
			{
				"x": 1.9973023177,
				"y": -1.0824165638,
				"z": -2.5229165677,
				"element": "C" 
			},
			{
				"x": 0.6335420139,
				"y": -1.6251696247,
				"z": -2.9181865112,
				"element": "C" 
			},
			{
				"x": 0.4619053066,
				"y": -2.3076812372,
				"z": -3.9145799863,
				"element": "O" 
			},
			{
				"x": -0.4787141672,
				"y": -1.365832229,
				"z": -2.1101509253,
				"element": "N" 
			},
			{
				"x": -0.6789295235,
				"y": -0.6892074676,
				"z": -0.9043299349,
				"element": "C" 
			},
			{
				"x": 0.1276855054,
				"y": 0.3717659854,
				"z": -0.4500733306,
				"element": "C" 
			},
			{
				"x": -0.1520940152,
				"y": 0.9996684943,
				"z": 0.7585448746,
				"element": "C" 
			},
			{
				"x": -1.2540204267,
				"y": 0.5882434242,
				"z": 1.5081546868,
				"element": "C" 
			},
			{
				"x": -2.0866835583,
				"y": -0.444496493,
				"z": 1.0687882556,
				"element": "C" 
			},
			{
				"x": -1.7947439724,
				"y": -1.0744682542,
				"z": -0.1306625698,
				"element": "C" 
			},
			{
				"x": -1.6180329264,
				"y": 1.4070030133,
				"z": 3.0415320395,
				"element": "S" 
			},
			{
				"x": -0.5219129148,
				"y": 0.214861653,
				"z": 4.4410137428,
				"element": "Cl" 
			},
			{
				"x": -3.0249451016,
				"y": 1.2147238695,
				"z": 3.3714034593,
				"element": "O" 
			},
			{
				"x": -0.9835906391,
				"y": 2.7194939187,
				"z": 3.0538890304,
				"element": "O" 
			},
			{
				"x": 4.0904024007,
				"y": -1.3378769267,
				"z": -3.0149484185,
				"element": "H" 
			},
			{
				"x": 3.158222601,
				"y": -2.8461431971,
				"z": -3.0482985789,
				"element": "H" 
			},
			{
				"x": 2.9828736301,
				"y": -1.6846421633,
				"z": -4.3616639941,
				"element": "H" 
			},
			{
				"x": 2.0110187893,
				"y": -0.0059458564,
				"z": -2.7409553055,
				"element": "H" 
			},
			{
				"x": 2.1329421508,
				"y": -1.178048563,
				"z": -1.4397371597,
				"element": "H" 
			},
			{
				"x": -1.2768864679,
				"y": -1.8874365227,
				"z": -2.4546727119,
				"element": "H" 
			},
			{
				"x": 0.9541280373,
				"y": 0.7327760721,
				"z": -1.0451021932,
				"element": "H" 
			},
			{
				"x": 0.4636210587,
				"y": 1.8224023657,
				"z": 1.1043624618,
				"element": "H" 
			},
			{
				"x": -2.946406145,
				"y": -0.742871385,
				"z": 1.6580560027,
				"element": "H" 
			},
			{
				"x": -2.4295629258,
				"y": -1.8841235667,
				"z": -0.4790717668,
				"element": "H" 
			}
		],
		 "valence_orbital": [ 
			{
				"type": "occ",
				"energy": -0.32362,
				"method": "rhf"
			},
			{
				"type": "occ",
				"energy": -0.31277,
				"method": "rhf"
			},
			{
				"type": "occ",
				"energy": -0.29666,
				"method": "rhf"
			},
			{
				"type": "occ",
				"energy": -0.28037,
				"method": "rhf"
			},
			{
				"type": "occ",
				"energy": -0.25659,
				"method": "rhf"
			},
			{
				"type": "unocc",
				"energy": -0.09166,
				"method": "rhf"
			},
			{
				"type": "unocc",
				"energy": -0.04922,
				"method": "rhf"
			},
			{
				"type": "unocc",
				"energy": -0.04555,
				"method": "rhf"
			},
			{
				"type": "unocc",
				"energy": 0.00439,
				"method": "rhf"
			},
			{
				"type": "unocc",
				"energy": 0.0453,
				"method": "rhf"
			}
		],
		"cosmo_sigma_profile": { 
			"-0.025": 0.0,
			"-0.024": 0.0,
			"-0.023": 0.0,
			"-0.022": 0.0,
			"-0.021": 0.0,
			"-0.02": 0.0,
			"-0.019": 0.0,
			"-0.018": 0.0,
			"-0.017": 0.0,
			"-0.016": 0.0344414824377,
			"-0.015": 0.837886282746,
			"-0.014": 1.41441783757,
			"-0.013": 1.13975805592,
			"-0.012": 1.19539670281,
			"-0.011": 0.973260547649,
			"-0.01": 1.78547442522,
			"-0.009": 4.36566816384,
			"-0.008": 8.2228869808,
			"-0.007": 9.04098304411,
			"-0.006": 10.6149160331,
			"-0.005": 11.8803824947,
			"-0.004": 14.4332924673,
			"-0.003": 17.9026321126,
			"-0.002": 19.2439851454,
			"-0.001": 21.0229069263,
			"0.0": 25.0553806804,
			"0.001": 26.6553777183,
			"0.002": 12.7325001788,
			"0.003": 13.8449645726,
			"0.004": 14.8649756264,
			"0.005": 4.623692862,
			"0.006": 5.27522365947,
			"0.007": 5.90235748005,
			"0.008": 11.6997298419,
			"0.009": 7.63889201928,
			"0.01": 1.32329943175,
			"0.011": 2.7153467186,
			"0.012": 3.90503938366,
			"0.013": 3.67898514659,
			"0.014": 0.0639361797301,
			"0.015": 0.0,
			"0.016": 0.0,
			"0.017": 0.0,
			"0.018": 0.0,
			"0.019": 0.0,
			"0.02": 0.0,
			"0.021": 0.0,
			"0.022": 0.0,
			"0.023": 0.0,
			"0.024": 0.0,
			"0.025": 0.0
		}
	}
}
