{
	 "smiles": "CC(C1CC1)C(O)(CN1C=NC=N1)C1=CC=C(Cl)C=C1", 
	 "Tm": 381.15, 
	 "num_atms": 38, 
	 "gaussian": { 
		 "optdone": 1, 
		 "sigma_profile": "yes", 
		 "theory": "DFT", 
		 "functional": "B3LYP", 
		 "basiset": "6-31G**", 
		 "properties": { 
			 "R2extent": 6874.8217, 
			 "electric_dipole_moment_norm": 5.64520246935, 
			 "electric_quadrupole_moment_norm": 11.2774769275, 
			 "total_energy": -1282.066004, 
			 "HOMO_LUMO_gap": 0.22487, 
			 "cosmo_polarized_energy": -15.67, 
			 "cosmo_cavitation_energy": 40.93, 
			 "cosmo_dispersion_energy": -27.69, 
			 "cosmo_repulsion_energy": 2.12, 
			 "cosmo_total_nonelectrostatic_energy": 15.36, 
			 "SMD_solvation_energy": 4.07 
		},
		"coords": [
			{
				"x": -0.3738752684,
				"y": 0.5532590234,
				"z": -3.0519986621,
				"element": "C" 
			},
			{
				"x": -1.0922326952,
				"y": 0.0665749572,
				"z": -1.7829232521,
				"element": "C" 
			},
			{
				"x": -1.9710006561,
				"y": -1.1697485739,
				"z": -2.0086674348,
				"element": "C" 
			},
			{
				"x": -1.6360927485,
				"y": -2.2705073867,
				"z": -3.0059645487,
				"element": "C" 
			},
			{
				"x": -2.8279203206,
				"y": -1.3728335656,
				"z": -3.2299757458,
				"element": "C" 
			},
			{
				"x": -0.0893615791,
				"y": -0.2228873534,
				"z": -0.6085026257,
				"element": "C" 
			},
			{
				"x": 0.7673416459,
				"y": -1.3052434924,
				"z": -0.9797291601,
				"element": "O" 
			},
			{
				"x": 0.8701935857,
				"y": 0.9736701678,
				"z": -0.3974962946,
				"element": "C" 
			},
			{
				"x": 1.7378831268,
				"y": 0.8297743346,
				"z": 0.7603404473,
				"element": "N" 
			},
			{
				"x": 2.7601371489,
				"y": -0.0315022469,
				"z": 0.9761201886,
				"element": "C" 
			},
			{
				"x": 3.2863101565,
				"y": 0.1658538768,
				"z": 2.1739201743,
				"element": "N" 
			},
			{
				"x": 2.5263017662,
				"y": 1.1854849495,
				"z": 2.6635063086,
				"element": "C" 
			},
			{
				"x": 1.5758788231,
				"y": 1.6265684262,
				"z": 1.85213918,
				"element": "N" 
			},
			{
				"x": -0.8369232173,
				"y": -0.5300994044,
				"z": 0.700046368,
				"element": "C" 
			},
			{
				"x": -0.5722253978,
				"y": -1.7026220377,
				"z": 1.4155739453,
				"element": "C" 
			},
			{
				"x": -1.2387317664,
				"y": -1.9913556371,
				"z": 2.6075847659,
				"element": "C" 
			},
			{
				"x": -2.1805220641,
				"y": -1.0895454805,
				"z": 3.0950642695,
				"element": "C" 
			},
			{
				"x": -3.0320704569,
				"y": -1.4437954011,
				"z": 4.5916575877,
				"element": "Cl" 
			},
			{
				"x": -2.454341686,
				"y": 0.0955693867,
				"z": 2.4129382706,
				"element": "C" 
			},
			{
				"x": -1.7798912137,
				"y": 0.3664993431,
				"z": 1.2244295273,
				"element": "C" 
			},
			{
				"x": 0.4538699576,
				"y": -0.1102742654,
				"z": -3.317385837,
				"element": "H" 
			},
			{
				"x": -1.0609312137,
				"y": 0.6028650133,
				"z": -3.9007802244,
				"element": "H" 
			},
			{
				"x": 0.0310412419,
				"y": 1.5600716057,
				"z": -2.920888654,
				"element": "H" 
			},
			{
				"x": -1.7611237309,
				"y": 0.8693860901,
				"z": -1.4470472189,
				"element": "H" 
			},
			{
				"x": -2.4298571012,
				"y": -1.5237126363,
				"z": -1.0889205847,
				"element": "H" 
			},
			{
				"x": -1.8125652475,
				"y": -3.302702568,
				"z": -2.7168032074,
				"element": "H" 
			},
			{
				"x": -0.7861910068,
				"y": -2.1344984234,
				"z": -3.6679884436,
				"element": "H" 
			},
			{
				"x": -2.7693670244,
				"y": -0.6548722629,
				"z": -4.0419640502,
				"element": "H" 
			},
			{
				"x": -3.8204395471,
				"y": -1.786901091,
				"z": -3.0816396724,
				"element": "H" 
			},
			{
				"x": 0.2035869676,
				"y": -2.0138222369,
				"z": -1.3227726746,
				"element": "H" 
			},
			{
				"x": 0.3090492131,
				"y": 1.8958139439,
				"z": -0.240941716,
				"element": "H" 
			},
			{
				"x": 1.4938095126,
				"y": 1.0838259396,
				"z": -1.2867617272,
				"element": "H" 
			},
			{
				"x": 3.0602685306,
				"y": -0.7700773217,
				"z": 0.247756522,
				"element": "H" 
			},
			{
				"x": 2.6783697528,
				"y": 1.6189717663,
				"z": 3.6425574914,
				"element": "H" 
			},
			{
				"x": 0.1761981547,
				"y": -2.3923228272,
				"z": 1.0429699343,
				"element": "H" 
			},
			{
				"x": -1.0238815784,
				"y": -2.9034430042,
				"z": 3.1534327161,
				"element": "H" 
			},
			{
				"x": -3.180309874,
				"y": 0.7968170591,
				"z": 2.8090962417,
				"element": "H" 
			},
			{
				"x": -1.9959841895,
				"y": 1.2998613335,
				"z": 0.7130177957,
				"element": "H" 
			}
		],
		 "valence_orbital": [ 
			{
				"type": "occ",
				"energy": -0.27641,
				"method": "rhf"
			},
			{
				"type": "occ",
				"energy": -0.26607,
				"method": "rhf"
			},
			{
				"type": "occ",
				"energy": -0.26361,
				"method": "rhf"
			},
			{
				"type": "occ",
				"energy": -0.25257,
				"method": "rhf"
			},
			{
				"type": "occ",
				"energy": -0.24394,
				"method": "rhf"
			},
			{
				"type": "unocc",
				"energy": -0.01907,
				"method": "rhf"
			},
			{
				"type": "unocc",
				"energy": -0.01529,
				"method": "rhf"
			},
			{
				"type": "unocc",
				"energy": 0.01512,
				"method": "rhf"
			},
			{
				"type": "unocc",
				"energy": 0.02947,
				"method": "rhf"
			},
			{
				"type": "unocc",
				"energy": 0.0623,
				"method": "rhf"
			}
		],
		"cosmo_sigma_profile": { 
			"-0.025": 0.0,
			"-0.024": 0.0,
			"-0.023": 0.0,
			"-0.022": 0.0,
			"-0.021": 0.0,
			"-0.02": 0.0,
			"-0.019": 0.0,
			"-0.018": 0.0,
			"-0.017": 0.0,
			"-0.016": 0.0,
			"-0.015": 0.0,
			"-0.014": 0.0,
			"-0.013": 0.0,
			"-0.012": 0.020863363069,
			"-0.011": 0.353741902639,
			"-0.01": 0.661238156726,
			"-0.009": 2.73411785136,
			"-0.008": 5.52183480403,
			"-0.007": 12.4970711551,
			"-0.006": 15.0126015322,
			"-0.005": 21.9561925457,
			"-0.004": 23.7276633421,
			"-0.003": 26.43670707,
			"-0.002": 24.6515348752,
			"-0.001": 24.7310850276,
			"0.0": 25.8504451643,
			"0.001": 23.9688198494,
			"0.002": 25.621461394,
			"0.003": 24.3948016189,
			"0.004": 21.6885255084,
			"0.005": 14.7745275899,
			"0.006": 5.32610745137,
			"0.007": 5.30536981664,
			"0.008": 4.29612577616,
			"0.009": 2.92338706595,
			"0.01": 2.08275489965,
			"0.011": 2.91631562547,
			"0.012": 2.12347854538,
			"0.013": 1.858125386,
			"0.014": 1.84407938844,
			"0.015": 1.2223975419,
			"0.016": 1.20929339912,
			"0.017": 0.540649900095,
			"0.018": 0.00539845830238,
			"0.019": 0.0,
			"0.02": 0.0,
			"0.021": 0.0,
			"0.022": 0.0,
			"0.023": 0.0,
			"0.024": 0.0,
			"0.025": 0.0
		}
	}
}
