{
	 "smiles": "OC1=C(C=O)C=C(OC(F)(F)F)C=C1", 
	 "Tm": 305.15, 
	 "num_atms": 19, 
	 "gaussian": { 
		 "optdone": 1, 
		 "sigma_profile": "yes", 
		 "theory": "DFT", 
		 "functional": "B3LYP", 
		 "basiset": "6-31G**", 
		 "properties": { 
			 "R2extent": 3613.5566, 
			 "electric_dipole_moment_norm": 4.91801284057, 
			 "electric_quadrupole_moment_norm": 9.5482543792, 
			 "total_energy": -833.041323459, 
			 "HOMO_LUMO_gap": 0.16873, 
			 "cosmo_polarized_energy": -12.22, 
			 "cosmo_cavitation_energy": 25.86, 
			 "cosmo_dispersion_energy": -18.63, 
			 "cosmo_repulsion_energy": 1.4, 
			 "cosmo_total_nonelectrostatic_energy": 8.63, 
			 "SMD_solvation_energy": 7.46 
		},
		"coords": [
			{
				"x": -0.2073989014,
				"y": 2.4102180616,
				"z": -1.5826597109,
				"element": "O" 
			},
			{
				"x": -0.1639239554,
				"y": 1.201626689,
				"z": -0.9546491054,
				"element": "C" 
			},
			{
				"x": 1.0715324838,
				"y": 0.5257060521,
				"z": -0.8997671378,
				"element": "C" 
			},
			{
				"x": 2.299868199,
				"y": 1.0976294859,
				"z": -1.5024896397,
				"element": "C" 
			},
			{
				"x": 3.3823383851,
				"y": 0.5394086533,
				"z": -1.4716742987,
				"element": "O" 
			},
			{
				"x": 1.1442113759,
				"y": -0.7173558112,
				"z": -0.2606986471,
				"element": "C" 
			},
			{
				"x": 0.0162606437,
				"y": -1.2832324096,
				"z": 0.3143103078,
				"element": "C" 
			},
			{
				"x": 0.2274813276,
				"y": -2.5258017974,
				"z": 0.9191585372,
				"element": "O" 
			},
			{
				"x": -0.7843320624,
				"y": -3.1951425183,
				"z": 1.5195183401,
				"element": "C" 
			},
			{
				"x": -1.3290354056,
				"y": -2.5020377341,
				"z": 2.5409703728,
				"element": "F" 
			},
			{
				"x": -0.284521046,
				"y": -4.3315502946,
				"z": 1.9977916773,
				"element": "F" 
			},
			{
				"x": -1.786373079,
				"y": -3.4921160503,
				"z": 0.6661899515,
				"element": "F" 
			},
			{
				"x": -1.2128885204,
				"y": -0.6184467528,
				"z": 0.2638259583,
				"element": "C" 
			},
			{
				"x": -1.2930094153,
				"y": 0.6196837096,
				"z": -0.3708476132,
				"element": "C" 
			},
			{
				"x": -1.1067709068,
				"y": 2.7606973048,
				"z": -1.5477136013,
				"element": "H" 
			},
			{
				"x": 2.1772344346,
				"y": 2.081337661,
				"z": -1.9918596046,
				"element": "H" 
			},
			{
				"x": 2.1003956652,
				"y": -1.2279929772,
				"z": -0.2248566676,
				"element": "H" 
			},
			{
				"x": -2.1024675463,
				"y": -1.0454247655,
				"z": 0.7071849905,
				"element": "H" 
			},
			{
				"x": -2.2496016763,
				"y": 1.1354934937,
				"z": -0.4093341094,
				"element": "H" 
			}
		],
		 "valence_orbital": [ 
			{
				"type": "occ",
				"energy": -0.37104,
				"method": "rhf"
			},
			{
				"type": "occ",
				"energy": -0.33834,
				"method": "rhf"
			},
			{
				"type": "occ",
				"energy": -0.27807,
				"method": "rhf"
			},
			{
				"type": "occ",
				"energy": -0.25631,
				"method": "rhf"
			},
			{
				"type": "occ",
				"energy": -0.23971,
				"method": "rhf"
			},
			{
				"type": "unocc",
				"energy": -0.07098,
				"method": "rhf"
			},
			{
				"type": "unocc",
				"energy": -0.01159,
				"method": "rhf"
			},
			{
				"type": "unocc",
				"energy": 0.03054,
				"method": "rhf"
			},
			{
				"type": "unocc",
				"energy": 0.04615,
				"method": "rhf"
			},
			{
				"type": "unocc",
				"energy": 0.07806,
				"method": "rhf"
			}
		],
		"cosmo_sigma_profile": { 
			"-0.025": 0.0,
			"-0.024": 0.0,
			"-0.023": 0.0,
			"-0.022": 0.0,
			"-0.021": 0.0,
			"-0.02": 0.0,
			"-0.019": 0.444476624453,
			"-0.018": 1.2218744952,
			"-0.017": 1.72921192335,
			"-0.016": 0.915024123698,
			"-0.015": 0.600425624868,
			"-0.014": 1.78113004205,
			"-0.013": 0.830960761421,
			"-0.012": 0.627350431133,
			"-0.011": 1.05995906735,
			"-0.01": 1.37905946547,
			"-0.009": 1.15437532805,
			"-0.008": 3.29285012351,
			"-0.007": 4.82782649405,
			"-0.006": 5.72302851413,
			"-0.005": 5.37838842907,
			"-0.004": 7.31711730046,
			"-0.003": 8.12857274416,
			"-0.002": 10.4518955324,
			"-0.001": 13.7598514402,
			"0.0": 26.1636179873,
			"0.001": 38.8794757167,
			"0.002": 34.6726533639,
			"0.003": 5.75757337483,
			"0.004": 5.62602773285,
			"0.005": 4.74655806709,
			"0.006": 2.35118807972,
			"0.007": 3.93333289991,
			"0.008": 3.24390533289,
			"0.009": 1.88164983737,
			"0.01": 2.90043647522,
			"0.011": 4.09892679525,
			"0.012": 2.54857693414,
			"0.013": 0.65673360786,
			"0.014": 0.0,
			"0.015": 0.0,
			"0.016": 0.0,
			"0.017": 0.0,
			"0.018": 0.0,
			"0.019": 0.0,
			"0.02": 0.0,
			"0.021": 0.0,
			"0.022": 0.0,
			"0.023": 0.0,
			"0.024": 0.0,
			"0.025": 0.0
		}
	}
}
