{
	 "smiles": "O=C1NCCOC2=C1C=CC=C2", 
	 "Tm": 384.15, 
	 "num_atms": 21, 
	 "gaussian": { 
		 "optdone": 1, 
		 "sigma_profile": "yes", 
		 "theory": "DFT", 
		 "functional": "B3LYP", 
		 "basiset": "6-31G**", 
		 "properties": { 
			 "R2extent": 2181.8339, 
			 "electric_dipole_moment_norm": 3.41432609603, 
			 "electric_quadrupole_moment_norm": 12.2768835915, 
			 "total_energy": -553.581792955, 
			 "HOMO_LUMO_gap": 0.19506, 
			 "cosmo_polarized_energy": -12.51, 
			 "cosmo_cavitation_energy": 23.9, 
			 "cosmo_dispersion_energy": -18.4, 
			 "cosmo_repulsion_energy": 1.45, 
			 "cosmo_total_nonelectrostatic_energy": 6.95, 
			 "SMD_solvation_energy": 4.13 
		},
		"coords": [
			{
				"x": -1.9602147769,
				"y": 0.7515978829,
				"z": -0.7214946226,
				"element": "O" 
			},
			{
				"x": -1.3743341008,
				"y": 0.3258758977,
				"z": 0.2739993228,
				"element": "C" 
			},
			{
				"x": -2.1047383976,
				"y": -0.3667963466,
				"z": 1.2055876629,
				"element": "N" 
			},
			{
				"x": -1.7143875589,
				"y": -0.9535973131,
				"z": 2.4706117876,
				"element": "C" 
			},
			{
				"x": -0.3501485875,
				"y": -1.6208525179,
				"z": 2.4060038184,
				"element": "C" 
			},
			{
				"x": 0.7145133166,
				"y": -0.6877196079,
				"z": 2.5028515878,
				"element": "O" 
			},
			{
				"x": 0.9936615314,
				"y": 0.1499104925,
				"z": 1.457327147,
				"element": "C" 
			},
			{
				"x": 0.1036310538,
				"y": 0.5910206705,
				"z": 0.4517833843,
				"element": "C" 
			},
			{
				"x": 0.6304472591,
				"y": 1.4491647619,
				"z": -0.5391501241,
				"element": "C" 
			},
			{
				"x": 1.9464027995,
				"y": 1.8812659742,
				"z": -0.535203912,
				"element": "C" 
			},
			{
				"x": 2.8016023186,
				"y": 1.4555602332,
				"z": 0.4871901275,
				"element": "C" 
			},
			{
				"x": 2.3263948546,
				"y": 0.595495234,
				"z": 1.4643912727,
				"element": "C" 
			},
			{
				"x": -3.0810545481,
				"y": -0.4040764657,
				"z": 0.9461382714,
				"element": "H" 
			},
			{
				"x": -1.7047755307,
				"y": -0.2203526877,
				"z": 3.2901985042,
				"element": "H" 
			},
			{
				"x": -2.4641389579,
				"y": -1.7116078757,
				"z": 2.721739019,
				"element": "H" 
			},
			{
				"x": -0.2618870577,
				"y": -2.2163909814,
				"z": 1.4873698226,
				"element": "H" 
			},
			{
				"x": -0.2193639055,
				"y": -2.2799369393,
				"z": 3.2684134572,
				"element": "H" 
			},
			{
				"x": -0.0606507797,
				"y": 1.7689253666,
				"z": -1.3100479131,
				"element": "H" 
			},
			{
				"x": 2.3036339679,
				"y": 2.5468136045,
				"z": -1.314615535,
				"element": "H" 
			},
			{
				"x": 3.8369444564,
				"y": 1.7832061675,
				"z": 0.5154537947,
				"element": "H" 
			},
			{
				"x": 2.9678626438,
				"y": 0.2297944499,
				"z": 2.2592531267,
				"element": "H" 
			}
		],
		 "valence_orbital": [ 
			{
				"type": "occ",
				"energy": -0.31696,
				"method": "rhf"
			},
			{
				"type": "occ",
				"energy": -0.25415,
				"method": "rhf"
			},
			{
				"type": "occ",
				"energy": -0.25031,
				"method": "rhf"
			},
			{
				"type": "occ",
				"energy": -0.24631,
				"method": "rhf"
			},
			{
				"type": "occ",
				"energy": -0.22755,
				"method": "rhf"
			},
			{
				"type": "unocc",
				"energy": -0.03249,
				"method": "rhf"
			},
			{
				"type": "unocc",
				"energy": 0.00456,
				"method": "rhf"
			},
			{
				"type": "unocc",
				"energy": 0.06589,
				"method": "rhf"
			},
			{
				"type": "unocc",
				"energy": 0.07061,
				"method": "rhf"
			},
			{
				"type": "unocc",
				"energy": 0.0975,
				"method": "rhf"
			}
		],
		"cosmo_sigma_profile": { 
			"-0.025": 0.0,
			"-0.024": 0.0,
			"-0.023": 0.0,
			"-0.022": 0.0,
			"-0.021": 0.0,
			"-0.02": 0.0,
			"-0.019": 0.0,
			"-0.018": 0.0,
			"-0.017": 0.0,
			"-0.016": 0.0,
			"-0.015": 0.0,
			"-0.014": 0.526279849135,
			"-0.013": 0.885855367339,
			"-0.012": 1.57992368198,
			"-0.011": 0.612459291913,
			"-0.01": 1.07631874328,
			"-0.009": 1.1198803351,
			"-0.008": 1.21835570196,
			"-0.007": 6.44037594337,
			"-0.006": 14.290064563,
			"-0.005": 17.2408183036,
			"-0.004": 18.0988308159,
			"-0.003": 14.3582949767,
			"-0.002": 10.328658073,
			"-0.001": 8.18172592674,
			"0.0": 9.29776928157,
			"0.001": 10.7117292827,
			"0.002": 11.7167265911,
			"0.003": 14.3706280142,
			"0.004": 13.8054557263,
			"0.005": 9.53367951948,
			"0.006": 2.98558308975,
			"0.007": 2.80754119849,
			"0.008": 2.14260184781,
			"0.009": 2.32691713762,
			"0.01": 2.5308194404,
			"0.011": 1.74856805647,
			"0.012": 1.29285628076,
			"0.013": 3.25643434612,
			"0.014": 4.89575305893,
			"0.015": 0.639862905309,
			"0.016": 0.0,
			"0.017": 0.0,
			"0.018": 0.0,
			"0.019": 0.0,
			"0.02": 0.0,
			"0.021": 0.0,
			"0.022": 0.0,
			"0.023": 0.0,
			"0.024": 0.0,
			"0.025": 0.0
		}
	}
}
