{
	 "smiles": "COC(=O)CN1C=CN=C1[N+]([O-])=O", 
	 "Tm": 369.15, 
	 "num_atms": 20, 
	 "gaussian": { 
		 "optdone": 1, 
		 "sigma_profile": "yes", 
		 "theory": "DFT", 
		 "functional": "B3LYP", 
		 "basiset": "6-31G**", 
		 "properties": { 
			 "R2extent": 2716.4422, 
			 "electric_dipole_moment_norm": 6.45277952049, 
			 "electric_quadrupole_moment_norm": 10.3410871522, 
			 "total_energy": -697.887653179, 
			 "HOMO_LUMO_gap": 0.17211, 
			 "cosmo_polarized_energy": -19.05, 
			 "cosmo_cavitation_energy": 25.87, 
			 "cosmo_dispersion_energy": -18.35, 
			 "cosmo_repulsion_energy": 1.46, 
			 "cosmo_total_nonelectrostatic_energy": 8.98, 
			 "SMD_solvation_energy": 7.08 
		},
		"coords": [
			{
				"x": -3.3960736993,
				"y": -1.7660335594,
				"z": -1.7999822372,
				"element": "C" 
			},
			{
				"x": -2.2740044555,
				"y": -2.2774156771,
				"z": -1.0530172888,
				"element": "O" 
			},
			{
				"x": -1.1060958404,
				"y": -1.6558564216,
				"z": -1.2740259996,
				"element": "C" 
			},
			{
				"x": -0.930084423,
				"y": -0.7476969606,
				"z": -2.0494021399,
				"element": "O" 
			},
			{
				"x": -0.0178863561,
				"y": -2.3076462045,
				"z": -0.4206425449,
				"element": "C" 
			},
			{
				"x": 1.2102049656,
				"y": -1.5277378662,
				"z": -0.4316897344,
				"element": "N" 
			},
			{
				"x": 2.3452490895,
				"y": -1.8623967784,
				"z": -1.1250727237,
				"element": "C" 
			},
			{
				"x": 3.2447958077,
				"y": -0.8346036468,
				"z": -0.9252833488,
				"element": "C" 
			},
			{
				"x": 2.6966511614,
				"y": 0.1310015402,
				"z": -0.1367599177,
				"element": "N" 
			},
			{
				"x": 1.4869759259,
				"y": -0.3037603442,
				"z": 0.1329017627,
				"element": "C" 
			},
			{
				"x": 0.5459259245,
				"y": 0.4196421149,
				"z": 0.9501372163,
				"element": "N" 
			},
			{
				"x": 0.9023432041,
				"y": 1.4911122943,
				"z": 1.4176858323,
				"element": "O" 
			},
			{
				"x": -0.5656449114,
				"y": -0.1055894178,
				"z": 1.1264704255,
				"element": "O" 
			},
			{
				"x": -4.2462068022,
				"y": -2.3808371028,
				"z": -1.5070401191,
				"element": "H" 
			},
			{
				"x": -3.5713226799,
				"y": -0.7185306147,
				"z": -1.5457704086,
				"element": "H" 
			},
			{
				"x": -3.2101556709,
				"y": -1.8486502176,
				"z": -2.8733081422,
				"element": "H" 
			},
			{
				"x": 0.2102264535,
				"y": -3.2948333098,
				"z": -0.8327212639,
				"element": "H" 
			},
			{
				"x": -0.38549269,
				"y": -2.4341789217,
				"z": 0.5961934155,
				"element": "H" 
			},
			{
				"x": 2.4103935277,
				"y": -2.7832125835,
				"z": -1.6850545625,
				"element": "H" 
			},
			{
				"x": 4.2516014686,
				"y": -0.7488763229,
				"z": -1.3085182208,
				"element": "H" 
			}
		],
		 "valence_orbital": [ 
			{
				"type": "occ",
				"energy": -0.30843,
				"method": "rhf"
			},
			{
				"type": "occ",
				"energy": -0.30542,
				"method": "rhf"
			},
			{
				"type": "occ",
				"energy": -0.29247,
				"method": "rhf"
			},
			{
				"type": "occ",
				"energy": -0.28996,
				"method": "rhf"
			},
			{
				"type": "occ",
				"energy": -0.26125,
				"method": "rhf"
			},
			{
				"type": "unocc",
				"energy": -0.08914,
				"method": "rhf"
			},
			{
				"type": "unocc",
				"energy": -0.0061,
				"method": "rhf"
			},
			{
				"type": "unocc",
				"energy": 0.01629,
				"method": "rhf"
			},
			{
				"type": "unocc",
				"energy": 0.05289,
				"method": "rhf"
			},
			{
				"type": "unocc",
				"energy": 0.07872,
				"method": "rhf"
			}
		],
		"cosmo_sigma_profile": { 
			"-0.025": 0.0,
			"-0.024": 0.0,
			"-0.023": 0.0,
			"-0.022": 0.0,
			"-0.021": 0.0,
			"-0.02": 0.0,
			"-0.019": 0.0,
			"-0.018": 0.0,
			"-0.017": 0.0,
			"-0.016": 0.0,
			"-0.015": 0.0,
			"-0.014": 0.0,
			"-0.013": 0.472813205851,
			"-0.012": 2.09757568113,
			"-0.011": 3.75937001307,
			"-0.01": 4.02387376352,
			"-0.009": 4.10949118377,
			"-0.008": 8.63132232868,
			"-0.007": 8.93428661627,
			"-0.006": 14.1914221324,
			"-0.005": 13.7384994003,
			"-0.004": 15.6361899924,
			"-0.003": 11.5107483769,
			"-0.002": 10.6276848381,
			"-0.001": 7.99288525851,
			"0.0": 9.14044280829,
			"0.001": 10.8051387284,
			"0.002": 9.17361347935,
			"0.003": 7.62823765075,
			"0.004": 6.80864101856,
			"0.005": 6.71992122745,
			"0.006": 7.14594031703,
			"0.007": 10.7636536043,
			"0.008": 8.48585175789,
			"0.009": 7.54840524301,
			"0.01": 5.80114678086,
			"0.011": 5.38360588085,
			"0.012": 1.87132855441,
			"0.013": 1.64373008267,
			"0.014": 1.00457649804,
			"0.015": 1.22346811396,
			"0.016": 0.0104390992523,
			"0.017": 0.0,
			"0.018": 0.0,
			"0.019": 0.0,
			"0.02": 0.0,
			"0.021": 0.0,
			"0.022": 0.0,
			"0.023": 0.0,
			"0.024": 0.0,
			"0.025": 0.0
		}
	}
}
