{
	 "smiles": "NC(=O)NC1=CC2=C(OCO2)C=C1", 
	 "Tm": 453.15, 
	 "num_atms": 21, 
	 "gaussian": { 
		 "optdone": 1, 
		 "sigma_profile": "yes", 
		 "theory": "DFT", 
		 "functional": "B3LYP", 
		 "basiset": "6-31G**", 
		 "properties": { 
			 "R2extent": 3110.4562, 
			 "electric_dipole_moment_norm": 3.42419306845, 
			 "electric_quadrupole_moment_norm": 20.5138905308, 
			 "total_energy": -644.843857926, 
			 "HOMO_LUMO_gap": 0.19411, 
			 "cosmo_polarized_energy": -18.21, 
			 "cosmo_cavitation_energy": 25.42, 
			 "cosmo_dispersion_energy": -19.61, 
			 "cosmo_repulsion_energy": 1.55, 
			 "cosmo_total_nonelectrostatic_energy": 7.36, 
			 "SMD_solvation_energy": 5.76 
		},
		"coords": [
			{
				"x": -2.2520152926,
				"y": -1.8991791404,
				"z": -3.2896512584,
				"element": "N" 
			},
			{
				"x": -1.2178653711,
				"y": -1.3070855938,
				"z": -2.5648100043,
				"element": "C" 
			},
			{
				"x": -0.0605265647,
				"y": -1.6928019248,
				"z": -2.6499257994,
				"element": "O" 
			},
			{
				"x": -1.661074148,
				"y": -0.2941117355,
				"z": -1.73300581,
				"element": "N" 
			},
			{
				"x": -0.9033919427,
				"y": 0.5095291654,
				"z": -0.8528638969,
				"element": "C" 
			},
			{
				"x": 0.5041129151,
				"y": 0.4126214501,
				"z": -0.7671030562,
				"element": "C" 
			},
			{
				"x": 1.1195219883,
				"y": 1.2643446703,
				"z": 0.1272358451,
				"element": "C" 
			},
			{
				"x": 0.4235514345,
				"y": 2.177749155,
				"z": 0.9140285964,
				"element": "C" 
			},
			{
				"x": 1.308958353,
				"y": 2.9022853813,
				"z": 1.6827675451,
				"element": "O" 
			},
			{
				"x": 2.5790789897,
				"y": 2.2722492341,
				"z": 1.4885798615,
				"element": "C" 
			},
			{
				"x": 2.466779995,
				"y": 1.3781414522,
				"z": 0.3759502128,
				"element": "O" 
			},
			{
				"x": -0.9496283806,
				"y": 2.2830268478,
				"z": 0.8391403874,
				"element": "C" 
			},
			{
				"x": -1.6071269513,
				"y": 1.4299821335,
				"z": -0.0626072631,
				"element": "C" 
			},
			{
				"x": -1.897999445,
				"y": -2.5174116178,
				"z": -4.0062632633,
				"element": "H" 
			},
			{
				"x": -3.0111020079,
				"y": -1.3085806066,
				"z": -3.6020268445,
				"element": "H" 
			},
			{
				"x": -2.661328994,
				"y": -0.1986297417,
				"z": -1.6369213395,
				"element": "H" 
			},
			{
				"x": 1.050241391,
				"y": -0.3004634914,
				"z": -1.3662685884,
				"element": "H" 
			},
			{
				"x": 2.8500880544,
				"y": 1.7023326011,
				"z": 2.3900283776,
				"element": "H" 
			},
			{
				"x": 3.3342230081,
				"y": 3.0331395193,
				"z": 1.2691097005,
				"element": "H" 
			},
			{
				"x": -1.499183011,
				"y": 2.9936629151,
				"z": 1.4457313306,
				"element": "H" 
			},
			{
				"x": -2.6893140201,
				"y": 1.4880993268,
				"z": -0.146224733,
				"element": "H" 
			}
		],
		 "valence_orbital": [ 
			{
				"type": "occ",
				"energy": -0.28161,
				"method": "rhf"
			},
			{
				"type": "occ",
				"energy": -0.27622,
				"method": "rhf"
			},
			{
				"type": "occ",
				"energy": -0.25883,
				"method": "rhf"
			},
			{
				"type": "occ",
				"energy": -0.23469,
				"method": "rhf"
			},
			{
				"type": "occ",
				"energy": -0.19093,
				"method": "rhf"
			},
			{
				"type": "unocc",
				"energy": 0.00318,
				"method": "rhf"
			},
			{
				"type": "unocc",
				"energy": 0.01109,
				"method": "rhf"
			},
			{
				"type": "unocc",
				"energy": 0.0542,
				"method": "rhf"
			},
			{
				"type": "unocc",
				"energy": 0.06658,
				"method": "rhf"
			},
			{
				"type": "unocc",
				"energy": 0.09253,
				"method": "rhf"
			}
		],
		"cosmo_sigma_profile": { 
			"-0.025": 0.0,
			"-0.024": 0.0,
			"-0.023": 0.0,
			"-0.022": 0.0,
			"-0.021": 0.0,
			"-0.02": 0.0,
			"-0.019": 0.0,
			"-0.018": 0.0,
			"-0.017": 0.0,
			"-0.016": 0.847050313762,
			"-0.015": 2.49837768621,
			"-0.014": 2.12713291921,
			"-0.013": 3.48816209845,
			"-0.012": 3.60732240287,
			"-0.011": 3.03996116165,
			"-0.01": 3.26430679007,
			"-0.009": 2.77669897124,
			"-0.008": 4.29995458735,
			"-0.007": 10.4413243485,
			"-0.006": 11.0877547299,
			"-0.005": 9.58920307936,
			"-0.004": 8.6670877824,
			"-0.003": 7.08056604734,
			"-0.002": 7.16844402898,
			"-0.001": 7.85925112701,
			"0.0": 8.3074470449,
			"0.001": 10.0753189811,
			"0.002": 13.8653214868,
			"0.003": 18.1881748775,
			"0.004": 17.3927851266,
			"0.005": 11.3283131967,
			"0.006": 5.33725308538,
			"0.007": 4.12236212406,
			"0.008": 5.99867015302,
			"0.009": 4.26465251943,
			"0.01": 4.85917812118,
			"0.011": 2.61225416916,
			"0.012": 2.51822403675,
			"0.013": 3.29835127816,
			"0.014": 2.54329554585,
			"0.015": 0.245364420139,
			"0.016": 0.0,
			"0.017": 0.0,
			"0.018": 0.0,
			"0.019": 0.0,
			"0.02": 0.0,
			"0.021": 0.0,
			"0.022": 0.0,
			"0.023": 0.0,
			"0.024": 0.0,
			"0.025": 0.0
		}
	}
}
