{
	 "smiles": "COC1=C(OC2CCCC2)C=C(C=C1)C(O)=O", 
	 "Tm": 438.15, 
	 "num_atms": 33, 
	 "gaussian": { 
		 "optdone": 1, 
		 "sigma_profile": "yes", 
		 "theory": "DFT", 
		 "functional": "B3LYP", 
		 "basiset": "6-31G**", 
		 "properties": { 
			 "R2extent": 5730.1677, 
			 "electric_dipole_moment_norm": 5.6896852681, 
			 "electric_quadrupole_moment_norm": 26.1266883244, 
			 "total_energy": -805.910094508, 
			 "HOMO_LUMO_gap": 0.19576, 
			 "cosmo_polarized_energy": -14.72, 
			 "cosmo_cavitation_energy": 35.65, 
			 "cosmo_dispersion_energy": -25.07, 
			 "cosmo_repulsion_energy": 1.97, 
			 "cosmo_total_nonelectrostatic_energy": 12.55, 
			 "SMD_solvation_energy": 7.36 
		},
		"coords": [
			{
				"x": -0.9730895354,
				"y": 3.2911526632,
				"z": -1.3405578202,
				"element": "C" 
			},
			{
				"x": -1.7891617519,
				"y": 2.11105757,
				"z": -1.372966056,
				"element": "O" 
			},
			{
				"x": -2.0816190877,
				"y": 1.5670528343,
				"z": -0.1477615788,
				"element": "C" 
			},
			{
				"x": -1.0867395823,
				"y": 0.9723119726,
				"z": 0.6571621263,
				"element": "C" 
			},
			{
				"x": 0.2330278893,
				"y": 0.9443442886,
				"z": 0.2777627886,
				"element": "O" 
			},
			{
				"x": 0.5595074022,
				"y": 0.1036140556,
				"z": -0.8535364754,
				"element": "C" 
			},
			{
				"x": 1.99897788,
				"y": 0.4071009796,
				"z": -1.2949453888,
				"element": "C" 
			},
			{
				"x": 2.5223398132,
				"y": -0.9099143205,
				"z": -1.9339241135,
				"element": "C" 
			},
			{
				"x": 1.4129449598,
				"y": -1.9714848055,
				"z": -1.6866380022,
				"element": "C" 
			},
			{
				"x": 0.5722451248,
				"y": -1.397036645,
				"z": -0.5350261151,
				"element": "C" 
			},
			{
				"x": -1.4415619515,
				"y": 0.4386382066,
				"z": 1.8957650168,
				"element": "C" 
			},
			{
				"x": -2.772084927,
				"y": 0.4603845908,
				"z": 2.3381419429,
				"element": "C" 
			},
			{
				"x": -3.761169799,
				"y": 0.9981974136,
				"z": 1.5050124391,
				"element": "C" 
			},
			{
				"x": -3.4124290131,
				"y": 1.5571027478,
				"z": 0.2800561766,
				"element": "C" 
			},
			{
				"x": -3.1993132734,
				"y": -0.1125208407,
				"z": 3.6536928877,
				"element": "C" 
			},
			{
				"x": -2.2318886732,
				"y": -0.2575494729,
				"z": 4.6008252117,
				"element": "O" 
			},
			{
				"x": -4.3370056321,
				"y": -0.4386511933,
				"z": 3.9004558413,
				"element": "O" 
			},
			{
				"x": -1.4928757379,
				"y": 4.1023955648,
				"z": -0.8164329863,
				"element": "H" 
			},
			{
				"x": -0.8141882263,
				"y": 3.5778693526,
				"z": -2.3816043155,
				"element": "H" 
			},
			{
				"x": -0.0116594181,
				"y": 3.0990689212,
				"z": -0.8560031961,
				"element": "H" 
			},
			{
				"x": -0.1501662149,
				"y": 0.3121644466,
				"z": -1.6621135192,
				"element": "H" 
			},
			{
				"x": 2.574102994,
				"y": 0.6661018155,
				"z": -0.3995301294,
				"element": "H" 
			},
			{
				"x": 2.0510752565,
				"y": 1.264089364,
				"z": -1.972399101,
				"element": "H" 
			},
			{
				"x": 3.462956981,
				"y": -1.2133248518,
				"z": -1.4642407859,
				"element": "H" 
			},
			{
				"x": 2.7298326065,
				"y": -0.7933075264,
				"z": -3.0015467295,
				"element": "H" 
			},
			{
				"x": 1.8166074441,
				"y": -2.9628120549,
				"z": -1.46202585,
				"element": "H" 
			},
			{
				"x": 0.7877264103,
				"y": -2.0776859394,
				"z": -2.5810447258,
				"element": "H" 
			},
			{
				"x": 1.0801326729,
				"y": -1.5447141422,
				"z": 0.4267841024,
				"element": "H" 
			},
			{
				"x": -0.4273201736,
				"y": -1.8350405858,
				"z": -0.4608476977,
				"element": "H" 
			},
			{
				"x": -0.648369747,
				"y": -0.0302815714,
				"z": 2.4717405842,
				"element": "H" 
			},
			{
				"x": -4.7910907271,
				"y": 0.9831482636,
				"z": 1.8434028228,
				"element": "H" 
			},
			{
				"x": -4.1592067874,
				"y": 2.0028517689,
				"z": -0.3691564671,
				"element": "H" 
			},
			{
				"x": -1.4239371759,
				"y": 0.19447713,
				"z": 4.321099113,
				"element": "H" 
			}
		],
		 "valence_orbital": [ 
			{
				"type": "occ",
				"energy": -0.30487,
				"method": "rhf"
			},
			{
				"type": "occ",
				"energy": -0.27948,
				"method": "rhf"
			},
			{
				"type": "occ",
				"energy": -0.26918,
				"method": "rhf"
			},
			{
				"type": "occ",
				"energy": -0.25808,
				"method": "rhf"
			},
			{
				"type": "occ",
				"energy": -0.24134,
				"method": "rhf"
			},
			{
				"type": "unocc",
				"energy": -0.04558,
				"method": "rhf"
			},
			{
				"type": "unocc",
				"energy": -0.01638,
				"method": "rhf"
			},
			{
				"type": "unocc",
				"energy": 0.04995,
				"method": "rhf"
			},
			{
				"type": "unocc",
				"energy": 0.06361,
				"method": "rhf"
			},
			{
				"type": "unocc",
				"energy": 0.07552,
				"method": "rhf"
			}
		],
		"cosmo_sigma_profile": { 
			"-0.025": 0.0,
			"-0.024": 0.0,
			"-0.023": 0.0,
			"-0.022": 0.0,
			"-0.021": 0.0,
			"-0.02": 0.0,
			"-0.019": 0.160970852544,
			"-0.018": 0.689540417595,
			"-0.017": 0.976336916185,
			"-0.016": 1.10965430838,
			"-0.015": 1.2323405957,
			"-0.014": 0.397327344772,
			"-0.013": 0.723606443409,
			"-0.012": 1.40352647994,
			"-0.011": 1.49688962185,
			"-0.01": 0.968814272188,
			"-0.009": 0.998140136025,
			"-0.008": 1.58208893594,
			"-0.007": 2.8515724919,
			"-0.006": 5.38099523154,
			"-0.005": 8.82464516053,
			"-0.004": 14.7494161968,
			"-0.003": 31.1281105385,
			"-0.002": 37.4505022507,
			"-0.001": 37.5083940919,
			"0.0": 26.2223480388,
			"0.001": 27.3861612507,
			"0.002": 15.5539208076,
			"0.003": 12.3015542779,
			"0.004": 5.5472458845,
			"0.005": 4.85943472397,
			"0.006": 5.36825944275,
			"0.007": 4.10910945415,
			"0.008": 4.43804703931,
			"0.009": 4.91770417696,
			"0.01": 6.01037926515,
			"0.011": 7.22591486718,
			"0.012": 5.07803489414,
			"0.013": 1.82402143899,
			"0.014": 0.107840127567,
			"0.015": 0.0,
			"0.016": 0.0,
			"0.017": 0.0,
			"0.018": 0.0,
			"0.019": 0.0,
			"0.02": 0.0,
			"0.021": 0.0,
			"0.022": 0.0,
			"0.023": 0.0,
			"0.024": 0.0,
			"0.025": 0.0
		}
	}
}
