{
	 "smiles": "NC1=CC=C(C=C1)C1=NC=CO1", 
	 "Tm": 378.15, 
	 "num_atms": 20, 
	 "gaussian": { 
		 "optdone": 1, 
		 "sigma_profile": "yes", 
		 "theory": "DFT", 
		 "functional": "B3LYP", 
		 "basiset": "6-31G**", 
		 "properties": { 
			 "R2extent": 2703.4585, 
			 "electric_dipole_moment_norm": 2.62763933979, 
			 "electric_quadrupole_moment_norm": 17.6027345424, 
			 "total_energy": -532.497211474, 
			 "HOMO_LUMO_gap": 0.16917, 
			 "cosmo_polarized_energy": -12.26, 
			 "cosmo_cavitation_energy": 24.6, 
			 "cosmo_dispersion_energy": -18.49, 
			 "cosmo_repulsion_energy": 1.45, 
			 "cosmo_total_nonelectrostatic_energy": 7.56, 
			 "SMD_solvation_energy": 3.67 
		},
		"coords": [
			{
				"x": -3.4502328536,
				"y": 2.2510433296,
				"z": -1.0413227657,
				"element": "N" 
			},
			{
				"x": -2.5634879384,
				"y": 1.2692491482,
				"z": -0.6130398185,
				"element": "C" 
			},
			{
				"x": -2.5497409313,
				"y": -0.0019914602,
				"z": -1.2196799084,
				"element": "C" 
			},
			{
				"x": -1.6296603789,
				"y": -0.9629214336,
				"z": -0.829426437,
				"element": "C" 
			},
			{
				"x": -0.6895259348,
				"y": -0.6920792531,
				"z": 0.1798445976,
				"element": "C" 
			},
			{
				"x": -0.7013054236,
				"y": 0.5751479023,
				"z": 0.7847658875,
				"element": "C" 
			},
			{
				"x": -1.6215089577,
				"y": 1.5398637606,
				"z": 0.3966995138,
				"element": "C" 
			},
			{
				"x": 0.2623325027,
				"y": -1.7220158603,
				"z": 0.5709073654,
				"element": "C" 
			},
			{
				"x": 0.382291446,
				"y": -2.9346453679,
				"z": 0.099497148,
				"element": "N" 
			},
			{
				"x": 1.4338232687,
				"y": -3.4883235261,
				"z": 0.8124180844,
				"element": "C" 
			},
			{
				"x": 1.9112246103,
				"y": -2.5760554743,
				"z": 1.6949748457,
				"element": "C" 
			},
			{
				"x": 1.1683481469,
				"y": -1.4314120254,
				"z": 1.553182051,
				"element": "O" 
			},
			{
				"x": -4.2847410908,
				"y": 1.9193739629,
				"z": -1.5040619632,
				"element": "H" 
			},
			{
				"x": -3.6411577169,
				"y": 2.9914620218,
				"z": -0.3811414309,
				"element": "H" 
			},
			{
				"x": -3.2677243351,
				"y": -0.2268785623,
				"z": -2.0045361367,
				"element": "H" 
			},
			{
				"x": -1.6247164614,
				"y": -1.9414716113,
				"z": -1.2979606831,
				"element": "H" 
			},
			{
				"x": 0.0160503431,
				"y": 0.8011211978,
				"z": 1.5667779641,
				"element": "H" 
			},
			{
				"x": -1.6143756436,
				"y": 2.5169713688,
				"z": 0.8732975047,
				"element": "H" 
			},
			{
				"x": 1.7691898557,
				"y": -4.5005200029,
				"z": 0.6380073717,
				"element": "H" 
			},
			{
				"x": 2.6957174927,
				"y": -2.5575181145,
				"z": 2.43349681,
				"element": "H" 
			}
		],
		 "valence_orbital": [ 
			{
				"type": "occ",
				"energy": -0.305,
				"method": "rhf"
			},
			{
				"type": "occ",
				"energy": -0.27604,
				"method": "rhf"
			},
			{
				"type": "occ",
				"energy": -0.25102,
				"method": "rhf"
			},
			{
				"type": "occ",
				"energy": -0.24884,
				"method": "rhf"
			},
			{
				"type": "occ",
				"energy": -0.19318,
				"method": "rhf"
			},
			{
				"type": "unocc",
				"energy": -0.02401,
				"method": "rhf"
			},
			{
				"type": "unocc",
				"energy": 0.00046,
				"method": "rhf"
			},
			{
				"type": "unocc",
				"energy": 0.04481,
				"method": "rhf"
			},
			{
				"type": "unocc",
				"energy": 0.07367,
				"method": "rhf"
			},
			{
				"type": "unocc",
				"energy": 0.09006,
				"method": "rhf"
			}
		],
		"cosmo_sigma_profile": { 
			"-0.025": 0.0,
			"-0.024": 0.0,
			"-0.023": 0.0,
			"-0.022": 0.0,
			"-0.021": 0.0,
			"-0.02": 0.0,
			"-0.019": 0.0,
			"-0.018": 0.0,
			"-0.017": 0.0,
			"-0.016": 0.0,
			"-0.015": 0.0,
			"-0.014": 0.0,
			"-0.013": 1.30941626858,
			"-0.012": 3.08917675711,
			"-0.011": 2.62095797102,
			"-0.01": 4.01213716328,
			"-0.009": 5.29683268599,
			"-0.008": 5.19926545853,
			"-0.007": 7.02546243764,
			"-0.006": 8.23710543372,
			"-0.005": 10.5603837098,
			"-0.004": 9.38272837435,
			"-0.003": 9.37144125449,
			"-0.002": 7.8678736948,
			"-0.001": 8.79960417098,
			"0.0": 12.1743368225,
			"0.001": 14.3567825213,
			"0.002": 15.0557288112,
			"0.003": 15.904142081,
			"0.004": 16.2796111706,
			"0.005": 18.3760358921,
			"0.006": 6.13752515647,
			"0.007": 2.92360485772,
			"0.008": 3.02716505422,
			"0.009": 1.26625785471,
			"0.01": 1.51092538972,
			"0.011": 2.79384698567,
			"0.012": 1.00139080115,
			"0.013": 1.83915720849,
			"0.014": 1.02757377847,
			"0.015": 0.874425821266,
			"0.016": 0.0583724740651,
			"0.017": 0.0,
			"0.018": 0.0,
			"0.019": 0.0,
			"0.02": 0.0,
			"0.021": 0.0,
			"0.022": 0.0,
			"0.023": 0.0,
			"0.024": 0.0,
			"0.025": 0.0
		}
	}
}
