{
	 "smiles": "[O-][N+](=O)C1=C(F)C=CC(Br)=C1", 
	 "Tm": 291.65, 
	 "num_atms": 14, 
	 "gaussian": { 
		 "optdone": 1, 
		 "sigma_profile": "yes", 
		 "theory": "DFT", 
		 "functional": "B3LYP", 
		 "basiset": "6-31G**", 
		 "properties": { 
			 "R2extent": 6333.4325, 
			 "electric_dipole_moment_norm": 4.20130224335, 
			 "electric_quadrupole_moment_norm": 5.80482111869, 
			 "total_energy": -3106.76806813, 
			 "HOMO_LUMO_gap": 0.16511, 
			 "cosmo_polarized_energy": -8.28, 
			 "cosmo_cavitation_energy": 22.35, 
			 "cosmo_dispersion_energy": -16.87, 
			 "cosmo_repulsion_energy": 1.33, 
			 "cosmo_total_nonelectrostatic_energy": 6.81, 
			 "SMD_solvation_energy": 5.45 
		},
		"coords": [
			{
				"x": -0.7439266162,
				"y": -0.8186307732,
				"z": -1.8592233951,
				"element": "O" 
			},
			{
				"x": -1.2650203023,
				"y": 0.27393673,
				"z": -2.0572151757,
				"element": "N" 
			},
			{
				"x": -1.7279055125,
				"y": 0.6522246032,
				"z": -3.1331428323,
				"element": "O" 
			},
			{
				"x": -1.3434057374,
				"y": 1.216515138,
				"z": -0.928808019,
				"element": "C" 
			},
			{
				"x": -0.9515335502,
				"y": 0.8667039985,
				"z": 0.3713689929,
				"element": "C" 
			},
			{
				"x": -0.4935570447,
				"y": -0.3452888971,
				"z": 0.679263901,
				"element": "F" 
			},
			{
				"x": -1.0464771673,
				"y": 1.8052196396,
				"z": 1.3966945461,
				"element": "C" 
			},
			{
				"x": -1.5242454825,
				"y": 3.0854753649,
				"z": 1.1369552945,
				"element": "C" 
			},
			{
				"x": -1.9136444799,
				"y": 3.4256301863,
				"z": -0.1614842201,
				"element": "C" 
			},
			{
				"x": -2.56850621,
				"y": 5.1776075376,
				"z": -0.5195395544,
				"element": "Br" 
			},
			{
				"x": -1.828214136,
				"y": 2.5004011868,
				"z": -1.1924964265,
				"element": "C" 
			},
			{
				"x": -0.7400750874,
				"y": 1.5097452835,
				"z": 2.3939892288,
				"element": "H" 
			},
			{
				"x": -1.5951106381,
				"y": 3.8138460441,
				"z": 1.936380154,
				"element": "H" 
			},
			{
				"x": -2.1271780355,
				"y": 2.7399139579,
				"z": -2.2041424942,
				"element": "H" 
			}
		],
		 "valence_orbital": [ 
			{
				"type": "occ",
				"energy": -0.31746,
				"method": "rhf"
			},
			{
				"type": "occ",
				"energy": -0.30881,
				"method": "rhf"
			},
			{
				"type": "occ",
				"energy": -0.30527,
				"method": "rhf"
			},
			{
				"type": "occ",
				"energy": -0.29884,
				"method": "rhf"
			},
			{
				"type": "occ",
				"energy": -0.26672,
				"method": "rhf"
			},
			{
				"type": "unocc",
				"energy": -0.10161,
				"method": "rhf"
			},
			{
				"type": "unocc",
				"energy": -0.04279,
				"method": "rhf"
			},
			{
				"type": "unocc",
				"energy": -0.01952,
				"method": "rhf"
			},
			{
				"type": "unocc",
				"energy": -0.01706,
				"method": "rhf"
			},
			{
				"type": "unocc",
				"energy": 0.06633,
				"method": "rhf"
			}
		],
		"cosmo_sigma_profile": { 
			"-0.025": 0.0,
			"-0.024": 0.0,
			"-0.023": 0.0,
			"-0.022": 0.0,
			"-0.021": 0.0,
			"-0.02": 0.0,
			"-0.019": 0.0,
			"-0.018": 0.0,
			"-0.017": 0.0,
			"-0.016": 0.0,
			"-0.015": 0.0,
			"-0.014": 0.0,
			"-0.013": 0.0,
			"-0.012": 0.0,
			"-0.011": 0.0,
			"-0.01": 0.315508785377,
			"-0.009": 3.53210021177,
			"-0.008": 6.51629717077,
			"-0.007": 6.32818681768,
			"-0.006": 6.66534798981,
			"-0.005": 8.14016312657,
			"-0.004": 9.81701022062,
			"-0.003": 14.0055175103,
			"-0.002": 17.7208386856,
			"-0.001": 16.6216919789,
			"0.0": 16.0437259446,
			"0.001": 8.91851440005,
			"0.002": 11.6220845074,
			"0.003": 16.54217143,
			"0.004": 10.4117080815,
			"0.005": 3.95183459955,
			"0.006": 5.16755775848,
			"0.007": 9.71084392434,
			"0.008": 7.51522092376,
			"0.009": 3.46306956556,
			"0.01": 1.08234128539,
			"0.011": 0.0,
			"0.012": 0.0,
			"0.013": 0.0,
			"0.014": 0.0,
			"0.015": 0.0,
			"0.016": 0.0,
			"0.017": 0.0,
			"0.018": 0.0,
			"0.019": 0.0,
			"0.02": 0.0,
			"0.021": 0.0,
			"0.022": 0.0,
			"0.023": 0.0,
			"0.024": 0.0,
			"0.025": 0.0
		}
	}
}
