{
	 "smiles": "FC1=C(F)C(F)=C(OC(=O)C2=CC=CC=C2N2CCOCC2)C(F)=C1F", 
	 "Tm": 361.65, 
	 "num_atms": 38, 
	 "gaussian": { 
		 "optdone": 1, 
		 "sigma_profile": "yes", 
		 "theory": "DFT", 
		 "functional": "B3LYP", 
		 "basiset": "6-31G**", 
		 "properties": { 
			 "R2extent": 10284.2128, 
			 "electric_dipole_moment_norm": 3.61531129918, 
			 "electric_quadrupole_moment_norm": 9.70858044103, 
			 "total_energy": -1434.56348191, 
			 "HOMO_LUMO_gap": 0.15933, 
			 "cosmo_polarized_energy": -11.28, 
			 "cosmo_cavitation_energy": 43.98, 
			 "cosmo_dispersion_energy": -29.76, 
			 "cosmo_repulsion_energy": 2.13, 
			 "cosmo_total_nonelectrostatic_energy": 16.34, 
			 "SMD_solvation_energy": 9.53 
		},
		"coords": [
			{
				"x": -5.7394688286,
				"y": 2.1532383575,
				"z": 0.1069002743,
				"element": "F" 
			},
			{
				"x": -4.5687931105,
				"y": 1.5251640853,
				"z": -0.0302680731,
				"element": "C" 
			},
			{
				"x": -3.3780182587,
				"y": 2.2401993951,
				"z": 0.0704357013,
				"element": "C" 
			},
			{
				"x": -3.4052626367,
				"y": 3.5572276869,
				"z": 0.2989601397,
				"element": "F" 
			},
			{
				"x": -2.1593442189,
				"y": 1.5803158775,
				"z": -0.0766041595,
				"element": "C" 
			},
			{
				"x": -1.0241268864,
				"y": 2.2877297057,
				"z": 0.0108829107,
				"element": "F" 
			},
			{
				"x": -2.1141351995,
				"y": 0.2053918052,
				"z": -0.3005533666,
				"element": "C" 
			},
			{
				"x": -0.9110828324,
				"y": -0.4604330594,
				"z": -0.366561932,
				"element": "O" 
			},
			{
				"x": -0.5075140022,
				"y": -0.8643166816,
				"z": -1.6430354079,
				"element": "C" 
			},
			{
				"x": -1.1313142473,
				"y": -0.5329439551,
				"z": -2.623491285,
				"element": "O" 
			},
			{
				"x": 0.6310910303,
				"y": -1.8106864963,
				"z": -1.6149714306,
				"element": "C" 
			},
			{
				"x": 0.5779384073,
				"y": -2.7635056373,
				"z": -2.651960155,
				"element": "C" 
			},
			{
				"x": 1.405849751,
				"y": -3.8746577298,
				"z": -2.6700963771,
				"element": "C" 
			},
			{
				"x": 2.3123840369,
				"y": -4.0457864356,
				"z": -1.6196964116,
				"element": "C" 
			},
			{
				"x": 2.4290461976,
				"y": -3.0939933566,
				"z": -0.6158342978,
				"element": "C" 
			},
			{
				"x": 1.6343872246,
				"y": -1.9218576296,
				"z": -0.6038653355,
				"element": "C" 
			},
			{
				"x": 1.8683224628,
				"y": -0.9360119905,
				"z": 0.3423758707,
				"element": "N" 
			},
			{
				"x": 2.7267748032,
				"y": -1.226399383,
				"z": 1.4926600351,
				"element": "C" 
			},
			{
				"x": 2.7065235909,
				"y": -0.043902844,
				"z": 2.4557195298,
				"element": "C" 
			},
			{
				"x": 3.2346511025,
				"y": 1.1419104006,
				"z": 1.8720026244,
				"element": "O" 
			},
			{
				"x": 3.0262507573,
				"y": 1.2333004001,
				"z": 0.4641160364,
				"element": "C" 
			},
			{
				"x": 1.7688932552,
				"y": 0.4945095942,
				"z": 0.0091503226,
				"element": "C" 
			},
			{
				"x": -3.3154761711,
				"y": -0.4987130274,
				"z": -0.4051064222,
				"element": "C" 
			},
			{
				"x": -3.2905333401,
				"y": -1.8138192479,
				"z": -0.638064357,
				"element": "F" 
			},
			{
				"x": -4.5381295136,
				"y": 0.1520486584,
				"z": -0.2699254032,
				"element": "C" 
			},
			{
				"x": -5.6814683091,
				"y": -0.5333448552,
				"z": -0.3673564839,
				"element": "F" 
			},
			{
				"x": -0.1761049947,
				"y": -2.6218856259,
				"z": -3.4184380778,
				"element": "H" 
			},
			{
				"x": 1.330551322,
				"y": -4.6059387885,
				"z": -3.4677314614,
				"element": "H" 
			},
			{
				"x": 2.9581304368,
				"y": -4.9193768612,
				"z": -1.5930619324,
				"element": "H" 
			},
			{
				"x": 3.1825267687,
				"y": -3.237533207,
				"z": 0.1476218759,
				"element": "H" 
			},
			{
				"x": 2.3581884212,
				"y": -2.1213701037,
				"z": 2.0068848498,
				"element": "H" 
			},
			{
				"x": 3.7700969362,
				"y": -1.4219149754,
				"z": 1.1953229732,
				"element": "H" 
			},
			{
				"x": 3.3239587851,
				"y": -0.2712872555,
				"z": 3.3305913728,
				"element": "H" 
			},
			{
				"x": 1.6761731942,
				"y": 0.1240146832,
				"z": 2.8049110446,
				"element": "H" 
			},
			{
				"x": 2.9328058767,
				"y": 2.2974008655,
				"z": 0.2227025824,
				"element": "H" 
			},
			{
				"x": 3.9039247657,
				"y": 0.8429162658,
				"z": -0.0740993915,
				"element": "H" 
			},
			{
				"x": 1.664578733,
				"y": 0.6049938367,
				"z": -1.0749248304,
				"element": "H" 
			},
			{
				"x": 0.8888246901,
				"y": 0.9494175288,
				"z": 0.4690084479,
				"element": "H" 
			}
		],
		 "valence_orbital": [ 
			{
				"type": "occ",
				"energy": -0.2634,
				"method": "rhf"
			},
			{
				"type": "occ",
				"energy": -0.26197,
				"method": "rhf"
			},
			{
				"type": "occ",
				"energy": -0.25989,
				"method": "rhf"
			},
			{
				"type": "occ",
				"energy": -0.25747,
				"method": "rhf"
			},
			{
				"type": "occ",
				"energy": -0.20911,
				"method": "rhf"
			},
			{
				"type": "unocc",
				"energy": -0.04978,
				"method": "rhf"
			},
			{
				"type": "unocc",
				"energy": -0.02687,
				"method": "rhf"
			},
			{
				"type": "unocc",
				"energy": -0.01988,
				"method": "rhf"
			},
			{
				"type": "unocc",
				"energy": -0.00383,
				"method": "rhf"
			},
			{
				"type": "unocc",
				"energy": -0.00062,
				"method": "rhf"
			}
		],
		"cosmo_sigma_profile": { 
			"-0.025": 0.0,
			"-0.024": 0.0,
			"-0.023": 0.0,
			"-0.022": 0.0,
			"-0.021": 0.0,
			"-0.02": 0.0,
			"-0.019": 0.0,
			"-0.018": 0.0,
			"-0.017": 0.0,
			"-0.016": 0.0,
			"-0.015": 0.0,
			"-0.014": 0.0,
			"-0.013": 0.0,
			"-0.012": 0.0,
			"-0.011": 0.0,
			"-0.01": 0.0,
			"-0.009": 0.0,
			"-0.008": 0.0,
			"-0.007": 1.49811125135,
			"-0.006": 14.1387446533,
			"-0.005": 26.480394232,
			"-0.004": 44.2123307061,
			"-0.003": 36.5009785115,
			"-0.002": 24.5016715418,
			"-0.001": 23.6815912569,
			"0.0": 19.6223172003,
			"0.001": 23.9211470511,
			"0.002": 55.0932385373,
			"0.003": 32.2273602855,
			"0.004": 13.5612140087,
			"0.005": 9.66385868035,
			"0.006": 3.69533169475,
			"0.007": 3.80834861137,
			"0.008": 4.23321977645,
			"0.009": 3.12591507103,
			"0.01": 4.01777225382,
			"0.011": 4.68708025055,
			"0.012": 1.71820471162,
			"0.013": 1.88112634537,
			"0.014": 0.3457457199,
			"0.015": 0.0,
			"0.016": 0.0,
			"0.017": 0.0,
			"0.018": 0.0,
			"0.019": 0.0,
			"0.02": 0.0,
			"0.021": 0.0,
			"0.022": 0.0,
			"0.023": 0.0,
			"0.024": 0.0,
			"0.025": 0.0
		}
	}
}
