{
	 "smiles": "CS(=O)(=O)C1=NN(C(N)=C1C#N)C1=CC=CC=C1", 
	 "Tm": 463.15, 
	 "num_atms": 28, 
	 "gaussian": { 
		 "optdone": 1, 
		 "sigma_profile": "yes", 
		 "theory": "DFT", 
		 "functional": "B3LYP", 
		 "basiset": "6-31G**", 
		 "properties": { 
			 "R2extent": 5907.3992, 
			 "electric_dipole_moment_norm": 9.5709763666, 
			 "electric_quadrupole_moment_norm": 31.8420681599, 
			 "total_energy": -1192.73035673, 
			 "HOMO_LUMO_gap": 0.19422, 
			 "cosmo_polarized_energy": -26.93, 
			 "cosmo_cavitation_energy": 35.34, 
			 "cosmo_dispersion_energy": -25.06, 
			 "cosmo_repulsion_energy": 1.91, 
			 "cosmo_total_nonelectrostatic_energy": 12.19, 
			 "SMD_solvation_energy": 6.32 
		},
		"coords": [
			{
				"x": -1.9665918349,
				"y": 1.2502808638,
				"z": -2.7590408519,
				"element": "C" 
			},
			{
				"x": -0.8890034976,
				"y": -0.1063915598,
				"z": -3.2598229563,
				"element": "S" 
			},
			{
				"x": -0.1138851473,
				"y": 0.3018261864,
				"z": -4.4374461991,
				"element": "O" 
			},
			{
				"x": -1.6848677246,
				"y": -1.338911401,
				"z": -3.2688827065,
				"element": "O" 
			},
			{
				"x": 0.280075153,
				"y": -0.1910030467,
				"z": -1.8964243744,
				"element": "C" 
			},
			{
				"x": -0.1719048495,
				"y": -0.2579465602,
				"z": -0.6616380367,
				"element": "N" 
			},
			{
				"x": 0.9502301734,
				"y": -0.3438517145,
				"z": 0.1223673625,
				"element": "N" 
			},
			{
				"x": 2.0929871606,
				"y": -0.359557464,
				"z": -0.6268338215,
				"element": "C" 
			},
			{
				"x": 3.3602683344,
				"y": -0.4309452169,
				"z": -0.1075497374,
				"element": "N" 
			},
			{
				"x": 1.6994824542,
				"y": -0.2446372845,
				"z": -1.9672843254,
				"element": "C" 
			},
			{
				"x": 2.6099801678,
				"y": -0.2346887429,
				"z": -3.0493659556,
				"element": "C" 
			},
			{
				"x": 3.4557369754,
				"y": -0.2441608812,
				"z": -3.850230116,
				"element": "N" 
			},
			{
				"x": 0.8113233167,
				"y": -0.471731479,
				"z": 1.5365411574,
				"element": "C" 
			},
			{
				"x": -0.2266886603,
				"y": -1.2614288742,
				"z": 2.0416418802,
				"element": "C" 
			},
			{
				"x": -0.3788812661,
				"y": -1.3841186623,
				"z": 3.4208722041,
				"element": "C" 
			},
			{
				"x": 0.501113193,
				"y": -0.735556765,
				"z": 4.2915364922,
				"element": "C" 
			},
			{
				"x": 1.5299604073,
				"y": 0.053950689,
				"z": 3.7770326019,
				"element": "C" 
			},
			{
				"x": 1.6863827046,
				"y": 0.1998214387,
				"z": 2.397470989,
				"element": "C" 
			},
			{
				"x": -2.3837482785,
				"y": 1.0194971405,
				"z": -1.7785766759,
				"element": "H" 
			},
			{
				"x": -1.3884159238,
				"y": 2.1748380328,
				"z": -2.7390915617,
				"element": "H" 
			},
			{
				"x": -2.7533051447,
				"y": 1.3036966958,
				"z": -3.5142173731,
				"element": "H" 
			},
			{
				"x": 3.4644934893,
				"y": -0.9513223305,
				"z": 0.7538816556,
				"element": "H" 
			},
			{
				"x": 4.0717226425,
				"y": -0.6373489292,
				"z": -0.7977311853,
				"element": "H" 
			},
			{
				"x": -0.8995418882,
				"y": -1.7571998328,
				"z": 1.3516472501,
				"element": "H" 
			},
			{
				"x": -1.1846008605,
				"y": -1.9952224513,
				"z": 3.8158836309,
				"element": "H" 
			},
			{
				"x": 0.3809379356,
				"y": -0.8408759058,
				"z": 5.3652935045,
				"element": "H" 
			},
			{
				"x": 2.2067730638,
				"y": 0.5746551212,
				"z": 4.4475246278,
				"element": "H" 
			},
			{
				"x": 2.4612679045,
				"y": 0.8434329334,
				"z": 1.9954425209,
				"element": "H" 
			}
		],
		 "valence_orbital": [ 
			{
				"type": "occ",
				"energy": -0.29491,
				"method": "rhf"
			},
			{
				"type": "occ",
				"energy": -0.29034,
				"method": "rhf"
			},
			{
				"type": "occ",
				"energy": -0.28233,
				"method": "rhf"
			},
			{
				"type": "occ",
				"energy": -0.25961,
				"method": "rhf"
			},
			{
				"type": "occ",
				"energy": -0.24398,
				"method": "rhf"
			},
			{
				"type": "unocc",
				"energy": -0.04976,
				"method": "rhf"
			},
			{
				"type": "unocc",
				"energy": -0.03424,
				"method": "rhf"
			},
			{
				"type": "unocc",
				"energy": -0.02615,
				"method": "rhf"
			},
			{
				"type": "unocc",
				"energy": 0.00275,
				"method": "rhf"
			},
			{
				"type": "unocc",
				"energy": 0.02277,
				"method": "rhf"
			}
		],
		"cosmo_sigma_profile": { 
			"-0.025": 0.0,
			"-0.024": 0.0,
			"-0.023": 0.0,
			"-0.022": 0.0,
			"-0.021": 0.0,
			"-0.02": 0.0,
			"-0.019": 0.0,
			"-0.018": 0.0,
			"-0.017": 0.0,
			"-0.016": 0.0,
			"-0.015": 1.25921839947,
			"-0.014": 2.0886927919,
			"-0.013": 2.26669924987,
			"-0.012": 3.00082474681,
			"-0.011": 2.73981134974,
			"-0.01": 3.11293087275,
			"-0.009": 6.67380308421,
			"-0.008": 7.38187016829,
			"-0.007": 11.1180847547,
			"-0.006": 18.066812766,
			"-0.005": 20.7439697647,
			"-0.004": 21.3665853352,
			"-0.003": 16.0708340674,
			"-0.002": 15.2533712646,
			"-0.001": 15.4135854401,
			"0.0": 12.5018401425,
			"0.001": 13.7123275874,
			"0.002": 12.4375304858,
			"0.003": 16.6895086879,
			"0.004": 13.3941169557,
			"0.005": 5.40649976983,
			"0.006": 6.84315455974,
			"0.007": 7.18972575709,
			"0.008": 8.70467759596,
			"0.009": 9.13911491993,
			"0.01": 11.3682976152,
			"0.011": 14.6031482561,
			"0.012": 4.55031273875,
			"0.013": 1.45771786261,
			"0.014": 0.0495753795789,
			"0.015": 0.0,
			"0.016": 0.0,
			"0.017": 0.0,
			"0.018": 0.0,
			"0.019": 0.0,
			"0.02": 0.0,
			"0.021": 0.0,
			"0.022": 0.0,
			"0.023": 0.0,
			"0.024": 0.0,
			"0.025": 0.0
		}
	}
}
