{
	 "smiles": "COC(=O)CC1=NN=C(N)N1", 
	 "Tm": 433.15, 
	 "num_atms": 19, 
	 "gaussian": { 
		 "optdone": 1, 
		 "sigma_profile": "yes", 
		 "theory": "DFT", 
		 "functional": "B3LYP", 
		 "basiset": "6-31G**", 
		 "properties": { 
			 "R2extent": 2184.8895, 
			 "electric_dipole_moment_norm": 6.39448806004, 
			 "electric_quadrupole_moment_norm": 11.4976472463, 
			 "total_energy": -564.794525487, 
			 "HOMO_LUMO_gap": 0.21374, 
			 "cosmo_polarized_energy": -24.78, 
			 "cosmo_cavitation_energy": 24.05, 
			 "cosmo_dispersion_energy": -17.62, 
			 "cosmo_repulsion_energy": 1.46, 
			 "cosmo_total_nonelectrostatic_energy": 7.89, 
			 "SMD_solvation_energy": 3.53 
		},
		"coords": [
			{
				"x": 1.6566892085,
				"y": 2.2770102485,
				"z": -0.5497296384,
				"element": "C" 
			},
			{
				"x": 0.4544053598,
				"y": 1.4850183757,
				"z": -0.6091794058,
				"element": "O" 
			},
			{
				"x": 0.1722380264,
				"y": 0.9558261164,
				"z": -1.830846498,
				"element": "C" 
			},
			{
				"x": 0.8616786096,
				"y": 1.1376581038,
				"z": -2.8051011469,
				"element": "O" 
			},
			{
				"x": -1.1273137472,
				"y": 0.1663079328,
				"z": -1.798055714,
				"element": "C" 
			},
			{
				"x": -1.1845754477,
				"y": -0.9277547292,
				"z": -0.7768984095,
				"element": "C" 
			},
			{
				"x": -1.5750602273,
				"y": -2.1547209949,
				"z": -1.0072329059,
				"element": "N" 
			},
			{
				"x": -1.5224100442,
				"y": -2.8487498935,
				"z": 0.1946733641,
				"element": "N" 
			},
			{
				"x": -1.1127689753,
				"y": -2.0031433237,
				"z": 1.1116326419,
				"element": "C" 
			},
			{
				"x": -0.9874237269,
				"y": -2.2603343947,
				"z": 2.4725570722,
				"element": "N" 
			},
			{
				"x": -0.8885535529,
				"y": -0.7699144837,
				"z": 0.5595788302,
				"element": "N" 
			},
			{
				"x": 1.7253128184,
				"y": 2.6339497916,
				"z": 0.4777549063,
				"element": "H" 
			},
			{
				"x": 2.5280338407,
				"y": 1.6700900336,
				"z": -0.806295646,
				"element": "H" 
			},
			{
				"x": 1.5935861977,
				"y": 3.1173122182,
				"z": -1.2445004587,
				"element": "H" 
			},
			{
				"x": -1.2779629305,
				"y": -0.2815760016,
				"z": -2.7799937636,
				"element": "H" 
			},
			{
				"x": -1.9389763067,
				"y": 0.8874203497,
				"z": -1.6242867822,
				"element": "H" 
			},
			{
				"x": -1.2069374447,
				"y": -3.2342545235,
				"z": 2.65133929,
				"element": "H" 
			},
			{
				"x": -0.0714521363,
				"y": -2.0377182341,
				"z": 2.848714332,
				"element": "H" 
			},
			{
				"x": -0.5608095214,
				"y": 0.0762734086,
				"z": 1.0002699322,
				"element": "H" 
			}
		],
		 "valence_orbital": [ 
			{
				"type": "occ",
				"energy": -0.29952,
				"method": "rhf"
			},
			{
				"type": "occ",
				"energy": -0.29411,
				"method": "rhf"
			},
			{
				"type": "occ",
				"energy": -0.28851,
				"method": "rhf"
			},
			{
				"type": "occ",
				"energy": -0.24723,
				"method": "rhf"
			},
			{
				"type": "occ",
				"energy": -0.22115,
				"method": "rhf"
			},
			{
				"type": "unocc",
				"energy": -0.00741,
				"method": "rhf"
			},
			{
				"type": "unocc",
				"energy": 0.03048,
				"method": "rhf"
			},
			{
				"type": "unocc",
				"energy": 0.0585,
				"method": "rhf"
			},
			{
				"type": "unocc",
				"energy": 0.06717,
				"method": "rhf"
			},
			{
				"type": "unocc",
				"energy": 0.08266,
				"method": "rhf"
			}
		],
		"cosmo_sigma_profile": { 
			"-0.025": 0.0,
			"-0.024": 0.0,
			"-0.023": 0.0,
			"-0.022": 0.0,
			"-0.021": 0.0,
			"-0.02": 0.0,
			"-0.019": 0.0,
			"-0.018": 0.0,
			"-0.017": 0.0,
			"-0.016": 0.304667765121,
			"-0.015": 1.10677827916,
			"-0.014": 2.31655634413,
			"-0.013": 3.6999046931,
			"-0.012": 3.92024229853,
			"-0.011": 3.9705373541,
			"-0.01": 2.20610768735,
			"-0.009": 3.29878220354,
			"-0.008": 6.54149661147,
			"-0.007": 7.91617364851,
			"-0.006": 11.0249582435,
			"-0.005": 13.5723588983,
			"-0.004": 16.4816865239,
			"-0.003": 13.7880755469,
			"-0.002": 9.86846521741,
			"-0.001": 8.8361358661,
			"0.0": 7.30831627435,
			"0.001": 6.67080184942,
			"0.002": 4.93114421038,
			"0.003": 5.23881863678,
			"0.004": 5.19738256135,
			"0.005": 3.62609756149,
			"0.006": 3.65669491848,
			"0.007": 3.93843557589,
			"0.008": 3.02969088756,
			"0.009": 3.80720414503,
			"0.01": 5.82461846027,
			"0.011": 7.03498290637,
			"0.012": 5.68853525094,
			"0.013": 2.74059413201,
			"0.014": 3.95617943778,
			"0.015": 3.00964379185,
			"0.016": 2.98901036787,
			"0.017": 2.31728339911,
			"0.018": 0.724253035076,
			"0.019": 0.0,
			"0.02": 0.0,
			"0.021": 0.0,
			"0.022": 0.0,
			"0.023": 0.0,
			"0.024": 0.0,
			"0.025": 0.0
		}
	}
}
