{
	 "smiles": "OC(=O)CC1=C(F)C=CC(F)=C1", 
	 "Tm": 398.15, 
	 "num_atms": 18, 
	 "gaussian": { 
		 "optdone": 1, 
		 "sigma_profile": "yes", 
		 "theory": "DFT", 
		 "functional": "B3LYP", 
		 "basiset": "6-31G**", 
		 "properties": { 
			 "R2extent": 2645.3115, 
			 "electric_dipole_moment_norm": 1.45917178564, 
			 "electric_quadrupole_moment_norm": 8.63851702493, 
			 "total_energy": -658.598528502, 
			 "HOMO_LUMO_gap": 0.21795, 
			 "cosmo_polarized_energy": -11.0, 
			 "cosmo_cavitation_energy": 24.06, 
			 "cosmo_dispersion_energy": -17.03, 
			 "cosmo_repulsion_energy": 1.33, 
			 "cosmo_total_nonelectrostatic_energy": 8.36, 
			 "SMD_solvation_energy": 6.23 
		},
		"coords": [
			{
				"x": 1.789347909,
				"y": 1.1301520051,
				"z": -1.7646492145,
				"element": "O" 
			},
			{
				"x": 0.8331836786,
				"y": 0.3062501329,
				"z": -1.2706299719,
				"element": "C" 
			},
			{
				"x": -0.059606077,
				"y": -0.1460869982,
				"z": -1.947026266,
				"element": "O" 
			},
			{
				"x": 1.0581905865,
				"y": 0.0654310113,
				"z": 0.2159804055,
				"element": "C" 
			},
			{
				"x": 0.0590398916,
				"y": -0.8796739694,
				"z": 0.8272253877,
				"element": "C" 
			},
			{
				"x": 0.1170183011,
				"y": -2.2436929537,
				"z": 0.5334941604,
				"element": "C" 
			},
			{
				"x": 1.0912702247,
				"y": -2.6756356217,
				"z": -0.2994997463,
				"element": "F" 
			},
			{
				"x": -0.7716816608,
				"y": -3.1663278797,
				"z": 1.0672333423,
				"element": "C" 
			},
			{
				"x": -1.7708678517,
				"y": -2.7226072371,
				"z": 1.9351226486,
				"element": "C" 
			},
			{
				"x": -1.8378884701,
				"y": -1.3675289662,
				"z": 2.2346701472,
				"element": "C" 
			},
			{
				"x": -2.7981263101,
				"y": -0.927152784,
				"z": 3.075350943,
				"element": "F" 
			},
			{
				"x": -0.9441805251,
				"y": -0.4464597432,
				"z": 1.6980977389,
				"element": "C" 
			},
			{
				"x": 1.587284455,
				"y": 1.2435379426,
				"z": -2.7085395459,
				"element": "H" 
			},
			{
				"x": 2.0806837463,
				"y": -0.3121346217,
				"z": 0.3292645336,
				"element": "H" 
			},
			{
				"x": 1.0343181444,
				"y": 1.0385951759,
				"z": 0.7174274708,
				"element": "H" 
			},
			{
				"x": -0.6765770489,
				"y": -4.2132101997,
				"z": 0.8015162155,
				"element": "H" 
			},
			{
				"x": -2.4862001918,
				"y": -3.4087049395,
				"z": 2.3743425701,
				"element": "H" 
			},
			{
				"x": -1.0389088015,
				"y": 0.6017496463,
				"z": 1.9622191812,
				"element": "H" 
			}
		],
		 "valence_orbital": [ 
			{
				"type": "occ",
				"energy": -0.35121,
				"method": "rhf"
			},
			{
				"type": "occ",
				"energy": -0.32389,
				"method": "rhf"
			},
			{
				"type": "occ",
				"energy": -0.28252,
				"method": "rhf"
			},
			{
				"type": "occ",
				"energy": -0.26655,
				"method": "rhf"
			},
			{
				"type": "occ",
				"energy": -0.23983,
				"method": "rhf"
			},
			{
				"type": "unocc",
				"energy": -0.02188,
				"method": "rhf"
			},
			{
				"type": "unocc",
				"energy": -0.00025,
				"method": "rhf"
			},
			{
				"type": "unocc",
				"energy": 0.00792,
				"method": "rhf"
			},
			{
				"type": "unocc",
				"energy": 0.0724,
				"method": "rhf"
			},
			{
				"type": "unocc",
				"energy": 0.08407,
				"method": "rhf"
			}
		],
		"cosmo_sigma_profile": { 
			"-0.025": 0.0,
			"-0.024": 0.0,
			"-0.023": 0.0,
			"-0.022": 0.0,
			"-0.021": 0.0,
			"-0.02": 0.0,
			"-0.019": 0.159675399306,
			"-0.018": 0.696068085791,
			"-0.017": 0.977659868258,
			"-0.016": 0.788976122076,
			"-0.015": 0.930134286398,
			"-0.014": 0.880171054182,
			"-0.013": 0.589758265372,
			"-0.012": 0.317236229618,
			"-0.011": 0.54867392269,
			"-0.01": 0.61525077106,
			"-0.009": 0.825175943453,
			"-0.008": 7.27603268261,
			"-0.007": 10.6430367257,
			"-0.006": 8.76371965569,
			"-0.005": 10.3115024699,
			"-0.004": 9.17365907167,
			"-0.003": 9.38488174238,
			"-0.002": 8.17506026158,
			"-0.001": 8.6854202398,
			"0.0": 13.6588724522,
			"0.001": 15.7947788835,
			"0.002": 16.9230307633,
			"0.003": 15.5803441328,
			"0.004": 19.0442767723,
			"0.005": 7.05512217673,
			"0.006": 3.90156698031,
			"0.007": 3.21833162754,
			"0.008": 3.98930686458,
			"0.009": 3.163857566,
			"0.01": 3.21113808381,
			"0.011": 4.60944753683,
			"0.012": 2.49626088547,
			"0.013": 0.0,
			"0.014": 0.0,
			"0.015": 0.0,
			"0.016": 0.0,
			"0.017": 0.0,
			"0.018": 0.0,
			"0.019": 0.0,
			"0.02": 0.0,
			"0.021": 0.0,
			"0.022": 0.0,
			"0.023": 0.0,
			"0.024": 0.0,
			"0.025": 0.0
		}
	}
}
