{
	 "smiles": "NCC1=CC=CC2=C1OCCCO2", 
	 "Tm": 423.15, 
	 "num_atms": 26, 
	 "gaussian": { 
		 "optdone": 1, 
		 "sigma_profile": "yes", 
		 "theory": "DFT", 
		 "functional": "B3LYP", 
		 "basiset": "6-31G**", 
		 "properties": { 
			 "R2extent": 2367.0715, 
			 "electric_dipole_moment_norm": 0.874083342708, 
			 "electric_quadrupole_moment_norm": 8.14669134496, 
			 "total_energy": -594.068178888, 
			 "HOMO_LUMO_gap": 0.21177, 
			 "cosmo_polarized_energy": -11.18, 
			 "cosmo_cavitation_energy": 27.83, 
			 "cosmo_dispersion_energy": -20.7, 
			 "cosmo_repulsion_energy": 1.67, 
			 "cosmo_total_nonelectrostatic_energy": 8.8, 
			 "SMD_solvation_energy": 3.59 
		},
		"coords": [
			{
				"x": -0.9849781093,
				"y": -2.9994689258,
				"z": -0.4924006252,
				"element": "N" 
			},
			{
				"x": -1.3268350358,
				"y": -1.8491101132,
				"z": -1.3453262147,
				"element": "C" 
			},
			{
				"x": -0.2387619197,
				"y": -0.8003584516,
				"z": -1.2843633543,
				"element": "C" 
			},
			{
				"x": 0.7428411257,
				"y": -0.7375390365,
				"z": -2.2776393974,
				"element": "C" 
			},
			{
				"x": 1.7642541553,
				"y": 0.2114344634,
				"z": -2.2231611196,
				"element": "C" 
			},
			{
				"x": 1.8291102142,
				"y": 1.0896485733,
				"z": -1.1457657654,
				"element": "C" 
			},
			{
				"x": 0.8679831178,
				"y": 1.0414419756,
				"z": -0.1324503025,
				"element": "C" 
			},
			{
				"x": -0.1873804988,
				"y": 0.1087943501,
				"z": -0.2110791803,
				"element": "C" 
			},
			{
				"x": -1.1930306783,
				"y": 0.0302483312,
				"z": 0.7254141338,
				"element": "O" 
			},
			{
				"x": -1.6526205381,
				"y": 1.2682303995,
				"z": 1.2827623944,
				"element": "C" 
			},
			{
				"x": -0.8210136369,
				"y": 1.6809163938,
				"z": 2.4979623987,
				"element": "C" 
			},
			{
				"x": 0.6683101523,
				"y": 1.4865458058,
				"z": 2.2076484886,
				"element": "C" 
			},
			{
				"x": 1.0115072013,
				"y": 1.9492181204,
				"z": 0.8945620842,
				"element": "O" 
			},
			{
				"x": -1.7335525141,
				"y": -3.6878241649,
				"z": -0.5331337131,
				"element": "H" 
			},
			{
				"x": -0.1523863839,
				"y": -3.4549830697,
				"z": -0.8599638524,
				"element": "H" 
			},
			{
				"x": -2.2603894081,
				"y": -1.4252281557,
				"z": -0.9632484809,
				"element": "H" 
			},
			{
				"x": -1.4928689458,
				"y": -2.1108617712,
				"z": -2.4047006211,
				"element": "H" 
			},
			{
				"x": 0.6887865171,
				"y": -1.4319982062,
				"z": -3.112397366,
				"element": "H" 
			},
			{
				"x": 2.5152845761,
				"y": 0.2566743979,
				"z": -3.0059250959,
				"element": "H" 
			},
			{
				"x": 2.6229928492,
				"y": 1.8239281222,
				"z": -1.0539152275,
				"element": "H" 
			},
			{
				"x": -1.6243707058,
				"y": 2.0497532972,
				"z": 0.5147979341,
				"element": "H" 
			},
			{
				"x": -2.6974297532,
				"y": 1.1003142382,
				"z": 1.559851587,
				"element": "H" 
			},
			{
				"x": -1.0916410397,
				"y": 1.0825740296,
				"z": 3.3758705085,
				"element": "H" 
			},
			{
				"x": -1.0391821275,
				"y": 2.7293196572,
				"z": 2.7341214793,
				"element": "H" 
			},
			{
				"x": 0.9444003298,
				"y": 0.430728467,
				"z": 2.3068333239,
				"element": "H" 
			},
			{
				"x": 1.2850710563,
				"y": 2.0671012725,
				"z": 2.8998459838,
				"element": "H" 
			}
		],
		 "valence_orbital": [ 
			{
				"type": "occ",
				"energy": -0.29702,
				"method": "rhf"
			},
			{
				"type": "occ",
				"energy": -0.28505,
				"method": "rhf"
			},
			{
				"type": "occ",
				"energy": -0.22703,
				"method": "rhf"
			},
			{
				"type": "occ",
				"energy": -0.22565,
				"method": "rhf"
			},
			{
				"type": "occ",
				"energy": -0.2057,
				"method": "rhf"
			},
			{
				"type": "unocc",
				"energy": 0.00607,
				"method": "rhf"
			},
			{
				"type": "unocc",
				"energy": 0.01703,
				"method": "rhf"
			},
			{
				"type": "unocc",
				"energy": 0.08042,
				"method": "rhf"
			},
			{
				"type": "unocc",
				"energy": 0.09755,
				"method": "rhf"
			},
			{
				"type": "unocc",
				"energy": 0.11036,
				"method": "rhf"
			}
		],
		"cosmo_sigma_profile": { 
			"-0.025": 0.0,
			"-0.024": 0.0,
			"-0.023": 0.0,
			"-0.022": 0.0,
			"-0.021": 0.0,
			"-0.02": 0.0,
			"-0.019": 0.0,
			"-0.018": 0.0,
			"-0.017": 0.0,
			"-0.016": 0.0,
			"-0.015": 0.0,
			"-0.014": 0.0,
			"-0.013": 0.0,
			"-0.012": 0.0,
			"-0.011": 0.0,
			"-0.01": 0.599458159106,
			"-0.009": 2.21390993165,
			"-0.008": 2.83934260283,
			"-0.007": 2.69299717171,
			"-0.006": 5.85684393357,
			"-0.005": 18.0769443135,
			"-0.004": 28.0989743384,
			"-0.003": 27.6243037749,
			"-0.002": 22.0224710116,
			"-0.001": 17.181389787,
			"0.0": 10.7977010042,
			"0.001": 9.22300047483,
			"0.002": 9.47734008294,
			"0.003": 10.5322240012,
			"0.004": 10.1773049465,
			"0.005": 10.4747713329,
			"0.006": 9.13502739615,
			"0.007": 3.65002419425,
			"0.008": 2.53862105,
			"0.009": 1.60871019392,
			"0.01": 1.79735360399,
			"0.011": 2.76278106431,
			"0.012": 1.69801678628,
			"0.013": 1.37596745925,
			"0.014": 0.914795888562,
			"0.015": 0.990412334813,
			"0.016": 0.910932528211,
			"0.017": 1.40802469388,
			"0.018": 0.737684571798,
			"0.019": 0.600398298474,
			"0.02": 0.23112154331,
			"0.021": 0.0,
			"0.022": 0.0,
			"0.023": 0.0,
			"0.024": 0.0,
			"0.025": 0.0
		}
	}
}
