{
	 "smiles": "OCC1=C(COC2=CC=CC=C2)C=CC=C1", 
	 "Tm": 323.65, 
	 "num_atms": 30, 
	 "gaussian": { 
		 "optdone": 1, 
		 "sigma_profile": "yes", 
		 "theory": "DFT", 
		 "functional": "B3LYP", 
		 "basiset": "6-31G**", 
		 "properties": { 
			 "R2extent": 4732.7419, 
			 "electric_dipole_moment_norm": 2.38151915802, 
			 "electric_quadrupole_moment_norm": 7.76292512846, 
			 "total_energy": -692.35602084, 
			 "HOMO_LUMO_gap": 0.19277, 
			 "cosmo_polarized_energy": -11.03, 
			 "cosmo_cavitation_energy": 33.54, 
			 "cosmo_dispersion_energy": -23.92, 
			 "cosmo_repulsion_energy": 1.87, 
			 "cosmo_total_nonelectrostatic_energy": 11.49, 
			 "SMD_solvation_energy": 5.78 
		},
		"coords": [
			{
				"x": -0.2227474008,
				"y": 2.7718988594,
				"z": -1.300397376,
				"element": "O" 
			},
			{
				"x": -0.9016502916,
				"y": 1.5455050898,
				"z": -1.5870346258,
				"element": "C" 
			},
			{
				"x": -1.6667529636,
				"y": 1.0030854174,
				"z": -0.3960690547,
				"element": "C" 
			},
			{
				"x": -0.9951779897,
				"y": 0.5475382746,
				"z": 0.7592180107,
				"element": "C" 
			},
			{
				"x": 0.513391401,
				"y": 0.5397991119,
				"z": 0.8281625716,
				"element": "C" 
			},
			{
				"x": 0.9886868413,
				"y": -0.5595619718,
				"z": 0.0370058168,
				"element": "O" 
			},
			{
				"x": 2.338890713,
				"y": -0.7631284678,
				"z": -0.0423047676,
				"element": "C" 
			},
			{
				"x": 2.7390144785,
				"y": -1.8682189813,
				"z": -0.8095495725,
				"element": "C" 
			},
			{
				"x": 4.0897135349,
				"y": -2.1647476299,
				"z": -0.9517500159,
				"element": "C" 
			},
			{
				"x": 5.0615905699,
				"y": -1.3691445989,
				"z": -0.3342975171,
				"element": "C" 
			},
			{
				"x": 4.6591669175,
				"y": -0.2736849034,
				"z": 0.4258561421,
				"element": "C" 
			},
			{
				"x": 3.3040510908,
				"y": 0.0385511676,
				"z": 0.5790836589,
				"element": "C" 
			},
			{
				"x": -1.7408201655,
				"y": 0.0847384835,
				"z": 1.8458194942,
				"element": "C" 
			},
			{
				"x": -3.1374734726,
				"y": 0.068671839,
				"z": 1.8108813671,
				"element": "C" 
			},
			{
				"x": -3.8022063632,
				"y": 0.5164916376,
				"z": 0.6718842248,
				"element": "C" 
			},
			{
				"x": -3.0645344144,
				"y": 0.9805090846,
				"z": -0.4203042788,
				"element": "C" 
			},
			{
				"x": -0.8805126097,
				"y": 3.389566759,
				"z": -0.9538602014,
				"element": "H" 
			},
			{
				"x": -0.1181817687,
				"y": 0.8464277104,
				"z": -1.8898428376,
				"element": "H" 
			},
			{
				"x": -1.5886300953,
				"y": 1.666298535,
				"z": -2.4377372009,
				"element": "H" 
			},
			{
				"x": 0.9185101859,
				"y": 1.4798312614,
				"z": 0.4376912655,
				"element": "H" 
			},
			{
				"x": 0.8437763757,
				"y": 0.4167477692,
				"z": 1.8679763018,
				"element": "H" 
			},
			{
				"x": 1.9720347758,
				"y": -2.4753414787,
				"z": -1.2796504345,
				"element": "H" 
			},
			{
				"x": 4.386676687,
				"y": -3.0229911639,
				"z": -1.5482211455,
				"element": "H" 
			},
			{
				"x": 6.1157689548,
				"y": -1.6027003554,
				"z": -0.4468104454,
				"element": "H" 
			},
			{
				"x": 5.401629483,
				"y": 0.3546301947,
				"z": 0.9102714903,
				"element": "H" 
			},
			{
				"x": 3.0180155158,
				"y": 0.8990366903,
				"z": 1.1718704716,
				"element": "H" 
			},
			{
				"x": -1.2198660185,
				"y": -0.2716730232,
				"z": 2.7309952242,
				"element": "H" 
			},
			{
				"x": -3.6981045842,
				"y": -0.2947121631,
				"z": 2.6671801346,
				"element": "H" 
			},
			{
				"x": -4.8876135624,
				"y": 0.5077052498,
				"z": 0.6303695406,
				"element": "H" 
			},
			{
				"x": -3.5830458246,
				"y": 1.3292716019,
				"z": -1.3106362414,
				"element": "H" 
			}
		],
		 "valence_orbital": [ 
			{
				"type": "occ",
				"energy": -0.27419,
				"method": "rhf"
			},
			{
				"type": "occ",
				"energy": -0.25599,
				"method": "rhf"
			},
			{
				"type": "occ",
				"energy": -0.24914,
				"method": "rhf"
			},
			{
				"type": "occ",
				"energy": -0.24375,
				"method": "rhf"
			},
			{
				"type": "occ",
				"energy": -0.21248,
				"method": "rhf"
			},
			{
				"type": "unocc",
				"energy": -0.01971,
				"method": "rhf"
			},
			{
				"type": "unocc",
				"energy": -0.00707,
				"method": "rhf"
			},
			{
				"type": "unocc",
				"energy": 0.00559,
				"method": "rhf"
			},
			{
				"type": "unocc",
				"energy": 0.02007,
				"method": "rhf"
			},
			{
				"type": "unocc",
				"energy": 0.08579,
				"method": "rhf"
			}
		],
		"cosmo_sigma_profile": { 
			"-0.025": 0.0,
			"-0.024": 0.0,
			"-0.023": 0.0,
			"-0.022": 0.0,
			"-0.021": 0.0,
			"-0.02": 0.0,
			"-0.019": 0.0,
			"-0.018": 0.0,
			"-0.017": 0.0,
			"-0.016": 0.0859789646529,
			"-0.015": 0.694754335866,
			"-0.014": 1.24279371758,
			"-0.013": 0.5244412495,
			"-0.012": 0.82426099754,
			"-0.011": 0.747600061024,
			"-0.01": 0.972983177453,
			"-0.009": 0.829381341431,
			"-0.008": 0.69845564538,
			"-0.007": 1.49498279358,
			"-0.006": 14.5376016456,
			"-0.005": 24.7054467127,
			"-0.004": 25.5093455856,
			"-0.003": 23.968808823,
			"-0.002": 17.8515565951,
			"-0.001": 17.4576127385,
			"0.0": 16.3556089337,
			"0.001": 14.7709729797,
			"0.002": 15.2762912888,
			"0.003": 17.2927728615,
			"0.004": 18.5745702756,
			"0.005": 21.5833579067,
			"0.006": 14.3454206134,
			"0.007": 4.18112907038,
			"0.008": 2.15062014647,
			"0.009": 2.5314383575,
			"0.01": 1.98702532516,
			"0.011": 1.60407157881,
			"0.012": 0.965362037028,
			"0.013": 1.36666063718,
			"0.014": 1.35856748831,
			"0.015": 0.187391466242,
			"0.016": 0.0,
			"0.017": 0.0,
			"0.018": 0.0,
			"0.019": 0.0,
			"0.02": 0.0,
			"0.021": 0.0,
			"0.022": 0.0,
			"0.023": 0.0,
			"0.024": 0.0,
			"0.025": 0.0
		}
	}
}
