{
	 "smiles": "OC(=O)COC1=CC(Cl)=CC(Cl)=C1", 
	 "Tm": 389.15, 
	 "num_atms": 19, 
	 "gaussian": { 
		 "optdone": 1, 
		 "sigma_profile": "yes", 
		 "theory": "DFT", 
		 "functional": "B3LYP", 
		 "basiset": "6-31G**", 
		 "properties": { 
			 "R2extent": 4271.7459, 
			 "electric_dipole_moment_norm": 4.58614303637, 
			 "electric_quadrupole_moment_norm": 13.2153374796, 
			 "total_energy": -1454.5068756, 
			 "HOMO_LUMO_gap": 0.22632, 
			 "cosmo_polarized_energy": -17.86, 
			 "cosmo_cavitation_energy": 28.09, 
			 "cosmo_dispersion_energy": -20.51, 
			 "cosmo_repulsion_energy": 1.66, 
			 "cosmo_total_nonelectrostatic_energy": 9.24, 
			 "SMD_solvation_energy": 5.6 
		},
		"coords": [
			{
				"x": 0.9145303005,
				"y": -3.2896008616,
				"z": 0.249628442,
				"element": "O" 
			},
			{
				"x": 0.4890808765,
				"y": -2.1989434916,
				"z": -0.4389969661,
				"element": "C" 
			},
			{
				"x": -0.5416183311,
				"y": -2.2204680588,
				"z": -1.0557683804,
				"element": "O" 
			},
			{
				"x": 1.435688818,
				"y": -0.9929721475,
				"z": -0.3564248462,
				"element": "C" 
			},
			{
				"x": 0.9751488995,
				"y": 0.1134220101,
				"z": -1.0966948899,
				"element": "O" 
			},
			{
				"x": 0.0585845649,
				"y": 0.9408203878,
				"z": -0.4720019919,
				"element": "C" 
			},
			{
				"x": -1.2875916348,
				"y": 0.8545998757,
				"z": -0.8294185324,
				"element": "C" 
			},
			{
				"x": -2.1817804925,
				"y": 1.7482549436,
				"z": -0.24359311,
				"element": "C" 
			},
			{
				"x": -3.8794426294,
				"y": 1.6659531772,
				"z": -0.6761013511,
				"element": "Cl" 
			},
			{
				"x": -1.7723013112,
				"y": 2.7062574814,
				"z": 0.68513938,
				"element": "C" 
			},
			{
				"x": -0.4195105883,
				"y": 2.7568065776,
				"z": 1.0178054824,
				"element": "C" 
			},
			{
				"x": 0.1279553098,
				"y": 3.9574364207,
				"z": 2.175977276,
				"element": "Cl" 
			},
			{
				"x": 0.5108275005,
				"y": 1.8897883955,
				"z": 0.4481664132,
				"element": "C" 
			},
			{
				"x": 1.7545256108,
				"y": -3.1145694925,
				"z": 0.6994914002,
				"element": "H" 
			},
			{
				"x": 2.4035075206,
				"y": -1.2805586156,
				"z": -0.7849567093,
				"element": "H" 
			},
			{
				"x": 1.6000626028,
				"y": -0.7367905267,
				"z": 0.7015289845,
				"element": "H" 
			},
			{
				"x": -1.6070875813,
				"y": 0.0936809909,
				"z": -1.5288866799,
				"element": "H" 
			},
			{
				"x": -2.482677929,
				"y": 3.3905411084,
				"z": 1.1311573863,
				"element": "H" 
			},
			{
				"x": 1.5639984936,
				"y": 1.9605418253,
				"z": 0.6932486927,
				"element": "H" 
			}
		],
		 "valence_orbital": [ 
			{
				"type": "occ",
				"energy": -0.3201,
				"method": "rhf"
			},
			{
				"type": "occ",
				"energy": -0.3118,
				"method": "rhf"
			},
			{
				"type": "occ",
				"energy": -0.28685,
				"method": "rhf"
			},
			{
				"type": "occ",
				"energy": -0.25957,
				"method": "rhf"
			},
			{
				"type": "occ",
				"energy": -0.25645,
				"method": "rhf"
			},
			{
				"type": "unocc",
				"energy": -0.03013,
				"method": "rhf"
			},
			{
				"type": "unocc",
				"energy": -0.02617,
				"method": "rhf"
			},
			{
				"type": "unocc",
				"energy": -0.00755,
				"method": "rhf"
			},
			{
				"type": "unocc",
				"energy": 0.00094,
				"method": "rhf"
			},
			{
				"type": "unocc",
				"energy": 0.0335,
				"method": "rhf"
			}
		],
		"cosmo_sigma_profile": { 
			"-0.025": 0.0,
			"-0.024": 0.0,
			"-0.023": 0.0,
			"-0.022": 0.0,
			"-0.021": 0.0199533996277,
			"-0.02": 0.773967894064,
			"-0.019": 1.37767469443,
			"-0.018": 1.56838271678,
			"-0.017": 1.47847437149,
			"-0.016": 0.827866141262,
			"-0.015": 0.928046842548,
			"-0.014": 1.19507895177,
			"-0.013": 1.09928378415,
			"-0.012": 2.09378175298,
			"-0.011": 1.24704962557,
			"-0.01": 2.719326318,
			"-0.009": 4.00673918037,
			"-0.008": 7.40428403567,
			"-0.007": 7.22415580551,
			"-0.006": 6.82900649109,
			"-0.005": 6.37981703242,
			"-0.004": 6.6934066038,
			"-0.003": 8.55642701104,
			"-0.002": 9.98943371213,
			"-0.001": 13.0118648157,
			"0.0": 18.1064020365,
			"0.001": 29.9528577852,
			"0.002": 18.5514874226,
			"0.003": 16.9793301695,
			"0.004": 23.0685925545,
			"0.005": 6.86638077962,
			"0.006": 2.98913659361,
			"0.007": 3.93560790307,
			"0.008": 5.10789644368,
			"0.009": 6.02020773728,
			"0.01": 6.95616721374,
			"0.011": 3.25169340321,
			"0.012": 2.12040271384,
			"0.013": 0.208461313134,
			"0.014": 0.0,
			"0.015": 0.0,
			"0.016": 0.0,
			"0.017": 0.0,
			"0.018": 0.0,
			"0.019": 0.0,
			"0.02": 0.0,
			"0.021": 0.0,
			"0.022": 0.0,
			"0.023": 0.0,
			"0.024": 0.0,
			"0.025": 0.0
		}
	}
}
