{
	 "smiles": "C(CC1=C(C=C2NC(CC2=C1)C1=CC=CC=C1)N=CC1=CC=CC=C1)C1=CC=CC=C1", 
	 "Tm": 391.15, 
	 "num_atms": 57, 
	 "gaussian": { 
		 "optdone": 1, 
		 "sigma_profile": "yes", 
		 "theory": "DFT", 
		 "functional": "B3LYP", 
		 "basiset": "6-31G**", 
		 "properties": { 
			 "R2extent": 22343.1053, 
			 "electric_dipole_moment_norm": 2.75360232786, 
			 "electric_quadrupole_moment_norm": 18.5992354894, 
			 "total_energy": -1230.27229414, 
			 "HOMO_LUMO_gap": 0.12918, 
			 "cosmo_polarized_energy": -14.07, 
			 "cosmo_cavitation_energy": 60.97, 
			 "cosmo_dispersion_energy": -41.3, 
			 "cosmo_repulsion_energy": 3.08, 
			 "cosmo_total_nonelectrostatic_energy": 22.75, 
			 "SMD_solvation_energy": 8.07 
		},
		"coords": [
			{
				"x": 2.8692614789,
				"y": 2.0634624413,
				"z": -0.8974959193,
				"element": "C" 
			},
			{
				"x": 2.4736720818,
				"y": 0.5994722964,
				"z": -0.5713236257,
				"element": "C" 
			},
			{
				"x": 0.9882106472,
				"y": 0.4256603983,
				"z": -0.3403102473,
				"element": "C" 
			},
			{
				"x": 0.0843752696,
				"y": 0.3385371729,
				"z": -1.4257005949,
				"element": "C" 
			},
			{
				"x": -1.3022794529,
				"y": 0.2050195686,
				"z": -1.2050354379,
				"element": "C" 
			},
			{
				"x": -1.7707299957,
				"y": 0.1386536472,
				"z": 0.102742177,
				"element": "C" 
			},
			{
				"x": -3.0968647186,
				"y": 0.0644614119,
				"z": 0.5543874997,
				"element": "N" 
			},
			{
				"x": -3.0745544961,
				"y": -0.3838754371,
				"z": 1.9627670441,
				"element": "C" 
			},
			{
				"x": -1.6977085407,
				"y": 0.1523881026,
				"z": 2.4636261386,
				"element": "C" 
			},
			{
				"x": -0.8847091973,
				"y": 0.1962061839,
				"z": 1.1893859805,
				"element": "C" 
			},
			{
				"x": 0.4759593503,
				"y": 0.3456645681,
				"z": 0.9643806058,
				"element": "C" 
			},
			{
				"x": -4.2690751422,
				"y": 0.0896026193,
				"z": 2.7656709058,
				"element": "C" 
			},
			{
				"x": -4.8512384221,
				"y": 1.342685502,
				"z": 2.5326831698,
				"element": "C" 
			},
			{
				"x": -5.9220625748,
				"y": 1.781593475,
				"z": 3.3117109559,
				"element": "C" 
			},
			{
				"x": -6.4251125603,
				"y": 0.9761121035,
				"z": 4.3362032648,
				"element": "C" 
			},
			{
				"x": -5.8533913302,
				"y": -0.2748855357,
				"z": 4.5731615334,
				"element": "C" 
			},
			{
				"x": -4.7855785616,
				"y": -0.7144993115,
				"z": 3.788915118,
				"element": "C" 
			},
			{
				"x": 0.6112169627,
				"y": 0.4365322794,
				"z": -2.7280161899,
				"element": "N" 
			},
			{
				"x": 0.1366626119,
				"y": -0.2833955106,
				"z": -3.6755875044,
				"element": "C" 
			},
			{
				"x": 0.5931035737,
				"y": -0.1716168065,
				"z": -5.0669048528,
				"element": "C" 
			},
			{
				"x": 0.0834095879,
				"y": -1.0558533735,
				"z": -6.0305527629,
				"element": "C" 
			},
			{
				"x": 0.5013834907,
				"y": -0.9767621749,
				"z": -7.3585193378,
				"element": "C" 
			},
			{
				"x": 1.4331121356,
				"y": -0.0091640326,
				"z": -7.7379949231,
				"element": "C" 
			},
			{
				"x": 1.9443705206,
				"y": 0.879793006,
				"z": -6.7848832879,
				"element": "C" 
			},
			{
				"x": 1.5285571995,
				"y": 0.8021396345,
				"z": -5.4601896961,
				"element": "C" 
			},
			{
				"x": 4.3532300367,
				"y": 2.2252575793,
				"z": -1.1434821493,
				"element": "C" 
			},
			{
				"x": 4.9176128191,
				"y": 1.8539109501,
				"z": -2.3731871525,
				"element": "C" 
			},
			{
				"x": 6.28922285,
				"y": 1.9700804864,
				"z": -2.5987878608,
				"element": "C" 
			},
			{
				"x": 7.126392077,
				"y": 2.4621243561,
				"z": -1.5945961086,
				"element": "C" 
			},
			{
				"x": 6.5793834079,
				"y": 2.8354712092,
				"z": -0.3662222924,
				"element": "C" 
			},
			{
				"x": 5.2057301091,
				"y": 2.7160940291,
				"z": -0.1456559338,
				"element": "C" 
			},
			{
				"x": 2.3039290317,
				"y": 2.3772109802,
				"z": -1.78097639,
				"element": "H" 
			},
			{
				"x": 2.5553668757,
				"y": 2.7089837051,
				"z": -0.0691411741,
				"element": "H" 
			},
			{
				"x": 3.0205071355,
				"y": 0.2767818302,
				"z": 0.3224367133,
				"element": "H" 
			},
			{
				"x": 2.809856363,
				"y": -0.0408160328,
				"z": -1.3925988904,
				"element": "H" 
			},
			{
				"x": -1.9865997099,
				"y": 0.1968608399,
				"z": -2.0480616205,
				"element": "H" 
			},
			{
				"x": -3.7561052504,
				"y": -0.4191992092,
				"z": -0.0432469662,
				"element": "H" 
			},
			{
				"x": -3.039955022,
				"y": -1.4854632132,
				"z": 2.0086626032,
				"element": "H" 
			},
			{
				"x": -1.8219993108,
				"y": 1.1591494484,
				"z": 2.8850704523,
				"element": "H" 
			},
			{
				"x": -1.2785467237,
				"y": -0.4823947218,
				"z": 3.2495368927,
				"element": "H" 
			},
			{
				"x": 1.1659941138,
				"y": 0.3948092668,
				"z": 1.8042414387,
				"element": "H" 
			},
			{
				"x": -4.4642678114,
				"y": 1.9591620478,
				"z": 1.7273173867,
				"element": "H" 
			},
			{
				"x": -6.3667780023,
				"y": 2.7537363791,
				"z": 3.1170329142,
				"element": "H" 
			},
			{
				"x": -7.2601459969,
				"y": 1.3185067028,
				"z": 4.9408180142,
				"element": "H" 
			},
			{
				"x": -6.2422498365,
				"y": -0.9119219175,
				"z": 5.3627118251,
				"element": "H" 
			},
			{
				"x": -4.3494146144,
				"y": -1.6943374165,
				"z": 3.9711813064,
				"element": "H" 
			},
			{
				"x": -0.6394243106,
				"y": -1.0415505294,
				"z": -3.4901200009,
				"element": "H" 
			},
			{
				"x": -0.6419647763,
				"y": -1.8092229618,
				"z": -5.7323228589,
				"element": "H" 
			},
			{
				"x": 0.1012188498,
				"y": -1.6673809126,
				"z": -8.0951115652,
				"element": "H" 
			},
			{
				"x": 1.7594815937,
				"y": 0.0556698919,
				"z": -8.7720477193,
				"element": "H" 
			},
			{
				"x": 2.6663608803,
				"y": 1.6354252539,
				"z": -7.081218627,
				"element": "H" 
			},
			{
				"x": 1.9090062409,
				"y": 1.4880252783,
				"z": -4.7106681063,
				"element": "H" 
			},
			{
				"x": 4.2714377393,
				"y": 1.4711240718,
				"z": -3.1600811382,
				"element": "H" 
			},
			{
				"x": 6.7051299087,
				"y": 1.6799967414,
				"z": -3.5600291921,
				"element": "H" 
			},
			{
				"x": 8.1944394689,
				"y": 2.5561594574,
				"z": -1.7697078606,
				"element": "H" 
			},
			{
				"x": 7.2210145738,
				"y": 3.2229880167,
				"z": 0.4206512989,
				"element": "H" 
			},
			{
				"x": 4.7862473724,
				"y": 3.0131261643,
				"z": 0.8129827477,
				"element": "H" 
			}
		],
		 "valence_orbital": [ 
			{
				"type": "occ",
				"energy": -0.24197,
				"method": "rhf"
			},
			{
				"type": "occ",
				"energy": -0.23826,
				"method": "rhf"
			},
			{
				"type": "occ",
				"energy": -0.2295,
				"method": "rhf"
			},
			{
				"type": "occ",
				"energy": -0.22157,
				"method": "rhf"
			},
			{
				"type": "occ",
				"energy": -0.18612,
				"method": "rhf"
			},
			{
				"type": "unocc",
				"energy": -0.05694,
				"method": "rhf"
			},
			{
				"type": "unocc",
				"energy": -0.00555,
				"method": "rhf"
			},
			{
				"type": "unocc",
				"energy": -0.00284,
				"method": "rhf"
			},
			{
				"type": "unocc",
				"energy": -0.00052,
				"method": "rhf"
			},
			{
				"type": "unocc",
				"energy": 0.00716,
				"method": "rhf"
			}
		],
		"cosmo_sigma_profile": { 
			"-0.025": 0.0,
			"-0.024": 0.0,
			"-0.023": 0.0,
			"-0.022": 0.0,
			"-0.021": 0.0,
			"-0.02": 0.0,
			"-0.019": 0.0,
			"-0.018": 0.0,
			"-0.017": 0.0,
			"-0.016": 0.0,
			"-0.015": 0.0,
			"-0.014": 0.0,
			"-0.013": 0.0718711574693,
			"-0.012": 1.26526620171,
			"-0.011": 1.29415517752,
			"-0.01": 1.44798666703,
			"-0.009": 1.11467920081,
			"-0.008": 1.32903330478,
			"-0.007": 2.85473716052,
			"-0.006": 16.3385079088,
			"-0.005": 34.283714538,
			"-0.004": 44.855307465,
			"-0.003": 50.4896856067,
			"-0.002": 39.7440474352,
			"-0.001": 38.9342181653,
			"0.0": 34.3821699319,
			"0.001": 34.0922876692,
			"0.002": 34.1191766855,
			"0.003": 34.5450628561,
			"0.004": 36.820034033,
			"0.005": 35.0723786424,
			"0.006": 30.1754055212,
			"0.007": 9.5631809383,
			"0.008": 1.60551077527,
			"0.009": 0.997641238753,
			"0.01": 0.195292844427,
			"0.011": 0.0,
			"0.012": 0.0,
			"0.013": 0.0,
			"0.014": 0.0,
			"0.015": 0.0,
			"0.016": 0.0,
			"0.017": 0.0,
			"0.018": 0.0,
			"0.019": 0.0,
			"0.02": 0.0,
			"0.021": 0.0,
			"0.022": 0.0,
			"0.023": 0.0,
			"0.024": 0.0,
			"0.025": 0.0
		}
	}
}
