{
	 "smiles": "NC1=CN(CC2=CC=C(Cl)C=C2)N=C1", 
	 "Tm": 323.15, 
	 "num_atms": 24, 
	 "gaussian": { 
		 "optdone": 1, 
		 "sigma_profile": "yes", 
		 "theory": "DFT", 
		 "functional": "B3LYP", 
		 "basiset": "6-31G**", 
		 "properties": { 
			 "R2extent": 4713.3226, 
			 "electric_dipole_moment_norm": 2.1712162352, 
			 "electric_quadrupole_moment_norm": 19.5137418944, 
			 "total_energy": -1011.50998348, 
			 "HOMO_LUMO_gap": 0.17794, 
			 "cosmo_polarized_energy": -13.37, 
			 "cosmo_cavitation_energy": 30.37, 
			 "cosmo_dispersion_energy": -21.96, 
			 "cosmo_repulsion_energy": 1.75, 
			 "cosmo_total_nonelectrostatic_energy": 10.15, 
			 "SMD_solvation_energy": 4.36 
		},
		"coords": [
			{
				"x": 0.4107976074,
				"y": 3.3230298783,
				"z": -2.034111998,
				"element": "N" 
			},
			{
				"x": -0.2414810345,
				"y": 2.1118279686,
				"z": -1.7479453555,
				"element": "C" 
			},
			{
				"x": 0.3134179076,
				"y": 0.850398868,
				"z": -1.5990383916,
				"element": "C" 
			},
			{
				"x": -0.7302464865,
				"y": -0.020729411,
				"z": -1.4343264005,
				"element": "N" 
			},
			{
				"x": -0.6603485804,
				"y": -1.4399493875,
				"z": -1.1257476334,
				"element": "C" 
			},
			{
				"x": -0.4018932244,
				"y": -1.7397470605,
				"z": 0.3413357096,
				"element": "C" 
			},
			{
				"x": -1.1802429871,
				"y": -1.1343352496,
				"z": 1.3369852246,
				"element": "C" 
			},
			{
				"x": -0.9653260684,
				"y": -1.4210437712,
				"z": 2.6830600675,
				"element": "C" 
			},
			{
				"x": 0.0365825564,
				"y": -2.3272862057,
				"z": 3.0350373481,
				"element": "C" 
			},
			{
				"x": 0.312569184,
				"y": -2.6939874121,
				"z": 4.7332151399,
				"element": "Cl" 
			},
			{
				"x": 0.8223936921,
				"y": -2.9438598893,
				"z": 2.0645817129,
				"element": "C" 
			},
			{
				"x": 0.5969786507,
				"y": -2.6408237774,
				"z": 0.720131658,
				"element": "C" 
			},
			{
				"x": -1.9229818517,
				"y": 0.6009276991,
				"z": -1.4458015215,
				"element": "N" 
			},
			{
				"x": -1.6368898606,
				"y": 1.8908355784,
				"z": -1.642296017,
				"element": "C" 
			},
			{
				"x": 1.3550496882,
				"y": 3.3606474027,
				"z": -1.6698160832,
				"element": "H" 
			},
			{
				"x": -0.1064215684,
				"y": 4.1281473674,
				"z": -1.7023268419,
				"element": "H" 
			},
			{
				"x": 1.3398550897,
				"y": 0.5145994108,
				"z": -1.6088260292,
				"element": "H" 
			},
			{
				"x": 0.1196250864,
				"y": -1.8931985973,
				"z": -1.745820026,
				"element": "H" 
			},
			{
				"x": -1.6207741496,
				"y": -1.8576526755,
				"z": -1.4411884399,
				"element": "H" 
			},
			{
				"x": -1.954666843,
				"y": -0.4292795532,
				"z": 1.0491675958,
				"element": "H" 
			},
			{
				"x": -1.567096328,
				"y": -0.9512723912,
				"z": 3.4532924537,
				"element": "H" 
			},
			{
				"x": 1.599229737,
				"y": -3.6426156528,
				"z": 2.3546406467,
				"element": "H" 
			},
			{
				"x": 1.2117803868,
				"y": -3.1175359217,
				"z": -0.0395437531,
				"element": "H" 
			},
			{
				"x": -2.4359106037,
				"y": 2.6170027825,
				"z": -1.7177590659,
				"element": "H" 
			}
		],
		 "valence_orbital": [ 
			{
				"type": "occ",
				"energy": -0.28408,
				"method": "rhf"
			},
			{
				"type": "occ",
				"energy": -0.265,
				"method": "rhf"
			},
			{
				"type": "occ",
				"energy": -0.24945,
				"method": "rhf"
			},
			{
				"type": "occ",
				"energy": -0.23845,
				"method": "rhf"
			},
			{
				"type": "occ",
				"energy": -0.19659,
				"method": "rhf"
			},
			{
				"type": "unocc",
				"energy": -0.01865,
				"method": "rhf"
			},
			{
				"type": "unocc",
				"energy": -0.01514,
				"method": "rhf"
			},
			{
				"type": "unocc",
				"energy": 0.02207,
				"method": "rhf"
			},
			{
				"type": "unocc",
				"energy": 0.02968,
				"method": "rhf"
			},
			{
				"type": "unocc",
				"energy": 0.07277,
				"method": "rhf"
			}
		],
		"cosmo_sigma_profile": { 
			"-0.025": 0.0,
			"-0.024": 0.0,
			"-0.023": 0.0,
			"-0.022": 0.0,
			"-0.021": 0.0,
			"-0.02": 0.0,
			"-0.019": 0.0,
			"-0.018": 0.0,
			"-0.017": 0.0,
			"-0.016": 0.0,
			"-0.015": 0.0,
			"-0.014": 0.0,
			"-0.013": 0.0117583933607,
			"-0.012": 1.49731036788,
			"-0.011": 3.01140807204,
			"-0.01": 2.56740077595,
			"-0.009": 2.98122452911,
			"-0.008": 5.46798165755,
			"-0.007": 14.613457116,
			"-0.006": 16.1010663231,
			"-0.005": 15.2488745652,
			"-0.004": 13.3087919953,
			"-0.003": 12.3955675659,
			"-0.002": 11.248826394,
			"-0.001": 11.2017966278,
			"0.0": 13.0821700264,
			"0.001": 15.0925143447,
			"0.002": 19.6946959316,
			"0.003": 22.1614790933,
			"0.004": 23.0817927201,
			"0.005": 15.6487668328,
			"0.006": 6.63534901397,
			"0.007": 2.97675085231,
			"0.008": 3.11467250547,
			"0.009": 1.93788812924,
			"0.01": 2.18051857673,
			"0.011": 1.39617785093,
			"0.012": 2.26122443938,
			"0.013": 1.2959889024,
			"0.014": 1.49155063276,
			"0.015": 1.61580560721,
			"0.016": 1.08519200967,
			"0.017": 0.271221723618,
			"0.018": 0.0,
			"0.019": 0.0,
			"0.02": 0.0,
			"0.021": 0.0,
			"0.022": 0.0,
			"0.023": 0.0,
			"0.024": 0.0,
			"0.025": 0.0
		}
	}
}
