{
	 "smiles": "CCOC1=C(OC)C=C(C(=C1)C(O)=O)[N+]([O-])=O", 
	 "Tm": 487.15, 
	 "num_atms": 28, 
	 "gaussian": { 
		 "optdone": 1, 
		 "sigma_profile": "yes", 
		 "theory": "DFT", 
		 "functional": "B3LYP", 
		 "basiset": "6-31G**", 
		 "properties": { 
			 "R2extent": 4978.8342, 
			 "electric_dipole_moment_norm": 5.29298929245, 
			 "electric_quadrupole_moment_norm": 11.9595696649, 
			 "total_energy": -893.667619085, 
			 "HOMO_LUMO_gap": 0.16878, 
			 "cosmo_polarized_energy": -14.83, 
			 "cosmo_cavitation_energy": 33.54, 
			 "cosmo_dispersion_energy": -23.38, 
			 "cosmo_repulsion_energy": 1.86, 
			 "cosmo_total_nonelectrostatic_energy": 12.02, 
			 "SMD_solvation_energy": 10.23 
		},
		"coords": [
			{
				"x": 4.2358293964,
				"y": 1.3491541553,
				"z": 1.520282092,
				"element": "C" 
			},
			{
				"x": 2.7250639412,
				"y": 1.2558587724,
				"z": 1.4279208499,
				"element": "C" 
			},
			{
				"x": 2.4051202409,
				"y": 0.0041964724,
				"z": 0.7705092163,
				"element": "O" 
			},
			{
				"x": 1.0747051081,
				"y": -0.2664812884,
				"z": 0.6163218327,
				"element": "C" 
			},
			{
				"x": 0.2524158781,
				"y": 0.4894162615,
				"z": -0.2468593948,
				"element": "C" 
			},
			{
				"x": 0.7300682408,
				"y": 1.5675803169,
				"z": -0.9430400985,
				"element": "O" 
			},
			{
				"x": 1.6682545084,
				"y": 1.2543991575,
				"z": -1.9859264656,
				"element": "C" 
			},
			{
				"x": -1.1000928827,
				"y": 0.1720037895,
				"z": -0.3539880871,
				"element": "C" 
			},
			{
				"x": -1.6239218814,
				"y": -0.9004715429,
				"z": 0.3622108582,
				"element": "C" 
			},
			{
				"x": -0.8138264626,
				"y": -1.7070398107,
				"z": 1.1734027197,
				"element": "C" 
			},
			{
				"x": 0.5322178283,
				"y": -1.3566106759,
				"z": 1.2996688918,
				"element": "C" 
			},
			{
				"x": -1.257999892,
				"y": -2.9457432671,
				"z": 1.8931806297,
				"element": "C" 
			},
			{
				"x": -1.9532347364,
				"y": -3.7817730188,
				"z": 1.0965307007,
				"element": "O" 
			},
			{
				"x": -0.9403645676,
				"y": -3.2116217269,
				"z": 3.030959035,
				"element": "O" 
			},
			{
				"x": -3.0794530946,
				"y": -1.0981336288,
				"z": 0.2988012957,
				"element": "N" 
			},
			{
				"x": -3.6274468437,
				"y": -1.5842645301,
				"z": 1.2861213197,
				"element": "O" 
			},
			{
				"x": -3.6586100931,
				"y": -0.7260617764,
				"z": -0.7208599379,
				"element": "O" 
			},
			{
				"x": 4.6888497754,
				"y": 1.3553208515,
				"z": 0.5246358359,
				"element": "H" 
			},
			{
				"x": 4.643001196,
				"y": 0.5020326085,
				"z": 2.0791453652,
				"element": "H" 
			},
			{
				"x": 4.5202024732,
				"y": 2.2728356045,
				"z": 2.0336579598,
				"element": "H" 
			},
			{
				"x": 2.3021179794,
				"y": 2.088947546,
				"z": 0.857331908,
				"element": "H" 
			},
			{
				"x": 2.2673818387,
				"y": 1.2517129219,
				"z": 2.4254881288,
				"element": "H" 
			},
			{
				"x": 2.5471740713,
				"y": 0.7385404696,
				"z": -1.5887680856,
				"element": "H" 
			},
			{
				"x": 1.9625608767,
				"y": 2.2099712755,
				"z": -2.4224373054,
				"element": "H" 
			},
			{
				"x": 1.1928992573,
				"y": 0.6338119229,
				"z": -2.7544597329,
				"element": "H" 
			},
			{
				"x": -1.7456546234,
				"y": 0.7692264643,
				"z": -0.9856130286,
				"element": "H" 
			},
			{
				"x": 1.1804407861,
				"y": -1.9446106485,
				"z": 1.9396297006,
				"element": "H" 
			},
			{
				"x": -2.2141983189,
				"y": -4.5369966758,
				"z": 1.6501537965,
				"element": "H" 
			}
		],
		 "valence_orbital": [ 
			{
				"type": "occ",
				"energy": -0.30084,
				"method": "rhf"
			},
			{
				"type": "occ",
				"energy": -0.28852,
				"method": "rhf"
			},
			{
				"type": "occ",
				"energy": -0.28717,
				"method": "rhf"
			},
			{
				"type": "occ",
				"energy": -0.27072,
				"method": "rhf"
			},
			{
				"type": "occ",
				"energy": -0.25799,
				"method": "rhf"
			},
			{
				"type": "unocc",
				"energy": -0.08921,
				"method": "rhf"
			},
			{
				"type": "unocc",
				"energy": -0.04524,
				"method": "rhf"
			},
			{
				"type": "unocc",
				"energy": -0.01417,
				"method": "rhf"
			},
			{
				"type": "unocc",
				"energy": 0.02335,
				"method": "rhf"
			},
			{
				"type": "unocc",
				"energy": 0.06728,
				"method": "rhf"
			}
		],
		"cosmo_sigma_profile": { 
			"-0.025": 0.0,
			"-0.024": 0.0,
			"-0.023": 0.0,
			"-0.022": 0.0,
			"-0.021": 0.0,
			"-0.02": 0.0,
			"-0.019": 0.40647442184,
			"-0.018": 1.23683897363,
			"-0.017": 0.594979898349,
			"-0.016": 0.686427201719,
			"-0.015": 0.930265948853,
			"-0.014": 0.978035478812,
			"-0.013": 0.728846228425,
			"-0.012": 0.51431652456,
			"-0.011": 1.00461607287,
			"-0.01": 0.557924857942,
			"-0.009": 0.370051570491,
			"-0.008": 2.20500908454,
			"-0.007": 4.59724219473,
			"-0.006": 7.43650067403,
			"-0.005": 14.407071171,
			"-0.004": 24.7603909942,
			"-0.003": 32.4237458907,
			"-0.002": 27.7547375291,
			"-0.001": 25.577562145,
			"0.0": 19.9307664941,
			"0.001": 12.3982869523,
			"0.002": 9.03392361706,
			"0.003": 8.73246143726,
			"0.004": 8.20910633611,
			"0.005": 8.28325759879,
			"0.006": 9.87418115637,
			"0.007": 12.9611915988,
			"0.008": 10.6871611016,
			"0.009": 6.51930655525,
			"0.01": 6.16485826082,
			"0.011": 5.2204780464,
			"0.012": 1.05481084928,
			"0.013": 0.0,
			"0.014": 0.0,
			"0.015": 0.0,
			"0.016": 0.0,
			"0.017": 0.0,
			"0.018": 0.0,
			"0.019": 0.0,
			"0.02": 0.0,
			"0.021": 0.0,
			"0.022": 0.0,
			"0.023": 0.0,
			"0.024": 0.0,
			"0.025": 0.0
		}
	}
}
