{
	 "smiles": "CN1C(=O)C(C2=NNC(=O)C2=N/NC2=NC=CS2)=C(O)C2=CC=CC=C12", 
	 "Tm": 574.15, 
	 "num_atms": 38, 
	 "gaussian": { 
		 "optdone": 1, 
		 "sigma_profile": "yes", 
		 "theory": "DFT", 
		 "functional": "B3LYP", 
		 "basiset": "6-31G**", 
		 "properties": { 
			 "R2extent": 11159.9303, 
			 "electric_dipole_moment_norm": 6.90776635028, 
			 "electric_quadrupole_moment_norm": 10.9061185667, 
			 "total_energy": -1569.25556852, 
			 "HOMO_LUMO_gap": 0.12182, 
			 "cosmo_polarized_energy": -27.65, 
			 "cosmo_cavitation_energy": 45.35, 
			 "cosmo_dispersion_energy": -32.64, 
			 "cosmo_repulsion_energy": 2.41, 
			 "cosmo_total_nonelectrostatic_energy": 15.12, 
			 "SMD_solvation_energy": 5.81 
		},
		"coords": [
			{
				"x": 1.7821844845,
				"y": -3.1562704116,
				"z": 1.7922790589,
				"element": "C" 
			},
			{
				"x": 0.6650618863,
				"y": -2.2284879156,
				"z": 1.6174487507,
				"element": "N" 
			},
			{
				"x": 0.9964501075,
				"y": -0.8799597256,
				"z": 1.3539051703,
				"element": "C" 
			},
			{
				"x": 2.1706215483,
				"y": -0.5232444086,
				"z": 1.2990853609,
				"element": "O" 
			},
			{
				"x": -0.1221005714,
				"y": 0.0359508526,
				"z": 1.140736523,
				"element": "C" 
			},
			{
				"x": 0.223159104,
				"y": 1.4249503957,
				"z": 0.7917070159,
				"element": "C" 
			},
			{
				"x": -0.1458701065,
				"y": 2.4413352859,
				"z": 1.5264068467,
				"element": "N" 
			},
			{
				"x": 0.3303206893,
				"y": 3.5884451738,
				"z": 0.9073111902,
				"element": "N" 
			},
			{
				"x": 1.037133926,
				"y": 3.3540352475,
				"z": -0.2420048881,
				"element": "C" 
			},
			{
				"x": 1.5790810151,
				"y": 4.1679464306,
				"z": -0.9991540837,
				"element": "O" 
			},
			{
				"x": 0.974998707,
				"y": 1.880382389,
				"z": -0.3664803364,
				"element": "C" 
			},
			{
				"x": 1.4580618876,
				"y": 1.1601528455,
				"z": -1.342398211,
				"element": "N" 
			},
			{
				"x": 2.0960396297,
				"y": 1.8027685785,
				"z": -2.3036404976,
				"element": "N" 
			},
			{
				"x": 2.6292311114,
				"y": 1.1088549899,
				"z": -3.3698346264,
				"element": "C" 
			},
			{
				"x": 3.2522847079,
				"y": 1.7091813725,
				"z": -4.3431393256,
				"element": "N" 
			},
			{
				"x": 3.6770931295,
				"y": 0.7806610391,
				"z": -5.2664123069,
				"element": "C" 
			},
			{
				"x": 3.3763179838,
				"y": -0.5212499017,
				"z": -4.9966292301,
				"element": "C" 
			},
			{
				"x": 2.503978927,
				"y": -0.6400279106,
				"z": -3.4897861259,
				"element": "S" 
			},
			{
				"x": -1.4169895418,
				"y": -0.3906345159,
				"z": 1.2444764785,
				"element": "C" 
			},
			{
				"x": -2.4178236934,
				"y": 0.4902956353,
				"z": 1.009997894,
				"element": "O" 
			},
			{
				"x": -1.7205130166,
				"y": -1.7647338086,
				"z": 1.5941657416,
				"element": "C" 
			},
			{
				"x": -3.0363928007,
				"y": -2.2256734783,
				"z": 1.7862408405,
				"element": "C" 
			},
			{
				"x": -3.3041013012,
				"y": -3.5510730138,
				"z": 2.0901290762,
				"element": "C" 
			},
			{
				"x": -2.2366035476,
				"y": -4.44836949,
				"z": 2.2160962976,
				"element": "C" 
			},
			{
				"x": -0.925948062,
				"y": -4.0210971145,
				"z": 2.0561999598,
				"element": "C" 
			},
			{
				"x": -0.6392554184,
				"y": -2.6736730541,
				"z": 1.7528920751,
				"element": "C" 
			},
			{
				"x": 1.7329610737,
				"y": -3.9626192756,
				"z": 1.0539716985,
				"element": "H" 
			},
			{
				"x": 2.6948371396,
				"y": -2.582281915,
				"z": 1.6482883798,
				"element": "H" 
			},
			{
				"x": 1.776104489,
				"y": -3.5872728959,
				"z": 2.7984736695,
				"element": "H" 
			},
			{
				"x": 0.1699935695,
				"y": 4.4832501517,
				"z": 1.3427769033,
				"element": "H" 
			},
			{
				"x": 2.1967205939,
				"y": 2.8263810515,
				"z": -2.2580224873,
				"element": "H" 
			},
			{
				"x": 4.2166870116,
				"y": 1.1228099,
				"z": -6.1416108175,
				"element": "H" 
			},
			{
				"x": 3.6085664638,
				"y": -1.4043687715,
				"z": -5.5739236443,
				"element": "H" 
			},
			{
				"x": -3.248850933,
				"y": 0.0158760684,
				"z": 0.8819034743,
				"element": "H" 
			},
			{
				"x": -3.8714945667,
				"y": -1.5316171425,
				"z": 1.7271554842,
				"element": "H" 
			},
			{
				"x": -4.3261279943,
				"y": -3.8839429249,
				"z": 2.236517929,
				"element": "H" 
			},
			{
				"x": -2.4284628299,
				"y": -5.4909661376,
				"z": 2.4514094983,
				"element": "H" 
			},
			{
				"x": -0.1195548026,
				"y": -4.7332135957,
				"z": 2.1717612644,
				"element": "H" 
			}
		],
		 "valence_orbital": [ 
			{
				"type": "occ",
				"energy": -0.25569,
				"method": "rhf"
			},
			{
				"type": "occ",
				"energy": -0.24942,
				"method": "rhf"
			},
			{
				"type": "occ",
				"energy": -0.23609,
				"method": "rhf"
			},
			{
				"type": "occ",
				"energy": -0.22053,
				"method": "rhf"
			},
			{
				"type": "occ",
				"energy": -0.21015,
				"method": "rhf"
			},
			{
				"type": "unocc",
				"energy": -0.08833,
				"method": "rhf"
			},
			{
				"type": "unocc",
				"energy": -0.05841,
				"method": "rhf"
			},
			{
				"type": "unocc",
				"energy": -0.01798,
				"method": "rhf"
			},
			{
				"type": "unocc",
				"energy": -0.00066,
				"method": "rhf"
			},
			{
				"type": "unocc",
				"energy": 0.01535,
				"method": "rhf"
			}
		],
		"cosmo_sigma_profile": { 
			"-0.025": 0.0,
			"-0.024": 0.0,
			"-0.023": 0.0,
			"-0.022": 0.0,
			"-0.021": 0.0,
			"-0.02": 0.0,
			"-0.019": 0.435757253617,
			"-0.018": 1.01649842492,
			"-0.017": 1.05906580474,
			"-0.016": 3.15360978483,
			"-0.015": 1.89991426807,
			"-0.014": 1.99349029187,
			"-0.013": 1.19509296344,
			"-0.012": 2.12036711727,
			"-0.011": 2.42570826909,
			"-0.01": 2.2197104017,
			"-0.009": 3.7800874382,
			"-0.008": 6.02583970518,
			"-0.007": 12.4478297512,
			"-0.006": 20.5091874679,
			"-0.005": 20.4172095385,
			"-0.004": 21.2682734024,
			"-0.003": 20.1694340377,
			"-0.002": 26.2561178857,
			"-0.001": 28.6885132595,
			"0.0": 25.92349667,
			"0.001": 25.3393139521,
			"0.002": 28.2247318331,
			"0.003": 24.3640268238,
			"0.004": 17.6336564594,
			"0.005": 7.68354631183,
			"0.006": 8.19544040495,
			"0.007": 8.10300547033,
			"0.008": 6.58331112934,
			"0.009": 6.59488138237,
			"0.01": 6.98305030642,
			"0.011": 7.37318019109,
			"0.012": 7.2286076984,
			"0.013": 7.39240668049,
			"0.014": 3.16081149239,
			"0.015": 0.000689592158684,
			"0.016": 0.0,
			"0.017": 0.0,
			"0.018": 0.0,
			"0.019": 0.0,
			"0.02": 0.0,
			"0.021": 0.0,
			"0.022": 0.0,
			"0.023": 0.0,
			"0.024": 0.0,
			"0.025": 0.0
		}
	}
}
