{
	 "smiles": "ClC1=C(Cl)C=C(C=C1)N1C=CC=N1", 
	 "Tm": 333.15, 
	 "num_atms": 19, 
	 "gaussian": { 
		 "optdone": 1, 
		 "sigma_profile": "yes", 
		 "theory": "DFT", 
		 "functional": "B3LYP", 
		 "basiset": "6-31G**", 
		 "properties": { 
			 "R2extent": 4398.9626, 
			 "electric_dipole_moment_norm": 2.46755598518, 
			 "electric_quadrupole_moment_norm": 10.6917481746, 
			 "total_energy": -1376.43219295, 
			 "HOMO_LUMO_gap": 0.18951, 
			 "cosmo_polarized_energy": -7.6, 
			 "cosmo_cavitation_energy": 27.13, 
			 "cosmo_dispersion_energy": -20.49, 
			 "cosmo_repulsion_energy": 1.59, 
			 "cosmo_total_nonelectrostatic_energy": 8.22, 
			 "SMD_solvation_energy": 4.01 
		},
		"coords": [
			{
				"x": -3.2981545149,
				"y": -1.1754298819,
				"z": -2.9548217902,
				"element": "Cl" 
			},
			{
				"x": -2.2992386922,
				"y": -0.6606189634,
				"z": -1.619647215,
				"element": "C" 
			},
			{
				"x": -2.3726731645,
				"y": 0.6375898645,
				"z": -1.1009764753,
				"element": "C" 
			},
			{
				"x": -3.4721982505,
				"y": 1.823107557,
				"z": -1.7616717116,
				"element": "Cl" 
			},
			{
				"x": -1.5596637848,
				"y": 1.0172562931,
				"z": -0.0325256818,
				"element": "C" 
			},
			{
				"x": -0.6650908443,
				"y": 0.1013496478,
				"z": 0.5274063582,
				"element": "C" 
			},
			{
				"x": -0.587419699,
				"y": -1.1987948794,
				"z": 0.0124999374,
				"element": "C" 
			},
			{
				"x": -1.4007472607,
				"y": -1.5673290911,
				"z": -1.0511563785,
				"element": "C" 
			},
			{
				"x": 0.166086722,
				"y": 0.4725348433,
				"z": 1.6119392526,
				"element": "N" 
			},
			{
				"x": 0.2475926134,
				"y": 1.6778221648,
				"z": 2.2589435817,
				"element": "C" 
			},
			{
				"x": 1.2000795122,
				"y": 1.5418169272,
				"z": 3.2423877661,
				"element": "C" 
			},
			{
				"x": 1.6496959685,
				"y": 0.2053236305,
				"z": 3.1181778993,
				"element": "C" 
			},
			{
				"x": 1.0287830729,
				"y": -0.4381347573,
				"z": 2.1383525186,
				"element": "N" 
			},
			{
				"x": -1.6451915148,
				"y": 2.0294044687,
				"z": 0.3407647941,
				"element": "H" 
			},
			{
				"x": 0.1086625203,
				"y": -1.8997287996,
				"z": 0.453640874,
				"element": "H" 
			},
			{
				"x": -1.3448234212,
				"y": -2.5725644988,
				"z": -1.4537987621,
				"element": "H" 
			},
			{
				"x": -0.3605807302,
				"y": 2.5240353183,
				"z": 1.9823766533,
				"element": "H" 
			},
			{
				"x": 1.5229646505,
				"y": 2.2947254744,
				"z": 3.9453289457,
				"element": "H" 
			},
			{
				"x": 2.3993168172,
				"y": -0.3109653179,
				"z": 3.7028794335,
				"element": "H" 
			}
		],
		 "valence_orbital": [ 
			{
				"type": "occ",
				"energy": -0.30058,
				"method": "rhf"
			},
			{
				"type": "occ",
				"energy": -0.29276,
				"method": "rhf"
			},
			{
				"type": "occ",
				"energy": -0.26776,
				"method": "rhf"
			},
			{
				"type": "occ",
				"energy": -0.2608,
				"method": "rhf"
			},
			{
				"type": "occ",
				"energy": -0.23291,
				"method": "rhf"
			},
			{
				"type": "unocc",
				"energy": -0.0434,
				"method": "rhf"
			},
			{
				"type": "unocc",
				"energy": -0.03014,
				"method": "rhf"
			},
			{
				"type": "unocc",
				"energy": -0.00187,
				"method": "rhf"
			},
			{
				"type": "unocc",
				"energy": 0.02495,
				"method": "rhf"
			},
			{
				"type": "unocc",
				"energy": 0.05735,
				"method": "rhf"
			}
		],
		"cosmo_sigma_profile": { 
			"-0.025": 0.0,
			"-0.024": 0.0,
			"-0.023": 0.0,
			"-0.022": 0.0,
			"-0.021": 0.0,
			"-0.02": 0.0,
			"-0.019": 0.0,
			"-0.018": 0.0,
			"-0.017": 0.0,
			"-0.016": 0.0,
			"-0.015": 0.0,
			"-0.014": 0.0,
			"-0.013": 0.0342974387365,
			"-0.012": 0.861183289219,
			"-0.011": 2.07935358558,
			"-0.01": 1.82642115681,
			"-0.009": 1.52283821301,
			"-0.008": 4.8454034601,
			"-0.007": 8.81007530251,
			"-0.006": 8.21018849441,
			"-0.005": 7.97640086496,
			"-0.004": 9.36088157058,
			"-0.003": 10.4839094201,
			"-0.002": 14.2579156667,
			"-0.001": 13.5778196049,
			"0.0": 24.0652495197,
			"0.001": 29.9453919736,
			"0.002": 21.1977670297,
			"0.003": 22.839644756,
			"0.004": 23.1296739787,
			"0.005": 8.2568158801,
			"0.006": 2.62605331458,
			"0.007": 1.97482963043,
			"0.008": 0.875807267062,
			"0.009": 1.35607637538,
			"0.01": 1.57081381485,
			"0.011": 1.74720013575,
			"0.012": 0.514816443519,
			"0.013": 0.0,
			"0.014": 0.0,
			"0.015": 0.0,
			"0.016": 0.0,
			"0.017": 0.0,
			"0.018": 0.0,
			"0.019": 0.0,
			"0.02": 0.0,
			"0.021": 0.0,
			"0.022": 0.0,
			"0.023": 0.0,
			"0.024": 0.0,
			"0.025": 0.0
		}
	}
}
