{
	 "smiles": "OC(=O)C=C1CCCC1", 
	 "Tm": 335.15, 
	 "num_atms": 19, 
	 "gaussian": { 
		 "optdone": 1, 
		 "sigma_profile": "yes", 
		 "theory": "DFT", 
		 "functional": "B3LYP", 
		 "basiset": "6-31G**", 
		 "properties": { 
			 "R2extent": 1785.9595, 
			 "electric_dipole_moment_norm": 1.80858743222, 
			 "electric_quadrupole_moment_norm": 5.60721780387, 
			 "total_energy": -423.229092757, 
			 "HOMO_LUMO_gap": 0.21803, 
			 "cosmo_polarized_energy": -8.07, 
			 "cosmo_cavitation_energy": 21.84, 
			 "cosmo_dispersion_energy": -16.38, 
			 "cosmo_repulsion_energy": 1.37, 
			 "cosmo_total_nonelectrostatic_energy": 6.83, 
			 "SMD_solvation_energy": 4.39 
		},
		"coords": [
			{
				"x": -2.4762605573,
				"y": 1.1302811846,
				"z": -0.1683973773,
				"element": "O" 
			},
			{
				"x": -1.1937284356,
				"y": 0.9333205657,
				"z": -0.5824557613,
				"element": "C" 
			},
			{
				"x": -0.4578414843,
				"y": 1.8701600702,
				"z": -0.8452010065,
				"element": "O" 
			},
			{
				"x": -0.8658738438,
				"y": -0.4963843939,
				"z": -0.6504797198,
				"element": "C" 
			},
			{
				"x": 0.329537254,
				"y": -0.9610994221,
				"z": -1.0573507563,
				"element": "C" 
			},
			{
				"x": 1.5367248601,
				"y": -0.1470871163,
				"z": -1.4852441331,
				"element": "C" 
			},
			{
				"x": 2.560722206,
				"y": -1.1861055227,
				"z": -1.9906986817,
				"element": "C" 
			},
			{
				"x": 2.2214894401,
				"y": -2.4608636143,
				"z": -1.196435504,
				"element": "C" 
			},
			{
				"x": 0.6818198768,
				"y": -2.4357012844,
				"z": -1.1370396903,
				"element": "C" 
			},
			{
				"x": -2.5984753536,
				"y": 2.0936901383,
				"z": -0.1515371258,
				"element": "H" 
			},
			{
				"x": -1.6510696325,
				"y": -1.1838182154,
				"z": -0.3497350509,
				"element": "H" 
			},
			{
				"x": 1.2755769236,
				"y": 0.6246585123,
				"z": -2.2131072889,
				"element": "H" 
			},
			{
				"x": 1.9216278394,
				"y": 0.397680838,
				"z": -0.6133308947,
				"element": "H" 
			},
			{
				"x": 3.5960224787,
				"y": -0.8589797596,
				"z": -1.8591868939,
				"element": "H" 
			},
			{
				"x": 2.4108759001,
				"y": -1.3685425541,
				"z": -3.0622186279,
				"element": "H" 
			},
			{
				"x": 2.6161584417,
				"y": -3.3743388323,
				"z": -1.6505396762,
				"element": "H" 
			},
			{
				"x": 2.6341379398,
				"y": -2.3913879067,
				"z": -0.1822892433,
				"element": "H" 
			},
			{
				"x": 0.2511237305,
				"y": -3.0186887075,
				"z": -0.3171709654,
				"element": "H" 
			},
			{
				"x": 0.2700324165,
				"y": -2.84659398,
				"z": -2.0706816027,
				"element": "H" 
			}
		],
		 "valence_orbital": [ 
			{
				"type": "occ",
				"energy": -0.33544,
				"method": "rhf"
			},
			{
				"type": "occ",
				"energy": -0.33005,
				"method": "rhf"
			},
			{
				"type": "occ",
				"energy": -0.30599,
				"method": "rhf"
			},
			{
				"type": "occ",
				"energy": -0.2624,
				"method": "rhf"
			},
			{
				"type": "occ",
				"energy": -0.25421,
				"method": "rhf"
			},
			{
				"type": "unocc",
				"energy": -0.03618,
				"method": "rhf"
			},
			{
				"type": "unocc",
				"energy": 0.08111,
				"method": "rhf"
			},
			{
				"type": "unocc",
				"energy": 0.08726,
				"method": "rhf"
			},
			{
				"type": "unocc",
				"energy": 0.09243,
				"method": "rhf"
			},
			{
				"type": "unocc",
				"energy": 0.12555,
				"method": "rhf"
			}
		],
		"cosmo_sigma_profile": { 
			"-0.025": 0.0,
			"-0.024": 0.0,
			"-0.023": 0.0,
			"-0.022": 0.0,
			"-0.021": 0.0,
			"-0.02": 0.0,
			"-0.019": 0.0,
			"-0.018": 0.178950119744,
			"-0.017": 0.63587658702,
			"-0.016": 1.037023622,
			"-0.015": 0.938949169073,
			"-0.014": 0.908486455978,
			"-0.013": 0.242249344185,
			"-0.012": 0.584526607968,
			"-0.011": 0.411312303321,
			"-0.01": 0.849440032367,
			"-0.009": 0.88505519262,
			"-0.008": 0.75705536507,
			"-0.007": 0.40680124735,
			"-0.006": 1.2698222383,
			"-0.005": 4.81479577035,
			"-0.004": 9.97158661378,
			"-0.003": 21.5378571112,
			"-0.002": 22.9042825419,
			"-0.001": 23.3224626383,
			"0.0": 20.1527254037,
			"0.001": 14.9000759533,
			"0.002": 7.35323643794,
			"0.003": 5.9219203909,
			"0.004": 4.74482495395,
			"0.005": 2.65264211397,
			"0.006": 2.25949897152,
			"0.007": 3.26337625016,
			"0.008": 3.00157784143,
			"0.009": 3.19774096768,
			"0.01": 3.13003484238,
			"0.011": 2.32116344561,
			"0.012": 3.33405259972,
			"0.013": 2.82695132361,
			"0.014": 0.0320197655704,
			"0.015": 0.0,
			"0.016": 0.0,
			"0.017": 0.0,
			"0.018": 0.0,
			"0.019": 0.0,
			"0.02": 0.0,
			"0.021": 0.0,
			"0.022": 0.0,
			"0.023": 0.0,
			"0.024": 0.0,
			"0.025": 0.0
		}
	}
}
