{
	 "smiles": "CC1=CC(C(O)=O)=C(C)N1C1=CC(C)=CC=C1", 
	 "Tm": 468.15, 
	 "num_atms": 32, 
	 "gaussian": { 
		 "optdone": 1, 
		 "sigma_profile": "yes", 
		 "theory": "DFT", 
		 "functional": "B3LYP", 
		 "basiset": "6-31G**", 
		 "properties": { 
			 "R2extent": 5027.9175, 
			 "electric_dipole_moment_norm": 8.17849555175, 
			 "electric_quadrupole_moment_norm": 28.2062185222, 
			 "total_energy": -747.750878038, 
			 "HOMO_LUMO_gap": 0.18057, 
			 "cosmo_polarized_energy": -17.15, 
			 "cosmo_cavitation_energy": 35.59, 
			 "cosmo_dispersion_energy": -24.41, 
			 "cosmo_repulsion_energy": 1.91, 
			 "cosmo_total_nonelectrostatic_energy": 13.09, 
			 "SMD_solvation_energy": 7.27 
		},
		"coords": [
			{
				"x": 1.7323201376,
				"y": 1.5528351606,
				"z": -1.0307594169,
				"element": "C" 
			},
			{
				"x": 1.2769961128,
				"y": 1.210364023,
				"z": 0.3514954328,
				"element": "C" 
			},
			{
				"x": 1.7357297228,
				"y": 1.6377962473,
				"z": 1.5695162096,
				"element": "C" 
			},
			{
				"x": 0.9203951926,
				"y": 1.0513598594,
				"z": 2.5861234668,
				"element": "C" 
			},
			{
				"x": 1.1600844335,
				"y": 1.2753356713,
				"z": 4.023823015,
				"element": "C" 
			},
			{
				"x": 0.1118060712,
				"y": 1.0312936718,
				"z": 4.8752253795,
				"element": "O" 
			},
			{
				"x": 2.2123924278,
				"y": 1.6618008978,
				"z": 4.4796735733,
				"element": "O" 
			},
			{
				"x": -0.0261213406,
				"y": 0.247308038,
				"z": 1.9545650726,
				"element": "C" 
			},
			{
				"x": -1.0685284772,
				"y": -0.6816970329,
				"z": 2.5020823534,
				"element": "C" 
			},
			{
				"x": 0.1980029211,
				"y": 0.3539590866,
				"z": 0.5934578451,
				"element": "N" 
			},
			{
				"x": -0.5485315365,
				"y": -0.3292308782,
				"z": -0.4199187689,
				"element": "C" 
			},
			{
				"x": -1.8380824536,
				"y": 0.1050073138,
				"z": -0.7419255749,
				"element": "C" 
			},
			{
				"x": -2.5888239145,
				"y": -0.5442330992,
				"z": -1.7288527879,
				"element": "C" 
			},
			{
				"x": -3.9927400096,
				"y": -0.0927716008,
				"z": -2.0564534957,
				"element": "C" 
			},
			{
				"x": -2.009154073,
				"y": -1.6331688135,
				"z": -2.395733723,
				"element": "C" 
			},
			{
				"x": -0.7217864052,
				"y": -2.0660711843,
				"z": -2.0795020242,
				"element": "C" 
			},
			{
				"x": 0.0155756483,
				"y": -1.419853302,
				"z": -1.0865899701,
				"element": "C" 
			},
			{
				"x": 2.1054441961,
				"y": 0.6811346718,
				"z": -1.5805698718,
				"element": "H" 
			},
			{
				"x": 2.5436762754,
				"y": 2.2816780441,
				"z": -0.9701251129,
				"element": "H" 
			},
			{
				"x": 0.927848956,
				"y": 1.9923290647,
				"z": -1.6325471418,
				"element": "H" 
			},
			{
				"x": 2.5595611622,
				"y": 2.3133640119,
				"z": 1.7472851063,
				"element": "H" 
			},
			{
				"x": -0.7025468738,
				"y": 0.943481404,
				"z": 4.3626505974,
				"element": "H" 
			},
			{
				"x": -2.0798646119,
				"y": -0.2538410674,
				"z": 2.4763410409,
				"element": "H" 
			},
			{
				"x": -0.8357926083,
				"y": -0.9458750298,
				"z": 3.5362399677,
				"element": "H" 
			},
			{
				"x": -1.1071231414,
				"y": -1.6119485061,
				"z": 1.9272537065,
				"element": "H" 
			},
			{
				"x": -2.2488724425,
				"y": 0.9644570856,
				"z": -0.2194065419,
				"element": "H" 
			},
			{
				"x": -4.1919698683,
				"y": -0.1566695549,
				"z": -3.130592738,
				"element": "H" 
			},
			{
				"x": -4.166482186,
				"y": 0.9394546951,
				"z": -1.7400861423,
				"element": "H" 
			},
			{
				"x": -4.7367483319,
				"y": -0.7210129566,
				"z": -1.551330509,
				"element": "H" 
			},
			{
				"x": -2.5728963062,
				"y": -2.1446627755,
				"z": -3.171719783,
				"element": "H" 
			},
			{
				"x": -0.290307344,
				"y": -2.9121352336,
				"z": -2.6061587601,
				"element": "H" 
			},
			{
				"x": 1.0142386673,
				"y": -1.7523879122,
				"z": -0.8223604044,
				"element": "H" 
			}
		],
		 "valence_orbital": [ 
			{
				"type": "occ",
				"energy": -0.27318,
				"method": "rhf"
			},
			{
				"type": "occ",
				"energy": -0.26325,
				"method": "rhf"
			},
			{
				"type": "occ",
				"energy": -0.25342,
				"method": "rhf"
			},
			{
				"type": "occ",
				"energy": -0.23955,
				"method": "rhf"
			},
			{
				"type": "occ",
				"energy": -0.20963,
				"method": "rhf"
			},
			{
				"type": "unocc",
				"energy": -0.02906,
				"method": "rhf"
			},
			{
				"type": "unocc",
				"energy": -0.02202,
				"method": "rhf"
			},
			{
				"type": "unocc",
				"energy": -0.00267,
				"method": "rhf"
			},
			{
				"type": "unocc",
				"energy": 0.04149,
				"method": "rhf"
			},
			{
				"type": "unocc",
				"energy": 0.07061,
				"method": "rhf"
			}
		],
		"cosmo_sigma_profile": { 
			"-0.025": 0.0,
			"-0.024": 0.0,
			"-0.023": 0.0,
			"-0.022": 0.0,
			"-0.021": 0.0,
			"-0.02": 0.0,
			"-0.019": 0.0,
			"-0.018": 0.0,
			"-0.017": 0.094176863018,
			"-0.016": 0.509694095433,
			"-0.015": 0.818211538612,
			"-0.014": 1.13892836728,
			"-0.013": 0.44575481804,
			"-0.012": 0.66822239485,
			"-0.011": 1.31342208907,
			"-0.01": 1.24229107365,
			"-0.009": 0.550041012957,
			"-0.008": 1.1681483794,
			"-0.007": 2.02507836093,
			"-0.006": 9.66744252803,
			"-0.005": 19.3479399248,
			"-0.004": 30.1983409497,
			"-0.003": 26.9936375565,
			"-0.002": 27.8132234324,
			"-0.001": 31.2568505449,
			"0.0": 25.9704173358,
			"0.001": 14.4782141841,
			"0.002": 13.6653295115,
			"0.003": 13.0020489426,
			"0.004": 12.8772356167,
			"0.005": 9.51342611019,
			"0.006": 5.99170188046,
			"0.007": 4.50932205705,
			"0.008": 2.87635491454,
			"0.009": 2.8122372146,
			"0.01": 3.42152911194,
			"0.011": 4.42068552164,
			"0.012": 5.98320609941,
			"0.013": 5.47125263363,
			"0.014": 1.82665523025,
			"0.015": 0.0559526520151,
			"0.016": 0.0,
			"0.017": 0.0,
			"0.018": 0.0,
			"0.019": 0.0,
			"0.02": 0.0,
			"0.021": 0.0,
			"0.022": 0.0,
			"0.023": 0.0,
			"0.024": 0.0,
			"0.0": 0.0
		}
	}
}
