{
	 "smiles": "OC12CC3=CC=CC=C3C(=O)NC1=CC1=CC=CC=C21", 
	 "Tm": 482.15, 
	 "num_atms": 33, 
	 "gaussian": { 
		 "optdone": 1, 
		 "sigma_profile": "yes", 
		 "theory": "DFT", 
		 "functional": "B3LYP", 
		 "basiset": "6-31G**", 
		 "properties": { 
			 "R2extent": 5447.6431, 
			 "electric_dipole_moment_norm": 2.25744728621, 
			 "electric_quadrupole_moment_norm": 12.7554447002, 
			 "total_energy": -860.834423228, 
			 "HOMO_LUMO_gap": 0.1702, 
			 "cosmo_polarized_energy": -16.42, 
			 "cosmo_cavitation_energy": 36.09, 
			 "cosmo_dispersion_energy": -25.32, 
			 "cosmo_repulsion_energy": 1.92, 
			 "cosmo_total_nonelectrostatic_energy": 12.69, 
			 "SMD_solvation_energy": 6.18 
		},
		"coords": [
			{
				"x": 3.4961637216,
				"y": 0.7268724567,
				"z": 0.045463304,
				"element": "O" 
			},
			{
				"x": 2.1000386703,
				"y": 0.8057132129,
				"z": -0.2701223128,
				"element": "C" 
			},
			{
				"x": 1.4931703658,
				"y": 2.0394069582,
				"z": 0.4437521316,
				"element": "C" 
			},
			{
				"x": 0.000415442,
				"y": 2.0005265099,
				"z": 0.6890738085,
				"element": "C" 
			},
			{
				"x": -0.8233783025,
				"y": 2.9726720615,
				"z": 0.1108553676,
				"element": "C" 
			},
			{
				"x": -2.1878325504,
				"y": 3.03589833,
				"z": 0.3945286185,
				"element": "C" 
			},
			{
				"x": -2.7534986242,
				"y": 2.1294483108,
				"z": 1.2910041196,
				"element": "C" 
			},
			{
				"x": -1.9505174704,
				"y": 1.1559607575,
				"z": 1.8794610475,
				"element": "C" 
			},
			{
				"x": -0.586255053,
				"y": 1.0635120957,
				"z": 1.5711114621,
				"element": "C" 
			},
			{
				"x": 0.1397871769,
				"y": -0.075519129,
				"z": 2.237665227,
				"element": "C" 
			},
			{
				"x": -0.1760631983,
				"y": -0.4971299012,
				"z": 3.3410848947,
				"element": "O" 
			},
			{
				"x": 1.1527843417,
				"y": -0.7065247217,
				"z": 1.5137004266,
				"element": "N" 
			},
			{
				"x": 1.3723787633,
				"y": -0.4728059787,
				"z": 0.139522342,
				"element": "C" 
			},
			{
				"x": 1.0173586866,
				"y": -1.2090285489,
				"z": -0.9283394984,
				"element": "C" 
			},
			{
				"x": 1.387772836,
				"y": -0.4818853394,
				"z": -2.1516194342,
				"element": "C" 
			},
			{
				"x": 1.2091313748,
				"y": -0.8053862809,
				"z": -3.4941296223,
				"element": "C" 
			},
			{
				"x": 1.6371227281,
				"y": 0.1089553698,
				"z": -4.4664163359,
				"element": "C" 
			},
			{
				"x": 2.2332521475,
				"y": 1.3165331674,
				"z": -4.099975357,
				"element": "C" 
			},
			{
				"x": 2.4139871841,
				"y": 1.6407697879,
				"z": -2.7451174535,
				"element": "C" 
			},
			{
				"x": 1.9832545109,
				"y": 0.7430453544,
				"z": -1.7844554712,
				"element": "C" 
			},
			{
				"x": 3.5567733656,
				"y": 0.5480960169,
				"z": 0.9959111091,
				"element": "H" 
			},
			{
				"x": 1.7659312042,
				"y": 2.9448110417,
				"z": -0.1057059071,
				"element": "H" 
			},
			{
				"x": 1.9993582147,
				"y": 2.1079863852,
				"z": 1.4153034783,
				"element": "H" 
			},
			{
				"x": -0.380058449,
				"y": 3.700043655,
				"z": -0.5639628168,
				"element": "H" 
			},
			{
				"x": -2.8019354319,
				"y": 3.7992633068,
				"z": -0.0746439021,
				"element": "H" 
			},
			{
				"x": -3.8111281958,
				"y": 2.1802471629,
				"z": 1.5316021845,
				"element": "H" 
			},
			{
				"x": -2.3632502152,
				"y": 0.4446085856,
				"z": 2.5867436885,
				"element": "H" 
			},
			{
				"x": 1.4019320636,
				"y": -1.6045738018,
				"z": 1.9125561563,
				"element": "H" 
			},
			{
				"x": 0.5043293274,
				"y": -2.1645838317,
				"z": -0.9069861644,
				"element": "H" 
			},
			{
				"x": 0.7467603653,
				"y": -1.7442456784,
				"z": -3.7860566887,
				"element": "H" 
			},
			{
				"x": 1.5042775242,
				"y": -0.1267887056,
				"z": -5.5185071268,
				"element": "H" 
			},
			{
				"x": 2.563240711,
				"y": 2.0098678497,
				"z": -4.8680108602,
				"element": "H" 
			},
			{
				"x": 2.890696765,
				"y": 2.5756335408,
				"z": -2.4632904149,
				"element": "H" 
			}
		],
		 "valence_orbital": [ 
			{
				"type": "occ",
				"energy": -0.26458,
				"method": "rhf"
			},
			{
				"type": "occ",
				"energy": -0.25337,
				"method": "rhf"
			},
			{
				"type": "occ",
				"energy": -0.25245,
				"method": "rhf"
			},
			{
				"type": "occ",
				"energy": -0.24939,
				"method": "rhf"
			},
			{
				"type": "occ",
				"energy": -0.21528,
				"method": "rhf"
			},
			{
				"type": "unocc",
				"energy": -0.04508,
				"method": "rhf"
			},
			{
				"type": "unocc",
				"energy": -0.03615,
				"method": "rhf"
			},
			{
				"type": "unocc",
				"energy": -0.00849,
				"method": "rhf"
			},
			{
				"type": "unocc",
				"energy": -0.00447,
				"method": "rhf"
			},
			{
				"type": "unocc",
				"energy": 0.03727,
				"method": "rhf"
			}
		],
		"cosmo_sigma_profile": { 
			"-0.025": 0.0,
			"-0.024": 0.0,
			"-0.023": 0.0,
			"-0.022": 0.0,
			"-0.021": 0.0,
			"-0.02": 0.0,
			"-0.019": 0.0,
			"-0.018": 0.0,
			"-0.017": 0.0,
			"-0.016": 0.0,
			"-0.015": 0.52991953217,
			"-0.014": 1.69278256435,
			"-0.013": 1.91054122523,
			"-0.012": 1.76147154213,
			"-0.011": 1.89272110659,
			"-0.01": 2.23379758256,
			"-0.009": 2.12734818496,
			"-0.008": 2.15759778111,
			"-0.007": 5.52158094965,
			"-0.006": 18.8018677987,
			"-0.005": 26.1142574809,
			"-0.004": 22.4656161185,
			"-0.003": 21.4754972772,
			"-0.002": 16.362045613,
			"-0.001": 17.5073346183,
			"0.0": 15.8949764681,
			"0.001": 14.9379082317,
			"0.002": 19.2723527323,
			"0.003": 19.9443041704,
			"0.004": 22.1807080118,
			"0.005": 16.4754222109,
			"0.006": 7.4666057193,
			"0.007": 3.26141037118,
			"0.008": 3.22095042377,
			"0.009": 3.54345256923,
			"0.01": 2.78878000952,
			"0.011": 2.82530043979,
			"0.012": 4.81467808088,
			"0.013": 7.55250251525,
			"0.014": 1.34537771962,
			"0.015": 0.0,
			"0.016": 0.0,
			"0.017": 0.0,
			"0.018": 0.0,
			"0.019": 0.0,
			"0.02": 0.0,
			"0.021": 0.0,
			"0.022": 0.0,
			"0.023": 0.0,
			"0.024": 0.0,
			"0.025": 0.0
		}
	}
}
