{
	 "smiles": "ClCCC(=O)NC1=C(C=CS1)C#N", 
	 "Tm": 424.15, 
	 "num_atms": 20, 
	 "gaussian": { 
		 "optdone": 1, 
		 "sigma_profile": "yes", 
		 "theory": "DFT", 
		 "functional": "B3LYP", 
		 "basiset": "6-31G**", 
		 "properties": { 
			 "R2extent": 4121.5635, 
			 "electric_dipole_moment_norm": 6.45680299064, 
			 "electric_quadrupole_moment_norm": 11.779112998, 
			 "total_energy": -1352.15594873, 
			 "HOMO_LUMO_gap": 0.17744, 
			 "cosmo_polarized_energy": -17.6, 
			 "cosmo_cavitation_energy": 28.97, 
			 "cosmo_dispersion_energy": -20.97, 
			 "cosmo_repulsion_energy": 1.64, 
			 "cosmo_total_nonelectrostatic_energy": 9.63, 
			 "SMD_solvation_energy": 6.59 
		},
		"coords": [
			{
				"x": 2.3696426667,
				"y": 2.4189422286,
				"z": 1.3388108374,
				"element": "Cl" 
			},
			{
				"x": 0.6568595102,
				"y": 2.9592210937,
				"z": 1.5939186471,
				"element": "C" 
			},
			{
				"x": -0.3184692661,
				"y": 1.7950628402,
				"z": 1.4821462728,
				"element": "C" 
			},
			{
				"x": -0.5657105248,
				"y": 1.4030213658,
				"z": 0.0316949786,
				"element": "C" 
			},
			{
				"x": -0.2989662577,
				"y": 2.138375924,
				"z": -0.9017274455,
				"element": "O" 
			},
			{
				"x": -1.144011351,
				"y": 0.1638453599,
				"z": -0.2419482879,
				"element": "N" 
			},
			{
				"x": -1.5952470135,
				"y": -0.8834427803,
				"z": 0.5420552232,
				"element": "C" 
			},
			{
				"x": -1.8716675135,
				"y": -2.1550916659,
				"z": 0.050516588,
				"element": "C" 
			},
			{
				"x": -2.4063791169,
				"y": -3.0390449121,
				"z": 1.0476885017,
				"element": "C" 
			},
			{
				"x": -2.5344056881,
				"y": -2.446585333,
				"z": 2.2629759357,
				"element": "C" 
			},
			{
				"x": -2.0199427387,
				"y": -0.7794016355,
				"z": 2.2330382207,
				"element": "S" 
			},
			{
				"x": -1.6472918607,
				"y": -2.4992547532,
				"z": -1.310281265,
				"element": "C" 
			},
			{
				"x": -1.4570234687,
				"y": -2.7392969579,
				"z": -2.4344193322,
				"element": "N" 
			},
			{
				"x": 0.451182423,
				"y": 3.7103587229,
				"z": 0.8327566134,
				"element": "H" 
			},
			{
				"x": 0.620018015,
				"y": 3.4037267221,
				"z": 2.5882906163,
				"element": "H" 
			},
			{
				"x": -1.2799876657,
				"y": 2.1050037967,
				"z": 1.9166994592,
				"element": "H" 
			},
			{
				"x": 0.0367736967,
				"y": 0.9451536808,
				"z": 2.0709375102,
				"element": "H" 
			},
			{
				"x": -1.1988408162,
				"y": -0.0004027209,
				"z": -1.2440089706,
				"element": "H" 
			},
			{
				"x": -2.6641309473,
				"y": -4.0704126343,
				"z": 0.8421574521,
				"element": "H" 
			},
			{
				"x": -2.8739020828,
				"y": -2.8754783418,
				"z": 3.1945984447,
				"element": "H" 
			}
		],
		 "valence_orbital": [ 
			{
				"type": "occ",
				"energy": -0.3033,
				"method": "rhf"
			},
			{
				"type": "occ",
				"energy": -0.29867,
				"method": "rhf"
			},
			{
				"type": "occ",
				"energy": -0.28689,
				"method": "rhf"
			},
			{
				"type": "occ",
				"energy": -0.28273,
				"method": "rhf"
			},
			{
				"type": "occ",
				"energy": -0.23905,
				"method": "rhf"
			},
			{
				"type": "unocc",
				"energy": -0.06161,
				"method": "rhf"
			},
			{
				"type": "unocc",
				"energy": -0.01692,
				"method": "rhf"
			},
			{
				"type": "unocc",
				"energy": -0.00764,
				"method": "rhf"
			},
			{
				"type": "unocc",
				"energy": 0.00562,
				"method": "rhf"
			},
			{
				"type": "unocc",
				"energy": 0.0186,
				"method": "rhf"
			}
		],
		"cosmo_sigma_profile": { 
			"-0.025": 0.0,
			"-0.024": 0.0,
			"-0.023": 0.0,
			"-0.022": 0.0,
			"-0.021": 0.0,
			"-0.02": 0.0,
			"-0.019": 0.0,
			"-0.018": 0.0,
			"-0.017": 0.0,
			"-0.016": 0.0,
			"-0.015": 0.0,
			"-0.014": 0.281513516289,
			"-0.013": 0.533004566985,
			"-0.012": 1.02388943785,
			"-0.011": 1.00595803975,
			"-0.01": 2.82621815776,
			"-0.009": 6.39111191869,
			"-0.008": 11.1018581132,
			"-0.007": 12.7159564855,
			"-0.006": 14.3768614378,
			"-0.005": 13.082183493,
			"-0.004": 12.9928532037,
			"-0.003": 11.3133610807,
			"-0.002": 12.6339500911,
			"-0.001": 17.3570707573,
			"0.0": 15.7115864796,
			"0.001": 15.2036159915,
			"0.002": 12.0537935141,
			"0.003": 9.68351161334,
			"0.004": 8.85602208149,
			"0.005": 9.62291238736,
			"0.006": 11.6510885823,
			"0.007": 8.41372817548,
			"0.008": 4.32045841168,
			"0.009": 5.13086544452,
			"0.01": 4.68262621269,
			"0.011": 6.48161304256,
			"0.012": 6.03730510839,
			"0.013": 1.57218535908,
			"0.014": 0.0119317571463,
			"0.015": 0.0,
			"0.016": 0.0,
			"0.017": 0.0,
			"0.018": 0.0,
			"0.019": 0.0,
			"0.02": 0.0,
			"0.021": 0.0,
			"0.022": 0.0,
			"0.023": 0.0,
			"0.024": 0.0,
			"0.025": 0.0
		}
	}
}
