{
	 "smiles": "CC1=C(N=NC2=CC=CC(C)=C2C)C(C)=C(C#N)C(=S)N1", 
	 "Tm": 532.15, 
	 "num_atms": 37, 
	 "gaussian": { 
		 "optdone": 1, 
		 "sigma_profile": "yes", 
		 "theory": "DFT", 
		 "functional": "B3LYP", 
		 "basiset": "6-31G**", 
		 "properties": { 
			 "R2extent": 11572.5032, 
			 "electric_dipole_moment_norm": 10.3243099789, 
			 "electric_quadrupole_moment_norm": 38.3656546467, 
			 "total_energy": -1236.50593054, 
			 "HOMO_LUMO_gap": 0.11242, 
			 "cosmo_polarized_energy": -22.97, 
			 "cosmo_cavitation_energy": 43.27, 
			 "cosmo_dispersion_energy": -30.01, 
			 "cosmo_repulsion_energy": 2.23, 
			 "cosmo_total_nonelectrostatic_energy": 15.49, 
			 "SMD_solvation_energy": 6.9 
		},
		"coords": [
			{
				"x": 1.0939935781,
				"y": -0.0284404922,
				"z": -3.2932997226,
				"element": "C" 
			},
			{
				"x": 0.2631509594,
				"y": 1.1429068586,
				"z": -2.8597089057,
				"element": "C" 
			},
			{
				"x": 0.4017467894,
				"y": 1.8725497203,
				"z": -1.6771375606,
				"element": "C" 
			},
			{
				"x": 1.3636699488,
				"y": 1.6462626109,
				"z": -0.6834332459,
				"element": "N" 
			},
			{
				"x": 1.8518889593,
				"y": 0.4804102052,
				"z": -0.6106210937,
				"element": "N" 
			},
			{
				"x": 2.8788855318,
				"y": 0.3253376214,
				"z": 0.3533953433,
				"element": "C" 
			},
			{
				"x": 3.5310522839,
				"y": 1.4263744053,
				"z": 0.9395771832,
				"element": "C" 
			},
			{
				"x": 4.5438211507,
				"y": 1.2181121171,
				"z": 1.8602957306,
				"element": "C" 
			},
			{
				"x": 4.9122961478,
				"y": -0.0872932024,
				"z": 2.2026573554,
				"element": "C" 
			},
			{
				"x": 4.2815881187,
				"y": -1.1955774782,
				"z": 1.6307774903,
				"element": "C" 
			},
			{
				"x": 4.7052444091,
				"y": -2.5908082189,
				"z": 2.0254081681,
				"element": "C" 
			},
			{
				"x": 3.2504230619,
				"y": -0.9978445915,
				"z": 0.6861601889,
				"element": "C" 
			},
			{
				"x": 2.5567834263,
				"y": -2.1897756286,
				"z": 0.0729682536,
				"element": "C" 
			},
			{
				"x": -0.4452228698,
				"y": 3.0136870729,
				"z": -1.459202777,
				"element": "C" 
			},
			{
				"x": -0.2677041942,
				"y": 3.8146429521,
				"z": -0.1984145826,
				"element": "C" 
			},
			{
				"x": -1.414176211,
				"y": 3.3436360335,
				"z": -2.3994906402,
				"element": "C" 
			},
			{
				"x": -2.2784088492,
				"y": 4.4640463458,
				"z": -2.1779666756,
				"element": "C" 
			},
			{
				"x": -2.9512335864,
				"y": 5.3835834372,
				"z": -1.9433337973,
				"element": "N" 
			},
			{
				"x": -1.5842821279,
				"y": 2.5920681458,
				"z": -3.6196215741,
				"element": "C" 
			},
			{
				"x": -2.6931848183,
				"y": 2.8696495487,
				"z": -4.8353645911,
				"element": "S" 
			},
			{
				"x": -0.6865336029,
				"y": 1.5393363296,
				"z": -3.7435416033,
				"element": "N" 
			},
			{
				"x": 2.1362708055,
				"y": 0.1049015223,
				"z": -3.0003117877,
				"element": "H" 
			},
			{
				"x": 1.0320653377,
				"y": -0.158355327,
				"z": -4.3786164204,
				"element": "H" 
			},
			{
				"x": 0.7543953411,
				"y": -0.9486438875,
				"z": -2.8096869834,
				"element": "H" 
			},
			{
				"x": 3.2280604633,
				"y": 2.4243578417,
				"z": 0.646134485,
				"element": "H" 
			},
			{
				"x": 5.0560284285,
				"y": 2.0632952605,
				"z": 2.3106136065,
				"element": "H" 
			},
			{
				"x": 5.7095030903,
				"y": -0.2481068642,
				"z": 2.9238289622,
				"element": "H" 
			},
			{
				"x": 5.0605658128,
				"y": -3.1668455316,
				"z": 1.1626532416,
				"element": "H" 
			},
			{
				"x": 3.8751148362,
				"y": -3.158613941,
				"z": 2.4622554167,
				"element": "H" 
			},
			{
				"x": 5.5124187784,
				"y": -2.5616350953,
				"z": 2.761490476,
				"element": "H" 
			},
			{
				"x": 2.0751521833,
				"y": -2.8029134211,
				"z": 0.8442504671,
				"element": "H" 
			},
			{
				"x": 3.2729105493,
				"y": -2.8411417341,
				"z": -0.442107656,
				"element": "H" 
			},
			{
				"x": 1.7941334644,
				"y": -1.8799620353,
				"z": -0.6389755976,
				"element": "H" 
			},
			{
				"x": 0.7619141517,
				"y": 4.1757147648,
				"z": -0.1242362752,
				"element": "H" 
			},
			{
				"x": -0.4344387144,
				"y": 3.182985037,
				"z": 0.6796916075,
				"element": "H" 
			},
			{
				"x": -0.9527651909,
				"y": 4.6611524997,
				"z": -0.1625866495,
				"element": "H" 
			},
			{
				"x": -0.7847274427,
				"y": 1.0273471183,
				"z": -4.6148998363,
				"element": "H" 
			}
		],
		 "valence_orbital": [ 
			{
				"type": "occ",
				"energy": -0.2589,
				"method": "rhf"
			},
			{
				"type": "occ",
				"energy": -0.2529,
				"method": "rhf"
			},
			{
				"type": "occ",
				"energy": -0.24301,
				"method": "rhf"
			},
			{
				"type": "occ",
				"energy": -0.2175,
				"method": "rhf"
			},
			{
				"type": "occ",
				"energy": -0.21176,
				"method": "rhf"
			},
			{
				"type": "unocc",
				"energy": -0.09934,
				"method": "rhf"
			},
			{
				"type": "unocc",
				"energy": -0.07531,
				"method": "rhf"
			},
			{
				"type": "unocc",
				"energy": -0.0323,
				"method": "rhf"
			},
			{
				"type": "unocc",
				"energy": -0.01439,
				"method": "rhf"
			},
			{
				"type": "unocc",
				"energy": 0.01606,
				"method": "rhf"
			}
		],
		"cosmo_sigma_profile": { 
			"-0.025": 0.0,
			"-0.024": 0.0,
			"-0.023": 0.0,
			"-0.022": 0.0,
			"-0.021": 0.0,
			"-0.02": 0.0,
			"-0.019": 0.0,
			"-0.018": 0.0,
			"-0.017": 0.314693744952,
			"-0.016": 1.25269715089,
			"-0.015": 1.25657785964,
			"-0.014": 1.3485030341,
			"-0.013": 0.812390458891,
			"-0.012": 1.02988094588,
			"-0.011": 1.13410552204,
			"-0.01": 1.48046529244,
			"-0.009": 0.695328830907,
			"-0.008": 1.72478619488,
			"-0.007": 3.06139874408,
			"-0.006": 12.972601105,
			"-0.005": 21.9494132312,
			"-0.004": 36.6022534618,
			"-0.003": 37.4698566024,
			"-0.002": 35.5517258749,
			"-0.001": 26.3015413437,
			"0.0": 25.9892261445,
			"0.001": 23.0062874777,
			"0.002": 17.1634513206,
			"0.003": 16.1512651799,
			"0.004": 17.1548242985,
			"0.005": 11.4217195415,
			"0.006": 6.71992347686,
			"0.007": 6.39808805684,
			"0.008": 8.80920331645,
			"0.009": 12.7627032658,
			"0.01": 8.68579490739,
			"0.011": 5.40851288066,
			"0.012": 2.67234311613,
			"0.013": 1.12841603596,
			"0.014": 0.00111403944837,
			"0.015": 0.0,
			"0.016": 0.0,
			"0.017": 0.0,
			"0.018": 0.0,
			"0.019": 0.0,
			"0.02": 0.0,
			"0.021": 0.0,
			"0.022": 0.0,
			"0.023": 0.0,
			"0.024": 0.0,
			"0.025": 0.0
		}
	}
}
