{
	 "smiles": "CN1C(=O)OC(=O)C2=C1C=CC=C2", 
	 "Tm": 438.15, 
	 "num_atms": 20, 
	 "gaussian": { 
		 "optdone": 1, 
		 "sigma_profile": "yes", 
		 "theory": "DFT", 
		 "functional": "B3LYP", 
		 "basiset": "6-31G**", 
		 "properties": { 
			 "R2extent": 2187.847, 
			 "electric_dipole_moment_norm": 6.58090074458, 
			 "electric_quadrupole_moment_norm": 7.63616860932, 
			 "total_energy": -627.631646498, 
			 "HOMO_LUMO_gap": 0.17826, 
			 "cosmo_polarized_energy": -14.25, 
			 "cosmo_cavitation_energy": 24.24, 
			 "cosmo_dispersion_energy": -18.32, 
			 "cosmo_repulsion_energy": 1.4, 
			 "cosmo_total_nonelectrostatic_energy": 7.32, 
			 "SMD_solvation_energy": 6.3 
		},
		"coords": [
			{
				"x": 2.2487389923,
				"y": 1.1459158878,
				"z": -0.9245024037,
				"element": "C" 
			},
			{
				"x": 0.9782967389,
				"y": 1.0279512609,
				"z": -0.2059094532,
				"element": "N" 
			},
			{
				"x": 0.5391722111,
				"y": 2.1499057529,
				"z": 0.4853878034,
				"element": "C" 
			},
			{
				"x": 1.1363282331,
				"y": 3.1982964507,
				"z": 0.5256116371,
				"element": "O" 
			},
			{
				"x": -0.6523978084,
				"y": 2.0335488845,
				"z": 1.1572785284,
				"element": "O" 
			},
			{
				"x": -1.4587420643,
				"y": 0.8983245845,
				"z": 1.2095128284,
				"element": "C" 
			},
			{
				"x": -2.4789578741,
				"y": 0.9590802402,
				"z": 1.846095661,
				"element": "O" 
			},
			{
				"x": -0.9583510897,
				"y": -0.2600577139,
				"z": 0.46750769,
				"element": "C" 
			},
			{
				"x": 0.2606072881,
				"y": -0.1707104975,
				"z": -0.2311434479,
				"element": "C" 
			},
			{
				"x": 0.7205553361,
				"y": -1.2959135045,
				"z": -0.9362720434,
				"element": "C" 
			},
			{
				"x": -0.0292017224,
				"y": -2.4689359014,
				"z": -0.9324462716,
				"element": "C" 
			},
			{
				"x": -1.2412463326,
				"y": -2.5568145165,
				"z": -0.2373662438,
				"element": "C" 
			},
			{
				"x": -1.6999415525,
				"y": -1.4482983245,
				"z": 0.4606253118,
				"element": "C" 
			},
			{
				"x": 2.0990614771,
				"y": 0.9758731703,
				"z": -1.9949876575,
				"element": "H" 
			},
			{
				"x": 2.6233399545,
				"y": 2.1538050205,
				"z": -0.7654359429,
				"element": "H" 
			},
			{
				"x": 2.9732211664,
				"y": 0.4214304048,
				"z": -0.540454983,
				"element": "H" 
			},
			{
				"x": 1.6535419337,
				"y": -1.2612187121,
				"z": -1.4839058238,
				"element": "H" 
			},
			{
				"x": 0.341581208,
				"y": -3.3287222942,
				"z": -1.4828603051,
				"element": "H" 
			},
			{
				"x": -1.8131641854,
				"y": -3.4785325165,
				"z": -0.244713349,
				"element": "H" 
			},
			{
				"x": -2.63244191,
				"y": -1.4657276761,
				"z": 1.0144784647,
				"element": "H" 
			}
		],
		 "valence_orbital": [ 
			{
				"type": "occ",
				"energy": -0.32115,
				"method": "rhf"
			},
			{
				"type": "occ",
				"energy": -0.31073,
				"method": "rhf"
			},
			{
				"type": "occ",
				"energy": -0.28314,
				"method": "rhf"
			},
			{
				"type": "occ",
				"energy": -0.28207,
				"method": "rhf"
			},
			{
				"type": "occ",
				"energy": -0.24518,
				"method": "rhf"
			},
			{
				"type": "unocc",
				"energy": -0.06692,
				"method": "rhf"
			},
			{
				"type": "unocc",
				"energy": -0.0295,
				"method": "rhf"
			},
			{
				"type": "unocc",
				"energy": 0.01665,
				"method": "rhf"
			},
			{
				"type": "unocc",
				"energy": 0.05366,
				"method": "rhf"
			},
			{
				"type": "unocc",
				"energy": 0.07334,
				"method": "rhf"
			}
		],
		"cosmo_sigma_profile": { 
			"-0.025": 0.0,
			"-0.024": 0.0,
			"-0.023": 0.0,
			"-0.022": 0.0,
			"-0.021": 0.0,
			"-0.02": 0.0,
			"-0.019": 0.0,
			"-0.018": 0.0,
			"-0.017": 0.0,
			"-0.016": 0.0,
			"-0.015": 0.0,
			"-0.014": 0.0,
			"-0.013": 0.0,
			"-0.012": 0.0,
			"-0.011": 0.0,
			"-0.01": 0.0321586284579,
			"-0.009": 0.903826655401,
			"-0.008": 3.69280799467,
			"-0.007": 13.0902503919,
			"-0.006": 17.3074928091,
			"-0.005": 15.9100154102,
			"-0.004": 16.0176204878,
			"-0.003": 16.1352087988,
			"-0.002": 12.1761268624,
			"-0.001": 9.26288261984,
			"0.0": 10.651290358,
			"0.001": 12.289704992,
			"0.002": 12.8564761931,
			"0.003": 10.0329558779,
			"0.004": 2.70562084482,
			"0.005": 3.32395353886,
			"0.006": 3.61342284595,
			"0.007": 4.12671588623,
			"0.008": 4.76844220467,
			"0.009": 5.72807571115,
			"0.01": 7.73136952712,
			"0.011": 8.92984000033,
			"0.012": 3.55675494948,
			"0.013": 0.328908196735,
			"0.014": 0.0,
			"0.015": 0.0,
			"0.016": 0.0,
			"0.017": 0.0,
			"0.018": 0.0,
			"0.019": 0.0,
			"0.02": 0.0,
			"0.021": 0.0,
			"0.022": 0.0,
			"0.023": 0.0,
			"0.024": 0.0,
			"0.025": 0.0
		}
	}
}
