{
	 "smiles": "OC(=O)CC(NC(=O)OCC1C2=C(C=CC=C2)C2=C1C=CC=C2)C1=CC=CC(=C1)[N+]([O-])=O", 
	 "Tm": 413.15, 
	 "num_atms": 52, 
	 "gaussian": { 
		 "optdone": 1, 
		 "sigma_profile": "yes", 
		 "theory": "DFT", 
		 "functional": "B3LYP", 
		 "basiset": "6-31G**", 
		 "properties": { 
			 "R2extent": 16400.7374, 
			 "electric_dipole_moment_norm": 5.29672751612, 
			 "electric_quadrupole_moment_norm": 40.5562860159, 
			 "total_energy": -1487.41461101, 
			 "HOMO_LUMO_gap": 0.13171, 
			 "cosmo_polarized_energy": -24.04, 
			 "cosmo_cavitation_energy": 57.59, 
			 "cosmo_dispersion_energy": -36.72, 
			 "cosmo_repulsion_energy": 2.78, 
			 "cosmo_total_nonelectrostatic_energy": 23.65, 
			 "SMD_solvation_energy": 12.8 
		},
		"coords": [
			{
				"x": 0.8870473476,
				"y": -4.4422401324,
				"z": -1.5188794356,
				"element": "O" 
			},
			{
				"x": 1.0114041194,
				"y": -3.3883094325,
				"z": -0.6875709483,
				"element": "C" 
			},
			{
				"x": 0.4282432538,
				"y": -3.3273396374,
				"z": 0.3776059979,
				"element": "O" 
			},
			{
				"x": 1.9168305577,
				"y": -2.3183462092,
				"z": -1.2600380092,
				"element": "C" 
			},
			{
				"x": 2.5479762714,
				"y": -1.4021948822,
				"z": -0.1819229507,
				"element": "C" 
			},
			{
				"x": 1.523142297,
				"y": -0.7024432398,
				"z": 0.5701546106,
				"element": "N" 
			},
			{
				"x": 1.3271047159,
				"y": 0.636859446,
				"z": 0.3893818702,
				"element": "C" 
			},
			{
				"x": 2.0684556389,
				"y": 1.3822011341,
				"z": -0.2301837547,
				"element": "O" 
			},
			{
				"x": 0.185488576,
				"y": 1.0174954011,
				"z": 1.0244787716,
				"element": "O" 
			},
			{
				"x": -0.2607123074,
				"y": 2.3616246882,
				"z": 0.7892338477,
				"element": "C" 
			},
			{
				"x": -1.5179282235,
				"y": 2.3684169207,
				"z": -0.0947944509,
				"element": "C" 
			},
			{
				"x": -2.7349080577,
				"y": 1.697314827,
				"z": 0.5256792895,
				"element": "C" 
			},
			{
				"x": -3.2314990588,
				"y": 0.6945114517,
				"z": -0.3304965822,
				"element": "C" 
			},
			{
				"x": -4.3582597444,
				"y": -0.0485586965,
				"z": 0.0275010063,
				"element": "C" 
			},
			{
				"x": -4.9809986644,
				"y": 0.2177326638,
				"z": 1.248957666,
				"element": "C" 
			},
			{
				"x": -4.4874513128,
				"y": 1.2133813998,
				"z": 2.0988602851,
				"element": "C" 
			},
			{
				"x": -3.3601758721,
				"y": 1.9610997837,
				"z": 1.7388307376,
				"element": "C" 
			},
			{
				"x": -2.3827301576,
				"y": 0.6400211453,
				"z": -1.5285033137,
				"element": "C" 
			},
			{
				"x": -1.3677026127,
				"y": 1.6121084422,
				"z": -1.4087013218,
				"element": "C" 
			},
			{
				"x": -0.4137421092,
				"y": 1.7633502047,
				"z": -2.4092659521,
				"element": "C" 
			},
			{
				"x": -0.4793403496,
				"y": 0.9373195158,
				"z": -3.5387506889,
				"element": "C" 
			},
			{
				"x": -1.4896333371,
				"y": -0.023479736,
				"z": -3.6612033548,
				"element": "C" 
			},
			{
				"x": -2.4488913132,
				"y": -0.1795733722,
				"z": -2.6573230081,
				"element": "C" 
			},
			{
				"x": 3.5369077952,
				"y": -2.1646009977,
				"z": 0.6999753164,
				"element": "C" 
			},
			{
				"x": 4.7524959591,
				"y": -2.5976273745,
				"z": 0.14874925,
				"element": "C" 
			},
			{
				"x": 5.6817217136,
				"y": -3.308520657,
				"z": 0.9092590971,
				"element": "C" 
			},
			{
				"x": 5.4160403655,
				"y": -3.6022681754,
				"z": 2.2450014763,
				"element": "C" 
			},
			{
				"x": 4.209879577,
				"y": -3.161574673,
				"z": 2.7827030447,
				"element": "C" 
			},
			{
				"x": 3.2698472735,
				"y": -2.4504275294,
				"z": 2.0396393992,
				"element": "C" 
			},
			{
				"x": 3.9167611655,
				"y": -3.4556192327,
				"z": 4.1975097959,
				"element": "N" 
			},
			{
				"x": 4.753255247,
				"y": -4.1000787381,
				"z": 4.8301944147,
				"element": "O" 
			},
			{
				"x": 2.85589587,
				"y": -3.0405526243,
				"z": 4.6607697873,
				"element": "O" 
			},
			{
				"x": 0.2640769398,
				"y": -5.0570894577,
				"z": -1.094116812,
				"element": "H" 
			},
			{
				"x": 1.3084218573,
				"y": -1.7043576432,
				"z": -1.9368050705,
				"element": "H" 
			},
			{
				"x": 2.6864420887,
				"y": -2.796545209,
				"z": -1.8717196424,
				"element": "H" 
			},
			{
				"x": 3.1026388738,
				"y": -0.6215139643,
				"z": -0.7105347156,
				"element": "H" 
			},
			{
				"x": 0.7512625004,
				"y": -1.2517266539,
				"z": 0.9278247798,
				"element": "H" 
			},
			{
				"x": 0.5490989298,
				"y": 2.9287221385,
				"z": 0.3263177246,
				"element": "H" 
			},
			{
				"x": -0.4839069784,
				"y": 2.7917250897,
				"z": 1.7699242098,
				"element": "H" 
			},
			{
				"x": -1.7411008906,
				"y": 3.4283825277,
				"z": -0.2936130725,
				"element": "H" 
			},
			{
				"x": -4.7472020681,
				"y": -0.8224024364,
				"z": -0.6286429841,
				"element": "H" 
			},
			{
				"x": -5.8572496194,
				"y": -0.353296759,
				"z": 1.5423094968,
				"element": "H" 
			},
			{
				"x": -4.9831190425,
				"y": 1.4080230394,
				"z": 3.0454643253,
				"element": "H" 
			},
			{
				"x": -2.9856195692,
				"y": 2.7345071207,
				"z": 2.4049619542,
				"element": "H" 
			},
			{
				"x": 0.3856577485,
				"y": 2.4915593281,
				"z": -2.3125721904,
				"element": "H" 
			},
			{
				"x": 0.2591957181,
				"y": 1.0469085917,
				"z": -4.327755002,
				"element": "H" 
			},
			{
				"x": -1.5297528588,
				"y": -0.6521889312,
				"z": -4.5464653867,
				"element": "H" 
			},
			{
				"x": -3.2305631459,
				"y": -0.9277159837,
				"z": -2.7569831951,
				"element": "H" 
			},
			{
				"x": 4.9824046253,
				"y": -2.3653381111,
				"z": -0.8884559157,
				"element": "H" 
			},
			{
				"x": 6.6181522624,
				"y": -3.6274372358,
				"z": 0.4625298391,
				"element": "H" 
			},
			{
				"x": 6.1131033356,
				"y": -4.1487754687,
				"z": 2.8671302975,
				"element": "H" 
			},
			{
				"x": 2.3558346695,
				"y": -2.1235216656,
				"z": 2.5160494669,
				"element": "H" 
			}
		],
		 "valence_orbital": [ 
			{
				"type": "occ",
				"energy": -0.26881,
				"method": "rhf"
			},
			{
				"type": "occ",
				"energy": -0.26365,
				"method": "rhf"
			},
			{
				"type": "occ",
				"energy": -0.25159,
				"method": "rhf"
			},
			{
				"type": "occ",
				"energy": -0.24545,
				"method": "rhf"
			},
			{
				"type": "occ",
				"energy": -0.21716,
				"method": "rhf"
			},
			{
				"type": "unocc",
				"energy": -0.08545,
				"method": "rhf"
			},
			{
				"type": "unocc",
				"energy": -0.0331,
				"method": "rhf"
			},
			{
				"type": "unocc",
				"energy": -0.02536,
				"method": "rhf"
			},
			{
				"type": "unocc",
				"energy": -0.01488,
				"method": "rhf"
			},
			{
				"type": "unocc",
				"energy": -0.01096,
				"method": "rhf"
			}
		],
		"cosmo_sigma_profile": { 
			"-0.025": 0.0,
			"-0.024": 0.0,
			"-0.023": 0.0,
			"-0.022": 0.0,
			"-0.021": 0.0,
			"-0.02": 0.0,
			"-0.019": 0.193473547694,
			"-0.018": 0.924391537625,
			"-0.017": 1.34822116964,
			"-0.016": 0.30302557607,
			"-0.015": 0.453382758332,
			"-0.014": 1.06319422426,
			"-0.013": 0.501462983209,
			"-0.012": 1.07298851439,
			"-0.011": 0.966656727353,
			"-0.01": 0.460141617103,
			"-0.009": 1.26178294356,
			"-0.008": 5.2185977416,
			"-0.007": 13.1168255366,
			"-0.006": 27.8457401989,
			"-0.005": 38.3945843842,
			"-0.004": 38.0516524319,
			"-0.003": 36.1443030059,
			"-0.002": 28.3037010509,
			"-0.001": 26.8506379504,
			"0.0": 29.2373308661,
			"0.001": 34.2657642561,
			"0.002": 31.5741525768,
			"0.003": 26.3477174947,
			"0.004": 22.680787457,
			"0.005": 23.2034835431,
			"0.006": 19.305268267,
			"0.007": 13.3549946397,
			"0.008": 13.1458657313,
			"0.009": 8.36223839445,
			"0.01": 6.07200819439,
			"0.011": 3.69169968505,
			"0.012": 3.19826006161,
			"0.013": 2.6369691711,
			"0.014": 0.0,
			"0.015": 0.0,
			"0.016": 0.0,
			"0.017": 0.0,
			"0.018": 0.0,
			"0.019": 0.0,
			"0.02": 0.0,
			"0.021": 0.0,
			"0.022": 0.0,
			"0.023": 0.0,
			"0.024": 0.0,
			"0.025": 0.0
		}
	}
}
