{
	 "smiles": "FC1=CC=C(C=C1)N1C(=O)C2ON=C(C2C1=O)C(=O)C1=CC=C(Cl)C=C1", 
	 "Tm": 424.15, 
	 "num_atms": 36, 
	 "gaussian": { 
		 "optdone": 1, 
		 "sigma_profile": "yes", 
		 "theory": "DFT", 
		 "functional": "B3LYP", 
		 "basiset": "6-31G**", 
		 "properties": { 
			 "R2extent": 13883.1971, 
			 "electric_dipole_moment_norm": 1.05523014077, 
			 "electric_quadrupole_moment_norm": 14.6968141731, 
			 "total_energy": -1662.31674658, 
			 "HOMO_LUMO_gap": 0.15324, 
			 "cosmo_polarized_energy": -18.36, 
			 "cosmo_cavitation_energy": 44.89, 
			 "cosmo_dispersion_energy": -31.7, 
			 "cosmo_repulsion_energy": 2.35, 
			 "cosmo_total_nonelectrostatic_energy": 15.54, 
			 "SMD_solvation_energy": 9.22 
		},
		"coords": [
			{
				"x": -6.5539675151,
				"y": 2.2886591252,
				"z": -2.3809965854,
				"element": "F" 
			},
			{
				"x": -5.4516271633,
				"y": 2.2171334567,
				"z": -1.6107727707,
				"element": "C" 
			},
			{
				"x": -5.2546065833,
				"y": 3.1764313987,
				"z": -0.6240235311,
				"element": "C" 
			},
			{
				"x": -4.1167380607,
				"y": 3.098365734,
				"z": 0.1756244031,
				"element": "C" 
			},
			{
				"x": -3.1902201371,
				"y": 2.0703107037,
				"z": -0.0306563154,
				"element": "C" 
			},
			{
				"x": -3.4017880643,
				"y": 1.1161624851,
				"z": -1.0320244892,
				"element": "C" 
			},
			{
				"x": -4.5440472043,
				"y": 1.1861047676,
				"z": -1.8258766453,
				"element": "C" 
			},
			{
				"x": -2.0158463402,
				"y": 1.9943814775,
				"z": 0.7882425363,
				"element": "N" 
			},
			{
				"x": -1.2410598754,
				"y": 3.1120126555,
				"z": 1.1393634818,
				"element": "C" 
			},
			{
				"x": -1.4684198905,
				"y": 4.261238317,
				"z": 0.8440653343,
				"element": "O" 
			},
			{
				"x": -0.0519942168,
				"y": 2.6140635474,
				"z": 1.9680902696,
				"element": "C" 
			},
			{
				"x": 1.1710284594,
				"y": 2.7373210752,
				"z": 1.1732978322,
				"element": "O" 
			},
			{
				"x": 1.71878873,
				"y": 1.4883787836,
				"z": 0.9660632025,
				"element": "N" 
			},
			{
				"x": 0.9873661837,
				"y": 0.573380889,
				"z": 1.4965643142,
				"element": "C" 
			},
			{
				"x": -0.2658688236,
				"y": 1.1179318396,
				"z": 2.1495234291,
				"element": "C" 
			},
			{
				"x": -1.5307618197,
				"y": 0.7898985267,
				"z": 1.335887749,
				"element": "C" 
			},
			{
				"x": -2.0206300948,
				"y": -0.3017009155,
				"z": 1.1783127451,
				"element": "O" 
			},
			{
				"x": 1.3705354893,
				"y": -0.8696280165,
				"z": 1.6173020042,
				"element": "C" 
			},
			{
				"x": 0.8320201601,
				"y": -1.4912016559,
				"z": 2.5267898481,
				"element": "O" 
			},
			{
				"x": 2.3554878792,
				"y": -1.5133939172,
				"z": 0.7048086367,
				"element": "C" 
			},
			{
				"x": 2.7145913537,
				"y": -2.8405245632,
				"z": 1.0004500622,
				"element": "C" 
			},
			{
				"x": 3.6113120368,
				"y": -3.5330180158,
				"z": 0.197702192,
				"element": "C" 
			},
			{
				"x": 4.1526808033,
				"y": -2.8919579635,
				"z": -0.9201983271,
				"element": "C" 
			},
			{
				"x": 5.2829527073,
				"y": -3.7570780007,
				"z": -1.9416427763,
				"element": "Cl" 
			},
			{
				"x": 3.8090775758,
				"y": -1.5780563475,
				"z": -1.2389054441,
				"element": "C" 
			},
			{
				"x": 2.9097506334,
				"y": -0.8918882023,
				"z": -0.4260106748,
				"element": "C" 
			},
			{
				"x": -5.9850985429,
				"y": 3.9659552673,
				"z": -0.4882252334,
				"element": "H" 
			},
			{
				"x": -3.9435773137,
				"y": 3.8414146759,
				"z": 0.9432701205,
				"element": "H" 
			},
			{
				"x": -2.6879962013,
				"y": 0.3162905905,
				"z": -1.1812592033,
				"element": "H" 
			},
			{
				"x": -4.7337242006,
				"y": 0.4565832219,
				"z": -2.6051124213,
				"element": "H" 
			},
			{
				"x": 0.0734310587,
				"y": 3.2177229337,
				"z": 2.8691767314,
				"element": "H" 
			},
			{
				"x": -0.3853489387,
				"y": 0.7456839557,
				"z": 3.16889001,
				"element": "H" 
			},
			{
				"x": 2.2737392516,
				"y": -3.312825255,
				"z": 1.8713990584,
				"element": "H" 
			},
			{
				"x": 3.890584772,
				"y": -4.5552657333,
				"z": 0.4266820736,
				"element": "H" 
			},
			{
				"x": 4.2392190568,
				"y": -1.100649173,
				"z": -2.1119923871,
				"element": "H" 
			},
			{
				"x": 2.6509548352,
				"y": 0.1306623318,
				"z": -0.6693092298,
				"element": "H" 
			}
		],
		 "valence_orbital": [ 
			{
				"type": "occ",
				"energy": -0.2792,
				"method": "rhf"
			},
			{
				"type": "occ",
				"energy": -0.27389,
				"method": "rhf"
			},
			{
				"type": "occ",
				"energy": -0.27027,
				"method": "rhf"
			},
			{
				"type": "occ",
				"energy": -0.26303,
				"method": "rhf"
			},
			{
				"type": "occ",
				"energy": -0.25047,
				"method": "rhf"
			},
			{
				"type": "unocc",
				"energy": -0.09723,
				"method": "rhf"
			},
			{
				"type": "unocc",
				"energy": -0.05507,
				"method": "rhf"
			},
			{
				"type": "unocc",
				"energy": -0.0433,
				"method": "rhf"
			},
			{
				"type": "unocc",
				"energy": -0.02798,
				"method": "rhf"
			},
			{
				"type": "unocc",
				"energy": -0.02584,
				"method": "rhf"
			}
		],
		"cosmo_sigma_profile": { 
			"-0.025": 0.0,
			"-0.024": 0.0,
			"-0.023": 0.0,
			"-0.022": 0.0,
			"-0.021": 0.0,
			"-0.02": 0.0,
			"-0.019": 0.0,
			"-0.018": 0.0,
			"-0.017": 0.0,
			"-0.016": 0.0,
			"-0.015": 0.0,
			"-0.014": 0.0,
			"-0.013": 0.0217408633554,
			"-0.012": 0.904289094274,
			"-0.011": 2.37900305578,
			"-0.01": 9.09579091359,
			"-0.009": 5.49910638276,
			"-0.008": 9.8928367036,
			"-0.007": 17.3609092849,
			"-0.006": 19.3468279386,
			"-0.005": 18.5751439258,
			"-0.004": 16.7017239086,
			"-0.003": 15.552842089,
			"-0.002": 17.6399393022,
			"-0.001": 20.9485052335,
			"0.0": 30.1855580616,
			"0.001": 35.804463292,
			"0.002": 34.5746887113,
			"0.003": 24.05009785,
			"0.004": 27.1037758152,
			"0.005": 8.80256387982,
			"0.006": 7.27130049034,
			"0.007": 9.10947016388,
			"0.008": 9.05856869949,
			"0.009": 8.74302167351,
			"0.01": 12.3888115476,
			"0.011": 4.0690340604,
			"0.012": 0.0633443219666,
			"0.013": 0.0,
			"0.014": 0.0,
			"0.015": 0.0,
			"0.016": 0.0,
			"0.017": 0.0,
			"0.018": 0.0,
			"0.019": 0.0,
			"0.02": 0.0,
			"0.021": 0.0,
			"0.022": 0.0,
			"0.023": 0.0,
			"0.024": 0.0,
			"0.025": 0.0
		}
	}
}
