{
	 "smiles": "CC(=O)C1=CC=C2OCC(=O)NC2=C1", 
	 "Tm": 469.15, 
	 "num_atms": 23, 
	 "gaussian": { 
		 "optdone": 1, 
		 "sigma_profile": "yes", 
		 "theory": "DFT", 
		 "functional": "B3LYP", 
		 "basiset": "6-31G**", 
		 "properties": { 
			 "R2extent": 3571.9849, 
			 "electric_dipole_moment_norm": 1.3412747556, 
			 "electric_quadrupole_moment_norm": 25.2431924134, 
			 "total_energy": -666.920525291, 
			 "HOMO_LUMO_gap": 0.17053, 
			 "cosmo_polarized_energy": -16.56, 
			 "cosmo_cavitation_energy": 27.44, 
			 "cosmo_dispersion_energy": -20.41, 
			 "cosmo_repulsion_energy": 1.59, 
			 "cosmo_total_nonelectrostatic_energy": 8.62, 
			 "SMD_solvation_energy": 6.24 
		},
		"coords": [
			{
				"x": 0.492428066,
				"y": -2.4468881762,
				"z": -2.0037757733,
				"element": "C" 
			},
			{
				"x": -0.2497142633,
				"y": -1.1197952031,
				"z": -2.0107335624,
				"element": "C" 
			},
			{
				"x": -0.8990598744,
				"y": -0.7785318429,
				"z": -2.9883811995,
				"element": "O" 
			},
			{
				"x": -0.1718673792,
				"y": -0.2399668471,
				"z": -0.8026386398,
				"element": "C" 
			},
			{
				"x": -0.8638034211,
				"y": 0.981203745,
				"z": -0.8239095018,
				"element": "C" 
			},
			{
				"x": -0.8193122563,
				"y": 1.8412988211,
				"z": 0.2669364021,
				"element": "C" 
			},
			{
				"x": -0.0884114899,
				"y": 1.4868843648,
				"z": 1.4009248795,
				"element": "C" 
			},
			{
				"x": -0.0954834769,
				"y": 2.3148093267,
				"z": 2.4855420421,
				"element": "O" 
			},
			{
				"x": 1.0501993854,
				"y": 2.242096888,
				"z": 3.3400867534,
				"element": "C" 
			},
			{
				"x": 1.5321979506,
				"y": 0.824366944,
				"z": 3.6359699491,
				"element": "C" 
			},
			{
				"x": 2.1350440158,
				"y": 0.53879722,
				"z": 4.6557899401,
				"element": "O" 
			},
			{
				"x": 1.277041123,
				"y": -0.0715220746,
				"z": 2.6296011033,
				"element": "N" 
			},
			{
				"x": 0.6006670149,
				"y": 0.2616990412,
				"z": 1.4430683511,
				"element": "C" 
			},
			{
				"x": 0.5623731997,
				"y": -0.5895972651,
				"z": 0.3413423114,
				"element": "C" 
			},
			{
				"x": 1.5684927422,
				"y": -2.2970233133,
				"z": -1.8614263972,
				"element": "H" 
			},
			{
				"x": 0.140085133,
				"y": -3.0917418467,
				"z": -1.1908901196,
				"element": "H" 
			},
			{
				"x": 0.3214227516,
				"y": -2.9452600526,
				"z": -2.9581691534,
				"element": "H" 
			},
			{
				"x": -1.4246244439,
				"y": 1.2363233076,
				"z": -1.7159473987,
				"element": "H" 
			},
			{
				"x": -1.3468070034,
				"y": 2.7892940749,
				"z": 0.2674800759,
				"element": "H" 
			},
			{
				"x": 0.7726064662,
				"y": 2.7144107433,
				"z": 4.2821698221,
				"element": "H" 
			},
			{
				"x": 1.8862769608,
				"y": 2.8054546708,
				"z": 2.8986309262,
				"element": "H" 
			},
			{
				"x": 1.6350580507,
				"y": -1.008739593,
				"z": 2.7626020309,
				"element": "H" 
			},
			{
				"x": 1.1022907486,
				"y": -1.530472933,
				"z": 0.3890271585,
				"element": "H" 
			}
		],
		 "valence_orbital": [ 
			{
				"type": "occ",
				"energy": -0.32019,
				"method": "rhf"
			},
			{
				"type": "occ",
				"energy": -0.27371,
				"method": "rhf"
			},
			{
				"type": "occ",
				"energy": -0.257,
				"method": "rhf"
			},
			{
				"type": "occ",
				"energy": -0.2514,
				"method": "rhf"
			},
			{
				"type": "occ",
				"energy": -0.22832,
				"method": "rhf"
			},
			{
				"type": "unocc",
				"energy": -0.05779,
				"method": "rhf"
			},
			{
				"type": "unocc",
				"energy": -0.02741,
				"method": "rhf"
			},
			{
				"type": "unocc",
				"energy": 0.00787,
				"method": "rhf"
			},
			{
				"type": "unocc",
				"energy": 0.04599,
				"method": "rhf"
			},
			{
				"type": "unocc",
				"energy": 0.06713,
				"method": "rhf"
			}
		],
		"cosmo_sigma_profile": { 
			"-0.025": 0.0,
			"-0.024": 0.0,
			"-0.023": 0.0,
			"-0.022": 0.0,
			"-0.021": 0.0,
			"-0.02": 0.0,
			"-0.019": 0.0,
			"-0.018": 0.0,
			"-0.017": 0.0,
			"-0.016": 0.504968707341,
			"-0.015": 1.38692066316,
			"-0.014": 1.57838645947,
			"-0.013": 1.12735767701,
			"-0.012": 1.04309169932,
			"-0.011": 1.07679332548,
			"-0.01": 1.51487221933,
			"-0.009": 1.84789105005,
			"-0.008": 6.98015337407,
			"-0.007": 9.6051931515,
			"-0.006": 13.4857285663,
			"-0.005": 15.3747583946,
			"-0.004": 13.5949007585,
			"-0.003": 12.9526263017,
			"-0.002": 14.9197241025,
			"-0.001": 15.2870051165,
			"0.0": 14.2839757176,
			"0.001": 12.7028487058,
			"0.002": 14.5552549252,
			"0.003": 14.1852234383,
			"0.004": 6.25006754082,
			"0.005": 4.35989313694,
			"0.006": 4.36963479561,
			"0.007": 3.11478799426,
			"0.008": 3.59819248029,
			"0.009": 5.1462577975,
			"0.01": 3.55016476319,
			"0.011": 4.75491044577,
			"0.012": 9.11903405692,
			"0.013": 6.18562570088,
			"0.014": 0.46886880009,
			"0.015": 0.0,
			"0.016": 0.0,
			"0.017": 0.0,
			"0.018": 0.0,
			"0.019": 0.0,
			"0.02": 0.0,
			"0.021": 0.0,
			"0.022": 0.0,
			"0.023": 0.0,
			"0.024": 0.0,
			"0.025": 0.0
		}
	}
}
