{
	 "smiles": "O=CC1=CC=C(OCC(=O)NC2=CC=CC=C2)C=C1", 
	 "Tm": 399.15, 
	 "num_atms": 32, 
	 "gaussian": { 
		 "optdone": 1, 
		 "sigma_profile": "yes", 
		 "theory": "DFT", 
		 "functional": "B3LYP", 
		 "basiset": "6-31G**", 
		 "properties": { 
			 "R2extent": 7913.2499, 
			 "electric_dipole_moment_norm": 4.27815401079, 
			 "electric_quadrupole_moment_norm": 23.5866439423, 
			 "total_energy": -859.855145856, 
			 "HOMO_LUMO_gap": 0.1662, 
			 "cosmo_polarized_energy": -16.96, 
			 "cosmo_cavitation_energy": 37.33, 
			 "cosmo_dispersion_energy": -26.3, 
			 "cosmo_repulsion_energy": 2.02, 
			 "cosmo_total_nonelectrostatic_energy": 13.06, 
			 "SMD_solvation_energy": 7.97 
		},
		"coords": [
			{
				"x": -3.9132630655,
				"y": -4.2224520837,
				"z": -0.6828643704,
				"element": "O" 
			},
			{
				"x": -4.4725719687,
				"y": -3.1637927319,
				"z": -0.9026647076,
				"element": "C" 
			},
			{
				"x": -4.0717921707,
				"y": -1.8647718954,
				"z": -0.3275650234,
				"element": "C" 
			},
			{
				"x": -2.973365685,
				"y": -1.7799321171,
				"z": 0.5390718862,
				"element": "C" 
			},
			{
				"x": -2.5868134841,
				"y": -0.561376274,
				"z": 1.086358502,
				"element": "C" 
			},
			{
				"x": -3.3156179955,
				"y": 0.5946554383,
				"z": 0.7638329735,
				"element": "C" 
			},
			{
				"x": -3.0250775359,
				"y": 1.848556146,
				"z": 1.2378582417,
				"element": "O" 
			},
			{
				"x": -2.0626729642,
				"y": 1.9848976319,
				"z": 2.2821428196,
				"element": "C" 
			},
			{
				"x": -0.5989229069,
				"y": 1.9976961915,
				"z": 1.8140411301,
				"element": "C" 
			},
			{
				"x": 0.292800172,
				"y": 1.7614629576,
				"z": 2.6177240758,
				"element": "O" 
			},
			{
				"x": -0.4427356841,
				"y": 2.3383418051,
				"z": 0.5012522586,
				"element": "N" 
			},
			{
				"x": 0.7485775405,
				"y": 2.4818263413,
				"z": -0.24470305,
				"element": "C" 
			},
			{
				"x": 2.0244532004,
				"y": 2.3141062493,
				"z": 0.3139883481,
				"element": "C" 
			},
			{
				"x": 3.1484527608,
				"y": 2.4768339325,
				"z": -0.4963840525,
				"element": "C" 
			},
			{
				"x": 3.025823937,
				"y": 2.8036713336,
				"z": -1.8475188741,
				"element": "C" 
			},
			{
				"x": 1.7529048418,
				"y": 2.9698610689,
				"z": -2.3967550682,
				"element": "C" 
			},
			{
				"x": 0.620472505,
				"y": 2.8100969405,
				"z": -1.603003139,
				"element": "C" 
			},
			{
				"x": -4.4144924403,
				"y": 0.5251169998,
				"z": -0.1053261876,
				"element": "C" 
			},
			{
				"x": -4.7850293798,
				"y": -0.6983135953,
				"z": -0.6447339205,
				"element": "C" 
			},
			{
				"x": -5.3557832975,
				"y": -3.1156125245,
				"z": -1.5791498292,
				"element": "H" 
			},
			{
				"x": -2.4262849646,
				"y": -2.6886565456,
				"z": 0.7695467539,
				"element": "H" 
			},
			{
				"x": -1.7234714494,
				"y": -0.5172071867,
				"z": 1.7400442635,
				"element": "H" 
			},
			{
				"x": -2.2782483983,
				"y": 2.9498195523,
				"z": 2.75118999,
				"element": "H" 
			},
			{
				"x": -2.1701269274,
				"y": 1.2065476962,
				"z": 3.0423391283,
				"element": "H" 
			},
			{
				"x": -1.3063022536,
				"y": 2.4893300509,
				"z": -0.0045400844,
				"element": "H" 
			},
			{
				"x": 2.118046765,
				"y": 2.0611877083,
				"z": 1.3607175382,
				"element": "H" 
			},
			{
				"x": 4.1336537309,
				"y": 2.3449902045,
				"z": -0.0581895896,
				"element": "H" 
			},
			{
				"x": 3.9097964118,
				"y": 2.9272294121,
				"z": -2.4655231267,
				"element": "H" 
			},
			{
				"x": 1.637447537,
				"y": 3.2238246002,
				"z": -3.4463993015,
				"element": "H" 
			},
			{
				"x": -0.3693420889,
				"y": 2.9387327899,
				"z": -2.0354481774,
				"element": "H" 
			},
			{
				"x": -4.9584460196,
				"y": 1.4363181109,
				"z": -0.3306657401,
				"element": "H" 
			},
			{
				"x": -5.6389687219,
				"y": -0.7566882075,
				"z": -1.3156736672,
				"element": "H" 
			}
		],
		 "valence_orbital": [ 
			{
				"type": "occ",
				"energy": -0.26924,
				"method": "rhf"
			},
			{
				"type": "occ",
				"energy": -0.25535,
				"method": "rhf"
			},
			{
				"type": "occ",
				"energy": -0.25465,
				"method": "rhf"
			},
			{
				"type": "occ",
				"energy": -0.24412,
				"method": "rhf"
			},
			{
				"type": "occ",
				"energy": -0.22747,
				"method": "rhf"
			},
			{
				"type": "unocc",
				"energy": -0.06127,
				"method": "rhf"
			},
			{
				"type": "unocc",
				"energy": -0.02689,
				"method": "rhf"
			},
			{
				"type": "unocc",
				"energy": -0.01842,
				"method": "rhf"
			},
			{
				"type": "unocc",
				"energy": -0.00565,
				"method": "rhf"
			},
			{
				"type": "unocc",
				"energy": 0.03377,
				"method": "rhf"
			}
		],
		"cosmo_sigma_profile": { 
			"-0.025": 0.0,
			"-0.024": 0.0,
			"-0.023": 0.0,
			"-0.022": 0.0,
			"-0.021": 0.0,
			"-0.02": 0.0,
			"-0.019": 0.0,
			"-0.018": 0.0,
			"-0.017": 0.0,
			"-0.016": 0.0,
			"-0.015": 0.0,
			"-0.014": 0.156396998262,
			"-0.013": 1.38882531612,
			"-0.012": 0.77606389565,
			"-0.011": 0.803899610011,
			"-0.01": 1.35128057181,
			"-0.009": 2.83055769858,
			"-0.008": 7.40487932256,
			"-0.007": 14.0241932111,
			"-0.006": 19.6564092758,
			"-0.005": 21.5246780893,
			"-0.004": 20.7036017262,
			"-0.003": 20.2651230217,
			"-0.002": 16.382985449,
			"-0.001": 18.217680834,
			"0.0": 15.9008797843,
			"0.001": 20.9416851496,
			"0.002": 23.5755635067,
			"0.003": 24.0557536391,
			"0.004": 14.185863328,
			"0.005": 15.254690037,
			"0.006": 8.64023037168,
			"0.007": 3.46293644055,
			"0.008": 4.02512537537,
			"0.009": 2.73600864638,
			"0.01": 4.11105040119,
			"0.011": 6.0088422336,
			"0.012": 6.95336314473,
			"0.013": 3.67989038625,
			"0.014": 0.426842035521,
			"0.015": 0.0,
			"0.016": 0.0,
			"0.017": 0.0,
			"0.018": 0.0,
			"0.019": 0.0,
			"0.02": 0.0,
			"0.021": 0.0,
			"0.022": 0.0,
			"0.023": 0.0,
			"0.024": 0.0,
			"0.025": 0.0
		}
	}
}
