{
	 "smiles": "CC1=NC(=NO1)C1=CC(N)=CC=C1", 
	 "Tm": 368.65, 
	 "num_atms": 22, 
	 "gaussian": { 
		 "optdone": 1, 
		 "sigma_profile": "yes", 
		 "theory": "DFT", 
		 "functional": "B3LYP", 
		 "basiset": "6-31G**", 
		 "properties": { 
			 "R2extent": 3040.9189, 
			 "electric_dipole_moment_norm": 2.93982128198, 
			 "electric_quadrupole_moment_norm": 19.2415644302, 
			 "total_energy": -587.836428004, 
			 "HOMO_LUMO_gap": 0.16695, 
			 "cosmo_polarized_energy": -12.97, 
			 "cosmo_cavitation_energy": 26.77, 
			 "cosmo_dispersion_energy": -20.04, 
			 "cosmo_repulsion_energy": 1.59, 
			 "cosmo_total_nonelectrostatic_energy": 8.31, 
			 "SMD_solvation_energy": 3.25 
		},
		"coords": [
			{
				"x": -4.0516025641,
				"y": 0.3202877889,
				"z": 0.5163323069,
				"element": "C" 
			},
			{
				"x": -2.7917190945,
				"y": -0.0269255988,
				"z": -0.195233512,
				"element": "C" 
			},
			{
				"x": -1.5681102212,
				"y": 0.0598050566,
				"z": 0.2327300889,
				"element": "N" 
			},
			{
				"x": -0.8359178656,
				"y": -0.3968734901,
				"z": -0.8509168907,
				"element": "C" 
			},
			{
				"x": -1.5687760153,
				"y": -0.7442884234,
				"z": -1.8860317015,
				"element": "N" 
			},
			{
				"x": -2.8826702069,
				"y": -0.4983238386,
				"z": -1.4519632877,
				"element": "O" 
			},
			{
				"x": 0.6313544708,
				"y": -0.4859983987,
				"z": -0.8447002633,
				"element": "C" 
			},
			{
				"x": 1.32844832,
				"y": -0.0999285488,
				"z": 0.304360106,
				"element": "C" 
			},
			{
				"x": 2.7295925582,
				"y": -0.1688253202,
				"z": 0.3468200363,
				"element": "C" 
			},
			{
				"x": 3.4200379666,
				"y": 0.1625703737,
				"z": 1.5143480175,
				"element": "N" 
			},
			{
				"x": 3.4165810149,
				"y": -0.6322745043,
				"z": -0.7882791268,
				"element": "C" 
			},
			{
				"x": 2.71433359,
				"y": -1.0152341068,
				"z": -1.9302671494,
				"element": "C" 
			},
			{
				"x": 1.3244452445,
				"y": -0.9480077896,
				"z": -1.9744891408,
				"element": "C" 
			},
			{
				"x": -3.810230193,
				"y": 0.6841364254,
				"z": 1.5149699776,
				"element": "H" 
			},
			{
				"x": -4.6016496015,
				"y": 1.0937248274,
				"z": -0.0284651261,
				"element": "H" 
			},
			{
				"x": -4.7023915488,
				"y": -0.5557659369,
				"z": 0.5972529389,
				"element": "H" 
			},
			{
				"x": 0.7699211093,
				"y": 0.2512517958,
				"z": 1.1663383094,
				"element": "H" 
			},
			{
				"x": 4.3822210403,
				"y": 0.4413623995,
				"z": 1.380366986,
				"element": "H" 
			},
			{
				"x": 2.9297839896,
				"y": 0.7880932099,
				"z": 2.1387818411,
				"element": "H" 
			},
			{
				"x": 4.5019308737,
				"y": -0.6949429304,
				"z": -0.7688612392,
				"element": "H" 
			},
			{
				"x": 3.2641078648,
				"y": -1.3690450531,
				"z": -2.7978181765,
				"element": "H" 
			},
			{
				"x": 0.7764092683,
				"y": -1.2435979376,
				"z": -2.8616749944,
				"element": "H" 
			}
		],
		 "valence_orbital": [ 
			{
				"type": "occ",
				"energy": -0.30666,
				"method": "rhf"
			},
			{
				"type": "occ",
				"energy": -0.2894,
				"method": "rhf"
			},
			{
				"type": "occ",
				"energy": -0.28291,
				"method": "rhf"
			},
			{
				"type": "occ",
				"energy": -0.23872,
				"method": "rhf"
			},
			{
				"type": "occ",
				"energy": -0.20342,
				"method": "rhf"
			},
			{
				"type": "unocc",
				"energy": -0.03647,
				"method": "rhf"
			},
			{
				"type": "unocc",
				"energy": -0.00095,
				"method": "rhf"
			},
			{
				"type": "unocc",
				"energy": 0.01816,
				"method": "rhf"
			},
			{
				"type": "unocc",
				"energy": 0.076,
				"method": "rhf"
			},
			{
				"type": "unocc",
				"energy": 0.08717,
				"method": "rhf"
			}
		],
		"cosmo_sigma_profile": { 
			"-0.025": 0.0,
			"-0.024": 0.0,
			"-0.023": 0.0,
			"-0.022": 0.0,
			"-0.021": 0.0,
			"-0.02": 0.0,
			"-0.019": 0.0,
			"-0.018": 0.0,
			"-0.017": 0.0,
			"-0.016": 0.0,
			"-0.015": 0.0,
			"-0.014": 0.0,
			"-0.013": 0.554434755923,
			"-0.012": 2.80155243619,
			"-0.011": 2.59560728709,
			"-0.01": 3.24180177183,
			"-0.009": 3.38714374398,
			"-0.008": 3.4888403743,
			"-0.007": 8.81602729635,
			"-0.006": 11.7485304305,
			"-0.005": 12.3693895548,
			"-0.004": 15.844253553,
			"-0.003": 17.3810438274,
			"-0.002": 11.670459821,
			"-0.001": 10.0269242648,
			"0.0": 9.56850295249,
			"0.001": 10.9432957066,
			"0.002": 12.2231236255,
			"0.003": 13.4576784371,
			"0.004": 13.2056900987,
			"0.005": 16.0717242897,
			"0.006": 9.73857071854,
			"0.007": 6.82550946272,
			"0.008": 3.69953751607,
			"0.009": 3.6656238154,
			"0.01": 3.38805137509,
			"0.011": 2.24134992722,
			"0.012": 3.0473064471,
			"0.013": 1.17035621911,
			"0.014": 0.697469152499,
			"0.015": 0.0580783610711,
			"0.016": 0.0,
			"0.017": 0.0,
			"0.018": 0.0,
			"0.019": 0.0,
			"0.02": 0.0,
			"0.021": 0.0,
			"0.022": 0.0,
			"0.023": 0.0,
			"0.024": 0.0,
			"0.025": 0.0
		}
	}
}
