{
	 "smiles": "[O-][N+](=O)C1=CC=C(C=C1)C1=NC(=C/C2=CC=CC=C2)C(=O)O1", 
	 "Tm": 509.15, 
	 "num_atms": 32, 
	 "gaussian": { 
		 "optdone": 1, 
		 "sigma_profile": "yes", 
		 "theory": "DFT", 
		 "functional": "B3LYP", 
		 "basiset": "6-31G**", 
		 "properties": { 
			 "R2extent": 11046.6042, 
			 "electric_dipole_moment_norm": 5.17129250671, 
			 "electric_quadrupole_moment_norm": 20.8542433495, 
			 "total_energy": -1026.03299937, 
			 "HOMO_LUMO_gap": 0.11625, 
			 "cosmo_polarized_energy": -13.47, 
			 "cosmo_cavitation_energy": 39.33, 
			 "cosmo_dispersion_energy": -28.37, 
			 "cosmo_repulsion_energy": 2.11, 
			 "cosmo_total_nonelectrostatic_energy": 13.07, 
			 "SMD_solvation_energy": 9.09 
		},
		"coords": [
			{
				"x": 3.8010291083,
				"y": -2.6575302933,
				"z": 5.9630748432,
				"element": "O" 
			},
			{
				"x": 2.6493472309,
				"y": -2.5809322,
				"z": 5.5378719597,
				"element": "N" 
			},
			{
				"x": 1.6675339911,
				"y": -3.1017028533,
				"z": 6.0655091829,
				"element": "O" 
			},
			{
				"x": 2.4284563461,
				"y": -1.8073646799,
				"z": 4.3038313667,
				"element": "C" 
			},
			{
				"x": 3.5205310736,
				"y": -1.2052320809,
				"z": 3.682409353,
				"element": "C" 
			},
			{
				"x": 3.3084553908,
				"y": -0.4756437599,
				"z": 2.5176423106,
				"element": "C" 
			},
			{
				"x": 2.0124776831,
				"y": -0.3554548008,
				"z": 1.9875426035,
				"element": "C" 
			},
			{
				"x": 0.9272629999,
				"y": -0.973509854,
				"z": 2.6348142097,
				"element": "C" 
			},
			{
				"x": 1.1318972106,
				"y": -1.7030191577,
				"z": 3.7974803056,
				"element": "C" 
			},
			{
				"x": 1.7771447708,
				"y": 0.4079127119,
				"z": 0.7657665606,
				"element": "C" 
			},
			{
				"x": 0.6369867417,
				"y": 0.5927128772,
				"z": 0.1795091851,
				"element": "N" 
			},
			{
				"x": 0.9155554281,
				"y": 1.3793895728,
				"z": -0.9392765565,
				"element": "C" 
			},
			{
				"x": 0.0697929475,
				"y": 1.8575791667,
				"z": -1.8913540988,
				"element": "C" 
			},
			{
				"x": -1.3639965249,
				"y": 1.6980455308,
				"z": -2.033866497,
				"element": "C" 
			},
			{
				"x": -2.1610311774,
				"y": 0.9607677464,
				"z": -1.1297173465,
				"element": "C" 
			},
			{
				"x": -3.532072374,
				"y": 0.8525260755,
				"z": -1.3332268387,
				"element": "C" 
			},
			{
				"x": -4.1386016633,
				"y": 1.4702801122,
				"z": -2.4325287335,
				"element": "C" 
			},
			{
				"x": -3.3638529018,
				"y": 2.2026986674,
				"z": -3.3353076938,
				"element": "C" 
			},
			{
				"x": -1.9916131314,
				"y": 2.3149802876,
				"z": -3.1375889284,
				"element": "C" 
			},
			{
				"x": 2.3696590525,
				"y": 1.6576825219,
				"z": -0.9716144015,
				"element": "C" 
			},
			{
				"x": 3.0798478298,
				"y": 2.2748039628,
				"z": -1.7174899085,
				"element": "O" 
			},
			{
				"x": 2.8674083707,
				"y": 0.9923443527,
				"z": 0.1713275887,
				"element": "O" 
			},
			{
				"x": 4.5070489685,
				"y": -1.3154061481,
				"z": 4.1143549988,
				"element": "H" 
			},
			{
				"x": 4.1398655373,
				"y": 0.0031165012,
				"z": 2.0137098048,
				"element": "H" 
			},
			{
				"x": -0.0656669687,
				"y": -0.8707877605,
				"z": 2.2124835858,
				"element": "H" 
			},
			{
				"x": 0.3167864514,
				"y": -2.1896620896,
				"z": 4.3177666314,
				"element": "H" 
			},
			{
				"x": 0.5624080931,
				"y": 2.4511503219,
				"z": -2.6595464843,
				"element": "H" 
			},
			{
				"x": -1.687913699,
				"y": 0.4839781738,
				"z": -0.2799827561,
				"element": "H" 
			},
			{
				"x": -4.1353768919,
				"y": 0.28336881,
				"z": -0.6320388482,
				"element": "H" 
			},
			{
				"x": -5.2103877179,
				"y": 1.3804915179,
				"z": -2.5837898079,
				"element": "H" 
			},
			{
				"x": -3.8294388958,
				"y": 2.6840577228,
				"z": -4.1900048193,
				"element": "H" 
			},
			{
				"x": -1.38764328,
				"y": 2.8844590444,
				"z": -3.8390607712,
				"element": "H" 
			}
		],
		 "valence_orbital": [ 
			{
				"type": "occ",
				"energy": -0.29145,
				"method": "rhf"
			},
			{
				"type": "occ",
				"energy": -0.28925,
				"method": "rhf"
			},
			{
				"type": "occ",
				"energy": -0.28502,
				"method": "rhf"
			},
			{
				"type": "occ",
				"energy": -0.26968,
				"method": "rhf"
			},
			{
				"type": "occ",
				"energy": -0.23333,
				"method": "rhf"
			},
			{
				"type": "unocc",
				"energy": -0.11708,
				"method": "rhf"
			},
			{
				"type": "unocc",
				"energy": -0.08519,
				"method": "rhf"
			},
			{
				"type": "unocc",
				"energy": -0.03825,
				"method": "rhf"
			},
			{
				"type": "unocc",
				"energy": -0.03462,
				"method": "rhf"
			},
			{
				"type": "unocc",
				"energy": -0.01782,
				"method": "rhf"
			}
		],
		"cosmo_sigma_profile": { 
			"-0.025": 0.0,
			"-0.024": 0.0,
			"-0.023": 0.0,
			"-0.022": 0.0,
			"-0.021": 0.0,
			"-0.02": 0.0,
			"-0.019": 0.0,
			"-0.018": 0.0,
			"-0.017": 0.0,
			"-0.016": 0.0,
			"-0.015": 0.0,
			"-0.014": 0.0,
			"-0.013": 0.0,
			"-0.012": 0.0,
			"-0.011": 0.0,
			"-0.01": 0.0,
			"-0.009": 1.05628296949,
			"-0.008": 6.1565443909,
			"-0.007": 12.9657070563,
			"-0.006": 19.9016598541,
			"-0.005": 19.3476611927,
			"-0.004": 21.6015064809,
			"-0.003": 20.1847407662,
			"-0.002": 24.6055589788,
			"-0.001": 28.8746630522,
			"0.0": 30.5297767941,
			"0.001": 25.3969381108,
			"0.002": 18.0587261872,
			"0.003": 19.6647511843,
			"0.004": 17.5073001269,
			"0.005": 7.38309677475,
			"0.006": 8.15345961079,
			"0.007": 11.8031863917,
			"0.008": 8.13245630285,
			"0.009": 6.92439669108,
			"0.01": 7.04688368147,
			"0.011": 3.02560502913,
			"0.012": 0.149761271547,
			"0.013": 0.0,
			"0.014": 0.0,
			"0.015": 0.0,
			"0.016": 0.0,
			"0.017": 0.0,
			"0.018": 0.0,
			"0.019": 0.0,
			"0.02": 0.0,
			"0.021": 0.0,
			"0.022": 0.0,
			"0.023": 0.0,
			"0.024": 0.0,
			"0.025": 0.0
		}
	}
}
