{
	 "smiles": "OC(=O)C1=CC(Cl)=C(Cl)C=C1Cl", 
	 "Tm": 439.15, 
	 "num_atms": 15, 
	 "gaussian": { 
		 "optdone": 1, 
		 "sigma_profile": "yes", 
		 "theory": "DFT", 
		 "functional": "B3LYP", 
		 "basiset": "6-31G**", 
		 "properties": { 
			 "R2extent": 3589.2829, 
			 "electric_dipole_moment_norm": 1.23167321153, 
			 "electric_quadrupole_moment_norm": 12.5263648171, 
			 "total_energy": -1799.58136196, 
			 "HOMO_LUMO_gap": 0.18575, 
			 "cosmo_polarized_energy": -9.07, 
			 "cosmo_cavitation_energy": 25.54, 
			 "cosmo_dispersion_energy": -19.36, 
			 "cosmo_repulsion_energy": 1.55, 
			 "cosmo_total_nonelectrostatic_energy": 7.72, 
			 "SMD_solvation_energy": 4.84 
		},
		"coords": [
			{
				"x": -2.4503515829,
				"y": -0.1291653929,
				"z": -2.059834677,
				"element": "O" 
			},
			{
				"x": -2.0876750292,
				"y": 0.7200907078,
				"z": -1.0626230121,
				"element": "C" 
			},
			{
				"x": -2.5294516,
				"y": 1.8450224188,
				"z": -0.9904797736,
				"element": "O" 
			},
			{
				"x": -1.114392313,
				"y": 0.0863485686,
				"z": -0.1221192612,
				"element": "C" 
			},
			{
				"x": -0.7111902258,
				"y": -1.2372104117,
				"z": -0.3601042586,
				"element": "C" 
			},
			{
				"x": 0.1899557699,
				"y": -1.8953538834,
				"z": 0.4687744249,
				"element": "C" 
			},
			{
				"x": 0.6361042444,
				"y": -3.5390953756,
				"z": 0.0997345951,
				"element": "Cl" 
			},
			{
				"x": 0.7164237994,
				"y": -1.220633464,
				"z": 1.5795561998,
				"element": "C" 
			},
			{
				"x": 1.8479836322,
				"y": -1.9820756634,
				"z": 2.6587937375,
				"element": "Cl" 
			},
			{
				"x": 0.3302781117,
				"y": 0.0937757468,
				"z": 1.8350744557,
				"element": "C" 
			},
			{
				"x": -0.5745655675,
				"y": 0.7483735008,
				"z": 0.9992462459,
				"element": "C" 
			},
			{
				"x": -0.9714768602,
				"y": 2.3896727765,
				"z": 1.4332030536,
				"element": "Cl" 
			},
			{
				"x": -3.0763617114,
				"y": 0.3686485776,
				"z": -2.610577098,
				"element": "H" 
			},
			{
				"x": -1.115506459,
				"y": -1.7605038297,
				"z": -1.2162031779,
				"element": "H" 
			},
			{
				"x": 0.7383257914,
				"y": 0.6126057236,
				"z": 2.6934585459,
				"element": "H" 
			}
		],
		 "valence_orbital": [ 
			{
				"type": "occ",
				"energy": -0.32864,
				"method": "rhf"
			},
			{
				"type": "occ",
				"energy": -0.3255,
				"method": "rhf"
			},
			{
				"type": "occ",
				"energy": -0.28315,
				"method": "rhf"
			},
			{
				"type": "occ",
				"energy": -0.28179,
				"method": "rhf"
			},
			{
				"type": "occ",
				"energy": -0.26179,
				"method": "rhf"
			},
			{
				"type": "unocc",
				"energy": -0.07604,
				"method": "rhf"
			},
			{
				"type": "unocc",
				"energy": -0.04405,
				"method": "rhf"
			},
			{
				"type": "unocc",
				"energy": -0.01667,
				"method": "rhf"
			},
			{
				"type": "unocc",
				"energy": 0.02423,
				"method": "rhf"
			},
			{
				"type": "unocc",
				"energy": 0.02876,
				"method": "rhf"
			}
		],
		"cosmo_sigma_profile": { 
			"-0.025": 0.0,
			"-0.024": 0.0,
			"-0.023": 0.0,
			"-0.022": 0.0,
			"-0.021": 0.0,
			"-0.02": 0.0,
			"-0.019": 0.273137506196,
			"-0.018": 0.971769790981,
			"-0.017": 1.24285700896,
			"-0.016": 0.535725278829,
			"-0.015": 0.406044109077,
			"-0.014": 0.441231770084,
			"-0.013": 0.586037226967,
			"-0.012": 1.21147204092,
			"-0.011": 1.27597382004,
			"-0.01": 0.191875155658,
			"-0.009": 1.7951745941,
			"-0.008": 2.16635133939,
			"-0.007": 4.50372248032,
			"-0.006": 3.84756503103,
			"-0.005": 4.10170471069,
			"-0.004": 8.20179904663,
			"-0.003": 14.4504118301,
			"-0.002": 22.3359153704,
			"-0.001": 32.5016660881,
			"0.0": 17.4031934304,
			"0.001": 15.6960078477,
			"0.002": 17.9445879982,
			"0.003": 25.5338932835,
			"0.004": 12.4376487322,
			"0.005": 4.50004001986,
			"0.006": 2.5829743658,
			"0.007": 2.23298952404,
			"0.008": 2.12001851737,
			"0.009": 1.95683757285,
			"0.01": 2.85504419781,
			"0.011": 4.995017777,
			"0.012": 1.2115338378,
			"0.013": 0.0,
			"0.014": 0.0,
			"0.015": 0.0,
			"0.016": 0.0,
			"0.017": 0.0,
			"0.018": 0.0,
			"0.019": 0.0,
			"0.02": 0.0,
			"0.021": 0.0,
			"0.022": 0.0,
			"0.023": 0.0,
			"0.024": 0.0,
			"0.025": 0.0
		}
	}
}
