{
	 "smiles": "FC1=CC=C(C=C1)C1(CN2C=NC=N2)OC1C1=CC=CC=C1Cl", 
	 "Tm": 410.15, 
	 "num_atms": 36, 
	 "gaussian": { 
		 "optdone": 1, 
		 "sigma_profile": "yes", 
		 "theory": "DFT", 
		 "functional": "B3LYP", 
		 "basiset": "6-31G**", 
		 "properties": { 
			 "R2extent": 8175.923, 
			 "electric_dipole_moment_norm": 4.22219718867, 
			 "electric_quadrupole_moment_norm": 14.0122614056, 
			 "total_energy": -1455.09550695, 
			 "HOMO_LUMO_gap": 0.2164, 
			 "cosmo_polarized_energy": -15.08, 
			 "cosmo_cavitation_energy": 44.01, 
			 "cosmo_dispersion_energy": -28.05, 
			 "cosmo_repulsion_energy": 2.12, 
			 "cosmo_total_nonelectrostatic_energy": 18.08, 
			 "SMD_solvation_energy": 5.02 
		},
		"coords": [
			{
				"x": 0.5165481269,
				"y": 4.7375912762,
				"z": -0.6352642769,
				"element": "F" 
			},
			{
				"x": 0.4965983819,
				"y": 3.397712701,
				"z": -0.7851511,
				"element": "C" 
			},
			{
				"x": 0.9677318379,
				"y": 2.5978154036,
				"z": 0.2509429152,
				"element": "C" 
			},
			{
				"x": 0.9449926419,
				"y": 1.2143394372,
				"z": 0.0897189694,
				"element": "C" 
			},
			{
				"x": 0.4525197904,
				"y": 0.639218576,
				"z": -1.0896142148,
				"element": "C" 
			},
			{
				"x": -0.0151324448,
				"y": 1.4709804701,
				"z": -2.1127225118,
				"element": "C" 
			},
			{
				"x": 0.0042532347,
				"y": 2.8579379702,
				"z": -1.9670923197,
				"element": "C" 
			},
			{
				"x": 0.4594072275,
				"y": -0.8521819643,
				"z": -1.2608973062,
				"element": "C" 
			},
			{
				"x": 1.8268061396,
				"y": -1.5252485927,
				"z": -1.3333139798,
				"element": "C" 
			},
			{
				"x": 2.5918594926,
				"y": -1.0875117832,
				"z": -2.4909704015,
				"element": "N" 
			},
			{
				"x": 2.3302815632,
				"y": -1.2617402637,
				"z": -3.8089338039,
				"element": "C" 
			},
			{
				"x": 3.2659954146,
				"y": -0.6853496923,
				"z": -4.5444419225,
				"element": "N" 
			},
			{
				"x": 4.0965054986,
				"y": -0.1563944975,
				"z": -3.6017169131,
				"element": "C" 
			},
			{
				"x": 3.7369423324,
				"y": -0.3678027222,
				"z": -2.3437910696,
				"element": "N" 
			},
			{
				"x": -0.4772318874,
				"y": -1.3867110602,
				"z": -2.2158776876,
				"element": "O" 
			},
			{
				"x": -0.6904197326,
				"y": -1.6981599857,
				"z": -0.8333721542,
				"element": "C" 
			},
			{
				"x": -1.9165211948,
				"y": -1.1505444862,
				"z": -0.1831469047,
				"element": "C" 
			},
			{
				"x": -2.9032854762,
				"y": -0.5011168123,
				"z": -0.9347891148,
				"element": "C" 
			},
			{
				"x": -4.0628506645,
				"y": -0.017459292,
				"z": -0.3315991371,
				"element": "C" 
			},
			{
				"x": -4.2548570966,
				"y": -0.178665197,
				"z": 1.041100048,
				"element": "C" 
			},
			{
				"x": -3.2863387456,
				"y": -0.8230291894,
				"z": 1.8114271065,
				"element": "C" 
			},
			{
				"x": -2.1333430143,
				"y": -1.3006555181,
				"z": 1.1930113625,
				"element": "C" 
			},
			{
				"x": -0.914185366,
				"y": -2.1012513385,
				"z": 2.1876612626,
				"element": "Cl" 
			},
			{
				"x": 1.3401476394,
				"y": 3.05948112,
				"z": 1.1587136914,
				"element": "H" 
			},
			{
				"x": 1.3050172137,
				"y": 0.5807638015,
				"z": 0.8955554992,
				"element": "H" 
			},
			{
				"x": -0.3966886353,
				"y": 1.0261285209,
				"z": -3.0252579733,
				"element": "H" 
			},
			{
				"x": -0.3508466778,
				"y": 3.5175941267,
				"z": -2.7512617714,
				"element": "H" 
			},
			{
				"x": 2.4306755693,
				"y": -1.2802023429,
				"z": -0.458158211,
				"element": "H" 
			},
			{
				"x": 1.6961905355,
				"y": -2.6108484274,
				"z": -1.3764959086,
				"element": "H" 
			},
			{
				"x": 1.4626871881,
				"y": -1.7988329023,
				"z": -4.1654673765,
				"element": "H" 
			},
			{
				"x": 4.9922720005,
				"y": 0.3974081985,
				"z": -3.8471058765,
				"element": "H" 
			},
			{
				"x": -0.4615482084,
				"y": -2.7329641193,
				"z": -0.5727299188,
				"element": "H" 
			},
			{
				"x": -2.7412839264,
				"y": -0.3897736534,
				"z": -2.0009823984,
				"element": "H" 
			},
			{
				"x": -4.8157992173,
				"y": 0.4821304871,
				"z": -0.9331960061,
				"element": "H" 
			},
			{
				"x": -5.1556493165,
				"y": 0.1950658739,
				"z": 1.5182662361,
				"element": "H" 
			},
			{
				"x": -3.4167502241,
				"y": -0.9542241222,
				"z": 2.8798531679,
				"element": "H" 
			}
		],
		 "valence_orbital": [ 
			{
				"type": "occ",
				"energy": -0.26822,
				"method": "rhf"
			},
			{
				"type": "occ",
				"energy": -0.26634,
				"method": "rhf"
			},
			{
				"type": "occ",
				"energy": -0.25992,
				"method": "rhf"
			},
			{
				"type": "occ",
				"energy": -0.25627,
				"method": "rhf"
			},
			{
				"type": "occ",
				"energy": -0.24619,
				"method": "rhf"
			},
			{
				"type": "unocc",
				"energy": -0.02979,
				"method": "rhf"
			},
			{
				"type": "unocc",
				"energy": -0.02555,
				"method": "rhf"
			},
			{
				"type": "unocc",
				"energy": -0.0148,
				"method": "rhf"
			},
			{
				"type": "unocc",
				"energy": -0.01115,
				"method": "rhf"
			},
			{
				"type": "unocc",
				"energy": 0.0081,
				"method": "rhf"
			}
		],
		"cosmo_sigma_profile": { 
			"-0.025": 0.0,
			"-0.024": 0.0,
			"-0.023": 0.0,
			"-0.022": 0.0,
			"-0.021": 0.0,
			"-0.02": 0.0,
			"-0.019": 0.0,
			"-0.018": 0.0,
			"-0.017": 0.0,
			"-0.016": 0.0,
			"-0.015": 0.0,
			"-0.014": 0.0,
			"-0.013": 0.0,
			"-0.012": 0.0,
			"-0.011": 0.0,
			"-0.01": 0.321580136203,
			"-0.009": 3.88153821026,
			"-0.008": 10.0522287621,
			"-0.007": 16.1757441258,
			"-0.006": 21.1116716485,
			"-0.005": 22.8987267555,
			"-0.004": 19.7356137437,
			"-0.003": 16.1943467548,
			"-0.002": 25.4363291175,
			"-0.001": 22.8038266895,
			"0.0": 26.5939513736,
			"0.001": 30.8619412897,
			"0.002": 31.6860385163,
			"0.003": 33.958930979,
			"0.004": 36.1659965939,
			"0.005": 9.87366008899,
			"0.006": 3.73915281643,
			"0.007": 5.37001506249,
			"0.008": 3.37626770755,
			"0.009": 2.46853206716,
			"0.01": 2.47485406693,
			"0.011": 1.85090182548,
			"0.012": 2.80174624237,
			"0.013": 1.60997141876,
			"0.014": 2.05140823612,
			"0.015": 1.0341505105,
			"0.016": 1.17747737784,
			"0.017": 0.228964603003,
			"0.018": 0.0,
			"0.019": 0.0,
			"0.02": 0.0,
			"0.021": 0.0,
			"0.022": 0.0,
			"0.023": 0.0,
			"0.024": 0.0,
			"0.025": 0.0
		}
	}
}
