{
	 "smiles": "CN1CCCC2=C1C=C(C=C2)S(N)(=O)=O", 
	 "Tm": 440.15, 
	 "num_atms": 29, 
	 "gaussian": { 
		 "optdone": 1, 
		 "sigma_profile": "yes", 
		 "theory": "DFT", 
		 "functional": "B3LYP", 
		 "basiset": "6-31G**", 
		 "properties": { 
			 "R2extent": 5449.157, 
			 "electric_dipole_moment_norm": 7.55902929019, 
			 "electric_quadrupole_moment_norm": 33.2457782985, 
			 "total_energy": -1047.57836899, 
			 "HOMO_LUMO_gap": 0.17388, 
			 "cosmo_polarized_energy": -19.45, 
			 "cosmo_cavitation_energy": 32.07, 
			 "cosmo_dispersion_energy": -24.06, 
			 "cosmo_repulsion_energy": 1.84, 
			 "cosmo_total_nonelectrostatic_energy": 9.84, 
			 "SMD_solvation_energy": 3.81 
		},
		"coords": [
			{
				"x": 0.0316741678,
				"y": 0.8900831457,
				"z": -1.4986601617,
				"element": "C" 
			},
			{
				"x": 0.1625218687,
				"y": 0.8145517607,
				"z": -0.0535976136,
				"element": "N" 
			},
			{
				"x": -0.3505044537,
				"y": 1.9470803726,
				"z": 0.7132330827,
				"element": "C" 
			},
			{
				"x": 0.2413049246,
				"y": 1.9554792086,
				"z": 2.1209766448,
				"element": "C" 
			},
			{
				"x": -0.117747857,
				"y": 0.6539724821,
				"z": 2.8414546846,
				"element": "C" 
			},
			{
				"x": 0.1515815853,
				"y": -0.5594242595,
				"z": 1.9743378381,
				"element": "C" 
			},
			{
				"x": 0.2482321654,
				"y": -0.4319728421,
				"z": 0.560352586,
				"element": "C" 
			},
			{
				"x": 0.4532869001,
				"y": -1.6005409039,
				"z": -0.2025961216,
				"element": "C" 
			},
			{
				"x": 0.5758353898,
				"y": -2.8370725055,
				"z": 0.4268472968,
				"element": "C" 
			},
			{
				"x": 0.4874986352,
				"y": -2.9763172683,
				"z": 1.8102761925,
				"element": "C" 
			},
			{
				"x": 0.2769631357,
				"y": -1.8192877501,
				"z": 2.5598146385,
				"element": "C" 
			},
			{
				"x": 0.8884677501,
				"y": -4.288339826,
				"z": -0.5868223718,
				"element": "S" 
			},
			{
				"x": 2.5639664049,
				"y": -4.4854018917,
				"z": -0.6386472754,
				"element": "N" 
			},
			{
				"x": 0.381991816,
				"y": -5.4551902739,
				"z": 0.1342945848,
				"element": "O" 
			},
			{
				"x": 0.4918214158,
				"y": -3.9710578539,
				"z": -1.9591375665,
				"element": "O" 
			},
			{
				"x": 0.8886334326,
				"y": 0.423938206,
				"z": -1.9962042628,
				"element": "H" 
			},
			{
				"x": 0.0119982094,
				"y": 1.9408185429,
				"z": -1.795009689,
				"element": "H" 
			},
			{
				"x": -0.8842540951,
				"y": 0.4084139777,
				"z": -1.8750477311,
				"element": "H" 
			},
			{
				"x": -0.0738178565,
				"y": 2.8634237004,
				"z": 0.1820478265,
				"element": "H" 
			},
			{
				"x": -1.453311422,
				"y": 1.9280147621,
				"z": 0.7715856667,
				"element": "H" 
			},
			{
				"x": -0.1349831457,
				"y": 2.821675607,
				"z": 2.6749879823,
				"element": "H" 
			},
			{
				"x": 1.3299877862,
				"y": 2.0591002954,
				"z": 2.0463137107,
				"element": "H" 
			},
			{
				"x": -1.1825841639,
				"y": 0.6741946051,
				"z": 3.1143856223,
				"element": "H" 
			},
			{
				"x": 0.4348221878,
				"y": 0.5679436414,
				"z": 3.7839043415,
				"element": "H" 
			},
			{
				"x": 0.4874666213,
				"y": -1.5685911298,
				"z": -1.2832627728,
				"element": "H" 
			},
			{
				"x": 0.5502847896,
				"y": -3.9530005872,
				"z": 2.2757607653,
				"element": "H" 
			},
			{
				"x": 0.1938253272,
				"y": -1.8952811659,
				"z": 3.6416182346,
				"element": "H" 
			},
			{
				"x": 3.0258339662,
				"y": -3.7025072468,
				"z": -1.0918477084,
				"element": "H" 
			},
			{
				"x": 2.9522045143,
				"y": -4.6833048032,
				"z": 0.2788415759,
				"element": "H" 
			}
		],
		 "valence_orbital": [ 
			{
				"type": "occ",
				"energy": -0.29377,
				"method": "rhf"
			},
			{
				"type": "occ",
				"energy": -0.29287,
				"method": "rhf"
			},
			{
				"type": "occ",
				"energy": -0.28986,
				"method": "rhf"
			},
			{
				"type": "occ",
				"energy": -0.25359,
				"method": "rhf"
			},
			{
				"type": "occ",
				"energy": -0.20193,
				"method": "rhf"
			},
			{
				"type": "unocc",
				"energy": -0.02805,
				"method": "rhf"
			},
			{
				"type": "unocc",
				"energy": -0.00164,
				"method": "rhf"
			},
			{
				"type": "unocc",
				"energy": 0.05947,
				"method": "rhf"
			},
			{
				"type": "unocc",
				"energy": 0.07573,
				"method": "rhf"
			},
			{
				"type": "unocc",
				"energy": 0.08634,
				"method": "rhf"
			}
		],
		"cosmo_sigma_profile": { 
			"-0.025": 0.0,
			"-0.024": 0.0,
			"-0.023": 0.0,
			"-0.022": 0.0,
			"-0.021": 0.0,
			"-0.02": 0.0,
			"-0.019": 0.0,
			"-0.018": 0.0,
			"-0.017": 0.0,
			"-0.016": 0.0,
			"-0.015": 1.26928351033,
			"-0.014": 2.99366458728,
			"-0.013": 2.09748522265,
			"-0.012": 2.65696248281,
			"-0.011": 2.79758442694,
			"-0.01": 1.83175054757,
			"-0.009": 2.88985054665,
			"-0.008": 1.24788912048,
			"-0.007": 2.21469284005,
			"-0.006": 7.40038475383,
			"-0.005": 12.2983778245,
			"-0.004": 21.1594972059,
			"-0.003": 29.84778054,
			"-0.002": 30.7407759167,
			"-0.001": 24.6850894172,
			"0.0": 12.7518997645,
			"0.001": 7.89414005671,
			"0.002": 8.27187328384,
			"0.003": 10.0971116208,
			"0.004": 12.6364311028,
			"0.005": 10.2931895256,
			"0.006": 4.89835218329,
			"0.007": 4.24267508017,
			"0.008": 4.04354293479,
			"0.009": 5.1594159561,
			"0.01": 7.06472795319,
			"0.011": 9.78634404696,
			"0.012": 8.38918328715,
			"0.013": 0.650093944757,
			"0.014": 0.0912997455301,
			"0.015": 0.0,
			"0.016": 0.0,
			"0.017": 0.0,
			"0.018": 0.0,
			"0.019": 0.0,
			"0.02": 0.0,
			"0.021": 0.0,
			"0.022": 0.0,
			"0.023": 0.0,
			"0.024": 0.0,
			"0.025": 0.0
		}
	}
}
