{
	 "smiles": "C1CC2CNC3=C(CN2C1)C=CC=C3", 
	 "Tm": 381.15, 
	 "num_atms": 30, 
	 "gaussian": { 
		 "optdone": 1, 
		 "sigma_profile": "yes", 
		 "theory": "DFT", 
		 "functional": "B3LYP", 
		 "basiset": "6-31G**", 
		 "properties": { 
			 "R2extent": 2768.5987, 
			 "electric_dipole_moment_norm": 1.68729375629, 
			 "electric_quadrupole_moment_norm": 4.82000593257, 
			 "total_energy": -576.414676858, 
			 "HOMO_LUMO_gap": 0.19516, 
			 "cosmo_polarized_energy": -7.17, 
			 "cosmo_cavitation_energy": 29.34, 
			 "cosmo_dispersion_energy": -22.13, 
			 "cosmo_repulsion_energy": 1.72, 
			 "cosmo_total_nonelectrostatic_energy": 8.93, 
			 "SMD_solvation_energy": 1.61 
		},
		"coords": [
			{
				"x": 0.0341629214,
				"y": -3.0323143377,
				"z": -1.5528485763,
				"element": "C" 
			},
			{
				"x": 1.0793594795,
				"y": -2.0713505274,
				"z": -2.1445529819,
				"element": "C" 
			},
			{
				"x": 1.8492209064,
				"y": -1.5234972225,
				"z": -0.9198019661,
				"element": "C" 
			},
			{
				"x": 2.132310396,
				"y": -0.0137195435,
				"z": -1.024160293,
				"element": "C" 
			},
			{
				"x": 0.9069178056,
				"y": 0.7812327063,
				"z": -1.0113235428,
				"element": "N" 
			},
			{
				"x": 0.2740018949,
				"y": 1.1296518546,
				"z": 0.1901449868,
				"element": "C" 
			},
			{
				"x": 0.294521045,
				"y": 0.3004060598,
				"z": 1.3375938663,
				"element": "C" 
			},
			{
				"x": 1.0441085754,
				"y": -1.0370962832,
				"z": 1.4046012476,
				"element": "C" 
			},
			{
				"x": 1.0069519895,
				"y": -1.8887368489,
				"z": 0.2339190082,
				"element": "N" 
			},
			{
				"x": -0.3005056498,
				"y": -2.360920194,
				"z": -0.2186835994,
				"element": "C" 
			},
			{
				"x": -0.4113546836,
				"y": 0.7207756661,
				"z": 2.4706636579,
				"element": "C" 
			},
			{
				"x": -1.1266760987,
				"y": 1.9168206753,
				"z": 2.5118403364,
				"element": "C" 
			},
			{
				"x": -1.1484498905,
				"y": 2.7234864367,
				"z": 1.3740070198,
				"element": "C" 
			},
			{
				"x": -0.4549443371,
				"y": 2.3333794091,
				"z": 0.2334460636,
				"element": "C" 
			},
			{
				"x": 0.4742528925,
				"y": -4.0191620585,
				"z": -1.3721704215,
				"element": "H" 
			},
			{
				"x": -0.8405556544,
				"y": -3.1615346893,
				"z": -2.1969619871,
				"element": "H" 
			},
			{
				"x": 1.7435527463,
				"y": -2.5459762807,
				"z": -2.873125426,
				"element": "H" 
			},
			{
				"x": 0.5677747579,
				"y": -1.2400063486,
				"z": -2.642112494,
				"element": "H" 
			},
			{
				"x": 2.8295677487,
				"y": -2.0205265542,
				"z": -0.8264140632,
				"element": "H" 
			},
			{
				"x": 2.650123329,
				"y": 0.178897655,
				"z": -1.9707258291,
				"element": "H" 
			},
			{
				"x": 2.8203540623,
				"y": 0.2997941389,
				"z": -0.2245561517,
				"element": "H" 
			},
			{
				"x": 0.9215319988,
				"y": 1.5487056503,
				"z": -1.6681547435,
				"element": "H" 
			},
			{
				"x": 0.6276383423,
				"y": -1.6018455937,
				"z": 2.2486973727,
				"element": "H" 
			},
			{
				"x": 2.0978049182,
				"y": -0.8661480807,
				"z": 1.6631819322,
				"element": "H" 
			},
			{
				"x": -1.0294083459,
				"y": -1.5449970348,
				"z": -0.3672860226,
				"element": "H" 
			},
			{
				"x": -0.7287960073,
				"y": -3.0548955139,
				"z": 0.5162590897,
				"element": "H" 
			},
			{
				"x": -0.4013026045,
				"y": 0.0763924368,
				"z": 3.3476945519,
				"element": "H" 
			},
			{
				"x": -1.6646767497,
				"y": 2.2058892553,
				"z": 3.4093244038,
				"element": "H" 
			},
			{
				"x": -1.7010335544,
				"y": 3.6589909581,
				"z": 1.3710596067,
				"element": "H" 
			},
			{
				"x": -0.4702522336,
				"y": 2.9681042095,
				"z": -0.6506550457,
				"element": "H" 
			}
		],
		 "valence_orbital": [ 
			{
				"type": "occ",
				"energy": -0.31815,
				"method": "rhf"
			},
			{
				"type": "occ",
				"energy": -0.28449,
				"method": "rhf"
			},
			{
				"type": "occ",
				"energy": -0.23503,
				"method": "rhf"
			},
			{
				"type": "occ",
				"energy": -0.198,
				"method": "rhf"
			},
			{
				"type": "occ",
				"energy": -0.18566,
				"method": "rhf"
			},
			{
				"type": "unocc",
				"energy": 0.0095,
				"method": "rhf"
			},
			{
				"type": "unocc",
				"energy": 0.01942,
				"method": "rhf"
			},
			{
				"type": "unocc",
				"energy": 0.07722,
				"method": "rhf"
			},
			{
				"type": "unocc",
				"energy": 0.09964,
				"method": "rhf"
			},
			{
				"type": "unocc",
				"energy": 0.10902,
				"method": "rhf"
			}
		],
		"cosmo_sigma_profile": { 
			"-0.025": 0.0,
			"-0.024": 0.0,
			"-0.023": 0.0,
			"-0.022": 0.0,
			"-0.021": 0.0,
			"-0.02": 0.0,
			"-0.019": 0.0,
			"-0.018": 0.0,
			"-0.017": 0.0,
			"-0.016": 0.0,
			"-0.015": 0.0,
			"-0.014": 0.0,
			"-0.013": 0.0,
			"-0.012": 0.808946625537,
			"-0.011": 1.3589742025,
			"-0.01": 1.54531916921,
			"-0.009": 1.46370326929,
			"-0.008": 1.89233763107,
			"-0.007": 1.48751978284,
			"-0.006": 2.07915412179,
			"-0.005": 8.14606792407,
			"-0.004": 16.1861890841,
			"-0.003": 20.9965888009,
			"-0.002": 31.2714151908,
			"-0.001": 31.592775071,
			"0.0": 25.9063164468,
			"0.001": 19.7760739053,
			"0.002": 11.2883473922,
			"0.003": 8.76905051923,
			"0.004": 8.43596261664,
			"0.005": 8.11015142329,
			"0.006": 9.3957407224,
			"0.007": 9.27324176771,
			"0.008": 4.90874996092,
			"0.009": 1.16082698575,
			"0.01": 0.919721792865,
			"0.011": 0.607824710095,
			"0.012": 0.311723604931,
			"0.013": 0.282481834509,
			"0.014": 0.63410788027,
			"0.015": 0.419118735539,
			"0.016": 0.0220959403769,
			"0.017": 0.0,
			"0.018": 0.0,
			"0.019": 0.0,
			"0.02": 0.0,
			"0.021": 0.0,
			"0.022": 0.0,
			"0.023": 0.0,
			"0.024": 0.0,
			"0.025": 0.0
		}
	}
}
