{
	 "smiles": "[O-][N+](=O)C1=CC=C(C=C1)N1CCCCC1", 
	 "Tm": 378.15, 
	 "num_atms": 29, 
	 "gaussian": { 
		 "optdone": 1, 
		 "sigma_profile": "yes", 
		 "theory": "DFT", 
		 "functional": "B3LYP", 
		 "basiset": "6-31G**", 
		 "properties": { 
			 "R2extent": 5041.5521, 
			 "electric_dipole_moment_norm": 8.57922605425, 
			 "electric_quadrupole_moment_norm": 29.1556566256, 
			 "total_energy": -687.464872376, 
			 "HOMO_LUMO_gap": 0.14451, 
			 "cosmo_polarized_energy": -12.53, 
			 "cosmo_cavitation_energy": 30.96, 
			 "cosmo_dispersion_energy": -23.12, 
			 "cosmo_repulsion_energy": 1.79, 
			 "cosmo_total_nonelectrostatic_energy": 9.63, 
			 "SMD_solvation_energy": 6.08 
		},
		"coords": [
			{
				"x": 2.4005379456,
				"y": 2.2077210313,
				"z": 4.6697626947,
				"element": "O" 
			},
			{
				"x": 2.0471189745,
				"y": 1.0441055367,
				"z": 4.4519956714,
				"element": "N" 
			},
			{
				"x": 2.0472029217,
				"y": 0.1490001031,
				"z": 5.3035392015,
				"element": "O" 
			},
			{
				"x": 1.6037701727,
				"y": 0.7073171373,
				"z": 3.1108290432,
				"element": "C" 
			},
			{
				"x": 1.2071062432,
				"y": -0.5997802962,
				"z": 2.8194406318,
				"element": "C" 
			},
			{
				"x": 0.7862011606,
				"y": -0.9235091554,
				"z": 1.5409960192,
				"element": "C" 
			},
			{
				"x": 0.7440654488,
				"y": 0.0543137242,
				"z": 0.5106536896,
				"element": "C" 
			},
			{
				"x": 1.1524644318,
				"y": 1.3743013312,
				"z": 0.8428082839,
				"element": "C" 
			},
			{
				"x": 1.576973247,
				"y": 1.6927413978,
				"z": 2.1214208205,
				"element": "C" 
			},
			{
				"x": 0.3241362315,
				"y": -0.2647040108,
				"z": -0.759377926,
				"element": "N" 
			},
			{
				"x": 0.5707833424,
				"y": 0.6353503787,
				"z": -1.8915264272,
				"element": "C" 
			},
			{
				"x": 0.69179232,
				"y": -0.1590910895,
				"z": -3.1962255336,
				"element": "C" 
			},
			{
				"x": -0.5900675491,
				"y": -0.9564747103,
				"z": -3.5174918032,
				"element": "C" 
			},
			{
				"x": -1.3373809608,
				"y": -1.3485167272,
				"z": -2.2252725153,
				"element": "C" 
			},
			{
				"x": -0.3888582532,
				"y": -1.5173732595,
				"z": -1.0336704682,
				"element": "C" 
			},
			{
				"x": 1.2484698508,
				"y": -1.3492678013,
				"z": 3.6002441144,
				"element": "H" 
			},
			{
				"x": 0.5190454754,
				"y": -1.9510082454,
				"z": 1.3285049733,
				"element": "H" 
			},
			{
				"x": 1.1044254954,
				"y": 2.1624122139,
				"z": 0.1019562605,
				"element": "H" 
			},
			{
				"x": 1.8775129621,
				"y": 2.7019805106,
				"z": 2.3748157678,
				"element": "H" 
			},
			{
				"x": 1.5075916487,
				"y": 1.1704751509,
				"z": -1.7123913465,
				"element": "H" 
			},
			{
				"x": -0.2227856546,
				"y": 1.3951375347,
				"z": -1.9791855085,
				"element": "H" 
			},
			{
				"x": 1.544191133,
				"y": -0.8413300772,
				"z": -3.0980420461,
				"element": "H" 
			},
			{
				"x": 0.9373149174,
				"y": 0.5304148132,
				"z": -4.0105406426,
				"element": "H" 
			},
			{
				"x": -0.3253485166,
				"y": -1.8513607138,
				"z": -4.0911532396,
				"element": "H" 
			},
			{
				"x": -1.2563249149,
				"y": -0.366258281,
				"z": -4.1560268217,
				"element": "H" 
			},
			{
				"x": -2.070692771,
				"y": -0.5760822588,
				"z": -1.9659246248,
				"element": "H" 
			},
			{
				"x": -1.9000954074,
				"y": -2.2771527613,
				"z": -2.3660103623,
				"element": "H" 
			},
			{
				"x": -0.9730461555,
				"y": -1.7857252818,
				"z": -0.1489529699,
				"element": "H" 
			},
			{
				"x": 0.3139962608,
				"y": -2.3457361943,
				"z": -1.2193749363,
				"element": "H" 
			}
		],
		 "valence_orbital": [ 
			{
				"type": "occ",
				"energy": -0.28645,
				"method": "rhf"
			},
			{
				"type": "occ",
				"energy": -0.28545,
				"method": "rhf"
			},
			{
				"type": "occ",
				"energy": -0.26683,
				"method": "rhf"
			},
			{
				"type": "occ",
				"energy": -0.26485,
				"method": "rhf"
			},
			{
				"type": "occ",
				"energy": -0.2093,
				"method": "rhf"
			},
			{
				"type": "unocc",
				"energy": -0.06479,
				"method": "rhf"
			},
			{
				"type": "unocc",
				"energy": -0.01329,
				"method": "rhf"
			},
			{
				"type": "unocc",
				"energy": 0.02824,
				"method": "rhf"
			},
			{
				"type": "unocc",
				"energy": 0.05796,
				"method": "rhf"
			},
			{
				"type": "unocc",
				"energy": 0.09182,
				"method": "rhf"
			}
		],
		"cosmo_sigma_profile": { 
			"-0.025": 0.0,
			"-0.024": 0.0,
			"-0.023": 0.0,
			"-0.022": 0.0,
			"-0.021": 0.0,
			"-0.02": 0.0,
			"-0.019": 0.0,
			"-0.018": 0.0,
			"-0.017": 0.0,
			"-0.016": 0.0,
			"-0.015": 0.0,
			"-0.014": 0.0,
			"-0.013": 0.0,
			"-0.012": 0.0,
			"-0.011": 0.0,
			"-0.01": 0.0,
			"-0.009": 0.0,
			"-0.008": 0.0,
			"-0.007": 2.66967756151,
			"-0.006": 8.95792698114,
			"-0.005": 11.1390227487,
			"-0.004": 21.6713319374,
			"-0.003": 36.7426657487,
			"-0.002": 35.3971779799,
			"-0.001": 20.9572950586,
			"0.0": 20.6734780331,
			"0.001": 15.9655138031,
			"0.002": 12.0482190774,
			"0.003": 14.4360422863,
			"0.004": 8.67714122931,
			"0.005": 2.53282198976,
			"0.006": 2.34408920073,
			"0.007": 3.43833969174,
			"0.008": 5.22941573897,
			"0.009": 10.7573754397,
			"0.01": 4.74995577869,
			"0.011": 4.23142966507,
			"0.012": 1.20297379807,
			"0.013": 0.0,
			"0.014": 0.0,
			"0.015": 0.0,
			"0.016": 0.0,
			"0.017": 0.0,
			"0.018": 0.0,
			"0.019": 0.0,
			"0.02": 0.0,
			"0.021": 0.0,
			"0.022": 0.0,
			"0.023": 0.0,
			"0.024": 0.0,
			"0.025": 0.0
		}
	}
}
