{
	 "smiles": "NC1=C(O)C=CC(F)=C1", 
	 "Tm": 412.65, 
	 "num_atms": 15, 
	 "gaussian": { 
		 "optdone": 1, 
		 "sigma_profile": "yes", 
		 "theory": "DFT", 
		 "functional": "B3LYP", 
		 "basiset": "6-31G**", 
		 "properties": { 
			 "R2extent": 1427.7035, 
			 "electric_dipole_moment_norm": 2.48999066866, 
			 "electric_quadrupole_moment_norm": 10.7060077004, 
			 "total_energy": -462.059382245, 
			 "HOMO_LUMO_gap": 0.19944, 
			 "cosmo_polarized_energy": -8.77, 
			 "cosmo_cavitation_energy": 19.38, 
			 "cosmo_dispersion_energy": -14.61, 
			 "cosmo_repulsion_energy": 1.19, 
			 "cosmo_total_nonelectrostatic_energy": 5.96, 
			 "SMD_solvation_energy": 4.5 
		},
		"coords": [
			{
				"x": -2.856838357,
				"y": -0.4607603283,
				"z": -0.1872681261,
				"element": "N" 
			},
			{
				"x": -1.5068094309,
				"y": -0.1461429411,
				"z": -0.5766952481,
				"element": "C" 
			},
			{
				"x": -1.2268962642,
				"y": 1.2264817042,
				"z": -0.7224321569,
				"element": "C" 
			},
			{
				"x": -2.2087855086,
				"y": 2.1364901447,
				"z": -0.5018422461,
				"element": "O" 
			},
			{
				"x": 0.0527417105,
				"y": 1.6430357099,
				"z": -1.1003556112,
				"element": "C" 
			},
			{
				"x": 1.0496462091,
				"y": 0.6992330943,
				"z": -1.3461972679,
				"element": "C" 
			},
			{
				"x": 0.7521183513,
				"y": -0.6526245623,
				"z": -1.2134964007,
				"element": "C" 
			},
			{
				"x": 1.717207173,
				"y": -1.5703239025,
				"z": -1.4588449649,
				"element": "F" 
			},
			{
				"x": -0.5095318862,
				"y": -1.0908034044,
				"z": -0.8278691431,
				"element": "C" 
			},
			{
				"x": -3.2221102953,
				"y": -1.2524110903,
				"z": -0.7082466535,
				"element": "H" 
			},
			{
				"x": -2.9146998273,
				"y": -0.6944204781,
				"z": 0.8017422974,
				"element": "H" 
			},
			{
				"x": -3.0108571991,
				"y": 1.5967002345,
				"z": -0.3536233863,
				"element": "H" 
			},
			{
				"x": 0.249334296,
				"y": 2.7041166214,
				"z": -1.2090670122,
				"element": "H" 
			},
			{
				"x": 2.0479048794,
				"y": 0.9995195911,
				"z": -1.645576942,
				"element": "H" 
			},
			{
				"x": -0.7024238505,
				"y": -2.1539903932,
				"z": -0.7229271384,
				"element": "H" 
			}
		],
		 "valence_orbital": [ 
			{
				"type": "occ",
				"energy": -0.34156,
				"method": "rhf"
			},
			{
				"type": "occ",
				"energy": -0.32161,
				"method": "rhf"
			},
			{
				"type": "occ",
				"energy": -0.28809,
				"method": "rhf"
			},
			{
				"type": "occ",
				"energy": -0.25216,
				"method": "rhf"
			},
			{
				"type": "occ",
				"energy": -0.20996,
				"method": "rhf"
			},
			{
				"type": "unocc",
				"energy": -0.01052,
				"method": "rhf"
			},
			{
				"type": "unocc",
				"energy": 0.02139,
				"method": "rhf"
			},
			{
				"type": "unocc",
				"energy": 0.06682,
				"method": "rhf"
			},
			{
				"type": "unocc",
				"energy": 0.09479,
				"method": "rhf"
			},
			{
				"type": "unocc",
				"energy": 0.12944,
				"method": "rhf"
			}
		],
		"cosmo_sigma_profile": { 
			"-0.025": 0.0,
			"-0.024": 0.0,
			"-0.023": 0.0,
			"-0.022": 0.0,
			"-0.021": 0.0,
			"-0.02": 0.0,
			"-0.019": 0.0,
			"-0.018": 0.0,
			"-0.017": 0.0,
			"-0.016": 0.0,
			"-0.015": 0.0,
			"-0.014": 0.0,
			"-0.013": 0.0762115736574,
			"-0.012": 2.11062497644,
			"-0.011": 3.0915984577,
			"-0.01": 3.47347623572,
			"-0.009": 3.01962860521,
			"-0.008": 3.41162199674,
			"-0.007": 6.94342349195,
			"-0.006": 7.77618207933,
			"-0.005": 6.91759717326,
			"-0.004": 9.06133904807,
			"-0.003": 5.56735164768,
			"-0.002": 5.1886300503,
			"-0.001": 7.34455467681,
			"0.0": 5.99615638152,
			"0.001": 10.0120875221,
			"0.002": 12.824211968,
			"0.003": 14.3258314068,
			"0.004": 18.9052626195,
			"0.005": 14.5902442248,
			"0.006": 1.70115394639,
			"0.007": 2.66041963491,
			"0.008": 2.0738082436,
			"0.009": 1.56982388643,
			"0.01": 1.7210880352,
			"0.011": 1.69870269239,
			"0.012": 1.96381066327,
			"0.013": 0.208165437281,
			"0.014": 0.0,
			"0.015": 0.0,
			"0.016": 0.0,
			"0.017": 0.0,
			"0.018": 0.0,
			"0.019": 0.0,
			"0.02": 0.0,
			"0.021": 0.0,
			"0.022": 0.0,
			"0.023": 0.0,
			"0.024": 0.0,
			"0.025": 0.0
		}
	}
}
