{
	 "smiles": "OC(=O)COC1=CC2=C(C=C1)C=C(Br)C=C2", 
	 "Tm": 498.15, 
	 "num_atms": 25, 
	 "gaussian": { 
		 "optdone": 1, 
		 "sigma_profile": "yes", 
		 "theory": "DFT", 
		 "functional": "B3LYP", 
		 "basiset": "6-31G**", 
		 "properties": { 
			 "R2extent": 9615.1726, 
			 "electric_dipole_moment_norm": 1.74913639834, 
			 "electric_quadrupole_moment_norm": 11.82716337, 
			 "total_energy": -3259.78530809, 
			 "HOMO_LUMO_gap": 0.16906, 
			 "cosmo_polarized_energy": -13.88, 
			 "cosmo_cavitation_energy": 32.68, 
			 "cosmo_dispersion_energy": -24.36, 
			 "cosmo_repulsion_energy": 1.89, 
			 "cosmo_total_nonelectrostatic_energy": 10.21, 
			 "SMD_solvation_energy": 5.75 
		},
		"coords": [
			{
				"x": -3.601440817,
				"y": 0.3354666724,
				"z": 2.6197323532,
				"element": "O" 
			},
			{
				"x": -3.1267464402,
				"y": -0.8791716523,
				"z": 2.299820178,
				"element": "C" 
			},
			{
				"x": -3.6100580294,
				"y": -1.9204010137,
				"z": 2.6843556137,
				"element": "O" 
			},
			{
				"x": -1.9065834913,
				"y": -0.8534315127,
				"z": 1.3961403571,
				"element": "C" 
			},
			{
				"x": -1.5241612555,
				"y": 0.4658744738,
				"z": 1.0800116879,
				"element": "O" 
			},
			{
				"x": -0.4373088019,
				"y": 0.6414978447,
				"z": 0.2697810076,
				"element": "C" 
			},
			{
				"x": 0.326641813,
				"y": -0.3730334723,
				"z": -0.2704214077,
				"element": "C" 
			},
			{
				"x": 1.4381834841,
				"y": -0.062160931,
				"z": -1.1024848047,
				"element": "C" 
			},
			{
				"x": 1.7578710051,
				"y": 1.3056035173,
				"z": -1.3747613666,
				"element": "C" 
			},
			{
				"x": 0.9437574355,
				"y": 2.3212055717,
				"z": -0.7973646642,
				"element": "C" 
			},
			{
				"x": -0.1230503878,
				"y": 2.0025595762,
				"z": 0.0017584056,
				"element": "C" 
			},
			{
				"x": 2.8666434959,
				"y": 1.6127867541,
				"z": -2.2046888256,
				"element": "C" 
			},
			{
				"x": 3.6239085448,
				"y": 0.5973591341,
				"z": -2.7399082822,
				"element": "C" 
			},
			{
				"x": 5.1190621521,
				"y": 1.0110034502,
				"z": -3.8588985646,
				"element": "Br" 
			},
			{
				"x": 3.3238890191,
				"y": -0.7591321213,
				"z": -2.4824839214,
				"element": "C" 
			},
			{
				"x": 2.2508131092,
				"y": -1.0743881335,
				"z": -1.6788129975,
				"element": "C" 
			},
			{
				"x": -4.3710119895,
				"y": 0.177480225,
				"z": 3.1933471129,
				"element": "H" 
			},
			{
				"x": -1.1051926154,
				"y": -1.3949928074,
				"z": 1.9181646175,
				"element": "H" 
			},
			{
				"x": -2.1582050867,
				"y": -1.430650501,
				"z": 0.4953026672,
				"element": "H" 
			},
			{
				"x": 0.1040054277,
				"y": -1.4164548569,
				"z": -0.0783952252,
				"element": "H" 
			},
			{
				"x": 1.1797734658,
				"y": 3.3623770723,
				"z": -0.9991757448,
				"element": "H" 
			},
			{
				"x": -0.7507499905,
				"y": 2.7669676339,
				"z": 0.4474045685,
				"element": "H" 
			},
			{
				"x": 3.1093199222,
				"y": 2.6497458396,
				"z": -2.4113303392,
				"element": "H" 
			},
			{
				"x": 3.9393137148,
				"y": -1.5375984968,
				"z": -2.9186422242,
				"element": "H" 
			},
			{
				"x": 2.0168263158,
				"y": -2.1166122665,
				"z": -1.4784502013,
				"element": "H" 
			}
		],
		 "valence_orbital": [ 
			{
				"type": "occ",
				"energy": -0.29085,
				"method": "rhf"
			},
			{
				"type": "occ",
				"energy": -0.28592,
				"method": "rhf"
			},
			{
				"type": "occ",
				"energy": -0.27469,
				"method": "rhf"
			},
			{
				"type": "occ",
				"energy": -0.24139,
				"method": "rhf"
			},
			{
				"type": "occ",
				"energy": -0.21648,
				"method": "rhf"
			},
			{
				"type": "unocc",
				"energy": -0.04742,
				"method": "rhf"
			},
			{
				"type": "unocc",
				"energy": -0.01798,
				"method": "rhf"
			},
			{
				"type": "unocc",
				"energy": -0.00278,
				"method": "rhf"
			},
			{
				"type": "unocc",
				"energy": 0.00831,
				"method": "rhf"
			},
			{
				"type": "unocc",
				"energy": 0.02124,
				"method": "rhf"
			}
		],
		"cosmo_sigma_profile": { 
			"-0.025": 0.0,
			"-0.024": 0.0,
			"-0.023": 0.0,
			"-0.022": 0.0,
			"-0.021": 0.0,
			"-0.02": 0.0,
			"-0.019": 0.285458686571,
			"-0.018": 1.18261291974,
			"-0.017": 0.605523710068,
			"-0.016": 1.01927213777,
			"-0.015": 0.466387661041,
			"-0.014": 1.39081384768,
			"-0.013": 0.308931478585,
			"-0.012": 0.788619249197,
			"-0.011": 1.03819930217,
			"-0.01": 0.486593123765,
			"-0.009": 0.722979131811,
			"-0.008": 9.30692246334,
			"-0.007": 16.393467279,
			"-0.006": 14.915743363,
			"-0.005": 13.1658601249,
			"-0.004": 14.4110422979,
			"-0.003": 11.6076333624,
			"-0.002": 11.1739074139,
			"-0.001": 12.6061764915,
			"0.0": 13.0643039449,
			"0.001": 16.2256688544,
			"0.002": 23.2628338915,
			"0.003": 38.8351605272,
			"0.004": 23.196773381,
			"0.005": 11.3985008207,
			"0.006": 3.26259345623,
			"0.007": 3.23108531609,
			"0.008": 2.76864716892,
			"0.009": 3.15533028658,
			"0.01": 3.78452835953,
			"0.011": 6.42188583376,
			"0.012": 4.38076943431,
			"0.013": 0.152015756639,
			"0.014": 0.0,
			"0.015": 0.0,
			"0.016": 0.0,
			"0.017": 0.0,
			"0.018": 0.0,
			"0.019": 0.0,
			"0.02": 0.0,
			"0.021": 0.0,
			"0.022": 0.0,
			"0.023": 0.0,
			"0.024": 0.0,
			"0.025": 0.0
		}
	}
}
