{
	 "smiles": "COC(=O)C1=CC=C(C=C1)C1=CSC(N)=N1", 
	 "Tm": 513.15, 
	 "num_atms": 26, 
	 "gaussian": { 
		 "optdone": 1, 
		 "sigma_profile": "yes", 
		 "theory": "DFT", 
		 "functional": "B3LYP", 
		 "basiset": "6-31G**", 
		 "properties": { 
			 "R2extent": 6705.0667, 
			 "electric_dipole_moment_norm": 3.75228930788, 
			 "electric_quadrupole_moment_norm": 14.6510541508, 
			 "total_energy": -1083.34996776, 
			 "HOMO_LUMO_gap": 0.1544, 
			 "cosmo_polarized_energy": -15.01, 
			 "cosmo_cavitation_energy": 32.78, 
			 "cosmo_dispersion_energy": -24.78, 
			 "cosmo_repulsion_energy": 1.88, 
			 "cosmo_total_nonelectrostatic_energy": 9.87, 
			 "SMD_solvation_energy": 5.78 
		},
		"coords": [
			{
				"x": -2.274750219,
				"y": 5.6608936504,
				"z": 0.2862615007,
				"element": "C" 
			},
			{
				"x": -1.6730484161,
				"y": 4.3761004634,
				"z": 0.4980698339,
				"element": "O" 
			},
			{
				"x": -0.7260197374,
				"y": 4.0283162638,
				"z": -0.4064186805,
				"element": "C" 
			},
			{
				"x": -0.403351509,
				"y": 4.7477631319,
				"z": -1.333253148,
				"element": "O" 
			},
			{
				"x": -0.1416949729,
				"y": 2.6885796033,
				"z": -0.1334515751,
				"element": "C" 
			},
			{
				"x": 0.8521685431,
				"y": 2.2144955756,
				"z": -1.0027000205,
				"element": "C" 
			},
			{
				"x": 1.4322784412,
				"y": 0.9712678842,
				"z": -0.7956335141,
				"element": "C" 
			},
			{
				"x": 1.0372029462,
				"y": 0.1627335517,
				"z": 0.2866724398,
				"element": "C" 
			},
			{
				"x": 0.0406566459,
				"y": 0.645132522,
				"z": 1.1531048233,
				"element": "C" 
			},
			{
				"x": -0.5421174651,
				"y": 1.8910362162,
				"z": 0.9470489786,
				"element": "C" 
			},
			{
				"x": 1.636254941,
				"y": -1.1620289863,
				"z": 0.529834054,
				"element": "C" 
			},
			{
				"x": 2.6059968592,
				"y": -1.7635159217,
				"z": -0.2275436984,
				"element": "C" 
			},
			{
				"x": 3.0113276722,
				"y": -3.3285490894,
				"z": 0.4227851375,
				"element": "S" 
			},
			{
				"x": 1.8268303643,
				"y": -3.0363873576,
				"z": 1.7072835772,
				"element": "C" 
			},
			{
				"x": 1.5561549759,
				"y": -3.9982666372,
				"z": 2.6526738946,
				"element": "N" 
			},
			{
				"x": 1.2089982019,
				"y": -1.8974527318,
				"z": 1.6284690193,
				"element": "N" 
			},
			{
				"x": -2.7691522945,
				"y": 5.7001768274,
				"z": -0.6878436748,
				"element": "H" 
			},
			{
				"x": -1.5215573094,
				"y": 6.4519753405,
				"z": 0.3280809472,
				"element": "H" 
			},
			{
				"x": -3.0018328557,
				"y": 5.7819678051,
				"z": 1.0894597936,
				"element": "H" 
			},
			{
				"x": 1.1537961023,
				"y": 2.8405898325,
				"z": -1.835560499,
				"element": "H" 
			},
			{
				"x": 2.1991129064,
				"y": 0.6269206595,
				"z": -1.4823782706,
				"element": "H" 
			},
			{
				"x": -0.2652923391,
				"y": 0.0241510174,
				"z": 1.9867918718,
				"element": "H" 
			},
			{
				"x": -1.3099732412,
				"y": 2.2517085945,
				"z": 1.6219229135,
				"element": "H" 
			},
			{
				"x": 3.1083279556,
				"y": -1.3993797867,
				"z": -1.1105748098,
				"element": "H" 
			},
			{
				"x": 1.0103888531,
				"y": -3.6471442696,
				"z": 3.4287964899,
				"element": "H" 
			},
			{
				"x": 2.3188949509,
				"y": -4.601084159,
				"z": 2.9259026159,
				"element": "H" 
			}
		],
		 "valence_orbital": [ 
			{
				"type": "occ",
				"energy": -0.27899,
				"method": "rhf"
			},
			{
				"type": "occ",
				"energy": -0.26681,
				"method": "rhf"
			},
			{
				"type": "occ",
				"energy": -0.25629,
				"method": "rhf"
			},
			{
				"type": "occ",
				"energy": -0.2507,
				"method": "rhf"
			},
			{
				"type": "occ",
				"energy": -0.20737,
				"method": "rhf"
			},
			{
				"type": "unocc",
				"energy": -0.05297,
				"method": "rhf"
			},
			{
				"type": "unocc",
				"energy": -0.00765,
				"method": "rhf"
			},
			{
				"type": "unocc",
				"energy": 0.00319,
				"method": "rhf"
			},
			{
				"type": "unocc",
				"energy": 0.00693,
				"method": "rhf"
			},
			{
				"type": "unocc",
				"energy": 0.04092,
				"method": "rhf"
			}
		],
		"cosmo_sigma_profile": { 
			"-0.025": 0.0,
			"-0.024": 0.0,
			"-0.023": 0.0,
			"-0.022": 0.0,
			"-0.021": 0.0,
			"-0.02": 0.0,
			"-0.019": 0.0,
			"-0.018": 0.0,
			"-0.017": 0.0,
			"-0.016": 0.0,
			"-0.015": 0.535900206552,
			"-0.014": 2.29929006677,
			"-0.013": 2.53022654294,
			"-0.012": 2.54486028806,
			"-0.011": 2.54465797525,
			"-0.01": 3.15232181552,
			"-0.009": 4.15881164004,
			"-0.008": 4.16486347746,
			"-0.007": 5.84854614324,
			"-0.006": 9.46281273524,
			"-0.005": 15.0567870609,
			"-0.004": 15.9958379505,
			"-0.003": 17.6879788694,
			"-0.002": 14.2808182889,
			"-0.001": 12.3872663348,
			"0.0": 15.9371359366,
			"0.001": 20.9883757707,
			"0.002": 23.6861669092,
			"0.003": 31.5141910958,
			"0.004": 21.4239390028,
			"0.005": 7.53926724623,
			"0.006": 7.03439996862,
			"0.007": 3.21035298724,
			"0.008": 3.67705203035,
			"0.009": 3.83519846282,
			"0.01": 3.57497253475,
			"0.011": 4.40487486842,
			"0.012": 4.68235060213,
			"0.013": 0.602936809764,
			"0.014": 0.0,
			"0.015": 0.0,
			"0.016": 0.0,
			"0.017": 0.0,
			"0.018": 0.0,
			"0.019": 0.0,
			"0.02": 0.0,
			"0.021": 0.0,
			"0.022": 0.0,
			"0.023": 0.0,
			"0.024": 0.0,
			"0.025": 0.0
		}
	}
}
