{
	 "smiles": "CN1C2=C(C=CC=C2)N=C1C(=NNC1=CC=C(Cl)C=C1)C#N", 
	 "Tm": 488.15, 
	 "num_atms": 34, 
	 "gaussian": { 
		 "optdone": 1, 
		 "sigma_profile": "yes", 
		 "theory": "DFT", 
		 "functional": "B3LYP", 
		 "basiset": "6-31G**", 
		 "properties": { 
			 "R2extent": 11804.3015, 
			 "electric_dipole_moment_norm": 2.71455060185, 
			 "electric_quadrupole_moment_norm": 13.7731242901, 
			 "total_energy": -1350.8410337, 
			 "HOMO_LUMO_gap": 0.12597, 
			 "cosmo_polarized_energy": -18.59, 
			 "cosmo_cavitation_energy": 42.25, 
			 "cosmo_dispersion_energy": -30.04, 
			 "cosmo_repulsion_energy": 2.26, 
			 "cosmo_total_nonelectrostatic_energy": 14.48, 
			 "SMD_solvation_energy": 5.08 
		},
		"coords": [
			{
				"x": 2.4281967196,
				"y": -2.3094370648,
				"z": 2.5129827,
				"element": "C" 
			},
			{
				"x": 1.7067881761,
				"y": -2.356969951,
				"z": 1.2495843242,
				"element": "N" 
			},
			{
				"x": 1.4501703948,
				"y": -3.5097504421,
				"z": 0.5247510036,
				"element": "C" 
			},
			{
				"x": 0.6451720943,
				"y": -3.0960287922,
				"z": -0.5645957454,
				"element": "C" 
			},
			{
				"x": 0.198208707,
				"y": -4.0392916316,
				"z": -1.5016562354,
				"element": "C" 
			},
			{
				"x": 0.5678055358,
				"y": -5.3661590312,
				"z": -1.3187954795,
				"element": "C" 
			},
			{
				"x": 1.3703822621,
				"y": -5.7613496331,
				"z": -0.2274120199,
				"element": "C" 
			},
			{
				"x": 1.8284950075,
				"y": -4.8422817108,
				"z": 0.7126220164,
				"element": "C" 
			},
			{
				"x": 0.4324309083,
				"y": -1.734205111,
				"z": -0.5149383388,
				"element": "N" 
			},
			{
				"x": 1.0687131985,
				"y": -1.3285340692,
				"z": 0.5646768423,
				"element": "C" 
			},
			{
				"x": 1.112327792,
				"y": 0.0745679469,
				"z": 0.9927799772,
				"element": "C" 
			},
			{
				"x": 0.117318733,
				"y": 0.8589351732,
				"z": 0.6582333369,
				"element": "N" 
			},
			{
				"x": 0.1552161069,
				"y": 2.1429104653,
				"z": 0.9418175628,
				"element": "N" 
			},
			{
				"x": -0.8990736938,
				"y": 2.9996096946,
				"z": 0.5884444569,
				"element": "C" 
			},
			{
				"x": -0.8125642493,
				"y": 4.348778048,
				"z": 0.9545113612,
				"element": "C" 
			},
			{
				"x": -1.8370708967,
				"y": 5.2305986751,
				"z": 0.6204875846,
				"element": "C" 
			},
			{
				"x": -2.9467907875,
				"y": 4.7579192526,
				"z": -0.0788441965,
				"element": "C" 
			},
			{
				"x": -4.2425478605,
				"y": 5.8656192485,
				"z": -0.5011303262,
				"element": "Cl" 
			},
			{
				"x": -3.0388685846,
				"y": 3.414273301,
				"z": -0.4476312738,
				"element": "C" 
			},
			{
				"x": -2.0162052173,
				"y": 2.5311733881,
				"z": -0.1163207363,
				"element": "C" 
			},
			{
				"x": 2.2488081029,
				"y": 0.6131004121,
				"z": 1.6836343043,
				"element": "C" 
			},
			{
				"x": 3.1119259338,
				"y": 1.167704084,
				"z": 2.2384196469,
				"element": "N" 
			},
			{
				"x": 3.4921309508,
				"y": -2.0960881418,
				"z": 2.3687622317,
				"element": "H" 
			},
			{
				"x": 2.3232292909,
				"y": -3.2754853643,
				"z": 3.0111607451,
				"element": "H" 
			},
			{
				"x": 2.0020535948,
				"y": -1.5455740328,
				"z": 3.1645588753,
				"element": "H" 
			},
			{
				"x": -0.417401254,
				"y": -3.7260624111,
				"z": -2.3384980873,
				"element": "H" 
			},
			{
				"x": 0.2363357062,
				"y": -6.1181967159,
				"z": -2.0285393512,
				"element": "H" 
			},
			{
				"x": 1.6415880156,
				"y": -6.8074183356,
				"z": -0.120282366,
				"element": "H" 
			},
			{
				"x": 2.4543729503,
				"y": -5.1552019662,
				"z": 1.5426007895,
				"element": "H" 
			},
			{
				"x": 0.9627453629,
				"y": 2.5418894839,
				"z": 1.4217101288,
				"element": "H" 
			},
			{
				"x": 0.0537574604,
				"y": 4.7128083642,
				"z": 1.5008009668,
				"element": "H" 
			},
			{
				"x": -1.7737637378,
				"y": 6.2755948824,
				"z": 0.9019215339,
				"element": "H" 
			},
			{
				"x": -3.9063944729,
				"y": 3.0609400533,
				"z": -0.9937772059,
				"element": "H" 
			},
			{
				"x": -2.0687922502,
				"y": 1.4867119315,
				"z": -0.3987390262,
				"element": "H" 
			}
		],
		 "valence_orbital": [ 
			{
				"type": "occ",
				"energy": -0.27504,
				"method": "rhf"
			},
			{
				"type": "occ",
				"energy": -0.27356,
				"method": "rhf"
			},
			{
				"type": "occ",
				"energy": -0.24202,
				"method": "rhf"
			},
			{
				"type": "occ",
				"energy": -0.22747,
				"method": "rhf"
			},
			{
				"type": "occ",
				"energy": -0.2098,
				"method": "rhf"
			},
			{
				"type": "unocc",
				"energy": -0.08383,
				"method": "rhf"
			},
			{
				"type": "unocc",
				"energy": -0.02448,
				"method": "rhf"
			},
			{
				"type": "unocc",
				"energy": -0.01624,
				"method": "rhf"
			},
			{
				"type": "unocc",
				"energy": -0.00322,
				"method": "rhf"
			},
			{
				"type": "unocc",
				"energy": 0.00243,
				"method": "rhf"
			}
		],
		"cosmo_sigma_profile": { 
			"-0.025": 0.0,
			"-0.024": 0.0,
			"-0.023": 0.0,
			"-0.022": 0.0,
			"-0.021": 0.0,
			"-0.02": 0.0,
			"-0.019": 0.0,
			"-0.018": 0.0,
			"-0.017": 0.0,
			"-0.016": 0.0381521437695,
			"-0.015": 1.05141753391,
			"-0.014": 1.48235781658,
			"-0.013": 1.24637081003,
			"-0.012": 1.06791259469,
			"-0.011": 1.34988075792,
			"-0.01": 1.59110420406,
			"-0.009": 2.26986996729,
			"-0.008": 6.82164532898,
			"-0.007": 11.4417617591,
			"-0.006": 19.5858119891,
			"-0.005": 23.4735766605,
			"-0.004": 25.0266596002,
			"-0.003": 24.217147496,
			"-0.002": 18.2310242077,
			"-0.001": 19.9227537404,
			"0.0": 23.0449879617,
			"0.001": 23.7522750992,
			"0.002": 27.6450017401,
			"0.003": 29.5182592765,
			"0.004": 22.570963649,
			"0.005": 19.5200376019,
			"0.006": 9.89904184934,
			"0.007": 4.14953433397,
			"0.008": 4.86048747988,
			"0.009": 3.63987255247,
			"0.01": 4.10884095652,
			"0.011": 3.21820512522,
			"0.012": 2.70146010914,
			"0.013": 1.43824236677,
			"0.014": 1.43903434306,
			"0.015": 1.16826123331,
			"0.016": 0.961151446355,
			"0.017": 0.788291188132,
			"0.018": 0.215609088195,
			"0.019": 0.0,
			"0.02": 0.0,
			"0.021": 0.0,
			"0.022": 0.0,
			"0.023": 0.0,
			"0.024": 0.0,
			"0.025": 0.0
		}
	}
}
