{
	 "smiles": "CC(C)CN1N=C(C(O)=O)C2=C(C=CC=C2)C1=O", 
	 "Tm": 445.15, 
	 "num_atms": 32, 
	 "gaussian": { 
		 "optdone": 1, 
		 "sigma_profile": "yes", 
		 "theory": "DFT", 
		 "functional": "B3LYP", 
		 "basiset": "6-31G**", 
		 "properties": { 
			 "R2extent": 4984.1171, 
			 "electric_dipole_moment_norm": 2.42755381609, 
			 "electric_quadrupole_moment_norm": 26.0031370646, 
			 "total_energy": -839.022504198, 
			 "HOMO_LUMO_gap": 0.16425, 
			 "cosmo_polarized_energy": -13.07, 
			 "cosmo_cavitation_energy": 34.86, 
			 "cosmo_dispersion_energy": -24.63, 
			 "cosmo_repulsion_energy": 1.86, 
			 "cosmo_total_nonelectrostatic_energy": 12.08, 
			 "SMD_solvation_energy": 7.03 
		},
		"coords": [
			{
				"x": -0.2274053215,
				"y": -2.6099672916,
				"z": 2.0492785613,
				"element": "C" 
			},
			{
				"x": 0.8087720795,
				"y": -1.6801373824,
				"z": 2.697370446,
				"element": "C" 
			},
			{
				"x": 2.1389530955,
				"y": -1.7009821899,
				"z": 1.9307563305,
				"element": "C" 
			},
			{
				"x": 0.2754716543,
				"y": -0.2486806155,
				"z": 2.9222386109,
				"element": "C" 
			},
			{
				"x": 0.0279819988,
				"y": 0.5279518638,
				"z": 1.6945109944,
				"element": "N" 
			},
			{
				"x": -1.1622014162,
				"y": 0.3356393256,
				"z": 1.1084971599,
				"element": "N" 
			},
			{
				"x": -1.4946628297,
				"y": 0.9834212726,
				"z": 0.0232842158,
				"element": "C" 
			},
			{
				"x": -2.8732876309,
				"y": 0.6229925956,
				"z": -0.4814906931,
				"element": "C" 
			},
			{
				"x": -3.5134752977,
				"y": -0.2926334071,
				"z": 0.26398786,
				"element": "O" 
			},
			{
				"x": -3.3796432194,
				"y": 1.1030209212,
				"z": -1.4720788846,
				"element": "O" 
			},
			{
				"x": -0.6180340343,
				"y": 1.949019622,
				"z": -0.6108205287,
				"element": "C" 
			},
			{
				"x": 0.6288222749,
				"y": 2.1722545057,
				"z": 0.0207413138,
				"element": "C" 
			},
			{
				"x": 1.5428545386,
				"y": 3.0953175953,
				"z": -0.5087408405,
				"element": "C" 
			},
			{
				"x": 1.2242782212,
				"y": 3.7940499017,
				"z": -1.66294571,
				"element": "C" 
			},
			{
				"x": -0.0105296013,
				"y": 3.5761666364,
				"z": -2.2966466117,
				"element": "C" 
			},
			{
				"x": -0.9268734858,
				"y": 2.6684640546,
				"z": -1.7854304254,
				"element": "C" 
			},
			{
				"x": 0.9977758515,
				"y": 1.4452334795,
				"z": 1.2440274909,
				"element": "C" 
			},
			{
				"x": 2.0516448683,
				"y": 1.591355875,
				"z": 1.8531537788,
				"element": "O" 
			},
			{
				"x": 0.1552932348,
				"y": -3.6348610039,
				"z": 2.0052206917,
				"element": "H" 
			},
			{
				"x": -0.4600300679,
				"y": -2.301401098,
				"z": 1.0249973075,
				"element": "H" 
			},
			{
				"x": -1.1650041045,
				"y": -2.6280806783,
				"z": 2.6159611957,
				"element": "H" 
			},
			{
				"x": 1.0003610097,
				"y": -2.0539464986,
				"z": 3.7139641595,
				"element": "H" 
			},
			{
				"x": 2.5463613267,
				"y": -2.7168344054,
				"z": 1.9039914597,
				"element": "H" 
			},
			{
				"x": 2.002183074,
				"y": -1.3758964996,
				"z": 0.8934333875,
				"element": "H" 
			},
			{
				"x": 2.8799985786,
				"y": -1.0404576501,
				"z": 2.3881011816,
				"element": "H" 
			},
			{
				"x": -0.6729638158,
				"y": -0.2799527556,
				"z": 3.4652180903,
				"element": "H" 
			},
			{
				"x": 0.9986302434,
				"y": 0.3302494421,
				"z": 3.4978066199,
				"element": "H" 
			},
			{
				"x": -2.9166868493,
				"y": -0.5294183861,
				"z": 1.0007421081,
				"element": "H" 
			},
			{
				"x": 2.4860813763,
				"y": 3.2364948957,
				"z": 0.0071657434,
				"element": "H" 
			},
			{
				"x": 1.9282868628,
				"y": 4.5090266973,
				"z": -2.0779512282,
				"element": "H" 
			},
			{
				"x": -0.2551606693,
				"y": 4.1256332329,
				"z": -3.200920855,
				"element": "H" 
			},
			{
				"x": -1.8798919453,
				"y": 2.4983579452,
				"z": -2.2675229299,
				"element": "H" 
			}
		],
		 "valence_orbital": [ 
			{
				"type": "occ",
				"energy": -0.29475,
				"method": "rhf"
			},
			{
				"type": "occ",
				"energy": -0.2786,
				"method": "rhf"
			},
			{
				"type": "occ",
				"energy": -0.27357,
				"method": "rhf"
			},
			{
				"type": "occ",
				"energy": -0.26787,
				"method": "rhf"
			},
			{
				"type": "occ",
				"energy": -0.24495,
				"method": "rhf"
			},
			{
				"type": "unocc",
				"energy": -0.0807,
				"method": "rhf"
			},
			{
				"type": "unocc",
				"energy": -0.05722,
				"method": "rhf"
			},
			{
				"type": "unocc",
				"energy": -0.01529,
				"method": "rhf"
			},
			{
				"type": "unocc",
				"energy": 0.04745,
				"method": "rhf"
			},
			{
				"type": "unocc",
				"energy": 0.07234,
				"method": "rhf"
			}
		],
		"cosmo_sigma_profile": { 
			"-0.025": 0.0,
			"-0.024": 0.0,
			"-0.023": 0.0,
			"-0.022": 0.0,
			"-0.021": 0.0,
			"-0.02": 0.0,
			"-0.019": 0.0,
			"-0.018": 0.0,
			"-0.017": 0.0,
			"-0.016": 0.0,
			"-0.015": 0.0,
			"-0.014": 0.0,
			"-0.013": 0.0537111146008,
			"-0.012": 0.497474458176,
			"-0.011": 0.620793264242,
			"-0.01": 0.593526481632,
			"-0.009": 0.575983404647,
			"-0.008": 0.803246711002,
			"-0.007": 5.45643576315,
			"-0.006": 10.0633300747,
			"-0.005": 17.484553727,
			"-0.004": 22.4322492035,
			"-0.003": 35.5066128622,
			"-0.002": 31.25499384,
			"-0.001": 23.1985544861,
			"0.0": 22.7865100975,
			"0.001": 28.7214468042,
			"0.002": 20.0686865514,
			"0.003": 9.53786230541,
			"0.004": 3.9608502729,
			"0.005": 4.65778415585,
			"0.006": 4.17955580749,
			"0.007": 4.03942052094,
			"0.008": 4.73392223876,
			"0.009": 5.65557719771,
			"0.01": 6.99785339858,
			"0.011": 5.24825177854,
			"0.012": 5.76068883972,
			"0.013": 1.83203592112,
			"0.014": 0.0,
			"0.015": 0.0,
			"0.016": 0.0,
			"0.017": 0.0,
			"0.018": 0.0,
			"0.019": 0.0,
			"0.02": 0.0,
			"0.021": 0.0,
			"0.022": 0.0,
			"0.023": 0.0,
			"0.024": 0.0,
			"0.025": 0.0
		}
	}
}
