{
	 "smiles": "CSC1=CC=C(CC(O)=O)C=C1", 
	 "Tm": 370.65, 
	 "num_atms": 22, 
	 "gaussian": { 
		 "optdone": 1, 
		 "sigma_profile": "yes", 
		 "theory": "DFT", 
		 "functional": "B3LYP", 
		 "basiset": "6-31G**", 
		 "properties": { 
			 "R2extent": 3631.979, 
			 "electric_dipole_moment_norm": 3.14728866963, 
			 "electric_quadrupole_moment_norm": 25.6618263645, 
			 "total_energy": -897.627374632, 
			 "HOMO_LUMO_gap": 0.2005, 
			 "cosmo_polarized_energy": -18.37, 
			 "cosmo_cavitation_energy": 27.73, 
			 "cosmo_dispersion_energy": -20.67, 
			 "cosmo_repulsion_energy": 1.61, 
			 "cosmo_total_nonelectrostatic_energy": 8.67, 
			 "SMD_solvation_energy": 5.77 
		},
		"coords": [
			{
				"x": 0.3604590561,
				"y": -4.4489255841,
				"z": 0.3603895191,
				"element": "C" 
			},
			{
				"x": -0.7330655619,
				"y": -3.7010414348,
				"z": -0.889270703,
				"element": "S" 
			},
			{
				"x": -0.6651085422,
				"y": -1.9591336947,
				"z": -0.5167057306,
				"element": "C" 
			},
			{
				"x": 0.1479595718,
				"y": -1.3889334096,
				"z": 0.4719157283,
				"element": "C" 
			},
			{
				"x": 0.1372072967,
				"y": -0.010892896,
				"z": 0.6857043478,
				"element": "C" 
			},
			{
				"x": -0.677973829,
				"y": 0.8333960776,
				"z": -0.0751951022,
				"element": "C" 
			},
			{
				"x": -0.6755565684,
				"y": 2.3285025808,
				"z": 0.1351556125,
				"element": "C" 
			},
			{
				"x": -1.0372561779,
				"y": 2.7887342265,
				"z": 1.5523658228,
				"element": "C" 
			},
			{
				"x": -1.2948435895,
				"y": 4.1216897105,
				"z": 1.6626834421,
				"element": "O" 
			},
			{
				"x": -1.064952114,
				"y": 2.0886421315,
				"z": 2.5302834336,
				"element": "O" 
			},
			{
				"x": -1.4889846771,
				"y": 0.2554982307,
				"z": -1.0594975683,
				"element": "C" 
			},
			{
				"x": -1.4872220828,
				"y": -1.1180524683,
				"z": -1.2822110017,
				"element": "C" 
			},
			{
				"x": 1.3944496148,
				"y": -4.1158106573,
				"z": 0.2441978452,
				"element": "H" 
			},
			{
				"x": 0.0086721719,
				"y": -4.2426918279,
				"z": 1.3738728087,
				"element": "H" 
			},
			{
				"x": 0.3152380564,
				"y": -5.5252947607,
				"z": 0.1821908009,
				"element": "H" 
			},
			{
				"x": 0.7936554328,
				"y": -2.0072081029,
				"z": 1.0846863293,
				"element": "H" 
			},
			{
				"x": 0.7622512701,
				"y": 0.4071762962,
				"z": 1.4679270863,
				"element": "H" 
			},
			{
				"x": -1.3587602139,
				"y": 2.8064891869,
				"z": -0.5779804294,
				"element": "H" 
			},
			{
				"x": 0.3199456471,
				"y": 2.7487148054,
				"z": -0.0750527128,
				"element": "H" 
			},
			{
				"x": -1.2451824279,
				"y": 4.5487282521,
				"z": 0.7958050485,
				"element": "H" 
			},
			{
				"x": -2.1360013932,
				"y": 0.8873496025,
				"z": -1.6636026293,
				"element": "H" 
			},
			{
				"x": -2.1291309401,
				"y": -1.5403362645,
				"z": -2.0502619477,
				"element": "H" 
			}
		],
		 "valence_orbital": [ 
			{
				"type": "occ",
				"energy": -0.31723,
				"method": "rhf"
			},
			{
				"type": "occ",
				"energy": -0.28431,
				"method": "rhf"
			},
			{
				"type": "occ",
				"energy": -0.27458,
				"method": "rhf"
			},
			{
				"type": "occ",
				"energy": -0.25285,
				"method": "rhf"
			},
			{
				"type": "occ",
				"energy": -0.20797,
				"method": "rhf"
			},
			{
				"type": "unocc",
				"energy": -0.00747,
				"method": "rhf"
			},
			{
				"type": "unocc",
				"energy": -0.00288,
				"method": "rhf"
			},
			{
				"type": "unocc",
				"energy": 0.00921,
				"method": "rhf"
			},
			{
				"type": "unocc",
				"energy": 0.03613,
				"method": "rhf"
			},
			{
				"type": "unocc",
				"energy": 0.05167,
				"method": "rhf"
			}
		],
		"cosmo_sigma_profile": { 
			"-0.025": 0.0,
			"-0.024": 0.0,
			"-0.023": 0.0,
			"-0.022": 0.0,
			"-0.021": 0.0,
			"-0.02": 0.0,
			"-0.019": 0.692092150859,
			"-0.018": 1.12152229509,
			"-0.017": 1.39360244693,
			"-0.016": 0.917476814798,
			"-0.015": 0.978638488052,
			"-0.014": 1.22496402437,
			"-0.013": 1.22241738509,
			"-0.012": 0.844503166579,
			"-0.011": 1.23978247505,
			"-0.01": 1.7788374449,
			"-0.009": 1.30125772251,
			"-0.008": 3.62277937658,
			"-0.007": 7.77452327521,
			"-0.006": 14.7474801189,
			"-0.005": 19.4524519592,
			"-0.004": 16.2451912323,
			"-0.003": 14.0196621643,
			"-0.002": 14.1077763428,
			"-0.001": 10.3598954076,
			"0.0": 9.27673943576,
			"0.001": 7.71461197233,
			"0.002": 8.5911246105,
			"0.003": 9.35912502447,
			"0.004": 12.2400224511,
			"0.005": 16.3474057152,
			"0.006": 10.2341413941,
			"0.007": 6.11200013954,
			"0.008": 5.57696884927,
			"0.009": 5.77352024258,
			"0.01": 5.18106707248,
			"0.011": 6.08284036049,
			"0.012": 5.08234981972,
			"0.013": 1.42024000106,
			"0.014": 0.0232383104356,
			"0.015": 0.0,
			"0.016": 0.0,
			"0.017": 0.0,
			"0.018": 0.0,
			"0.019": 0.0,
			"0.02": 0.0,
			"0.021": 0.0,
			"0.022": 0.0,
			"0.023": 0.0,
			"0.024": 0.0,
			"0.025": 0.0
		}
	}
}
