{
	 "smiles": "CN1C(=S)NC2=C(C=CC=C2)C1=C", 
	 "Tm": 290.15, 
	 "num_atms": 23, 
	 "gaussian": { 
		 "optdone": 1, 
		 "sigma_profile": "yes", 
		 "theory": "DFT", 
		 "functional": "B3LYP", 
		 "basiset": "6-31G**", 
		 "properties": { 
			 "R2extent": 2933.1947, 
			 "electric_dipole_moment_norm": 4.21974227649, 
			 "electric_quadrupole_moment_norm": 14.4452417868, 
			 "total_energy": -894.789685973, 
			 "HOMO_LUMO_gap": 0.16879, 
			 "cosmo_polarized_energy": -12.38, 
			 "cosmo_cavitation_energy": 27.22, 
			 "cosmo_dispersion_energy": -20.95, 
			 "cosmo_repulsion_energy": 1.54, 
			 "cosmo_total_nonelectrostatic_energy": 7.82, 
			 "SMD_solvation_energy": 4.08 
		},
		"coords": [
			{
				"x": -3.3390612022,
				"y": -1.3050290267,
				"z": 0.5626074723,
				"element": "C" 
			},
			{
				"x": -1.951104088,
				"y": -0.9602125339,
				"z": 0.256424991,
				"element": "N" 
			},
			{
				"x": -1.4531233154,
				"y": -1.2505591369,
				"z": -0.992316224,
				"element": "C" 
			},
			{
				"x": -2.3014727044,
				"y": -1.9859222108,
				"z": -2.2488170065,
				"element": "S" 
			},
			{
				"x": -0.1502987496,
				"y": -0.9017837989,
				"z": -1.2101807889,
				"element": "N" 
			},
			{
				"x": 0.698365597,
				"y": -0.2910752052,
				"z": -0.2969444169,
				"element": "C" 
			},
			{
				"x": 0.2002212938,
				"y": 0.0098540513,
				"z": 0.9808972904,
				"element": "C" 
			},
			{
				"x": 1.0728668353,
				"y": 0.627149093,
				"z": 1.8908615517,
				"element": "C" 
			},
			{
				"x": 2.3846934768,
				"y": 0.9317893053,
				"z": 1.5438277874,
				"element": "C" 
			},
			{
				"x": 2.8593488298,
				"y": 0.6226075102,
				"z": 0.2643305801,
				"element": "C" 
			},
			{
				"x": 2.0187729354,
				"y": 0.0117294086,
				"z": -0.6568312149,
				"element": "C" 
			},
			{
				"x": -1.2019027497,
				"y": -0.3351524631,
				"z": 1.2984795603,
				"element": "C" 
			},
			{
				"x": -1.7648282597,
				"y": -0.0836692894,
				"z": 2.4984345678,
				"element": "C" 
			},
			{
				"x": -3.7809522805,
				"y": -1.7692845999,
				"z": -0.3145297476,
				"element": "H" 
			},
			{
				"x": -3.3687443339,
				"y": -2.000355956,
				"z": 1.4073253827,
				"element": "H" 
			},
			{
				"x": -3.8949684125,
				"y": -0.3994932247,
				"z": 0.8250592947,
				"element": "H" 
			},
			{
				"x": 0.1868950778,
				"y": -1.1272927725,
				"z": -2.1353234208,
				"element": "H" 
			},
			{
				"x": 0.723788197,
				"y": 0.8743976901,
				"z": 2.8866035894,
				"element": "H" 
			},
			{
				"x": 3.0365615228,
				"y": 1.4091569404,
				"z": 2.2682601102,
				"element": "H" 
			},
			{
				"x": 3.8822588386,
				"y": 0.8576668524,
				"z": -0.0131760532,
				"element": "H" 
			},
			{
				"x": 2.3713808228,
				"y": -0.2351238115,
				"z": -1.6545134669,
				"element": "H" 
			},
			{
				"x": -2.7860730557,
				"y": -0.3306247587,
				"z": 2.7418825501,
				"element": "H" 
			},
			{
				"x": -1.1898242754,
				"y": 0.389827937,
				"z": 3.2811376115,
				"element": "H" 
			}
		],
		 "valence_orbital": [ 
			{
				"type": "occ",
				"energy": -0.29822,
				"method": "rhf"
			},
			{
				"type": "occ",
				"energy": -0.26224,
				"method": "rhf"
			},
			{
				"type": "occ",
				"energy": -0.21467,
				"method": "rhf"
			},
			{
				"type": "occ",
				"energy": -0.21221,
				"method": "rhf"
			},
			{
				"type": "occ",
				"energy": -0.21187,
				"method": "rhf"
			},
			{
				"type": "unocc",
				"energy": -0.04308,
				"method": "rhf"
			},
			{
				"type": "unocc",
				"energy": -0.03347,
				"method": "rhf"
			},
			{
				"type": "unocc",
				"energy": 0.01116,
				"method": "rhf"
			},
			{
				"type": "unocc",
				"energy": 0.06361,
				"method": "rhf"
			},
			{
				"type": "unocc",
				"energy": 0.06775,
				"method": "rhf"
			}
		],
		"cosmo_sigma_profile": { 
			"-0.025": 0.0,
			"-0.024": 0.0,
			"-0.023": 0.0,
			"-0.022": 0.0,
			"-0.021": 0.0,
			"-0.02": 0.0,
			"-0.019": 0.0,
			"-0.018": 0.0,
			"-0.017": 0.0,
			"-0.016": 0.0804450757753,
			"-0.015": 0.927615600083,
			"-0.014": 1.09386446942,
			"-0.013": 1.31650839412,
			"-0.012": 0.885092099784,
			"-0.011": 1.1357939563,
			"-0.01": 1.13196387397,
			"-0.009": 1.25079368995,
			"-0.008": 3.20204870544,
			"-0.007": 4.73393926229,
			"-0.006": 13.2037000928,
			"-0.005": 16.3839135007,
			"-0.004": 15.2177041083,
			"-0.003": 15.6584697212,
			"-0.002": 16.5790828669,
			"-0.001": 14.5771498777,
			"0.0": 15.260345075,
			"0.001": 13.3417964823,
			"0.002": 13.1617151252,
			"0.003": 16.9297476614,
			"0.004": 15.0190004232,
			"0.005": 8.68987393681,
			"0.006": 4.9780225954,
			"0.007": 3.99213738704,
			"0.008": 4.64721886961,
			"0.009": 5.2307740477,
			"0.01": 7.03432180857,
			"0.011": 5.11222308661,
			"0.012": 0.153359758525,
			"0.013": 0.0,
			"0.014": 0.0,
			"0.015": 0.0,
			"0.016": 0.0,
			"0.017": 0.0,
			"0.018": 0.0,
			"0.019": 0.0,
			"0.02": 0.0,
			"0.021": 0.0,
			"0.022": 0.0,
			"0.023": 0.0,
			"0.024": 0.0,
			"0.025": 0.0
		}
	}
}
