{
	 "smiles": "OC(=O)CN1CCCNC1=O", 
	 "Tm": 522.15, 
	 "num_atms": 21, 
	 "gaussian": { 
		 "optdone": 1, 
		 "sigma_profile": "yes", 
		 "theory": "DFT", 
		 "functional": "B3LYP", 
		 "basiset": "6-31G**", 
		 "properties": { 
			 "R2extent": 2836.2314, 
			 "electric_dipole_moment_norm": 4.99601614289, 
			 "electric_quadrupole_moment_norm": 10.773368741, 
			 "total_energy": -569.87563171, 
			 "HOMO_LUMO_gap": 0.24383, 
			 "cosmo_polarized_energy": -17.67, 
			 "cosmo_cavitation_energy": 24.1, 
			 "cosmo_dispersion_energy": -17.82, 
			 "cosmo_repulsion_energy": 1.47, 
			 "cosmo_total_nonelectrostatic_energy": 7.74, 
			 "SMD_solvation_energy": 5.12 
		},
		"coords": [
			{
				"x": 3.1503034,
				"y": 2.1575837568,
				"z": 1.7148640728,
				"element": "O" 
			},
			{
				"x": 2.7976392019,
				"y": 2.6996546384,
				"z": 0.5266771138,
				"element": "C" 
			},
			{
				"x": 3.3994559145,
				"y": 3.6178735659,
				"z": 0.0162004132,
				"element": "O" 
			},
			{
				"x": 1.5599877105,
				"y": 2.0615718724,
				"z": -0.090130803,
				"element": "C" 
			},
			{
				"x": 1.1745678182,
				"y": 0.7811148328,
				"z": 0.451061381,
				"element": "N" 
			},
			{
				"x": 2.0043242421,
				"y": -0.3804450828,
				"z": 0.1371431789,
				"element": "C" 
			},
			{
				"x": 1.7806021192,
				"y": -1.5018948853,
				"z": 1.1485846566,
				"element": "C" 
			},
			{
				"x": 0.2865281158,
				"y": -1.7851334518,
				"z": 1.2800322005,
				"element": "C" 
			},
			{
				"x": -0.3911760744,
				"y": -0.5391423245,
				"z": 1.5980317073,
				"element": "N" 
			},
			{
				"x": -0.0410294254,
				"y": 0.7031827564,
				"z": 1.1175811168,
				"element": "C" 
			},
			{
				"x": -0.7606674227,
				"y": 1.6839560818,
				"z": 1.2974425183,
				"element": "O" 
			},
			{
				"x": 3.9208117165,
				"y": 2.6680589762,
				"z": 2.016922853,
				"element": "H" 
			},
			{
				"x": 0.7242405434,
				"y": 2.748041824,
				"z": 0.0776547641,
				"element": "H" 
			},
			{
				"x": 1.7388359473,
				"y": 2.011962354,
				"z": -1.1716878114,
				"element": "H" 
			},
			{
				"x": 1.7927870609,
				"y": -0.7392018343,
				"z": -0.8834549168,
				"element": "H" 
			},
			{
				"x": 3.054009883,
				"y": -0.0691675495,
				"z": 0.1589221241,
				"element": "H" 
			},
			{
				"x": 2.3129395503,
				"y": -2.402302238,
				"z": 0.8266189734,
				"element": "H" 
			},
			{
				"x": 2.1799045311,
				"y": -1.197548981,
				"z": 2.1217167414,
				"element": "H" 
			},
			{
				"x": -0.0943142008,
				"y": -2.2318275679,
				"z": 0.347099297,
				"element": "H" 
			},
			{
				"x": 0.097989067,
				"y": -2.5045160182,
				"z": 2.0839984212,
				"element": "H" 
			},
			{
				"x": -1.3280396984,
				"y": -0.5588207252,
				"z": 1.9716219978,
				"element": "H" 
			}
		],
		 "valence_orbital": [ 
			{
				"type": "occ",
				"energy": -0.31805,
				"method": "rhf"
			},
			{
				"type": "occ",
				"energy": -0.28382,
				"method": "rhf"
			},
			{
				"type": "occ",
				"energy": -0.25357,
				"method": "rhf"
			},
			{
				"type": "occ",
				"energy": -0.24459,
				"method": "rhf"
			},
			{
				"type": "occ",
				"energy": -0.23453,
				"method": "rhf"
			},
			{
				"type": "unocc",
				"energy": 0.0093,
				"method": "rhf"
			},
			{
				"type": "unocc",
				"energy": 0.05525,
				"method": "rhf"
			},
			{
				"type": "unocc",
				"energy": 0.06956,
				"method": "rhf"
			},
			{
				"type": "unocc",
				"energy": 0.08238,
				"method": "rhf"
			},
			{
				"type": "unocc",
				"energy": 0.11217,
				"method": "rhf"
			}
		],
		"cosmo_sigma_profile": { 
			"-0.025": 0.0,
			"-0.024": 0.0,
			"-0.023": 0.0,
			"-0.022": 0.0,
			"-0.021": 0.0,
			"-0.02": 0.0,
			"-0.019": 0.0,
			"-0.018": 0.861406116311,
			"-0.017": 1.06030428286,
			"-0.016": 0.579086848187,
			"-0.015": 0.957435207869,
			"-0.014": 0.844064319172,
			"-0.013": 2.02701894815,
			"-0.012": 1.484739729,
			"-0.011": 1.35697786519,
			"-0.01": 2.00283850758,
			"-0.009": 1.39346668185,
			"-0.008": 1.16391858018,
			"-0.007": 3.77490218951,
			"-0.006": 8.12592481962,
			"-0.005": 13.6794349683,
			"-0.004": 23.8008858809,
			"-0.003": 23.3857766527,
			"-0.002": 16.4340740949,
			"-0.001": 9.42696665235,
			"0.0": 6.93875666952,
			"0.001": 6.35568407749,
			"0.002": 4.56020691021,
			"0.003": 4.83175327184,
			"0.004": 5.41032785362,
			"0.005": 6.38845071206,
			"0.006": 5.57815757742,
			"0.007": 3.58759024395,
			"0.008": 3.78699448771,
			"0.009": 3.25474861021,
			"0.01": 3.31190444783,
			"0.011": 5.28220944771,
			"0.012": 6.03120442602,
			"0.013": 2.28280151563,
			"0.014": 4.3336207313,
			"0.015": 4.07559739826,
			"0.016": 0.245587082637,
			"0.017": 0.0,
			"0.018": 0.0,
			"0.019": 0.0,
			"0.02": 0.0,
			"0.021": 0.0,
			"0.022": 0.0,
			"0.023": 0.0,
			"0.024": 0.0,
			"0.025": 0.0
		}
	}
}
