{
	 "smiles": "CN(CC(O)=O)C(=O)C1=C(Cl)N=NC(Cl)=C1", 
	 "Tm": 449.15, 
	 "num_atms": 23, 
	 "gaussian": { 
		 "optdone": 1, 
		 "sigma_profile": "yes", 
		 "theory": "DFT", 
		 "functional": "B3LYP", 
		 "basiset": "6-31G**", 
		 "properties": { 
			 "R2extent": 5647.0395, 
			 "electric_dipole_moment_norm": 6.22001629901, 
			 "electric_quadrupole_moment_norm": 15.2626324532, 
			 "total_energy": -1619.34540066, 
			 "HOMO_LUMO_gap": 0.1802, 
			 "cosmo_polarized_energy": -20.78, 
			 "cosmo_cavitation_energy": 32.52, 
			 "cosmo_dispersion_energy": -22.77, 
			 "cosmo_repulsion_energy": 1.79, 
			 "cosmo_total_nonelectrostatic_energy": 11.54, 
			 "SMD_solvation_energy": 5.01 
		},
		"coords": [
			{
				"x": 0.0776045914,
				"y": -1.9569596372,
				"z": 2.5213853068,
				"element": "C" 
			},
			{
				"x": 1.065774647,
				"y": -1.4628296928,
				"z": 1.5679495714,
				"element": "N" 
			},
			{
				"x": 2.4629401921,
				"y": -1.6370903502,
				"z": 1.9109437998,
				"element": "C" 
			},
			{
				"x": 2.9135504933,
				"y": -0.7183874657,
				"z": 3.0405115515,
				"element": "C" 
			},
			{
				"x": 4.2109074164,
				"y": -0.9475697441,
				"z": 3.3368962798,
				"element": "O" 
			},
			{
				"x": 2.228776755,
				"y": 0.0992146632,
				"z": 3.6092711596,
				"element": "O" 
			},
			{
				"x": 0.7818071844,
				"y": -0.7492094881,
				"z": 0.4377190099,
				"element": "C" 
			},
			{
				"x": 1.6357018588,
				"y": -0.3316629906,
				"z": -0.3362258873,
				"element": "O" 
			},
			{
				"x": -0.6724382598,
				"y": -0.5137935411,
				"z": 0.0834587715,
				"element": "C" 
			},
			{
				"x": -1.4924936834,
				"y": 0.4653934093,
				"z": 0.6827365711,
				"element": "C" 
			},
			{
				"x": -0.890204835,
				"y": 1.4056746071,
				"z": 2.0223170767,
				"element": "Cl" 
			},
			{
				"x": -2.7254513708,
				"y": 0.7473105182,
				"z": 0.2922418322,
				"element": "N" 
			},
			{
				"x": -3.2650650862,
				"y": 0.0848181215,
				"z": -0.734957158,
				"element": "N" 
			},
			{
				"x": -2.5370718575,
				"y": -0.8301979478,
				"z": -1.3555702069,
				"element": "C" 
			},
			{
				"x": -3.3014847453,
				"y": -1.645441123,
				"z": -2.6968890559,
				"element": "Cl" 
			},
			{
				"x": -1.2257025861,
				"y": -1.1708090362,
				"z": -1.0024636648,
				"element": "C" 
			},
			{
				"x": 0.1015981867,
				"y": -1.3686864253,
				"z": 3.4426297422,
				"element": "H" 
			},
			{
				"x": -0.9220632714,
				"y": -1.9043204489,
				"z": 2.0916510027,
				"element": "H" 
			},
			{
				"x": 0.2909378002,
				"y": -3.0061312714,
				"z": 2.7547968758,
				"element": "H" 
			},
			{
				"x": 2.6572793523,
				"y": -2.674904532,
				"z": 2.206795325,
				"element": "H" 
			},
			{
				"x": 3.0656835773,
				"y": -1.4195319228,
				"z": 1.0260314945,
				"element": "H" 
			},
			{
				"x": 4.4469359098,
				"y": -0.3321191828,
				"z": 4.0515153061,
				"element": "H" 
			},
			{
				"x": -0.6680222693,
				"y": -1.9147665193,
				"z": -1.5595447034,
				"element": "H" 
			}
		],
		 "valence_orbital": [ 
			{
				"type": "occ",
				"energy": -0.3019,
				"method": "rhf"
			},
			{
				"type": "occ",
				"energy": -0.28779,
				"method": "rhf"
			},
			{
				"type": "occ",
				"energy": -0.27942,
				"method": "rhf"
			},
			{
				"type": "occ",
				"energy": -0.26965,
				"method": "rhf"
			},
			{
				"type": "occ",
				"energy": -0.26246,
				"method": "rhf"
			},
			{
				"type": "unocc",
				"energy": -0.08226,
				"method": "rhf"
			},
			{
				"type": "unocc",
				"energy": -0.05569,
				"method": "rhf"
			},
			{
				"type": "unocc",
				"energy": -0.01067,
				"method": "rhf"
			},
			{
				"type": "unocc",
				"energy": -0.00859,
				"method": "rhf"
			},
			{
				"type": "unocc",
				"energy": 0.01666,
				"method": "rhf"
			}
		],
		"cosmo_sigma_profile": { 
			"-0.025": 0.0,
			"-0.024": 0.0,
			"-0.023": 0.0,
			"-0.022": 0.0,
			"-0.021": 0.0,
			"-0.02": 0.0,
			"-0.019": 0.287845254218,
			"-0.018": 1.28007727907,
			"-0.017": 0.654182317846,
			"-0.016": 0.90462779625,
			"-0.015": 0.749636120367,
			"-0.014": 0.504020309021,
			"-0.013": 0.993941981986,
			"-0.012": 0.870352944878,
			"-0.011": 2.04613348748,
			"-0.01": 2.77765159025,
			"-0.009": 4.60712376415,
			"-0.008": 9.37399928118,
			"-0.007": 9.90313542705,
			"-0.006": 12.4476759175,
			"-0.005": 14.2027367675,
			"-0.004": 20.440353314,
			"-0.003": 19.7265576333,
			"-0.002": 15.5410190741,
			"-0.001": 11.8491091859,
			"0.0": 12.7747221554,
			"0.001": 14.8315483794,
			"0.002": 20.1873676224,
			"0.003": 17.7333588466,
			"0.004": 10.0535666249,
			"0.005": 7.29838753229,
			"0.006": 8.76099902676,
			"0.007": 8.21070510559,
			"0.008": 6.27071471387,
			"0.009": 6.30267121211,
			"0.01": 7.41950224843,
			"0.011": 6.97072358091,
			"0.012": 6.67478274815,
			"0.013": 2.12653830886,
			"0.014": 0.00954753540902,
			"0.015": 0.0,
			"0.016": 0.0,
			"0.017": 0.0,
			"0.018": 0.0,
			"0.019": 0.0,
			"0.02": 0.0,
			"0.021": 0.0,
			"0.022": 0.0,
			"0.023": 0.0,
			"0.024": 0.0,
			"0.025": 0.0
		}
	}
}
