{
	 "smiles": "CC1=CC(C)=C(C=O)C(C)=C1", 
	 "Tm": 287.15, 
	 "num_atms": 23, 
	 "gaussian": { 
		 "optdone": 1, 
		 "sigma_profile": "yes", 
		 "theory": "DFT", 
		 "functional": "B3LYP", 
		 "basiset": "6-31G**", 
		 "properties": { 
			 "R2extent": 1919.5978, 
			 "electric_dipole_moment_norm": 3.44394498214, 
			 "electric_quadrupole_moment_norm": 8.2259670623, 
			 "total_energy": -463.53026794, 
			 "HOMO_LUMO_gap": 0.18339, 
			 "cosmo_polarized_energy": -7.05, 
			 "cosmo_cavitation_energy": 25.7, 
			 "cosmo_dispersion_energy": -18.72, 
			 "cosmo_repulsion_energy": 1.49, 
			 "cosmo_total_nonelectrostatic_energy": 8.47, 
			 "SMD_solvation_energy": 5.44 
		},
		"coords": [
			{
				"x": -0.8003410158,
				"y": -2.2131816981,
				"z": 2.4543222501,
				"element": "C" 
			},
			{
				"x": -0.457815165,
				"y": -1.2598043751,
				"z": 1.3359332242,
				"element": "C" 
			},
			{
				"x": 0.6247454855,
				"y": -1.5103182875,
				"z": 0.4861018804,
				"element": "C" 
			},
			{
				"x": 0.9423454258,
				"y": -0.6595858249,
				"z": -0.572757006,
				"element": "C" 
			},
			{
				"x": 2.1353781565,
				"y": -1.0128392385,
				"z": -1.440460042,
				"element": "C" 
			},
			{
				"x": 0.1458633784,
				"y": 0.4952260167,
				"z": -0.7931915656,
				"element": "C" 
			},
			{
				"x": 0.4884838255,
				"y": 1.3936607614,
				"z": -1.9146730399,
				"element": "C" 
			},
			{
				"x": -0.1016128395,
				"y": 2.4171200003,
				"z": -2.2259334,
				"element": "O" 
			},
			{
				"x": -0.95580712,
				"y": 0.7695094275,
				"z": 0.0612204107,
				"element": "C" 
			},
			{
				"x": -1.8437080145,
				"y": 1.9785067145,
				"z": -0.1085255902,
				"element": "C" 
			},
			{
				"x": -1.2283034087,
				"y": -0.1163657898,
				"z": 1.1064244482,
				"element": "C" 
			},
			{
				"x": -1.4998015614,
				"y": -2.9850613774,
				"z": 2.1090584904,
				"element": "H" 
			},
			{
				"x": 0.089506234,
				"y": -2.7263601249,
				"z": 2.8306366999,
				"element": "H" 
			},
			{
				"x": -1.2770737167,
				"y": -1.6942557277,
				"z": 3.2910247215,
				"element": "H" 
			},
			{
				"x": 1.2380534706,
				"y": -2.3924298283,
				"z": 0.6551830207,
				"element": "H" 
			},
			{
				"x": 2.5933831932,
				"y": -1.940107203,
				"z": -1.087064858,
				"element": "H" 
			},
			{
				"x": 2.9084371516,
				"y": -0.2373079332,
				"z": -1.4197801802,
				"element": "H" 
			},
			{
				"x": 1.856415434,
				"y": -1.1643988106,
				"z": -2.488607004,
				"element": "H" 
			},
			{
				"x": 1.3690934478,
				"y": 1.0799977849,
				"z": -2.509777508,
				"element": "H" 
			},
			{
				"x": -2.3192559732,
				"y": 1.993435584,
				"z": -1.0929831788,
				"element": "H" 
			},
			{
				"x": -2.6206100488,
				"y": 1.9849522337,
				"z": 0.6613950434,
				"element": "H" 
			},
			{
				"x": -1.2734446347,
				"y": 2.9092759922,
				"z": -0.0456445317,
				"element": "H" 
			},
			{
				"x": -2.0692317046,
				"y": 0.0952317037,
				"z": 1.7628977148,
				"element": "H" 
			}
		],
		 "valence_orbital": [ 
			{
				"type": "occ",
				"energy": -0.33962,
				"method": "rhf"
			},
			{
				"type": "occ",
				"energy": -0.33659,
				"method": "rhf"
			},
			{
				"type": "occ",
				"energy": -0.24565,
				"method": "rhf"
			},
			{
				"type": "occ",
				"energy": -0.24426,
				"method": "rhf"
			},
			{
				"type": "occ",
				"energy": -0.23993,
				"method": "rhf"
			},
			{
				"type": "unocc",
				"energy": -0.05654,
				"method": "rhf"
			},
			{
				"type": "unocc",
				"energy": -0.00225,
				"method": "rhf"
			},
			{
				"type": "unocc",
				"energy": 0.04442,
				"method": "rhf"
			},
			{
				"type": "unocc",
				"energy": 0.09694,
				"method": "rhf"
			},
			{
				"type": "unocc",
				"energy": 0.10346,
				"method": "rhf"
			}
		],
		"cosmo_sigma_profile": { 
			"-0.025": 0.0,
			"-0.024": 0.0,
			"-0.023": 0.0,
			"-0.022": 0.0,
			"-0.021": 0.0,
			"-0.02": 0.0,
			"-0.019": 0.0,
			"-0.018": 0.0,
			"-0.017": 0.0,
			"-0.016": 0.0,
			"-0.015": 0.0,
			"-0.014": 0.0,
			"-0.013": 0.0,
			"-0.012": 0.0,
			"-0.011": 0.0,
			"-0.01": 0.0,
			"-0.009": 0.0,
			"-0.008": 0.0,
			"-0.007": 0.0,
			"-0.006": 2.11234568748,
			"-0.005": 17.4360483956,
			"-0.004": 21.6356439417,
			"-0.003": 20.3705030856,
			"-0.002": 19.9373875248,
			"-0.001": 24.8955678255,
			"0.0": 25.4092524004,
			"0.001": 17.0711134528,
			"0.002": 9.8433343338,
			"0.003": 10.0086855397,
			"0.004": 10.8694883179,
			"0.005": 6.47265140097,
			"0.006": 1.66372659697,
			"0.007": 1.44248348428,
			"0.008": 2.16975520495,
			"0.009": 1.73077599821,
			"0.01": 1.52020098159,
			"0.011": 2.44914093577,
			"0.012": 3.21760281677,
			"0.013": 2.08224981391,
			"0.014": 0.505119527294,
			"0.015": 0.0,
			"0.016": 0.0,
			"0.017": 0.0,
			"0.018": 0.0,
			"0.019": 0.0,
			"0.02": 0.0,
			"0.021": 0.0,
			"0.022": 0.0,
			"0.023": 0.0,
			"0.024": 0.0,
			"0.025": 0.0
		}
	}
}
