{
	 "smiles": "CCOC(=O)C1=C(NC(=S)NC2=CC=C(F)C=C2)SC2=C1CCCC2", 
	 "Tm": 483.15, 
	 "num_atms": 44, 
	 "gaussian": { 
		 "optdone": 1, 
		 "sigma_profile": "yes", 
		 "theory": "DFT", 
		 "functional": "B3LYP", 
		 "basiset": "6-31G**", 
		 "properties": { 
			 "R2extent": 16327.2551, 
			 "electric_dipole_moment_norm": 7.3275599015, 
			 "electric_quadrupole_moment_norm": 23.8161776039, 
			 "total_energy": -1853.56412231, 
			 "HOMO_LUMO_gap": 0.14351, 
			 "cosmo_polarized_energy": -17.09, 
			 "cosmo_cavitation_energy": 50.11, 
			 "cosmo_dispersion_energy": -35.94, 
			 "cosmo_repulsion_energy": 2.65, 
			 "cosmo_total_nonelectrostatic_energy": 16.81, 
			 "SMD_solvation_energy": 7.73 
		},
		"coords": [
			{
				"x": -3.2153505348,
				"y": 4.0706779788,
				"z": -2.4962290534,
				"element": "C" 
			},
			{
				"x": -3.4431735171,
				"y": 3.1237259021,
				"z": -1.3336917957,
				"element": "C" 
			},
			{
				"x": -2.2438211709,
				"y": 2.3258824337,
				"z": -1.1813052507,
				"element": "O" 
			},
			{
				"x": -2.2688826137,
				"y": 1.4118520751,
				"z": -0.1904529942,
				"element": "C" 
			},
			{
				"x": -3.2514488856,
				"y": 1.2761587198,
				"z": 0.536077765,
				"element": "O" 
			},
			{
				"x": -1.0440496854,
				"y": 0.6090727309,
				"z": -0.0845317134,
				"element": "C" 
			},
			{
				"x": -0.9375527694,
				"y": -0.364007611,
				"z": 0.9130496479,
				"element": "C" 
			},
			{
				"x": -1.920938437,
				"y": -0.6443473386,
				"z": 1.8365982702,
				"element": "N" 
			},
			{
				"x": -1.9513525782,
				"y": -1.4585783351,
				"z": 2.9555271855,
				"element": "C" 
			},
			{
				"x": -3.4290185553,
				"y": -1.8605589966,
				"z": 3.6262288144,
				"element": "S" 
			},
			{
				"x": -0.7191010138,
				"y": -1.8294170067,
				"z": 3.4220722905,
				"element": "N" 
			},
			{
				"x": -0.3901222288,
				"y": -2.7267517352,
				"z": 4.4695285455,
				"element": "C" 
			},
			{
				"x": -1.0831687072,
				"y": -3.9251366106,
				"z": 4.6880910945,
				"element": "C" 
			},
			{
				"x": -0.6689335018,
				"y": -4.7927281628,
				"z": 5.6956598094,
				"element": "C" 
			},
			{
				"x": 0.4411237808,
				"y": -4.4656518987,
				"z": 6.4667570872,
				"element": "C" 
			},
			{
				"x": 0.8401090106,
				"y": -5.312307201,
				"z": 7.4391288736,
				"element": "F" 
			},
			{
				"x": 1.1522468716,
				"y": -3.2906438655,
				"z": 6.2591002031,
				"element": "C" 
			},
			{
				"x": 0.7270158598,
				"y": -2.4198295257,
				"z": 5.2577945785,
				"element": "C" 
			},
			{
				"x": 0.5616095307,
				"y": -1.257692825,
				"z": 0.7602111169,
				"element": "S" 
			},
			{
				"x": 1.0587744692,
				"y": -0.2866733013,
				"z": -0.6157101167,
				"element": "C" 
			},
			{
				"x": 0.1235528611,
				"y": 0.6495675524,
				"z": -0.9472613861,
				"element": "C" 
			},
			{
				"x": 0.3578063733,
				"y": 1.5942810811,
				"z": -2.107009712,
				"element": "C" 
			},
			{
				"x": 1.8213179091,
				"y": 1.576716413,
				"z": -2.5812660677,
				"element": "C" 
			},
			{
				"x": 2.3783874228,
				"y": 0.1513747064,
				"z": -2.6792523779,
				"element": "C" 
			},
			{
				"x": 2.3777956274,
				"y": -0.5262107422,
				"z": -1.2981560111,
				"element": "C" 
			},
			{
				"x": -2.3657016365,
				"y": 4.7324316749,
				"z": -2.3044491898,
				"element": "H" 
			},
			{
				"x": -4.1050029346,
				"y": 4.6901629258,
				"z": -2.6457936203,
				"element": "H" 
			},
			{
				"x": -3.0224560575,
				"y": 3.518708832,
				"z": -3.4206133469,
				"element": "H" 
			},
			{
				"x": -4.2908204318,
				"y": 2.4540245216,
				"z": -1.5068444514,
				"element": "H" 
			},
			{
				"x": -3.6321978946,
				"y": 3.6574221647,
				"z": -0.3974406431,
				"element": "H" 
			},
			{
				"x": -2.7953694591,
				"y": -0.1503987676,
				"z": 1.6315936577,
				"element": "H" 
			},
			{
				"x": 0.0556318018,
				"y": -1.2446677222,
				"z": 3.1314482527,
				"element": "H" 
			},
			{
				"x": -1.942940423,
				"y": -4.1703533988,
				"z": 4.0797336985,
				"element": "H" 
			},
			{
				"x": -1.1950087858,
				"y": -5.7224046246,
				"z": 5.882647005,
				"element": "H" 
			},
			{
				"x": 2.0137360506,
				"y": -3.0638773724,
				"z": 6.8771945591,
				"element": "H" 
			},
			{
				"x": 1.264228002,
				"y": -1.4893341774,
				"z": 5.0935140469,
				"element": "H" 
			},
			{
				"x": 0.0671615043,
				"y": 2.6087427765,
				"z": -1.8238261571,
				"element": "H" 
			},
			{
				"x": -0.3113893385,
				"y": 1.3198456677,
				"z": -2.9336420687,
				"element": "H" 
			},
			{
				"x": 1.8949030082,
				"y": 2.083944734,
				"z": -3.5494890978,
				"element": "H" 
			},
			{
				"x": 2.4377504398,
				"y": 2.1526859697,
				"z": -1.8780411707,
				"element": "H" 
			},
			{
				"x": 3.3959627342,
				"y": 0.1595958437,
				"z": -3.0847071297,
				"element": "H" 
			},
			{
				"x": 1.7621808909,
				"y": -0.4362223016,
				"z": -3.3717627001,
				"element": "H" 
			},
			{
				"x": 3.1991699277,
				"y": -0.1245970469,
				"z": -0.6866170856,
				"element": "H" 
			},
			{
				"x": 2.5712370845,
				"y": -1.6008841369,
				"z": -1.4019633621,
				"element": "H" 
			}
		],
		 "valence_orbital": [ 
			{
				"type": "occ",
				"energy": -0.26453,
				"method": "rhf"
			},
			{
				"type": "occ",
				"energy": -0.25899,
				"method": "rhf"
			},
			{
				"type": "occ",
				"energy": -0.21737,
				"method": "rhf"
			},
			{
				"type": "occ",
				"energy": -0.21033,
				"method": "rhf"
			},
			{
				"type": "occ",
				"energy": -0.20344,
				"method": "rhf"
			},
			{
				"type": "unocc",
				"energy": -0.05993,
				"method": "rhf"
			},
			{
				"type": "unocc",
				"energy": -0.01402,
				"method": "rhf"
			},
			{
				"type": "unocc",
				"energy": -0.01254,
				"method": "rhf"
			},
			{
				"type": "unocc",
				"energy": 0.00133,
				"method": "rhf"
			},
			{
				"type": "unocc",
				"energy": 0.01072,
				"method": "rhf"
			}
		],
		"cosmo_sigma_profile": { 
			"-0.025": 0.0,
			"-0.024": 0.0,
			"-0.023": 0.0,
			"-0.022": 0.0,
			"-0.021": 0.0,
			"-0.02": 0.0,
			"-0.019": 0.0,
			"-0.018": 0.0,
			"-0.017": 0.0,
			"-0.016": 0.0,
			"-0.015": 0.014764082175,
			"-0.014": 0.816177261729,
			"-0.013": 1.35011112101,
			"-0.012": 1.39322927901,
			"-0.011": 0.879421814421,
			"-0.01": 1.69985259522,
			"-0.009": 1.66419773863,
			"-0.008": 2.78702876736,
			"-0.007": 5.96098537118,
			"-0.006": 7.99837827164,
			"-0.005": 16.545035376,
			"-0.004": 24.340062919,
			"-0.003": 39.4378697842,
			"-0.002": 47.9390183474,
			"-0.001": 45.0420612207,
			"0.0": 46.2436448048,
			"0.001": 34.7512584346,
			"0.002": 26.9270077518,
			"0.003": 26.7499382936,
			"0.004": 20.8630185421,
			"0.005": 10.7420439871,
			"0.006": 5.00450515352,
			"0.007": 6.85788059772,
			"0.008": 6.05971174033,
			"0.009": 7.795379342,
			"0.01": 6.68424430406,
			"0.011": 4.76118350013,
			"0.012": 1.12908412857,
			"0.013": 0.0,
			"0.014": 0.0,
			"0.015": 0.0,
			"0.016": 0.0,
			"0.017": 0.0,
			"0.018": 0.0,
			"0.019": 0.0,
			"0.02": 0.0,
			"0.021": 0.0,
			"0.022": 0.0,
			"0.023": 0.0,
			"0.024": 0.0,
			"0.025": 0.0
		}
	}
}
