{
	 "smiles": "COC1=C(CBr)C=CC(=C1)C#N", 
	 "Tm": 363.15, 
	 "num_atms": 20, 
	 "gaussian": { 
		 "optdone": 1, 
		 "sigma_profile": "yes", 
		 "theory": "DFT", 
		 "functional": "B3LYP", 
		 "basiset": "6-31G**", 
		 "properties": { 
			 "R2extent": 4436.1722, 
			 "electric_dipole_moment_norm": 3.42871387841, 
			 "electric_quadrupole_moment_norm": 26.4192192782, 
			 "total_energy": -3049.13596453, 
			 "HOMO_LUMO_gap": 0.17685, 
			 "cosmo_polarized_energy": -12.36, 
			 "cosmo_cavitation_energy": 27.66, 
			 "cosmo_dispersion_energy": -19.53, 
			 "cosmo_repulsion_energy": 1.58, 
			 "cosmo_total_nonelectrostatic_energy": 9.71, 
			 "SMD_solvation_energy": 5.73 
		},
		"coords": [
			{
				"x": 0.8551889825,
				"y": -3.6816389205,
				"z": -1.3506633674,
				"element": "C" 
			},
			{
				"x": -0.175391384,
				"y": -2.7649523435,
				"z": -1.0001254758,
				"element": "O" 
			},
			{
				"x": 0.1480759097,
				"y": -1.6554388755,
				"z": -0.2888120564,
				"element": "C" 
			},
			{
				"x": -0.9333919744,
				"y": -0.8054599145,
				"z": 0.0452140366,
				"element": "C" 
			},
			{
				"x": -2.3179708525,
				"y": -1.1509222118,
				"z": -0.3839752392,
				"element": "C" 
			},
			{
				"x": -3.2046501253,
				"y": -2.4161300225,
				"z": 0.8962031637,
				"element": "Br" 
			},
			{
				"x": -0.6750473004,
				"y": 0.3564641343,
				"z": 0.7759036599,
				"element": "C" 
			},
			{
				"x": 0.6142329986,
				"y": 0.6982496701,
				"z": 1.1758544744,
				"element": "C" 
			},
			{
				"x": 1.6759013109,
				"y": -0.1503811701,
				"z": 0.8361536115,
				"element": "C" 
			},
			{
				"x": 1.4470661267,
				"y": -1.3279284445,
				"z": 0.1024871494,
				"element": "C" 
			},
			{
				"x": 3.0148495847,
				"y": 0.1782517055,
				"z": 1.2324992915,
				"element": "C" 
			},
			{
				"x": 4.1017512756,
				"y": 0.4432972004,
				"z": 1.5514114595,
				"element": "N" 
			},
			{
				"x": 1.3450891013,
				"y": -4.0903429274,
				"z": -0.4590655862,
				"element": "H" 
			},
			{
				"x": 0.3627908365,
				"y": -4.4884880632,
				"z": -1.8938887293,
				"element": "H" 
			},
			{
				"x": 1.6063993428,
				"y": -3.2125221859,
				"z": -1.9977083034,
				"element": "H" 
			},
			{
				"x": -2.3433595023,
				"y": -1.6764950836,
				"z": -1.3347527842,
				"element": "H" 
			},
			{
				"x": -2.9714544295,
				"y": -0.2815059822,
				"z": -0.4028415364,
				"element": "H" 
			},
			{
				"x": -1.5063802314,
				"y": 1.0046687772,
				"z": 1.0380758623,
				"element": "H" 
			},
			{
				"x": 0.8014414341,
				"y": 1.6039131089,
				"z": 1.7409718068,
				"element": "H" 
			},
			{
				"x": 2.2861588965,
				"y": -1.9639384511,
				"z": -0.1470414372,
				"element": "H" 
			}
		],
		 "valence_orbital": [ 
			{
				"type": "occ",
				"energy": -0.33011,
				"method": "rhf"
			},
			{
				"type": "occ",
				"energy": -0.27989,
				"method": "rhf"
			},
			{
				"type": "occ",
				"energy": -0.27331,
				"method": "rhf"
			},
			{
				"type": "occ",
				"energy": -0.26908,
				"method": "rhf"
			},
			{
				"type": "occ",
				"energy": -0.24546,
				"method": "rhf"
			},
			{
				"type": "unocc",
				"energy": -0.06861,
				"method": "rhf"
			},
			{
				"type": "unocc",
				"energy": -0.01849,
				"method": "rhf"
			},
			{
				"type": "unocc",
				"energy": 0.00202,
				"method": "rhf"
			},
			{
				"type": "unocc",
				"energy": 0.03316,
				"method": "rhf"
			},
			{
				"type": "unocc",
				"energy": 0.0739,
				"method": "rhf"
			}
		],
		"cosmo_sigma_profile": { 
			"-0.025": 0.0,
			"-0.024": 0.0,
			"-0.023": 0.0,
			"-0.022": 0.0,
			"-0.021": 0.0,
			"-0.02": 0.0,
			"-0.019": 0.0,
			"-0.018": 0.0,
			"-0.017": 0.0,
			"-0.016": 0.0,
			"-0.015": 0.0,
			"-0.014": 0.0,
			"-0.013": 0.0,
			"-0.012": 0.0,
			"-0.011": 0.0,
			"-0.01": 0.0,
			"-0.009": 0.946928682546,
			"-0.008": 7.90468538102,
			"-0.007": 12.272934481,
			"-0.006": 17.7347226734,
			"-0.005": 16.0474036857,
			"-0.004": 16.6425421202,
			"-0.003": 12.0023061815,
			"-0.002": 12.3501063185,
			"-0.001": 13.5657871243,
			"0.0": 13.3618676998,
			"0.001": 18.1485298043,
			"0.002": 14.3278941928,
			"0.003": 10.3422214639,
			"0.004": 9.53316982554,
			"0.005": 10.6866710892,
			"0.006": 14.2061222273,
			"0.007": 8.00355974448,
			"0.008": 4.20302504249,
			"0.009": 3.68704311078,
			"0.01": 2.83514150114,
			"0.011": 2.86908546417,
			"0.012": 2.41301850631,
			"0.013": 1.2957051235,
			"0.014": 0.0107488828933,
			"0.015": 0.0,
			"0.016": 0.0,
			"0.017": 0.0,
			"0.018": 0.0,
			"0.019": 0.0,
			"0.02": 0.0,
			"0.021": 0.0,
			"0.022": 0.0,
			"0.023": 0.0,
			"0.024": 0.0,
			"0.025": 0.0
		}
	}
}
