{
	 "smiles": "NC1=CC(=CC=C1)C(=O)NC1=NC=CC=C1", 
	 "Tm": 385.15, 
	 "num_atms": 27, 
	 "gaussian": { 
		 "optdone": 1, 
		 "sigma_profile": "yes", 
		 "theory": "DFT", 
		 "functional": "B3LYP", 
		 "basiset": "6-31G**", 
		 "properties": { 
			 "R2extent": 4120.9428, 
			 "electric_dipole_moment_norm": 4.78402238812, 
			 "electric_quadrupole_moment_norm": 15.3517488685, 
			 "total_energy": -703.400662457, 
			 "HOMO_LUMO_gap": 0.1702, 
			 "cosmo_polarized_energy": -16.4, 
			 "cosmo_cavitation_energy": 31.59, 
			 "cosmo_dispersion_energy": -22.5, 
			 "cosmo_repulsion_energy": 1.77, 
			 "cosmo_total_nonelectrostatic_energy": 10.86, 
			 "SMD_solvation_energy": 4.59 
		},
		"coords": [
			{
				"x": -1.5960688137,
				"y": -3.1076717309,
				"z": 0.9002611959,
				"element": "N" 
			},
			{
				"x": -1.9022153617,
				"y": -2.0210129336,
				"z": 0.0800445745,
				"element": "C" 
			},
			{
				"x": -1.7577698242,
				"y": -0.70586213,
				"z": 0.5497809579,
				"element": "C" 
			},
			{
				"x": -2.0233041799,
				"y": 0.3829245023,
				"z": -0.2876010232,
				"element": "C" 
			},
			{
				"x": -2.4531115727,
				"y": 0.174999922,
				"z": -1.6041952821,
				"element": "C" 
			},
			{
				"x": -2.5765966103,
				"y": -1.1299276583,
				"z": -2.0788234838,
				"element": "C" 
			},
			{
				"x": -2.3058154739,
				"y": -2.2185856374,
				"z": -1.2528290976,
				"element": "C" 
			},
			{
				"x": -1.9809813325,
				"y": 1.7908569663,
				"z": 0.2239187327,
				"element": "C" 
			},
			{
				"x": -2.8440903133,
				"y": 2.6021018702,
				"z": -0.0847574127,
				"element": "O" 
			},
			{
				"x": -0.9942065091,
				"y": 2.1626654519,
				"z": 1.131385664,
				"element": "N" 
			},
			{
				"x": 0.3238088232,
				"y": 1.7352159915,
				"z": 1.3584019841,
				"element": "C" 
			},
			{
				"x": 0.8692452372,
				"y": 2.2815962438,
				"z": 2.4547838982,
				"element": "N" 
			},
			{
				"x": 2.1343507659,
				"y": 1.966564498,
				"z": 2.7520993794,
				"element": "C" 
			},
			{
				"x": 2.9154361455,
				"y": 1.0982296766,
				"z": 1.9933485866,
				"element": "C" 
			},
			{
				"x": 2.3424636051,
				"y": 0.5532573828,
				"z": 0.8420811548,
				"element": "C" 
			},
			{
				"x": 1.0339509791,
				"y": 0.8760666952,
				"z": 0.5018502258,
				"element": "C" 
			},
			{
				"x": -1.637165608,
				"y": -2.922931882,
				"z": 1.893109978,
				"element": "H" 
			},
			{
				"x": -2.0583676354,
				"y": -3.9734293917,
				"z": 0.6589618153,
				"element": "H" 
			},
			{
				"x": -1.4474251926,
				"y": -0.535929572,
				"z": 1.576772103,
				"element": "H" 
			},
			{
				"x": -2.6911365863,
				"y": 1.0296512215,
				"z": -2.2269573549,
				"element": "H" 
			},
			{
				"x": -2.897243083,
				"y": -1.3054566144,
				"z": -3.1017297944,
				"element": "H" 
			},
			{
				"x": -2.4092941029,
				"y": -3.2315403872,
				"z": -1.6342067362,
				"element": "H" 
			},
			{
				"x": -1.2051939899,
				"y": 3.0384092882,
				"z": 1.5972596283,
				"element": "H" 
			},
			{
				"x": 2.5390208787,
				"y": 2.4369752282,
				"z": 3.6466213432,
				"element": "H" 
			},
			{
				"x": 3.9352624447,
				"y": 0.8709230168,
				"z": 2.2843080645,
				"element": "H" 
			},
			{
				"x": 2.9149893549,
				"y": -0.1100387281,
				"z": 0.2000835146,
				"element": "H" 
			},
			{
				"x": 0.5808579551,
				"y": 0.4859487104,
				"z": -0.3993726158,
				"element": "H" 
			}
		],
		 "valence_orbital": [ 
			{
				"type": "occ",
				"energy": -0.26864,
				"method": "rhf"
			},
			{
				"type": "occ",
				"energy": -0.26077,
				"method": "rhf"
			},
			{
				"type": "occ",
				"energy": -0.24907,
				"method": "rhf"
			},
			{
				"type": "occ",
				"energy": -0.22822,
				"method": "rhf"
			},
			{
				"type": "occ",
				"energy": -0.21094,
				"method": "rhf"
			},
			{
				"type": "unocc",
				"energy": -0.04074,
				"method": "rhf"
			},
			{
				"type": "unocc",
				"energy": -0.02515,
				"method": "rhf"
			},
			{
				"type": "unocc",
				"energy": -0.00239,
				"method": "rhf"
			},
			{
				"type": "unocc",
				"energy": 0.00814,
				"method": "rhf"
			},
			{
				"type": "unocc",
				"energy": 0.05714,
				"method": "rhf"
			}
		],
		"cosmo_sigma_profile": { 
			"-0.025": 0.0,
			"-0.024": 0.0,
			"-0.023": 0.0,
			"-0.022": 0.0,
			"-0.021": 0.0,
			"-0.02": 0.0,
			"-0.019": 0.0,
			"-0.018": 0.0,
			"-0.017": 0.0,
			"-0.016": 0.0,
			"-0.015": 0.0,
			"-0.014": 0.0579737291984,
			"-0.013": 1.41173705763,
			"-0.012": 3.43898590684,
			"-0.011": 3.82315415946,
			"-0.01": 4.0152052179,
			"-0.009": 3.79256525456,
			"-0.008": 3.9757428387,
			"-0.007": 7.61665995909,
			"-0.006": 13.8700297819,
			"-0.005": 17.6917272024,
			"-0.004": 16.7242014832,
			"-0.003": 16.4818628469,
			"-0.002": 14.5564726827,
			"-0.001": 14.6112580444,
			"0.0": 14.1568934465,
			"0.001": 16.2638809036,
			"0.002": 18.48937364,
			"0.003": 19.6518674697,
			"0.004": 13.2366361189,
			"0.005": 11.3429995653,
			"0.006": 5.86236904521,
			"0.007": 3.53525232339,
			"0.008": 4.03300271754,
			"0.009": 3.29796943348,
			"0.01": 3.30061287795,
			"0.011": 3.63329709335,
			"0.012": 5.25132363322,
			"0.013": 6.26433616583,
			"0.014": 1.79294641148,
			"0.015": 0.244580232748,
			"0.016": 0.0,
			"0.017": 0.0,
			"0.018": 0.0,
			"0.019": 0.0,
			"0.02": 0.0,
			"0.021": 0.0,
			"0.022": 0.0,
			"0.023": 0.0,
			"0.024": 0.0,
			"0.025": 0.0
		}
	}
}
