{
	 "smiles": "CCC(CC)C(O)=O", 
	 "Tm": 259.15, 
	 "num_atms": 20, 
	 "gaussian": { 
		 "optdone": 1, 
		 "sigma_profile": "yes", 
		 "theory": "DFT", 
		 "functional": "B3LYP", 
		 "basiset": "6-31G**", 
		 "properties": { 
			 "R2extent": 1357.9941, 
			 "electric_dipole_moment_norm": 1.51177195039, 
			 "electric_quadrupole_moment_norm": 6.95549085543, 
			 "total_energy": -386.345235482, 
			 "HOMO_LUMO_gap": 0.27918, 
			 "cosmo_polarized_energy": -7.45, 
			 "cosmo_cavitation_energy": 21.73, 
			 "cosmo_dispersion_energy": -15.79, 
			 "cosmo_repulsion_energy": 1.32, 
			 "cosmo_total_nonelectrostatic_energy": 7.27, 
			 "SMD_solvation_energy": 4.8 
		},
		"coords": [
			{
				"x": 1.5279790093,
				"y": 0.6393154559,
				"z": -1.6116182783,
				"element": "C" 
			},
			{
				"x": 0.5153487646,
				"y": 0.7867744267,
				"z": -0.4695278537,
				"element": "C" 
			},
			{
				"x": 0.0190196237,
				"y": -0.5052996039,
				"z": 0.2123382012,
				"element": "C" 
			},
			{
				"x": -0.6757241127,
				"y": -1.5433595042,
				"z": -0.7155479744,
				"element": "C" 
			},
			{
				"x": 0.2368710774,
				"y": -2.5178543916,
				"z": -1.4728637287,
				"element": "C" 
			},
			{
				"x": 1.1003037391,
				"y": -1.1421351584,
				"z": 1.0707891123,
				"element": "C" 
			},
			{
				"x": 0.6292918785,
				"y": -2.2178142586,
				"z": 1.7563692332,
				"element": "O" 
			},
			{
				"x": 2.2467913617,
				"y": -0.765483812,
				"z": 1.1885845342,
				"element": "O" 
			},
			{
				"x": 1.0932883555,
				"y": 0.1444287693,
				"z": -2.4853907538,
				"element": "H" 
			},
			{
				"x": 1.8686205773,
				"y": 1.6277528347,
				"z": -1.9375582012,
				"element": "H" 
			},
			{
				"x": 2.4056689756,
				"y": 0.0739205842,
				"z": -1.2891199899,
				"element": "H" 
			},
			{
				"x": -0.3699676205,
				"y": 1.3191430541,
				"z": -0.8400492396,
				"element": "H" 
			},
			{
				"x": 0.9543816777,
				"y": 1.422167203,
				"z": 0.3076015525,
				"element": "H" 
			},
			{
				"x": -0.7489858641,
				"y": -0.1955317139,
				"z": 0.9363569324,
				"element": "H" 
			},
			{
				"x": -1.3685672735,
				"y": -2.1318151449,
				"z": -0.1050379522,
				"element": "H" 
			},
			{
				"x": -1.293371558,
				"y": -0.9821734055,
				"z": -1.4277041747,
				"element": "H" 
			},
			{
				"x": 0.8042560048,
				"y": -3.1449856382,
				"z": -0.7781480701,
				"element": "H" 
			},
			{
				"x": 0.9496292092,
				"y": -2.0092457496,
				"z": -2.1257096738,
				"element": "H" 
			},
			{
				"x": -0.3657411502,
				"y": -3.1864575211,
				"z": -2.0965765294,
				"element": "H" 
			},
			{
				"x": 1.3796073247,
				"y": -2.5472464259,
				"z": 2.2793128538,
				"element": "H" 
			}
		],
		 "valence_orbital": [ 
			{
				"type": "occ",
				"energy": -0.33837,
				"method": "rhf"
			},
			{
				"type": "occ",
				"energy": -0.32425,
				"method": "rhf"
			},
			{
				"type": "occ",
				"energy": -0.31491,
				"method": "rhf"
			},
			{
				"type": "occ",
				"energy": -0.31345,
				"method": "rhf"
			},
			{
				"type": "occ",
				"energy": -0.26926,
				"method": "rhf"
			},
			{
				"type": "unocc",
				"energy": 0.00992,
				"method": "rhf"
			},
			{
				"type": "unocc",
				"energy": 0.07429,
				"method": "rhf"
			},
			{
				"type": "unocc",
				"energy": 0.09062,
				"method": "rhf"
			},
			{
				"type": "unocc",
				"energy": 0.11816,
				"method": "rhf"
			},
			{
				"type": "unocc",
				"energy": 0.13081,
				"method": "rhf"
			}
		],
		"cosmo_sigma_profile": { 
			"-0.025": 0.0,
			"-0.024": 0.0,
			"-0.023": 0.0,
			"-0.022": 0.0,
			"-0.021": 0.0,
			"-0.02": 0.0,
			"-0.019": 0.0,
			"-0.018": 0.239205529794,
			"-0.017": 0.949303933106,
			"-0.016": 0.920521089414,
			"-0.015": 0.611451523284,
			"-0.014": 1.04910953162,
			"-0.013": 0.783628509493,
			"-0.012": 0.272311755109,
			"-0.011": 0.518424901284,
			"-0.01": 0.82754207208,
			"-0.009": 0.673640577097,
			"-0.008": 0.793410454306,
			"-0.007": 0.631310572766,
			"-0.006": 1.58573421377,
			"-0.005": 4.25010314482,
			"-0.004": 3.61995446517,
			"-0.003": 17.5394826571,
			"-0.002": 25.9260242594,
			"-0.001": 23.0346475814,
			"0.0": 23.7847840239,
			"0.001": 19.9648397893,
			"0.002": 9.13088011255,
			"0.003": 3.74172504516,
			"0.004": 3.01431297843,
			"0.005": 2.64337585294,
			"0.006": 2.77069079013,
			"0.007": 2.54966165484,
			"0.008": 3.51120545213,
			"0.009": 2.6087578942,
			"0.01": 2.69445218916,
			"0.011": 2.28485372458,
			"0.012": 4.65384822604,
			"0.013": 0.44524931464,
			"0.014": 0.0,
			"0.015": 0.0,
			"0.016": 0.0,
			"0.017": 0.0,
			"0.018": 0.0,
			"0.019": 0.0,
			"0.02": 0.0,
			"0.021": 0.0,
			"0.022": 0.0,
			"0.023": 0.0,
			"0.024": 0.0,
			"0.025": 0.0
		}
	}
}
