{
	 "smiles": "OC(=O)CC1=C(Br)C=C2OCCOC2=C1", 
	 "Tm": 494.15, 
	 "num_atms": 24, 
	 "gaussian": { 
		 "optdone": 1, 
		 "sigma_profile": "yes", 
		 "theory": "DFT", 
		 "functional": "B3LYP", 
		 "basiset": "6-31G**", 
		 "properties": { 
			 "R2extent": 5351.5315, 
			 "electric_dipole_moment_norm": 3.02419133158, 
			 "electric_quadrupole_moment_norm": 17.8563725012, 
			 "total_energy": -3258.78314846, 
			 "HOMO_LUMO_gap": 0.20396, 
			 "cosmo_polarized_energy": -14.71, 
			 "cosmo_cavitation_energy": 30.45, 
			 "cosmo_dispersion_energy": -22.66, 
			 "cosmo_repulsion_energy": 1.79, 
			 "cosmo_total_nonelectrostatic_energy": 9.58, 
			 "SMD_solvation_energy": 5.51 
		},
		"coords": [
			{
				"x": 2.5284185828,
				"y": 3.1207475231,
				"z": 0.9509595638,
				"element": "O" 
			},
			{
				"x": 2.1782626002,
				"y": 2.022123623,
				"z": 0.2370628994,
				"element": "C" 
			},
			{
				"x": 2.8032170461,
				"y": 1.63756051,
				"z": -0.722966385,
				"element": "O" 
			},
			{
				"x": 0.9033734921,
				"y": 1.4061654885,
				"z": 0.7974366196,
				"element": "C" 
			},
			{
				"x": 0.5885128867,
				"y": 0.0450325855,
				"z": 0.2342348917,
				"element": "C" 
			},
			{
				"x": 1.2137465109,
				"y": -1.1268958356,
				"z": 0.6846684523,
				"element": "C" 
			},
			{
				"x": 2.5319987421,
				"y": -1.051206301,
				"z": 2.0739610577,
				"element": "Br" 
			},
			{
				"x": 0.9039466014,
				"y": -2.3764192331,
				"z": 0.1579211122,
				"element": "C" 
			},
			{
				"x": -0.0466150354,
				"y": -2.4833427962,
				"z": -0.856126654,
				"element": "C" 
			},
			{
				"x": -0.3355430652,
				"y": -3.7297261708,
				"z": -1.348650508,
				"element": "O" 
			},
			{
				"x": -1.536585795,
				"y": -3.7800960124,
				"z": -2.121496513,
				"element": "C" 
			},
			{
				"x": -1.5955845715,
				"y": -2.6006883722,
				"z": -3.0789508798,
				"element": "C" 
			},
			{
				"x": -1.6067993854,
				"y": -1.373454613,
				"z": -2.3476542887,
				"element": "O" 
			},
			{
				"x": -0.6744868105,
				"y": -1.32487067,
				"z": -1.3418274749,
				"element": "C" 
			},
			{
				"x": -0.3554987757,
				"y": -0.0870701526,
				"z": -0.7888307625,
				"element": "C" 
			},
			{
				"x": 3.3300166554,
				"y": 3.4709151717,
				"z": 0.5273832792,
				"element": "H" 
			},
			{
				"x": 0.9957346434,
				"y": 1.3814672299,
				"z": 1.8871544078,
				"element": "H" 
			},
			{
				"x": 0.089912987,
				"y": 2.106214621,
				"z": 0.5735506932,
				"element": "H" 
			},
			{
				"x": 1.3833860694,
				"y": -3.2761681236,
				"z": 0.5238028871,
				"element": "H" 
			},
			{
				"x": -2.4091643649,
				"y": -3.7646760151,
				"z": -1.4544792917,
				"element": "H" 
			},
			{
				"x": -1.5168344264,
				"y": -4.7300656785,
				"z": -2.6611973436,
				"element": "H" 
			},
			{
				"x": -2.5134324891,
				"y": -2.6164625225,
				"z": -3.6717402326,
				"element": "H" 
			},
			{
				"x": -0.7307476678,
				"y": -2.6235800166,
				"z": -3.7556765983,
				"element": "H" 
			},
			{
				"x": -0.8585344305,
				"y": 0.7893957604,
				"z": -1.1856389318,
				"element": "H" 
			}
		],
		 "valence_orbital": [ 
			{
				"type": "occ",
				"energy": -0.28667,
				"method": "rhf"
			},
			{
				"type": "occ",
				"energy": -0.28455,
				"method": "rhf"
			},
			{
				"type": "occ",
				"energy": -0.27294,
				"method": "rhf"
			},
			{
				"type": "occ",
				"energy": -0.23959,
				"method": "rhf"
			},
			{
				"type": "occ",
				"energy": -0.21417,
				"method": "rhf"
			},
			{
				"type": "unocc",
				"energy": -0.01021,
				"method": "rhf"
			},
			{
				"type": "unocc",
				"energy": 0.00047,
				"method": "rhf"
			},
			{
				"type": "unocc",
				"energy": 0.00826,
				"method": "rhf"
			},
			{
				"type": "unocc",
				"energy": 0.01652,
				"method": "rhf"
			},
			{
				"type": "unocc",
				"energy": 0.0812,
				"method": "rhf"
			}
		],
		"cosmo_sigma_profile": { 
			"-0.025": 0.0,
			"-0.024": 0.0,
			"-0.023": 0.0,
			"-0.022": 0.0,
			"-0.021": 0.0,
			"-0.02": 0.0,
			"-0.019": 0.043275448348,
			"-0.018": 0.733694102226,
			"-0.017": 0.859001049556,
			"-0.016": 1.07164213889,
			"-0.015": 0.642639179948,
			"-0.014": 0.283756427692,
			"-0.013": 1.06763822138,
			"-0.012": 0.848690122198,
			"-0.011": 0.691887272659,
			"-0.01": 0.520608952183,
			"-0.009": 0.310049103901,
			"-0.008": 5.37586465939,
			"-0.007": 13.9046236326,
			"-0.006": 18.981792383,
			"-0.005": 16.1245946359,
			"-0.004": 13.6954114329,
			"-0.003": 13.8933067828,
			"-0.002": 12.9741605578,
			"-0.001": 10.5282590794,
			"0.0": 12.365223279,
			"0.001": 14.704426787,
			"0.002": 21.2182453673,
			"0.003": 20.6035090366,
			"0.004": 15.6328169344,
			"0.005": 11.5526718589,
			"0.006": 5.01275493184,
			"0.007": 5.03906105743,
			"0.008": 5.92016178097,
			"0.009": 6.53875716924,
			"0.01": 5.47398082921,
			"0.011": 4.35549294566,
			"0.012": 3.82511405043,
			"0.013": 0.316638652242,
			"0.014": 0.0,
			"0.015": 0.0,
			"0.016": 0.0,
			"0.017": 0.0,
			"0.018": 0.0,
			"0.019": 0.0,
			"0.02": 0.0,
			"0.021": 0.0,
			"0.022": 0.0,
			"0.023": 0.0,
			"0.024": 0.0,
			"0.025": 0.0
		}
	}
}
