{
	 "smiles": "SC1=NN=C(CCCC2=CC=CC=C2)O1", 
	 "Tm": 327.15, 
	 "num_atms": 27, 
	 "gaussian": { 
		 "optdone": 1, 
		 "sigma_profile": "yes", 
		 "theory": "DFT", 
		 "functional": "B3LYP", 
		 "basiset": "6-31G**", 
		 "properties": { 
			 "R2extent": 5099.7152, 
			 "electric_dipole_moment_norm": 3.98527198695, 
			 "electric_quadrupole_moment_norm": 15.5988470795, 
			 "total_energy": -1009.28617495, 
			 "HOMO_LUMO_gap": 0.22863, 
			 "cosmo_polarized_energy": -12.85, 
			 "cosmo_cavitation_energy": 33.03, 
			 "cosmo_dispersion_energy": -23.78, 
			 "cosmo_repulsion_energy": 1.84, 
			 "cosmo_total_nonelectrostatic_energy": 11.09, 
			 "SMD_solvation_energy": 3.32 
		},
		"coords": [
			{
				"x": 2.2387527101,
				"y": 0.3830534174,
				"z": 4.7089598044,
				"element": "S" 
			},
			{
				"x": 2.0853867967,
				"y": 0.6940280446,
				"z": 2.9859520072,
				"element": "C" 
			},
			{
				"x": 2.3763634697,
				"y": 1.7941154582,
				"z": 2.3726488597,
				"element": "N" 
			},
			{
				"x": 2.1238126407,
				"y": 1.5445879609,
				"z": 1.014503867,
				"element": "N" 
			},
			{
				"x": 1.6985494396,
				"y": 0.326986291,
				"z": 0.9239973716,
				"element": "C" 
			},
			{
				"x": 1.284934539,
				"y": -0.4621614767,
				"z": -0.2721574178,
				"element": "C" 
			},
			{
				"x": 1.3670831104,
				"y": 0.3196649739,
				"z": -1.5926972623,
				"element": "C" 
			},
			{
				"x": 0.3444415067,
				"y": 1.4692216886,
				"z": -1.7371149584,
				"element": "C" 
			},
			{
				"x": -1.0999021971,
				"y": 1.0180982388,
				"z": -1.6626739654,
				"element": "C" 
			},
			{
				"x": -1.8703995518,
				"y": 1.2462025887,
				"z": -0.5140621861,
				"element": "C" 
			},
			{
				"x": -3.1956459255,
				"y": 0.8107791179,
				"z": -0.4381002048,
				"element": "C" 
			},
			{
				"x": -3.7747074497,
				"y": 0.1380684448,
				"z": -1.5144940318,
				"element": "C" 
			},
			{
				"x": -3.020304011,
				"y": -0.093679497,
				"z": -2.6673784492,
				"element": "C" 
			},
			{
				"x": -1.6975259057,
				"y": 0.3427404243,
				"z": -2.7379871807,
				"element": "C" 
			},
			{
				"x": 1.6476156466,
				"y": -0.2921649036,
				"z": 2.1533682302,
				"element": "O" 
			},
			{
				"x": 1.6030582439,
				"y": -0.803429231,
				"z": 4.6613665465,
				"element": "H" 
			},
			{
				"x": 0.2639107256,
				"y": -0.8296237758,
				"z": -0.1101153027,
				"element": "H" 
			},
			{
				"x": 1.9239938174,
				"y": -1.3528835845,
				"z": -0.3262429808,
				"element": "H" 
			},
			{
				"x": 2.3763262648,
				"y": 0.7294550862,
				"z": -1.7062869553,
				"element": "H" 
			},
			{
				"x": 1.2195449827,
				"y": -0.3986843149,
				"z": -2.4073823585,
				"element": "H" 
			},
			{
				"x": 0.5442014535,
				"y": 2.2193786159,
				"z": -0.9669966121,
				"element": "H" 
			},
			{
				"x": 0.5259465827,
				"y": 1.9541132606,
				"z": -2.7041557616,
				"element": "H" 
			},
			{
				"x": -1.4285698896,
				"y": 1.7794047238,
				"z": 0.3243562877,
				"element": "H" 
			},
			{
				"x": -3.7755993913,
				"y": 1.0025546308,
				"z": 0.4605319275,
				"element": "H" 
			},
			{
				"x": -4.8061584003,
				"y": -0.1980905278,
				"z": -1.4593475368,
				"element": "H" 
			},
			{
				"x": -3.4650280268,
				"y": -0.609462018,
				"z": -3.5140951958,
				"element": "H" 
			},
			{
				"x": -1.1212811813,
				"y": 0.1658263628,
				"z": -3.6436965415,
				"element": "H" 
			}
		],
		 "valence_orbital": [ 
			{
				"type": "occ",
				"energy": -0.31835,
				"method": "rhf"
			},
			{
				"type": "occ",
				"energy": -0.28168,
				"method": "rhf"
			},
			{
				"type": "occ",
				"energy": -0.2496,
				"method": "rhf"
			},
			{
				"type": "occ",
				"energy": -0.24817,
				"method": "rhf"
			},
			{
				"type": "occ",
				"energy": -0.24174,
				"method": "rhf"
			},
			{
				"type": "unocc",
				"energy": -0.01311,
				"method": "rhf"
			},
			{
				"type": "unocc",
				"energy": -0.00295,
				"method": "rhf"
			},
			{
				"type": "unocc",
				"energy": -0.00214,
				"method": "rhf"
			},
			{
				"type": "unocc",
				"energy": 0.00068,
				"method": "rhf"
			},
			{
				"type": "unocc",
				"energy": 0.03056,
				"method": "rhf"
			}
		],
		"cosmo_sigma_profile": { 
			"-0.025": 0.0,
			"-0.024": 0.0,
			"-0.023": 0.0,
			"-0.022": 0.0,
			"-0.021": 0.0,
			"-0.02": 0.0,
			"-0.019": 0.0,
			"-0.018": 0.0,
			"-0.017": 0.0,
			"-0.016": 0.0,
			"-0.015": 0.0,
			"-0.014": 0.066968765561,
			"-0.013": 1.72469261118,
			"-0.012": 1.56727112642,
			"-0.011": 1.49078297062,
			"-0.01": 1.51618305183,
			"-0.009": 1.41131603497,
			"-0.008": 1.61346781674,
			"-0.007": 2.67553208343,
			"-0.006": 5.86571999133,
			"-0.005": 15.4582344298,
			"-0.004": 24.8418040379,
			"-0.003": 34.5943337401,
			"-0.002": 25.8597433849,
			"-0.001": 21.8370266998,
			"0.0": 18.9112140559,
			"0.001": 17.1921500961,
			"0.002": 14.3193405012,
			"0.003": 14.5502369167,
			"0.004": 13.7619572053,
			"0.005": 12.8843334204,
			"0.006": 10.8620377563,
			"0.007": 5.15079576121,
			"0.008": 1.64833689346,
			"0.009": 2.32767095249,
			"0.01": 2.2526955011,
			"0.011": 3.47746953926,
			"0.012": 2.7440283563,
			"0.013": 2.46416621631,
			"0.014": 1.76631332976,
			"0.015": 0.60804848973,
			"0.016": 0.0,
			"0.017": 0.0,
			"0.018": 0.0,
			"0.019": 0.0,
			"0.02": 0.0,
			"0.021": 0.0,
			"0.022": 0.0,
			"0.023": 0.0,
			"0.024": 0.0,
			"0.025": 0.0
		}
	}
}
