{
	 "smiles": "COC(=O)C1(C)CCC2=C(C=CC=C2)C1=O", 
	 "Tm": 330.15, 
	 "num_atms": 30, 
	 "gaussian": { 
		 "optdone": 1, 
		 "sigma_profile": "yes", 
		 "theory": "DFT", 
		 "functional": "B3LYP", 
		 "basiset": "6-31G**", 
		 "properties": { 
			 "R2extent": 3597.2073, 
			 "electric_dipole_moment_norm": 3.4437404577, 
			 "electric_quadrupole_moment_norm": 13.2256264256, 
			 "total_energy": -729.514062816, 
			 "HOMO_LUMO_gap": 0.18955, 
			 "cosmo_polarized_energy": -12.21, 
			 "cosmo_cavitation_energy": 32.36, 
			 "cosmo_dispersion_energy": -22.88, 
			 "cosmo_repulsion_energy": 1.77, 
			 "cosmo_total_nonelectrostatic_energy": 11.25, 
			 "SMD_solvation_energy": 7.01 
		},
		"coords": [
			{
				"x": -3.1171015792,
				"y": -1.7755169079,
				"z": 1.3705992856,
				"element": "C" 
			},
			{
				"x": -2.6472184246,
				"y": -0.9423833458,
				"z": 0.295903996,
				"element": "O" 
			},
			{
				"x": -1.3987597309,
				"y": -0.4528973107,
				"z": 0.4491684736,
				"element": "C" 
			},
			{
				"x": -0.7033895036,
				"y": -0.6995690368,
				"z": 1.4127933698,
				"element": "O" 
			},
			{
				"x": -0.9566807989,
				"y": 0.3868059074,
				"z": -0.7563897783,
				"element": "C" 
			},
			{
				"x": -2.1078649974,
				"y": 1.2480012777,
				"z": -1.3029431575,
				"element": "C" 
			},
			{
				"x": -0.429429086,
				"y": -0.5808340424,
				"z": -1.8488226575,
				"element": "C" 
			},
			{
				"x": 0.8185296664,
				"y": -1.350256829,
				"z": -1.4050663479,
				"element": "C" 
			},
			{
				"x": 1.9128745936,
				"y": -0.4229002705,
				"z": -0.9295023164,
				"element": "C" 
			},
			{
				"x": 1.5945426505,
				"y": 0.8320447855,
				"z": -0.3741217807,
				"element": "C" 
			},
			{
				"x": 2.617285819,
				"y": 1.6819144601,
				"z": 0.0793592117,
				"element": "C" 
			},
			{
				"x": 3.9482088016,
				"y": 1.2958033196,
				"z": -0.0100124262,
				"element": "C" 
			},
			{
				"x": 4.2685681978,
				"y": 0.0506122721,
				"z": -0.5627568463,
				"element": "C" 
			},
			{
				"x": 3.2592964511,
				"y": -0.7954348418,
				"z": -1.0183524576,
				"element": "C" 
			},
			{
				"x": 0.1872450825,
				"y": 1.3078211449,
				"z": -0.2550345269,
				"element": "C" 
			},
			{
				"x": -0.0796917449,
				"y": 2.4052260438,
				"z": 0.2083526572,
				"element": "O" 
			},
			{
				"x": -3.1215448351,
				"y": -1.219997498,
				"z": 2.3112210696,
				"element": "H" 
			},
			{
				"x": -4.1289594804,
				"y": -2.0696348253,
				"z": 1.0925517601,
				"element": "H" 
			},
			{
				"x": -2.4776321273,
				"y": -2.654465095,
				"z": 1.4839193622,
				"element": "H" 
			},
			{
				"x": -2.9371262382,
				"y": 0.6179614267,
				"z": -1.6297079701,
				"element": "H" 
			},
			{
				"x": -2.4639554854,
				"y": 1.9445640287,
				"z": -0.5423792163,
				"element": "H" 
			},
			{
				"x": -1.7558934302,
				"y": 1.8369021359,
				"z": -2.1554629448,
				"element": "H" 
			},
			{
				"x": -0.1913565596,
				"y": 0.018081987,
				"z": -2.7368349601,
				"element": "H" 
			},
			{
				"x": -1.2296602178,
				"y": -1.2717883252,
				"z": -2.1348028101,
				"element": "H" 
			},
			{
				"x": 1.1884335376,
				"y": -1.971357412,
				"z": -2.2284092207,
				"element": "H" 
			},
			{
				"x": 0.5594900743,
				"y": -2.0402865577,
				"z": -0.5905226104,
				"element": "H" 
			},
			{
				"x": 2.3316108037,
				"y": 2.6401381561,
				"z": 0.500286381,
				"element": "H" 
			},
			{
				"x": 4.7346561487,
				"y": 1.9554338667,
				"z": 0.3444210449,
				"element": "H" 
			},
			{
				"x": 5.3073019159,
				"y": -0.2579347011,
				"z": -0.6429771903,
				"element": "H" 
			},
			{
				"x": 3.5161204968,
				"y": -1.7586538128,
				"z": -1.4523773935,
				"element": "H" 
			}
		],
		 "valence_orbital": [ 
			{
				"type": "occ",
				"energy": -0.30613,
				"method": "rhf"
			},
			{
				"type": "occ",
				"energy": -0.27276,
				"method": "rhf"
			},
			{
				"type": "occ",
				"energy": -0.25312,
				"method": "rhf"
			},
			{
				"type": "occ",
				"energy": -0.24878,
				"method": "rhf"
			},
			{
				"type": "occ",
				"energy": -0.24314,
				"method": "rhf"
			},
			{
				"type": "unocc",
				"energy": -0.05359,
				"method": "rhf"
			},
			{
				"type": "unocc",
				"energy": -0.00548,
				"method": "rhf"
			},
			{
				"type": "unocc",
				"energy": 0.00555,
				"method": "rhf"
			},
			{
				"type": "unocc",
				"energy": 0.043,
				"method": "rhf"
			},
			{
				"type": "unocc",
				"energy": 0.09016,
				"method": "rhf"
			}
		],
		"cosmo_sigma_profile": { 
			"-0.025": 0.0,
			"-0.024": 0.0,
			"-0.023": 0.0,
			"-0.022": 0.0,
			"-0.021": 0.0,
			"-0.02": 0.0,
			"-0.019": 0.0,
			"-0.018": 0.0,
			"-0.017": 0.0,
			"-0.016": 0.0,
			"-0.015": 0.0,
			"-0.014": 0.0,
			"-0.013": 0.0,
			"-0.012": 0.0,
			"-0.011": 0.0,
			"-0.01": 0.0,
			"-0.009": 0.0,
			"-0.008": 0.0,
			"-0.007": 1.65872052698,
			"-0.006": 12.9601591719,
			"-0.005": 22.5081071894,
			"-0.004": 30.6424287685,
			"-0.003": 31.1810285174,
			"-0.002": 24.4798887399,
			"-0.001": 18.8137277457,
			"0.0": 13.7108723354,
			"0.001": 15.3881089692,
			"0.002": 12.4543592413,
			"0.003": 14.0424733817,
			"0.004": 16.6792149408,
			"0.005": 8.19332008138,
			"0.006": 5.41637534697,
			"0.007": 3.73258809179,
			"0.008": 3.65439973303,
			"0.009": 4.20810123685,
			"0.01": 4.08808920454,
			"0.011": 6.81471736971,
			"0.012": 4.73707656453,
			"0.013": 0.0169362481178,
			"0.014": 0.0,
			"0.015": 0.0,
			"0.016": 0.0,
			"0.017": 0.0,
			"0.018": 0.0,
			"0.019": 0.0,
			"0.02": 0.0,
			"0.021": 0.0,
			"0.022": 0.0,
			"0.023": 0.0,
			"0.024": 0.0,
			"0.025": 0.0
		}
	}
}
