{
	 "smiles": "OCN1CCCC1=O", 
	 "Tm": 353.15, 
	 "num_atms": 17, 
	 "gaussian": { 
		 "optdone": 1, 
		 "sigma_profile": "yes", 
		 "theory": "DFT", 
		 "functional": "B3LYP", 
		 "basiset": "6-31G**", 
		 "properties": { 
			 "R2extent": 1124.4862, 
			 "electric_dipole_moment_norm": 4.12652359378, 
			 "electric_quadrupole_moment_norm": 6.9725804298, 
			 "total_energy": -401.16546047, 
			 "HOMO_LUMO_gap": 0.26472, 
			 "cosmo_polarized_energy": -10.74, 
			 "cosmo_cavitation_energy": 19.35, 
			 "cosmo_dispersion_energy": -14.89, 
			 "cosmo_repulsion_energy": 1.26, 
			 "cosmo_total_nonelectrostatic_energy": 5.73, 
			 "SMD_solvation_energy": 3.23 
		},
		"coords": [
			{
				"x": -0.1983501321,
				"y": 2.2039831424,
				"z": 2.2465353417,
				"element": "O" 
			},
			{
				"x": -0.5159284383,
				"y": 2.0739023634,
				"z": 0.8917215345,
				"element": "C" 
			},
			{
				"x": -0.3703741497,
				"y": 0.6960632191,
				"z": 0.4200261882,
				"element": "N" 
			},
			{
				"x": 0.3080877352,
				"y": 0.2831142343,
				"z": -0.8033419206,
				"element": "C" 
			},
			{
				"x": 0.3585002494,
				"y": -1.256714688,
				"z": -0.666781074,
				"element": "C" 
			},
			{
				"x": -0.8299895807,
				"y": -1.5924765611,
				"z": 0.2526948055,
				"element": "C" 
			},
			{
				"x": -1.0522936749,
				"y": -0.3071666432,
				"z": 1.0451791167,
				"element": "C" 
			},
			{
				"x": -1.7318180734,
				"y": -0.1569536517,
				"z": 2.0591000283,
				"element": "O" 
			},
			{
				"x": -0.8177273696,
				"y": 1.6103362469,
				"z": 2.7061134084,
				"element": "H" 
			},
			{
				"x": 0.1750220714,
				"y": 2.7014158662,
				"z": 0.3218869708,
				"element": "H" 
			},
			{
				"x": -1.545924742,
				"y": 2.4062668953,
				"z": 0.6842433467,
				"element": "H" 
			},
			{
				"x": 1.3044896663,
				"y": 0.7333726868,
				"z": -0.8684216397,
				"element": "H" 
			},
			{
				"x": -0.2578257563,
				"y": 0.5925085923,
				"z": -1.695004837,
				"element": "H" 
			},
			{
				"x": 0.3146111519,
				"y": -1.7562780946,
				"z": -1.6372636511,
				"element": "H" 
			},
			{
				"x": 1.2961049151,
				"y": -1.5472135643,
				"z": -0.1831683265,
				"element": "H" 
			},
			{
				"x": -1.7460123252,
				"y": -1.803205798,
				"z": -0.3131913753,
				"element": "H" 
			},
			{
				"x": -0.6593715472,
				"y": -2.4375542461,
				"z": 0.9228720834,
				"element": "H" 
			}
		],
		 "valence_orbital": [ 
			{
				"type": "occ",
				"energy": -0.34925,
				"method": "rhf"
			},
			{
				"type": "occ",
				"energy": -0.33523,
				"method": "rhf"
			},
			{
				"type": "occ",
				"energy": -0.27584,
				"method": "rhf"
			},
			{
				"type": "occ",
				"energy": -0.25481,
				"method": "rhf"
			},
			{
				"type": "occ",
				"energy": -0.24556,
				"method": "rhf"
			},
			{
				"type": "unocc",
				"energy": 0.01916,
				"method": "rhf"
			},
			{
				"type": "unocc",
				"energy": 0.07754,
				"method": "rhf"
			},
			{
				"type": "unocc",
				"energy": 0.10366,
				"method": "rhf"
			},
			{
				"type": "unocc",
				"energy": 0.10946,
				"method": "rhf"
			},
			{
				"type": "unocc",
				"energy": 0.12353,
				"method": "rhf"
			}
		],
		"cosmo_sigma_profile": { 
			"-0.025": 0.0,
			"-0.024": 0.0,
			"-0.023": 0.0,
			"-0.022": 0.0,
			"-0.021": 0.0,
			"-0.02": 0.0,
			"-0.019": 0.0,
			"-0.018": 0.0,
			"-0.017": 0.0,
			"-0.016": 0.0,
			"-0.015": 0.0,
			"-0.014": 0.0,
			"-0.013": 0.0,
			"-0.012": 0.0,
			"-0.011": 0.0,
			"-0.01": 0.0562384970699,
			"-0.009": 0.560073790784,
			"-0.008": 0.269993285574,
			"-0.007": 2.29744206458,
			"-0.006": 6.44428500923,
			"-0.005": 16.2016601424,
			"-0.004": 26.5462853048,
			"-0.003": 23.2215741985,
			"-0.002": 14.9777544746,
			"-0.001": 10.8960096037,
			"0.0": 5.27962169506,
			"0.001": 2.91341515011,
			"0.002": 3.58070514921,
			"0.003": 3.05052296614,
			"0.004": 3.32468829831,
			"0.005": 2.52711970945,
			"0.006": 2.21726686259,
			"0.007": 1.8033686752,
			"0.008": 3.33582254797,
			"0.009": 2.15562500468,
			"0.01": 3.04816006679,
			"0.011": 2.62934223031,
			"0.012": 3.64969097187,
			"0.013": 5.13314566077,
			"0.014": 3.96219308152,
			"0.015": 1.10414567395,
			"0.016": 0.0,
			"0.017": 0.0,
			"0.018": 0.0,
			"0.019": 0.0,
			"0.02": 0.0,
			"0.021": 0.0,
			"0.022": 0.0,
			"0.023": 0.0,
			"0.024": 0.0,
			"0.025": 0.0
		}
	}
}
