{
	 "smiles": "OC(=O)C1=C(Cl)C=CC(=N1)N1C=NC2=C1C=CC=C2", 
	 "Tm": 466.15, 
	 "num_atms": 27, 
	 "gaussian": { 
		 "optdone": 1, 
		 "sigma_profile": "yes", 
		 "theory": "DFT", 
		 "functional": "B3LYP", 
		 "basiset": "6-31G**", 
		 "properties": { 
			 "R2extent": 6588.7168, 
			 "electric_dipole_moment_norm": 1.11009002788, 
			 "electric_quadrupole_moment_norm": 21.1148360676, 
			 "total_energy": -1275.10901881, 
			 "HOMO_LUMO_gap": 0.14543, 
			 "cosmo_polarized_energy": -17.85, 
			 "cosmo_cavitation_energy": 33.88, 
			 "cosmo_dispersion_energy": -25.08, 
			 "cosmo_repulsion_energy": 1.86, 
			 "cosmo_total_nonelectrostatic_energy": 10.66, 
			 "SMD_solvation_energy": 4.61 
		},
		"coords": [
			{
				"x": 3.1218634762,
				"y": -1.3620684326,
				"z": -1.6492424349,
				"element": "O" 
			},
			{
				"x": 2.9482234581,
				"y": -2.4545194605,
				"z": -0.8732948872,
				"element": "C" 
			},
			{
				"x": 3.7323102816,
				"y": -3.3780134493,
				"z": -0.863865219,
				"element": "O" 
			},
			{
				"x": 1.6906053938,
				"y": -2.3714758065,
				"z": -0.0496941742,
				"element": "C" 
			},
			{
				"x": 1.2845120362,
				"y": -3.3801341553,
				"z": 0.8380737424,
				"element": "C" 
			},
			{
				"x": 2.1502675899,
				"y": -4.8629510916,
				"z": 1.1272506634,
				"element": "Cl" 
			},
			{
				"x": 0.0916271057,
				"y": -3.1842695742,
				"z": 1.5490368401,
				"element": "C" 
			},
			{
				"x": -0.6477664377,
				"y": -2.0307421369,
				"z": 1.369893361,
				"element": "C" 
			},
			{
				"x": -0.1630188387,
				"y": -1.0715633873,
				"z": 0.4571100931,
				"element": "C" 
			},
			{
				"x": 0.9646098018,
				"y": -1.255872219,
				"z": -0.2154268987,
				"element": "N" 
			},
			{
				"x": -0.8507171327,
				"y": 0.1279937914,
				"z": 0.2143962246,
				"element": "N" 
			},
			{
				"x": -2.0509203632,
				"y": 0.5274063253,
				"z": 0.8073347096,
				"element": "C" 
			},
			{
				"x": -2.4825240197,
				"y": 1.6857456752,
				"z": 0.4118637884,
				"element": "N" 
			},
			{
				"x": -1.5340559255,
				"y": 2.1256872458,
				"z": -0.509917298,
				"element": "C" 
			},
			{
				"x": -0.4976939656,
				"y": 1.1753818087,
				"z": -0.6587817825,
				"element": "C" 
			},
			{
				"x": 0.576545107,
				"y": 1.3840587265,
				"z": -1.5290629984,
				"element": "C" 
			},
			{
				"x": 0.5743407776,
				"y": 2.5807568894,
				"z": -2.2452435789,
				"element": "C" 
			},
			{
				"x": -0.4507837224,
				"y": 3.534394268,
				"z": -2.1061517844,
				"element": "C" 
			},
			{
				"x": -1.5160449455,
				"y": 3.3188184686,
				"z": -1.237997314,
				"element": "C" 
			},
			{
				"x": 3.9512627203,
				"y": -1.5206512757,
				"z": -2.1301531687,
				"element": "H" 
			},
			{
				"x": -0.2434455236,
				"y": -3.9488798627,
				"z": 2.2410044859,
				"element": "H" 
			},
			{
				"x": -1.566956473,
				"y": -1.8907035914,
				"z": 1.9243921469,
				"element": "H" 
			},
			{
				"x": -2.5563953563,
				"y": -0.0951844367,
				"z": 1.5313531837,
				"element": "H" 
			},
			{
				"x": 1.3659122827,
				"y": 0.6538243935,
				"z": -1.6386593879,
				"element": "H" 
			},
			{
				"x": 1.3922783305,
				"y": 2.7793903517,
				"z": -2.931734955,
				"element": "H" 
			},
			{
				"x": -0.4067978546,
				"y": 4.4512237907,
				"z": -2.6865324421,
				"element": "H" 
			},
			{
				"x": -2.316137803,
				"y": 4.0414471448,
				"z": -1.1164509156,
				"element": "H" 
			}
		],
		 "valence_orbital": [ 
			{
				"type": "occ",
				"energy": -0.28181,
				"method": "rhf"
			},
			{
				"type": "occ",
				"energy": -0.27284,
				"method": "rhf"
			},
			{
				"type": "occ",
				"energy": -0.2708,
				"method": "rhf"
			},
			{
				"type": "occ",
				"energy": -0.23351,
				"method": "rhf"
			},
			{
				"type": "occ",
				"energy": -0.22695,
				"method": "rhf"
			},
			{
				"type": "unocc",
				"energy": -0.08152,
				"method": "rhf"
			},
			{
				"type": "unocc",
				"energy": -0.05548,
				"method": "rhf"
			},
			{
				"type": "unocc",
				"energy": -0.01753,
				"method": "rhf"
			},
			{
				"type": "unocc",
				"energy": 0.01345,
				"method": "rhf"
			},
			{
				"type": "unocc",
				"energy": 0.01582,
				"method": "rhf"
			}
		],
		"cosmo_sigma_profile": { 
			"-0.025": 0.0,
			"-0.024": 0.0,
			"-0.023": 0.0,
			"-0.022": 0.0,
			"-0.021": 0.0,
			"-0.02": 0.0,
			"-0.019": 0.186256030769,
			"-0.018": 1.13538215519,
			"-0.017": 0.689834393251,
			"-0.016": 1.00009392414,
			"-0.015": 0.772015828559,
			"-0.014": 0.721296635568,
			"-0.013": 1.43505678379,
			"-0.012": 3.09776735884,
			"-0.011": 3.1374665189,
			"-0.01": 2.69112145934,
			"-0.009": 5.28309048822,
			"-0.008": 5.62625628167,
			"-0.007": 4.74587675364,
			"-0.006": 8.01900154451,
			"-0.005": 12.213355468,
			"-0.004": 14.5658885821,
			"-0.003": 21.1161604355,
			"-0.002": 24.7173025848,
			"-0.001": 21.2240062215,
			"0.0": 17.6184164499,
			"0.001": 15.3578381422,
			"0.002": 15.1913633912,
			"0.003": 23.1727641435,
			"0.004": 20.0264161496,
			"0.005": 15.3686052504,
			"0.006": 7.32480641072,
			"0.007": 5.9791524295,
			"0.008": 4.22628969998,
			"0.009": 3.17332623647,
			"0.01": 4.0436799223,
			"0.011": 6.45869080679,
			"0.012": 2.08235428444,
			"0.013": 1.02262410303,
			"0.014": 0.915328572868,
			"0.015": 1.24554190533,
			"0.016": 0.722645083006,
			"0.017": 0.259099743318,
			"0.018": 0.0,
			"0.019": 0.0,
			"0.02": 0.0,
			"0.021": 0.0,
			"0.022": 0.0,
			"0.023": 0.0,
			"0.024": 0.0,
			"0.025": 0.0
		}
	}
}
