{
	 "smiles": "C1=CC2=CC=C(C=C2C=C1)C1=CC2=CC=CC=C2C=C1", 
	 "Tm": 461.15, 
	 "num_atms": 34, 
	 "gaussian": { 
		 "optdone": 1, 
		 "sigma_profile": "yes", 
		 "theory": "DFT", 
		 "functional": "B3LYP", 
		 "basiset": "6-31G**", 
		 "properties": { 
			 "R2extent": 7838.6541, 
			 "electric_dipole_moment_norm": 0.00123693168769, 
			 "electric_quadrupole_moment_norm": 13.0914874247, 
			 "total_energy": -770.59972403, 
			 "HOMO_LUMO_gap": 0.15651, 
			 "cosmo_polarized_energy": -7.61, 
			 "cosmo_cavitation_energy": 37.47, 
			 "cosmo_dispersion_energy": -27.58, 
			 "cosmo_repulsion_energy": 2.03, 
			 "cosmo_total_nonelectrostatic_energy": 11.92, 
			 "SMD_solvation_energy": 5.42 
		},
		"coords": [
			{
				"x": -5.3792431117,
				"y": 1.846460559,
				"z": -1.7008951636,
				"element": "C" 
			},
			{
				"x": -4.224350235,
				"y": 2.5375054395,
				"z": -1.4085201521,
				"element": "C" 
			},
			{
				"x": -3.0134718832,
				"y": 1.8470438051,
				"z": -1.137325208,
				"element": "C" 
			},
			{
				"x": -1.8004294503,
				"y": 2.5200602155,
				"z": -0.8296714638,
				"element": "C" 
			},
			{
				"x": -0.6460193804,
				"y": 1.8208147401,
				"z": -0.5725797685,
				"element": "C" 
			},
			{
				"x": -0.6215198764,
				"y": 0.3945421785,
				"z": -0.6045624099,
				"element": "C" 
			},
			{
				"x": -1.7961488413,
				"y": -0.2757360132,
				"z": -0.9060503486,
				"element": "C" 
			},
			{
				"x": -3.0055838882,
				"y": 0.4150649606,
				"z": -1.1759402116,
				"element": "C" 
			},
			{
				"x": -4.2156044935,
				"y": -0.2680422615,
				"z": -1.4782722366,
				"element": "C" 
			},
			{
				"x": -5.3742053708,
				"y": 0.4298111526,
				"z": -1.7351255397,
				"element": "C" 
			},
			{
				"x": 0.6337980687,
				"y": -0.3429804504,
				"z": -0.3158532106,
				"element": "C" 
			},
			{
				"x": 1.5284264138,
				"y": 0.1074778866,
				"z": 0.6415706886,
				"element": "C" 
			},
			{
				"x": 2.7280206226,
				"y": -0.5910528062,
				"z": 0.9344916559,
				"element": "C" 
			},
			{
				"x": 3.6457854792,
				"y": -0.1373660146,
				"z": 1.921442133,
				"element": "C" 
			},
			{
				"x": 4.8018269147,
				"y": -0.8372334734,
				"z": 2.1842853383,
				"element": "C" 
			},
			{
				"x": 5.0959667483,
				"y": -2.026949891,
				"z": 1.4728447327,
				"element": "C" 
			},
			{
				"x": 4.2261204068,
				"y": -2.4942371369,
				"z": 0.5127318092,
				"element": "C" 
			},
			{
				"x": 3.0247112445,
				"y": -1.7963335891,
				"z": 0.2193826818,
				"element": "C" 
			},
			{
				"x": 2.0990441132,
				"y": -2.2437425563,
				"z": -0.7614538048,
				"element": "C" 
			},
			{
				"x": 0.9455522865,
				"y": -1.5437679237,
				"z": -1.0206864573,
				"element": "C" 
			},
			{
				"x": -6.2999318455,
				"y": 2.385170682,
				"z": -1.9055859684,
				"element": "H" 
			},
			{
				"x": -4.2245340606,
				"y": 3.6243005938,
				"z": -1.3804846054,
				"element": "H" 
			},
			{
				"x": -1.7947893004,
				"y": 3.6070683401,
				"z": -0.8112140313,
				"element": "H" 
			},
			{
				"x": 0.2750511848,
				"y": 2.3578322162,
				"z": -0.3679538022,
				"element": "H" 
			},
			{
				"x": -1.8123456913,
				"y": -1.3623744381,
				"z": -0.912506582,
				"element": "H" 
			},
			{
				"x": -4.210095353,
				"y": -1.3548395454,
				"z": -1.504294442,
				"element": "H" 
			},
			{
				"x": -6.2914259113,
				"y": -0.1043825639,
				"z": -1.9658790353,
				"element": "H" 
			},
			{
				"x": 1.3041665769,
				"y": 1.0053365351,
				"z": 1.2113460595,
				"element": "H" 
			},
			{
				"x": 3.4188008507,
				"y": 0.7755623909,
				"z": 2.4663075908,
				"element": "H" 
			},
			{
				"x": 5.4949393481,
				"y": -0.4789657136,
				"z": 2.9400269796,
				"element": "H" 
			},
			{
				"x": 6.0115079878,
				"y": -2.5696972669,
				"z": 1.6896033138,
				"element": "H" 
			},
			{
				"x": 4.4479420745,
				"y": -3.4070376473,
				"z": -0.0345332001,
				"element": "H" 
			},
			{
				"x": 2.3230584725,
				"y": -3.1504484446,
				"z": -1.317926185,
				"element": "H" 
			},
			{
				"x": 0.2675798992,
				"y": -1.8899639597,
				"z": -1.7947191565,
				"element": "H" 
			}
		],
		 "valence_orbital": [ 
			{
				"type": "occ",
				"energy": -0.28111,
				"method": "rhf"
			},
			{
				"type": "occ",
				"energy": -0.25401,
				"method": "rhf"
			},
			{
				"type": "occ",
				"energy": -0.23219,
				"method": "rhf"
			},
			{
				"type": "occ",
				"energy": -0.2186,
				"method": "rhf"
			},
			{
				"type": "occ",
				"energy": -0.20468,
				"method": "rhf"
			},
			{
				"type": "unocc",
				"energy": -0.04817,
				"method": "rhf"
			},
			{
				"type": "unocc",
				"energy": -0.0344,
				"method": "rhf"
			},
			{
				"type": "unocc",
				"energy": -0.01781,
				"method": "rhf"
			},
			{
				"type": "unocc",
				"energy": 0.00694,
				"method": "rhf"
			},
			{
				"type": "unocc",
				"energy": 0.03214,
				"method": "rhf"
			}
		],
		"cosmo_sigma_profile": { 
			"-0.025": 0.0,
			"-0.024": 0.0,
			"-0.023": 0.0,
			"-0.022": 0.0,
			"-0.021": 0.0,
			"-0.02": 0.0,
			"-0.019": 0.0,
			"-0.018": 0.0,
			"-0.017": 0.0,
			"-0.016": 0.0,
			"-0.015": 0.0,
			"-0.014": 0.0,
			"-0.013": 0.0,
			"-0.012": 0.0,
			"-0.011": 0.0,
			"-0.01": 0.0,
			"-0.009": 0.0,
			"-0.008": 0.0,
			"-0.007": 0.0895054308461,
			"-0.006": 20.0937777559,
			"-0.005": 28.8087187748,
			"-0.004": 29.7049586367,
			"-0.003": 24.2202566367,
			"-0.002": 17.2662652937,
			"-0.001": 18.0044772311,
			"0.0": 15.6253195298,
			"0.001": 17.5166010591,
			"0.002": 20.6245926544,
			"0.003": 27.1278529984,
			"0.004": 49.0312461378,
			"0.005": 29.5839246352,
			"0.006": 3.78657661266,
			"0.007": 0.0,
			"0.008": 0.0,
			"0.009": 0.0,
			"0.01": 0.0,
			"0.011": 0.0,
			"0.012": 0.0,
			"0.013": 0.0,
			"0.014": 0.0,
			"0.015": 0.0,
			"0.016": 0.0,
			"0.017": 0.0,
			"0.018": 0.0,
			"0.019": 0.0,
			"0.02": 0.0,
			"0.021": 0.0,
			"0.022": 0.0,
			"0.023": 0.0,
			"0.024": 0.0,
			"0.025": 0.0
		}
	}
}
