{
	 "smiles": "OC(=O)C(F)(F)C(F)(F)C(F)(F)C(F)(F)C(O)=O", 
	 "Tm": 407.15, 
	 "num_atms": 20, 
	 "gaussian": { 
		 "optdone": 1, 
		 "sigma_profile": "yes", 
		 "theory": "DFT", 
		 "functional": "B3LYP", 
		 "basiset": "6-31G**", 
		 "properties": { 
			 "R2extent": 3660.2811, 
			 "electric_dipole_moment_norm": 3.62534749369, 
			 "electric_quadrupole_moment_norm": 12.0732701659, 
			 "total_energy": -1329.41850161, 
			 "HOMO_LUMO_gap": 0.25818, 
			 "cosmo_polarized_energy": -14.53, 
			 "cosmo_cavitation_energy": 28.06, 
			 "cosmo_dispersion_energy": -19.11, 
			 "cosmo_repulsion_energy": 1.34, 
			 "cosmo_total_nonelectrostatic_energy": 10.29, 
			 "SMD_solvation_energy": 9.71 
		},
		"coords": [
			{
				"x": -2.0167583477,
				"y": 1.6913004259,
				"z": 1.287430262,
				"element": "O" 
			},
			{
				"x": -0.7142313208,
				"y": 1.5198088888,
				"z": 1.5559144594,
				"element": "C" 
			},
			{
				"x": -0.168146332,
				"y": 1.9691964183,
				"z": 2.52189782,
				"element": "O" 
			},
			{
				"x": 0.071079139,
				"y": 0.7109958988,
				"z": 0.4795138749,
				"element": "C" 
			},
			{
				"x": -0.1117372617,
				"y": 1.3279880247,
				"z": -0.7391390152,
				"element": "F" 
			},
			{
				"x": 1.3745617718,
				"y": 0.716220523,
				"z": 0.7818223321,
				"element": "F" 
			},
			{
				"x": -0.4218476169,
				"y": -0.7427824001,
				"z": 0.3219622722,
				"element": "C" 
			},
			{
				"x": -0.4337770016,
				"y": -1.3065780192,
				"z": 1.5499590104,
				"element": "F" 
			},
			{
				"x": -1.7108891071,
				"y": -0.6868186792,
				"z": -0.1379965709,
				"element": "F" 
			},
			{
				"x": 0.3824208305,
				"y": -1.6932939825,
				"z": -0.6120205951,
				"element": "C" 
			},
			{
				"x": -0.3019730002,
				"y": -2.8652035702,
				"z": -0.6023402148,
				"element": "F" 
			},
			{
				"x": 1.5968090475,
				"y": -1.8970811571,
				"z": -0.0686870878,
				"element": "F" 
			},
			{
				"x": 0.527151257,
				"y": -1.2924939787,
				"z": -2.1099090995,
				"element": "C" 
			},
			{
				"x": -0.7104063608,
				"y": -1.0418599147,
				"z": -2.5953710784,
				"element": "F" 
			},
			{
				"x": 1.0270145509,
				"y": -2.3872992443,
				"z": -2.7449558294,
				"element": "F" 
			},
			{
				"x": 1.5016989589,
				"y": -0.1354935681,
				"z": -2.4284977955,
				"element": "C" 
			},
			{
				"x": 1.0353631667,
				"y": 0.6194980272,
				"z": -3.4296497867,
				"element": "O" 
			},
			{
				"x": 2.5646083685,
				"y": 0.000170045,
				"z": -1.8796508109,
				"element": "O" 
			},
			{
				"x": -2.27660327,
				"y": 1.2144212602,
				"z": 0.4832701467,
				"element": "H" 
			},
			{
				"x": 1.719662528,
				"y": 1.284705002,
				"z": -3.6199522935,
				"element": "H" 
			}
		],
		 "valence_orbital": [ 
			{
				"type": "occ",
				"energy": -0.36977,
				"method": "rhf"
			},
			{
				"type": "occ",
				"energy": -0.35934,
				"method": "rhf"
			},
			{
				"type": "occ",
				"energy": -0.35278,
				"method": "rhf"
			},
			{
				"type": "occ",
				"energy": -0.31489,
				"method": "rhf"
			},
			{
				"type": "occ",
				"energy": -0.31051,
				"method": "rhf"
			},
			{
				"type": "unocc",
				"energy": -0.05233,
				"method": "rhf"
			},
			{
				"type": "unocc",
				"energy": -0.04164,
				"method": "rhf"
			},
			{
				"type": "unocc",
				"energy": 0.01278,
				"method": "rhf"
			},
			{
				"type": "unocc",
				"energy": 0.04513,
				"method": "rhf"
			},
			{
				"type": "unocc",
				"energy": 0.04993,
				"method": "rhf"
			}
		],
		"cosmo_sigma_profile": { 
			"-0.025": 0.0,
			"-0.024": 0.0,
			"-0.023": 0.0,
			"-0.022": 0.0,
			"-0.021": 0.117834493512,
			"-0.02": 0.998512984386,
			"-0.019": 1.40426199916,
			"-0.018": 1.86241355477,
			"-0.017": 1.12073472638,
			"-0.016": 1.23093574332,
			"-0.015": 1.80330202213,
			"-0.014": 1.90456423334,
			"-0.013": 1.29523232116,
			"-0.012": 1.20139934532,
			"-0.011": 1.34453521122,
			"-0.01": 1.96571265674,
			"-0.009": 1.60245146369,
			"-0.008": 3.42338652303,
			"-0.007": 3.2539763792,
			"-0.006": 3.74951847992,
			"-0.005": 4.45660579476,
			"-0.004": 5.86645524215,
			"-0.003": 8.2911448582,
			"-0.002": 9.59959034613,
			"-0.001": 19.1123277479,
			"0.0": 30.0161864445,
			"0.001": 45.1740047521,
			"0.002": 18.293268593,
			"0.003": 7.83436434594,
			"0.004": 6.65480011566,
			"0.005": 5.46049708799,
			"0.006": 8.61368644105,
			"0.007": 8.01180342772,
			"0.008": 7.27189501591,
			"0.009": 9.41231751866,
			"0.01": 2.53405383201,
			"0.011": 0.0,
			"0.012": 0.0,
			"0.013": 0.0,
			"0.014": 0.0,
			"0.015": 0.0,
			"0.016": 0.0,
			"0.017": 0.0,
			"0.018": 0.0,
			"0.019": 0.0,
			"0.02": 0.0,
			"0.021": 0.0,
			"0.022": 0.0,
			"0.023": 0.0,
			"0.024": 0.0,
			"0.025": 0.0
		}
	}
}
