{
	 "smiles": "CC1=NN(C(Cl)=C1CO)C1=CC=CC=C1", 
	 "Tm": 363.15, 
	 "num_atms": 26, 
	 "gaussian": { 
		 "optdone": 1, 
		 "sigma_profile": "yes", 
		 "theory": "DFT", 
		 "functional": "B3LYP", 
		 "basiset": "6-31G**", 
		 "properties": { 
			 "R2extent": 4047.3304, 
			 "electric_dipole_moment_norm": 1.8321418313, 
			 "electric_quadrupole_moment_norm": 5.17409108443, 
			 "total_energy": -1070.68933929, 
			 "HOMO_LUMO_gap": 0.20582, 
			 "cosmo_polarized_energy": -9.89, 
			 "cosmo_cavitation_energy": 31.67, 
			 "cosmo_dispersion_energy": -22.8, 
			 "cosmo_repulsion_energy": 1.8, 
			 "cosmo_total_nonelectrostatic_energy": 10.68, 
			 "SMD_solvation_energy": 4.58 
		},
		"coords": [
			{
				"x": -2.1601410385,
				"y": -2.2249193291,
				"z": 1.5519342675,
				"element": "C" 
			},
			{
				"x": -1.3072709415,
				"y": -1.1580297554,
				"z": 0.9389538163,
				"element": "C" 
			},
			{
				"x": -0.8051243578,
				"y": -1.3025197472,
				"z": -0.282518628,
				"element": "N" 
			},
			{
				"x": -0.073205393,
				"y": -0.1738364833,
				"z": -0.5238366724,
				"element": "N" 
			},
			{
				"x": -0.145541257,
				"y": 0.6747543476,
				"z": 0.5469768754,
				"element": "C" 
			},
			{
				"x": 0.5699387794,
				"y": 2.2507144216,
				"z": 0.5664450524,
				"element": "Cl" 
			},
			{
				"x": -0.9229485246,
				"y": 0.0822147123,
				"z": 1.5238565974,
				"element": "C" 
			},
			{
				"x": -1.3290446734,
				"y": 0.6282531059,
				"z": 2.8588409942,
				"element": "C" 
			},
			{
				"x": -2.7452308143,
				"y": 0.752502276,
				"z": 3.0019210622,
				"element": "O" 
			},
			{
				"x": 0.5701306787,
				"y": -0.0232652629,
				"z": -1.7863432274,
				"element": "C" 
			},
			{
				"x": 1.8735201807,
				"y": 0.4741368151,
				"z": -1.8765537932,
				"element": "C" 
			},
			{
				"x": 2.4736539081,
				"y": 0.5986047619,
				"z": -3.1298638335,
				"element": "C" 
			},
			{
				"x": 1.7911401056,
				"y": 0.2096674783,
				"z": -4.2831865635,
				"element": "C" 
			},
			{
				"x": 0.4979402624,
				"y": -0.3085492525,
				"z": -4.1803125073,
				"element": "C" 
			},
			{
				"x": -0.1187715701,
				"y": -0.42283405,
				"z": -2.9364367999,
				"element": "C" 
			},
			{
				"x": -3.0555560348,
				"y": -1.7865813004,
				"z": 2.0009728911,
				"element": "H" 
			},
			{
				"x": -1.6218358505,
				"y": -2.7528670051,
				"z": 2.348417139,
				"element": "H" 
			},
			{
				"x": -2.4478145234,
				"y": -2.9561285174,
				"z": 0.7934770532,
				"element": "H" 
			},
			{
				"x": -0.8208408211,
				"y": 1.5863486114,
				"z": 3.0380171744,
				"element": "H" 
			},
			{
				"x": -1.0245830685,
				"y": -0.0530110969,
				"z": 3.6606654166,
				"element": "H" 
			},
			{
				"x": -3.0581271127,
				"y": 1.3075505798,
				"z": 2.2751990142,
				"element": "H" 
			},
			{
				"x": 2.4168061407,
				"y": 0.7463568877,
				"z": -0.9796364354,
				"element": "H" 
			},
			{
				"x": 3.4852409578,
				"y": 0.9872721878,
				"z": -3.1990315176,
				"element": "H" 
			},
			{
				"x": 2.2659403297,
				"y": 0.3030125912,
				"z": -5.255230195,
				"element": "H" 
			},
			{
				"x": -0.0373783829,
				"y": -0.6201570261,
				"z": -5.0722843397,
				"element": "H" 
			},
			{
				"x": -1.119696979,
				"y": -0.8257899505,
				"z": -2.8369428408,
				"element": "H" 
			}
		],
		 "valence_orbital": [ 
			{
				"type": "occ",
				"energy": -0.28409,
				"method": "rhf"
			},
			{
				"type": "occ",
				"energy": -0.27167,
				"method": "rhf"
			},
			{
				"type": "occ",
				"energy": -0.2593,
				"method": "rhf"
			},
			{
				"type": "occ",
				"energy": -0.24296,
				"method": "rhf"
			},
			{
				"type": "occ",
				"energy": -0.23058,
				"method": "rhf"
			},
			{
				"type": "unocc",
				"energy": -0.02476,
				"method": "rhf"
			},
			{
				"type": "unocc",
				"energy": -0.00995,
				"method": "rhf"
			},
			{
				"type": "unocc",
				"energy": 0.02105,
				"method": "rhf"
			},
			{
				"type": "unocc",
				"energy": 0.02916,
				"method": "rhf"
			},
			{
				"type": "unocc",
				"energy": 0.04155,
				"method": "rhf"
			}
		],
		"cosmo_sigma_profile": { 
			"-0.025": 0.0,
			"-0.024": 0.0,
			"-0.023": 0.0,
			"-0.022": 0.0,
			"-0.021": 0.0,
			"-0.02": 0.0,
			"-0.019": 0.0,
			"-0.018": 0.0,
			"-0.017": 0.0,
			"-0.016": 0.120951240913,
			"-0.015": 0.820368980648,
			"-0.014": 0.967776440033,
			"-0.013": 1.03036759982,
			"-0.012": 0.71779014159,
			"-0.011": 0.62902124224,
			"-0.01": 0.946003487562,
			"-0.009": 0.712115091095,
			"-0.008": 1.26402267706,
			"-0.007": 1.69930400603,
			"-0.006": 10.5769380473,
			"-0.005": 15.9236919698,
			"-0.004": 21.6148539941,
			"-0.003": 20.6302436963,
			"-0.002": 21.3887397,
			"-0.001": 22.9367418948,
			"0.0": 23.1859279071,
			"0.001": 20.6744109799,
			"0.002": 20.3219829945,
			"0.003": 19.4673815769,
			"0.004": 17.1251510302,
			"0.005": 9.30014722706,
			"0.006": 3.65191040757,
			"0.007": 2.99304601278,
			"0.008": 2.36718306893,
			"0.009": 2.45657177221,
			"0.01": 2.43122568676,
			"0.011": 1.96207156517,
			"0.012": 1.66956182093,
			"0.013": 2.22060208941,
			"0.014": 2.3823085177,
			"0.015": 0.323329250485,
			"0.016": 0.0,
			"0.017": 0.0,
			"0.018": 0.0,
			"0.019": 0.0,
			"0.02": 0.0,
			"0.021": 0.0,
			"0.022": 0.0,
			"0.023": 0.0,
			"0.024": 0.0,
			"0.025": 0.0
		}
	}
}
