{
	 "smiles": "OC(=O)C1(CCCC1)NC(=O)NCC1=CC(Br)=CC=C1", 
	 "Tm": 444.15, 
	 "num_atms": 37, 
	 "gaussian": { 
		 "optdone": 1, 
		 "sigma_profile": "yes", 
		 "theory": "DFT", 
		 "functional": "B3LYP", 
		 "basiset": "6-31G**", 
		 "properties": { 
			 "R2extent": 9305.8673, 
			 "electric_dipole_moment_norm": 5.15435127732, 
			 "electric_quadrupole_moment_norm": 11.4740195381, 
			 "total_energy": -3450.35235094, 
			 "HOMO_LUMO_gap": 0.22153, 
			 "cosmo_polarized_energy": -20.95, 
			 "cosmo_cavitation_energy": 41.62, 
			 "cosmo_dispersion_energy": -28.23, 
			 "cosmo_repulsion_energy": 2.2, 
			 "cosmo_total_nonelectrostatic_energy": 15.6, 
			 "SMD_solvation_energy": 6.61 
		},
		"coords": [
			{
				"x": -1.5860120905,
				"y": 0.3020932843,
				"z": 1.6673690869,
				"element": "O" 
			},
			{
				"x": -0.2453959465,
				"y": 0.3805644496,
				"z": 1.8593747597,
				"element": "C" 
			},
			{
				"x": 0.3028848253,
				"y": -0.3040656387,
				"z": 2.6873939432,
				"element": "O" 
			},
			{
				"x": 0.4647258896,
				"y": 1.4562140574,
				"z": 1.0072610719,
				"element": "C" 
			},
			{
				"x": 0.3262856309,
				"y": 2.7969102597,
				"z": 1.8119928834,
				"element": "C" 
			},
			{
				"x": 1.638721924,
				"y": 2.8933843596,
				"z": 2.6015613904,
				"element": "C" 
			},
			{
				"x": 2.6866469914,
				"y": 2.3896511805,
				"z": 1.5960262463,
				"element": "C" 
			},
			{
				"x": 1.9988388454,
				"y": 1.1884452624,
				"z": 0.9139816244,
				"element": "C" 
			},
			{
				"x": -0.2525335079,
				"y": 1.4924776585,
				"z": -0.2897707438,
				"element": "N" 
			},
			{
				"x": 0.0913012483,
				"y": 2.4239991395,
				"z": -1.2770283622,
				"element": "C" 
			},
			{
				"x": 0.8405017709,
				"y": 3.3764187904,
				"z": -1.1042565121,
				"element": "O" 
			},
			{
				"x": -0.5034019641,
				"y": 2.190737626,
				"z": -2.5046881211,
				"element": "N" 
			},
			{
				"x": -1.6545310757,
				"y": 1.3315784136,
				"z": -2.7494671197,
				"element": "C" 
			},
			{
				"x": -1.3339838711,
				"y": -0.1581277224,
				"z": -2.8039696856,
				"element": "C" 
			},
			{
				"x": -0.1610922354,
				"y": -0.6093057311,
				"z": -3.4238936826,
				"element": "C" 
			},
			{
				"x": 0.0910226565,
				"y": -1.976040615,
				"z": -3.5054550883,
				"element": "C" 
			},
			{
				"x": 1.6923450897,
				"y": -2.5804940617,
				"z": -4.3551151433,
				"element": "Br" 
			},
			{
				"x": -0.7979257874,
				"y": -2.9137575991,
				"z": -2.979109628,
				"element": "C" 
			},
			{
				"x": -1.9604535291,
				"y": -2.4598406937,
				"z": -2.3569828809,
				"element": "C" 
			},
			{
				"x": -2.2272705257,
				"y": -1.0923731232,
				"z": -2.266623857,
				"element": "C" 
			},
			{
				"x": -1.8181832451,
				"y": 0.9390442702,
				"z": 0.9684800344,
				"element": "H" 
			},
			{
				"x": -0.569318303,
				"y": 2.807932613,
				"z": 2.441664442,
				"element": "H" 
			},
			{
				"x": 0.2577214415,
				"y": 3.6183560946,
				"z": 1.0984181316,
				"element": "H" 
			},
			{
				"x": 1.6043674583,
				"y": 2.2322575425,
				"z": 3.4754010829,
				"element": "H" 
			},
			{
				"x": 1.8332577251,
				"y": 3.9097177696,
				"z": 2.9579386662,
				"element": "H" 
			},
			{
				"x": 2.8863202863,
				"y": 3.1689730338,
				"z": 0.8538643727,
				"element": "H" 
			},
			{
				"x": 3.6356470164,
				"y": 2.1158632695,
				"z": 2.0670050993,
				"element": "H" 
			},
			{
				"x": 2.3074385602,
				"y": 1.068483915,
				"z": -0.1271872129,
				"element": "H" 
			},
			{
				"x": 2.2224184812,
				"y": 0.2618112101,
				"z": 1.4479391499,
				"element": "H" 
			},
			{
				"x": -0.4021524584,
				"y": 0.5647408471,
				"z": -0.6776891321,
				"element": "H" 
			},
			{
				"x": -0.3227138894,
				"y": 2.9424782332,
				"z": -3.1537056587,
				"element": "H" 
			},
			{
				"x": -2.4358041796,
				"y": 1.5022670798,
				"z": -1.9967144754,
				"element": "H" 
			},
			{
				"x": -2.0773659174,
				"y": 1.6402569482,
				"z": -3.7117534402,
				"element": "H" 
			},
			{
				"x": 0.5483289707,
				"y": 0.1046917822,
				"z": -3.8268187775,
				"element": "H" 
			},
			{
				"x": -0.5795481836,
				"y": -3.973067534,
				"z": -3.0481308484,
				"element": "H" 
			},
			{
				"x": -2.6556437551,
				"y": -3.1776168247,
				"z": -1.932387929,
				"element": "H" 
			},
			{
				"x": -3.1345443468,
				"y": -0.7506595465,
				"z": -1.7750236864,
				"element": "H" 
			}
		],
		 "valence_orbital": [ 
			{
				"type": "occ",
				"energy": -0.27985,
				"method": "rhf"
			},
			{
				"type": "occ",
				"energy": -0.27501,
				"method": "rhf"
			},
			{
				"type": "occ",
				"energy": -0.2651,
				"method": "rhf"
			},
			{
				"type": "occ",
				"energy": -0.25914,
				"method": "rhf"
			},
			{
				"type": "occ",
				"energy": -0.25641,
				"method": "rhf"
			},
			{
				"type": "unocc",
				"energy": -0.03488,
				"method": "rhf"
			},
			{
				"type": "unocc",
				"energy": -0.03111,
				"method": "rhf"
			},
			{
				"type": "unocc",
				"energy": -0.00286,
				"method": "rhf"
			},
			{
				"type": "unocc",
				"energy": 0.00562,
				"method": "rhf"
			},
			{
				"type": "unocc",
				"energy": 0.03221,
				"method": "rhf"
			}
		],
		"cosmo_sigma_profile": { 
			"-0.025": 0.0,
			"-0.024": 0.0,
			"-0.023": 0.0,
			"-0.022": 0.0,
			"-0.021": 0.0,
			"-0.02": 0.0,
			"-0.019": 0.0,
			"-0.018": 0.0,
			"-0.017": 0.0,
			"-0.016": 0.0,
			"-0.015": 0.0,
			"-0.014": 0.907626202774,
			"-0.013": 2.14055875171,
			"-0.012": 2.40974233744,
			"-0.011": 3.01805629764,
			"-0.01": 2.262897439,
			"-0.009": 3.92999314839,
			"-0.008": 4.47743212976,
			"-0.007": 12.2474844869,
			"-0.006": 14.9107464179,
			"-0.005": 16.3762244102,
			"-0.004": 20.3135188596,
			"-0.003": 21.3162981068,
			"-0.002": 24.2339899536,
			"-0.001": 31.9133664936,
			"0.0": 30.9070693876,
			"0.001": 28.4755338867,
			"0.002": 19.4998767523,
			"0.003": 21.0892139908,
			"0.004": 18.0741730716,
			"0.005": 10.7317141861,
			"0.006": 3.6408704783,
			"0.007": 4.93135126394,
			"0.008": 4.3128259163,
			"0.009": 4.86244193165,
			"0.01": 6.30274813461,
			"0.011": 6.53191053138,
			"0.012": 5.51950280154,
			"0.013": 3.44420597216,
			"0.014": 2.5991444756,
			"0.015": 0.239449037968,
			"0.016": 0.0,
			"0.017": 0.0,
			"0.018": 0.0,
			"0.019": 0.0,
			"0.02": 0.0,
			"0.021": 0.0,
			"0.022": 0.0,
			"0.023": 0.0,
			"0.024": 0.0,
			"0.025": 0.0
		}
	}
}
