{
	 "smiles": "COC1=CC=CC=C1OC1=CC=C(C=C1N)C(F)(F)F", 
	 "Tm": 301.15, 
	 "num_atms": 32, 
	 "gaussian": { 
		 "optdone": 1, 
		 "sigma_profile": "yes", 
		 "theory": "DFT", 
		 "functional": "B3LYP", 
		 "basiset": "6-31G**", 
		 "properties": { 
			 "R2extent": 6938.0456, 
			 "electric_dipole_moment_norm": 3.74622518544, 
			 "electric_quadrupole_moment_norm": 16.1539768813, 
			 "total_energy": -1045.42003699, 
			 "HOMO_LUMO_gap": 0.19115, 
			 "cosmo_polarized_energy": -12.02, 
			 "cosmo_cavitation_energy": 37.34, 
			 "cosmo_dispersion_energy": -25.38, 
			 "cosmo_repulsion_energy": 1.9, 
			 "cosmo_total_nonelectrostatic_energy": 13.86, 
			 "SMD_solvation_energy": 8.13 
		},
		"coords": [
			{
				"x": 0.1335798562,
				"y": 1.3225734325,
				"z": -2.2283183465,
				"element": "C" 
			},
			{
				"x": -0.3213507241,
				"y": 1.1016479908,
				"z": -0.8928136322,
				"element": "O" 
			},
			{
				"x": 0.2321056979,
				"y": 1.9394116402,
				"z": 0.0472505082,
				"element": "C" 
			},
			{
				"x": -0.3738754326,
				"y": 3.1676048097,
				"z": 0.3249026058,
				"element": "C" 
			},
			{
				"x": 0.1503590176,
				"y": 4.0275700877,
				"z": 1.2891084429,
				"element": "C" 
			},
			{
				"x": 1.2996169443,
				"y": 3.6569065646,
				"z": 1.9897681436,
				"element": "C" 
			},
			{
				"x": 1.9045188386,
				"y": 2.4271784224,
				"z": 1.7349982839,
				"element": "C" 
			},
			{
				"x": 1.3779244249,
				"y": 1.5626354376,
				"z": 0.7704488733,
				"element": "C" 
			},
			{
				"x": 2.0850469409,
				"y": 0.3921320074,
				"z": 0.5652658895,
				"element": "O" 
			},
			{
				"x": 1.4796600281,
				"y": -0.7988446459,
				"z": 0.1862397888,
				"element": "C" 
			},
			{
				"x": 1.9917110832,
				"y": -1.448666039,
				"z": -0.9305462727,
				"element": "C" 
			},
			{
				"x": 1.5061886409,
				"y": -2.6985526815,
				"z": -1.3121292406,
				"element": "C" 
			},
			{
				"x": 0.5005521085,
				"y": -3.2912336932,
				"z": -0.547356211,
				"element": "C" 
			},
			{
				"x": 0.0033006277,
				"y": -2.6544039103,
				"z": 0.5906791426,
				"element": "C" 
			},
			{
				"x": 0.4903809079,
				"y": -1.403640387,
				"z": 0.9925135079,
				"element": "C" 
			},
			{
				"x": -0.0085537166,
				"y": -0.7621848356,
				"z": 2.1194680956,
				"element": "N" 
			},
			{
				"x": -0.0908799537,
				"y": -4.6053012943,
				"z": -0.9728694221,
				"element": "C" 
			},
			{
				"x": -0.5181970923,
				"y": -5.3369937667,
				"z": 0.0832357113,
				"element": "F" 
			},
			{
				"x": -1.1630053139,
				"y": -4.4370346015,
				"z": -1.7844610547,
				"element": "F" 
			},
			{
				"x": 0.7969272649,
				"y": -5.3631533049,
				"z": -1.6557103637,
				"element": "F" 
			},
			{
				"x": -0.4111168648,
				"y": 0.6189695993,
				"z": -2.8603525696,
				"element": "H" 
			},
			{
				"x": -0.0778787461,
				"y": 2.3488494622,
				"z": -2.5547906203,
				"element": "H" 
			},
			{
				"x": 1.2100759977,
				"y": 1.1328657788,
				"z": -2.3219676059,
				"element": "H" 
			},
			{
				"x": -1.2704835357,
				"y": 3.4250869762,
				"z": -0.2310046358,
				"element": "H" 
			},
			{
				"x": -0.3347876657,
				"y": 4.977586794,
				"z": 1.4902726195,
				"element": "H" 
			},
			{
				"x": 1.7225858005,
				"y": 4.3172057294,
				"z": 2.7407370101,
				"element": "H" 
			},
			{
				"x": 2.797470829,
				"y": 2.114499478,
				"z": 2.2675020391,
				"element": "H" 
			},
			{
				"x": 2.7841661014,
				"y": -0.9601221708,
				"z": -1.4880848027,
				"element": "H" 
			},
			{
				"x": 1.9079630974,
				"y": -3.2060057625,
				"z": -2.1810085883,
				"element": "H" 
			},
			{
				"x": -0.7596505817,
				"y": -3.1423062816,
				"z": 1.189428389,
				"element": "H" 
			},
			{
				"x": 0.6108541169,
				"y": -0.0961073523,
				"z": 2.5584473888,
				"element": "H" 
			},
			{
				"x": -0.4720086973,
				"y": -1.3637734834,
				"z": 2.7853469263,
				"element": "H" 
			}
		],
		 "valence_orbital": [ 
			{
				"type": "occ",
				"energy": -0.28095,
				"method": "rhf"
			},
			{
				"type": "occ",
				"energy": -0.25228,
				"method": "rhf"
			},
			{
				"type": "occ",
				"energy": -0.24919,
				"method": "rhf"
			},
			{
				"type": "occ",
				"energy": -0.22986,
				"method": "rhf"
			},
			{
				"type": "occ",
				"energy": -0.20762,
				"method": "rhf"
			},
			{
				"type": "unocc",
				"energy": -0.01647,
				"method": "rhf"
			},
			{
				"type": "unocc",
				"energy": -0.00722,
				"method": "rhf"
			},
			{
				"type": "unocc",
				"energy": 0.00279,
				"method": "rhf"
			},
			{
				"type": "unocc",
				"energy": 0.00411,
				"method": "rhf"
			},
			{
				"type": "unocc",
				"energy": 0.07268,
				"method": "rhf"
			}
		],
		"cosmo_sigma_profile": { 
			"-0.025": 0.0,
			"-0.024": 0.0,
			"-0.023": 0.0,
			"-0.022": 0.0,
			"-0.021": 0.0,
			"-0.02": 0.0,
			"-0.019": 0.0,
			"-0.018": 0.0,
			"-0.017": 0.0,
			"-0.016": 0.0,
			"-0.015": 0.0,
			"-0.014": 0.0694926877117,
			"-0.013": 1.26261456907,
			"-0.012": 1.4606707128,
			"-0.011": 2.61088103567,
			"-0.01": 2.96965060582,
			"-0.009": 3.02639705718,
			"-0.008": 2.96564105787,
			"-0.007": 3.40827892872,
			"-0.006": 13.4430858265,
			"-0.005": 18.6513965206,
			"-0.004": 23.5639388453,
			"-0.003": 23.2217679143,
			"-0.002": 18.6555064933,
			"-0.001": 15.279031872,
			"0.0": 15.6712499656,
			"0.001": 17.9496379442,
			"0.002": 27.1813441705,
			"0.003": 47.8758142538,
			"0.004": 25.4691960388,
			"0.005": 11.4606760395,
			"0.006": 4.95872001796,
			"0.007": 3.98367432713,
			"0.008": 2.79963797778,
			"0.009": 3.42976818448,
			"0.01": 3.25264691882,
			"0.011": 2.13830346211,
			"0.012": 1.04527915878,
			"0.013": 0.0865289136347,
			"0.014": 0.0,
			"0.015": 0.0,
			"0.016": 0.0,
			"0.017": 0.0,
			"0.018": 0.0,
			"0.019": 0.0,
			"0.02": 0.0,
			"0.021": 0.0,
			"0.022": 0.0,
			"0.023": 0.0,
			"0.024": 0.0,
			"0.025": 0.0
		}
	}
}
