{
	 "smiles": "O=S(=O)(NC1=NC=CS1)C1=CC=CC=C1", 
	 "Tm": 443.15, 
	 "num_atms": 23, 
	 "gaussian": { 
		 "optdone": 1, 
		 "sigma_profile": "yes", 
		 "theory": "DFT", 
		 "functional": "B3LYP", 
		 "basiset": "6-31G**", 
		 "properties": { 
			 "R2extent": 4506.7452, 
			 "electric_dipole_moment_norm": 3.98544276461, 
			 "electric_quadrupole_moment_norm": 13.2300068568, 
			 "total_energy": -1404.01481495, 
			 "HOMO_LUMO_gap": 0.18902, 
			 "cosmo_polarized_energy": -15.21, 
			 "cosmo_cavitation_energy": 30.6, 
			 "cosmo_dispersion_energy": -23.22, 
			 "cosmo_repulsion_energy": 1.72, 
			 "cosmo_total_nonelectrostatic_energy": 9.1, 
			 "SMD_solvation_energy": 3.94 
		},
		"coords": [
			{
				"x": -2.3503839091,
				"y": 0.7850463208,
				"z": -0.8811066216,
				"element": "O" 
			},
			{
				"x": -1.0577832936,
				"y": 0.2147740471,
				"z": -0.493317778,
				"element": "S" 
			},
			{
				"x": -0.94050672,
				"y": -0.8174978358,
				"z": 0.5299780197,
				"element": "O" 
			},
			{
				"x": -0.4743542517,
				"y": -0.3929006189,
				"z": -2.0021029765,
				"element": "N" 
			},
			{
				"x": 0.5053861532,
				"y": -1.3714239654,
				"z": -2.1052183754,
				"element": "C" 
			},
			{
				"x": 1.5345984066,
				"y": -1.4657816873,
				"z": -1.3183409958,
				"element": "N" 
			},
			{
				"x": 2.3313293948,
				"y": -2.5274363228,
				"z": -1.6907052389,
				"element": "C" 
			},
			{
				"x": 1.9268875001,
				"y": -3.2420362524,
				"z": -2.7754790609,
				"element": "C" 
			},
			{
				"x": 0.4275207634,
				"y": -2.5903379394,
				"z": -3.3835257316,
				"element": "S" 
			},
			{
				"x": 0.0661019029,
				"y": 1.5502450444,
				"z": -0.1018516479,
				"element": "C" 
			},
			{
				"x": 1.2832522573,
				"y": 1.2643688751,
				"z": 0.5205614375,
				"element": "C" 
			},
			{
				"x": 2.1293991814,
				"y": 2.3246538264,
				"z": 0.8433455369,
				"element": "C" 
			},
			{
				"x": 1.7546398258,
				"y": 3.6393048794,
				"z": 0.5535814341,
				"element": "C" 
			},
			{
				"x": 0.5299933344,
				"y": 3.9055295472,
				"z": -0.0628447687,
				"element": "C" 
			},
			{
				"x": -0.3273446063,
				"y": 2.8569673576,
				"z": -0.3965655275,
				"element": "C" 
			},
			{
				"x": -1.237319575,
				"y": -0.4134837149,
				"z": -2.6696131698,
				"element": "H" 
			},
			{
				"x": 3.2308403403,
				"y": -2.7305971819,
				"z": -1.1217936184,
				"element": "H" 
			},
			{
				"x": 2.4049047914,
				"y": -4.0827021607,
				"z": -3.2562334211,
				"element": "H" 
			},
			{
				"x": 1.5592382736,
				"y": 0.236406029,
				"z": 0.7220375863,
				"element": "H" 
			},
			{
				"x": 3.0814076943,
				"y": 2.1231949592,
				"z": 1.3248010229,
				"element": "H" 
			},
			{
				"x": 2.418362073,
				"y": 4.4592980406,
				"z": 0.8119630233,
				"element": "H" 
			},
			{
				"x": 0.238530005,
				"y": 4.9284881644,
				"z": -0.2803199689,
				"element": "H" 
			},
			{
				"x": -1.2890995417,
				"y": 3.0388205883,
				"z": -0.8626491597,
				"element": "H" 
			}
		],
		 "valence_orbital": [ 
			{
				"type": "occ",
				"energy": -0.28984,
				"method": "rhf"
			},
			{
				"type": "occ",
				"energy": -0.28803,
				"method": "rhf"
			},
			{
				"type": "occ",
				"energy": -0.27382,
				"method": "rhf"
			},
			{
				"type": "occ",
				"energy": -0.26798,
				"method": "rhf"
			},
			{
				"type": "occ",
				"energy": -0.23027,
				"method": "rhf"
			},
			{
				"type": "unocc",
				"energy": -0.04125,
				"method": "rhf"
			},
			{
				"type": "unocc",
				"energy": -0.02575,
				"method": "rhf"
			},
			{
				"type": "unocc",
				"energy": -0.01932,
				"method": "rhf"
			},
			{
				"type": "unocc",
				"energy": -0.00488,
				"method": "rhf"
			},
			{
				"type": "unocc",
				"energy": 0.03308,
				"method": "rhf"
			}
		],
		"cosmo_sigma_profile": { 
			"-0.025": 0.0,
			"-0.024": 0.0,
			"-0.023": 0.0,
			"-0.022": 0.0,
			"-0.021": 0.0,
			"-0.02": 0.0,
			"-0.019": 0.0,
			"-0.018": 0.0110043057243,
			"-0.017": 0.683624324727,
			"-0.016": 0.983964725895,
			"-0.015": 1.06749403857,
			"-0.014": 1.08827965369,
			"-0.013": 1.4818093172,
			"-0.012": 0.568885211073,
			"-0.011": 0.88620910324,
			"-0.01": 1.31883250341,
			"-0.009": 2.9558518803,
			"-0.008": 3.94801100959,
			"-0.007": 12.1916172046,
			"-0.006": 14.9608337141,
			"-0.005": 15.3973567562,
			"-0.004": 11.9815862191,
			"-0.003": 12.5765673254,
			"-0.002": 12.3387312706,
			"-0.001": 14.2510009971,
			"0.0": 16.9401924099,
			"0.001": 18.5681565583,
			"0.002": 23.9164948689,
			"0.003": 26.2545472599,
			"0.004": 11.0296029589,
			"0.005": 6.5596407294,
			"0.006": 5.3002966625,
			"0.007": 4.97863374846,
			"0.008": 5.27661261619,
			"0.009": 6.30119509464,
			"0.01": 11.3447690155,
			"0.011": 3.75920402282,
			"0.012": 0.0,
			"0.013": 0.0,
			"0.014": 0.0,
			"0.015": 0.0,
			"0.016": 0.0,
			"0.017": 0.0,
			"0.018": 0.0,
			"0.019": 0.0,
			"0.02": 0.0,
			"0.021": 0.0,
			"0.022": 0.0,
			"0.023": 0.0,
			"0.024": 0.0,
			"0.025": 0.0
		}
	}
}
