{
	 "smiles": "OC(=O)CCNC(=O)C1CCC1", 
	 "Tm": 379.15, 
	 "num_atms": 25, 
	 "gaussian": { 
		 "optdone": 1, 
		 "sigma_profile": "yes", 
		 "theory": "DFT", 
		 "functional": "B3LYP", 
		 "basiset": "6-31G**", 
		 "properties": { 
			 "R2extent": 2788.1966, 
			 "electric_dipole_moment_norm": 2.18811224803, 
			 "electric_quadrupole_moment_norm": 32.2993782484, 
			 "total_energy": -593.097620998, 
			 "HOMO_LUMO_gap": 0.23559, 
			 "cosmo_polarized_energy": -22.36, 
			 "cosmo_cavitation_energy": 28.01, 
			 "cosmo_dispersion_energy": -19.72, 
			 "cosmo_repulsion_energy": 1.63, 
			 "cosmo_total_nonelectrostatic_energy": 9.91, 
			 "SMD_solvation_energy": 5.81 
		},
		"coords": [
			{
				"x": 1.8141253925,
				"y": -1.755691076,
				"z": 3.0779071385,
				"element": "O" 
			},
			{
				"x": 0.67050231,
				"y": -1.595221785,
				"z": 2.3620102298,
				"element": "C" 
			},
			{
				"x": -0.3789394073,
				"y": -1.4150302343,
				"z": 2.9283262872,
				"element": "O" 
			},
			{
				"x": 0.8246205169,
				"y": -1.6411223981,
				"z": 0.8474277413,
				"element": "C" 
			},
			{
				"x": -0.5357353956,
				"y": -1.6135562231,
				"z": 0.1315036061,
				"element": "C" 
			},
			{
				"x": -0.4102082302,
				"y": -1.5773138994,
				"z": -1.3137478116,
				"element": "N" 
			},
			{
				"x": -0.5333195044,
				"y": -0.5485304684,
				"z": -2.2240924469,
				"element": "C" 
			},
			{
				"x": -0.253771179,
				"y": -0.7624679383,
				"z": -3.4000939281,
				"element": "O" 
			},
			{
				"x": -1.0517739345,
				"y": 0.8210109717,
				"z": -1.8022503311,
				"element": "C" 
			},
			{
				"x": -0.4369649368,
				"y": 1.6840748632,
				"z": -0.6551535423,
				"element": "C" 
			},
			{
				"x": -1.8652825625,
				"y": 2.2132045962,
				"z": -0.3484209912,
				"element": "C" 
			},
			{
				"x": -2.452325349,
				"y": 1.0125598314,
				"z": -1.1393904043,
				"element": "C" 
			},
			{
				"x": 2.5680459223,
				"y": -1.8897516394,
				"z": 2.4858869258,
				"element": "H" 
			},
			{
				"x": 1.432630301,
				"y": -0.7834453083,
				"z": 0.5297370095,
				"element": "H" 
			},
			{
				"x": 1.3898596635,
				"y": -2.538990171,
				"z": 0.5629046757,
				"element": "H" 
			},
			{
				"x": -1.1106253743,
				"y": -2.4993647569,
				"z": 0.4233399777,
				"element": "H" 
			},
			{
				"x": -1.1081955168,
				"y": -0.7594188786,
				"z": 0.4848834119,
				"element": "H" 
			},
			{
				"x": -0.0757404673,
				"y": -2.4194625622,
				"z": -1.7663882853,
				"element": "H" 
			},
			{
				"x": -1.0187951123,
				"y": 1.3983934539,
				"z": -2.7286556055,
				"element": "H" 
			},
			{
				"x": -0.0374771322,
				"y": 1.0939332734,
				"z": 0.1727407495,
				"element": "H" 
			},
			{
				"x": 0.323544516,
				"y": 2.4108184344,
				"z": -0.9537500781,
				"element": "H" 
			},
			{
				"x": -2.1492638266,
				"y": 2.3106771486,
				"z": 0.7026155932,
				"element": "H" 
			},
			{
				"x": -2.0612156476,
				"y": 3.165099868,
				"z": -0.8506375381,
				"element": "H" 
			},
			{
				"x": -2.7339071024,
				"y": 0.1837441763,
				"z": -0.4846485716,
				"element": "H" 
			},
			{
				"x": -3.2856879433,
				"y": 1.2061507218,
				"z": -1.819853812,
				"element": "H" 
			}
		],
		 "valence_orbital": [ 
			{
				"type": "occ",
				"energy": -0.32013,
				"method": "rhf"
			},
			{
				"type": "occ",
				"energy": -0.31369,
				"method": "rhf"
			},
			{
				"type": "occ",
				"energy": -0.28689,
				"method": "rhf"
			},
			{
				"type": "occ",
				"energy": -0.2498,
				"method": "rhf"
			},
			{
				"type": "occ",
				"energy": -0.23894,
				"method": "rhf"
			},
			{
				"type": "unocc",
				"energy": -0.00335,
				"method": "rhf"
			},
			{
				"type": "unocc",
				"energy": 0.01854,
				"method": "rhf"
			},
			{
				"type": "unocc",
				"energy": 0.04231,
				"method": "rhf"
			},
			{
				"type": "unocc",
				"energy": 0.06323,
				"method": "rhf"
			},
			{
				"type": "unocc",
				"energy": 0.08275,
				"method": "rhf"
			}
		],
		"cosmo_sigma_profile": { 
			"-0.025": 0.0,
			"-0.024": 0.0,
			"-0.023": 0.0,
			"-0.022": 0.0,
			"-0.021": 0.0,
			"-0.02": 0.0941401788347,
			"-0.019": 0.901921968307,
			"-0.018": 1.04352102386,
			"-0.017": 0.930965927088,
			"-0.016": 1.33672662338,
			"-0.015": 0.66684707725,
			"-0.014": 1.00419720768,
			"-0.013": 1.96652511948,
			"-0.012": 2.46392308723,
			"-0.011": 2.40930108474,
			"-0.01": 2.94875962661,
			"-0.009": 2.23806237497,
			"-0.008": 4.13914676113,
			"-0.007": 6.87969236665,
			"-0.006": 9.89826020501,
			"-0.005": 10.4796132177,
			"-0.004": 11.7923674836,
			"-0.003": 19.8656488382,
			"-0.002": 21.3826762418,
			"-0.001": 18.5533592851,
			"0.0": 18.6515814862,
			"0.001": 12.9382770407,
			"0.002": 5.41949969411,
			"0.003": 5.38962755394,
			"0.004": 3.74660698697,
			"0.005": 3.55794988055,
			"0.006": 3.95180650632,
			"0.007": 3.11884621922,
			"0.008": 4.36421133872,
			"0.009": 4.81753725942,
			"0.01": 5.68283195544,
			"0.011": 6.78831554486,
			"0.012": 6.24567840093,
			"0.013": 4.01044397142,
			"0.014": 5.77240555464,
			"0.015": 3.22268993622,
			"0.016": 0.303600575764,
			"0.017": 0.0,
			"0.018": 0.0,
			"0.019": 0.0,
			"0.02": 0.0,
			"0.021": 0.0,
			"0.022": 0.0,
			"0.023": 0.0,
			"0.024": 0.0,
			"0.025": 0.0
		}
	}
}
