{
	 "smiles": "NC1=NN(C=C1)C1=CC(=CC=C1)C(F)(F)F", 
	 "Tm": 354.15, 
	 "num_atms": 24, 
	 "gaussian": { 
		 "optdone": 1, 
		 "sigma_profile": "yes", 
		 "theory": "DFT", 
		 "functional": "B3LYP", 
		 "basiset": "6-31G**", 
		 "properties": { 
			 "R2extent": 4651.3225, 
			 "electric_dipole_moment_norm": 2.81269466704, 
			 "electric_quadrupole_moment_norm": 11.7373756134, 
			 "total_energy": -849.648777977, 
			 "HOMO_LUMO_gap": 0.17405, 
			 "cosmo_polarized_energy": -11.09, 
			 "cosmo_cavitation_energy": 30.14, 
			 "cosmo_dispersion_energy": -21.72, 
			 "cosmo_repulsion_energy": 1.62, 
			 "cosmo_total_nonelectrostatic_energy": 10.04, 
			 "SMD_solvation_energy": 5.89 
		},
		"coords": [
			{
				"x": 0.3699239235,
				"y": -3.7349402849,
				"z": 3.2497935847,
				"element": "N" 
			},
			{
				"x": 0.0519883254,
				"y": -2.5194463187,
				"z": 2.6563780837,
				"element": "C" 
			},
			{
				"x": 0.66404636,
				"y": -2.1201860551,
				"z": 1.5474454439,
				"element": "N" 
			},
			{
				"x": 0.1616172151,
				"y": -0.8684564055,
				"z": 1.2987827673,
				"element": "N" 
			},
			{
				"x": -0.7587990727,
				"y": -0.5037171637,
				"z": 2.2412689235,
				"element": "C" 
			},
			{
				"x": -0.8629733485,
				"y": -1.5389731018,
				"z": 3.1381645318,
				"element": "C" 
			},
			{
				"x": 0.6215125509,
				"y": -0.1372616787,
				"z": 0.1848348112,
				"element": "C" 
			},
			{
				"x": -0.0341361669,
				"y": 1.0296084526,
				"z": -0.2261284909,
				"element": "C" 
			},
			{
				"x": 0.4526240056,
				"y": 1.7456081053,
				"z": -1.3190948981,
				"element": "C" 
			},
			{
				"x": 1.5785609129,
				"y": 1.308760168,
				"z": -2.0209895701,
				"element": "C" 
			},
			{
				"x": 2.2158171193,
				"y": 0.1379509493,
				"z": -1.611331943,
				"element": "C" 
			},
			{
				"x": 1.7492573503,
				"y": -0.5858690251,
				"z": -0.5173237144,
				"element": "C" 
			},
			{
				"x": -0.2900936769,
				"y": 2.966654084,
				"z": -1.7918952153,
				"element": "C" 
			},
			{
				"x": -1.1737623096,
				"y": 2.6649069339,
				"z": -2.7718947637,
				"element": "F" 
			},
			{
				"x": 0.5478499946,
				"y": 3.8991015144,
				"z": -2.2958632086,
				"element": "F" 
			},
			{
				"x": -0.9952591902,
				"y": 3.550186402,
				"z": -0.7957432194,
				"element": "F" 
			},
			{
				"x": -0.4161791115,
				"y": -4.2050130742,
				"z": 3.6783627729,
				"element": "H" 
			},
			{
				"x": 0.8789046027,
				"y": -4.3488860044,
				"z": 2.6260779983,
				"element": "H" 
			},
			{
				"x": -1.2502533494,
				"y": 0.4563683137,
				"z": 2.2225408043,
				"element": "H" 
			},
			{
				"x": -1.4834122735,
				"y": -1.5822395531,
				"z": 4.0206573374,
				"element": "H" 
			},
			{
				"x": -0.9170321891,
				"y": 1.3879023149,
				"z": 0.288015547,
				"element": "H" 
			},
			{
				"x": 1.9484493179,
				"y": 1.8786689686,
				"z": -2.8657632877,
				"element": "H" 
			},
			{
				"x": 3.0932040105,
				"y": -0.2139117077,
				"z": -2.1453732625,
				"element": "H" 
			},
			{
				"x": 2.2386449998,
				"y": -1.4933158338,
				"z": -0.1879210321,
				"element": "H" 
			}
		],
		 "valence_orbital": [ 
			{
				"type": "occ",
				"energy": -0.29334,
				"method": "rhf"
			},
			{
				"type": "occ",
				"energy": -0.27515,
				"method": "rhf"
			},
			{
				"type": "occ",
				"energy": -0.26908,
				"method": "rhf"
			},
			{
				"type": "occ",
				"energy": -0.24642,
				"method": "rhf"
			},
			{
				"type": "occ",
				"energy": -0.20497,
				"method": "rhf"
			},
			{
				"type": "unocc",
				"energy": -0.03092,
				"method": "rhf"
			},
			{
				"type": "unocc",
				"energy": -0.02469,
				"method": "rhf"
			},
			{
				"type": "unocc",
				"energy": 0.03518,
				"method": "rhf"
			},
			{
				"type": "unocc",
				"energy": 0.07063,
				"method": "rhf"
			},
			{
				"type": "unocc",
				"energy": 0.08814,
				"method": "rhf"
			}
		],
		"cosmo_sigma_profile": { 
			"-0.025": 0.0,
			"-0.024": 0.0,
			"-0.023": 0.0,
			"-0.022": 0.0,
			"-0.021": 0.0,
			"-0.02": 0.0,
			"-0.019": 0.0,
			"-0.018": 0.0,
			"-0.017": 0.0,
			"-0.016": 0.0,
			"-0.015": 0.0,
			"-0.014": 0.0,
			"-0.013": 0.930410253157,
			"-0.012": 2.56116072579,
			"-0.011": 3.04633616847,
			"-0.01": 4.19124258804,
			"-0.009": 5.20020266173,
			"-0.008": 4.1654946733,
			"-0.007": 8.08592286192,
			"-0.006": 10.1975432959,
			"-0.005": 11.1828051654,
			"-0.004": 11.1896488815,
			"-0.003": 10.1700526786,
			"-0.002": 10.7773739819,
			"-0.001": 11.184099938,
			"0.0": 14.1025962312,
			"0.001": 19.6566488046,
			"0.002": 32.7127529286,
			"0.003": 43.9916517866,
			"0.004": 12.3282349193,
			"0.005": 6.96090251703,
			"0.006": 3.84675479608,
			"0.007": 2.73837357976,
			"0.008": 2.63551946594,
			"0.009": 2.2827333301,
			"0.01": 2.35584664961,
			"0.011": 2.37826662035,
			"0.012": 1.54434446527,
			"0.013": 0.800904599211,
			"0.014": 0.568832195459,
			"0.015": 0.320127689184,
			"0.016": 0.0,
			"0.017": 0.0,
			"0.018": 0.0,
			"0.019": 0.0,
			"0.02": 0.0,
			"0.021": 0.0,
			"0.022": 0.0,
			"0.023": 0.0,
			"0.024": 0.0,
			"0.025": 0.0
		}
	}
}
