{
	 "smiles": "O=C(OCC1=CC=CC=C1)N=NC(=O)OCC1=CC=CC=C1", 
	 "Tm": 321.15, 
	 "num_atms": 36, 
	 "gaussian": { 
		 "optdone": 1, 
		 "sigma_profile": "yes", 
		 "theory": "DFT", 
		 "functional": "B3LYP", 
		 "basiset": "6-31G**", 
		 "properties": { 
			 "R2extent": 11825.2702, 
			 "electric_dipole_moment_norm": 3.96754317053, 
			 "electric_quadrupole_moment_norm": 21.1724186911, 
			 "total_energy": -1028.48264139, 
			 "HOMO_LUMO_gap": 0.16512, 
			 "cosmo_polarized_energy": -13.4, 
			 "cosmo_cavitation_energy": 43.46, 
			 "cosmo_dispersion_energy": -30.35, 
			 "cosmo_repulsion_energy": 2.36, 
			 "cosmo_total_nonelectrostatic_energy": 15.47, 
			 "SMD_solvation_energy": 7.88 
		},
		"coords": [
			{
				"x": 3.307417336,
				"y": -2.0429677234,
				"z": -0.6305524399,
				"element": "O" 
			},
			{
				"x": 2.7050727071,
				"y": -1.1806659511,
				"z": -1.2207907311,
				"element": "C" 
			},
			{
				"x": 2.0769280584,
				"y": -1.2639271509,
				"z": -2.3906816539,
				"element": "O" 
			},
			{
				"x": 2.0968236609,
				"y": -2.5771353615,
				"z": -3.0465629608,
				"element": "C" 
			},
			{
				"x": 0.9174221163,
				"y": -3.4188750101,
				"z": -2.6387820551,
				"element": "C" 
			},
			{
				"x": -0.2804212883,
				"y": -3.352603647,
				"z": -3.361844035,
				"element": "C" 
			},
			{
				"x": -1.379873714,
				"y": -4.1230490545,
				"z": -2.9834825793,
				"element": "C" 
			},
			{
				"x": -1.2902615466,
				"y": -4.968236666,
				"z": -1.8755371349,
				"element": "C" 
			},
			{
				"x": -0.0998804684,
				"y": -5.0398325191,
				"z": -1.14859626,
				"element": "C" 
			},
			{
				"x": 0.9996442931,
				"y": -4.269595309,
				"z": -1.5274106441,
				"element": "C" 
			},
			{
				"x": 2.4723918083,
				"y": 0.1230050262,
				"z": -0.6357230134,
				"element": "N" 
			},
			{
				"x": 3.3016812523,
				"y": 0.977454083,
				"z": -0.9977615548,
				"element": "N" 
			},
			{
				"x": 3.1332566518,
				"y": 2.2516863992,
				"z": -0.3302179772,
				"element": "C" 
			},
			{
				"x": 3.8975357669,
				"y": 2.6128866807,
				"z": 0.5304643573,
				"element": "O" 
			},
			{
				"x": 2.1394267931,
				"y": 2.9351644689,
				"z": -0.8915257824,
				"element": "O" 
			},
			{
				"x": 1.9415835131,
				"y": 4.3066178102,
				"z": -0.4077457382,
				"element": "C" 
			},
			{
				"x": 0.9610349538,
				"y": 4.3580309481,
				"z": 0.7332290655,
				"element": "C" 
			},
			{
				"x": 1.4001728238,
				"y": 4.216364219,
				"z": 2.0570562226,
				"element": "C" 
			},
			{
				"x": 0.485465047,
				"y": 4.2572497964,
				"z": 3.1091728142,
				"element": "C" 
			},
			{
				"x": -0.8746228604,
				"y": 4.4404649489,
				"z": 2.8495537188,
				"element": "C" 
			},
			{
				"x": -1.3194416833,
				"y": 4.5821108504,
				"z": 1.5336483419,
				"element": "C" 
			},
			{
				"x": -0.4045374364,
				"y": 4.5405817502,
				"z": 0.481513234,
				"element": "C" 
			},
			{
				"x": 2.0662380644,
				"y": -2.3307316484,
				"z": -4.1088627258,
				"element": "H" 
			},
			{
				"x": 3.0443402626,
				"y": -3.0614293811,
				"z": -2.805751526,
				"element": "H" 
			},
			{
				"x": -0.3498870186,
				"y": -2.6959126986,
				"z": -4.2256030517,
				"element": "H" 
			},
			{
				"x": -2.3029215451,
				"y": -4.0662448783,
				"z": -3.5530988154,
				"element": "H" 
			},
			{
				"x": -2.1447332255,
				"y": -5.5708186717,
				"z": -1.5809848195,
				"element": "H" 
			},
			{
				"x": -0.0267430923,
				"y": -5.6971997829,
				"z": -0.2871029813,
				"element": "H" 
			},
			{
				"x": 1.9238354136,
				"y": -4.3142860804,
				"z": -0.9593842181,
				"element": "H" 
			},
			{
				"x": 2.9163634486,
				"y": 4.7063657093,
				"z": -0.1227105716,
				"element": "H" 
			},
			{
				"x": 1.5643139658,
				"y": 4.8354874401,
				"z": -1.2842946041,
				"element": "H" 
			},
			{
				"x": 2.4570797671,
				"y": 4.0640055568,
				"z": 2.2532539574,
				"element": "H" 
			},
			{
				"x": 0.8345463478,
				"y": 4.1476344488,
				"z": 4.1317960738,
				"element": "H" 
			},
			{
				"x": -1.5853988479,
				"y": 4.4745092839,
				"z": 3.670296732,
				"element": "H" 
			},
			{
				"x": -2.3759563816,
				"y": 4.7266768041,
				"z": 1.3273433242,
				"element": "H" 
			},
			{
				"x": -0.7509949435,
				"y": 4.6521153094,
				"z": -0.5430199681,
				"element": "H" 
			}
		],
		 "valence_orbital": [ 
			{
				"type": "occ",
				"energy": -0.26037,
				"method": "rhf"
			},
			{
				"type": "occ",
				"energy": -0.25731,
				"method": "rhf"
			},
			{
				"type": "occ",
				"energy": -0.25671,
				"method": "rhf"
			},
			{
				"type": "occ",
				"energy": -0.25594,
				"method": "rhf"
			},
			{
				"type": "occ",
				"energy": -0.24629,
				"method": "rhf"
			},
			{
				"type": "unocc",
				"energy": -0.08117,
				"method": "rhf"
			},
			{
				"type": "unocc",
				"energy": -0.01992,
				"method": "rhf"
			},
			{
				"type": "unocc",
				"energy": -0.01771,
				"method": "rhf"
			},
			{
				"type": "unocc",
				"energy": -0.00834,
				"method": "rhf"
			},
			{
				"type": "unocc",
				"energy": -0.0074,
				"method": "rhf"
			}
		],
		"cosmo_sigma_profile": { 
			"-0.025": 0.0,
			"-0.024": 0.0,
			"-0.023": 0.0,
			"-0.022": 0.0,
			"-0.021": 0.0,
			"-0.02": 0.0,
			"-0.019": 0.0,
			"-0.018": 0.0,
			"-0.017": 0.0,
			"-0.016": 0.0,
			"-0.015": 0.0,
			"-0.014": 0.0,
			"-0.013": 0.0,
			"-0.012": 0.0,
			"-0.011": 0.0,
			"-0.01": 0.0,
			"-0.009": 0.0,
			"-0.008": 2.08139756059,
			"-0.007": 9.96406657365,
			"-0.006": 23.3342600925,
			"-0.005": 30.8850862784,
			"-0.004": 32.5150440531,
			"-0.003": 25.1542316476,
			"-0.002": 21.490493472,
			"-0.001": 20.9851756596,
			"0.0": 23.2576698454,
			"0.001": 22.6072289345,
			"0.002": 26.1451756965,
			"0.003": 26.2238332783,
			"0.004": 26.3904275939,
			"0.005": 24.5758014165,
			"0.006": 9.88020360614,
			"0.007": 5.08747529892,
			"0.008": 5.06304617593,
			"0.009": 4.92763274992,
			"0.01": 6.50069665032,
			"0.011": 1.63474356708,
			"0.012": 0.0,
			"0.013": 0.0,
			"0.014": 0.0,
			"0.015": 0.0,
			"0.016": 0.0,
			"0.017": 0.0,
			"0.018": 0.0,
			"0.019": 0.0,
			"0.02": 0.0,
			"0.021": 0.0,
			"0.022": 0.0,
			"0.023": 0.0,
			"0.024": 0.0,
			"0.025": 0.0
		}
	}
}
