{
	 "smiles": "NC(=O)C1CCNC2=C1C=CC=C2", 
	 "Tm": 393.15, 
	 "num_atms": 25, 
	 "gaussian": { 
		 "optdone": 1, 
		 "sigma_profile": "yes", 
		 "theory": "DFT", 
		 "functional": "B3LYP", 
		 "basiset": "6-31G**", 
		 "properties": { 
			 "R2extent": 2262.7671, 
			 "electric_dipole_moment_norm": 2.76438247173, 
			 "electric_quadrupole_moment_norm": 12.3034964986, 
			 "total_energy": -573.050777813, 
			 "HOMO_LUMO_gap": 0.1888, 
			 "cosmo_polarized_energy": -13.31, 
			 "cosmo_cavitation_energy": 26.84, 
			 "cosmo_dispersion_energy": -19.96, 
			 "cosmo_repulsion_energy": 1.58, 
			 "cosmo_total_nonelectrostatic_energy": 8.46, 
			 "SMD_solvation_energy": 3.9 
		},
		"coords": [
			{
				"x": -0.1890824728,
				"y": -0.1071787617,
				"z": 2.4458382271,
				"element": "N" 
			},
			{
				"x": -0.6008125278,
				"y": -1.2472242824,
				"z": 1.8283421416,
				"element": "C" 
			},
			{
				"x": -0.7290122145,
				"y": -2.309410752,
				"z": 2.4249964204,
				"element": "O" 
			},
			{
				"x": -0.9620910445,
				"y": -1.1262231065,
				"z": 0.3221626936,
				"element": "C" 
			},
			{
				"x": -0.5480102749,
				"y": -2.421848392,
				"z": -0.3971959301,
				"element": "C" 
			},
			{
				"x": 0.9652664407,
				"y": -2.4389967954,
				"z": -0.615130978,
				"element": "C" 
			},
			{
				"x": 1.3618936866,
				"y": -1.2665166163,
				"z": -1.3822479792,
				"element": "N" 
			},
			{
				"x": 0.7723357939,
				"y": -0.0308645601,
				"z": -1.1748910557,
				"element": "C" 
			},
			{
				"x": -0.398239196,
				"y": 0.0929145299,
				"z": -0.3855927538,
				"element": "C" 
			},
			{
				"x": -1.0153449094,
				"y": 1.3466332689,
				"z": -0.287280728,
				"element": "C" 
			},
			{
				"x": -0.4875822189,
				"y": 2.4816436787,
				"z": -0.9031923624,
				"element": "C" 
			},
			{
				"x": 0.6843960101,
				"y": 2.3556865159,
				"z": -1.6546668212,
				"element": "C" 
			},
			{
				"x": 1.3021292525,
				"y": 1.1183909363,
				"z": -1.7949976219,
				"element": "C" 
			},
			{
				"x": 0.0535913971,
				"y": -0.1634195798,
				"z": 3.4230063476,
				"element": "H" 
			},
			{
				"x": 0.0083307578,
				"y": 0.7321900044,
				"z": 1.9243710478,
				"element": "H" 
			},
			{
				"x": -2.0587746029,
				"y": -1.0603128388,
				"z": 0.3158685341,
				"element": "H" 
			},
			{
				"x": -1.055968897,
				"y": -2.4816299096,
				"z": -1.3655372957,
				"element": "H" 
			},
			{
				"x": -0.8449307298,
				"y": -3.277866038,
				"z": 0.2114671329,
				"element": "H" 
			},
			{
				"x": 1.2599937221,
				"y": -3.3332985011,
				"z": -1.1745965995,
				"element": "H" 
			},
			{
				"x": 1.4711358838,
				"y": -2.4859176242,
				"z": 0.3632399752,
				"element": "H" 
			},
			{
				"x": 2.308394264,
				"y": -1.2511858765,
				"z": -1.7317961758,
				"element": "H" 
			},
			{
				"x": -1.932749533,
				"y": 1.4269485108,
				"z": 0.2929362612,
				"element": "H" 
			},
			{
				"x": -0.9845577159,
				"y": 3.4415903173,
				"z": -0.8065644419,
				"element": "H" 
			},
			{
				"x": 1.1160199406,
				"y": 3.2246507834,
				"z": -2.1437436952,
				"element": "H" 
			},
			{
				"x": 2.2018691882,
				"y": 1.0237450889,
				"z": -2.398994343,
				"element": "H" 
			}
		],
		 "valence_orbital": [ 
			{
				"type": "occ",
				"energy": -0.2944,
				"method": "rhf"
			},
			{
				"type": "occ",
				"energy": -0.26344,
				"method": "rhf"
			},
			{
				"type": "occ",
				"energy": -0.25895,
				"method": "rhf"
			},
			{
				"type": "occ",
				"energy": -0.23146,
				"method": "rhf"
			},
			{
				"type": "occ",
				"energy": -0.19229,
				"method": "rhf"
			},
			{
				"type": "unocc",
				"energy": -0.00349,
				"method": "rhf"
			},
			{
				"type": "unocc",
				"energy": 0.0145,
				"method": "rhf"
			},
			{
				"type": "unocc",
				"energy": 0.036,
				"method": "rhf"
			},
			{
				"type": "unocc",
				"energy": 0.08295,
				"method": "rhf"
			},
			{
				"type": "unocc",
				"energy": 0.09717,
				"method": "rhf"
			}
		],
		"cosmo_sigma_profile": { 
			"-0.025": 0.0,
			"-0.024": 0.0,
			"-0.023": 0.0,
			"-0.022": 0.0,
			"-0.021": 0.0,
			"-0.02": 0.0,
			"-0.019": 0.0,
			"-0.018": 0.0,
			"-0.017": 0.0,
			"-0.016": 0.0,
			"-0.015": 0.0,
			"-0.014": 0.597832522873,
			"-0.013": 1.49795881689,
			"-0.012": 2.5424667134,
			"-0.011": 3.10925295431,
			"-0.01": 3.06581576313,
			"-0.009": 3.20785214535,
			"-0.008": 2.68150279186,
			"-0.007": 2.89527555454,
			"-0.006": 6.13461304457,
			"-0.005": 13.3234847601,
			"-0.004": 15.1929758041,
			"-0.003": 20.0468137832,
			"-0.002": 21.8324428577,
			"-0.001": 17.2431821882,
			"0.0": 13.4057981075,
			"0.001": 10.4818593406,
			"0.002": 10.3359015661,
			"0.003": 9.57677545416,
			"0.004": 8.57023024549,
			"0.005": 9.3369008901,
			"0.006": 9.76461458422,
			"0.007": 7.24773148736,
			"0.008": 2.90298805646,
			"0.009": 1.70485255248,
			"0.01": 1.03495432183,
			"0.011": 2.31672112554,
			"0.012": 1.57289939705,
			"0.013": 2.24194622091,
			"0.014": 5.89902341511,
			"0.015": 1.42215415481,
			"0.016": 0.0,
			"0.017": 0.0,
			"0.018": 0.0,
			"0.019": 0.0,
			"0.02": 0.0,
			"0.021": 0.0,
			"0.022": 0.0,
			"0.023": 0.0,
			"0.024": 0.0,
			"0.025": 0.0
		}
	}
}
