{
	 "smiles": "CCC=CCCCCCCCCCCOC(C)=O", 
	 "Tm": 298.15, 
	 "num_atms": 48, 
	 "gaussian": { 
		 "optdone": 1, 
		 "sigma_profile": "yes", 
		 "theory": "DFT", 
		 "functional": "B3LYP", 
		 "basiset": "6-31G**", 
		 "properties": { 
			 "R2extent": 6647.0345, 
			 "electric_dipole_moment_norm": 2.14211196953, 
			 "electric_quadrupole_moment_norm": 8.85995741694, 
			 "total_energy": -778.257863069, 
			 "HOMO_LUMO_gap": 0.23825, 
			 "cosmo_polarized_energy": -7.43, 
			 "cosmo_cavitation_energy": 48.44, 
			 "cosmo_dispersion_energy": -29.9, 
			 "cosmo_repulsion_energy": 2.42, 
			 "cosmo_total_nonelectrostatic_energy": 20.96, 
			 "SMD_solvation_energy": 7.88 
		},
		"coords": [
			{
				"x": 3.684888071,
				"y": -2.80595743,
				"z": -3.2073193634,
				"element": "C" 
			},
			{
				"x": 2.2641334454,
				"y": -3.358819813,
				"z": -3.4134819723,
				"element": "C" 
			},
			{
				"x": 1.2672444095,
				"y": -2.7831688398,
				"z": -2.4440887472,
				"element": "C" 
			},
			{
				"x": 0.1791494997,
				"y": -2.0841722868,
				"z": -2.7808067551,
				"element": "C" 
			},
			{
				"x": -0.8008415916,
				"y": -1.499973057,
				"z": -1.7995930403,
				"element": "C" 
			},
			{
				"x": -0.9277263838,
				"y": 0.0326323933,
				"z": -1.8983526946,
				"element": "C" 
			},
			{
				"x": -1.8814088327,
				"y": 0.6173579721,
				"z": -0.8457174382,
				"element": "C" 
			},
			{
				"x": -2.0645394046,
				"y": 2.1526748088,
				"z": -0.8961312348,
				"element": "C" 
			},
			{
				"x": -1.2211981079,
				"y": 3.0071518292,
				"z": 0.0724527168,
				"element": "C" 
			},
			{
				"x": 0.3005558252,
				"y": 3.0889773573,
				"z": -0.1790685893,
				"element": "C" 
			},
			{
				"x": 1.1769046726,
				"y": 1.9788452786,
				"z": 0.431414133,
				"element": "C" 
			},
			{
				"x": 1.2025027318,
				"y": 1.9622740863,
				"z": 1.9674731851,
				"element": "C" 
			},
			{
				"x": 2.240874272,
				"y": 0.9983542692,
				"z": 2.5671409293,
				"element": "C" 
			},
			{
				"x": 2.0529340598,
				"y": -0.4648795588,
				"z": 2.1909231612,
				"element": "C" 
			},
			{
				"x": 0.7651295111,
				"y": -0.8981543696,
				"z": 2.6925256352,
				"element": "O" 
			},
			{
				"x": 0.305420067,
				"y": -2.0784790004,
				"z": 2.2235464524,
				"element": "C" 
			},
			{
				"x": -1.0481756113,
				"y": -2.4044248444,
				"z": 2.8101189512,
				"element": "C" 
			},
			{
				"x": 0.905065272,
				"y": -2.7656995581,
				"z": 1.4227764608,
				"element": "O" 
			},
			{
				"x": 4.3947826049,
				"y": -3.267541627,
				"z": -3.9020224858,
				"element": "H" 
			},
			{
				"x": 4.0390401436,
				"y": -3.0008515547,
				"z": -2.1889005942,
				"element": "H" 
			},
			{
				"x": 3.7094262214,
				"y": -1.7226652667,
				"z": -3.3650660216,
				"element": "H" 
			},
			{
				"x": 1.9355253454,
				"y": -3.1644625352,
				"z": -4.4420467687,
				"element": "H" 
			},
			{
				"x": 2.2943397614,
				"y": -4.4522700914,
				"z": -3.2983061143,
				"element": "H" 
			},
			{
				"x": 1.4692959657,
				"y": -2.957133366,
				"z": -1.384940472,
				"element": "H" 
			},
			{
				"x": -0.0290672002,
				"y": -1.9048256489,
				"z": -3.8384785174,
				"element": "H" 
			},
			{
				"x": -0.499812491,
				"y": -1.7829476016,
				"z": -0.7836260463,
				"element": "H" 
			},
			{
				"x": -1.7971821233,
				"y": -1.9398595431,
				"z": -1.9623624657,
				"element": "H" 
			},
			{
				"x": 0.0689060563,
				"y": 0.4803134692,
				"z": -1.8086504616,
				"element": "H" 
			},
			{
				"x": -1.2899186175,
				"y": 0.305139847,
				"z": -2.8996850809,
				"element": "H" 
			},
			{
				"x": -1.5470339033,
				"y": 0.3197753214,
				"z": 0.1584523518,
				"element": "H" 
			},
			{
				"x": -2.8604401019,
				"y": 0.1387582428,
				"z": -0.9824489322,
				"element": "H" 
			},
			{
				"x": -3.1157971517,
				"y": 2.3810957765,
				"z": -0.679625096,
				"element": "H" 
			},
			{
				"x": -1.8947124745,
				"y": 2.5037760292,
				"z": -1.9239622887,
				"element": "H" 
			},
			{
				"x": -1.6195454431,
				"y": 4.0285960303,
				"z": 0.0188049278,
				"element": "H" 
			},
			{
				"x": -1.4128561038,
				"y": 2.6753732131,
				"z": 1.1016931882,
				"element": "H" 
			},
			{
				"x": 0.6627772103,
				"y": 4.0483058314,
				"z": 0.2155674343,
				"element": "H" 
			},
			{
				"x": 0.4781515377,
				"y": 3.1292317308,
				"z": -1.2621559599,
				"element": "H" 
			},
			{
				"x": 2.2041534259,
				"y": 2.1171556687,
				"z": 0.0648927739,
				"element": "H" 
			},
			{
				"x": 0.8552704143,
				"y": 1.0008738689,
				"z": 0.0595311809,
				"element": "H" 
			},
			{
				"x": 0.2134140274,
				"y": 1.700478908,
				"z": 2.3596969778,
				"element": "H" 
			},
			{
				"x": 1.4217517199,
				"y": 2.9736275255,
				"z": 2.3350942977,
				"element": "H" 
			},
			{
				"x": 3.2483903863,
				"y": 1.2874251036,
				"z": 2.2384035056,
				"element": "H" 
			},
			{
				"x": 2.2326394663,
				"y": 1.0857662094,
				"z": 3.6603795412,
				"element": "H" 
			},
			{
				"x": 2.8288254549,
				"y": -1.0938838947,
				"z": 2.640843359,
				"element": "H" 
			},
			{
				"x": 2.0843810558,
				"y": -0.6276291092,
				"z": 1.1109853569,
				"element": "H" 
			},
			{
				"x": -1.8022492431,
				"y": -1.7358165235,
				"z": 2.3819114978,
				"element": "H" 
			},
			{
				"x": -1.3065973748,
				"y": -3.4359584597,
				"z": 2.5725207872,
				"element": "H" 
			},
			{
				"x": -1.0478704743,
				"y": -2.2493867911,
				"z": 3.8918883355,
				"element": "H" 
			}
		],
		 "valence_orbital": [ 
			{
				"type": "occ",
				"energy": -0.30207,
				"method": "rhf"
			},
			{
				"type": "occ",
				"energy": -0.29847,
				"method": "rhf"
			},
			{
				"type": "occ",
				"energy": -0.29522,
				"method": "rhf"
			},
			{
				"type": "occ",
				"energy": -0.27019,
				"method": "rhf"
			},
			{
				"type": "occ",
				"energy": -0.22659,
				"method": "rhf"
			},
			{
				"type": "unocc",
				"energy": 0.01166,
				"method": "rhf"
			},
			{
				"type": "unocc",
				"energy": 0.03869,
				"method": "rhf"
			},
			{
				"type": "unocc",
				"energy": 0.06252,
				"method": "rhf"
			},
			{
				"type": "unocc",
				"energy": 0.08964,
				"method": "rhf"
			},
			{
				"type": "unocc",
				"energy": 0.09759,
				"method": "rhf"
			}
		],
		"cosmo_sigma_profile": { 
			"-0.025": 0.0,
			"-0.024": 0.0,
			"-0.023": 0.0,
			"-0.022": 0.0,
			"-0.021": 0.0,
			"-0.02": 0.0,
			"-0.019": 0.0,
			"-0.018": 0.0,
			"-0.017": 0.0,
			"-0.016": 0.0,
			"-0.015": 0.0,
			"-0.014": 0.0,
			"-0.013": 0.0,
			"-0.012": 0.0,
			"-0.011": 0.0,
			"-0.01": 0.0,
			"-0.009": 0.0,
			"-0.008": 0.0,
			"-0.007": 0.0681858415817,
			"-0.006": 3.13823131441,
			"-0.005": 7.35061847589,
			"-0.004": 13.3582856742,
			"-0.003": 31.5481653307,
			"-0.002": 58.7794637431,
			"-0.001": 73.0097908758,
			"0.0": 63.927510191,
			"0.001": 48.0193882847,
			"0.002": 23.1319112683,
			"0.003": 11.9963825617,
			"0.004": 9.95277918741,
			"0.005": 7.24170301409,
			"0.006": 6.37004313713,
			"0.007": 4.13508937443,
			"0.008": 3.07556794845,
			"0.009": 1.91140759783,
			"0.01": 1.38031967351,
			"0.011": 2.34014211486,
			"0.012": 2.36125638209,
			"0.013": 0.716526718998,
			"0.014": 0.0271319607926,
			"0.015": 0.0,
			"0.016": 0.0,
			"0.017": 0.0,
			"0.018": 0.0,
			"0.019": 0.0,
			"0.02": 0.0,
			"0.021": 0.0,
			"0.022": 0.0,
			"0.023": 0.0,
			"0.024": 0.0,
			"0.025": 0.0
		}
	}
}
