{
	 "smiles": "OC(=O)C1C(N(CC2=CC=C(F)C=C2)C(=O)C2=C1C=CC=C2)C1=CC=NC=C1", 
	 "Tm": 517.15, 
	 "num_atms": 45, 
	 "gaussian": { 
		 "optdone": 1, 
		 "sigma_profile": "yes", 
		 "theory": "DFT", 
		 "functional": "B3LYP", 
		 "basiset": "6-31G**", 
		 "properties": { 
			 "R2extent": 10545.1, 
			 "electric_dipole_moment_norm": 2.77095321686, 
			 "electric_quadrupole_moment_norm": 22.1161331371, 
			 "total_energy": -1283.62275852, 
			 "HOMO_LUMO_gap": 0.19043, 
			 "cosmo_polarized_energy": -20.49, 
			 "cosmo_cavitation_energy": 49.01, 
			 "cosmo_dispersion_energy": -32.01, 
			 "cosmo_repulsion_energy": 2.37, 
			 "cosmo_total_nonelectrostatic_energy": 19.37, 
			 "SMD_solvation_energy": 8.48 
		},
		"coords": [
			{
				"x": -1.3549910672,
				"y": -2.1410710459,
				"z": -2.9083950634,
				"element": "O" 
			},
			{
				"x": -1.801237905,
				"y": -1.3071028889,
				"z": -1.9475342773,
				"element": "C" 
			},
			{
				"x": -2.7684867502,
				"y": -1.5594597705,
				"z": -1.2614822452,
				"element": "O" 
			},
			{
				"x": -0.9504152249,
				"y": -0.0596828988,
				"z": -1.7349088064,
				"element": "C" 
			},
			{
				"x": -0.0769413336,
				"y": -0.3012610186,
				"z": -0.4612126647,
				"element": "C" 
			},
			{
				"x": 0.7340228233,
				"y": 0.8808796897,
				"z": -0.1788038656,
				"element": "N" 
			},
			{
				"x": 1.1139961086,
				"y": 1.1046561756,
				"z": 1.2250827356,
				"element": "C" 
			},
			{
				"x": 0.0147097247,
				"y": 1.7568961257,
				"z": 2.0395705808,
				"element": "C" 
			},
			{
				"x": -0.6500310964,
				"y": 1.0584427631,
				"z": 3.0534920027,
				"element": "C" 
			},
			{
				"x": -1.665803864,
				"y": 1.6617428462,
				"z": 3.7993447272,
				"element": "C" 
			},
			{
				"x": -2.0062849398,
				"y": 2.9766850777,
				"z": 3.5122246391,
				"element": "C" 
			},
			{
				"x": -2.9859637851,
				"y": 3.571016958,
				"z": 4.2249578444,
				"element": "F" 
			},
			{
				"x": -1.3650288546,
				"y": 3.7033727662,
				"z": 2.5121852728,
				"element": "C" 
			},
			{
				"x": -0.3539651981,
				"y": 3.0867434509,
				"z": 1.779880463,
				"element": "C" 
			},
			{
				"x": 1.2579991596,
				"y": 1.7032523452,
				"z": -1.1480369837,
				"element": "C" 
			},
			{
				"x": 1.9820218007,
				"y": 2.6596773011,
				"z": -0.8682164875,
				"element": "O" 
			},
			{
				"x": 0.9058845541,
				"y": 1.3784613317,
				"z": -2.5663253791,
				"element": "C" 
			},
			{
				"x": -0.1360598009,
				"y": 0.4909902924,
				"z": -2.8912346156,
				"element": "C" 
			},
			{
				"x": -0.4409674313,
				"y": 0.2798681088,
				"z": -4.239849223,
				"element": "C" 
			},
			{
				"x": 0.2959360648,
				"y": 0.9145603348,
				"z": -5.2411982352,
				"element": "C" 
			},
			{
				"x": 1.3376318373,
				"y": 1.7839007799,
				"z": -4.9122850584,
				"element": "C" 
			},
			{
				"x": 1.634489262,
				"y": 2.0209641511,
				"z": -3.5737233188,
				"element": "C" 
			},
			{
				"x": 0.7454904211,
				"y": -1.5906272775,
				"z": -0.4956600436,
				"element": "C" 
			},
			{
				"x": 2.0095914947,
				"y": -1.6714835114,
				"z": -1.0881139899,
				"element": "C" 
			},
			{
				"x": 2.6817830531,
				"y": -2.8941952722,
				"z": -1.0822305126,
				"element": "C" 
			},
			{
				"x": 2.1957643226,
				"y": -4.0148893743,
				"z": -0.5333064973,
				"element": "N" 
			},
			{
				"x": 0.9894613584,
				"y": -3.9294322518,
				"z": 0.0394266348,
				"element": "C" 
			},
			{
				"x": 0.2348998781,
				"y": -2.756594639,
				"z": 0.0866838337,
				"element": "C" 
			},
			{
				"x": -1.9439124151,
				"y": -2.9153173689,
				"z": -2.8886979497,
				"element": "H" 
			},
			{
				"x": -1.6749687867,
				"y": 0.7090624425,
				"z": -1.4372188948,
				"element": "H" 
			},
			{
				"x": -0.7923410094,
				"y": -0.396250869,
				"z": 0.3622370131,
				"element": "H" 
			},
			{
				"x": 2.0027225624,
				"y": 1.7374940554,
				"z": 1.2029506635,
				"element": "H" 
			},
			{
				"x": 1.3896125518,
				"y": 0.1390325747,
				"z": 1.662861289,
				"element": "H" 
			},
			{
				"x": -0.3687964095,
				"y": 0.0314433095,
				"z": 3.2735028115,
				"element": "H" 
			},
			{
				"x": -2.1878274554,
				"y": 1.1311491107,
				"z": 4.5881587222,
				"element": "H" 
			},
			{
				"x": -1.6582201728,
				"y": 4.7311237581,
				"z": 2.3266131605,
				"element": "H" 
			},
			{
				"x": 0.1654352917,
				"y": 3.6374176223,
				"z": 1.0007538203,
				"element": "H" 
			},
			{
				"x": -1.2464670234,
				"y": -0.389499449,
				"z": -4.5151921035,
				"element": "H" 
			},
			{
				"x": 0.0491075823,
				"y": 0.7295661012,
				"z": -6.2826923032,
				"element": "H" 
			},
			{
				"x": 1.9064674531,
				"y": 2.2785671628,
				"z": -5.6937483682,
				"element": "H" 
			},
			{
				"x": 2.4206712854,
				"y": 2.7057955123,
				"z": -3.2752463749,
				"element": "H" 
			},
			{
				"x": 2.4731344815,
				"y": -0.8040500094,
				"z": -1.544385596,
				"element": "H" 
			},
			{
				"x": 3.6653268898,
				"y": -2.9740113536,
				"z": -1.5419186534,
				"element": "H" 
			},
			{
				"x": 0.6062670522,
				"y": -4.8426438528,
				"z": 0.4919934675,
				"element": "H" 
			},
			{
				"x": -0.7395164898,
				"y": -2.7548892961,
				"z": 0.5674978296,
				"element": "H" 
			}
		],
		 "valence_orbital": [ 
			{
				"type": "occ",
				"energy": -0.26264,
				"method": "rhf"
			},
			{
				"type": "occ",
				"energy": -0.26144,
				"method": "rhf"
			},
			{
				"type": "occ",
				"energy": -0.25954,
				"method": "rhf"
			},
			{
				"type": "occ",
				"energy": -0.25005,
				"method": "rhf"
			},
			{
				"type": "occ",
				"energy": -0.24052,
				"method": "rhf"
			},
			{
				"type": "unocc",
				"energy": -0.05009,
				"method": "rhf"
			},
			{
				"type": "unocc",
				"energy": -0.03425,
				"method": "rhf"
			},
			{
				"type": "unocc",
				"energy": -0.02691,
				"method": "rhf"
			},
			{
				"type": "unocc",
				"energy": -0.01525,
				"method": "rhf"
			},
			{
				"type": "unocc",
				"energy": -0.01327,
				"method": "rhf"
			}
		],
		"cosmo_sigma_profile": { 
			"-0.025": 0.0,
			"-0.024": 0.0,
			"-0.023": 0.0,
			"-0.022": 0.0,
			"-0.021": 0.0,
			"-0.02": 0.0,
			"-0.019": 0.405090642363,
			"-0.018": 0.768680864106,
			"-0.017": 1.23840894402,
			"-0.016": 0.676153844678,
			"-0.015": 0.501994945159,
			"-0.014": 0.823671878811,
			"-0.013": 0.835127869919,
			"-0.012": 0.421413227591,
			"-0.011": 0.998292315116,
			"-0.01": 0.481218163361,
			"-0.009": 0.647967097798,
			"-0.008": 2.37197709068,
			"-0.007": 14.6359942131,
			"-0.006": 28.9544223309,
			"-0.005": 29.5240712235,
			"-0.004": 28.8890024194,
			"-0.003": 25.173097548,
			"-0.002": 23.907381208,
			"-0.001": 23.2362787949,
			"0.0": 25.3963366063,
			"0.001": 30.6036646308,
			"0.002": 31.3024522181,
			"0.003": 30.2439353072,
			"0.004": 34.559810566,
			"0.005": 12.0760045627,
			"0.006": 5.00053404101,
			"0.007": 5.23288358149,
			"0.008": 4.03248181945,
			"0.009": 4.20383022551,
			"0.01": 5.19197195179,
			"0.011": 6.83205246873,
			"0.012": 4.55393734829,
			"0.013": 4.55575069771,
			"0.014": 2.22819137709,
			"0.015": 0.504085625352,
			"0.016": 0.991750721884,
			"0.017": 0.127338457274,
			"0.018": 0.0,
			"0.019": 0.0,
			"0.02": 0.0,
			"0.021": 0.0,
			"0.022": 0.0,
			"0.023": 0.0,
			"0.024": 0.0,
			"0.025": 0.0
		}
	}
}
