{
	 "smiles": "ClC1=CC(Cl)=C(SSC2=CC(Cl)=C(Cl)C=C2Cl)C=C1Cl", 
	 "Tm": 415.15, 
	 "num_atms": 24, 
	 "gaussian": { 
		 "optdone": 1, 
		 "sigma_profile": "yes", 
		 "theory": "DFT", 
		 "functional": "B3LYP", 
		 "basiset": "6-31G**", 
		 "properties": { 
			 "R2extent": 13184.3051, 
			 "electric_dipole_moment_norm": 0.463579011604, 
			 "electric_quadrupole_moment_norm": 8.17489346781, 
			 "total_energy": -4017.196319, 
			 "HOMO_LUMO_gap": 0.16265, 
			 "cosmo_polarized_energy": -6.73, 
			 "cosmo_cavitation_energy": 44.5, 
			 "cosmo_dispersion_energy": -30.58, 
			 "cosmo_repulsion_energy": 2.32, 
			 "cosmo_total_nonelectrostatic_energy": 16.23, 
			 "SMD_solvation_energy": 4.67 
		},
		"coords": [
			{
				"x": 0.0321898982,
				"y": 4.617240438,
				"z": 2.2771064619,
				"element": "Cl" 
			},
			{
				"x": -0.554648478,
				"y": 3.1947549839,
				"z": 1.4644105897,
				"element": "C" 
			},
			{
				"x": -0.4307551167,
				"y": 3.1212378349,
				"z": 0.0769648916,
				"element": "C" 
			},
			{
				"x": -0.8838580046,
				"y": 1.9972636463,
				"z": -0.6114486758,
				"element": "C" 
			},
			{
				"x": -0.6878539742,
				"y": 1.9794496051,
				"z": -2.3474261413,
				"element": "Cl" 
			},
			{
				"x": -1.4772379159,
				"y": 0.9253188765,
				"z": 0.0793812781,
				"element": "C" 
			},
			{
				"x": -2.1436237245,
				"y": -0.515233419,
				"z": -0.7516241946,
				"element": "S" 
			},
			{
				"x": -0.7094311834,
				"y": -2.034499443,
				"z": -0.4387084948,
				"element": "S" 
			},
			{
				"x": 0.4247032507,
				"y": -1.8885759048,
				"z": -1.8178924272,
				"element": "C" 
			},
			{
				"x": 0.0578260549,
				"y": -2.4337797313,
				"z": -3.0548307581,
				"element": "C" 
			},
			{
				"x": 0.9128692319,
				"y": -2.3914406241,
				"z": -4.1537439024,
				"element": "C" 
			},
			{
				"x": 0.3845585943,
				"y": -3.084240588,
				"z": -5.6625657183,
				"element": "Cl" 
			},
			{
				"x": 2.1784863697,
				"y": -1.8020985633,
				"z": -4.0170978265,
				"element": "C" 
			},
			{
				"x": 3.2962972135,
				"y": -1.7236375589,
				"z": -5.3484936978,
				"element": "Cl" 
			},
			{
				"x": 2.5659085131,
				"y": -1.2650871939,
				"z": -2.789353393,
				"element": "C" 
			},
			{
				"x": 1.6984046523,
				"y": -1.303695575,
				"z": -1.6992053564,
				"element": "C" 
			},
			{
				"x": 2.2557537231,
				"y": -0.6057288991,
				"z": -0.1977257416,
				"element": "Cl" 
			},
			{
				"x": -1.6047525928,
				"y": 1.022327601,
				"z": 1.4708575973,
				"element": "C" 
			},
			{
				"x": -1.1457602499,
				"y": 2.136244211,
				"z": 2.1700890229,
				"element": "C" 
			},
			{
				"x": -1.3324722247,
				"y": 2.1827897504,
				"z": 3.9017505123,
				"element": "Cl" 
			},
			{
				"x": 0.0245036132,
				"y": 3.9417713279,
				"z": -0.4636695151,
				"element": "H" 
			},
			{
				"x": -0.9154476367,
				"y": -2.8983167844,
				"z": -3.1611220499,
				"element": "H" 
			},
			{
				"x": 3.5447625383,
				"y": -0.8129280034,
				"z": -2.6882468985,
				"element": "H" 
			},
			{
				"x": -2.0697225519,
				"y": 0.2106640135,
				"z": 2.0179944377,
				"element": "H" 
			}
		],
		 "valence_orbital": [ 
			{
				"type": "occ",
				"energy": -0.27821,
				"method": "rhf"
			},
			{
				"type": "occ",
				"energy": -0.27373,
				"method": "rhf"
			},
			{
				"type": "occ",
				"energy": -0.26557,
				"method": "rhf"
			},
			{
				"type": "occ",
				"energy": -0.26474,
				"method": "rhf"
			},
			{
				"type": "occ",
				"energy": -0.25451,
				"method": "rhf"
			},
			{
				"type": "unocc",
				"energy": -0.09186,
				"method": "rhf"
			},
			{
				"type": "unocc",
				"energy": -0.04814,
				"method": "rhf"
			},
			{
				"type": "unocc",
				"energy": -0.04534,
				"method": "rhf"
			},
			{
				"type": "unocc",
				"energy": -0.0453,
				"method": "rhf"
			},
			{
				"type": "unocc",
				"energy": -0.02707,
				"method": "rhf"
			}
		],
		"cosmo_sigma_profile": { 
			"-0.025": 0.0,
			"-0.024": 0.0,
			"-0.023": 0.0,
			"-0.022": 0.0,
			"-0.021": 0.0,
			"-0.02": 0.0,
			"-0.019": 0.0,
			"-0.018": 0.0,
			"-0.017": 0.0,
			"-0.016": 0.0,
			"-0.015": 0.0,
			"-0.014": 0.0,
			"-0.013": 0.0,
			"-0.012": 0.0,
			"-0.011": 0.0,
			"-0.01": 0.37664016248,
			"-0.009": 4.32772683686,
			"-0.008": 5.63985976999,
			"-0.007": 6.25014675479,
			"-0.006": 6.43631015429,
			"-0.005": 7.93879721413,
			"-0.004": 12.7977000788,
			"-0.003": 22.3382842875,
			"-0.002": 34.2758242545,
			"-0.001": 56.5864986276,
			"0.0": 42.4775427502,
			"0.001": 40.9956568082,
			"0.002": 45.9195791672,
			"0.003": 53.4298171594,
			"0.004": 25.691830011,
			"0.005": 7.30901532102,
			"0.006": 3.76044341169,
			"0.007": 0.29944404928,
			"0.008": 0.0,
			"0.009": 0.0,
			"0.01": 0.0,
			"0.011": 0.0,
			"0.012": 0.0,
			"0.013": 0.0,
			"0.014": 0.0,
			"0.015": 0.0,
			"0.016": 0.0,
			"0.017": 0.0,
			"0.018": 0.0,
			"0.019": 0.0,
			"0.02": 0.0,
			"0.021": 0.0,
			"0.022": 0.0,
			"0.023": 0.0,
			"0.024": 0.0,
			"0.025": 0.0
		}
	}
}
