{
	 "smiles": "COC1=CC=C(C=C2N=C(OC2=O)C2=CC=CC=C2)C=C1", 
	 "Tm": 425.15, 
	 "num_atms": 34, 
	 "gaussian": { 
		 "optdone": 1, 
		 "sigma_profile": "yes", 
		 "theory": "DFT", 
		 "functional": "B3LYP", 
		 "basiset": "6-31G**", 
		 "properties": { 
			 "R2extent": 10719.0199, 
			 "electric_dipole_moment_norm": 1.43968673676, 
			 "electric_quadrupole_moment_norm": 30.605611425, 
			 "total_energy": -936.061459824, 
			 "HOMO_LUMO_gap": 0.12021, 
			 "cosmo_polarized_energy": -11.98, 
			 "cosmo_cavitation_energy": 39.48, 
			 "cosmo_dispersion_energy": -29.11, 
			 "cosmo_repulsion_energy": 2.17, 
			 "cosmo_total_nonelectrostatic_energy": 12.55, 
			 "SMD_solvation_energy": 6.94 
		},
		"coords": [
			{
				"x": -2.8604257981,
				"y": 1.1817120997,
				"z": -6.9083777119,
				"element": "C" 
			},
			{
				"x": -1.6577355683,
				"y": 1.8215885631,
				"z": -6.4992036129,
				"element": "O" 
			},
			{
				"x": -1.1987581721,
				"y": 1.6006675829,
				"z": -5.2416491453,
				"element": "C" 
			},
			{
				"x": -1.8267709397,
				"y": 0.7773999617,
				"z": -4.2941512687,
				"element": "C" 
			},
			{
				"x": -1.2730821431,
				"y": 0.617260977,
				"z": -3.0286445373,
				"element": "C" 
			},
			{
				"x": -0.0756584153,
				"y": 1.2723054289,
				"z": -2.6664202101,
				"element": "C" 
			},
			{
				"x": 0.5831878682,
				"y": 1.1758580297,
				"z": -1.3835154654,
				"element": "C" 
			},
			{
				"x": 0.3157602729,
				"y": 0.5064602292,
				"z": -0.2213819947,
				"element": "C" 
			},
			{
				"x": 1.1770616101,
				"y": 0.6225562918,
				"z": 0.8792119776,
				"element": "N" 
			},
			{
				"x": 0.6700719533,
				"y": -0.1107887186,
				"z": 1.8125061699,
				"element": "C" 
			},
			{
				"x": -0.5027526984,
				"y": -0.7602619797,
				"z": 1.4816650281,
				"element": "O" 
			},
			{
				"x": -0.791151119,
				"y": -0.399170233,
				"z": 0.1621626427,
				"element": "C" 
			},
			{
				"x": -1.7744410491,
				"y": -0.8252993736,
				"z": -0.3967347938,
				"element": "O" 
			},
			{
				"x": 1.1955417639,
				"y": -0.3231477963,
				"z": 3.1561793898,
				"element": "C" 
			},
			{
				"x": 0.5288727422,
				"y": -1.1559297232,
				"z": 4.0693104496,
				"element": "C" 
			},
			{
				"x": 1.0512114242,
				"y": -1.3431381835,
				"z": 5.3476215907,
				"element": "C" 
			},
			{
				"x": 2.2353056698,
				"y": -0.705359332,
				"z": 5.7233879834,
				"element": "C" 
			},
			{
				"x": 2.9010860124,
				"y": 0.1247991019,
				"z": 4.8150851027,
				"element": "C" 
			},
			{
				"x": 2.3874162947,
				"y": 0.3176073462,
				"z": 3.5373854919,
				"element": "C" 
			},
			{
				"x": 0.5377367902,
				"y": 2.0978468535,
				"z": -3.6433047012,
				"element": "C" 
			},
			{
				"x": -0.005434941,
				"y": 2.2626178206,
				"z": -4.9028354685,
				"element": "C" 
			},
			{
				"x": -2.7654910135,
				"y": 0.0895415666,
				"z": -6.87676178,
				"element": "H" 
			},
			{
				"x": -3.0323783991,
				"y": 1.4992202936,
				"z": -7.9374995588,
				"element": "H" 
			},
			{
				"x": -3.7105205406,
				"y": 1.4888100549,
				"z": -6.2871800594,
				"element": "H" 
			},
			{
				"x": -2.7468117983,
				"y": 0.2576791189,
				"z": -4.533571529,
				"element": "H" 
			},
			{
				"x": -1.7692512163,
				"y": -0.0211755289,
				"z": -2.3082731121,
				"element": "H" 
			},
			{
				"x": 1.4987307498,
				"y": 1.7607786023,
				"z": -1.3086474284,
				"element": "H" 
			},
			{
				"x": -0.3900733947,
				"y": -1.6480259971,
				"z": 3.7706428366,
				"element": "H" 
			},
			{
				"x": 0.5330090709,
				"y": -1.9878599039,
				"z": 6.0512337778,
				"element": "H" 
			},
			{
				"x": 2.6395016571,
				"y": -0.8536266132,
				"z": 6.7206056234,
				"element": "H" 
			},
			{
				"x": 3.8220174113,
				"y": 0.6212224084,
				"z": 5.1064412903,
				"element": "H" 
			},
			{
				"x": 2.8896816955,
				"y": 0.9574853505,
				"z": 2.8198147035,
				"element": "H" 
			},
			{
				"x": 1.4604259381,
				"y": 2.6144294653,
				"z": -3.392568824,
				"element": "H" 
			},
			{
				"x": 0.4671182817,
				"y": 2.8950362364,
				"z": -5.6468328566,
				"element": "H" 
			}
		],
		 "valence_orbital": [ 
			{
				"type": "occ",
				"energy": -0.26661,
				"method": "rhf"
			},
			{
				"type": "occ",
				"energy": -0.26193,
				"method": "rhf"
			},
			{
				"type": "occ",
				"energy": -0.25908,
				"method": "rhf"
			},
			{
				"type": "occ",
				"energy": -0.25296,
				"method": "rhf"
			},
			{
				"type": "occ",
				"energy": -0.20438,
				"method": "rhf"
			},
			{
				"type": "unocc",
				"energy": -0.08417,
				"method": "rhf"
			},
			{
				"type": "unocc",
				"energy": -0.03026,
				"method": "rhf"
			},
			{
				"type": "unocc",
				"energy": -0.00828,
				"method": "rhf"
			},
			{
				"type": "unocc",
				"energy": -0.00758,
				"method": "rhf"
			},
			{
				"type": "unocc",
				"energy": 0.02005,
				"method": "rhf"
			}
		],
		"cosmo_sigma_profile": { 
			"-0.025": 0.0,
			"-0.024": 0.0,
			"-0.023": 0.0,
			"-0.022": 0.0,
			"-0.021": 0.0,
			"-0.02": 0.0,
			"-0.019": 0.0,
			"-0.018": 0.0,
			"-0.017": 0.0,
			"-0.016": 0.0,
			"-0.015": 0.0,
			"-0.014": 0.0,
			"-0.013": 0.0,
			"-0.012": 0.0,
			"-0.011": 0.0,
			"-0.01": 0.0,
			"-0.009": 0.0950029836974,
			"-0.008": 2.01714007608,
			"-0.007": 8.25923578516,
			"-0.006": 22.955687574,
			"-0.005": 26.4532764748,
			"-0.004": 26.7609711627,
			"-0.003": 22.1411057067,
			"-0.002": 19.0686214885,
			"-0.001": 17.9214340231,
			"0.0": 22.7989797403,
			"0.001": 26.5933242026,
			"0.002": 30.9041311299,
			"0.003": 30.4069100504,
			"0.004": 24.2703970891,
			"0.005": 7.83788604753,
			"0.006": 4.15810666702,
			"0.007": 5.08107887507,
			"0.008": 5.78825839441,
			"0.009": 5.12600193748,
			"0.01": 3.87931668923,
			"0.011": 3.77275765389,
			"0.012": 1.83426771845,
			"0.013": 0.0814195600108,
			"0.014": 0.0,
			"0.015": 0.0,
			"0.016": 0.0,
			"0.017": 0.0,
			"0.018": 0.0,
			"0.019": 0.0,
			"0.02": 0.0,
			"0.021": 0.0,
			"0.022": 0.0,
			"0.023": 0.0,
			"0.024": 0.0,
			"0.025": 0.0
		}
	}
}
