{
	 "smiles": "[O-][N+](=O)C1=C(Cl)C=CC(=C1)C(=O)NC1CC1", 
	 "Tm": 404.15, 
	 "num_atms": 25, 
	 "gaussian": { 
		 "optdone": 1, 
		 "sigma_profile": "yes", 
		 "theory": "DFT", 
		 "functional": "B3LYP", 
		 "basiset": "6-31G**", 
		 "properties": { 
			 "R2extent": 5910.228, 
			 "electric_dipole_moment_norm": 2.97351787787, 
			 "electric_quadrupole_moment_norm": 23.3473368978, 
			 "total_energy": -1181.72460216, 
			 "HOMO_LUMO_gap": 0.16319, 
			 "cosmo_polarized_energy": -16.01, 
			 "cosmo_cavitation_energy": 32.32, 
			 "cosmo_dispersion_energy": -23.32, 
			 "cosmo_repulsion_energy": 1.83, 
			 "cosmo_total_nonelectrostatic_energy": 10.83, 
			 "SMD_solvation_energy": 7.14 
		},
		"coords": [
			{
				"x": 1.4066808226,
				"y": 1.4006206978,
				"z": -4.6691225012,
				"element": "O" 
			},
			{
				"x": 0.6473484001,
				"y": 1.2727295128,
				"z": -3.7161269067,
				"element": "N" 
			},
			{
				"x": -0.4205937695,
				"y": 1.8719907752,
				"z": -3.5762774848,
				"element": "O" 
			},
			{
				"x": 1.0397987026,
				"y": 0.3621321583,
				"z": -2.624536783,
				"element": "C" 
			},
			{
				"x": 1.8622048946,
				"y": -0.7601400424,
				"z": -2.8096547627,
				"element": "C" 
			},
			{
				"x": 2.4406652646,
				"y": -1.2976483817,
				"z": -4.3592042532,
				"element": "Cl" 
			},
			{
				"x": 2.2011174831,
				"y": -1.5293927944,
				"z": -1.6903530016,
				"element": "C" 
			},
			{
				"x": 1.7418285096,
				"y": -1.1850842505,
				"z": -0.4259886477,
				"element": "C" 
			},
			{
				"x": 0.8976097014,
				"y": -0.081085045,
				"z": -0.2430708182,
				"element": "C" 
			},
			{
				"x": 0.5558474068,
				"y": 0.6859751235,
				"z": -1.3550473355,
				"element": "C" 
			},
			{
				"x": 0.4468521075,
				"y": 0.2116195845,
				"z": 1.1677889835,
				"element": "C" 
			},
			{
				"x": 1.0317397522,
				"y": -0.2839432012,
				"z": 2.1246145777,
				"element": "O" 
			},
			{
				"x": -0.6390386629,
				"y": 1.029359831,
				"z": 1.3077820274,
				"element": "N" 
			},
			{
				"x": -1.1194916227,
				"y": 1.4367736122,
				"z": 2.5995128025,
				"element": "C" 
			},
			{
				"x": -2.603095839,
				"y": 1.62961738,
				"z": 2.7692223943,
				"element": "C" 
			},
			{
				"x": -1.9114703758,
				"y": 0.4649351861,
				"z": 3.4346816277,
				"element": "C" 
			},
			{
				"x": 2.8302508631,
				"y": -2.4010593819,
				"z": -1.8305916001,
				"element": "H" 
			},
			{
				"x": 2.0231624481,
				"y": -1.7641552888,
				"z": 0.4467427102,
				"element": "H" 
			},
			{
				"x": -0.0673156707,
				"y": 1.5691848911,
				"z": -1.2858204198,
				"element": "H" 
			},
			{
				"x": -1.0978536645,
				"y": 1.4029985367,
				"z": 0.491342051,
				"element": "H" 
			},
			{
				"x": -0.4555704144,
				"y": 2.1151393614,
				"z": 3.1311824295,
				"element": "H" 
			},
			{
				"x": -2.9392100395,
				"y": 2.4628270418,
				"z": 3.3778833856,
				"element": "H" 
			},
			{
				"x": -3.2409796149,
				"y": 1.4137803687,
				"z": 1.9163152116,
				"element": "H" 
			},
			{
				"x": -2.0730580696,
				"y": -0.5236853407,
				"z": 3.0191463456,
				"element": "H" 
			},
			{
				"x": -1.7607286129,
				"y": 0.4873096657,
				"z": 4.508879968,
				"element": "H" 
			}
		],
		 "valence_orbital": [ 
			{
				"type": "occ",
				"energy": -0.30427,
				"method": "rhf"
			},
			{
				"type": "occ",
				"energy": -0.28858,
				"method": "rhf"
			},
			{
				"type": "occ",
				"energy": -0.27744,
				"method": "rhf"
			},
			{
				"type": "occ",
				"energy": -0.26578,
				"method": "rhf"
			},
			{
				"type": "occ",
				"energy": -0.26145,
				"method": "rhf"
			},
			{
				"type": "unocc",
				"energy": -0.09826,
				"method": "rhf"
			},
			{
				"type": "unocc",
				"energy": -0.06308,
				"method": "rhf"
			},
			{
				"type": "unocc",
				"energy": -0.02514,
				"method": "rhf"
			},
			{
				"type": "unocc",
				"energy": 0.00569,
				"method": "rhf"
			},
			{
				"type": "unocc",
				"energy": 0.03997,
				"method": "rhf"
			}
		],
		"cosmo_sigma_profile": { 
			"-0.025": 0.0,
			"-0.024": 0.0,
			"-0.023": 0.0,
			"-0.022": 0.0,
			"-0.021": 0.0,
			"-0.02": 0.0,
			"-0.019": 0.0,
			"-0.018": 0.0,
			"-0.017": 0.0,
			"-0.016": 0.428321851512,
			"-0.015": 1.09226429478,
			"-0.014": 1.01140832812,
			"-0.013": 1.39009020119,
			"-0.012": 0.957484553795,
			"-0.011": 1.31209164447,
			"-0.01": 1.18254858287,
			"-0.009": 2.40805816904,
			"-0.008": 5.45943620526,
			"-0.007": 8.07733985919,
			"-0.006": 9.54295594993,
			"-0.005": 15.5121752147,
			"-0.004": 17.1734839792,
			"-0.003": 17.2683102258,
			"-0.002": 24.8601039055,
			"-0.001": 28.3290801339,
			"0.0": 23.8714589365,
			"0.001": 15.1393886686,
			"0.002": 11.9323169239,
			"0.003": 13.5687609777,
			"0.004": 8.43077370792,
			"0.005": 5.90336499653,
			"0.006": 5.86814302352,
			"0.007": 12.8600033464,
			"0.008": 8.69114367317,
			"0.009": 4.9835243231,
			"0.01": 1.86708578267,
			"0.011": 1.91081038837,
			"0.012": 2.67815592271,
			"0.013": 4.73793267923,
			"0.014": 2.18667053961,
			"0.015": 0.121858190755,
			"0.016": 0.0,
			"0.017": 0.0,
			"0.018": 0.0,
			"0.019": 0.0,
			"0.02": 0.0,
			"0.021": 0.0,
			"0.022": 0.0,
			"0.023": 0.0,
			"0.024": 0.0,
			"0.025": 0.0
		}
	}
}
