{
	 "smiles": "COC(=O)C1=C(N)SC=C1C1=C(Cl)C=CC=C1", 
	 "Tm": 367.15, 
	 "num_atms": 27, 
	 "gaussian": { 
		 "optdone": 1, 
		 "sigma_profile": "yes", 
		 "theory": "DFT", 
		 "functional": "B3LYP", 
		 "basiset": "6-31G**", 
		 "properties": { 
			 "R2extent": 4973.8426, 
			 "electric_dipole_moment_norm": 2.22185207428, 
			 "electric_quadrupole_moment_norm": 12.7391106636, 
			 "total_energy": -1526.88699171, 
			 "HOMO_LUMO_gap": 0.1818, 
			 "cosmo_polarized_energy": -11.94, 
			 "cosmo_cavitation_energy": 34.42, 
			 "cosmo_dispersion_energy": -24.43, 
			 "cosmo_repulsion_energy": 1.87, 
			 "cosmo_total_nonelectrostatic_energy": 11.87, 
			 "SMD_solvation_energy": 6.75 
		},
		"coords": [
			{
				"x": -2.0324484084,
				"y": -0.5954727423,
				"z": 1.6761370079,
				"element": "C" 
			},
			{
				"x": -1.1287460194,
				"y": -0.3205052427,
				"z": 0.5970260402,
				"element": "O" 
			},
			{
				"x": -1.7059774017,
				"y": -0.0096999679,
				"z": -0.5820269925,
				"element": "C" 
			},
			{
				"x": -2.9292884346,
				"y": 0.0625458468,
				"z": -0.7055975398,
				"element": "O" 
			},
			{
				"x": -0.7524870701,
				"y": 0.2501215844,
				"z": -1.6555651702,
				"element": "C" 
			},
			{
				"x": -1.2250464699,
				"y": 0.7002948585,
				"z": -2.8908438544,
				"element": "C" 
			},
			{
				"x": -2.5210833953,
				"y": 0.8212771576,
				"z": -3.2769429571,
				"element": "N" 
			},
			{
				"x": 0.0875470685,
				"y": 1.068526277,
				"z": -3.9862654313,
				"element": "S" 
			},
			{
				"x": 1.2714893155,
				"y": 0.6220791866,
				"z": -2.774613176,
				"element": "C" 
			},
			{
				"x": 0.6998945936,
				"y": 0.1969291251,
				"z": -1.6141657459,
				"element": "C" 
			},
			{
				"x": 1.5521670755,
				"y": -0.2356130871,
				"z": -0.4734794792,
				"element": "C" 
			},
			{
				"x": 1.6574542685,
				"y": -1.5715041138,
				"z": -0.0517340016,
				"element": "C" 
			},
			{
				"x": 0.7342731841,
				"y": -2.8330121036,
				"z": -0.8576445774,
				"element": "Cl" 
			},
			{
				"x": 2.5030908479,
				"y": -1.9462305186,
				"z": 0.9910230528,
				"element": "C" 
			},
			{
				"x": 3.2743949295,
				"y": -0.9797472883,
				"z": 1.6369891467,
				"element": "C" 
			},
			{
				"x": 3.1986647729,
				"y": 0.3526426063,
				"z": 1.233388211,
				"element": "C" 
			},
			{
				"x": 2.3469865079,
				"y": 0.7122856665,
				"z": 0.1897120653,
				"element": "C" 
			},
			{
				"x": -2.6869721029,
				"y": -1.434781224,
				"z": 1.4282595694,
				"element": "H" 
			},
			{
				"x": -2.6498052295,
				"y": 0.2790511349,
				"z": 1.8974080499,
				"element": "H" 
			},
			{
				"x": -1.3997164879,
				"y": -0.8426773629,
				"z": 2.5285656971,
				"element": "H" 
			},
			{
				"x": -3.1881570421,
				"y": 0.6857720948,
				"z": -2.5206806489,
				"element": "H" 
			},
			{
				"x": -2.7583465769,
				"y": 1.4375579028,
				"z": -4.0379872671,
				"element": "H" 
			},
			{
				"x": 2.3232071782,
				"y": 0.6659189882,
				"z": -3.0167529627,
				"element": "H" 
			},
			{
				"x": 2.5583501062,
				"y": -2.9890383531,
				"z": 1.2836190166,
				"element": "H" 
			},
			{
				"x": 3.933092505,
				"y": -1.2740282169,
				"z": 2.4486716821,
				"element": "H" 
			},
			{
				"x": 3.7980907479,
				"y": 1.110951793,
				"z": 1.7280116584,
				"element": "H" 
			},
			{
				"x": 2.2773715374,
				"y": 1.748755999,
				"z": -0.1254113933,
				"element": "H" 
			}
		],
		 "valence_orbital": [ 
			{
				"type": "occ",
				"energy": -0.27133,
				"method": "rhf"
			},
			{
				"type": "occ",
				"energy": -0.26161,
				"method": "rhf"
			},
			{
				"type": "occ",
				"energy": -0.24895,
				"method": "rhf"
			},
			{
				"type": "occ",
				"energy": -0.2384,
				"method": "rhf"
			},
			{
				"type": "occ",
				"energy": -0.20034,
				"method": "rhf"
			},
			{
				"type": "unocc",
				"energy": -0.01854,
				"method": "rhf"
			},
			{
				"type": "unocc",
				"energy": -0.0175,
				"method": "rhf"
			},
			{
				"type": "unocc",
				"energy": -0.00822,
				"method": "rhf"
			},
			{
				"type": "unocc",
				"energy": 0.01113,
				"method": "rhf"
			},
			{
				"type": "unocc",
				"energy": 0.0209,
				"method": "rhf"
			}
		],
		"cosmo_sigma_profile": { 
			"-0.025": 0.0,
			"-0.024": 0.0,
			"-0.023": 0.0,
			"-0.022": 0.0,
			"-0.021": 0.0,
			"-0.02": 0.0,
			"-0.019": 0.0,
			"-0.018": 0.0,
			"-0.017": 0.0,
			"-0.016": 0.0,
			"-0.015": 0.775500146398,
			"-0.014": 1.52067063765,
			"-0.013": 1.07801350594,
			"-0.012": 1.55658526446,
			"-0.011": 1.24972403907,
			"-0.01": 1.63407824414,
			"-0.009": 2.28919933858,
			"-0.008": 3.43852363343,
			"-0.007": 5.89473255919,
			"-0.006": 14.0715791688,
			"-0.005": 17.970333971,
			"-0.004": 18.2132444082,
			"-0.003": 17.5400778587,
			"-0.002": 17.297318457,
			"-0.001": 15.4789061162,
			"0.0": 15.716073618,
			"0.001": 22.5815896413,
			"0.002": 26.841300108,
			"0.003": 27.4449783281,
			"0.004": 27.5812178508,
			"0.005": 18.1943038448,
			"0.006": 7.01315889762,
			"0.007": 3.58823044027,
			"0.008": 2.87307456079,
			"0.009": 1.58815070963,
			"0.01": 1.99585736333,
			"0.011": 1.87814988682,
			"0.012": 1.83995551673,
			"0.013": 0.655799718058,
			"0.014": 0.0,
			"0.015": 0.0,
			"0.016": 0.0,
			"0.017": 0.0,
			"0.018": 0.0,
			"0.019": 0.0,
			"0.02": 0.0,
			"0.021": 0.0,
			"0.022": 0.0,
			"0.023": 0.0,
			"0.024": 0.0,
			"0.025": 0.0
		}
	}
}
