{
	 "smiles": "COC1=CC2=C(CCC2=O)C=C1", 
	 "Tm": 382.15, 
	 "num_atms": 22, 
	 "gaussian": { 
		 "optdone": 1, 
		 "sigma_profile": "yes", 
		 "theory": "DFT", 
		 "functional": "B3LYP", 
		 "basiset": "6-31G**", 
		 "properties": { 
			 "R2extent": 2352.1197, 
			 "electric_dipole_moment_norm": 2.24903057783, 
			 "electric_quadrupole_moment_norm": 14.5598870267, 
			 "total_energy": -537.535506173, 
			 "HOMO_LUMO_gap": 0.17295, 
			 "cosmo_polarized_energy": -9.57, 
			 "cosmo_cavitation_energy": 25.46, 
			 "cosmo_dispersion_energy": -18.97, 
			 "cosmo_repulsion_energy": 1.52, 
			 "cosmo_total_nonelectrostatic_energy": 8.01, 
			 "SMD_solvation_energy": 5.31 
		},
		"coords": [
			{
				"x": 2.3418193177,
				"y": -2.5585071142,
				"z": 0.4477615653,
				"element": "C" 
			},
			{
				"x": 1.1472250429,
				"y": -2.7342256462,
				"z": -0.2999164432,
				"element": "O" 
			},
			{
				"x": 0.2035703706,
				"y": -1.7521090151,
				"z": -0.2351863455,
				"element": "C" 
			},
			{
				"x": 0.3192812486,
				"y": -0.5804092751,
				"z": 0.5123982216,
				"element": "C" 
			},
			{
				"x": -0.7449495877,
				"y": 0.3276449859,
				"z": 0.4686799827,
				"element": "C" 
			},
			{
				"x": -1.8986307215,
				"y": 0.108151595,
				"z": -0.2825752189,
				"element": "C" 
			},
			{
				"x": -2.8863599481,
				"y": 1.2516448039,
				"z": -0.1472444468,
				"element": "C" 
			},
			{
				"x": -2.192835583,
				"y": 2.2506100065,
				"z": 0.8110578426,
				"element": "C" 
			},
			{
				"x": -0.8360920416,
				"y": 1.6254102948,
				"z": 1.1781261958,
				"element": "C" 
			},
			{
				"x": 0.0001138351,
				"y": 2.1141880154,
				"z": 1.9158272096,
				"element": "O" 
			},
			{
				"x": -2.0044183428,
				"y": -1.0709293602,
				"z": -1.0290838669,
				"element": "C" 
			},
			{
				"x": -0.9600640839,
				"y": -1.9874444018,
				"z": -1.0011052181,
				"element": "C" 
			},
			{
				"x": 2.9494221378,
				"y": -3.4443336592,
				"z": 0.2577612386,
				"element": "H" 
			},
			{
				"x": 2.1372110831,
				"y": -2.4827401229,
				"z": 1.5232858428,
				"element": "H" 
			},
			{
				"x": 2.8918563253,
				"y": -1.6652614916,
				"z": 0.1253923791,
				"element": "H" 
			},
			{
				"x": 1.1877386143,
				"y": -0.347828185,
				"z": 1.11733537,
				"element": "H" 
			},
			{
				"x": -3.1045063005,
				"y": 1.7044689929,
				"z": -1.1216780397,
				"element": "H" 
			},
			{
				"x": -3.8457351369,
				"y": 0.9015907973,
				"z": 0.2517763146,
				"element": "H" 
			},
			{
				"x": -2.0214061766,
				"y": 3.2312835662,
				"z": 0.3554149775,
				"element": "H" 
			},
			{
				"x": -2.7628967187,
				"y": 2.4288185128,
				"z": 1.7286585044,
				"element": "H" 
			},
			{
				"x": -2.887736317,
				"y": -1.2787323472,
				"z": -1.6274958595,
				"element": "H" 
			},
			{
				"x": -1.0110070171,
				"y": -2.9112909524,
				"z": -1.568790206,
				"element": "H" 
			}
		],
		 "valence_orbital": [ 
			{
				"type": "occ",
				"energy": -0.3366,
				"method": "rhf"
			},
			{
				"type": "occ",
				"energy": -0.31147,
				"method": "rhf"
			},
			{
				"type": "occ",
				"energy": -0.25933,
				"method": "rhf"
			},
			{
				"type": "occ",
				"energy": -0.23744,
				"method": "rhf"
			},
			{
				"type": "occ",
				"energy": -0.22375,
				"method": "rhf"
			},
			{
				"type": "unocc",
				"energy": -0.0508,
				"method": "rhf"
			},
			{
				"type": "unocc",
				"energy": 0.00183,
				"method": "rhf"
			},
			{
				"type": "unocc",
				"energy": 0.05093,
				"method": "rhf"
			},
			{
				"type": "unocc",
				"energy": 0.09789,
				"method": "rhf"
			},
			{
				"type": "unocc",
				"energy": 0.09996,
				"method": "rhf"
			}
		],
		"cosmo_sigma_profile": { 
			"-0.025": 0.0,
			"-0.024": 0.0,
			"-0.023": 0.0,
			"-0.022": 0.0,
			"-0.021": 0.0,
			"-0.02": 0.0,
			"-0.019": 0.0,
			"-0.018": 0.0,
			"-0.017": 0.0,
			"-0.016": 0.0,
			"-0.015": 0.0,
			"-0.014": 0.0,
			"-0.013": 0.0,
			"-0.012": 0.0,
			"-0.011": 0.0,
			"-0.01": 0.0,
			"-0.009": 0.0,
			"-0.008": 0.0,
			"-0.007": 1.24031665653,
			"-0.006": 11.9980434566,
			"-0.005": 20.6731211027,
			"-0.004": 24.3535484476,
			"-0.003": 25.7246511252,
			"-0.002": 16.6364515289,
			"-0.001": 12.9268133292,
			"0.0": 10.8340897126,
			"0.001": 9.15968343972,
			"0.002": 10.9745253361,
			"0.003": 15.8200579299,
			"0.004": 11.7793678397,
			"0.005": 3.6698364137,
			"0.006": 3.17088482555,
			"0.007": 2.38046090198,
			"0.008": 2.94638741793,
			"0.009": 2.82623922679,
			"0.01": 3.76509382402,
			"0.011": 2.84846672709,
			"0.012": 4.23847329561,
			"0.013": 3.67646104531,
			"0.014": 0.595817880333,
			"0.015": 0.0,
			"0.016": 0.0,
			"0.017": 0.0,
			"0.018": 0.0,
			"0.019": 0.0,
			"0.02": 0.0,
			"0.021": 0.0,
			"0.022": 0.0,
			"0.023": 0.0,
			"0.024": 0.0,
			"0.025": 0.0
		}
	}
}
