{
	 "smiles": "OC1=CC(=NC2=CC=C(OC(F)(F)F)C=C12)C(F)(F)F", 
	 "Tm": 503.15, 
	 "num_atms": 25, 
	 "gaussian": { 
		 "optdone": 1, 
		 "sigma_profile": "yes", 
		 "theory": "DFT", 
		 "functional": "B3LYP", 
		 "basiset": "6-31G**", 
		 "properties": { 
			 "R2extent": 7279.163, 
			 "electric_dipole_moment_norm": 3.372188549, 
			 "electric_quadrupole_moment_norm": 10.6881597803, 
			 "total_energy": -1226.43335744, 
			 "HOMO_LUMO_gap": 0.17196, 
			 "cosmo_polarized_energy": -11.42, 
			 "cosmo_cavitation_energy": 33.25, 
			 "cosmo_dispersion_energy": -23.51, 
			 "cosmo_repulsion_energy": 1.66, 
			 "cosmo_total_nonelectrostatic_energy": 11.4, 
			 "SMD_solvation_energy": 7.21 
		},
		"coords": [
			{
				"x": -2.1666989622,
				"y": 0.8090317592,
				"z": -1.6157203201,
				"element": "O" 
			},
			{
				"x": -0.8695912641,
				"y": 0.7855298756,
				"z": -1.2319838587,
				"element": "C" 
			},
			{
				"x": 0.0154003217,
				"y": 1.5996928323,
				"z": -1.914238416,
				"element": "C" 
			},
			{
				"x": 1.368563107,
				"y": 1.5852240865,
				"z": -1.5307020257,
				"element": "C" 
			},
			{
				"x": 1.8743436744,
				"y": 0.8484381526,
				"z": -0.5614051019,
				"element": "N" 
			},
			{
				"x": 1.0157583927,
				"y": 0.0463923423,
				"z": 0.1192035488,
				"element": "C" 
			},
			{
				"x": 1.5386888372,
				"y": -0.7556661131,
				"z": 1.1711484751,
				"element": "C" 
			},
			{
				"x": 0.7249019448,
				"y": -1.5873563905,
				"z": 1.8970865709,
				"element": "C" 
			},
			{
				"x": -0.6581071309,
				"y": -1.647966326,
				"z": 1.6048309713,
				"element": "C" 
			},
			{
				"x": -1.3613341637,
				"y": -2.517200004,
				"z": 2.4367898274,
				"element": "O" 
			},
			{
				"x": -2.6289187211,
				"y": -2.9037749592,
				"z": 2.1435907353,
				"element": "C" 
			},
			{
				"x": -2.7285318722,
				"y": -3.4515743321,
				"z": 0.9188284251,
				"element": "F" 
			},
			{
				"x": -3.5047740769,
				"y": -1.8758858485,
				"z": 2.1910790026,
				"element": "F" 
			},
			{
				"x": -2.9906533501,
				"y": -3.804774085,
				"z": 3.0506925307,
				"element": "F" 
			},
			{
				"x": -1.217123134,
				"y": -0.8889326769,
				"z": 0.6027531837,
				"element": "C" 
			},
			{
				"x": -0.3850814108,
				"y": -0.0318052939,
				"z": -0.1659547116,
				"element": "C" 
			},
			{
				"x": 2.3749477726,
				"y": 2.4628656191,
				"z": -2.2559999272,
				"element": "C" 
			},
			{
				"x": 3.3408747242,
				"y": 1.7237819316,
				"z": -2.8321938479,
				"element": "F" 
			},
			{
				"x": 1.7840664234,
				"y": 3.1919721612,
				"z": -3.2306027582,
				"element": "F" 
			},
			{
				"x": 2.9704305882,
				"y": 3.3238074736,
				"z": -1.410429831,
				"element": "F" 
			},
			{
				"x": -2.687936824,
				"y": 0.1762196189,
				"z": -1.1060726993,
				"element": "H" 
			},
			{
				"x": -0.3365611935,
				"y": 2.225144928,
				"z": -2.7237708494,
				"element": "H" 
			},
			{
				"x": 2.6018396117,
				"y": -0.6854267328,
				"z": 1.3726558473,
				"element": "H" 
			},
			{
				"x": 1.1109058434,
				"y": -2.2074644849,
				"z": 2.6986703503,
				"element": "H" 
			},
			{
				"x": -2.2836091377,
				"y": -0.9419735341,
				"z": 0.4221448784,
				"element": "H" 
			}
		],
		 "valence_orbital": [ 
			{
				"type": "occ",
				"energy": -0.34814,
				"method": "rhf"
			},
			{
				"type": "occ",
				"energy": -0.30302,
				"method": "rhf"
			},
			{
				"type": "occ",
				"energy": -0.28016,
				"method": "rhf"
			},
			{
				"type": "occ",
				"energy": -0.27099,
				"method": "rhf"
			},
			{
				"type": "occ",
				"energy": -0.2436,
				"method": "rhf"
			},
			{
				"type": "unocc",
				"energy": -0.07164,
				"method": "rhf"
			},
			{
				"type": "unocc",
				"energy": -0.04182,
				"method": "rhf"
			},
			{
				"type": "unocc",
				"energy": 0.00127,
				"method": "rhf"
			},
			{
				"type": "unocc",
				"energy": 0.03243,
				"method": "rhf"
			},
			{
				"type": "unocc",
				"energy": 0.06409,
				"method": "rhf"
			}
		],
		"cosmo_sigma_profile": { 
			"-0.025": 0.0,
			"-0.024": 0.0,
			"-0.023": 0.0,
			"-0.022": 0.0,
			"-0.021": 0.0,
			"-0.02": 0.350703376411,
			"-0.019": 1.28610040951,
			"-0.018": 0.876384540637,
			"-0.017": 1.00645363104,
			"-0.016": 0.567999840874,
			"-0.015": 0.529432039842,
			"-0.014": 1.07637359379,
			"-0.013": 1.26176752016,
			"-0.012": 1.33234188717,
			"-0.011": 0.533832971771,
			"-0.01": 0.780837204168,
			"-0.009": 1.00096073166,
			"-0.008": 3.7911922205,
			"-0.007": 6.11358405861,
			"-0.006": 5.67856552143,
			"-0.005": 6.29420725929,
			"-0.004": 6.18778901441,
			"-0.003": 10.8440198126,
			"-0.002": 16.8532353748,
			"-0.001": 23.2397073379,
			"0.0": 36.1803772124,
			"0.001": 42.6546603521,
			"0.002": 44.7280738634,
			"0.003": 27.6890440777,
			"0.004": 6.39271261683,
			"0.005": 5.04943537117,
			"0.006": 3.84998882143,
			"0.007": 3.49161583552,
			"0.008": 2.75928667572,
			"0.009": 3.03128687835,
			"0.01": 1.04016050056,
			"0.011": 0.909765037723,
			"0.012": 0.983623948099,
			"0.013": 0.442234805856,
			"0.014": 0.0184327065769,
			"0.015": 0.0,
			"0.016": 0.0,
			"0.017": 0.0,
			"0.018": 0.0,
			"0.019": 0.0,
			"0.02": 0.0,
			"0.021": 0.0,
			"0.022": 0.0,
			"0.023": 0.0,
			"0.024": 0.0,
			"0.025": 0.0
		}
	}
}
