{
	 "smiles": "NC1=NC(C#N)=C(N1)C#N", 
	 "Tm": 544.15, 
	 "num_atms": 13, 
	 "gaussian": { 
		 "optdone": 1, 
		 "sigma_profile": "yes", 
		 "theory": "DFT", 
		 "functional": "B3LYP", 
		 "basiset": "6-31G**", 
		 "properties": { 
			 "R2extent": 2045.3012, 
			 "electric_dipole_moment_norm": 8.59560083357, 
			 "electric_quadrupole_moment_norm": 14.3426755809, 
			 "total_energy": -466.05471033, 
			 "HOMO_LUMO_gap": 0.17494, 
			 "cosmo_polarized_energy": -24.82, 
			 "cosmo_cavitation_energy": 20.81, 
			 "cosmo_dispersion_energy": -14.27, 
			 "cosmo_repulsion_energy": 1.2, 
			 "cosmo_total_nonelectrostatic_energy": 7.74, 
			 "SMD_solvation_energy": 4.66 
		},
		"coords": [
			{
				"x": -3.1347209256,
				"y": 1.4203614158,
				"z": 1.0837443021,
				"element": "N" 
			},
			{
				"x": -1.7744970859,
				"y": 1.4265277206,
				"z": 0.8825174278,
				"element": "C" 
			},
			{
				"x": -1.1101544514,
				"y": 2.3502640335,
				"z": 0.211102975,
				"element": "N" 
			},
			{
				"x": 0.2140222006,
				"y": 2.0077893354,
				"z": 0.3396311396,
				"element": "C" 
			},
			{
				"x": 1.2615209794,
				"y": 2.7665104079,
				"z": -0.256055593,
				"element": "C" 
			},
			{
				"x": 2.122555027,
				"y": 3.3800592201,
				"z": -0.7396339003,
				"element": "N" 
			},
			{
				"x": 0.359603143,
				"y": 0.8492147151,
				"z": 1.0911754892,
				"element": "C" 
			},
			{
				"x": -0.9421540851,
				"y": 0.491245429,
				"z": 1.4319593601,
				"element": "N" 
			},
			{
				"x": 1.4892890727,
				"y": 0.1007958583,
				"z": 1.4798049512,
				"element": "C" 
			},
			{
				"x": 2.4124079015,
				"y": -0.5280851757,
				"z": 1.8116139294,
				"element": "N" 
			},
			{
				"x": -3.6024042908,
				"y": 2.1181605031,
				"z": 0.519633835,
				"element": "H" 
			},
			{
				"x": -3.5914078548,
				"y": 0.5184043414,
				"z": 1.0465477964,
				"element": "H" 
			},
			{
				"x": -1.1953596304,
				"y": -0.2629478043,
				"z": 2.0536582876,
				"element": "H" 
			}
		],
		 "valence_orbital": [ 
			{
				"type": "occ",
				"energy": -0.34433,
				"method": "rhf"
			},
			{
				"type": "occ",
				"energy": -0.33994,
				"method": "rhf"
			},
			{
				"type": "occ",
				"energy": -0.31693,
				"method": "rhf"
			},
			{
				"type": "occ",
				"energy": -0.31153,
				"method": "rhf"
			},
			{
				"type": "occ",
				"energy": -0.24383,
				"method": "rhf"
			},
			{
				"type": "unocc",
				"energy": -0.06889,
				"method": "rhf"
			},
			{
				"type": "unocc",
				"energy": -0.00884,
				"method": "rhf"
			},
			{
				"type": "unocc",
				"energy": 0.01044,
				"method": "rhf"
			},
			{
				"type": "unocc",
				"energy": 0.01945,
				"method": "rhf"
			},
			{
				"type": "unocc",
				"energy": 0.04281,
				"method": "rhf"
			}
		],
		"cosmo_sigma_profile": { 
			"-0.025": 0.0,
			"-0.024": 0.0,
			"-0.023": 0.0,
			"-0.022": 0.0,
			"-0.021": 0.0,
			"-0.02": 0.0,
			"-0.019": 0.971312763595,
			"-0.018": 2.5882862025,
			"-0.017": 1.82831967137,
			"-0.016": 2.21671095488,
			"-0.015": 3.32348050038,
			"-0.014": 3.8748171514,
			"-0.013": 3.22549576832,
			"-0.012": 3.55476207866,
			"-0.011": 3.12737698418,
			"-0.01": 2.08679850865,
			"-0.009": 2.51777106915,
			"-0.008": 2.73734780322,
			"-0.007": 2.21608610372,
			"-0.006": 2.45697088157,
			"-0.005": 4.01898750297,
			"-0.004": 5.45807973369,
			"-0.003": 11.8620922163,
			"-0.002": 13.4229413883,
			"-0.001": 6.1961280093,
			"0.0": 6.46198473143,
			"0.001": 6.8451890644,
			"0.002": 6.47719011084,
			"0.003": 7.30385858116,
			"0.004": 7.5998081049,
			"0.005": 6.0336865204,
			"0.006": 8.00337011005,
			"0.007": 8.01557991246,
			"0.008": 8.71791537946,
			"0.009": 7.43791039376,
			"0.01": 6.51265407607,
			"0.011": 6.05264403945,
			"0.012": 4.36058972092,
			"0.013": 1.34144878664,
			"0.014": 0.692427785776,
			"0.015": 0.0304280161544,
			"0.016": 0.0,
			"0.017": 0.0,
			"0.018": 0.0,
			"0.019": 0.0,
			"0.02": 0.0,
			"0.021": 0.0,
			"0.022": 0.0,
			"0.023": 0.0,
			"0.024": 0.0,
			"0.025": 0.0
		}
	}
}
