{
	 "smiles": "CC1=C(C)C(=O)NC(=N1)C1=CN=C(Cl)C=C1", 
	 "Tm": 537.15, 
	 "num_atms": 26, 
	 "gaussian": { 
		 "optdone": 1, 
		 "sigma_profile": "yes", 
		 "theory": "DFT", 
		 "functional": "B3LYP", 
		 "basiset": "6-31G**", 
		 "properties": { 
			 "R2extent": 6136.0789, 
			 "electric_dipole_moment_norm": 3.50063357266, 
			 "electric_quadrupole_moment_norm": 7.57147585679, 
			 "total_energy": -1124.89644385, 
			 "HOMO_LUMO_gap": 0.15281, 
			 "cosmo_polarized_energy": -15.22, 
			 "cosmo_cavitation_energy": 32.38, 
			 "cosmo_dispersion_energy": -23.92, 
			 "cosmo_repulsion_energy": 1.85, 
			 "cosmo_total_nonelectrostatic_energy": 10.31, 
			 "SMD_solvation_energy": 3.47 
		},
		"coords": [
			{
				"x": -1.135178593,
				"y": -2.8709399363,
				"z": 0.3615789691,
				"element": "C" 
			},
			{
				"x": -0.050684169,
				"y": -1.9257138718,
				"z": -0.087314596,
				"element": "C" 
			},
			{
				"x": 1.1253406354,
				"y": -2.3903277312,
				"z": -0.6313534152,
				"element": "C" 
			},
			{
				"x": 1.4336957291,
				"y": -3.8491176286,
				"z": -0.8240524106,
				"element": "C" 
			},
			{
				"x": 2.1303260611,
				"y": -1.4310790372,
				"z": -1.0636777122,
				"element": "C" 
			},
			{
				"x": 3.2148460276,
				"y": -1.6700884872,
				"z": -1.5830144071,
				"element": "O" 
			},
			{
				"x": 1.7460454375,
				"y": -0.0900461542,
				"z": -0.841853651,
				"element": "N" 
			},
			{
				"x": 0.5644666839,
				"y": 0.2871950876,
				"z": -0.2749575908,
				"element": "C" 
			},
			{
				"x": -0.3304656087,
				"y": -0.589440233,
				"z": 0.0972303015,
				"element": "N" 
			},
			{
				"x": 0.289711452,
				"y": 1.7280081946,
				"z": -0.0777024073,
				"element": "C" 
			},
			{
				"x": 1.2820784626,
				"y": 2.7144837911,
				"z": -0.1267695239,
				"element": "C" 
			},
			{
				"x": 1.0438176754,
				"y": 4.0197599765,
				"z": 0.0469454941,
				"element": "N" 
			},
			{
				"x": -0.2028757054,
				"y": 4.3844168579,
				"z": 0.2838870598,
				"element": "C" 
			},
			{
				"x": -0.4982703849,
				"y": 6.1028351957,
				"z": 0.4955089294,
				"element": "Cl" 
			},
			{
				"x": -1.2840344417,
				"y": 3.4992119528,
				"z": 0.3789345362,
				"element": "C" 
			},
			{
				"x": -1.0228273118,
				"y": 2.1507756067,
				"z": 0.1950493632,
				"element": "C" 
			},
			{
				"x": -0.773715478,
				"y": -3.5419836652,
				"z": 1.1494559797,
				"element": "H" 
			},
			{
				"x": -1.4748418338,
				"y": -3.506099792,
				"z": -0.4644934452,
				"element": "H" 
			},
			{
				"x": -1.9845727559,
				"y": -2.3047189557,
				"z": 0.7452636502,
				"element": "H" 
			},
			{
				"x": 1.417278735,
				"y": -4.3941175251,
				"z": 0.127349813,
				"element": "H" 
			},
			{
				"x": 0.7034664674,
				"y": -4.3332084383,
				"z": -1.4837536897,
				"element": "H" 
			},
			{
				"x": 2.4244604448,
				"y": -3.9554183736,
				"z": -1.2681412481,
				"element": "H" 
			},
			{
				"x": 2.4148464721,
				"y": 0.5920136008,
				"z": -1.1777653623,
				"element": "H" 
			},
			{
				"x": 2.3284481222,
				"y": 2.4618351226,
				"z": -0.2876176187,
				"element": "H" 
			},
			{
				"x": -2.2826703998,
				"y": 3.8646479953,
				"z": 0.585581964,
				"element": "H" 
			},
			{
				"x": -1.8091917243,
				"y": 1.4071164479,
				"z": 0.2572810176,
				"element": "H" 
			}
		],
		 "valence_orbital": [ 
			{
				"type": "occ",
				"energy": -0.29157,
				"method": "rhf"
			},
			{
				"type": "occ",
				"energy": -0.28675,
				"method": "rhf"
			},
			{
				"type": "occ",
				"energy": -0.27714,
				"method": "rhf"
			},
			{
				"type": "occ",
				"energy": -0.26204,
				"method": "rhf"
			},
			{
				"type": "occ",
				"energy": -0.23103,
				"method": "rhf"
			},
			{
				"type": "unocc",
				"energy": -0.07822,
				"method": "rhf"
			},
			{
				"type": "unocc",
				"energy": -0.05134,
				"method": "rhf"
			},
			{
				"type": "unocc",
				"energy": -0.022,
				"method": "rhf"
			},
			{
				"type": "unocc",
				"energy": 0.01376,
				"method": "rhf"
			},
			{
				"type": "unocc",
				"energy": 0.02444,
				"method": "rhf"
			}
		],
		"cosmo_sigma_profile": { 
			"-0.025": 0.0,
			"-0.024": 0.0,
			"-0.023": 0.0,
			"-0.022": 0.0,
			"-0.021": 0.0,
			"-0.02": 0.0,
			"-0.019": 0.0,
			"-0.018": 0.0,
			"-0.017": 0.353012869765,
			"-0.016": 1.48948624612,
			"-0.015": 0.698815834466,
			"-0.014": 1.23665445888,
			"-0.013": 1.46916527081,
			"-0.012": 1.32019879464,
			"-0.011": 1.20632316777,
			"-0.01": 1.26463636148,
			"-0.009": 2.50725289693,
			"-0.008": 4.31952734434,
			"-0.007": 5.14421334856,
			"-0.006": 5.54102219433,
			"-0.005": 11.1659595659,
			"-0.004": 16.4242814407,
			"-0.003": 19.7488684701,
			"-0.002": 26.7707807749,
			"-0.001": 32.6742956229,
			"0.0": 33.2659233815,
			"0.001": 17.3078735821,
			"0.002": 10.8577782197,
			"0.003": 11.7704827101,
			"0.004": 13.3705176956,
			"0.005": 6.60476134513,
			"0.006": 4.54017308198,
			"0.007": 5.33689323574,
			"0.008": 4.27612025562,
			"0.009": 2.6603513552,
			"0.01": 2.27661564939,
			"0.011": 3.03158269151,
			"0.012": 3.23685907807,
			"0.013": 4.71211911497,
			"0.014": 4.93430417754,
			"0.015": 0.0823499283325,
			"0.016": 0.0,
			"0.017": 0.0,
			"0.018": 0.0,
			"0.019": 0.0,
			"0.02": 0.0,
			"0.021": 0.0,
			"0.022": 0.0,
			"0.023": 0.0,
			"0.024": 0.0,
			"0.025": 0.0
		}
	}
}
