{
	 "smiles": "CC1=C(O)N=NC(O)=C1C", 
	 "Tm": 587.15, 
	 "num_atms": 18, 
	 "gaussian": { 
		 "optdone": 1, 
		 "sigma_profile": "yes", 
		 "theory": "DFT", 
		 "functional": "B3LYP", 
		 "basiset": "6-31G**", 
		 "properties": { 
			 "R2extent": 1469.7198, 
			 "electric_dipole_moment_norm": 2.21685480354, 
			 "electric_quadrupole_moment_norm": 2.58724449753, 
			 "total_energy": -493.393842526, 
			 "HOMO_LUMO_gap": 0.18688, 
			 "cosmo_polarized_energy": -11.55, 
			 "cosmo_cavitation_energy": 21.62, 
			 "cosmo_dispersion_energy": -16.4, 
			 "cosmo_repulsion_energy": 1.33, 
			 "cosmo_total_nonelectrostatic_energy": 6.55, 
			 "SMD_solvation_energy": 3.02 
		},
		"coords": [
			{
				"x": 0.9236420573,
				"y": 0.1757185674,
				"z": 2.2782080871,
				"element": "C" 
			},
			{
				"x": 0.0936132955,
				"y": 0.1647934376,
				"z": 1.0220534239,
				"element": "C" 
			},
			{
				"x": -0.134658462,
				"y": 1.3585985814,
				"z": 0.2927049005,
				"element": "C" 
			},
			{
				"x": 0.4068693602,
				"y": 2.5152491189,
				"z": 0.7516307543,
				"element": "O" 
			},
			{
				"x": -0.8445941849,
				"y": 1.4375675457,
				"z": -0.8181514995,
				"element": "N" 
			},
			{
				"x": -1.403873453,
				"y": 0.3282409275,
				"z": -1.31763053,
				"element": "N" 
			},
			{
				"x": -1.2368528272,
				"y": -0.8195054477,
				"z": -0.6859327682,
				"element": "C" 
			},
			{
				"x": -1.8260672893,
				"y": -1.9095050249,
				"z": -1.2394968852,
				"element": "O" 
			},
			{
				"x": -0.4955391103,
				"y": -0.9819460618,
				"z": 0.5112697354,
				"element": "C" 
			},
			{
				"x": -0.3667019789,
				"y": -2.3342511622,
				"z": 1.1606335631,
				"element": "C" 
			},
			{
				"x": 1.5308344286,
				"y": 1.079863898,
				"z": 2.3323622776,
				"element": "H" 
			},
			{
				"x": 0.2850693391,
				"y": 0.1513556012,
				"z": 3.1702969987,
				"element": "H" 
			},
			{
				"x": 1.5833692676,
				"y": -0.6954352038,
				"z": 2.3264645057,
				"element": "H" 
			},
			{
				"x": 0.1430973967,
				"y": 3.1967450384,
				"z": 0.1119010595,
				"element": "H" 
			},
			{
				"x": -2.2830320905,
				"y": -1.5828921906,
				"z": -2.0318189499,
				"element": "H" 
			},
			{
				"x": -0.454985779,
				"y": -2.2629333418,
				"z": 2.2485658818,
				"element": "H" 
			},
			{
				"x": 0.6103162321,
				"y": -2.7831030797,
				"z": 0.9411811996,
				"element": "H" 
			},
			{
				"x": -1.1330062019,
				"y": -3.0156612034,
				"z": 0.7897582455,
				"element": "H" 
			}
		],
		 "valence_orbital": [ 
			{
				"type": "occ",
				"energy": -0.33565,
				"method": "rhf"
			},
			{
				"type": "occ",
				"energy": -0.32106,
				"method": "rhf"
			},
			{
				"type": "occ",
				"energy": -0.27575,
				"method": "rhf"
			},
			{
				"type": "occ",
				"energy": -0.23939,
				"method": "rhf"
			},
			{
				"type": "occ",
				"energy": -0.22821,
				"method": "rhf"
			},
			{
				"type": "unocc",
				"energy": -0.04133,
				"method": "rhf"
			},
			{
				"type": "unocc",
				"energy": 0.01295,
				"method": "rhf"
			},
			{
				"type": "unocc",
				"energy": 0.08098,
				"method": "rhf"
			},
			{
				"type": "unocc",
				"energy": 0.0886,
				"method": "rhf"
			},
			{
				"type": "unocc",
				"energy": 0.10178,
				"method": "rhf"
			}
		],
		"cosmo_sigma_profile": { 
			"-0.025": 0.0,
			"-0.024": 0.0,
			"-0.023": 0.0,
			"-0.022": 0.0,
			"-0.021": 0.0,
			"-0.02": 0.0,
			"-0.019": 0.0,
			"-0.018": 0.0265925350664,
			"-0.017": 0.897599974866,
			"-0.016": 1.64233849633,
			"-0.015": 1.29760018867,
			"-0.014": 1.08963403559,
			"-0.013": 1.83913966411,
			"-0.012": 1.57792954868,
			"-0.011": 1.17524458059,
			"-0.01": 1.1485747923,
			"-0.009": 1.45520525957,
			"-0.008": 0.847172941322,
			"-0.007": 0.650744890028,
			"-0.006": 2.08732842068,
			"-0.005": 11.807248058,
			"-0.004": 13.3058818622,
			"-0.003": 13.1485445725,
			"-0.002": 14.1625306819,
			"-0.001": 24.270112903,
			"0.0": 17.0847161206,
			"0.001": 9.71118703769,
			"0.002": 5.09262140147,
			"0.003": 4.98885913873,
			"0.004": 4.71200996242,
			"0.005": 5.13857057141,
			"0.006": 4.55229303682,
			"0.007": 4.0216627963,
			"0.008": 5.28958758652,
			"0.009": 5.2308544242,
			"0.01": 2.49244830619,
			"0.011": 1.74593757712,
			"0.012": 1.83806395854,
			"0.013": 2.72703735792,
			"0.014": 2.89218976802,
			"0.015": 1.12963259775,
			"0.016": 0.0,
			"0.017": 0.0,
			"0.018": 0.0,
			"0.019": 0.0,
			"0.02": 0.0,
			"0.021": 0.0,
			"0.022": 0.0,
			"0.023": 0.0,
			"0.024": 0.0,
			"0.025": 0.0
		}
	}
}
