{
	 "smiles": "ClC1=NC(=CN=C1)N1C=NC=N1", 
	 "Tm": 383.15, 
	 "num_atms": 16, 
	 "gaussian": { 
		 "optdone": 1, 
		 "sigma_profile": "yes", 
		 "theory": "DFT", 
		 "functional": "B3LYP", 
		 "basiset": "6-31G**", 
		 "properties": { 
			 "R2extent": 3505.8009, 
			 "electric_dipole_moment_norm": 1.13091157921, 
			 "electric_quadrupole_moment_norm": 7.15291823803, 
			 "total_energy": -964.965122922, 
			 "HOMO_LUMO_gap": 0.18533, 
			 "cosmo_polarized_energy": -8.72, 
			 "cosmo_cavitation_energy": 23.54, 
			 "cosmo_dispersion_energy": -17.74, 
			 "cosmo_repulsion_energy": 1.39, 
			 "cosmo_total_nonelectrostatic_energy": 7.18, 
			 "SMD_solvation_energy": -0.33 
		},
		"coords": [
			{
				"x": -2.6895512201,
				"y": -1.4001457338,
				"z": 2.3699194848,
				"element": "Cl" 
			},
			{
				"x": -1.540407598,
				"y": -0.594163639,
				"z": 1.3251616968,
				"element": "C" 
			},
			{
				"x": -1.0522956296,
				"y": 0.5637078156,
				"z": 1.7325094948,
				"element": "N" 
			},
			{
				"x": -0.1794003251,
				"y": 1.154509638,
				"z": 0.9164566686,
				"element": "C" 
			},
			{
				"x": 0.207218607,
				"y": 0.5895707103,
				"z": -0.3076744679,
				"element": "C" 
			},
			{
				"x": -0.3002621446,
				"y": -0.5809686196,
				"z": -0.6964646098,
				"element": "N" 
			},
			{
				"x": -1.1756636972,
				"y": -1.1852910792,
				"z": 0.1095409242,
				"element": "C" 
			},
			{
				"x": 0.3389255896,
				"y": 2.3867695503,
				"z": 1.3518603755,
				"element": "N" 
			},
			{
				"x": 0.0735402518,
				"y": 3.0723093651,
				"z": 2.5035155141,
				"element": "C" 
			},
			{
				"x": 0.7667322715,
				"y": 4.1898115127,
				"z": 2.5311461727,
				"element": "N" 
			},
			{
				"x": 1.4595088932,
				"y": 4.148786018,
				"z": 1.3509911166,
				"element": "C" 
			},
			{
				"x": 1.2406430771,
				"y": 3.0851947014,
				"z": 0.6004452356,
				"element": "N" 
			},
			{
				"x": 0.9192485805,
				"y": 1.0912927743,
				"z": -0.9526044698,
				"element": "H" 
			},
			{
				"x": -1.5914409637,
				"y": -2.1380814054,
				"z": -0.2025154937,
				"element": "H" 
			},
			{
				"x": -0.6142067068,
				"y": 2.7057404239,
				"z": 3.2502451333,
				"element": "H" 
			},
			{
				"x": 2.1429110143,
				"y": 4.9272579676,
				"z": 1.0411672242,
				"element": "H" 
			}
		],
		 "valence_orbital": [ 
			{
				"type": "occ",
				"energy": -0.31916,
				"method": "rhf"
			},
			{
				"type": "occ",
				"energy": -0.2956,
				"method": "rhf"
			},
			{
				"type": "occ",
				"energy": -0.2932,
				"method": "rhf"
			},
			{
				"type": "occ",
				"energy": -0.28469,
				"method": "rhf"
			},
			{
				"type": "occ",
				"energy": -0.26719,
				"method": "rhf"
			},
			{
				"type": "unocc",
				"energy": -0.08186,
				"method": "rhf"
			},
			{
				"type": "unocc",
				"energy": -0.06094,
				"method": "rhf"
			},
			{
				"type": "unocc",
				"energy": 0.00504,
				"method": "rhf"
			},
			{
				"type": "unocc",
				"energy": 0.01546,
				"method": "rhf"
			},
			{
				"type": "unocc",
				"energy": 0.03751,
				"method": "rhf"
			}
		],
		"cosmo_sigma_profile": { 
			"-0.025": 0.0,
			"-0.024": 0.0,
			"-0.023": 0.0,
			"-0.022": 0.0,
			"-0.021": 0.0,
			"-0.02": 0.0,
			"-0.019": 0.0,
			"-0.018": 0.0,
			"-0.017": 0.0,
			"-0.016": 0.0,
			"-0.015": 0.0,
			"-0.014": 0.0,
			"-0.013": 0.0,
			"-0.012": 0.0,
			"-0.011": 0.622057579419,
			"-0.01": 1.78303695447,
			"-0.009": 4.91346585251,
			"-0.008": 5.28978387809,
			"-0.007": 6.20621815639,
			"-0.006": 5.24532798333,
			"-0.005": 9.6745656946,
			"-0.004": 16.5013871242,
			"-0.003": 18.0471019142,
			"-0.002": 16.7687623803,
			"-0.001": 13.9630147084,
			"0.0": 13.2648354154,
			"0.001": 12.2675018408,
			"0.002": 11.6881187901,
			"0.003": 15.6795083839,
			"0.004": 8.16773280571,
			"0.005": 6.42366702297,
			"0.006": 5.55565074461,
			"0.007": 3.63681609126,
			"0.008": 3.66203188457,
			"0.009": 3.51089446938,
			"0.01": 2.75622734505,
			"0.011": 1.99735741247,
			"0.012": 2.39575266056,
			"0.013": 1.51083385443,
			"0.014": 1.1725674437,
			"0.015": 1.00854395535,
			"0.016": 0.293757234704,
			"0.017": 0.0,
			"0.018": 0.0,
			"0.019": 0.0,
			"0.02": 0.0,
			"0.021": 0.0,
			"0.022": 0.0,
			"0.023": 0.0,
			"0.024": 0.0,
			"0.025": 0.0
		}
	}
}
