{
	 "smiles": "CC1=CC(C(=O)C2=CC=CC=C2)=C(O)C=C1", 
	 "Tm": 357.15, 
	 "num_atms": 28, 
	 "gaussian": { 
		 "optdone": 1, 
		 "sigma_profile": "yes", 
		 "theory": "DFT", 
		 "functional": "B3LYP", 
		 "basiset": "6-31G**", 
		 "properties": { 
			 "R2extent": 4590.4434, 
			 "electric_dipole_moment_norm": 3.97875428118, 
			 "electric_quadrupole_moment_norm": 12.069728794, 
			 "total_energy": -691.170905502, 
			 "HOMO_LUMO_gap": 0.16739, 
			 "cosmo_polarized_energy": -14.11, 
			 "cosmo_cavitation_energy": 32.11, 
			 "cosmo_dispersion_energy": -23.04, 
			 "cosmo_repulsion_energy": 1.8, 
			 "cosmo_total_nonelectrostatic_energy": 10.87, 
			 "SMD_solvation_energy": 6.28 
		},
		"coords": [
			{
				"x": -1.3401720124,
				"y": -3.032914706,
				"z": 1.1134084193,
				"element": "C" 
			},
			{
				"x": -1.3694160074,
				"y": -1.5835251762,
				"z": 0.687377459,
				"element": "C" 
			},
			{
				"x": -0.3462125345,
				"y": -1.0338255,
				"z": -0.0867404519,
				"element": "C" 
			},
			{
				"x": -0.3183876241,
				"y": 0.3189972042,
				"z": -0.4569765632,
				"element": "C" 
			},
			{
				"x": 0.8269525845,
				"y": 0.7684778827,
				"z": -1.3243063328,
				"element": "C" 
			},
			{
				"x": 1.2097585888,
				"y": 0.033564833,
				"z": -2.2281271177,
				"element": "O" 
			},
			{
				"x": 1.547011049,
				"y": 2.0516325478,
				"z": -1.0463933753,
				"element": "C" 
			},
			{
				"x": 1.4993319526,
				"y": 2.6904218675,
				"z": 0.2007323542,
				"element": "C" 
			},
			{
				"x": 2.2542472126,
				"y": 3.8396163602,
				"z": 0.4312100597,
				"element": "C" 
			},
			{
				"x": 3.0520840326,
				"y": 4.3683055058,
				"z": -0.5858076746,
				"element": "C" 
			},
			{
				"x": 3.1058419235,
				"y": 3.7362995084,
				"z": -1.8318585797,
				"element": "C" 
			},
			{
				"x": 2.3668937903,
				"y": 2.5784073068,
				"z": -2.056356971,
				"element": "C" 
			},
			{
				"x": -1.3977272609,
				"y": 1.1393379513,
				"z": -0.0792456942,
				"element": "C" 
			},
			{
				"x": -1.4170488616,
				"y": 2.4357791735,
				"z": -0.509134618,
				"element": "O" 
			},
			{
				"x": -2.440367643,
				"y": 0.6024795861,
				"z": 0.6843967613,
				"element": "C" 
			},
			{
				"x": -2.4191411969,
				"y": -0.7356302163,
				"z": 1.0669950546,
				"element": "C" 
			},
			{
				"x": -0.7263003645,
				"y": -3.633469193,
				"z": 0.4361233693,
				"element": "H" 
			},
			{
				"x": -2.3454770207,
				"y": -3.4659952262,
				"z": 1.1295720707,
				"element": "H" 
			},
			{
				"x": -0.9217265895,
				"y": -3.1473424387,
				"z": 2.1214048466,
				"element": "H" 
			},
			{
				"x": 0.4728341277,
				"y": -1.6599571302,
				"z": -0.4284786035,
				"element": "H" 
			},
			{
				"x": 0.8847007613,
				"y": 2.2785066788,
				"z": 0.9940159566,
				"element": "H" 
			},
			{
				"x": 2.2210773837,
				"y": 4.3225670737,
				"z": 1.4036414264,
				"element": "H" 
			},
			{
				"x": 3.6340429748,
				"y": 5.2682654643,
				"z": -0.4070800133,
				"element": "H" 
			},
			{
				"x": 3.7286352286,
				"y": 4.1446033514,
				"z": -2.6226539086,
				"element": "H" 
			},
			{
				"x": 2.4089358956,
				"y": 2.0592193696,
				"z": -3.0079837003,
				"element": "H" 
			},
			{
				"x": -2.2263893822,
				"y": 2.8603464243,
				"z": -0.1964234977,
				"element": "H" 
			},
			{
				"x": -3.2795321158,
				"y": 1.2361790849,
				"z": 0.9654192928,
				"element": "H" 
			},
			{
				"x": -3.2407488922,
				"y": -1.1282475879,
				"z": 1.6611700313,
				"element": "H" 
			}
		],
		 "valence_orbital": [ 
			{
				"type": "occ",
				"energy": -0.26012,
				"method": "rhf"
			},
			{
				"type": "occ",
				"energy": -0.25113,
				"method": "rhf"
			},
			{
				"type": "occ",
				"energy": -0.24988,
				"method": "rhf"
			},
			{
				"type": "occ",
				"energy": -0.23804,
				"method": "rhf"
			},
			{
				"type": "occ",
				"energy": -0.22242,
				"method": "rhf"
			},
			{
				"type": "unocc",
				"energy": -0.05503,
				"method": "rhf"
			},
			{
				"type": "unocc",
				"energy": -0.00932,
				"method": "rhf"
			},
			{
				"type": "unocc",
				"energy": 0.00031,
				"method": "rhf"
			},
			{
				"type": "unocc",
				"energy": 0.00784,
				"method": "rhf"
			},
			{
				"type": "unocc",
				"energy": 0.05657,
				"method": "rhf"
			}
		],
		"cosmo_sigma_profile": { 
			"-0.025": 0.0,
			"-0.024": 0.0,
			"-0.023": 0.0,
			"-0.022": 0.0,
			"-0.021": 0.0,
			"-0.02": 0.0,
			"-0.019": 0.0,
			"-0.018": 0.630762177716,
			"-0.017": 1.20863909837,
			"-0.016": 1.25412022515,
			"-0.015": 0.991876393934,
			"-0.014": 0.943660635301,
			"-0.013": 0.97951482157,
			"-0.012": 0.67404440957,
			"-0.011": 0.832036148028,
			"-0.01": 1.00565160157,
			"-0.009": 1.85280226411,
			"-0.008": 0.981795227204,
			"-0.007": 2.37239664907,
			"-0.006": 10.4309405083,
			"-0.005": 16.1370698488,
			"-0.004": 22.6414608281,
			"-0.003": 19.5419812201,
			"-0.002": 18.5296042073,
			"-0.001": 19.0568242225,
			"0.0": 22.3963843093,
			"0.001": 17.0786257002,
			"0.002": 15.6217299432,
			"0.003": 18.1415985824,
			"0.004": 21.5943409183,
			"0.005": 13.9205272398,
			"0.006": 4.4278506384,
			"0.007": 3.89359736577,
			"0.008": 3.15256557296,
			"0.009": 3.66885065863,
			"0.01": 3.9474944326,
			"0.011": 2.54981123818,
			"0.012": 4.18161090712,
			"0.013": 1.61255158399,
			"0.014": 0.0192602815723,
			"0.015": 0.0,
			"0.016": 0.0,
			"0.017": 0.0,
			"0.018": 0.0,
			"0.019": 0.0,
			"0.02": 0.0,
			"0.021": 0.0,
			"0.022": 0.0,
			"0.023": 0.0,
			"0.024": 0.0,
			"0.025": 0.0
		}
	}
}
