{
	 "smiles": "NC(=S)N1CCN(CC1)C1=NC=CS1", 
	 "Tm": 453.15, 
	 "num_atms": 26, 
	 "gaussian": { 
		 "optdone": 1, 
		 "sigma_profile": "yes", 
		 "theory": "DFT", 
		 "functional": "B3LYP", 
		 "basiset": "6-31G**", 
		 "properties": { 
			 "R2extent": 4393.6827, 
			 "electric_dipole_moment_norm": 5.11143101391, 
			 "electric_quadrupole_moment_norm": 18.4728768988, 
			 "total_energy": -1327.45904866, 
			 "HOMO_LUMO_gap": 0.18952, 
			 "cosmo_polarized_energy": -20.23, 
			 "cosmo_cavitation_energy": 31.09, 
			 "cosmo_dispersion_energy": -23.85, 
			 "cosmo_repulsion_energy": 1.77, 
			 "cosmo_total_nonelectrostatic_energy": 9.01, 
			 "SMD_solvation_energy": 1.59 
		},
		"coords": [
			{
				"x": -2.6353869422,
				"y": -1.8389056324,
				"z": 2.0928125533,
				"element": "N" 
			},
			{
				"x": -1.2930801371,
				"y": -2.0153970557,
				"z": 1.8260666435,
				"element": "C" 
			},
			{
				"x": -0.5188244558,
				"y": -3.4198506193,
				"z": 2.3485915664,
				"element": "S" 
			},
			{
				"x": -0.6979572884,
				"y": -1.02412497,
				"z": 1.1015326673,
				"element": "N" 
			},
			{
				"x": -1.4307532857,
				"y": 0.0494024068,
				"z": 0.4223252475,
				"element": "C" 
			},
			{
				"x": -1.0479984437,
				"y": 0.088213896,
				"z": -1.0715339956,
				"element": "C" 
			},
			{
				"x": 0.3936114028,
				"y": 0.1645385756,
				"z": -1.2583527093,
				"element": "N" 
			},
			{
				"x": 1.1034365011,
				"y": -0.9334596043,
				"z": -0.5890973425,
				"element": "C" 
			},
			{
				"x": 0.7567561453,
				"y": -0.9723540332,
				"z": 0.9016862604,
				"element": "C" 
			},
			{
				"x": 1.0395062693,
				"y": 1.3728568068,
				"z": -1.385058692,
				"element": "C" 
			},
			{
				"x": 2.3149897124,
				"y": 1.5465038538,
				"z": -1.1607393119,
				"element": "N" 
			},
			{
				"x": 2.6941965133,
				"y": 2.8380845652,
				"z": -1.4560130232,
				"element": "C" 
			},
			{
				"x": 1.72365362,
				"y": 3.6808459785,
				"z": -1.8950919825,
				"element": "C" 
			},
			{
				"x": 0.1963440311,
				"y": 2.8280838986,
				"z": -1.971122798,
				"element": "S" 
			},
			{
				"x": -3.0019843693,
				"y": -2.5545198729,
				"z": 2.7041897583,
				"element": "H" 
			},
			{
				"x": -2.9657634829,
				"y": -0.9054130684,
				"z": 2.3019622136,
				"element": "H" 
			},
			{
				"x": -2.5038554361,
				"y": -0.1247109842,
				"z": 0.4968086459,
				"element": "H" 
			},
			{
				"x": -1.1958184882,
				"y": 1.017271095,
				"z": 0.8877982729,
				"element": "H" 
			},
			{
				"x": -1.5411924902,
				"y": 0.9322275629,
				"z": -1.5598432923,
				"element": "H" 
			},
			{
				"x": -1.4075369697,
				"y": -0.8286277047,
				"z": -1.5534750344,
				"element": "H" 
			},
			{
				"x": 2.1741484525,
				"y": -0.7875318152,
				"z": -0.7278337402,
				"element": "H" 
			},
			{
				"x": 0.8012885473,
				"y": -1.8729995638,
				"z": -1.0658935554,
				"element": "H" 
			},
			{
				"x": 1.1436689336,
				"y": -0.0659950649,
				"z": 1.3867686018,
				"element": "H" 
			},
			{
				"x": 1.191652315,
				"y": -1.8485077349,
				"z": 1.3821763338,
				"element": "H" 
			},
			{
				"x": 3.7320346578,
				"y": 3.1194536068,
				"z": -1.3173002769,
				"element": "H" 
			},
			{
				"x": 1.7902646876,
				"y": 4.7243154778,
				"z": -2.1647630107,
				"element": "H" 
			}
		],
		 "valence_orbital": [ 
			{
				"type": "occ",
				"energy": -0.27525,
				"method": "rhf"
			},
			{
				"type": "occ",
				"energy": -0.26619,
				"method": "rhf"
			},
			{
				"type": "occ",
				"energy": -0.2171,
				"method": "rhf"
			},
			{
				"type": "occ",
				"energy": -0.20604,
				"method": "rhf"
			},
			{
				"type": "occ",
				"energy": -0.20026,
				"method": "rhf"
			},
			{
				"type": "unocc",
				"energy": -0.01074,
				"method": "rhf"
			},
			{
				"type": "unocc",
				"energy": -0.00585,
				"method": "rhf"
			},
			{
				"type": "unocc",
				"energy": 0.01264,
				"method": "rhf"
			},
			{
				"type": "unocc",
				"energy": 0.06037,
				"method": "rhf"
			},
			{
				"type": "unocc",
				"energy": 0.06445,
				"method": "rhf"
			}
		],
		"cosmo_sigma_profile": { 
			"-0.025": 0.0,
			"-0.024": 0.0,
			"-0.023": 0.0,
			"-0.022": 0.0,
			"-0.021": 0.0,
			"-0.02": 0.0,
			"-0.019": 0.0,
			"-0.018": 0.0,
			"-0.017": 0.0,
			"-0.016": 0.0,
			"-0.015": 0.473734951414,
			"-0.014": 1.62159482503,
			"-0.013": 2.25363491768,
			"-0.012": 2.81960197078,
			"-0.011": 2.87466958827,
			"-0.01": 2.4646327269,
			"-0.009": 2.268300802,
			"-0.008": 4.37682650426,
			"-0.007": 8.35290264343,
			"-0.006": 17.3437865559,
			"-0.005": 23.1786516013,
			"-0.004": 19.8860202604,
			"-0.003": 16.9903667945,
			"-0.002": 11.8134152088,
			"-0.001": 11.8259665598,
			"0.0": 9.40705065585,
			"0.001": 10.199161558,
			"0.002": 12.5649772485,
			"0.003": 12.5365333508,
			"0.004": 15.4188820734,
			"0.005": 14.1397427384,
			"0.006": 7.86342708636,
			"0.007": 5.42739258281,
			"0.008": 6.51956767403,
			"0.009": 6.92120442829,
			"0.01": 5.51746436426,
			"0.011": 8.48472121682,
			"0.012": 5.98095051786,
			"0.013": 1.45503363732,
			"0.014": 0.102301212843,
			"0.015": 0.0,
			"0.016": 0.0,
			"0.017": 0.0,
			"0.018": 0.0,
			"0.019": 0.0,
			"0.02": 0.0,
			"0.021": 0.0,
			"0.022": 0.0,
			"0.023": 0.0,
			"0.024": 0.0,
			"0.025": 0.0
		}
	}
}
