{
	 "smiles": "OCC1=C(F)C=CC(F)=C1Cl", 
	 "Tm": 320.15, 
	 "num_atms": 16, 
	 "gaussian": { 
		 "optdone": 1, 
		 "sigma_profile": "yes", 
		 "theory": "DFT", 
		 "functional": "B3LYP", 
		 "basiset": "6-31G**", 
		 "properties": { 
			 "R2extent": 2034.0698, 
			 "electric_dipole_moment_norm": 2.75431488759, 
			 "electric_quadrupole_moment_norm": 6.05668262087, 
			 "total_energy": -1004.82494147, 
			 "HOMO_LUMO_gap": 0.21645, 
			 "cosmo_polarized_energy": -7.11, 
			 "cosmo_cavitation_energy": 22.52, 
			 "cosmo_dispersion_energy": -16.79, 
			 "cosmo_repulsion_energy": 1.31, 
			 "cosmo_total_nonelectrostatic_energy": 7.03, 
			 "SMD_solvation_energy": 4.46 
		},
		"coords": [
			{
				"x": -1.8004429987,
				"y": -2.6858628335,
				"z": -1.3153254205,
				"element": "O" 
			},
			{
				"x": -0.4661213078,
				"y": -2.2119866093,
				"z": -1.2541207282,
				"element": "C" 
			},
			{
				"x": -0.3754642816,
				"y": -0.7378632898,
				"z": -0.8912531989,
				"element": "C" 
			},
			{
				"x": -1.0352335703,
				"y": 0.1980780171,
				"z": -1.6926654282,
				"element": "C" 
			},
			{
				"x": -1.7177082712,
				"y": -0.2743010657,
				"z": -2.7725559163,
				"element": "F" 
			},
			{
				"x": -1.0347932611,
				"y": 1.5629126595,
				"z": -1.4587316387,
				"element": "C" 
			},
			{
				"x": -0.3293565662,
				"y": 2.0449905645,
				"z": -0.356457846,
				"element": "C" 
			},
			{
				"x": 0.343803949,
				"y": 1.1498431226,
				"z": 0.4629047595,
				"element": "C" 
			},
			{
				"x": 1.0237219922,
				"y": 1.6170248136,
				"z": 1.5212343353,
				"element": "F" 
			},
			{
				"x": 0.327676444,
				"y": -0.2267257439,
				"z": 0.2081868931,
				"element": "C" 
			},
			{
				"x": 1.2149523974,
				"y": -1.2686128629,
				"z": 1.2953514264,
				"element": "Cl" 
			},
			{
				"x": -2.233747647,
				"y": -2.2259705328,
				"z": -2.0461379006,
				"element": "H" 
			},
			{
				"x": 0.0400023244,
				"y": -2.8098671704,
				"z": -0.4964465299,
				"element": "H" 
			},
			{
				"x": 0.0622090878,
				"y": -2.3703324335,
				"z": -2.2070917768,
				"element": "H" 
			},
			{
				"x": -1.5728539856,
				"y": 2.2257675631,
				"z": -2.1263364314,
				"element": "H" 
			},
			{
				"x": -0.2919443053,
				"y": 3.1028058013,
				"z": -0.122554599,
				"element": "H" 
			}
		],
		 "valence_orbital": [ 
			{
				"type": "occ",
				"energy": -0.34339,
				"method": "rhf"
			},
			{
				"type": "occ",
				"energy": -0.32304,
				"method": "rhf"
			},
			{
				"type": "occ",
				"energy": -0.2793,
				"method": "rhf"
			},
			{
				"type": "occ",
				"energy": -0.26823,
				"method": "rhf"
			},
			{
				"type": "occ",
				"energy": -0.25328,
				"method": "rhf"
			},
			{
				"type": "unocc",
				"energy": -0.03683,
				"method": "rhf"
			},
			{
				"type": "unocc",
				"energy": -0.01605,
				"method": "rhf"
			},
			{
				"type": "unocc",
				"energy": 0.01169,
				"method": "rhf"
			},
			{
				"type": "unocc",
				"energy": 0.08229,
				"method": "rhf"
			},
			{
				"type": "unocc",
				"energy": 0.09883,
				"method": "rhf"
			}
		],
		"cosmo_sigma_profile": { 
			"-0.025": 0.0,
			"-0.024": 0.0,
			"-0.023": 0.0,
			"-0.022": 0.0,
			"-0.021": 0.0,
			"-0.02": 0.0,
			"-0.019": 0.0,
			"-0.018": 0.0,
			"-0.017": 0.0,
			"-0.016": 0.0,
			"-0.015": 0.0,
			"-0.014": 0.0,
			"-0.013": 0.22483871164,
			"-0.012": 0.801843134097,
			"-0.011": 0.630722381975,
			"-0.01": 0.69618338033,
			"-0.009": 1.78598929861,
			"-0.008": 5.01803934779,
			"-0.007": 5.21946326931,
			"-0.006": 7.31545169987,
			"-0.005": 7.47401433773,
			"-0.004": 9.57661805349,
			"-0.003": 10.148950758,
			"-0.002": 10.8165049356,
			"-0.001": 19.5305581487,
			"0.0": 22.799405485,
			"0.001": 17.7118999923,
			"0.002": 13.6624983765,
			"0.003": 17.4710591049,
			"0.004": 15.7806600892,
			"0.005": 3.75318454575,
			"0.006": 1.30305161243,
			"0.007": 1.40335362232,
			"0.008": 1.06371032712,
			"0.009": 0.936802857482,
			"0.01": 1.20704331568,
			"0.011": 1.43387704808,
			"0.012": 1.52620513422,
			"0.013": 2.14851911759,
			"0.014": 1.43656794033,
			"0.015": 0.0,
			"0.016": 0.0,
			"0.017": 0.0,
			"0.018": 0.0,
			"0.019": 0.0,
			"0.02": 0.0,
			"0.021": 0.0,
			"0.022": 0.0,
			"0.023": 0.0,
			"0.024": 0.0,
			"0.025": 0.0
		}
	}
}
