{
	 "smiles": "O=CC1=CNN=C1C1=CN=CC=C1", 
	 "Tm": 482.15, 
	 "num_atms": 20, 
	 "gaussian": { 
		 "optdone": 1, 
		 "sigma_profile": "yes", 
		 "theory": "DFT", 
		 "functional": "B3LYP", 
		 "basiset": "6-31G**", 
		 "properties": { 
			 "R2extent": 2541.6988, 
			 "electric_dipole_moment_norm": 6.62936687475, 
			 "electric_quadrupole_moment_norm": 17.9478890099, 
			 "total_energy": -586.61826576, 
			 "HOMO_LUMO_gap": 0.18037, 
			 "cosmo_polarized_energy": -18.44, 
			 "cosmo_cavitation_energy": 24.83, 
			 "cosmo_dispersion_energy": -18.65, 
			 "cosmo_repulsion_energy": 1.44, 
			 "cosmo_total_nonelectrostatic_energy": 7.63, 
			 "SMD_solvation_energy": 3.38 
		},
		"coords": [
			{
				"x": -1.7267457737,
				"y": 0.9338703389,
				"z": -1.6534252324,
				"element": "O" 
			},
			{
				"x": -1.3370367056,
				"y": 1.8191325297,
				"z": -0.9120252387,
				"element": "C" 
			},
			{
				"x": -0.5547673378,
				"y": 1.6984131122,
				"z": 0.3176810125,
				"element": "C" 
			},
			{
				"x": -0.2106101201,
				"y": 2.8470393868,
				"z": 1.0265389608,
				"element": "C" 
			},
			{
				"x": 0.4945401505,
				"y": 2.4476541708,
				"z": 2.0958594999,
				"element": "N" 
			},
			{
				"x": 0.6509442457,
				"y": 1.1075017702,
				"z": 2.1587037522,
				"element": "N" 
			},
			{
				"x": 0.0220991071,
				"y": 0.6160876856,
				"z": 1.0870135566,
				"element": "C" 
			},
			{
				"x": 0.0330987533,
				"y": -0.8489225323,
				"z": 0.8994508322,
				"element": "C" 
			},
			{
				"x": -0.5922772416,
				"y": -1.4976080906,
				"z": -0.1789581867,
				"element": "C" 
			},
			{
				"x": -0.5849685096,
				"y": -2.826982285,
				"z": -0.3525273906,
				"element": "N" 
			},
			{
				"x": 0.0545654819,
				"y": -3.571677332,
				"z": 0.5539438098,
				"element": "C" 
			},
			{
				"x": 0.7102701778,
				"y": -3.0341323308,
				"z": 1.6644037057,
				"element": "C" 
			},
			{
				"x": 0.699017378,
				"y": -1.6571013669,
				"z": 1.8384243311,
				"element": "C" 
			},
			{
				"x": -1.57856684,
				"y": 2.8788761859,
				"z": -1.1519482659,
				"element": "H" 
			},
			{
				"x": -0.4275874308,
				"y": 3.8866111756,
				"z": 0.8253996301,
				"element": "H" 
			},
			{
				"x": 0.9001674123,
				"y": 3.0182447226,
				"z": 2.8222470496,
				"element": "H" 
			},
			{
				"x": -1.1180840866,
				"y": -0.9165266451,
				"z": -0.9293472027,
				"element": "H" 
			},
			{
				"x": 0.0437979965,
				"y": -4.6479288759,
				"z": 0.3872375624,
				"element": "H" 
			},
			{
				"x": 1.2163503608,
				"y": -3.6826500566,
				"z": 2.3730223968,
				"element": "H" 
			},
			{
				"x": 1.1943929819,
				"y": -1.1950015632,
				"z": 2.685005417,
				"element": "H" 
			}
		],
		 "valence_orbital": [ 
			{
				"type": "occ",
				"energy": -0.27612,
				"method": "rhf"
			},
			{
				"type": "occ",
				"energy": -0.27092,
				"method": "rhf"
			},
			{
				"type": "occ",
				"energy": -0.26002,
				"method": "rhf"
			},
			{
				"type": "occ",
				"energy": -0.24036,
				"method": "rhf"
			},
			{
				"type": "occ",
				"energy": -0.23692,
				"method": "rhf"
			},
			{
				"type": "unocc",
				"energy": -0.05655,
				"method": "rhf"
			},
			{
				"type": "unocc",
				"energy": -0.03193,
				"method": "rhf"
			},
			{
				"type": "unocc",
				"energy": -0.0084,
				"method": "rhf"
			},
			{
				"type": "unocc",
				"energy": 0.02422,
				"method": "rhf"
			},
			{
				"type": "unocc",
				"energy": 0.05697,
				"method": "rhf"
			}
		],
		"cosmo_sigma_profile": { 
			"-0.025": 0.0,
			"-0.024": 0.0,
			"-0.023": 0.0,
			"-0.022": 0.0,
			"-0.021": 0.0,
			"-0.02": 0.0,
			"-0.019": 0.0,
			"-0.018": 1.5542717466,
			"-0.017": 1.78307148359,
			"-0.016": 1.26116743867,
			"-0.015": 1.14232126564,
			"-0.014": 1.09305453724,
			"-0.013": 0.716850909608,
			"-0.012": 1.56141517011,
			"-0.011": 2.86950957453,
			"-0.01": 3.42413035258,
			"-0.009": 3.68315684701,
			"-0.008": 2.70127328695,
			"-0.007": 5.09281863431,
			"-0.006": 10.1513555334,
			"-0.005": 10.0473217928,
			"-0.004": 8.37522893286,
			"-0.003": 8.34375555126,
			"-0.002": 8.81314965008,
			"-0.001": 9.36680108568,
			"0.0": 15.4539385496,
			"0.001": 20.5221905658,
			"0.002": 23.4995053476,
			"0.003": 13.1597701962,
			"0.004": 6.22591049668,
			"0.005": 6.20574766088,
			"0.006": 4.12814642692,
			"0.007": 4.50242782399,
			"0.008": 5.26694896427,
			"0.009": 3.51977136117,
			"0.01": 3.86817181226,
			"0.011": 4.65472028885,
			"0.012": 2.88773401852,
			"0.013": 1.95247720777,
			"0.014": 0.791340459785,
			"0.015": 0.682208087206,
			"0.016": 1.12712953373,
			"0.017": 0.469649399977,
			"0.018": 0.0298643708955,
			"0.019": 0.0,
			"0.02": 0.0,
			"0.021": 0.0,
			"0.022": 0.0,
			"0.023": 0.0,
			"0.024": 0.0,
			"0.025": 0.0
		}
	}
}
