{
	 "smiles": "CN(C)C1CCCCC1", 
	 "Tm": 213.15, 
	 "num_atms": 26, 
	 "gaussian": { 
		 "optdone": 1, 
		 "sigma_profile": "yes", 
		 "theory": "DFT", 
		 "functional": "B3LYP", 
		 "basiset": "6-31G**", 
		 "properties": { 
			 "R2extent": 1815.4978, 
			 "electric_dipole_moment_norm": 0.587871975859, 
			 "electric_quadrupole_moment_norm": 3.10436655052, 
			 "total_energy": -369.843544807, 
			 "HOMO_LUMO_gap": 0.2722, 
			 "cosmo_polarized_energy": -2.48, 
			 "cosmo_cavitation_energy": 25.01, 
			 "cosmo_dispersion_energy": -18.56, 
			 "cosmo_repulsion_energy": 1.52, 
			 "cosmo_total_nonelectrostatic_energy": 7.96, 
			 "SMD_solvation_energy": 1.61 
		},
		"coords": [
			{
				"x": -2.0298560974,
				"y": -1.7481979652,
				"z": -2.1175359615,
				"element": "C" 
			},
			{
				"x": -1.6389605568,
				"y": -2.097857213,
				"z": -0.7599215184,
				"element": "N" 
			},
			{
				"x": -1.079773779,
				"y": -3.4422968591,
				"z": -0.7084599102,
				"element": "C" 
			},
			{
				"x": -0.8353890022,
				"y": -1.0565701976,
				"z": -0.0952669669,
				"element": "C" 
			},
			{
				"x": -0.9817412528,
				"y": -1.1448815334,
				"z": 1.445657151,
				"element": "C" 
			},
			{
				"x": 0.1798214527,
				"y": -0.4549498756,
				"z": 2.1972522438,
				"element": "C" 
			},
			{
				"x": 0.7096672145,
				"y": 0.7520648354,
				"z": 1.4114301117,
				"element": "C" 
			},
			{
				"x": 1.3049122567,
				"y": 0.3127415321,
				"z": 0.0497796029,
				"element": "C" 
			},
			{
				"x": 0.6570120749,
				"y": -0.9863505426,
				"z": -0.4864399658,
				"element": "C" 
			},
			{
				"x": -1.1894968674,
				"y": -1.705945307,
				"z": -2.8373857601,
				"element": "H" 
			},
			{
				"x": -2.5275095275,
				"y": -0.7729221578,
				"z": -2.1233217457,
				"element": "H" 
			},
			{
				"x": -2.7429251278,
				"y": -2.4903197696,
				"z": -2.4939558118,
				"element": "H" 
			},
			{
				"x": -0.8027280968,
				"y": -3.706484594,
				"z": 0.3157389934,
				"element": "H" 
			},
			{
				"x": -0.1878652634,
				"y": -3.583813577,
				"z": -1.3468993134,
				"element": "H" 
			},
			{
				"x": -1.8380792433,
				"y": -4.1608105891,
				"z": -1.039349956,
				"element": "H" 
			},
			{
				"x": -1.2878506222,
				"y": -0.1071030233,
				"z": -0.4115174185,
				"element": "H" 
			},
			{
				"x": -1.9400851869,
				"y": -0.6939538473,
				"z": 1.7268101161,
				"element": "H" 
			},
			{
				"x": -1.0421049783,
				"y": -2.1946113062,
				"z": 1.7524851745,
				"element": "H" 
			},
			{
				"x": -0.1488172474,
				"y": -0.1523236774,
				"z": 3.1979800023,
				"element": "H" 
			},
			{
				"x": 1.0018974047,
				"y": -1.1665833383,
				"z": 2.350729376,
				"element": "H" 
			},
			{
				"x": -0.1161808647,
				"y": 1.4571991308,
				"z": 1.2490380977,
				"element": "H" 
			},
			{
				"x": 1.461488079,
				"y": 1.295427594,
				"z": 1.9948292153,
				"element": "H" 
			},
			{
				"x": 2.3862904492,
				"y": 0.1598531978,
				"z": 0.1470023355,
				"element": "H" 
			},
			{
				"x": 1.1758678525,
				"y": 1.1201116792,
				"z": -0.6811469454,
				"element": "H" 
			},
			{
				"x": 0.7757728548,
				"y": -1.0416121824,
				"z": -1.5745501354,
				"element": "H" 
			},
			{
				"x": 1.1799340751,
				"y": -1.8588104135,
				"z": -0.075081011,
				"element": "H" 
			}
		],
		 "valence_orbital": [ 
			{
				"type": "occ",
				"energy": -0.33842,
				"method": "rhf"
			},
			{
				"type": "occ",
				"energy": -0.30624,
				"method": "rhf"
			},
			{
				"type": "occ",
				"energy": -0.29806,
				"method": "rhf"
			},
			{
				"type": "occ",
				"energy": -0.2915,
				"method": "rhf"
			},
			{
				"type": "occ",
				"energy": -0.19726,
				"method": "rhf"
			},
			{
				"type": "unocc",
				"energy": 0.07494,
				"method": "rhf"
			},
			{
				"type": "unocc",
				"energy": 0.09982,
				"method": "rhf"
			},
			{
				"type": "unocc",
				"energy": 0.10819,
				"method": "rhf"
			},
			{
				"type": "unocc",
				"energy": 0.12381,
				"method": "rhf"
			},
			{
				"type": "unocc",
				"energy": 0.13739,
				"method": "rhf"
			}
		],
		"cosmo_sigma_profile": { 
			"-0.025": 0.0,
			"-0.024": 0.0,
			"-0.023": 0.0,
			"-0.022": 0.0,
			"-0.021": 0.0,
			"-0.02": 0.0,
			"-0.019": 0.0,
			"-0.018": 0.0,
			"-0.017": 0.0,
			"-0.016": 0.0,
			"-0.015": 0.0,
			"-0.014": 0.0,
			"-0.013": 0.0,
			"-0.012": 0.0,
			"-0.011": 0.0,
			"-0.01": 0.0,
			"-0.009": 0.0,
			"-0.008": 0.0,
			"-0.007": 0.0,
			"-0.006": 0.0,
			"-0.005": 0.0,
			"-0.004": 2.35051698305,
			"-0.003": 11.7616718801,
			"-0.002": 30.4863637033,
			"-0.001": 44.8947915233,
			"0.0": 47.1216212791,
			"0.001": 30.8850303367,
			"0.002": 12.2760083877,
			"0.003": 1.55558479593,
			"0.004": 1.17959285762,
			"0.005": 1.07252645549,
			"0.006": 1.03537508623,
			"0.007": 0.540046855442,
			"0.008": 0.920159758463,
			"0.009": 1.00028394043,
			"0.01": 0.676190201442,
			"0.011": 0.876310986665,
			"0.012": 0.497501778257,
			"0.013": 0.64192449767,
			"0.014": 0.541155262375,
			"0.015": 0.407764323015,
			"0.016": 0.475591088492,
			"0.017": 0.131651161103,
			"0.018": 0.0,
			"0.019": 0.0,
			"0.02": 0.0,
			"0.021": 0.0,
			"0.022": 0.0,
			"0.023": 0.0,
			"0.024": 0.0,
			"0.025": 0.0
		}
	}
}
