{
	 "smiles": "CNC1=C(N)C=CC=N1", 
	 "Tm": 382.15, 
	 "num_atms": 18, 
	 "gaussian": { 
		 "optdone": 1, 
		 "sigma_profile": "yes", 
		 "theory": "DFT", 
		 "functional": "B3LYP", 
		 "basiset": "6-31G**", 
		 "properties": { 
			 "R2extent": 1204.0371, 
			 "electric_dipole_moment_norm": 2.57053819657, 
			 "electric_quadrupole_moment_norm": 7.68598943273, 
			 "total_energy": -398.31208858, 
			 "HOMO_LUMO_gap": 0.18717, 
			 "cosmo_polarized_energy": -10.03, 
			 "cosmo_cavitation_energy": 21.13, 
			 "cosmo_dispersion_energy": -15.87, 
			 "cosmo_repulsion_energy": 1.31, 
			 "cosmo_total_nonelectrostatic_energy": 6.56, 
			 "SMD_solvation_energy": 1.59 
		},
		"coords": [
			{
				"x": 2.1653081293,
				"y": 0.5920452633,
				"z": -1.6752078635,
				"element": "C" 
			},
			{
				"x": 1.909383862,
				"y": 0.6600749464,
				"z": -0.2256983442,
				"element": "N" 
			},
			{
				"x": 0.6379052489,
				"y": 0.1568881027,
				"z": 0.1709227308,
				"element": "C" 
			},
			{
				"x": 0.4769146051,
				"y": -1.2460020116,
				"z": 0.3203338127,
				"element": "C" 
			},
			{
				"x": 1.564168526,
				"y": -2.0937273925,
				"z": 0.1908018758,
				"element": "N" 
			},
			{
				"x": -0.797958439,
				"y": -1.7051774334,
				"z": 0.6680017086,
				"element": "C" 
			},
			{
				"x": -1.8199013796,
				"y": -0.7850700786,
				"z": 0.9033867478,
				"element": "C" 
			},
			{
				"x": -1.5372646509,
				"y": 0.5732787182,
				"z": 0.7965206761,
				"element": "C" 
			},
			{
				"x": -0.3329156241,
				"y": 1.0315661589,
				"z": 0.4211735757,
				"element": "N" 
			},
			{
				"x": 3.1606106097,
				"y": 0.9957146308,
				"z": -1.8831030557,
				"element": "H" 
			},
			{
				"x": 1.4267609679,
				"y": 1.1451502464,
				"z": -2.2742827495,
				"element": "H" 
			},
			{
				"x": 2.1502841784,
				"y": -0.4510474798,
				"z": -2.0057046134,
				"element": "H" 
			},
			{
				"x": 1.9444669439,
				"y": 1.6326203142,
				"z": 0.0685774321,
				"element": "H" 
			},
			{
				"x": 2.4308732156,
				"y": -1.6669900449,
				"z": -0.0951386888,
				"element": "H" 
			},
			{
				"x": 1.4061599019,
				"y": -3.0398018966,
				"z": -0.1170137626,
				"element": "H" 
			},
			{
				"x": -0.9717825432,
				"y": -2.7717899317,
				"z": 0.7874863626,
				"element": "H" 
			},
			{
				"x": -2.8133152515,
				"y": -1.1219901878,
				"z": 1.1830113572,
				"element": "H" 
			},
			{
				"x": -2.2973983005,
				"y": 1.3235580759,
				"z": 1.0019327984,
				"element": "H" 
			}
		],
		 "valence_orbital": [ 
			{
				"type": "occ",
				"energy": -0.32107,
				"method": "rhf"
			},
			{
				"type": "occ",
				"energy": -0.27576,
				"method": "rhf"
			},
			{
				"type": "occ",
				"energy": -0.24843,
				"method": "rhf"
			},
			{
				"type": "occ",
				"energy": -0.23993,
				"method": "rhf"
			},
			{
				"type": "occ",
				"energy": -0.19308,
				"method": "rhf"
			},
			{
				"type": "unocc",
				"energy": -0.00591,
				"method": "rhf"
			},
			{
				"type": "unocc",
				"energy": 0.01692,
				"method": "rhf"
			},
			{
				"type": "unocc",
				"energy": 0.08092,
				"method": "rhf"
			},
			{
				"type": "unocc",
				"energy": 0.1076,
				"method": "rhf"
			},
			{
				"type": "unocc",
				"energy": 0.11882,
				"method": "rhf"
			}
		],
		"cosmo_sigma_profile": { 
			"-0.025": 0.0,
			"-0.024": 0.0,
			"-0.023": 0.0,
			"-0.022": 0.0,
			"-0.021": 0.0,
			"-0.02": 0.0,
			"-0.019": 0.0,
			"-0.018": 0.0,
			"-0.017": 0.0,
			"-0.016": 0.0,
			"-0.015": 0.0,
			"-0.014": 0.0,
			"-0.013": 0.684182452068,
			"-0.012": 1.4116538459,
			"-0.011": 1.80207157526,
			"-0.01": 3.07739279514,
			"-0.009": 3.18649044737,
			"-0.008": 3.64754213515,
			"-0.007": 3.95534344867,
			"-0.006": 6.72050861577,
			"-0.005": 8.68145831954,
			"-0.004": 11.7241946377,
			"-0.003": 13.4573356012,
			"-0.002": 13.5344496942,
			"-0.001": 14.6642813846,
			"0.0": 10.3698318032,
			"0.001": 7.42354430508,
			"0.002": 7.81930198195,
			"0.003": 9.26872771422,
			"0.004": 10.2012658532,
			"0.005": 10.6020755352,
			"0.006": 5.4580837408,
			"0.007": 3.68424630653,
			"0.008": 3.13732190262,
			"0.009": 1.93910240566,
			"0.01": 3.36795209797,
			"0.011": 1.70861675708,
			"0.012": 1.42420348184,
			"0.013": 1.64108931112,
			"0.014": 0.575307444929,
			"0.015": 1.06964890639,
			"0.016": 0.650072514727,
			"0.017": 0.0772058230539,
			"0.018": 0.0,
			"0.019": 0.0,
			"0.02": 0.0,
			"0.021": 0.0,
			"0.022": 0.0,
			"0.023": 0.0,
			"0.024": 0.0,
			"0.025": 0.0
		}
	}
}
