{
	 "smiles": "BrC1=CC(NS(=O)(=O)C2=CC=CC=C2)=CC=C1", 
	 "Tm": 390.15, 
	 "num_atms": 27, 
	 "gaussian": { 
		 "optdone": 1, 
		 "sigma_profile": "yes", 
		 "theory": "DFT", 
		 "functional": "B3LYP", 
		 "basiset": "6-31G**", 
		 "properties": { 
			 "R2extent": 7003.4988, 
			 "electric_dipole_moment_norm": 6.09224342587, 
			 "electric_quadrupole_moment_norm": 13.3249504085, 
			 "total_energy": -3638.0239494, 
			 "HOMO_LUMO_gap": 0.19116, 
			 "cosmo_polarized_energy": -15.77, 
			 "cosmo_cavitation_energy": 35.95, 
			 "cosmo_dispersion_energy": -25.23, 
			 "cosmo_repulsion_energy": 1.93, 
			 "cosmo_total_nonelectrostatic_energy": 12.65, 
			 "SMD_solvation_energy": 3.97 
		},
		"coords": [
			{
				"x": 0.1562577986,
				"y": 4.6570989838,
				"z": -0.2499117262,
				"element": "Br" 
			},
			{
				"x": 0.7391745409,
				"y": 3.2488045103,
				"z": 0.9046781122,
				"element": "C" 
			},
			{
				"x": 1.4565296169,
				"y": 2.188857487,
				"z": 0.3580710761,
				"element": "C" 
			},
			{
				"x": 1.8715379476,
				"y": 1.1493798577,
				"z": 1.2041623573,
				"element": "C" 
			},
			{
				"x": 2.6339652594,
				"y": 0.0658096541,
				"z": 0.6994145105,
				"element": "N" 
			},
			{
				"x": 2.2064492254,
				"y": -0.8608151757,
				"z": -0.6634120613,
				"element": "S" 
			},
			{
				"x": 3.2112759523,
				"y": -1.9233548517,
				"z": -0.6791695838,
				"element": "O" 
			},
			{
				"x": 2.0201992226,
				"y": 0.0677476214,
				"z": -1.7765732757,
				"element": "O" 
			},
			{
				"x": 0.6123070134,
				"y": -1.5988048385,
				"z": -0.2952895901,
				"element": "C" 
			},
			{
				"x": 0.574009168,
				"y": -2.8494647796,
				"z": 0.3271213267,
				"element": "C" 
			},
			{
				"x": -0.6642903513,
				"y": -3.4113153389,
				"z": 0.6360628626,
				"element": "C" 
			},
			{
				"x": -1.8421020988,
				"y": -2.7259133613,
				"z": 0.3267226187,
				"element": "C" 
			},
			{
				"x": -1.7887222654,
				"y": -1.4797823546,
				"z": -0.3017759015,
				"element": "C" 
			},
			{
				"x": -0.5571509345,
				"y": -0.9069940304,
				"z": -0.6208261537,
				"element": "C" 
			},
			{
				"x": 1.581657864,
				"y": 1.2049252869,
				"z": 2.5746911386,
				"element": "C" 
			},
			{
				"x": 0.8883421999,
				"y": 2.2947089043,
				"z": 3.0965996964,
				"element": "C" 
			},
			{
				"x": 0.4493233677,
				"y": 3.3262178157,
				"z": 2.2662282759,
				"element": "C" 
			},
			{
				"x": 1.7006769179,
				"y": 2.1611847248,
				"z": -0.6954957824,
				"element": "H" 
			},
			{
				"x": 3.0427028238,
				"y": -0.5398822387,
				"z": 1.4035034078,
				"element": "H" 
			},
			{
				"x": 1.4987998444,
				"y": -3.3751807933,
				"z": 0.539111322,
				"element": "H" 
			},
			{
				"x": -0.7093014527,
				"y": -4.386756022,
				"z": 1.110783698,
				"element": "H" 
			},
			{
				"x": -2.8039715539,
				"y": -3.1683780859,
				"z": 0.568449078,
				"element": "H" 
			},
			{
				"x": -2.7055984001,
				"y": -0.9549610917,
				"z": -0.5518406031,
				"element": "H" 
			},
			{
				"x": -0.4984442559,
				"y": 0.0482308608,
				"z": -1.1295504704,
				"element": "H" 
			},
			{
				"x": 1.9009366229,
				"y": 0.3968254042,
				"z": 3.2271550359,
				"element": "H" 
			},
			{
				"x": 0.6744552292,
				"y": 2.3352733469,
				"z": 4.1603859292,
				"element": "H" 
			},
			{
				"x": -0.1005193021,
				"y": 4.1704385043,
				"z": 2.6645047022,
				"element": "H" 
			}
		],
		 "valence_orbital": [ 
			{
				"type": "occ",
				"energy": -0.28909,
				"method": "rhf"
			},
			{
				"type": "occ",
				"energy": -0.27873,
				"method": "rhf"
			},
			{
				"type": "occ",
				"energy": -0.2764,
				"method": "rhf"
			},
			{
				"type": "occ",
				"energy": -0.25398,
				"method": "rhf"
			},
			{
				"type": "occ",
				"energy": -0.23931,
				"method": "rhf"
			},
			{
				"type": "unocc",
				"energy": -0.04815,
				"method": "rhf"
			},
			{
				"type": "unocc",
				"energy": -0.02859,
				"method": "rhf"
			},
			{
				"type": "unocc",
				"energy": -0.02242,
				"method": "rhf"
			},
			{
				"type": "unocc",
				"energy": -0.01799,
				"method": "rhf"
			},
			{
				"type": "unocc",
				"energy": 0.00387,
				"method": "rhf"
			}
		],
		"cosmo_sigma_profile": { 
			"-0.025": 0.0,
			"-0.024": 0.0,
			"-0.023": 0.0,
			"-0.022": 0.0,
			"-0.021": 0.0,
			"-0.02": 0.0,
			"-0.019": 0.0,
			"-0.018": 0.0,
			"-0.017": 0.0,
			"-0.016": 0.530708671698,
			"-0.015": 1.24961908428,
			"-0.014": 1.07277875006,
			"-0.013": 1.32141333776,
			"-0.012": 1.632422318,
			"-0.011": 0.993571287023,
			"-0.01": 1.1016869124,
			"-0.009": 1.39004524864,
			"-0.008": 2.7614769152,
			"-0.007": 12.6968958037,
			"-0.006": 15.8722753234,
			"-0.005": 18.9884782634,
			"-0.004": 14.6821707628,
			"-0.003": 15.9203492113,
			"-0.002": 22.5051004385,
			"-0.001": 15.188886577,
			"0.0": 18.7959265973,
			"0.001": 24.5052056504,
			"0.002": 31.7685423731,
			"0.003": 32.8591671081,
			"0.004": 18.4691955184,
			"0.005": 8.81618551849,
			"0.006": 4.20995892938,
			"0.007": 3.94940162417,
			"0.008": 3.10744595095,
			"0.009": 4.9653292939,
			"0.01": 6.91506814435,
			"0.011": 6.14201873109,
			"0.012": 0.304436734139,
			"0.013": 0.0,
			"0.014": 0.0,
			"0.015": 0.0,
			"0.016": 0.0,
			"0.017": 0.0,
			"0.018": 0.0,
			"0.019": 0.0,
			"0.02": 0.0,
			"0.021": 0.0,
			"0.022": 0.0,
			"0.023": 0.0,
			"0.024": 0.0,
			"0.025": 0.0
		}
	}
}
