{
	 "smiles": "OC(=O)C1CCN(CC1)S(=O)(=O)C1=CC=CS1", 
	 "Tm": 407.15, 
	 "num_atms": 30, 
	 "gaussian": { 
		 "optdone": 1, 
		 "sigma_profile": "yes", 
		 "theory": "DFT", 
		 "functional": "B3LYP", 
		 "basiset": "6-31G**", 
		 "properties": { 
			 "R2extent": 6639.3499, 
			 "electric_dipole_moment_norm": 2.32857501704, 
			 "electric_quadrupole_moment_norm": 37.6800605849, 
			 "total_energy": -1540.82984955, 
			 "HOMO_LUMO_gap": 0.196, 
			 "cosmo_polarized_energy": -24.47, 
			 "cosmo_cavitation_energy": 35.66, 
			 "cosmo_dispersion_energy": -25.88, 
			 "cosmo_repulsion_energy": 1.91, 
			 "cosmo_total_nonelectrostatic_energy": 11.69, 
			 "SMD_solvation_energy": 4.94 
		},
		"coords": [
			{
				"x": -5.6853092762,
				"y": 2.6572527069,
				"z": -0.1512555361,
				"element": "O" 
			},
			{
				"x": -4.3255466946,
				"y": 2.6394715295,
				"z": -0.2059161483,
				"element": "C" 
			},
			{
				"x": -3.7500188408,
				"y": 3.3355509208,
				"z": -1.0049405251,
				"element": "O" 
			},
			{
				"x": -3.6454062499,
				"y": 1.674106887,
				"z": 0.7669125115,
				"element": "C" 
			},
			{
				"x": -4.0667188996,
				"y": 0.210246277,
				"z": 0.4327578702,
				"element": "C" 
			},
			{
				"x": -3.0222837338,
				"y": -0.7923372365,
				"z": 0.9231327307,
				"element": "C" 
			},
			{
				"x": -1.7650629366,
				"y": -0.5768825902,
				"z": 0.1660129039,
				"element": "N" 
			},
			{
				"x": -1.4656409404,
				"y": 0.8268269844,
				"z": -0.2203183753,
				"element": "C" 
			},
			{
				"x": -2.109015011,
				"y": 1.8273888151,
				"z": 0.7407704706,
				"element": "C" 
			},
			{
				"x": -0.4588262159,
				"y": -1.4926897326,
				"z": 0.7144694709,
				"element": "S" 
			},
			{
				"x": 0.4397814179,
				"y": -0.7088305452,
				"z": 1.5753995366,
				"element": "O" 
			},
			{
				"x": -1.0385099952,
				"y": -2.747314767,
				"z": 1.1998533983,
				"element": "O" 
			},
			{
				"x": 0.441278872,
				"y": -1.7774682774,
				"z": -0.7868022698,
				"element": "C" 
			},
			{
				"x": -0.0006531718,
				"y": -2.4408077327,
				"z": -1.9044543584,
				"element": "C" 
			},
			{
				"x": 1.0097311143,
				"y": -2.5485439314,
				"z": -2.8994782388,
				"element": "C" 
			},
			{
				"x": 2.1924983367,
				"y": -1.9714094975,
				"z": -2.5115635832,
				"element": "C" 
			},
			{
				"x": 2.1044823876,
				"y": -1.2854787827,
				"z": -0.9284741866,
				"element": "S" 
			},
			{
				"x": -6.0028236958,
				"y": 2.069763444,
				"z": 0.5489495759,
				"element": "H" 
			},
			{
				"x": -4.0083195995,
				"y": 1.9165431542,
				"z": 1.7754503402,
				"element": "H" 
			},
			{
				"x": -4.1910485068,
				"y": 0.0882266982,
				"z": -0.6493278291,
				"element": "H" 
			},
			{
				"x": -5.0299501138,
				"y": -0.0390081418,
				"z": 0.891740361,
				"element": "H" 
			},
			{
				"x": -2.8776211098,
				"y": -0.6732574199,
				"z": 2.0065557997,
				"element": "H" 
			},
			{
				"x": -3.3557949003,
				"y": -1.8167981734,
				"z": 0.7508334764,
				"element": "H" 
			},
			{
				"x": -1.829966599,
				"y": 0.9949740651,
				"z": -1.2397499261,
				"element": "H" 
			},
			{
				"x": -0.3832149809,
				"y": 0.9669510006,
				"z": -0.2339005385,
				"element": "H" 
			},
			{
				"x": -1.7004451197,
				"y": 1.6651376091,
				"z": 1.7428902249,
				"element": "H" 
			},
			{
				"x": -1.8492283804,
				"y": 2.842498769,
				"z": 0.4313639233,
				"element": "H" 
			},
			{
				"x": -1.0068403405,
				"y": -2.8300704279,
				"z": -2.0017432126,
				"element": "H" 
			},
			{
				"x": 0.8654046575,
				"y": -3.0326164408,
				"z": -3.8582805807,
				"element": "H" 
			},
			{
				"x": 3.1168685264,
				"y": -1.909825164,
				"z": -3.0701872855,
				"element": "H" 
			}
		],
		 "valence_orbital": [ 
			{
				"type": "occ",
				"energy": -0.30035,
				"method": "rhf"
			},
			{
				"type": "occ",
				"energy": -0.27912,
				"method": "rhf"
			},
			{
				"type": "occ",
				"energy": -0.27214,
				"method": "rhf"
			},
			{
				"type": "occ",
				"energy": -0.26682,
				"method": "rhf"
			},
			{
				"type": "occ",
				"energy": -0.24492,
				"method": "rhf"
			},
			{
				"type": "unocc",
				"energy": -0.04892,
				"method": "rhf"
			},
			{
				"type": "unocc",
				"energy": 0.00012,
				"method": "rhf"
			},
			{
				"type": "unocc",
				"energy": 0.01381,
				"method": "rhf"
			},
			{
				"type": "unocc",
				"energy": 0.03059,
				"method": "rhf"
			},
			{
				"type": "unocc",
				"energy": 0.03785,
				"method": "rhf"
			}
		],
		"cosmo_sigma_profile": { 
			"-0.025": 0.0,
			"-0.024": 0.0,
			"-0.023": 0.0,
			"-0.022": 0.0,
			"-0.021": 0.0,
			"-0.02": 0.0,
			"-0.019": 0.0466077850545,
			"-0.018": 1.31566620027,
			"-0.017": 0.828353604598,
			"-0.016": 1.29165056019,
			"-0.015": 1.2797692628,
			"-0.014": 0.952249434812,
			"-0.013": 1.74378688716,
			"-0.012": 0.483736025225,
			"-0.011": 1.20530127456,
			"-0.01": 2.37915160028,
			"-0.009": 3.79776376019,
			"-0.008": 6.76433835658,
			"-0.007": 9.26472257808,
			"-0.006": 13.5152047223,
			"-0.005": 24.8871088833,
			"-0.004": 23.6117682801,
			"-0.003": 20.3172985752,
			"-0.002": 17.1597516582,
			"-0.001": 16.0428182281,
			"0.0": 12.3926110378,
			"0.001": 17.8284138213,
			"0.002": 21.1262392807,
			"0.003": 13.5371623748,
			"0.004": 7.38169030829,
			"0.005": 6.45412633545,
			"0.006": 5.36484655855,
			"0.007": 5.20118825547,
			"0.008": 6.01975871592,
			"0.009": 7.00705088513,
			"0.01": 12.0297053645,
			"0.011": 13.7907867544,
			"0.012": 7.45534715155,
			"0.013": 1.32256184025,
			"0.014": 0.00886717288552,
			"0.015": 0.0,
			"0.016": 0.0,
			"0.017": 0.0,
			"0.018": 0.0,
			"0.019": 0.0,
			"0.02": 0.0,
			"0.021": 0.0,
			"0.022": 0.0,
			"0.023": 0.0,
			"0.024": 0.0,
			"0.0": 0.0
		}
	}
}
