{
	 "smiles": "ClC=C/Cl", 
	 "Tm": 193.15, 
	 "num_atms": 6, 
	 "gaussian": { 
		 "optdone": 1, 
		 "sigma_profile": "yes", 
		 "theory": "DFT", 
		 "functional": "B3LYP", 
		 "basiset": "6-31G**", 
		 "properties": { 
			 "R2extent": 1694.5396, 
			 "electric_dipole_moment_norm": 2.04003021791, 
			 "electric_quadrupole_moment_norm": 4.57047131049, 
			 "total_energy": -997.773209483, 
			 "HOMO_LUMO_gap": 0.24432, 
			 "cosmo_polarized_energy": -3.96, 
			 "cosmo_cavitation_energy": 13.62, 
			 "cosmo_dispersion_energy": -10.54, 
			 "cosmo_repulsion_energy": 0.97, 
			 "cosmo_total_nonelectrostatic_energy": 4.05, 
			 "SMD_solvation_energy": 2.8 
		},
		"coords": [
			{
				"x": 3.5943637536,
				"y": -1.9709262697,
				"z": -0.5573758732,
				"element": "Cl" 
			},
			{
				"x": 2.7572319379,
				"y": -0.4917096678,
				"z": -0.2206803888,
				"element": "C" 
			},
			{
				"x": 1.5671782719,
				"y": -0.1495809702,
				"z": -0.7106385454,
				"element": "C" 
			},
			{
				"x": 0.6093626818,
				"y": -1.112696455,
				"z": -1.7863701155,
				"element": "Cl" 
			},
			{
				"x": 3.2882082103,
				"y": 0.1748667604,
				"z": 0.4485730987,
				"element": "H" 
			},
			{
				"x": 1.1160551446,
				"y": 0.7993466022,
				"z": -0.4457081758,
				"element": "H" 
			}
		],
		 "valence_orbital": [ 
			{
				"type": "occ",
				"energy": -0.39574,
				"method": "rhf"
			},
			{
				"type": "occ",
				"energy": -0.34693,
				"method": "rhf"
			},
			{
				"type": "occ",
				"energy": -0.32783,
				"method": "rhf"
			},
			{
				"type": "occ",
				"energy": -0.31797,
				"method": "rhf"
			},
			{
				"type": "occ",
				"energy": -0.25975,
				"method": "rhf"
			},
			{
				"type": "unocc",
				"energy": -0.01543,
				"method": "rhf"
			},
			{
				"type": "unocc",
				"energy": 0.00921,
				"method": "rhf"
			},
			{
				"type": "unocc",
				"energy": 0.05674,
				"method": "rhf"
			},
			{
				"type": "unocc",
				"energy": 0.09069,
				"method": "rhf"
			},
			{
				"type": "unocc",
				"energy": 0.19079,
				"method": "rhf"
			}
		],
		"cosmo_sigma_profile": { 
			"-0.025": 0.0,
			"-0.024": 0.0,
			"-0.023": 0.0,
			"-0.022": 0.0,
			"-0.021": 0.0,
			"-0.02": 0.0,
			"-0.019": 0.0,
			"-0.018": 0.0,
			"-0.017": 0.0,
			"-0.016": 0.0,
			"-0.015": 0.0,
			"-0.014": 0.0,
			"-0.013": 0.0,
			"-0.012": 0.0,
			"-0.011": 0.136750412438,
			"-0.01": 3.61886313865,
			"-0.009": 4.53961884902,
			"-0.008": 3.82109304398,
			"-0.007": 2.36997391489,
			"-0.006": 2.39022215122,
			"-0.005": 2.47389510893,
			"-0.004": 2.43586365676,
			"-0.003": 4.31653951552,
			"-0.002": 5.98525665837,
			"-0.001": 6.50684974726,
			"0.0": 7.91545676238,
			"0.001": 14.2223783322,
			"0.002": 13.1753454158,
			"0.003": 14.6514870222,
			"0.004": 19.5254314676,
			"0.005": 5.26493191098,
			"0.006": 0.687385928793,
			"0.007": 0.0,
			"0.008": 0.0,
			"0.009": 0.0,
			"0.01": 0.0,
			"0.011": 0.0,
			"0.012": 0.0,
			"0.013": 0.0,
			"0.014": 0.0,
			"0.015": 0.0,
			"0.016": 0.0,
			"0.017": 0.0,
			"0.018": 0.0,
			"0.019": 0.0,
			"0.02": 0.0,
			"0.021": 0.0,
			"0.022": 0.0,
			"0.023": 0.0,
			"0.024": 0.0,
			"0.025": 0.0
		}
	}
}
