{
	 "smiles": "NN1C(S)=NN=C1C1=CC=CS1", 
	 "Tm": 491.15, 
	 "num_atms": 18, 
	 "gaussian": { 
		 "optdone": 1, 
		 "sigma_profile": "yes", 
		 "theory": "DFT", 
		 "functional": "B3LYP", 
		 "basiset": "6-31G**", 
		 "properties": { 
			 "R2extent": 3722.9849, 
			 "electric_dipole_moment_norm": 6.3491719594, 
			 "electric_quadrupole_moment_norm": 16.5423569512, 
			 "total_energy": -1247.55570361, 
			 "HOMO_LUMO_gap": 0.16263, 
			 "cosmo_polarized_energy": -19.94, 
			 "cosmo_cavitation_energy": 25.71, 
			 "cosmo_dispersion_energy": -20.32, 
			 "cosmo_repulsion_energy": 1.51, 
			 "cosmo_total_nonelectrostatic_energy": 6.89, 
			 "SMD_solvation_energy": 2.44 
		},
		"coords": [
			{
				"x": -2.8774344156,
				"y": -1.0493140185,
				"z": 1.0002296599,
				"element": "N" 
			},
			{
				"x": -1.563657304,
				"y": -1.0802711912,
				"z": 1.4697725462,
				"element": "N" 
			},
			{
				"x": -1.2193426303,
				"y": -1.2506425295,
				"z": 2.7939736883,
				"element": "C" 
			},
			{
				"x": -2.3750404175,
				"y": -1.4557136248,
				"z": 4.1034867868,
				"element": "S" 
			},
			{
				"x": 0.083627639,
				"y": -1.2371642132,
				"z": 2.9316383204,
				"element": "N" 
			},
			{
				"x": 0.6303946419,
				"y": -1.054389871,
				"z": 1.6774320183,
				"element": "N" 
			},
			{
				"x": -0.3502658509,
				"y": -0.9604734057,
				"z": 0.8035004565,
				"element": "C" 
			},
			{
				"x": -0.1601457943,
				"y": -0.7635630286,
				"z": -0.6201735687,
				"element": "C" 
			},
			{
				"x": 1.0604723822,
				"y": -0.6494251849,
				"z": -1.2466752848,
				"element": "C" 
			},
			{
				"x": 0.9556420031,
				"y": -0.461895495,
				"z": -2.6527433488,
				"element": "C" 
			},
			{
				"x": -0.3378194379,
				"y": -0.4331314472,
				"z": -3.09637466,
				"element": "C" 
			},
			{
				"x": -1.46234721,
				"y": -0.6367538129,
				"z": -1.7908278286,
				"element": "S" 
			},
			{
				"x": -3.0673284105,
				"y": -0.1555876934,
				"z": 0.5531542997,
				"element": "H" 
			},
			{
				"x": -3.0265407346,
				"y": -1.8004196315,
				"z": 0.3306893335,
				"element": "H" 
			},
			{
				"x": -3.4419237898,
				"y": -1.3721430251,
				"z": 3.2800011874,
				"element": "H" 
			},
			{
				"x": 1.9893687616,
				"y": -0.7018947243,
				"z": -0.6926015942,
				"element": "H" 
			},
			{
				"x": 1.8106103684,
				"y": -0.3524487212,
				"z": -3.3098899602,
				"element": "H" 
			},
			{
				"x": -0.7064698009,
				"y": -0.3057683821,
				"z": -4.1043920515,
				"element": "H" 
			}
		],
		 "valence_orbital": [ 
			{
				"type": "occ",
				"energy": -0.30275,
				"method": "rhf"
			},
			{
				"type": "occ",
				"energy": -0.2704,
				"method": "rhf"
			},
			{
				"type": "occ",
				"energy": -0.26561,
				"method": "rhf"
			},
			{
				"type": "occ",
				"energy": -0.25247,
				"method": "rhf"
			},
			{
				"type": "occ",
				"energy": -0.2131,
				"method": "rhf"
			},
			{
				"type": "unocc",
				"energy": -0.05047,
				"method": "rhf"
			},
			{
				"type": "unocc",
				"energy": 0.00379,
				"method": "rhf"
			},
			{
				"type": "unocc",
				"energy": 0.01987,
				"method": "rhf"
			},
			{
				"type": "unocc",
				"energy": 0.02132,
				"method": "rhf"
			},
			{
				"type": "unocc",
				"energy": 0.03604,
				"method": "rhf"
			}
		],
		"cosmo_sigma_profile": { 
			"-0.025": 0.0,
			"-0.024": 0.0,
			"-0.023": 0.0,
			"-0.022": 0.0,
			"-0.021": 0.0,
			"-0.02": 0.0,
			"-0.019": 0.0,
			"-0.018": 0.0,
			"-0.017": 0.0,
			"-0.016": 0.0,
			"-0.015": 0.0249898674238,
			"-0.014": 1.92239547778,
			"-0.013": 3.01202701998,
			"-0.012": 3.72069625764,
			"-0.011": 4.0441274804,
			"-0.01": 3.36661290193,
			"-0.009": 4.9327276226,
			"-0.008": 5.97796827379,
			"-0.007": 7.50918664375,
			"-0.006": 8.20461995045,
			"-0.005": 8.11134829008,
			"-0.004": 11.2384473901,
			"-0.003": 10.74447632,
			"-0.002": 10.3678918066,
			"-0.001": 10.0560281905,
			"0.0": 13.4677497481,
			"0.001": 13.4292652967,
			"0.002": 16.0911991565,
			"0.003": 22.1639199736,
			"0.004": 14.9247587172,
			"0.005": 7.57664219844,
			"0.006": 5.68336545433,
			"0.007": 3.65043397831,
			"0.008": 1.24727231953,
			"0.009": 1.88173042925,
			"0.01": 2.21203500037,
			"0.011": 2.5118034944,
			"0.012": 2.87700104149,
			"0.013": 3.87438900696,
			"0.014": 2.44797451295,
			"0.015": 2.61094471124,
			"0.016": 1.3797200273,
			"0.017": 0.182459945504,
			"0.018": 0.0,
			"0.019": 0.0,
			"0.02": 0.0,
			"0.021": 0.0,
			"0.022": 0.0,
			"0.023": 0.0,
			"0.024": 0.0,
			"0.025": 0.0
		}
	}
}
