{
	 "smiles": "CC1CNC(=O)NC1=O", 
	 "Tm": 537.15, 
	 "num_atms": 17, 
	 "gaussian": { 
		 "optdone": 1, 
		 "sigma_profile": "yes", 
		 "theory": "DFT", 
		 "functional": "B3LYP", 
		 "basiset": "6-31G**", 
		 "properties": { 
			 "R2extent": 2525.878, 
			 "electric_dipole_moment_norm": 3.87693913803, 
			 "electric_quadrupole_moment_norm": 12.4591736692, 
			 "total_energy": -455.351338995, 
			 "HOMO_LUMO_gap": 0.24662, 
			 "cosmo_polarized_energy": -15.09, 
			 "cosmo_cavitation_energy": 20.33, 
			 "cosmo_dispersion_energy": -15.35, 
			 "cosmo_repulsion_energy": 1.27, 
			 "cosmo_total_nonelectrostatic_energy": 6.25, 
			 "SMD_solvation_energy": 4.3 
		},
		"coords": [
			{
				"x": 0.6666628823,
				"y": -0.8594650646,
				"z": -1.4467253997,
				"element": "C" 
			},
			{
				"x": 1.1108945897,
				"y": -0.6913805965,
				"z": 0.0070008731,
				"element": "C" 
			},
			{
				"x": 0.1552437147,
				"y": -1.3583700103,
				"z": 1.0034488345,
				"element": "C" 
			},
			{
				"x": 0.6896299053,
				"y": -1.2436985539,
				"z": 2.3558281499,
				"element": "N" 
			},
			{
				"x": 1.9936607635,
				"y": -1.5576745369,
				"z": 2.6416301201,
				"element": "C" 
			},
			{
				"x": 2.4260964025,
				"y": -1.7757326291,
				"z": 3.7600626611,
				"element": "O" 
			},
			{
				"x": 2.8325384484,
				"y": -1.5918144798,
				"z": 1.5123141414,
				"element": "N" 
			},
			{
				"x": 2.5373476117,
				"y": -1.2036010294,
				"z": 0.2124237406,
				"element": "C" 
			},
			{
				"x": 3.3786170837,
				"y": -1.2478197893,
				"z": -0.6661445731,
				"element": "O" 
			},
			{
				"x": 0.5648218073,
				"y": -1.9182805492,
				"z": -1.7064340306,
				"element": "H" 
			},
			{
				"x": 1.4082461133,
				"y": -0.4242767413,
				"z": -2.1183238342,
				"element": "H" 
			},
			{
				"x": -0.2970309691,
				"y": -0.3697050183,
				"z": -1.6159157189,
				"element": "H" 
			},
			{
				"x": 1.150487801,
				"y": 0.3800641532,
				"z": 0.2540190426,
				"element": "H" 
			},
			{
				"x": -0.8191506803,
				"y": -0.8632483745,
				"z": 0.9729872344,
				"element": "H" 
			},
			{
				"x": -0.0007247927,
				"y": -2.4109233842,
				"z": 0.7176550782,
				"element": "H" 
			},
			{
				"x": 0.0700128639,
				"y": -1.3705380845,
				"z": 3.1435436011,
				"element": "H" 
			},
			{
				"x": 3.7939464548,
				"y": -1.8471353116,
				"z": 1.7034300796,
				"element": "H" 
			}
		],
		 "valence_orbital": [ 
			{
				"type": "occ",
				"energy": -0.35583,
				"method": "rhf"
			},
			{
				"type": "occ",
				"energy": -0.28717,
				"method": "rhf"
			},
			{
				"type": "occ",
				"energy": -0.28321,
				"method": "rhf"
			},
			{
				"type": "occ",
				"energy": -0.2683,
				"method": "rhf"
			},
			{
				"type": "occ",
				"energy": -0.26049,
				"method": "rhf"
			},
			{
				"type": "unocc",
				"energy": -0.01387,
				"method": "rhf"
			},
			{
				"type": "unocc",
				"energy": 0.05046,
				"method": "rhf"
			},
			{
				"type": "unocc",
				"energy": 0.07256,
				"method": "rhf"
			},
			{
				"type": "unocc",
				"energy": 0.09983,
				"method": "rhf"
			},
			{
				"type": "unocc",
				"energy": 0.10779,
				"method": "rhf"
			}
		],
		"cosmo_sigma_profile": { 
			"-0.025": 0.0,
			"-0.024": 0.0,
			"-0.023": 0.0,
			"-0.022": 0.0,
			"-0.021": 0.0,
			"-0.02": 0.0,
			"-0.019": 0.0,
			"-0.018": 0.0,
			"-0.017": 0.0,
			"-0.016": 0.0,
			"-0.015": 0.944136329773,
			"-0.014": 2.1180516153,
			"-0.013": 1.57531233508,
			"-0.012": 1.93497679206,
			"-0.011": 1.81955397028,
			"-0.01": 1.69245441348,
			"-0.009": 2.03988563491,
			"-0.008": 1.53154120928,
			"-0.007": 4.18683409417,
			"-0.006": 11.254027176,
			"-0.005": 11.9247288328,
			"-0.004": 15.2510651206,
			"-0.003": 13.4472457632,
			"-0.002": 11.645686228,
			"-0.001": 11.0522608128,
			"0.0": 11.1105210125,
			"0.001": 6.1889780256,
			"0.002": 3.39645834851,
			"0.003": 3.46760115392,
			"0.004": 2.774615984,
			"0.005": 3.16648049624,
			"0.006": 2.9676235028,
			"0.007": 2.36148628295,
			"0.008": 2.90173393298,
			"0.009": 2.36186360022,
			"0.01": 3.46704078432,
			"0.011": 4.33364146151,
			"0.012": 7.37652925276,
			"0.013": 8.71961587686,
			"0.014": 2.31948674622,
			"0.015": 0.0,
			"0.016": 0.0,
			"0.017": 0.0,
			"0.018": 0.0,
			"0.019": 0.0,
			"0.02": 0.0,
			"0.021": 0.0,
			"0.022": 0.0,
			"0.023": 0.0,
			"0.024": 0.0,
			"0.025": 0.0
		}
	}
}
