{
	 "smiles": "OC(=O)C1CN(C(=O)C2=CC=CO2)C2=C(O1)C=CC=C2", 
	 "Tm": 428.15, 
	 "num_atms": 31, 
	 "gaussian": { 
		 "optdone": 1, 
		 "sigma_profile": "yes", 
		 "theory": "DFT", 
		 "functional": "B3LYP", 
		 "basiset": "6-31G**", 
		 "properties": { 
			 "R2extent": 6187.5184, 
			 "electric_dipole_moment_norm": 6.62853056491, 
			 "electric_quadrupole_moment_norm": 21.4222277028, 
			 "total_energy": -970.967328678, 
			 "HOMO_LUMO_gap": 0.17383, 
			 "cosmo_polarized_energy": -18.28, 
			 "cosmo_cavitation_energy": 35.69, 
			 "cosmo_dispersion_energy": -25.15, 
			 "cosmo_repulsion_energy": 1.92, 
			 "cosmo_total_nonelectrostatic_energy": 12.45, 
			 "SMD_solvation_energy": 8.57 
		},
		"coords": [
			{
				"x": -3.1904711317,
				"y": -4.2080282467,
				"z": -0.7963519487,
				"element": "O" 
			},
			{
				"x": -3.3571206226,
				"y": -3.3957021089,
				"z": 0.2581600117,
				"element": "C" 
			},
			{
				"x": -4.0659639609,
				"y": -3.6646887734,
				"z": 1.1961008235,
				"element": "O" 
			},
			{
				"x": -2.5689148223,
				"y": -2.0792696081,
				"z": 0.210218678,
				"element": "C" 
			},
			{
				"x": -1.6307399446,
				"y": -1.9519761783,
				"z": 1.411611992,
				"element": "C" 
			},
			{
				"x": -0.8744131876,
				"y": -0.7136250157,
				"z": 1.2509383652,
				"element": "N" 
			},
			{
				"x": -0.8999317063,
				"y": 0.2042673784,
				"z": 2.2991680087,
				"element": "C" 
			},
			{
				"x": -1.248446975,
				"y": -0.1333134255,
				"z": 3.4265338888,
				"element": "O" 
			},
			{
				"x": -0.5654025232,
				"y": 1.6166258222,
				"z": 2.0423174038,
				"element": "C" 
			},
			{
				"x": -0.2315814365,
				"y": 2.5916874448,
				"z": 2.9452352159,
				"element": "C" 
			},
			{
				"x": -0.1000690675,
				"y": 3.8022614788,
				"z": 2.2034196381,
				"element": "C" 
			},
			{
				"x": -0.3779803603,
				"y": 3.4806675604,
				"z": 0.9056799004,
				"element": "C" 
			},
			{
				"x": -0.6637273704,
				"y": 2.1594694083,
				"z": 0.787951031,
				"element": "O" 
			},
			{
				"x": -0.1455245092,
				"y": -0.6407287634,
				"z": 0.0381003839,
				"element": "C" 
			},
			{
				"x": -0.6567980914,
				"y": -1.332173343,
				"z": -1.0751431502,
				"element": "C" 
			},
			{
				"x": -1.8453796121,
				"y": -2.0320423793,
				"z": -1.0308166117,
				"element": "O" 
			},
			{
				"x": 0.0376081962,
				"y": -1.3511355051,
				"z": -2.28485037,
				"element": "C" 
			},
			{
				"x": 1.2568561414,
				"y": -0.6892076312,
				"z": -2.3971717105,
				"element": "C" 
			},
			{
				"x": 1.7919983977,
				"y": -0.0248176313,
				"z": -1.2901541605,
				"element": "C" 
			},
			{
				"x": 1.1051355249,
				"y": -0.018403949,
				"z": -0.0800758967,
				"element": "C" 
			},
			{
				"x": -2.5703906529,
				"y": -3.7697371652,
				"z": -1.4080850474,
				"element": "H" 
			},
			{
				"x": -3.291884155,
				"y": -1.2548999082,
				"z": 0.2310934597,
				"element": "H" 
			},
			{
				"x": -2.2033914464,
				"y": -1.907696529,
				"z": 2.3357805566,
				"element": "H" 
			},
			{
				"x": -0.9532071188,
				"y": -2.813002922,
				"z": 1.4597164131,
				"element": "H" 
			},
			{
				"x": -0.1072989852,
				"y": 2.4417506839,
				"z": 4.0071042925,
				"element": "H" 
			},
			{
				"x": 0.1583074026,
				"y": 4.7804235711,
				"z": 2.5820050217,
				"element": "H" 
			},
			{
				"x": -0.4199020896,
				"y": 4.0528074978,
				"z": -0.0084913242,
				"element": "H" 
			},
			{
				"x": -0.3959052044,
				"y": -1.8883093443,
				"z": -3.1222891265,
				"element": "H" 
			},
			{
				"x": 1.7918744106,
				"y": -0.7041711966,
				"z": -3.3413866178,
				"element": "H" 
			},
			{
				"x": 2.7541496903,
				"y": 0.4721991558,
				"z": -1.3614617891,
				"element": "H" 
			},
			{
				"x": 1.5350152103,
				"y": 0.4681696227,
				"z": 0.7882426687,
				"element": "H" 
			}
		],
		 "valence_orbital": [ 
			{
				"type": "occ",
				"energy": -0.27949,
				"method": "rhf"
			},
			{
				"type": "occ",
				"energy": -0.27443,
				"method": "rhf"
			},
			{
				"type": "occ",
				"energy": -0.24996,
				"method": "rhf"
			},
			{
				"type": "occ",
				"energy": -0.24499,
				"method": "rhf"
			},
			{
				"type": "occ",
				"energy": -0.22599,
				"method": "rhf"
			},
			{
				"type": "unocc",
				"energy": -0.05216,
				"method": "rhf"
			},
			{
				"type": "unocc",
				"energy": -0.0153,
				"method": "rhf"
			},
			{
				"type": "unocc",
				"energy": -0.00554,
				"method": "rhf"
			},
			{
				"type": "unocc",
				"energy": 0.00297,
				"method": "rhf"
			},
			{
				"type": "unocc",
				"energy": 0.03444,
				"method": "rhf"
			}
		],
		"cosmo_sigma_profile": { 
			"-0.025": 0.0,
			"-0.024": 0.0,
			"-0.023": 0.0,
			"-0.022": 0.0,
			"-0.021": 0.0,
			"-0.02": 0.0,
			"-0.019": 0.0,
			"-0.018": 0.0,
			"-0.017": 0.0,
			"-0.016": 0.0,
			"-0.015": 0.26827144493,
			"-0.014": 0.466788640394,
			"-0.013": 0.580785334269,
			"-0.012": 0.609460371461,
			"-0.011": 1.20315272572,
			"-0.01": 1.79756756727,
			"-0.009": 6.5071148328,
			"-0.008": 10.9760502132,
			"-0.007": 13.2356018671,
			"-0.006": 18.2429487651,
			"-0.005": 19.0388824072,
			"-0.004": 18.6673650707,
			"-0.003": 17.7867077824,
			"-0.002": 15.9345060917,
			"-0.001": 14.8090083101,
			"0.0": 16.3170968733,
			"0.001": 18.8304907662,
			"0.002": 17.2448072444,
			"0.003": 18.7940577928,
			"0.004": 15.9412372949,
			"0.005": 11.4278550385,
			"0.006": 7.64434819029,
			"0.007": 6.1160952108,
			"0.008": 4.35712488138,
			"0.009": 6.09848224499,
			"0.01": 5.34929217888,
			"0.011": 7.73644490626,
			"0.012": 7.06695064483,
			"0.013": 3.11391687105,
			"0.014": 0.138145005108,
			"0.015": 0.0,
			"0.016": 0.0,
			"0.017": 0.0,
			"0.018": 0.0,
			"0.019": 0.0,
			"0.02": 0.0,
			"0.021": 0.0,
			"0.022": 0.0,
			"0.023": 0.0,
			"0.024": 0.0,
			"0.025": 0.0
		}
	}
}
