{
	 "smiles": "O=C1C=CC2=CC(=O)C=CC2=C1", 
	 "Tm": 405.15, 
	 "num_atms": 18, 
	 "gaussian": { 
		 "optdone": 1, 
		 "sigma_profile": "yes", 
		 "theory": "DFT", 
		 "functional": "B3LYP", 
		 "basiset": "6-31G**", 
		 "properties": { 
			 "R2extent": 2457.7824, 
			 "electric_dipole_moment_norm": 0.00080622577483, 
			 "electric_quadrupole_moment_norm": 24.8482235293, 
			 "total_energy": -535.083371949, 
			 "HOMO_LUMO_gap": 0.12551, 
			 "cosmo_polarized_energy": -12.67, 
			 "cosmo_cavitation_energy": 23.15, 
			 "cosmo_dispersion_energy": -17.05, 
			 "cosmo_repulsion_energy": 1.32, 
			 "cosmo_total_nonelectrostatic_energy": 7.42, 
			 "SMD_solvation_energy": 5.14 
		},
		"coords": [
			{
				"x": 0.2842628389,
				"y": -2.3202016869,
				"z": -4.0471552852,
				"element": "O" 
			},
			{
				"x": 0.1748162397,
				"y": -1.6984176657,
				"z": -2.9914600463,
				"element": "C" 
			},
			{
				"x": 0.1292295613,
				"y": -0.2229229452,
				"z": -2.9476300706,
				"element": "C" 
			},
			{
				"x": 0.0098181309,
				"y": 0.4344999473,
				"z": -1.7770040089,
				"element": "C" 
			},
			{
				"x": -0.0794242346,
				"y": -0.2709375531,
				"z": -0.5037940628,
				"element": "C" 
			},
			{
				"x": -0.1998849418,
				"y": 0.3907462052,
				"z": 0.677762289,
				"element": "C" 
			},
			{
				"x": -0.2909645601,
				"y": -0.3126055401,
				"z": 1.9744232324,
				"element": "C" 
			},
			{
				"x": -0.3997240261,
				"y": 0.3091978797,
				"z": 3.0301779278,
				"element": "O" 
			},
			{
				"x": -0.2449332476,
				"y": -1.7880875547,
				"z": 1.9306315751,
				"element": "C" 
			},
			{
				"x": -0.125509971,
				"y": -2.4455103992,
				"z": 0.7600067725,
				"element": "C" 
			},
			{
				"x": -0.0364232267,
				"y": -1.7400772474,
				"z": -0.5132165166,
				"element": "C" 
			},
			{
				"x": 0.0840247482,
				"y": -2.4017613526,
				"z": -1.6947741234,
				"element": "C" 
			},
			{
				"x": 0.1964517959,
				"y": 0.2923944521,
				"z": -3.9001818837,
				"element": "H" 
			},
			{
				"x": -0.0237956022,
				"y": 1.520743489,
				"z": -1.7468004807,
				"element": "H" 
			},
			{
				"x": -0.2347018543,
				"y": 1.4758275165,
				"z": 0.7208923459,
				"element": "H" 
			},
			{
				"x": -0.311952869,
				"y": -2.303398603,
				"z": 2.8832010255,
				"element": "H" 
			},
			{
				"x": -0.0917263257,
				"y": -3.5317491002,
				"z": 0.7298177541,
				"element": "H" 
			},
			{
				"x": 0.1189375442,
				"y": -3.4868398418,
				"z": -1.7378964438,
				"element": "H" 
			}
		],
		 "valence_orbital": [ 
			{
				"type": "occ",
				"energy": -0.33172,
				"method": "rhf"
			},
			{
				"type": "occ",
				"energy": -0.27025,
				"method": "rhf"
			},
			{
				"type": "occ",
				"energy": -0.26373,
				"method": "rhf"
			},
			{
				"type": "occ",
				"energy": -0.26252,
				"method": "rhf"
			},
			{
				"type": "occ",
				"energy": -0.26214,
				"method": "rhf"
			},
			{
				"type": "unocc",
				"energy": -0.13663,
				"method": "rhf"
			},
			{
				"type": "unocc",
				"energy": -0.05447,
				"method": "rhf"
			},
			{
				"type": "unocc",
				"energy": -0.00409,
				"method": "rhf"
			},
			{
				"type": "unocc",
				"energy": 0.00576,
				"method": "rhf"
			},
			{
				"type": "unocc",
				"energy": 0.08743,
				"method": "rhf"
			}
		],
		"cosmo_sigma_profile": { 
			"-0.025": 0.0,
			"-0.024": 0.0,
			"-0.023": 0.0,
			"-0.022": 0.0,
			"-0.021": 0.0,
			"-0.02": 0.0,
			"-0.019": 0.0,
			"-0.018": 0.0,
			"-0.017": 0.0,
			"-0.016": 0.0,
			"-0.015": 0.0,
			"-0.014": 0.0,
			"-0.013": 0.0,
			"-0.012": 0.0,
			"-0.011": 0.0,
			"-0.01": 0.0,
			"-0.009": 3.48745636377,
			"-0.008": 9.65803193809,
			"-0.007": 9.36417329733,
			"-0.006": 10.614272731,
			"-0.005": 8.33851318047,
			"-0.004": 10.0458207934,
			"-0.003": 13.1539726375,
			"-0.002": 20.493635353,
			"-0.001": 22.7092151682,
			"0.0": 17.948698156,
			"0.001": 9.18067924178,
			"0.002": 8.24004724919,
			"0.003": 2.71890393615,
			"0.004": 2.19078718674,
			"0.005": 2.88101525485,
			"0.006": 3.32065233003,
			"0.007": 2.59274627271,
			"0.008": 3.21455616402,
			"0.009": 3.34352950595,
			"0.01": 3.99553646461,
			"0.011": 6.75788821364,
			"0.012": 8.82861974702,
			"0.013": 3.86832539707,
			"0.014": 0.0731406454768,
			"0.015": 0.0,
			"0.016": 0.0,
			"0.017": 0.0,
			"0.018": 0.0,
			"0.019": 0.0,
			"0.02": 0.0,
			"0.021": 0.0,
			"0.022": 0.0,
			"0.023": 0.0,
			"0.024": 0.0,
			"0.025": 0.0
		}
	}
}
