{
	 "smiles": "BrCC(Br)Br", 
	 "Tm": 244.05, 
	 "num_atms": 8, 
	 "gaussian": { 
		 "optdone": 1, 
		 "sigma_profile": "yes", 
		 "theory": "DFT", 
		 "functional": "B3LYP", 
		 "basiset": "6-31G**", 
		 "properties": { 
			 "R2extent": 2836.1133, 
			 "electric_dipole_moment_norm": 2.51563217105, 
			 "electric_quadrupole_moment_norm": 8.34158166896, 
			 "total_energy": -7792.22600317, 
			 "HOMO_LUMO_gap": 0.22699, 
			 "cosmo_polarized_energy": -7.77, 
			 "cosmo_cavitation_energy": 18.27, 
			 "cosmo_dispersion_energy": -14.73, 
			 "cosmo_repulsion_energy": 1.27, 
			 "cosmo_total_nonelectrostatic_energy": 4.81, 
			 "SMD_solvation_energy": -0.28 
		},
		"coords": [
			{
				"x": -2.1743000139,
				"y": -2.845565892,
				"z": -0.7441917054,
				"element": "Br" 
			},
			{
				"x": -1.3525573019,
				"y": -1.5022294591,
				"z": -1.9108831083,
				"element": "C" 
			},
			{
				"x": -0.417503417,
				"y": -0.5303433686,
				"z": -1.2189301587,
				"element": "C" 
			},
			{
				"x": -1.3410843267,
				"y": 0.5883517862,
				"z": 0.1012665236,
				"element": "Br" 
			},
			{
				"x": 1.1543183014,
				"y": -1.4183420366,
				"z": -0.452064573,
				"element": "Br" 
			},
			{
				"x": -2.1756323575,
				"y": -0.9518073115,
				"z": -2.3675162562,
				"element": "H" 
			},
			{
				"x": -0.8024327573,
				"y": -2.056274239,
				"z": -2.6720203625,
				"element": "H" 
			},
			{
				"x": -0.0189081271,
				"y": 0.1677105205,
				"z": -1.9528603596,
				"element": "H" 
			}
		],
		 "valence_orbital": [ 
			{
				"type": "occ",
				"energy": -0.30268,
				"method": "rhf"
			},
			{
				"type": "occ",
				"energy": -0.29508,
				"method": "rhf"
			},
			{
				"type": "occ",
				"energy": -0.2836,
				"method": "rhf"
			},
			{
				"type": "occ",
				"energy": -0.28331,
				"method": "rhf"
			},
			{
				"type": "occ",
				"energy": -0.27948,
				"method": "rhf"
			},
			{
				"type": "unocc",
				"energy": -0.05249,
				"method": "rhf"
			},
			{
				"type": "unocc",
				"energy": -0.00258,
				"method": "rhf"
			},
			{
				"type": "unocc",
				"energy": 0.00019,
				"method": "rhf"
			},
			{
				"type": "unocc",
				"energy": 0.07825,
				"method": "rhf"
			},
			{
				"type": "unocc",
				"energy": 0.12607,
				"method": "rhf"
			}
		],
		"cosmo_sigma_profile": { 
			"-0.025": 0.0,
			"-0.024": 0.0,
			"-0.023": 0.0,
			"-0.022": 0.0,
			"-0.021": 0.0,
			"-0.02": 0.0,
			"-0.019": 0.0,
			"-0.018": 0.0,
			"-0.017": 0.0,
			"-0.016": 0.0,
			"-0.015": 0.0,
			"-0.014": 0.0,
			"-0.013": 0.0,
			"-0.012": 0.422229687859,
			"-0.011": 3.50112688894,
			"-0.01": 2.97497624573,
			"-0.009": 7.29311567042,
			"-0.008": 5.44741707257,
			"-0.007": 4.20841941919,
			"-0.006": 4.23336525999,
			"-0.005": 4.03004016625,
			"-0.004": 6.64288081316,
			"-0.003": 6.86015423122,
			"-0.002": 6.18553287585,
			"-0.001": 7.44159755321,
			"0.0": 7.61738505262,
			"0.001": 9.45143612403,
			"0.002": 11.5755097789,
			"0.003": 13.3624471794,
			"0.004": 26.9272467396,
			"0.005": 16.9570766477,
			"0.006": 8.70621742067,
			"0.007": 0.926708429768,
			"0.008": 0.0,
			"0.009": 0.0,
			"0.01": 0.0,
			"0.011": 0.0,
			"0.012": 0.0,
			"0.013": 0.0,
			"0.014": 0.0,
			"0.015": 0.0,
			"0.016": 0.0,
			"0.017": 0.0,
			"0.018": 0.0,
			"0.019": 0.0,
			"0.02": 0.0,
			"0.021": 0.0,
			"0.022": 0.0,
			"0.023": 0.0,
			"0.024": 0.0,
			"0.025": 0.0
		}
	}
}
