{
	 "smiles": "CC(=O)N1C(=O)[C@@]2(OC[C@]2(Cl)C2=CC=C(Br)C=C2)C2=CC=CC=C12", 
	 "Tm": 382.0, 
	 "num_atms": 37, 
	 "gaussian": { 
		 "optdone": 1, 
		 "sigma_profile": "yes", 
		 "theory": "DFT", 
		 "functional": "B3LYP", 
		 "basiset": "6-31G**", 
		 "properties": { 
			 "R2extent": 11717.927, 
			 "electric_dipole_moment_norm": 4.32522821941, 
			 "electric_quadrupole_moment_norm": 26.6294842038, 
			 "total_energy": -4005.73623681, 
			 "HOMO_LUMO_gap": 0.18352, 
			 "cosmo_polarized_energy": -20.29, 
			 "cosmo_cavitation_energy": 44.51, 
			 "cosmo_dispersion_energy": -30.16, 
			 "cosmo_repulsion_energy": 2.28, 
			 "cosmo_total_nonelectrostatic_energy": 16.63, 
			 "SMD_solvation_energy": 7.17 
		},
		"coords": [
			{
				"x": 2.2847164115,
				"y": -2.6754868571,
				"z": 0.3241696156,
				"element": "C" 
			},
			{
				"x": 1.1280173404,
				"y": -2.0956587386,
				"z": 1.1181957359,
				"element": "C" 
			},
			{
				"x": 0.4823474322,
				"y": -2.767766255,
				"z": 1.8885140256,
				"element": "O" 
			},
			{
				"x": 0.7848310365,
				"y": -0.7333807714,
				"z": 0.8737805674,
				"element": "N" 
			},
			{
				"x": -0.532349252,
				"y": -0.2407240709,
				"z": 1.0940939389,
				"element": "C" 
			},
			{
				"x": -1.4451319079,
				"y": -0.8071375016,
				"z": 1.6367957136,
				"element": "O" 
			},
			{
				"x": -0.6055898049,
				"y": 1.1754593869,
				"z": 0.4550578297,
				"element": "C" 
			},
			{
				"x": -1.2911936758,
				"y": 2.0994689197,
				"z": 1.3134538513,
				"element": "O" 
			},
			{
				"x": -2.5353925839,
				"y": 1.9234209627,
				"z": 0.5944269783,
				"element": "C" 
			},
			{
				"x": -1.8016106317,
				"y": 1.2582791037,
				"z": -0.5870069401,
				"element": "C" 
			},
			{
				"x": -1.465611259,
				"y": 2.5161378582,
				"z": -1.8867591454,
				"element": "Cl" 
			},
			{
				"x": -2.3199067811,
				"y": 0.0148110399,
				"z": -1.2558570505,
				"element": "C" 
			},
			{
				"x": -1.4659962232,
				"y": -0.7480453226,
				"z": -2.066295542,
				"element": "C" 
			},
			{
				"x": -1.9207725938,
				"y": -1.9003975917,
				"z": -2.7002781013,
				"element": "C" 
			},
			{
				"x": -3.2494990591,
				"y": -2.2909939953,
				"z": -2.5294173255,
				"element": "C" 
			},
			{
				"x": -3.8830958123,
				"y": -3.8671114147,
				"z": -3.39929762,
				"element": "Br" 
			},
			{
				"x": -4.1190220669,
				"y": -1.5460231943,
				"z": -1.7377071464,
				"element": "C" 
			},
			{
				"x": -3.6477760548,
				"y": -0.3957965086,
				"z": -1.1037799124,
				"element": "C" 
			},
			{
				"x": 0.8194885806,
				"y": 1.4701010983,
				"z": 0.1354025601,
				"element": "C" 
			},
			{
				"x": 1.4093591597,
				"y": 2.6684772101,
				"z": -0.2466551006,
				"element": "C" 
			},
			{
				"x": 2.7932319589,
				"y": 2.7123935678,
				"z": -0.4406630187,
				"element": "C" 
			},
			{
				"x": 3.5618103103,
				"y": 1.5685801602,
				"z": -0.2248395938,
				"element": "C" 
			},
			{
				"x": 2.9823121019,
				"y": 0.3645250554,
				"z": 0.1947238182,
				"element": "C" 
			},
			{
				"x": 1.5999845194,
				"y": 0.3226344251,
				"z": 0.3646224276,
				"element": "C" 
			},
			{
				"x": 2.4234516404,
				"y": -2.2025663062,
				"z": -0.649849821,
				"element": "H" 
			},
			{
				"x": 2.0777715536,
				"y": -3.7394567262,
				"z": 0.1996779875,
				"element": "H" 
			},
			{
				"x": 3.2166451904,
				"y": -2.587787355,
				"z": 0.8927278192,
				"element": "H" 
			},
			{
				"x": -3.0333785197,
				"y": 2.8736695912,
				"z": 0.3906715527,
				"element": "H" 
			},
			{
				"x": -3.1994249291,
				"y": 1.2358369152,
				"z": 1.1271102696,
				"element": "H" 
			},
			{
				"x": -0.4387922742,
				"y": -0.4288196646,
				"z": -2.2176542926,
				"element": "H" 
			},
			{
				"x": -1.2561094518,
				"y": -2.4865742465,
				"z": -3.3243512331,
				"element": "H" 
			},
			{
				"x": -5.1491711388,
				"y": -1.8588553274,
				"z": -1.6133757267,
				"element": "H" 
			},
			{
				"x": -4.3320322297,
				"y": 0.1767957074,
				"z": -0.4865484445,
				"element": "H" 
			},
			{
				"x": 0.7972428404,
				"y": 3.5524740071,
				"z": -0.3796337242,
				"element": "H" 
			},
			{
				"x": 3.2699735644,
				"y": 3.6385241719,
				"z": -0.7449644572,
				"element": "H" 
			},
			{
				"x": 4.6383532327,
				"y": 1.6088224658,
				"z": -0.3621938345,
				"element": "H" 
			},
			{
				"x": 3.6148193764,
				"y": -0.4870297989,
				"z": 0.4027033393,
				"element": "H" 
			}
		],
		 "valence_orbital": [ 
			{
				"type": "occ",
				"energy": -0.27406,
				"method": "rhf"
			},
			{
				"type": "occ",
				"energy": -0.27278,
				"method": "rhf"
			},
			{
				"type": "occ",
				"energy": -0.25046,
				"method": "rhf"
			},
			{
				"type": "occ",
				"energy": -0.24683,
				"method": "rhf"
			},
			{
				"type": "occ",
				"energy": -0.24153,
				"method": "rhf"
			},
			{
				"type": "unocc",
				"energy": -0.05801,
				"method": "rhf"
			},
			{
				"type": "unocc",
				"energy": -0.04436,
				"method": "rhf"
			},
			{
				"type": "unocc",
				"energy": -0.03189,
				"method": "rhf"
			},
			{
				"type": "unocc",
				"energy": -0.02536,
				"method": "rhf"
			},
			{
				"type": "unocc",
				"energy": -0.01731,
				"method": "rhf"
			}
		],
		"cosmo_sigma_profile": { 
			"-0.025": 0.0,
			"-0.024": 0.0,
			"-0.023": 0.0,
			"-0.022": 0.0,
			"-0.021": 0.0,
			"-0.02": 0.0,
			"-0.019": 0.0,
			"-0.018": 0.0,
			"-0.017": 0.0,
			"-0.016": 0.0,
			"-0.015": 0.0,
			"-0.014": 0.0,
			"-0.013": 0.0,
			"-0.012": 0.0,
			"-0.011": 0.0,
			"-0.01": 0.349928305562,
			"-0.009": 3.92038213771,
			"-0.008": 7.55260312044,
			"-0.007": 16.6754036238,
			"-0.006": 27.3700083425,
			"-0.005": 26.024338971,
			"-0.004": 26.6701695772,
			"-0.003": 21.7645887731,
			"-0.002": 22.1403948506,
			"-0.001": 18.7469805193,
			"0.0": 20.131151936,
			"0.001": 26.7597040684,
			"0.002": 31.4877175862,
			"0.003": 29.6313071314,
			"0.004": 28.8885690814,
			"0.005": 14.3934380913,
			"0.006": 4.57113438876,
			"0.007": 3.66151454057,
			"0.008": 4.52131527213,
			"0.009": 4.97686540157,
			"0.01": 5.90413517355,
			"0.011": 7.4397443582,
			"0.012": 4.03785175654,
			"0.013": 1.79069406759,
			"0.014": 1.32328618789,
			"0.015": 1.0331527113,
			"0.016": 0.089869628941,
			"0.017": 0.0,
			"0.018": 0.0,
			"0.019": 0.0,
			"0.02": 0.0,
			"0.021": 0.0,
			"0.022": 0.0,
			"0.023": 0.0,
			"0.024": 0.0,
			"0.025": 0.0
		}
	}
}
