{
	 "smiles": "NC1=NN=C(N1)C1=COC=C1", 
	 "Tm": 462.15, 
	 "num_atms": 17, 
	 "gaussian": { 
		 "optdone": 1, 
		 "sigma_profile": "yes", 
		 "theory": "DFT", 
		 "functional": "B3LYP", 
		 "basiset": "6-31G**", 
		 "properties": { 
			 "R2extent": 2061.2051, 
			 "electric_dipole_moment_norm": 4.61606927808, 
			 "electric_quadrupole_moment_norm": 15.6679306304, 
			 "total_energy": -526.434731406, 
			 "HOMO_LUMO_gap": 0.19426, 
			 "cosmo_polarized_energy": -23.68, 
			 "cosmo_cavitation_energy": 22.38, 
			 "cosmo_dispersion_energy": -16.81, 
			 "cosmo_repulsion_energy": 1.34, 
			 "cosmo_total_nonelectrostatic_energy": 6.91, 
			 "SMD_solvation_energy": 3.03 
		},
		"coords": [
			{
				"x": 2.5315709419,
				"y": 0.4737516054,
				"z": 2.4454792748,
				"element": "N" 
			},
			{
				"x": 1.2635218239,
				"y": 0.5881309647,
				"z": 1.8886597058,
				"element": "C" 
			},
			{
				"x": 0.3266030988,
				"y": 1.4357583112,
				"z": 2.2445201527,
				"element": "N" 
			},
			{
				"x": -0.7297130992,
				"y": 1.271608745,
				"z": 1.3645746452,
				"element": "N" 
			},
			{
				"x": -0.4098360804,
				"y": 0.3217791111,
				"z": 0.5148784605,
				"element": "C" 
			},
			{
				"x": 0.8571927541,
				"y": -0.1516472802,
				"z": 0.8086665782,
				"element": "N" 
			},
			{
				"x": -1.2552254991,
				"y": -0.1676605878,
				"z": -0.5566829988,
				"element": "C" 
			},
			{
				"x": -1.0310154972,
				"y": -1.1925662734,
				"z": -1.4365018851,
				"element": "C" 
			},
			{
				"x": -2.0807011383,
				"y": -1.3267065949,
				"z": -2.2915968578,
				"element": "O" 
			},
			{
				"x": -2.9936944275,
				"y": -0.3687199247,
				"z": -1.9503337202,
				"element": "C" 
			},
			{
				"x": -2.5479202087,
				"y": 0.367409086,
				"z": -0.9015601762,
				"element": "C" 
			},
			{
				"x": 2.6234645098,
				"y": 1.1299857222,
				"z": 3.2132173619,
				"element": "H" 
			},
			{
				"x": 2.7571804375,
				"y": -0.4639587831,
				"z": 2.7620077139,
				"element": "H" 
			},
			{
				"x": 1.4241982281,
				"y": -0.7829461073,
				"z": 0.264267329,
				"element": "H" 
			},
			{
				"x": -0.2224410143,
				"y": -1.8935252997,
				"z": -1.5771195356,
				"element": "H" 
			},
			{
				"x": -3.8931434145,
				"y": -0.3467713319,
				"z": -2.5453652076,
				"element": "H" 
			},
			{
				"x": -3.0416414149,
				"y": 1.1910786372,
				"z": -0.4092108403,
				"element": "H" 
			}
		],
		 "valence_orbital": [ 
			{
				"type": "occ",
				"energy": -0.297,
				"method": "rhf"
			},
			{
				"type": "occ",
				"energy": -0.28855,
				"method": "rhf"
			},
			{
				"type": "occ",
				"energy": -0.24829,
				"method": "rhf"
			},
			{
				"type": "occ",
				"energy": -0.24426,
				"method": "rhf"
			},
			{
				"type": "occ",
				"energy": -0.20913,
				"method": "rhf"
			},
			{
				"type": "unocc",
				"energy": -0.01487,
				"method": "rhf"
			},
			{
				"type": "unocc",
				"energy": 0.02763,
				"method": "rhf"
			},
			{
				"type": "unocc",
				"energy": 0.05216,
				"method": "rhf"
			},
			{
				"type": "unocc",
				"energy": 0.05386,
				"method": "rhf"
			},
			{
				"type": "unocc",
				"energy": 0.0819,
				"method": "rhf"
			}
		],
		"cosmo_sigma_profile": { 
			"-0.025": 0.0,
			"-0.024": 0.0,
			"-0.023": 0.0,
			"-0.022": 0.0,
			"-0.021": 0.0,
			"-0.02": 0.0,
			"-0.019": 0.0,
			"-0.018": 0.0292085414983,
			"-0.017": 1.03111740374,
			"-0.016": 1.75127997129,
			"-0.015": 1.71615010116,
			"-0.014": 2.81341389987,
			"-0.013": 4.80899894233,
			"-0.012": 4.41790702665,
			"-0.011": 4.03477411111,
			"-0.01": 5.0508986069,
			"-0.009": 5.5146882695,
			"-0.008": 5.17758424075,
			"-0.007": 5.88483425633,
			"-0.006": 6.33565722016,
			"-0.005": 5.23769512145,
			"-0.004": 5.40399922829,
			"-0.003": 6.45212819336,
			"-0.002": 5.78495011528,
			"-0.001": 6.25886625363,
			"0.0": 9.03407802625,
			"0.001": 10.766829069,
			"0.002": 13.9154100369,
			"0.003": 13.4107838396,
			"0.004": 10.5576083473,
			"0.005": 6.22549109686,
			"0.006": 3.94872814947,
			"0.007": 5.0875025721,
			"0.008": 3.77899648883,
			"0.009": 2.25433061854,
			"0.01": 2.17561917688,
			"0.011": 2.5083218472,
			"0.012": 3.40841596294,
			"0.013": 3.15690164882,
			"0.014": 3.14264836013,
			"0.015": 3.71816533882,
			"0.016": 2.59867793958,
			"0.017": 1.8311037612,
			"0.018": 0.351981551346,
			"0.019": 0.0,
			"0.02": 0.0,
			"0.021": 0.0,
			"0.022": 0.0,
			"0.023": 0.0,
			"0.024": 0.0,
			"0.025": 0.0
		}
	}
}
