{
	 "smiles": "COC1=C(C=C(Cl)C=C1)C(C)=O", 
	 "Tm": 307.15, 
	 "num_atms": 21, 
	 "gaussian": { 
		 "optdone": 1, 
		 "sigma_profile": "yes", 
		 "theory": "DFT", 
		 "functional": "B3LYP", 
		 "basiset": "6-31G**", 
		 "properties": { 
			 "R2extent": 2968.747, 
			 "electric_dipole_moment_norm": 5.68843093744, 
			 "electric_quadrupole_moment_norm": 6.96555550907, 
			 "total_energy": -959.010803611, 
			 "HOMO_LUMO_gap": 0.17424, 
			 "cosmo_polarized_energy": -9.79, 
			 "cosmo_cavitation_energy": 26.67, 
			 "cosmo_dispersion_energy": -19.54, 
			 "cosmo_repulsion_energy": 1.55, 
			 "cosmo_total_nonelectrostatic_energy": 8.68, 
			 "SMD_solvation_energy": 5.82 
		},
		"coords": [
			{
				"x": 1.4794986956,
				"y": -3.3788110465,
				"z": -1.132100645,
				"element": "C" 
			},
			{
				"x": 0.8402735817,
				"y": -2.3687042036,
				"z": -0.3621710418,
				"element": "O" 
			},
			{
				"x": 0.9369300312,
				"y": -1.0702846442,
				"z": -0.7598471552,
				"element": "C" 
			},
			{
				"x": 0.2877619795,
				"y": -0.0877796776,
				"z": 0.0277676313,
				"element": "C" 
			},
			{
				"x": 0.3791694515,
				"y": 1.2544361147,
				"z": -0.3703226805,
				"element": "C" 
			},
			{
				"x": 1.0857238217,
				"y": 1.6209792482,
				"z": -1.5060763492,
				"element": "C" 
			},
			{
				"x": 1.179657329,
				"y": 3.312815904,
				"z": -1.9757868876,
				"element": "Cl" 
			},
			{
				"x": 1.7242284646,
				"y": 0.6544415302,
				"z": -2.2807407089,
				"element": "C" 
			},
			{
				"x": 1.6480275657,
				"y": -0.6845248126,
				"z": -1.9061989685,
				"element": "C" 
			},
			{
				"x": -0.5143722437,
				"y": -0.3350031647,
				"z": 1.2841566489,
				"element": "C" 
			},
			{
				"x": -0.702487675,
				"y": -1.7318128007,
				"z": 1.8379615119,
				"element": "C" 
			},
			{
				"x": -1.0194109207,
				"y": 0.6180111834,
				"z": 1.8607229375,
				"element": "O" 
			},
			{
				"x": 1.2630100847,
				"y": -4.3194371348,
				"z": -0.6242429692,
				"element": "H" 
			},
			{
				"x": 2.5653493453,
				"y": -3.2298094259,
				"z": -1.1701570649,
				"element": "H" 
			},
			{
				"x": 1.081866933,
				"y": -3.4191857967,
				"z": -2.1533600222,
				"element": "H" 
			},
			{
				"x": -0.1238627061,
				"y": 1.9914753019,
				"z": 0.2446312235,
				"element": "H" 
			},
			{
				"x": 2.2766703397,
				"y": 0.941598438,
				"z": -3.1688254074,
				"element": "H" 
			},
			{
				"x": 2.1490549191,
				"y": -1.4243552467,
				"z": -2.517539966,
				"element": "H" 
			},
			{
				"x": 0.2612812706,
				"y": -2.1946926431,
				"z": 2.0687538964,
				"element": "H" 
			},
			{
				"x": -1.3115539769,
				"y": -1.6562621448,
				"z": 2.7396778255,
				"element": "H" 
			},
			{
				"x": -1.1884162907,
				"y": -2.3819949785,
				"z": 1.1048981913,
				"element": "H" 
			}
		],
		 "valence_orbital": [ 
			{
				"type": "occ",
				"energy": -0.31215,
				"method": "rhf"
			},
			{
				"type": "occ",
				"energy": -0.31083,
				"method": "rhf"
			},
			{
				"type": "occ",
				"energy": -0.26848,
				"method": "rhf"
			},
			{
				"type": "occ",
				"energy": -0.2487,
				"method": "rhf"
			},
			{
				"type": "occ",
				"energy": -0.23234,
				"method": "rhf"
			},
			{
				"type": "unocc",
				"energy": -0.0581,
				"method": "rhf"
			},
			{
				"type": "unocc",
				"energy": -0.00786,
				"method": "rhf"
			},
			{
				"type": "unocc",
				"energy": 0.03045,
				"method": "rhf"
			},
			{
				"type": "unocc",
				"energy": 0.03231,
				"method": "rhf"
			},
			{
				"type": "unocc",
				"energy": 0.08469,
				"method": "rhf"
			}
		],
		"cosmo_sigma_profile": { 
			"-0.025": 0.0,
			"-0.024": 0.0,
			"-0.023": 0.0,
			"-0.022": 0.0,
			"-0.021": 0.0,
			"-0.02": 0.0,
			"-0.019": 0.0,
			"-0.018": 0.0,
			"-0.017": 0.0,
			"-0.016": 0.0,
			"-0.015": 0.0,
			"-0.014": 0.0,
			"-0.013": 0.0,
			"-0.012": 0.0,
			"-0.011": 0.0,
			"-0.01": 0.0,
			"-0.009": 0.0,
			"-0.008": 2.21597420882,
			"-0.007": 6.43111014349,
			"-0.006": 11.954167375,
			"-0.005": 14.2196353609,
			"-0.004": 17.7242680732,
			"-0.003": 16.0384551546,
			"-0.002": 14.4961796019,
			"-0.001": 17.0502883819,
			"0.0": 17.1562412553,
			"0.001": 20.872580427,
			"0.002": 24.0849407065,
			"0.003": 15.9069697572,
			"0.004": 10.869551692,
			"0.005": 9.25713615054,
			"0.006": 1.75538268247,
			"0.007": 2.0099190274,
			"0.008": 1.45097153669,
			"0.009": 1.13153895051,
			"0.01": 2.43547026821,
			"0.011": 2.65245261696,
			"0.012": 3.52938348713,
			"0.013": 1.5340211079,
			"0.014": 0.204688571498,
			"0.015": 0.0,
			"0.016": 0.0,
			"0.017": 0.0,
			"0.018": 0.0,
			"0.019": 0.0,
			"0.02": 0.0,
			"0.021": 0.0,
			"0.022": 0.0,
			"0.023": 0.0,
			"0.024": 0.0,
			"0.025": 0.0
		}
	}
}
