{
	 "smiles": "CCOC(=O)C1=C(C)C2=C(S1)N=C(Cl)C=C2C", 
	 "Tm": 399.15, 
	 "num_atms": 29, 
	 "gaussian": { 
		 "optdone": 1, 
		 "sigma_profile": "yes", 
		 "theory": "DFT", 
		 "functional": "B3LYP", 
		 "basiset": "6-31G**", 
		 "properties": { 
			 "R2extent": 6700.2384, 
			 "electric_dipole_moment_norm": 3.08539951546, 
			 "electric_quadrupole_moment_norm": 28.3417277476, 
			 "total_energy": -1528.11934178, 
			 "HOMO_LUMO_gap": 0.16481, 
			 "cosmo_polarized_energy": -10.25, 
			 "cosmo_cavitation_energy": 35.71, 
			 "cosmo_dispersion_energy": -26.65, 
			 "cosmo_repulsion_energy": 2.03, 
			 "cosmo_total_nonelectrostatic_energy": 11.09, 
			 "SMD_solvation_energy": 4.86 
		},
		"coords": [
			{
				"x": -4.1318593776,
				"y": -2.1025161669,
				"z": -1.1009114496,
				"element": "C" 
			},
			{
				"x": -3.6477025286,
				"y": -1.7904884503,
				"z": 0.3068512324,
				"element": "C" 
			},
			{
				"x": -2.4690176198,
				"y": -0.9493898143,
				"z": 0.283114886,
				"element": "O" 
			},
			{
				"x": -1.2738194826,
				"y": -1.5719654148,
				"z": 0.1572575347,
				"element": "C" 
			},
			{
				"x": -1.1543089927,
				"y": -2.7816558163,
				"z": 0.07392655,
				"element": "O" 
			},
			{
				"x": -0.1747749331,
				"y": -0.5832420369,
				"z": 0.1425168073,
				"element": "C" 
			},
			{
				"x": 1.1787782134,
				"y": -0.8247985099,
				"z": 0.0331479825,
				"element": "C" 
			},
			{
				"x": 1.782308042,
				"y": -2.1989117889,
				"z": -0.0929482501,
				"element": "C" 
			},
			{
				"x": 1.939329469,
				"y": 0.4092459907,
				"z": 0.0559226609,
				"element": "C" 
			},
			{
				"x": 1.0986247316,
				"y": 1.5462968865,
				"z": 0.1836105792,
				"element": "C" 
			},
			{
				"x": -0.5905683892,
				"y": 1.1232216358,
				"z": 0.2757738085,
				"element": "S" 
			},
			{
				"x": 1.4904356886,
				"y": 2.8234299339,
				"z": 0.2340572595,
				"element": "N" 
			},
			{
				"x": 2.7879173797,
				"y": 3.0136314756,
				"z": 0.1555469683,
				"element": "C" 
			},
			{
				"x": 3.3530010416,
				"y": 4.6788963692,
				"z": 0.2176780253,
				"element": "Cl" 
			},
			{
				"x": 3.7445375442,
				"y": 1.9925274936,
				"z": 0.0272031777,
				"element": "C" 
			},
			{
				"x": 3.3376537277,
				"y": 0.663172318,
				"z": -0.0254551382,
				"element": "C" 
			},
			{
				"x": 4.3874774934,
				"y": -0.4121138903,
				"z": -0.1633660154,
				"element": "C" 
			},
			{
				"x": -5.0652723492,
				"y": -2.6731231002,
				"z": -1.0524342752,
				"element": "H" 
			},
			{
				"x": -4.3201679245,
				"y": -1.1821813415,
				"z": -1.6611941619,
				"element": "H" 
			},
			{
				"x": -3.3923374727,
				"y": -2.7008170449,
				"z": -1.6386039179,
				"element": "H" 
			},
			{
				"x": -3.4139837957,
				"y": -2.7044491744,
				"z": 0.8576130921,
				"element": "H" 
			},
			{
				"x": -4.3825871955,
				"y": -1.2061616478,
				"z": 0.8649708072,
				"element": "H" 
			},
			{
				"x": 2.3555833894,
				"y": -2.2906128857,
				"z": -1.0213634284,
				"element": "H" 
			},
			{
				"x": 1.0044001149,
				"y": -2.9587290864,
				"z": -0.0895926797,
				"element": "H" 
			},
			{
				"x": 2.4699910104,
				"y": -2.4012529652,
				"z": 0.7348668523,
				"element": "H" 
			},
			{
				"x": 4.7956644369,
				"y": 2.2490571024,
				"z": -0.029919773,
				"element": "H" 
			},
			{
				"x": 5.3841814511,
				"y": 0.0332127385,
				"z": -0.2029835434,
				"element": "H" 
			},
			{
				"x": 4.3641976614,
				"y": -1.109484085,
				"z": 0.6791298258,
				"element": "H" 
			},
			{
				"x": 4.2457186659,
				"y": -1.0000987247,
				"z": -1.0749154169,
				"element": "H" 
			}
		],
		 "valence_orbital": [ 
			{
				"type": "occ",
				"energy": -0.3051,
				"method": "rhf"
			},
			{
				"type": "occ",
				"energy": -0.28774,
				"method": "rhf"
			},
			{
				"type": "occ",
				"energy": -0.27654,
				"method": "rhf"
			},
			{
				"type": "occ",
				"energy": -0.25084,
				"method": "rhf"
			},
			{
				"type": "occ",
				"energy": -0.23529,
				"method": "rhf"
			},
			{
				"type": "unocc",
				"energy": -0.07048,
				"method": "rhf"
			},
			{
				"type": "unocc",
				"energy": -0.03031,
				"method": "rhf"
			},
			{
				"type": "unocc",
				"energy": -0.00225,
				"method": "rhf"
			},
			{
				"type": "unocc",
				"energy": 0.01902,
				"method": "rhf"
			},
			{
				"type": "unocc",
				"energy": 0.03622,
				"method": "rhf"
			}
		],
		"cosmo_sigma_profile": { 
			"-0.025": 0.0,
			"-0.024": 0.0,
			"-0.023": 0.0,
			"-0.022": 0.0,
			"-0.021": 0.0,
			"-0.02": 0.0,
			"-0.019": 0.0,
			"-0.018": 0.0,
			"-0.017": 0.0,
			"-0.016": 0.0,
			"-0.015": 0.0,
			"-0.014": 0.0,
			"-0.013": 0.0,
			"-0.012": 0.0,
			"-0.011": 0.0,
			"-0.01": 0.0,
			"-0.009": 0.00390577034814,
			"-0.008": 1.67514315977,
			"-0.007": 4.68236677612,
			"-0.006": 12.0359565875,
			"-0.005": 14.2324756577,
			"-0.004": 20.4666994116,
			"-0.003": 23.2777460279,
			"-0.002": 26.8778836546,
			"-0.001": 34.8549001348,
			"0.0": 40.7158452793,
			"0.001": 25.1471501279,
			"0.002": 16.908447149,
			"0.003": 17.2519403018,
			"0.004": 19.6273476278,
			"0.005": 9.46924479933,
			"0.006": 4.68336558797,
			"0.007": 2.43328102229,
			"0.008": 3.17530141176,
			"0.009": 3.05228156965,
			"0.01": 3.30700292669,
			"0.011": 2.9890563318,
			"0.012": 1.80816292889,
			"0.013": 0.442233865467,
			"0.014": 0.0,
			"0.015": 0.0,
			"0.016": 0.0,
			"0.017": 0.0,
			"0.018": 0.0,
			"0.019": 0.0,
			"0.02": 0.0,
			"0.021": 0.0,
			"0.022": 0.0,
			"0.023": 0.0,
			"0.024": 0.0,
			"0.025": 0.0
		}
	}
}
