{
	 "smiles": "OC(=O)C(NC(=O)CC1=CC=C(Br)C=C1)C1=CC=CC=C1", 
	 "Tm": 451.15, 
	 "num_atms": 35, 
	 "gaussian": { 
		 "optdone": 1, 
		 "sigma_profile": "yes", 
		 "theory": "DFT", 
		 "functional": "B3LYP", 
		 "basiset": "6-31G**", 
		 "properties": { 
			 "R2extent": 10520.0188, 
			 "electric_dipole_moment_norm": 6.42444187615, 
			 "electric_quadrupole_moment_norm": 15.7757144387, 
			 "total_energy": -3469.99174383, 
			 "HOMO_LUMO_gap": 0.19878, 
			 "cosmo_polarized_energy": -20.5, 
			 "cosmo_cavitation_energy": 41.98, 
			 "cosmo_dispersion_energy": -28.5, 
			 "cosmo_repulsion_energy": 2.21, 
			 "cosmo_total_nonelectrostatic_energy": 15.69, 
			 "SMD_solvation_energy": 7.16 
		},
		"coords": [
			{
				"x": 0.8286183774,
				"y": 2.6741479591,
				"z": 1.772230633,
				"element": "O" 
			},
			{
				"x": -0.2345022755,
				"y": 1.8593954688,
				"z": 1.6670957986,
				"element": "C" 
			},
			{
				"x": -1.333173105,
				"y": 2.2083827177,
				"z": 2.0228474273,
				"element": "O" 
			},
			{
				"x": 0.0423999509,
				"y": 0.4714107626,
				"z": 1.0294098595,
				"element": "C" 
			},
			{
				"x": -1.1747396022,
				"y": -0.300151422,
				"z": 1.1720901665,
				"element": "N" 
			},
			{
				"x": -1.5768129376,
				"y": -1.3810795499,
				"z": 0.4232657828,
				"element": "C" 
			},
			{
				"x": -2.7251309312,
				"y": -1.7988051037,
				"z": 0.491788609,
				"element": "O" 
			},
			{
				"x": -0.5510654856,
				"y": -2.0297934988,
				"z": -0.5078179145,
				"element": "C" 
			},
			{
				"x": -0.5147580097,
				"y": -1.3583895329,
				"z": -1.8726479035,
				"element": "C" 
			},
			{
				"x": -1.7028525868,
				"y": -1.0884917265,
				"z": -2.5679872649,
				"element": "C" 
			},
			{
				"x": -1.6767286181,
				"y": -0.4927486663,
				"z": -3.8277014456,
				"element": "C" 
			},
			{
				"x": -0.4492001741,
				"y": -0.1629174526,
				"z": -4.4022307094,
				"element": "C" 
			},
			{
				"x": -0.4057110093,
				"y": 0.6548612036,
				"z": -6.1297176169,
				"element": "Br" 
			},
			{
				"x": 0.7457516122,
				"y": -0.421247746,
				"z": -3.7359083812,
				"element": "C" 
			},
			{
				"x": 0.7033338074,
				"y": -1.0166354808,
				"z": -2.4732430341,
				"element": "C" 
			},
			{
				"x": 1.2891625645,
				"y": -0.161724245,
				"z": 1.645181784,
				"element": "C" 
			},
			{
				"x": 2.5324251113,
				"y": -0.0162972422,
				"z": 1.0123331802,
				"element": "C" 
			},
			{
				"x": 3.6933775974,
				"y": -0.5286744785,
				"z": 1.5998133899,
				"element": "C" 
			},
			{
				"x": 3.6176608712,
				"y": -1.1981147084,
				"z": 2.8206112126,
				"element": "C" 
			},
			{
				"x": 2.3791162064,
				"y": -1.355708916,
				"z": 3.4503265795,
				"element": "C" 
			},
			{
				"x": 1.2219130486,
				"y": -0.839450473,
				"z": 2.8696389836,
				"element": "C" 
			},
			{
				"x": 1.6446358175,
				"y": 2.1878064801,
				"z": 1.5687706624,
				"element": "H" 
			},
			{
				"x": 0.2542816359,
				"y": 0.6753683457,
				"z": -0.0316658839,
				"element": "H" 
			},
			{
				"x": -1.9313961956,
				"y": 0.1958005471,
				"z": 1.6351776015,
				"element": "H" 
			},
			{
				"x": -0.8716437158,
				"y": -3.0707117471,
				"z": -0.6130613693,
				"element": "H" 
			},
			{
				"x": 0.4485086463,
				"y": -2.0310832755,
				"z": -0.065274243,
				"element": "H" 
			},
			{
				"x": -2.6546948644,
				"y": -1.3472419414,
				"z": -2.1135138347,
				"element": "H" 
			},
			{
				"x": -2.599524805,
				"y": -0.2868488569,
				"z": -4.3581341261,
				"element": "H" 
			},
			{
				"x": 1.6939686306,
				"y": -0.1640848779,
				"z": -4.1943829062,
				"element": "H" 
			},
			{
				"x": 1.6360510919,
				"y": -1.2291259379,
				"z": -1.9565539073,
				"element": "H" 
			},
			{
				"x": 2.5907104748,
				"y": 0.4761293759,
				"z": 0.0430130587,
				"element": "H" 
			},
			{
				"x": 4.6487313725,
				"y": -0.4149265294,
				"z": 1.0961392158,
				"element": "H" 
			},
			{
				"x": 4.5160721988,
				"y": -1.6023633744,
				"z": 3.2770504152,
				"element": "H" 
			},
			{
				"x": 2.3157584603,
				"y": -1.8812068095,
				"z": 4.3986096776,
				"element": "H" 
			},
			{
				"x": 0.2583568399,
				"y": -0.9677792681,
				"z": 3.3531465028,
				"element": "H" 
			}
		],
		 "valence_orbital": [ 
			{
				"type": "occ",
				"energy": -0.27572,
				"method": "rhf"
			},
			{
				"type": "occ",
				"energy": -0.26926,
				"method": "rhf"
			},
			{
				"type": "occ",
				"energy": -0.2618,
				"method": "rhf"
			},
			{
				"type": "occ",
				"energy": -0.25517,
				"method": "rhf"
			},
			{
				"type": "occ",
				"energy": -0.24041,
				"method": "rhf"
			},
			{
				"type": "unocc",
				"energy": -0.04163,
				"method": "rhf"
			},
			{
				"type": "unocc",
				"energy": -0.03655,
				"method": "rhf"
			},
			{
				"type": "unocc",
				"energy": -0.02304,
				"method": "rhf"
			},
			{
				"type": "unocc",
				"energy": -0.02181,
				"method": "rhf"
			},
			{
				"type": "unocc",
				"energy": -0.00458,
				"method": "rhf"
			}
		],
		"cosmo_sigma_profile": { 
			"-0.025": 0.0,
			"-0.024": 0.0,
			"-0.023": 0.0,
			"-0.022": 0.0,
			"-0.021": 0.0,
			"-0.02": 0.0,
			"-0.019": 0.0,
			"-0.018": 0.0,
			"-0.017": 0.0,
			"-0.016": 0.0374388682925,
			"-0.015": 0.84293991856,
			"-0.014": 1.43261342833,
			"-0.013": 1.21125460769,
			"-0.012": 1.33992328953,
			"-0.011": 1.60604078987,
			"-0.01": 1.18607899305,
			"-0.009": 2.28095079396,
			"-0.008": 3.76120845882,
			"-0.007": 7.48815810048,
			"-0.006": 20.5946713403,
			"-0.005": 26.7687347291,
			"-0.004": 29.1523290103,
			"-0.003": 24.0700475092,
			"-0.002": 24.357294689,
			"-0.001": 19.8661967716,
			"0.0": 20.5200246546,
			"0.001": 21.6878195392,
			"0.002": 25.1503675661,
			"0.003": 28.6758065327,
			"0.004": 24.8268366671,
			"0.005": 12.0344297596,
			"0.006": 3.91818529509,
			"0.007": 4.18204202822,
			"0.008": 4.82083086149,
			"0.009": 5.88563484266,
			"0.01": 5.17455152178,
			"0.011": 4.94997876958,
			"0.012": 2.98180950795,
			"0.013": 4.55788396807,
			"0.014": 3.14815772131,
			"0.015": 0.231467927474,
			"0.016": 0.0,
			"0.017": 0.0,
			"0.018": 0.0,
			"0.019": 0.0,
			"0.02": 0.0,
			"0.021": 0.0,
			"0.022": 0.0,
			"0.023": 0.0,
			"0.024": 0.0,
			"0.025": 0.0
		}
	}
}
