{
	 "smiles": "COC(=O)C1=CC=C(C(O)=O)C(=C1)[N+]([O-])=O", 
	 "Tm": 407.15, 
	 "num_atms": 23, 
	 "gaussian": { 
		 "optdone": 1, 
		 "sigma_profile": "yes", 
		 "theory": "DFT", 
		 "functional": "B3LYP", 
		 "basiset": "6-31G**", 
		 "properties": { 
			 "R2extent": 4630.199, 
			 "electric_dipole_moment_norm": 6.57062161823, 
			 "electric_quadrupole_moment_norm": 9.4317589526, 
			 "total_energy": -853.181778787, 
			 "HOMO_LUMO_gap": 0.18434, 
			 "cosmo_polarized_energy": -17.26, 
			 "cosmo_cavitation_energy": 29.98, 
			 "cosmo_dispersion_energy": -21.37, 
			 "cosmo_repulsion_energy": 1.68, 
			 "cosmo_total_nonelectrostatic_energy": 10.29, 
			 "SMD_solvation_energy": 10.14 
		},
		"coords": [
			{
				"x": 4.1011097005,
				"y": -0.3907257622,
				"z": 2.4630199377,
				"element": "C" 
			},
			{
				"x": 2.6679166768,
				"y": -0.3275074352,
				"z": 2.3497960479,
				"element": "O" 
			},
			{
				"x": 2.2048527596,
				"y": 0.1833443953,
				"z": 1.1913506963,
				"element": "C" 
			},
			{
				"x": 2.9192113443,
				"y": 0.5710232503,
				"z": 0.289893773,
				"element": "O" 
			},
			{
				"x": 0.710619362,
				"y": 0.2161992891,
				"z": 1.1461407582,
				"element": "C" 
			},
			{
				"x": -0.0885993238,
				"y": -0.216094094,
				"z": 2.2100794711,
				"element": "C" 
			},
			{
				"x": -1.4780082623,
				"y": -0.1610703873,
				"z": 2.1082425557,
				"element": "C" 
			},
			{
				"x": -2.095732149,
				"y": 0.3266374832,
				"z": 0.9519292684,
				"element": "C" 
			},
			{
				"x": -3.5874809289,
				"y": 0.2064701643,
				"z": 0.8189595069,
				"element": "C" 
			},
			{
				"x": -4.2241187466,
				"y": 0.7155768923,
				"z": 1.8946890698,
				"element": "O" 
			},
			{
				"x": -4.1464841235,
				"y": -0.3545147556,
				"z": -0.093133359,
				"element": "O" 
			},
			{
				"x": -1.2736702982,
				"y": 0.7746043504,
				"z": -0.0921286133,
				"element": "C" 
			},
			{
				"x": 0.1098869679,
				"y": 0.7156553521,
				"z": -0.0140046638,
				"element": "C" 
			},
			{
				"x": -1.8575488543,
				"y": 1.4148444625,
				"z": -1.2862252705,
				"element": "N" 
			},
			{
				"x": -1.2297137963,
				"y": 1.3228578814,
				"z": -2.3372163538,
				"element": "O" 
			},
			{
				"x": -2.9092762967,
				"y": 2.0305979006,
				"z": -1.1327853298,
				"element": "O" 
			},
			{
				"x": 4.298373729,
				"y": -0.8232129183,
				"z": 3.4433182392,
				"element": "H" 
			},
			{
				"x": 4.534373891,
				"y": 0.6093559715,
				"z": 2.3876375967,
				"element": "H" 
			},
			{
				"x": 4.518883972,
				"y": -1.0184867358,
				"z": 1.6725361098,
				"element": "H" 
			},
			{
				"x": 0.3784713838,
				"y": -0.5964335308,
				"z": 3.1107294659,
				"element": "H" 
			},
			{
				"x": -2.098027132,
				"y": -0.5101604155,
				"z": 2.9265358585,
				"element": "H" 
			},
			{
				"x": -5.1725578311,
				"y": 0.5535759622,
				"z": 1.7509490418,
				"element": "H" 
			},
			{
				"x": 0.7212179557,
				"y": 1.0656626798,
				"z": -0.8366138066,
				"element": "H" 
			}
		],
		 "valence_orbital": [ 
			{
				"type": "occ",
				"energy": -0.31002,
				"method": "rhf"
			},
			{
				"type": "occ",
				"energy": -0.30203,
				"method": "rhf"
			},
			{
				"type": "occ",
				"energy": -0.2952,
				"method": "rhf"
			},
			{
				"type": "occ",
				"energy": -0.28847,
				"method": "rhf"
			},
			{
				"type": "occ",
				"energy": -0.28313,
				"method": "rhf"
			},
			{
				"type": "unocc",
				"energy": -0.09879,
				"method": "rhf"
			},
			{
				"type": "unocc",
				"energy": -0.07428,
				"method": "rhf"
			},
			{
				"type": "unocc",
				"energy": -0.0257,
				"method": "rhf"
			},
			{
				"type": "unocc",
				"energy": -0.0058,
				"method": "rhf"
			},
			{
				"type": "unocc",
				"energy": 0.04318,
				"method": "rhf"
			}
		],
		"cosmo_sigma_profile": { 
			"-0.025": 0.0,
			"-0.024": 0.0,
			"-0.023": 0.0,
			"-0.022": 0.0,
			"-0.021": 0.0,
			"-0.02": 0.0493316262358,
			"-0.019": 0.658362014543,
			"-0.018": 1.1692731965,
			"-0.017": 0.619571444499,
			"-0.016": 0.85781459357,
			"-0.015": 1.29202443964,
			"-0.014": 0.376409877009,
			"-0.013": 0.253086433247,
			"-0.012": 1.40674888297,
			"-0.011": 0.672460060606,
			"-0.01": 0.160299393606,
			"-0.009": 1.97208510587,
			"-0.008": 5.77005885337,
			"-0.007": 8.53966538878,
			"-0.006": 12.2697900923,
			"-0.005": 13.7105809568,
			"-0.004": 19.3020311984,
			"-0.003": 19.0187948639,
			"-0.002": 23.3637602885,
			"-0.001": 18.5745337907,
			"0.0": 12.734816328,
			"0.001": 8.87618786325,
			"0.002": 9.60594584639,
			"0.003": 8.33173229246,
			"0.004": 7.69740492253,
			"0.005": 8.28323453326,
			"0.006": 9.87968704014,
			"0.007": 13.1184601148,
			"0.008": 10.1950699323,
			"0.009": 5.8746667472,
			"0.01": 7.12663535649,
			"0.011": 7.55238147691,
			"0.012": 0.893176756135,
			"0.013": 0.0,
			"0.014": 0.0,
			"0.015": 0.0,
			"0.016": 0.0,
			"0.017": 0.0,
			"0.018": 0.0,
			"0.019": 0.0,
			"0.02": 0.0,
			"0.021": 0.0,
			"0.022": 0.0,
			"0.023": 0.0,
			"0.024": 0.0,
			"0.025": 0.0
		}
	}
}
