{
	 "smiles": "CN1C=NN=C1SC1=CC=C(N)C=C1", 
	 "Tm": 428.15, 
	 "num_atms": 24, 
	 "gaussian": { 
		 "optdone": 1, 
		 "sigma_profile": "yes", 
		 "theory": "DFT", 
		 "functional": "B3LYP", 
		 "basiset": "6-31G**", 
		 "properties": { 
			 "R2extent": 3497.2883, 
			 "electric_dipole_moment_norm": 7.62019342405, 
			 "electric_quadrupole_moment_norm": 13.6741043122, 
			 "total_energy": -966.146791769, 
			 "HOMO_LUMO_gap": 0.19526, 
			 "cosmo_polarized_energy": -22.5, 
			 "cosmo_cavitation_energy": 30.38, 
			 "cosmo_dispersion_energy": -21.66, 
			 "cosmo_repulsion_energy": 1.66, 
			 "cosmo_total_nonelectrostatic_energy": 10.38, 
			 "SMD_solvation_energy": 3.19 
		},
		"coords": [
			{
				"x": 1.3706321586,
				"y": -2.3750029422,
				"z": -0.1067999109,
				"element": "C" 
			},
			{
				"x": 0.4306531683,
				"y": -1.9526870066,
				"z": -1.1335681115,
				"element": "N" 
			},
			{
				"x": -0.47176316,
				"y": -2.7175989978,
				"z": -1.8123613564,
				"element": "C" 
			},
			{
				"x": -1.1716264266,
				"y": -1.9924107197,
				"z": -2.6551498865,
				"element": "N" 
			},
			{
				"x": -0.7317580091,
				"y": -0.6939245233,
				"z": -2.5338765486,
				"element": "N" 
			},
			{
				"x": 0.2216362763,
				"y": -0.6797559246,
				"z": -1.6227683671,
				"element": "C" 
			},
			{
				"x": 1.1372684069,
				"y": 0.7440342671,
				"z": -1.1216394517,
				"element": "S" 
			},
			{
				"x": 0.33489969,
				"y": 1.1408291394,
				"z": 0.4422130543,
				"element": "C" 
			},
			{
				"x": -1.0379540295,
				"y": 1.4174252705,
				"z": 0.4999647165,
				"element": "C" 
			},
			{
				"x": -1.6340321804,
				"y": 1.7710431381,
				"z": 1.7040694167,
				"element": "C" 
			},
			{
				"x": -0.8697104651,
				"y": 1.8858377628,
				"z": 2.8816051585,
				"element": "C" 
			},
			{
				"x": -1.4576522654,
				"y": 2.3060155743,
				"z": 4.0702274439,
				"element": "N" 
			},
			{
				"x": 0.5090107036,
				"y": 1.6205921773,
				"z": 2.812949661,
				"element": "C" 
			},
			{
				"x": 1.1002224454,
				"y": 1.2451348273,
				"z": 1.608918715,
				"element": "C" 
			},
			{
				"x": 2.3745035771,
				"y": -2.0212001104,
				"z": -0.3507574929,
				"element": "H" 
			},
			{
				"x": 1.0823825407,
				"y": -1.9733295308,
				"z": 0.8683029006,
				"element": "H" 
			},
			{
				"x": 1.3742851092,
				"y": -3.4652792706,
				"z": -0.0617996097,
				"element": "H" 
			},
			{
				"x": -0.5764066022,
				"y": -3.7829871706,
				"z": -1.6583451759,
				"element": "H" 
			},
			{
				"x": -1.6384826623,
				"y": 1.3422829609,
				"z": -0.4014713647,
				"element": "H" 
			},
			{
				"x": -2.7006435527,
				"y": 1.9792608348,
				"z": 1.7361362613,
				"element": "H" 
			},
			{
				"x": -2.4543341261,
				"y": 2.1608317871,
				"z": 4.145416554,
				"element": "H" 
			},
			{
				"x": -0.9647782368,
				"y": 2.0638510293,
				"z": 4.9178556565,
				"element": "H" 
			},
			{
				"x": 1.1177544231,
				"y": 1.7064328982,
				"z": 3.7096817721,
				"element": "H" 
			},
			{
				"x": 2.1652932172,
				"y": 1.0350045298,
				"z": 1.5766959657,
				"element": "H" 
			}
		],
		 "valence_orbital": [ 
			{
				"type": "occ",
				"energy": -0.26199,
				"method": "rhf"
			},
			{
				"type": "occ",
				"energy": -0.25864,
				"method": "rhf"
			},
			{
				"type": "occ",
				"energy": -0.25214,
				"method": "rhf"
			},
			{
				"type": "occ",
				"energy": -0.24436,
				"method": "rhf"
			},
			{
				"type": "occ",
				"energy": -0.20645,
				"method": "rhf"
			},
			{
				"type": "unocc",
				"energy": -0.01119,
				"method": "rhf"
			},
			{
				"type": "unocc",
				"energy": -0.00577,
				"method": "rhf"
			},
			{
				"type": "unocc",
				"energy": -0.00023,
				"method": "rhf"
			},
			{
				"type": "unocc",
				"energy": 0.03944,
				"method": "rhf"
			},
			{
				"type": "unocc",
				"energy": 0.06807,
				"method": "rhf"
			}
		],
		"cosmo_sigma_profile": { 
			"-0.025": 0.0,
			"-0.024": 0.0,
			"-0.023": 0.0,
			"-0.022": 0.0,
			"-0.021": 0.0,
			"-0.02": 0.0,
			"-0.019": 0.0,
			"-0.018": 0.0,
			"-0.017": 0.0,
			"-0.016": 0.0,
			"-0.015": 0.0,
			"-0.014": 0.0,
			"-0.013": 1.13189518308,
			"-0.012": 2.97968334885,
			"-0.011": 3.65824124606,
			"-0.01": 6.55199126812,
			"-0.009": 5.95194480739,
			"-0.008": 6.08063059373,
			"-0.007": 7.58071025954,
			"-0.006": 13.0316926943,
			"-0.005": 15.7785356712,
			"-0.004": 19.392566232,
			"-0.003": 13.9137173082,
			"-0.002": 16.047419298,
			"-0.001": 14.5929805017,
			"0.0": 12.1006835392,
			"0.001": 12.1332252017,
			"0.002": 11.8690145223,
			"0.003": 12.2045544688,
			"0.004": 13.0970509171,
			"0.005": 15.0063234827,
			"0.006": 7.59810396788,
			"0.007": 3.82553646385,
			"0.008": 3.69729011579,
			"0.009": 3.49173542831,
			"0.01": 3.12306855526,
			"0.011": 3.02369542064,
			"0.012": 3.02815407994,
			"0.013": 3.84516657682,
			"0.014": 3.81939601874,
			"0.015": 2.56149918054,
			"0.016": 2.14971550327,
			"0.017": 1.18644610914,
			"0.018": 0.0,
			"0.019": 0.0,
			"0.02": 0.0,
			"0.021": 0.0,
			"0.022": 0.0,
			"0.023": 0.0,
			"0.024": 0.0,
			"0.025": 0.0
		}
	}
}
