{
	 "smiles": "CSC1=NSC(N)=N1", 
	 "Tm": 420.15, 
	 "num_atms": 13, 
	 "gaussian": { 
		 "optdone": 1, 
		 "sigma_profile": "yes", 
		 "theory": "DFT", 
		 "functional": "B3LYP", 
		 "basiset": "6-31G**", 
		 "properties": { 
			 "R2extent": 1569.2818, 
			 "electric_dipole_moment_norm": 5.01036722606, 
			 "electric_quadrupole_moment_norm": 10.4976910256, 
			 "total_energy": -1077.95314309, 
			 "HOMO_LUMO_gap": 0.19486, 
			 "cosmo_polarized_energy": -14.43, 
			 "cosmo_cavitation_energy": 20.6, 
			 "cosmo_dispersion_energy": -16.65, 
			 "cosmo_repulsion_energy": 1.31, 
			 "cosmo_total_nonelectrostatic_energy": 5.26, 
			 "SMD_solvation_energy": 0.93 
		},
		"coords": [
			{
				"x": 1.0335529315,
				"y": -2.4320221362,
				"z": -1.6743946496,
				"element": "C" 
			},
			{
				"x": -0.7337984571,
				"y": -2.1272503008,
				"z": -1.3271786938,
				"element": "S" 
			},
			{
				"x": -0.6834287365,
				"y": -0.4554295777,
				"z": -0.7375715852,
				"element": "C" 
			},
			{
				"x": -1.817537324,
				"y": 0.1115597069,
				"z": -0.3996115847,
				"element": "N" 
			},
			{
				"x": -1.4487198648,
				"y": 1.6832273094,
				"z": 0.1134783267,
				"element": "S" 
			},
			{
				"x": 0.2662676475,
				"y": 1.420762471,
				"z": -0.1740523755,
				"element": "C" 
			},
			{
				"x": 1.2262643819,
				"y": 2.3698286197,
				"z": 0.0038300177,
				"element": "N" 
			},
			{
				"x": 0.5111923499,
				"y": 0.2160648792,
				"z": -0.6323316051,
				"element": "N" 
			},
			{
				"x": 1.4078836002,
				"y": -1.7436283642,
				"z": -2.4323606919,
				"element": "H" 
			},
			{
				"x": 1.631996552,
				"y": -2.3430133417,
				"z": -0.7675473633,
				"element": "H" 
			},
			{
				"x": 1.0823228414,
				"y": -3.4566444854,
				"z": -2.050000721,
				"element": "H" 
			},
			{
				"x": 1.0446158439,
				"y": 3.1407168191,
				"z": 0.6272015391,
				"element": "H" 
			},
			{
				"x": 2.178688234,
				"y": 2.0343284007,
				"z": -0.0219606134,
				"element": "H" 
			}
		],
		 "valence_orbital": [ 
			{
				"type": "occ",
				"energy": -0.31357,
				"method": "rhf"
			},
			{
				"type": "occ",
				"energy": -0.29524,
				"method": "rhf"
			},
			{
				"type": "occ",
				"energy": -0.27872,
				"method": "rhf"
			},
			{
				"type": "occ",
				"energy": -0.25743,
				"method": "rhf"
			},
			{
				"type": "occ",
				"energy": -0.21315,
				"method": "rhf"
			},
			{
				"type": "unocc",
				"energy": -0.01829,
				"method": "rhf"
			},
			{
				"type": "unocc",
				"energy": -0.00994,
				"method": "rhf"
			},
			{
				"type": "unocc",
				"energy": 0.03916,
				"method": "rhf"
			},
			{
				"type": "unocc",
				"energy": 0.05282,
				"method": "rhf"
			},
			{
				"type": "unocc",
				"energy": 0.06186,
				"method": "rhf"
			}
		],
		"cosmo_sigma_profile": { 
			"-0.025": 0.0,
			"-0.024": 0.0,
			"-0.023": 0.0,
			"-0.022": 0.0,
			"-0.021": 0.0,
			"-0.02": 0.0,
			"-0.019": 0.0,
			"-0.018": 0.0,
			"-0.017": 0.0,
			"-0.016": 0.789561750027,
			"-0.015": 3.04478432698,
			"-0.014": 2.51785081462,
			"-0.013": 3.44534389496,
			"-0.012": 2.38203157469,
			"-0.011": 1.85372909024,
			"-0.01": 2.03715843981,
			"-0.009": 2.10177762594,
			"-0.008": 1.91003859969,
			"-0.007": 3.02385403467,
			"-0.006": 4.84009702905,
			"-0.005": 7.3272732013,
			"-0.004": 6.89767353979,
			"-0.003": 7.32091626935,
			"-0.002": 12.665022264,
			"-0.001": 11.3152238371,
			"0.0": 10.4065605957,
			"0.001": 11.0882651492,
			"0.002": 11.0600953064,
			"0.003": 12.3623081117,
			"0.004": 11.2456962065,
			"0.005": 8.31032427146,
			"0.006": 7.66461323663,
			"0.007": 6.98713040525,
			"0.008": 5.99519565023,
			"0.009": 2.34184892306,
			"0.01": 2.45875078193,
			"0.011": 1.37812860235,
			"0.012": 1.45869642785,
			"0.013": 0.823893052292,
			"0.014": 1.28751219419,
			"0.015": 0.325763418096,
			"0.016": 0.0,
			"0.017": 0.0,
			"0.018": 0.0,
			"0.019": 0.0,
			"0.02": 0.0,
			"0.021": 0.0,
			"0.022": 0.0,
			"0.023": 0.0,
			"0.024": 0.0,
			"0.025": 0.0
		}
	}
}
