{
	 "smiles": "OC(=O)C1=CC2=C(C=C1)C=C(O)C=C2", 
	 "Tm": 522.15, 
	 "num_atms": 22, 
	 "gaussian": { 
		 "optdone": 1, 
		 "sigma_profile": "yes", 
		 "theory": "DFT", 
		 "functional": "B3LYP", 
		 "basiset": "6-31G**", 
		 "properties": { 
			 "R2extent": 3797.2967, 
			 "electric_dipole_moment_norm": 5.13993598209, 
			 "electric_quadrupole_moment_norm": 26.7712752997, 
			 "total_energy": -649.679597655, 
			 "HOMO_LUMO_gap": 0.16197, 
			 "cosmo_polarized_energy": -19.17, 
			 "cosmo_cavitation_energy": 26.75, 
			 "cosmo_dispersion_energy": -19.99, 
			 "cosmo_repulsion_energy": 1.53, 
			 "cosmo_total_nonelectrostatic_energy": 8.29, 
			 "SMD_solvation_energy": 5.78 
		},
		"coords": [
			{
				"x": 4.071441992,
				"y": -3.4030222367,
				"z": 0.8133519978,
				"element": "O" 
			},
			{
				"x": 3.4941465919,
				"y": -2.3534796058,
				"z": 1.4621086675,
				"element": "C" 
			},
			{
				"x": 3.9277355362,
				"y": -2.001699391,
				"z": 2.5350891503,
				"element": "O" 
			},
			{
				"x": 2.3312693904,
				"y": -1.7000739681,
				"z": 0.7839051767,
				"element": "C" 
			},
			{
				"x": 1.5017390337,
				"y": -0.9073356224,
				"z": 1.5560690783,
				"element": "C" 
			},
			{
				"x": 0.3741123017,
				"y": -0.2621353792,
				"z": 0.9984270216,
				"element": "C" 
			},
			{
				"x": 0.0942085261,
				"y": -0.4180907678,
				"z": -0.4009518174,
				"element": "C" 
			},
			{
				"x": 0.9767163689,
				"y": -1.217926477,
				"z": -1.1798855227,
				"element": "C" 
			},
			{
				"x": 2.0596748512,
				"y": -1.8402837207,
				"z": -0.6066824008,
				"element": "C" 
			},
			{
				"x": -1.0326189187,
				"y": 0.2266736319,
				"z": -0.9628841746,
				"element": "C" 
			},
			{
				"x": -1.859078456,
				"y": 1.0012668584,
				"z": -0.1722495865,
				"element": "C" 
			},
			{
				"x": -2.9324174454,
				"y": 1.601549499,
				"z": -0.759179933,
				"element": "O" 
			},
			{
				"x": -1.5872831976,
				"y": 1.1602670163,
				"z": 1.2132634931,
				"element": "C" 
			},
			{
				"x": -0.4983307493,
				"y": 0.5429720909,
				"z": 1.779662737,
				"element": "C" 
			},
			{
				"x": 3.5266837675,
				"y": -3.6707880876,
				"z": 0.0607086072,
				"element": "H" 
			},
			{
				"x": 1.7309413143,
				"y": -0.7901174822,
				"z": 2.6108527245,
				"element": "H" 
			},
			{
				"x": 0.7873953249,
				"y": -1.3222671226,
				"z": -2.2445491388,
				"element": "H" 
			},
			{
				"x": 2.7331870343,
				"y": -2.4079060912,
				"z": -1.2447508939,
				"element": "H" 
			},
			{
				"x": -1.258005537,
				"y": 0.1198287441,
				"z": -2.0190954387,
				"element": "H" 
			},
			{
				"x": -3.4186795862,
				"y": 2.1106772872,
				"z": -0.0979163752,
				"element": "H" 
			},
			{
				"x": -2.2480500496,
				"y": 1.7747716527,
				"z": 1.8212848209,
				"element": "H" 
			},
			{
				"x": -0.2922880934,
				"y": 0.6663191719,
				"z": 2.8391218067,
				"element": "H" 
			}
		],
		 "valence_orbital": [ 
			{
				"type": "occ",
				"energy": -0.31058,
				"method": "rhf"
			},
			{
				"type": "occ",
				"energy": -0.29275,
				"method": "rhf"
			},
			{
				"type": "occ",
				"energy": -0.26739,
				"method": "rhf"
			},
			{
				"type": "occ",
				"energy": -0.25097,
				"method": "rhf"
			},
			{
				"type": "occ",
				"energy": -0.22095,
				"method": "rhf"
			},
			{
				"type": "unocc",
				"energy": -0.05898,
				"method": "rhf"
			},
			{
				"type": "unocc",
				"energy": -0.03787,
				"method": "rhf"
			},
			{
				"type": "unocc",
				"energy": 0.01645,
				"method": "rhf"
			},
			{
				"type": "unocc",
				"energy": 0.03856,
				"method": "rhf"
			},
			{
				"type": "unocc",
				"energy": 0.05692,
				"method": "rhf"
			}
		],
		"cosmo_sigma_profile": { 
			"-0.025": 0.0,
			"-0.024": 0.0,
			"-0.023": 0.0,
			"-0.022": 0.0,
			"-0.021": 0.0,
			"-0.02": 0.0,
			"-0.019": 0.0647002315287,
			"-0.018": 1.64650081156,
			"-0.017": 1.97426064038,
			"-0.016": 2.47072904117,
			"-0.015": 2.00937850158,
			"-0.014": 1.78359704658,
			"-0.013": 2.04502915033,
			"-0.012": 2.05345638037,
			"-0.011": 2.16401089305,
			"-0.01": 2.19669223058,
			"-0.009": 2.23943447765,
			"-0.008": 2.6629626608,
			"-0.007": 8.27785466991,
			"-0.006": 12.6283741629,
			"-0.005": 10.4274884315,
			"-0.004": 9.04375223156,
			"-0.003": 9.44347391723,
			"-0.002": 8.82676424888,
			"-0.001": 8.71910079073,
			"0.0": 10.7030737257,
			"0.001": 11.6603731525,
			"0.002": 16.6604769835,
			"0.003": 30.1716751617,
			"0.004": 13.1476251188,
			"0.005": 4.13316076866,
			"0.006": 3.43647535439,
			"0.007": 4.33591757982,
			"0.008": 4.47828020174,
			"0.009": 3.55949688082,
			"0.01": 6.5765537888,
			"0.011": 6.30304023855,
			"0.012": 5.99824225237,
			"0.013": 2.21691558957,
			"0.014": 0.376095722637,
			"0.015": 0.0,
			"0.016": 0.0,
			"0.017": 0.0,
			"0.018": 0.0,
			"0.019": 0.0,
			"0.02": 0.0,
			"0.021": 0.0,
			"0.022": 0.0,
			"0.023": 0.0,
			"0.024": 0.0,
			"0.025": 0.0
		}
	}
}
