{
	 "smiles": "CC1=NOC2=C1C(N)=NC=N2", 
	 "Tm": 543.15, 
	 "num_atms": 17, 
	 "gaussian": { 
		 "optdone": 1, 
		 "sigma_profile": "yes", 
		 "theory": "DFT", 
		 "functional": "B3LYP", 
		 "basiset": "6-31G**", 
		 "properties": { 
			 "R2extent": 1789.3517, 
			 "electric_dipole_moment_norm": 5.8581777252, 
			 "electric_quadrupole_moment_norm": 9.74064070891, 
			 "total_energy": -526.45459087, 
			 "HOMO_LUMO_gap": 0.19895, 
			 "cosmo_polarized_energy": -17.06, 
			 "cosmo_cavitation_energy": 21.58, 
			 "cosmo_dispersion_energy": -16.42, 
			 "cosmo_repulsion_energy": 1.3, 
			 "cosmo_total_nonelectrostatic_energy": 6.46, 
			 "SMD_solvation_energy": 0.61 
		},
		"coords": [
			{
				"x": -1.483308658,
				"y": 0.5999117463,
				"z": 2.0920813892,
				"element": "C" 
			},
			{
				"x": -0.7741493038,
				"y": -0.3371572939,
				"z": 1.1652197192,
				"element": "C" 
			},
			{
				"x": -1.4279034244,
				"y": -1.3362542993,
				"z": 0.6255105996,
				"element": "N" 
			},
			{
				"x": -0.5177344137,
				"y": -2.0449405325,
				"z": -0.1972522815,
				"element": "O" 
			},
			{
				"x": 0.6794855176,
				"y": -1.4335583582,
				"z": -0.1237397352,
				"element": "C" 
			},
			{
				"x": 0.5935039165,
				"y": -0.332838731,
				"z": 0.7307104261,
				"element": "C" 
			},
			{
				"x": 1.7899158222,
				"y": 0.402408844,
				"z": 0.8966989931,
				"element": "C" 
			},
			{
				"x": 1.8906763931,
				"y": 1.5155205417,
				"z": 1.6682364652,
				"element": "N" 
			},
			{
				"x": 2.8963343028,
				"y": 0.0079204711,
				"z": 0.2421595301,
				"element": "N" 
			},
			{
				"x": 2.8114673583,
				"y": -1.0735598841,
				"z": -0.5466015662,
				"element": "C" 
			},
			{
				"x": 1.7521636554,
				"y": -1.8534654185,
				"z": -0.7877479034,
				"element": "N" 
			},
			{
				"x": -1.436140498,
				"y": 1.6297411208,
				"z": 1.7208010438,
				"element": "H" 
			},
			{
				"x": -2.5324372881,
				"y": 0.3112139354,
				"z": 2.1795769281,
				"element": "H" 
			},
			{
				"x": -1.0369395935,
				"y": 0.5774512408,
				"z": 3.093194672,
				"element": "H" 
			},
			{
				"x": 2.8158888803,
				"y": 1.8940708833,
				"z": 1.8028558002,
				"element": "H" 
			},
			{
				"x": 1.1674464039,
				"y": 1.762751094,
				"z": 2.3221343984,
				"element": "H" 
			},
			{
				"x": 3.7323309294,
				"y": -1.35201536,
				"z": -1.0549384788,
				"element": "H" 
			}
		],
		 "valence_orbital": [ 
			{
				"type": "occ",
				"energy": -0.3026,
				"method": "rhf"
			},
			{
				"type": "occ",
				"energy": -0.29872,
				"method": "rhf"
			},
			{
				"type": "occ",
				"energy": -0.28624,
				"method": "rhf"
			},
			{
				"type": "occ",
				"energy": -0.26897,
				"method": "rhf"
			},
			{
				"type": "occ",
				"energy": -0.24407,
				"method": "rhf"
			},
			{
				"type": "unocc",
				"energy": -0.04512,
				"method": "rhf"
			},
			{
				"type": "unocc",
				"energy": -0.00995,
				"method": "rhf"
			},
			{
				"type": "unocc",
				"energy": 0.02652,
				"method": "rhf"
			},
			{
				"type": "unocc",
				"energy": 0.04577,
				"method": "rhf"
			},
			{
				"type": "unocc",
				"energy": 0.09006,
				"method": "rhf"
			}
		],
		"cosmo_sigma_profile": { 
			"-0.025": 0.0,
			"-0.024": 0.0,
			"-0.023": 0.0,
			"-0.022": 0.0,
			"-0.021": 0.0,
			"-0.02": 0.0,
			"-0.019": 0.0,
			"-0.018": 0.0,
			"-0.017": 0.0,
			"-0.016": 0.0,
			"-0.015": 0.50955766893,
			"-0.014": 2.01268909828,
			"-0.013": 2.57498476293,
			"-0.012": 2.79909089882,
			"-0.011": 3.23610236313,
			"-0.01": 2.11450294178,
			"-0.009": 3.11750720619,
			"-0.008": 4.15008863888,
			"-0.007": 6.18356889769,
			"-0.006": 7.57828366654,
			"-0.005": 8.50733898304,
			"-0.004": 7.857274948,
			"-0.003": 10.4146484973,
			"-0.002": 16.9561986391,
			"-0.001": 15.039809061,
			"0.0": 9.68333320829,
			"0.001": 6.57065775349,
			"0.002": 6.7966830682,
			"0.003": 5.98926639114,
			"0.004": 5.13055818003,
			"0.005": 4.75919250004,
			"0.006": 5.97743588036,
			"0.007": 7.4808152223,
			"0.008": 7.88060049145,
			"0.009": 3.49973426661,
			"0.01": 3.75995713704,
			"0.011": 3.42514309111,
			"0.012": 3.37808907633,
			"0.013": 2.66475564071,
			"0.014": 2.32487754288,
			"0.015": 0.741884135417,
			"0.016": 0.0,
			"0.017": 0.0,
			"0.018": 0.0,
			"0.019": 0.0,
			"0.02": 0.0,
			"0.021": 0.0,
			"0.022": 0.0,
			"0.023": 0.0,
			"0.024": 0.0,
			"0.025": 0.0
		}
	}
}
