{
	 "smiles": "CC(C)N1N(C(=O)SCC=C)C(N)=C(C1=O)C1=CC=CC=C1C", 
	 "Tm": 389.15, 
	 "num_atms": 44, 
	 "gaussian": { 
		 "optdone": 1, 
		 "sigma_profile": "yes", 
		 "theory": "DFT", 
		 "functional": "B3LYP", 
		 "basiset": "6-31G**", 
		 "properties": { 
			 "R2extent": 8411.8059, 
			 "electric_dipole_moment_norm": 6.66014495488, 
			 "electric_quadrupole_moment_norm": 14.5192395183, 
			 "total_energy": -1373.31937502, 
			 "HOMO_LUMO_gap": 0.17349, 
			 "cosmo_polarized_energy": -21.13, 
			 "cosmo_cavitation_energy": 47.16, 
			 "cosmo_dispersion_energy": -31.25, 
			 "cosmo_repulsion_energy": 2.36, 
			 "cosmo_total_nonelectrostatic_energy": 18.27, 
			 "SMD_solvation_energy": 9.32 
		},
		"coords": [
			{
				"x": -0.200817064,
				"y": -2.780744392,
				"z": 2.7337245754,
				"element": "C" 
			},
			{
				"x": 1.187028067,
				"y": -2.1406904282,
				"z": 2.5976858292,
				"element": "C" 
			},
			{
				"x": 2.3195830559,
				"y": -3.1703316145,
				"z": 2.5337834927,
				"element": "C" 
			},
			{
				"x": 1.2770032652,
				"y": -1.2422868268,
				"z": 1.4218658159,
				"element": "N" 
			},
			{
				"x": 0.8104451104,
				"y": 0.0907849418,
				"z": 1.6078262365,
				"element": "N" 
			},
			{
				"x": 1.6363529197,
				"y": 0.8773671563,
				"z": 2.4691236817,
				"element": "C" 
			},
			{
				"x": 2.774116381,
				"y": 0.5937280137,
				"z": 2.7463203578,
				"element": "O" 
			},
			{
				"x": 0.8760518452,
				"y": 2.2920593168,
				"z": 3.2970215816,
				"element": "S" 
			},
			{
				"x": -0.9302360638,
				"y": 1.9122871591,
				"z": 3.3767970949,
				"element": "C" 
			},
			{
				"x": -1.8459883259,
				"y": 2.9609051442,
				"z": 2.7997229216,
				"element": "C" 
			},
			{
				"x": -1.5106181221,
				"y": 4.1565529175,
				"z": 2.3114506346,
				"element": "C" 
			},
			{
				"x": 0.3844353383,
				"y": 0.5421876357,
				"z": 0.3299070566,
				"element": "C" 
			},
			{
				"x": 0.0516985496,
				"y": 1.853035717,
				"z": 0.1104883924,
				"element": "N" 
			},
			{
				"x": 0.4507418903,
				"y": -0.4743919024,
				"z": -0.5794620604,
				"element": "C" 
			},
			{
				"x": 0.9176517107,
				"y": -1.6637755673,
				"z": 0.1259510582,
				"element": "C" 
			},
			{
				"x": 0.9776577501,
				"y": -2.8289895782,
				"z": -0.2522261658,
				"element": "O" 
			},
			{
				"x": 0.0376199953,
				"y": -0.4387582673,
				"z": -1.9980787532,
				"element": "C" 
			},
			{
				"x": -1.0018345314,
				"y": -1.2861623964,
				"z": -2.4175087229,
				"element": "C" 
			},
			{
				"x": -1.4457725866,
				"y": -1.2852988188,
				"z": -3.7371157882,
				"element": "C" 
			},
			{
				"x": -0.8485317073,
				"y": -0.4290433012,
				"z": -4.6631228524,
				"element": "C" 
			},
			{
				"x": 0.2023443297,
				"y": 0.395287556,
				"z": -4.2644814212,
				"element": "C" 
			},
			{
				"x": 0.6747442864,
				"y": 0.3996561998,
				"z": -2.9441921204,
				"element": "C" 
			},
			{
				"x": 1.8788318603,
				"y": 1.2414325213,
				"z": -2.5823827205,
				"element": "C" 
			},
			{
				"x": -0.4064112341,
				"y": -3.4295802545,
				"z": 1.8789888963,
				"element": "H" 
			},
			{
				"x": -0.9838757274,
				"y": -2.0165568695,
				"z": 2.7903434132,
				"element": "H" 
			},
			{
				"x": -0.2501234241,
				"y": -3.3821632038,
				"z": 3.6471924658,
				"element": "H" 
			},
			{
				"x": 1.3715431005,
				"y": -1.4980357226,
				"z": 3.463567685,
				"element": "H" 
			},
			{
				"x": 2.3061311547,
				"y": -3.7884043481,
				"z": 3.4374105601,
				"element": "H" 
			},
			{
				"x": 3.2853811357,
				"y": -2.6621226341,
				"z": 2.4725421678,
				"element": "H" 
			},
			{
				"x": 2.2027778942,
				"y": -3.8123918441,
				"z": 1.6594070166,
				"element": "H" 
			},
			{
				"x": -1.0859891668,
				"y": 0.9443664375,
				"z": 2.8909656646,
				"element": "H" 
			},
			{
				"x": -1.1649880151,
				"y": 1.769413239,
				"z": 4.4379694073,
				"element": "H" 
			},
			{
				"x": -2.8983231213,
				"y": 2.6754215337,
				"z": 2.8271938662,
				"element": "H" 
			},
			{
				"x": -0.4800742155,
				"y": 4.4984579211,
				"z": 2.2763541775,
				"element": "H" 
			},
			{
				"x": -2.2688704395,
				"y": 4.8368620091,
				"z": 1.9371733124,
				"element": "H" 
			},
			{
				"x": -0.3861049624,
				"y": 2.3807053311,
				"z": 0.8542479267,
				"element": "H" 
			},
			{
				"x": -0.389242138,
				"y": 1.9933148003,
				"z": -0.7893972375,
				"element": "H" 
			},
			{
				"x": -1.4531890363,
				"y": -1.9536671374,
				"z": -1.6904355824,
				"element": "H" 
			},
			{
				"x": -2.251943981,
				"y": -1.9473527157,
				"z": -4.0396584811,
				"element": "H" 
			},
			{
				"x": -1.1873033231,
				"y": -0.4142007921,
				"z": -5.6953007659,
				"element": "H" 
			},
			{
				"x": 0.6862270755,
				"y": 1.0382918224,
				"z": -4.9956569179,
				"element": "H" 
			},
			{
				"x": 2.6283917361,
				"y": 0.6434318573,
				"z": -2.0539077792,
				"element": "H" 
			},
			{
				"x": 1.6324361716,
				"y": 2.0820802852,
				"z": -1.9238414937,
				"element": "H" 
			},
			{
				"x": 2.3448425623,
				"y": 1.6519190993,
				"z": -3.482156426,
				"element": "H" 
			}
		],
		 "valence_orbital": [ 
			{
				"type": "occ",
				"energy": -0.25528,
				"method": "rhf"
			},
			{
				"type": "occ",
				"energy": -0.24254,
				"method": "rhf"
			},
			{
				"type": "occ",
				"energy": -0.23523,
				"method": "rhf"
			},
			{
				"type": "occ",
				"energy": -0.23056,
				"method": "rhf"
			},
			{
				"type": "occ",
				"energy": -0.21315,
				"method": "rhf"
			},
			{
				"type": "unocc",
				"energy": -0.03966,
				"method": "rhf"
			},
			{
				"type": "unocc",
				"energy": -0.01417,
				"method": "rhf"
			},
			{
				"type": "unocc",
				"energy": -0.0113,
				"method": "rhf"
			},
			{
				"type": "unocc",
				"energy": 0.00441,
				"method": "rhf"
			},
			{
				"type": "unocc",
				"energy": 0.00927,
				"method": "rhf"
			}
		],
		"cosmo_sigma_profile": { 
			"-0.025": 0.0,
			"-0.024": 0.0,
			"-0.023": 0.0,
			"-0.022": 0.0,
			"-0.021": 0.0,
			"-0.02": 0.0,
			"-0.019": 0.0,
			"-0.018": 0.0,
			"-0.017": 0.0,
			"-0.016": 0.0,
			"-0.015": 0.0,
			"-0.014": 0.291109259661,
			"-0.013": 0.962992704408,
			"-0.012": 0.726673365154,
			"-0.011": 1.01984183417,
			"-0.01": 1.06468273458,
			"-0.009": 1.48801905417,
			"-0.008": 3.12076168792,
			"-0.007": 7.91640172894,
			"-0.006": 15.594829415,
			"-0.005": 24.7206718503,
			"-0.004": 32.3973786687,
			"-0.003": 35.3250264318,
			"-0.002": 31.8971882393,
			"-0.001": 34.3051949625,
			"0.0": 37.4822891186,
			"0.001": 30.8094838246,
			"0.002": 19.7379612107,
			"0.003": 17.3142798299,
			"0.004": 15.2634260916,
			"0.005": 15.585368799,
			"0.006": 13.2899201437,
			"0.007": 6.04053284476,
			"0.008": 4.57487010511,
			"0.009": 5.96084050686,
			"0.01": 6.07843314958,
			"0.011": 3.13227603778,
			"0.012": 2.10337416642,
			"0.013": 2.39569641654,
			"0.014": 3.8676719062,
			"0.015": 0.777152065045,
			"0.016": 0.0,
			"0.017": 0.0,
			"0.018": 0.0,
			"0.019": 0.0,
			"0.02": 0.0,
			"0.021": 0.0,
			"0.022": 0.0,
			"0.023": 0.0,
			"0.024": 0.0,
			"0.025": 0.0
		}
	}
}
