{
	 "smiles": "CC1=NC(C(Cl)=O)=C(C)O1", 
	 "Tm": 492.15, 
	 "num_atms": 16, 
	 "gaussian": { 
		 "optdone": 1, 
		 "sigma_profile": "yes", 
		 "theory": "DFT", 
		 "functional": "B3LYP", 
		 "basiset": "6-31G**", 
		 "properties": { 
			 "R2extent": 2287.4021, 
			 "electric_dipole_moment_norm": 5.24042585579, 
			 "electric_quadrupole_moment_norm": 14.2488272254, 
			 "total_energy": -897.649080101, 
			 "HOMO_LUMO_gap": 0.19695, 
			 "cosmo_polarized_energy": -10.41, 
			 "cosmo_cavitation_energy": 22.71, 
			 "cosmo_dispersion_energy": -16.83, 
			 "cosmo_repulsion_energy": 1.39, 
			 "cosmo_total_nonelectrostatic_energy": 7.27, 
			 "SMD_solvation_energy": 3.72 
		},
		"coords": [
			{
				"x": 2.506964919,
				"y": -2.4672570705,
				"z": 0.0121594518,
				"element": "C" 
			},
			{
				"x": 1.3297073346,
				"y": -1.6653233241,
				"z": -0.4116803533,
				"element": "C" 
			},
			{
				"x": 1.188068589,
				"y": -0.9043530211,
				"z": -1.4425834164,
				"element": "N" 
			},
			{
				"x": -0.1123444954,
				"y": -0.4037869028,
				"z": -1.3424438712,
				"element": "C" 
			},
			{
				"x": -0.5885908995,
				"y": 0.5076258483,
				"z": -2.3795524658,
				"element": "C" 
			},
			{
				"x": -2.3207582652,
				"y": 1.0864650055,
				"z": -2.1168025666,
				"element": "Cl" 
			},
			{
				"x": 0.0139821672,
				"y": 0.8900469149,
				"z": -3.3319636062,
				"element": "O" 
			},
			{
				"x": -0.7144420157,
				"y": -0.9077099018,
				"z": -0.2112027796,
				"element": "C" 
			},
			{
				"x": -2.0297762603,
				"y": -0.7998200854,
				"z": 0.4777363427,
				"element": "C" 
			},
			{
				"x": 0.2074295285,
				"y": -1.7149543685,
				"z": 0.3849207683,
				"element": "O" 
			},
			{
				"x": 3.3074090953,
				"y": -2.3246440201,
				"z": -0.7140406824,
				"element": "H" 
			},
			{
				"x": 2.8587936261,
				"y": -2.1552843295,
				"z": 1.0008838624,
				"element": "H" 
			},
			{
				"x": 2.2572004352,
				"y": -3.5317950904,
				"z": 0.0674767262,
				"element": "H" 
			},
			{
				"x": -2.0140331468,
				"y": -1.4175393724,
				"z": 1.377820677,
				"element": "H" 
			},
			{
				"x": -2.2456979543,
				"y": 0.2348934222,
				"z": 0.7570165718,
				"element": "H" 
			},
			{
				"x": -2.8441126578,
				"y": -1.1328637046,
				"z": -0.1712446588,
				"element": "H" 
			}
		],
		 "valence_orbital": [ 
			{
				"type": "occ",
				"energy": -0.31812,
				"method": "rhf"
			},
			{
				"type": "occ",
				"energy": -0.31719,
				"method": "rhf"
			},
			{
				"type": "occ",
				"energy": -0.30555,
				"method": "rhf"
			},
			{
				"type": "occ",
				"energy": -0.29086,
				"method": "rhf"
			},
			{
				"type": "occ",
				"energy": -0.26077,
				"method": "rhf"
			},
			{
				"type": "unocc",
				"energy": -0.06382,
				"method": "rhf"
			},
			{
				"type": "unocc",
				"energy": -0.006,
				"method": "rhf"
			},
			{
				"type": "unocc",
				"energy": 0.01836,
				"method": "rhf"
			},
			{
				"type": "unocc",
				"energy": 0.07826,
				"method": "rhf"
			},
			{
				"type": "unocc",
				"energy": 0.09348,
				"method": "rhf"
			}
		],
		"cosmo_sigma_profile": { 
			"-0.025": 0.0,
			"-0.024": 0.0,
			"-0.023": 0.0,
			"-0.022": 0.0,
			"-0.021": 0.0,
			"-0.02": 0.0,
			"-0.019": 0.0,
			"-0.018": 0.0,
			"-0.017": 0.0,
			"-0.016": 0.0,
			"-0.015": 0.0,
			"-0.014": 0.0,
			"-0.013": 0.0,
			"-0.012": 0.0,
			"-0.011": 0.0,
			"-0.01": 0.0,
			"-0.009": 0.0,
			"-0.008": 0.0,
			"-0.007": 3.97622310157,
			"-0.006": 12.6690796411,
			"-0.005": 12.8448857187,
			"-0.004": 21.0117423803,
			"-0.003": 25.3475846066,
			"-0.002": 18.0563325517,
			"-0.001": 11.1369717526,
			"0.0": 9.26152015224,
			"0.001": 7.71990493245,
			"0.002": 7.98372983171,
			"0.003": 7.9124726553,
			"0.004": 9.42998690562,
			"0.005": 8.97678454848,
			"0.006": 4.77450000235,
			"0.007": 3.60031961756,
			"0.008": 5.15560055935,
			"0.009": 5.20287545778,
			"0.01": 2.6780202876,
			"0.011": 2.04258751345,
			"0.012": 1.27614195739,
			"0.013": 0.837294424786,
			"0.014": 1.17376852099,
			"0.015": 0.675563567391,
			"0.016": 0.0164171711448,
			"0.017": 0.0,
			"0.018": 0.0,
			"0.019": 0.0,
			"0.02": 0.0,
			"0.021": 0.0,
			"0.022": 0.0,
			"0.023": 0.0,
			"0.024": 0.0,
			"0.025": 0.0
		}
	}
}
