{
	 "smiles": "CC1=C(C)N=C(NC(=O)CCl)S1", 
	 "Tm": 418.15, 
	 "num_atms": 21, 
	 "gaussian": { 
		 "optdone": 1, 
		 "sigma_profile": "yes", 
		 "theory": "DFT", 
		 "functional": "B3LYP", 
		 "basiset": "6-31G**", 
		 "properties": { 
			 "R2extent": 4938.8318, 
			 "electric_dipole_moment_norm": 5.98722249962, 
			 "electric_quadrupole_moment_norm": 20.4192995441, 
			 "total_energy": -1315.28865678, 
			 "HOMO_LUMO_gap": 0.18536, 
			 "cosmo_polarized_energy": -12.89, 
			 "cosmo_cavitation_energy": 28.59, 
			 "cosmo_dispersion_energy": -21.35, 
			 "cosmo_repulsion_energy": 1.69, 
			 "cosmo_total_nonelectrostatic_energy": 8.94, 
			 "SMD_solvation_energy": 4.48 
		},
		"coords": [
			{
				"x": -1.2670674999,
				"y": -1.2339664445,
				"z": 2.1109901739,
				"element": "C" 
			},
			{
				"x": -0.4321961011,
				"y": -0.9483249902,
				"z": 0.9010149642,
				"element": "C" 
			},
			{
				"x": 0.9157028606,
				"y": -0.7352460758,
				"z": 0.8066627868,
				"element": "C" 
			},
			{
				"x": 1.8908537194,
				"y": -0.743537799,
				"z": 1.955070805,
				"element": "C" 
			},
			{
				"x": 1.403704283,
				"y": -0.4923083402,
				"z": -0.4696509416,
				"element": "N" 
			},
			{
				"x": 0.4519356379,
				"y": -0.516140963,
				"z": -1.3518321303,
				"element": "C" 
			},
			{
				"x": 0.6032461729,
				"y": -0.3118473621,
				"z": -2.7146687958,
				"element": "N" 
			},
			{
				"x": 1.7394704205,
				"y": -0.0401441309,
				"z": -3.4866649627,
				"element": "C" 
			},
			{
				"x": 1.611197937,
				"y": 0.1010770267,
				"z": -4.6849232735,
				"element": "O" 
			},
			{
				"x": 3.0608092287,
				"y": 0.0561495099,
				"z": -2.7328026521,
				"element": "C" 
			},
			{
				"x": 4.4298286322,
				"y": 0.4067984055,
				"z": -3.8336293087,
				"element": "Cl" 
			},
			{
				"x": -1.1529511726,
				"y": -0.8417493156,
				"z": -0.7009550255,
				"element": "S" 
			},
			{
				"x": -2.0351512424,
				"y": -0.4683538746,
				"z": 2.2707328891,
				"element": "H" 
			},
			{
				"x": -0.6330526017,
				"y": -1.2581515468,
				"z": 3.0007658893,
				"element": "H" 
			},
			{
				"x": -1.776998358,
				"y": -2.2017060058,
				"z": 2.0396606033,
				"element": "H" 
			},
			{
				"x": 1.9077234403,
				"y": -1.7108505463,
				"z": 2.4686421117,
				"element": "H" 
			},
			{
				"x": 2.8946444185,
				"y": -0.5435759805,
				"z": 1.5765752112,
				"element": "H" 
			},
			{
				"x": 1.6498089603,
				"y": 0.0222260836,
				"z": 2.700215375,
				"element": "H" 
			},
			{
				"x": -0.2286844295,
				"y": -0.3587175164,
				"z": -3.2900807913,
				"element": "H" 
			},
			{
				"x": 3.0102296214,
				"y": 0.8404116186,
				"z": -1.9770187969,
				"element": "H" 
			},
			{
				"x": 3.2658460724,
				"y": -0.8761417529,
				"z": -2.2059041313,
				"element": "H" 
			}
		],
		 "valence_orbital": [ 
			{
				"type": "occ",
				"energy": -0.29357,
				"method": "rhf"
			},
			{
				"type": "occ",
				"energy": -0.28814,
				"method": "rhf"
			},
			{
				"type": "occ",
				"energy": -0.28813,
				"method": "rhf"
			},
			{
				"type": "occ",
				"energy": -0.27788,
				"method": "rhf"
			},
			{
				"type": "occ",
				"energy": -0.22315,
				"method": "rhf"
			},
			{
				"type": "unocc",
				"energy": -0.03779,
				"method": "rhf"
			},
			{
				"type": "unocc",
				"energy": -0.01237,
				"method": "rhf"
			},
			{
				"type": "unocc",
				"energy": 0.01319,
				"method": "rhf"
			},
			{
				"type": "unocc",
				"energy": 0.03197,
				"method": "rhf"
			},
			{
				"type": "unocc",
				"energy": 0.05274,
				"method": "rhf"
			}
		],
		"cosmo_sigma_profile": { 
			"-0.025": 0.0,
			"-0.024": 0.0,
			"-0.023": 0.0,
			"-0.022": 0.0,
			"-0.021": 0.0,
			"-0.02": 0.0,
			"-0.019": 0.0,
			"-0.018": 0.0,
			"-0.017": 0.308588034298,
			"-0.016": 0.897047695427,
			"-0.015": 1.11516334757,
			"-0.014": 1.0366358752,
			"-0.013": 1.09665220374,
			"-0.012": 1.12826521017,
			"-0.011": 0.603660849069,
			"-0.01": 0.982388859112,
			"-0.009": 2.05021748991,
			"-0.008": 4.31693345571,
			"-0.007": 3.86841037631,
			"-0.006": 4.3943525863,
			"-0.005": 9.83320090453,
			"-0.004": 20.7693160244,
			"-0.003": 19.6273885391,
			"-0.002": 19.1811522994,
			"-0.001": 24.3025880148,
			"0.0": 18.7990483362,
			"0.001": 15.8964454226,
			"0.002": 14.6177104529,
			"0.003": 14.3926405932,
			"0.004": 11.1978267845,
			"0.005": 9.60825887749,
			"0.006": 10.4582197448,
			"0.007": 3.83138693907,
			"0.008": 2.34968369309,
			"0.009": 1.69918261102,
			"0.01": 2.34842674777,
			"0.011": 4.28777111729,
			"0.012": 4.70900047973,
			"0.013": 1.57826457432,
			"0.014": 0.158751963948,
			"0.015": 0.0,
			"0.016": 0.0,
			"0.017": 0.0,
			"0.018": 0.0,
			"0.019": 0.0,
			"0.02": 0.0,
			"0.021": 0.0,
			"0.022": 0.0,
			"0.023": 0.0,
			"0.024": 0.0,
			"0.025": 0.0
		}
	}
}
