{
	 "smiles": "OC(=O)C1=CC=CN1CCC1=CC=CC=C1", 
	 "Tm": 393.15, 
	 "num_atms": 29, 
	 "gaussian": { 
		 "optdone": 1, 
		 "sigma_profile": "yes", 
		 "theory": "DFT", 
		 "functional": "B3LYP", 
		 "basiset": "6-31G**", 
		 "properties": { 
			 "R2extent": 4005.2717, 
			 "electric_dipole_moment_norm": 3.75712135284, 
			 "electric_quadrupole_moment_norm": 12.7857232052, 
			 "total_energy": -708.425540342, 
			 "HOMO_LUMO_gap": 0.19926, 
			 "cosmo_polarized_energy": -14.59, 
			 "cosmo_cavitation_energy": 32.61, 
			 "cosmo_dispersion_energy": -22.56, 
			 "cosmo_repulsion_energy": 1.75, 
			 "cosmo_total_nonelectrostatic_energy": 11.81, 
			 "SMD_solvation_energy": 6.49 
		},
		"coords": [
			{
				"x": 3.9249754522,
				"y": -2.0778336857,
				"z": 1.0662561485,
				"element": "O" 
			},
			{
				"x": 3.0151268351,
				"y": -1.3436230894,
				"z": 0.3677598458,
				"element": "C" 
			},
			{
				"x": 2.8083964187,
				"y": -1.6087435613,
				"z": -0.801130093,
				"element": "O" 
			},
			{
				"x": 2.3476065249,
				"y": -0.2809496203,
				"z": 1.1260039969,
				"element": "C" 
			},
			{
				"x": 2.3112038036,
				"y": -0.0578852319,
				"z": 2.5030674584,
				"element": "C" 
			},
			{
				"x": 1.5254395898,
				"y": 1.0878670944,
				"z": 2.734835773,
				"element": "C" 
			},
			{
				"x": 1.1009639819,
				"y": 1.5380523367,
				"z": 1.495464487,
				"element": "C" 
			},
			{
				"x": 1.5912017877,
				"y": 0.7165214611,
				"z": 0.5227188926,
				"element": "N" 
			},
			{
				"x": 1.3263926688,
				"y": 0.8910518866,
				"z": -0.9090492049,
				"element": "C" 
			},
			{
				"x": 0.1363027839,
				"y": 0.0564941253,
				"z": -1.4259857067,
				"element": "C" 
			},
			{
				"x": -1.1982616645,
				"y": 0.4413529699,
				"z": -0.8265911385,
				"element": "C" 
			},
			{
				"x": -1.9110750114,
				"y": 1.5456740582,
				"z": -1.3173352998,
				"element": "C" 
			},
			{
				"x": -3.1301255209,
				"y": 1.9224045824,
				"z": -0.753035117,
				"element": "C" 
			},
			{
				"x": -3.6604069641,
				"y": 1.1963123613,
				"z": 0.3158458237,
				"element": "C" 
			},
			{
				"x": -2.9633596328,
				"y": 0.0939444444,
				"z": 0.8124115803,
				"element": "C" 
			},
			{
				"x": -1.7431144121,
				"y": -0.2783812099,
				"z": 0.2451561142,
				"element": "C" 
			},
			{
				"x": 4.0916040639,
				"y": -1.6657423474,
				"z": 1.9253442363,
				"element": "H" 
			},
			{
				"x": 2.7704227257,
				"y": -0.6773299154,
				"z": 3.2632786215,
				"element": "H" 
			},
			{
				"x": 1.286523004,
				"y": 1.5348908127,
				"z": 3.6888975039,
				"element": "H" 
			},
			{
				"x": 0.480096971,
				"y": 2.3820534808,
				"z": 1.2330451719,
				"element": "H" 
			},
			{
				"x": 1.139725345,
				"y": 1.9574280897,
				"z": -1.0666750454,
				"element": "H" 
			},
			{
				"x": 2.22462979,
				"y": 0.6080333308,
				"z": -1.4571034982,
				"element": "H" 
			},
			{
				"x": 0.3624233952,
				"y": -0.9972369067,
				"z": -1.2448407396,
				"element": "H" 
			},
			{
				"x": 0.1091624686,
				"y": 0.1910528197,
				"z": -2.5143300175,
				"element": "H" 
			},
			{
				"x": -1.5107465399,
				"y": 2.1097698929,
				"z": -2.1573412102,
				"element": "H" 
			},
			{
				"x": -3.6694393751,
				"y": 2.7771114465,
				"z": -1.1520862632,
				"element": "H" 
			},
			{
				"x": -4.6116829733,
				"y": 1.4848026636,
				"z": 0.7538024275,
				"element": "H" 
			},
			{
				"x": -3.3699165268,
				"y": -0.4795998576,
				"z": 1.6407480253,
				"element": "H" 
			},
			{
				"x": -1.206468989,
				"y": -1.1391924315,
				"z": 0.6353672274,
				"element": "H" 
			}
		],
		 "valence_orbital": [ 
			{
				"type": "occ",
				"energy": -0.27035,
				"method": "rhf"
			},
			{
				"type": "occ",
				"energy": -0.25558,
				"method": "rhf"
			},
			{
				"type": "occ",
				"energy": -0.25048,
				"method": "rhf"
			},
			{
				"type": "occ",
				"energy": -0.24247,
				"method": "rhf"
			},
			{
				"type": "occ",
				"energy": -0.22811,
				"method": "rhf"
			},
			{
				"type": "unocc",
				"energy": -0.02885,
				"method": "rhf"
			},
			{
				"type": "unocc",
				"energy": -0.00395,
				"method": "rhf"
			},
			{
				"type": "unocc",
				"energy": -0.00114,
				"method": "rhf"
			},
			{
				"type": "unocc",
				"energy": 0.04906,
				"method": "rhf"
			},
			{
				"type": "unocc",
				"energy": 0.07021,
				"method": "rhf"
			}
		],
		"cosmo_sigma_profile": { 
			"-0.025": 0.0,
			"-0.024": 0.0,
			"-0.023": 0.0,
			"-0.022": 0.0,
			"-0.021": 0.0,
			"-0.02": 0.0,
			"-0.019": 0.00380447840801,
			"-0.018": 0.542295900366,
			"-0.017": 0.676669468104,
			"-0.016": 1.11070176932,
			"-0.015": 1.11327970101,
			"-0.014": 0.7765882398,
			"-0.013": 0.648589620067,
			"-0.012": 1.11464422765,
			"-0.011": 1.28485356676,
			"-0.01": 1.16460217852,
			"-0.009": 0.9443784224,
			"-0.008": 2.264818646,
			"-0.007": 4.36750386113,
			"-0.006": 9.47503381981,
			"-0.005": 20.4160309235,
			"-0.004": 24.6824861664,
			"-0.003": 25.9189386372,
			"-0.002": 18.0574855146,
			"-0.001": 17.5443490921,
			"0.0": 15.052045597,
			"0.001": 15.4679821223,
			"0.002": 12.1310050237,
			"0.003": 15.2531359268,
			"0.004": 14.9873673945,
			"0.005": 16.1859948099,
			"0.006": 13.6362009925,
			"0.007": 4.43323276111,
			"0.008": 2.30911348906,
			"0.009": 3.0539400927,
			"0.01": 3.37746433677,
			"0.011": 4.53100193455,
			"0.012": 3.54084151637,
			"0.013": 2.63598259242,
			"0.014": 0.925913781061,
			"0.015": 0.0,
			"0.016": 0.0,
			"0.017": 0.0,
			"0.018": 0.0,
			"0.019": 0.0,
			"0.02": 0.0,
			"0.021": 0.0,
			"0.022": 0.0,
			"0.023": 0.0,
			"0.024": 0.0,
			"0.025": 0.0
		}
	}
}
