{
	 "smiles": "CC1=CC=C(NC(=NC2=CC=C(C)C=C2)C2=CC(=C(O)C(=C2)C(C)(C)C)C(C)(C)C)C=C1", 
	 "Tm": 480.15, 
	 "num_atms": 68, 
	 "gaussian": { 
		 "optdone": 1, 
		 "sigma_profile": "yes", 
		 "theory": "DFT", 
		 "functional": "B3LYP", 
		 "basiset": "6-31G**", 
		 "properties": { 
			 "R2extent": 15540.2222, 
			 "electric_dipole_moment_norm": 2.66296010672, 
			 "electric_quadrupole_moment_norm": 17.9286537646, 
			 "total_energy": -1311.5441274, 
			 "HOMO_LUMO_gap": 0.16246, 
			 "cosmo_polarized_energy": -13.37, 
			 "cosmo_cavitation_energy": 66.07, 
			 "cosmo_dispersion_energy": -40.66, 
			 "cosmo_repulsion_energy": 3.13, 
			 "cosmo_total_nonelectrostatic_energy": 28.54, 
			 "SMD_solvation_energy": 9.89 
		},
		"coords": [
			{
				"x": 2.8549670104,
				"y": 2.6923938331,
				"z": -6.4361913172,
				"element": "C" 
			},
			{
				"x": 1.8814962313,
				"y": 2.5842142337,
				"z": -5.2860731588,
				"element": "C" 
			},
			{
				"x": 1.2301071836,
				"y": 3.7186650006,
				"z": -4.7807606735,
				"element": "C" 
			},
			{
				"x": 0.3281899391,
				"y": 3.6256532386,
				"z": -3.7262333626,
				"element": "C" 
			},
			{
				"x": 0.0288387609,
				"y": 2.3820800793,
				"z": -3.1451892499,
				"element": "C" 
			},
			{
				"x": -0.9204001006,
				"y": 2.3585428457,
				"z": -2.099572247,
				"element": "N" 
			},
			{
				"x": -1.1997263877,
				"y": 1.3685164152,
				"z": -1.1652885309,
				"element": "C" 
			},
			{
				"x": -2.431519541,
				"y": 1.2990962911,
				"z": -0.7822203331,
				"element": "N" 
			},
			{
				"x": -2.8662592701,
				"y": 0.5751940051,
				"z": 0.3372309804,
				"element": "C" 
			},
			{
				"x": -2.3302902761,
				"y": 0.7509830496,
				"z": 1.6258076786,
				"element": "C" 
			},
			{
				"x": -2.8564994602,
				"y": 0.0587776048,
				"z": 2.7147029186,
				"element": "C" 
			},
			{
				"x": -3.9300909482,
				"y": -0.8301872484,
				"z": 2.5710270259,
				"element": "C" 
			},
			{
				"x": -4.5158606984,
				"y": -1.5520297745,
				"z": 3.7623174554,
				"element": "C" 
			},
			{
				"x": -4.4673181456,
				"y": -0.9937175734,
				"z": 1.2862279164,
				"element": "C" 
			},
			{
				"x": -3.9599765982,
				"y": -0.2964568891,
				"z": 0.1922720303,
				"element": "C" 
			},
			{
				"x": -0.0581360254,
				"y": 0.5484620286,
				"z": -0.6644571742,
				"element": "C" 
			},
			{
				"x": 1.1677085474,
				"y": 1.1441175585,
				"z": -0.3499753583,
				"element": "C" 
			},
			{
				"x": 2.2426162089,
				"y": 0.4127919737,
				"z": 0.1582358268,
				"element": "C" 
			},
			{
				"x": 2.0434753271,
				"y": -0.9787154542,
				"z": 0.3406708744,
				"element": "C" 
			},
			{
				"x": 3.112576704,
				"y": -1.6773324896,
				"z": 0.8432040804,
				"element": "O" 
			},
			{
				"x": 0.8206055474,
				"y": -1.6247702057,
				"z": 0.0274002453,
				"element": "C" 
			},
			{
				"x": -0.2104481056,
				"y": -0.8258488566,
				"z": -0.4734117134,
				"element": "C" 
			},
			{
				"x": 0.6033494851,
				"y": -3.1440254404,
				"z": 0.2428632654,
				"element": "C" 
			},
			{
				"x": -0.8141864954,
				"y": -3.5866018991,
				"z": -0.1805672306,
				"element": "C" 
			},
			{
				"x": 0.7329278666,
				"y": -3.5023223028,
				"z": 1.7488352366,
				"element": "C" 
			},
			{
				"x": 1.5903644692,
				"y": -3.976134556,
				"z": -0.6205706283,
				"element": "C" 
			},
			{
				"x": 3.5853539242,
				"y": 1.1006287618,
				"z": 0.4985755383,
				"element": "C" 
			},
			{
				"x": 3.5387254338,
				"y": 2.6155762066,
				"z": 0.2076449278,
				"element": "C" 
			},
			{
				"x": 3.9131939717,
				"y": 0.9338787691,
				"z": 2.0032677373,
				"element": "C" 
			},
			{
				"x": 4.7248113851,
				"y": 0.5053745694,
				"z": -0.3661002179,
				"element": "C" 
			},
			{
				"x": 0.6591016214,
				"y": 1.2382685922,
				"z": -3.6534327765,
				"element": "C" 
			},
			{
				"x": 1.578163468,
				"y": 1.3520233956,
				"z": -4.6969779405,
				"element": "C" 
			},
			{
				"x": 3.572689871,
				"y": 3.5053790601,
				"z": -6.2803372269,
				"element": "H" 
			},
			{
				"x": 2.3385043191,
				"y": 2.8975681686,
				"z": -7.3822614135,
				"element": "H" 
			},
			{
				"x": 3.4222777381,
				"y": 1.7664144473,
				"z": -6.5667022751,
				"element": "H" 
			},
			{
				"x": 1.4402331964,
				"y": 4.6947614672,
				"z": -5.2119308305,
				"element": "H" 
			},
			{
				"x": -0.1483631883,
				"y": 4.5216935525,
				"z": -3.3366105369,
				"element": "H" 
			},
			{
				"x": -1.7121570682,
				"y": 2.9789586876,
				"z": -2.2190216669,
				"element": "H" 
			},
			{
				"x": -1.5001419307,
				"y": 1.4361417126,
				"z": 1.7664600272,
				"element": "H" 
			},
			{
				"x": -2.4226883502,
				"y": 0.2155764428,
				"z": 3.7001816992,
				"element": "H" 
			},
			{
				"x": -5.3411361784,
				"y": -0.9845851694,
				"z": 4.2119878606,
				"element": "H" 
			},
			{
				"x": -3.7670281984,
				"y": -1.7065688651,
				"z": 4.5457192779,
				"element": "H" 
			},
			{
				"x": -4.9156153609,
				"y": -2.5318721187,
				"z": 3.4814149873,
				"element": "H" 
			},
			{
				"x": -5.3058949483,
				"y": -1.671486481,
				"z": 1.1406403458,
				"element": "H" 
			},
			{
				"x": -4.3967509255,
				"y": -0.4203718008,
				"z": -0.7943049854,
				"element": "H" 
			},
			{
				"x": 1.2692793384,
				"y": 2.2096509252,
				"z": -0.5050221267,
				"element": "H" 
			},
			{
				"x": 2.874055868,
				"y": -2.6031707804,
				"z": 0.9504705537,
				"element": "H" 
			},
			{
				"x": -1.1644046721,
				"y": -1.2700196083,
				"z": -0.7194213009,
				"element": "H" 
			},
			{
				"x": -0.9214500191,
				"y": -4.6620873748,
				"z": -0.0064356365,
				"element": "H" 
			},
			{
				"x": -1.5935814789,
				"y": -3.0782613239,
				"z": 0.3943840936,
				"element": "H" 
			},
			{
				"x": -0.9971642983,
				"y": -3.4064164518,
				"z": -1.2444129755,
				"element": "H" 
			},
			{
				"x": 0.5771883947,
				"y": -4.5765070818,
				"z": 1.8960321283,
				"element": "H" 
			},
			{
				"x": -0.0253939126,
				"y": -2.965002588,
				"z": 2.3260638424,
				"element": "H" 
			},
			{
				"x": 1.7007051295,
				"y": -3.2509316136,
				"z": 2.1949296032,
				"element": "H" 
			},
			{
				"x": 1.425782132,
				"y": -3.7700863216,
				"z": -1.6826898174,
				"element": "H" 
			},
			{
				"x": 1.4271230025,
				"y": -5.0461981134,
				"z": -0.4534275761,
				"element": "H" 
			},
			{
				"x": 2.6488253665,
				"y": -3.7755805509,
				"z": -0.4265806509,
				"element": "H" 
			},
			{
				"x": 3.3435835463,
				"y": 2.828443791,
				"z": -0.8483855651,
				"element": "H" 
			},
			{
				"x": 2.7809916796,
				"y": 3.1287536522,
				"z": 0.8091831073,
				"element": "H" 
			},
			{
				"x": 4.5086163591,
				"y": 3.0569437716,
				"z": 0.4581942458,
				"element": "H" 
			},
			{
				"x": 4.0131416426,
				"y": -0.1144685628,
				"z": 2.2847073075,
				"element": "H" 
			},
			{
				"x": 4.8551844076,
				"y": 1.4434159335,
				"z": 2.2367134578,
				"element": "H" 
			},
			{
				"x": 3.127954128,
				"y": 1.3836424385,
				"z": 2.6208212835,
				"element": "H" 
			},
			{
				"x": 5.6689894455,
				"y": 1.0129133288,
				"z": -0.1370828513,
				"element": "H" 
			},
			{
				"x": 4.8581922698,
				"y": -0.5613949478,
				"z": -0.185056927,
				"element": "H" 
			},
			{
				"x": 4.5151695029,
				"y": 0.6521718615,
				"z": -1.4312154598,
				"element": "H" 
			},
			{
				"x": 0.4330470001,
				"y": 0.263162252,
				"z": -3.2397378802,
				"element": "H" 
			},
			{
				"x": 2.0582751596,
				"y": 0.450722499,
				"z": -5.0706279436,
				"element": "H" 
			}
		],
		 "valence_orbital": [ 
			{
				"type": "occ",
				"energy": -0.2414,
				"method": "rhf"
			},
			{
				"type": "occ",
				"energy": -0.23487,
				"method": "rhf"
			},
			{
				"type": "occ",
				"energy": -0.21571,
				"method": "rhf"
			},
			{
				"type": "occ",
				"energy": -0.20705,
				"method": "rhf"
			},
			{
				"type": "occ",
				"energy": -0.18959,
				"method": "rhf"
			},
			{
				"type": "unocc",
				"energy": -0.02713,
				"method": "rhf"
			},
			{
				"type": "unocc",
				"energy": -0.00589,
				"method": "rhf"
			},
			{
				"type": "unocc",
				"energy": 0.00332,
				"method": "rhf"
			},
			{
				"type": "unocc",
				"energy": 0.0104,
				"method": "rhf"
			},
			{
				"type": "unocc",
				"energy": 0.01438,
				"method": "rhf"
			}
		],
		"cosmo_sigma_profile": { 
			"-0.025": 0.0,
			"-0.024": 0.0,
			"-0.023": 0.0,
			"-0.022": 0.0,
			"-0.021": 0.0,
			"-0.02": 0.0,
			"-0.019": 0.0,
			"-0.018": 0.0,
			"-0.017": 0.0,
			"-0.016": 0.0,
			"-0.015": 0.132147103298,
			"-0.014": 0.662508131751,
			"-0.013": 1.41523014828,
			"-0.012": 1.03808191316,
			"-0.011": 1.92405514733,
			"-0.01": 1.33234812581,
			"-0.009": 2.2789191517,
			"-0.008": 2.00475937906,
			"-0.007": 2.16416509615,
			"-0.006": 3.13254517609,
			"-0.005": 11.4929323203,
			"-0.004": 30.7239709099,
			"-0.003": 55.5103452743,
			"-0.002": 63.5717110451,
			"-0.001": 60.827273394,
			"0.0": 70.2590540159,
			"0.001": 59.6918702137,
			"0.002": 39.7370830631,
			"0.003": 29.8588233227,
			"0.004": 27.1559979701,
			"0.005": 21.5435073123,
			"0.006": 17.8355470106,
			"0.007": 5.37443757389,
			"0.008": 1.98348208455,
			"0.009": 1.74774694027,
			"0.01": 0.45469051766,
			"0.011": 1.2168714249,
			"0.012": 1.14300280206,
			"0.013": 0.694062837702,
			"0.014": 0.476544978163,
			"0.015": 0.7298377023,
			"0.016": 0.0,
			"0.017": 0.0,
			"0.018": 0.0,
			"0.019": 0.0,
			"0.02": 0.0,
			"0.021": 0.0,
			"0.022": 0.0,
			"0.023": 0.0,
			"0.024": 0.0,
			"0.025": 0.0
		}
	}
}
