{
	 "smiles": "BrC1=C(SC=C1)C#N", 
	 "Tm": 322.15, 
	 "num_atms": 10, 
	 "gaussian": { 
		 "optdone": 1, 
		 "sigma_profile": "yes", 
		 "theory": "DFT", 
		 "functional": "B3LYP", 
		 "basiset": "6-31G**", 
		 "properties": { 
			 "R2extent": 2345.7844, 
			 "electric_dipole_moment_norm": 4.96395363193, 
			 "electric_quadrupole_moment_norm": 11.9560507811, 
			 "total_energy": -3216.03777152, 
			 "HOMO_LUMO_gap": 0.18632, 
			 "cosmo_polarized_energy": -8.53, 
			 "cosmo_cavitation_energy": 19.68, 
			 "cosmo_dispersion_energy": -15.0, 
			 "cosmo_repulsion_energy": 1.2, 
			 "cosmo_total_nonelectrostatic_energy": 5.88, 
			 "SMD_solvation_energy": 3.71 
		},
		"coords": [
			{
				"x": -2.7244354082,
				"y": 0.5988640948,
				"z": 1.0158102804,
				"element": "Br" 
			},
			{
				"x": -1.220356872,
				"y": -0.179985799,
				"z": 0.1882451295,
				"element": "C" 
			},
			{
				"x": -0.8601223419,
				"y": -1.502909246,
				"z": 0.3519421782,
				"element": "C" 
			},
			{
				"x": 0.5867477369,
				"y": -1.8595631097,
				"z": -0.5684044806,
				"element": "S" 
			},
			{
				"x": 0.6684086541,
				"y": -0.2332433226,
				"z": -1.1452155489,
				"element": "C" 
			},
			{
				"x": -0.3482388805,
				"y": 0.5473643386,
				"z": -0.6669356352,
				"element": "C" 
			},
			{
				"x": -1.4980205522,
				"y": -2.4994266256,
				"z": 1.1253875372,
				"element": "C" 
			},
			{
				"x": -2.0089730905,
				"y": -3.3342676896,
				"z": 1.7566410515,
				"element": "N" 
			},
			{
				"x": 1.4694440426,
				"y": 0.0581749795,
				"z": -1.8107604608,
				"element": "H" 
			},
			{
				"x": -0.4823532882,
				"y": 1.5944923795,
				"z": -0.9046100512,
				"element": "H" 
			}
		],
		 "valence_orbital": [ 
			{
				"type": "occ",
				"energy": -0.34027,
				"method": "rhf"
			},
			{
				"type": "occ",
				"energy": -0.33887,
				"method": "rhf"
			},
			{
				"type": "occ",
				"energy": -0.30767,
				"method": "rhf"
			},
			{
				"type": "occ",
				"energy": -0.27671,
				"method": "rhf"
			},
			{
				"type": "occ",
				"energy": -0.25822,
				"method": "rhf"
			},
			{
				"type": "unocc",
				"energy": -0.0719,
				"method": "rhf"
			},
			{
				"type": "unocc",
				"energy": -0.0271,
				"method": "rhf"
			},
			{
				"type": "unocc",
				"energy": -0.00161,
				"method": "rhf"
			},
			{
				"type": "unocc",
				"energy": 0.01313,
				"method": "rhf"
			},
			{
				"type": "unocc",
				"energy": 0.01449,
				"method": "rhf"
			}
		],
		"cosmo_sigma_profile": { 
			"-0.025": 0.0,
			"-0.024": 0.0,
			"-0.023": 0.0,
			"-0.022": 0.0,
			"-0.021": 0.0,
			"-0.02": 0.0,
			"-0.019": 0.0,
			"-0.018": 0.0,
			"-0.017": 0.0,
			"-0.016": 0.0,
			"-0.015": 0.0,
			"-0.014": 0.0,
			"-0.013": 0.0,
			"-0.012": 0.0,
			"-0.011": 1.15410843691,
			"-0.01": 2.79137471764,
			"-0.009": 3.48136143292,
			"-0.008": 3.93019562092,
			"-0.007": 3.34091533982,
			"-0.006": 5.53164337836,
			"-0.005": 7.20807857839,
			"-0.004": 6.98956798146,
			"-0.003": 8.16332451644,
			"-0.002": 12.1581369237,
			"-0.001": 20.2179923629,
			"0.0": 22.2286253623,
			"0.001": 15.4769999985,
			"0.002": 14.5419138192,
			"0.003": 13.1276555056,
			"0.004": 2.73140771609,
			"0.005": 2.47373934941,
			"0.006": 2.90270746936,
			"0.007": 2.90901372021,
			"0.008": 3.38007104613,
			"0.009": 3.26880906864,
			"0.01": 2.9404437026,
			"0.011": 2.46404146179,
			"0.012": 2.15089477259,
			"0.013": 0.493500368087,
			"0.014": 0.0,
			"0.015": 0.0,
			"0.016": 0.0,
			"0.017": 0.0,
			"0.018": 0.0,
			"0.019": 0.0,
			"0.02": 0.0,
			"0.021": 0.0,
			"0.022": 0.0,
			"0.023": 0.0,
			"0.024": 0.0,
			"0.025": 0.0
		}
	}
}
