{
	 "smiles": "C1=CC2=CC=CC(P(C3=C4C=CC=CC4=CC=C3)C3=C4C=CC=CC4=CC=C3)=C2C=C1", 
	 "Tm": 539.15, 
	 "num_atms": 52, 
	 "gaussian": { 
		 "optdone": 1, 
		 "sigma_profile": "yes", 
		 "theory": "DFT", 
		 "functional": "B3LYP", 
		 "basiset": "6-31G**", 
		 "properties": { 
			 "R2extent": 12568.91, 
			 "electric_dipole_moment_norm": 1.25936094111, 
			 "electric_quadrupole_moment_norm": 7.31233936234, 
			 "total_energy": -1497.22399329, 
			 "HOMO_LUMO_gap": 0.15338, 
			 "cosmo_polarized_energy": -11.17, 
			 "cosmo_cavitation_energy": 54.57, 
			 "cosmo_dispersion_energy": -36.82, 
			 "cosmo_repulsion_energy": 2.76, 
			 "cosmo_total_nonelectrostatic_energy": 20.51, 
			 "SMD_solvation_energy": 8.36 
		},
		"coords": [
			{
				"x": -3.8031979376,
				"y": 3.8799575861,
				"z": -0.3586287792,
				"element": "C" 
			},
			{
				"x": -4.0699281562,
				"y": 3.0456765805,
				"z": -1.4194024568,
				"element": "C" 
			},
			{
				"x": -3.360899973,
				"y": 1.8261026019,
				"z": -1.5903851838,
				"element": "C" 
			},
			{
				"x": -3.6501219846,
				"y": 0.9576759079,
				"z": -2.6763513827,
				"element": "C" 
			},
			{
				"x": -2.9629492297,
				"y": -0.2222719312,
				"z": -2.8255728345,
				"element": "C" 
			},
			{
				"x": -1.9482150642,
				"y": -0.5786194039,
				"z": -1.906491613,
				"element": "C" 
			},
			{
				"x": -1.616766996,
				"y": 0.2334141949,
				"z": -0.8338635417,
				"element": "C" 
			},
			{
				"x": -0.3954051739,
				"y": -0.3069789016,
				"z": 0.4621254184,
				"element": "P" 
			},
			{
				"x": 1.0504832406,
				"y": 0.8594844043,
				"z": 0.3538546031,
				"element": "C" 
			},
			{
				"x": 1.6570949962,
				"y": 1.4438638304,
				"z": -0.8151118808,
				"element": "C" 
			},
			{
				"x": 1.2526618602,
				"y": 1.147109328,
				"z": -2.1462783627,
				"element": "C" 
			},
			{
				"x": 1.8653224231,
				"y": 1.7353200413,
				"z": -3.2312843884,
				"element": "C" 
			},
			{
				"x": 2.9225864176,
				"y": 2.6567096071,
				"z": -3.0522821265,
				"element": "C" 
			},
			{
				"x": 3.3509324255,
				"y": 2.9625405969,
				"z": -1.7816274466,
				"element": "C" 
			},
			{
				"x": 2.7447127492,
				"y": 2.3700681556,
				"z": -0.6408974288,
				"element": "C" 
			},
			{
				"x": 3.2096990614,
				"y": 2.6738391124,
				"z": 0.6662573876,
				"element": "C" 
			},
			{
				"x": 2.6305473324,
				"y": 2.0942638006,
				"z": 1.7683752134,
				"element": "C" 
			},
			{
				"x": 1.5484756616,
				"y": 1.1994975125,
				"z": 1.6042735105,
				"element": "C" 
			},
			{
				"x": 0.2496022658,
				"y": -1.9248416648,
				"z": -0.1765547113,
				"element": "C" 
			},
			{
				"x": -0.5437755112,
				"y": -3.1130153452,
				"z": 0.0183262676,
				"element": "C" 
			},
			{
				"x": -1.8496339821,
				"y": -3.0909100039,
				"z": 0.5838322958,
				"element": "C" 
			},
			{
				"x": -2.581578632,
				"y": -4.2467666514,
				"z": 0.7444776583,
				"element": "C" 
			},
			{
				"x": -2.0506931163,
				"y": -5.495574824,
				"z": 0.3453767808,
				"element": "C" 
			},
			{
				"x": -0.7889090337,
				"y": -5.5587761292,
				"z": -0.1988429748,
				"element": "C" 
			},
			{
				"x": -0.0053839631,
				"y": -4.3857913436,
				"z": -0.3729164594,
				"element": "C" 
			},
			{
				"x": 1.3030838667,
				"y": -4.4526794654,
				"z": -0.9211948567,
				"element": "C" 
			},
			{
				"x": 2.0523859132,
				"y": -3.311923872,
				"z": -1.075889009,
				"element": "C" 
			},
			{
				"x": 1.5235382654,
				"y": -2.0530921698,
				"z": -0.7046585101,
				"element": "C" 
			},
			{
				"x": -2.3418978143,
				"y": 1.4633910618,
				"z": -0.6445737907,
				"element": "C" 
			},
			{
				"x": -2.101887095,
				"y": 2.3494591965,
				"z": 0.4425098408,
				"element": "C" 
			},
			{
				"x": -2.8108948592,
				"y": 3.5222236866,
				"z": 0.5831611845,
				"element": "C" 
			},
			{
				"x": -4.3535529275,
				"y": 4.8087819797,
				"z": -0.2394988366,
				"element": "H" 
			},
			{
				"x": -4.8345895798,
				"y": 3.3058782539,
				"z": -2.1471111681,
				"element": "H" 
			},
			{
				"x": -4.4266390663,
				"y": 1.2420541555,
				"z": -3.3818535594,
				"element": "H" 
			},
			{
				"x": -3.1872481406,
				"y": -0.8888200365,
				"z": -3.6535544246,
				"element": "H" 
			},
			{
				"x": -1.4151466609,
				"y": -1.5106336881,
				"z": -2.0603551763,
				"element": "H" 
			},
			{
				"x": 0.4448599653,
				"y": 0.4463469837,
				"z": -2.306252454,
				"element": "H" 
			},
			{
				"x": 1.5314021331,
				"y": 1.4881017999,
				"z": -4.2349315773,
				"element": "H" 
			},
			{
				"x": 3.3946740173,
				"y": 3.1157717817,
				"z": -3.9160485334,
				"element": "H" 
			},
			{
				"x": 4.1677226035,
				"y": 3.6633397836,
				"z": -1.6279454988,
				"element": "H" 
			},
			{
				"x": 4.0344401149,
				"y": 3.3735526585,
				"z": 0.7763499997,
				"element": "H" 
			},
			{
				"x": 2.9885047123,
				"y": 2.325669482,
				"z": 2.7672613233,
				"element": "H" 
			},
			{
				"x": 1.0844367869,
				"y": 0.7702373312,
				"z": 2.4881875703,
				"element": "H" 
			},
			{
				"x": -2.2740815334,
				"y": -2.1442078035,
				"z": 0.901143854,
				"element": "H" 
			},
			{
				"x": -3.5740983312,
				"y": -4.1992907219,
				"z": 1.1831753788,
				"element": "H" 
			},
			{
				"x": -2.638361165,
				"y": -6.3999218624,
				"z": 0.4740471941,
				"element": "H" 
			},
			{
				"x": -0.3667391473,
				"y": -6.5130367493,
				"z": -0.5039986156,
				"element": "H" 
			},
			{
				"x": 1.7007465965,
				"y": -5.4222844344,
				"z": -1.2100316768,
				"element": "H" 
			},
			{
				"x": 3.0553505809,
				"y": -3.3645787814,
				"z": -1.4897253882,
				"element": "H" 
			},
			{
				"x": 2.1423856816,
				"y": -1.1743262587,
				"z": -0.8415693652,
				"element": "H" 
			},
			{
				"x": -1.3458756535,
				"y": 2.0967322429,
				"z": 1.177426349,
				"element": "H" 
			},
			{
				"x": -2.6068789439,
				"y": 4.1774783842,
				"z": 1.4251221816,
				"element": "H" 
			}
		],
		 "valence_orbital": [ 
			{
				"type": "occ",
				"energy": -0.23973,
				"method": "rhf"
			},
			{
				"type": "occ",
				"energy": -0.23496,
				"method": "rhf"
			},
			{
				"type": "occ",
				"energy": -0.21934,
				"method": "rhf"
			},
			{
				"type": "occ",
				"energy": -0.21118,
				"method": "rhf"
			},
			{
				"type": "occ",
				"energy": -0.19929,
				"method": "rhf"
			},
			{
				"type": "unocc",
				"energy": -0.04591,
				"method": "rhf"
			},
			{
				"type": "unocc",
				"energy": -0.04315,
				"method": "rhf"
			},
			{
				"type": "unocc",
				"energy": -0.03781,
				"method": "rhf"
			},
			{
				"type": "unocc",
				"energy": -0.01219,
				"method": "rhf"
			},
			{
				"type": "unocc",
				"energy": -0.0089,
				"method": "rhf"
			}
		],
		"cosmo_sigma_profile": { 
			"-0.025": 0.0,
			"-0.024": 0.0,
			"-0.023": 0.0,
			"-0.022": 0.0,
			"-0.021": 0.0,
			"-0.02": 0.0,
			"-0.019": 0.0,
			"-0.018": 0.0,
			"-0.017": 0.0,
			"-0.016": 0.0,
			"-0.015": 0.0,
			"-0.014": 0.0,
			"-0.013": 0.0,
			"-0.012": 0.0,
			"-0.011": 0.0,
			"-0.01": 0.0,
			"-0.009": 0.0,
			"-0.008": 0.0,
			"-0.007": 1.21792777488,
			"-0.006": 28.2375336262,
			"-0.005": 35.0733699124,
			"-0.004": 40.6073701979,
			"-0.003": 34.1307285149,
			"-0.002": 30.3891946127,
			"-0.001": 27.946051158,
			"0.0": 26.8594149606,
			"0.001": 30.1963221914,
			"0.002": 33.6280844635,
			"0.003": 50.2160436585,
			"0.004": 60.8954874517,
			"0.005": 33.837046605,
			"0.006": 2.29192471598,
			"0.007": 0.61987804017,
			"0.008": 0.451097764131,
			"0.009": 0.616944454998,
			"0.01": 0.594390429817,
			"0.011": 0.561398958486,
			"0.012": 0.306194163425,
			"0.013": 0.0820552292489,
			"0.014": 0.0,
			"0.015": 0.0,
			"0.016": 0.0,
			"0.017": 0.0,
			"0.018": 0.0,
			"0.019": 0.0,
			"0.02": 0.0,
			"0.021": 0.0,
			"0.022": 0.0,
			"0.023": 0.0,
			"0.024": 0.0,
			"0.025": 0.0
		}
	}
}
