{
	 "smiles": "CC1=NNC(=O)C1=CC1=C(O)C2=CC=CC(C)=C2NC1=O", 
	 "Tm": 515.15, 
	 "num_atms": 34, 
	 "gaussian": { 
		 "optdone": 1, 
		 "sigma_profile": "yes", 
		 "theory": "DFT", 
		 "functional": "B3LYP", 
		 "basiset": "6-31G**", 
		 "properties": { 
			 "R2extent": 8002.3193, 
			 "electric_dipole_moment_norm": 6.55499921434, 
			 "electric_quadrupole_moment_norm": 25.2826635598, 
			 "total_energy": -969.365733674, 
			 "HOMO_LUMO_gap": 0.12447, 
			 "cosmo_polarized_energy": -22.54, 
			 "cosmo_cavitation_energy": 37.96, 
			 "cosmo_dispersion_energy": -27.29, 
			 "cosmo_repulsion_energy": 2.06, 
			 "cosmo_total_nonelectrostatic_energy": 12.72, 
			 "SMD_solvation_energy": 6.82 
		},
		"coords": [
			{
				"x": -1.4441776785,
				"y": -1.4297144443,
				"z": -1.7969797971,
				"element": "C" 
			},
			{
				"x": -1.0227309037,
				"y": -2.7990556316,
				"z": -1.3575866116,
				"element": "C" 
			},
			{
				"x": -1.7982295189,
				"y": -3.8216473498,
				"z": -1.5945221698,
				"element": "N" 
			},
			{
				"x": -1.1428841952,
				"y": -4.9616054176,
				"z": -1.1741483295,
				"element": "N" 
			},
			{
				"x": 0.1521092274,
				"y": -4.7395046965,
				"z": -0.7460695731,
				"element": "C" 
			},
			{
				"x": 0.9700156969,
				"y": -5.5734738302,
				"z": -0.3916208097,
				"element": "O" 
			},
			{
				"x": 0.2641613298,
				"y": -3.2409269809,
				"z": -0.8004309853,
				"element": "C" 
			},
			{
				"x": 1.4428040039,
				"y": -2.6379777519,
				"z": -0.4875104961,
				"element": "C" 
			},
			{
				"x": 1.7544638767,
				"y": -1.2324047156,
				"z": -0.2981758861,
				"element": "C" 
			},
			{
				"x": 0.9675268514,
				"y": -0.3598080176,
				"z": 0.4323733436,
				"element": "C" 
			},
			{
				"x": -0.1949529932,
				"y": -0.7228309113,
				"z": 1.0099793582,
				"element": "O" 
			},
			{
				"x": 1.3644828865,
				"y": 1.0075314786,
				"z": 0.6759396802,
				"element": "C" 
			},
			{
				"x": 0.5524974713,
				"y": 1.91255668,
				"z": 1.3878343926,
				"element": "C" 
			},
			{
				"x": 0.9769282105,
				"y": 3.2141143144,
				"z": 1.586098128,
				"element": "C" 
			},
			{
				"x": 2.2195764476,
				"y": 3.6280878418,
				"z": 1.0799956748,
				"element": "C" 
			},
			{
				"x": 3.0565487184,
				"y": 2.7667004188,
				"z": 0.3777197149,
				"element": "C" 
			},
			{
				"x": 4.3927522238,
				"y": 3.2224079742,
				"z": -0.1545764478,
				"element": "C" 
			},
			{
				"x": 2.6175646199,
				"y": 1.436558331,
				"z": 0.1783358882,
				"element": "C" 
			},
			{
				"x": 3.405704847,
				"y": 0.5255671151,
				"z": -0.4947028198,
				"element": "N" 
			},
			{
				"x": 3.0876474316,
				"y": -0.8080167991,
				"z": -0.747239743,
				"element": "C" 
			},
			{
				"x": 3.8906611429,
				"y": -1.5384430954,
				"z": -1.3187558225,
				"element": "O" 
			},
			{
				"x": -1.6200558076,
				"y": -0.7541927773,
				"z": -0.9548894555,
				"element": "H" 
			},
			{
				"x": -0.6733507774,
				"y": -0.9720652959,
				"z": -2.4267942096,
				"element": "H" 
			},
			{
				"x": -2.3667496314,
				"y": -1.5146363055,
				"z": -2.3747675053,
				"element": "H" 
			},
			{
				"x": -1.5525335089,
				"y": -5.861751699,
				"z": -1.3691992916,
				"element": "H" 
			},
			{
				"x": 2.2849430072,
				"y": -3.3190362322,
				"z": -0.3575860824,
				"element": "H" 
			},
			{
				"x": -0.3393608296,
				"y": -1.6734616186,
				"z": 0.8668181775,
				"element": "H" 
			},
			{
				"x": -0.402294176,
				"y": 1.5699825915,
				"z": 1.7687518304,
				"element": "H" 
			},
			{
				"x": 0.3537708655,
				"y": 3.915975429,
				"z": 2.1305175194,
				"element": "H" 
			},
			{
				"x": 2.5456840278,
				"y": 4.6525046966,
				"z": 1.239667806,
				"element": "H" 
			},
			{
				"x": 4.458295653,
				"y": 3.1131273335,
				"z": -1.2447108193,
				"element": "H" 
			},
			{
				"x": 4.5626886414,
				"y": 4.2758106722,
				"z": 0.0784319066,
				"element": "H" 
			},
			{
				"x": 5.2239175417,
				"y": 2.6536913208,
				"z": 0.2824784958,
				"element": "H" 
			},
			{
				"x": 4.3224752983,
				"y": 0.7964373729,
				"z": -0.8244750611,
				"element": "H" 
			}
		],
		 "valence_orbital": [ 
			{
				"type": "occ",
				"energy": -0.26519,
				"method": "rhf"
			},
			{
				"type": "occ",
				"energy": -0.25324,
				"method": "rhf"
			},
			{
				"type": "occ",
				"energy": -0.24935,
				"method": "rhf"
			},
			{
				"type": "occ",
				"energy": -0.23456,
				"method": "rhf"
			},
			{
				"type": "occ",
				"energy": -0.21755,
				"method": "rhf"
			},
			{
				"type": "unocc",
				"energy": -0.09308,
				"method": "rhf"
			},
			{
				"type": "unocc",
				"energy": -0.04492,
				"method": "rhf"
			},
			{
				"type": "unocc",
				"energy": -0.01721,
				"method": "rhf"
			},
			{
				"type": "unocc",
				"energy": 0.01,
				"method": "rhf"
			},
			{
				"type": "unocc",
				"energy": 0.03526,
				"method": "rhf"
			}
		],
		"cosmo_sigma_profile": { 
			"-0.025": 0.0,
			"-0.024": 0.0,
			"-0.023": 0.0,
			"-0.022": 0.0,
			"-0.021": 0.0,
			"-0.02": 0.0,
			"-0.019": 0.0,
			"-0.018": 0.0,
			"-0.017": 0.0,
			"-0.016": 0.938444969365,
			"-0.015": 2.09978818089,
			"-0.014": 2.23585564417,
			"-0.013": 2.74202262965,
			"-0.012": 3.41464159424,
			"-0.011": 2.34694504381,
			"-0.01": 3.36723002227,
			"-0.009": 2.92392020112,
			"-0.008": 3.36173257997,
			"-0.007": 5.07481342069,
			"-0.006": 11.4707950031,
			"-0.005": 17.3498100484,
			"-0.004": 18.3765885122,
			"-0.003": 23.0198138582,
			"-0.002": 30.0589614825,
			"-0.001": 32.2639099209,
			"0.0": 25.190761427,
			"0.001": 18.9735670407,
			"0.002": 16.3334343213,
			"0.003": 14.832928836,
			"0.004": 11.2864485678,
			"0.005": 7.77901319892,
			"0.006": 4.66929755989,
			"0.007": 3.97047630782,
			"0.008": 3.6217940944,
			"0.009": 3.77966884856,
			"0.01": 4.39754846976,
			"0.011": 4.11829267057,
			"0.012": 6.36295441758,
			"0.013": 11.5894579827,
			"0.014": 5.15385985509,
			"0.015": 0.139593852337,
			"0.016": 0.0,
			"0.017": 0.0,
			"0.018": 0.0,
			"0.019": 0.0,
			"0.02": 0.0,
			"0.021": 0.0,
			"0.022": 0.0,
			"0.023": 0.0,
			"0.024": 0.0,
			"0.025": 0.0
		}
	}
}
