{
	 "smiles": "CCOC(=O)C1=C(C)NC(C=O)=C1C", 
	 "Tm": 436.15, 
	 "num_atms": 27, 
	 "gaussian": { 
		 "optdone": 1, 
		 "sigma_profile": "yes", 
		 "theory": "DFT", 
		 "functional": "B3LYP", 
		 "basiset": "6-31G**", 
		 "properties": { 
			 "R2extent": 3769.1754, 
			 "electric_dipole_moment_norm": 6.02032777679, 
			 "electric_quadrupole_moment_norm": 6.12729388148, 
			 "total_energy": -669.345072498, 
			 "HOMO_LUMO_gap": 0.18257, 
			 "cosmo_polarized_energy": -17.07, 
			 "cosmo_cavitation_energy": 30.93, 
			 "cosmo_dispersion_energy": -21.81, 
			 "cosmo_repulsion_energy": 1.73, 
			 "cosmo_total_nonelectrostatic_energy": 10.86, 
			 "SMD_solvation_energy": 7.3 
		},
		"coords": [
			{
				"x": -4.3010709455,
				"y": 1.9491137607,
				"z": 2.3947431941,
				"element": "C" 
			},
			{
				"x": -3.4265365119,
				"y": 0.7797109582,
				"z": 2.8228533533,
				"element": "C" 
			},
			{
				"x": -2.7062555787,
				"y": 0.2175686949,
				"z": 1.7016462275,
				"element": "O" 
			},
			{
				"x": -1.5305703726,
				"y": 0.8249051379,
				"z": 1.3759624916,
				"element": "C" 
			},
			{
				"x": -1.0898974037,
				"y": 1.784419888,
				"z": 1.9837221556,
				"element": "O" 
			},
			{
				"x": -0.8757759908,
				"y": 0.1878613164,
				"z": 0.2286338132,
				"element": "C" 
			},
			{
				"x": -1.3329153924,
				"y": -0.9227948604,
				"z": -0.504268934,
				"element": "C" 
			},
			{
				"x": -2.5548375946,
				"y": -1.7743135054,
				"z": -0.372170435,
				"element": "C" 
			},
			{
				"x": -0.4142555905,
				"y": -1.159843894,
				"z": -1.4677930239,
				"element": "N" 
			},
			{
				"x": 0.6356786997,
				"y": -0.2443366748,
				"z": -1.3979768786,
				"element": "C" 
			},
			{
				"x": 1.7292165923,
				"y": -0.3222370004,
				"z": -2.3440457749,
				"element": "C" 
			},
			{
				"x": 2.7025846777,
				"y": 0.4153462477,
				"z": -2.3899696095,
				"element": "O" 
			},
			{
				"x": 0.3651402852,
				"y": 0.6156912481,
				"z": -0.3346157577,
				"element": "C" 
			},
			{
				"x": 1.2244209475,
				"y": 1.7580060334,
				"z": 0.1108105102,
				"element": "C" 
			},
			{
				"x": -3.6841407047,
				"y": 2.7757971985,
				"z": 2.0349143355,
				"element": "H" 
			},
			{
				"x": -4.9925770766,
				"y": 1.6501516193,
				"z": 1.6010970068,
				"element": "H" 
			},
			{
				"x": -4.8900341324,
				"y": 2.305005254,
				"z": 3.2468000256,
				"element": "H" 
			},
			{
				"x": -2.7075398017,
				"y": 1.0871980608,
				"z": 3.5856689587,
				"element": "H" 
			},
			{
				"x": -4.0273625384,
				"y": -0.0501373753,
				"z": 3.2038415818,
				"element": "H" 
			},
			{
				"x": -2.5940613702,
				"y": -2.255161028,
				"z": 0.6091063823,
				"element": "H" 
			},
			{
				"x": -3.4635478041,
				"y": -1.173391854,
				"z": -0.4628168232,
				"element": "H" 
			},
			{
				"x": -2.5714802535,
				"y": -2.5518056773,
				"z": -1.1423064895,
				"element": "H" 
			},
			{
				"x": -0.4798945775,
				"y": -1.902874934,
				"z": -2.1484430348,
				"element": "H" 
			},
			{
				"x": 1.621102292,
				"y": -1.156022939,
				"z": -3.0808345264,
				"element": "H" 
			},
			{
				"x": 0.6646773295,
				"y": 2.6978044075,
				"z": 0.0778145084,
				"element": "H" 
			},
			{
				"x": 1.5291809214,
				"y": 1.6277394586,
				"z": 1.1537778404,
				"element": "H" 
			},
			{
				"x": 2.1077518945,
				"y": 1.8340004586,
				"z": -0.5228510973,
				"element": "H" 
			}
		],
		 "valence_orbital": [ 
			{
				"type": "occ",
				"energy": -0.29458,
				"method": "rhf"
			},
			{
				"type": "occ",
				"energy": -0.26896,
				"method": "rhf"
			},
			{
				"type": "occ",
				"energy": -0.25701,
				"method": "rhf"
			},
			{
				"type": "occ",
				"energy": -0.24679,
				"method": "rhf"
			},
			{
				"type": "occ",
				"energy": -0.2274,
				"method": "rhf"
			},
			{
				"type": "unocc",
				"energy": -0.04483,
				"method": "rhf"
			},
			{
				"type": "unocc",
				"energy": -0.01858,
				"method": "rhf"
			},
			{
				"type": "unocc",
				"energy": 0.0593,
				"method": "rhf"
			},
			{
				"type": "unocc",
				"energy": 0.0868,
				"method": "rhf"
			},
			{
				"type": "unocc",
				"energy": 0.0996,
				"method": "rhf"
			}
		],
		"cosmo_sigma_profile": { 
			"-0.025": 0.0,
			"-0.024": 0.0,
			"-0.023": 0.0,
			"-0.022": 0.0,
			"-0.021": 0.0,
			"-0.02": 0.0,
			"-0.019": 0.0,
			"-0.018": 0.0,
			"-0.017": 0.0934224292391,
			"-0.016": 1.4589148144,
			"-0.015": 1.60201404583,
			"-0.014": 2.08590610194,
			"-0.013": 1.29936148963,
			"-0.012": 1.56505162768,
			"-0.011": 1.78748266534,
			"-0.01": 1.35862501687,
			"-0.009": 1.45707216489,
			"-0.008": 2.91924269284,
			"-0.007": 1.73997761582,
			"-0.006": 3.824087706,
			"-0.005": 10.5143821868,
			"-0.004": 16.8380165899,
			"-0.003": 22.2216512196,
			"-0.002": 24.4865173839,
			"-0.001": 25.2030624944,
			"0.0": 26.1128164374,
			"0.001": 20.9665444335,
			"0.002": 16.9464901826,
			"0.003": 13.5346795623,
			"0.004": 8.50058237111,
			"0.005": 3.5758567834,
			"0.006": 4.50772569355,
			"0.007": 3.25262140178,
			"0.008": 3.05818009985,
			"0.009": 3.75568153082,
			"0.01": 3.99538205716,
			"0.011": 4.23276743244,
			"0.012": 6.73667359994,
			"0.013": 3.80570297989,
			"0.014": 0.689939138304,
			"0.015": 0.0,
			"0.016": 0.0,
			"0.017": 0.0,
			"0.018": 0.0,
			"0.019": 0.0,
			"0.02": 0.0,
			"0.021": 0.0,
			"0.022": 0.0,
			"0.023": 0.0,
			"0.024": 0.0,
			"0.025": 0.0
		}
	}
}
