{
	 "smiles": "OC(=O)C1=CC=C(OCC(F)(F)F)C=C1", 
	 "Tm": 474.15, 
	 "num_atms": 22, 
	 "gaussian": { 
		 "optdone": 1, 
		 "sigma_profile": "yes", 
		 "theory": "DFT", 
		 "functional": "B3LYP", 
		 "basiset": "6-31G**", 
		 "properties": { 
			 "R2extent": 4708.5459, 
			 "electric_dipole_moment_norm": 4.34898574153, 
			 "electric_quadrupole_moment_norm": 19.1409294652, 
			 "total_energy": -872.369669135, 
			 "HOMO_LUMO_gap": 0.20137, 
			 "cosmo_polarized_energy": -16.46, 
			 "cosmo_cavitation_energy": 28.39, 
			 "cosmo_dispersion_energy": -20.37, 
			 "cosmo_repulsion_energy": 1.53, 
			 "cosmo_total_nonelectrostatic_energy": 9.55, 
			 "SMD_solvation_energy": 7.41 
		},
		"coords": [
			{
				"x": -4.4839202123,
				"y": -0.2288033991,
				"z": -0.008139502,
				"element": "O" 
			},
			{
				"x": -3.3801307544,
				"y": 0.5519677852,
				"z": -0.1709731449,
				"element": "C" 
			},
			{
				"x": -3.5015683232,
				"y": 1.6893800618,
				"z": -0.5630499381,
				"element": "O" 
			},
			{
				"x": -2.0595256671,
				"y": -0.069052719,
				"z": 0.1553764484,
				"element": "C" 
			},
			{
				"x": -0.9082163514,
				"y": 0.5393755253,
				"z": -0.357942483,
				"element": "C" 
			},
			{
				"x": 0.3589480172,
				"y": 0.0246651014,
				"z": -0.0992571018,
				"element": "C" 
			},
			{
				"x": 0.4859558819,
				"y": -1.1070673372,
				"z": 0.71609087,
				"element": "C" 
			},
			{
				"x": 1.6716245486,
				"y": -1.7012287241,
				"z": 1.0633404194,
				"element": "O" 
			},
			{
				"x": 2.8975809598,
				"y": -1.0222712776,
				"z": 0.8867486143,
				"element": "C" 
			},
			{
				"x": 3.5874466263,
				"y": -1.4064629991,
				"z": -0.4165288577,
				"element": "C" 
			},
			{
				"x": 2.8827605089,
				"y": -1.0252004171,
				"z": -1.5022875135,
				"element": "F" 
			},
			{
				"x": 4.7917821824,
				"y": -0.7982006855,
				"z": -0.4703711892,
				"element": "F" 
			},
			{
				"x": 3.7811338051,
				"y": -2.7319438638,
				"z": -0.4997194509,
				"element": "F" 
			},
			{
				"x": -0.6557100388,
				"y": -1.7192532357,
				"z": 1.2509291102,
				"element": "C" 
			},
			{
				"x": -1.9138820693,
				"y": -1.20525891,
				"z": 0.9681400224,
				"element": "C" 
			},
			{
				"x": -4.2247217243,
				"y": -1.1491372573,
				"z": 0.1355772736,
				"element": "H" 
			},
			{
				"x": -1.0256776212,
				"y": 1.4214535007,
				"z": -0.9781112006,
				"element": "H" 
			},
			{
				"x": 1.2241958987,
				"y": 0.4849026044,
				"z": -0.5582669722,
				"element": "H" 
			},
			{
				"x": 3.5528412812,
				"y": -1.337186807,
				"z": 1.7030517783,
				"element": "H" 
			},
			{
				"x": 2.7870794355,
				"y": 0.0657614309,
				"z": 0.9245635247,
				"element": "H" 
			},
			{
				"x": -0.5294207062,
				"y": -2.5834242401,
				"z": 1.8939047265,
				"element": "H" 
			},
			{
				"x": -2.7783756774,
				"y": -1.6763141373,
				"z": 1.4299245662,
				"element": "H" 
			}
		],
		 "valence_orbital": [ 
			{
				"type": "occ",
				"energy": -0.34284,
				"method": "rhf"
			},
			{
				"type": "occ",
				"energy": -0.31374,
				"method": "rhf"
			},
			{
				"type": "occ",
				"energy": -0.27826,
				"method": "rhf"
			},
			{
				"type": "occ",
				"energy": -0.27332,
				"method": "rhf"
			},
			{
				"type": "occ",
				"energy": -0.24873,
				"method": "rhf"
			},
			{
				"type": "unocc",
				"energy": -0.04736,
				"method": "rhf"
			},
			{
				"type": "unocc",
				"energy": -0.02871,
				"method": "rhf"
			},
			{
				"type": "unocc",
				"energy": 0.05021,
				"method": "rhf"
			},
			{
				"type": "unocc",
				"energy": 0.05635,
				"method": "rhf"
			},
			{
				"type": "unocc",
				"energy": 0.07476,
				"method": "rhf"
			}
		],
		"cosmo_sigma_profile": { 
			"-0.025": 0.0,
			"-0.024": 0.0,
			"-0.023": 0.0,
			"-0.022": 0.0,
			"-0.021": 0.0,
			"-0.02": 0.0,
			"-0.019": 0.208730560836,
			"-0.018": 0.921913853042,
			"-0.017": 0.809087248233,
			"-0.016": 0.72023912676,
			"-0.015": 0.921040067063,
			"-0.014": 1.32005906308,
			"-0.013": 0.983701503208,
			"-0.012": 0.738425204788,
			"-0.011": 2.47696198553,
			"-0.01": 2.96251728219,
			"-0.009": 5.90598370951,
			"-0.008": 6.84472135394,
			"-0.007": 9.15732686961,
			"-0.006": 10.3676157806,
			"-0.005": 9.35663621553,
			"-0.004": 7.429879749,
			"-0.003": 8.9780928637,
			"-0.002": 8.5213510786,
			"-0.001": 9.97523800909,
			"0.0": 13.4941329305,
			"0.001": 18.6749173439,
			"0.002": 38.497759825,
			"0.003": 28.9541079173,
			"0.004": 4.97711901606,
			"0.005": 3.17233785144,
			"0.006": 4.1754895329,
			"0.007": 2.99281097055,
			"0.008": 3.74554518529,
			"0.009": 2.89920024031,
			"0.01": 4.47095129677,
			"0.011": 5.15640614186,
			"0.012": 5.47703933852,
			"0.013": 2.08029049321,
			"0.014": 0.166986262069,
			"0.015": 0.0,
			"0.016": 0.0,
			"0.017": 0.0,
			"0.018": 0.0,
			"0.019": 0.0,
			"0.02": 0.0,
			"0.021": 0.0,
			"0.022": 0.0,
			"0.023": 0.0,
			"0.024": 0.0,
			"0.025": 0.0
		}
	}
}
