{
	 "smiles": "COC1=CC=C(C=C1)C1=CC=C(C=C1)S(=O)(=O)NC1=CC=CC(=C1)C(O)=O", 
	 "Tm": 508.65, 
	 "num_atms": 44, 
	 "gaussian": { 
		 "optdone": 1, 
		 "sigma_profile": "yes", 
		 "theory": "DFT", 
		 "functional": "B3LYP", 
		 "basiset": "6-31G**", 
		 "properties": { 
			 "R2extent": 15954.4567, 
			 "electric_dipole_moment_norm": 3.80303595302, 
			 "electric_quadrupole_moment_norm": 41.2103823036, 
			 "total_energy": -1601.36732519, 
			 "HOMO_LUMO_gap": 0.16642, 
			 "cosmo_polarized_energy": -27.57, 
			 "cosmo_cavitation_energy": 50.66, 
			 "cosmo_dispersion_energy": -35.65, 
			 "cosmo_repulsion_energy": 2.62, 
			 "cosmo_total_nonelectrostatic_energy": 17.62, 
			 "SMD_solvation_energy": 9.35 
		},
		"coords": [
			{
				"x": 5.1880762291,
				"y": 5.7825552466,
				"z": -0.699141696,
				"element": "C" 
			},
			{
				"x": 5.3300365895,
				"y": 4.8379684953,
				"z": 0.3516332979,
				"element": "O" 
			},
			{
				"x": 4.4839569788,
				"y": 3.7714203438,
				"z": 0.3812462515,
				"element": "C" 
			},
			{
				"x": 4.6789627696,
				"y": 2.8664100536,
				"z": 1.4365061622,
				"element": "C" 
			},
			{
				"x": 3.8675046387,
				"y": 1.748506112,
				"z": 1.5563728782,
				"element": "C" 
			},
			{
				"x": 2.8377521125,
				"y": 1.4877790122,
				"z": 0.6308858082,
				"element": "C" 
			},
			{
				"x": 2.659141232,
				"y": 2.402173289,
				"z": -0.4169127963,
				"element": "C" 
			},
			{
				"x": 3.4646389095,
				"y": 3.5336726425,
				"z": -0.5490688139,
				"element": "C" 
			},
			{
				"x": 1.9724588041,
				"y": 0.2925211238,
				"z": 0.7602868013,
				"element": "C" 
			},
			{
				"x": 1.5179695185,
				"y": -0.3977835457,
				"z": -0.3773506069,
				"element": "C" 
			},
			{
				"x": 0.694807839,
				"y": -1.5151082425,
				"z": -0.2636834943,
				"element": "C" 
			},
			{
				"x": 0.316617934,
				"y": -1.9542054461,
				"z": 1.0058071559,
				"element": "C" 
			},
			{
				"x": 0.7655614792,
				"y": -1.3019477591,
				"z": 2.1573085439,
				"element": "C" 
			},
			{
				"x": 1.5831823869,
				"y": -0.1857137224,
				"z": 2.0273111288,
				"element": "C" 
			},
			{
				"x": -0.7270007078,
				"y": -3.3946531257,
				"z": 1.1626493948,
				"element": "S" 
			},
			{
				"x": -0.2870137962,
				"y": -4.1780816911,
				"z": 2.3205067764,
				"element": "O" 
			},
			{
				"x": -0.8821432843,
				"y": -3.9870052116,
				"z": -0.1658138231,
				"element": "O" 
			},
			{
				"x": -2.2278929253,
				"y": -2.7600793952,
				"z": 1.6980939198,
				"element": "N" 
			},
			{
				"x": -3.2918885576,
				"y": -2.4149311448,
				"z": 0.8369020117,
				"element": "C" 
			},
			{
				"x": -4.6039858185,
				"y": -2.7633881585,
				"z": 1.1953172357,
				"element": "C" 
			},
			{
				"x": -5.6778295114,
				"y": -2.3752458222,
				"z": 0.3984644035,
				"element": "C" 
			},
			{
				"x": -5.4611804916,
				"y": -1.66706434,
				"z": -0.7828382312,
				"element": "C" 
			},
			{
				"x": -4.1514519148,
				"y": -1.3315776995,
				"z": -1.1536501063,
				"element": "C" 
			},
			{
				"x": -3.0756470998,
				"y": -1.6817716776,
				"z": -0.3336684526,
				"element": "C" 
			},
			{
				"x": -3.8329100757,
				"y": -0.5534275314,
				"z": -2.3972338675,
				"element": "C" 
			},
			{
				"x": -4.7638186798,
				"y": -0.5833407299,
				"z": -3.3876341097,
				"element": "O" 
			},
			{
				"x": -2.8126315406,
				"y": 0.0774349289,
				"z": -2.5457844713,
				"element": "O" 
			},
			{
				"x": 5.9599041269,
				"y": 6.5353325708,
				"z": -0.5329596406,
				"element": "H" 
			},
			{
				"x": 4.2027966775,
				"y": 6.265372808,
				"z": -0.6785351325,
				"element": "H" 
			},
			{
				"x": 5.3408147543,
				"y": 5.3194976414,
				"z": -1.6822477339,
				"element": "H" 
			},
			{
				"x": 5.480320568,
				"y": 3.0590120111,
				"z": 2.142180923,
				"element": "H" 
			},
			{
				"x": 4.0529732628,
				"y": 1.0476570337,
				"z": 2.3648818615,
				"element": "H" 
			},
			{
				"x": 1.855720573,
				"y": 2.2485699536,
				"z": -1.1312094083,
				"element": "H" 
			},
			{
				"x": 3.2826288862,
				"y": 4.2205176782,
				"z": -1.3669021595,
				"element": "H" 
			},
			{
				"x": 1.8329553402,
				"y": -0.0722333956,
				"z": -1.3632653241,
				"element": "H" 
			},
			{
				"x": 0.3616848722,
				"y": -2.0546486348,
				"z": -1.143308262,
				"element": "H" 
			},
			{
				"x": 0.4750624441,
				"y": -1.6631420688,
				"z": 3.1379173771,
				"element": "H" 
			},
			{
				"x": 1.9069113916,
				"y": 0.3406706807,
				"z": 2.9194874807,
				"element": "H" 
			},
			{
				"x": -2.493027456,
				"y": -3.2780712549,
				"z": 2.5300883276,
				"element": "H" 
			},
			{
				"x": -4.7800930704,
				"y": -3.3336822194,
				"z": 2.1036743825,
				"element": "H" 
			},
			{
				"x": -6.688378957,
				"y": -2.6320986158,
				"z": 0.7007840556,
				"element": "H" 
			},
			{
				"x": -6.3133579568,
				"y": -1.3452917798,
				"z": -1.3752378341,
				"element": "H" 
			},
			{
				"x": -2.0838305658,
				"y": -1.364059483,
				"z": -0.6276913239,
				"element": "H" 
			},
			{
				"x": -5.4317579087,
				"y": -1.2557189297,
				"z": -3.19386889,
				"element": "H" 
			}
		],
		 "valence_orbital": [ 
			{
				"type": "occ",
				"energy": -0.26972,
				"method": "rhf"
			},
			{
				"type": "occ",
				"energy": -0.26655,
				"method": "rhf"
			},
			{
				"type": "occ",
				"energy": -0.2601,
				"method": "rhf"
			},
			{
				"type": "occ",
				"energy": -0.23991,
				"method": "rhf"
			},
			{
				"type": "occ",
				"energy": -0.21818,
				"method": "rhf"
			},
			{
				"type": "unocc",
				"energy": -0.05176,
				"method": "rhf"
			},
			{
				"type": "unocc",
				"energy": -0.05044,
				"method": "rhf"
			},
			{
				"type": "unocc",
				"energy": -0.02336,
				"method": "rhf"
			},
			{
				"type": "unocc",
				"energy": -0.01999,
				"method": "rhf"
			},
			{
				"type": "unocc",
				"energy": -0.01039,
				"method": "rhf"
			}
		],
		"cosmo_sigma_profile": { 
			"-0.025": 0.0,
			"-0.024": 0.0,
			"-0.023": 0.0,
			"-0.022": 0.0,
			"-0.021": 0.0,
			"-0.02": 0.0,
			"-0.019": 0.0729758113406,
			"-0.018": 0.794837575963,
			"-0.017": 0.863573085932,
			"-0.016": 1.17142534484,
			"-0.015": 2.89489512263,
			"-0.014": 1.6917281211,
			"-0.013": 1.61665314326,
			"-0.012": 2.32686404973,
			"-0.011": 2.626981104,
			"-0.01": 2.2915607771,
			"-0.009": 3.12979381078,
			"-0.008": 4.71220143048,
			"-0.007": 14.0586559789,
			"-0.006": 27.8181452739,
			"-0.005": 31.6060807121,
			"-0.004": 25.7863714393,
			"-0.003": 26.0520444508,
			"-0.002": 20.7629806639,
			"-0.001": 20.4896636951,
			"0.0": 21.9407966869,
			"0.001": 24.9765589644,
			"0.002": 37.4752020601,
			"0.003": 31.6094207982,
			"0.004": 19.8775096113,
			"0.005": 14.667255563,
			"0.006": 7.53351892532,
			"0.007": 7.421370149,
			"0.008": 7.925919266,
			"0.009": 9.02291020915,
			"0.01": 15.9022138426,
			"0.011": 10.8202767157,
			"0.012": 4.87095452473,
			"0.013": 1.31875914932,
			"0.014": 0.0264430631451,
			"0.015": 0.0,
			"0.016": 0.0,
			"0.017": 0.0,
			"0.018": 0.0,
			"0.019": 0.0,
			"0.02": 0.0,
			"0.021": 0.0,
			"0.022": 0.0,
			"0.023": 0.0,
			"0.024": 0.0,
			"0.025": 0.0
		}
	}
}
