{
	 "smiles": "CNS(=O)(=O)C1=CC=C(C=CC(O)=O)C=C1", 
	 "Tm": 533.15, 
	 "num_atms": 27, 
	 "gaussian": { 
		 "optdone": 1, 
		 "sigma_profile": "yes", 
		 "theory": "DFT", 
		 "functional": "B3LYP", 
		 "basiset": "6-31G**", 
		 "properties": { 
			 "R2extent": 5742.5924, 
			 "electric_dipole_moment_norm": 6.13230711804, 
			 "electric_quadrupole_moment_norm": 27.8216336226, 
			 "total_energy": -1141.4424539, 
			 "HOMO_LUMO_gap": 0.16433, 
			 "cosmo_polarized_energy": -24.24, 
			 "cosmo_cavitation_energy": 33.28, 
			 "cosmo_dispersion_energy": -24.46, 
			 "cosmo_repulsion_energy": 1.86, 
			 "cosmo_total_nonelectrostatic_energy": 10.68, 
			 "SMD_solvation_energy": 5.87 
		},
		"coords": [
			{
				"x": 3.1506438573,
				"y": 0.9626318543,
				"z": -2.5532282324,
				"element": "C" 
			},
			{
				"x": 2.9918034729,
				"y": -0.4337689657,
				"z": -2.1273477582,
				"element": "N" 
			},
			{
				"x": 1.4906757028,
				"y": -1.1640315976,
				"z": -2.4056579263,
				"element": "S" 
			},
			{
				"x": 1.7672165538,
				"y": -2.6037638937,
				"z": -2.3793141137,
				"element": "O" 
			},
			{
				"x": 0.8079057578,
				"y": -0.5347318582,
				"z": -3.5421274889,
				"element": "O" 
			},
			{
				"x": 0.5790007305,
				"y": -0.7216293052,
				"z": -0.9239278058,
				"element": "C" 
			},
			{
				"x": 0.8225728154,
				"y": -1.4245871023,
				"z": 0.2582433498,
				"element": "C" 
			},
			{
				"x": 0.1094569626,
				"y": -1.079249273,
				"z": 1.3976515049,
				"element": "C" 
			},
			{
				"x": -0.8464094842,
				"y": -0.0370191157,
				"z": 1.3857069997,
				"element": "C" 
			},
			{
				"x": -1.5240254592,
				"y": 0.2207571526,
				"z": 2.6605686506,
				"element": "C" 
			},
			{
				"x": -2.4451300193,
				"y": 1.1030390563,
				"z": 3.1172433672,
				"element": "C" 
			},
			{
				"x": -3.1471740976,
				"y": 2.2188668967,
				"z": 2.4372388788,
				"element": "C" 
			},
			{
				"x": -4.0050380343,
				"y": 2.9120694908,
				"z": 3.2370438977,
				"element": "O" 
			},
			{
				"x": -3.0334028399,
				"y": 2.563020434,
				"z": 1.279949847,
				"element": "O" 
			},
			{
				"x": -1.0760862991,
				"y": 0.6469248806,
				"z": 0.1754688943,
				"element": "C" 
			},
			{
				"x": -0.3683722766,
				"y": 0.3010457382,
				"z": -0.9742807167,
				"element": "C" 
			},
			{
				"x": 4.1737761216,
				"y": 1.2667627436,
				"z": -2.3201552988,
				"element": "H" 
			},
			{
				"x": 2.4735692539,
				"y": 1.5945406066,
				"z": -1.9725443079,
				"element": "H" 
			},
			{
				"x": 2.9527722563,
				"y": 1.119818577,
				"z": -3.6189963478,
				"element": "H" 
			},
			{
				"x": 3.6956391861,
				"y": -1.0668330745,
				"z": -2.5008758878,
				"element": "H" 
			},
			{
				"x": 1.5461088321,
				"y": -2.2320012863,
				"z": 0.2730968552,
				"element": "H" 
			},
			{
				"x": 0.2890690311,
				"y": -1.6252808514,
				"z": 2.3198127398,
				"element": "H" 
			},
			{
				"x": -1.1960233035,
				"y": -0.477174254,
				"z": 3.430811271,
				"element": "H" 
			},
			{
				"x": -2.7090280505,
				"y": 0.9738131904,
				"z": 4.1660563867,
				"element": "H" 
			},
			{
				"x": -4.0127423605,
				"y": 2.5498405076,
				"z": 4.1330802748,
				"element": "H" 
			},
			{
				"x": -1.8093473107,
				"y": 1.4416511641,
				"z": 0.1480055637,
				"element": "H" 
			},
			{
				"x": -0.5580309989,
				"y": 0.809188285,
				"z": -1.9133225969,
				"element": "H" 
			}
		],
		 "valence_orbital": [ 
			{
				"type": "occ",
				"energy": -0.30163,
				"method": "rhf"
			},
			{
				"type": "occ",
				"energy": -0.2799,
				"method": "rhf"
			},
			{
				"type": "occ",
				"energy": -0.27787,
				"method": "rhf"
			},
			{
				"type": "occ",
				"energy": -0.27391,
				"method": "rhf"
			},
			{
				"type": "occ",
				"energy": -0.25455,
				"method": "rhf"
			},
			{
				"type": "unocc",
				"energy": -0.09022,
				"method": "rhf"
			},
			{
				"type": "unocc",
				"energy": -0.02298,
				"method": "rhf"
			},
			{
				"type": "unocc",
				"energy": -0.01238,
				"method": "rhf"
			},
			{
				"type": "unocc",
				"energy": 0.04172,
				"method": "rhf"
			},
			{
				"type": "unocc",
				"energy": 0.05941,
				"method": "rhf"
			}
		],
		"cosmo_sigma_profile": { 
			"-0.025": 0.0,
			"-0.024": 0.0,
			"-0.023": 0.0,
			"-0.022": 0.0,
			"-0.021": 0.0,
			"-0.02": 0.273658236345,
			"-0.019": 1.07771827622,
			"-0.018": 1.12098658753,
			"-0.017": 1.06818972984,
			"-0.016": 0.984685691633,
			"-0.015": 1.27216103767,
			"-0.014": 1.97017869934,
			"-0.013": 1.89006293542,
			"-0.012": 2.70907724862,
			"-0.011": 2.23093035119,
			"-0.01": 2.28638341866,
			"-0.009": 3.1126174601,
			"-0.008": 8.06994756918,
			"-0.007": 11.1463155157,
			"-0.006": 11.0371792499,
			"-0.005": 12.5648603466,
			"-0.004": 16.6884564177,
			"-0.003": 16.605646044,
			"-0.002": 15.9585053975,
			"-0.001": 13.5792925964,
			"0.0": 15.8290969496,
			"0.001": 22.2079723733,
			"0.002": 24.7013594075,
			"0.003": 7.98081904577,
			"0.004": 5.68155469221,
			"0.005": 6.61416023101,
			"0.006": 6.1274470285,
			"0.007": 5.89517294199,
			"0.008": 5.81124108063,
			"0.009": 7.14835903029,
			"0.01": 12.3116566182,
			"0.011": 12.7405142025,
			"0.012": 5.72869216932,
			"0.013": 1.36896818852,
			"0.014": 0.0219351851625,
			"0.015": 0.0,
			"0.016": 0.0,
			"0.017": 0.0,
			"0.018": 0.0,
			"0.019": 0.0,
			"0.02": 0.0,
			"0.021": 0.0,
			"0.022": 0.0,
			"0.023": 0.0,
			"0.024": 0.0,
			"0.025": 0.0
		}
	}
}
