{
	 "smiles": "CCCCCCCC1=CC=CC=C1", 
	 "Tm": 225.15, 
	 "num_atms": 33, 
	 "gaussian": { 
		 "optdone": 1, 
		 "sigma_profile": "yes", 
		 "theory": "DFT", 
		 "functional": "B3LYP", 
		 "basiset": "6-31G**", 
		 "properties": { 
			 "R2extent": 3272.6961, 
			 "electric_dipole_moment_norm": 0.353911712154, 
			 "electric_quadrupole_moment_norm": 5.8330865603, 
			 "total_energy": -507.461097778, 
			 "HOMO_LUMO_gap": 0.2353, 
			 "cosmo_polarized_energy": -3.18, 
			 "cosmo_cavitation_energy": 33.63, 
			 "cosmo_dispersion_energy": -22.45, 
			 "cosmo_repulsion_energy": 1.81, 
			 "cosmo_total_nonelectrostatic_energy": 12.99, 
			 "SMD_solvation_energy": 4.78 
		},
		"coords": [
			{
				"x": 1.5064029897,
				"y": -0.0460902984,
				"z": 3.4518628728,
				"element": "C" 
			},
			{
				"x": 0.3677715003,
				"y": -0.8822817402,
				"z": 4.0486785962,
				"element": "C" 
			},
			{
				"x": -0.8553142925,
				"y": -1.0419036873,
				"z": 3.1295736474,
				"element": "C" 
			},
			{
				"x": -1.5867087602,
				"y": 0.2722546415,
				"z": 2.8175664699,
				"element": "C" 
			},
			{
				"x": -2.9327133737,
				"y": 0.0920013768,
				"z": 2.0918475214,
				"element": "C" 
			},
			{
				"x": -2.9051821342,
				"y": -0.535550713,
				"z": 0.6849599409,
				"element": "C" 
			},
			{
				"x": -2.3513104935,
				"y": 0.3552597775,
				"z": -0.4518266121,
				"element": "C" 
			},
			{
				"x": -0.8441049788,
				"y": 0.5158822,
				"z": -0.5188272228,
				"element": "C" 
			},
			{
				"x": -0.0169399455,
				"y": -0.5907704056,
				"z": -0.7655931296,
				"element": "C" 
			},
			{
				"x": 1.3680790353,
				"y": -0.449222482,
				"z": -0.8543085922,
				"element": "C" 
			},
			{
				"x": 1.9569492864,
				"y": 0.8086030958,
				"z": -0.7016065258,
				"element": "C" 
			},
			{
				"x": 1.1472560515,
				"y": 1.9198563023,
				"z": -0.4643077262,
				"element": "C" 
			},
			{
				"x": -0.2388499233,
				"y": 1.7717127215,
				"z": -0.3767157062,
				"element": "C" 
			},
			{
				"x": 1.2020891011,
				"y": 0.9904628936,
				"z": 3.2758649841,
				"element": "H" 
			},
			{
				"x": 1.8362469464,
				"y": -0.4552699501,
				"z": 2.4903978,
				"element": "H" 
			},
			{
				"x": 2.3718925502,
				"y": -0.0251879102,
				"z": 4.122968627,
				"element": "H" 
			},
			{
				"x": 0.7509236386,
				"y": -1.8806598111,
				"z": 4.2972934516,
				"element": "H" 
			},
			{
				"x": 0.0472452638,
				"y": -0.4361342219,
				"z": 5.0006636189,
				"element": "H" 
			},
			{
				"x": -0.5346195713,
				"y": -1.5194543952,
				"z": 2.1945122096,
				"element": "H" 
			},
			{
				"x": -1.5628000892,
				"y": -1.7374121556,
				"z": 3.6035361047,
				"element": "H" 
			},
			{
				"x": -1.7842597899,
				"y": 0.7949728656,
				"z": 3.76452718,
				"element": "H" 
			},
			{
				"x": -0.9350546604,
				"y": 0.9318575719,
				"z": 2.2358323185,
				"element": "H" 
			},
			{
				"x": -3.4329631608,
				"y": 1.0683517367,
				"z": 2.024255782,
				"element": "H" 
			},
			{
				"x": -3.5807405779,
				"y": -0.5311674962,
				"z": 2.724158365,
				"element": "H" 
			},
			{
				"x": -2.3598606469,
				"y": -1.4871092805,
				"z": 0.704427313,
				"element": "H" 
			},
			{
				"x": -3.938533764,
				"y": -0.7923803188,
				"z": 0.4188305235,
				"element": "H" 
			},
			{
				"x": -2.6896419166,
				"y": -0.0742193876,
				"z": -1.4045715148,
				"element": "H" 
			},
			{
				"x": -2.8178398317,
				"y": 1.3461754756,
				"z": -0.3860943536,
				"element": "H" 
			},
			{
				"x": -0.4638603308,
				"y": -1.5733798529,
				"z": -0.8985479858,
				"element": "H" 
			},
			{
				"x": 1.9879879938,
				"y": -1.3201001804,
				"z": -1.0496304336,
				"element": "H" 
			},
			{
				"x": 3.0349866775,
				"y": 0.9207788681,
				"z": -0.7727462367,
				"element": "H" 
			},
			{
				"x": 1.5926632981,
				"y": 2.9042919002,
				"z": -0.3495317918,
				"element": "H" 
			},
			{
				"x": -0.8622960915,
				"y": 2.6442328599,
				"z": -0.1958494955,
				"element": "H" 
			}
		],
		 "valence_orbital": [ 
			{
				"type": "occ",
				"energy": -0.30688,
				"method": "rhf"
			},
			{
				"type": "occ",
				"energy": -0.30253,
				"method": "rhf"
			},
			{
				"type": "occ",
				"energy": -0.2993,
				"method": "rhf"
			},
			{
				"type": "occ",
				"energy": -0.24572,
				"method": "rhf"
			},
			{
				"type": "occ",
				"energy": -0.23537,
				"method": "rhf"
			},
			{
				"type": "unocc",
				"energy": -7e-05,
				"method": "rhf"
			},
			{
				"type": "unocc",
				"energy": 0.00367,
				"method": "rhf"
			},
			{
				"type": "unocc",
				"energy": 0.08764,
				"method": "rhf"
			},
			{
				"type": "unocc",
				"energy": 0.09974,
				"method": "rhf"
			},
			{
				"type": "unocc",
				"energy": 0.10816,
				"method": "rhf"
			}
		],
		"cosmo_sigma_profile": { 
			"-0.025": 0.0,
			"-0.024": 0.0,
			"-0.023": 0.0,
			"-0.022": 0.0,
			"-0.021": 0.0,
			"-0.02": 0.0,
			"-0.019": 0.0,
			"-0.018": 0.0,
			"-0.017": 0.0,
			"-0.016": 0.0,
			"-0.015": 0.0,
			"-0.014": 0.0,
			"-0.013": 0.0,
			"-0.012": 0.0,
			"-0.011": 0.0,
			"-0.01": 0.0,
			"-0.009": 0.0,
			"-0.008": 0.0,
			"-0.007": 0.0,
			"-0.006": 1.05272914766,
			"-0.005": 8.38885066282,
			"-0.004": 11.5319710528,
			"-0.003": 19.213632793,
			"-0.002": 28.4603195197,
			"-0.001": 40.1513260772,
			"0.0": 45.9415663002,
			"0.001": 44.874295701,
			"0.002": 23.9338383413,
			"0.003": 13.8279128348,
			"0.004": 11.0250496845,
			"0.005": 6.79694377656,
			"0.006": 4.70848057218,
			"0.007": 1.49697664622,
			"0.008": 0.0,
			"0.009": 0.0,
			"0.01": 0.0,
			"0.011": 0.0,
			"0.012": 0.0,
			"0.013": 0.0,
			"0.014": 0.0,
			"0.015": 0.0,
			"0.016": 0.0,
			"0.017": 0.0,
			"0.018": 0.0,
			"0.019": 0.0,
			"0.02": 0.0,
			"0.021": 0.0,
			"0.022": 0.0,
			"0.023": 0.0,
			"0.024": 0.0,
			"0.025": 0.0
		}
	}
}
