{
	 "smiles": "CCC=CC(C)C", 
	 "Tm": 131.15, 
	 "num_atms": 21, 
	 "gaussian": { 
		 "optdone": 1, 
		 "sigma_profile": "yes", 
		 "theory": "DFT", 
		 "functional": "B3LYP", 
		 "basiset": "6-31G**", 
		 "properties": { 
			 "R2extent": 1339.8334, 
			 "electric_dipole_moment_norm": 0.0800387406198, 
			 "electric_quadrupole_moment_norm": 1.70022165908, 
			 "total_energy": -275.180593642, 
			 "HOMO_LUMO_gap": 0.27032, 
			 "cosmo_polarized_energy": -1.4, 
			 "cosmo_cavitation_energy": 22.59, 
			 "cosmo_dispersion_energy": -16.31, 
			 "cosmo_repulsion_energy": 1.41, 
			 "cosmo_total_nonelectrostatic_energy": 7.68, 
			 "SMD_solvation_energy": 4.08 
		},
		"coords": [
			{
				"x": -0.7969818259,
				"y": -2.9664128762,
				"z": 1.9818665672,
				"element": "C" 
			},
			{
				"x": 0.2528541797,
				"y": -3.0725351275,
				"z": 0.8738072591,
				"element": "C" 
			},
			{
				"x": 0.4887239701,
				"y": -1.8256741287,
				"z": 0.0565501285,
				"element": "C" 
			},
			{
				"x": -0.1271871057,
				"y": -0.6494611345,
				"z": 0.2045682358,
				"element": "C" 
			},
			{
				"x": 0.1063197068,
				"y": 0.6122063128,
				"z": -0.5988100348,
				"element": "C" 
			},
			{
				"x": 1.1305385671,
				"y": 0.4626032994,
				"z": -1.729482865,
				"element": "C" 
			},
			{
				"x": 0.4887108193,
				"y": 1.7741635179,
				"z": 0.3408880716,
				"element": "C" 
			},
			{
				"x": -0.5278568745,
				"y": -2.1986482359,
				"z": 2.7149196839,
				"element": "H" 
			},
			{
				"x": -1.7814169511,
				"y": -2.7098955099,
				"z": 1.5764301889,
				"element": "H" 
			},
			{
				"x": -0.893012883,
				"y": -3.9175686791,
				"z": 2.514542715,
				"element": "H" 
			},
			{
				"x": -0.0220544364,
				"y": -3.8892374118,
				"z": 0.1893821745,
				"element": "H" 
			},
			{
				"x": 1.2124787648,
				"y": -3.3869528843,
				"z": 1.311111446,
				"element": "H" 
			},
			{
				"x": 1.2417987552,
				"y": -1.9340800871,
				"z": -0.7235434082,
				"element": "H" 
			},
			{
				"x": -0.8791906495,
				"y": -0.5449545847,
				"z": 0.9873846966,
				"element": "H" 
			},
			{
				"x": -0.8590988763,
				"y": 0.8799446514,
				"z": -1.0583626161,
				"element": "H" 
			},
			{
				"x": 1.2188275519,
				"y": 1.3977184597,
				"z": -2.2920877399,
				"element": "H" 
			},
			{
				"x": 0.8437603124,
				"y": -0.3260583482,
				"z": -2.432422859,
				"element": "H" 
			},
			{
				"x": 2.1234242714,
				"y": 0.2180403999,
				"z": -1.3348727318,
				"element": "H" 
			},
			{
				"x": 0.5641149032,
				"y": 2.7175083801,
				"z": -0.2110515805,
				"element": "H" 
			},
			{
				"x": -0.2548376637,
				"y": 1.9075875797,
				"z": 1.1341499231,
				"element": "H" 
			},
			{
				"x": 1.4554854643,
				"y": 1.581806407,
				"z": 0.8195327451,
				"element": "H" 
			}
		],
		 "valence_orbital": [ 
			{
				"type": "occ",
				"energy": -0.34369,
				"method": "rhf"
			},
			{
				"type": "occ",
				"energy": -0.33635,
				"method": "rhf"
			},
			{
				"type": "occ",
				"energy": -0.32092,
				"method": "rhf"
			},
			{
				"type": "occ",
				"energy": -0.31428,
				"method": "rhf"
			},
			{
				"type": "occ",
				"energy": -0.23414,
				"method": "rhf"
			},
			{
				"type": "unocc",
				"energy": 0.03618,
				"method": "rhf"
			},
			{
				"type": "unocc",
				"energy": 0.09885,
				"method": "rhf"
			},
			{
				"type": "unocc",
				"energy": 0.10991,
				"method": "rhf"
			},
			{
				"type": "unocc",
				"energy": 0.11982,
				"method": "rhf"
			},
			{
				"type": "unocc",
				"energy": 0.14907,
				"method": "rhf"
			}
		],
		"cosmo_sigma_profile": { 
			"-0.025": 0.0,
			"-0.024": 0.0,
			"-0.023": 0.0,
			"-0.022": 0.0,
			"-0.021": 0.0,
			"-0.02": 0.0,
			"-0.019": 0.0,
			"-0.018": 0.0,
			"-0.017": 0.0,
			"-0.016": 0.0,
			"-0.015": 0.0,
			"-0.014": 0.0,
			"-0.013": 0.0,
			"-0.012": 0.0,
			"-0.011": 0.0,
			"-0.01": 0.0,
			"-0.009": 0.0,
			"-0.008": 0.0,
			"-0.007": 0.0,
			"-0.006": 0.0,
			"-0.005": 0.0,
			"-0.004": 0.224312886206,
			"-0.003": 13.1627547432,
			"-0.002": 31.1643616988,
			"-0.001": 35.0586887001,
			"0.0": 33.4601144674,
			"0.001": 28.5042344776,
			"0.002": 16.6597720191,
			"0.003": 5.17934162136,
			"0.004": 2.92370747154,
			"0.005": 3.02137722123,
			"0.006": 2.39161396519,
			"0.007": 1.91639312383,
			"0.008": 0.763982584353,
			"0.009": 0.0,
			"0.01": 0.0,
			"0.011": 0.0,
			"0.012": 0.0,
			"0.013": 0.0,
			"0.014": 0.0,
			"0.015": 0.0,
			"0.016": 0.0,
			"0.017": 0.0,
			"0.018": 0.0,
			"0.019": 0.0,
			"0.02": 0.0,
			"0.021": 0.0,
			"0.022": 0.0,
			"0.023": 0.0,
			"0.024": 0.0,
			"0.025": 0.0
		}
	}
}
