{
	 "smiles": "NC1=NN=C(CC2=C(Cl)C=CC=C2)O1", 
	 "Tm": 470.15, 
	 "num_atms": 22, 
	 "gaussian": { 
		 "optdone": 1, 
		 "sigma_profile": "yes", 
		 "theory": "DFT", 
		 "functional": "B3LYP", 
		 "basiset": "6-31G**", 
		 "properties": { 
			 "R2extent": 3424.9268, 
			 "electric_dipole_moment_norm": 5.37027154062, 
			 "electric_quadrupole_moment_norm": 11.9174256079, 
			 "total_energy": -1047.42356359, 
			 "HOMO_LUMO_gap": 0.20924, 
			 "cosmo_polarized_energy": -18.36, 
			 "cosmo_cavitation_energy": 28.96, 
			 "cosmo_dispersion_energy": -20.83, 
			 "cosmo_repulsion_energy": 1.66, 
			 "cosmo_total_nonelectrostatic_energy": 9.79, 
			 "SMD_solvation_energy": 2.9 
		},
		"coords": [
			{
				"x": 3.3945997901,
				"y": 0.8131126205,
				"z": 0.4383796058,
				"element": "N" 
			},
			{
				"x": 2.4529245787,
				"y": 0.2395170093,
				"z": -0.3744958072,
				"element": "C" 
			},
			{
				"x": 2.4673299239,
				"y": 0.1096333442,
				"z": -1.6667356839,
				"element": "N" 
			},
			{
				"x": 1.3092777751,
				"y": -0.6222994642,
				"z": -1.9784294496,
				"element": "N" 
			},
			{
				"x": 0.6992884657,
				"y": -0.8579939351,
				"z": -0.8679311307,
				"element": "C" 
			},
			{
				"x": -0.56399085,
				"y": -1.6172100687,
				"z": -0.6250327223,
				"element": "C" 
			},
			{
				"x": -1.6001366572,
				"y": -0.8570460489,
				"z": 0.1841145259,
				"element": "C" 
			},
			{
				"x": -2.4546973232,
				"y": 0.1012374704,
				"z": -0.3817720361,
				"element": "C" 
			},
			{
				"x": -2.3650823947,
				"y": 0.4650428463,
				"z": -2.1007529226,
				"element": "Cl" 
			},
			{
				"x": -3.3987300298,
				"y": 0.786450431,
				"z": 0.3840764889,
				"element": "C" 
			},
			{
				"x": -3.5010507164,
				"y": 0.5233642037,
				"z": 1.7491807038,
				"element": "C" 
			},
			{
				"x": -2.6635449582,
				"y": -0.4234647295,
				"z": 2.3392471007,
				"element": "C" 
			},
			{
				"x": -1.7287653748,
				"y": -1.1007479261,
				"z": 1.5584022924,
				"element": "C" 
			},
			{
				"x": 1.3762121058,
				"y": -0.3387417465,
				"z": 0.2196447781,
				"element": "O" 
			},
			{
				"x": 4.0526051634,
				"y": 1.3867972648,
				"z": -0.0714842628,
				"element": "H" 
			},
			{
				"x": 3.0319364291,
				"y": 1.2518411597,
				"z": 1.2739299934,
				"element": "H" 
			},
			{
				"x": -0.9508692503,
				"y": -1.8912391907,
				"z": -1.6090494747,
				"element": "H" 
			},
			{
				"x": -0.3222613765,
				"y": -2.546678099,
				"z": -0.095511788,
				"element": "H" 
			},
			{
				"x": -4.0439545779,
				"y": 1.5158140286,
				"z": -0.0930358954,
				"element": "H" 
			},
			{
				"x": -4.2364564615,
				"y": 1.0562057467,
				"z": 2.3443864018,
				"element": "H" 
			},
			{
				"x": -2.7391077885,
				"y": -0.6371901875,
				"z": 3.4009839661,
				"element": "H" 
			},
			{
				"x": -1.0780264729,
				"y": -1.840504729,
				"z": 2.0169853166,
				"element": "H" 
			}
		],
		 "valence_orbital": [ 
			{
				"type": "occ",
				"energy": -0.30855,
				"method": "rhf"
			},
			{
				"type": "occ",
				"energy": -0.26795,
				"method": "rhf"
			},
			{
				"type": "occ",
				"energy": -0.26299,
				"method": "rhf"
			},
			{
				"type": "occ",
				"energy": -0.24999,
				"method": "rhf"
			},
			{
				"type": "occ",
				"energy": -0.23082,
				"method": "rhf"
			},
			{
				"type": "unocc",
				"energy": -0.02158,
				"method": "rhf"
			},
			{
				"type": "unocc",
				"energy": -0.0186,
				"method": "rhf"
			},
			{
				"type": "unocc",
				"energy": 0.01065,
				"method": "rhf"
			},
			{
				"type": "unocc",
				"energy": 0.03221,
				"method": "rhf"
			},
			{
				"type": "unocc",
				"energy": 0.0545,
				"method": "rhf"
			}
		],
		"cosmo_sigma_profile": { 
			"-0.025": 0.0,
			"-0.024": 0.0,
			"-0.023": 0.0,
			"-0.022": 0.0,
			"-0.021": 0.0,
			"-0.02": 0.0,
			"-0.019": 0.0,
			"-0.018": 0.0,
			"-0.017": 0.0,
			"-0.016": 0.0267696900981,
			"-0.015": 1.75647221056,
			"-0.014": 3.19908627019,
			"-0.013": 1.76240819199,
			"-0.012": 2.87233105822,
			"-0.011": 2.66917041157,
			"-0.01": 1.82189676091,
			"-0.009": 2.3205739823,
			"-0.008": 3.68419611453,
			"-0.007": 8.87455655718,
			"-0.006": 13.5634676314,
			"-0.005": 13.7925520733,
			"-0.004": 14.8556993083,
			"-0.003": 12.0952651878,
			"-0.002": 12.5689553021,
			"-0.001": 13.1244260204,
			"0.0": 11.4472519485,
			"0.001": 14.7396112945,
			"0.002": 18.3831053974,
			"0.003": 18.3276739243,
			"0.004": 21.9400840616,
			"0.005": 8.52421570698,
			"0.006": 3.9914766244,
			"0.007": 3.64113958152,
			"0.008": 2.14217602328,
			"0.009": 2.82856219811,
			"0.01": 2.71591160272,
			"0.011": 2.73348059684,
			"0.012": 3.15527126129,
			"0.013": 3.61688594955,
			"0.014": 2.89521024516,
			"0.015": 2.50122124657,
			"0.016": 1.20619928453,
			"0.017": 0.169295839921,
			"0.018": 0.0,
			"0.019": 0.0,
			"0.02": 0.0,
			"0.021": 0.0,
			"0.022": 0.0,
			"0.023": 0.0,
			"0.024": 0.0,
			"0.025": 0.0
		}
	}
}
