{
	 "smiles": "OC1=C(C#N)C(Cl)=C(C#N)C(Cl)=C1Cl", 
	 "Tm": 530.15, 
	 "num_atms": 15, 
	 "gaussian": { 
		 "optdone": 1, 
		 "sigma_profile": "yes", 
		 "theory": "DFT", 
		 "functional": "B3LYP", 
		 "basiset": "6-31G**", 
		 "properties": { 
			 "R2extent": 3920.0719, 
			 "electric_dipole_moment_norm": 2.85639457358, 
			 "electric_quadrupole_moment_norm": 11.124107757, 
			 "total_energy": -1870.69669683, 
			 "HOMO_LUMO_gap": 0.17925, 
			 "cosmo_polarized_energy": -12.98, 
			 "cosmo_cavitation_energy": 27.63, 
			 "cosmo_dispersion_energy": -19.59, 
			 "cosmo_repulsion_energy": 1.53, 
			 "cosmo_total_nonelectrostatic_energy": 9.57, 
			 "SMD_solvation_energy": 6.74 
		},
		"coords": [
			{
				"x": -2.9403260907,
				"y": -0.2388087899,
				"z": 0.0854284794,
				"element": "O" 
			},
			{
				"x": -1.6367214306,
				"y": -0.1975879327,
				"z": 0.3830758754,
				"element": "C" 
			},
			{
				"x": -0.9601178339,
				"y": 1.0188982039,
				"z": 0.6355489504,
				"element": "C" 
			},
			{
				"x": -1.7339506328,
				"y": 2.2146864305,
				"z": 0.5589445398,
				"element": "C" 
			},
			{
				"x": -2.4707344011,
				"y": 3.1116483047,
				"z": 0.4662687231,
				"element": "N" 
			},
			{
				"x": 0.4087825334,
				"y": 1.012901016,
				"z": 0.9440564498,
				"element": "C" 
			},
			{
				"x": 1.2134327477,
				"y": 2.514217379,
				"z": 1.2487664856,
				"element": "Cl" 
			},
			{
				"x": 1.1190806959,
				"y": -0.1949773743,
				"z": 1.005372255,
				"element": "C" 
			},
			{
				"x": 2.5126655893,
				"y": -0.2032650108,
				"z": 1.3192846163,
				"element": "C" 
			},
			{
				"x": 3.6466313978,
				"y": -0.2024241697,
				"z": 1.5753496569,
				"element": "N" 
			},
			{
				"x": 0.430079899,
				"y": -1.4080110301,
				"z": 0.7503829344,
				"element": "C" 
			},
			{
				"x": 1.3116397127,
				"y": -2.8924996977,
				"z": 0.8276376108,
				"element": "Cl" 
			},
			{
				"x": -0.9321681737,
				"y": -1.415325973,
				"z": 0.4422696419,
				"element": "C" 
			},
			{
				"x": -1.7944710142,
				"y": -2.8818899708,
				"z": 0.1273261052,
				"element": "Cl" 
			},
			{
				"x": -3.3162229986,
				"y": 0.6575386149,
				"z": 0.0739876757,
				"element": "H" 
			}
		],
		 "valence_orbital": [ 
			{
				"type": "occ",
				"energy": -0.35179,
				"method": "rhf"
			},
			{
				"type": "occ",
				"energy": -0.33732,
				"method": "rhf"
			},
			{
				"type": "occ",
				"energy": -0.33525,
				"method": "rhf"
			},
			{
				"type": "occ",
				"energy": -0.28918,
				"method": "rhf"
			},
			{
				"type": "occ",
				"energy": -0.27683,
				"method": "rhf"
			},
			{
				"type": "unocc",
				"energy": -0.09758,
				"method": "rhf"
			},
			{
				"type": "unocc",
				"energy": -0.08361,
				"method": "rhf"
			},
			{
				"type": "unocc",
				"energy": -0.04413,
				"method": "rhf"
			},
			{
				"type": "unocc",
				"energy": -0.01653,
				"method": "rhf"
			},
			{
				"type": "unocc",
				"energy": -0.0004,
				"method": "rhf"
			}
		],
		"cosmo_sigma_profile": { 
			"-0.025": 0.0,
			"-0.024": 0.0,
			"-0.023": 0.0,
			"-0.022": 0.0,
			"-0.021": 0.0,
			"-0.02": 0.0,
			"-0.019": 0.0,
			"-0.018": 0.346132315673,
			"-0.017": 0.686267953939,
			"-0.016": 1.14307447123,
			"-0.015": 0.769175548664,
			"-0.014": 1.35052298532,
			"-0.013": 1.37734533457,
			"-0.012": 1.11175204032,
			"-0.011": 0.828377589077,
			"-0.01": 1.46353840875,
			"-0.009": 1.18941129261,
			"-0.008": 1.69865662959,
			"-0.007": 2.50825949068,
			"-0.006": 7.64030811568,
			"-0.005": 21.2559298197,
			"-0.004": 19.8688119511,
			"-0.003": 14.7180954826,
			"-0.002": 12.2449419117,
			"-0.001": 15.1063025483,
			"0.0": 17.3219122406,
			"0.001": 24.6387207743,
			"0.002": 20.7798003899,
			"0.003": 12.6879560931,
			"0.004": 8.03706346605,
			"0.005": 6.84982290251,
			"0.006": 6.58717636425,
			"0.007": 8.18715897005,
			"0.008": 6.23283527804,
			"0.009": 5.75285356517,
			"0.01": 4.75930533199,
			"0.011": 4.19158612515,
			"0.012": 1.12342957126,
			"0.013": 0.0,
			"0.014": 0.0,
			"0.015": 0.0,
			"0.016": 0.0,
			"0.017": 0.0,
			"0.018": 0.0,
			"0.019": 0.0,
			"0.02": 0.0,
			"0.021": 0.0,
			"0.022": 0.0,
			"0.023": 0.0,
			"0.024": 0.0,
			"0.025": 0.0
		}
	}
}
