{
	 "smiles": "CCCCCCCCC=CCCCCCCCCCCCC(O)=O", 
	 "Tm": 306.65, 
	 "num_atms": 66, 
	 "gaussian": { 
		 "optdone": 1, 
		 "sigma_profile": "yes", 
		 "theory": "DFT", 
		 "functional": "B3LYP", 
		 "basiset": "6-31G**", 
		 "properties": { 
			 "R2extent": 21166.6591, 
			 "electric_dipole_moment_norm": 1.51137229365, 
			 "electric_quadrupole_moment_norm": 9.73767724819, 
			 "total_energy": -1014.1537824, 
			 "HOMO_LUMO_gap": 0.24511, 
			 "cosmo_polarized_energy": -9.5, 
			 "cosmo_cavitation_energy": 64.82, 
			 "cosmo_dispersion_energy": -43.56, 
			 "cosmo_repulsion_energy": 3.53, 
			 "cosmo_total_nonelectrostatic_energy": 24.78, 
			 "SMD_solvation_energy": 9.69 
		},
		"coords": [
			{
				"x": 0.3434763753,
				"y": 5.8123877938,
				"z": 2.3145187783,
				"element": "C" 
			},
			{
				"x": 0.5358892425,
				"y": 4.3562897402,
				"z": 2.7512731503,
				"element": "C" 
			},
			{
				"x": 0.1491715332,
				"y": 4.1155650392,
				"z": 4.2175183342,
				"element": "C" 
			},
			{
				"x": 0.3917208517,
				"y": 2.6833864816,
				"z": 4.722925351,
				"element": "C" 
			},
			{
				"x": -0.4943212333,
				"y": 1.6169300717,
				"z": 4.0608497438,
				"element": "C" 
			},
			{
				"x": -0.3794081542,
				"y": 0.2133461796,
				"z": 4.6824636351,
				"element": "C" 
			},
			{
				"x": 1.0067351579,
				"y": -0.4532748563,
				"z": 4.5830003337,
				"element": "C" 
			},
			{
				"x": 1.5057704533,
				"y": -0.7359753883,
				"z": 3.1561424892,
				"element": "C" 
			},
			{
				"x": 0.7853171228,
				"y": -1.8044259426,
				"z": 2.3644422964,
				"element": "C" 
			},
			{
				"x": -0.0735460832,
				"y": -2.7151135754,
				"z": 2.8319547162,
				"element": "C" 
			},
			{
				"x": -0.7383616042,
				"y": -3.8289343139,
				"z": 2.0542579707,
				"element": "C" 
			},
			{
				"x": -0.6310987547,
				"y": -3.7859141603,
				"z": 0.5216119167,
				"element": "C" 
			},
			{
				"x": -1.4849203835,
				"y": -2.6865160598,
				"z": -0.1305964998,
				"element": "C" 
			},
			{
				"x": -1.3051344967,
				"y": -2.55410291,
				"z": -1.6524695044,
				"element": "C" 
			},
			{
				"x": -1.7652435224,
				"y": -3.7821135782,
				"z": -2.4530526118,
				"element": "C" 
			},
			{
				"x": -1.8061115057,
				"y": -3.6149248505,
				"z": -3.9833839071,
				"element": "C" 
			},
			{
				"x": -0.4467027135,
				"y": -3.3939881953,
				"z": -4.6833678267,
				"element": "C" 
			},
			{
				"x": -0.0178829119,
				"y": -1.9271861515,
				"z": -4.8437549931,
				"element": "C" 
			},
			{
				"x": 1.3241315443,
				"y": -1.7686660502,
				"z": -5.5700147055,
				"element": "C" 
			},
			{
				"x": 1.7421399556,
				"y": -0.3051794377,
				"z": -5.7551808468,
				"element": "C" 
			},
			{
				"x": 3.0801886637,
				"y": -0.1597645367,
				"z": -6.481414062,
				"element": "C" 
			},
			{
				"x": 3.5059328331,
				"y": 1.2797820322,
				"z": -6.6683694637,
				"element": "C" 
			},
			{
				"x": 4.6926384538,
				"y": 1.3664937926,
				"z": -7.321783276,
				"element": "O" 
			},
			{
				"x": 2.8974011902,
				"y": 2.2597953915,
				"z": -6.2982268918,
				"element": "O" 
			},
			{
				"x": 0.9513181351,
				"y": 6.492321075,
				"z": 2.922669977,
				"element": "H" 
			},
			{
				"x": 0.627766885,
				"y": 5.9586076388,
				"z": 1.2672320207,
				"element": "H" 
			},
			{
				"x": -0.7024610765,
				"y": 6.122598433,
				"z": 2.4210137239,
				"element": "H" 
			},
			{
				"x": 1.5855620774,
				"y": 4.0655567955,
				"z": 2.6043133499,
				"element": "H" 
			},
			{
				"x": -0.054715078,
				"y": 3.7031501107,
				"z": 2.0968755376,
				"element": "H" 
			},
			{
				"x": 0.7171202745,
				"y": 4.8136036641,
				"z": 4.8480340784,
				"element": "H" 
			},
			{
				"x": -0.9101735445,
				"y": 4.3753475097,
				"z": 4.3586590386,
				"element": "H" 
			},
			{
				"x": 0.2180722299,
				"y": 2.6583305726,
				"z": 5.8078637972,
				"element": "H" 
			},
			{
				"x": 1.4518290707,
				"y": 2.4325519342,
				"z": 4.5813435637,
				"element": "H" 
			},
			{
				"x": -1.5425561225,
				"y": 1.938448385,
				"z": 4.1354559147,
				"element": "H" 
			},
			{
				"x": -0.278400941,
				"y": 1.5627044505,
				"z": 2.9867351741,
				"element": "H" 
			},
			{
				"x": -0.6540156674,
				"y": 0.2773444191,
				"z": 5.7445500899,
				"element": "H" 
			},
			{
				"x": -1.1261730466,
				"y": -0.4361903964,
				"z": 4.2120608992,
				"element": "H" 
			},
			{
				"x": 1.7496224282,
				"y": 0.1793590476,
				"z": 5.0836900521,
				"element": "H" 
			},
			{
				"x": 0.9911634231,
				"y": -1.3905572552,
				"z": 5.1536292689,
				"element": "H" 
			},
			{
				"x": 1.4948633801,
				"y": 0.1950992503,
				"z": 2.5727043514,
				"element": "H" 
			},
			{
				"x": 2.5698622814,
				"y": -1.0143820295,
				"z": 3.2065074297,
				"element": "H" 
			},
			{
				"x": 1.0420956794,
				"y": -1.8227351746,
				"z": 1.3051001735,
				"element": "H" 
			},
			{
				"x": -0.3253603804,
				"y": -2.7024591531,
				"z": 3.8924023173,
				"element": "H" 
			},
			{
				"x": -0.325604236,
				"y": -4.7832765116,
				"z": 2.4159494728,
				"element": "H" 
			},
			{
				"x": -1.8019036668,
				"y": -3.8623037497,
				"z": 2.3345923681,
				"element": "H" 
			},
			{
				"x": 0.4200696409,
				"y": -3.6650044365,
				"z": 0.2257047607,
				"element": "H" 
			},
			{
				"x": -0.9383591612,
				"y": -4.7642090553,
				"z": 0.1334352138,
				"element": "H" 
			},
			{
				"x": -2.5440168884,
				"y": -2.8820689967,
				"z": 0.0919381342,
				"element": "H" 
			},
			{
				"x": -1.2507172247,
				"y": -1.7244265245,
				"z": 0.3390717056,
				"element": "H" 
			},
			{
				"x": -1.8674577735,
				"y": -1.6753640206,
				"z": -1.9969598686,
				"element": "H" 
			},
			{
				"x": -0.2489859916,
				"y": -2.34272575,
				"z": -1.866695698,
				"element": "H" 
			},
			{
				"x": -2.7743733937,
				"y": -4.0568287598,
				"z": -2.1138821655,
				"element": "H" 
			},
			{
				"x": -1.1242039839,
				"y": -4.6412755043,
				"z": -2.2139470556,
				"element": "H" 
			},
			{
				"x": -2.2659066639,
				"y": -4.5213125571,
				"z": -4.3969758898,
				"element": "H" 
			},
			{
				"x": -2.4866979725,
				"y": -2.7915662857,
				"z": -4.2434442556,
				"element": "H" 
			},
			{
				"x": 0.3349913924,
				"y": -3.9494703726,
				"z": -4.1450829513,
				"element": "H" 
			},
			{
				"x": -0.4892928047,
				"y": -3.8410684256,
				"z": -5.6856883888,
				"element": "H" 
			},
			{
				"x": 0.0433607739,
				"y": -1.4372449526,
				"z": -3.864713378,
				"element": "H" 
			},
			{
				"x": -0.7961991107,
				"y": -1.3881256707,
				"z": -5.4023330826,
				"element": "H" 
			},
			{
				"x": 1.2656489275,
				"y": -2.2604234398,
				"z": -6.5519866138,
				"element": "H" 
			},
			{
				"x": 2.1049470958,
				"y": -2.3046285185,
				"z": -5.0110062629,
				"element": "H" 
			},
			{
				"x": 1.8077264386,
				"y": 0.1922794236,
				"z": -4.7803234647,
				"element": "H" 
			},
			{
				"x": 0.9702291575,
				"y": 0.236901441,
				"z": -6.3141710544,
				"element": "H" 
			},
			{
				"x": 3.0497119774,
				"y": -0.6284740364,
				"z": -7.4737124626,
				"element": "H" 
			},
			{
				"x": 3.8855538564,
				"y": -0.6760358145,
				"z": -5.9425904289,
				"element": "H" 
			},
			{
				"x": 4.8874775892,
				"y": 2.3157567246,
				"z": -7.396863519,
				"element": "H" 
			}
		],
		 "valence_orbital": [ 
			{
				"type": "occ",
				"energy": -0.30007,
				"method": "rhf"
			},
			{
				"type": "occ",
				"energy": -0.29946,
				"method": "rhf"
			},
			{
				"type": "occ",
				"energy": -0.29535,
				"method": "rhf"
			},
			{
				"type": "occ",
				"energy": -0.27254,
				"method": "rhf"
			},
			{
				"type": "occ",
				"energy": -0.23212,
				"method": "rhf"
			},
			{
				"type": "unocc",
				"energy": 0.01299,
				"method": "rhf"
			},
			{
				"type": "unocc",
				"energy": 0.03357,
				"method": "rhf"
			},
			{
				"type": "unocc",
				"energy": 0.08099,
				"method": "rhf"
			},
			{
				"type": "unocc",
				"energy": 0.08184,
				"method": "rhf"
			},
			{
				"type": "unocc",
				"energy": 0.08542,
				"method": "rhf"
			}
		],
		"cosmo_sigma_profile": { 
			"-0.025": 0.0,
			"-0.024": 0.0,
			"-0.023": 0.0,
			"-0.022": 0.0,
			"-0.021": 0.0,
			"-0.02": 0.0,
			"-0.019": 0.0,
			"-0.018": 0.370249298253,
			"-0.017": 0.927936009218,
			"-0.016": 0.775025837906,
			"-0.015": 1.04885539405,
			"-0.014": 0.731989240683,
			"-0.013": 0.745120281151,
			"-0.012": 0.137702092403,
			"-0.011": 0.555678933097,
			"-0.01": 1.10152726047,
			"-0.009": 0.834060134198,
			"-0.008": 0.49721646133,
			"-0.007": 0.795170112843,
			"-0.006": 2.296873533,
			"-0.005": 5.96950337655,
			"-0.004": 7.21242299337,
			"-0.003": 19.7778491131,
			"-0.002": 67.9844811994,
			"-0.001": 110.186955683,
			"0.0": 107.679898846,
			"0.001": 84.1007415792,
			"0.002": 36.0988712983,
			"0.003": 8.13022636397,
			"0.004": 6.10165159651,
			"0.005": 5.6263003546,
			"0.006": 4.64328089043,
			"0.007": 4.10349211221,
			"0.008": 2.98960737118,
			"0.009": 2.71831882261,
			"0.01": 3.34356818331,
			"0.011": 3.16268990812,
			"0.012": 4.89938501018,
			"0.013": 1.45660698383,
			"0.014": 0.0,
			"0.015": 0.0,
			"0.016": 0.0,
			"0.017": 0.0,
			"0.018": 0.0,
			"0.019": 0.0,
			"0.02": 0.0,
			"0.021": 0.0,
			"0.022": 0.0,
			"0.023": 0.0,
			"0.024": 0.0,
			"0.025": 0.0
		}
	}
}
