{
	 "smiles": "CC(C)C1=NN=NN1", 
	 "Tm": 378.15, 
	 "num_atms": 16, 
	 "gaussian": { 
		 "optdone": 1, 
		 "sigma_profile": "yes", 
		 "theory": "DFT", 
		 "functional": "B3LYP", 
		 "basiset": "6-31G**", 
		 "properties": { 
			 "R2extent": 1172.9096, 
			 "electric_dipole_moment_norm": 5.84018480358, 
			 "electric_quadrupole_moment_norm": 9.13827899771, 
			 "total_energy": -376.20779067, 
			 "HOMO_LUMO_gap": 0.26776, 
			 "cosmo_polarized_energy": -17.03, 
			 "cosmo_cavitation_energy": 19.8, 
			 "cosmo_dispersion_energy": -14.33, 
			 "cosmo_repulsion_energy": 1.21, 
			 "cosmo_total_nonelectrostatic_energy": 6.68, 
			 "SMD_solvation_energy": 1.69 
		},
		"coords": [
			{
				"x": -1.405240454,
				"y": -2.4454189071,
				"z": 1.0744380827,
				"element": "C" 
			},
			{
				"x": -0.123936556,
				"y": -1.6723190363,
				"z": 0.7078888312,
				"element": "C" 
			},
			{
				"x": 0.2927081582,
				"y": -1.9195843218,
				"z": -0.7546776252,
				"element": "C" 
			},
			{
				"x": -0.2624299266,
				"y": -0.2067950934,
				"z": 1.000536415,
				"element": "C" 
			},
			{
				"x": 0.4522391073,
				"y": 0.49302162,
				"z": 1.863631503,
				"element": "N" 
			},
			{
				"x": -0.0109263982,
				"y": 1.7740222683,
				"z": 1.8006818568,
				"element": "N" 
			},
			{
				"x": -0.9715147346,
				"y": 1.8840118465,
				"z": 0.9458167597,
				"element": "N" 
			},
			{
				"x": -1.1454680656,
				"y": 0.643311134,
				"z": 0.4269241236,
				"element": "N" 
			},
			{
				"x": -2.2508933252,
				"y": -2.1424896269,
				"z": 0.4458151787,
				"element": "H" 
			},
			{
				"x": -1.6838638221,
				"y": -2.2814850845,
				"z": 2.1191470592,
				"element": "H" 
			},
			{
				"x": -1.253000779,
				"y": -3.5186786389,
				"z": 0.9254939869,
				"element": "H" 
			},
			{
				"x": 0.6859064936,
				"y": -2.0106640078,
				"z": 1.3623691314,
				"element": "H" 
			},
			{
				"x": 1.213584605,
				"y": -1.3841520144,
				"z": -1.0020928393,
				"element": "H" 
			},
			{
				"x": -0.4867984355,
				"y": -1.5960929769,
				"z": -1.4545140379,
				"element": "H" 
			},
			{
				"x": 0.462417836,
				"y": -2.9874366678,
				"z": -0.9224371263,
				"element": "H" 
			},
			{
				"x": -1.8537837035,
				"y": 0.484149507,
				"z": -0.2743212994,
				"element": "H" 
			}
		],
		 "valence_orbital": [ 
			{
				"type": "occ",
				"energy": -0.35632,
				"method": "rhf"
			},
			{
				"type": "occ",
				"energy": -0.3217,
				"method": "rhf"
			},
			{
				"type": "occ",
				"energy": -0.29219,
				"method": "rhf"
			},
			{
				"type": "occ",
				"energy": -0.29065,
				"method": "rhf"
			},
			{
				"type": "occ",
				"energy": -0.28073,
				"method": "rhf"
			},
			{
				"type": "unocc",
				"energy": -0.01297,
				"method": "rhf"
			},
			{
				"type": "unocc",
				"energy": 0.02637,
				"method": "rhf"
			},
			{
				"type": "unocc",
				"energy": 0.04184,
				"method": "rhf"
			},
			{
				"type": "unocc",
				"energy": 0.08959,
				"method": "rhf"
			},
			{
				"type": "unocc",
				"energy": 0.12591,
				"method": "rhf"
			}
		],
		"cosmo_sigma_profile": { 
			"-0.025": 0.0,
			"-0.024": 0.0,
			"-0.023": 0.0,
			"-0.022": 0.0,
			"-0.021": 0.0,
			"-0.02": 0.0,
			"-0.019": 0.175488949753,
			"-0.018": 1.35266692202,
			"-0.017": 0.986472810771,
			"-0.016": 1.5456065743,
			"-0.015": 0.948377658535,
			"-0.014": 1.08642951701,
			"-0.013": 1.67828484525,
			"-0.012": 1.24601655189,
			"-0.011": 0.909069453687,
			"-0.01": 1.06151523148,
			"-0.009": 2.00520031511,
			"-0.008": 1.46567732842,
			"-0.007": 1.48473131771,
			"-0.006": 1.71589197316,
			"-0.005": 4.80111157723,
			"-0.004": 15.3261776749,
			"-0.003": 20.4241505324,
			"-0.002": 18.5450354068,
			"-0.001": 13.8718859913,
			"0.0": 14.8455724881,
			"0.001": 5.30757138715,
			"0.002": 2.12441522378,
			"0.003": 2.48206811881,
			"0.004": 1.73730594046,
			"0.005": 2.64978328322,
			"0.006": 2.92728247728,
			"0.007": 3.49036076835,
			"0.008": 4.16671854657,
			"0.009": 5.30711833319,
			"0.01": 4.91698355355,
			"0.011": 4.61524888581,
			"0.012": 4.0344055374,
			"0.013": 2.95768165176,
			"0.014": 2.29703207384,
			"0.015": 0.962661792503,
			"0.016": 0.465866568483,
			"0.017": 0.0,
			"0.018": 0.0,
			"0.019": 0.0,
			"0.02": 0.0,
			"0.021": 0.0,
			"0.022": 0.0,
			"0.023": 0.0,
			"0.024": 0.0,
			"0.025": 0.0
		}
	}
}
