{
	 "smiles": "C[C@H]1CN(C[C@@H](C)N1)C1=C(F)C(F)=C2C(=O)C(=CN(C3CC3)C2=C1F)C(O)=O", 
	 "Tm": 532.15, 
	 "num_atms": 48, 
	 "gaussian": { 
		 "optdone": 1, 
		 "sigma_profile": "yes", 
		 "theory": "DFT", 
		 "functional": "B3LYP", 
		 "basiset": "6-31G**", 
		 "properties": { 
			 "R2extent": 13169.1388, 
			 "electric_dipole_moment_norm": 10.7409393639, 
			 "electric_quadrupole_moment_norm": 51.2019897507, 
			 "total_energy": -1425.47236256, 
			 "HOMO_LUMO_gap": 0.15895, 
			 "cosmo_polarized_energy": -22.16, 
			 "cosmo_cavitation_energy": 48.81, 
			 "cosmo_dispersion_energy": -33.89, 
			 "cosmo_repulsion_energy": 2.45, 
			 "cosmo_total_nonelectrostatic_energy": 17.37, 
			 "SMD_solvation_energy": 7.93 
		},
		"coords": [
			{
				"x": 3.3199474254,
				"y": -0.7511893554,
				"z": 1.9423197144,
				"element": "C" 
			},
			{
				"x": 2.9530355228,
				"y": -1.8159264759,
				"z": 0.8895138492,
				"element": "C" 
			},
			{
				"x": 1.4626285946,
				"y": -1.7847146936,
				"z": 0.5233038998,
				"element": "C" 
			},
			{
				"x": 1.1745865062,
				"y": -0.668431297,
				"z": -0.392204406,
				"element": "N" 
			},
			{
				"x": 1.9233207385,
				"y": -0.7919481111,
				"z": -1.6485075204,
				"element": "C" 
			},
			{
				"x": 3.431882856,
				"y": -0.767615583,
				"z": -1.3536220832,
				"element": "C" 
			},
			{
				"x": 3.9377182507,
				"y": 0.6558319111,
				"z": -1.0460899252,
				"element": "C" 
			},
			{
				"x": 3.7277924197,
				"y": -1.8056415861,
				"z": -0.3578033011,
				"element": "N" 
			},
			{
				"x": -0.072594416,
				"y": -0.0561012582,
				"z": -0.3524083289,
				"element": "C" 
			},
			{
				"x": -0.9288374417,
				"y": 0.073151935,
				"z": -1.4650987878,
				"element": "C" 
			},
			{
				"x": -0.6087967247,
				"y": -0.5046554253,
				"z": -2.6387646906,
				"element": "F" 
			},
			{
				"x": -2.1160580153,
				"y": 0.7807408033,
				"z": -1.3977007652,
				"element": "C" 
			},
			{
				"x": -2.8274975741,
				"y": 0.8623491056,
				"z": -2.5217682907,
				"element": "F" 
			},
			{
				"x": -2.575578131,
				"y": 1.3563449429,
				"z": -0.1989329075,
				"element": "C" 
			},
			{
				"x": -3.8210029458,
				"y": 2.1469074632,
				"z": -0.1565775472,
				"element": "C" 
			},
			{
				"x": -4.5540215852,
				"y": 2.3058863453,
				"z": -1.1538423572,
				"element": "O" 
			},
			{
				"x": -4.1197884575,
				"y": 2.7508098487,
				"z": 1.1264091914,
				"element": "C" 
			},
			{
				"x": -3.3281247762,
				"y": 2.4981552928,
				"z": 2.208242536,
				"element": "C" 
			},
			{
				"x": -2.2196524672,
				"y": 1.7125872756,
				"z": 2.1900792712,
				"element": "N" 
			},
			{
				"x": -1.5586524197,
				"y": 1.4286178609,
				"z": 3.4611147871,
				"element": "C" 
			},
			{
				"x": -2.4014208139,
				"y": 1.1397627576,
				"z": 4.6764384464,
				"element": "C" 
			},
			{
				"x": -1.6044155178,
				"y": 0.0373024956,
				"z": 4.0270568771,
				"element": "C" 
			},
			{
				"x": -1.7704595216,
				"y": 1.182102927,
				"z": 0.9670118244,
				"element": "C" 
			},
			{
				"x": -0.5315819501,
				"y": 0.5351160182,
				"z": 0.8386327072,
				"element": "C" 
			},
			{
				"x": 0.3201027121,
				"y": 0.4908286908,
				"z": 1.8940957421,
				"element": "F" 
			},
			{
				"x": -5.3163455024,
				"y": 3.6317311736,
				"z": 1.3481795846,
				"element": "C" 
			},
			{
				"x": -6.0927372057,
				"y": 3.8214624713,
				"z": 0.28072899,
				"element": "O" 
			},
			{
				"x": -5.5541571956,
				"y": 4.1300638098,
				"z": 2.4326905613,
				"element": "O" 
			},
			{
				"x": 2.8631322138,
				"y": -0.9994904835,
				"z": 2.9074957931,
				"element": "H" 
			},
			{
				"x": 2.9747146283,
				"y": 0.2443523914,
				"z": 1.6582295675,
				"element": "H" 
			},
			{
				"x": 4.404666584,
				"y": -0.713678736,
				"z": 2.0901015663,
				"element": "H" 
			},
			{
				"x": 3.1349296549,
				"y": -2.7986949384,
				"z": 1.3469642372,
				"element": "H" 
			},
			{
				"x": 0.8578741212,
				"y": -1.6861530724,
				"z": 1.4238317411,
				"element": "H" 
			},
			{
				"x": 1.195354553,
				"y": -2.7317371982,
				"z": 0.028415839,
				"element": "H" 
			},
			{
				"x": 1.6663923371,
				"y": 0.0374386143,
				"z": -2.3074274247,
				"element": "H" 
			},
			{
				"x": 1.669595013,
				"y": -1.7300643881,
				"z": -2.1623092926,
				"element": "H" 
			},
			{
				"x": 3.9264435429,
				"y": -1.0930457041,
				"z": -2.2793958919,
				"element": "H" 
			},
			{
				"x": 4.9862209415,
				"y": 0.6348305713,
				"z": -0.7298740901,
				"element": "H" 
			},
			{
				"x": 3.3536016767,
				"y": 1.1391006969,
				"z": -0.2595743919,
				"element": "H" 
			},
			{
				"x": 3.8763592043,
				"y": 1.2822034775,
				"z": -1.9437527348,
				"element": "H" 
			},
			{
				"x": 4.7228427354,
				"y": -1.8299099754,
				"z": -0.1567306184,
				"element": "H" 
			},
			{
				"x": -3.5956694299,
				"y": 2.9340387779,
				"z": 3.1628637261,
				"element": "H" 
			},
			{
				"x": -0.645780992,
				"y": 1.9961633202,
				"z": 3.6093429171,
				"element": "H" 
			},
			{
				"x": -2.0615482868,
				"y": 1.5543299444,
				"z": 5.6199075452,
				"element": "H" 
			},
			{
				"x": -3.4802923599,
				"y": 1.1054968056,
				"z": 4.5677542758,
				"element": "H" 
			},
			{
				"x": -2.1611264826,
				"y": -0.709299185,
				"z": 3.4692210469,
				"element": "H" 
			},
			{
				"x": -0.7078503658,
				"y": -0.3346000057,
				"z": 4.5115842425,
				"element": "H" 
			},
			{
				"x": -5.7010516539,
				"y": 3.3076897445,
				"z": -0.4798451248,
				"element": "H" 
			}
		],
		 "valence_orbital": [ 
			{
				"type": "occ",
				"energy": -0.26191,
				"method": "rhf"
			},
			{
				"type": "occ",
				"energy": -0.25281,
				"method": "rhf"
			},
			{
				"type": "occ",
				"energy": -0.2345,
				"method": "rhf"
			},
			{
				"type": "occ",
				"energy": -0.23174,
				"method": "rhf"
			},
			{
				"type": "occ",
				"energy": -0.22485,
				"method": "rhf"
			},
			{
				"type": "unocc",
				"energy": -0.0659,
				"method": "rhf"
			},
			{
				"type": "unocc",
				"energy": -0.05109,
				"method": "rhf"
			},
			{
				"type": "unocc",
				"energy": -0.00688,
				"method": "rhf"
			},
			{
				"type": "unocc",
				"energy": 0.02912,
				"method": "rhf"
			},
			{
				"type": "unocc",
				"energy": 0.03462,
				"method": "rhf"
			}
		],
		"cosmo_sigma_profile": { 
			"-0.025": 0.0,
			"-0.024": 0.0,
			"-0.023": 0.0,
			"-0.022": 0.0,
			"-0.021": 0.0,
			"-0.02": 0.0,
			"-0.019": 0.0,
			"-0.018": 0.0,
			"-0.017": 0.0,
			"-0.016": 0.0,
			"-0.015": 0.0,
			"-0.014": 0.0,
			"-0.013": 0.0,
			"-0.012": 0.0,
			"-0.011": 0.0,
			"-0.01": 0.428899591957,
			"-0.009": 1.29679749805,
			"-0.008": 1.74345603875,
			"-0.007": 7.50166243542,
			"-0.006": 16.3460786653,
			"-0.005": 19.6156676202,
			"-0.004": 28.5363621802,
			"-0.003": 53.6962143204,
			"-0.002": 56.5818786625,
			"-0.001": 38.3526261853,
			"0.0": 26.3062492036,
			"0.001": 26.7339092969,
			"0.002": 22.9486901561,
			"0.003": 21.0210472976,
			"0.004": 11.3459591129,
			"0.005": 4.27782572814,
			"0.006": 4.95630208905,
			"0.007": 4.26202183848,
			"0.008": 4.57311068226,
			"0.009": 5.1028798138,
			"0.01": 5.78184471462,
			"0.011": 7.30151734634,
			"0.012": 8.70758066524,
			"0.013": 4.6848038769,
			"0.014": 2.3309742103,
			"0.015": 0.727922916841,
			"0.016": 0.410566257629,
			"0.017": 0.277104189104,
			"0.018": 0.103884971068,
			"0.019": 0.0,
			"0.02": 0.0,
			"0.021": 0.0,
			"0.022": 0.0,
			"0.023": 0.0,
			"0.024": 0.0,
			"0.025": 0.0
		}
	}
}
