{
	 "smiles": "CC(C)(C)OC(=O)[C@@H]1CC(=O)CN1C(=O)OC(C)(C)C", 
	 "Tm": 339.15, 
	 "num_atms": 43, 
	 "gaussian": { 
		 "optdone": 1, 
		 "sigma_profile": "yes", 
		 "theory": "DFT", 
		 "functional": "B3LYP", 
		 "basiset": "6-31G**", 
		 "properties": { 
			 "R2extent": 5961.7092, 
			 "electric_dipole_moment_norm": 2.29613226971, 
			 "electric_quadrupole_moment_norm": 14.6280466803, 
			 "total_energy": -978.277744472, 
			 "HOMO_LUMO_gap": 0.21184, 
			 "cosmo_polarized_energy": -14.74, 
			 "cosmo_cavitation_energy": 44.44, 
			 "cosmo_dispersion_energy": -27.53, 
			 "cosmo_repulsion_energy": 2.12, 
			 "cosmo_total_nonelectrostatic_energy": 19.03, 
			 "SMD_solvation_energy": 9.26 
		},
		"coords": [
			{
				"x": -2.9642859708,
				"y": 1.6751428315,
				"z": -0.5417075105,
				"element": "C" 
			},
			{
				"x": -1.8770241801,
				"y": 2.3693407861,
				"z": 0.2832125478,
				"element": "C" 
			},
			{
				"x": -1.0203240513,
				"y": 3.2829038105,
				"z": -0.5951207337,
				"element": "C" 
			},
			{
				"x": -2.4499307953,
				"y": 3.1352974988,
				"z": 1.4792512112,
				"element": "C" 
			},
			{
				"x": -0.8960534675,
				"y": 1.3659246557,
				"z": 0.7598229038,
				"element": "O" 
			},
			{
				"x": -1.247818876,
				"y": 0.3593817389,
				"z": 1.5757087891,
				"element": "C" 
			},
			{
				"x": -2.3559050765,
				"y": 0.1364288191,
				"z": 2.014563089,
				"element": "O" 
			},
			{
				"x": -0.0182325968,
				"y": -0.4728863207,
				"z": 1.97325762,
				"element": "C" 
			},
			{
				"x": 0.7782429766,
				"y": 0.2402464865,
				"z": 3.0856081789,
				"element": "C" 
			},
			{
				"x": 1.9153612983,
				"y": 0.9557461447,
				"z": 2.3542699656,
				"element": "C" 
			},
			{
				"x": 2.5926822198,
				"y": 1.8537430524,
				"z": 2.7954907496,
				"element": "O" 
			},
			{
				"x": 2.0614145499,
				"y": 0.335730222,
				"z": 0.9671829525,
				"element": "C" 
			},
			{
				"x": 0.9741359889,
				"y": -0.629148903,
				"z": 0.9048184464,
				"element": "N" 
			},
			{
				"x": 0.7602287245,
				"y": -1.3408566816,
				"z": -0.2476821815,
				"element": "C" 
			},
			{
				"x": 1.5388889574,
				"y": -1.3352834497,
				"z": -1.1880854052,
				"element": "O" 
			},
			{
				"x": -0.4026983143,
				"y": -2.027363578,
				"z": -0.1613332299,
				"element": "O" 
			},
			{
				"x": -0.8442160312,
				"y": -2.9181620638,
				"z": -1.2494101481,
				"element": "C" 
			},
			{
				"x": 0.1801298284,
				"y": -4.0387290777,
				"z": -1.4543803066,
				"element": "C" 
			},
			{
				"x": -2.1629706409,
				"y": -3.473604906,
				"z": -0.706536842,
				"element": "C" 
			},
			{
				"x": -1.0774280484,
				"y": -2.1043111698,
				"z": -2.5263014766,
				"element": "C" 
			},
			{
				"x": -2.5131616805,
				"y": 1.093100054,
				"z": -1.3513584381,
				"element": "H" 
			},
			{
				"x": -3.6177453766,
				"y": 2.4301592645,
				"z": -0.9904788847,
				"element": "H" 
			},
			{
				"x": -3.5684714756,
				"y": 1.0126305402,
				"z": 0.078667293,
				"element": "H" 
			},
			{
				"x": -0.2164136626,
				"y": 3.739768224,
				"z": -0.0107533687,
				"element": "H" 
			},
			{
				"x": -1.6373267967,
				"y": 4.0817235329,
				"z": -1.0171437092,
				"element": "H" 
			},
			{
				"x": -0.5728246503,
				"y": 2.7192876113,
				"z": -1.4187802603,
				"element": "H" 
			},
			{
				"x": -3.0844965109,
				"y": 3.9511316987,
				"z": 1.118664226,
				"element": "H" 
			},
			{
				"x": -3.0480627748,
				"y": 2.4829485617,
				"z": 2.1162716309,
				"element": "H" 
			},
			{
				"x": -1.6424015092,
				"y": 3.5738214626,
				"z": 2.0739697264,
				"element": "H" 
			},
			{
				"x": -0.3995263815,
				"y": -1.4444048835,
				"z": 2.2874164646,
				"element": "H" 
			},
			{
				"x": 0.1919825958,
				"y": 0.9342195945,
				"z": 3.6912403718,
				"element": "H" 
			},
			{
				"x": 1.2269921713,
				"y": -0.495711774,
				"z": 3.7639088525,
				"element": "H" 
			},
			{
				"x": 1.9823545047,
				"y": 1.1136518496,
				"z": 0.1980345607,
				"element": "H" 
			},
			{
				"x": 3.0405593271,
				"y": -0.1428494917,
				"z": 0.8548251994,
				"element": "H" 
			},
			{
				"x": 0.3577152016,
				"y": -4.5679583141,
				"z": -0.5127869258,
				"element": "H" 
			},
			{
				"x": 1.1266209176,
				"y": -3.6418101121,
				"z": -1.8223562732,
				"element": "H" 
			},
			{
				"x": -0.2073836871,
				"y": -4.7604586645,
				"z": -2.1806889657,
				"element": "H" 
			},
			{
				"x": -2.6170788916,
				"y": -4.1461422238,
				"z": -1.4402950447,
				"element": "H" 
			},
			{
				"x": -1.9957705312,
				"y": -4.0325219039,
				"z": 0.2187594738,
				"element": "H" 
			},
			{
				"x": -2.8650019595,
				"y": -2.6622300403,
				"z": -0.4946732577,
				"element": "H" 
			},
			{
				"x": -1.4993088557,
				"y": -2.7517545898,
				"z": -3.3018094822,
				"element": "H" 
			},
			{
				"x": -0.1439252591,
				"y": -1.6766530764,
				"z": -2.8928163814,
				"element": "H" 
			},
			{
				"x": -1.7906212099,
				"y": -1.2957872158,
				"z": -2.3360454269,
				"element": "H" 
			}
		],
		 "valence_orbital": [ 
			{
				"type": "occ",
				"energy": -0.29296,
				"method": "rhf"
			},
			{
				"type": "occ",
				"energy": -0.28539,
				"method": "rhf"
			},
			{
				"type": "occ",
				"energy": -0.26767,
				"method": "rhf"
			},
			{
				"type": "occ",
				"energy": -0.25812,
				"method": "rhf"
			},
			{
				"type": "occ",
				"energy": -0.24394,
				"method": "rhf"
			},
			{
				"type": "unocc",
				"energy": -0.0321,
				"method": "rhf"
			},
			{
				"type": "unocc",
				"energy": 0.0012,
				"method": "rhf"
			},
			{
				"type": "unocc",
				"energy": 0.04489,
				"method": "rhf"
			},
			{
				"type": "unocc",
				"energy": 0.06484,
				"method": "rhf"
			},
			{
				"type": "unocc",
				"energy": 0.08134,
				"method": "rhf"
			}
		],
		"cosmo_sigma_profile": { 
			"-0.025": 0.0,
			"-0.024": 0.0,
			"-0.023": 0.0,
			"-0.022": 0.0,
			"-0.021": 0.0,
			"-0.02": 0.0,
			"-0.019": 0.0,
			"-0.018": 0.0,
			"-0.017": 0.0,
			"-0.016": 0.0,
			"-0.015": 0.0,
			"-0.014": 0.0,
			"-0.013": 0.0,
			"-0.012": 0.0,
			"-0.011": 0.0,
			"-0.01": 0.0,
			"-0.009": 0.354802067301,
			"-0.008": 5.14851669706,
			"-0.007": 10.0175845319,
			"-0.006": 9.17042089295,
			"-0.005": 11.6851307847,
			"-0.004": 33.1812819611,
			"-0.003": 35.8985175534,
			"-0.002": 36.864498965,
			"-0.001": 38.2020844084,
			"0.0": 53.5631468251,
			"0.001": 32.1087729453,
			"0.002": 12.5030797686,
			"0.003": 8.43049198056,
			"0.004": 7.65632103952,
			"0.005": 6.67294607501,
			"0.006": 4.17131909503,
			"0.007": 5.22142722641,
			"0.008": 3.54991830054,
			"0.009": 5.59119154597,
			"0.01": 6.49249375957,
			"0.011": 8.77747162866,
			"0.012": 6.51801901649,
			"0.013": 3.71582809656,
			"0.014": 0.297794212623,
			"0.015": 0.0,
			"0.016": 0.0,
			"0.017": 0.0,
			"0.018": 0.0,
			"0.019": 0.0,
			"0.02": 0.0,
			"0.021": 0.0,
			"0.022": 0.0,
			"0.023": 0.0,
			"0.024": 0.0,
			"0.025": 0.0
		}
	}
}
