{
	 "smiles": "C1CNCC(C1)C1=NC=CN1", 
	 "Tm": 419.15, 
	 "num_atms": 24, 
	 "gaussian": { 
		 "optdone": 1, 
		 "sigma_profile": "yes", 
		 "theory": "DFT", 
		 "functional": "B3LYP", 
		 "basiset": "6-31G**", 
		 "properties": { 
			 "R2extent": 2130.7456, 
			 "electric_dipole_moment_norm": 3.83698729474, 
			 "electric_quadrupole_moment_norm": 10.8411154182, 
			 "total_energy": -476.928011065, 
			 "HOMO_LUMO_gap": 0.23867, 
			 "cosmo_polarized_energy": -15.4, 
			 "cosmo_cavitation_energy": 25.56, 
			 "cosmo_dispersion_energy": -18.97, 
			 "cosmo_repulsion_energy": 1.53, 
			 "cosmo_total_nonelectrostatic_energy": 8.11, 
			 "SMD_solvation_energy": -0.26 
		},
		"coords": [
			{
				"x": -0.2138388049,
				"y": 2.2888598661,
				"z": 0.6744101922,
				"element": "C" 
			},
			{
				"x": -0.1147495708,
				"y": 2.5076626549,
				"z": -0.8607629096,
				"element": "C" 
			},
			{
				"x": 0.9513590717,
				"y": 1.7296881089,
				"z": -1.4947775857,
				"element": "N" 
			},
			{
				"x": 0.7406770438,
				"y": 0.2839813585,
				"z": -1.3444852374,
				"element": "C" 
			},
			{
				"x": 0.0433610887,
				"y": -0.1382196719,
				"z": -0.0043956139,
				"element": "C" 
			},
			{
				"x": 0.3610389487,
				"y": 0.9133070651,
				"z": 1.0772154397,
				"element": "C" 
			},
			{
				"x": 0.3770560453,
				"y": -1.5447212985,
				"z": 0.3895038497,
				"element": "C" 
			},
			{
				"x": -0.4317384696,
				"y": -2.5836125068,
				"z": 0.2913379621,
				"element": "N" 
			},
			{
				"x": 0.2915222555,
				"y": -3.6690958286,
				"z": 0.7362616522,
				"element": "C" 
			},
			{
				"x": 1.5548384867,
				"y": -3.2907391444,
				"z": 1.1103181379,
				"element": "C" 
			},
			{
				"x": 1.6015201601,
				"y": -1.9284684901,
				"z": 0.8814261572,
				"element": "N" 
			},
			{
				"x": -1.2619657782,
				"y": 2.3594847031,
				"z": 0.9903374612,
				"element": "H" 
			},
			{
				"x": 0.3250956003,
				"y": 3.0801171426,
				"z": 1.2092188088,
				"element": "H" 
			},
			{
				"x": -1.0563691079,
				"y": 2.2169627495,
				"z": -1.3426584513,
				"element": "H" 
			},
			{
				"x": 0.0344565851,
				"y": 3.5675871433,
				"z": -1.0920746146,
				"element": "H" 
			},
			{
				"x": 1.8423439769,
				"y": 1.990364103,
				"z": -1.0803359707,
				"element": "H" 
			},
			{
				"x": 0.1352924803,
				"y": -0.0827667262,
				"z": -2.1828352933,
				"element": "H" 
			},
			{
				"x": 1.7162395055,
				"y": -0.2083096999,
				"z": -1.4267632956,
				"element": "H" 
			},
			{
				"x": -1.0402779442,
				"y": -0.145300778,
				"z": -0.1628867531,
				"element": "H" 
			},
			{
				"x": 1.4516722775,
				"y": 0.9926667281,
				"z": 1.1980152258,
				"element": "H" 
			},
			{
				"x": -0.033588663,
				"y": 0.6002219768,
				"z": 2.0489345971,
				"element": "H" 
			},
			{
				"x": -0.1395749001,
				"y": -4.6603615747,
				"z": 0.7631707943,
				"element": "H" 
			},
			{
				"x": 2.3969237863,
				"y": -3.8363710584,
				"z": 1.5074040123,
				"element": "H" 
			},
			{
				"x": 2.3871059264,
				"y": -1.3245368224,
				"z": 1.0672214348,
				"element": "H" 
			}
		],
		 "valence_orbital": [ 
			{
				"type": "occ",
				"energy": -0.31557,
				"method": "rhf"
			},
			{
				"type": "occ",
				"energy": -0.27212,
				"method": "rhf"
			},
			{
				"type": "occ",
				"energy": -0.25732,
				"method": "rhf"
			},
			{
				"type": "occ",
				"energy": -0.22873,
				"method": "rhf"
			},
			{
				"type": "occ",
				"energy": -0.20583,
				"method": "rhf"
			},
			{
				"type": "unocc",
				"energy": 0.03284,
				"method": "rhf"
			},
			{
				"type": "unocc",
				"energy": 0.05262,
				"method": "rhf"
			},
			{
				"type": "unocc",
				"energy": 0.07701,
				"method": "rhf"
			},
			{
				"type": "unocc",
				"energy": 0.08636,
				"method": "rhf"
			},
			{
				"type": "unocc",
				"energy": 0.10139,
				"method": "rhf"
			}
		],
		"cosmo_sigma_profile": { 
			"-0.025": 0.0,
			"-0.024": 0.0,
			"-0.023": 0.0,
			"-0.022": 0.0,
			"-0.021": 0.0,
			"-0.02": 0.0,
			"-0.019": 0.0,
			"-0.018": 0.0,
			"-0.017": 0.0,
			"-0.016": 0.382869080963,
			"-0.015": 1.15587959818,
			"-0.014": 0.905577046821,
			"-0.013": 1.0715824373,
			"-0.012": 1.3811314577,
			"-0.011": 1.75356750963,
			"-0.01": 1.55561946079,
			"-0.009": 3.47061267926,
			"-0.008": 4.16853782858,
			"-0.007": 5.58786707002,
			"-0.006": 7.45051259033,
			"-0.005": 6.56229258435,
			"-0.004": 8.5055114283,
			"-0.003": 18.3224086765,
			"-0.002": 27.8381612277,
			"-0.001": 20.3824989811,
			"0.0": 19.2034830035,
			"0.001": 10.8768289085,
			"0.002": 7.74548083117,
			"0.003": 6.2823727657,
			"0.004": 5.62604883179,
			"0.005": 5.6807724188,
			"0.006": 6.80545256147,
			"0.007": 4.66893366292,
			"0.008": 2.88121950417,
			"0.009": 1.93038327376,
			"0.01": 2.40904429751,
			"0.011": 2.46519349727,
			"0.012": 1.80042674421,
			"0.013": 1.00277813656,
			"0.014": 2.53200469803,
			"0.015": 1.31874524171,
			"0.016": 1.77368772015,
			"0.017": 1.27832943562,
			"0.018": 1.88780651264,
			"0.019": 0.632099120989,
			"0.02": 0.0,
			"0.021": 0.0,
			"0.022": 0.0,
			"0.023": 0.0,
			"0.024": 0.0,
			"0.025": 0.0
		}
	}
}
