{
	 "smiles": "CCC1=CC=C(O1)C(C1=CC=C(CC)O1)C1=CC=C(C=C1)C(C1=CC=C(CC)O1)C1=CC=C(CC)O1", 
	 "Tm": 354.15, 
	 "num_atms": 70, 
	 "gaussian": { 
		 "optdone": 1, 
		 "sigma_profile": "yes", 
		 "theory": "DFT", 
		 "functional": "B3LYP", 
		 "basiset": "6-31G**", 
		 "properties": { 
			 "R2extent": 23577.0709, 
			 "electric_dipole_moment_norm": 0.405472674788, 
			 "electric_quadrupole_moment_norm": 8.32094248628, 
			 "total_energy": -1540.75037662, 
			 "HOMO_LUMO_gap": 0.19667, 
			 "cosmo_polarized_energy": -13.37, 
			 "cosmo_cavitation_energy": 74.54, 
			 "cosmo_dispersion_energy": -46.64, 
			 "cosmo_repulsion_energy": 3.74, 
			 "cosmo_total_nonelectrostatic_energy": 31.64, 
			 "SMD_solvation_energy": 13.38 
		},
		"coords": [
			{
				"x": -5.0540347282,
				"y": -0.3602015298,
				"z": -5.4088078912,
				"element": "C" 
			},
			{
				"x": -5.4826887694,
				"y": -1.1327489215,
				"z": -4.1484628135,
				"element": "C" 
			},
			{
				"x": -4.4067186992,
				"y": -1.2447004125,
				"z": -3.1200442181,
				"element": "C" 
			},
			{
				"x": -3.7198281728,
				"y": -2.2917466909,
				"z": -2.5801177417,
				"element": "C" 
			},
			{
				"x": -2.7900653304,
				"y": -1.7366625911,
				"z": -1.6381550747,
				"element": "C" 
			},
			{
				"x": -2.9724133477,
				"y": -0.386326385,
				"z": -1.665277641,
				"element": "C" 
			},
			{
				"x": -3.9569904555,
				"y": -0.0722306445,
				"z": -2.5679540051,
				"element": "O" 
			},
			{
				"x": -2.3428492919,
				"y": 0.7717401853,
				"z": -0.9393963789,
				"element": "C" 
			},
			{
				"x": -3.309263613,
				"y": 1.3991200202,
				"z": 0.0284869247,
				"element": "C" 
			},
			{
				"x": -4.4554367965,
				"y": 0.9806183122,
				"z": 0.6356744698,
				"element": "C" 
			},
			{
				"x": -4.8868869677,
				"y": 2.0607771043,
				"z": 1.4770558062,
				"element": "C" 
			},
			{
				"x": -3.9777586986,
				"y": 3.0657232918,
				"z": 1.3257232037,
				"element": "C" 
			},
			{
				"x": -3.8374885653,
				"y": 4.4322146407,
				"z": 1.9093299965,
				"element": "C" 
			},
			{
				"x": -2.5751863276,
				"y": 4.6072395313,
				"z": 2.7726250548,
				"element": "C" 
			},
			{
				"x": -3.0065360351,
				"y": 2.6710133605,
				"z": 0.4400491404,
				"element": "O" 
			},
			{
				"x": -1.0202776003,
				"y": 0.3568109578,
				"z": -0.2881261421,
				"element": "C" 
			},
			{
				"x": -0.9814088146,
				"y": -0.2251685612,
				"z": 0.9826765225,
				"element": "C" 
			},
			{
				"x": 0.2317620629,
				"y": -0.6310416212,
				"z": 1.5398662182,
				"element": "C" 
			},
			{
				"x": 1.4336546166,
				"y": -0.4647810318,
				"z": 0.8455862525,
				"element": "C" 
			},
			{
				"x": 1.395478624,
				"y": 0.1197139834,
				"z": -0.4255167079,
				"element": "C" 
			},
			{
				"x": 0.1839364864,
				"y": 0.5238609369,
				"z": -0.9821741332,
				"element": "C" 
			},
			{
				"x": 2.7627237791,
				"y": -0.8828937194,
				"z": 1.4918534819,
				"element": "C" 
			},
			{
				"x": 3.6526069661,
				"y": -1.6479959756,
				"z": 0.5495719554,
				"element": "C" 
			},
			{
				"x": 4.8575277445,
				"y": -1.4085950284,
				"z": -0.0409652027,
				"element": "C" 
			},
			{
				"x": 5.1557262695,
				"y": -2.5641799045,
				"z": -0.8388520346,
				"element": "C" 
			},
			{
				"x": 4.1139491899,
				"y": -3.4299059054,
				"z": -0.6845865495,
				"element": "C" 
			},
			{
				"x": 3.8086241585,
				"y": -4.7889431325,
				"z": -1.2205821862,
				"element": "C" 
			},
			{
				"x": 3.722278673,
				"y": -5.8761187701,
				"z": -0.1344818844,
				"element": "C" 
			},
			{
				"x": 3.1874254498,
				"y": -2.8795588997,
				"z": 0.1651963388,
				"element": "O" 
			},
			{
				"x": 3.473355108,
				"y": 0.2830861362,
				"z": 2.1186701907,
				"element": "C" 
			},
			{
				"x": 3.8168111187,
				"y": 0.5719349429,
				"z": 3.405109561,
				"element": "C" 
			},
			{
				"x": 4.4521985602,
				"y": 1.858067768,
				"z": 3.380284748,
				"element": "C" 
			},
			{
				"x": 4.4516028793,
				"y": 2.2717894277,
				"z": 2.0811746537,
				"element": "C" 
			},
			{
				"x": 4.9486526578,
				"y": 3.4940118995,
				"z": 1.3837577734,
				"element": "C" 
			},
			{
				"x": 6.0589651823,
				"y": 3.2138658811,
				"z": 0.3554802072,
				"element": "C" 
			},
			{
				"x": 3.854836732,
				"y": 1.3133379396,
				"z": 1.29895476,
				"element": "O" 
			},
			{
				"x": -4.2137774599,
				"y": -0.8561316323,
				"z": -5.9046722784,
				"element": "H" 
			},
			{
				"x": -5.8815657563,
				"y": -0.2923048645,
				"z": -6.1221547332,
				"element": "H" 
			},
			{
				"x": -4.7415005338,
				"y": 0.6559624629,
				"z": -5.1521100867,
				"element": "H" 
			},
			{
				"x": -5.7941553077,
				"y": -2.1479988849,
				"z": -4.4165495263,
				"element": "H" 
			},
			{
				"x": -6.3606564313,
				"y": -0.6423742403,
				"z": -3.7065815534,
				"element": "H" 
			},
			{
				"x": -3.8558120567,
				"y": -3.3357307519,
				"z": -2.8253824915,
				"element": "H" 
			},
			{
				"x": -2.0751972589,
				"y": -2.2681011572,
				"z": -1.0279745941,
				"element": "H" 
			},
			{
				"x": -2.1073263354,
				"y": 1.5380315526,
				"z": -1.6917575375,
				"element": "H" 
			},
			{
				"x": -4.9382102372,
				"y": 0.0252359364,
				"z": 0.4907190384,
				"element": "H" 
			},
			{
				"x": -5.7643225419,
				"y": 2.0871269282,
				"z": 2.1079348236,
				"element": "H" 
			},
			{
				"x": -4.7335550266,
				"y": 4.6335168327,
				"z": 2.506160646,
				"element": "H" 
			},
			{
				"x": -3.8272937687,
				"y": 5.1753189774,
				"z": 1.1003828186,
				"element": "H" 
			},
			{
				"x": -1.6743263768,
				"y": 4.4031166621,
				"z": 2.1871729283,
				"element": "H" 
			},
			{
				"x": -2.5080083999,
				"y": 5.6295079309,
				"z": 3.1584882049,
				"element": "H" 
			},
			{
				"x": -2.5853242387,
				"y": 3.919425497,
				"z": 3.6238480994,
				"element": "H" 
			},
			{
				"x": -1.9042131173,
				"y": -0.3527255856,
				"z": 1.5410391967,
				"element": "H" 
			},
			{
				"x": 0.2415877522,
				"y": -1.0798168537,
				"z": 2.53052034,
				"element": "H" 
			},
			{
				"x": 2.3192053145,
				"y": 0.255494909,
				"z": -0.9795097715,
				"element": "H" 
			},
			{
				"x": 0.1726874815,
				"y": 0.973345331,
				"z": -1.972357762,
				"element": "H" 
			},
			{
				"x": 2.5168783595,
				"y": -1.5552355688,
				"z": 2.3237908219,
				"element": "H" 
			},
			{
				"x": 5.4565839718,
				"y": -0.5185269843,
				"z": 0.0777162664,
				"element": "H" 
			},
			{
				"x": 6.0332235045,
				"y": -2.7275239054,
				"z": -1.4486760251,
				"element": "H" 
			},
			{
				"x": 4.5878691561,
				"y": -5.0432850088,
				"z": -1.9469867282,
				"element": "H" 
			},
			{
				"x": 2.8614061848,
				"y": -4.7579605399,
				"z": -1.7758593381,
				"element": "H" 
			},
			{
				"x": 4.6720018754,
				"y": -5.9701905029,
				"z": 0.4013046583,
				"element": "H" 
			},
			{
				"x": 2.9461040126,
				"y": -5.6321132127,
				"z": 0.5964434858,
				"element": "H" 
			},
			{
				"x": 3.4804150616,
				"y": -6.8478320724,
				"z": -0.5767207444,
				"element": "H" 
			},
			{
				"x": 3.6397003991,
				"y": -0.0549995586,
				"z": 4.2676165845,
				"element": "H" 
			},
			{
				"x": 4.8530810755,
				"y": 2.4059516962,
				"z": 4.2214203869,
				"element": "H" 
			},
			{
				"x": 4.1095422975,
				"y": 3.9936661125,
				"z": 0.8811050891,
				"element": "H" 
			},
			{
				"x": 5.3114566528,
				"y": 4.1881270935,
				"z": 2.1493083333,
				"element": "H" 
			},
			{
				"x": 6.379615832,
				"y": 4.1407162749,
				"z": -0.1306328703,
				"element": "H" 
			},
			{
				"x": 5.7049104709,
				"y": 2.5295112233,
				"z": -0.4209924039,
				"element": "H" 
			},
			{
				"x": 6.9316913999,
				"y": 2.7595693088,
				"z": 0.835120068,
				"element": "H" 
			}
		],
		 "valence_orbital": [ 
			{
				"type": "occ",
				"energy": -0.23908,
				"method": "rhf"
			},
			{
				"type": "occ",
				"energy": -0.21,
				"method": "rhf"
			},
			{
				"type": "occ",
				"energy": -0.20883,
				"method": "rhf"
			},
			{
				"type": "occ",
				"energy": -0.20282,
				"method": "rhf"
			},
			{
				"type": "occ",
				"energy": -0.1992,
				"method": "rhf"
			},
			{
				"type": "unocc",
				"energy": -0.00253,
				"method": "rhf"
			},
			{
				"type": "unocc",
				"energy": 0.00165,
				"method": "rhf"
			},
			{
				"type": "unocc",
				"energy": 0.01755,
				"method": "rhf"
			},
			{
				"type": "unocc",
				"energy": 0.02372,
				"method": "rhf"
			},
			{
				"type": "unocc",
				"energy": 0.02434,
				"method": "rhf"
			}
		],
		"cosmo_sigma_profile": { 
			"-0.025": 0.0,
			"-0.024": 0.0,
			"-0.023": 0.0,
			"-0.022": 0.0,
			"-0.021": 0.0,
			"-0.02": 0.0,
			"-0.019": 0.0,
			"-0.018": 0.0,
			"-0.017": 0.0,
			"-0.016": 0.0,
			"-0.015": 0.0,
			"-0.014": 0.0,
			"-0.013": 0.0,
			"-0.012": 0.0,
			"-0.011": 0.0,
			"-0.01": 0.0,
			"-0.009": 0.0,
			"-0.008": 0.0,
			"-0.007": 3.93106554631,
			"-0.006": 18.8656439761,
			"-0.005": 22.7170280402,
			"-0.004": 44.1689059763,
			"-0.003": 59.3245271371,
			"-0.002": 61.3464783763,
			"-0.001": 77.2341306637,
			"0.0": 63.2021081937,
			"0.001": 56.1269575902,
			"0.002": 35.1453808965,
			"0.003": 35.240625722,
			"0.004": 36.5822571584,
			"0.005": 36.2466696717,
			"0.006": 26.9646114155,
			"0.007": 7.74468775515,
			"0.008": 3.51484727583,
			"0.009": 0.773664882887,
			"0.01": 0.0,
			"0.011": 0.0,
			"0.012": 0.0,
			"0.013": 0.0,
			"0.014": 0.0,
			"0.015": 0.0,
			"0.016": 0.0,
			"0.017": 0.0,
			"0.018": 0.0,
			"0.019": 0.0,
			"0.02": 0.0,
			"0.021": 0.0,
			"0.022": 0.0,
			"0.023": 0.0,
			"0.024": 0.0,
			"0.025": 0.0
		}
	}
}
