{
	 "smiles": "NC1=CC=C(CCC(O)=O)C=C1", 
	 "Tm": 407.15, 
	 "num_atms": 23, 
	 "gaussian": { 
		 "optdone": 1, 
		 "sigma_profile": "yes", 
		 "theory": "DFT", 
		 "functional": "B3LYP", 
		 "basiset": "6-31G**", 
		 "properties": { 
			 "R2extent": 3667.4411, 
			 "electric_dipole_moment_norm": 2.33066642401, 
			 "electric_quadrupole_moment_norm": 10.5830906478, 
			 "total_energy": -554.812408938, 
			 "HOMO_LUMO_gap": 0.19985, 
			 "cosmo_polarized_energy": -13.95, 
			 "cosmo_cavitation_energy": 26.95, 
			 "cosmo_dispersion_energy": -19.45, 
			 "cosmo_repulsion_energy": 1.59, 
			 "cosmo_total_nonelectrostatic_energy": 9.08, 
			 "SMD_solvation_energy": 5.4 
		},
		"coords": [
			{
				"x": -1.6998872143,
				"y": 2.6726293614,
				"z": -3.2041138481,
				"element": "N" 
			},
			{
				"x": -1.2155010228,
				"y": 2.1412133799,
				"z": -2.0041292312,
				"element": "C" 
			},
			{
				"x": -0.791191602,
				"y": 2.9824790466,
				"z": -0.9621407585,
				"element": "C" 
			},
			{
				"x": -0.2524305801,
				"y": 2.4517699639,
				"z": 0.206985236,
				"element": "C" 
			},
			{
				"x": -0.1151158837,
				"y": 1.0678621005,
				"z": 0.3855519367,
				"element": "C" 
			},
			{
				"x": 0.4471280767,
				"y": 0.4833454918,
				"z": 1.6655649267,
				"element": "C" 
			},
			{
				"x": -0.6190347502,
				"y": 0.1844598843,
				"z": 2.7359016291,
				"element": "C" 
			},
			{
				"x": -1.1561835677,
				"y": 1.4285717413,
				"z": 3.4115211104,
				"element": "C" 
			},
			{
				"x": -2.3589264007,
				"y": 1.2027141074,
				"z": 3.9934581222,
				"element": "O" 
			},
			{
				"x": -0.595956941,
				"y": 2.5018765205,
				"z": 3.4821239771,
				"element": "O" 
			},
			{
				"x": -0.5388740273,
				"y": 0.2359244561,
				"z": -0.6594873333,
				"element": "C" 
			},
			{
				"x": -1.080409606,
				"y": 0.7534747323,
				"z": -1.8332837407,
				"element": "C" 
			},
			{
				"x": -2.0955343616,
				"y": 3.5998752352,
				"z": -3.1275324292,
				"element": "H" 
			},
			{
				"x": -2.3034249717,
				"y": 2.0544059838,
				"z": -3.7292007701,
				"element": "H" 
			},
			{
				"x": -0.8786370049,
				"y": 4.060663334,
				"z": -1.07607068,
				"element": "H" 
			},
			{
				"x": 0.0589449133,
				"y": 3.1212013649,
				"z": 1.0032464403,
				"element": "H" 
			},
			{
				"x": 0.9680905912,
				"y": -0.4537727904,
				"z": 1.439210348,
				"element": "H" 
			},
			{
				"x": 1.1862087182,
				"y": 1.1644148492,
				"z": 2.0987881249,
				"element": "H" 
			},
			{
				"x": -0.1913857173,
				"y": -0.4363477791,
				"z": 3.5357635693,
				"element": "H" 
			},
			{
				"x": -1.4577390565,
				"y": -0.383059767,
				"z": 2.3213594024,
				"element": "H" 
			},
			{
				"x": -2.605471286,
				"y": 2.0351876956,
				"z": 4.4310079431,
				"element": "H" 
			},
			{
				"x": -0.4404260615,
				"y": -0.8431229197,
				"z": -0.5578902772,
				"element": "H" 
			},
			{
				"x": -1.3913422442,
				"y": 0.0820340074,
				"z": -2.6304336979,
				"element": "H" 
			}
		],
		 "valence_orbital": [ 
			{
				"type": "occ",
				"energy": -0.31538,
				"method": "rhf"
			},
			{
				"type": "occ",
				"energy": -0.29467,
				"method": "rhf"
			},
			{
				"type": "occ",
				"energy": -0.27291,
				"method": "rhf"
			},
			{
				"type": "occ",
				"energy": -0.23917,
				"method": "rhf"
			},
			{
				"type": "occ",
				"energy": -0.19385,
				"method": "rhf"
			},
			{
				"type": "unocc",
				"energy": 0.006,
				"method": "rhf"
			},
			{
				"type": "unocc",
				"energy": 0.0145,
				"method": "rhf"
			},
			{
				"type": "unocc",
				"energy": 0.02211,
				"method": "rhf"
			},
			{
				"type": "unocc",
				"energy": 0.08194,
				"method": "rhf"
			},
			{
				"type": "unocc",
				"energy": 0.08522,
				"method": "rhf"
			}
		],
		"cosmo_sigma_profile": { 
			"-0.025": 0.0,
			"-0.024": 0.0,
			"-0.023": 0.0,
			"-0.022": 0.0,
			"-0.021": 0.0,
			"-0.02": 0.0,
			"-0.019": 0.0,
			"-0.018": 0.52444436478,
			"-0.017": 0.871548381653,
			"-0.016": 0.906555870283,
			"-0.015": 0.937016409919,
			"-0.014": 0.636873440346,
			"-0.013": 0.395009468486,
			"-0.012": 2.05630319194,
			"-0.011": 3.81931515548,
			"-0.01": 3.85303894498,
			"-0.009": 3.57492607395,
			"-0.008": 3.73012722976,
			"-0.007": 3.9421268391,
			"-0.006": 8.03684699804,
			"-0.005": 10.8761036199,
			"-0.004": 14.0051908051,
			"-0.003": 17.247220389,
			"-0.002": 18.5484554212,
			"-0.001": 13.5568366762,
			"0.0": 10.7185470163,
			"0.001": 9.46041880764,
			"0.002": 10.8648334288,
			"0.003": 9.25486072739,
			"0.004": 10.3107161973,
			"0.005": 9.87176506486,
			"0.006": 10.4909511681,
			"0.007": 11.5942592501,
			"0.008": 5.21314490832,
			"0.009": 3.46659643153,
			"0.01": 3.83058443286,
			"0.011": 3.21031527823,
			"0.012": 4.21830709707,
			"0.013": 0.973496757715,
			"0.014": 0.583443829053,
			"0.015": 0.539442101582,
			"0.016": 0.0,
			"0.017": 0.0,
			"0.018": 0.0,
			"0.019": 0.0,
			"0.02": 0.0,
			"0.021": 0.0,
			"0.022": 0.0,
			"0.023": 0.0,
			"0.024": 0.0,
			"0.025": 0.0
		}
	}
}
