{
	 "smiles": "CC1=C(CC2=NCCN2)C2=C(S1)C=CC=C2", 
	 "Tm": 429.15, 
	 "num_atms": 30, 
	 "gaussian": { 
		 "optdone": 1, 
		 "sigma_profile": "yes", 
		 "theory": "DFT", 
		 "functional": "B3LYP", 
		 "basiset": "6-31G**", 
		 "properties": { 
			 "R2extent": 4338.6426, 
			 "electric_dipole_moment_norm": 1.89620531852, 
			 "electric_quadrupole_moment_norm": 3.94802420332, 
			 "total_energy": -1011.51689347, 
			 "HOMO_LUMO_gap": 0.18682, 
			 "cosmo_polarized_energy": -10.18, 
			 "cosmo_cavitation_energy": 33.65, 
			 "cosmo_dispersion_energy": -24.59, 
			 "cosmo_repulsion_energy": 1.88, 
			 "cosmo_total_nonelectrostatic_energy": 10.94, 
			 "SMD_solvation_energy": 0.49 
		},
		"coords": [
			{
				"x": -2.8636636929,
				"y": -1.7533827178,
				"z": -0.4694027963,
				"element": "C" 
			},
			{
				"x": -1.4988613485,
				"y": -1.4431782503,
				"z": -1.0121734634,
				"element": "C" 
			},
			{
				"x": -0.8809028131,
				"y": -0.2273189874,
				"z": -1.0993474606,
				"element": "C" 
			},
			{
				"x": -1.5040569822,
				"y": 1.0658567643,
				"z": -0.6116841532,
				"element": "C" 
			},
			{
				"x": -1.3397925795,
				"y": 1.2643863882,
				"z": 0.8740273957,
				"element": "C" 
			},
			{
				"x": -2.3249914113,
				"y": 1.2888310455,
				"z": 1.697564259,
				"element": "N" 
			},
			{
				"x": -1.7381400315,
				"y": 1.5162490924,
				"z": 3.03181883,
				"element": "C" 
			},
			{
				"x": -0.2092077631,
				"y": 1.2949109409,
				"z": 2.8660197936,
				"element": "C" 
			},
			{
				"x": -0.0677655428,
				"y": 1.4613668027,
				"z": 1.4113687965,
				"element": "N" 
			},
			{
				"x": 0.4449222493,
				"y": -0.3100644697,
				"z": -1.6793155527,
				"element": "C" 
			},
			{
				"x": 0.7934988568,
				"y": -1.6353314956,
				"z": -2.0419410888,
				"element": "C" 
			},
			{
				"x": -0.5044595401,
				"y": -2.7497047215,
				"z": -1.656482979,
				"element": "S" 
			},
			{
				"x": 2.0277862973,
				"y": -1.9414805515,
				"z": -2.6210387378,
				"element": "C" 
			},
			{
				"x": 2.9342532528,
				"y": -0.9081493782,
				"z": -2.8393416605,
				"element": "C" 
			},
			{
				"x": 2.6116383253,
				"y": 0.4128146752,
				"z": -2.4850911626,
				"element": "C" 
			},
			{
				"x": 1.3822445607,
				"y": 0.7157092749,
				"z": -1.911737358,
				"element": "C" 
			},
			{
				"x": -3.6080641576,
				"y": -1.8215127728,
				"z": -1.2727428433,
				"element": "H" 
			},
			{
				"x": -2.8716890295,
				"y": -2.7098543657,
				"z": 0.0626407136,
				"element": "H" 
			},
			{
				"x": -3.1818725424,
				"y": -0.9778856895,
				"z": 0.2319734848,
				"element": "H" 
			},
			{
				"x": -1.0540864675,
				"y": 1.9142838955,
				"z": -1.1398516359,
				"element": "H" 
			},
			{
				"x": -2.5746154877,
				"y": 1.0884604513,
				"z": -0.8224237073,
				"element": "H" 
			},
			{
				"x": -1.9566819034,
				"y": 2.5456441722,
				"z": 3.3467917827,
				"element": "H" 
			},
			{
				"x": -2.1854923751,
				"y": 0.8478694396,
				"z": 3.7739557372,
				"element": "H" 
			},
			{
				"x": 0.0905100127,
				"y": 0.2860573217,
				"z": 3.1850314083,
				"element": "H" 
			},
			{
				"x": 0.39461621,
				"y": 2.0227421469,
				"z": 3.4156663854,
				"element": "H" 
			},
			{
				"x": 0.7043499129,
				"y": 0.9935853076,
				"z": 0.9519034895,
				"element": "H" 
			},
			{
				"x": 2.2753958976,
				"y": -2.9629321307,
				"z": -2.8936818044,
				"element": "H" 
			},
			{
				"x": 3.8988955427,
				"y": -1.1266226914,
				"z": -3.2875204266,
				"element": "H" 
			},
			{
				"x": 3.33098928,
				"y": 1.2066450399,
				"z": -2.6633527849,
				"element": "H" 
			},
			{
				"x": 1.1463432701,
				"y": 1.7423054634,
				"z": -1.6450324609,
				"element": "H" 
			}
		],
		 "valence_orbital": [ 
			{
				"type": "occ",
				"energy": -0.28084,
				"method": "rhf"
			},
			{
				"type": "occ",
				"energy": -0.2559,
				"method": "rhf"
			},
			{
				"type": "occ",
				"energy": -0.23267,
				"method": "rhf"
			},
			{
				"type": "occ",
				"energy": -0.21593,
				"method": "rhf"
			},
			{
				"type": "occ",
				"energy": -0.21318,
				"method": "rhf"
			},
			{
				"type": "unocc",
				"energy": -0.02636,
				"method": "rhf"
			},
			{
				"type": "unocc",
				"energy": -0.00576,
				"method": "rhf"
			},
			{
				"type": "unocc",
				"energy": 0.0195,
				"method": "rhf"
			},
			{
				"type": "unocc",
				"energy": 0.02834,
				"method": "rhf"
			},
			{
				"type": "unocc",
				"energy": 0.0524,
				"method": "rhf"
			}
		],
		"cosmo_sigma_profile": { 
			"-0.025": 0.0,
			"-0.024": 0.0,
			"-0.023": 0.0,
			"-0.022": 0.0,
			"-0.021": 0.0,
			"-0.02": 0.0,
			"-0.019": 0.0,
			"-0.018": 0.0,
			"-0.017": 0.0,
			"-0.016": 0.0,
			"-0.015": 0.0,
			"-0.014": 0.0,
			"-0.013": 0.0,
			"-0.012": 0.01157727733,
			"-0.011": 0.277461973269,
			"-0.01": 0.798641385576,
			"-0.009": 1.04621760875,
			"-0.008": 0.826528658791,
			"-0.007": 3.39860423704,
			"-0.006": 10.7802029731,
			"-0.005": 16.5533838487,
			"-0.004": 27.971239659,
			"-0.003": 30.1996251688,
			"-0.002": 29.3413183148,
			"-0.001": 24.0796307893,
			"0.0": 16.0101951454,
			"0.001": 14.4088652625,
			"0.002": 16.05866256,
			"0.003": 20.2914867199,
			"0.004": 18.1304612824,
			"0.005": 16.2885961942,
			"0.006": 7.18625096067,
			"0.007": 1.96122101101,
			"0.008": 2.35317050132,
			"0.009": 1.83574105394,
			"0.01": 1.58232292221,
			"0.011": 1.40790977629,
			"0.012": 1.34009984251,
			"0.013": 0.848930549453,
			"0.014": 0.811332541384,
			"0.015": 0.838711220162,
			"0.016": 0.973590755869,
			"0.017": 0.748415567401,
			"0.018": 0.642409941445,
			"0.019": 0.233524717427,
			"0.02": 0.0,
			"0.021": 0.0,
			"0.022": 0.0,
			"0.023": 0.0,
			"0.024": 0.0,
			"0.025": 0.0
		}
	}
}
