{
	 "smiles": "CC1=C(C=C(F)C=C1)C(N)=O", 
	 "Tm": 394.15, 
	 "num_atms": 19, 
	 "gaussian": { 
		 "optdone": 1, 
		 "sigma_profile": "yes", 
		 "theory": "DFT", 
		 "functional": "B3LYP", 
		 "basiset": "6-31G**", 
		 "properties": { 
			 "R2extent": 2155.7953, 
			 "electric_dipole_moment_norm": 2.38563188694, 
			 "electric_quadrupole_moment_norm": 17.7159617306, 
			 "total_energy": -539.50492979, 
			 "HOMO_LUMO_gap": 0.20118, 
			 "cosmo_polarized_energy": -11.53, 
			 "cosmo_cavitation_energy": 23.39, 
			 "cosmo_dispersion_energy": -17.11, 
			 "cosmo_repulsion_energy": 1.36, 
			 "cosmo_total_nonelectrostatic_energy": 7.63, 
			 "SMD_solvation_energy": 5.31 
		},
		"coords": [
			{
				"x": -0.6306967678,
				"y": 1.5261192312,
				"z": 1.334435107,
				"element": "C" 
			},
			{
				"x": -0.5261617845,
				"y": 0.680012348,
				"z": 0.0866386051,
				"element": "C" 
			},
			{
				"x": 0.4621073161,
				"y": 0.8845802652,
				"z": -0.9040929076,
				"element": "C" 
			},
			{
				"x": 0.4928123236,
				"y": 0.0748475173,
				"z": -2.0498609889,
				"element": "C" 
			},
			{
				"x": -0.4448853418,
				"y": -0.9350510208,
				"z": -2.2053419163,
				"element": "C" 
			},
			{
				"x": -0.4081208319,
				"y": -1.6978690841,
				"z": -3.31889799,
				"element": "F" 
			},
			{
				"x": -1.4171505623,
				"y": -1.1751747237,
				"z": -1.2450951014,
				"element": "C" 
			},
			{
				"x": -1.4405663673,
				"y": -0.363832497,
				"z": -0.1111529328,
				"element": "C" 
			},
			{
				"x": 1.4740874504,
				"y": 1.9902166695,
				"z": -0.7628052125,
				"element": "C" 
			},
			{
				"x": 2.6984065482,
				"y": 1.7462893778,
				"z": -1.3412954415,
				"element": "N" 
			},
			{
				"x": 1.2317513973,
				"y": 3.0521962929,
				"z": -0.2028401813,
				"element": "O" 
			},
			{
				"x": -0.9329776741,
				"y": 2.5477292209,
				"z": 1.0919475061,
				"element": "H" 
			},
			{
				"x": 0.3282189943,
				"y": 1.6107754992,
				"z": 1.8533346433,
				"element": "H" 
			},
			{
				"x": -1.3613344271,
				"y": 1.0934136186,
				"z": 2.0236438593,
				"element": "H" 
			},
			{
				"x": 1.2167099723,
				"y": 0.246379181,
				"z": -2.838772594,
				"element": "H" 
			},
			{
				"x": -2.1359759064,
				"y": -1.9743609639,
				"z": -1.3903521243,
				"element": "H" 
			},
			{
				"x": -2.197904734,
				"y": -0.5443219907,
				"z": 0.646651959,
				"element": "H" 
			},
			{
				"x": 3.006032914,
				"y": 0.8019456906,
				"z": -1.5133054983,
				"element": "H" 
			},
			{
				"x": 3.4090474811,
				"y": 2.442405368,
				"z": -1.167138791,
				"element": "H" 
			}
		],
		 "valence_orbital": [ 
			{
				"type": "occ",
				"energy": -0.34891,
				"method": "rhf"
			},
			{
				"type": "occ",
				"energy": -0.27492,
				"method": "rhf"
			},
			{
				"type": "occ",
				"energy": -0.26734,
				"method": "rhf"
			},
			{
				"type": "occ",
				"energy": -0.25173,
				"method": "rhf"
			},
			{
				"type": "occ",
				"energy": -0.24129,
				"method": "rhf"
			},
			{
				"type": "unocc",
				"energy": -0.04011,
				"method": "rhf"
			},
			{
				"type": "unocc",
				"energy": -0.005,
				"method": "rhf"
			},
			{
				"type": "unocc",
				"energy": 0.05091,
				"method": "rhf"
			},
			{
				"type": "unocc",
				"energy": 0.07782,
				"method": "rhf"
			},
			{
				"type": "unocc",
				"energy": 0.09911,
				"method": "rhf"
			}
		],
		"cosmo_sigma_profile": { 
			"-0.025": 0.0,
			"-0.024": 0.0,
			"-0.023": 0.0,
			"-0.022": 0.0,
			"-0.021": 0.0,
			"-0.02": 0.0,
			"-0.019": 0.0,
			"-0.018": 0.0,
			"-0.017": 0.0,
			"-0.016": 0.0,
			"-0.015": 0.0337168150211,
			"-0.014": 1.20590113525,
			"-0.013": 2.71577299511,
			"-0.012": 2.02824412803,
			"-0.011": 2.51557366349,
			"-0.01": 2.56914412287,
			"-0.009": 2.06547137872,
			"-0.008": 3.87508448529,
			"-0.007": 4.47682657401,
			"-0.006": 7.02516085052,
			"-0.005": 7.67556202749,
			"-0.004": 9.01044168196,
			"-0.003": 10.2328150287,
			"-0.002": 11.6288667217,
			"-0.001": 11.4787191705,
			"0.0": 18.5069910767,
			"0.001": 18.3728119352,
			"0.002": 13.1967765142,
			"0.003": 15.5806207011,
			"0.004": 16.2386062585,
			"0.005": 5.59844448889,
			"0.006": 2.03883058228,
			"0.007": 2.27258589942,
			"0.008": 2.31023371518,
			"0.009": 1.27420617708,
			"0.01": 1.45882989784,
			"0.011": 1.55449244094,
			"0.012": 2.15937065216,
			"0.013": 4.25024275795,
			"0.014": 2.43100375768,
			"0.015": 0.153544516318,
			"0.016": 0.0,
			"0.017": 0.0,
			"0.018": 0.0,
			"0.019": 0.0,
			"0.02": 0.0,
			"0.021": 0.0,
			"0.022": 0.0,
			"0.023": 0.0,
			"0.024": 0.0,
			"0.025": 0.0
		}
	}
}
