{
	 "smiles": "CC1=CC=C(F)C(=C1)C(O)=O", 
	 "Tm": 434.15, 
	 "num_atms": 18, 
	 "gaussian": { 
		 "optdone": 1, 
		 "sigma_profile": "yes", 
		 "theory": "DFT", 
		 "functional": "B3LYP", 
		 "basiset": "6-31G**", 
		 "properties": { 
			 "R2extent": 3517.3791, 
			 "electric_dipole_moment_norm": 2.07963772566, 
			 "electric_quadrupole_moment_norm": 2.67927228739, 
			 "total_energy": -559.373429772, 
			 "HOMO_LUMO_gap": 0.19496, 
			 "cosmo_polarized_energy": -9.17, 
			 "cosmo_cavitation_energy": 22.93, 
			 "cosmo_dispersion_energy": -16.86, 
			 "cosmo_repulsion_energy": 1.34, 
			 "cosmo_total_nonelectrostatic_energy": 7.41, 
			 "SMD_solvation_energy": 5.78 
		},
		"coords": [
			{
				"x": 0.2550920627,
				"y": 0.1723085835,
				"z": -1.0827686049,
				"element": "C" 
			},
			{
				"x": 0.5066715327,
				"y": -0.0736018245,
				"z": 0.3864909035,
				"element": "C" 
			},
			{
				"x": 0.9776343238,
				"y": -1.3183906954,
				"z": 0.8370686201,
				"element": "C" 
			},
			{
				"x": 1.2124873067,
				"y": -1.5549137933,
				"z": 2.187234896,
				"element": "C" 
			},
			{
				"x": 0.9777080308,
				"y": -0.5417441844,
				"z": 3.1129166683,
				"element": "C" 
			},
			{
				"x": 1.2183861716,
				"y": -0.8151224339,
				"z": 4.4053910076,
				"element": "F" 
			},
			{
				"x": 0.5083670451,
				"y": 0.7145245181,
				"z": 2.7104321647,
				"element": "C" 
			},
			{
				"x": 0.2816987293,
				"y": 0.9190092447,
				"z": 1.3375162929,
				"element": "C" 
			},
			{
				"x": 0.2252108151,
				"y": 1.8635209475,
				"z": 3.6141851055,
				"element": "C" 
			},
			{
				"x": 0.4586604008,
				"y": 1.6179329626,
				"z": 4.9218181468,
				"element": "O" 
			},
			{
				"x": -0.1830032476,
				"y": 2.9414770537,
				"z": 3.22443506,
				"element": "O" 
			},
			{
				"x": -0.1090032389,
				"y": 1.1877051774,
				"z": -1.258255436,
				"element": "H" 
			},
			{
				"x": 1.1693409046,
				"y": 0.0383315257,
				"z": -1.6721979705,
				"element": "H" 
			},
			{
				"x": -0.4909866237,
				"y": -0.5242079037,
				"z": -1.4820585311,
				"element": "H" 
			},
			{
				"x": 1.1632929455,
				"y": -2.1144933274,
				"z": 0.1202915111,
				"element": "H" 
			},
			{
				"x": 1.5759383656,
				"y": -2.5124425698,
				"z": 2.5442211271,
				"element": "H" 
			},
			{
				"x": -0.0819462487,
				"y": 1.8976631274,
				"z": 1.0413250324,
				"element": "H" 
			},
			{
				"x": 0.2329507246,
				"y": 2.4444435919,
				"z": 5.3809540064,
				"element": "H" 
			}
		],
		 "valence_orbital": [ 
			{
				"type": "occ",
				"energy": -0.34855,
				"method": "rhf"
			},
			{
				"type": "occ",
				"energy": -0.31706,
				"method": "rhf"
			},
			{
				"type": "occ",
				"energy": -0.27886,
				"method": "rhf"
			},
			{
				"type": "occ",
				"energy": -0.26793,
				"method": "rhf"
			},
			{
				"type": "occ",
				"energy": -0.24637,
				"method": "rhf"
			},
			{
				"type": "unocc",
				"energy": -0.05141,
				"method": "rhf"
			},
			{
				"type": "unocc",
				"energy": -0.00576,
				"method": "rhf"
			},
			{
				"type": "unocc",
				"energy": 0.0495,
				"method": "rhf"
			},
			{
				"type": "unocc",
				"energy": 0.08121,
				"method": "rhf"
			},
			{
				"type": "unocc",
				"energy": 0.08915,
				"method": "rhf"
			}
		],
		"cosmo_sigma_profile": { 
			"-0.025": 0.0,
			"-0.024": 0.0,
			"-0.023": 0.0,
			"-0.022": 0.0,
			"-0.021": 0.0,
			"-0.02": 0.0,
			"-0.019": 0.0207187263586,
			"-0.018": 0.743792135621,
			"-0.017": 1.0052517993,
			"-0.016": 0.592954999037,
			"-0.015": 1.12714821386,
			"-0.014": 0.701048715651,
			"-0.013": 0.650860369803,
			"-0.012": 0.274400441722,
			"-0.011": 0.627965194809,
			"-0.01": 1.17630111549,
			"-0.009": 0.494641245123,
			"-0.008": 1.12043975646,
			"-0.007": 3.74590389024,
			"-0.006": 6.03348047877,
			"-0.005": 9.81038818143,
			"-0.004": 11.8158121261,
			"-0.003": 12.9269066655,
			"-0.002": 14.7036584797,
			"-0.001": 17.1671809178,
			"0.0": 18.7075779845,
			"0.001": 14.5792870084,
			"0.002": 14.3055317299,
			"0.003": 14.3563484728,
			"0.004": 8.79983605127,
			"0.005": 4.45195300049,
			"0.006": 3.12299317369,
			"0.007": 2.7097936882,
			"0.008": 3.35323966697,
			"0.009": 4.02484466824,
			"0.01": 2.38005189754,
			"0.011": 3.62147146684,
			"0.012": 3.84347824567,
			"0.013": 0.0653365816694,
			"0.014": 0.0,
			"0.015": 0.0,
			"0.016": 0.0,
			"0.017": 0.0,
			"0.018": 0.0,
			"0.019": 0.0,
			"0.02": 0.0,
			"0.021": 0.0,
			"0.022": 0.0,
			"0.023": 0.0,
			"0.024": 0.0,
			"0.025": 0.0
		}
	}
}
