{
	 "smiles": "CC(=O)OC1=CC=C(OC(C)=O)C(=C1)C1=CC=CC=C1", 
	 "Tm": 341.15, 
	 "num_atms": 34, 
	 "gaussian": { 
		 "optdone": 1, 
		 "sigma_profile": "yes", 
		 "theory": "DFT", 
		 "functional": "B3LYP", 
		 "basiset": "6-31G**", 
		 "properties": { 
			 "R2extent": 6339.3886, 
			 "electric_dipole_moment_norm": 2.51454159838, 
			 "electric_quadrupole_moment_norm": 21.4981751026, 
			 "total_energy": -919.059826766, 
			 "HOMO_LUMO_gap": 0.19733, 
			 "cosmo_polarized_energy": -13.9, 
			 "cosmo_cavitation_energy": 39.67, 
			 "cosmo_dispersion_energy": -26.8, 
			 "cosmo_repulsion_energy": 2.1, 
			 "cosmo_total_nonelectrostatic_energy": 14.97, 
			 "SMD_solvation_energy": 9.11 
		},
		"coords": [
			{
				"x": 0.763446047,
				"y": -2.1705775987,
				"z": 4.8403975179,
				"element": "C" 
			},
			{
				"x": 0.7790425224,
				"y": -1.3683567125,
				"z": 3.5627782856,
				"element": "C" 
			},
			{
				"x": 1.7339565693,
				"y": -0.7975191896,
				"z": 3.0967791788,
				"element": "O" 
			},
			{
				"x": -0.4720579383,
				"y": -1.3819838973,
				"z": 3.0013204104,
				"element": "O" 
			},
			{
				"x": -0.7530591624,
				"y": -0.6912769367,
				"z": 1.8218222379,
				"element": "C" 
			},
			{
				"x": -1.9972627728,
				"y": -0.0660747415,
				"z": 1.7717265047,
				"element": "C" 
			},
			{
				"x": -2.3806407498,
				"y": 0.5821636385,
				"z": 0.6012918122,
				"element": "C" 
			},
			{
				"x": -1.5281017038,
				"y": 0.5984575859,
				"z": -0.4977829041,
				"element": "C" 
			},
			{
				"x": -1.9668056159,
				"y": 1.228580013,
				"z": -1.6667286388,
				"element": "O" 
			},
			{
				"x": -1.6754436524,
				"y": 2.5659222732,
				"z": -1.8205500551,
				"element": "C" 
			},
			{
				"x": -2.1358563129,
				"y": 3.0349866565,
				"z": -3.1770658471,
				"element": "C" 
			},
			{
				"x": -1.1238822146,
				"y": 3.2291907483,
				"z": -0.9807961954,
				"element": "O" 
			},
			{
				"x": -0.2732384087,
				"y": -0.0323071565,
				"z": -0.4664729236,
				"element": "C" 
			},
			{
				"x": 0.0980152862,
				"y": -0.6868227822,
				"z": 0.7193362382,
				"element": "C" 
			},
			{
				"x": 0.6672110345,
				"y": -0.0200473374,
				"z": -1.619247155,
				"element": "C" 
			},
			{
				"x": 2.0283133625,
				"y": 0.2527470143,
				"z": -1.4039512389,
				"element": "C" 
			},
			{
				"x": 2.9352984357,
				"y": 0.2383720341,
				"z": -2.4632871927,
				"element": "C" 
			},
			{
				"x": 2.4992644418,
				"y": -0.0511084424,
				"z": -3.7570970392,
				"element": "C" 
			},
			{
				"x": 1.1488475009,
				"y": -0.3259431126,
				"z": -3.9836054132,
				"element": "C" 
			},
			{
				"x": 0.2396491108,
				"y": -0.3098543755,
				"z": -2.9264170161,
				"element": "C" 
			},
			{
				"x": 0.0508442816,
				"y": -1.7353657712,
				"z": 5.5472604795,
				"element": "H" 
			},
			{
				"x": 1.7624137714,
				"y": -2.1762270471,
				"z": 5.2747256736,
				"element": "H" 
			},
			{
				"x": 0.4362156197,
				"y": -3.1943209915,
				"z": 4.6365519574,
				"element": "H" 
			},
			{
				"x": -2.6464634686,
				"y": -0.0949214774,
				"z": 2.6398762304,
				"element": "H" 
			},
			{
				"x": -3.3393254945,
				"y": 1.0847871351,
				"z": 0.5324925279,
				"element": "H" 
			},
			{
				"x": -2.0498079857,
				"y": 4.1195517237,
				"z": -3.2339907867,
				"element": "H" 
			},
			{
				"x": -3.1664780177,
				"y": 2.7223796643,
				"z": -3.3637032857,
				"element": "H" 
			},
			{
				"x": -1.5068749055,
				"y": 2.5766051994,
				"z": -3.9469986778,
				"element": "H" 
			},
			{
				"x": 1.0521596107,
				"y": -1.1926459619,
				"z": 0.7689622749,
				"element": "H" 
			},
			{
				"x": 2.3694668094,
				"y": 0.4953881648,
				"z": -0.4018593155,
				"element": "H" 
			},
			{
				"x": 3.982353631,
				"y": 0.4594362625,
				"z": -2.2769004409,
				"element": "H" 
			},
			{
				"x": 3.2052434154,
				"y": -0.0624732972,
				"z": -4.5825598914,
				"element": "H" 
			},
			{
				"x": 0.8023838204,
				"y": -0.5620122002,
				"z": -4.9860085927,
				"element": "H" 
			},
			{
				"x": -0.805526867,
				"y": -0.5346290844,
				"z": -3.1088987194,
				"element": "H" 
			}
		],
		 "valence_orbital": [ 
			{
				"type": "occ",
				"energy": -0.27494,
				"method": "rhf"
			},
			{
				"type": "occ",
				"energy": -0.27231,
				"method": "rhf"
			},
			{
				"type": "occ",
				"energy": -0.24976,
				"method": "rhf"
			},
			{
				"type": "occ",
				"energy": -0.2444,
				"method": "rhf"
			},
			{
				"type": "occ",
				"energy": -0.22738,
				"method": "rhf"
			},
			{
				"type": "unocc",
				"energy": -0.03005,
				"method": "rhf"
			},
			{
				"type": "unocc",
				"energy": -0.01434,
				"method": "rhf"
			},
			{
				"type": "unocc",
				"energy": -0.00067,
				"method": "rhf"
			},
			{
				"type": "unocc",
				"energy": 0.00907,
				"method": "rhf"
			},
			{
				"type": "unocc",
				"energy": 0.01016,
				"method": "rhf"
			}
		],
		"cosmo_sigma_profile": { 
			"-0.025": 0.0,
			"-0.024": 0.0,
			"-0.023": 0.0,
			"-0.022": 0.0,
			"-0.021": 0.0,
			"-0.02": 0.0,
			"-0.019": 0.0,
			"-0.018": 0.0,
			"-0.017": 0.0,
			"-0.016": 0.0,
			"-0.015": 0.0,
			"-0.014": 0.0,
			"-0.013": 0.0,
			"-0.012": 0.0,
			"-0.011": 0.0,
			"-0.01": 0.0,
			"-0.009": 0.0,
			"-0.008": 0.658972855469,
			"-0.007": 7.35890759424,
			"-0.006": 19.3241600033,
			"-0.005": 28.7915252205,
			"-0.004": 30.5469810203,
			"-0.003": 30.9728872754,
			"-0.002": 29.2177884281,
			"-0.001": 21.2724279377,
			"0.0": 16.8732677737,
			"0.001": 19.8793722681,
			"0.002": 22.9087262733,
			"0.003": 20.9106029777,
			"0.004": 15.2280105356,
			"0.005": 14.7578682248,
			"0.006": 7.14539776732,
			"0.007": 4.71042717952,
			"0.008": 4.1705828994,
			"0.009": 4.00494846654,
			"0.01": 5.74178654268,
			"0.011": 8.25216853264,
			"0.012": 4.35113286922,
			"0.013": 0.116963978428,
			"0.014": 0.0,
			"0.015": 0.0,
			"0.016": 0.0,
			"0.017": 0.0,
			"0.018": 0.0,
			"0.019": 0.0,
			"0.02": 0.0,
			"0.021": 0.0,
			"0.022": 0.0,
			"0.023": 0.0,
			"0.024": 0.0,
			"0.025": 0.0
		}
	}
}
