{
	 "smiles": "NCCCP(O)(O)=O", 
	 "Tm": 565.15, 
	 "num_atms": 18, 
	 "gaussian": { 
		 "optdone": 1, 
		 "sigma_profile": "yes", 
		 "theory": "DFT", 
		 "functional": "B3LYP", 
		 "basiset": "6-31G**", 
		 "properties": { 
			 "R2extent": 1616.9008, 
			 "electric_dipole_moment_norm": 5.08891157223, 
			 "electric_quadrupole_moment_norm": 14.866807473, 
			 "total_energy": -742.205147135, 
			 "HOMO_LUMO_gap": 0.30872, 
			 "cosmo_polarized_energy": -20.3, 
			 "cosmo_cavitation_energy": 21.48, 
			 "cosmo_dispersion_energy": -16.63, 
			 "cosmo_repulsion_energy": 1.38, 
			 "cosmo_total_nonelectrostatic_energy": 6.22, 
			 "SMD_solvation_energy": 5.69 
		},
		"coords": [
			{
				"x": 0.2759080666,
				"y": 1.2831283705,
				"z": 1.3977654766,
				"element": "N" 
			},
			{
				"x": 0.6507431732,
				"y": -0.0302466683,
				"z": 1.9697656575,
				"element": "C" 
			},
			{
				"x": 0.0464752205,
				"y": -1.2030129775,
				"z": 1.1829859255,
				"element": "C" 
			},
			{
				"x": 0.1823939694,
				"y": -1.1453463538,
				"z": -0.3559303375,
				"element": "C" 
			},
			{
				"x": 1.8181890048,
				"y": -0.5817337097,
				"z": -0.9568797449,
				"element": "P" 
			},
			{
				"x": 1.7275407864,
				"y": 1.0137202951,
				"z": -0.8825335843,
				"element": "O" 
			},
			{
				"x": 1.7544331022,
				"y": -0.8483186629,
				"z": -2.5617969048,
				"element": "O" 
			},
			{
				"x": 2.9754911929,
				"y": -1.2509826077,
				"z": -0.2989158203,
				"element": "O" 
			},
			{
				"x": -0.7365369155,
				"y": 1.3883941106,
				"z": 1.3681636846,
				"element": "H" 
			},
			{
				"x": 0.6297403464,
				"y": 2.0344111624,
				"z": 1.9857898821,
				"element": "H" 
			},
			{
				"x": 0.3565903032,
				"y": -0.1256730134,
				"z": 3.0246647049,
				"element": "H" 
			},
			{
				"x": 1.7426338941,
				"y": -0.0981099578,
				"z": 1.9288085414,
				"element": "H" 
			},
			{
				"x": 0.5332471185,
				"y": -2.1118165295,
				"z": 1.5505848995,
				"element": "H" 
			},
			{
				"x": -1.0191920873,
				"y": -1.3003290843,
				"z": 1.4290609542,
				"element": "H" 
			},
			{
				"x": 0.0049312482,
				"y": -2.1425358699,
				"z": -0.7702864367,
				"element": "H" 
			},
			{
				"x": -0.5714945795,
				"y": -0.4851531348,
				"z": -0.7978340151,
				"element": "H" 
			},
			{
				"x": 1.1668022767,
				"y": 1.2870260845,
				"z": -0.0924109646,
				"element": "H" 
			},
			{
				"x": 2.5207038792,
				"y": -1.3821214534,
				"z": -2.8150019181,
				"element": "H" 
			}
		],
		 "valence_orbital": [ 
			{
				"type": "occ",
				"energy": -0.33253,
				"method": "rhf"
			},
			{
				"type": "occ",
				"energy": -0.30236,
				"method": "rhf"
			},
			{
				"type": "occ",
				"energy": -0.28375,
				"method": "rhf"
			},
			{
				"type": "occ",
				"energy": -0.26462,
				"method": "rhf"
			},
			{
				"type": "occ",
				"energy": -0.26283,
				"method": "rhf"
			},
			{
				"type": "unocc",
				"energy": 0.04589,
				"method": "rhf"
			},
			{
				"type": "unocc",
				"energy": 0.07578,
				"method": "rhf"
			},
			{
				"type": "unocc",
				"energy": 0.09391,
				"method": "rhf"
			},
			{
				"type": "unocc",
				"energy": 0.10567,
				"method": "rhf"
			},
			{
				"type": "unocc",
				"energy": 0.1241,
				"method": "rhf"
			}
		],
		"cosmo_sigma_profile": { 
			"-0.025": 0.0,
			"-0.024": 0.0,
			"-0.023": 0.0,
			"-0.022": 0.0,
			"-0.021": 0.0,
			"-0.02": 0.0,
			"-0.019": 0.00505959641401,
			"-0.018": 0.787172697624,
			"-0.017": 0.953508145508,
			"-0.016": 0.695200589908,
			"-0.015": 0.606328519123,
			"-0.014": 0.664562839711,
			"-0.013": 0.788328452975,
			"-0.012": 2.11534589081,
			"-0.011": 3.56753002321,
			"-0.01": 3.18450346997,
			"-0.009": 4.51953565718,
			"-0.008": 4.34686864168,
			"-0.007": 3.15931192188,
			"-0.006": 6.97819755846,
			"-0.005": 10.0835899262,
			"-0.004": 16.0772799849,
			"-0.003": 17.7343681,
			"-0.002": 15.3001833446,
			"-0.001": 10.0559423595,
			"0.0": 5.49777760023,
			"0.001": 3.99365711659,
			"0.002": 3.24839394577,
			"0.003": 2.58027614432,
			"0.004": 2.75151107606,
			"0.005": 3.08336200872,
			"0.006": 2.93983629795,
			"0.007": 2.93172688437,
			"0.008": 3.39953900195,
			"0.009": 3.45502762703,
			"0.01": 3.94723924991,
			"0.011": 4.61549365438,
			"0.012": 5.10227740685,
			"0.013": 3.66849695322,
			"0.014": 1.50490531734,
			"0.015": 5.02760964902,
			"0.016": 4.39223564733,
			"0.017": 0.398915115339,
			"0.018": 0.0,
			"0.019": 0.0,
			"0.02": 0.0,
			"0.021": 0.0,
			"0.022": 0.0,
			"0.023": 0.0,
			"0.024": 0.0,
			"0.025": 0.0
		}
	}
}
