{
	 "smiles": "OC(=O)C12CC3CC(CC(Br)(C3)C1)C2", 
	 "Tm": 421.15, 
	 "num_atms": 29, 
	 "gaussian": { 
		 "optdone": 1, 
		 "sigma_profile": "yes", 
		 "theory": "DFT", 
		 "functional": "B3LYP", 
		 "basiset": "6-31G**", 
		 "properties": { 
			 "R2extent": 4504.4771, 
			 "electric_dipole_moment_norm": 2.2311981938, 
			 "electric_quadrupole_moment_norm": 12.3211944295, 
			 "total_energy": -3150.11680572, 
			 "HOMO_LUMO_gap": 0.2545, 
			 "cosmo_polarized_energy": -10.29, 
			 "cosmo_cavitation_energy": 29.79, 
			 "cosmo_dispersion_energy": -22.39, 
			 "cosmo_repulsion_energy": 1.72, 
			 "cosmo_total_nonelectrostatic_energy": 9.13, 
			 "SMD_solvation_energy": 3.77 
		},
		"coords": [
			{
				"x": -1.999402328,
				"y": -0.3589848788,
				"z": 1.9645510463,
				"element": "O" 
			},
			{
				"x": -1.6033479299,
				"y": 0.5137136212,
				"z": 1.0029778468,
				"element": "C" 
			},
			{
				"x": -2.2992480543,
				"y": 1.4431014559,
				"z": 0.6547987257,
				"element": "O" 
			},
			{
				"x": -0.2270581861,
				"y": 0.1742891782,
				"z": 0.4478446381,
				"element": "C" 
			},
			{
				"x": -0.2350680527,
				"y": -1.2501358261,
				"z": -0.1734365513,
				"element": "C" 
			},
			{
				"x": 1.1644994211,
				"y": -1.5801768635,
				"z": -0.7289413507,
				"element": "C" 
			},
			{
				"x": 1.554733265,
				"y": -0.5506040669,
				"z": -1.8077259357,
				"element": "C" 
			},
			{
				"x": 1.5719373776,
				"y": 0.8590266346,
				"z": -1.1834747341,
				"element": "C" 
			},
			{
				"x": 2.6086794836,
				"y": 0.9024683776,
				"z": -0.0346752354,
				"element": "C" 
			},
			{
				"x": 2.2017056478,
				"y": -0.1300476272,
				"z": 1.0222479218,
				"element": "C" 
			},
			{
				"x": 3.5393702122,
				"y": -0.0747608337,
				"z": 2.5275557648,
				"element": "Br" 
			},
			{
				"x": 2.1988422804,
				"y": -1.540544571,
				"z": 0.4220683041,
				"element": "C" 
			},
			{
				"x": 0.8226033077,
				"y": 0.2071210706,
				"z": 1.6018802069,
				"element": "C" 
			},
			{
				"x": 0.1742602785,
				"y": 1.2012421474,
				"z": -0.6324417278,
				"element": "C" 
			},
			{
				"x": -2.8778658929,
				"y": -0.0593408041,
				"z": 2.2530450019,
				"element": "H" 
			},
			{
				"x": -0.9799711202,
				"y": -1.2959741787,
				"z": -0.9777827527,
				"element": "H" 
			},
			{
				"x": -0.5308288082,
				"y": -1.9831457667,
				"z": 0.5843232026,
				"element": "H" 
			},
			{
				"x": 1.1526877454,
				"y": -2.5885897392,
				"z": -1.1600428251,
				"element": "H" 
			},
			{
				"x": 2.5409201337,
				"y": -0.7941638367,
				"z": -2.2226999666,
				"element": "H" 
			},
			{
				"x": 0.8396354475,
				"y": -0.585925109,
				"z": -2.6392178936,
				"element": "H" 
			},
			{
				"x": 1.8539268011,
				"y": 1.5992432546,
				"z": -1.9417161835,
				"element": "H" 
			},
			{
				"x": 3.6114580763,
				"y": 0.6756035306,
				"z": -0.412280459,
				"element": "H" 
			},
			{
				"x": 2.6453032829,
				"y": 1.9019544716,
				"z": 0.4118552821,
				"element": "H" 
			},
			{
				"x": 3.1976474791,
				"y": -1.7897935075,
				"z": 0.0482370153,
				"element": "H" 
			},
			{
				"x": 1.9445850628,
				"y": -2.2758785091,
				"z": 1.192989563,
				"element": "H" 
			},
			{
				"x": 0.5498733427,
				"y": -0.5116255657,
				"z": 2.3790143585,
				"element": "H" 
			},
			{
				"x": 0.8428695771,
				"y": 1.2009793415,
				"z": 2.0619128583,
				"element": "H" 
			},
			{
				"x": -0.5688593414,
				"y": 1.1971461357,
				"z": -1.4371316998,
				"element": "H" 
			},
			{
				"x": 0.1626114912,
				"y": 2.2096024644,
				"z": -0.2045344207,
				"element": "H" 
			}
		],
		 "valence_orbital": [ 
			{
				"type": "occ",
				"energy": -0.29925,
				"method": "rhf"
			},
			{
				"type": "occ",
				"energy": -0.29595,
				"method": "rhf"
			},
			{
				"type": "occ",
				"energy": -0.27571,
				"method": "rhf"
			},
			{
				"type": "occ",
				"energy": -0.26508,
				"method": "rhf"
			},
			{
				"type": "occ",
				"energy": -0.26323,
				"method": "rhf"
			},
			{
				"type": "unocc",
				"energy": -0.00873,
				"method": "rhf"
			},
			{
				"type": "unocc",
				"energy": 0.00922,
				"method": "rhf"
			},
			{
				"type": "unocc",
				"energy": 0.06621,
				"method": "rhf"
			},
			{
				"type": "unocc",
				"energy": 0.08002,
				"method": "rhf"
			},
			{
				"type": "unocc",
				"energy": 0.11531,
				"method": "rhf"
			}
		],
		"cosmo_sigma_profile": { 
			"-0.025": 0.0,
			"-0.024": 0.0,
			"-0.023": 0.0,
			"-0.022": 0.0,
			"-0.021": 0.0,
			"-0.02": 0.0,
			"-0.019": 0.00757772263879,
			"-0.018": 0.640981768568,
			"-0.017": 0.660840813253,
			"-0.016": 1.02835589814,
			"-0.015": 0.969100216327,
			"-0.014": 1.07621056525,
			"-0.013": 0.212920136823,
			"-0.012": 0.30790314095,
			"-0.011": 0.791475030661,
			"-0.01": 1.1010226861,
			"-0.009": 0.332544285252,
			"-0.008": 0.457576006577,
			"-0.007": 0.985689927002,
			"-0.006": 1.48015833951,
			"-0.005": 4.16981554866,
			"-0.004": 19.339274696,
			"-0.003": 36.2331467743,
			"-0.002": 34.0463323645,
			"-0.001": 28.0199237426,
			"0.0": 20.2419188776,
			"0.001": 11.3339904277,
			"0.002": 8.7058619579,
			"0.003": 7.94928324269,
			"0.004": 8.27825497821,
			"0.005": 7.555062787,
			"0.006": 11.9377907486,
			"0.007": 10.5595751545,
			"0.008": 2.18235431938,
			"0.009": 1.93584608334,
			"0.01": 2.21175953774,
			"0.011": 3.30611975334,
			"0.012": 4.49013501605,
			"0.013": 0.431021797827,
			"0.014": 0.0,
			"0.015": 0.0,
			"0.016": 0.0,
			"0.017": 0.0,
			"0.018": 0.0,
			"0.019": 0.0,
			"0.02": 0.0,
			"0.021": 0.0,
			"0.022": 0.0,
			"0.023": 0.0,
			"0.024": 0.0,
			"0.025": 0.0
		}
	}
}
