{
	 "smiles": "OC(=O)C1=C(SCC2=CC(Br)=CC=C2)N=CC=C1", 
	 "Tm": 460.15, 
	 "num_atms": 28, 
	 "gaussian": { 
		 "optdone": 1, 
		 "sigma_profile": "yes", 
		 "theory": "DFT", 
		 "functional": "B3LYP", 
		 "basiset": "6-31G**", 
		 "properties": { 
			 "R2extent": 7462.7896, 
			 "electric_dipole_moment_norm": 3.86546838171, 
			 "electric_quadrupole_moment_norm": 17.5418908439, 
			 "total_energy": -3676.19566127, 
			 "HOMO_LUMO_gap": 0.16916, 
			 "cosmo_polarized_energy": -18.15, 
			 "cosmo_cavitation_energy": 36.0, 
			 "cosmo_dispersion_energy": -25.61, 
			 "cosmo_repulsion_energy": 1.94, 
			 "cosmo_total_nonelectrostatic_energy": 12.33, 
			 "SMD_solvation_energy": 3.89 
		},
		"coords": [
			{
				"x": -1.612698301,
				"y": 0.502458026,
				"z": -1.7005267309,
				"element": "O" 
			},
			{
				"x": -0.4665464109,
				"y": 1.0913634416,
				"z": -2.1425848285,
				"element": "C" 
			},
			{
				"x": -0.4722927171,
				"y": 2.2642599511,
				"z": -2.4353136382,
				"element": "O" 
			},
			{
				"x": 0.7107003786,
				"y": 0.1829683383,
				"z": -2.2992443827,
				"element": "C" 
			},
			{
				"x": 2.0581024313,
				"y": 0.5652636661,
				"z": -2.0780146448,
				"element": "C" 
			},
			{
				"x": 2.7071709555,
				"y": 2.0592441405,
				"z": -1.3524029579,
				"element": "S" 
			},
			{
				"x": 1.449731963,
				"y": 2.7911520084,
				"z": -0.2237965065,
				"element": "C" 
			},
			{
				"x": 0.8986211891,
				"y": 1.8834557645,
				"z": 0.8556517179,
				"element": "C" 
			},
			{
				"x": 1.7501227668,
				"y": 1.1128043147,
				"z": 1.6615663692,
				"element": "C" 
			},
			{
				"x": 1.213688181,
				"y": 0.3315605197,
				"z": 2.6796552255,
				"element": "C" 
			},
			{
				"x": 2.3865190218,
				"y": -0.713777924,
				"z": 3.7724519244,
				"element": "Br" 
			},
			{
				"x": -0.1594587201,
				"y": 0.2906352141,
				"z": 2.9251520142,
				"element": "C" 
			},
			{
				"x": -1.0026032032,
				"y": 1.0566460768,
				"z": 2.121584169,
				"element": "C" 
			},
			{
				"x": -0.4812127468,
				"y": 1.846119603,
				"z": 1.0937803177,
				"element": "C" 
			},
			{
				"x": 3.0808476803,
				"y": -0.2243788498,
				"z": -2.4365086977,
				"element": "N" 
			},
			{
				"x": 2.8379477794,
				"y": -1.4102631554,
				"z": -2.9911889809,
				"element": "C" 
			},
			{
				"x": 1.5515651034,
				"y": -1.9147146085,
				"z": -3.1865779202,
				"element": "C" 
			},
			{
				"x": 0.4864665395,
				"y": -1.0955160461,
				"z": -2.8379412842,
				"element": "C" 
			},
			{
				"x": -1.4102742114,
				"y": -0.3596962341,
				"z": -1.3098973369,
				"element": "H" 
			},
			{
				"x": 0.6467213885,
				"y": 3.240062999,
				"z": -0.8071341029,
				"element": "H" 
			},
			{
				"x": 2.0346092192,
				"y": 3.6017586658,
				"z": 0.2270068319,
				"element": "H" 
			},
			{
				"x": 2.820040665,
				"y": 1.1195073446,
				"z": 1.4856060161,
				"element": "H" 
			},
			{
				"x": -0.5546217998,
				"y": -0.3253934264,
				"z": 3.7247056371,
				"element": "H" 
			},
			{
				"x": -2.074102774,
				"y": 1.0377685197,
				"z": 2.2984120385,
				"element": "H" 
			},
			{
				"x": -1.1481531843,
				"y": 2.4337068729,
				"z": 0.4706254909,
				"element": "H" 
			},
			{
				"x": 3.7132987819,
				"y": -1.9867751079,
				"z": -3.2842994207,
				"element": "H" 
			},
			{
				"x": 1.3943271018,
				"y": -2.8974250658,
				"z": -3.6171477017,
				"element": "H" 
			},
			{
				"x": -0.5322170775,
				"y": -1.4194950489,
				"z": -3.0337186178,
				"element": "H" 
			}
		],
		 "valence_orbital": [ 
			{
				"type": "occ",
				"energy": -0.28512,
				"method": "rhf"
			},
			{
				"type": "occ",
				"energy": -0.27331,
				"method": "rhf"
			},
			{
				"type": "occ",
				"energy": -0.26291,
				"method": "rhf"
			},
			{
				"type": "occ",
				"energy": -0.24653,
				"method": "rhf"
			},
			{
				"type": "occ",
				"energy": -0.23261,
				"method": "rhf"
			},
			{
				"type": "unocc",
				"energy": -0.06345,
				"method": "rhf"
			},
			{
				"type": "unocc",
				"energy": -0.04502,
				"method": "rhf"
			},
			{
				"type": "unocc",
				"energy": -0.0251,
				"method": "rhf"
			},
			{
				"type": "unocc",
				"energy": -0.01875,
				"method": "rhf"
			},
			{
				"type": "unocc",
				"energy": 0.00485,
				"method": "rhf"
			}
		],
		"cosmo_sigma_profile": { 
			"-0.025": 0.0,
			"-0.024": 0.0,
			"-0.023": 0.0,
			"-0.022": 0.0,
			"-0.021": 0.0,
			"-0.02": 0.0,
			"-0.019": 0.317126432115,
			"-0.018": 0.868231307948,
			"-0.017": 0.500648992413,
			"-0.016": 1.12173804784,
			"-0.015": 0.863136201394,
			"-0.014": 0.69741111532,
			"-0.013": 1.13745451903,
			"-0.012": 1.28906471985,
			"-0.011": 0.800706810306,
			"-0.01": 1.29677087874,
			"-0.009": 1.86339024664,
			"-0.008": 7.04733803761,
			"-0.007": 13.2819022197,
			"-0.006": 15.2419491502,
			"-0.005": 16.917223096,
			"-0.004": 16.7674323847,
			"-0.003": 16.1688069396,
			"-0.002": 15.6142279085,
			"-0.001": 17.6192785713,
			"0.0": 23.3156717167,
			"0.001": 25.6316429359,
			"0.002": 21.6402753335,
			"0.003": 20.8395708492,
			"0.004": 20.6998525851,
			"0.005": 13.7866750798,
			"0.006": 6.38494869188,
			"0.007": 6.48225961285,
			"0.008": 5.27016669507,
			"0.009": 4.33876674439,
			"0.01": 6.27824300343,
			"0.011": 5.34602402139,
			"0.012": 2.50691946312,
			"0.013": 1.04422375415,
			"0.014": 0.718622865574,
			"0.015": 0.192109188899,
			"0.016": 0.0,
			"0.017": 0.0,
			"0.018": 0.0,
			"0.019": 0.0,
			"0.02": 0.0,
			"0.021": 0.0,
			"0.022": 0.0,
			"0.023": 0.0,
			"0.024": 0.0,
			"0.025": 0.0
		}
	}
}
