{
	 "smiles": "COC1=CC=CNC1=O", 
	 "Tm": 388.15, 
	 "num_atms": 16, 
	 "gaussian": { 
		 "optdone": 1, 
		 "sigma_profile": "yes", 
		 "theory": "DFT", 
		 "functional": "B3LYP", 
		 "basiset": "6-31G**", 
		 "properties": { 
			 "R2extent": 1458.776, 
			 "electric_dipole_moment_norm": 4.21559449426, 
			 "electric_quadrupole_moment_norm": 14.6097677274, 
			 "total_energy": -438.040639057, 
			 "HOMO_LUMO_gap": 0.17619, 
			 "cosmo_polarized_energy": -16.46, 
			 "cosmo_cavitation_energy": 20.03, 
			 "cosmo_dispersion_energy": -15.16, 
			 "cosmo_repulsion_energy": 1.25, 
			 "cosmo_total_nonelectrostatic_energy": 6.11, 
			 "SMD_solvation_energy": 5.43 
		},
		"coords": [
			{
				"x": 2.2565583031,
				"y": 1.4765474267,
				"z": 0.1808931205,
				"element": "C" 
			},
			{
				"x": 0.84305583,
				"y": 1.5715978109,
				"z": 0.2313302018,
				"element": "O" 
			},
			{
				"x": 0.1708924373,
				"y": 0.5937827786,
				"z": 0.8819601414,
				"element": "C" 
			},
			{
				"x": 0.7195498902,
				"y": -0.4958068202,
				"z": 1.5069056802,
				"element": "C" 
			},
			{
				"x": -0.1086813826,
				"y": -1.4607181082,
				"z": 2.161950183,
				"element": "C" 
			},
			{
				"x": -1.4561071957,
				"y": -1.2865379286,
				"z": 2.1597690189,
				"element": "C" 
			},
			{
				"x": -1.9957440771,
				"y": -0.19133419,
				"z": 1.5306215101,
				"element": "N" 
			},
			{
				"x": -1.285710757,
				"y": 0.811324783,
				"z": 0.8608497339,
				"element": "C" 
			},
			{
				"x": -1.864673737,
				"y": 1.752193909,
				"z": 0.3308859212,
				"element": "O" 
			},
			{
				"x": 2.5977697222,
				"y": 2.3479109339,
				"z": -0.3791570901,
				"element": "H" 
			},
			{
				"x": 2.6972846139,
				"y": 1.4945048806,
				"z": 1.1866001016,
				"element": "H" 
			},
			{
				"x": 2.5803741283,
				"y": 0.56255315,
				"z": -0.3346332425,
				"element": "H" 
			},
			{
				"x": 1.7939398454,
				"y": -0.6413937572,
				"z": 1.513134019,
				"element": "H" 
			},
			{
				"x": 0.3313442837,
				"y": -2.3192530446,
				"z": 2.6538571838,
				"element": "H" 
			},
			{
				"x": -2.1576118973,
				"y": -1.9650524385,
				"z": 2.6299738815,
				"element": "H" 
			},
			{
				"x": -2.9977400075,
				"y": -0.0484193853,
				"z": 1.5210596356,
				"element": "H" 
			}
		],
		 "valence_orbital": [ 
			{
				"type": "occ",
				"energy": -0.33597,
				"method": "rhf"
			},
			{
				"type": "occ",
				"energy": -0.33236,
				"method": "rhf"
			},
			{
				"type": "occ",
				"energy": -0.27342,
				"method": "rhf"
			},
			{
				"type": "occ",
				"energy": -0.24525,
				"method": "rhf"
			},
			{
				"type": "occ",
				"energy": -0.19903,
				"method": "rhf"
			},
			{
				"type": "unocc",
				"energy": -0.02284,
				"method": "rhf"
			},
			{
				"type": "unocc",
				"energy": 0.01965,
				"method": "rhf"
			},
			{
				"type": "unocc",
				"energy": 0.07088,
				"method": "rhf"
			},
			{
				"type": "unocc",
				"energy": 0.09967,
				"method": "rhf"
			},
			{
				"type": "unocc",
				"energy": 0.11563,
				"method": "rhf"
			}
		],
		"cosmo_sigma_profile": { 
			"-0.025": 0.0,
			"-0.024": 0.0,
			"-0.023": 0.0,
			"-0.022": 0.0,
			"-0.021": 0.0,
			"-0.02": 0.0,
			"-0.019": 0.0,
			"-0.018": 0.0,
			"-0.017": 0.0,
			"-0.016": 0.539651301124,
			"-0.015": 1.6390368973,
			"-0.014": 1.18831139724,
			"-0.013": 0.942099201392,
			"-0.012": 1.14985347281,
			"-0.011": 0.92208266331,
			"-0.01": 1.2470895746,
			"-0.009": 2.53221814679,
			"-0.008": 2.7592702117,
			"-0.007": 5.39684525833,
			"-0.006": 11.9930051707,
			"-0.005": 14.4855962545,
			"-0.004": 12.9224023332,
			"-0.003": 12.0191762315,
			"-0.002": 7.11187761475,
			"-0.001": 7.94495344706,
			"0.0": 8.67271980092,
			"0.001": 11.2217409288,
			"0.002": 8.86661900782,
			"0.003": 7.57806864335,
			"0.004": 6.73685984381,
			"0.005": 3.4139289914,
			"0.006": 1.9115882741,
			"0.007": 1.93644427853,
			"0.008": 1.45728824145,
			"0.009": 1.6768689951,
			"0.01": 2.1731431023,
			"0.011": 1.17426460937,
			"0.012": 2.3186146344,
			"0.013": 2.23794458059,
			"0.014": 6.69830999911,
			"0.015": 4.08836710254,
			"0.016": 1.899796197,
			"0.017": 0.588874151248,
			"0.018": 0.0,
			"0.019": 0.0,
			"0.02": 0.0,
			"0.021": 0.0,
			"0.022": 0.0,
			"0.023": 0.0,
			"0.024": 0.0,
			"0.025": 0.0
		}
	}
}
