{
	 "smiles": "OC(=O)C1=CN(N=C1)C1=C(Cl)C=CC=C1", 
	 "Tm": 444.15, 
	 "num_atms": 22, 
	 "gaussian": { 
		 "optdone": 1, 
		 "sigma_profile": "yes", 
		 "theory": "DFT", 
		 "functional": "B3LYP", 
		 "basiset": "6-31G**", 
		 "properties": { 
			 "R2extent": 4831.0779, 
			 "electric_dipole_moment_norm": 5.02151355669, 
			 "electric_quadrupole_moment_norm": 12.9367331761, 
			 "total_energy": -1105.41328173, 
			 "HOMO_LUMO_gap": 0.21196, 
			 "cosmo_polarized_energy": -14.97, 
			 "cosmo_cavitation_energy": 29.74, 
			 "cosmo_dispersion_energy": -21.33, 
			 "cosmo_repulsion_energy": 1.67, 
			 "cosmo_total_nonelectrostatic_energy": 10.08, 
			 "SMD_solvation_energy": 5.92 
		},
		"coords": [
			{
				"x": 3.5515937909,
				"y": -0.4777788372,
				"z": -0.3109573957,
				"element": "O" 
			},
			{
				"x": 3.5089608749,
				"y": 0.6699762841,
				"z": 0.4193275098,
				"element": "C" 
			},
			{
				"x": 4.5091813187,
				"y": 1.1931304669,
				"z": 0.8698100046,
				"element": "O" 
			},
			{
				"x": 2.146987412,
				"y": 1.1761075614,
				"z": 0.5843243262,
				"element": "C" 
			},
			{
				"x": 0.9575538224,
				"y": 0.645959424,
				"z": 0.1108649111,
				"element": "C" 
			},
			{
				"x": -0.0303290824,
				"y": 1.4746076309,
				"z": 0.5352022657,
				"element": "N" 
			},
			{
				"x": 0.4495305829,
				"y": 2.5318598759,
				"z": 1.2588965501,
				"element": "N" 
			},
			{
				"x": 1.7590850114,
				"y": 2.3465255207,
				"z": 1.2887698094,
				"element": "C" 
			},
			{
				"x": -1.4186685915,
				"y": 1.3644891852,
				"z": 0.2420404137,
				"element": "C" 
			},
			{
				"x": -2.3782174421,
				"y": 1.2126343862,
				"z": 1.2552888656,
				"element": "C" 
			},
			{
				"x": -1.911765618,
				"y": 1.1021809093,
				"z": 2.9339598663,
				"element": "Cl" 
			},
			{
				"x": -3.7304202358,
				"y": 1.1120143771,
				"z": 0.9246269705,
				"element": "C" 
			},
			{
				"x": -4.1283378888,
				"y": 1.143626231,
				"z": -0.4114071172,
				"element": "C" 
			},
			{
				"x": -3.1784408551,
				"y": 1.2780153006,
				"z": -1.4243304946,
				"element": "C" 
			},
			{
				"x": -1.8303224365,
				"y": 1.3957472837,
				"z": -1.0940442908,
				"element": "C" 
			},
			{
				"x": 4.4900575015,
				"y": -0.7243919473,
				"z": -0.3563161173,
				"element": "H" 
			},
			{
				"x": 0.7532591304,
				"y": -0.2448533452,
				"z": -0.4631136285,
				"element": "H" 
			},
			{
				"x": 2.4021577998,
				"y": 3.0463554646,
				"z": 1.8039735204,
				"element": "H" 
			},
			{
				"x": -4.4595510306,
				"y": 0.9972894336,
				"z": 1.7188137358,
				"element": "H" 
			},
			{
				"x": -5.1827387603,
				"y": 1.0606534574,
				"z": -0.6559834857,
				"element": "H" 
			},
			{
				"x": -3.4837182101,
				"y": 1.3053674197,
				"z": -2.4652900075,
				"element": "H" 
			},
			{
				"x": -1.0779570938,
				"y": 1.5305839172,
				"z": -1.8644562118,
				"element": "H" 
			}
		],
		 "valence_orbital": [ 
			{
				"type": "occ",
				"energy": -0.29132,
				"method": "rhf"
			},
			{
				"type": "occ",
				"energy": -0.27492,
				"method": "rhf"
			},
			{
				"type": "occ",
				"energy": -0.26837,
				"method": "rhf"
			},
			{
				"type": "occ",
				"energy": -0.2638,
				"method": "rhf"
			},
			{
				"type": "occ",
				"energy": -0.25337,
				"method": "rhf"
			},
			{
				"type": "unocc",
				"energy": -0.04141,
				"method": "rhf"
			},
			{
				"type": "unocc",
				"energy": -0.03074,
				"method": "rhf"
			},
			{
				"type": "unocc",
				"energy": -0.02048,
				"method": "rhf"
			},
			{
				"type": "unocc",
				"energy": 0.01377,
				"method": "rhf"
			},
			{
				"type": "unocc",
				"energy": 0.021,
				"method": "rhf"
			}
		],
		"cosmo_sigma_profile": { 
			"-0.025": 0.0,
			"-0.024": 0.0,
			"-0.023": 0.0,
			"-0.022": 0.0,
			"-0.021": 0.0,
			"-0.02": 0.0,
			"-0.019": 0.0615517425415,
			"-0.018": 0.694879651197,
			"-0.017": 1.04331617663,
			"-0.016": 0.688447733888,
			"-0.015": 0.578186795734,
			"-0.014": 0.739075250185,
			"-0.013": 0.664775291528,
			"-0.012": 0.786615126919,
			"-0.011": 0.958440957794,
			"-0.01": 2.00480146232,
			"-0.009": 2.67684704184,
			"-0.008": 6.20906642034,
			"-0.007": 12.7261631611,
			"-0.006": 13.1470409849,
			"-0.005": 12.1895900087,
			"-0.004": 9.28997095216,
			"-0.003": 10.8766324369,
			"-0.002": 13.7364114876,
			"-0.001": 14.427395932,
			"0.0": 19.80913689,
			"0.001": 24.0853382624,
			"0.002": 23.4450726801,
			"0.003": 19.109153545,
			"0.004": 11.4797272372,
			"0.005": 6.31472839845,
			"0.006": 4.94722344395,
			"0.007": 4.94576041232,
			"0.008": 4.63581492754,
			"0.009": 2.54340728501,
			"0.01": 3.29427177285,
			"0.011": 5.04870055533,
			"0.012": 6.1928694963,
			"0.013": 1.50689708292,
			"0.014": 0.609894479541,
			"0.015": 0.204275129853,
			"0.016": 0.0,
			"0.017": 0.0,
			"0.018": 0.0,
			"0.019": 0.0,
			"0.02": 0.0,
			"0.021": 0.0,
			"0.022": 0.0,
			"0.023": 0.0,
			"0.024": 0.0,
			"0.025": 0.0
		}
	}
}
