{
	 "smiles": "CCOC(=O)C1=CC(C)=NC(O)=C1", 
	 "Tm": 462.15, 
	 "num_atms": 24, 
	 "gaussian": { 
		 "optdone": 1, 
		 "sigma_profile": "yes", 
		 "theory": "DFT", 
		 "functional": "B3LYP", 
		 "basiset": "6-31G**", 
		 "properties": { 
			 "R2extent": 3293.2858, 
			 "electric_dipole_moment_norm": 3.3719531091, 
			 "electric_quadrupole_moment_norm": 12.5347728535, 
			 "total_energy": -630.032412324, 
			 "HOMO_LUMO_gap": 0.17826, 
			 "cosmo_polarized_energy": -14.47, 
			 "cosmo_cavitation_energy": 28.71, 
			 "cosmo_dispersion_energy": -20.89, 
			 "cosmo_repulsion_energy": 1.69, 
			 "cosmo_total_nonelectrostatic_energy": 9.51, 
			 "SMD_solvation_energy": 5.2 
		},
		"coords": [
			{
				"x": 3.4454819799,
				"y": -0.0395621898,
				"z": 3.2933488587,
				"element": "C" 
			},
			{
				"x": 3.2796288666,
				"y": -0.8117522442,
				"z": 1.9989709248,
				"element": "C" 
			},
			{
				"x": 2.1079458783,
				"y": -0.2917555224,
				"z": 1.3278946752,
				"element": "O" 
			},
			{
				"x": 1.8049962797,
				"y": -0.8683655732,
				"z": 0.1460805729,
				"element": "C" 
			},
			{
				"x": 2.4550961714,
				"y": -1.7673494615,
				"z": -0.3485965495,
				"element": "O" 
			},
			{
				"x": 0.5829891267,
				"y": -0.2737325116,
				"z": -0.4815460409,
				"element": "C" 
			},
			{
				"x": 0.1572896751,
				"y": -0.7789653801,
				"z": -1.7111907547,
				"element": "C" 
			},
			{
				"x": -0.9847827059,
				"y": -0.2275459795,
				"z": -2.3038236779,
				"element": "C" 
			},
			{
				"x": -1.493549557,
				"y": -0.731755351,
				"z": -3.6319025671,
				"element": "C" 
			},
			{
				"x": -1.6796167061,
				"y": 0.7664683477,
				"z": -1.7298673719,
				"element": "N" 
			},
			{
				"x": -1.2640583949,
				"y": 1.2395184221,
				"z": -0.5581497919,
				"element": "C" 
			},
			{
				"x": -2.0312734747,
				"y": 2.2433271346,
				"z": -0.0575379377,
				"element": "O" 
			},
			{
				"x": -0.1355869606,
				"y": 0.7600148526,
				"z": 0.1202696316,
				"element": "C" 
			},
			{
				"x": 2.5714026469,
				"y": -0.164637928,
				"z": 3.9388454352,
				"element": "H" 
			},
			{
				"x": 3.5823496242,
				"y": 1.0278627941,
				"z": 3.0979001967,
				"element": "H" 
			},
			{
				"x": 4.3250726888,
				"y": -0.4052335406,
				"z": 3.832203635,
				"element": "H" 
			},
			{
				"x": 4.1431672708,
				"y": -0.6979265059,
				"z": 1.336126609,
				"element": "H" 
			},
			{
				"x": 3.1383467437,
				"y": -1.8832566103,
				"z": 2.1719916336,
				"element": "H" 
			},
			{
				"x": 0.7127299301,
				"y": -1.5818619284,
				"z": -2.1818535588,
				"element": "H" 
			},
			{
				"x": -1.7403042298,
				"y": -1.7981102256,
				"z": -3.5797238181,
				"element": "H" 
			},
			{
				"x": -0.7353834935,
				"y": -0.6140529567,
				"z": -4.4142405492,
				"element": "H" 
			},
			{
				"x": -2.3870273082,
				"y": -0.176067784,
				"z": -3.919384297,
				"element": "H" 
			},
			{
				"x": -1.663447921,
				"y": 2.5280052935,
				"z": 0.7892177486,
				"element": "H" 
			},
			{
				"x": 0.1761338695,
				"y": 1.1683348484,
				"z": 1.0751669933,
				"element": "H" 
			}
		],
		 "valence_orbital": [ 
			{
				"type": "occ",
				"energy": -0.30753,
				"method": "rhf"
			},
			{
				"type": "occ",
				"energy": -0.28481,
				"method": "rhf"
			},
			{
				"type": "occ",
				"energy": -0.28119,
				"method": "rhf"
			},
			{
				"type": "occ",
				"energy": -0.26277,
				"method": "rhf"
			},
			{
				"type": "occ",
				"energy": -0.23535,
				"method": "rhf"
			},
			{
				"type": "unocc",
				"energy": -0.05709,
				"method": "rhf"
			},
			{
				"type": "unocc",
				"energy": -0.00405,
				"method": "rhf"
			},
			{
				"type": "unocc",
				"energy": 0.05524,
				"method": "rhf"
			},
			{
				"type": "unocc",
				"energy": 0.06536,
				"method": "rhf"
			},
			{
				"type": "unocc",
				"energy": 0.09367,
				"method": "rhf"
			}
		],
		"cosmo_sigma_profile": { 
			"-0.025": 0.0,
			"-0.024": 0.0,
			"-0.023": 0.0,
			"-0.022": 0.0,
			"-0.021": 0.0,
			"-0.02": 0.0,
			"-0.019": 0.273500897089,
			"-0.018": 1.41170487624,
			"-0.017": 0.664851503434,
			"-0.016": 1.55570700025,
			"-0.015": 1.0462866211,
			"-0.014": 0.873620656493,
			"-0.013": 0.819660000452,
			"-0.012": 0.890735464291,
			"-0.011": 1.06030440235,
			"-0.01": 1.26578433692,
			"-0.009": 1.15702606392,
			"-0.008": 0.835499385845,
			"-0.007": 0.717477789111,
			"-0.006": 3.62788241758,
			"-0.005": 13.027427372,
			"-0.004": 22.3237230235,
			"-0.003": 22.5055228748,
			"-0.002": 21.061458421,
			"-0.001": 21.2673777335,
			"0.0": 23.6428867058,
			"0.001": 20.1300031579,
			"0.002": 13.4694786665,
			"0.003": 6.65265430981,
			"0.004": 6.53871869487,
			"0.005": 5.40354649192,
			"0.006": 3.73766909049,
			"0.007": 3.2403025485,
			"0.008": 3.70609219548,
			"0.009": 3.94119414588,
			"0.01": 3.85248814756,
			"0.011": 7.15187235184,
			"0.012": 4.86499798331,
			"0.013": 1.99660292844,
			"0.014": 1.05270976412,
			"0.015": 1.01416786927,
			"0.016": 0.496099774451,
			"0.017": 0.0,
			"0.018": 0.0,
			"0.019": 0.0,
			"0.02": 0.0,
			"0.021": 0.0,
			"0.022": 0.0,
			"0.023": 0.0,
			"0.024": 0.0,
			"0.025": 0.0
		}
	}
}
