{
	 "smiles": "ClC1=CC(=NC2=NC=NN12)C1CC1", 
	 "Tm": 373.15, 
	 "num_atms": 20, 
	 "gaussian": { 
		 "optdone": 1, 
		 "sigma_profile": "yes", 
		 "theory": "DFT", 
		 "functional": "B3LYP", 
		 "basiset": "6-31G**", 
		 "properties": { 
			 "R2extent": 3203.1379, 
			 "electric_dipole_moment_norm": 3.73706289484, 
			 "electric_quadrupole_moment_norm": 6.52077015543, 
			 "total_energy": -988.214930795, 
			 "HOMO_LUMO_gap": 0.18254, 
			 "cosmo_polarized_energy": -11.73, 
			 "cosmo_cavitation_energy": 26.22, 
			 "cosmo_dispersion_energy": -19.72, 
			 "cosmo_repulsion_energy": 1.55, 
			 "cosmo_total_nonelectrostatic_energy": 8.05, 
			 "SMD_solvation_energy": 0.39 
		},
		"coords": [
			{
				"x": 1.7694602648,
				"y": 3.6780018628,
				"z": 0.7915089407,
				"element": "Cl" 
			},
			{
				"x": 1.1695491281,
				"y": 2.1383838297,
				"z": 0.3025663837,
				"element": "C" 
			},
			{
				"x": 0.3814619079,
				"y": 1.939508481,
				"z": -0.8018046191,
				"element": "C" 
			},
			{
				"x": -0.0598765588,
				"y": 0.6173042606,
				"z": -1.1135350763,
				"element": "C" 
			},
			{
				"x": 0.2613842373,
				"y": -0.4378105643,
				"z": -0.3755540806,
				"element": "N" 
			},
			{
				"x": 1.0307120644,
				"y": -0.2328416968,
				"z": 0.6998034723,
				"element": "C" 
			},
			{
				"x": 1.4935338932,
				"y": -1.1000441413,
				"z": 1.5972904651,
				"element": "N" 
			},
			{
				"x": 2.2038423445,
				"y": -0.3192645473,
				"z": 2.4404924204,
				"element": "C" 
			},
			{
				"x": 2.2501013188,
				"y": 0.9891009009,
				"z": 2.1770180052,
				"element": "N" 
			},
			{
				"x": 1.4941738613,
				"y": 1.0542525198,
				"z": 1.0527729785,
				"element": "N" 
			},
			{
				"x": -0.9118193401,
				"y": 0.4003911328,
				"z": -2.3066222096,
				"element": "C" 
			},
			{
				"x": -0.7656770448,
				"y": -0.889047768,
				"z": -3.1034342272,
				"element": "C" 
			},
			{
				"x": -1.9858127937,
				"y": -0.6785714006,
				"z": -2.2702134224,
				"element": "C" 
			},
			{
				"x": 0.1042015591,
				"y": 2.781925484,
				"z": -1.4214458018,
				"element": "H" 
			},
			{
				"x": 2.7239731883,
				"y": -0.7152340714,
				"z": 3.3027910741,
				"element": "H" 
			},
			{
				"x": -1.1410415116,
				"y": 1.299892505,
				"z": -2.8698269707,
				"element": "H" 
			},
			{
				"x": -0.8442832896,
				"y": -0.8121268343,
				"z": -4.1834028687,
				"element": "H" 
			},
			{
				"x": -0.0243210246,
				"y": -1.5907179395,
				"z": -2.735707368,
				"element": "H" 
			},
			{
				"x": -2.0612114352,
				"y": -1.2390626555,
				"z": -1.344293635,
				"element": "H" 
			},
			{
				"x": -2.9276507692,
				"y": -0.4530393573,
				"z": -2.7606034609,
				"element": "H" 
			}
		],
		 "valence_orbital": [ 
			{
				"type": "occ",
				"energy": -0.31559,
				"method": "rhf"
			},
			{
				"type": "occ",
				"energy": -0.28672,
				"method": "rhf"
			},
			{
				"type": "occ",
				"energy": -0.28187,
				"method": "rhf"
			},
			{
				"type": "occ",
				"energy": -0.26934,
				"method": "rhf"
			},
			{
				"type": "occ",
				"energy": -0.2493,
				"method": "rhf"
			},
			{
				"type": "unocc",
				"energy": -0.06676,
				"method": "rhf"
			},
			{
				"type": "unocc",
				"energy": -0.02592,
				"method": "rhf"
			},
			{
				"type": "unocc",
				"energy": 0.00385,
				"method": "rhf"
			},
			{
				"type": "unocc",
				"energy": 0.04573,
				"method": "rhf"
			},
			{
				"type": "unocc",
				"energy": 0.0807,
				"method": "rhf"
			}
		],
		"cosmo_sigma_profile": { 
			"-0.025": 0.0,
			"-0.024": 0.0,
			"-0.023": 0.0,
			"-0.022": 0.0,
			"-0.021": 0.0,
			"-0.02": 0.0,
			"-0.019": 0.0,
			"-0.018": 0.0,
			"-0.017": 0.0,
			"-0.016": 0.0,
			"-0.015": 0.0,
			"-0.014": 0.0,
			"-0.013": 0.0,
			"-0.012": 0.0,
			"-0.011": 0.0,
			"-0.01": 1.16929089006,
			"-0.009": 5.08130889163,
			"-0.008": 3.04707747294,
			"-0.007": 5.51789478461,
			"-0.006": 8.7860705034,
			"-0.005": 15.5617818032,
			"-0.004": 16.5287822147,
			"-0.003": 15.9124836983,
			"-0.002": 18.7526098814,
			"-0.001": 20.4831375208,
			"0.0": 18.6667137068,
			"0.001": 17.7498885636,
			"0.002": 17.2983988869,
			"0.003": 8.29028770305,
			"0.004": 6.08037768334,
			"0.005": 4.36365005338,
			"0.006": 3.15702243359,
			"0.007": 4.21334036871,
			"0.008": 3.65825654131,
			"0.009": 3.11631757617,
			"0.01": 3.81298203432,
			"0.011": 2.55214767925,
			"0.012": 3.85427917875,
			"0.013": 2.64826851207,
			"0.014": 1.35942045711,
			"0.015": 1.24380451577,
			"0.016": 0.545359997835,
			"0.017": 0.0,
			"0.018": 0.0,
			"0.019": 0.0,
			"0.02": 0.0,
			"0.021": 0.0,
			"0.022": 0.0,
			"0.023": 0.0,
			"0.024": 0.0,
			"0.025": 0.0
		}
	}
}
