{
	 "smiles": "OC1=CC=CC2=C1C(=O)C1=C(O)C=CC=C1C2", 
	 "Tm": 453.15, 
	 "num_atms": 27, 
	 "gaussian": { 
		 "optdone": 1, 
		 "sigma_profile": "yes", 
		 "theory": "DFT", 
		 "functional": "B3LYP", 
		 "basiset": "6-31G**", 
		 "properties": { 
			 "R2extent": 3934.1137, 
			 "electric_dipole_moment_norm": 4.90124450931, 
			 "electric_quadrupole_moment_norm": 15.4432419718, 
			 "total_energy": -765.207431082, 
			 "HOMO_LUMO_gap": 0.14956, 
			 "cosmo_polarized_energy": -15.96, 
			 "cosmo_cavitation_energy": 30.09, 
			 "cosmo_dispersion_energy": -23.03, 
			 "cosmo_repulsion_energy": 1.72, 
			 "cosmo_total_nonelectrostatic_energy": 8.78, 
			 "SMD_solvation_energy": 5.47 
		},
		"coords": [
			{
				"x": -0.2070975777,
				"y": -2.8236150912,
				"z": -1.2807449805,
				"element": "O" 
			},
			{
				"x": 0.0858975577,
				"y": -2.4676149591,
				"z": -0.0255532892,
				"element": "C" 
			},
			{
				"x": 0.4961280047,
				"y": -3.4657542178,
				"z": 0.870633311,
				"element": "C" 
			},
			{
				"x": 0.8040832967,
				"y": -3.1331620592,
				"z": 2.1824869328,
				"element": "C" 
			},
			{
				"x": 0.7092348121,
				"y": -1.8118180377,
				"z": 2.6330426426,
				"element": "C" 
			},
			{
				"x": 0.3055741117,
				"y": -0.8055706039,
				"z": 1.7590565983,
				"element": "C" 
			},
			{
				"x": -0.004637415,
				"y": -1.1132849386,
				"z": 0.4183226289,
				"element": "C" 
			},
			{
				"x": -0.3988616464,
				"y": -0.0716450918,
				"z": -0.5445139445,
				"element": "C" 
			},
			{
				"x": -0.7135003323,
				"y": -0.3872671375,
				"z": -1.7086126026,
				"element": "O" 
			},
			{
				"x": -0.3878042141,
				"y": 1.348357317,
				"z": -0.1126557971,
				"element": "C" 
			},
			{
				"x": -0.6473819954,
				"y": 2.4098100346,
				"z": -1.025154366,
				"element": "C" 
			},
			{
				"x": -0.92612911,
				"y": 2.1303209166,
				"z": -2.3204370986,
				"element": "O" 
			},
			{
				"x": -0.608813431,
				"y": 3.7376021066,
				"z": -0.585247194,
				"element": "C" 
			},
			{
				"x": -0.3167240294,
				"y": 4.0342146551,
				"z": 0.7417990243,
				"element": "C" 
			},
			{
				"x": -0.0598794234,
				"y": 3.0091694726,
				"z": 1.6466680705,
				"element": "C" 
			},
			{
				"x": -0.0937584318,
				"y": 1.6760212375,
				"z": 1.2292743165,
				"element": "C" 
			},
			{
				"x": 0.1601943679,
				"y": 0.6058846911,
				"z": 2.2633086312,
				"element": "C" 
			},
			{
				"x": -0.481721627,
				"y": -1.9811782486,
				"z": -1.7414516665,
				"element": "H" 
			},
			{
				"x": 0.561089394,
				"y": -4.4857707793,
				"z": 0.5077241387,
				"element": "H" 
			},
			{
				"x": 1.1225601424,
				"y": -3.9123490168,
				"z": 2.8697536151,
				"element": "H" 
			},
			{
				"x": 0.9480052137,
				"y": -1.5679399183,
				"z": 3.6645313321,
				"element": "H" 
			},
			{
				"x": -1.0604805717,
				"y": 2.9652740397,
				"z": -2.7899084485,
				"element": "H" 
			},
			{
				"x": -0.8084808559,
				"y": 4.5370494309,
				"z": -1.2957776612,
				"element": "H" 
			},
			{
				"x": -0.2880345759,
				"y": 5.0702399971,
				"z": 1.0667132392,
				"element": "H" 
			},
			{
				"x": 0.1691205871,
				"y": 3.239472179,
				"z": 2.6832407965,
				"element": "H" 
			},
			{
				"x": 1.0496056928,
				"y": 0.8784916132,
				"z": 2.845463918,
				"element": "H" 
			},
			{
				"x": -0.6692879438,
				"y": 0.6313624087,
				"z": 2.9862378531,
				"element": "H" 
			}
		],
		 "valence_orbital": [ 
			{
				"type": "occ",
				"energy": -0.26376,
				"method": "rhf"
			},
			{
				"type": "occ",
				"energy": -0.25415,
				"method": "rhf"
			},
			{
				"type": "occ",
				"energy": -0.24734,
				"method": "rhf"
			},
			{
				"type": "occ",
				"energy": -0.23152,
				"method": "rhf"
			},
			{
				"type": "occ",
				"energy": -0.21402,
				"method": "rhf"
			},
			{
				"type": "unocc",
				"energy": -0.06446,
				"method": "rhf"
			},
			{
				"type": "unocc",
				"energy": -0.01446,
				"method": "rhf"
			},
			{
				"type": "unocc",
				"energy": -0.00696,
				"method": "rhf"
			},
			{
				"type": "unocc",
				"energy": 0.01457,
				"method": "rhf"
			},
			{
				"type": "unocc",
				"energy": 0.06194,
				"method": "rhf"
			}
		],
		"cosmo_sigma_profile": { 
			"-0.025": 0.0,
			"-0.024": 0.0,
			"-0.023": 0.0,
			"-0.022": 0.0,
			"-0.021": 0.0,
			"-0.02": 0.0,
			"-0.019": 0.0125224576284,
			"-0.018": 0.832601768871,
			"-0.017": 1.4670205,
			"-0.016": 0.693972916157,
			"-0.015": 1.41597868497,
			"-0.014": 0.911410337613,
			"-0.013": 0.947754908127,
			"-0.012": 0.441705833732,
			"-0.011": 0.944117140152,
			"-0.01": 1.61341052689,
			"-0.009": 1.12394689721,
			"-0.008": 1.01549805409,
			"-0.007": 3.21306975576,
			"-0.006": 15.2109347026,
			"-0.005": 20.6082320346,
			"-0.004": 18.6771111979,
			"-0.003": 14.6614843418,
			"-0.002": 13.3341881657,
			"-0.001": 17.2438997252,
			"0.0": 13.6949315301,
			"0.001": 16.8200718792,
			"0.002": 18.145472994,
			"0.003": 21.0194831746,
			"0.004": 19.6707673128,
			"0.005": 9.09050935249,
			"0.006": 3.12053461331,
			"0.007": 3.65119574578,
			"0.008": 3.03678974898,
			"0.009": 3.42622250422,
			"0.01": 2.90350873942,
			"0.011": 3.71505026751,
			"0.012": 2.45565780109,
			"0.013": 1.72786979664,
			"0.014": 1.82701457292,
			"0.015": 0.929260356021,
			"0.016": 1.46768824005,
			"0.017": 0.0865056078819,
			"0.018": 0.0,
			"0.019": 0.0,
			"0.02": 0.0,
			"0.021": 0.0,
			"0.022": 0.0,
			"0.023": 0.0,
			"0.024": 0.0,
			"0.025": 0.0
		}
	}
}
