{
	 "smiles": "CC1=C(C(=O)N2CCCC2)C(N)=CC=C1", 
	 "Tm": 361.15, 
	 "num_atms": 31, 
	 "gaussian": { 
		 "optdone": 1, 
		 "sigma_profile": "yes", 
		 "theory": "DFT", 
		 "functional": "B3LYP", 
		 "basiset": "6-31G**", 
		 "properties": { 
			 "R2extent": 3394.3831, 
			 "electric_dipole_moment_norm": 2.6403118812, 
			 "electric_quadrupole_moment_norm": 11.6328413769, 
			 "total_energy": -651.673831181, 
			 "HOMO_LUMO_gap": 0.18925, 
			 "cosmo_polarized_energy": -12.28, 
			 "cosmo_cavitation_energy": 32.08, 
			 "cosmo_dispersion_energy": -22.84, 
			 "cosmo_repulsion_energy": 1.8, 
			 "cosmo_total_nonelectrostatic_energy": 11.03, 
			 "SMD_solvation_energy": 4.82 
		},
		"coords": [
			{
				"x": 2.0354072003,
				"y": 1.4710096876,
				"z": -0.0144739361,
				"element": "C" 
			},
			{
				"x": 2.1245058746,
				"y": 0.0639623452,
				"z": 0.537441986,
				"element": "C" 
			},
			{
				"x": 1.1413509641,
				"y": -0.898075921,
				"z": 0.2399798905,
				"element": "C" 
			},
			{
				"x": -0.0638548246,
				"y": -0.5780981117,
				"z": -0.6073596842,
				"element": "C" 
			},
			{
				"x": -0.2032602208,
				"y": -1.0654774565,
				"z": -1.7357475594,
				"element": "O" 
			},
			{
				"x": -1.0089307449,
				"y": 0.2388341498,
				"z": -0.0621105384,
				"element": "N" 
			},
			{
				"x": -2.2522734527,
				"y": 0.5198344778,
				"z": -0.8018676616,
				"element": "C" 
			},
			{
				"x": -3.2627807703,
				"y": 0.8757408378,
				"z": 0.2981569641,
				"element": "C" 
			},
			{
				"x": -2.3820220938,
				"y": 1.4659407162,
				"z": 1.4120700434,
				"element": "C" 
			},
			{
				"x": -1.1231753551,
				"y": 0.5885062006,
				"z": 1.3666434704,
				"element": "C" 
			},
			{
				"x": 1.3010153544,
				"y": -2.2410707716,
				"z": 0.653312606,
				"element": "C" 
			},
			{
				"x": 0.3399908575,
				"y": -3.1938155355,
				"z": 0.3100611328,
				"element": "N" 
			},
			{
				"x": 2.4030399904,
				"y": -2.5796771899,
				"z": 1.4555870188,
				"element": "C" 
			},
			{
				"x": 3.3474815179,
				"y": -1.6157508574,
				"z": 1.789570521,
				"element": "C" 
			},
			{
				"x": 3.2241187563,
				"y": -0.3072962015,
				"z": 1.3204555962,
				"element": "C" 
			},
			{
				"x": 2.9543445377,
				"y": 2.0246164107,
				"z": 0.1949198344,
				"element": "H" 
			},
			{
				"x": 1.2024613682,
				"y": 2.0404669725,
				"z": 0.4128936584,
				"element": "H" 
			},
			{
				"x": 1.8880401029,
				"y": 1.4606447493,
				"z": -1.0996460934,
				"element": "H" 
			},
			{
				"x": -2.5301894557,
				"y": -0.3512977867,
				"z": -1.3996923928,
				"element": "H" 
			},
			{
				"x": -2.0943984935,
				"y": 1.3561112023,
				"z": -1.4952503768,
				"element": "H" 
			},
			{
				"x": -3.7615560913,
				"y": -0.0319160088,
				"z": 0.6569005521,
				"element": "H" 
			},
			{
				"x": -4.0362740726,
				"y": 1.5647914258,
				"z": -0.0513744785,
				"element": "H" 
			},
			{
				"x": -2.8580222484,
				"y": 1.4554827415,
				"z": 2.3963129958,
				"element": "H" 
			},
			{
				"x": -2.1215334235,
				"y": 2.5044171686,
				"z": 1.176394009,
				"element": "H" 
			},
			{
				"x": -0.2327721404,
				"y": 1.1070738572,
				"z": 1.7280908872,
				"element": "H" 
			},
			{
				"x": -1.2488151005,
				"y": -0.3183317075,
				"z": 1.9725402415,
				"element": "H" 
			},
			{
				"x": 0.6537355466,
				"y": -4.1496053588,
				"z": 0.4106968613,
				"element": "H" 
			},
			{
				"x": -0.0799249102,
				"y": -3.0253480794,
				"z": -0.5976455399,
				"element": "H" 
			},
			{
				"x": 2.5182381271,
				"y": -3.6054113854,
				"z": 1.7973866036,
				"element": "H" 
			},
			{
				"x": 4.2010552896,
				"y": -1.8927910379,
				"z": 2.4023154233,
				"element": "H" 
			},
			{
				"x": 3.9882979106,
				"y": 0.4291304668,
				"z": 1.5517379651,
				"element": "H" 
			}
		],
		 "valence_orbital": [ 
			{
				"type": "occ",
				"energy": -0.29757,
				"method": "rhf"
			},
			{
				"type": "occ",
				"energy": -0.24975,
				"method": "rhf"
			},
			{
				"type": "occ",
				"energy": -0.2341,
				"method": "rhf"
			},
			{
				"type": "occ",
				"energy": -0.22859,
				"method": "rhf"
			},
			{
				"type": "occ",
				"energy": -0.19723,
				"method": "rhf"
			},
			{
				"type": "unocc",
				"energy": -0.00798,
				"method": "rhf"
			},
			{
				"type": "unocc",
				"energy": 0.02099,
				"method": "rhf"
			},
			{
				"type": "unocc",
				"energy": 0.03686,
				"method": "rhf"
			},
			{
				"type": "unocc",
				"energy": 0.07474,
				"method": "rhf"
			},
			{
				"type": "unocc",
				"energy": 0.09658,
				"method": "rhf"
			}
		],
		"cosmo_sigma_profile": { 
			"-0.025": 0.0,
			"-0.024": 0.0,
			"-0.023": 0.0,
			"-0.022": 0.0,
			"-0.021": 0.0,
			"-0.02": 0.0,
			"-0.019": 0.0,
			"-0.018": 0.0,
			"-0.017": 0.0,
			"-0.016": 0.0,
			"-0.015": 0.0,
			"-0.014": 0.0,
			"-0.013": 0.137371001072,
			"-0.012": 1.03546196613,
			"-0.011": 1.49287111408,
			"-0.01": 1.57663492624,
			"-0.009": 2.07393456497,
			"-0.008": 2.16875671724,
			"-0.007": 2.41576548937,
			"-0.006": 3.8219244733,
			"-0.005": 9.57411653947,
			"-0.004": 25.9939961684,
			"-0.003": 35.7343191366,
			"-0.002": 31.9923940688,
			"-0.001": 25.8571036977,
			"0.0": 23.53609308,
			"0.001": 13.0654795986,
			"0.002": 9.76808394662,
			"0.003": 8.23233936522,
			"0.004": 8.9466726105,
			"0.005": 8.68180540702,
			"0.006": 9.73095775642,
			"0.007": 5.90620542808,
			"0.008": 2.75777630413,
			"0.009": 2.34422874555,
			"0.01": 1.15609306552,
			"0.011": 1.79929455286,
			"0.012": 2.55532921455,
			"0.013": 3.26953519738,
			"0.014": 4.78464350042,
			"0.015": 1.22151476273,
			"0.016": 0.0143893871153,
			"0.017": 0.0,
			"0.018": 0.0,
			"0.019": 0.0,
			"0.02": 0.0,
			"0.021": 0.0,
			"0.022": 0.0,
			"0.023": 0.0,
			"0.024": 0.0,
			"0.025": 0.0
		}
	}
}
