{
	 "smiles": "OC(=O)CCNC(=O)C1CCCCC1", 
	 "Tm": 399.15, 
	 "num_atms": 31, 
	 "gaussian": { 
		 "optdone": 1, 
		 "sigma_profile": "yes", 
		 "theory": "DFT", 
		 "functional": "B3LYP", 
		 "basiset": "6-31G**", 
		 "properties": { 
			 "R2extent": 4367.2367, 
			 "electric_dipole_moment_norm": 4.63054611142, 
			 "electric_quadrupole_moment_norm": 26.2435337236, 
			 "total_energy": -671.769564579, 
			 "HOMO_LUMO_gap": 0.26098, 
			 "cosmo_polarized_energy": -20.27, 
			 "cosmo_cavitation_energy": 32.37, 
			 "cosmo_dispersion_energy": -23.15, 
			 "cosmo_repulsion_energy": 1.86, 
			 "cosmo_total_nonelectrostatic_energy": 11.08, 
			 "SMD_solvation_energy": 5.62 
		},
		"coords": [
			{
				"x": 1.0283028695,
				"y": -4.5030612892,
				"z": 0.4968911402,
				"element": "O" 
			},
			{
				"x": -0.1031019248,
				"y": -4.0706501161,
				"z": -0.1210472543,
				"element": "C" 
			},
			{
				"x": -0.8221730025,
				"y": -4.8579736507,
				"z": -0.6855649493,
				"element": "O" 
			},
			{
				"x": -0.3804542047,
				"y": -2.5791790411,
				"z": -0.0124831559,
				"element": "C" 
			},
			{
				"x": -1.5095400815,
				"y": -2.1422499425,
				"z": -0.9533129539,
				"element": "C" 
			},
			{
				"x": -1.900436208,
				"y": -0.7523441276,
				"z": -0.7557091479,
				"element": "N" 
			},
			{
				"x": -1.0921873495,
				"y": 0.2846064452,
				"z": -1.131199802,
				"element": "C" 
			},
			{
				"x": 0.0265511287,
				"y": 0.0823939322,
				"z": -1.6005900926,
				"element": "O" 
			},
			{
				"x": -1.6704195552,
				"y": 1.6845142949,
				"z": -0.881335557,
				"element": "C" 
			},
			{
				"x": -1.0498724573,
				"y": 2.7434612364,
				"z": -1.8369774394,
				"element": "C" 
			},
			{
				"x": -0.0683392837,
				"y": 3.7013042008,
				"z": -1.1318223253,
				"element": "C" 
			},
			{
				"x": 0.8440078326,
				"y": 2.9343573238,
				"z": -0.1658758506,
				"element": "C" 
			},
			{
				"x": 0.0273848597,
				"y": 2.2620306396,
				"z": 0.9690104585,
				"element": "C" 
			},
			{
				"x": -1.4602289821,
				"y": 2.0846438685,
				"z": 0.6016172761,
				"element": "C" 
			},
			{
				"x": 1.5108227835,
				"y": -3.7518497717,
				"z": 0.8705536766,
				"element": "H" 
			},
			{
				"x": -0.6467059742,
				"y": -2.3550115458,
				"z": 1.0297179573,
				"element": "H" 
			},
			{
				"x": 0.5206302616,
				"y": -2.0012370251,
				"z": -0.2452639177,
				"element": "H" 
			},
			{
				"x": -1.1820486404,
				"y": -2.281778476,
				"z": -1.9881348146,
				"element": "H" 
			},
			{
				"x": -2.3844501452,
				"y": -2.7759982852,
				"z": -0.7982408479,
				"element": "H" 
			},
			{
				"x": -2.8309226721,
				"y": -0.5529913156,
				"z": -0.4224129107,
				"element": "H" 
			},
			{
				"x": -2.7522371111,
				"y": 1.6257970272,
				"z": -1.0594480958,
				"element": "H" 
			},
			{
				"x": -1.8525288807,
				"y": 3.3200197548,
				"z": -2.3098631455,
				"element": "H" 
			},
			{
				"x": -0.5161053188,
				"y": 2.2169210631,
				"z": -2.6332887244,
				"element": "H" 
			},
			{
				"x": 0.5283597892,
				"y": 4.2265200712,
				"z": -1.88614362,
				"element": "H" 
			},
			{
				"x": -0.619847086,
				"y": 4.4781854845,
				"z": -0.5850015044,
				"element": "H" 
			},
			{
				"x": 1.6042337512,
				"y": 3.5997848264,
				"z": 0.2580786633,
				"element": "H" 
			},
			{
				"x": 1.3709206623,
				"y": 2.162956856,
				"z": -0.7363784139,
				"element": "H" 
			},
			{
				"x": 0.0850248372,
				"y": 2.8571049616,
				"z": 1.8881152027,
				"element": "H" 
			},
			{
				"x": 0.4682656495,
				"y": 1.2875237871,
				"z": 1.2070850571,
				"element": "H" 
			},
			{
				"x": -1.9298514,
				"y": 1.3495531472,
				"z": 1.2658596826,
				"element": "H" 
			},
			{
				"x": -1.9952541471,
				"y": 3.027645666,
				"z": 0.7643654088,
				"element": "H" 
			}
		],
		 "valence_orbital": [ 
			{
				"type": "occ",
				"energy": -0.3031,
				"method": "rhf"
			},
			{
				"type": "occ",
				"energy": -0.29828,
				"method": "rhf"
			},
			{
				"type": "occ",
				"energy": -0.27479,
				"method": "rhf"
			},
			{
				"type": "occ",
				"energy": -0.25914,
				"method": "rhf"
			},
			{
				"type": "occ",
				"energy": -0.25129,
				"method": "rhf"
			},
			{
				"type": "unocc",
				"energy": 0.00969,
				"method": "rhf"
			},
			{
				"type": "unocc",
				"energy": 0.01838,
				"method": "rhf"
			},
			{
				"type": "unocc",
				"energy": 0.05591,
				"method": "rhf"
			},
			{
				"type": "unocc",
				"energy": 0.05909,
				"method": "rhf"
			},
			{
				"type": "unocc",
				"energy": 0.09018,
				"method": "rhf"
			}
		],
		"cosmo_sigma_profile": { 
			"-0.025": 0.0,
			"-0.024": 0.0,
			"-0.023": 0.0,
			"-0.022": 0.0,
			"-0.021": 0.0,
			"-0.02": 0.0,
			"-0.019": 0.500361423254,
			"-0.018": 1.02128270441,
			"-0.017": 1.46636631644,
			"-0.016": 1.05037153842,
			"-0.015": 1.02485681672,
			"-0.014": 1.73488590789,
			"-0.013": 2.42327187222,
			"-0.012": 2.1139990154,
			"-0.011": 2.76027485718,
			"-0.01": 2.62627569036,
			"-0.009": 2.74528145964,
			"-0.008": 2.82193634534,
			"-0.007": 6.20766048694,
			"-0.006": 5.69536419069,
			"-0.005": 7.88215252981,
			"-0.004": 10.225118684,
			"-0.003": 12.7989229296,
			"-0.002": 27.8895975814,
			"-0.001": 29.1647988223,
			"0.0": 30.3240885789,
			"0.001": 26.7828494417,
			"0.002": 12.858791162,
			"0.003": 6.21568181014,
			"0.004": 3.44014942822,
			"0.005": 4.04138690208,
			"0.006": 4.88699299176,
			"0.007": 3.67015943839,
			"0.008": 4.14179881595,
			"0.009": 5.03321370494,
			"0.01": 7.1485025172,
			"0.011": 6.26789336645,
			"0.012": 6.47074962151,
			"0.013": 3.93825177962,
			"0.014": 2.81702791071,
			"0.015": 0.317369705511,
			"0.016": 0.0,
			"0.017": 0.0,
			"0.018": 0.0,
			"0.019": 0.0,
			"0.02": 0.0,
			"0.021": 0.0,
			"0.022": 0.0,
			"0.023": 0.0,
			"0.024": 0.0,
			"0.025": 0.0
		}
	}
}
