{
	 "smiles": "CCOC1=C(Cl)C=C(C=N1)C(O)=O", 
	 "Tm": 488.15, 
	 "num_atms": 21, 
	 "gaussian": { 
		 "optdone": 1, 
		 "sigma_profile": "yes", 
		 "theory": "DFT", 
		 "functional": "B3LYP", 
		 "basiset": "6-31G**", 
		 "properties": { 
			 "R2extent": 3517.5558, 
			 "electric_dipole_moment_norm": 3.79440518, 
			 "electric_quadrupole_moment_norm": 20.1699997962, 
			 "total_energy": -1050.29281673, 
			 "HOMO_LUMO_gap": 0.19242, 
			 "cosmo_polarized_energy": -15.32, 
			 "cosmo_cavitation_energy": 27.88, 
			 "cosmo_dispersion_energy": -20.52, 
			 "cosmo_repulsion_energy": 1.66, 
			 "cosmo_total_nonelectrostatic_energy": 9.02, 
			 "SMD_solvation_energy": 5.31 
		},
		"coords": [
			{
				"x": -0.6757711125,
				"y": -3.5264255511,
				"z": -2.3204711568,
				"element": "C" 
			},
			{
				"x": -0.2852486948,
				"y": -2.7124690665,
				"z": -1.1020325182,
				"element": "C" 
			},
			{
				"x": -0.3902157514,
				"y": -1.3181024079,
				"z": -1.4751862993,
				"element": "O" 
			},
			{
				"x": -0.0873113359,
				"y": -0.3996944347,
				"z": -0.5554333424,
				"element": "C" 
			},
			{
				"x": -0.1778622395,
				"y": 0.9641839719,
				"z": -0.9282290311,
				"element": "C" 
			},
			{
				"x": -0.6481815931,
				"y": 1.411396988,
				"z": -2.5474362548,
				"element": "Cl" 
			},
			{
				"x": 0.1257277361,
				"y": 1.9301359502,
				"z": 0.0128733098,
				"element": "C" 
			},
			{
				"x": 0.5131115829,
				"y": 1.5379596667,
				"z": 1.3067899744,
				"element": "C" 
			},
			{
				"x": 0.5905828392,
				"y": 0.1673579618,
				"z": 1.5648269651,
				"element": "C" 
			},
			{
				"x": 0.2912523422,
				"y": -0.7738425661,
				"z": 0.6653483396,
				"element": "N" 
			},
			{
				"x": 0.8789425606,
				"y": 2.4870011369,
				"z": 2.4006766241,
				"element": "C" 
			},
			{
				"x": 0.4535197575,
				"y": 3.7730731449,
				"z": 2.2699534159,
				"element": "O" 
			},
			{
				"x": 1.5220416506,
				"y": 2.1594698196,
				"z": 3.3699172083,
				"element": "O" 
			},
			{
				"x": -1.7004504755,
				"y": -3.3014350106,
				"z": -2.6290148641,
				"element": "H" 
			},
			{
				"x": -0.0082316972,
				"y": -3.3169140923,
				"z": -3.1608415487,
				"element": "H" 
			},
			{
				"x": -0.6116568656,
				"y": -4.5932190638,
				"z": -2.0853348627,
				"element": "H" 
			},
			{
				"x": 0.7400355214,
				"y": -2.9170757051,
				"z": -0.7787438999,
				"element": "H" 
			},
			{
				"x": -0.9441271522,
				"y": -2.9021503664,
				"z": -0.249033809,
				"element": "H" 
			},
			{
				"x": 0.0899617111,
				"y": 2.973766092,
				"z": -0.2858673494,
				"element": "H" 
			},
			{
				"x": 0.9063231919,
				"y": -0.1706374276,
				"z": 2.5476312399,
				"element": "H" 
			},
			{
				"x": -0.1936419758,
				"y": 3.8499209603,
				"z": 1.5558078594,
				"element": "H" 
			}
		],
		 "valence_orbital": [ 
			{
				"type": "occ",
				"energy": -0.32228,
				"method": "rhf"
			},
			{
				"type": "occ",
				"energy": -0.30105,
				"method": "rhf"
			},
			{
				"type": "occ",
				"energy": -0.29433,
				"method": "rhf"
			},
			{
				"type": "occ",
				"energy": -0.27672,
				"method": "rhf"
			},
			{
				"type": "occ",
				"energy": -0.25039,
				"method": "rhf"
			},
			{
				"type": "unocc",
				"energy": -0.05797,
				"method": "rhf"
			},
			{
				"type": "unocc",
				"energy": -0.04907,
				"method": "rhf"
			},
			{
				"type": "unocc",
				"energy": 0.01425,
				"method": "rhf"
			},
			{
				"type": "unocc",
				"energy": 0.03889,
				"method": "rhf"
			},
			{
				"type": "unocc",
				"energy": 0.05848,
				"method": "rhf"
			}
		],
		"cosmo_sigma_profile": { 
			"-0.025": 0.0,
			"-0.024": 0.0,
			"-0.023": 0.0,
			"-0.022": 0.0,
			"-0.021": 0.0,
			"-0.02": 0.343781066429,
			"-0.019": 1.16149084663,
			"-0.018": 1.08337338741,
			"-0.017": 1.01344286031,
			"-0.016": 0.813674980226,
			"-0.015": 0.653927274473,
			"-0.014": 1.13451315632,
			"-0.013": 1.5984540724,
			"-0.012": 1.38170542159,
			"-0.011": 1.57465337779,
			"-0.01": 0.77996517411,
			"-0.009": 1.96256222397,
			"-0.008": 1.56570815085,
			"-0.007": 2.91170168551,
			"-0.006": 4.31076912989,
			"-0.005": 9.60908070357,
			"-0.004": 17.7415334747,
			"-0.003": 19.5938309094,
			"-0.002": 22.4475022842,
			"-0.001": 23.9139669116,
			"0.0": 19.6314262571,
			"0.001": 11.3917298968,
			"0.002": 10.3228535773,
			"0.003": 11.3733005256,
			"0.004": 11.791044571,
			"0.005": 6.66328123138,
			"0.006": 5.7496233416,
			"0.007": 4.74531545252,
			"0.008": 5.43178395635,
			"0.009": 5.18671785427,
			"0.01": 6.02788804577,
			"0.011": 5.88913815622,
			"0.012": 3.98510648473,
			"0.013": 0.945581962923,
			"0.014": 0.0,
			"0.015": 0.0,
			"0.016": 0.0,
			"0.017": 0.0,
			"0.018": 0.0,
			"0.019": 0.0,
			"0.02": 0.0,
			"0.021": 0.0,
			"0.022": 0.0,
			"0.023": 0.0,
			"0.024": 0.0,
			"0.025": 0.0
		}
	}
}
