{
	 "smiles": "CNC", 
	 "Tm": 181.05, 
	 "num_atms": 10, 
	 "gaussian": { 
		 "optdone": 1, 
		 "sigma_profile": "yes", 
		 "theory": "DFT", 
		 "functional": "B3LYP", 
		 "basiset": "6-31G**", 
		 "properties": { 
			 "R2extent": 694.5593, 
			 "electric_dipole_moment_norm": 0.991863201253, 
			 "electric_quadrupole_moment_norm": 1.24113761525, 
			 "total_energy": -135.171380161, 
			 "HOMO_LUMO_gap": 0.3026, 
			 "cosmo_polarized_energy": -3.46, 
			 "cosmo_cavitation_energy": 12.3, 
			 "cosmo_dispersion_energy": -9.38, 
			 "cosmo_repulsion_energy": 0.89, 
			 "cosmo_total_nonelectrostatic_energy": 3.81, 
			 "SMD_solvation_energy": 0.4 
		},
		"coords": [
			{
				"x": -0.3562389758,
				"y": -1.4312704541,
				"z": 2.7096374059,
				"element": "C" 
			},
			{
				"x": -0.6370590245,
				"y": -0.6468179335,
				"z": 1.5147509285,
				"element": "N" 
			},
			{
				"x": -2.0611698495,
				"y": -0.5428997413,
				"z": 1.2265029356,
				"element": "C" 
			},
			{
				"x": -0.792283886,
				"y": -2.4484094562,
				"z": 2.7036023472,
				"element": "H" 
			},
			{
				"x": 0.7257855785,
				"y": -1.5249223957,
				"z": 2.8451471881,
				"element": "H" 
			},
			{
				"x": -0.7557198422,
				"y": -0.9114067764,
				"z": 3.5885442306,
				"element": "H" 
			},
			{
				"x": -0.163931337,
				"y": -1.0667290634,
				"z": 0.7193573491,
				"element": "H" 
			},
			{
				"x": -2.5847144052,
				"y": -1.5144619993,
				"z": 1.1445169884,
				"element": "H" 
			},
			{
				"x": -2.2104482285,
				"y": 0.0049240076,
				"z": 0.290813381,
				"element": "H" 
			},
			{
				"x": -2.5535200299,
				"y": 0.0254938123,
				"z": 2.0245272457,
				"element": "H" 
			}
		],
		 "valence_orbital": [ 
			{
				"type": "occ",
				"energy": -0.42982,
				"method": "rhf"
			},
			{
				"type": "occ",
				"energy": -0.38141,
				"method": "rhf"
			},
			{
				"type": "occ",
				"energy": -0.35969,
				"method": "rhf"
			},
			{
				"type": "occ",
				"energy": -0.35739,
				"method": "rhf"
			},
			{
				"type": "occ",
				"energy": -0.21474,
				"method": "rhf"
			},
			{
				"type": "unocc",
				"energy": 0.08786,
				"method": "rhf"
			},
			{
				"type": "unocc",
				"energy": 0.13412,
				"method": "rhf"
			},
			{
				"type": "unocc",
				"energy": 0.15157,
				"method": "rhf"
			},
			{
				"type": "unocc",
				"energy": 0.15663,
				"method": "rhf"
			},
			{
				"type": "unocc",
				"energy": 0.17134,
				"method": "rhf"
			}
		],
		"cosmo_sigma_profile": { 
			"-0.025": 0.0,
			"-0.024": 0.0,
			"-0.023": 0.0,
			"-0.022": 0.0,
			"-0.021": 0.0,
			"-0.02": 0.0,
			"-0.019": 0.0,
			"-0.018": 0.0,
			"-0.017": 0.0,
			"-0.016": 0.0,
			"-0.015": 0.0,
			"-0.014": 0.0,
			"-0.013": 0.0,
			"-0.012": 0.0,
			"-0.011": 0.0,
			"-0.01": 0.572444693957,
			"-0.009": 1.22401705788,
			"-0.008": 1.23429734322,
			"-0.007": 1.35005572258,
			"-0.006": 1.56924658894,
			"-0.005": 1.09949697702,
			"-0.004": 3.33169551527,
			"-0.003": 10.0441209854,
			"-0.002": 12.2728724225,
			"-0.001": 17.0544658134,
			"0.0": 20.7244709852,
			"0.001": 10.0059790118,
			"0.002": 1.94086362404,
			"0.003": 0.87519555221,
			"0.004": 1.13345758173,
			"0.005": 1.35198755558,
			"0.006": 0.620686652052,
			"0.007": 1.04065730941,
			"0.008": 1.03727904699,
			"0.009": 0.633488438926,
			"0.01": 0.362498042157,
			"0.011": 0.883371440472,
			"0.012": 0.68045805774,
			"0.013": 0.885601088198,
			"0.014": 0.398773569548,
			"0.015": 0.296194319199,
			"0.016": 0.799862201528,
			"0.017": 0.660592777736,
			"0.018": 0.560796186654,
			"0.019": 0.292260383968,
			"0.02": 0.0145787727951,
			"0.021": 0.0,
			"0.022": 0.0,
			"0.023": 0.0,
			"0.024": 0.0,
			"0.025": 0.0
		}
	}
}
