{
	 "smiles": "CC(OC1=CC(O)=CC=C1)C(N)=O", 
	 "Tm": 403.15, 
	 "num_atms": 24, 
	 "gaussian": { 
		 "optdone": 1, 
		 "sigma_profile": "yes", 
		 "theory": "DFT", 
		 "functional": "B3LYP", 
		 "basiset": "6-31G**", 
		 "properties": { 
			 "R2extent": 2892.5587, 
			 "electric_dipole_moment_norm": 2.74263667481, 
			 "electric_quadrupole_moment_norm": 15.3287829706, 
			 "total_energy": -630.019386828, 
			 "HOMO_LUMO_gap": 0.21836, 
			 "cosmo_polarized_energy": -16.67, 
			 "cosmo_cavitation_energy": 28.07, 
			 "cosmo_dispersion_energy": -20.16, 
			 "cosmo_repulsion_energy": 1.63, 
			 "cosmo_total_nonelectrostatic_energy": 9.54, 
			 "SMD_solvation_energy": 6.08 
		},
		"coords": [
			{
				"x": -2.9710427649,
				"y": 1.5571292161,
				"z": -0.2093053497,
				"element": "C" 
			},
			{
				"x": -1.5230566135,
				"y": 1.2940721534,
				"z": 0.198910253,
				"element": "C" 
			},
			{
				"x": -1.1790453668,
				"y": -0.0078990066,
				"z": -0.2886508469,
				"element": "O" 
			},
			{
				"x": -0.1316296834,
				"y": -0.6837009083,
				"z": 0.2930691251,
				"element": "C" 
			},
			{
				"x": -0.0051676968,
				"y": -2.0202965654,
				"z": -0.0967380525,
				"element": "C" 
			},
			{
				"x": 1.029048621,
				"y": -2.797008873,
				"z": 0.4240149619,
				"element": "C" 
			},
			{
				"x": 1.1018060134,
				"y": -4.0959874757,
				"z": 0.0076917098,
				"element": "O" 
			},
			{
				"x": 1.9390731293,
				"y": -2.2461208543,
				"z": 1.3369501743,
				"element": "C" 
			},
			{
				"x": 1.7975666681,
				"y": -0.9125556026,
				"z": 1.7111053511,
				"element": "C" 
			},
			{
				"x": 0.7721542052,
				"y": -0.1134624298,
				"z": 1.2000371852,
				"element": "C" 
			},
			{
				"x": -0.6047224874,
				"y": 2.3964963248,
				"z": -0.3593727368,
				"element": "C" 
			},
			{
				"x": -0.024234728,
				"y": 2.1027626685,
				"z": -1.5533108609,
				"element": "N" 
			},
			{
				"x": -0.4842906391,
				"y": 3.4648962261,
				"z": 0.2238233537,
				"element": "O" 
			},
			{
				"x": -3.0784915437,
				"y": 1.5025728318,
				"z": -1.2964475811,
				"element": "H" 
			},
			{
				"x": -3.6310834117,
				"y": 0.8138969151,
				"z": 0.2451482272,
				"element": "H" 
			},
			{
				"x": -3.2683727412,
				"y": 2.5541000162,
				"z": 0.1246145269,
				"element": "H" 
			},
			{
				"x": -1.4336375818,
				"y": 1.3282595374,
				"z": 1.2894716081,
				"element": "H" 
			},
			{
				"x": -0.7141849889,
				"y": -2.451878792,
				"z": -0.7937233063,
				"element": "H" 
			},
			{
				"x": 1.8471650195,
				"y": -4.5253838089,
				"z": 0.4467866107,
				"element": "H" 
			},
			{
				"x": 2.7444405482,
				"y": -2.8530777061,
				"z": 1.7437135111,
				"element": "H" 
			},
			{
				"x": 2.5034608323,
				"y": -0.4788738776,
				"z": 2.4133414205,
				"element": "H" 
			},
			{
				"x": 0.7018594131,
				"y": 0.9257314728,
				"z": 1.496133307,
				"element": "H" 
			},
			{
				"x": 0.6195093123,
				"y": 2.7690586728,
				"z": -1.9513702767,
				"element": "H" 
			},
			{
				"x": -0.073023515,
				"y": 1.1673698654,
				"z": -1.9258923144,
				"element": "H" 
			}
		],
		 "valence_orbital": [ 
			{
				"type": "occ",
				"energy": -0.31622,
				"method": "rhf"
			},
			{
				"type": "occ",
				"energy": -0.26914,
				"method": "rhf"
			},
			{
				"type": "occ",
				"energy": -0.25186,
				"method": "rhf"
			},
			{
				"type": "occ",
				"energy": -0.23114,
				"method": "rhf"
			},
			{
				"type": "occ",
				"energy": -0.22,
				"method": "rhf"
			},
			{
				"type": "unocc",
				"energy": -0.00164,
				"method": "rhf"
			},
			{
				"type": "unocc",
				"energy": 0.01561,
				"method": "rhf"
			},
			{
				"type": "unocc",
				"energy": 0.02556,
				"method": "rhf"
			},
			{
				"type": "unocc",
				"energy": 0.0686,
				"method": "rhf"
			},
			{
				"type": "unocc",
				"energy": 0.08292,
				"method": "rhf"
			}
		],
		"cosmo_sigma_profile": { 
			"-0.025": 0.0,
			"-0.024": 0.0,
			"-0.023": 0.0,
			"-0.022": 0.0,
			"-0.021": 0.0,
			"-0.02": 0.0,
			"-0.019": 0.0,
			"-0.018": 0.265806574938,
			"-0.017": 1.14321164339,
			"-0.016": 1.22347946253,
			"-0.015": 1.04362739782,
			"-0.014": 1.63686467476,
			"-0.013": 3.28478125516,
			"-0.012": 2.63765246989,
			"-0.011": 3.23121949917,
			"-0.01": 2.44763464024,
			"-0.009": 3.4000422126,
			"-0.008": 2.88701586038,
			"-0.007": 2.56813822988,
			"-0.006": 8.66153239882,
			"-0.005": 13.4439360393,
			"-0.004": 16.5491035041,
			"-0.003": 15.8027591546,
			"-0.002": 14.0832290434,
			"-0.001": 15.150722267,
			"0.0": 12.1227621398,
			"0.001": 10.6844498396,
			"0.002": 10.8608009304,
			"0.003": 13.0736413506,
			"0.004": 14.1758948736,
			"0.005": 14.208797298,
			"0.006": 8.19577556762,
			"0.007": 4.04223208131,
			"0.008": 2.86856823352,
			"0.009": 3.08624002621,
			"0.01": 2.98745963753,
			"0.011": 3.29312583117,
			"0.012": 2.99922549104,
			"0.013": 3.96902708951,
			"0.014": 4.65390888492,
			"0.015": 0.982790498118,
			"0.016": 0.0,
			"0.017": 0.0,
			"0.018": 0.0,
			"0.019": 0.0,
			"0.02": 0.0,
			"0.021": 0.0,
			"0.022": 0.0,
			"0.023": 0.0,
			"0.024": 0.0,
			"0.025": 0.0
		}
	}
}
