{
	 "smiles": "OC(=O)C1=CC2=C(C=C1)C(=O)NC2=O", 
	 "Tm": 541.15, 
	 "num_atms": 19, 
	 "gaussian": { 
		 "optdone": 1, 
		 "sigma_profile": "yes", 
		 "theory": "DFT", 
		 "functional": "B3LYP", 
		 "basiset": "6-31G**", 
		 "properties": { 
			 "R2extent": 3081.1755, 
			 "electric_dipole_moment_norm": 2.17355310264, 
			 "electric_quadrupole_moment_norm": 10.1090977075, 
			 "total_energy": -701.651789834, 
			 "HOMO_LUMO_gap": 0.17682, 
			 "cosmo_polarized_energy": -20.64, 
			 "cosmo_cavitation_energy": 25.31, 
			 "cosmo_dispersion_energy": -18.62, 
			 "cosmo_repulsion_energy": 1.45, 
			 "cosmo_total_nonelectrostatic_energy": 8.14, 
			 "SMD_solvation_energy": 6.9 
		},
		"coords": [
			{
				"x": -1.9231620916,
				"y": -2.2103740644,
				"z": -1.4731305152,
				"element": "O" 
			},
			{
				"x": -1.7691351581,
				"y": -1.9292382762,
				"z": -0.1552516639,
				"element": "C" 
			},
			{
				"x": -2.3318180975,
				"y": -2.5958950152,
				"z": 0.6796641139,
				"element": "O" 
			},
			{
				"x": -0.8812600485,
				"y": -0.765617245,
				"z": 0.1948055171,
				"element": "C" 
			},
			{
				"x": -0.5768990508,
				"y": 0.2583879447,
				"z": -0.7186548677,
				"element": "C" 
			},
			{
				"x": 0.236533111,
				"y": 1.2914917611,
				"z": -0.2810556886,
				"element": "C" 
			},
			{
				"x": 0.7405328846,
				"y": 1.3245465211,
				"z": 1.0199774593,
				"element": "C" 
			},
			{
				"x": 0.4388332461,
				"y": 0.3278188995,
				"z": 1.9388843288,
				"element": "C" 
			},
			{
				"x": -0.3865288816,
				"y": -0.7148927001,
				"z": 1.5108342664,
				"element": "C" 
			},
			{
				"x": 1.5748390501,
				"y": 2.559651365,
				"z": 1.1720580759,
				"element": "C" 
			},
			{
				"x": 2.1863225544,
				"y": 2.9541782255,
				"z": 2.1406178099,
				"element": "O" 
			},
			{
				"x": 1.504463185,
				"y": 3.192975534,
				"z": -0.0782136559,
				"element": "N" 
			},
			{
				"x": 0.721527346,
				"y": 2.5025015295,
				"z": -1.0135478292,
				"element": "C" 
			},
			{
				"x": 0.5066428202,
				"y": 2.8378375297,
				"z": -2.1585295497,
				"element": "O" 
			},
			{
				"x": -1.2982049422,
				"y": -1.7042334982,
				"z": -2.0103348719,
				"element": "H" 
			},
			{
				"x": -0.9803258759,
				"y": 0.2850566947,
				"z": -1.7273860197,
				"element": "H" 
			},
			{
				"x": 0.8277636291,
				"y": 0.3648161558,
				"z": 2.951078188,
				"element": "H" 
			},
			{
				"x": -0.670538396,
				"y": -1.5146889155,
				"z": 2.1860955987,
				"element": "H" 
			},
			{
				"x": 1.9761147157,
				"y": 4.0626775538,
				"z": -0.2850106963,
				"element": "H" 
			}
		],
		 "valence_orbital": [ 
			{
				"type": "occ",
				"energy": -0.30966,
				"method": "rhf"
			},
			{
				"type": "occ",
				"energy": -0.30111,
				"method": "rhf"
			},
			{
				"type": "occ",
				"energy": -0.29799,
				"method": "rhf"
			},
			{
				"type": "occ",
				"energy": -0.28771,
				"method": "rhf"
			},
			{
				"type": "occ",
				"energy": -0.28291,
				"method": "rhf"
			},
			{
				"type": "unocc",
				"energy": -0.10609,
				"method": "rhf"
			},
			{
				"type": "unocc",
				"energy": -0.071,
				"method": "rhf"
			},
			{
				"type": "unocc",
				"energy": -0.02194,
				"method": "rhf"
			},
			{
				"type": "unocc",
				"energy": 0.04219,
				"method": "rhf"
			},
			{
				"type": "unocc",
				"energy": 0.05574,
				"method": "rhf"
			}
		],
		"cosmo_sigma_profile": { 
			"-0.025": 0.0,
			"-0.024": 0.0,
			"-0.023": 0.0,
			"-0.022": 0.0,
			"-0.021": 0.0,
			"-0.02": 0.0845177783438,
			"-0.019": 0.857257405825,
			"-0.018": 1.24360539924,
			"-0.017": 1.85643688585,
			"-0.016": 2.78992393372,
			"-0.015": 1.17913222762,
			"-0.014": 2.19846858586,
			"-0.013": 2.84385240932,
			"-0.012": 1.63813058227,
			"-0.011": 2.34786887692,
			"-0.01": 1.74058759211,
			"-0.009": 2.52116583973,
			"-0.008": 5.17002637695,
			"-0.007": 7.1412003462,
			"-0.006": 8.83915538659,
			"-0.005": 9.31931106847,
			"-0.004": 10.5253679533,
			"-0.003": 13.8119065559,
			"-0.002": 15.6271678737,
			"-0.001": 15.867540389,
			"0.0": 15.1066153735,
			"0.001": 7.14491192848,
			"0.002": 3.77853240704,
			"0.003": 4.55251769789,
			"0.004": 5.9327635814,
			"0.005": 4.20594874201,
			"0.006": 3.35395376684,
			"0.007": 5.88816601413,
			"0.008": 6.34547524292,
			"0.009": 8.46297271341,
			"0.01": 12.3648600586,
			"0.011": 15.1974610969,
			"0.012": 3.85940566774,
			"0.013": 0.542600930229,
			"0.014": 0.0,
			"0.015": 0.0,
			"0.016": 0.0,
			"0.017": 0.0,
			"0.018": 0.0,
			"0.019": 0.0,
			"0.02": 0.0,
			"0.021": 0.0,
			"0.022": 0.0,
			"0.023": 0.0,
			"0.024": 0.0,
			"0.025": 0.0
		}
	}
}
