{
	 "smiles": "[O-][N+](=O)C1=CC2=C(C=C1)N=C(N2)C(Cl)(Cl)Cl", 
	 "Tm": 484.15, 
	 "num_atms": 20, 
	 "gaussian": { 
		 "optdone": 1, 
		 "sigma_profile": "yes", 
		 "theory": "DFT", 
		 "functional": "B3LYP", 
		 "basiset": "6-31G**", 
		 "properties": { 
			 "R2extent": 6511.7021, 
			 "electric_dipole_moment_norm": 2.84851799011, 
			 "electric_quadrupole_moment_norm": 24.6840933479, 
			 "total_energy": -2002.42984608, 
			 "HOMO_LUMO_gap": 0.16717, 
			 "cosmo_polarized_energy": -14.78, 
			 "cosmo_cavitation_energy": 31.31, 
			 "cosmo_dispersion_energy": -23.13, 
			 "cosmo_repulsion_energy": 1.79, 
			 "cosmo_total_nonelectrostatic_energy": 9.98, 
			 "SMD_solvation_energy": 4.57 
		},
		"coords": [
			{
				"x": 4.2341302059,
				"y": -1.4967085531,
				"z": -3.5865659598,
				"element": "O" 
			},
			{
				"x": 4.5956611566,
				"y": -0.6021673956,
				"z": -2.8210296044,
				"element": "N" 
			},
			{
				"x": 5.7044887168,
				"y": -0.0700661894,
				"z": -2.840836064,
				"element": "O" 
			},
			{
				"x": 3.6311388257,
				"y": -0.1377823036,
				"z": -1.8111859755,
				"element": "C" 
			},
			{
				"x": 2.377083457,
				"y": -0.7395860517,
				"z": -1.7887378585,
				"element": "C" 
			},
			{
				"x": 1.5092248456,
				"y": -0.2603171569,
				"z": -0.8126830478,
				"element": "C" 
			},
			{
				"x": 1.8682947042,
				"y": 0.7685526264,
				"z": 0.0969854061,
				"element": "C" 
			},
			{
				"x": 3.1447037632,
				"y": 1.3473331455,
				"z": 0.0373402379,
				"element": "C" 
			},
			{
				"x": 4.0266665483,
				"y": 0.8844421731,
				"z": -0.9269291015,
				"element": "C" 
			},
			{
				"x": 0.8159322877,
				"y": 1.0444580319,
				"z": 0.9496536018,
				"element": "N" 
			},
			{
				"x": -0.1358489965,
				"y": 0.227164774,
				"z": 0.5784678519,
				"element": "C" 
			},
			{
				"x": 0.2109652191,
				"y": -0.5877746518,
				"z": -0.4737461682,
				"element": "N" 
			},
			{
				"x": -1.4934456751,
				"y": 0.1177476503,
				"z": 1.2232454711,
				"element": "C" 
			},
			{
				"x": -1.7265500525,
				"y": 1.3661308229,
				"z": 2.4598674382,
				"element": "Cl" 
			},
			{
				"x": -1.6566057827,
				"y": -1.528544014,
				"z": 1.9755542678,
				"element": "Cl" 
			},
			{
				"x": -2.7736505504,
				"y": 0.2765067505,
				"z": -0.0572845242,
				"element": "Cl" 
			},
			{
				"x": 2.130815956,
				"y": -1.5217443605,
				"z": -2.4951684792,
				"element": "H" 
			},
			{
				"x": 3.423296395,
				"y": 2.1332251003,
				"z": 0.7302860461,
				"element": "H" 
			},
			{
				"x": 5.0252784669,
				"y": 1.2901013496,
				"z": -1.0233193297,
				"element": "H" 
			},
			{
				"x": -0.3816794907,
				"y": -1.274971748,
				"z": -0.915514208,
				"element": "H" 
			}
		],
		 "valence_orbital": [ 
			{
				"type": "occ",
				"energy": -0.31307,
				"method": "rhf"
			},
			{
				"type": "occ",
				"energy": -0.3107,
				"method": "rhf"
			},
			{
				"type": "occ",
				"energy": -0.29526,
				"method": "rhf"
			},
			{
				"type": "occ",
				"energy": -0.27024,
				"method": "rhf"
			},
			{
				"type": "occ",
				"energy": -0.26738,
				"method": "rhf"
			},
			{
				"type": "unocc",
				"energy": -0.10021,
				"method": "rhf"
			},
			{
				"type": "unocc",
				"energy": -0.06281,
				"method": "rhf"
			},
			{
				"type": "unocc",
				"energy": -0.061,
				"method": "rhf"
			},
			{
				"type": "unocc",
				"energy": -0.02459,
				"method": "rhf"
			},
			{
				"type": "unocc",
				"energy": -0.01781,
				"method": "rhf"
			}
		],
		"cosmo_sigma_profile": { 
			"-0.025": 0.0,
			"-0.024": 0.0,
			"-0.023": 0.0,
			"-0.022": 0.0,
			"-0.021": 0.0,
			"-0.02": 0.0,
			"-0.019": 0.0,
			"-0.018": 0.864561686049,
			"-0.017": 1.24468571185,
			"-0.016": 1.12848999059,
			"-0.015": 1.0372736391,
			"-0.014": 1.14427324649,
			"-0.013": 1.26175605354,
			"-0.012": 1.04489232383,
			"-0.011": 2.43219483317,
			"-0.01": 1.09888827599,
			"-0.009": 2.26351244347,
			"-0.008": 3.51855554526,
			"-0.007": 5.40421196165,
			"-0.006": 6.10060083536,
			"-0.005": 9.67625787144,
			"-0.004": 11.2108184133,
			"-0.003": 15.5005190155,
			"-0.002": 21.1576825896,
			"-0.001": 24.6240810278,
			"0.0": 27.5105913674,
			"0.001": 26.055456381,
			"0.002": 34.4532626729,
			"0.003": 14.4723983399,
			"0.004": 4.50240070756,
			"0.005": 5.44646275052,
			"0.006": 5.21995602288,
			"0.007": 8.89685005238,
			"0.008": 8.43042018495,
			"0.009": 5.92217626068,
			"0.01": 3.93640889672,
			"0.011": 1.06279913204,
			"0.012": 0.962232764087,
			"0.013": 1.02349869975,
			"0.014": 0.553441729355,
			"0.015": 0.0338202659076,
			"0.016": 0.0,
			"0.017": 0.0,
			"0.018": 0.0,
			"0.019": 0.0,
			"0.02": 0.0,
			"0.021": 0.0,
			"0.022": 0.0,
			"0.023": 0.0,
			"0.024": 0.0,
			"0.025": 0.0
		}
	}
}
