{
	 "smiles": "CCOC(=O)C1=C(C)N=C(S1)C1=CC=C(C=C1)C(F)(F)F", 
	 "Tm": 361.15, 
	 "num_atms": 33, 
	 "gaussian": { 
		 "optdone": 1, 
		 "sigma_profile": "yes", 
		 "theory": "DFT", 
		 "functional": "B3LYP", 
		 "basiset": "6-31G**", 
		 "properties": { 
			 "R2extent": 14329.6744, 
			 "electric_dipole_moment_norm": 2.45616568252, 
			 "electric_quadrupole_moment_norm": 18.9212544957, 
			 "total_energy": -1443.66474376, 
			 "HOMO_LUMO_gap": 0.15468, 
			 "cosmo_polarized_energy": -8.47, 
			 "cosmo_cavitation_energy": 40.82, 
			 "cosmo_dispersion_energy": -29.42, 
			 "cosmo_repulsion_energy": 2.16, 
			 "cosmo_total_nonelectrostatic_energy": 13.56, 
			 "SMD_solvation_energy": 7.7 
		},
		"coords": [
			{
				"x": -2.1438826272,
				"y": -2.9292108125,
				"z": -2.943903612,
				"element": "C" 
			},
			{
				"x": -1.353076921,
				"y": -1.8224939655,
				"z": -3.6246144734,
				"element": "C" 
			},
			{
				"x": -0.5759880917,
				"y": -1.0638885427,
				"z": -2.6657678134,
				"element": "O" 
			},
			{
				"x": -1.210870368,
				"y": -0.0441305117,
				"z": -2.0393648514,
				"element": "C" 
			},
			{
				"x": -2.3718382999,
				"y": 0.2596577742,
				"z": -2.2472666014,
				"element": "O" 
			},
			{
				"x": -0.3107351031,
				"y": 0.6331791753,
				"z": -1.0936008487,
				"element": "C" 
			},
			{
				"x": -0.5798346652,
				"y": 1.712755413,
				"z": -0.2686974536,
				"element": "C" 
			},
			{
				"x": -1.8761024208,
				"y": 2.4557154015,
				"z": -0.1487336947,
				"element": "C" 
			},
			{
				"x": 0.4753000462,
				"y": 2.1174407393,
				"z": 0.5051066446,
				"element": "N" 
			},
			{
				"x": 1.5495647752,
				"y": 1.3892066903,
				"z": 0.3076595797,
				"element": "C" 
			},
			{
				"x": 1.3429419287,
				"y": 0.1145454494,
				"z": -0.8768823371,
				"element": "S" 
			},
			{
				"x": 2.8158080969,
				"y": 1.6211963234,
				"z": 1.0161523886,
				"element": "C" 
			},
			{
				"x": 3.9536756765,
				"y": 0.8291478022,
				"z": 0.7921586305,
				"element": "C" 
			},
			{
				"x": 5.1356988707,
				"y": 1.0770927391,
				"z": 1.4818567321,
				"element": "C" 
			},
			{
				"x": 5.1969638219,
				"y": 2.1215150836,
				"z": 2.4081578694,
				"element": "C" 
			},
			{
				"x": 4.0697683162,
				"y": 2.9161289241,
				"z": 2.6409069384,
				"element": "C" 
			},
			{
				"x": 2.8887994305,
				"y": 2.6686510367,
				"z": 1.9518193023,
				"element": "C" 
			},
			{
				"x": 6.4909449532,
				"y": 2.4282516181,
				"z": 3.1128904515,
				"element": "C" 
			},
			{
				"x": 6.281639572,
				"y": 2.9455646282,
				"z": 4.3432423685,
				"element": "F" 
			},
			{
				"x": 7.2583814956,
				"y": 1.3256462328,
				"z": 3.2583035119,
				"element": "F" 
			},
			{
				"x": 7.2276460069,
				"y": 3.3326462246,
				"z": 2.4266320754,
				"element": "F" 
			},
			{
				"x": -1.4823512882,
				"y": -3.5861370486,
				"z": -2.371700189,
				"element": "H" 
			},
			{
				"x": -2.6596062664,
				"y": -3.5327830295,
				"z": -3.6981808413,
				"element": "H" 
			},
			{
				"x": -2.8944956581,
				"y": -2.5075764109,
				"z": -2.271072493,
				"element": "H" 
			},
			{
				"x": -0.6083257261,
				"y": -2.2257621776,
				"z": -4.3145111612,
				"element": "H" 
			},
			{
				"x": -2.0128076152,
				"y": -1.136750354,
				"z": -4.1610873168,
				"element": "H" 
			},
			{
				"x": -1.7202920985,
				"y": 3.5104591448,
				"z": -0.4001215138,
				"element": "H" 
			},
			{
				"x": -2.6357505494,
				"y": 2.033773382,
				"z": -0.8036315133,
				"element": "H" 
			},
			{
				"x": -2.2242026007,
				"y": 2.422796032,
				"z": 0.8892454148,
				"element": "H" 
			},
			{
				"x": 3.9204080986,
				"y": 0.0114921921,
				"z": 0.0781254071,
				"element": "H" 
			},
			{
				"x": 6.0080501568,
				"y": 0.4566725967,
				"z": 1.3090484622,
				"element": "H" 
			},
			{
				"x": 4.1179447782,
				"y": 3.7204442819,
				"z": 3.3670092613,
				"element": "H" 
			},
			{
				"x": 2.0061242755,
				"y": 3.2735539676,
				"z": 2.1238216755,
				"element": "H" 
			}
		],
		 "valence_orbital": [ 
			{
				"type": "occ",
				"energy": -0.28688,
				"method": "rhf"
			},
			{
				"type": "occ",
				"energy": -0.28445,
				"method": "rhf"
			},
			{
				"type": "occ",
				"energy": -0.28199,
				"method": "rhf"
			},
			{
				"type": "occ",
				"energy": -0.27476,
				"method": "rhf"
			},
			{
				"type": "occ",
				"energy": -0.23786,
				"method": "rhf"
			},
			{
				"type": "unocc",
				"energy": -0.08318,
				"method": "rhf"
			},
			{
				"type": "unocc",
				"energy": -0.0287,
				"method": "rhf"
			},
			{
				"type": "unocc",
				"energy": -0.02197,
				"method": "rhf"
			},
			{
				"type": "unocc",
				"energy": 0.0118,
				"method": "rhf"
			},
			{
				"type": "unocc",
				"energy": 0.02727,
				"method": "rhf"
			}
		],
		"cosmo_sigma_profile": { 
			"-0.025": 0.0,
			"-0.024": 0.0,
			"-0.023": 0.0,
			"-0.022": 0.0,
			"-0.021": 0.0,
			"-0.02": 0.0,
			"-0.019": 0.0,
			"-0.018": 0.0,
			"-0.017": 0.0,
			"-0.016": 0.0,
			"-0.015": 0.0,
			"-0.014": 0.0,
			"-0.013": 0.0,
			"-0.012": 0.0,
			"-0.011": 0.0,
			"-0.01": 0.0,
			"-0.009": 0.0176151521423,
			"-0.008": 2.26252170534,
			"-0.007": 6.12682492951,
			"-0.006": 10.4962065902,
			"-0.005": 16.261698073,
			"-0.004": 20.8028991738,
			"-0.003": 23.5331943146,
			"-0.002": 28.5953832334,
			"-0.001": 35.8645811632,
			"0.0": 41.4409157083,
			"0.001": 33.0533275148,
			"0.002": 42.5153084648,
			"0.003": 34.6058076626,
			"0.004": 7.7794068526,
			"0.005": 5.56125307112,
			"0.006": 4.37762944746,
			"0.007": 2.68505708795,
			"0.008": 2.87138648453,
			"0.009": 2.59390586883,
			"0.01": 3.13956458499,
			"0.011": 3.18174159197,
			"0.012": 1.04976540691,
			"0.013": 0.0,
			"0.014": 0.0,
			"0.015": 0.0,
			"0.016": 0.0,
			"0.017": 0.0,
			"0.018": 0.0,
			"0.019": 0.0,
			"0.02": 0.0,
			"0.021": 0.0,
			"0.022": 0.0,
			"0.023": 0.0,
			"0.024": 0.0,
			"0.025": 0.0
		}
	}
}
