{
	 "smiles": "NS(=O)(=O)C1=CC2=C(NC(CC3=CC=C(F)C=C3)NS2(=O)=O)C=C1Cl", 
	 "Tm": 512.15, 
	 "num_atms": 38, 
	 "gaussian": { 
		 "optdone": 1, 
		 "sigma_profile": "yes", 
		 "theory": "DFT", 
		 "functional": "B3LYP", 
		 "basiset": "6-31G**", 
		 "properties": { 
			 "R2extent": 18120.838, 
			 "electric_dipole_moment_norm": 9.59461487971, 
			 "electric_quadrupole_moment_norm": 46.4106172326, 
			 "total_energy": -2362.73025622, 
			 "HOMO_LUMO_gap": 0.18742, 
			 "cosmo_polarized_energy": -38.38, 
			 "cosmo_cavitation_energy": 47.09, 
			 "cosmo_dispersion_energy": -34.1, 
			 "cosmo_repulsion_energy": 2.45, 
			 "cosmo_total_nonelectrostatic_energy": 15.44, 
			 "SMD_solvation_energy": 5.21 
		},
		"coords": [
			{
				"x": -6.2856594657,
				"y": -2.5690884227,
				"z": 3.759052613,
				"element": "N" 
			},
			{
				"x": -5.3498002608,
				"y": -1.2043416325,
				"z": 3.9947449673,
				"element": "S" 
			},
			{
				"x": -4.299110364,
				"y": -1.5975124704,
				"z": 4.9306119264,
				"element": "O" 
			},
			{
				"x": -6.2717845788,
				"y": -0.1072171051,
				"z": 4.2636328212,
				"element": "O" 
			},
			{
				"x": -4.5066431905,
				"y": -0.8593822231,
				"z": 2.4329269788,
				"element": "C" 
			},
			{
				"x": -3.1125320762,
				"y": -0.8564776936,
				"z": 2.4501424235,
				"element": "C" 
			},
			{
				"x": -2.3804074434,
				"y": -0.5524210968,
				"z": 1.3075341563,
				"element": "C" 
			},
			{
				"x": -3.0247530882,
				"y": -0.2023881081,
				"z": 0.0962017084,
				"element": "C" 
			},
			{
				"x": -2.3323464863,
				"y": 0.1932728635,
				"z": -1.0245246659,
				"element": "N" 
			},
			{
				"x": -0.8792276157,
				"y": 0.0298647185,
				"z": -1.1712556539,
				"element": "C" 
			},
			{
				"x": -0.3802471805,
				"y": 0.8924651946,
				"z": -2.3450356948,
				"element": "C" 
			},
			{
				"x": 1.0526974212,
				"y": 0.6099385937,
				"z": -2.7392908739,
				"element": "C" 
			},
			{
				"x": 1.3434181004,
				"y": -0.3735949719,
				"z": -3.6941726406,
				"element": "C" 
			},
			{
				"x": 2.6582064625,
				"y": -0.6633888829,
				"z": -4.056735185,
				"element": "C" 
			},
			{
				"x": 3.6866125468,
				"y": 0.048543882,
				"z": -3.4503949359,
				"element": "C" 
			},
			{
				"x": 4.9609198533,
				"y": -0.2191568648,
				"z": -3.7977530742,
				"element": "F" 
			},
			{
				"x": 3.4377387405,
				"y": 1.0334123699,
				"z": -2.5011954441,
				"element": "C" 
			},
			{
				"x": 2.1164662457,
				"y": 1.3067150126,
				"z": -2.1514153003,
				"element": "C" 
			},
			{
				"x": -0.2059096867,
				"y": 0.3953277824,
				"z": 0.0695127107,
				"element": "N" 
			},
			{
				"x": -0.5963231315,
				"y": -0.630775973,
				"z": 1.3636705769,
				"element": "S" 
			},
			{
				"x": -0.1184437358,
				"y": 0.0117313818,
				"z": 2.583652462,
				"element": "O" 
			},
			{
				"x": -0.168541398,
				"y": -1.973818836,
				"z": 0.9788650997,
				"element": "O" 
			},
			{
				"x": -4.4351940589,
				"y": -0.2108215396,
				"z": 0.0858975725,
				"element": "C" 
			},
			{
				"x": -5.1531155751,
				"y": -0.5352218233,
				"z": 1.2264241458,
				"element": "C" 
			},
			{
				"x": -6.9014515557,
				"y": -0.5466091753,
				"z": 1.089082041,
				"element": "Cl" 
			},
			{
				"x": -5.7352979483,
				"y": -3.404786418,
				"z": 3.5904339353,
				"element": "H" 
			},
			{
				"x": -7.0431050657,
				"y": -2.4298210867,
				"z": 3.0981398051,
				"element": "H" 
			},
			{
				"x": -2.6014524411,
				"y": -1.0877651872,
				"z": 3.3790748311,
				"element": "H" 
			},
			{
				"x": -2.8679617163,
				"y": 0.2815076814,
				"z": -1.87621691,
				"element": "H" 
			},
			{
				"x": -0.6205785805,
				"y": -1.0204293806,
				"z": -1.3557192523,
				"element": "H" 
			},
			{
				"x": -0.5157883796,
				"y": 1.9483419322,
				"z": -2.0809654976,
				"element": "H" 
			},
			{
				"x": -1.0389544776,
				"y": 0.6976450979,
				"z": -3.2008265909,
				"element": "H" 
			},
			{
				"x": 0.5325263221,
				"y": -0.9215785276,
				"z": -4.1680414716,
				"element": "H" 
			},
			{
				"x": 2.892520666,
				"y": -1.4209310556,
				"z": -4.796475574,
				"element": "H" 
			},
			{
				"x": 4.2676541034,
				"y": 1.5675724282,
				"z": -2.0519337054,
				"element": "H" 
			},
			{
				"x": 1.9143954575,
				"y": 2.0721385563,
				"z": -1.4081089262,
				"element": "H" 
			},
			{
				"x": -0.3728146506,
				"y": 1.362181907,
				"z": 0.3484986367,
				"element": "H" 
			},
			{
				"x": -4.9690117677,
				"y": 0.0440690728,
				"z": -0.8236380147,
				"element": "H" 
			}
		],
		 "valence_orbital": [ 
			{
				"type": "occ",
				"energy": -0.30178,
				"method": "rhf"
			},
			{
				"type": "occ",
				"energy": -0.2821,
				"method": "rhf"
			},
			{
				"type": "occ",
				"energy": -0.27249,
				"method": "rhf"
			},
			{
				"type": "occ",
				"energy": -0.25386,
				"method": "rhf"
			},
			{
				"type": "occ",
				"energy": -0.2482,
				"method": "rhf"
			},
			{
				"type": "unocc",
				"energy": -0.06078,
				"method": "rhf"
			},
			{
				"type": "unocc",
				"energy": -0.04741,
				"method": "rhf"
			},
			{
				"type": "unocc",
				"energy": -0.0246,
				"method": "rhf"
			},
			{
				"type": "unocc",
				"energy": -0.01722,
				"method": "rhf"
			},
			{
				"type": "unocc",
				"energy": -0.00739,
				"method": "rhf"
			}
		],
		"cosmo_sigma_profile": { 
			"-0.025": 0.0,
			"-0.024": 0.0,
			"-0.023": 0.0,
			"-0.022": 0.0,
			"-0.021": 0.0,
			"-0.02": 0.0,
			"-0.019": 0.0,
			"-0.018": 0.0,
			"-0.017": 0.0,
			"-0.016": 1.31953858727,
			"-0.015": 4.47209328416,
			"-0.014": 4.40950381209,
			"-0.013": 5.63900745618,
			"-0.012": 5.19335585915,
			"-0.011": 5.93702857941,
			"-0.01": 5.31115685199,
			"-0.009": 5.76971200941,
			"-0.008": 6.7722633429,
			"-0.007": 14.4415604172,
			"-0.006": 18.0482343307,
			"-0.005": 17.8136417549,
			"-0.004": 17.9984117681,
			"-0.003": 19.3031657678,
			"-0.002": 16.9119723228,
			"-0.001": 22.6948368538,
			"0.0": 26.3003351343,
			"0.001": 22.6397665569,
			"0.002": 20.5426588431,
			"0.003": 21.3552794128,
			"0.004": 24.8012150635,
			"0.005": 13.3993308155,
			"0.006": 8.88754111686,
			"0.007": 9.6653772952,
			"0.008": 9.34417917064,
			"0.009": 10.0757935453,
			"0.01": 21.5508090312,
			"0.011": 16.0146258118,
			"0.012": 1.49138815711,
			"0.013": 0.0,
			"0.014": 0.0,
			"0.015": 0.0,
			"0.016": 0.0,
			"0.017": 0.0,
			"0.018": 0.0,
			"0.019": 0.0,
			"0.02": 0.0,
			"0.021": 0.0,
			"0.022": 0.0,
			"0.023": 0.0,
			"0.024": 0.0,
			"0.025": 0.0
		}
	}
}
