{
	 "smiles": "CC1(C)CN1P(=O)(NC(=O)NC1CC(C)(C)N(O)C1(C)C)N1CC1(C)C", 
	 "Tm": 475.15, 
	 "num_atms": 60, 
	 "gaussian": { 
		 "optdone": 1, 
		 "sigma_profile": "yes", 
		 "theory": "DFT", 
		 "functional": "B3LYP", 
		 "basiset": "6-31G**", 
		 "properties": { 
			 "R2extent": 10843.6193, 
			 "electric_dipole_moment_norm": 5.26604643922, 
			 "electric_quadrupole_moment_norm": 18.7701572029, 
			 "total_energy": -1509.05849673, 
			 "HOMO_LUMO_gap": 0.25444, 
			 "cosmo_polarized_energy": -24.18, 
			 "cosmo_cavitation_energy": 57.82, 
			 "cosmo_dispersion_energy": -34.9, 
			 "cosmo_repulsion_energy": 2.55, 
			 "cosmo_total_nonelectrostatic_energy": 25.47, 
			 "SMD_solvation_energy": 8.42 
		},
		"coords": [
			{
				"x": -3.1390525677,
				"y": -3.8088021821,
				"z": 1.2465186379,
				"element": "C" 
			},
			{
				"x": -3.3425157688,
				"y": -2.365122902,
				"z": 0.8165930067,
				"element": "C" 
			},
			{
				"x": -3.5640540514,
				"y": -1.3894847806,
				"z": 1.9578094757,
				"element": "C" 
			},
			{
				"x": -3.9693280408,
				"y": -2.0878970613,
				"z": -0.5072768612,
				"element": "C" 
			},
			{
				"x": -2.5402979632,
				"y": -1.7907739048,
				"z": -0.2926750528,
				"element": "N" 
			},
			{
				"x": -1.3373336923,
				"y": -2.6277893682,
				"z": -1.1394482385,
				"element": "P" 
			},
			{
				"x": -1.6912279124,
				"y": -3.9369199501,
				"z": -1.7680647528,
				"element": "O" 
			},
			{
				"x": -0.0663902342,
				"y": -2.8285240239,
				"z": -0.0415873546,
				"element": "N" 
			},
			{
				"x": 0.5597783441,
				"y": -1.9410105166,
				"z": 0.8630728732,
				"element": "C" 
			},
			{
				"x": 1.1164655151,
				"y": -2.3809042253,
				"z": 1.8648701528,
				"element": "O" 
			},
			{
				"x": 0.5095998322,
				"y": -0.6246863112,
				"z": 0.5293169557,
				"element": "N" 
			},
			{
				"x": 1.0001420808,
				"y": 0.387608013,
				"z": 1.4562094456,
				"element": "C" 
			},
			{
				"x": 0.325377423,
				"y": 1.7533955189,
				"z": 1.2311090333,
				"element": "C" 
			},
			{
				"x": 1.3480315503,
				"y": 2.5941199813,
				"z": 0.4299030114,
				"element": "C" 
			},
			{
				"x": 1.1468712254,
				"y": 4.1034954809,
				"z": 0.5984351319,
				"element": "C" 
			},
			{
				"x": 1.2930604729,
				"y": 2.268802411,
				"z": -1.0761156852,
				"element": "C" 
			},
			{
				"x": 2.683327809,
				"y": 2.1425908426,
				"z": 0.9426351622,
				"element": "N" 
			},
			{
				"x": 3.1539867866,
				"y": 3.0002857722,
				"z": 1.9832680113,
				"element": "O" 
			},
			{
				"x": 2.5583029636,
				"y": 0.702153392,
				"z": 1.3988203079,
				"element": "C" 
			},
			{
				"x": 3.3302667081,
				"y": -0.176984799,
				"z": 0.4027454833,
				"element": "C" 
			},
			{
				"x": 3.1576915898,
				"y": 0.4763294183,
				"z": 2.7960480528,
				"element": "C" 
			},
			{
				"x": -0.7574902139,
				"y": -1.3883362652,
				"z": -2.1474215323,
				"element": "N" 
			},
			{
				"x": -0.0911438279,
				"y": -1.7426979477,
				"z": -3.4168664606,
				"element": "C" 
			},
			{
				"x": -1.3700245783,
				"y": -0.9759583824,
				"z": -3.4382699155,
				"element": "C" 
			},
			{
				"x": -2.6273072643,
				"y": -1.6624822527,
				"z": -3.9456220525,
				"element": "C" 
			},
			{
				"x": -1.3299087732,
				"y": 0.5215383986,
				"z": -3.6766901385,
				"element": "C" 
			},
			{
				"x": -4.01774573,
				"y": -4.152578949,
				"z": 1.8028640825,
				"element": "H" 
			},
			{
				"x": -2.9880913041,
				"y": -4.469269779,
				"z": 0.3898117325,
				"element": "H" 
			},
			{
				"x": -2.272765018,
				"y": -3.8940567641,
				"z": 1.9115091319,
				"element": "H" 
			},
			{
				"x": -2.7069352377,
				"y": -1.3959639282,
				"z": 2.6394600989,
				"element": "H" 
			},
			{
				"x": -3.6947304595,
				"y": -0.3717286553,
				"z": 1.5819439588,
				"element": "H" 
			},
			{
				"x": -4.4541668959,
				"y": -1.6695052918,
				"z": 2.5322608309,
				"element": "H" 
			},
			{
				"x": -4.6048173417,
				"y": -1.2143342447,
				"z": -0.6412903612,
				"element": "H" 
			},
			{
				"x": -4.2104777308,
				"y": -2.9416851272,
				"z": -1.137948569,
				"element": "H" 
			},
			{
				"x": 0.096380624,
				"y": -3.7936792799,
				"z": 0.2205324651,
				"element": "H" 
			},
			{
				"x": 0.0992768751,
				"y": -0.3702211276,
				"z": -0.3627789332,
				"element": "H" 
			},
			{
				"x": 0.7747108227,
				"y": 0.0002003831,
				"z": 2.4521615595,
				"element": "H" 
			},
			{
				"x": -0.6502883935,
				"y": 1.6620695314,
				"z": 0.7430717875,
				"element": "H" 
			},
			{
				"x": 0.1464770911,
				"y": 2.2310423608,
				"z": 2.2026186277,
				"element": "H" 
			},
			{
				"x": 1.9581592055,
				"y": 4.6575359455,
				"z": 0.119249274,
				"element": "H" 
			},
			{
				"x": 0.201686263,
				"y": 4.3961783062,
				"z": 0.1292491919,
				"element": "H" 
			},
			{
				"x": 1.1086310314,
				"y": 4.4072172883,
				"z": 1.6466318732,
				"element": "H" 
			},
			{
				"x": 1.4137345297,
				"y": 1.2030168109,
				"z": -1.2808635152,
				"element": "H" 
			},
			{
				"x": 2.0948500111,
				"y": 2.7983369396,
				"z": -1.5976660424,
				"element": "H" 
			},
			{
				"x": 0.3316237296,
				"y": 2.5856761466,
				"z": -1.4950601871,
				"element": "H" 
			},
			{
				"x": 2.5272186213,
				"y": 2.9498233874,
				"z": 2.7281266095,
				"element": "H" 
			},
			{
				"x": 4.3829581122,
				"y": 0.1191108986,
				"z": 0.4131003089,
				"element": "H" 
			},
			{
				"x": 3.256103682,
				"y": -1.230786819,
				"z": 0.6839960415,
				"element": "H" 
			},
			{
				"x": 2.9651654464,
				"y": -0.0662660055,
				"z": -0.6200104118,
				"element": "H" 
			},
			{
				"x": 2.6111879714,
				"y": 1.0100877955,
				"z": 3.5823362195,
				"element": "H" 
			},
			{
				"x": 3.0836990091,
				"y": -0.5902328528,
				"z": 3.0235588745,
				"element": "H" 
			},
			{
				"x": 4.2030027691,
				"y": 0.7877081317,
				"z": 2.8389164569,
				"element": "H" 
			},
			{
				"x": -0.1231949449,
				"y": -2.7887257429,
				"z": -3.7151307716,
				"element": "H" 
			},
			{
				"x": 0.855013334,
				"y": -1.2355740225,
				"z": -3.5924710046,
				"element": "H" 
			},
			{
				"x": -2.611317176,
				"y": -2.7354859962,
				"z": -3.7461862043,
				"element": "H" 
			},
			{
				"x": -3.5188475775,
				"y": -1.2326507505,
				"z": -3.475193692,
				"element": "H" 
			},
			{
				"x": -2.7172035657,
				"y": -1.5048284961,
				"z": -5.0259171069,
				"element": "H" 
			},
			{
				"x": -2.1634618081,
				"y": 1.0149593192,
				"z": -3.1651883352,
				"element": "H" 
			},
			{
				"x": -0.3971878095,
				"y": 0.9554170179,
				"z": -3.3094437259,
				"element": "H" 
			},
			{
				"x": -1.4166755482,
				"y": 0.737149214,
				"z": -4.7473669616,
				"element": "H" 
			}
		],
		 "valence_orbital": [ 
			{
				"type": "occ",
				"energy": -0.26787,
				"method": "rhf"
			},
			{
				"type": "occ",
				"energy": -0.25579,
				"method": "rhf"
			},
			{
				"type": "occ",
				"energy": -0.25109,
				"method": "rhf"
			},
			{
				"type": "occ",
				"energy": -0.24473,
				"method": "rhf"
			},
			{
				"type": "occ",
				"energy": -0.21238,
				"method": "rhf"
			},
			{
				"type": "unocc",
				"energy": 0.04206,
				"method": "rhf"
			},
			{
				"type": "unocc",
				"energy": 0.05086,
				"method": "rhf"
			},
			{
				"type": "unocc",
				"energy": 0.06205,
				"method": "rhf"
			},
			{
				"type": "unocc",
				"energy": 0.06608,
				"method": "rhf"
			},
			{
				"type": "unocc",
				"energy": 0.07735,
				"method": "rhf"
			}
		],
		"cosmo_sigma_profile": { 
			"-0.025": 0.0,
			"-0.024": 0.0,
			"-0.023": 0.0,
			"-0.022": 0.0,
			"-0.021": 0.0,
			"-0.02": 0.0,
			"-0.019": 0.0,
			"-0.018": 0.0,
			"-0.017": 0.0,
			"-0.016": 0.0,
			"-0.015": 0.0,
			"-0.014": 0.895705281876,
			"-0.013": 1.85023739279,
			"-0.012": 2.16362660454,
			"-0.011": 2.15971437587,
			"-0.01": 2.00731717364,
			"-0.009": 1.61245939245,
			"-0.008": 2.80314190662,
			"-0.007": 3.28781002525,
			"-0.006": 7.00518200155,
			"-0.005": 12.9851297102,
			"-0.004": 36.9255258659,
			"-0.003": 54.0531681879,
			"-0.002": 58.8572507532,
			"-0.001": 62.5851245215,
			"0.0": 61.9275950418,
			"0.001": 38.4438686088,
			"0.002": 16.0272143488,
			"0.003": 8.80625875418,
			"0.004": 8.51567065569,
			"0.005": 7.31852488949,
			"0.006": 5.98012581475,
			"0.007": 6.00360126985,
			"0.008": 5.58595145345,
			"0.009": 4.99616508198,
			"0.01": 4.36444087051,
			"0.011": 4.25360819538,
			"0.012": 4.70221419148,
			"0.013": 6.59569672868,
			"0.014": 8.77522343362,
			"0.015": 3.97997873317,
			"0.016": 0.766535425533,
			"0.017": 0.141761533538,
			"0.018": 0.0,
			"0.019": 0.0,
			"0.02": 0.0,
			"0.021": 0.0,
			"0.022": 0.0,
			"0.023": 0.0,
			"0.024": 0.0,
			"0.025": 0.0
		}
	}
}
