{
	 "smiles": "CCC1=CC=C(NC2=NN=C(S)S2)C=C1", 
	 "Tm": 425.15, 
	 "num_atms": 26, 
	 "gaussian": { 
		 "optdone": 1, 
		 "sigma_profile": "yes", 
		 "theory": "DFT", 
		 "functional": "B3LYP", 
		 "basiset": "6-31G**", 
		 "properties": { 
			 "R2extent": 6687.1611, 
			 "electric_dipole_moment_norm": 4.86429552865, 
			 "electric_quadrupole_moment_norm": 25.6298126292, 
			 "total_energy": -1348.29234758, 
			 "HOMO_LUMO_gap": 0.16918, 
			 "cosmo_polarized_energy": -14.17, 
			 "cosmo_cavitation_energy": 33.66, 
			 "cosmo_dispersion_energy": -25.51, 
			 "cosmo_repulsion_energy": 1.92, 
			 "cosmo_total_nonelectrostatic_energy": 10.07, 
			 "SMD_solvation_energy": 3.0 
		},
		"coords": [
			{
				"x": -4.4940580295,
				"y": -0.8824423689,
				"z": 0.0676589445,
				"element": "C" 
			},
			{
				"x": -3.5976959265,
				"y": -1.7875596522,
				"z": 0.9322894345,
				"element": "C" 
			},
			{
				"x": -2.1236646681,
				"y": -1.6187066259,
				"z": 0.6334284809,
				"element": "C" 
			},
			{
				"x": -1.3457468992,
				"y": -0.6781823618,
				"z": 1.318243225,
				"element": "C" 
			},
			{
				"x": 0.0057997978,
				"y": -0.4888966056,
				"z": 1.0309577151,
				"element": "C" 
			},
			{
				"x": 0.6150960111,
				"y": -1.2380861463,
				"z": 0.0153348646,
				"element": "C" 
			},
			{
				"x": 1.972936962,
				"y": -1.1114701116,
				"z": -0.329415409,
				"element": "N" 
			},
			{
				"x": 2.8447105095,
				"y": -0.0749080704,
				"z": -0.1681788269,
				"element": "C" 
			},
			{
				"x": 4.1225467037,
				"y": -0.2370541227,
				"z": -0.4468425411,
				"element": "N" 
			},
			{
				"x": 4.8373955683,
				"y": 0.9162895634,
				"z": -0.3507977052,
				"element": "N" 
			},
			{
				"x": 4.1358228233,
				"y": 1.9450757866,
				"z": 0.0134767865,
				"element": "C" 
			},
			{
				"x": 4.8447947373,
				"y": 3.5287661858,
				"z": 0.3590390361,
				"element": "S" 
			},
			{
				"x": 2.4222955193,
				"y": 1.5689297581,
				"z": 0.2960382143,
				"element": "S" 
			},
			{
				"x": -0.1498810988,
				"y": -2.1916910981,
				"z": -0.6747613201,
				"element": "C" 
			},
			{
				"x": -1.4919659769,
				"y": -2.3776814511,
				"z": -0.3621580621,
				"element": "C" 
			},
			{
				"x": -4.2544150422,
				"y": 0.1739101029,
				"z": 0.226904515,
				"element": "H" 
			},
			{
				"x": -5.5514258284,
				"y": -1.031472116,
				"z": 0.3102654372,
				"element": "H" 
			},
			{
				"x": -4.3567183034,
				"y": -1.0958177652,
				"z": -0.9974200024,
				"element": "H" 
			},
			{
				"x": -3.7821404696,
				"y": -1.5713673547,
				"z": 1.9913883377,
				"element": "H" 
			},
			{
				"x": -3.884555781,
				"y": -2.8343576861,
				"z": 0.7755419907,
				"element": "H" 
			},
			{
				"x": -1.797645777,
				"y": -0.0882547589,
				"z": 2.1119646877,
				"element": "H" 
			},
			{
				"x": 0.5816823497,
				"y": 0.2126776134,
				"z": 1.6231597355,
				"element": "H" 
			},
			{
				"x": 2.4029266933,
				"y": -1.8987275334,
				"z": -0.7984866199,
				"element": "H" 
			},
			{
				"x": 4.1197752132,
				"y": 4.2318282879,
				"z": -0.5378409382,
				"element": "H" 
			},
			{
				"x": 0.3130722771,
				"y": -2.7831716931,
				"z": -1.4607089139,
				"element": "H" 
			},
			{
				"x": -2.0617413648,
				"y": -3.1257297762,
				"z": -0.9079810667,
				"element": "H" 
			}
		],
		 "valence_orbital": [ 
			{
				"type": "occ",
				"energy": -0.2822,
				"method": "rhf"
			},
			{
				"type": "occ",
				"energy": -0.26594,
				"method": "rhf"
			},
			{
				"type": "occ",
				"energy": -0.26192,
				"method": "rhf"
			},
			{
				"type": "occ",
				"energy": -0.2564,
				"method": "rhf"
			},
			{
				"type": "occ",
				"energy": -0.21154,
				"method": "rhf"
			},
			{
				"type": "unocc",
				"energy": -0.04236,
				"method": "rhf"
			},
			{
				"type": "unocc",
				"energy": -0.02047,
				"method": "rhf"
			},
			{
				"type": "unocc",
				"energy": -0.00542,
				"method": "rhf"
			},
			{
				"type": "unocc",
				"energy": 0.00408,
				"method": "rhf"
			},
			{
				"type": "unocc",
				"energy": 0.02023,
				"method": "rhf"
			}
		],
		"cosmo_sigma_profile": { 
			"-0.025": 0.0,
			"-0.024": 0.0,
			"-0.023": 0.0,
			"-0.022": 0.0,
			"-0.021": 0.0,
			"-0.02": 0.0,
			"-0.019": 0.0,
			"-0.018": 0.0,
			"-0.017": 0.0,
			"-0.016": 0.148919676157,
			"-0.015": 0.977999863658,
			"-0.014": 1.26047593266,
			"-0.013": 0.852795407476,
			"-0.012": 1.31029978537,
			"-0.011": 4.83392343878,
			"-0.01": 3.41631818748,
			"-0.009": 2.5092348522,
			"-0.008": 3.20312260656,
			"-0.007": 3.07084299871,
			"-0.006": 6.61909849297,
			"-0.005": 11.6961055387,
			"-0.004": 14.2916261024,
			"-0.003": 20.1821868556,
			"-0.002": 24.7155161859,
			"-0.001": 29.4485261777,
			"0.0": 30.3696681046,
			"0.001": 26.5526209461,
			"0.002": 17.8961368067,
			"0.003": 13.2813808371,
			"0.004": 12.6636505313,
			"0.005": 12.907261714,
			"0.006": 5.57149814301,
			"0.007": 4.5199580661,
			"0.008": 3.50876207129,
			"0.009": 2.25608596949,
			"0.01": 2.88665611743,
			"0.011": 3.9117028089,
			"0.012": 2.78232390307,
			"0.013": 2.41402151786,
			"0.014": 2.35882897574,
			"0.015": 0.508436298899,
			"0.016": 0.0,
			"0.017": 0.0,
			"0.018": 0.0,
			"0.019": 0.0,
			"0.02": 0.0,
			"0.021": 0.0,
			"0.022": 0.0,
			"0.023": 0.0,
			"0.024": 0.0,
			"0.025": 0.0
		}
	}
}
