{
	 "smiles": "OC(=O)C1=C2C=CC=CC2=NC2=C1CCCC2=CC1=C(Cl)C=CC=C1", 
	 "Tm": 372.15, 
	 "num_atms": 41, 
	 "gaussian": { 
		 "optdone": 1, 
		 "sigma_profile": "yes", 
		 "theory": "DFT", 
		 "functional": "B3LYP", 
		 "basiset": "6-31G**", 
		 "properties": { 
			 "R2extent": 11103.7098, 
			 "electric_dipole_moment_norm": 1.44703462294, 
			 "electric_quadrupole_moment_norm": 20.9958851745, 
			 "total_energy": -1475.29149731, 
			 "HOMO_LUMO_gap": 0.14401, 
			 "cosmo_polarized_energy": -13.62, 
			 "cosmo_cavitation_energy": 45.42, 
			 "cosmo_dispersion_energy": -32.52, 
			 "cosmo_repulsion_energy": 2.45, 
			 "cosmo_total_nonelectrostatic_energy": 15.35, 
			 "SMD_solvation_energy": 6.34 
		},
		"coords": [
			{
				"x": -3.2553382794,
				"y": -2.3362975893,
				"z": 2.4119572629,
				"element": "O" 
			},
			{
				"x": -3.5267440405,
				"y": -1.0284805877,
				"z": 2.1879783521,
				"element": "C" 
			},
			{
				"x": -4.5959325085,
				"y": -0.5350668088,
				"z": 2.4807533513,
				"element": "O" 
			},
			{
				"x": -2.3662195636,
				"y": -0.2916607843,
				"z": 1.5862134736,
				"element": "C" 
			},
			{
				"x": -1.9596942256,
				"y": 0.9378426427,
				"z": 2.1908293552,
				"element": "C" 
			},
			{
				"x": -2.5691833499,
				"y": 1.5247138796,
				"z": 3.3339343739,
				"element": "C" 
			},
			{
				"x": -2.0843101499,
				"y": 2.7039042922,
				"z": 3.8544779996,
				"element": "C" 
			},
			{
				"x": -0.9728365198,
				"y": 3.3568169677,
				"z": 3.2657819309,
				"element": "C" 
			},
			{
				"x": -0.3631552272,
				"y": 2.8163740464,
				"z": 2.1592307271,
				"element": "C" 
			},
			{
				"x": -0.8392217513,
				"y": 1.5998770431,
				"z": 1.5956039074,
				"element": "C" 
			},
			{
				"x": -0.2009921111,
				"y": 1.1128658784,
				"z": 0.5063231419,
				"element": "N" 
			},
			{
				"x": -0.6073812394,
				"y": -0.0154913462,
				"z": -0.055984841,
				"element": "C" 
			},
			{
				"x": -1.7155902148,
				"y": -0.7766296525,
				"z": 0.4587071632,
				"element": "C" 
			},
			{
				"x": -2.1559144577,
				"y": -2.048139903,
				"z": -0.2466202889,
				"element": "C" 
			},
			{
				"x": -1.7248391874,
				"y": -2.0831508182,
				"z": -1.7141658612,
				"element": "C" 
			},
			{
				"x": -0.2181883701,
				"y": -1.8322512667,
				"z": -1.8226911958,
				"element": "C" 
			},
			{
				"x": 0.1417532045,
				"y": -0.4767447613,
				"z": -1.2631181968,
				"element": "C" 
			},
			{
				"x": 1.0567879181,
				"y": 0.3436650818,
				"z": -1.8188214158,
				"element": "C" 
			},
			{
				"x": 1.8712328632,
				"y": 0.1004375297,
				"z": -3.0286906148,
				"element": "C" 
			},
			{
				"x": 2.8060867277,
				"y": -0.9389541183,
				"z": -3.1883320038,
				"element": "C" 
			},
			{
				"x": 3.1402907272,
				"y": -2.0662722337,
				"z": -1.8758651497,
				"element": "Cl" 
			},
			{
				"x": 3.5478438247,
				"y": -1.0915424848,
				"z": -4.36212305,
				"element": "C" 
			},
			{
				"x": 3.3787500881,
				"y": -0.1915125395,
				"z": -5.4111414485,
				"element": "C" 
			},
			{
				"x": 2.4796668125,
				"y": 0.8684874251,
				"z": -5.2760009523,
				"element": "C" 
			},
			{
				"x": 1.750901266,
				"y": 1.0093062079,
				"z": -4.0997132653,
				"element": "C" 
			},
			{
				"x": -4.0655914066,
				"y": -2.7143298818,
				"z": 2.7957670309,
				"element": "H" 
			},
			{
				"x": -3.4314700049,
				"y": 1.0468175438,
				"z": 3.7817858616,
				"element": "H" 
			},
			{
				"x": -2.562319709,
				"y": 3.1413170443,
				"z": 4.7261072649,
				"element": "H" 
			},
			{
				"x": -0.606532367,
				"y": 4.2857524319,
				"z": 3.6930249512,
				"element": "H" 
			},
			{
				"x": 0.4900558757,
				"y": 3.2869370081,
				"z": 1.6819734052,
				"element": "H" 
			},
			{
				"x": -3.2406977237,
				"y": -2.1650168194,
				"z": -0.1678532009,
				"element": "H" 
			},
			{
				"x": -1.7245168367,
				"y": -2.9118939361,
				"z": 0.2765753143,
				"element": "H" 
			},
			{
				"x": -2.2712207761,
				"y": -1.3215545626,
				"z": -2.2849489088,
				"element": "H" 
			},
			{
				"x": -1.9812108596,
				"y": -3.0550723902,
				"z": -2.1493052277,
				"element": "H" 
			},
			{
				"x": 0.313596958,
				"y": -2.6154995246,
				"z": -1.2640638199,
				"element": "H" 
			},
			{
				"x": 0.1202343808,
				"y": -1.9105259954,
				"z": -2.8594579545,
				"element": "H" 
			},
			{
				"x": 1.1693165013,
				"y": 1.3254745877,
				"z": -1.3645022022,
				"element": "H" 
			},
			{
				"x": 4.2587339021,
				"y": -1.9069097312,
				"z": -4.4382363339,
				"element": "H" 
			},
			{
				"x": 3.956695426,
				"y": -0.3132862645,
				"z": -6.3222693838,
				"element": "H" 
			},
			{
				"x": 2.3484655151,
				"y": 1.5829660505,
				"z": -6.0830143118,
				"element": "H" 
			},
			{
				"x": 1.0510888889,
				"y": 1.8333283392,
				"z": -3.9919052399,
				"element": "H" 
			}
		],
		 "valence_orbital": [ 
			{
				"type": "occ",
				"energy": -0.26063,
				"method": "rhf"
			},
			{
				"type": "occ",
				"energy": -0.25123,
				"method": "rhf"
			},
			{
				"type": "occ",
				"energy": -0.2458,
				"method": "rhf"
			},
			{
				"type": "occ",
				"energy": -0.23388,
				"method": "rhf"
			},
			{
				"type": "occ",
				"energy": -0.21697,
				"method": "rhf"
			},
			{
				"type": "unocc",
				"energy": -0.07296,
				"method": "rhf"
			},
			{
				"type": "unocc",
				"energy": -0.037,
				"method": "rhf"
			},
			{
				"type": "unocc",
				"energy": -0.01192,
				"method": "rhf"
			},
			{
				"type": "unocc",
				"energy": -0.00835,
				"method": "rhf"
			},
			{
				"type": "unocc",
				"energy": -0.00748,
				"method": "rhf"
			}
		],
		"cosmo_sigma_profile": { 
			"-0.025": 0.0,
			"-0.024": 0.0,
			"-0.023": 0.0,
			"-0.022": 0.0,
			"-0.021": 0.0,
			"-0.02": 0.0,
			"-0.019": 0.184945232935,
			"-0.018": 0.797042611738,
			"-0.017": 0.954742461065,
			"-0.016": 1.10175786467,
			"-0.015": 0.946484971584,
			"-0.014": 0.27539714427,
			"-0.013": 0.589040845662,
			"-0.012": 0.741909240107,
			"-0.011": 1.10288821885,
			"-0.01": 0.751114847441,
			"-0.009": 0.267620138159,
			"-0.008": 0.650473639362,
			"-0.007": 4.00352012688,
			"-0.006": 16.6494788576,
			"-0.005": 19.0005031027,
			"-0.004": 29.2622119134,
			"-0.003": 29.0675433808,
			"-0.002": 29.8942896548,
			"-0.001": 27.5774418752,
			"0.0": 31.3394196065,
			"0.001": 30.4304771748,
			"0.002": 31.3949367973,
			"0.003": 32.817250264,
			"0.004": 31.4763489348,
			"0.005": 15.2193980162,
			"0.006": 7.20059738021,
			"0.007": 5.02381204317,
			"0.008": 3.97419867851,
			"0.009": 3.48100598977,
			"0.01": 3.43135074218,
			"0.011": 4.66429031582,
			"0.012": 0.773578680438,
			"0.013": 0.0,
			"0.014": 0.0,
			"0.015": 0.0,
			"0.016": 0.0,
			"0.017": 0.0,
			"0.018": 0.0,
			"0.019": 0.0,
			"0.02": 0.0,
			"0.021": 0.0,
			"0.022": 0.0,
			"0.023": 0.0,
			"0.024": 0.0,
			"0.0": 0.0
		}
	}
}
