{
	 "smiles": "CC(C)(Br)C(=O)NC12CC3CC(CC(C3)C1)C2", 
	 "Tm": 387.15, 
	 "num_atms": 39, 
	 "gaussian": { 
		 "optdone": 1, 
		 "sigma_profile": "yes", 
		 "theory": "DFT", 
		 "functional": "B3LYP", 
		 "basiset": "6-31G**", 
		 "properties": { 
			 "R2extent": 6795.818, 
			 "electric_dipole_moment_norm": 1.32448249894, 
			 "electric_quadrupole_moment_norm": 6.59786601031, 
			 "total_energy": -3248.19436732, 
			 "HOMO_LUMO_gap": 0.2311, 
			 "cosmo_polarized_energy": -7.34, 
			 "cosmo_cavitation_energy": 37.75, 
			 "cosmo_dispersion_energy": -27.26, 
			 "cosmo_repulsion_energy": 2.09, 
			 "cosmo_total_nonelectrostatic_energy": 12.57, 
			 "SMD_solvation_energy": 3.93 
		},
		"coords": [
			{
				"x": -1.4176744496,
				"y": 1.8558565479,
				"z": 4.2893652493,
				"element": "C" 
			},
			{
				"x": -0.1213064855,
				"y": 1.5225231372,
				"z": 3.5490565591,
				"element": "C" 
			},
			{
				"x": 0.9377783377,
				"y": 0.9181894614,
				"z": 4.4721929022,
				"element": "C" 
			},
			{
				"x": 0.6344110702,
				"y": 3.2887890108,
				"z": 2.8709226717,
				"element": "Br" 
			},
			{
				"x": -0.4322068644,
				"y": 0.5218370272,
				"z": 2.4043359996,
				"element": "C" 
			},
			{
				"x": -0.8855852431,
				"y": -0.5674849002,
				"z": 2.7580201911,
				"element": "O" 
			},
			{
				"x": -0.2008504917,
				"y": 0.8851117055,
				"z": 1.1264583204,
				"element": "N" 
			},
			{
				"x": -0.4570188428,
				"y": 0.0459224758,
				"z": -0.0588493278,
				"element": "C" 
			},
			{
				"x": -0.0503949586,
				"y": 0.8689827579,
				"z": -1.3008173509,
				"element": "C" 
			},
			{
				"x": -0.2939362794,
				"y": 0.0495131333,
				"z": -2.584885961,
				"element": "C" 
			},
			{
				"x": -1.7898160738,
				"y": -0.3149388174,
				"z": -2.6853711359,
				"element": "C" 
			},
			{
				"x": -2.1997621198,
				"y": -1.1455218202,
				"z": -1.4519560099,
				"element": "C" 
			},
			{
				"x": -1.3578133655,
				"y": -2.4374885044,
				"z": -1.3978906613,
				"element": "C" 
			},
			{
				"x": 0.138858207,
				"y": -2.0744326587,
				"z": -1.3020748639,
				"element": "C" 
			},
			{
				"x": 0.5469558365,
				"y": -1.2431486822,
				"z": -2.5356768695,
				"element": "C" 
			},
			{
				"x": 0.387082663,
				"y": -1.2511799706,
				"z": -0.020721566,
				"element": "C" 
			},
			{
				"x": -1.9569296528,
				"y": -0.319993724,
				"z": -0.1711823989,
				"element": "C" 
			},
			{
				"x": -1.2178721157,
				"y": 2.5079593731,
				"z": 5.1427983929,
				"element": "H" 
			},
			{
				"x": -1.8575304116,
				"y": 0.9192436828,
				"z": 4.6437247051,
				"element": "H" 
			},
			{
				"x": -2.136183152,
				"y": 2.3505929449,
				"z": 3.6313513533,
				"element": "H" 
			},
			{
				"x": 0.5662475264,
				"y": -0.0459793945,
				"z": 4.830668915,
				"element": "H" 
			},
			{
				"x": 1.8796710735,
				"y": 0.7532582419,
				"z": 3.9434387243,
				"element": "H" 
			},
			{
				"x": 1.1254458936,
				"y": 1.5742632405,
				"z": 5.3253370114,
				"element": "H" 
			},
			{
				"x": 0.1745549433,
				"y": 1.8120753325,
				"z": 0.9756515705,
				"element": "H" 
			},
			{
				"x": 1.0095501454,
				"y": 1.1483086176,
				"z": -1.2254576556,
				"element": "H" 
			},
			{
				"x": -0.6320424772,
				"y": 1.8006511821,
				"z": -1.3305051401,
				"element": "H" 
			},
			{
				"x": 0.000827985,
				"y": 0.6514313843,
				"z": -3.4534321581,
				"element": "H" 
			},
			{
				"x": -1.974881413,
				"y": -0.8844170582,
				"z": -3.6053394064,
				"element": "H" 
			},
			{
				"x": -2.3982480239,
				"y": 0.5969615848,
				"z": -2.7465288604,
				"element": "H" 
			},
			{
				"x": -3.2646928314,
				"y": -1.4013531773,
				"z": -1.5165461469,
				"element": "H" 
			},
			{
				"x": -1.5414098071,
				"y": -3.0445690509,
				"z": -2.2940034321,
				"element": "H" 
			},
			{
				"x": -1.6541918612,
				"y": -3.0441024819,
				"z": -0.5329223571,
				"element": "H" 
			},
			{
				"x": 0.7392437674,
				"y": -2.9917520075,
				"z": -1.2600940063,
				"element": "H" 
			},
			{
				"x": 1.6161169993,
				"y": -0.997621615,
				"z": -2.4893855972,
				"element": "H" 
			},
			{
				"x": 0.3926262172,
				"y": -1.824885777,
				"z": -3.4536406073,
				"element": "H" 
			},
			{
				"x": 1.4488234713,
				"y": -0.9851985237,
				"z": 0.0633255757,
				"element": "H" 
			},
			{
				"x": 0.1203566314,
				"y": -1.8265318394,
				"z": 0.8700573764,
				"element": "H" 
			},
			{
				"x": -2.2565096681,
				"y": -0.8822576493,
				"z": 0.7174945311,
				"element": "H" 
			},
			{
				"x": -2.5500941803,
				"y": 0.6034868108,
				"z": -0.1934185366,
				"element": "H" 
			}
		],
		 "valence_orbital": [ 
			{
				"type": "occ",
				"energy": -0.28696,
				"method": "rhf"
			},
			{
				"type": "occ",
				"energy": -0.28373,
				"method": "rhf"
			},
			{
				"type": "occ",
				"energy": -0.27775,
				"method": "rhf"
			},
			{
				"type": "occ",
				"energy": -0.25002,
				"method": "rhf"
			},
			{
				"type": "occ",
				"energy": -0.24427,
				"method": "rhf"
			},
			{
				"type": "unocc",
				"energy": -0.01317,
				"method": "rhf"
			},
			{
				"type": "unocc",
				"energy": 0.02206,
				"method": "rhf"
			},
			{
				"type": "unocc",
				"energy": 0.06626,
				"method": "rhf"
			},
			{
				"type": "unocc",
				"energy": 0.0981,
				"method": "rhf"
			},
			{
				"type": "unocc",
				"energy": 0.11604,
				"method": "rhf"
			}
		],
		"cosmo_sigma_profile": { 
			"-0.025": 0.0,
			"-0.024": 0.0,
			"-0.023": 0.0,
			"-0.022": 0.0,
			"-0.021": 0.0,
			"-0.02": 0.0,
			"-0.019": 0.0,
			"-0.018": 0.0,
			"-0.017": 0.0,
			"-0.016": 0.0,
			"-0.015": 0.0,
			"-0.014": 0.0,
			"-0.013": 0.0,
			"-0.012": 0.0,
			"-0.011": 0.0,
			"-0.01": 0.0,
			"-0.009": 0.107581623588,
			"-0.008": 1.03453671157,
			"-0.007": 1.50752885971,
			"-0.006": 1.2988266899,
			"-0.005": 6.67048542358,
			"-0.004": 14.8657328069,
			"-0.003": 21.1284310157,
			"-0.002": 50.6260891907,
			"-0.001": 56.353244624,
			"0.0": 50.1805224463,
			"0.001": 32.6917596135,
			"0.002": 12.7281117184,
			"0.003": 7.69361218634,
			"0.004": 7.89696457951,
			"0.005": 8.61497358229,
			"0.006": 6.41503697103,
			"0.007": 2.33136853829,
			"0.008": 1.85459330324,
			"0.009": 1.28187459685,
			"0.01": 1.22196615988,
			"0.011": 1.41910327562,
			"0.012": 1.79429165956,
			"0.013": 2.44252636269,
			"0.014": 1.64907334989,
			"0.015": 0.0,
			"0.016": 0.0,
			"0.017": 0.0,
			"0.018": 0.0,
			"0.019": 0.0,
			"0.02": 0.0,
			"0.021": 0.0,
			"0.022": 0.0,
			"0.023": 0.0,
			"0.024": 0.0,
			"0.025": 0.0
		}
	}
}
