{
	 "smiles": "CC1(C)C2CCC1(C)C(=O)C2C(=O)C1=CC=CC=C1", 
	 "Tm": 371.15, 
	 "num_atms": 39, 
	 "gaussian": { 
		 "optdone": 1, 
		 "sigma_profile": "yes", 
		 "theory": "DFT", 
		 "functional": "B3LYP", 
		 "basiset": "6-31G**", 
		 "properties": { 
			 "R2extent": 5771.9669, 
			 "electric_dipole_moment_norm": 1.83272029508, 
			 "electric_quadrupole_moment_norm": 11.9628074911, 
			 "total_energy": -810.315883152, 
			 "HOMO_LUMO_gap": 0.18392, 
			 "cosmo_polarized_energy": -10.27, 
			 "cosmo_cavitation_energy": 37.93, 
			 "cosmo_dispersion_energy": -26.79, 
			 "cosmo_repulsion_energy": 2.0, 
			 "cosmo_total_nonelectrostatic_energy": 13.14, 
			 "SMD_solvation_energy": 6.88 
		},
		"coords": [
			{
				"x": 0.5206485991,
				"y": 2.154797972,
				"z": 0.6317887152,
				"element": "C" 
			},
			{
				"x": -0.8103359721,
				"y": 1.48463543,
				"z": 0.2456732786,
				"element": "C" 
			},
			{
				"x": -1.9185540772,
				"y": 2.5368258441,
				"z": 0.4253090147,
				"element": "C" 
			},
			{
				"x": -0.8322984953,
				"y": 0.7949876688,
				"z": -1.1637809899,
				"element": "C" 
			},
			{
				"x": -2.2083964627,
				"y": 0.0874574934,
				"z": -1.166040284,
				"element": "C" 
			},
			{
				"x": -2.3327423115,
				"y": -0.4225123158,
				"z": 0.3026039322,
				"element": "C" 
			},
			{
				"x": -1.0579643376,
				"y": 0.1426521126,
				"z": 1.0174370765,
				"element": "C" 
			},
			{
				"x": -1.1229171255,
				"y": 0.1464417603,
				"z": 2.5354483901,
				"element": "C" 
			},
			{
				"x": 0.0873639052,
				"y": -0.7106588724,
				"z": 0.4573042168,
				"element": "C" 
			},
			{
				"x": 0.7175164558,
				"y": -1.5547811692,
				"z": 1.0555351295,
				"element": "O" 
			},
			{
				"x": 0.223514133,
				"y": -0.3321155159,
				"z": -1.0501448476,
				"element": "C" 
			},
			{
				"x": 1.6151170651,
				"y": 0.0292750291,
				"z": -1.5905974152,
				"element": "C" 
			},
			{
				"x": 1.853350765,
				"y": 1.1800125692,
				"z": -1.9304349497,
				"element": "O" 
			},
			{
				"x": 2.6409196495,
				"y": -1.0444905734,
				"z": -1.7803144451,
				"element": "C" 
			},
			{
				"x": 2.4629778377,
				"y": -2.3716605529,
				"z": -1.3601212556,
				"element": "C" 
			},
			{
				"x": 3.4607257934,
				"y": -3.3192827456,
				"z": -1.5916670838,
				"element": "C" 
			},
			{
				"x": 4.6380765823,
				"y": -2.9552601056,
				"z": -2.246181222,
				"element": "C" 
			},
			{
				"x": 4.8247496094,
				"y": -1.6335502361,
				"z": -2.664776034,
				"element": "C" 
			},
			{
				"x": 3.8346877902,
				"y": -0.6858331233,
				"z": -2.4316839185,
				"element": "C" 
			},
			{
				"x": 0.4376934647,
				"y": 2.5994746947,
				"z": 1.6294714503,
				"element": "H" 
			},
			{
				"x": 1.3687254486,
				"y": 1.4668761811,
				"z": 0.6553816405,
				"element": "H" 
			},
			{
				"x": 0.7729602703,
				"y": 2.9496152537,
				"z": -0.0746897358,
				"element": "H" 
			},
			{
				"x": -2.9252087918,
				"y": 2.1613291685,
				"z": 0.2320857096,
				"element": "H" 
			},
			{
				"x": -1.906677371,
				"y": 2.9348983291,
				"z": 1.445405115,
				"element": "H" 
			},
			{
				"x": -1.7440612963,
				"y": 3.3789957922,
				"z": -0.253874666,
				"element": "H" 
			},
			{
				"x": -0.6500540802,
				"y": 1.4640851871,
				"z": -2.0060434938,
				"element": "H" 
			},
			{
				"x": -2.2464993719,
				"y": -0.7258232085,
				"z": -1.8975234154,
				"element": "H" 
			},
			{
				"x": -3.015878317,
				"y": 0.7781298505,
				"z": -1.421916288,
				"element": "H" 
			},
			{
				"x": -2.383875849,
				"y": -1.5138457291,
				"z": 0.3744937248,
				"element": "H" 
			},
			{
				"x": -3.2271889212,
				"y": -0.0337608125,
				"z": 0.798920689,
				"element": "H" 
			},
			{
				"x": -0.2133749494,
				"y": 0.5675077761,
				"z": 2.9739180893,
				"element": "H" 
			},
			{
				"x": -1.9787154943,
				"y": 0.7297242621,
				"z": 2.8902794767,
				"element": "H" 
			},
			{
				"x": -1.2223029194,
				"y": -0.8745450773,
				"z": 2.9161971964,
				"element": "H" 
			},
			{
				"x": -0.0888444843,
				"y": -1.2258060106,
				"z": -1.6074626021,
				"element": "H" 
			},
			{
				"x": 1.5717112177,
				"y": -2.6588894366,
				"z": -0.8161586721,
				"element": "H" 
			},
			{
				"x": 3.3181269022,
				"y": -4.3422089827,
				"z": -1.2560091641,
				"element": "H" 
			},
			{
				"x": 5.410630956,
				"y": -3.6973034274,
				"z": -2.4278685145,
				"element": "H" 
			},
			{
				"x": 5.7415925987,
				"y": -1.3470793078,
				"z": -3.1718443483,
				"element": "H" 
			},
			{
				"x": 3.9564015837,
				"y": 0.3448848279,
				"z": -2.7467195,
				"element": "H" 
			}
		],
		 "valence_orbital": [ 
			{
				"type": "occ",
				"energy": -0.29725,
				"method": "rhf"
			},
			{
				"type": "occ",
				"energy": -0.25664,
				"method": "rhf"
			},
			{
				"type": "occ",
				"energy": -0.25492,
				"method": "rhf"
			},
			{
				"type": "occ",
				"energy": -0.25329,
				"method": "rhf"
			},
			{
				"type": "occ",
				"energy": -0.24005,
				"method": "rhf"
			},
			{
				"type": "unocc",
				"energy": -0.05613,
				"method": "rhf"
			},
			{
				"type": "unocc",
				"energy": -0.02116,
				"method": "rhf"
			},
			{
				"type": "unocc",
				"energy": -0.00363,
				"method": "rhf"
			},
			{
				"type": "unocc",
				"energy": 0.03923,
				"method": "rhf"
			},
			{
				"type": "unocc",
				"energy": 0.0722,
				"method": "rhf"
			}
		],
		"cosmo_sigma_profile": { 
			"-0.025": 0.0,
			"-0.024": 0.0,
			"-0.023": 0.0,
			"-0.022": 0.0,
			"-0.021": 0.0,
			"-0.02": 0.0,
			"-0.019": 0.0,
			"-0.018": 0.0,
			"-0.017": 0.0,
			"-0.016": 0.0,
			"-0.015": 0.0,
			"-0.014": 0.0,
			"-0.013": 0.0,
			"-0.012": 0.0,
			"-0.011": 0.0,
			"-0.01": 0.0,
			"-0.009": 0.0,
			"-0.008": 0.426659238349,
			"-0.007": 4.59951884393,
			"-0.006": 10.0801910026,
			"-0.005": 13.2284481752,
			"-0.004": 22.7961130674,
			"-0.003": 31.1812572058,
			"-0.002": 39.5846255609,
			"-0.001": 33.2512888748,
			"0.0": 32.1299091447,
			"0.001": 29.4492052921,
			"0.002": 15.1246645819,
			"0.003": 12.7708071163,
			"0.004": 17.0607323129,
			"0.005": 6.8364024149,
			"0.006": 3.40663254269,
			"0.007": 3.36270291698,
			"0.008": 4.66817569361,
			"0.009": 4.36365850856,
			"0.01": 4.0449135987,
			"0.011": 5.39869363147,
			"0.012": 3.37341016399,
			"0.013": 0.0377146924827,
			"0.014": 0.0,
			"0.015": 0.0,
			"0.016": 0.0,
			"0.017": 0.0,
			"0.018": 0.0,
			"0.019": 0.0,
			"0.02": 0.0,
			"0.021": 0.0,
			"0.022": 0.0,
			"0.023": 0.0,
			"0.024": 0.0,
			"0.025": 0.0
		}
	}
}
