{
	 "smiles": "[O-][N+](=O)C1=CC=C(C=C1)C1=NN=C2SCN(CN12)C1=NC=CC=C1", 
	 "Tm": 573.15, 
	 "num_atms": 36, 
	 "gaussian": { 
		 "optdone": 1, 
		 "sigma_profile": "yes", 
		 "theory": "DFT", 
		 "functional": "B3LYP", 
		 "basiset": "6-31G**", 
		 "properties": { 
			 "R2extent": 10334.7994, 
			 "electric_dipole_moment_norm": 8.37549250194, 
			 "electric_quadrupole_moment_norm": 25.6148858612, 
			 "total_energy": -1455.83908044, 
			 "HOMO_LUMO_gap": 0.13289, 
			 "cosmo_polarized_energy": -25.44, 
			 "cosmo_cavitation_energy": 42.26, 
			 "cosmo_dispersion_energy": -30.57, 
			 "cosmo_repulsion_energy": 2.23, 
			 "cosmo_total_nonelectrostatic_energy": 13.92, 
			 "SMD_solvation_energy": 4.35 
		},
		"coords": [
			{
				"x": 5.2366173696,
				"y": 1.0768587085,
				"z": 3.079926885,
				"element": "O" 
			},
			{
				"x": 5.0165955478,
				"y": -0.1108059104,
				"z": 2.8396465626,
				"element": "N" 
			},
			{
				"x": 5.6204150268,
				"y": -1.0534309012,
				"z": 3.3511311127,
				"element": "O" 
			},
			{
				"x": 3.9558002846,
				"y": -0.4253981453,
				"z": 1.8733117614,
				"element": "C" 
			},
			{
				"x": 3.258182749,
				"y": 0.6193748103,
				"z": 1.2733235871,
				"element": "C" 
			},
			{
				"x": 2.2512068831,
				"y": 0.318752578,
				"z": 0.3615827671,
				"element": "C" 
			},
			{
				"x": 1.9316928512,
				"y": -1.0171074942,
				"z": 0.0575783923,
				"element": "C" 
			},
			{
				"x": 2.6673187258,
				"y": -2.0505982462,
				"z": 0.671968869,
				"element": "C" 
			},
			{
				"x": 3.67855754,
				"y": -1.760731474,
				"z": 1.5766146723,
				"element": "C" 
			},
			{
				"x": 0.8943011727,
				"y": -1.3991713356,
				"z": -0.9036686976,
				"element": "C" 
			},
			{
				"x": 0.9218309864,
				"y": -2.5259251678,
				"z": -1.590096134,
				"element": "N" 
			},
			{
				"x": -0.1865221345,
				"y": -2.5723888686,
				"z": -2.3937813033,
				"element": "N" 
			},
			{
				"x": -0.8666720141,
				"y": -1.4676982031,
				"z": -2.175183063,
				"element": "C" 
			},
			{
				"x": -2.4162733852,
				"y": -1.1157428937,
				"z": -2.9389698549,
				"element": "S" 
			},
			{
				"x": -2.6541862299,
				"y": 0.5723110789,
				"z": -2.158044726,
				"element": "C" 
			},
			{
				"x": -2.2114041607,
				"y": 0.6310538752,
				"z": -0.7961200246,
				"element": "N" 
			},
			{
				"x": -0.7753679924,
				"y": 0.5797988073,
				"z": -0.668984975,
				"element": "C" 
			},
			{
				"x": -0.2403142891,
				"y": -0.6761002382,
				"z": -1.2411961479,
				"element": "N" 
			},
			{
				"x": -2.9979426635,
				"y": 0.1146613899,
				"z": 0.2609344136,
				"element": "C" 
			},
			{
				"x": -2.3901806869,
				"y": 0.0530583412,
				"z": 1.4507065521,
				"element": "N" 
			},
			{
				"x": -3.094014137,
				"y": -0.3609151961,
				"z": 2.5091712241,
				"element": "C" 
			},
			{
				"x": -4.4334000143,
				"y": -0.7342463191,
				"z": 2.4459606782,
				"element": "C" 
			},
			{
				"x": -5.0571574909,
				"y": -0.6829366982,
				"z": 1.1985254205,
				"element": "C" 
			},
			{
				"x": -4.3419427296,
				"y": -0.260761888,
				"z": 0.0831992521,
				"element": "C" 
			},
			{
				"x": 3.5181376525,
				"y": 1.6418186246,
				"z": 1.5164917482,
				"element": "H" 
			},
			{
				"x": 1.7406900452,
				"y": 1.1358937787,
				"z": -0.1343956782,
				"element": "H" 
			},
			{
				"x": 2.4277738952,
				"y": -3.0772980772,
				"z": 0.4209257773,
				"element": "H" 
			},
			{
				"x": 4.2491905842,
				"y": -2.5432268276,
				"z": 2.0607537479,
				"element": "H" 
			},
			{
				"x": -3.7138885389,
				"y": 0.8029499087,
				"z": -2.2543685228,
				"element": "H" 
			},
			{
				"x": -2.0898522873,
				"y": 1.3011997859,
				"z": -2.743259753,
				"element": "H" 
			},
			{
				"x": -0.341565228,
				"y": 1.4301506252,
				"z": -1.2057656348,
				"element": "H" 
			},
			{
				"x": -0.5155736656,
				"y": 0.6234286898,
				"z": 0.3859755618,
				"element": "H" 
			},
			{
				"x": -2.5515938108,
				"y": -0.394875069,
				"z": 3.4519027715,
				"element": "H" 
			},
			{
				"x": -4.9607795753,
				"y": -1.0635406512,
				"z": 3.3341735498,
				"element": "H" 
			},
			{
				"x": -6.0956246061,
				"y": -0.9804531349,
				"z": 1.0869547044,
				"element": "H" 
			},
			{
				"x": -4.8179556743,
				"y": -0.2507582626,
				"z": -0.8885254961,
				"element": "H" 
			}
		],
		 "valence_orbital": [ 
			{
				"type": "occ",
				"energy": -0.28345,
				"method": "rhf"
			},
			{
				"type": "occ",
				"energy": -0.28012,
				"method": "rhf"
			},
			{
				"type": "occ",
				"energy": -0.26142,
				"method": "rhf"
			},
			{
				"type": "occ",
				"energy": -0.24398,
				"method": "rhf"
			},
			{
				"type": "occ",
				"energy": -0.22708,
				"method": "rhf"
			},
			{
				"type": "unocc",
				"energy": -0.09419,
				"method": "rhf"
			},
			{
				"type": "unocc",
				"energy": -0.04261,
				"method": "rhf"
			},
			{
				"type": "unocc",
				"energy": -0.03128,
				"method": "rhf"
			},
			{
				"type": "unocc",
				"energy": -0.02757,
				"method": "rhf"
			},
			{
				"type": "unocc",
				"energy": -0.02535,
				"method": "rhf"
			}
		],
		"cosmo_sigma_profile": { 
			"-0.025": 0.0,
			"-0.024": 0.0,
			"-0.023": 0.0,
			"-0.022": 0.0,
			"-0.021": 0.0,
			"-0.02": 0.0,
			"-0.019": 0.0,
			"-0.018": 0.0,
			"-0.017": 0.0,
			"-0.016": 0.0,
			"-0.015": 0.0,
			"-0.014": 0.0,
			"-0.013": 0.0,
			"-0.012": 0.373083008404,
			"-0.011": 3.36970318077,
			"-0.01": 6.36051492138,
			"-0.009": 9.12173345936,
			"-0.008": 10.2334211975,
			"-0.007": 15.6198802052,
			"-0.006": 21.845814495,
			"-0.005": 18.0995698655,
			"-0.004": 17.1568005809,
			"-0.003": 17.2589050613,
			"-0.002": 21.1967627353,
			"-0.001": 20.8503256657,
			"0.0": 25.4490073064,
			"0.001": 27.0113112676,
			"0.002": 22.5443697845,
			"0.003": 22.4928647699,
			"0.004": 13.9645355231,
			"0.005": 10.6312859763,
			"0.006": 9.64614974178,
			"0.007": 12.4172824998,
			"0.008": 10.9603976314,
			"0.009": 6.94701876708,
			"0.01": 4.5581019313,
			"0.011": 2.7749115186,
			"0.012": 3.13045069109,
			"0.013": 3.21511704015,
			"0.014": 2.49701701317,
			"0.015": 2.14517925895,
			"0.016": 0.853952188291,
			"0.017": 0.0642385884146,
			"0.018": 0.0,
			"0.019": 0.0,
			"0.02": 0.0,
			"0.021": 0.0,
			"0.022": 0.0,
			"0.023": 0.0,
			"0.024": 0.0,
			"0.025": 0.0
		}
	}
}
