{
	 "smiles": "OC1=C(C=O)C=C(Br)C=C1", 
	 "Tm": 378.15, 
	 "num_atms": 15, 
	 "gaussian": { 
		 "optdone": 1, 
		 "sigma_profile": "yes", 
		 "theory": "DFT", 
		 "functional": "B3LYP", 
		 "basiset": "6-31G**", 
		 "properties": { 
			 "R2extent": 3479.6614, 
			 "electric_dipole_moment_norm": 5.09828441929, 
			 "electric_quadrupole_moment_norm": 3.52185944637, 
			 "total_energy": -2991.59420865, 
			 "HOMO_LUMO_gap": 0.16774, 
			 "cosmo_polarized_energy": -12.62, 
			 "cosmo_cavitation_energy": 22.32, 
			 "cosmo_dispersion_energy": -16.88, 
			 "cosmo_repulsion_energy": 1.36, 
			 "cosmo_total_nonelectrostatic_energy": 6.8, 
			 "SMD_solvation_energy": 4.17 
		},
		"coords": [
			{
				"x": -1.2203250349,
				"y": 1.4155850474,
				"z": 0.1085791532,
				"element": "O" 
			},
			{
				"x": -0.0776866772,
				"y": 0.6773408288,
				"z": 0.1577843015,
				"element": "C" 
			},
			{
				"x": -0.1973536531,
				"y": -0.7230851099,
				"z": 0.2594298859,
				"element": "C" 
			},
			{
				"x": -1.5208847126,
				"y": -1.3894498991,
				"z": 0.3124120608,
				"element": "C" 
			},
			{
				"x": -1.6593297389,
				"y": -2.5966370201,
				"z": 0.4001883192,
				"element": "O" 
			},
			{
				"x": 0.9622591385,
				"y": -1.5105317389,
				"z": 0.3120737604,
				"element": "C" 
			},
			{
				"x": 2.2139648014,
				"y": -0.9166684298,
				"z": 0.264536855,
				"element": "C" 
			},
			{
				"x": 3.790509645,
				"y": -1.993003538,
				"z": 0.3364035943,
				"element": "Br" 
			},
			{
				"x": 2.3354556923,
				"y": 0.4723010835,
				"z": 0.1637445118,
				"element": "C" 
			},
			{
				"x": 1.1923115115,
				"y": 1.2646152385,
				"z": 0.1107175403,
				"element": "C" 
			},
			{
				"x": -0.9978107884,
				"y": 2.3531512614,
				"z": 0.0398834266,
				"element": "H" 
			},
			{
				"x": -2.3960520704,
				"y": -0.715209702,
				"z": 0.2668312601,
				"element": "H" 
			},
			{
				"x": 0.8415994383,
				"y": -2.5851856265,
				"z": 0.3901979205,
				"element": "H" 
			},
			{
				"x": 3.3168757543,
				"y": 0.9315502387,
				"z": 0.1269227645,
				"element": "H" 
			},
			{
				"x": 1.2883666943,
				"y": 2.3452273661,
				"z": 0.0322946458,
				"element": "H" 
			}
		],
		 "valence_orbital": [ 
			{
				"type": "occ",
				"energy": -0.3046,
				"method": "rhf"
			},
			{
				"type": "occ",
				"energy": -0.29221,
				"method": "rhf"
			},
			{
				"type": "occ",
				"energy": -0.27716,
				"method": "rhf"
			},
			{
				"type": "occ",
				"energy": -0.2554,
				"method": "rhf"
			},
			{
				"type": "occ",
				"energy": -0.23779,
				"method": "rhf"
			},
			{
				"type": "unocc",
				"energy": -0.07005,
				"method": "rhf"
			},
			{
				"type": "unocc",
				"energy": -0.01633,
				"method": "rhf"
			},
			{
				"type": "unocc",
				"energy": 0.00125,
				"method": "rhf"
			},
			{
				"type": "unocc",
				"energy": 0.02855,
				"method": "rhf"
			},
			{
				"type": "unocc",
				"energy": 0.04712,
				"method": "rhf"
			}
		],
		"cosmo_sigma_profile": { 
			"-0.025": 0.0,
			"-0.024": 0.0,
			"-0.023": 0.0,
			"-0.022": 0.0,
			"-0.021": 0.0,
			"-0.02": 0.0227744141547,
			"-0.019": 0.846707770665,
			"-0.018": 1.01003797328,
			"-0.017": 1.26959965962,
			"-0.016": 1.01580747832,
			"-0.015": 1.10375666876,
			"-0.014": 1.3812337862,
			"-0.013": 0.73343683142,
			"-0.012": 0.782683714684,
			"-0.011": 1.43777216855,
			"-0.01": 0.806726511869,
			"-0.009": 1.4440189655,
			"-0.008": 3.54508933213,
			"-0.007": 4.6429284816,
			"-0.006": 5.99180104396,
			"-0.005": 5.56626572586,
			"-0.004": 9.14824332086,
			"-0.003": 10.3946973941,
			"-0.002": 10.1831831198,
			"-0.001": 10.3529635842,
			"0.0": 15.3154273727,
			"0.001": 21.7522767822,
			"0.002": 19.8800826337,
			"0.003": 10.2770405904,
			"0.004": 13.6929934482,
			"0.005": 8.85627900289,
			"0.006": 2.72134623309,
			"0.007": 3.47172712384,
			"0.008": 3.15830514342,
			"0.009": 1.69429709333,
			"0.01": 2.67533142893,
			"0.011": 4.16255080018,
			"0.012": 2.55014796158,
			"0.013": 0.747107639945,
			"0.014": 0.0,
			"0.015": 0.0,
			"0.016": 0.0,
			"0.017": 0.0,
			"0.018": 0.0,
			"0.019": 0.0,
			"0.02": 0.0,
			"0.021": 0.0,
			"0.022": 0.0,
			"0.023": 0.0,
			"0.024": 0.0,
			"0.025": 0.0
		}
	}
}
