{
	 "smiles": "CN(C(C)=O)C(=O)COC(=O)C1=CC=CC=C1", 
	 "Tm": 375.15, 
	 "num_atms": 30, 
	 "gaussian": { 
		 "optdone": 1, 
		 "sigma_profile": "yes", 
		 "theory": "DFT", 
		 "functional": "B3LYP", 
		 "basiset": "6-31G**", 
		 "properties": { 
			 "R2extent": 5741.3776, 
			 "electric_dipole_moment_norm": 4.03185955485, 
			 "electric_quadrupole_moment_norm": 17.4245999179, 
			 "total_energy": -820.784913954, 
			 "HOMO_LUMO_gap": 0.21069, 
			 "cosmo_polarized_energy": -15.62, 
			 "cosmo_cavitation_energy": 34.69, 
			 "cosmo_dispersion_energy": -23.55, 
			 "cosmo_repulsion_energy": 1.84, 
			 "cosmo_total_nonelectrostatic_energy": 12.98, 
			 "SMD_solvation_energy": 8.38 
		},
		"coords": [
			{
				"x": 0.3379311589,
				"y": -5.1646150698,
				"z": -0.4363740571,
				"element": "C" 
			},
			{
				"x": -0.2212898167,
				"y": -4.0388776387,
				"z": 0.326707119,
				"element": "N" 
			},
			{
				"x": 0.2862000565,
				"y": -3.7104587572,
				"z": 1.5974890264,
				"element": "C" 
			},
			{
				"x": 1.655038285,
				"y": -4.2710032649,
				"z": 1.9373806327,
				"element": "C" 
			},
			{
				"x": -0.3366079986,
				"y": -3.0261351643,
				"z": 2.3900274448,
				"element": "O" 
			},
			{
				"x": -1.4486572828,
				"y": -3.5210274022,
				"z": -0.1510129578,
				"element": "C" 
			},
			{
				"x": -2.1362639015,
				"y": -4.159860986,
				"z": -0.9220583182,
				"element": "O" 
			},
			{
				"x": -1.8812569494,
				"y": -2.1178437528,
				"z": 0.2757869425,
				"element": "C" 
			},
			{
				"x": -0.818425947,
				"y": -1.1642272091,
				"z": 0.3839065437,
				"element": "O" 
			},
			{
				"x": -0.1839443457,
				"y": -0.8498123284,
				"z": -0.7729098834,
				"element": "C" 
			},
			{
				"x": -0.4605377443,
				"y": -1.3634272656,
				"z": -1.8397739973,
				"element": "O" 
			},
			{
				"x": 0.8761698264,
				"y": 0.1755306489,
				"z": -0.5722297408,
				"element": "C" 
			},
			{
				"x": 1.564742633,
				"y": 0.6341856203,
				"z": -1.7039502893,
				"element": "C" 
			},
			{
				"x": 2.5664511956,
				"y": 1.5919718326,
				"z": -1.5691195962,
				"element": "C" 
			},
			{
				"x": 2.8870892037,
				"y": 2.0930229708,
				"z": -0.3041892062,
				"element": "C" 
			},
			{
				"x": 2.2047939602,
				"y": 1.6348868966,
				"z": 0.8258153482,
				"element": "C" 
			},
			{
				"x": 1.1990745471,
				"y": 0.6782863946,
				"z": 0.6966651292,
				"element": "C" 
			},
			{
				"x": -0.1593299228,
				"y": -5.1899815506,
				"z": -1.4035407126,
				"element": "H" 
			},
			{
				"x": 0.1605187998,
				"y": -6.1217235861,
				"z": 0.0649092371,
				"element": "H" 
			},
			{
				"x": 1.4105305358,
				"y": -5.0263665401,
				"z": -0.5829031621,
				"element": "H" 
			},
			{
				"x": 2.4078619675,
				"y": -3.9589309967,
				"z": 1.2064116945,
				"element": "H" 
			},
			{
				"x": 1.9266316426,
				"y": -3.8949330926,
				"z": 2.9231247295,
				"element": "H" 
			},
			{
				"x": 1.6495580899,
				"y": -5.3653175552,
				"z": 1.9607296189,
				"element": "H" 
			},
			{
				"x": -2.3320629194,
				"y": -2.1527007725,
				"z": 1.2666693268,
				"element": "H" 
			},
			{
				"x": -2.6057516383,
				"y": -1.7978971246,
				"z": -0.4752552283,
				"element": "H" 
			},
			{
				"x": 1.2977717488,
				"y": 0.228438919,
				"z": -2.6739873851,
				"element": "H" 
			},
			{
				"x": 3.0971787688,
				"y": 1.9485768371,
				"z": -2.4469025651,
				"element": "H" 
			},
			{
				"x": 3.6687971459,
				"y": 2.8401422298,
				"z": -0.199223053,
				"element": "H" 
			},
			{
				"x": 2.4563603469,
				"y": 2.0239144604,
				"z": 1.8080394225,
				"element": "H" 
			},
			{
				"x": 0.6661285542,
				"y": 0.3131832471,
				"z": 1.5671679363,
				"element": "H" 
			}
		],
		 "valence_orbital": [ 
			{
				"type": "occ",
				"energy": -0.27758,
				"method": "rhf"
			},
			{
				"type": "occ",
				"energy": -0.26773,
				"method": "rhf"
			},
			{
				"type": "occ",
				"energy": -0.26416,
				"method": "rhf"
			},
			{
				"type": "occ",
				"energy": -0.261,
				"method": "rhf"
			},
			{
				"type": "occ",
				"energy": -0.26031,
				"method": "rhf"
			},
			{
				"type": "unocc",
				"energy": -0.04962,
				"method": "rhf"
			},
			{
				"type": "unocc",
				"energy": -0.03152,
				"method": "rhf"
			},
			{
				"type": "unocc",
				"energy": -0.01031,
				"method": "rhf"
			},
			{
				"type": "unocc",
				"energy": 0.02861,
				"method": "rhf"
			},
			{
				"type": "unocc",
				"energy": 0.05428,
				"method": "rhf"
			}
		],
		"cosmo_sigma_profile": { 
			"-0.025": 0.0,
			"-0.024": 0.0,
			"-0.023": 0.0,
			"-0.022": 0.0,
			"-0.021": 0.0,
			"-0.02": 0.0,
			"-0.019": 0.0,
			"-0.018": 0.0,
			"-0.017": 0.0,
			"-0.016": 0.0,
			"-0.015": 0.0,
			"-0.014": 0.0,
			"-0.013": 0.0,
			"-0.012": 0.0,
			"-0.011": 0.0,
			"-0.01": 0.0,
			"-0.009": 0.00909405907958,
			"-0.008": 3.33962205805,
			"-0.007": 12.1296914217,
			"-0.006": 20.9135156489,
			"-0.005": 25.8690694533,
			"-0.004": 25.2523599084,
			"-0.003": 23.9678697502,
			"-0.002": 21.2422373777,
			"-0.001": 16.9848204336,
			"0.0": 15.0049213435,
			"0.001": 15.4617734508,
			"0.002": 15.2281971734,
			"0.003": 15.6759176931,
			"0.004": 15.4499768133,
			"0.005": 5.80951862067,
			"0.006": 3.71691211191,
			"0.007": 4.76129200954,
			"0.008": 5.35909982543,
			"0.009": 6.17522056588,
			"0.01": 6.70490413389,
			"0.011": 10.3453148636,
			"0.012": 5.28526937745,
			"0.013": 1.26935562618,
			"0.014": 0.0681655765301,
			"0.015": 0.0,
			"0.016": 0.0,
			"0.017": 0.0,
			"0.018": 0.0,
			"0.019": 0.0,
			"0.02": 0.0,
			"0.021": 0.0,
			"0.022": 0.0,
			"0.023": 0.0,
			"0.024": 0.0,
			"0.025": 0.0
		}
	}
}
