{
	 "smiles": "OC(=O)CC1=CC=CC=C1Cl", 
	 "Tm": 368.65, 
	 "num_atms": 18, 
	 "gaussian": { 
		 "optdone": 1, 
		 "sigma_profile": "yes", 
		 "theory": "DFT", 
		 "functional": "B3LYP", 
		 "basiset": "6-31G**", 
		 "properties": { 
			 "R2extent": 3109.3597, 
			 "electric_dipole_moment_norm": 4.46819478313, 
			 "electric_quadrupole_moment_norm": 14.400664259, 
			 "total_energy": -919.720948945, 
			 "HOMO_LUMO_gap": 0.22372, 
			 "cosmo_polarized_energy": -11.54, 
			 "cosmo_cavitation_energy": 23.77, 
			 "cosmo_dispersion_energy": -17.51, 
			 "cosmo_repulsion_energy": 1.4, 
			 "cosmo_total_nonelectrostatic_energy": 7.66, 
			 "SMD_solvation_energy": 4.91 
		},
		"coords": [
			{
				"x": 1.911762048,
				"y": 0.2399492696,
				"z": 3.1806792851,
				"element": "O" 
			},
			{
				"x": 0.6687181333,
				"y": 0.7480080734,
				"z": 3.3471795749,
				"element": "C" 
			},
			{
				"x": -0.111423481,
				"y": 0.2343956943,
				"z": 4.1086805914,
				"element": "O" 
			},
			{
				"x": 0.3291827338,
				"y": 1.9889316953,
				"z": 2.5065747398,
				"element": "C" 
			},
			{
				"x": 0.1739555974,
				"y": 1.6709496598,
				"z": 1.0323671648,
				"element": "C" 
			},
			{
				"x": -1.0762652562,
				"y": 1.2613741012,
				"z": 0.5424693083,
				"element": "C" 
			},
			{
				"x": -1.2715368579,
				"y": 0.9534704243,
				"z": -0.8015961393,
				"element": "C" 
			},
			{
				"x": -0.207591517,
				"y": 1.0500976062,
				"z": -1.6995513767,
				"element": "C" 
			},
			{
				"x": 1.048800672,
				"y": 1.4477918581,
				"z": -1.2460543101,
				"element": "C" 
			},
			{
				"x": 1.2219959568,
				"y": 1.7458108325,
				"z": 0.1045879077,
				"element": "C" 
			},
			{
				"x": 2.8459335692,
				"y": 2.2265570941,
				"z": 0.6333104518,
				"element": "Cl" 
			},
			{
				"x": 2.4199080975,
				"y": 0.7679132733,
				"z": 2.5434554188,
				"element": "H" 
			},
			{
				"x": 1.0992214996,
				"y": 2.7523569732,
				"z": 2.6561322903,
				"element": "H" 
			},
			{
				"x": -0.6122756153,
				"y": 2.3736768823,
				"z": 2.9002280766,
				"element": "H" 
			},
			{
				"x": -1.9040223819,
				"y": 1.1859600969,
				"z": 1.2419597662,
				"element": "H" 
			},
			{
				"x": -2.2521739536,
				"y": 0.6412024265,
				"z": -1.146700893,
				"element": "H" 
			},
			{
				"x": -0.34880796,
				"y": 0.8166395504,
				"z": -2.7502602534,
				"element": "H" 
			},
			{
				"x": 1.8897187153,
				"y": 1.5256144886,
				"z": -1.9260616033,
				"element": "H" 
			}
		],
		 "valence_orbital": [ 
			{
				"type": "occ",
				"energy": -0.33822,
				"method": "rhf"
			},
			{
				"type": "occ",
				"energy": -0.31231,
				"method": "rhf"
			},
			{
				"type": "occ",
				"energy": -0.28476,
				"method": "rhf"
			},
			{
				"type": "occ",
				"energy": -0.26767,
				"method": "rhf"
			},
			{
				"type": "occ",
				"energy": -0.25655,
				"method": "rhf"
			},
			{
				"type": "unocc",
				"energy": -0.03283,
				"method": "rhf"
			},
			{
				"type": "unocc",
				"energy": -0.02872,
				"method": "rhf"
			},
			{
				"type": "unocc",
				"energy": 0.00196,
				"method": "rhf"
			},
			{
				"type": "unocc",
				"energy": 0.02117,
				"method": "rhf"
			},
			{
				"type": "unocc",
				"energy": 0.08468,
				"method": "rhf"
			}
		],
		"cosmo_sigma_profile": { 
			"-0.025": 0.0,
			"-0.024": 0.0,
			"-0.023": 0.0,
			"-0.022": 0.0,
			"-0.021": 0.0,
			"-0.02": 0.0,
			"-0.019": 0.0,
			"-0.018": 0.0,
			"-0.017": 0.0,
			"-0.016": 0.0,
			"-0.015": 0.0,
			"-0.014": 0.0,
			"-0.013": 0.00175593754929,
			"-0.012": 0.476701786157,
			"-0.011": 1.089569914,
			"-0.01": 1.99638071539,
			"-0.009": 1.17918741645,
			"-0.008": 2.88680487242,
			"-0.007": 9.80762728715,
			"-0.006": 14.6315026851,
			"-0.005": 14.5895365743,
			"-0.004": 11.9922109265,
			"-0.003": 11.6282935028,
			"-0.002": 13.3020119436,
			"-0.001": 10.9955797556,
			"0.0": 13.8326791974,
			"0.001": 12.7713662853,
			"0.002": 13.1800988259,
			"0.003": 17.813756197,
			"0.004": 10.4692310766,
			"0.005": 1.96000060301,
			"0.006": 2.55691749187,
			"0.007": 1.69351827715,
			"0.008": 2.67568205365,
			"0.009": 3.70745838015,
			"0.01": 4.93998732951,
			"0.011": 5.26228732178,
			"0.012": 5.2454389837,
			"0.013": 1.60338709899,
			"0.014": 0.0,
			"0.015": 0.0,
			"0.016": 0.0,
			"0.017": 0.0,
			"0.018": 0.0,
			"0.019": 0.0,
			"0.02": 0.0,
			"0.021": 0.0,
			"0.022": 0.0,
			"0.023": 0.0,
			"0.024": 0.0,
			"0.025": 0.0
		}
	}
}
