{
	 "smiles": "OC(=O)C(OC1=C(Br)C=CC=C1)C1=CC=CC=C1", 
	 "Tm": 417.15, 
	 "num_atms": 29, 
	 "gaussian": { 
		 "optdone": 1, 
		 "sigma_profile": "yes", 
		 "theory": "DFT", 
		 "functional": "B3LYP", 
		 "basiset": "6-31G**", 
		 "properties": { 
			 "R2extent": 5835.2339, 
			 "electric_dipole_moment_norm": 3.73642821689, 
			 "electric_quadrupole_moment_norm": 16.6067293987, 
			 "total_energy": -3337.18464207, 
			 "HOMO_LUMO_gap": 0.21458, 
			 "cosmo_polarized_energy": -13.49, 
			 "cosmo_cavitation_energy": 35.11, 
			 "cosmo_dispersion_energy": -24.38, 
			 "cosmo_repulsion_energy": 1.9, 
			 "cosmo_total_nonelectrostatic_energy": 12.62, 
			 "SMD_solvation_energy": 5.89 
		},
		"coords": [
			{
				"x": -2.3827510003,
				"y": 0.7874853328,
				"z": -2.7652525032,
				"element": "O" 
			},
			{
				"x": -1.2056891815,
				"y": 0.155812908,
				"z": -2.6010460317,
				"element": "C" 
			},
			{
				"x": -0.7389383817,
				"y": -0.5703781148,
				"z": -3.4435976044,
				"element": "O" 
			},
			{
				"x": -0.4785320547,
				"y": 0.5082572557,
				"z": -1.2874335979,
				"element": "C" 
			},
			{
				"x": -1.3810738342,
				"y": 1.2598404622,
				"z": -0.4154063836,
				"element": "O" 
			},
			{
				"x": -2.0825461453,
				"y": 0.6177812624,
				"z": 0.5861881571,
				"element": "C" 
			},
			{
				"x": -1.9999414889,
				"y": 1.1297524156,
				"z": 1.8877882797,
				"element": "C" 
			},
			{
				"x": -0.8650840179,
				"y": 2.6155353157,
				"z": 2.2601454894,
				"element": "Br" 
			},
			{
				"x": -2.7510970177,
				"y": 0.5693490373,
				"z": 2.919943116,
				"element": "C" 
			},
			{
				"x": -3.5843931649,
				"y": -0.5184440448,
				"z": 2.6608842693,
				"element": "C" 
			},
			{
				"x": -3.6725361876,
				"y": -1.0344110602,
				"z": 1.3676616895,
				"element": "C" 
			},
			{
				"x": -2.9301627965,
				"y": -0.4655880409,
				"z": 0.3339461977,
				"element": "C" 
			},
			{
				"x": 0.2526831961,
				"y": -0.6231479171,
				"z": -0.5935046714,
				"element": "C" 
			},
			{
				"x": 1.1706064147,
				"y": -0.2811210319,
				"z": 0.4102679666,
				"element": "C" 
			},
			{
				"x": 1.8572044675,
				"y": -1.2699734083,
				"z": 1.1117052065,
				"element": "C" 
			},
			{
				"x": 1.639958671,
				"y": -2.6165379681,
				"z": 0.8115033095,
				"element": "C" 
			},
			{
				"x": 0.7334564497,
				"y": -2.963903976,
				"z": -0.1901645431,
				"element": "C" 
			},
			{
				"x": 0.0397111146,
				"y": -1.9745968004,
				"z": -0.8892770996,
				"element": "C" 
			},
			{
				"x": -2.5222562354,
				"y": 1.3437951681,
				"z": -1.9755995051,
				"element": "H" 
			},
			{
				"x": 0.2565695813,
				"y": 1.271442633,
				"z": -1.5705445035,
				"element": "H" 
			},
			{
				"x": -2.6739613336,
				"y": 0.9840499007,
				"z": 3.918582836,
				"element": "H" 
			},
			{
				"x": -4.1633886764,
				"y": -0.9550748603,
				"z": 3.4684520915,
				"element": "H" 
			},
			{
				"x": -4.3246354698,
				"y": -1.8760688019,
				"z": 1.1564312415,
				"element": "H" 
			},
			{
				"x": -3.0183823177,
				"y": -0.8486958237,
				"z": -0.6766884597,
				"element": "H" 
			},
			{
				"x": 1.3333352341,
				"y": 0.765611248,
				"z": 0.652291537,
				"element": "H" 
			},
			{
				"x": 2.5635761354,
				"y": -0.989252152,
				"z": 1.8873509957,
				"element": "H" 
			},
			{
				"x": 2.178456825,
				"y": -3.3896107589,
				"z": 1.3520641547,
				"element": "H" 
			},
			{
				"x": 0.5644897428,
				"y": -4.0087171772,
				"z": -0.433705327,
				"element": "H" 
			},
			{
				"x": -0.6403785282,
				"y": -2.2559910028,
				"z": -1.6841863076,
				"element": "H" 
			}
		],
		 "valence_orbital": [ 
			{
				"type": "occ",
				"energy": -0.27583,
				"method": "rhf"
			},
			{
				"type": "occ",
				"energy": -0.26178,
				"method": "rhf"
			},
			{
				"type": "occ",
				"energy": -0.25741,
				"method": "rhf"
			},
			{
				"type": "occ",
				"energy": -0.25559,
				"method": "rhf"
			},
			{
				"type": "occ",
				"energy": -0.24602,
				"method": "rhf"
			},
			{
				"type": "unocc",
				"energy": -0.03144,
				"method": "rhf"
			},
			{
				"type": "unocc",
				"energy": -0.02065,
				"method": "rhf"
			},
			{
				"type": "unocc",
				"energy": -0.01968,
				"method": "rhf"
			},
			{
				"type": "unocc",
				"energy": -0.00808,
				"method": "rhf"
			},
			{
				"type": "unocc",
				"energy": 0.00011,
				"method": "rhf"
			}
		],
		"cosmo_sigma_profile": { 
			"-0.025": 0.0,
			"-0.024": 0.0,
			"-0.023": 0.0,
			"-0.022": 0.0,
			"-0.021": 0.0,
			"-0.02": 0.0,
			"-0.019": 0.0,
			"-0.018": 0.0,
			"-0.017": 0.0,
			"-0.016": 0.00243540540232,
			"-0.015": 0.335698628965,
			"-0.014": 0.572702461583,
			"-0.013": 0.412382420812,
			"-0.012": 0.754674187297,
			"-0.011": 0.806807977302,
			"-0.01": 3.50118651175,
			"-0.009": 4.04487124104,
			"-0.008": 4.74452489978,
			"-0.007": 9.30781067851,
			"-0.006": 16.5427584134,
			"-0.005": 21.5290633388,
			"-0.004": 20.4481316386,
			"-0.003": 15.7688569566,
			"-0.002": 14.6543521659,
			"-0.001": 15.1198094043,
			"0.0": 16.2474032201,
			"0.001": 19.7929769282,
			"0.002": 22.068661144,
			"0.003": 26.522138296,
			"0.004": 25.7965963542,
			"0.005": 15.4376620427,
			"0.006": 4.9523807847,
			"0.007": 3.57831375006,
			"0.008": 3.9393029501,
			"0.009": 5.33776445987,
			"0.01": 4.55884782953,
			"0.011": 4.83206343859,
			"0.012": 2.63428715183,
			"0.013": 0.266292997932,
			"0.014": 0.0,
			"0.015": 0.0,
			"0.016": 0.0,
			"0.017": 0.0,
			"0.018": 0.0,
			"0.019": 0.0,
			"0.02": 0.0,
			"0.021": 0.0,
			"0.022": 0.0,
			"0.023": 0.0,
			"0.024": 0.0,
			"0.025": 0.0
		}
	}
}
