{
	 "smiles": "FC(F)SC1=CC=C(NC2=NN=C(S)S2)C=C1", 
	 "Tm": 462.15, 
	 "num_atms": 24, 
	 "gaussian": { 
		 "optdone": 1, 
		 "sigma_profile": "yes", 
		 "theory": "DFT", 
		 "functional": "B3LYP", 
		 "basiset": "6-31G**", 
		 "properties": { 
			 "R2extent": 10526.9144, 
			 "electric_dipole_moment_norm": 5.92357359792, 
			 "electric_quadrupole_moment_norm": 11.996873138, 
			 "total_energy": -1905.61565302, 
			 "HOMO_LUMO_gap": 0.168, 
			 "cosmo_polarized_energy": -18.65, 
			 "cosmo_cavitation_energy": 35.4, 
			 "cosmo_dispersion_energy": -27.19, 
			 "cosmo_repulsion_energy": 1.93, 
			 "cosmo_total_nonelectrostatic_energy": 10.14, 
			 "SMD_solvation_energy": 4.06 
		},
		"coords": [
			{
				"x": 5.9223740032,
				"y": 1.6765670976,
				"z": -0.9777535727,
				"element": "F" 
			},
			{
				"x": 4.5801742506,
				"y": 1.6785821522,
				"z": -0.786741025,
				"element": "C" 
			},
			{
				"x": 4.075765582,
				"y": 2.8016019565,
				"z": -1.3697896641,
				"element": "F" 
			},
			{
				"x": 3.9320983926,
				"y": 0.1584335719,
				"z": -1.5715545467,
				"element": "S" 
			},
			{
				"x": 2.2435625306,
				"y": 0.2062677064,
				"z": -0.9736956186,
				"element": "C" 
			},
			{
				"x": 1.3602250805,
				"y": 1.2278923546,
				"z": -1.3458945972,
				"element": "C" 
			},
			{
				"x": 0.0386357918,
				"y": 1.2350283431,
				"z": -0.9049782783,
				"element": "C" 
			},
			{
				"x": -0.4255936947,
				"y": 0.1861282528,
				"z": -0.095621626,
				"element": "C" 
			},
			{
				"x": -1.7456278391,
				"y": 0.0961456565,
				"z": 0.3842671917,
				"element": "N" 
			},
			{
				"x": -2.7989219998,
				"y": 0.9468173854,
				"z": 0.1914379602,
				"element": "C" 
			},
			{
				"x": -2.7677949428,
				"y": 2.0728653728,
				"z": -0.4760602544,
				"element": "N" 
			},
			{
				"x": -3.9846412401,
				"y": 2.6902578686,
				"z": -0.5379012258,
				"element": "N" 
			},
			{
				"x": -4.9305802661,
				"y": 2.05915548,
				"z": 0.0825595086,
				"element": "C" 
			},
			{
				"x": -6.5581953607,
				"y": 2.7260260698,
				"z": 0.2643960349,
				"element": "S" 
			},
			{
				"x": -4.3910946999,
				"y": 0.5560993392,
				"z": 0.8599129803,
				"element": "S" 
			},
			{
				"x": 0.4537705109,
				"y": -0.8474153719,
				"z": 0.2694417494,
				"element": "C" 
			},
			{
				"x": 1.7757826935,
				"y": -0.8326373163,
				"z": -0.1576884209,
				"element": "C" 
			},
			{
				"x": 4.3513891543,
				"y": 1.7131328919,
				"z": 0.2831095286,
				"element": "H" 
			},
			{
				"x": 1.7100194026,
				"y": 2.0329238028,
				"z": -1.9821877276,
				"element": "H" 
			},
			{
				"x": -0.6349228013,
				"y": 2.0328063959,
				"z": -1.1864840121,
				"element": "H" 
			},
			{
				"x": -1.9360675376,
				"y": -0.7147998325,
				"z": 0.9531595649,
				"element": "H" 
			},
			{
				"x": -7.2239225874,
				"y": 1.600748078,
				"z": -0.0707665334,
				"element": "H" 
			},
			{
				"x": 0.1020289455,
				"y": -1.6621882701,
				"z": 0.8985131247,
				"element": "H" 
			},
			{
				"x": 2.4486366315,
				"y": -1.6296389852,
				"z": 0.1416194595,
				"element": "H" 
			}
		],
		 "valence_orbital": [ 
			{
				"type": "occ",
				"energy": -0.27578,
				"method": "rhf"
			},
			{
				"type": "occ",
				"energy": -0.27103,
				"method": "rhf"
			},
			{
				"type": "occ",
				"energy": -0.26833,
				"method": "rhf"
			},
			{
				"type": "occ",
				"energy": -0.25207,
				"method": "rhf"
			},
			{
				"type": "occ",
				"energy": -0.221,
				"method": "rhf"
			},
			{
				"type": "unocc",
				"energy": -0.053,
				"method": "rhf"
			},
			{
				"type": "unocc",
				"energy": -0.03453,
				"method": "rhf"
			},
			{
				"type": "unocc",
				"energy": -0.02391,
				"method": "rhf"
			},
			{
				"type": "unocc",
				"energy": -0.01551,
				"method": "rhf"
			},
			{
				"type": "unocc",
				"energy": 0.0098,
				"method": "rhf"
			}
		],
		"cosmo_sigma_profile": { 
			"-0.025": 0.0,
			"-0.024": 0.0,
			"-0.023": 0.0,
			"-0.022": 0.0,
			"-0.021": 0.0,
			"-0.02": 0.0,
			"-0.019": 0.0,
			"-0.018": 0.129443419908,
			"-0.017": 1.37711242896,
			"-0.016": 1.43623046126,
			"-0.015": 1.3384042865,
			"-0.014": 1.41987264249,
			"-0.013": 1.12721746366,
			"-0.012": 3.34787863428,
			"-0.011": 3.82756907165,
			"-0.01": 4.88337355089,
			"-0.009": 6.01723890242,
			"-0.008": 4.86624726247,
			"-0.007": 7.10087593117,
			"-0.006": 7.67314807865,
			"-0.005": 10.4197318212,
			"-0.004": 9.876962664,
			"-0.003": 11.0365533496,
			"-0.002": 16.3738612986,
			"-0.001": 21.124679964,
			"0.0": 23.970105348,
			"0.001": 25.1268929752,
			"0.002": 27.7811458006,
			"0.003": 34.4950429934,
			"0.004": 29.548249148,
			"0.005": 7.34742693752,
			"0.006": 7.19265333955,
			"0.007": 7.24908000188,
			"0.008": 3.72207299102,
			"0.009": 2.80967740368,
			"0.01": 3.27601795837,
			"0.011": 2.51689293194,
			"0.012": 1.46110984122,
			"0.013": 1.1563597425,
			"0.014": 0.952659597306,
			"0.015": 0.0128144899979,
			"0.016": 0.0,
			"0.017": 0.0,
			"0.018": 0.0,
			"0.019": 0.0,
			"0.02": 0.0,
			"0.021": 0.0,
			"0.022": 0.0,
			"0.023": 0.0,
			"0.024": 0.0,
			"0.025": 0.0
		}
	}
}
