{
	 "smiles": "NS(=O)(=O)CC1=C(Br)C=C(Cl)C=C1", 
	 "Tm": 443.15, 
	 "num_atms": 20, 
	 "gaussian": { 
		 "optdone": 1, 
		 "sigma_profile": "yes", 
		 "theory": "DFT", 
		 "functional": "B3LYP", 
		 "basiset": "6-31G**", 
		 "properties": { 
			 "R2extent": 5958.8917, 
			 "electric_dipole_moment_norm": 4.12940470044, 
			 "electric_quadrupole_moment_norm": 28.417433568, 
			 "total_energy": -3905.88264907, 
			 "HOMO_LUMO_gap": 0.21255, 
			 "cosmo_polarized_energy": -18.14, 
			 "cosmo_cavitation_energy": 29.47, 
			 "cosmo_dispersion_energy": -22.05, 
			 "cosmo_repulsion_energy": 1.69, 
			 "cosmo_total_nonelectrostatic_energy": 9.11, 
			 "SMD_solvation_energy": 3.08 
		},
		"coords": [
			{
				"x": 2.2311294656,
				"y": -2.9658695903,
				"z": -2.4600579949,
				"element": "N" 
			},
			{
				"x": 3.3465557298,
				"y": -1.7228870235,
				"z": -2.5644182778,
				"element": "S" 
			},
			{
				"x": 2.999174411,
				"y": -0.9663326751,
				"z": -3.7677148789,
				"element": "O" 
			},
			{
				"x": 4.6671864933,
				"y": -2.3129616298,
				"z": -2.3594253015,
				"element": "O" 
			},
			{
				"x": 3.0589680914,
				"y": -0.6161887612,
				"z": -1.1214825247,
				"element": "C" 
			},
			{
				"x": 1.6520053975,
				"y": -0.1077415323,
				"z": -1.0187134054,
				"element": "C" 
			},
			{
				"x": 0.6956323239,
				"y": -0.6482322565,
				"z": -0.1444434326,
				"element": "C" 
			},
			{
				"x": 1.1297593008,
				"y": -2.1124342942,
				"z": 1.0185626219,
				"element": "Br" 
			},
			{
				"x": -0.6061712843,
				"y": -0.1544404454,
				"z": -0.0704491567,
				"element": "C" 
			},
			{
				"x": -0.9703667745,
				"y": 0.901827021,
				"z": -0.9029009931,
				"element": "C" 
			},
			{
				"x": -2.6025096418,
				"y": 1.530493196,
				"z": -0.8172858287,
				"element": "Cl" 
			},
			{
				"x": -0.0577541584,
				"y": 1.4596486669,
				"z": -1.7980287501,
				"element": "C" 
			},
			{
				"x": 1.235501874,
				"y": 0.9499687848,
				"z": -1.8444540701,
				"element": "C" 
			},
			{
				"x": 1.2814211969,
				"y": -2.6601975988,
				"z": -2.6450290798,
				"element": "H" 
			},
			{
				"x": 2.3172635984,
				"y": -3.5183575466,
				"z": -1.6126402347,
				"element": "H" 
			},
			{
				"x": 3.3710000947,
				"y": -1.1801254462,
				"z": -0.2421910355,
				"element": "H" 
			},
			{
				"x": 3.7701630498,
				"y": 0.197780197,
				"z": -1.2850286887,
				"element": "H" 
			},
			{
				"x": -1.3203932004,
				"y": -0.5836252085,
				"z": 0.6205440115,
				"element": "H" 
			},
			{
				"x": -0.3555045662,
				"y": 2.276852302,
				"z": -2.4446283987,
				"element": "H" 
			},
			{
				"x": 1.9478385984,
				"y": 1.3671238407,
				"z": -2.5488145817,
				"element": "H" 
			}
		],
		 "valence_orbital": [ 
			{
				"type": "occ",
				"energy": -0.31331,
				"method": "rhf"
			},
			{
				"type": "occ",
				"energy": -0.30892,
				"method": "rhf"
			},
			{
				"type": "occ",
				"energy": -0.30644,
				"method": "rhf"
			},
			{
				"type": "occ",
				"energy": -0.27915,
				"method": "rhf"
			},
			{
				"type": "occ",
				"energy": -0.26451,
				"method": "rhf"
			},
			{
				"type": "unocc",
				"energy": -0.05196,
				"method": "rhf"
			},
			{
				"type": "unocc",
				"energy": -0.04437,
				"method": "rhf"
			},
			{
				"type": "unocc",
				"energy": -0.03018,
				"method": "rhf"
			},
			{
				"type": "unocc",
				"energy": 0.02345,
				"method": "rhf"
			},
			{
				"type": "unocc",
				"energy": 0.0482,
				"method": "rhf"
			}
		],
		"cosmo_sigma_profile": { 
			"-0.025": 0.0,
			"-0.024": 0.0,
			"-0.023": 0.0,
			"-0.022": 0.0,
			"-0.021": 0.0,
			"-0.02": 0.0,
			"-0.019": 0.0,
			"-0.018": 0.0,
			"-0.017": 0.0,
			"-0.016": 0.0,
			"-0.015": 0.394510615089,
			"-0.014": 1.38817465583,
			"-0.013": 1.69717351863,
			"-0.012": 2.81069837024,
			"-0.011": 2.29510442385,
			"-0.01": 3.47069980071,
			"-0.009": 5.85349001769,
			"-0.008": 8.21882721821,
			"-0.007": 11.6937894835,
			"-0.006": 10.8587000975,
			"-0.005": 9.86163259538,
			"-0.004": 11.4624213502,
			"-0.003": 9.94955104026,
			"-0.002": 11.9956186924,
			"-0.001": 14.8019230578,
			"0.0": 21.4698556099,
			"0.001": 21.9003940682,
			"0.002": 15.1876654978,
			"0.003": 16.1106558161,
			"0.004": 15.4300253772,
			"0.005": 3.24486756583,
			"0.006": 3.73620793709,
			"0.007": 4.4683803607,
			"0.008": 4.18538229396,
			"0.009": 3.5424599482,
			"0.01": 7.63760762298,
			"0.011": 11.6368193261,
			"0.012": 5.36101736007,
			"0.013": 0.0687146395255,
			"0.014": 0.0,
			"0.015": 0.0,
			"0.016": 0.0,
			"0.017": 0.0,
			"0.018": 0.0,
			"0.019": 0.0,
			"0.02": 0.0,
			"0.021": 0.0,
			"0.022": 0.0,
			"0.023": 0.0,
			"0.024": 0.0,
			"0.025": 0.0
		}
	}
}
