{
	 "smiles": "ClCC1=NOC(=C1)C1=CC=CS1", 
	 "Tm": 306.15, 
	 "num_atms": 18, 
	 "gaussian": { 
		 "optdone": 1, 
		 "sigma_profile": "yes", 
		 "theory": "DFT", 
		 "functional": "B3LYP", 
		 "basiset": "6-31G**", 
		 "properties": { 
			 "R2extent": 4657.1701, 
			 "electric_dipole_moment_norm": 3.37901742227, 
			 "electric_quadrupole_moment_norm": 7.21457562092, 
			 "total_energy": -1296.75951129, 
			 "HOMO_LUMO_gap": 0.16854, 
			 "cosmo_polarized_energy": -9.29, 
			 "cosmo_cavitation_energy": 26.6, 
			 "cosmo_dispersion_energy": -20.21, 
			 "cosmo_repulsion_energy": 1.57, 
			 "cosmo_total_nonelectrostatic_energy": 7.96, 
			 "SMD_solvation_energy": 3.95 
		},
		"coords": [
			{
				"x": 1.2104537432,
				"y": 4.3128392485,
				"z": 2.183460223,
				"element": "Cl" 
			},
			{
				"x": -0.5296602326,
				"y": 4.4269732544,
				"z": 1.6572175833,
				"element": "C" 
			},
			{
				"x": -0.926996208,
				"y": 3.2842464869,
				"z": 0.7840282847,
				"element": "C" 
			},
			{
				"x": -1.327865862,
				"y": 3.5380953083,
				"z": -0.4443303911,
				"element": "N" 
			},
			{
				"x": -1.6590082639,
				"y": 2.2998201504,
				"z": -0.9902887793,
				"element": "O" 
			},
			{
				"x": -1.4396232748,
				"y": 1.3262736734,
				"z": -0.0697496879,
				"element": "C" 
			},
			{
				"x": -0.9737066314,
				"y": 1.8959970194,
				"z": 1.0853169784,
				"element": "C" 
			},
			{
				"x": -1.7288785588,
				"y": -0.0291637461,
				"z": -0.4770298793,
				"element": "C" 
			},
			{
				"x": -2.2003709259,
				"y": -0.4578316825,
				"z": -1.6987106785,
				"element": "C" 
			},
			{
				"x": -2.3760226847,
				"y": -1.8678813723,
				"z": -1.7621618454,
				"element": "C" 
			},
			{
				"x": -2.0387337003,
				"y": -2.4981464459,
				"z": -0.5941610857,
				"element": "C" 
			},
			{
				"x": -1.497131134,
				"y": -1.3782563833,
				"z": 0.6111147396,
				"element": "S" 
			},
			{
				"x": -0.6437631576,
				"y": 5.3661720746,
				"z": 1.1175123138,
				"element": "H" 
			},
			{
				"x": -1.1171899799,
				"y": 4.4533259216,
				"z": 2.5758500314,
				"element": "H" 
			},
			{
				"x": -0.6903186157,
				"y": 1.4076606604,
				"z": 2.0046697193,
				"element": "H" 
			},
			{
				"x": -2.4089529251,
				"y": 0.2242005757,
				"z": -2.5138450053,
				"element": "H" 
			},
			{
				"x": -2.7375256406,
				"y": -2.3917605663,
				"z": -2.6392135339,
				"element": "H" 
			},
			{
				"x": -2.073805948,
				"y": -3.5543641772,
				"z": -0.3660789871,
				"element": "H" 
			}
		],
		 "valence_orbital": [ 
			{
				"type": "occ",
				"energy": -0.30275,
				"method": "rhf"
			},
			{
				"type": "occ",
				"energy": -0.3021,
				"method": "rhf"
			},
			{
				"type": "occ",
				"energy": -0.29324,
				"method": "rhf"
			},
			{
				"type": "occ",
				"energy": -0.26831,
				"method": "rhf"
			},
			{
				"type": "occ",
				"energy": -0.22966,
				"method": "rhf"
			},
			{
				"type": "unocc",
				"energy": -0.06112,
				"method": "rhf"
			},
			{
				"type": "unocc",
				"energy": -0.01545,
				"method": "rhf"
			},
			{
				"type": "unocc",
				"energy": 0.01115,
				"method": "rhf"
			},
			{
				"type": "unocc",
				"energy": 0.02346,
				"method": "rhf"
			},
			{
				"type": "unocc",
				"energy": 0.05559,
				"method": "rhf"
			}
		],
		"cosmo_sigma_profile": { 
			"-0.025": 0.0,
			"-0.024": 0.0,
			"-0.023": 0.0,
			"-0.022": 0.0,
			"-0.021": 0.0,
			"-0.02": 0.0,
			"-0.019": 0.0,
			"-0.018": 0.0,
			"-0.017": 0.0,
			"-0.016": 0.0,
			"-0.015": 0.0,
			"-0.014": 0.0,
			"-0.013": 0.0,
			"-0.012": 0.0,
			"-0.011": 0.0,
			"-0.01": 0.186774614902,
			"-0.009": 4.89138739066,
			"-0.008": 8.75095350696,
			"-0.007": 11.5322227654,
			"-0.006": 11.2519192215,
			"-0.005": 12.0250882002,
			"-0.004": 9.68294588811,
			"-0.003": 9.16034706379,
			"-0.002": 9.88143221409,
			"-0.001": 11.1053554002,
			"0.0": 18.994871475,
			"0.001": 21.9912787808,
			"0.002": 20.5488534439,
			"0.003": 20.309184842,
			"0.004": 13.8233436712,
			"0.005": 11.0806138276,
			"0.006": 10.3577406552,
			"0.007": 4.23248100475,
			"0.008": 2.22187823808,
			"0.009": 1.50551422053,
			"0.01": 1.15985942834,
			"0.011": 1.38638317592,
			"0.012": 1.3781426303,
			"0.013": 0.937452474666,
			"0.014": 0.309920111742,
			"0.015": 0.0,
			"0.016": 0.0,
			"0.017": 0.0,
			"0.018": 0.0,
			"0.019": 0.0,
			"0.02": 0.0,
			"0.021": 0.0,
			"0.022": 0.0,
			"0.023": 0.0,
			"0.024": 0.0,
			"0.025": 0.0
		}
	}
}
