{
	 "smiles": "CC(C)(C)OC(=O)NC1=C(N)C=C(F)C=C1", 
	 "Tm": 405.15, 
	 "num_atms": 31, 
	 "gaussian": { 
		 "optdone": 1, 
		 "sigma_profile": "yes", 
		 "theory": "DFT", 
		 "functional": "B3LYP", 
		 "basiset": "6-31G**", 
		 "properties": { 
			 "R2extent": 5419.6185, 
			 "electric_dipole_moment_norm": 3.08949862114, 
			 "electric_quadrupole_moment_norm": 8.01644287636, 
			 "total_energy": -788.042272225, 
			 "HOMO_LUMO_gap": 0.19744, 
			 "cosmo_polarized_energy": -11.49, 
			 "cosmo_cavitation_energy": 34.16, 
			 "cosmo_dispersion_energy": -24.32, 
			 "cosmo_repulsion_energy": 1.88, 
			 "cosmo_total_nonelectrostatic_energy": 11.71, 
			 "SMD_solvation_energy": 7.04 
		},
		"coords": [
			{
				"x": 3.1448996165,
				"y": 2.3306389107,
				"z": -0.0968952047,
				"element": "C" 
			},
			{
				"x": 1.8272327608,
				"y": 2.7889646912,
				"z": -0.7299965354,
				"element": "C" 
			},
			{
				"x": 1.9099729898,
				"y": 2.867508852,
				"z": -2.2578195363,
				"element": "C" 
			},
			{
				"x": 1.3761724046,
				"y": 4.1278577371,
				"z": -0.1406847101,
				"element": "C" 
			},
			{
				"x": 0.7354582633,
				"y": 1.8832188409,
				"z": -0.3292099647,
				"element": "O" 
			},
			{
				"x": 0.7462701573,
				"y": 0.5758789288,
				"z": -0.6726633668,
				"element": "C" 
			},
			{
				"x": 1.626210741,
				"y": 0.0046505555,
				"z": -1.3084501448,
				"element": "O" 
			},
			{
				"x": -0.4007193117,
				"y": -0.012491522,
				"z": -0.2160159802,
				"element": "N" 
			},
			{
				"x": -0.7146473382,
				"y": -1.4032478259,
				"z": -0.2058763653,
				"element": "C" 
			},
			{
				"x": -0.6502284825,
				"y": -2.2066265272,
				"z": -1.3733765013,
				"element": "C" 
			},
			{
				"x": -0.2416517012,
				"y": -1.6820100151,
				"z": -2.5913375645,
				"element": "N" 
			},
			{
				"x": -1.0790138205,
				"y": -3.5430465656,
				"z": -1.2751024909,
				"element": "C" 
			},
			{
				"x": -1.5744774719,
				"y": -4.0367459572,
				"z": -0.0792888014,
				"element": "C" 
			},
			{
				"x": -1.988418906,
				"y": -5.3222607193,
				"z": -0.0353563379,
				"element": "F" 
			},
			{
				"x": -1.6494084972,
				"y": -3.2627635017,
				"z": 1.0719398223,
				"element": "C" 
			},
			{
				"x": -1.2016121658,
				"y": -1.9462734792,
				"z": 0.9863016927,
				"element": "C" 
			},
			{
				"x": 3.0362598193,
				"y": 2.247445508,
				"z": 0.9890787402,
				"element": "H" 
			},
			{
				"x": 3.4573241974,
				"y": 1.3654898555,
				"z": -0.4962312387,
				"element": "H" 
			},
			{
				"x": 3.9267277076,
				"y": 3.0685125919,
				"z": -0.3039693991,
				"element": "H" 
			},
			{
				"x": 0.9376442544,
				"y": 3.1435247705,
				"z": -2.6778226187,
				"element": "H" 
			},
			{
				"x": 2.2225590508,
				"y": 1.9138904542,
				"z": -2.6836393052,
				"element": "H" 
			},
			{
				"x": 2.6346476947,
				"y": 3.6358552557,
				"z": -2.5458775098,
				"element": "H" 
			},
			{
				"x": 1.2704830072,
				"y": 4.0559209459,
				"z": 0.9456631875,
				"element": "H" 
			},
			{
				"x": 0.4135771296,
				"y": 4.431485342,
				"z": -0.5622395981,
				"element": "H" 
			},
			{
				"x": 2.1135912539,
				"y": 4.9037402021,
				"z": -0.3662181204,
				"element": "H" 
			},
			{
				"x": -0.9900145977,
				"y": 0.5892024923,
				"z": 0.3417672344,
				"element": "H" 
			},
			{
				"x": 0.5477082458,
				"y": -1.0448284446,
				"z": -2.5097369032,
				"element": "H" 
			},
			{
				"x": -0.0952387053,
				"y": -2.3835372667,
				"z": -3.3049734766,
				"element": "H" 
			},
			{
				"x": -1.0394334425,
				"y": -4.19566476,
				"z": -2.141527829,
				"element": "H" 
			},
			{
				"x": -2.0337654489,
				"y": -3.6817754473,
				"z": 1.9939993689,
				"element": "H" 
			},
			{
				"x": -1.2334094045,
				"y": -1.3123139026,
				"z": 1.8685594571,
				"element": "H" 
			}
		],
		 "valence_orbital": [ 
			{
				"type": "occ",
				"energy": -0.29795,
				"method": "rhf"
			},
			{
				"type": "occ",
				"energy": -0.29004,
				"method": "rhf"
			},
			{
				"type": "occ",
				"energy": -0.27587,
				"method": "rhf"
			},
			{
				"type": "occ",
				"energy": -0.23171,
				"method": "rhf"
			},
			{
				"type": "occ",
				"energy": -0.20002,
				"method": "rhf"
			},
			{
				"type": "unocc",
				"energy": -0.00258,
				"method": "rhf"
			},
			{
				"type": "unocc",
				"energy": 0.01568,
				"method": "rhf"
			},
			{
				"type": "unocc",
				"energy": 0.04852,
				"method": "rhf"
			},
			{
				"type": "unocc",
				"energy": 0.07917,
				"method": "rhf"
			},
			{
				"type": "unocc",
				"energy": 0.08796,
				"method": "rhf"
			}
		],
		"cosmo_sigma_profile": { 
			"-0.025": 0.0,
			"-0.024": 0.0,
			"-0.023": 0.0,
			"-0.022": 0.0,
			"-0.021": 0.0,
			"-0.02": 0.0,
			"-0.019": 0.0,
			"-0.018": 0.0,
			"-0.017": 0.0,
			"-0.016": 0.0,
			"-0.015": 0.141089221908,
			"-0.014": 1.03229098313,
			"-0.013": 1.08945462301,
			"-0.012": 2.34662235784,
			"-0.011": 3.07762111168,
			"-0.01": 2.46137746888,
			"-0.009": 2.41014748766,
			"-0.008": 3.32423138281,
			"-0.007": 5.18685629955,
			"-0.006": 7.22323144319,
			"-0.005": 7.13999083965,
			"-0.004": 18.8185615868,
			"-0.003": 18.6626295021,
			"-0.002": 21.4222804198,
			"-0.001": 23.8101037443,
			"0.0": 31.5851874641,
			"0.001": 24.5944832079,
			"0.002": 16.5955478529,
			"0.003": 14.6547699468,
			"0.004": 23.8721645263,
			"0.005": 18.112079863,
			"0.006": 5.11630133617,
			"0.007": 3.51071654161,
			"0.008": 2.52959961391,
			"0.009": 2.02648453315,
			"0.01": 2.37993087176,
			"0.011": 2.05013364698,
			"0.012": 2.02477997116,
			"0.013": 1.13710238101,
			"0.014": 0.511070071801,
			"0.015": 0.209299813164,
			"0.016": 0.0,
			"0.017": 0.0,
			"0.018": 0.0,
			"0.019": 0.0,
			"0.02": 0.0,
			"0.021": 0.0,
			"0.022": 0.0,
			"0.023": 0.0,
			"0.024": 0.0,
			"0.025": 0.0
		}
	}
}
