{
	 "smiles": "[O-][N+](=O)C1=CC=C(NN=CC2=CC=CC3=C2C=CC=C3Br)C(=C1)[N+]([O-])=O", 
	 "Tm": 495.15, 
	 "num_atms": 37, 
	 "gaussian": { 
		 "optdone": 1, 
		 "sigma_profile": "yes", 
		 "theory": "DFT", 
		 "functional": "B3LYP", 
		 "basiset": "6-31G**", 
		 "properties": { 
			 "R2extent": 18336.8482, 
			 "electric_dipole_moment_norm": 7.64380077448, 
			 "electric_quadrupole_moment_norm": 32.7077725258, 
			 "total_energy": -3745.5031317, 
			 "HOMO_LUMO_gap": 0.13314, 
			 "cosmo_polarized_energy": -20.96, 
			 "cosmo_cavitation_energy": 46.21, 
			 "cosmo_dispersion_energy": -32.96, 
			 "cosmo_repulsion_energy": 2.46, 
			 "cosmo_total_nonelectrostatic_energy": 15.71, 
			 "SMD_solvation_energy": 10.73 
		},
		"coords": [
			{
				"x": -5.1859433691,
				"y": 4.8472914947,
				"z": 1.524120878,
				"element": "O" 
			},
			{
				"x": -4.6275402486,
				"y": 4.8822561811,
				"z": 0.4260076287,
				"element": "N" 
			},
			{
				"x": -4.9353601432,
				"y": 5.6369816622,
				"z": -0.4965906694,
				"element": "O" 
			},
			{
				"x": -3.5176995357,
				"y": 3.9571618177,
				"z": 0.2059151079,
				"element": "C" 
			},
			{
				"x": -3.1387629886,
				"y": 3.0799975162,
				"z": 1.2265904115,
				"element": "C" 
			},
			{
				"x": -2.1080718825,
				"y": 2.1867849133,
				"z": 0.9995353271,
				"element": "C" 
			},
			{
				"x": -1.414292028,
				"y": 2.1554904257,
				"z": -0.2308719056,
				"element": "C" 
			},
			{
				"x": -0.4437587888,
				"y": 1.1999274228,
				"z": -0.4141485793,
				"element": "N" 
			},
			{
				"x": -0.1788307454,
				"y": 0.7143931575,
				"z": -1.6587714526,
				"element": "N" 
			},
			{
				"x": 0.6993382439,
				"y": -0.2188648534,
				"z": -1.7872264391,
				"element": "C" 
			},
			{
				"x": 1.5767569761,
				"y": -0.8136967402,
				"z": -0.7520102257,
				"element": "C" 
			},
			{
				"x": 2.311748973,
				"y": 0.0066120987,
				"z": 0.0917239005,
				"element": "C" 
			},
			{
				"x": 3.2221630203,
				"y": -0.5380213514,
				"z": 1.0217321471,
				"element": "C" 
			},
			{
				"x": 3.402282685,
				"y": -1.8991783842,
				"z": 1.1073225491,
				"element": "C" 
			},
			{
				"x": 2.6758923985,
				"y": -2.7842618308,
				"z": 0.2674579788,
				"element": "C" 
			},
			{
				"x": 1.7396326003,
				"y": -2.2398868036,
				"z": -0.6796169954,
				"element": "C" 
			},
			{
				"x": 0.9920509761,
				"y": -3.122317808,
				"z": -1.5039049282,
				"element": "C" 
			},
			{
				"x": 1.1695672914,
				"y": -4.4842387383,
				"z": -1.4220488696,
				"element": "C" 
			},
			{
				"x": 2.0939925302,
				"y": -5.0350793154,
				"z": -0.5077209903,
				"element": "C" 
			},
			{
				"x": 2.8188952653,
				"y": -4.2024803432,
				"z": 0.3124168046,
				"element": "C" 
			},
			{
				"x": 4.0443763311,
				"y": -5.0120226036,
				"z": 1.5413183819,
				"element": "Br" 
			},
			{
				"x": -1.7812277629,
				"y": 3.1094583533,
				"z": -1.2110173925,
				"element": "C" 
			},
			{
				"x": -2.8488428947,
				"y": 3.9754704207,
				"z": -1.0114240386,
				"element": "C" 
			},
			{
				"x": -0.9880690528,
				"y": 3.3391183294,
				"z": -2.4298600516,
				"element": "N" 
			},
			{
				"x": 0.2340551719,
				"y": 3.3343708372,
				"z": -2.3122444962,
				"element": "O" 
			},
			{
				"x": -1.6050723023,
				"y": 3.5975272,
				"z": -3.4603950889,
				"element": "O" 
			},
			{
				"x": -3.676936628,
				"y": 3.0951759395,
				"z": 2.1659566948,
				"element": "H" 
			},
			{
				"x": -1.842545084,
				"y": 1.4647384892,
				"z": 1.766332794,
				"element": "H" 
			},
			{
				"x": -0.1535705638,
				"y": 0.6588145451,
				"z": 0.3965526468,
				"element": "H" 
			},
			{
				"x": 0.7987311166,
				"y": -0.5830173042,
				"z": -2.8078056582,
				"element": "H" 
			},
			{
				"x": 2.2150643792,
				"y": 1.0848914817,
				"z": 0.0048294046,
				"element": "H" 
			},
			{
				"x": 3.7932675439,
				"y": 0.1266366685,
				"z": 1.6624392813,
				"element": "H" 
			},
			{
				"x": 4.1066555517,
				"y": -2.3147978795,
				"z": 1.8180072625,
				"element": "H" 
			},
			{
				"x": 0.2628918661,
				"y": -2.7159227044,
				"z": -2.1960208053,
				"element": "H" 
			},
			{
				"x": 0.5943844342,
				"y": -5.1498208958,
				"z": -2.058168529,
				"element": "H" 
			},
			{
				"x": 2.2286954114,
				"y": -6.1086958198,
				"z": -0.4472008836,
				"element": "H" 
			},
			{
				"x": -3.1320187479,
				"y": 4.6767044212,
				"z": -1.7854111999,
				"element": "H" 
			}
		],
		 "valence_orbital": [ 
			{
				"type": "occ",
				"energy": -0.29133,
				"method": "rhf"
			},
			{
				"type": "occ",
				"energy": -0.28278,
				"method": "rhf"
			},
			{
				"type": "occ",
				"energy": -0.27579,
				"method": "rhf"
			},
			{
				"type": "occ",
				"energy": -0.2499,
				"method": "rhf"
			},
			{
				"type": "occ",
				"energy": -0.23051,
				"method": "rhf"
			},
			{
				"type": "unocc",
				"energy": -0.09737,
				"method": "rhf"
			},
			{
				"type": "unocc",
				"energy": -0.08371,
				"method": "rhf"
			},
			{
				"type": "unocc",
				"energy": -0.0772,
				"method": "rhf"
			},
			{
				"type": "unocc",
				"energy": -0.04201,
				"method": "rhf"
			},
			{
				"type": "unocc",
				"energy": -0.03401,
				"method": "rhf"
			}
		],
		"cosmo_sigma_profile": { 
			"-0.025": 0.0,
			"-0.024": 0.0,
			"-0.023": 0.0,
			"-0.022": 0.0,
			"-0.021": 0.0,
			"-0.02": 0.0,
			"-0.019": 0.0,
			"-0.018": 0.0,
			"-0.017": 0.0,
			"-0.016": 0.194361193487,
			"-0.015": 1.09679561783,
			"-0.014": 1.36167399851,
			"-0.013": 0.900455743673,
			"-0.012": 1.55582388314,
			"-0.011": 1.20294169861,
			"-0.01": 1.8754191237,
			"-0.009": 3.52931241448,
			"-0.008": 8.00940569244,
			"-0.007": 16.2386660084,
			"-0.006": 19.47524458,
			"-0.005": 20.6043338167,
			"-0.004": 19.660139581,
			"-0.003": 20.8899570475,
			"-0.002": 27.8480671332,
			"-0.001": 29.1830859063,
			"0.0": 25.3946138358,
			"0.001": 30.6865762738,
			"0.002": 33.9227133932,
			"0.003": 26.1349121811,
			"0.004": 16.4850939387,
			"0.005": 9.8871363748,
			"0.006": 10.2484241829,
			"0.007": 18.1762237211,
			"0.008": 17.3014894084,
			"0.009": 9.25228540973,
			"0.01": 4.71726637443,
			"0.011": 0.258643571067,
			"0.012": 0.0,
			"0.013": 0.0,
			"0.014": 0.0,
			"0.015": 0.0,
			"0.016": 0.0,
			"0.017": 0.0,
			"0.018": 0.0,
			"0.019": 0.0,
			"0.02": 0.0,
			"0.021": 0.0,
			"0.022": 0.0,
			"0.023": 0.0,
			"0.024": 0.0,
			"0.025": 0.0
		}
	}
}
