{
	 "smiles": "CN1N=CC2=C1CCCC2=O", 
	 "Tm": 363.15, 
	 "num_atms": 21, 
	 "gaussian": { 
		 "optdone": 1, 
		 "sigma_profile": "yes", 
		 "theory": "DFT", 
		 "functional": "B3LYP", 
		 "basiset": "6-31G**", 
		 "properties": { 
			 "R2extent": 1854.1816, 
			 "electric_dipole_moment_norm": 5.54054243734, 
			 "electric_quadrupole_moment_norm": 5.40115159202, 
			 "total_energy": -495.596570929, 
			 "HOMO_LUMO_gap": 0.2064, 
			 "cosmo_polarized_energy": -13.71, 
			 "cosmo_cavitation_energy": 23.82, 
			 "cosmo_dispersion_energy": -17.75, 
			 "cosmo_repulsion_energy": 1.43, 
			 "cosmo_total_nonelectrostatic_energy": 7.5, 
			 "SMD_solvation_energy": 3.48 
		},
		"coords": [
			{
				"x": -0.7382618661,
				"y": -2.3078225142,
				"z": -2.0576899345,
				"element": "C" 
			},
			{
				"x": 0.0825043922,
				"y": -1.5345931412,
				"z": -1.1443092592,
				"element": "N" 
			},
			{
				"x": 1.3692652363,
				"y": -1.2346479666,
				"z": -1.5044252152,
				"element": "N" 
			},
			{
				"x": 1.8389862234,
				"y": -0.4900177539,
				"z": -0.514106464,
				"element": "C" 
			},
			{
				"x": 0.8627521998,
				"y": -0.2912916721,
				"z": 0.4952363245,
				"element": "C" 
			},
			{
				"x": -0.2586117884,
				"y": -0.9857521442,
				"z": 0.0446113436,
				"element": "C" 
			},
			{
				"x": -1.563227581,
				"y": -1.0792905224,
				"z": 0.7708080198,
				"element": "C" 
			},
			{
				"x": -1.3148663531,
				"y": -0.791961431,
				"z": 2.2674090909,
				"element": "C" 
			},
			{
				"x": -0.4623387279,
				"y": 0.4703026144,
				"z": 2.4929743144,
				"element": "C" 
			},
			{
				"x": 0.8829427111,
				"y": 0.4527606823,
				"z": 1.7534528525,
				"element": "C" 
			},
			{
				"x": 1.8631230977,
				"y": 1.046872635,
				"z": 2.1798398498,
				"element": "O" 
			},
			{
				"x": -0.0724890335,
				"y": -2.919805455,
				"z": -2.6658585773,
				"element": "H" 
			},
			{
				"x": -1.3251211407,
				"y": -1.6562222813,
				"z": -2.7141417655,
				"element": "H" 
			},
			{
				"x": -1.4168431739,
				"y": -2.9542489358,
				"z": -1.496428655,
				"element": "H" 
			},
			{
				"x": 2.8541641576,
				"y": -0.1191473715,
				"z": -0.5427128066,
				"element": "H" 
			},
			{
				"x": -2.2745610032,
				"y": -0.3469010973,
				"z": 0.3612267459,
				"element": "H" 
			},
			{
				"x": -2.0259185841,
				"y": -2.0649606375,
				"z": 0.6423002641,
				"element": "H" 
			},
			{
				"x": -2.2737952007,
				"y": -0.6942285473,
				"z": 2.7870292925,
				"element": "H" 
			},
			{
				"x": -0.8010978385,
				"y": -1.6546830984,
				"z": 2.7086034378,
				"element": "H" 
			},
			{
				"x": -1.0101082653,
				"y": 1.3565150868,
				"z": 2.1387988356,
				"element": "H" 
			},
			{
				"x": -0.2590974616,
				"y": 0.6314235511,
				"z": 3.555282306,
				"element": "H" 
			}
		],
		 "valence_orbital": [ 
			{
				"type": "occ",
				"energy": -0.33823,
				"method": "rhf"
			},
			{
				"type": "occ",
				"energy": -0.29292,
				"method": "rhf"
			},
			{
				"type": "occ",
				"energy": -0.25721,
				"method": "rhf"
			},
			{
				"type": "occ",
				"energy": -0.24578,
				"method": "rhf"
			},
			{
				"type": "occ",
				"energy": -0.233,
				"method": "rhf"
			},
			{
				"type": "unocc",
				"energy": -0.0266,
				"method": "rhf"
			},
			{
				"type": "unocc",
				"energy": 0.01246,
				"method": "rhf"
			},
			{
				"type": "unocc",
				"energy": 0.07036,
				"method": "rhf"
			},
			{
				"type": "unocc",
				"energy": 0.09164,
				"method": "rhf"
			},
			{
				"type": "unocc",
				"energy": 0.11028,
				"method": "rhf"
			}
		],
		"cosmo_sigma_profile": { 
			"-0.025": 0.0,
			"-0.024": 0.0,
			"-0.023": 0.0,
			"-0.022": 0.0,
			"-0.021": 0.0,
			"-0.02": 0.0,
			"-0.019": 0.0,
			"-0.018": 0.0,
			"-0.017": 0.0,
			"-0.016": 0.0,
			"-0.015": 0.0,
			"-0.014": 0.0,
			"-0.013": 0.0,
			"-0.012": 0.0,
			"-0.011": 0.0,
			"-0.01": 0.0,
			"-0.009": 0.0,
			"-0.008": 1.54835548916,
			"-0.007": 5.39800478058,
			"-0.006": 11.3820303999,
			"-0.005": 17.942081467,
			"-0.004": 24.914988354,
			"-0.003": 26.1493957206,
			"-0.002": 17.5090380322,
			"-0.001": 11.7831725296,
			"0.0": 7.95485496527,
			"0.001": 6.45091823669,
			"0.002": 7.32124107749,
			"0.003": 8.21785377533,
			"0.004": 4.36566243912,
			"0.005": 3.91753933644,
			"0.006": 3.5150853204,
			"0.007": 2.8025227362,
			"0.008": 2.71075580414,
			"0.009": 3.76058575336,
			"0.01": 2.89050441089,
			"0.011": 2.63535451101,
			"0.012": 4.84516742562,
			"0.013": 6.09876723217,
			"0.014": 2.96780895047,
			"0.015": 0.889997813443,
			"0.016": 0.182130923901,
			"0.017": 0.0,
			"0.018": 0.0,
			"0.019": 0.0,
			"0.02": 0.0,
			"0.021": 0.0,
			"0.022": 0.0,
			"0.023": 0.0,
			"0.024": 0.0,
			"0.025": 0.0
		}
	}
}
