{
	 "smiles": "CC1=NC(O)=CC(O)=C1", 
	 "Tm": 599.15, 
	 "num_atms": 16, 
	 "gaussian": { 
		 "optdone": 1, 
		 "sigma_profile": "yes", 
		 "theory": "DFT", 
		 "functional": "B3LYP", 
		 "basiset": "6-31G**", 
		 "properties": { 
			 "R2extent": 1361.8048, 
			 "electric_dipole_moment_norm": 2.63057005419, 
			 "electric_quadrupole_moment_norm": 5.34017540817, 
			 "total_energy": -438.065998663, 
			 "HOMO_LUMO_gap": 0.22355, 
			 "cosmo_polarized_energy": -11.54, 
			 "cosmo_cavitation_energy": 20.16, 
			 "cosmo_dispersion_energy": -15.28, 
			 "cosmo_repulsion_energy": 1.27, 
			 "cosmo_total_nonelectrostatic_energy": 6.15, 
			 "SMD_solvation_energy": 3.22 
		},
		"coords": [
			{
				"x": 2.6090075196,
				"y": 0.4339283204,
				"z": 1.0381725331,
				"element": "C" 
			},
			{
				"x": 1.1877733832,
				"y": 0.6220880567,
				"z": 0.5655261828,
				"element": "C" 
			},
			{
				"x": 0.4674955095,
				"y": 1.5741867966,
				"z": 1.1821746619,
				"element": "N" 
			},
			{
				"x": -0.7929875548,
				"y": 1.7597016622,
				"z": 0.7815794262,
				"element": "C" 
			},
			{
				"x": -1.4956003468,
				"y": 2.724373349,
				"z": 1.4189250112,
				"element": "O" 
			},
			{
				"x": -1.4217476946,
				"y": 1.0374414909,
				"z": -0.2324696377,
				"element": "C" 
			},
			{
				"x": -0.6628602927,
				"y": 0.0535565806,
				"z": -0.862945252,
				"element": "C" 
			},
			{
				"x": -1.2553561684,
				"y": -0.6622197519,
				"z": -1.8537067544,
				"element": "O" 
			},
			{
				"x": 0.6630733882,
				"y": -0.1628208148,
				"z": -0.4628168577,
				"element": "C" 
			},
			{
				"x": 2.8255946895,
				"y": 1.1381349827,
				"z": 1.8427544439,
				"element": "H" 
			},
			{
				"x": 2.7717392043,
				"y": -0.5843236414,
				"z": 1.4090146575,
				"element": "H" 
			},
			{
				"x": 3.3228327366,
				"y": 0.6005729787,
				"z": 0.2235997464,
				"element": "H" 
			},
			{
				"x": -0.8857537039,
				"y": 3.0974333161,
				"z": 2.0751384633,
				"element": "H" 
			},
			{
				"x": -2.4480860784,
				"y": 1.2304047244,
				"z": -0.5167648112,
				"element": "H" 
			},
			{
				"x": -0.6239220669,
				"y": -1.3051200604,
				"z": -2.2027153346,
				"element": "H" 
			},
			{
				"x": 1.2722974755,
				"y": -0.9252379898,
				"z": -0.9415664788,
				"element": "H" 
			}
		],
		 "valence_orbital": [ 
			{
				"type": "occ",
				"energy": -0.35477,
				"method": "rhf"
			},
			{
				"type": "occ",
				"energy": -0.32107,
				"method": "rhf"
			},
			{
				"type": "occ",
				"energy": -0.26665,
				"method": "rhf"
			},
			{
				"type": "occ",
				"energy": -0.24793,
				"method": "rhf"
			},
			{
				"type": "occ",
				"energy": -0.2282,
				"method": "rhf"
			},
			{
				"type": "unocc",
				"energy": -0.00465,
				"method": "rhf"
			},
			{
				"type": "unocc",
				"energy": 0.01075,
				"method": "rhf"
			},
			{
				"type": "unocc",
				"energy": 0.06286,
				"method": "rhf"
			},
			{
				"type": "unocc",
				"energy": 0.1003,
				"method": "rhf"
			},
			{
				"type": "unocc",
				"energy": 0.10935,
				"method": "rhf"
			}
		],
		"cosmo_sigma_profile": { 
			"-0.025": 0.0,
			"-0.024": 0.0,
			"-0.023": 0.0,
			"-0.022": 0.0,
			"-0.021": 0.0,
			"-0.02": 0.0,
			"-0.019": 0.0137740417891,
			"-0.018": 0.973617957818,
			"-0.017": 1.33162127408,
			"-0.016": 1.81654795875,
			"-0.015": 1.59425747351,
			"-0.014": 2.29278269025,
			"-0.013": 1.5110868296,
			"-0.012": 1.20021424095,
			"-0.011": 1.00348164209,
			"-0.01": 2.14961968415,
			"-0.009": 1.95323548574,
			"-0.008": 1.17368601013,
			"-0.007": 2.79901683879,
			"-0.006": 4.30905632599,
			"-0.005": 5.74982572453,
			"-0.004": 8.57991466703,
			"-0.003": 10.2272357875,
			"-0.002": 9.74660217228,
			"-0.001": 9.36597559074,
			"0.0": 11.7505005255,
			"0.001": 9.01862828954,
			"0.002": 12.430324837,
			"0.003": 17.2244963472,
			"0.004": 9.35633733278,
			"0.005": 5.7005610456,
			"0.006": 3.99471793718,
			"0.007": 3.7783419898,
			"0.008": 4.44981791174,
			"0.009": 3.98429290251,
			"0.01": 4.57727133622,
			"0.011": 3.99992630913,
			"0.012": 1.08768539211,
			"0.013": 0.655571304039,
			"0.014": 0.0,
			"0.015": 0.0,
			"0.016": 0.0,
			"0.017": 0.0,
			"0.018": 0.0,
			"0.019": 0.0,
			"0.02": 0.0,
			"0.021": 0.0,
			"0.022": 0.0,
			"0.023": 0.0,
			"0.024": 0.0,
			"0.025": 0.0
		}
	}
}
