{
	 "smiles": "CC(C)CCBr", 
	 "Tm": 161.15, 
	 "num_atms": 17, 
	 "gaussian": { 
		 "optdone": 1, 
		 "sigma_profile": "yes", 
		 "theory": "DFT", 
		 "functional": "B3LYP", 
		 "basiset": "6-31G**", 
		 "properties": { 
			 "R2extent": 2737.1602, 
			 "electric_dipole_moment_norm": 2.1678264437, 
			 "electric_quadrupole_moment_norm": 6.6177582511, 
			 "total_energy": -2768.58310304, 
			 "HOMO_LUMO_gap": 0.26799, 
			 "cosmo_polarized_energy": -3.72, 
			 "cosmo_cavitation_energy": 20.76, 
			 "cosmo_dispersion_energy": -15.56, 
			 "cosmo_repulsion_energy": 1.33, 
			 "cosmo_total_nonelectrostatic_energy": 6.53, 
			 "SMD_solvation_energy": 2.49 
		},
		"coords": [
			{
				"x": 2.0641664568,
				"y": -0.1932988948,
				"z": 0.8335282316,
				"element": "C" 
			},
			{
				"x": 0.7589465425,
				"y": 0.6170173951,
				"z": 0.7829748621,
				"element": "C" 
			},
			{
				"x": 0.9866455452,
				"y": 2.0326179731,
				"z": 1.3336884236,
				"element": "C" 
			},
			{
				"x": -0.3612105019,
				"y": -0.1637699598,
				"z": 1.5015272455,
				"element": "C" 
			},
			{
				"x": -1.7919838456,
				"y": 0.3325367428,
				"z": 1.3088944672,
				"element": "C" 
			},
			{
				"x": -2.3354255366,
				"y": 1.8025753116,
				"z": 2.5372010626,
				"element": "Br" 
			},
			{
				"x": 2.4010827229,
				"y": -0.3271398551,
				"z": 1.8687181019,
				"element": "H" 
			},
			{
				"x": 2.8650266204,
				"y": 0.3182745554,
				"z": 0.2896544758,
				"element": "H" 
			},
			{
				"x": 1.9410201922,
				"y": -1.1884992416,
				"z": 0.3918519697,
				"element": "H" 
			},
			{
				"x": 0.4638229288,
				"y": 0.707749266,
				"z": -0.273862573,
				"element": "H" 
			},
			{
				"x": 0.0981081616,
				"y": 2.6609056608,
				"z": 1.2425439546,
				"element": "H" 
			},
			{
				"x": 1.8059563765,
				"y": 2.5221881972,
				"z": 0.7955783949,
				"element": "H" 
			},
			{
				"x": 1.2577816855,
				"y": 1.9995971329,
				"z": 2.3955310557,
				"element": "H" 
			},
			{
				"x": -0.1406167088,
				"y": -0.2474666212,
				"z": 2.5726523106,
				"element": "H" 
			},
			{
				"x": -0.3528594187,
				"y": -1.1921374698,
				"z": 1.1102156129,
				"element": "H" 
			},
			{
				"x": -2.517502305,
				"y": -0.4518028063,
				"z": 1.5200866046,
				"element": "H" 
			},
			{
				"x": -1.9678589158,
				"y": 0.7219526137,
				"z": 0.3052157998,
				"element": "H" 
			}
		],
		 "valence_orbital": [ 
			{
				"type": "occ",
				"energy": -0.33507,
				"method": "rhf"
			},
			{
				"type": "occ",
				"energy": -0.32638,
				"method": "rhf"
			},
			{
				"type": "occ",
				"energy": -0.32509,
				"method": "rhf"
			},
			{
				"type": "occ",
				"energy": -0.26825,
				"method": "rhf"
			},
			{
				"type": "occ",
				"energy": -0.26428,
				"method": "rhf"
			},
			{
				"type": "unocc",
				"energy": 0.00371,
				"method": "rhf"
			},
			{
				"type": "unocc",
				"energy": 0.08022,
				"method": "rhf"
			},
			{
				"type": "unocc",
				"energy": 0.10787,
				"method": "rhf"
			},
			{
				"type": "unocc",
				"energy": 0.11884,
				"method": "rhf"
			},
			{
				"type": "unocc",
				"energy": 0.14451,
				"method": "rhf"
			}
		],
		"cosmo_sigma_profile": { 
			"-0.025": 0.0,
			"-0.024": 0.0,
			"-0.023": 0.0,
			"-0.022": 0.0,
			"-0.021": 0.0,
			"-0.02": 0.0,
			"-0.019": 0.0,
			"-0.018": 0.0,
			"-0.017": 0.0,
			"-0.016": 0.0,
			"-0.015": 0.0,
			"-0.014": 0.0,
			"-0.013": 0.0,
			"-0.012": 0.0,
			"-0.011": 0.0,
			"-0.01": 0.0,
			"-0.009": 0.0,
			"-0.008": 0.0,
			"-0.007": 1.29708560351,
			"-0.006": 4.27872052635,
			"-0.005": 5.57920926022,
			"-0.004": 8.55279324693,
			"-0.003": 15.5931096104,
			"-0.002": 23.3655134539,
			"-0.001": 20.8193442912,
			"0.0": 19.7437815836,
			"0.001": 18.8122792919,
			"0.002": 13.6970134298,
			"0.003": 5.2683377471,
			"0.004": 5.2370252898,
			"0.005": 7.11695391997,
			"0.006": 8.18452321233,
			"0.007": 6.22265679325,
			"0.008": 0.0169426038264,
			"0.009": 0.0,
			"0.01": 0.0,
			"0.011": 0.0,
			"0.012": 0.0,
			"0.013": 0.0,
			"0.014": 0.0,
			"0.015": 0.0,
			"0.016": 0.0,
			"0.017": 0.0,
			"0.018": 0.0,
			"0.019": 0.0,
			"0.02": 0.0,
			"0.021": 0.0,
			"0.022": 0.0,
			"0.023": 0.0,
			"0.024": 0.0,
			"0.025": 0.0
		}
	}
}
