{
	 "smiles": "COC(=O)NC1=CC(Cl)=CC(Cl)=C1", 
	 "Tm": 394.15, 
	 "num_atms": 20, 
	 "gaussian": { 
		 "optdone": 1, 
		 "sigma_profile": "yes", 
		 "theory": "DFT", 
		 "functional": "B3LYP", 
		 "basiset": "6-31G**", 
		 "properties": { 
			 "R2extent": 5144.323, 
			 "electric_dipole_moment_norm": 1.31149386579, 
			 "electric_quadrupole_moment_norm": 11.1898383246, 
			 "total_energy": -1434.67231552, 
			 "HOMO_LUMO_gap": 0.21089, 
			 "cosmo_polarized_energy": -10.19, 
			 "cosmo_cavitation_energy": 28.7, 
			 "cosmo_dispersion_energy": -21.22, 
			 "cosmo_repulsion_energy": 1.7, 
			 "cosmo_total_nonelectrostatic_energy": 9.17, 
			 "SMD_solvation_energy": 6.16 
		},
		"coords": [
			{
				"x": 2.7032501852,
				"y": -2.6200661028,
				"z": 0.4873708185,
				"element": "C" 
			},
			{
				"x": 1.7249226291,
				"y": -1.5872182498,
				"z": 0.7072848827,
				"element": "O" 
			},
			{
				"x": 1.7413063362,
				"y": -0.5972603638,
				"z": -0.2076209747,
				"element": "C" 
			},
			{
				"x": 2.5014364085,
				"y": -0.5430643224,
				"z": -1.1546052763,
				"element": "O" 
			},
			{
				"x": 0.7932738857,
				"y": 0.38123597,
				"z": 0.0243585433,
				"element": "N" 
			},
			{
				"x": -0.1885088825,
				"y": 0.5706465557,
				"z": 1.0107159586,
				"element": "C" 
			},
			{
				"x": -0.4168870472,
				"y": -0.3108135352,
				"z": 2.0781576621,
				"element": "C" 
			},
			{
				"x": -1.4239274752,
				"y": -0.0077338968,
				"z": 2.9913544703,
				"element": "C" 
			},
			{
				"x": -1.7032489472,
				"y": -1.1167024729,
				"z": 4.3247901851,
				"element": "Cl" 
			},
			{
				"x": -2.2184016751,
				"y": 1.1323167975,
				"z": 2.8960608697,
				"element": "C" 
			},
			{
				"x": -1.9681650695,
				"y": 1.9889725778,
				"z": 1.8252755157,
				"element": "C" 
			},
			{
				"x": -2.9379707232,
				"y": 3.4417867943,
				"z": 1.6535936154,
				"element": "Cl" 
			},
			{
				"x": -0.9753483517,
				"y": 1.73000133,
				"z": 0.8888862056,
				"element": "C" 
			},
			{
				"x": 3.7121994581,
				"y": -2.2030861531,
				"z": 0.5135092858,
				"element": "H" 
			},
			{
				"x": 2.5593604648,
				"y": -3.33075988,
				"z": 1.3006311316,
				"element": "H" 
			},
			{
				"x": 2.5404167183,
				"y": -3.1017148788,
				"z": -0.4790859623,
				"element": "H" 
			},
			{
				"x": 0.8470559395,
				"y": 1.0965745442,
				"z": -0.6871564163,
				"element": "H" 
			},
			{
				"x": 0.1725654539,
				"y": -1.206227209,
				"z": 2.1936834468,
				"element": "H" 
			},
			{
				"x": -2.9944325581,
				"y": 1.3439521261,
				"z": 3.6196738846,
				"element": "H" 
			},
			{
				"x": -0.8128967495,
				"y": 2.422760369,
				"z": 0.0700221538,
				"element": "H" 
			}
		],
		 "valence_orbital": [ 
			{
				"type": "occ",
				"energy": -0.31646,
				"method": "rhf"
			},
			{
				"type": "occ",
				"energy": -0.30091,
				"method": "rhf"
			},
			{
				"type": "occ",
				"energy": -0.29307,
				"method": "rhf"
			},
			{
				"type": "occ",
				"energy": -0.2562,
				"method": "rhf"
			},
			{
				"type": "occ",
				"energy": -0.2387,
				"method": "rhf"
			},
			{
				"type": "unocc",
				"energy": -0.02781,
				"method": "rhf"
			},
			{
				"type": "unocc",
				"energy": -0.02742,
				"method": "rhf"
			},
			{
				"type": "unocc",
				"energy": 0.0023,
				"method": "rhf"
			},
			{
				"type": "unocc",
				"energy": 0.04347,
				"method": "rhf"
			},
			{
				"type": "unocc",
				"energy": 0.04587,
				"method": "rhf"
			}
		],
		"cosmo_sigma_profile": { 
			"-0.025": 0.0,
			"-0.024": 0.0,
			"-0.023": 0.0,
			"-0.022": 0.0,
			"-0.021": 0.0,
			"-0.02": 0.0,
			"-0.019": 0.0,
			"-0.018": 0.0,
			"-0.017": 0.0,
			"-0.016": 0.621876080963,
			"-0.015": 1.5589585483,
			"-0.014": 1.03611425253,
			"-0.013": 1.43791678582,
			"-0.012": 1.06255470502,
			"-0.011": 1.0697934691,
			"-0.01": 1.08379907072,
			"-0.009": 1.59819776279,
			"-0.008": 3.01724598482,
			"-0.007": 3.58906794136,
			"-0.006": 8.81300594277,
			"-0.005": 10.9730086697,
			"-0.004": 13.6791265921,
			"-0.003": 14.6681901251,
			"-0.002": 15.041193843,
			"-0.001": 17.2838286736,
			"0.0": 20.5605076126,
			"0.001": 30.449475037,
			"0.002": 27.2033832385,
			"0.003": 17.1462440729,
			"0.004": 20.6957480774,
			"0.005": 5.98838470652,
			"0.006": 1.45627260761,
			"0.007": 0.757556773366,
			"0.008": 1.55850100874,
			"0.009": 1.07430796301,
			"0.01": 1.41170334136,
			"0.011": 2.15813007643,
			"0.012": 5.01365086634,
			"0.013": 2.52450321755,
			"0.014": 0.0,
			"0.015": 0.0,
			"0.016": 0.0,
			"0.017": 0.0,
			"0.018": 0.0,
			"0.019": 0.0,
			"0.02": 0.0,
			"0.021": 0.0,
			"0.022": 0.0,
			"0.023": 0.0,
			"0.024": 0.0,
			"0.025": 0.0
		}
	}
}
