{
	 "smiles": "CC(C)(C)OC(=O)N1CCN(CC1)C1=CC=C(C=C1)C#N", 
	 "Tm": 397.15, 
	 "num_atms": 42, 
	 "gaussian": { 
		 "optdone": 1, 
		 "sigma_profile": "yes", 
		 "theory": "DFT", 
		 "functional": "B3LYP", 
		 "basiset": "6-31G**", 
		 "properties": { 
			 "R2extent": 11641.3318, 
			 "electric_dipole_moment_norm": 6.69560028377, 
			 "electric_quadrupole_moment_norm": 55.4614704104, 
			 "total_energy": -937.077853342, 
			 "HOMO_LUMO_gap": 0.17995, 
			 "cosmo_polarized_energy": -17.8, 
			 "cosmo_cavitation_energy": 44.06, 
			 "cosmo_dispersion_energy": -30.61, 
			 "cosmo_repulsion_energy": 2.33, 
			 "cosmo_total_nonelectrostatic_energy": 15.78, 
			 "SMD_solvation_energy": 8.04 
		},
		"coords": [
			{
				"x": 4.2773186377,
				"y": -0.3632553832,
				"z": -1.5942222917,
				"element": "C" 
			},
			{
				"x": 3.6747342082,
				"y": -1.3551402279,
				"z": -0.5938998699,
				"element": "C" 
			},
			{
				"x": 3.8039129502,
				"y": -2.8074941884,
				"z": -1.0644056347,
				"element": "C" 
			},
			{
				"x": 4.297822111,
				"y": -1.1748134571,
				"z": 0.7927212617,
				"element": "C" 
			},
			{
				"x": 2.2587074076,
				"y": -1.0269109809,
				"z": -0.3517957699,
				"element": "O" 
			},
			{
				"x": 1.35129467,
				"y": -1.0814820218,
				"z": -1.3556210354,
				"element": "C" 
			},
			{
				"x": 1.5827831197,
				"y": -1.3685695803,
				"z": -2.5218699138,
				"element": "O" 
			},
			{
				"x": 0.1017947631,
				"y": -0.7659481333,
				"z": -0.8846806351,
				"element": "N" 
			},
			{
				"x": -1.0042053992,
				"y": -0.6754719899,
				"z": -1.8321080702,
				"element": "C" 
			},
			{
				"x": -1.898235722,
				"y": 0.519303502,
				"z": -1.5048735498,
				"element": "C" 
			},
			{
				"x": -2.4044195562,
				"y": 0.4293083738,
				"z": -0.1335341191,
				"element": "N" 
			},
			{
				"x": -1.652330249,
				"y": -0.4052959132,
				"z": 0.7992579578,
				"element": "C" 
			},
			{
				"x": -0.1527496021,
				"y": -0.3649808725,
				"z": 0.4989246465,
				"element": "C" 
			},
			{
				"x": -3.5797019094,
				"y": 1.0529146444,
				"z": 0.234189631,
				"element": "C" 
			},
			{
				"x": -4.1629430935,
				"y": 2.0498452895,
				"z": -0.5871265646,
				"element": "C" 
			},
			{
				"x": -5.3414046576,
				"y": 2.6804309869,
				"z": -0.2207104932,
				"element": "C" 
			},
			{
				"x": -5.9938051767,
				"y": 2.3522091004,
				"z": 0.9806421556,
				"element": "C" 
			},
			{
				"x": -5.4243878589,
				"y": 1.3634582099,
				"z": 1.8020039459,
				"element": "C" 
			},
			{
				"x": -4.2489874246,
				"y": 0.7247686079,
				"z": 1.4393529545,
				"element": "C" 
			},
			{
				"x": -7.2075017871,
				"y": 3.0063622052,
				"z": 1.357202008,
				"element": "C" 
			},
			{
				"x": -8.1963149258,
				"y": 3.5394218049,
				"z": 1.6645939059,
				"element": "N" 
			},
			{
				"x": 5.3539659786,
				"y": -0.540758181,
				"z": -1.6833098744,
				"element": "H" 
			},
			{
				"x": 3.8186717444,
				"y": -0.4731404765,
				"z": -2.5769755882,
				"element": "H" 
			},
			{
				"x": 4.131044324,
				"y": 0.6640886815,
				"z": -1.2455566388,
				"element": "H" 
			},
			{
				"x": 4.8626405936,
				"y": -3.0779052181,
				"z": -1.1317240348,
				"element": "H" 
			},
			{
				"x": 3.3267278143,
				"y": -3.4833175405,
				"z": -0.3474554674,
				"element": "H" 
			},
			{
				"x": 3.3419067093,
				"y": -2.9441652884,
				"z": -2.0422551454,
				"element": "H" 
			},
			{
				"x": 5.3702052126,
				"y": -1.3871205984,
				"z": 0.7525612144,
				"element": "H" 
			},
			{
				"x": 3.8378679821,
				"y": -1.855038097,
				"z": 1.5156427379,
				"element": "H" 
			},
			{
				"x": 4.1613062378,
				"y": -0.1491432274,
				"z": 1.147721146,
				"element": "H" 
			},
			{
				"x": -1.6034126858,
				"y": -1.5968118984,
				"z": -1.8228916955,
				"element": "H" 
			},
			{
				"x": -0.5828249135,
				"y": -0.5698996979,
				"z": -2.8327525897,
				"element": "H" 
			},
			{
				"x": -1.3399425828,
				"y": 1.4542893531,
				"z": -1.6664128469,
				"element": "H" 
			},
			{
				"x": -2.7422899214,
				"y": 0.5161017195,
				"z": -2.2030483083,
				"element": "H" 
			},
			{
				"x": -2.0074119666,
				"y": -1.4479010822,
				"z": 0.7921649144,
				"element": "H" 
			},
			{
				"x": -1.7913637867,
				"y": -0.0224023477,
				"z": 1.8136275047,
				"element": "H" 
			},
			{
				"x": 0.3667225977,
				"y": -1.0426318684,
				"z": 1.1807145144,
				"element": "H" 
			},
			{
				"x": 0.2308147481,
				"y": 0.6468469419,
				"z": 0.6897833276,
				"element": "H" 
			},
			{
				"x": -3.6756773423,
				"y": 2.3540274643,
				"z": -1.505319369,
				"element": "H" 
			},
			{
				"x": -5.7617841319,
				"y": 3.4465080879,
				"z": -0.8642646477,
				"element": "H" 
			},
			{
				"x": -5.9203821265,
				"y": 1.0877430387,
				"z": 2.72706792,
				"element": "H" 
			},
			{
				"x": -3.8654649903,
				"y": -0.0564297412,
				"z": 2.0841424073,
				"element": "H" 
			}
		],
		 "valence_orbital": [ 
			{
				"type": "occ",
				"energy": -0.2897,
				"method": "rhf"
			},
			{
				"type": "occ",
				"energy": -0.2699,
				"method": "rhf"
			},
			{
				"type": "occ",
				"energy": -0.26833,
				"method": "rhf"
			},
			{
				"type": "occ",
				"energy": -0.24839,
				"method": "rhf"
			},
			{
				"type": "occ",
				"energy": -0.20954,
				"method": "rhf"
			},
			{
				"type": "unocc",
				"energy": -0.02959,
				"method": "rhf"
			},
			{
				"type": "unocc",
				"energy": -0.01711,
				"method": "rhf"
			},
			{
				"type": "unocc",
				"energy": 0.04393,
				"method": "rhf"
			},
			{
				"type": "unocc",
				"energy": 0.04944,
				"method": "rhf"
			},
			{
				"type": "unocc",
				"energy": 0.06178,
				"method": "rhf"
			}
		],
		"cosmo_sigma_profile": { 
			"-0.025": 0.0,
			"-0.024": 0.0,
			"-0.023": 0.0,
			"-0.022": 0.0,
			"-0.021": 0.0,
			"-0.02": 0.0,
			"-0.019": 0.0,
			"-0.018": 0.0,
			"-0.017": 0.0,
			"-0.016": 0.0,
			"-0.015": 0.0,
			"-0.014": 0.0,
			"-0.013": 0.0,
			"-0.012": 0.0,
			"-0.011": 0.0,
			"-0.01": 0.0,
			"-0.009": 0.0,
			"-0.008": 0.494783480453,
			"-0.007": 7.68294300685,
			"-0.006": 14.5501023358,
			"-0.005": 30.2186972716,
			"-0.004": 39.583346144,
			"-0.003": 33.4063980079,
			"-0.002": 25.4564242369,
			"-0.001": 28.1731665097,
			"0.0": 35.7491841104,
			"0.001": 30.901127828,
			"0.002": 19.0622373316,
			"0.003": 15.0927273306,
			"0.004": 17.6007655388,
			"0.005": 7.4512102605,
			"0.006": 5.06484115699,
			"0.007": 4.77536850647,
			"0.008": 5.02643902487,
			"0.009": 4.24055441263,
			"0.01": 5.3051228924,
			"0.011": 4.3991019175,
			"0.012": 5.01998740651,
			"0.013": 5.27211389688,
			"0.014": 2.77892857291,
			"0.015": 0.0239017518772,
			"0.016": 0.0,
			"0.017": 0.0,
			"0.018": 0.0,
			"0.019": 0.0,
			"0.02": 0.0,
			"0.021": 0.0,
			"0.022": 0.0,
			"0.023": 0.0,
			"0.024": 0.0,
			"0.025": 0.0
		}
	}
}
