{
	 "smiles": "CCOC1=CC=C(C=C(C(O)=O)C2=CC=CS2)C=C1", 
	 "Tm": 407.15, 
	 "num_atms": 33, 
	 "gaussian": { 
		 "optdone": 1, 
		 "sigma_profile": "yes", 
		 "theory": "DFT", 
		 "functional": "B3LYP", 
		 "basiset": "6-31G**", 
		 "properties": { 
			 "R2extent": 7952.9441, 
			 "electric_dipole_moment_norm": 6.33533331957, 
			 "electric_quadrupole_moment_norm": 33.6915970509, 
			 "total_energy": -1203.87456726, 
			 "HOMO_LUMO_gap": 0.15432, 
			 "cosmo_polarized_energy": -15.83, 
			 "cosmo_cavitation_energy": 39.29, 
			 "cosmo_dispersion_energy": -27.91, 
			 "cosmo_repulsion_energy": 2.13, 
			 "cosmo_total_nonelectrostatic_energy": 13.51, 
			 "SMD_solvation_energy": 7.94 
		},
		"coords": [
			{
				"x": 0.7754778414,
				"y": 5.7511280744,
				"z": 3.0412917871,
				"element": "C" 
			},
			{
				"x": 1.2233472122,
				"y": 4.3028194906,
				"z": 2.9588334888,
				"element": "C" 
			},
			{
				"x": 0.4434390612,
				"y": 3.6686160118,
				"z": 1.9409983939,
				"element": "O" 
			},
			{
				"x": 0.653096552,
				"y": 2.3548413811,
				"z": 1.6726579511,
				"element": "C" 
			},
			{
				"x": 1.5957320606,
				"y": 1.5454529415,
				"z": 2.3215653709,
				"element": "C" 
			},
			{
				"x": 1.7181418014,
				"y": 0.2092734927,
				"z": 1.9503185359,
				"element": "C" 
			},
			{
				"x": 0.9128092226,
				"y": -0.3700713618,
				"z": 0.9518546862,
				"element": "C" 
			},
			{
				"x": 1.1318209394,
				"y": -1.7767760265,
				"z": 0.6452343242,
				"element": "C" 
			},
			{
				"x": 0.4254009394,
				"y": -2.6663611784,
				"z": -0.09750788,
				"element": "C" 
			},
			{
				"x": 1.0244427877,
				"y": -4.0474039787,
				"z": -0.2089164478,
				"element": "C" 
			},
			{
				"x": 0.323655637,
				"y": -4.940003893,
				"z": -0.9474690453,
				"element": "O" 
			},
			{
				"x": 2.0677669997,
				"y": -4.3756577512,
				"z": 0.313422556,
				"element": "O" 
			},
			{
				"x": -0.8780076218,
				"y": -2.4161988021,
				"z": -0.7509218106,
				"element": "C" 
			},
			{
				"x": -1.1598117375,
				"y": -2.2690600616,
				"z": -2.0922565139,
				"element": "C" 
			},
			{
				"x": -2.5480586566,
				"y": -2.0810066771,
				"z": -2.3698463751,
				"element": "C" 
			},
			{
				"x": -3.3181684792,
				"y": -2.0987412327,
				"z": -1.2394426529,
				"element": "C" 
			},
			{
				"x": -2.3634471871,
				"y": -2.3499668304,
				"z": 0.183927017,
				"element": "S" 
			},
			{
				"x": -0.022976169,
				"y": 0.4710752586,
				"z": 0.3050599128,
				"element": "C" 
			},
			{
				"x": -0.1477391906,
				"y": 1.8034419316,
				"z": 0.655834476,
				"element": "C" 
			},
			{
				"x": 0.9314267991,
				"y": 6.2581903368,
				"z": 2.0851471304,
				"element": "H" 
			},
			{
				"x": 1.3483457137,
				"y": 6.2770669534,
				"z": 3.8110108701,
				"element": "H" 
			},
			{
				"x": -0.2861901697,
				"y": 5.812760635,
				"z": 3.2956573068,
				"element": "H" 
			},
			{
				"x": 1.0703765862,
				"y": 3.7883064204,
				"z": 3.9174495672,
				"element": "H" 
			},
			{
				"x": 2.2900980616,
				"y": 4.2347371803,
				"z": 2.7048686515,
				"element": "H" 
			},
			{
				"x": 2.2336582853,
				"y": 1.9430653434,
				"z": 3.1013772536,
				"element": "H" 
			},
			{
				"x": 2.4567410937,
				"y": -0.4092058273,
				"z": 2.4533332334,
				"element": "H" 
			},
			{
				"x": 2.0309086217,
				"y": -2.2048679483,
				"z": 1.0861564858,
				"element": "H" 
			},
			{
				"x": -0.4743090319,
				"y": -4.5082476407,
				"z": -1.295702518,
				"element": "H" 
			},
			{
				"x": -0.3852520615,
				"y": -2.2723692127,
				"z": -2.8518249103,
				"element": "H" 
			},
			{
				"x": -2.9500058561,
				"y": -1.9381145846,
				"z": -3.3662980384,
				"element": "H" 
			},
			{
				"x": -4.3905952638,
				"y": -1.9841519083,
				"z": -1.1592325136,
				"element": "H" 
			},
			{
				"x": -0.641045067,
				"y": 0.0786397914,
				"z": -0.4927105917,
				"element": "H" 
			},
			{
				"x": -0.8596797241,
				"y": 2.4510896727,
				"z": 0.1548302989,
				"element": "H" 
			}
		],
		 "valence_orbital": [ 
			{
				"type": "occ",
				"energy": -0.271,
				"method": "rhf"
			},
			{
				"type": "occ",
				"energy": -0.26783,
				"method": "rhf"
			},
			{
				"type": "occ",
				"energy": -0.26019,
				"method": "rhf"
			},
			{
				"type": "occ",
				"energy": -0.23986,
				"method": "rhf"
			},
			{
				"type": "occ",
				"energy": -0.21656,
				"method": "rhf"
			},
			{
				"type": "unocc",
				"energy": -0.06224,
				"method": "rhf"
			},
			{
				"type": "unocc",
				"energy": -0.02871,
				"method": "rhf"
			},
			{
				"type": "unocc",
				"energy": -0.01131,
				"method": "rhf"
			},
			{
				"type": "unocc",
				"energy": 0.02105,
				"method": "rhf"
			},
			{
				"type": "unocc",
				"energy": 0.02994,
				"method": "rhf"
			}
		],
		"cosmo_sigma_profile": { 
			"-0.025": 0.0,
			"-0.024": 0.0,
			"-0.023": 0.0,
			"-0.022": 0.0,
			"-0.021": 0.0,
			"-0.02": 0.0,
			"-0.019": 0.0,
			"-0.018": 0.0,
			"-0.017": 0.0,
			"-0.016": 0.0,
			"-0.015": 0.0,
			"-0.014": 0.0,
			"-0.013": 0.385290554334,
			"-0.012": 0.590107229207,
			"-0.011": 0.63333745082,
			"-0.01": 0.928118440972,
			"-0.009": 2.0234930205,
			"-0.008": 3.86251687565,
			"-0.007": 10.8832388543,
			"-0.006": 17.2500102923,
			"-0.005": 20.715267059,
			"-0.004": 26.8429167415,
			"-0.003": 23.955435234,
			"-0.002": 23.0205648677,
			"-0.001": 21.2105326411,
			"0.0": 27.0294668653,
			"0.001": 24.7296478497,
			"0.002": 26.2029895398,
			"0.003": 23.2411536508,
			"0.004": 21.8472189178,
			"0.005": 6.02848688017,
			"0.006": 3.84752134895,
			"0.007": 4.01931430803,
			"0.008": 3.55962037797,
			"0.009": 4.62840132303,
			"0.01": 3.91756346457,
			"0.011": 5.30937926672,
			"0.012": 5.38913161727,
			"0.013": 3.32282789086,
			"0.014": 0.720156095626,
			"0.015": 0.0,
			"0.016": 0.0,
			"0.017": 0.0,
			"0.018": 0.0,
			"0.019": 0.0,
			"0.02": 0.0,
			"0.021": 0.0,
			"0.022": 0.0,
			"0.023": 0.0,
			"0.024": 0.0,
			"0.025": 0.0
		}
	}
}
