{
	 "smiles": "COC(=O)C(Cl)C(C)=O", 
	 "Tm": 240.15, 
	 "num_atms": 16, 
	 "gaussian": { 
		 "optdone": 1, 
		 "sigma_profile": "yes", 
		 "theory": "DFT", 
		 "functional": "B3LYP", 
		 "basiset": "6-31G**", 
		 "properties": { 
			 "R2extent": 2286.5781, 
			 "electric_dipole_moment_norm": 2.00685289197, 
			 "electric_quadrupole_moment_norm": 11.9521063173, 
			 "total_energy": -880.610138504, 
			 "HOMO_LUMO_gap": 0.20699, 
			 "cosmo_polarized_energy": -8.34, 
			 "cosmo_cavitation_energy": 22.41, 
			 "cosmo_dispersion_energy": -16.01, 
			 "cosmo_repulsion_energy": 1.35, 
			 "cosmo_total_nonelectrostatic_energy": 7.75, 
			 "SMD_solvation_energy": 6.09 
		},
		"coords": [
			{
				"x": -1.7707122845,
				"y": 0.8278779756,
				"z": -3.0347271038,
				"element": "C" 
			},
			{
				"x": -2.2873655513,
				"y": 0.7655662947,
				"z": -1.6894577171,
				"element": "O" 
			},
			{
				"x": -1.4983593111,
				"y": 0.148984902,
				"z": -0.7999170021,
				"element": "C" 
			},
			{
				"x": -0.4098346454,
				"y": -0.3212189638,
				"z": -1.0463236612,
				"element": "O" 
			},
			{
				"x": -2.1627991079,
				"y": 0.1245439151,
				"z": 0.5791472108,
				"element": "C" 
			},
			{
				"x": -2.9842893166,
				"y": -1.4869236611,
				"z": 0.7777891612,
				"element": "Cl" 
			},
			{
				"x": -1.1254885959,
				"y": 0.4189324398,
				"z": 1.6870356456,
				"element": "C" 
			},
			{
				"x": -0.2053434257,
				"y": -0.6825877411,
				"z": 2.1412955454,
				"element": "C" 
			},
			{
				"x": -1.0805604732,
				"y": 1.5572113122,
				"z": 2.1046672905,
				"element": "O" 
			},
			{
				"x": -0.8230557161,
				"y": 1.3706546273,
				"z": -3.0517882744,
				"element": "H" 
			},
			{
				"x": -2.5288024856,
				"y": 1.3545675944,
				"z": -3.6125939469,
				"element": "H" 
			},
			{
				"x": -1.6143149582,
				"y": -0.1794654025,
				"z": -3.4269942104,
				"element": "H" 
			},
			{
				"x": -2.9411382356,
				"y": 0.8833803242,
				"z": 0.6326013498,
				"element": "H" 
			},
			{
				"x": 0.538322036,
				"y": -0.266327954,
				"z": 2.8214780979,
				"element": "H" 
			},
			{
				"x": -0.7719356047,
				"y": -1.4707643126,
				"z": 2.6466805699,
				"element": "H" 
			},
			{
				"x": 0.275977676,
				"y": -1.1347313502,
				"z": 1.2686070446,
				"element": "H" 
			}
		],
		 "valence_orbital": [ 
			{
				"type": "occ",
				"energy": -0.33269,
				"method": "rhf"
			},
			{
				"type": "occ",
				"energy": -0.32883,
				"method": "rhf"
			},
			{
				"type": "occ",
				"energy": -0.31926,
				"method": "rhf"
			},
			{
				"type": "occ",
				"energy": -0.29344,
				"method": "rhf"
			},
			{
				"type": "occ",
				"energy": -0.26441,
				"method": "rhf"
			},
			{
				"type": "unocc",
				"energy": -0.05742,
				"method": "rhf"
			},
			{
				"type": "unocc",
				"energy": -0.01802,
				"method": "rhf"
			},
			{
				"type": "unocc",
				"energy": 0.0438,
				"method": "rhf"
			},
			{
				"type": "unocc",
				"energy": 0.09838,
				"method": "rhf"
			},
			{
				"type": "unocc",
				"energy": 0.11151,
				"method": "rhf"
			}
		],
		"cosmo_sigma_profile": { 
			"-0.025": 0.0,
			"-0.024": 0.0,
			"-0.023": 0.0,
			"-0.022": 0.0,
			"-0.021": 0.0,
			"-0.02": 0.0,
			"-0.019": 0.0,
			"-0.018": 0.0,
			"-0.017": 0.0,
			"-0.016": 0.0,
			"-0.015": 0.0,
			"-0.014": 0.0,
			"-0.013": 0.0,
			"-0.012": 0.0,
			"-0.011": 0.0,
			"-0.01": 0.339616785195,
			"-0.009": 1.39581167208,
			"-0.008": 1.22629825066,
			"-0.007": 5.13915862124,
			"-0.006": 12.7181670923,
			"-0.005": 16.5119185002,
			"-0.004": 16.5366692841,
			"-0.003": 13.3395198983,
			"-0.002": 16.4291095482,
			"-0.001": 12.8543779075,
			"0.0": 10.0836547391,
			"0.001": 9.01015782427,
			"0.002": 10.336896975,
			"0.003": 9.90189724395,
			"0.004": 10.8923192714,
			"0.005": 5.198367358,
			"0.006": 4.22676467708,
			"0.007": 3.90619292131,
			"0.008": 3.8638028759,
			"0.009": 4.0862656766,
			"0.01": 7.0577911179,
			"0.011": 4.31228940475,
			"0.012": 0.308921925779,
			"0.013": 0.0,
			"0.014": 0.0,
			"0.015": 0.0,
			"0.016": 0.0,
			"0.017": 0.0,
			"0.018": 0.0,
			"0.019": 0.0,
			"0.02": 0.0,
			"0.021": 0.0,
			"0.022": 0.0,
			"0.023": 0.0,
			"0.024": 0.0,
			"0.025": 0.0
		}
	}
}
