{
	 "smiles": "FC(F)(F)C(C(=O)NC1=NC=CC=C1)C(F)(F)F", 
	 "Tm": 382.15, 
	 "num_atms": 24, 
	 "gaussian": { 
		 "optdone": 1, 
		 "sigma_profile": "yes", 
		 "theory": "DFT", 
		 "functional": "B3LYP", 
		 "basiset": "6-31G**", 
		 "properties": { 
			 "R2extent": 4456.2257, 
			 "electric_dipole_moment_norm": 6.65201549908, 
			 "electric_quadrupole_moment_norm": 16.9637446621, 
			 "total_energy": -1130.36172223, 
			 "HOMO_LUMO_gap": 0.19872, 
			 "cosmo_polarized_energy": -12.37, 
			 "cosmo_cavitation_energy": 31.65, 
			 "cosmo_dispersion_energy": -21.24, 
			 "cosmo_repulsion_energy": 1.54, 
			 "cosmo_total_nonelectrostatic_energy": 11.95, 
			 "SMD_solvation_energy": 7.59 
		},
		"coords": [
			{
				"x": 0.3649781233,
				"y": -2.7557976845,
				"z": 0.2939110917,
				"element": "F" 
			},
			{
				"x": 1.2479966899,
				"y": -1.8250282791,
				"z": -0.1348922228,
				"element": "C" 
			},
			{
				"x": 2.3152170223,
				"y": -1.8676876163,
				"z": 0.6716986467,
				"element": "F" 
			},
			{
				"x": 1.6508314314,
				"y": -2.1851854473,
				"z": -1.3698789103,
				"element": "F" 
			},
			{
				"x": 0.5596374974,
				"y": -0.4607697473,
				"z": -0.1735855969,
				"element": "C" 
			},
			{
				"x": -0.0727562312,
				"y": -0.1500755807,
				"z": 1.1871748191,
				"element": "C" 
			},
			{
				"x": 0.5972584454,
				"y": -0.0837017305,
				"z": 2.201346703,
				"element": "O" 
			},
			{
				"x": -1.4408617209,
				"y": 0.0638409491,
				"z": 1.2639358718,
				"element": "N" 
			},
			{
				"x": -2.5029577012,
				"y": 0.0776637467,
				"z": 0.3447508394,
				"element": "C" 
			},
			{
				"x": -2.2706255768,
				"y": -0.1863674939,
				"z": -0.9418664278,
				"element": "N" 
			},
			{
				"x": -3.3087450449,
				"y": -0.1656240902,
				"z": -1.7892376893,
				"element": "C" 
			},
			{
				"x": -4.6148940259,
				"y": 0.1141338644,
				"z": -1.4037565576,
				"element": "C" 
			},
			{
				"x": -4.8497333731,
				"y": 0.3887645239,
				"z": -0.0529362447,
				"element": "C" 
			},
			{
				"x": -3.7877427261,
				"y": 0.3728440643,
				"z": 0.8394170388,
				"element": "C" 
			},
			{
				"x": 1.4979720781,
				"y": 0.6745970565,
				"z": -0.5827179463,
				"element": "C" 
			},
			{
				"x": 0.8204607349,
				"y": 1.8451495479,
				"z": -0.5451618433,
				"element": "F" 
			},
			{
				"x": 2.5697741695,
				"y": 0.7959170455,
				"z": 0.2106190377,
				"element": "F" 
			},
			{
				"x": 1.9365977188,
				"y": 0.4977813827,
				"z": -1.844300134,
				"element": "F" 
			},
			{
				"x": -0.2197843781,
				"y": -0.5169252913,
				"z": -0.9366106402,
				"element": "H" 
			},
			{
				"x": -1.7002109744,
				"y": 0.263483249,
				"z": 2.2229024907,
				"element": "H" 
			},
			{
				"x": -3.0710526482,
				"y": -0.3861711404,
				"z": -2.8274495967,
				"element": "H" 
			},
			{
				"x": -5.4177280514,
				"y": 0.1171254981,
				"z": -2.1323840289,
				"element": "H" 
			},
			{
				"x": -5.8513040635,
				"y": 0.6135578671,
				"z": 0.3012240912,
				"element": "H" 
			},
			{
				"x": -3.9388273951,
				"y": 0.5828753063,
				"z": 1.8939972087,
				"element": "H" 
			}
		],
		 "valence_orbital": [ 
			{
				"type": "occ",
				"energy": -0.33515,
				"method": "rhf"
			},
			{
				"type": "occ",
				"energy": -0.31039,
				"method": "rhf"
			},
			{
				"type": "occ",
				"energy": -0.2886,
				"method": "rhf"
			},
			{
				"type": "occ",
				"energy": -0.28085,
				"method": "rhf"
			},
			{
				"type": "occ",
				"energy": -0.25206,
				"method": "rhf"
			},
			{
				"type": "unocc",
				"energy": -0.05334,
				"method": "rhf"
			},
			{
				"type": "unocc",
				"energy": -0.03902,
				"method": "rhf"
			},
			{
				"type": "unocc",
				"energy": 0.01062,
				"method": "rhf"
			},
			{
				"type": "unocc",
				"energy": 0.06115,
				"method": "rhf"
			},
			{
				"type": "unocc",
				"energy": 0.08537,
				"method": "rhf"
			}
		],
		"cosmo_sigma_profile": { 
			"-0.025": 0.0,
			"-0.024": 0.0,
			"-0.023": 0.0,
			"-0.022": 0.0,
			"-0.021": 0.0,
			"-0.02": 0.0,
			"-0.019": 0.0,
			"-0.018": 0.0,
			"-0.017": 0.00264690238453,
			"-0.016": 0.675255129626,
			"-0.015": 1.34082448635,
			"-0.014": 1.21323172798,
			"-0.013": 1.34965372699,
			"-0.012": 1.21962003445,
			"-0.011": 0.850271338128,
			"-0.01": 0.875782593619,
			"-0.009": 1.58277707816,
			"-0.008": 3.01835530222,
			"-0.007": 8.30701385953,
			"-0.006": 11.4206729779,
			"-0.005": 10.1189256041,
			"-0.004": 8.65609505786,
			"-0.003": 8.84034853313,
			"-0.002": 11.5706931121,
			"-0.001": 19.5956076938,
			"0.0": 19.9744503037,
			"0.001": 32.5060350377,
			"0.002": 65.9480634963,
			"0.003": 20.3701988288,
			"0.004": 4.44321923355,
			"0.005": 3.8827633472,
			"0.006": 1.36100381048,
			"0.007": 1.93755806332,
			"0.008": 1.96866209933,
			"0.009": 2.15833100315,
			"0.01": 3.10310920705,
			"0.011": 4.41082302117,
			"0.012": 1.6436273459,
			"0.013": 0.0,
			"0.014": 0.0,
			"0.015": 0.0,
			"0.016": 0.0,
			"0.017": 0.0,
			"0.018": 0.0,
			"0.019": 0.0,
			"0.02": 0.0,
			"0.021": 0.0,
			"0.022": 0.0,
			"0.023": 0.0,
			"0.024": 0.0,
			"0.025": 0.0
		}
	}
}
