{
	 "smiles": "O=CC1=CNC2=CC=CC=C12", 
	 "Tm": 470.15, 
	 "num_atms": 18, 
	 "gaussian": { 
		 "optdone": 1, 
		 "sigma_profile": "yes", 
		 "theory": "DFT", 
		 "functional": "B3LYP", 
		 "basiset": "6-31G**", 
		 "properties": { 
			 "R2extent": 1632.4709, 
			 "electric_dipole_moment_norm": 5.38162176114, 
			 "electric_quadrupole_moment_norm": 11.1887984842, 
			 "total_energy": -477.150044984, 
			 "HOMO_LUMO_gap": 0.17868, 
			 "cosmo_polarized_energy": -15.33, 
			 "cosmo_cavitation_energy": 22.36, 
			 "cosmo_dispersion_energy": -16.68, 
			 "cosmo_repulsion_energy": 1.32, 
			 "cosmo_total_nonelectrostatic_energy": 7.0, 
			 "SMD_solvation_energy": 4.76 
		},
		"coords": [
			{
				"x": 1.0844570796,
				"y": 2.3920365268,
				"z": 2.1364757349,
				"element": "O" 
			},
			{
				"x": 0.2427820714,
				"y": 1.5490136501,
				"z": 2.410923144,
				"element": "C" 
			},
			{
				"x": -0.1461718498,
				"y": 0.449893578,
				"z": 1.5455040736,
				"element": "C" 
			},
			{
				"x": -1.0971540089,
				"y": -0.506479995,
				"z": 1.8540036295,
				"element": "C" 
			},
			{
				"x": -1.213396809,
				"y": -1.3900774696,
				"z": 0.8177589823,
				"element": "N" 
			},
			{
				"x": -0.3364691221,
				"y": -1.0330325929,
				"z": -0.2018281263,
				"element": "C" 
			},
			{
				"x": -0.1036617568,
				"y": -1.6309703949,
				"z": -1.4429813289,
				"element": "C" 
			},
			{
				"x": 0.8501223408,
				"y": -1.036194993,
				"z": -2.2628936159,
				"element": "C" 
			},
			{
				"x": 1.5485096585,
				"y": 0.1185199911,
				"z": -1.855774144,
				"element": "C" 
			},
			{
				"x": 1.3120384763,
				"y": 0.708578094,
				"z": -0.6193255552,
				"element": "C" 
			},
			{
				"x": 0.3546255597,
				"y": 0.1276023847,
				"z": 0.2262537452,
				"element": "C" 
			},
			{
				"x": -0.2929615633,
				"y": 1.581225598,
				"z": 3.3874589139,
				"element": "H" 
			},
			{
				"x": -1.6981689357,
				"y": -0.6126588935,
				"z": 2.7467928781,
				"element": "H" 
			},
			{
				"x": -1.8393559139,
				"y": -2.1796104612,
				"z": 0.7964658605,
				"element": "H" 
			},
			{
				"x": -0.6418672774,
				"y": -2.5208186781,
				"z": -1.7567581303,
				"element": "H" 
			},
			{
				"x": 1.0600193185,
				"y": -1.4709067836,
				"z": -3.235663678,
				"element": "H" 
			},
			{
				"x": 2.2855934345,
				"y": 0.5530558119,
				"z": -2.5246146058,
				"element": "H" 
			},
			{
				"x": 1.8430592977,
				"y": 1.5964246272,
				"z": -0.2960977777,
				"element": "H" 
			}
		],
		 "valence_orbital": [ 
			{
				"type": "occ",
				"energy": -0.34174,
				"method": "rhf"
			},
			{
				"type": "occ",
				"energy": -0.28083,
				"method": "rhf"
			},
			{
				"type": "occ",
				"energy": -0.23963,
				"method": "rhf"
			},
			{
				"type": "occ",
				"energy": -0.2333,
				"method": "rhf"
			},
			{
				"type": "occ",
				"energy": -0.21832,
				"method": "rhf"
			},
			{
				"type": "unocc",
				"energy": -0.03964,
				"method": "rhf"
			},
			{
				"type": "unocc",
				"energy": -0.00582,
				"method": "rhf"
			},
			{
				"type": "unocc",
				"energy": 0.02053,
				"method": "rhf"
			},
			{
				"type": "unocc",
				"energy": 0.06489,
				"method": "rhf"
			},
			{
				"type": "unocc",
				"energy": 0.10027,
				"method": "rhf"
			}
		],
		"cosmo_sigma_profile": { 
			"-0.025": 0.0,
			"-0.024": 0.0,
			"-0.023": 0.0,
			"-0.022": 0.0,
			"-0.021": 0.0,
			"-0.02": 0.0,
			"-0.019": 0.0,
			"-0.018": 0.0,
			"-0.017": 0.574074358802,
			"-0.016": 1.82416807932,
			"-0.015": 1.97541438224,
			"-0.014": 0.688933835037,
			"-0.013": 1.42776590018,
			"-0.012": 1.09141299101,
			"-0.011": 1.82253749897,
			"-0.01": 2.48918084401,
			"-0.009": 4.12050216056,
			"-0.008": 3.35665760809,
			"-0.007": 4.51994414857,
			"-0.006": 6.77629410037,
			"-0.005": 9.98178451705,
			"-0.004": 10.2505091675,
			"-0.003": 11.8314738549,
			"-0.002": 9.56563647136,
			"-0.001": 9.10503012282,
			"0.0": 7.78280383646,
			"0.001": 10.4985516653,
			"0.002": 13.3167119847,
			"0.003": 12.5168469479,
			"0.004": 14.3705864607,
			"0.005": 12.1562115013,
			"0.006": 8.76952228543,
			"0.007": 3.22437638611,
			"0.008": 1.29615799535,
			"0.009": 2.10849536137,
			"0.01": 1.84445614375,
			"0.011": 2.46139754055,
			"0.012": 3.58930291865,
			"0.013": 2.93886896077,
			"0.014": 1.36495364539,
			"0.015": 0.113126863447,
			"0.016": 0.0,
			"0.017": 0.0,
			"0.018": 0.0,
			"0.019": 0.0,
			"0.02": 0.0,
			"0.021": 0.0,
			"0.022": 0.0,
			"0.023": 0.0,
			"0.024": 0.0,
			"0.025": 0.0
		}
	}
}
