{
	 "smiles": "OCC(CO)(CBr)CBr", 
	 "Tm": 386.15, 
	 "num_atms": 19, 
	 "gaussian": { 
		 "optdone": 1, 
		 "sigma_profile": "yes", 
		 "theory": "DFT", 
		 "functional": "B3LYP", 
		 "basiset": "6-31G**", 
		 "properties": { 
			 "R2extent": 3602.7726, 
			 "electric_dipole_moment_norm": 3.94405822726, 
			 "electric_quadrupole_moment_norm": 4.88166770069, 
			 "total_energy": -5489.79740472, 
			 "HOMO_LUMO_gap": 0.24873, 
			 "cosmo_polarized_energy": -12.87, 
			 "cosmo_cavitation_energy": 24.74, 
			 "cosmo_dispersion_energy": -18.85, 
			 "cosmo_repulsion_energy": 1.54, 
			 "cosmo_total_nonelectrostatic_energy": 7.43, 
			 "SMD_solvation_energy": 2.13 
		},
		"coords": [
			{
				"x": -0.3687399659,
				"y": -0.543712112,
				"z": 2.1342623569,
				"element": "O" 
			},
			{
				"x": -0.3883259089,
				"y": 0.289820098,
				"z": 0.9826076757,
				"element": "C" 
			},
			{
				"x": -0.164136682,
				"y": -0.5800933841,
				"z": -0.2731063163,
				"element": "C" 
			},
			{
				"x": -0.2908329264,
				"y": 0.3548810457,
				"z": -1.5134628413,
				"element": "C" 
			},
			{
				"x": 0.3330290407,
				"y": -0.1266382664,
				"z": -2.6839548638,
				"element": "O" 
			},
			{
				"x": -1.2630847387,
				"y": -1.6632916496,
				"z": -0.2455522669,
				"element": "C" 
			},
			{
				"x": -1.2464186411,
				"y": -2.9481667766,
				"z": -1.7517658895,
				"element": "Br" 
			},
			{
				"x": 1.1977987617,
				"y": -1.2772165196,
				"z": -0.2068905438,
				"element": "C" 
			},
			{
				"x": 2.7400358358,
				"y": -0.0159894617,
				"z": -0.3194532463,
				"element": "Br" 
			},
			{
				"x": -0.3499164624,
				"y": 0.0179755468,
				"z": 2.9181800229,
				"element": "H" 
			},
			{
				"x": -1.3517861224,
				"y": 0.8169342281,
				"z": 0.8871249394,
				"element": "H" 
			},
			{
				"x": 0.4067948781,
				"y": 1.0464914152,
				"z": 1.0238173116,
				"element": "H" 
			},
			{
				"x": -1.3520036196,
				"y": 0.4789581418,
				"z": -1.7539341523,
				"element": "H" 
			},
			{
				"x": 0.0989995727,
				"y": 1.3468138968,
				"z": -1.2415013025,
				"element": "H" 
			},
			{
				"x": 1.2839206969,
				"y": 0.0256844887,
				"z": -2.5864388146,
				"element": "H" 
			},
			{
				"x": -1.1933031821,
				"y": -2.2712269072,
				"z": 0.6534987941,
				"element": "H" 
			},
			{
				"x": -2.2479131216,
				"y": -1.1966202599,
				"z": -0.2863728707,
				"element": "H" 
			},
			{
				"x": 1.3375427859,
				"y": -1.9550917641,
				"z": -1.0444410378,
				"element": "H" 
			},
			{
				"x": 1.3306397991,
				"y": -1.7932117597,
				"z": 0.7413830454,
				"element": "H" 
			}
		],
		 "valence_orbital": [ 
			{
				"type": "occ",
				"energy": -0.29024,
				"method": "rhf"
			},
			{
				"type": "occ",
				"energy": -0.2839,
				"method": "rhf"
			},
			{
				"type": "occ",
				"energy": -0.27854,
				"method": "rhf"
			},
			{
				"type": "occ",
				"energy": -0.26817,
				"method": "rhf"
			},
			{
				"type": "occ",
				"energy": -0.25728,
				"method": "rhf"
			},
			{
				"type": "unocc",
				"energy": -0.00855,
				"method": "rhf"
			},
			{
				"type": "unocc",
				"energy": 0.00235,
				"method": "rhf"
			},
			{
				"type": "unocc",
				"energy": 0.06144,
				"method": "rhf"
			},
			{
				"type": "unocc",
				"energy": 0.0856,
				"method": "rhf"
			},
			{
				"type": "unocc",
				"energy": 0.08827,
				"method": "rhf"
			}
		],
		"cosmo_sigma_profile": { 
			"-0.025": 0.0,
			"-0.024": 0.0,
			"-0.023": 0.0,
			"-0.022": 0.0,
			"-0.021": 0.0,
			"-0.02": 0.0,
			"-0.019": 0.0,
			"-0.018": 0.0,
			"-0.017": 0.146029931747,
			"-0.016": 1.15874467126,
			"-0.015": 0.859068311976,
			"-0.014": 1.17819496083,
			"-0.013": 1.38250234776,
			"-0.012": 0.459859622679,
			"-0.011": 1.16356720114,
			"-0.01": 1.31370173594,
			"-0.009": 1.21148163653,
			"-0.008": 3.79652092063,
			"-0.007": 6.95564168529,
			"-0.006": 9.8559167585,
			"-0.005": 14.4265277205,
			"-0.004": 16.5026886252,
			"-0.003": 14.2954839364,
			"-0.002": 11.3044343434,
			"-0.001": 10.8707280877,
			"0.0": 10.3099783074,
			"0.001": 9.69631376414,
			"0.002": 11.7059302148,
			"0.003": 10.292328263,
			"0.004": 12.7503880142,
			"0.005": 14.5299074342,
			"0.006": 12.2294838042,
			"0.007": 4.01864437198,
			"0.008": 3.04656039504,
			"0.009": 2.60860483239,
			"0.01": 2.32146193208,
			"0.011": 2.66887859444,
			"0.012": 1.84935857821,
			"0.013": 1.72027412088,
			"0.014": 1.87611717565,
			"0.015": 0.227260456869,
			"0.016": 0.0,
			"0.017": 0.0,
			"0.018": 0.0,
			"0.019": 0.0,
			"0.02": 0.0,
			"0.021": 0.0,
			"0.022": 0.0,
			"0.023": 0.0,
			"0.024": 0.0,
			"0.025": 0.0
		}
	}
}
