{
	 "smiles": "COC(=O)C1=CC=C(Br)O1", 
	 "Tm": 337.15, 
	 "num_atms": 15, 
	 "gaussian": { 
		 "optdone": 1, 
		 "sigma_profile": "yes", 
		 "theory": "DFT", 
		 "functional": "B3LYP", 
		 "basiset": "6-31G**", 
		 "properties": { 
			 "R2extent": 4340.076, 
			 "electric_dipole_moment_norm": 3.12440459128, 
			 "electric_quadrupole_moment_norm": 10.574018415, 
			 "total_energy": -3028.69711897, 
			 "HOMO_LUMO_gap": 0.19046, 
			 "cosmo_polarized_energy": -8.47, 
			 "cosmo_cavitation_energy": 22.96, 
			 "cosmo_dispersion_energy": -17.37, 
			 "cosmo_repulsion_energy": 1.43, 
			 "cosmo_total_nonelectrostatic_energy": 7.02, 
			 "SMD_solvation_energy": 5.27 
		},
		"coords": [
			{
				"x": -2.7154040688,
				"y": -1.6745568804,
				"z": 0.566543244,
				"element": "C" 
			},
			{
				"x": -1.2890386952,
				"y": -1.5226257308,
				"z": 0.6425115601,
				"element": "O" 
			},
			{
				"x": -0.6886963766,
				"y": -1.1970738434,
				"z": -0.5274759853,
				"element": "C" 
			},
			{
				"x": -1.2720619493,
				"y": -1.037050998,
				"z": -1.5785852371,
				"element": "O" 
			},
			{
				"x": 0.7591042852,
				"y": -1.0687728709,
				"z": -0.3322571378,
				"element": "C" 
			},
			{
				"x": 1.5815361451,
				"y": -1.2079067668,
				"z": 0.7546617831,
				"element": "C" 
			},
			{
				"x": 2.9075068764,
				"y": -0.9531545648,
				"z": 0.3009328584,
				"element": "C" 
			},
			{
				"x": 2.782722009,
				"y": -0.6785041679,
				"z": -1.0331033703,
				"element": "C" 
			},
			{
				"x": 4.0589394835,
				"y": -0.2489574132,
				"z": -2.3245953471,
				"element": "Br" 
			},
			{
				"x": 1.5001361807,
				"y": -0.7410126944,
				"z": -1.4409230775,
				"element": "O" 
			},
			{
				"x": -3.0366156516,
				"y": -1.9325844905,
				"z": 1.5754779204,
				"element": "H" 
			},
			{
				"x": -2.9815473379,
				"y": -2.4683452936,
				"z": -0.1359798546,
				"element": "H" 
			},
			{
				"x": -3.1853475426,
				"y": -0.7433335278,
				"z": 0.2402857105,
				"element": "H" 
			},
			{
				"x": 1.2650272728,
				"y": -1.4623658747,
				"z": 1.7551273734,
				"element": "H" 
			},
			{
				"x": 3.8242393693,
				"y": -0.9686548827,
				"z": 0.8697795598,
				"element": "H" 
			}
		],
		 "valence_orbital": [ 
			{
				"type": "occ",
				"energy": -0.3111,
				"method": "rhf"
			},
			{
				"type": "occ",
				"energy": -0.30679,
				"method": "rhf"
			},
			{
				"type": "occ",
				"energy": -0.30126,
				"method": "rhf"
			},
			{
				"type": "occ",
				"energy": -0.28016,
				"method": "rhf"
			},
			{
				"type": "occ",
				"energy": -0.23925,
				"method": "rhf"
			},
			{
				"type": "unocc",
				"energy": -0.04879,
				"method": "rhf"
			},
			{
				"type": "unocc",
				"energy": 0.00057,
				"method": "rhf"
			},
			{
				"type": "unocc",
				"energy": 0.02797,
				"method": "rhf"
			},
			{
				"type": "unocc",
				"energy": 0.09956,
				"method": "rhf"
			},
			{
				"type": "unocc",
				"energy": 0.10329,
				"method": "rhf"
			}
		],
		"cosmo_sigma_profile": { 
			"-0.025": 0.0,
			"-0.024": 0.0,
			"-0.023": 0.0,
			"-0.022": 0.0,
			"-0.021": 0.0,
			"-0.02": 0.0,
			"-0.019": 0.0,
			"-0.018": 0.0,
			"-0.017": 0.0,
			"-0.016": 0.0,
			"-0.015": 0.0,
			"-0.014": 0.0,
			"-0.013": 0.0,
			"-0.012": 0.0,
			"-0.011": 0.0,
			"-0.01": 0.0595607348087,
			"-0.009": 2.24861617843,
			"-0.008": 3.33847155498,
			"-0.007": 4.58304353963,
			"-0.006": 9.88222690751,
			"-0.005": 11.6982859134,
			"-0.004": 13.5080355865,
			"-0.003": 14.4689354394,
			"-0.002": 12.9259470649,
			"-0.001": 16.7016395465,
			"0.0": 17.3541541408,
			"0.001": 18.6769643512,
			"0.002": 20.4604424076,
			"0.003": 11.9070189865,
			"0.004": 4.388630772,
			"0.005": 3.77938832498,
			"0.006": 3.80517148497,
			"0.007": 1.82533404199,
			"0.008": 2.63884714987,
			"0.009": 2.57741866812,
			"0.01": 2.03700618783,
			"0.011": 4.23587758931,
			"0.012": 4.3218061022,
			"0.013": 0.526099857598,
			"0.014": 0.0,
			"0.015": 0.0,
			"0.016": 0.0,
			"0.017": 0.0,
			"0.018": 0.0,
			"0.019": 0.0,
			"0.02": 0.0,
			"0.021": 0.0,
			"0.022": 0.0,
			"0.023": 0.0,
			"0.024": 0.0,
			"0.025": 0.0
		}
	}
}
