{
	 "smiles": "CC(C)C1CCCCC1=O", 
	 "Tm": 345.65, 
	 "num_atms": 26, 
	 "gaussian": { 
		 "optdone": 1, 
		 "sigma_profile": "yes", 
		 "theory": "DFT", 
		 "functional": "B3LYP", 
		 "basiset": "6-31G**", 
		 "properties": { 
			 "R2extent": 1895.355, 
			 "electric_dipole_moment_norm": 2.99053208644, 
			 "electric_quadrupole_moment_norm": 12.0887145458, 
			 "total_energy": -427.843251285, 
			 "HOMO_LUMO_gap": 0.21956, 
			 "cosmo_polarized_energy": -6.87, 
			 "cosmo_cavitation_energy": 25.83, 
			 "cosmo_dispersion_energy": -18.63, 
			 "cosmo_repulsion_energy": 1.51, 
			 "cosmo_total_nonelectrostatic_energy": 8.7, 
			 "SMD_solvation_energy": 4.46 
		},
		"coords": [
			{
				"x": -2.2284201424,
				"y": -2.1763922705,
				"z": 0.8224072047,
				"element": "C" 
			},
			{
				"x": -1.519261369,
				"y": -0.8117480078,
				"z": 0.8420848079,
				"element": "C" 
			},
			{
				"x": -2.3177852382,
				"y": 0.178951949,
				"z": 1.7045647065,
				"element": "C" 
			},
			{
				"x": -0.0463299755,
				"y": -0.9486072375,
				"z": 1.3394310154,
				"element": "C" 
			},
			{
				"x": 0.7655785694,
				"y": 0.3732781093,
				"z": 1.3174772854,
				"element": "C" 
			},
			{
				"x": 1.1285408779,
				"y": 0.836413342,
				"z": -0.1019456266,
				"element": "C" 
			},
			{
				"x": 1.9185956048,
				"y": -0.2473062144,
				"z": -0.8484472589,
				"element": "C" 
			},
			{
				"x": 1.1562853427,
				"y": -1.5890575218,
				"z": -0.8667143983,
				"element": "C" 
			},
			{
				"x": 0.71497134,
				"y": -2.004602958,
				"z": 0.5321933429,
				"element": "C" 
			},
			{
				"x": 0.965985374,
				"y": -3.1068986872,
				"z": 0.985035971,
				"element": "O" 
			},
			{
				"x": -1.7310905997,
				"y": -2.8959979693,
				"z": 0.1658479856,
				"element": "H" 
			},
			{
				"x": -2.2525192432,
				"y": -2.6164994023,
				"z": 1.8259663228,
				"element": "H" 
			},
			{
				"x": -3.2624124902,
				"y": -2.0671111711,
				"z": 0.4788340106,
				"element": "H" 
			},
			{
				"x": -1.5069712715,
				"y": -0.4237861394,
				"z": -0.1859047035,
				"element": "H" 
			},
			{
				"x": -1.916026303,
				"y": 1.1951544157,
				"z": 1.6612557426,
				"element": "H" 
			},
			{
				"x": -3.3583000851,
				"y": 0.2251389084,
				"z": 1.3660484959,
				"element": "H" 
			},
			{
				"x": -2.3250057095,
				"y": -0.1361306385,
				"z": 2.7549308466,
				"element": "H" 
			},
			{
				"x": -0.085041204,
				"y": -1.3299378556,
				"z": 2.3673309853,
				"element": "H" 
			},
			{
				"x": 0.22377649,
				"y": 1.1588856284,
				"z": 1.8535512693,
				"element": "H" 
			},
			{
				"x": 1.6951505503,
				"y": 0.2105805286,
				"z": 1.8796742931,
				"element": "H" 
			},
			{
				"x": 0.2185195311,
				"y": 1.0833350136,
				"z": -0.6646613307,
				"element": "H" 
			},
			{
				"x": 1.7171811436,
				"y": 1.7597822242,
				"z": -0.0493755253,
				"element": "H" 
			},
			{
				"x": 2.1391667441,
				"y": 0.0677077187,
				"z": -1.8746507502,
				"element": "H" 
			},
			{
				"x": 2.8867650245,
				"y": -0.3949151494,
				"z": -0.3516496817,
				"element": "H" 
			},
			{
				"x": 1.7568040736,
				"y": -2.3984808426,
				"z": -1.2900419184,
				"element": "H" 
			},
			{
				"x": 0.2562429654,
				"y": -1.4803557727,
				"z": -1.4891430919,
				"element": "H" 
			}
		],
		 "valence_orbital": [ 
			{
				"type": "occ",
				"energy": -0.33471,
				"method": "rhf"
			},
			{
				"type": "occ",
				"energy": -0.32528,
				"method": "rhf"
			},
			{
				"type": "occ",
				"energy": -0.31459,
				"method": "rhf"
			},
			{
				"type": "occ",
				"energy": -0.30828,
				"method": "rhf"
			},
			{
				"type": "occ",
				"energy": -0.22985,
				"method": "rhf"
			},
			{
				"type": "unocc",
				"energy": -0.01029,
				"method": "rhf"
			},
			{
				"type": "unocc",
				"energy": 0.0732,
				"method": "rhf"
			},
			{
				"type": "unocc",
				"energy": 0.09809,
				"method": "rhf"
			},
			{
				"type": "unocc",
				"energy": 0.1076,
				"method": "rhf"
			},
			{
				"type": "unocc",
				"energy": 0.11965,
				"method": "rhf"
			}
		],
		"cosmo_sigma_profile": { 
			"-0.025": 0.0,
			"-0.024": 0.0,
			"-0.023": 0.0,
			"-0.022": 0.0,
			"-0.021": 0.0,
			"-0.02": 0.0,
			"-0.019": 0.0,
			"-0.018": 0.0,
			"-0.017": 0.0,
			"-0.016": 0.0,
			"-0.015": 0.0,
			"-0.014": 0.0,
			"-0.013": 0.0,
			"-0.012": 0.0,
			"-0.011": 0.0,
			"-0.01": 0.0,
			"-0.009": 0.0,
			"-0.008": 0.0,
			"-0.007": 0.0,
			"-0.006": 0.043616716264,
			"-0.005": 3.52415165244,
			"-0.004": 10.9841144286,
			"-0.003": 29.160599999,
			"-0.002": 39.0100757835,
			"-0.001": 35.1755369871,
			"0.0": 28.9296824772,
			"0.001": 19.9204278791,
			"0.002": 6.86313742226,
			"0.003": 1.90222935845,
			"0.004": 2.06255878666,
			"0.005": 1.48258589765,
			"0.006": 1.73749102397,
			"0.007": 1.60276921526,
			"0.008": 1.354993902,
			"0.009": 1.85292032742,
			"0.01": 1.90144814605,
			"0.011": 1.90487256614,
			"0.012": 4.51826270263,
			"0.013": 3.57941027944,
			"0.014": 1.22773640994,
			"0.015": 0.0,
			"0.016": 0.0,
			"0.017": 0.0,
			"0.018": 0.0,
			"0.019": 0.0,
			"0.02": 0.0,
			"0.021": 0.0,
			"0.022": 0.0,
			"0.023": 0.0,
			"0.024": 0.0,
			"0.025": 0.0
		}
	}
}
