{
	 "smiles": "CCOC1=NNC(=O)C(Br)=C1Br", 
	 "Tm": 479.15, 
	 "num_atms": 18, 
	 "gaussian": { 
		 "optdone": 1, 
		 "sigma_profile": "yes", 
		 "theory": "DFT", 
		 "functional": "B3LYP", 
		 "basiset": "6-31G**", 
		 "properties": { 
			 "R2extent": 5160.9909, 
			 "electric_dipole_moment_norm": 4.16239547136, 
			 "electric_quadrupole_moment_norm": 9.51812090856, 
			 "total_energy": -5634.97560786, 
			 "HOMO_LUMO_gap": 0.15959, 
			 "cosmo_polarized_energy": -11.63, 
			 "cosmo_cavitation_energy": 27.1, 
			 "cosmo_dispersion_energy": -20.77, 
			 "cosmo_repulsion_energy": 1.69, 
			 "cosmo_total_nonelectrostatic_energy": 8.02, 
			 "SMD_solvation_energy": 3.49 
		},
		"coords": [
			{
				"x": 2.8023651061,
				"y": 1.4385006804,
				"z": 0.5835676899,
				"element": "C" 
			},
			{
				"x": 1.4427827735,
				"y": 2.0593865923,
				"z": 0.297915866,
				"element": "C" 
			},
			{
				"x": 0.7053084117,
				"y": 1.314139612,
				"z": -0.6980282506,
				"element": "O" 
			},
			{
				"x": 0.0204072384,
				"y": 0.2286486249,
				"z": -0.3042241822,
				"element": "C" 
			},
			{
				"x": 0.0209312433,
				"y": -0.1451834222,
				"z": 0.9400009211,
				"element": "N" 
			},
			{
				"x": -0.7111867063,
				"y": -1.2382854464,
				"z": 1.2534531472,
				"element": "N" 
			},
			{
				"x": -1.4767420571,
				"y": -2.0410593238,
				"z": 0.4222681716,
				"element": "C" 
			},
			{
				"x": -2.0896741442,
				"y": -3.0079614158,
				"z": 0.8492035224,
				"element": "O" 
			},
			{
				"x": -1.4407450603,
				"y": -1.5792285152,
				"z": -0.9815112476,
				"element": "C" 
			},
			{
				"x": -2.4462035648,
				"y": -2.6034823569,
				"z": -2.1883349862,
				"element": "Br" 
			},
			{
				"x": -0.7155895897,
				"y": -0.4812271376,
				"z": -1.3333501329,
				"element": "C" 
			},
			{
				"x": -0.6222518085,
				"y": 0.1673068079,
				"z": -3.1049806773,
				"element": "Br" 
			},
			{
				"x": 2.6968551132,
				"y": 0.4547744861,
				"z": 1.0462982967,
				"element": "H" 
			},
			{
				"x": 3.3816730474,
				"y": 1.3369090894,
				"z": -0.3385215314,
				"element": "H" 
			},
			{
				"x": 3.3609777618,
				"y": 2.0822437036,
				"z": 1.2711352692,
				"element": "H" 
			},
			{
				"x": 1.5474348495,
				"y": 3.0508522545,
				"z": -0.1485644432,
				"element": "H" 
			},
			{
				"x": 0.83970483,
				"y": 2.1378274925,
				"z": 1.2068002278,
				"element": "H" 
			},
			{
				"x": -0.6886474439,
				"y": -1.5040617256,
				"z": 2.2298723396,
				"element": "H" 
			}
		],
		 "valence_orbital": [ 
			{
				"type": "occ",
				"energy": -0.3125,
				"method": "rhf"
			},
			{
				"type": "occ",
				"energy": -0.28585,
				"method": "rhf"
			},
			{
				"type": "occ",
				"energy": -0.27089,
				"method": "rhf"
			},
			{
				"type": "occ",
				"energy": -0.2666,
				"method": "rhf"
			},
			{
				"type": "occ",
				"energy": -0.23529,
				"method": "rhf"
			},
			{
				"type": "unocc",
				"energy": -0.0757,
				"method": "rhf"
			},
			{
				"type": "unocc",
				"energy": -0.03217,
				"method": "rhf"
			},
			{
				"type": "unocc",
				"energy": 0.00018,
				"method": "rhf"
			},
			{
				"type": "unocc",
				"energy": 0.03029,
				"method": "rhf"
			},
			{
				"type": "unocc",
				"energy": 0.08621,
				"method": "rhf"
			}
		],
		"cosmo_sigma_profile": { 
			"-0.025": 0.0,
			"-0.024": 0.0,
			"-0.023": 0.0,
			"-0.022": 0.0,
			"-0.021": 0.0,
			"-0.02": 0.0,
			"-0.019": 0.0,
			"-0.018": 0.0,
			"-0.017": 0.723819747345,
			"-0.016": 1.1727529904,
			"-0.015": 0.888008480253,
			"-0.014": 0.526815856997,
			"-0.013": 0.72048102816,
			"-0.012": 0.776043491423,
			"-0.011": 1.53433024814,
			"-0.01": 0.905448077993,
			"-0.009": 0.259409659212,
			"-0.008": 0.900269830496,
			"-0.007": 2.42219890382,
			"-0.006": 6.58817554533,
			"-0.005": 11.8429078982,
			"-0.004": 19.2095465084,
			"-0.003": 21.7022379345,
			"-0.002": 21.2814262554,
			"-0.001": 21.0074428509,
			"0.0": 19.6261025092,
			"0.001": 14.7471165581,
			"0.002": 16.5415327046,
			"0.003": 18.1324869689,
			"0.004": 8.90025298385,
			"0.005": 4.01569072081,
			"0.006": 4.26060701366,
			"0.007": 4.31665461897,
			"0.008": 3.44920014095,
			"0.009": 2.20074047335,
			"0.01": 1.48627906221,
			"0.011": 2.28985714271,
			"0.012": 3.8656481481,
			"0.013": 5.79701167167,
			"0.014": 0.575747412833,
			"0.015": 0.0,
			"0.016": 0.0,
			"0.017": 0.0,
			"0.018": 0.0,
			"0.019": 0.0,
			"0.02": 0.0,
			"0.021": 0.0,
			"0.022": 0.0,
			"0.023": 0.0,
			"0.024": 0.0,
			"0.025": 0.0
		}
	}
}
