{
	 "smiles": "CC1=NN(C(N)=C1)C1=CC=C(C)C=C1", 
	 "Tm": 392.15, 
	 "num_atms": 27, 
	 "gaussian": { 
		 "optdone": 1, 
		 "sigma_profile": "yes", 
		 "theory": "DFT", 
		 "functional": "B3LYP", 
		 "basiset": "6-31G**", 
		 "properties": { 
			 "R2extent": 3740.4601, 
			 "electric_dipole_moment_norm": 2.95192547501, 
			 "electric_quadrupole_moment_norm": 9.08166220358, 
			 "total_energy": -591.253781147, 
			 "HOMO_LUMO_gap": 0.19247, 
			 "cosmo_polarized_energy": -11.94, 
			 "cosmo_cavitation_energy": 30.28, 
			 "cosmo_dispersion_energy": -22.28, 
			 "cosmo_repulsion_energy": 1.77, 
			 "cosmo_total_nonelectrostatic_energy": 9.76, 
			 "SMD_solvation_energy": 4.66 
		},
		"coords": [
			{
				"x": 2.5548361398,
				"y": 3.8870053497,
				"z": -0.8210321985,
				"element": "C" 
			},
			{
				"x": 1.5607377837,
				"y": 2.7749601439,
				"z": -0.961100819,
				"element": "C" 
			},
			{
				"x": 0.9908407802,
				"y": 2.2510347881,
				"z": 0.1158174075,
				"element": "N" 
			},
			{
				"x": 0.1642868678,
				"y": 1.258073678,
				"z": -0.3626155786,
				"element": "N" 
			},
			{
				"x": 0.2038412688,
				"y": 1.1929714977,
				"z": -1.7340619573,
				"element": "C" 
			},
			{
				"x": -0.534538785,
				"y": 0.266677248,
				"z": -2.471376998,
				"element": "N" 
			},
			{
				"x": 1.1060240917,
				"y": 2.1530626411,
				"z": -2.1530151014,
				"element": "C" 
			},
			{
				"x": -0.6345894772,
				"y": 0.5219352378,
				"z": 0.5477574497,
				"element": "C" 
			},
			{
				"x": -1.1022577861,
				"y": 1.1536503062,
				"z": 1.7085305767,
				"element": "C" 
			},
			{
				"x": -1.8758992538,
				"y": 0.443009999,
				"z": 2.6190473614,
				"element": "C" 
			},
			{
				"x": -2.2179510413,
				"y": -0.9012555643,
				"z": 2.402802853,
				"element": "C" 
			},
			{
				"x": -3.0868096453,
				"y": -1.6486054967,
				"z": 3.3866202326,
				"element": "C" 
			},
			{
				"x": -1.7329204489,
				"y": -1.5166738215,
				"z": 1.2446393706,
				"element": "C" 
			},
			{
				"x": -0.939881482,
				"y": -0.8261411968,
				"z": 0.325895054,
				"element": "C" 
			},
			{
				"x": 2.6673913102,
				"y": 4.1521591787,
				"z": 0.2325042271,
				"element": "H" 
			},
			{
				"x": 2.2367803267,
				"y": 4.7794000789,
				"z": -1.3721921811,
				"element": "H" 
			},
			{
				"x": 3.5367698165,
				"y": 3.5963621937,
				"z": -1.2115239179,
				"element": "H" 
			},
			{
				"x": -0.5996430012,
				"y": 0.5327113522,
				"z": -3.4458657965,
				"element": "H" 
			},
			{
				"x": -1.4571605463,
				"y": 0.0858190178,
				"z": -2.0907098049,
				"element": "H" 
			},
			{
				"x": 1.3860629192,
				"y": 2.3769480562,
				"z": -3.172232512,
				"element": "H" 
			},
			{
				"x": -0.8347476757,
				"y": 2.188901451,
				"z": 1.882537887,
				"element": "H" 
			},
			{
				"x": -2.2275571469,
				"y": 0.9453390731,
				"z": 3.5171536308,
				"element": "H" 
			},
			{
				"x": -3.056205517,
				"y": -2.727202705,
				"z": 3.2078356293,
				"element": "H" 
			},
			{
				"x": -4.1351415033,
				"y": -1.3327702873,
				"z": 3.3146969068,
				"element": "H" 
			},
			{
				"x": -2.7681491586,
				"y": -1.4694148163,
				"z": 4.4189990597,
				"element": "H" 
			},
			{
				"x": -1.9598931019,
				"y": -2.5638532196,
				"z": 1.0603844011,
				"element": "H" 
			},
			{
				"x": -0.5383257339,
				"y": -1.3392041837,
				"z": -0.540695182,
				"element": "H" 
			}
		],
		 "valence_orbital": [ 
			{
				"type": "occ",
				"energy": -0.27195,
				"method": "rhf"
			},
			{
				"type": "occ",
				"energy": -0.26576,
				"method": "rhf"
			},
			{
				"type": "occ",
				"energy": -0.25005,
				"method": "rhf"
			},
			{
				"type": "occ",
				"energy": -0.21042,
				"method": "rhf"
			},
			{
				"type": "occ",
				"energy": -0.20025,
				"method": "rhf"
			},
			{
				"type": "unocc",
				"energy": -0.00778,
				"method": "rhf"
			},
			{
				"type": "unocc",
				"energy": -0.00282,
				"method": "rhf"
			},
			{
				"type": "unocc",
				"energy": 0.05393,
				"method": "rhf"
			},
			{
				"type": "unocc",
				"energy": 0.07643,
				"method": "rhf"
			},
			{
				"type": "unocc",
				"energy": 0.09113,
				"method": "rhf"
			}
		],
		"cosmo_sigma_profile": { 
			"-0.025": 0.0,
			"-0.024": 0.0,
			"-0.023": 0.0,
			"-0.022": 0.0,
			"-0.021": 0.0,
			"-0.02": 0.0,
			"-0.019": 0.0,
			"-0.018": 0.0,
			"-0.017": 0.0,
			"-0.016": 0.0,
			"-0.015": 0.0,
			"-0.014": 0.238051711486,
			"-0.013": 1.14436053527,
			"-0.012": 2.45959538142,
			"-0.011": 2.69498884489,
			"-0.01": 2.49805127993,
			"-0.009": 2.45449998904,
			"-0.008": 2.50881066515,
			"-0.007": 2.3485461377,
			"-0.006": 5.46008952805,
			"-0.005": 10.833231877,
			"-0.004": 21.4697572739,
			"-0.003": 19.8763077685,
			"-0.002": 21.6303643047,
			"-0.001": 21.4664268913,
			"0.0": 23.7566641082,
			"0.001": 15.7908899514,
			"0.002": 12.9997660188,
			"0.003": 12.5521762885,
			"0.004": 12.8356219029,
			"0.005": 16.775727643,
			"0.006": 9.14017930266,
			"0.007": 5.256538463,
			"0.008": 2.63376471464,
			"0.009": 2.42190700398,
			"0.01": 2.08681759088,
			"0.011": 1.80502919668,
			"0.012": 1.60046281191,
			"0.013": 1.53609912604,
			"0.014": 0.759475073443,
			"0.015": 0.662713806589,
			"0.016": 0.466507407936,
			"0.017": 0.0,
			"0.018": 0.0,
			"0.019": 0.0,
			"0.02": 0.0,
			"0.021": 0.0,
			"0.022": 0.0,
			"0.023": 0.0,
			"0.024": 0.0,
			"0.025": 0.0
		}
	}
}
