{
	 "smiles": "OC(=O)C1=C(Cl)C=CC(=C1)S(Cl)(=O)=O", 
	 "Tm": 383.15, 
	 "num_atms": 18, 
	 "gaussian": { 
		 "optdone": 1, 
		 "sigma_profile": "yes", 
		 "theory": "DFT", 
		 "functional": "B3LYP", 
		 "basiset": "6-31G**", 
		 "properties": { 
			 "R2extent": 4971.7064, 
			 "electric_dipole_moment_norm": 4.89236346769, 
			 "electric_quadrupole_moment_norm": 8.11498291619, 
			 "total_energy": -1888.55863047, 
			 "HOMO_LUMO_gap": 0.18884, 
			 "cosmo_polarized_energy": -13.66, 
			 "cosmo_cavitation_energy": 28.78, 
			 "cosmo_dispersion_energy": -21.63, 
			 "cosmo_repulsion_energy": 1.67, 
			 "cosmo_total_nonelectrostatic_energy": 8.82, 
			 "SMD_solvation_energy": 4.7 
		},
		"coords": [
			{
				"x": -1.9230850198,
				"y": -2.2627183773,
				"z": -1.8778031663,
				"element": "O" 
			},
			{
				"x": -1.384777918,
				"y": -1.7584838159,
				"z": -0.7554979946,
				"element": "C" 
			},
			{
				"x": -1.9135328543,
				"y": -1.8759910122,
				"z": 0.3313876665,
				"element": "O" 
			},
			{
				"x": -0.0792559209,
				"y": -1.03640149,
				"z": -0.9394701332,
				"element": "C" 
			},
			{
				"x": 0.6453640386,
				"y": -0.8311678101,
				"z": -2.1328520751,
				"element": "C" 
			},
			{
				"x": 0.1310754838,
				"y": -1.4178997791,
				"z": -3.6921523687,
				"element": "Cl" 
			},
			{
				"x": 1.854151617,
				"y": -0.1204411343,
				"z": -2.1227959272,
				"element": "C" 
			},
			{
				"x": 2.3673117577,
				"y": 0.3930458705,
				"z": -0.9398348813,
				"element": "C" 
			},
			{
				"x": 1.6493122907,
				"y": 0.1843594097,
				"z": 0.2389878414,
				"element": "C" 
			},
			{
				"x": 0.4508122064,
				"y": -0.5123101187,
				"z": 0.2506772261,
				"element": "C" 
			},
			{
				"x": 2.2813865588,
				"y": 0.8566272657,
				"z": 1.7708201976,
				"element": "S" 
			},
			{
				"x": 3.483194538,
				"y": -0.758942785,
				"z": 2.4638444566,
				"element": "Cl" 
			},
			{
				"x": 1.189834186,
				"y": 0.9965185883,
				"z": 2.7240712949,
				"element": "O" 
			},
			{
				"x": 3.1999705959,
				"y": 1.9448936211,
				"z": 1.4614915197,
				"element": "O" 
			},
			{
				"x": -2.7509220456,
				"y": -2.6936191987,
				"z": -1.6036088673,
				"element": "H" 
			},
			{
				"x": 2.3837792083,
				"y": 0.0263255177,
				"z": -3.0567999921,
				"element": "H" 
			},
			{
				"x": 3.29675164,
				"y": 0.9511515574,
				"z": -0.9297976871,
				"element": "H" 
			},
			{
				"x": -0.1071703624,
				"y": -0.6624463092,
				"z": 1.1678328899,
				"element": "H" 
			}
		],
		 "valence_orbital": [ 
			{
				"type": "occ",
				"energy": -0.33407,
				"method": "rhf"
			},
			{
				"type": "occ",
				"energy": -0.32064,
				"method": "rhf"
			},
			{
				"type": "occ",
				"energy": -0.30613,
				"method": "rhf"
			},
			{
				"type": "occ",
				"energy": -0.30559,
				"method": "rhf"
			},
			{
				"type": "occ",
				"energy": -0.29005,
				"method": "rhf"
			},
			{
				"type": "unocc",
				"energy": -0.10121,
				"method": "rhf"
			},
			{
				"type": "unocc",
				"energy": -0.08439,
				"method": "rhf"
			},
			{
				"type": "unocc",
				"energy": -0.05777,
				"method": "rhf"
			},
			{
				"type": "unocc",
				"energy": 0.00129,
				"method": "rhf"
			},
			{
				"type": "unocc",
				"energy": 0.01025,
				"method": "rhf"
			}
		],
		"cosmo_sigma_profile": { 
			"-0.025": 0.0,
			"-0.024": 0.0,
			"-0.023": 0.0,
			"-0.022": 0.0,
			"-0.021": 0.0,
			"-0.02": 0.0269239482748,
			"-0.019": 0.645924166798,
			"-0.018": 0.900771675674,
			"-0.017": 0.808765048576,
			"-0.016": 1.22042298033,
			"-0.015": 0.824279420705,
			"-0.014": 0.388011975589,
			"-0.013": 0.683658040887,
			"-0.012": 0.757602549146,
			"-0.011": 0.665102854278,
			"-0.01": 1.60867029338,
			"-0.009": 4.97008485221,
			"-0.008": 4.73621442685,
			"-0.007": 6.20037682132,
			"-0.006": 4.8283109127,
			"-0.005": 8.70903440009,
			"-0.004": 12.542559331,
			"-0.003": 17.6252648696,
			"-0.002": 27.6360439547,
			"-0.001": 19.3283084942,
			"0.0": 13.3797799199,
			"0.001": 13.3168911799,
			"0.002": 17.7415123429,
			"0.003": 21.9228270559,
			"0.004": 9.69788605184,
			"0.005": 5.69074608022,
			"0.006": 6.49604839206,
			"0.007": 11.5863975126,
			"0.008": 10.9666091297,
			"0.009": 4.18831148986,
			"0.01": 2.95198663263,
			"0.011": 3.51320279693,
			"0.012": 0.172334185277,
			"0.013": 0.0,
			"0.014": 0.0,
			"0.015": 0.0,
			"0.016": 0.0,
			"0.017": 0.0,
			"0.018": 0.0,
			"0.019": 0.0,
			"0.02": 0.0,
			"0.021": 0.0,
			"0.022": 0.0,
			"0.023": 0.0,
			"0.024": 0.0,
			"0.025": 0.0
		}
	}
}
