{
	 "smiles": "CC1C2CC(O)C3C(C2O)(C(O)CC2C(C)(CO)CCCC32CO)C1=O", 
	 "Tm": 539.15, 
	 "num_atms": 58, 
	 "gaussian": { 
		 "optdone": 1, 
		 "sigma_profile": "yes", 
		 "theory": "DFT", 
		 "functional": "B3LYP", 
		 "basiset": "6-31G**", 
		 "properties": { 
			 "R2extent": 9032.2129, 
			 "electric_dipole_moment_norm": 3.55768125188, 
			 "electric_quadrupole_moment_norm": 21.7909294788, 
			 "total_energy": -1232.70251002, 
			 "HOMO_LUMO_gap": 0.21311, 
			 "cosmo_polarized_energy": -24.48, 
			 "cosmo_cavitation_energy": 47.27, 
			 "cosmo_dispersion_energy": -33.67, 
			 "cosmo_repulsion_energy": 2.47, 
			 "cosmo_total_nonelectrostatic_energy": 16.07, 
			 "SMD_solvation_energy": 7.82 
		},
		"coords": [
			{
				"x": -2.6645250153,
				"y": 5.24735739,
				"z": -1.4268249838,
				"element": "C" 
			},
			{
				"x": -1.6576645254,
				"y": 4.2169831618,
				"z": -1.9278386559,
				"element": "C" 
			},
			{
				"x": -2.1491662947,
				"y": 2.9465457858,
				"z": -2.6682278942,
				"element": "C" 
			},
			{
				"x": -3.1578427313,
				"y": 2.1239679282,
				"z": -1.8170915705,
				"element": "C" 
			},
			{
				"x": -2.5852369907,
				"y": 0.8959989498,
				"z": -1.0547854503,
				"element": "C" 
			},
			{
				"x": -3.5711388115,
				"y": 0.503866968,
				"z": -0.0942036452,
				"element": "O" 
			},
			{
				"x": -1.1887572576,
				"y": 1.1454233815,
				"z": -0.4131977791,
				"element": "C" 
			},
			{
				"x": -0.3587729502,
				"y": 2.1518581149,
				"z": -1.3006896374,
				"element": "C" 
			},
			{
				"x": -0.8114076147,
				"y": 2.1899530072,
				"z": -2.7774163082,
				"element": "C" 
			},
			{
				"x": -0.8788861331,
				"y": 0.8990678682,
				"z": -3.3677902203,
				"element": "O" 
			},
			{
				"x": 1.1462333896,
				"y": 1.9588204411,
				"z": -1.1041719546,
				"element": "C" 
			},
			{
				"x": 1.7820329465,
				"y": 3.1578098426,
				"z": -1.5591707521,
				"element": "O" 
			},
			{
				"x": 1.4261811193,
				"y": 1.6619591379,
				"z": 0.3653466598,
				"element": "C" 
			},
			{
				"x": 0.93006726,
				"y": 0.254506848,
				"z": 0.8064891401,
				"element": "C" 
			},
			{
				"x": 2.0690479112,
				"y": -0.8640886262,
				"z": 0.8686377024,
				"element": "C" 
			},
			{
				"x": 1.8251649294,
				"y": -1.7876185895,
				"z": 2.0911238896,
				"element": "C" 
			},
			{
				"x": 3.4721494629,
				"y": -0.2690320235,
				"z": 1.1427596012,
				"element": "C" 
			},
			{
				"x": 4.0313431898,
				"y": 0.3462857006,
				"z": -0.0210284403,
				"element": "O" 
			},
			{
				"x": 2.1600392044,
				"y": -1.7200230342,
				"z": -0.4145795491,
				"element": "C" 
			},
			{
				"x": 0.8080663494,
				"y": -2.2700800967,
				"z": -0.8625770516,
				"element": "C" 
			},
			{
				"x": -0.1559847134,
				"y": -1.118511888,
				"z": -1.1612386906,
				"element": "C" 
			},
			{
				"x": -0.4096632126,
				"y": -0.1624412955,
				"z": 0.0361658967,
				"element": "C" 
			},
			{
				"x": -1.3368270587,
				"y": -0.9293864871,
				"z": 1.0130599729,
				"element": "C" 
			},
			{
				"x": -1.8041666952,
				"y": -0.0449021412,
				"z": 2.0471848462,
				"element": "O" 
			},
			{
				"x": -0.8025874859,
				"y": 3.5799151802,
				"z": -0.8329927657,
				"element": "C" 
			},
			{
				"x": -0.6058812706,
				"y": 4.0611679029,
				"z": 0.261934071,
				"element": "O" 
			},
			{
				"x": -3.1904689429,
				"y": 5.7199506266,
				"z": -2.2624904609,
				"element": "H" 
			},
			{
				"x": -2.1448414817,
				"y": 6.0238442053,
				"z": -0.8592351258,
				"element": "H" 
			},
			{
				"x": -3.4100191293,
				"y": 4.8051855924,
				"z": -0.760405367,
				"element": "H" 
			},
			{
				"x": -0.9447590652,
				"y": 4.7283742624,
				"z": -2.5945590911,
				"element": "H" 
			},
			{
				"x": -2.5689825704,
				"y": 3.1931458697,
				"z": -3.6506607446,
				"element": "H" 
			},
			{
				"x": -3.6356121882,
				"y": 2.7627774688,
				"z": -1.0675986912,
				"element": "H" 
			},
			{
				"x": -3.9737568343,
				"y": 1.7549056936,
				"z": -2.44589322,
				"element": "H" 
			},
			{
				"x": -2.4964892899,
				"y": 0.0787779535,
				"z": -1.7739095377,
				"element": "H" 
			},
			{
				"x": -3.1967125059,
				"y": 0.6345662195,
				"z": 0.7919930068,
				"element": "H" 
			},
			{
				"x": -1.3737207134,
				"y": 1.6857335851,
				"z": 0.5221048859,
				"element": "H" 
			},
			{
				"x": -0.0861272568,
				"y": 2.8052879582,
				"z": -3.3299923961,
				"element": "H" 
			},
			{
				"x": -1.1025332394,
				"y": 1.0156779273,
				"z": -4.3000873141,
				"element": "H" 
			},
			{
				"x": 1.4867310868,
				"y": 1.1209553233,
				"z": -1.7281454727,
				"element": "H" 
			},
			{
				"x": 2.7310949751,
				"y": 3.043949025,
				"z": -1.4206045892,
				"element": "H" 
			},
			{
				"x": 0.9238888885,
				"y": 2.430837535,
				"z": 0.9565693875,
				"element": "H" 
			},
			{
				"x": 2.4941315413,
				"y": 1.775912152,
				"z": 0.5402664221,
				"element": "H" 
			},
			{
				"x": 0.615311911,
				"y": 0.387418599,
				"z": 1.8474824056,
				"element": "H" 
			},
			{
				"x": 2.6201241476,
				"y": -2.5376505929,
				"z": 2.1731223226,
				"element": "H" 
			},
			{
				"x": 1.8097389245,
				"y": -1.2109730634,
				"z": 3.0231663707,
				"element": "H" 
			},
			{
				"x": 0.8835065443,
				"y": -2.3335938863,
				"z": 2.0316628054,
				"element": "H" 
			},
			{
				"x": 4.1265964965,
				"y": -1.0918310919,
				"z": 1.4658183012,
				"element": "H" 
			},
			{
				"x": 3.4129576561,
				"y": 0.4474696673,
				"z": 1.977771672,
				"element": "H" 
			},
			{
				"x": 4.9544382965,
				"y": 0.5506948324,
				"z": 0.1723909128,
				"element": "H" 
			},
			{
				"x": 2.8743584969,
				"y": -2.5372702511,
				"z": -0.243617059,
				"element": "H" 
			},
			{
				"x": 2.5816590342,
				"y": -1.1102366489,
				"z": -1.2202067348,
				"element": "H" 
			},
			{
				"x": 0.3955111386,
				"y": -2.9522843852,
				"z": -0.1082411047,
				"element": "H" 
			},
			{
				"x": 0.9366846563,
				"y": -2.8729081611,
				"z": -1.769830875,
				"element": "H" 
			},
			{
				"x": -1.1160728538,
				"y": -1.5230999578,
				"z": -1.5009525101,
				"element": "H" 
			},
			{
				"x": 0.2320944533,
				"y": -0.5563517004,
				"z": -2.0116572197,
				"element": "H" 
			},
			{
				"x": -2.1938094956,
				"y": -1.329397841,
				"z": 0.4608824786,
				"element": "H" 
			},
			{
				"x": -0.802667764,
				"y": -1.7685727745,
				"z": 1.4644814075,
				"element": "H" 
			},
			{
				"x": -2.2290719185,
				"y": -0.5805975684,
				"z": 2.7285987037,
				"element": "H" 
			}
		],
		 "valence_orbital": [ 
			{
				"type": "occ",
				"energy": -0.26791,
				"method": "rhf"
			},
			{
				"type": "occ",
				"energy": -0.25986,
				"method": "rhf"
			},
			{
				"type": "occ",
				"energy": -0.25216,
				"method": "rhf"
			},
			{
				"type": "occ",
				"energy": -0.23639,
				"method": "rhf"
			},
			{
				"type": "occ",
				"energy": -0.22153,
				"method": "rhf"
			},
			{
				"type": "unocc",
				"energy": -0.00842,
				"method": "rhf"
			},
			{
				"type": "unocc",
				"energy": 0.06252,
				"method": "rhf"
			},
			{
				"type": "unocc",
				"energy": 0.06487,
				"method": "rhf"
			},
			{
				"type": "unocc",
				"energy": 0.07017,
				"method": "rhf"
			},
			{
				"type": "unocc",
				"energy": 0.08223,
				"method": "rhf"
			}
		],
		"cosmo_sigma_profile": { 
			"-0.025": 0.0,
			"-0.024": 0.0,
			"-0.023": 0.0,
			"-0.022": 0.0,
			"-0.021": 0.0,
			"-0.02": 0.0,
			"-0.019": 0.0,
			"-0.018": 0.0,
			"-0.017": 0.0781827033463,
			"-0.016": 1.92365844821,
			"-0.015": 2.86120229961,
			"-0.014": 4.28114268539,
			"-0.013": 3.33194320255,
			"-0.012": 2.17017937412,
			"-0.011": 4.09701859404,
			"-0.01": 2.699509208,
			"-0.009": 2.75285185118,
			"-0.008": 3.85610124019,
			"-0.007": 4.52849152293,
			"-0.006": 5.74390044373,
			"-0.005": 10.4438337383,
			"-0.004": 18.9917806759,
			"-0.003": 32.1588981316,
			"-0.002": 45.0818519112,
			"-0.001": 38.6503577994,
			"0.0": 35.2154139877,
			"0.001": 35.1302855975,
			"0.002": 18.2517074595,
			"0.003": 10.4046935919,
			"0.004": 9.78269529542,
			"0.005": 8.41004264308,
			"0.006": 8.68667484247,
			"0.007": 8.35706571862,
			"0.008": 8.00921650497,
			"0.009": 7.18073174863,
			"0.01": 6.81032326603,
			"0.011": 8.76866378618,
			"0.012": 7.11616360861,
			"0.013": 2.27060288918,
			"0.014": 0.783475642079,
			"0.015": 2.22309061483,
			"0.016": 0.523935676631,
			"0.017": 0.0,
			"0.018": 0.0,
			"0.019": 0.0,
			"0.02": 0.0,
			"0.021": 0.0,
			"0.022": 0.0,
			"0.023": 0.0,
			"0.024": 0.0,
			"0.025": 0.0
		}
	}
}
