{
	 "smiles": "CCOC1=CC=C(C=C1)C(C)=O", 
	 "Tm": 311.15, 
	 "num_atms": 24, 
	 "gaussian": { 
		 "optdone": 1, 
		 "sigma_profile": "yes", 
		 "theory": "DFT", 
		 "functional": "B3LYP", 
		 "basiset": "6-31G**", 
		 "properties": { 
			 "R2extent": 3665.5853, 
			 "electric_dipole_moment_norm": 3.48336496652, 
			 "electric_quadrupole_moment_norm": 17.6139941686, 
			 "total_energy": -538.747451175, 
			 "HOMO_LUMO_gap": 0.1843, 
			 "cosmo_polarized_energy": -9.84, 
			 "cosmo_cavitation_energy": 27.69, 
			 "cosmo_dispersion_energy": -20.29, 
			 "cosmo_repulsion_energy": 1.63, 
			 "cosmo_total_nonelectrostatic_energy": 9.03, 
			 "SMD_solvation_energy": 5.85 
		},
		"coords": [
			{
				"x": -2.4961883095,
				"y": 2.944820048,
				"z": 2.6681823466,
				"element": "C" 
			},
			{
				"x": -1.3584755429,
				"y": 1.9767054577,
				"z": 2.3963160701,
				"element": "C" 
			},
			{
				"x": -0.8616140611,
				"y": 2.2551978379,
				"z": 1.0844362168,
				"element": "O" 
			},
			{
				"x": 0.1699036488,
				"y": 1.5181356843,
				"z": 0.5982665172,
				"element": "C" 
			},
			{
				"x": 0.8062110252,
				"y": 0.4777851436,
				"z": 1.2947015106,
				"element": "C" 
			},
			{
				"x": 1.8552848382,
				"y": -0.207892424,
				"z": 0.6914511865,
				"element": "C" 
			},
			{
				"x": 2.2959892994,
				"y": 0.1142689587,
				"z": -0.6000372615,
				"element": "C" 
			},
			{
				"x": 1.6475232375,
				"y": 1.1592623584,
				"z": -1.2838415778,
				"element": "C" 
			},
			{
				"x": 0.5999836719,
				"y": 1.8530096285,
				"z": -0.6969274962,
				"element": "C" 
			},
			{
				"x": 3.4274516923,
				"y": -0.6668561897,
				"z": -1.1797679152,
				"element": "C" 
			},
			{
				"x": 3.9134185533,
				"y": -0.3242226783,
				"z": -2.5802942557,
				"element": "C" 
			},
			{
				"x": 3.9606141698,
				"y": -1.5679108629,
				"z": -0.5459013484,
				"element": "O" 
			},
			{
				"x": -2.1436650879,
				"y": 3.9786418072,
				"z": 2.6170107929,
				"element": "H" 
			},
			{
				"x": -2.9089347747,
				"y": 2.767576714,
				"z": 3.6659618628,
				"element": "H" 
			},
			{
				"x": -3.296079644,
				"y": 2.8161934104,
				"z": 1.9338059093,
				"element": "H" 
			},
			{
				"x": -1.7064917204,
				"y": 0.9358917692,
				"z": 2.4480081915,
				"element": "H" 
			},
			{
				"x": -0.552189427,
				"y": 2.1002019453,
				"z": 3.1323403807,
				"element": "H" 
			},
			{
				"x": 0.4912193468,
				"y": 0.2026730919,
				"z": 2.2940768444,
				"element": "H" 
			},
			{
				"x": 2.3595803885,
				"y": -1.0147124641,
				"z": 1.2133241962,
				"element": "H" 
			},
			{
				"x": 1.9616266955,
				"y": 1.4363915085,
				"z": -2.2851201325,
				"element": "H" 
			},
			{
				"x": 0.0934588914,
				"y": 2.6601931437,
				"z": -1.2156473048,
				"element": "H" 
			},
			{
				"x": 3.1101530372,
				"y": -0.441364846,
				"z": -3.31624444,
				"element": "H" 
			},
			{
				"x": 4.2570406217,
				"y": 0.7147545101,
				"z": -2.6353954039,
				"element": "H" 
			},
			{
				"x": 4.73727945,
				"y": -0.9912435523,
				"z": -2.8354048897,
				"element": "H" 
			}
		],
		 "valence_orbital": [ 
			{
				"type": "occ",
				"energy": -0.3294,
				"method": "rhf"
			},
			{
				"type": "occ",
				"energy": -0.31702,
				"method": "rhf"
			},
			{
				"type": "occ",
				"energy": -0.25929,
				"method": "rhf"
			},
			{
				"type": "occ",
				"energy": -0.23914,
				"method": "rhf"
			},
			{
				"type": "occ",
				"energy": -0.22682,
				"method": "rhf"
			},
			{
				"type": "unocc",
				"energy": -0.04252,
				"method": "rhf"
			},
			{
				"type": "unocc",
				"energy": -0.00717,
				"method": "rhf"
			},
			{
				"type": "unocc",
				"energy": 0.05309,
				"method": "rhf"
			},
			{
				"type": "unocc",
				"energy": 0.09032,
				"method": "rhf"
			},
			{
				"type": "unocc",
				"energy": 0.09267,
				"method": "rhf"
			}
		],
		"cosmo_sigma_profile": { 
			"-0.025": 0.0,
			"-0.024": 0.0,
			"-0.023": 0.0,
			"-0.022": 0.0,
			"-0.021": 0.0,
			"-0.02": 0.0,
			"-0.019": 0.0,
			"-0.018": 0.0,
			"-0.017": 0.0,
			"-0.016": 0.0,
			"-0.015": 0.0,
			"-0.014": 0.0,
			"-0.013": 0.0,
			"-0.012": 0.0,
			"-0.011": 0.0,
			"-0.01": 0.0,
			"-0.009": 0.0,
			"-0.008": 0.0,
			"-0.007": 1.92117629619,
			"-0.006": 11.9956675533,
			"-0.005": 21.0720388874,
			"-0.004": 23.378263239,
			"-0.003": 21.2733372907,
			"-0.002": 19.5097595691,
			"-0.001": 17.9475344596,
			"0.0": 18.4876773827,
			"0.001": 11.2221687527,
			"0.002": 11.8858890209,
			"0.003": 15.4035532715,
			"0.004": 15.4316451988,
			"0.005": 4.64871799781,
			"0.006": 3.79300921226,
			"0.007": 3.52314361138,
			"0.008": 1.74289851107,
			"0.009": 3.28708704924,
			"0.01": 2.66332360309,
			"0.011": 2.38649640836,
			"0.012": 3.78981650114,
			"0.013": 3.06995274347,
			"0.014": 0.67768808228,
			"0.015": 0.0,
			"0.016": 0.0,
			"0.017": 0.0,
			"0.018": 0.0,
			"0.019": 0.0,
			"0.02": 0.0,
			"0.021": 0.0,
			"0.022": 0.0,
			"0.023": 0.0,
			"0.024": 0.0,
			"0.025": 0.0
		}
	}
}
