{
	 "smiles": "ClC1=CC=C(C=C1)C1=CC=C(S1)C=O", 
	 "Tm": 358.15, 
	 "num_atms": 21, 
	 "gaussian": { 
		 "optdone": 1, 
		 "sigma_profile": "yes", 
		 "theory": "DFT", 
		 "functional": "B3LYP", 
		 "basiset": "6-31G**", 
		 "properties": { 
			 "R2extent": 6173.071, 
			 "electric_dipole_moment_norm": 3.55731094227, 
			 "electric_quadrupole_moment_norm": 15.4843284414, 
			 "total_energy": -1356.97931612, 
			 "HOMO_LUMO_gap": 0.1487, 
			 "cosmo_polarized_energy": -10.58, 
			 "cosmo_cavitation_energy": 29.59, 
			 "cosmo_dispersion_energy": -22.16, 
			 "cosmo_repulsion_energy": 1.68, 
			 "cosmo_total_nonelectrostatic_energy": 9.11, 
			 "SMD_solvation_energy": 5.42 
		},
		"coords": [
			{
				"x": 2.4415375784,
				"y": -2.3389786723,
				"z": -5.1954221639,
				"element": "Cl" 
			},
			{
				"x": 1.6227079793,
				"y": -1.9197721645,
				"z": -3.701595982,
				"element": "C" 
			},
			{
				"x": 1.7896336945,
				"y": -2.7248854732,
				"z": -2.5749177891,
				"element": "C" 
			},
			{
				"x": 1.1399056684,
				"y": -2.3843834855,
				"z": -1.3920583248,
				"element": "C" 
			},
			{
				"x": 0.3148421239,
				"y": -1.24794493,
				"z": -1.3142550138,
				"element": "C" 
			},
			{
				"x": 0.1600605805,
				"y": -0.4607133922,
				"z": -2.4704243998,
				"element": "C" 
			},
			{
				"x": 0.8102195263,
				"y": -0.7862329162,
				"z": -3.6567192115,
				"element": "C" 
			},
			{
				"x": -0.3692198398,
				"y": -0.8783710797,
				"z": -0.0698028557,
				"element": "C" 
			},
			{
				"x": -0.7729689363,
				"y": 0.3847886101,
				"z": 0.3298264208,
				"element": "C" 
			},
			{
				"x": -1.4061964768,
				"y": 0.3932923772,
				"z": 1.592985147,
				"element": "C" 
			},
			{
				"x": -1.4905062741,
				"y": -0.8605483513,
				"z": 2.1650134196,
				"element": "C" 
			},
			{
				"x": -0.7874753041,
				"y": -2.0757979916,
				"z": 1.1304683204,
				"element": "S" 
			},
			{
				"x": -2.0744601899,
				"y": -1.2156456589,
				"z": 3.4506957905,
				"element": "C" 
			},
			{
				"x": -2.1180229006,
				"y": -2.345906128,
				"z": 3.9070842153,
				"element": "O" 
			},
			{
				"x": 2.4269887028,
				"y": -3.6007401911,
				"z": -2.6214626097,
				"element": "H" 
			},
			{
				"x": 1.2938619195,
				"y": -3.0011793097,
				"z": -0.511803813,
				"element": "H" 
			},
			{
				"x": -0.4952854845,
				"y": 0.4038972055,
				"z": -2.4487349896,
				"element": "H" 
			},
			{
				"x": 0.6802509983,
				"y": -0.1750673267,
				"z": -4.5428751742,
				"element": "H" 
			},
			{
				"x": -0.5875915074,
				"y": 1.2769911519,
				"z": -0.2565793701,
				"element": "H" 
			},
			{
				"x": -1.7820920772,
				"y": 1.2869511826,
				"z": 2.0801098127,
				"element": "H" 
			},
			{
				"x": -2.4942897813,
				"y": -0.3490534561,
				"z": 4.0064685705,
				"element": "H" 
			}
		],
		 "valence_orbital": [ 
			{
				"type": "occ",
				"energy": -0.28231,
				"method": "rhf"
			},
			{
				"type": "occ",
				"energy": -0.27812,
				"method": "rhf"
			},
			{
				"type": "occ",
				"energy": -0.27107,
				"method": "rhf"
			},
			{
				"type": "occ",
				"energy": -0.25986,
				"method": "rhf"
			},
			{
				"type": "occ",
				"energy": -0.23159,
				"method": "rhf"
			},
			{
				"type": "unocc",
				"energy": -0.08289,
				"method": "rhf"
			},
			{
				"type": "unocc",
				"energy": -0.02907,
				"method": "rhf"
			},
			{
				"type": "unocc",
				"energy": -0.02585,
				"method": "rhf"
			},
			{
				"type": "unocc",
				"energy": 0.0166,
				"method": "rhf"
			},
			{
				"type": "unocc",
				"energy": 0.02549,
				"method": "rhf"
			}
		],
		"cosmo_sigma_profile": { 
			"-0.025": 0.0,
			"-0.024": 0.0,
			"-0.023": 0.0,
			"-0.022": 0.0,
			"-0.021": 0.0,
			"-0.02": 0.0,
			"-0.019": 0.0,
			"-0.018": 0.0,
			"-0.017": 0.0,
			"-0.016": 0.0,
			"-0.015": 0.0,
			"-0.014": 0.0,
			"-0.013": 0.0,
			"-0.012": 0.0,
			"-0.011": 0.0,
			"-0.01": 0.0,
			"-0.009": 0.439554185693,
			"-0.008": 7.69654300577,
			"-0.007": 15.4512190208,
			"-0.006": 13.949572229,
			"-0.005": 12.3196602916,
			"-0.004": 11.1157051891,
			"-0.003": 11.1927862843,
			"-0.002": 13.3196846938,
			"-0.001": 13.5569987111,
			"0.0": 18.3920774961,
			"0.001": 30.734928263,
			"0.002": 34.2038519037,
			"0.003": 24.25425448,
			"0.004": 12.6967610852,
			"0.005": 5.21951062953,
			"0.006": 1.87677651006,
			"0.007": 1.51259678086,
			"0.008": 1.78255727167,
			"0.009": 2.15137896126,
			"0.01": 2.20432082358,
			"0.011": 4.15879203556,
			"0.012": 3.67371198825,
			"0.013": 1.23312506417,
			"0.014": 0.0503834378404,
			"0.015": 0.0,
			"0.016": 0.0,
			"0.017": 0.0,
			"0.018": 0.0,
			"0.019": 0.0,
			"0.02": 0.0,
			"0.021": 0.0,
			"0.022": 0.0,
			"0.023": 0.0,
			"0.024": 0.0,
			"0.025": 0.0
		}
	}
}
