{
	 "smiles": "[O-][N+](=O)C([N+]([O-])=O)([N+]([O-])=O)[N+]([O-])=O", 
	 "Tm": 287.05, 
	 "num_atms": 13, 
	 "gaussian": { 
		 "optdone": 1, 
		 "sigma_profile": "yes", 
		 "theory": "DFT", 
		 "functional": "B3LYP", 
		 "basiset": "6-31G**", 
		 "properties": { 
			 "R2extent": 2032.9689, 
			 "electric_dipole_moment_norm": 0.00182208671583, 
			 "electric_quadrupole_moment_norm": 0.0959224686922, 
			 "total_energy": -858.39704438, 
			 "HOMO_LUMO_gap": 0.20805, 
			 "cosmo_polarized_energy": -7.04, 
			 "cosmo_cavitation_energy": 21.72, 
			 "cosmo_dispersion_energy": -14.64, 
			 "cosmo_repulsion_energy": 1.16, 
			 "cosmo_total_nonelectrostatic_energy": 8.25, 
			 "SMD_solvation_energy": 12.4 
		},
		"coords": [
			{
				"x": 1.6464278406,
				"y": -2.4495547573,
				"z": -0.879393321,
				"element": "O" 
			},
			{
				"x": 1.6628979626,
				"y": -1.2668402989,
				"z": -0.6072756951,
				"element": "N" 
			},
			{
				"x": 2.5634017934,
				"y": -0.5931626249,
				"z": -0.1447246654,
				"element": "O" 
			},
			{
				"x": 0.3738064812,
				"y": -0.4704898238,
				"z": -0.8669498073,
				"element": "C" 
			},
			{
				"x": -0.3279468867,
				"y": -0.115915957,
				"z": 0.4541112371,
				"element": "N" 
			},
			{
				"x": 0.2930883219,
				"y": -0.3082810341,
				"z": 1.4790261171,
				"element": "O" 
			},
			{
				"x": -1.4485043202,
				"y": 0.3313407065,
				"z": 0.3024026222,
				"element": "O" 
			},
			{
				"x": 0.7879194013,
				"y": 0.8000874569,
				"z": -1.6268821551,
				"element": "N" 
			},
			{
				"x": 1.5247238688,
				"y": 0.5821542485,
				"z": -2.5693946313,
				"element": "O" 
			},
			{
				"x": 0.3477641873,
				"y": 1.8556300201,
				"z": -1.2204063158,
				"element": "O" 
			},
			{
				"x": -0.6275631407,
				"y": -1.2993396796,
				"z": -1.6877121591,
				"element": "N" 
			},
			{
				"x": -1.1430707397,
				"y": -2.20097703,
				"z": -1.0552602727,
				"element": "O" 
			},
			{
				"x": -0.7912447697,
				"y": -0.9791512262,
				"z": -2.8469409535,
				"element": "O" 
			}
		],
		 "valence_orbital": [ 
			{
				"type": "occ",
				"energy": -0.38172,
				"method": "rhf"
			},
			{
				"type": "occ",
				"energy": -0.36202,
				"method": "rhf"
			},
			{
				"type": "occ",
				"energy": -0.36202,
				"method": "rhf"
			},
			{
				"type": "occ",
				"energy": -0.36089,
				"method": "rhf"
			},
			{
				"type": "occ",
				"energy": -0.36062,
				"method": "rhf"
			},
			{
				"type": "unocc",
				"energy": -0.15257,
				"method": "rhf"
			},
			{
				"type": "unocc",
				"energy": -0.14585,
				"method": "rhf"
			},
			{
				"type": "unocc",
				"energy": -0.14577,
				"method": "rhf"
			},
			{
				"type": "unocc",
				"energy": -0.1381,
				"method": "rhf"
			},
			{
				"type": "unocc",
				"energy": 0.03686,
				"method": "rhf"
			}
		],
		"cosmo_sigma_profile": { 
			"-0.025": 0.0,
			"-0.024": 0.0,
			"-0.023": 0.0,
			"-0.022": 0.0,
			"-0.021": 0.0,
			"-0.02": 0.0,
			"-0.019": 0.0,
			"-0.018": 0.0,
			"-0.017": 0.0,
			"-0.016": 0.0,
			"-0.015": 0.0259320761837,
			"-0.014": 0.518232244392,
			"-0.013": 1.09842990154,
			"-0.012": 1.81134217211,
			"-0.011": 0.850989905011,
			"-0.01": 2.38711822313,
			"-0.009": 2.93711021004,
			"-0.008": 3.79446961174,
			"-0.007": 6.02001768771,
			"-0.006": 5.49432166159,
			"-0.005": 5.4799717263,
			"-0.004": 6.31331860768,
			"-0.003": 6.85912785531,
			"-0.002": 7.05743293841,
			"-0.001": 10.6371072868,
			"0.0": 10.2330699212,
			"0.001": 13.7500933183,
			"0.002": 20.4407259514,
			"0.003": 40.4321372791,
			"0.004": 18.8137330528,
			"0.005": 9.73144528876,
			"0.006": 0.492803677533,
			"0.007": 0.0,
			"0.008": 0.0,
			"0.009": 0.0,
			"0.01": 0.0,
			"0.011": 0.0,
			"0.012": 0.0,
			"0.013": 0.0,
			"0.014": 0.0,
			"0.015": 0.0,
			"0.016": 0.0,
			"0.017": 0.0,
			"0.018": 0.0,
			"0.019": 0.0,
			"0.02": 0.0,
			"0.021": 0.0,
			"0.022": 0.0,
			"0.023": 0.0,
			"0.024": 0.0,
			"0.025": 0.0
		}
	}
}
