{
	 "smiles": "COC1=CC=C(C=CC(=O)C2=CC(=CC=C2)C(=O)C=CC2=CC=C(OC)C=C2)C=C1", 
	 "Tm": 408.15, 
	 "num_atms": 52, 
	 "gaussian": { 
		 "optdone": 1, 
		 "sigma_profile": "yes", 
		 "theory": "DFT", 
		 "functional": "B3LYP", 
		 "basiset": "6-31G**", 
		 "properties": { 
			 "R2extent": 19142.8441, 
			 "electric_dipole_moment_norm": 7.69036827337, 
			 "electric_quadrupole_moment_norm": 22.6435594428, 
			 "total_energy": -1304.87910736, 
			 "HOMO_LUMO_gap": 0.13998, 
			 "cosmo_polarized_energy": -22.23, 
			 "cosmo_cavitation_energy": 58.44, 
			 "cosmo_dispersion_energy": -40.03, 
			 "cosmo_repulsion_energy": 3.01, 
			 "cosmo_total_nonelectrostatic_energy": 21.42, 
			 "SMD_solvation_energy": 12.27 
		},
		"coords": [
			{
				"x": -6.2298618069,
				"y": -0.1379602061,
				"z": 3.3748969042,
				"element": "C" 
			},
			{
				"x": -5.5142171782,
				"y": 0.8058326291,
				"z": 2.5900699792,
				"element": "O" 
			},
			{
				"x": -4.7857094175,
				"y": 0.3545380397,
				"z": 1.5345321986,
				"element": "C" 
			},
			{
				"x": -4.6752870441,
				"y": -0.9936536405,
				"z": 1.1590554465,
				"element": "C" 
			},
			{
				"x": -3.9003520865,
				"y": -1.3433582359,
				"z": 0.0575751116,
				"element": "C" 
			},
			{
				"x": -3.2160982672,
				"y": -0.3768748586,
				"z": -0.7004138422,
				"element": "C" 
			},
			{
				"x": -2.388818609,
				"y": -0.696413271,
				"z": -1.8619665848,
				"element": "C" 
			},
			{
				"x": -2.1590763069,
				"y": -1.916001989,
				"z": -2.3962673761,
				"element": "C" 
			},
			{
				"x": -1.411933101,
				"y": -2.1891942723,
				"z": -3.6426288018,
				"element": "C" 
			},
			{
				"x": -1.6489836441,
				"y": -3.2207745583,
				"z": -4.2684764818,
				"element": "O" 
			},
			{
				"x": -0.3840772634,
				"y": -1.2245056767,
				"z": -4.1679916048,
				"element": "C" 
			},
			{
				"x": 0.4418578446,
				"y": -0.4593349547,
				"z": -3.3331156722,
				"element": "C" 
			},
			{
				"x": 1.4241301394,
				"y": 0.3851180124,
				"z": -3.8706827961,
				"element": "C" 
			},
			{
				"x": 1.5596313547,
				"y": 0.4673237092,
				"z": -5.2650300241,
				"element": "C" 
			},
			{
				"x": 0.759333882,
				"y": -0.3076866505,
				"z": -6.1014902091,
				"element": "C" 
			},
			{
				"x": -0.1980064603,
				"y": -1.161499046,
				"z": -5.5570626484,
				"element": "C" 
			},
			{
				"x": 2.3341866017,
				"y": 1.240558658,
				"z": -3.0313526943,
				"element": "C" 
			},
			{
				"x": 2.9698172715,
				"y": 2.1502236529,
				"z": -3.5641269866,
				"element": "O" 
			},
			{
				"x": 2.455626797,
				"y": 0.9564362438,
				"z": -1.5844548392,
				"element": "C" 
			},
			{
				"x": 3.2129506419,
				"y": 1.755009962,
				"z": -0.8010406328,
				"element": "C" 
			},
			{
				"x": 3.4739381491,
				"y": 1.6370636685,
				"z": 0.6270714629,
				"element": "C" 
			},
			{
				"x": 4.3008725576,
				"y": 2.5957924505,
				"z": 1.2513666698,
				"element": "C" 
			},
			{
				"x": 4.5879136155,
				"y": 2.5370268802,
				"z": 2.605235047,
				"element": "C" 
			},
			{
				"x": 4.0517103312,
				"y": 1.5050125773,
				"z": 3.3913689669,
				"element": "C" 
			},
			{
				"x": 4.3876226444,
				"y": 1.5279848284,
				"z": 4.7084101901,
				"element": "O" 
			},
			{
				"x": 3.8803719102,
				"y": 0.5078723442,
				"z": 5.5574444642,
				"element": "C" 
			},
			{
				"x": 3.2257776095,
				"y": 0.5383209886,
				"z": 2.79550226,
				"element": "C" 
			},
			{
				"x": 2.9477665865,
				"y": 0.6123447454,
				"z": 1.4345666777,
				"element": "C" 
			},
			{
				"x": -3.3439587102,
				"y": 0.9706844298,
				"z": -0.3023211728,
				"element": "C" 
			},
			{
				"x": -4.1109202521,
				"y": 1.3361489509,
				"z": 0.7922316416,
				"element": "C" 
			},
			{
				"x": -6.7369614033,
				"y": 0.4392211754,
				"z": 4.1491325208,
				"element": "H" 
			},
			{
				"x": -5.5561357271,
				"y": -0.8633379864,
				"z": 3.8480463478,
				"element": "H" 
			},
			{
				"x": -6.9766275741,
				"y": -0.6758272436,
				"z": 2.7776347169,
				"element": "H" 
			},
			{
				"x": -5.1877815082,
				"y": -1.7697769078,
				"z": 1.714749784,
				"element": "H" 
			},
			{
				"x": -3.8320579369,
				"y": -2.3918282166,
				"z": -0.2149942115,
				"element": "H" 
			},
			{
				"x": -1.9352160821,
				"y": 0.1669500336,
				"z": -2.3447069444,
				"element": "H" 
			},
			{
				"x": -2.6400839184,
				"y": -2.8048696002,
				"z": -1.9955175668,
				"element": "H" 
			},
			{
				"x": 0.3136508344,
				"y": -0.5362067037,
				"z": -2.2602022536,
				"element": "H" 
			},
			{
				"x": 2.3079653004,
				"y": 1.143626268,
				"z": -5.6641635979,
				"element": "H" 
			},
			{
				"x": 0.8849388066,
				"y": -0.2501025158,
				"z": -7.1788107938,
				"element": "H" 
			},
			{
				"x": -0.8162772876,
				"y": -1.7905162609,
				"z": -6.1890416533,
				"element": "H" 
			},
			{
				"x": 1.9502735977,
				"y": 0.0874291888,
				"z": -1.1778787217,
				"element": "H" 
			},
			{
				"x": 3.6899089427,
				"y": 2.5939565965,
				"z": -1.3066429946,
				"element": "H" 
			},
			{
				"x": 4.7218397927,
				"y": 3.3983757508,
				"z": 0.6516843223,
				"element": "H" 
			},
			{
				"x": 5.2242458774,
				"y": 3.2749126467,
				"z": 3.0822463348,
				"element": "H" 
			},
			{
				"x": 2.7838206166,
				"y": 0.5205012868,
				"z": 5.5928768846,
				"element": "H" 
			},
			{
				"x": 4.219666486,
				"y": -0.4863114732,
				"z": 5.2408721818,
				"element": "H" 
			},
			{
				"x": 4.2743602511,
				"y": 0.7221817203,
				"z": 6.5517234225,
				"element": "H" 
			},
			{
				"x": 2.8005661008,
				"y": -0.267628778,
				"z": 3.3815310302,
				"element": "H" 
			},
			{
				"x": 2.3070357047,
				"y": -0.1461049691,
				"z": 0.9953944842,
				"element": "H" 
			},
			{
				"x": -2.8275165778,
				"y": 1.7410431012,
				"z": -0.8692576436,
				"element": "H" 
			},
			{
				"x": -4.2071220855,
				"y": 2.3733774756,
				"z": 1.0952196982,
				"element": "H" 
			}
		],
		 "valence_orbital": [ 
			{
				"type": "occ",
				"energy": -0.25754,
				"method": "rhf"
			},
			{
				"type": "occ",
				"energy": -0.24263,
				"method": "rhf"
			},
			{
				"type": "occ",
				"energy": -0.23843,
				"method": "rhf"
			},
			{
				"type": "occ",
				"energy": -0.21792,
				"method": "rhf"
			},
			{
				"type": "occ",
				"energy": -0.21544,
				"method": "rhf"
			},
			{
				"type": "unocc",
				"energy": -0.07546,
				"method": "rhf"
			},
			{
				"type": "unocc",
				"energy": -0.06678,
				"method": "rhf"
			},
			{
				"type": "unocc",
				"energy": -0.02376,
				"method": "rhf"
			},
			{
				"type": "unocc",
				"energy": -0.02079,
				"method": "rhf"
			},
			{
				"type": "unocc",
				"energy": -0.01215,
				"method": "rhf"
			}
		],
		"cosmo_sigma_profile": { 
			"-0.025": 0.0,
			"-0.024": 0.0,
			"-0.023": 0.0,
			"-0.022": 0.0,
			"-0.021": 0.0,
			"-0.02": 0.0,
			"-0.019": 0.0,
			"-0.018": 0.0,
			"-0.017": 0.0,
			"-0.016": 0.0,
			"-0.015": 0.0,
			"-0.014": 0.0,
			"-0.013": 0.0,
			"-0.012": 0.0,
			"-0.011": 0.0,
			"-0.01": 0.0,
			"-0.009": 1.18191670635,
			"-0.008": 4.17014312511,
			"-0.007": 14.9890401299,
			"-0.006": 37.3075209954,
			"-0.005": 42.7138544789,
			"-0.004": 38.9425322041,
			"-0.003": 32.9939301622,
			"-0.002": 29.0495131811,
			"-0.001": 26.8647391704,
			"0.0": 27.9514971213,
			"0.001": 29.4429819705,
			"0.002": 38.4715771774,
			"0.003": 48.2444843749,
			"0.004": 36.8338910111,
			"0.005": 10.8014875006,
			"0.006": 5.75253387124,
			"0.007": 6.47843999749,
			"0.008": 5.03281604147,
			"0.009": 6.45696180728,
			"0.01": 5.65332824445,
			"0.011": 4.35984494058,
			"0.012": 7.12067982761,
			"0.013": 6.80848702441,
			"0.014": 0.81427661709,
			"0.015": 0.0,
			"0.016": 0.0,
			"0.017": 0.0,
			"0.018": 0.0,
			"0.019": 0.0,
			"0.02": 0.0,
			"0.021": 0.0,
			"0.022": 0.0,
			"0.023": 0.0,
			"0.024": 0.0,
			"0.025": 0.0
		}
	}
}
