{
	 "smiles": "CC1(C)CC(C)(C2=CC=C(O)C=C2)C2=CC=CC=C2O1", 
	 "Tm": 413.15, 
	 "num_atms": 40, 
	 "gaussian": { 
		 "optdone": 1, 
		 "sigma_profile": "yes", 
		 "theory": "DFT", 
		 "functional": "B3LYP", 
		 "basiset": "6-31G**", 
		 "properties": { 
			 "R2extent": 5675.5056, 
			 "electric_dipole_moment_norm": 2.67835739587, 
			 "electric_quadrupole_moment_norm": 10.8951463391, 
			 "total_energy": -848.426238448, 
			 "HOMO_LUMO_gap": 0.20076, 
			 "cosmo_polarized_energy": -11.7, 
			 "cosmo_cavitation_energy": 39.46, 
			 "cosmo_dispersion_energy": -27.48, 
			 "cosmo_repulsion_energy": 2.09, 
			 "cosmo_total_nonelectrostatic_energy": 14.08, 
			 "SMD_solvation_energy": 7.04 
		},
		"coords": [
			{
				"x": 2.3767475693,
				"y": -1.5201325646,
				"z": -0.7746975145,
				"element": "C" 
			},
			{
				"x": 1.8727616378,
				"y": -0.7450521523,
				"z": -1.9999045966,
				"element": "C" 
			},
			{
				"x": 2.3117923031,
				"y": -1.4506085689,
				"z": -3.2859822916,
				"element": "C" 
			},
			{
				"x": 0.3567847013,
				"y": -0.5032048318,
				"z": -2.0230980329,
				"element": "C" 
			},
			{
				"x": -0.1981372867,
				"y": 0.4155540501,
				"z": -0.8985586837,
				"element": "C" 
			},
			{
				"x": -1.5738227105,
				"y": 0.9485077238,
				"z": -1.3907253727,
				"element": "C" 
			},
			{
				"x": -0.4313135876,
				"y": -0.3667472598,
				"z": 0.4180229208,
				"element": "C" 
			},
			{
				"x": 0.148446561,
				"y": -0.0054229033,
				"z": 1.6437156756,
				"element": "C" 
			},
			{
				"x": -0.1024039026,
				"y": -0.7159261855,
				"z": 2.8163944929,
				"element": "C" 
			},
			{
				"x": -0.9554429552,
				"y": -1.8212424778,
				"z": 2.7960241739,
				"element": "C" 
			},
			{
				"x": -1.1702993948,
				"y": -2.4850360151,
				"z": 3.9718496917,
				"element": "O" 
			},
			{
				"x": -1.5486877664,
				"y": -2.2020897874,
				"z": 1.5885264579,
				"element": "C" 
			},
			{
				"x": -1.2857895132,
				"y": -1.4804225934,
				"z": 0.4253387236,
				"element": "C" 
			},
			{
				"x": 0.7690813799,
				"y": 1.5926823639,
				"z": -0.7333768953,
				"element": "C" 
			},
			{
				"x": 0.3947757416,
				"y": 2.7548578492,
				"z": -0.0366929942,
				"element": "C" 
			},
			{
				"x": 1.2396747698,
				"y": 3.8537118725,
				"z": 0.0877922879,
				"element": "C" 
			},
			{
				"x": 2.5057259947,
				"y": 3.8140145986,
				"z": -0.5046423526,
				"element": "C" 
			},
			{
				"x": 2.9076786914,
				"y": 2.6807225833,
				"z": -1.198108433,
				"element": "C" 
			},
			{
				"x": 2.0519654876,
				"y": 1.5733165871,
				"z": -1.3130515631,
				"element": "C" 
			},
			{
				"x": 2.5541477065,
				"y": 0.5341014122,
				"z": -2.0422830655,
				"element": "O" 
			},
			{
				"x": 2.1968424787,
				"y": -0.9751331145,
				"z": 0.1524474531,
				"element": "H" 
			},
			{
				"x": 1.8753324964,
				"y": -2.4898592182,
				"z": -0.6954370329,
				"element": "H" 
			},
			{
				"x": 3.4531233701,
				"y": -1.6920860286,
				"z": -0.8696339188,
				"element": "H" 
			},
			{
				"x": 1.8858512466,
				"y": -2.4575631833,
				"z": -3.3360826282,
				"element": "H" 
			},
			{
				"x": 3.4019915014,
				"y": -1.5347755841,
				"z": -3.3150345552,
				"element": "H" 
			},
			{
				"x": 1.9877783158,
				"y": -0.8886892419,
				"z": -4.1666829214,
				"element": "H" 
			},
			{
				"x": -0.1609581537,
				"y": -1.4670416806,
				"z": -2.0141996551,
				"element": "H" 
			},
			{
				"x": 0.1256130562,
				"y": -0.0310814211,
				"z": -2.9858129576,
				"element": "H" 
			},
			{
				"x": -2.0785601075,
				"y": 1.5342478718,
				"z": -0.6186673083,
				"element": "H" 
			},
			{
				"x": -1.4457993527,
				"y": 1.581044561,
				"z": -2.2745808456,
				"element": "H" 
			},
			{
				"x": -2.2369706064,
				"y": 0.1198512213,
				"z": -1.6580040217,
				"element": "H" 
			},
			{
				"x": 0.8168921906,
				"y": 0.8466919171,
				"z": 1.689153779,
				"element": "H" 
			},
			{
				"x": 0.357718378,
				"y": -0.4241660358,
				"z": 3.7549332842,
				"element": "H" 
			},
			{
				"x": -1.7756770224,
				"y": -3.2206055124,
				"z": 3.8127026896,
				"element": "H" 
			},
			{
				"x": -2.2168775163,
				"y": -3.06075055,
				"z": 1.5554339948,
				"element": "H" 
			},
			{
				"x": -1.76766103,
				"y": -1.8036851245,
				"z": -0.4930824518,
				"element": "H" 
			},
			{
				"x": -0.5870777724,
				"y": 2.7926897181,
				"z": 0.4256530918,
				"element": "H" 
			},
			{
				"x": 0.9134765878,
				"y": 4.7317883113,
				"z": 0.6366884393,
				"element": "H" 
			},
			{
				"x": 3.1786897485,
				"y": 4.6628920545,
				"z": -0.4229194178,
				"element": "H" 
			},
			{
				"x": 3.8839867643,
				"y": 2.6176473389,
				"z": -1.6678176457,
				"element": "H" 
			}
		],
		 "valence_orbital": [ 
			{
				"type": "occ",
				"energy": -0.29208,
				"method": "rhf"
			},
			{
				"type": "occ",
				"energy": -0.24999,
				"method": "rhf"
			},
			{
				"type": "occ",
				"energy": -0.23805,
				"method": "rhf"
			},
			{
				"type": "occ",
				"energy": -0.21469,
				"method": "rhf"
			},
			{
				"type": "occ",
				"energy": -0.20805,
				"method": "rhf"
			},
			{
				"type": "unocc",
				"energy": -0.00729,
				"method": "rhf"
			},
			{
				"type": "unocc",
				"energy": 0.00662,
				"method": "rhf"
			},
			{
				"type": "unocc",
				"energy": 0.01301,
				"method": "rhf"
			},
			{
				"type": "unocc",
				"energy": 0.02088,
				"method": "rhf"
			},
			{
				"type": "unocc",
				"energy": 0.07069,
				"method": "rhf"
			}
		],
		"cosmo_sigma_profile": { 
			"-0.025": 0.0,
			"-0.024": 0.0,
			"-0.023": 0.0,
			"-0.022": 0.0,
			"-0.021": 0.0,
			"-0.02": 0.0,
			"-0.019": 0.0,
			"-0.018": 0.116420899901,
			"-0.017": 1.11624398448,
			"-0.016": 0.744709044905,
			"-0.015": 1.62625911662,
			"-0.014": 0.67396262346,
			"-0.013": 1.21560079475,
			"-0.012": 0.721012717931,
			"-0.011": 0.457066121771,
			"-0.01": 1.21643733419,
			"-0.009": 1.70240860082,
			"-0.008": 0.673626672948,
			"-0.007": 1.29545349476,
			"-0.006": 6.26826958915,
			"-0.005": 14.9490824129,
			"-0.004": 23.3589804884,
			"-0.003": 34.4315481965,
			"-0.002": 27.6167249897,
			"-0.001": 29.3627271614,
			"0.0": 30.8735450413,
			"0.001": 28.371175446,
			"0.002": 15.9885789948,
			"0.003": 16.445801716,
			"0.004": 18.8574602955,
			"0.005": 19.4778433174,
			"0.006": 15.7946303344,
			"0.007": 4.56094280658,
			"0.008": 2.50765417406,
			"0.009": 2.93786970209,
			"0.01": 3.15355867452,
			"0.011": 2.52611528751,
			"0.012": 1.20561262334,
			"0.013": 0.0,
			"0.014": 0.0,
			"0.015": 0.0,
			"0.016": 0.0,
			"0.017": 0.0,
			"0.018": 0.0,
			"0.019": 0.0,
			"0.02": 0.0,
			"0.021": 0.0,
			"0.022": 0.0,
			"0.023": 0.0,
			"0.024": 0.0,
			"0.025": 0.0
		}
	}
}
