{
	 "smiles": "CC1=C(C)C(=CC(=C1)S(Cl)(=O)=O)[N+]([O-])=O", 
	 "Tm": 401.15, 
	 "num_atms": 23, 
	 "gaussian": { 
		 "optdone": 1, 
		 "sigma_profile": "yes", 
		 "theory": "DFT", 
		 "functional": "B3LYP", 
		 "basiset": "6-31G**", 
		 "properties": { 
			 "R2extent": 4896.4972, 
			 "electric_dipole_moment_norm": 6.00394159865, 
			 "electric_quadrupole_moment_norm": 10.7444029136, 
			 "total_energy": -1523.53427023, 
			 "HOMO_LUMO_gap": 0.18591, 
			 "cosmo_polarized_energy": -12.78, 
			 "cosmo_cavitation_energy": 31.03, 
			 "cosmo_dispersion_energy": -22.75, 
			 "cosmo_repulsion_energy": 1.74, 
			 "cosmo_total_nonelectrostatic_energy": 10.02, 
			 "SMD_solvation_energy": 6.16 
		},
		"coords": [
			{
				"x": 0.3381457584,
				"y": -2.4060234823,
				"z": 1.4418404369,
				"element": "C" 
			},
			{
				"x": -0.0835770205,
				"y": -1.0498272483,
				"z": 0.9237518511,
				"element": "C" 
			},
			{
				"x": 0.2066942033,
				"y": 0.1366924973,
				"z": 1.6455560099,
				"element": "C" 
			},
			{
				"x": 0.9138251096,
				"y": 0.048219425,
				"z": 2.9758058508,
				"element": "C" 
			},
			{
				"x": -0.2074487001,
				"y": 1.3547193734,
				"z": 1.0727287627,
				"element": "C" 
			},
			{
				"x": -0.9101205779,
				"y": 1.4397815986,
				"z": -0.1272864389,
				"element": "C" 
			},
			{
				"x": -1.1710030734,
				"y": 0.2558833058,
				"z": -0.7977688833,
				"element": "C" 
			},
			{
				"x": -0.7622207554,
				"y": -0.97789106,
				"z": -0.2947395634,
				"element": "C" 
			},
			{
				"x": -2.0285062567,
				"y": 0.3180333025,
				"z": -2.3656769205,
				"element": "S" 
			},
			{
				"x": -4.0520318,
				"y": 0.110511376,
				"z": -1.7367206133,
				"element": "Cl" 
			},
			{
				"x": -1.9060926831,
				"y": 1.6564008108,
				"z": -2.9265186847,
				"element": "O" 
			},
			{
				"x": -1.7128824473,
				"y": -0.8844877603,
				"z": -3.1258649378,
				"element": "O" 
			},
			{
				"x": 0.0951353059,
				"y": 2.6537441053,
				"z": 1.7114911236,
				"element": "N" 
			},
			{
				"x": 1.1092412458,
				"y": 2.7341207804,
				"z": 2.4028450655,
				"element": "O" 
			},
			{
				"x": -0.6775419122,
				"y": 3.5821405751,
				"z": 1.4863539264,
				"element": "O" 
			},
			{
				"x": 0.1157344013,
				"y": -3.1836461888,
				"z": 0.70806034,
				"element": "H" 
			},
			{
				"x": -0.1864718756,
				"y": -2.6657924203,
				"z": 2.3683356373,
				"element": "H" 
			},
			{
				"x": 1.4111606363,
				"y": -2.4423031997,
				"z": 1.655280974,
				"element": "H" 
			},
			{
				"x": 0.7393612912,
				"y": -0.9231589593,
				"z": 3.4396962683,
				"element": "H" 
			},
			{
				"x": 1.9943205432,
				"y": 0.175728334,
				"z": 2.847510141,
				"element": "H" 
			},
			{
				"x": 0.5924339917,
				"y": 0.8288575214,
				"z": 3.6642166929,
				"element": "H" 
			},
			{
				"x": -1.2206219248,
				"y": 2.4024224497,
				"z": -0.5126231641,
				"element": "H" 
			},
			{
				"x": -0.9696334597,
				"y": -1.8810251362,
				"z": -0.8584738745,
				"element": "H" 
			}
		],
		 "valence_orbital": [ 
			{
				"type": "occ",
				"energy": -0.32325,
				"method": "rhf"
			},
			{
				"type": "occ",
				"energy": -0.32151,
				"method": "rhf"
			},
			{
				"type": "occ",
				"energy": -0.31744,
				"method": "rhf"
			},
			{
				"type": "occ",
				"energy": -0.29662,
				"method": "rhf"
			},
			{
				"type": "occ",
				"energy": -0.29222,
				"method": "rhf"
			},
			{
				"type": "unocc",
				"energy": -0.10631,
				"method": "rhf"
			},
			{
				"type": "unocc",
				"energy": -0.09786,
				"method": "rhf"
			},
			{
				"type": "unocc",
				"energy": -0.05669,
				"method": "rhf"
			},
			{
				"type": "unocc",
				"energy": -0.03179,
				"method": "rhf"
			},
			{
				"type": "unocc",
				"energy": 0.03992,
				"method": "rhf"
			}
		],
		"cosmo_sigma_profile": { 
			"-0.025": 0.0,
			"-0.024": 0.0,
			"-0.023": 0.0,
			"-0.022": 0.0,
			"-0.021": 0.0,
			"-0.02": 0.0,
			"-0.019": 0.0,
			"-0.018": 0.0,
			"-0.017": 0.0,
			"-0.016": 0.0,
			"-0.015": 0.0,
			"-0.014": 0.0,
			"-0.013": 0.0,
			"-0.012": 0.0,
			"-0.011": 0.0,
			"-0.01": 0.133048909764,
			"-0.009": 2.2240508422,
			"-0.008": 3.53759822182,
			"-0.007": 7.58340865758,
			"-0.006": 12.8995655077,
			"-0.005": 17.747099448,
			"-0.004": 18.0077268661,
			"-0.003": 19.1386628713,
			"-0.002": 33.309043901,
			"-0.001": 25.829582927,
			"0.0": 10.4696876133,
			"0.001": 10.0065299594,
			"0.002": 11.984353453,
			"0.003": 17.9619477222,
			"0.004": 8.67218952751,
			"0.005": 6.04760241472,
			"0.006": 8.297160601,
			"0.007": 15.7776293704,
			"0.008": 14.1124812135,
			"0.009": 6.1562055399,
			"0.01": 0.71409473785,
			"0.011": 0.0,
			"0.012": 0.0,
			"0.013": 0.0,
			"0.014": 0.0,
			"0.015": 0.0,
			"0.016": 0.0,
			"0.017": 0.0,
			"0.018": 0.0,
			"0.019": 0.0,
			"0.02": 0.0,
			"0.021": 0.0,
			"0.022": 0.0,
			"0.023": 0.0,
			"0.024": 0.0,
			"0.025": 0.0
		}
	}
}
