{
	 "smiles": "CCC12CC3CC(CC(Br)(C3)C1)C2", 
	 "Tm": 296.65, 
	 "num_atms": 32, 
	 "gaussian": { 
		 "optdone": 1, 
		 "sigma_profile": "yes", 
		 "theory": "DFT", 
		 "functional": "B3LYP", 
		 "basiset": "6-31G**", 
		 "properties": { 
			 "R2extent": 3623.3149, 
			 "electric_dipole_moment_norm": 2.8632693918, 
			 "electric_quadrupole_moment_norm": 7.55069187161, 
			 "total_energy": -3040.18106208, 
			 "HOMO_LUMO_gap": 0.2614, 
			 "cosmo_polarized_energy": -4.01, 
			 "cosmo_cavitation_energy": 30.7, 
			 "cosmo_dispersion_energy": -23.02, 
			 "cosmo_repulsion_energy": 1.77, 
			 "cosmo_total_nonelectrostatic_energy": 9.46, 
			 "SMD_solvation_energy": 2.71 
		},
		"coords": [
			{
				"x": 2.9421345116,
				"y": 2.3454699495,
				"z": -0.033873985,
				"element": "C" 
			},
			{
				"x": 2.5297175577,
				"y": 0.8951246053,
				"z": -0.3169641935,
				"element": "C" 
			},
			{
				"x": 1.085652274,
				"y": 0.4887348479,
				"z": 0.0552466792,
				"element": "C" 
			},
			{
				"x": 0.8741667974,
				"y": -1.0032633913,
				"z": -0.3065460583,
				"element": "C" 
			},
			{
				"x": -0.5580121112,
				"y": -1.4584671594,
				"z": 0.0333025851,
				"element": "C" 
			},
			{
				"x": -0.8121977911,
				"y": -1.2751525221,
				"z": 1.5423574497,
				"element": "C" 
			},
			{
				"x": -0.6311324718,
				"y": 0.2103761564,
				"z": 1.909780421,
				"element": "C" 
			},
			{
				"x": -1.6444134229,
				"y": 1.06526087,
				"z": 1.1103869844,
				"element": "C" 
			},
			{
				"x": -1.3733888779,
				"y": 0.8619313566,
				"z": -0.3842036158,
				"element": "C" 
			},
			{
				"x": -2.6892006296,
				"y": 1.9808412254,
				"z": -1.4312237582,
				"element": "Br" 
			},
			{
				"x": -1.5714175599,
				"y": -0.6075007707,
				"z": -0.7691571025,
				"element": "C" 
			},
			{
				"x": 0.0437006845,
				"y": 1.3276830491,
				"z": -0.7382654109,
				"element": "C" 
			},
			{
				"x": 0.8034861752,
				"y": 0.6627978263,
				"z": 1.5680617329,
				"element": "C" 
			},
			{
				"x": 2.3282593808,
				"y": 3.0643192354,
				"z": -0.5855864115,
				"element": "H" 
			},
			{
				"x": 2.8721478265,
				"y": 2.5933853965,
				"z": 1.0299274957,
				"element": "H" 
			},
			{
				"x": 3.9816435886,
				"y": 2.5075727886,
				"z": -0.3368201785,
				"element": "H" 
			},
			{
				"x": 2.6758121891,
				"y": 0.6872315246,
				"z": -1.3860432688,
				"element": "H" 
			},
			{
				"x": 3.2155836783,
				"y": 0.2219628086,
				"z": 0.2159637108,
				"element": "H" 
			},
			{
				"x": 1.0726091278,
				"y": -1.1534389648,
				"z": -1.376409627,
				"element": "H" 
			},
			{
				"x": 1.6019067959,
				"y": -1.6187838034,
				"z": 0.2390303726,
				"element": "H" 
			},
			{
				"x": -0.6851863052,
				"y": -2.5128023276,
				"z": -0.2419265264,
				"element": "H" 
			},
			{
				"x": -1.8253254938,
				"y": -1.6092556269,
				"z": 1.800517945,
				"element": "H" 
			},
			{
				"x": -0.1140723022,
				"y": -1.8943817076,
				"z": 2.1200227705,
				"element": "H" 
			},
			{
				"x": -0.8159679983,
				"y": 0.3548317013,
				"z": 2.9814615929,
				"element": "H" 
			},
			{
				"x": -1.541748909,
				"y": 2.1247049335,
				"z": 1.3694551499,
				"element": "H" 
			},
			{
				"x": -2.6712242497,
				"y": 0.7680822004,
				"z": 1.3496166801,
				"element": "H" 
			},
			{
				"x": -2.5978591321,
				"y": -0.9193504948,
				"z": -0.5475492324,
				"element": "H" 
			},
			{
				"x": -1.4148930752,
				"y": -0.7378042673,
				"z": -1.8455188759,
				"element": "H" 
			},
			{
				"x": 0.1457842714,
				"y": 2.3914970091,
				"z": -0.5016626858,
				"element": "H" 
			},
			{
				"x": 0.2155465666,
				"y": 1.2166457891,
				"z": -1.8154162284,
				"element": "H" 
			},
			{
				"x": 0.9355817631,
				"y": 1.7114133972,
				"z": 1.8608334516,
				"element": "H" 
			},
			{
				"x": 1.5301071413,
				"y": 0.077134365,
				"z": 2.1474021374,
				"element": "H" 
			}
		],
		 "valence_orbital": [ 
			{
				"type": "occ",
				"energy": -0.28912,
				"method": "rhf"
			},
			{
				"type": "occ",
				"energy": -0.28805,
				"method": "rhf"
			},
			{
				"type": "occ",
				"energy": -0.28591,
				"method": "rhf"
			},
			{
				"type": "occ",
				"energy": -0.25892,
				"method": "rhf"
			},
			{
				"type": "occ",
				"energy": -0.25852,
				"method": "rhf"
			},
			{
				"type": "unocc",
				"energy": 0.00288,
				"method": "rhf"
			},
			{
				"type": "unocc",
				"energy": 0.07057,
				"method": "rhf"
			},
			{
				"type": "unocc",
				"energy": 0.10037,
				"method": "rhf"
			},
			{
				"type": "unocc",
				"energy": 0.10901,
				"method": "rhf"
			},
			{
				"type": "unocc",
				"energy": 0.11611,
				"method": "rhf"
			}
		],
		"cosmo_sigma_profile": { 
			"-0.025": 0.0,
			"-0.024": 0.0,
			"-0.023": 0.0,
			"-0.022": 0.0,
			"-0.021": 0.0,
			"-0.02": 0.0,
			"-0.019": 0.0,
			"-0.018": 0.0,
			"-0.017": 0.0,
			"-0.016": 0.0,
			"-0.015": 0.0,
			"-0.014": 0.0,
			"-0.013": 0.0,
			"-0.012": 0.0,
			"-0.011": 0.0,
			"-0.01": 0.0,
			"-0.009": 0.0,
			"-0.008": 0.0,
			"-0.007": 0.0,
			"-0.006": 0.0,
			"-0.005": 0.0,
			"-0.004": 1.05802047185,
			"-0.003": 27.3228948685,
			"-0.002": 53.4709496042,
			"-0.001": 46.0807215949,
			"0.0": 36.6825390016,
			"0.001": 28.2359553287,
			"0.002": 9.86102271819,
			"0.003": 5.5782934804,
			"0.004": 5.19850936083,
			"0.005": 5.42619917782,
			"0.006": 7.3017177223,
			"0.007": 10.6765758282,
			"0.008": 1.19459901942,
			"0.009": 0.0,
			"0.01": 0.0,
			"0.011": 0.0,
			"0.012": 0.0,
			"0.013": 0.0,
			"0.014": 0.0,
			"0.015": 0.0,
			"0.016": 0.0,
			"0.017": 0.0,
			"0.018": 0.0,
			"0.019": 0.0,
			"0.02": 0.0,
			"0.021": 0.0,
			"0.022": 0.0,
			"0.023": 0.0,
			"0.024": 0.0,
			"0.025": 0.0
		}
	}
}
