{
	 "smiles": "OCC(F)(F)C(F)(F)C(F)(F)C(F)(F)C(F)(F)C(F)(F)C(F)(F)C(F)(F)C(F)(F)F", 
	 "Tm": 362.15, 
	 "num_atms": 33, 
	 "gaussian": { 
		 "optdone": 1, 
		 "sigma_profile": "yes", 
		 "theory": "DFT", 
		 "functional": "B3LYP", 
		 "basiset": "6-31G**", 
		 "properties": { 
			 "R2extent": 11782.8637, 
			 "electric_dipole_moment_norm": 1.78190628541, 
			 "electric_quadrupole_moment_norm": 11.6380034937, 
			 "total_energy": -2354.97044109, 
			 "HOMO_LUMO_gap": 0.30585, 
			 "cosmo_polarized_energy": -6.8, 
			 "cosmo_cavitation_energy": 41.88, 
			 "cosmo_dispersion_energy": -27.84, 
			 "cosmo_repulsion_energy": 1.76, 
			 "cosmo_total_nonelectrostatic_energy": 15.8, 
			 "SMD_solvation_energy": 12.63 
		},
		"coords": [
			{
				"x": -4.2520608609,
				"y": 0.0986513041,
				"z": 4.0889302943,
				"element": "O" 
			},
			{
				"x": -3.0127702548,
				"y": 0.2134319781,
				"z": 4.736044075,
				"element": "C" 
			},
			{
				"x": -1.9449338789,
				"y": 0.8959513696,
				"z": 3.8747222327,
				"element": "C" 
			},
			{
				"x": -0.9046718339,
				"y": 1.2437056615,
				"z": 4.6786734293,
				"element": "F" 
			},
			{
				"x": -2.478520471,
				"y": 2.0397591712,
				"z": 3.3401935667,
				"element": "F" 
			},
			{
				"x": -1.3824962966,
				"y": 0.0332528873,
				"z": 2.7164314448,
				"element": "C" 
			},
			{
				"x": -2.4163632969,
				"y": -0.5126615281,
				"z": 2.0351179908,
				"element": "F" 
			},
			{
				"x": -0.6565409858,
				"y": -0.9668993007,
				"z": 3.2803012344,
				"element": "F" 
			},
			{
				"x": -0.4930202083,
				"y": 0.8048066445,
				"z": 1.6989806296,
				"element": "C" 
			},
			{
				"x": -1.2910419548,
				"y": 1.5661025601,
				"z": 0.91646545,
				"element": "F" 
			},
			{
				"x": 0.3429404917,
				"y": 1.6197262298,
				"z": 2.387452178,
				"element": "F" 
			},
			{
				"x": 0.4399920074,
				"y": -0.037965299,
				"z": 0.7729298372,
				"element": "C" 
			},
			{
				"x": 1.1002619962,
				"y": 0.8536000173,
				"z": -0.0039440671,
				"element": "F" 
			},
			{
				"x": 1.3420125812,
				"y": -0.6671697703,
				"z": 1.5603837695,
				"element": "F" 
			},
			{
				"x": -0.1510633124,
				"y": -1.1401098921,
				"z": -0.1548736549,
				"element": "C" 
			},
			{
				"x": -0.7221656992,
				"y": -2.0762486422,
				"z": 0.6397027664,
				"element": "F" 
			},
			{
				"x": 0.9071662868,
				"y": -1.7036530285,
				"z": -0.7888944326,
				"element": "F" 
			},
			{
				"x": -1.2064205351,
				"y": -0.7963396845,
				"z": -1.2472857989,
				"element": "C" 
			},
			{
				"x": -2.3128438131,
				"y": -0.3131554137,
				"z": -0.6375296471,
				"element": "F" 
			},
			{
				"x": -1.5214145901,
				"y": -1.9732154929,
				"z": -1.8356525538,
				"element": "F" 
			},
			{
				"x": -0.8629291582,
				"y": 0.218100035,
				"z": -2.3823943926,
				"element": "C" 
			},
			{
				"x": -0.713128911,
				"y": 1.44404686,
				"z": -1.8361304548,
				"element": "F" 
			},
			{
				"x": -1.956008295,
				"y": 0.2328740135,
				"z": -3.1870705847,
				"element": "F" 
			},
			{
				"x": 0.3735059926,
				"y": -0.0866308666,
				"z": -3.2720990246,
				"element": "C" 
			},
			{
				"x": 0.3935325508,
				"y": -1.4003375432,
				"z": -3.5901618734,
				"element": "F" 
			},
			{
				"x": 1.4940814525,
				"y": 0.224424016,
				"z": -2.5847564297,
				"element": "F" 
			},
			{
				"x": 0.4024096255,
				"y": 0.7164683089,
				"z": -4.6017180665,
				"element": "C" 
			},
			{
				"x": 0.1857540427,
				"y": 2.0177884967,
				"z": -4.3681588288,
				"element": "F" 
			},
			{
				"x": -0.525135881,
				"y": 0.2608794664,
				"z": -5.4486814764,
				"element": "F" 
			},
			{
				"x": 1.6079777291,
				"y": 0.5724084332,
				"z": -5.1641779772,
				"element": "F" 
			},
			{
				"x": -4.5246703205,
				"y": 0.9853082474,
				"z": 3.8163925893,
				"element": "H" 
			},
			{
				"x": -2.6740913398,
				"y": -0.7930546384,
				"z": 4.9939567248,
				"element": "H" 
			},
			{
				"x": -3.0594428594,
				"y": 0.8063553996,
				"z": 5.6623510502,
				"element": "H" 
			}
		],
		 "valence_orbital": [ 
			{
				"type": "occ",
				"energy": -0.37774,
				"method": "rhf"
			},
			{
				"type": "occ",
				"energy": -0.36519,
				"method": "rhf"
			},
			{
				"type": "occ",
				"energy": -0.35536,
				"method": "rhf"
			},
			{
				"type": "occ",
				"energy": -0.346,
				"method": "rhf"
			},
			{
				"type": "occ",
				"energy": -0.29661,
				"method": "rhf"
			},
			{
				"type": "unocc",
				"energy": 0.00924,
				"method": "rhf"
			},
			{
				"type": "unocc",
				"energy": 0.01011,
				"method": "rhf"
			},
			{
				"type": "unocc",
				"energy": 0.03282,
				"method": "rhf"
			},
			{
				"type": "unocc",
				"energy": 0.03471,
				"method": "rhf"
			},
			{
				"type": "unocc",
				"energy": 0.05426,
				"method": "rhf"
			}
		],
		"cosmo_sigma_profile": { 
			"-0.025": 0.0,
			"-0.024": 0.0,
			"-0.023": 0.0,
			"-0.022": 0.0,
			"-0.021": 0.0,
			"-0.02": 0.0,
			"-0.019": 0.0,
			"-0.018": 0.0,
			"-0.017": 0.0,
			"-0.016": 0.478131687381,
			"-0.015": 0.676476644063,
			"-0.014": 0.854070629152,
			"-0.013": 1.07501394723,
			"-0.012": 0.848220465294,
			"-0.011": 1.05913234545,
			"-0.01": 0.759632704559,
			"-0.009": 0.978628436241,
			"-0.008": 3.15610222713,
			"-0.007": 6.51393076459,
			"-0.006": 5.67674996699,
			"-0.005": 4.86494854159,
			"-0.004": 5.99255200733,
			"-0.003": 8.87272418763,
			"-0.002": 15.7532697485,
			"-0.001": 29.9637428124,
			"0.0": 70.4887755918,
			"0.001": 125.149504653,
			"0.002": 28.8469583532,
			"0.003": 9.47341634259,
			"0.004": 1.64665397839,
			"0.005": 1.53301262236,
			"0.006": 0.472814417711,
			"0.007": 1.59025770402,
			"0.008": 1.7085299411,
			"0.009": 1.51372650019,
			"0.01": 1.2932427106,
			"0.011": 1.03521524464,
			"0.012": 2.17374558824,
			"0.013": 0.645665214581,
			"0.014": 0.0,
			"0.015": 0.0,
			"0.016": 0.0,
			"0.017": 0.0,
			"0.018": 0.0,
			"0.019": 0.0,
			"0.02": 0.0,
			"0.021": 0.0,
			"0.022": 0.0,
			"0.023": 0.0,
			"0.024": 0.0,
			"0.025": 0.0
		}
	}
}
