{
	 "smiles": "ClC1=NC(Cl)=C(C=N1)S(Cl)(=O)=O", 
	 "Tm": 370.15, 
	 "num_atms": 13, 
	 "gaussian": { 
		 "optdone": 1, 
		 "sigma_profile": "yes", 
		 "theory": "DFT", 
		 "functional": "B3LYP", 
		 "basiset": "6-31G**", 
		 "properties": { 
			 "R2extent": 4023.7709, 
			 "electric_dipole_moment_norm": 1.53282584138, 
			 "electric_quadrupole_moment_norm": 5.11644055374, 
			 "total_energy": -2191.64313531, 
			 "HOMO_LUMO_gap": 0.19655, 
			 "cosmo_polarized_energy": -8.69, 
			 "cosmo_cavitation_energy": 25.45, 
			 "cosmo_dispersion_energy": -19.72, 
			 "cosmo_repulsion_energy": 1.53, 
			 "cosmo_total_nonelectrostatic_energy": 7.26, 
			 "SMD_solvation_energy": -0.17 
		},
		"coords": [
			{
				"x": -1.5468590367,
				"y": -4.8081317285,
				"z": -1.5369363145,
				"element": "Cl" 
			},
			{
				"x": -0.8950597252,
				"y": -3.2119952303,
				"z": -1.3476075162,
				"element": "C" 
			},
			{
				"x": -0.7607474461,
				"y": -2.7834986519,
				"z": -0.0940444594,
				"element": "N" 
			},
			{
				"x": -0.2632515044,
				"y": -1.5686550321,
				"z": 0.0730398111,
				"element": "C" 
			},
			{
				"x": -0.1147878353,
				"y": -1.0179609285,
				"z": 1.7051895992,
				"element": "Cl" 
			},
			{
				"x": 0.1065303508,
				"y": -0.7762129523,
				"z": -1.0282858166,
				"element": "C" 
			},
			{
				"x": -0.0888904978,
				"y": -1.3363687117,
				"z": -2.2945379213,
				"element": "C" 
			},
			{
				"x": -0.5915110123,
				"y": -2.5605993819,
				"z": -2.4661818014,
				"element": "N" 
			},
			{
				"x": 0.8540917363,
				"y": 0.8535330144,
				"z": -0.9563255921,
				"element": "S" 
			},
			{
				"x": -0.773231023,
				"y": 2.0233430999,
				"z": -0.2932363766,
				"element": "Cl" 
			},
			{
				"x": 1.8721614962,
				"y": 0.8933173177,
				"z": 0.0795792337,
				"element": "O" 
			},
			{
				"x": 1.1259294361,
				"y": 1.2566815581,
				"z": -2.3292384132,
				"element": "O" 
			},
			{
				"x": 0.1735250612,
				"y": -0.7736523729,
				"z": -3.1855144325,
				"element": "H" 
			}
		],
		 "valence_orbital": [ 
			{
				"type": "occ",
				"energy": -0.34775,
				"method": "rhf"
			},
			{
				"type": "occ",
				"energy": -0.34461,
				"method": "rhf"
			},
			{
				"type": "occ",
				"energy": -0.33489,
				"method": "rhf"
			},
			{
				"type": "occ",
				"energy": -0.31735,
				"method": "rhf"
			},
			{
				"type": "occ",
				"energy": -0.31253,
				"method": "rhf"
			},
			{
				"type": "unocc",
				"energy": -0.11598,
				"method": "rhf"
			},
			{
				"type": "unocc",
				"energy": -0.09731,
				"method": "rhf"
			},
			{
				"type": "unocc",
				"energy": -0.08589,
				"method": "rhf"
			},
			{
				"type": "unocc",
				"energy": -0.01408,
				"method": "rhf"
			},
			{
				"type": "unocc",
				"energy": 0.01183,
				"method": "rhf"
			}
		],
		"cosmo_sigma_profile": { 
			"-0.025": 0.0,
			"-0.024": 0.0,
			"-0.023": 0.0,
			"-0.022": 0.0,
			"-0.021": 0.0,
			"-0.02": 0.0,
			"-0.019": 0.0,
			"-0.018": 0.0,
			"-0.017": 0.0,
			"-0.016": 0.0,
			"-0.015": 0.0,
			"-0.014": 0.0,
			"-0.013": 0.0,
			"-0.012": 0.0838723687755,
			"-0.011": 0.826257560457,
			"-0.01": 2.80539402018,
			"-0.009": 4.80396895833,
			"-0.008": 5.44779264755,
			"-0.007": 8.34128272689,
			"-0.006": 7.88215912969,
			"-0.005": 10.2435363084,
			"-0.004": 10.968090973,
			"-0.003": 9.83071372352,
			"-0.002": 11.8155253319,
			"-0.001": 15.4655208919,
			"0.0": 16.2170782553,
			"0.001": 26.7694599467,
			"0.002": 27.1007096314,
			"0.003": 11.7275504289,
			"0.004": 7.06370540667,
			"0.005": 6.38373853064,
			"0.006": 8.66779246207,
			"0.007": 11.6460844947,
			"0.008": 6.1456330789,
			"0.009": 1.6541634271,
			"0.01": 1.33875384934,
			"0.011": 0.539045820377,
			"0.012": 0.051023351398,
			"0.013": 0.0,
			"0.014": 0.0,
			"0.015": 0.0,
			"0.016": 0.0,
			"0.017": 0.0,
			"0.018": 0.0,
			"0.019": 0.0,
			"0.02": 0.0,
			"0.021": 0.0,
			"0.022": 0.0,
			"0.023": 0.0,
			"0.024": 0.0,
			"0.025": 0.0
		}
	}
}
