{
	 "smiles": "OC1CC2=CC=CC=C12", 
	 "Tm": 331.65, 
	 "num_atms": 17, 
	 "gaussian": { 
		 "optdone": 1, 
		 "sigma_profile": "yes", 
		 "theory": "DFT", 
		 "functional": "B3LYP", 
		 "basiset": "6-31G**", 
		 "properties": { 
			 "R2extent": 1572.0384, 
			 "electric_dipole_moment_norm": 1.33908878346, 
			 "electric_quadrupole_moment_norm": 8.84046167064, 
			 "total_energy": -384.845677608, 
			 "HOMO_LUMO_gap": 0.23034, 
			 "cosmo_polarized_energy": -7.62, 
			 "cosmo_cavitation_energy": 20.38, 
			 "cosmo_dispersion_energy": -15.35, 
			 "cosmo_repulsion_energy": 1.28, 
			 "cosmo_total_nonelectrostatic_energy": 6.31, 
			 "SMD_solvation_energy": 3.13 
		},
		"coords": [
			{
				"x": 3.4315587788,
				"y": 0.5994950659,
				"z": -1.7916331879,
				"element": "O" 
			},
			{
				"x": 2.524359052,
				"y": -0.4856158603,
				"z": -1.7716407383,
				"element": "C" 
			},
			{
				"x": 1.2706166778,
				"y": -0.2189105966,
				"z": -2.6826754256,
				"element": "C" 
			},
			{
				"x": 0.431384466,
				"y": -0.428488365,
				"z": -1.4303421087,
				"element": "C" 
			},
			{
				"x": -0.8684118831,
				"y": -0.4953334028,
				"z": -0.9472250176,
				"element": "C" 
			},
			{
				"x": -1.0010701259,
				"y": -0.7237765013,
				"z": 0.4317608526,
				"element": "C" 
			},
			{
				"x": 0.1154335932,
				"y": -0.8854604239,
				"z": 1.2658585381,
				"element": "C" 
			},
			{
				"x": 1.4240507811,
				"y": -0.8349375072,
				"z": 0.7605523141,
				"element": "C" 
			},
			{
				"x": 1.5404449779,
				"y": -0.6033700595,
				"z": -0.6034872213,
				"element": "C" 
			},
			{
				"x": 4.1116637598,
				"y": 0.4337198221,
				"z": -1.1261370322,
				"element": "H" 
			},
			{
				"x": 3.0328482078,
				"y": -1.4328478848,
				"z": -2.0099598047,
				"element": "H" 
			},
			{
				"x": 1.2707260021,
				"y": 0.802439272,
				"z": -3.0752816129,
				"element": "H" 
			},
			{
				"x": 1.1232461513,
				"y": -0.9228255212,
				"z": -3.5086199406,
				"element": "H" 
			},
			{
				"x": -1.7442640357,
				"y": -0.37221123,
				"z": -1.578431436,
				"element": "H" 
			},
			{
				"x": -1.9942769284,
				"y": -0.7760292897,
				"z": 0.8698724935,
				"element": "H" 
			},
			{
				"x": -0.0419634828,
				"y": -1.0590522218,
				"z": 2.3269776518,
				"element": "H" 
			},
			{
				"x": 2.2787540082,
				"y": -0.973095296,
				"z": 1.4180116758,
				"element": "H" 
			}
		],
		 "valence_orbital": [ 
			{
				"type": "occ",
				"energy": -0.32502,
				"method": "rhf"
			},
			{
				"type": "occ",
				"energy": -0.31093,
				"method": "rhf"
			},
			{
				"type": "occ",
				"energy": -0.2627,
				"method": "rhf"
			},
			{
				"type": "occ",
				"energy": -0.24817,
				"method": "rhf"
			},
			{
				"type": "occ",
				"energy": -0.23707,
				"method": "rhf"
			},
			{
				"type": "unocc",
				"energy": -0.00673,
				"method": "rhf"
			},
			{
				"type": "unocc",
				"energy": 0.00551,
				"method": "rhf"
			},
			{
				"type": "unocc",
				"energy": 0.0827,
				"method": "rhf"
			},
			{
				"type": "unocc",
				"energy": 0.10038,
				"method": "rhf"
			},
			{
				"type": "unocc",
				"energy": 0.13185,
				"method": "rhf"
			}
		],
		"cosmo_sigma_profile": { 
			"-0.025": 0.0,
			"-0.024": 0.0,
			"-0.023": 0.0,
			"-0.022": 0.0,
			"-0.021": 0.0,
			"-0.02": 0.0,
			"-0.019": 0.0,
			"-0.018": 0.0,
			"-0.017": 0.0,
			"-0.016": 0.456364406133,
			"-0.015": 1.37890498159,
			"-0.014": 0.753584338353,
			"-0.013": 0.654997251832,
			"-0.012": 1.24542509217,
			"-0.011": 0.95801182102,
			"-0.01": 0.990371096776,
			"-0.009": 0.574915857435,
			"-0.008": 0.28045995976,
			"-0.007": 1.22677710414,
			"-0.006": 4.30674702344,
			"-0.005": 11.4377036096,
			"-0.004": 15.7247652653,
			"-0.003": 16.5500721305,
			"-0.002": 12.1157124455,
			"-0.001": 12.3560154226,
			"0.0": 13.6576408317,
			"0.001": 8.77474809393,
			"0.002": 8.3852675953,
			"0.003": 8.12401872063,
			"0.004": 8.53860660606,
			"0.005": 10.0592350866,
			"0.006": 10.2170298119,
			"0.007": 2.58541414794,
			"0.008": 1.21380346027,
			"0.009": 1.40177759479,
			"0.01": 1.43869254284,
			"0.011": 1.21813438913,
			"0.012": 1.96313851429,
			"0.013": 1.62998590803,
			"0.014": 1.51870438944,
			"0.015": 0.0554688330132,
			"0.016": 0.0,
			"0.017": 0.0,
			"0.018": 0.0,
			"0.019": 0.0,
			"0.02": 0.0,
			"0.021": 0.0,
			"0.022": 0.0,
			"0.023": 0.0,
			"0.024": 0.0,
			"0.025": 0.0
		}
	}
}
