{
	 "smiles": "ON=C1CCCC2=C1C1=C(CCCC1)N=N2", 
	 "Tm": 543.15, 
	 "num_atms": 31, 
	 "gaussian": { 
		 "optdone": 1, 
		 "sigma_profile": "yes", 
		 "theory": "DFT", 
		 "functional": "B3LYP", 
		 "basiset": "6-31G**", 
		 "properties": { 
			 "R2extent": 3831.544, 
			 "electric_dipole_moment_norm": 4.25264105469, 
			 "electric_quadrupole_moment_norm": 8.14386817857, 
			 "total_energy": -705.731783454, 
			 "HOMO_LUMO_gap": 0.15845, 
			 "cosmo_polarized_energy": -13.39, 
			 "cosmo_cavitation_energy": 31.67, 
			 "cosmo_dispersion_energy": -24.0, 
			 "cosmo_repulsion_energy": 1.89, 
			 "cosmo_total_nonelectrostatic_energy": 9.56, 
			 "SMD_solvation_energy": 2.46 
		},
		"coords": [
			{
				"x": 1.8929586855,
				"y": -3.3214969811,
				"z": -1.9321634203,
				"element": "O" 
			},
			{
				"x": 1.7441447609,
				"y": -2.0401846236,
				"z": -1.3837205661,
				"element": "N" 
			},
			{
				"x": 0.5817698296,
				"y": -1.8960844761,
				"z": -0.8408736069,
				"element": "C" 
			},
			{
				"x": -0.4329068203,
				"y": -3.0234061353,
				"z": -0.8138489807,
				"element": "C" 
			},
			{
				"x": -1.7846519441,
				"y": -2.6190317366,
				"z": -0.2210554395,
				"element": "C" 
			},
			{
				"x": -1.5707843922,
				"y": -1.8250253484,
				"z": 1.070133677,
				"element": "C" 
			},
			{
				"x": -0.7550129277,
				"y": -0.5875562388,
				"z": 0.7861236949,
				"element": "C" 
			},
			{
				"x": 0.2813581267,
				"y": -0.6032422416,
				"z": -0.1786756392,
				"element": "C" 
			},
			{
				"x": 0.9429711353,
				"y": 0.615421683,
				"z": -0.4241805083,
				"element": "C" 
			},
			{
				"x": 0.5314467366,
				"y": 1.7136661833,
				"z": 0.3630830494,
				"element": "C" 
			},
			{
				"x": 1.1464743961,
				"y": 3.0930164385,
				"z": 0.2226154798,
				"element": "C" 
			},
			{
				"x": 2.485359916,
				"y": 3.086378338,
				"z": -0.5190184495,
				"element": "C" 
			},
			{
				"x": 2.3580781914,
				"y": 2.2470238367,
				"z": -1.7925176397,
				"element": "C" 
			},
			{
				"x": 2.0434932221,
				"y": 0.7844787822,
				"z": -1.4523783153,
				"element": "C" 
			},
			{
				"x": -0.4389967207,
				"y": 1.6407125782,
				"z": 1.2827690114,
				"element": "N" 
			},
			{
				"x": -1.092224258,
				"y": 0.5018944514,
				"z": 1.4806195591,
				"element": "N" 
			},
			{
				"x": 2.7923314596,
				"y": -3.2888358977,
				"z": -2.284600542,
				"element": "H" 
			},
			{
				"x": 0.0059864951,
				"y": -3.8459404958,
				"z": -0.2323342705,
				"element": "H" 
			},
			{
				"x": -0.5368089905,
				"y": -3.4156656799,
				"z": -1.8312388781,
				"element": "H" 
			},
			{
				"x": -2.3406902778,
				"y": -2.0011227548,
				"z": -0.9370714068,
				"element": "H" 
			},
			{
				"x": -2.3891942296,
				"y": -3.5127019856,
				"z": -0.0352521423,
				"element": "H" 
			},
			{
				"x": -2.5110376495,
				"y": -1.5127618892,
				"z": 1.531245074,
				"element": "H" 
			},
			{
				"x": -1.0485787927,
				"y": -2.4548867761,
				"z": 1.8055283977,
				"element": "H" 
			},
			{
				"x": 1.2318043978,
				"y": 3.5287117399,
				"z": 1.2228717312,
				"element": "H" 
			},
			{
				"x": 0.4325152784,
				"y": 3.7280251989,
				"z": -0.3206655641,
				"element": "H" 
			},
			{
				"x": 3.2688583349,
				"y": 2.6605372312,
				"z": 0.1224798813,
				"element": "H" 
			},
			{
				"x": 2.7905056801,
				"y": 4.1125108323,
				"z": -0.7511994532,
				"element": "H" 
			},
			{
				"x": 3.2779735616,
				"y": 2.2870699806,
				"z": -2.3863201952,
				"element": "H" 
			},
			{
				"x": 1.5599875611,
				"y": 2.6643565939,
				"z": -2.4215392631,
				"element": "H" 
			},
			{
				"x": 1.7862891436,
				"y": 0.220394912,
				"z": -2.3541188028,
				"element": "H" 
			},
			{
				"x": 2.9457800907,
				"y": 0.2902444804,
				"z": -1.0706964722,
				"element": "H" 
			}
		],
		 "valence_orbital": [ 
			{
				"type": "occ",
				"energy": -0.29001,
				"method": "rhf"
			},
			{
				"type": "occ",
				"energy": -0.27448,
				"method": "rhf"
			},
			{
				"type": "occ",
				"energy": -0.25863,
				"method": "rhf"
			},
			{
				"type": "occ",
				"energy": -0.24314,
				"method": "rhf"
			},
			{
				"type": "occ",
				"energy": -0.21808,
				"method": "rhf"
			},
			{
				"type": "unocc",
				"energy": -0.05963,
				"method": "rhf"
			},
			{
				"type": "unocc",
				"energy": -0.01435,
				"method": "rhf"
			},
			{
				"type": "unocc",
				"energy": 0.02553,
				"method": "rhf"
			},
			{
				"type": "unocc",
				"energy": 0.06573,
				"method": "rhf"
			},
			{
				"type": "unocc",
				"energy": 0.09172,
				"method": "rhf"
			}
		],
		"cosmo_sigma_profile": { 
			"-0.025": 0.0,
			"-0.024": 0.0,
			"-0.023": 0.0,
			"-0.022": 0.0,
			"-0.021": 0.0,
			"-0.02": 0.0,
			"-0.019": 0.0,
			"-0.018": 0.370165418151,
			"-0.017": 0.892231162875,
			"-0.016": 1.25966603675,
			"-0.015": 0.829122877817,
			"-0.014": 0.609881940482,
			"-0.013": 0.763242069547,
			"-0.012": 0.60806017039,
			"-0.011": 0.63354193421,
			"-0.01": 0.508288459343,
			"-0.009": 0.469253034226,
			"-0.008": 0.786639450108,
			"-0.007": 1.20986319325,
			"-0.006": 0.180425115734,
			"-0.005": 5.30887229758,
			"-0.004": 18.5456732057,
			"-0.003": 38.275089861,
			"-0.002": 38.0407173009,
			"-0.001": 37.8374194495,
			"0.0": 27.7220364824,
			"0.001": 12.3451708523,
			"0.002": 7.07587031014,
			"0.003": 6.98515973664,
			"0.004": 5.60063322141,
			"0.005": 6.6982967598,
			"0.006": 6.36401888085,
			"0.007": 4.59209576696,
			"0.008": 4.34732548337,
			"0.009": 3.71840472898,
			"0.01": 2.26966104986,
			"0.011": 1.60029259408,
			"0.012": 1.40027581684,
			"0.013": 1.90596644832,
			"0.014": 2.89426549038,
			"0.015": 2.16260725115,
			"0.016": 1.91635480795,
			"0.017": 1.03278789702,
			"0.018": 0.0,
			"0.019": 0.0,
			"0.02": 0.0,
			"0.021": 0.0,
			"0.022": 0.0,
			"0.023": 0.0,
			"0.024": 0.0,
			"0.025": 0.0
		}
	}
}
