{
	 "smiles": "BrC1=CC=C(C=C1)C1C(=O)C2=CC=CC=C2C1=O", 
	 "Tm": 411.15, 
	 "num_atms": 27, 
	 "gaussian": { 
		 "optdone": 1, 
		 "sigma_profile": "yes", 
		 "theory": "DFT", 
		 "functional": "B3LYP", 
		 "basiset": "6-31G**", 
		 "properties": { 
			 "R2extent": 9512.3871, 
			 "electric_dipole_moment_norm": 5.00214584853, 
			 "electric_quadrupole_moment_norm": 6.6399749879, 
			 "total_energy": -3298.87241234, 
			 "HOMO_LUMO_gap": 0.14666, 
			 "cosmo_polarized_energy": -11.8, 
			 "cosmo_cavitation_energy": 34.34, 
			 "cosmo_dispersion_energy": -25.18, 
			 "cosmo_repulsion_energy": 1.91, 
			 "cosmo_total_nonelectrostatic_energy": 11.06, 
			 "SMD_solvation_energy": 5.35 
		},
		"coords": [
			{
				"x": -3.6028401535,
				"y": 3.4564920027,
				"z": 4.121901026,
				"element": "Br" 
			},
			{
				"x": -2.5635403543,
				"y": 2.1090691664,
				"z": 3.2485122917,
				"element": "C" 
			},
			{
				"x": -3.1948634461,
				"y": 0.9734662315,
				"z": 2.7446642776,
				"element": "C" 
			},
			{
				"x": -2.4308500766,
				"y": -0.0056830816,
				"z": 2.1125014484,
				"element": "C" 
			},
			{
				"x": -1.0419884827,
				"y": 0.1387515845,
				"z": 1.9730826182,
				"element": "C" 
			},
			{
				"x": -0.4311795344,
				"y": 1.2864115972,
				"z": 2.4922334474,
				"element": "C" 
			},
			{
				"x": -1.1867878649,
				"y": 2.2728529927,
				"z": 3.1292799937,
				"element": "C" 
			},
			{
				"x": -0.2587123566,
				"y": -0.9604120021,
				"z": 1.264651424,
				"element": "C" 
			},
			{
				"x": 1.2569536692,
				"y": -0.7430356278,
				"z": 1.0793514511,
				"element": "C" 
			},
			{
				"x": 2.0563854576,
				"y": -0.4435157016,
				"z": 1.9457818625,
				"element": "O" 
			},
			{
				"x": 1.5831771719,
				"y": -0.9878633285,
				"z": -0.3510249161,
				"element": "C" 
			},
			{
				"x": 2.8302157654,
				"y": -0.947201763,
				"z": -0.9759834774,
				"element": "C" 
			},
			{
				"x": 2.8811034704,
				"y": -1.2123734585,
				"z": -2.3442781588,
				"element": "C" 
			},
			{
				"x": 1.7129786351,
				"y": -1.5134017436,
				"z": -3.0682884393,
				"element": "C" 
			},
			{
				"x": 0.4687879961,
				"y": -1.5564428006,
				"z": -2.4394969028,
				"element": "C" 
			},
			{
				"x": 0.4220420624,
				"y": -1.287910559,
				"z": -1.0708896121,
				"element": "C" 
			},
			{
				"x": -0.7594846872,
				"y": -1.2758040504,
				"z": -0.1692905702,
				"element": "C" 
			},
			{
				"x": -1.907956085,
				"y": -1.4988366465,
				"z": -0.4962834107,
				"element": "O" 
			},
			{
				"x": -4.2676910601,
				"y": 0.8539725286,
				"z": 2.844262924,
				"element": "H" 
			},
			{
				"x": -2.9217509823,
				"y": -0.8814600006,
				"z": 1.7030018054,
				"element": "H" 
			},
			{
				"x": 0.6427100539,
				"y": 1.4117288178,
				"z": 2.4251424042,
				"element": "H" 
			},
			{
				"x": -0.7045280819,
				"y": 3.1570201732,
				"z": 3.530357904,
				"element": "H" 
			},
			{
				"x": -0.3727501653,
				"y": -1.8915363575,
				"z": 1.8414299444,
				"element": "H" 
			},
			{
				"x": 3.7226162969,
				"y": -0.7138610833,
				"z": -0.404039446,
				"element": "H" 
			},
			{
				"x": 3.8347412661,
				"y": -1.1870825006,
				"z": -2.8634000492,
				"element": "H" 
			},
			{
				"x": 1.7862598793,
				"y": -1.7148350614,
				"z": -4.1329952631,
				"element": "H" 
			},
			{
				"x": -0.4407483934,
				"y": -1.7882093282,
				"z": -2.984384577,
				"element": "H" 
			}
		],
		 "valence_orbital": [ 
			{
				"type": "occ",
				"energy": -0.28286,
				"method": "rhf"
			},
			{
				"type": "occ",
				"energy": -0.28086,
				"method": "rhf"
			},
			{
				"type": "occ",
				"energy": -0.25897,
				"method": "rhf"
			},
			{
				"type": "occ",
				"energy": -0.25587,
				"method": "rhf"
			},
			{
				"type": "occ",
				"energy": -0.23546,
				"method": "rhf"
			},
			{
				"type": "unocc",
				"energy": -0.0888,
				"method": "rhf"
			},
			{
				"type": "unocc",
				"energy": -0.06994,
				"method": "rhf"
			},
			{
				"type": "unocc",
				"energy": -0.01442,
				"method": "rhf"
			},
			{
				"type": "unocc",
				"energy": -0.01033,
				"method": "rhf"
			},
			{
				"type": "unocc",
				"energy": 0.01164,
				"method": "rhf"
			}
		],
		"cosmo_sigma_profile": { 
			"-0.025": 0.0,
			"-0.024": 0.0,
			"-0.023": 0.0,
			"-0.022": 0.0,
			"-0.021": 0.0,
			"-0.02": 0.0,
			"-0.019": 0.0,
			"-0.018": 0.0,
			"-0.017": 0.0,
			"-0.016": 0.0,
			"-0.015": 0.0,
			"-0.014": 0.0,
			"-0.013": 0.0,
			"-0.012": 0.0,
			"-0.011": 0.0,
			"-0.01": 0.962145001769,
			"-0.009": 3.48811018825,
			"-0.008": 4.65940174989,
			"-0.007": 14.8321390059,
			"-0.006": 16.1783187862,
			"-0.005": 16.6260034892,
			"-0.004": 17.8655185809,
			"-0.003": 16.2727492531,
			"-0.002": 16.0460922053,
			"-0.001": 18.1693229894,
			"0.0": 21.4569299697,
			"0.001": 26.6004149661,
			"0.002": 24.8870477062,
			"0.003": 22.807427904,
			"0.004": 21.1392022058,
			"0.005": 11.0310744812,
			"0.006": 2.62194765017,
			"0.007": 3.49714287128,
			"0.008": 4.03219087125,
			"0.009": 4.04346841447,
			"0.01": 5.77931258366,
			"0.011": 6.55049844242,
			"0.012": 0.788373453946,
			"0.013": 0.0,
			"0.014": 0.0,
			"0.015": 0.0,
			"0.016": 0.0,
			"0.017": 0.0,
			"0.018": 0.0,
			"0.019": 0.0,
			"0.02": 0.0,
			"0.021": 0.0,
			"0.022": 0.0,
			"0.023": 0.0,
			"0.024": 0.0,
			"0.025": 0.0
		}
	}
}
