{
	 "smiles": "ClC1=CC=C(C=C1)C1=C(C(=O)OC1)C1=CC=CS1", 
	 "Tm": 339.15, 
	 "num_atms": 27, 
	 "gaussian": { 
		 "optdone": 1, 
		 "sigma_profile": "yes", 
		 "theory": "DFT", 
		 "functional": "B3LYP", 
		 "basiset": "6-31G**", 
		 "properties": { 
			 "R2extent": 7464.0841, 
			 "electric_dipole_moment_norm": 3.69765013759, 
			 "electric_quadrupole_moment_norm": 23.9523637904, 
			 "total_energy": -1547.72811459, 
			 "HOMO_LUMO_gap": 0.14098, 
			 "cosmo_polarized_energy": -14.4, 
			 "cosmo_cavitation_energy": 34.73, 
			 "cosmo_dispersion_energy": -25.75, 
			 "cosmo_repulsion_energy": 1.94, 
			 "cosmo_total_nonelectrostatic_energy": 10.91, 
			 "SMD_solvation_energy": 6.35 
		},
		"coords": [
			{
				"x": -2.7239437293,
				"y": -5.4462483364,
				"z": -0.3167352871,
				"element": "Cl" 
			},
			{
				"x": -1.7764537609,
				"y": -3.973647485,
				"z": -0.2166340932,
				"element": "C" 
			},
			{
				"x": -1.9890581429,
				"y": -3.0891595286,
				"z": 0.8393208658,
				"element": "C" 
			},
			{
				"x": -1.2285117303,
				"y": -1.92376813,
				"z": 0.9130125021,
				"element": "C" 
			},
			{
				"x": -0.2653392245,
				"y": -1.6168300643,
				"z": -0.0647387292,
				"element": "C" 
			},
			{
				"x": -0.0704483083,
				"y": -2.5337941578,
				"z": -1.1145665227,
				"element": "C" 
			},
			{
				"x": -0.816328282,
				"y": -3.7051908711,
				"z": -1.194621583,
				"element": "C" 
			},
			{
				"x": 0.5707459044,
				"y": -0.4136659447,
				"z": 0.0633987866,
				"element": "C" 
			},
			{
				"x": 1.0524891525,
				"y": 0.4606231653,
				"z": -0.8609861643,
				"element": "C" 
			},
			{
				"x": 1.9690035722,
				"y": 1.4041196015,
				"z": -0.1505762472,
				"element": "C" 
			},
			{
				"x": 2.6422544532,
				"y": 2.2941554701,
				"z": -0.6104967723,
				"element": "O" 
			},
			{
				"x": 1.9641156836,
				"y": 1.1049283391,
				"z": 1.1838417,
				"element": "O" 
			},
			{
				"x": 1.1118232049,
				"y": -0.0126541369,
				"z": 1.4158643435,
				"element": "C" 
			},
			{
				"x": 0.7851188694,
				"y": 0.616256428,
				"z": -2.2813351262,
				"element": "C" 
			},
			{
				"x": -0.2873374186,
				"y": 0.1432773566,
				"z": -3.0150015756,
				"element": "C" 
			},
			{
				"x": -0.2377683472,
				"y": 0.4977207209,
				"z": -4.3879167985,
				"element": "C" 
			},
			{
				"x": 0.87355532,
				"y": 1.239451482,
				"z": -4.6969256405,
				"element": "C" 
			},
			{
				"x": 1.863290772,
				"y": 1.5429149697,
				"z": -3.3161160642,
				"element": "S" 
			},
			{
				"x": -2.7377769791,
				"y": -3.3094305103,
				"z": 1.5919810555,
				"element": "H" 
			},
			{
				"x": -1.4054884289,
				"y": -1.2371772396,
				"z": 1.735241382,
				"element": "H" 
			},
			{
				"x": 0.6803854639,
				"y": -2.3285969119,
				"z": -1.8697535843,
				"element": "H" 
			},
			{
				"x": -0.6526438044,
				"y": -4.4094306859,
				"z": -2.0027455961,
				"element": "H" 
			},
			{
				"x": 1.6946242133,
				"y": -0.8174070565,
				"z": 1.8809163501,
				"element": "H" 
			},
			{
				"x": 0.3258088685,
				"y": 0.2863381722,
				"z": 2.1214956002,
				"element": "H" 
			},
			{
				"x": -1.0929106006,
				"y": -0.4301571017,
				"z": -2.5740537363,
				"element": "H" 
			},
			{
				"x": -0.9963632362,
				"y": 0.2194314212,
				"z": -5.1103471869,
				"element": "H" 
			},
			{
				"x": 1.1567565153,
				"y": 1.6446410342,
				"z": -5.6590218783,
				"element": "H" 
			}
		],
		 "valence_orbital": [ 
			{
				"type": "occ",
				"energy": -0.28276,
				"method": "rhf"
			},
			{
				"type": "occ",
				"energy": -0.27853,
				"method": "rhf"
			},
			{
				"type": "occ",
				"energy": -0.26362,
				"method": "rhf"
			},
			{
				"type": "occ",
				"energy": -0.25326,
				"method": "rhf"
			},
			{
				"type": "occ",
				"energy": -0.21963,
				"method": "rhf"
			},
			{
				"type": "unocc",
				"energy": -0.07865,
				"method": "rhf"
			},
			{
				"type": "unocc",
				"energy": -0.03235,
				"method": "rhf"
			},
			{
				"type": "unocc",
				"energy": -0.01895,
				"method": "rhf"
			},
			{
				"type": "unocc",
				"energy": -0.00237,
				"method": "rhf"
			},
			{
				"type": "unocc",
				"energy": 0.01677,
				"method": "rhf"
			}
		],
		"cosmo_sigma_profile": { 
			"-0.025": 0.0,
			"-0.024": 0.0,
			"-0.023": 0.0,
			"-0.022": 0.0,
			"-0.021": 0.0,
			"-0.02": 0.0,
			"-0.019": 0.0,
			"-0.018": 0.0,
			"-0.017": 0.0,
			"-0.016": 0.0,
			"-0.015": 0.0,
			"-0.014": 0.0,
			"-0.013": 0.0,
			"-0.012": 0.0,
			"-0.011": 0.00706101230029,
			"-0.01": 0.987295303382,
			"-0.009": 2.87324481944,
			"-0.008": 8.90063084877,
			"-0.007": 14.138071315,
			"-0.006": 17.3537210006,
			"-0.005": 15.5503289807,
			"-0.004": 16.1050939524,
			"-0.003": 16.3431435086,
			"-0.002": 18.2908082864,
			"-0.001": 17.3900046651,
			"0.0": 21.4415883513,
			"0.001": 22.5686770504,
			"0.002": 25.7176072466,
			"0.003": 22.0121884349,
			"0.004": 25.1189447885,
			"0.005": 11.897077833,
			"0.006": 3.05675475655,
			"0.007": 3.27640786687,
			"0.008": 3.61446937533,
			"0.009": 4.85473380926,
			"0.01": 3.86236652143,
			"0.011": 4.41581641029,
			"0.012": 3.60032238816,
			"0.013": 0.709463665644,
			"0.014": 0.0,
			"0.015": 0.0,
			"0.016": 0.0,
			"0.017": 0.0,
			"0.018": 0.0,
			"0.019": 0.0,
			"0.02": 0.0,
			"0.021": 0.0,
			"0.022": 0.0,
			"0.023": 0.0,
			"0.024": 0.0,
			"0.025": 0.0
		}
	}
}
