{
	 "smiles": "S=C(NCCN1CCOCC1)NC1CCCCC1", 
	 "Tm": 399.15, 
	 "num_atms": 43, 
	 "gaussian": { 
		 "optdone": 1, 
		 "sigma_profile": "yes", 
		 "theory": "DFT", 
		 "functional": "B3LYP", 
		 "basiset": "6-31G**", 
		 "properties": { 
			 "R2extent": 7142.903, 
			 "electric_dipole_moment_norm": 5.39968079242, 
			 "electric_quadrupole_moment_norm": 23.3276388542, 
			 "total_energy": -1148.12028312, 
			 "HOMO_LUMO_gap": 0.20533, 
			 "cosmo_polarized_energy": -18.94, 
			 "cosmo_cavitation_energy": 42.86, 
			 "cosmo_dispersion_energy": -29.84, 
			 "cosmo_repulsion_energy": 2.31, 
			 "cosmo_total_nonelectrostatic_energy": 15.32, 
			 "SMD_solvation_energy": 3.26 
		},
		"coords": [
			{
				"x": 2.4060895786,
				"y": -2.5040430473,
				"z": -1.6728149629,
				"element": "S" 
			},
			{
				"x": 1.3844780672,
				"y": -1.204816358,
				"z": -1.307084487,
				"element": "C" 
			},
			{
				"x": 0.1485017464,
				"y": -1.3593902362,
				"z": -0.7709134059,
				"element": "N" 
			},
			{
				"x": -0.4100853825,
				"y": -2.6384409572,
				"z": -0.366644807,
				"element": "C" 
			},
			{
				"x": -1.8928910813,
				"y": -2.4413414062,
				"z": -0.035569951,
				"element": "C" 
			},
			{
				"x": -2.0960492088,
				"y": -1.3397458339,
				"z": 0.909428852,
				"element": "N" 
			},
			{
				"x": -1.5775102665,
				"y": -1.6524592152,
				"z": 2.2541458153,
				"element": "C" 
			},
			{
				"x": -2.199378214,
				"y": -0.7270806627,
				"z": 3.2928773171,
				"element": "C" 
			},
			{
				"x": -3.6103619832,
				"y": -0.899843047,
				"z": 3.4026933246,
				"element": "O" 
			},
			{
				"x": -4.2431834876,
				"y": -1.3101509668,
				"z": 2.1915913109,
				"element": "C" 
			},
			{
				"x": -3.480058621,
				"y": -0.8214918778,
				"z": 0.9616402653,
				"element": "C" 
			},
			{
				"x": 1.7788045801,
				"y": 0.075321112,
				"z": -1.5629599315,
				"element": "N" 
			},
			{
				"x": 0.9818737622,
				"y": 1.2991492478,
				"z": -1.4446512674,
				"element": "C" 
			},
			{
				"x": 1.5067019277,
				"y": 2.3532352594,
				"z": -2.4396898956,
				"element": "C" 
			},
			{
				"x": 2.8773612289,
				"y": 2.925578429,
				"z": -2.0388795636,
				"element": "C" 
			},
			{
				"x": 2.8584328966,
				"y": 3.4773893721,
				"z": -0.6050972782,
				"element": "C" 
			},
			{
				"x": 2.3643143661,
				"y": 2.4193202984,
				"z": 0.3934038973,
				"element": "C" 
			},
			{
				"x": 0.9864695711,
				"y": 1.8708019329,
				"z": -0.0064220563,
				"element": "C" 
			},
			{
				"x": -0.3504891892,
				"y": -0.5665559852,
				"z": -0.3832791561,
				"element": "H" 
			},
			{
				"x": 0.1407865233,
				"y": -3.0513402219,
				"z": 0.4889013603,
				"element": "H" 
			},
			{
				"x": -0.2995894956,
				"y": -3.3599473475,
				"z": -1.1802707152,
				"element": "H" 
			},
			{
				"x": -2.4257167087,
				"y": -2.1915676303,
				"z": -0.959392903,
				"element": "H" 
			},
			{
				"x": -2.2982916008,
				"y": -3.4012591042,
				"z": 0.3343699703,
				"element": "H" 
			},
			{
				"x": -1.7955745812,
				"y": -2.6980623887,
				"z": 2.5379905206,
				"element": "H" 
			},
			{
				"x": -0.4870428799,
				"y": -1.5385611364,
				"z": 2.2700738118,
				"element": "H" 
			},
			{
				"x": -1.7772354297,
				"y": -0.9360719099,
				"z": 4.2809178215,
				"element": "H" 
			},
			{
				"x": -1.9590164667,
				"y": 0.3183990022,
				"z": 3.0419608283,
				"element": "H" 
			},
			{
				"x": -4.3352496502,
				"y": -2.4078036557,
				"z": 2.1647514927,
				"element": "H" 
			},
			{
				"x": -5.2570601238,
				"y": -0.8947900503,
				"z": 2.2048641815,
				"element": "H" 
			},
			{
				"x": -3.4596675739,
				"y": 0.2763268609,
				"z": 0.9762105057,
				"element": "H" 
			},
			{
				"x": -4.0132355731,
				"y": -1.1173447871,
				"z": 0.0527278374,
				"element": "H" 
			},
			{
				"x": 2.6891898078,
				"y": 0.1264939538,
				"z": -1.995720474,
				"element": "H" 
			},
			{
				"x": -0.049427887,
				"y": 1.0506387563,
				"z": -1.7294623068,
				"element": "H" 
			},
			{
				"x": 0.7762583693,
				"y": 3.1714968074,
				"z": -2.4725375574,
				"element": "H" 
			},
			{
				"x": 1.5418806232,
				"y": 1.9196001938,
				"z": -3.4455652301,
				"element": "H" 
			},
			{
				"x": 3.1664648332,
				"y": 3.7088920705,
				"z": -2.7488593632,
				"element": "H" 
			},
			{
				"x": 3.6520673086,
				"y": 2.1497469921,
				"z": -2.117882344,
				"element": "H" 
			},
			{
				"x": 2.1934816939,
				"y": 4.352158193,
				"z": -0.5646289128,
				"element": "H" 
			},
			{
				"x": 3.8566648487,
				"y": 3.8309992241,
				"z": -0.3224411133,
				"element": "H" 
			},
			{
				"x": 3.082170848,
				"y": 1.5898469499,
				"z": 0.4346290593,
				"element": "H" 
			},
			{
				"x": 2.3167809539,
				"y": 2.8413447882,
				"z": 1.4037701648,
				"element": "H" 
			},
			{
				"x": 0.2398302724,
				"y": 2.6756356223,
				"z": 0.0425617561,
				"element": "H" 
			},
			{
				"x": 0.6654115976,
				"y": 1.1010327596,
				"z": 0.7050575896,
				"element": "H" 
			}
		],
		 "valence_orbital": [ 
			{
				"type": "occ",
				"energy": -0.25574,
				"method": "rhf"
			},
			{
				"type": "occ",
				"energy": -0.24706,
				"method": "rhf"
			},
			{
				"type": "occ",
				"energy": -0.22904,
				"method": "rhf"
			},
			{
				"type": "occ",
				"energy": -0.1958,
				"method": "rhf"
			},
			{
				"type": "occ",
				"energy": -0.18807,
				"method": "rhf"
			},
			{
				"type": "unocc",
				"energy": 0.01726,
				"method": "rhf"
			},
			{
				"type": "unocc",
				"energy": 0.05651,
				"method": "rhf"
			},
			{
				"type": "unocc",
				"energy": 0.07284,
				"method": "rhf"
			},
			{
				"type": "unocc",
				"energy": 0.07777,
				"method": "rhf"
			},
			{
				"type": "unocc",
				"energy": 0.08919,
				"method": "rhf"
			}
		],
		"cosmo_sigma_profile": { 
			"-0.025": 0.0,
			"-0.024": 0.0,
			"-0.023": 0.0,
			"-0.022": 0.0,
			"-0.021": 0.0,
			"-0.02": 0.0,
			"-0.019": 0.0,
			"-0.018": 0.0,
			"-0.017": 0.0,
			"-0.016": 0.0,
			"-0.015": 0.0,
			"-0.014": 0.0,
			"-0.013": 0.0,
			"-0.012": 0.0167830290321,
			"-0.011": 0.504655998268,
			"-0.01": 1.14994309783,
			"-0.009": 1.26624792634,
			"-0.008": 1.91192759498,
			"-0.007": 2.54463837601,
			"-0.006": 3.31307311972,
			"-0.005": 13.8568163955,
			"-0.004": 32.4605585026,
			"-0.003": 61.6111700441,
			"-0.002": 49.8021984907,
			"-0.001": 40.6189238492,
			"0.0": 31.2951938667,
			"0.001": 18.6287970742,
			"0.002": 6.52949868548,
			"0.003": 6.67920279609,
			"0.004": 7.07557188792,
			"0.005": 5.40386159042,
			"0.006": 5.03400303922,
			"0.007": 4.35193628215,
			"0.008": 4.85583764989,
			"0.009": 4.95032878744,
			"0.01": 4.83270360871,
			"0.011": 6.50007802782,
			"0.012": 9.50800037842,
			"0.013": 7.42555374089,
			"0.014": 1.57512405539,
			"0.015": 0.0,
			"0.016": 0.0,
			"0.017": 0.0,
			"0.018": 0.0,
			"0.019": 0.0,
			"0.02": 0.0,
			"0.021": 0.0,
			"0.022": 0.0,
			"0.023": 0.0,
			"0.024": 0.0,
			"0.025": 0.0
		}
	}
}
