{
	 "smiles": "CC1=NN=C(N1)C1=CC(CN)=CC=C1", 
	 "Tm": 473.15, 
	 "num_atms": 26, 
	 "gaussian": { 
		 "optdone": 1, 
		 "sigma_profile": "yes", 
		 "theory": "DFT", 
		 "functional": "B3LYP", 
		 "basiset": "6-31G**", 
		 "properties": { 
			 "R2extent": 4394.3357, 
			 "electric_dipole_moment_norm": 6.40370253759, 
			 "electric_quadrupole_moment_norm": 19.0864793029, 
			 "total_energy": -607.293688236, 
			 "HOMO_LUMO_gap": 0.18747, 
			 "cosmo_polarized_energy": -23.21, 
			 "cosmo_cavitation_energy": 30.0, 
			 "cosmo_dispersion_energy": -22.2, 
			 "cosmo_repulsion_energy": 1.77, 
			 "cosmo_total_nonelectrostatic_energy": 9.56, 
			 "SMD_solvation_energy": 2.18 
		},
		"coords": [
			{
				"x": 2.7445158867,
				"y": 2.0804149544,
				"z": -3.2502541981,
				"element": "C" 
			},
			{
				"x": 1.4780044709,
				"y": 2.1569854968,
				"z": -2.46748966,
				"element": "C" 
			},
			{
				"x": 0.4043413797,
				"y": 2.838477395,
				"z": -2.8007927669,
				"element": "N" 
			},
			{
				"x": -0.5398682751,
				"y": 2.6462562142,
				"z": -1.8169525193,
				"element": "N" 
			},
			{
				"x": -0.0225029187,
				"y": 1.8500804892,
				"z": -0.9019678469,
				"element": "C" 
			},
			{
				"x": 1.2605000687,
				"y": 1.5167136256,
				"z": -1.2735345667,
				"element": "N" 
			},
			{
				"x": -0.698851505,
				"y": 1.3889963656,
				"z": 0.3128610531,
				"element": "C" 
			},
			{
				"x": -0.0273327568,
				"y": 0.671619504,
				"z": 1.3146206831,
				"element": "C" 
			},
			{
				"x": -0.6893364265,
				"y": 0.2359729931,
				"z": 2.4660174262,
				"element": "C" 
			},
			{
				"x": 0.0515945063,
				"y": -0.5749637997,
				"z": 3.5142305873,
				"element": "C" 
			},
			{
				"x": -0.4294426508,
				"y": -0.284326364,
				"z": 4.86669527,
				"element": "N" 
			},
			{
				"x": -2.0471755048,
				"y": 0.5404356033,
				"z": 2.6203747829,
				"element": "C" 
			},
			{
				"x": -2.7217437185,
				"y": 1.263299764,
				"z": 1.634164976,
				"element": "C" 
			},
			{
				"x": -2.0608106806,
				"y": 1.6851749232,
				"z": 0.4845186522,
				"element": "C" 
			},
			{
				"x": 2.9760808762,
				"y": 1.0522144765,
				"z": -3.5513240358,
				"element": "H" 
			},
			{
				"x": 2.6283395168,
				"y": 2.6857605327,
				"z": -4.1503677857,
				"element": "H" 
			},
			{
				"x": 3.598946187,
				"y": 2.4646545506,
				"z": -2.6813411873,
				"element": "H" 
			},
			{
				"x": 1.8961247565,
				"y": 0.8988854128,
				"z": -0.7936269666,
				"element": "H" 
			},
			{
				"x": 1.0348905464,
				"y": 0.4542830521,
				"z": 1.2167714121,
				"element": "H" 
			},
			{
				"x": -0.1283063835,
				"y": -1.6435723412,
				"z": 3.3309947725,
				"element": "H" 
			},
			{
				"x": 1.1365774302,
				"y": -0.421989555,
				"z": 3.3737617164,
				"element": "H" 
			},
			{
				"x": -0.1817036975,
				"y": 0.667167087,
				"z": 5.1273251241,
				"element": "H" 
			},
			{
				"x": 0.0180144832,
				"y": -0.9025460038,
				"z": 5.5376952885,
				"element": "H" 
			},
			{
				"x": -2.5550571135,
				"y": 0.2156780675,
				"z": 3.5223648974,
				"element": "H" 
			},
			{
				"x": -3.7746167452,
				"y": 1.4978854785,
				"z": 1.7632631873,
				"element": "H" 
			},
			{
				"x": -2.5731817322,
				"y": 2.2466420778,
				"z": -0.288808296,
				"element": "H" 
			}
		],
		 "valence_orbital": [ 
			{
				"type": "occ",
				"energy": -0.28135,
				"method": "rhf"
			},
			{
				"type": "occ",
				"energy": -0.25284,
				"method": "rhf"
			},
			{
				"type": "occ",
				"energy": -0.24406,
				"method": "rhf"
			},
			{
				"type": "occ",
				"energy": -0.24182,
				"method": "rhf"
			},
			{
				"type": "occ",
				"energy": -0.21845,
				"method": "rhf"
			},
			{
				"type": "unocc",
				"energy": -0.03098,
				"method": "rhf"
			},
			{
				"type": "unocc",
				"energy": -0.00502,
				"method": "rhf"
			},
			{
				"type": "unocc",
				"energy": 0.03903,
				"method": "rhf"
			},
			{
				"type": "unocc",
				"energy": 0.05541,
				"method": "rhf"
			},
			{
				"type": "unocc",
				"energy": 0.06991,
				"method": "rhf"
			}
		],
		"cosmo_sigma_profile": { 
			"-0.025": 0.0,
			"-0.024": 0.0,
			"-0.023": 0.0,
			"-0.022": 0.0,
			"-0.021": 0.0,
			"-0.02": 0.0,
			"-0.019": 0.0,
			"-0.018": 0.0,
			"-0.017": 0.905310027635,
			"-0.016": 1.58000255471,
			"-0.015": 1.24144191447,
			"-0.014": 1.65232433591,
			"-0.013": 1.33127636384,
			"-0.012": 1.20912322767,
			"-0.011": 1.56607516554,
			"-0.01": 2.8459109158,
			"-0.009": 4.19247648838,
			"-0.008": 5.17627558883,
			"-0.007": 5.03224017903,
			"-0.006": 10.6218663793,
			"-0.005": 13.9601188328,
			"-0.004": 19.6330529585,
			"-0.003": 19.0726535331,
			"-0.002": 21.3345183773,
			"-0.001": 17.1806460386,
			"0.0": 12.510543638,
			"0.001": 11.7556768513,
			"0.002": 11.2170197598,
			"0.003": 12.2600847136,
			"0.004": 12.7465732037,
			"0.005": 11.3893955466,
			"0.006": 5.07320721936,
			"0.007": 3.57412695254,
			"0.008": 1.78183363618,
			"0.009": 2.3437287218,
			"0.01": 3.29536120507,
			"0.011": 2.75613506121,
			"0.012": 2.98692220083,
			"0.013": 3.32230414465,
			"0.014": 3.40376638468,
			"0.015": 4.22999235326,
			"0.016": 2.77328784719,
			"0.017": 1.55735630599,
			"0.018": 0.375682199791,
			"0.019": 0.0,
			"0.02": 0.0,
			"0.021": 0.0,
			"0.022": 0.0,
			"0.023": 0.0,
			"0.024": 0.0,
			"0.025": 0.0
		}
	}
}
