{
	 "smiles": "CC1=C2N=CC(C#N)=C(O)C2=CC(Br)=C1", 
	 "Tm": 623.15, 
	 "num_atms": 22, 
	 "gaussian": { 
		 "optdone": 1, 
		 "sigma_profile": "yes", 
		 "theory": "DFT", 
		 "functional": "B3LYP", 
		 "basiset": "6-31G**", 
		 "properties": { 
			 "R2extent": 6031.2575, 
			 "electric_dipole_moment_norm": 1.87921180818, 
			 "electric_quadrupole_moment_norm": 8.52574038193, 
			 "total_energy": -3179.51902865, 
			 "HOMO_LUMO_gap": 0.16402, 
			 "cosmo_polarized_energy": -10.92, 
			 "cosmo_cavitation_energy": 29.87, 
			 "cosmo_dispersion_energy": -21.91, 
			 "cosmo_repulsion_energy": 1.69, 
			 "cosmo_total_nonelectrostatic_energy": 9.66, 
			 "SMD_solvation_energy": 4.4 
		},
		"coords": [
			{
				"x": 2.7318529633,
				"y": -1.3052880886,
				"z": -0.3845770712,
				"element": "C" 
			},
			{
				"x": 1.6862009899,
				"y": -0.9184964898,
				"z": 0.6270547719,
				"element": "C" 
			},
			{
				"x": 0.5303376698,
				"y": -0.1873436514,
				"z": 0.2101802582,
				"element": "C" 
			},
			{
				"x": 0.4197710334,
				"y": 0.136845465,
				"z": -1.1149531695,
				"element": "N" 
			},
			{
				"x": -0.6373392493,
				"y": 0.8068439605,
				"z": -1.5020818929,
				"element": "C" 
			},
			{
				"x": -1.6832056032,
				"y": 1.2208299225,
				"z": -0.6270988932,
				"element": "C" 
			},
			{
				"x": -2.8187359134,
				"y": 1.9491550621,
				"z": -1.0863994238,
				"element": "C" 
			},
			{
				"x": -3.7738816567,
				"y": 2.5450031571,
				"z": -1.3879949693,
				"element": "N" 
			},
			{
				"x": -1.5888946249,
				"y": 0.899852496,
				"z": 0.7276749807,
				"element": "C" 
			},
			{
				"x": -2.5187466303,
				"y": 1.2424113753,
				"z": 1.6345339752,
				"element": "O" 
			},
			{
				"x": -0.4526029006,
				"y": 0.1720236523,
				"z": 1.1826330655,
				"element": "C" 
			},
			{
				"x": -0.2931244851,
				"y": -0.1866109988,
				"z": 2.5436387317,
				"element": "C" 
			},
			{
				"x": 0.8303383987,
				"y": -0.8888461871,
				"z": 2.9065839554,
				"element": "C" 
			},
			{
				"x": 1.0862511042,
				"y": -1.392636914,
				"z": 4.7296016623,
				"element": "Br" 
			},
			{
				"x": 1.8148160306,
				"y": -1.2545412125,
				"z": 1.9617226504,
				"element": "C" 
			},
			{
				"x": 3.1437487942,
				"y": -0.419916497,
				"z": -0.8783464662,
				"element": "H" 
			},
			{
				"x": 2.2992434145,
				"y": -1.9251864322,
				"z": -1.1757351238,
				"element": "H" 
			},
			{
				"x": 3.5479570453,
				"y": -1.8566615188,
				"z": 0.0886865014,
				"element": "H" 
			},
			{
				"x": -0.7136892858,
				"y": 1.0586453074,
				"z": -2.5582363255,
				"element": "H" 
			},
			{
				"x": -3.2400074941,
				"y": 1.7320905331,
				"z": 1.2061940539,
				"element": "H" 
			},
			{
				"x": -1.0462679427,
				"y": 0.0926827769,
				"z": 3.2689549191,
				"element": "H" 
			},
			{
				"x": 2.6846783421,
				"y": -1.808955718,
				"z": 2.2970638097,
				"element": "H" 
			}
		],
		 "valence_orbital": [ 
			{
				"type": "occ",
				"energy": -0.29736,
				"method": "rhf"
			},
			{
				"type": "occ",
				"energy": -0.29327,
				"method": "rhf"
			},
			{
				"type": "occ",
				"energy": -0.2782,
				"method": "rhf"
			},
			{
				"type": "occ",
				"energy": -0.26563,
				"method": "rhf"
			},
			{
				"type": "occ",
				"energy": -0.2406,
				"method": "rhf"
			},
			{
				"type": "unocc",
				"energy": -0.07658,
				"method": "rhf"
			},
			{
				"type": "unocc",
				"energy": -0.05565,
				"method": "rhf"
			},
			{
				"type": "unocc",
				"energy": -0.00419,
				"method": "rhf"
			},
			{
				"type": "unocc",
				"energy": 0.00377,
				"method": "rhf"
			},
			{
				"type": "unocc",
				"energy": 0.0061,
				"method": "rhf"
			}
		],
		"cosmo_sigma_profile": { 
			"-0.025": 0.0,
			"-0.024": 0.0,
			"-0.023": 0.0,
			"-0.022": 0.0,
			"-0.021": 0.0,
			"-0.02": 0.0,
			"-0.019": 0.0,
			"-0.018": 0.154577253658,
			"-0.017": 0.537220889938,
			"-0.016": 0.803790919668,
			"-0.015": 0.728542193249,
			"-0.014": 0.839653624147,
			"-0.013": 1.36670451908,
			"-0.012": 1.23452319138,
			"-0.011": 0.855384074292,
			"-0.01": 1.40316281653,
			"-0.009": 1.78520995196,
			"-0.008": 4.03755770168,
			"-0.007": 6.07510760598,
			"-0.006": 6.23140255104,
			"-0.005": 9.01583109876,
			"-0.004": 14.3254958605,
			"-0.003": 16.432150922,
			"-0.002": 21.8267288218,
			"-0.001": 23.3743876213,
			"0.0": 28.1404561234,
			"0.001": 23.9328756054,
			"0.002": 16.9409301501,
			"0.003": 12.7107766933,
			"0.004": 16.47306011,
			"0.005": 6.71148253489,
			"0.006": 5.39988392918,
			"0.007": 4.54130471557,
			"0.008": 4.18765222542,
			"0.009": 3.78976711912,
			"0.01": 3.7532120905,
			"0.011": 3.44557165536,
			"0.012": 2.53998553297,
			"0.013": 0.855468365412,
			"0.014": 0.147342828275,
			"0.015": 0.0,
			"0.016": 0.0,
			"0.017": 0.0,
			"0.018": 0.0,
			"0.019": 0.0,
			"0.02": 0.0,
			"0.021": 0.0,
			"0.022": 0.0,
			"0.023": 0.0,
			"0.024": 0.0,
			"0.025": 0.0
		}
	}
}
