{
	 "smiles": "OC(=O)C=CC1CCOCC1", 
	 "Tm": 408.15, 
	 "num_atms": 23, 
	 "gaussian": { 
		 "optdone": 1, 
		 "sigma_profile": "yes", 
		 "theory": "DFT", 
		 "functional": "B3LYP", 
		 "basiset": "6-31G**", 
		 "properties": { 
			 "R2extent": 3087.1785, 
			 "electric_dipole_moment_norm": 2.73297828202, 
			 "electric_quadrupole_moment_norm": 18.6861972592, 
			 "total_energy": -537.726713649, 
			 "HOMO_LUMO_gap": 0.20094, 
			 "cosmo_polarized_energy": -14.38, 
			 "cosmo_cavitation_energy": 25.1, 
			 "cosmo_dispersion_energy": -18.58, 
			 "cosmo_repulsion_energy": 1.51, 
			 "cosmo_total_nonelectrostatic_energy": 8.02, 
			 "SMD_solvation_energy": 5.13 
		},
		"coords": [
			{
				"x": 0.4682633686,
				"y": -2.0028528541,
				"z": 3.7654945542,
				"element": "O" 
			},
			{
				"x": 1.0954800799,
				"y": -1.6206145538,
				"z": 2.6165026066,
				"element": "C" 
			},
			{
				"x": 2.3051505671,
				"y": -1.5320224461,
				"z": 2.6068774468,
				"element": "O" 
			},
			{
				"x": 0.1994220461,
				"y": -1.3536807437,
				"z": 1.4637881698,
				"element": "C" 
			},
			{
				"x": 0.5854879206,
				"y": -0.7824981448,
				"z": 0.3092204372,
				"element": "C" 
			},
			{
				"x": 1.9623900215,
				"y": -0.2906539936,
				"z": -0.0632688387,
				"element": "C" 
			},
			{
				"x": 2.782731617,
				"y": -1.4175519607,
				"z": -0.7396252819,
				"element": "C" 
			},
			{
				"x": 2.112119138,
				"y": -1.8645227975,
				"z": -2.0546735666,
				"element": "C" 
			},
			{
				"x": 1.2864231002,
				"y": -0.8445427761,
				"z": -2.6210910859,
				"element": "O" 
			},
			{
				"x": 1.88203866,
				"y": 0.4422727633,
				"z": -2.5059357168,
				"element": "C" 
			},
			{
				"x": 1.8864507434,
				"y": 0.9174644484,
				"z": -1.0362183946,
				"element": "C" 
			},
			{
				"x": -0.4906831906,
				"y": -2.0027610317,
				"z": 3.6410935182,
				"element": "H" 
			},
			{
				"x": -0.8456690838,
				"y": -1.6423756131,
				"z": 1.5698335649,
				"element": "H" 
			},
			{
				"x": -0.1741718105,
				"y": -0.6653400398,
				"z": -0.4618858456,
				"element": "H" 
			},
			{
				"x": 2.4854498876,
				"y": -0.0097456448,
				"z": 0.852339033,
				"element": "H" 
			},
			{
				"x": 3.7882434472,
				"y": -1.0257529094,
				"z": -0.9344755212,
				"element": "H" 
			},
			{
				"x": 2.8994910745,
				"y": -2.2610932688,
				"z": -0.0546130248,
				"element": "H" 
			},
			{
				"x": 1.4440508035,
				"y": -2.7145406564,
				"z": -1.8849212947,
				"element": "H" 
			},
			{
				"x": 2.8748604,
				"y": -2.1772819677,
				"z": -2.7859371768,
				"element": "H" 
			},
			{
				"x": 1.2952160847,
				"y": 1.11168738,
				"z": -3.1410892037,
				"element": "H" 
			},
			{
				"x": 2.9066254164,
				"y": 0.4212316372,
				"z": -2.9115430126,
				"element": "H" 
			},
			{
				"x": 2.7451155661,
				"y": 1.5777562632,
				"z": -0.8675094895,
				"element": "H" 
			},
			{
				"x": 0.9903141423,
				"y": 1.51111891,
				"z": -0.8235618775,
				"element": "H" 
			}
		],
		 "valence_orbital": [ 
			{
				"type": "occ",
				"energy": -0.31308,
				"method": "rhf"
			},
			{
				"type": "occ",
				"energy": -0.2995,
				"method": "rhf"
			},
			{
				"type": "occ",
				"energy": -0.27522,
				"method": "rhf"
			},
			{
				"type": "occ",
				"energy": -0.26592,
				"method": "rhf"
			},
			{
				"type": "occ",
				"energy": -0.24724,
				"method": "rhf"
			},
			{
				"type": "unocc",
				"energy": -0.0463,
				"method": "rhf"
			},
			{
				"type": "unocc",
				"energy": 0.05731,
				"method": "rhf"
			},
			{
				"type": "unocc",
				"energy": 0.07727,
				"method": "rhf"
			},
			{
				"type": "unocc",
				"energy": 0.081,
				"method": "rhf"
			},
			{
				"type": "unocc",
				"energy": 0.10857,
				"method": "rhf"
			}
		],
		"cosmo_sigma_profile": { 
			"-0.025": 0.0,
			"-0.024": 0.0,
			"-0.023": 0.0,
			"-0.022": 0.0,
			"-0.021": 0.0,
			"-0.02": 0.0,
			"-0.019": 0.396411516022,
			"-0.018": 1.44789617627,
			"-0.017": 0.444176865916,
			"-0.016": 1.34552075152,
			"-0.015": 1.13972804496,
			"-0.014": 1.31035696202,
			"-0.013": 1.15296784218,
			"-0.012": 0.757343625345,
			"-0.011": 0.771162732887,
			"-0.01": 0.965676429116,
			"-0.009": 1.0954313031,
			"-0.008": 1.37929780945,
			"-0.007": 2.06994843929,
			"-0.006": 2.49579479106,
			"-0.005": 5.01288155931,
			"-0.004": 14.3495101167,
			"-0.003": 32.1230845112,
			"-0.002": 26.3135871711,
			"-0.001": 19.67469493,
			"0.0": 14.4407001468,
			"0.001": 9.30278831793,
			"0.002": 7.5141846654,
			"0.003": 6.08855701233,
			"0.004": 3.70239175384,
			"0.005": 3.73382308081,
			"0.006": 4.44013069084,
			"0.007": 3.5332178854,
			"0.008": 3.44389800443,
			"0.009": 4.20561666237,
			"0.01": 4.54741128708,
			"0.011": 5.85697025791,
			"0.012": 5.22473276355,
			"0.013": 4.19060535401,
			"0.014": 1.45803152085,
			"0.015": 0.0,
			"0.016": 0.0,
			"0.017": 0.0,
			"0.018": 0.0,
			"0.019": 0.0,
			"0.02": 0.0,
			"0.021": 0.0,
			"0.022": 0.0,
			"0.023": 0.0,
			"0.024": 0.0,
			"0.025": 0.0
		}
	}
}
