{
	 "smiles": "C[Si](C)(C)C1=CC2CCCCC2C1=O", 
	 "Tm": 332.15, 
	 "num_atms": 34, 
	 "gaussian": { 
		 "optdone": 1, 
		 "sigma_profile": "yes", 
		 "theory": "DFT", 
		 "functional": "B3LYP", 
		 "basiset": "6-31G**", 
		 "properties": { 
			 "R2extent": 4295.4816, 
			 "electric_dipole_moment_norm": 3.14535762196, 
			 "electric_quadrupole_moment_norm": 8.0494950295, 
			 "total_energy": -834.094120397, 
			 "HOMO_LUMO_gap": 0.18611, 
			 "cosmo_polarized_energy": -7.85, 
			 "cosmo_cavitation_energy": 36.28, 
			 "cosmo_dispersion_energy": -23.03, 
			 "cosmo_repulsion_energy": 1.94, 
			 "cosmo_total_nonelectrostatic_energy": 15.19, 
			 "SMD_solvation_energy": 7.32 
		},
		"coords": [
			{
				"x": 1.4277992021,
				"y": 0.6408903991,
				"z": 2.88823787,
				"element": "C" 
			},
			{
				"x": 1.623451501,
				"y": 0.1543100535,
				"z": 1.0686490022,
				"element": "Si" 
			},
			{
				"x": 2.3828801533,
				"y": 1.5766066471,
				"z": 0.0830411842,
				"element": "C" 
			},
			{
				"x": 2.70311373,
				"y": -1.389751841,
				"z": 0.9169929925,
				"element": "C" 
			},
			{
				"x": -0.0835288226,
				"y": -0.2311827027,
				"z": 0.3595386622,
				"element": "C" 
			},
			{
				"x": -1.3019982233,
				"y": -0.0979995252,
				"z": 0.9339843069,
				"element": "C" 
			},
			{
				"x": -2.4395507804,
				"y": -0.3749340631,
				"z": -0.0262234891,
				"element": "C" 
			},
			{
				"x": -3.7508752501,
				"y": -1.0439180475,
				"z": 0.3892138045,
				"element": "C" 
			},
			{
				"x": -4.6373686883,
				"y": -1.160627874,
				"z": -0.8741426392,
				"element": "C" 
			},
			{
				"x": -3.9355462702,
				"y": -1.8423936871,
				"z": -2.0718290004,
				"element": "C" 
			},
			{
				"x": -2.5548126562,
				"y": -1.2335065906,
				"z": -2.412027395,
				"element": "C" 
			},
			{
				"x": -1.7442667181,
				"y": -1.1957653127,
				"z": -1.1241545873,
				"element": "C" 
			},
			{
				"x": -0.2951318198,
				"y": -0.7147988987,
				"z": -1.050086279,
				"element": "C" 
			},
			{
				"x": 0.5358400746,
				"y": -0.7493768785,
				"z": -1.9421133686,
				"element": "O" 
			},
			{
				"x": 2.4034701185,
				"y": 0.8670334692,
				"z": 3.3330219697,
				"element": "H" 
			},
			{
				"x": 0.8012877872,
				"y": 1.5320226707,
				"z": 3.0055389563,
				"element": "H" 
			},
			{
				"x": 0.9782799294,
				"y": -0.1656412571,
				"z": 3.4779293978,
				"element": "H" 
			},
			{
				"x": 1.7983145399,
				"y": 2.496831155,
				"z": 0.1896419429,
				"element": "H" 
			},
			{
				"x": 3.4049126367,
				"y": 1.7890405126,
				"z": 0.4167512601,
				"element": "H" 
			},
			{
				"x": 2.4160711447,
				"y": 1.3193992535,
				"z": -0.9800483942,
				"element": "H" 
			},
			{
				"x": 2.7611324544,
				"y": -1.7111675295,
				"z": -0.1276638177,
				"element": "H" 
			},
			{
				"x": 3.7227171551,
				"y": -1.1953915384,
				"z": 1.2684500579,
				"element": "H" 
			},
			{
				"x": 2.3011429532,
				"y": -2.2221022892,
				"z": 1.5048879902,
				"element": "H" 
			},
			{
				"x": -1.474309653,
				"y": 0.2484104066,
				"z": 1.9513312396,
				"element": "H" 
			},
			{
				"x": -2.7144542561,
				"y": 0.6021023439,
				"z": -0.4615337866,
				"element": "H" 
			},
			{
				"x": -4.2737540947,
				"y": -0.4672106428,
				"z": 1.1623388696,
				"element": "H" 
			},
			{
				"x": -3.5506207205,
				"y": -2.0386567002,
				"z": 0.8101994166,
				"element": "H" 
			},
			{
				"x": -4.9429801738,
				"y": -0.1475593127,
				"z": -1.1715964925,
				"element": "H" 
			},
			{
				"x": -5.5603531431,
				"y": -1.7022328351,
				"z": -0.6368174471,
				"element": "H" 
			},
			{
				"x": -4.5944132803,
				"y": -1.8033368585,
				"z": -2.947104334,
				"element": "H" 
			},
			{
				"x": -3.7941956428,
				"y": -2.9074900732,
				"z": -1.840113667,
				"element": "H" 
			},
			{
				"x": -2.6707174942,
				"y": -0.2192317073,
				"z": -2.8159863469,
				"element": "H" 
			},
			{
				"x": -2.0490429144,
				"y": -1.8264769911,
				"z": -3.1813989218,
				"element": "H" 
			},
			{
				"x": -1.6847927781,
				"y": -2.228493755,
				"z": -0.7380089566,
				"element": "H" 
			}
		],
		 "valence_orbital": [ 
			{
				"type": "occ",
				"energy": -0.30355,
				"method": "rhf"
			},
			{
				"type": "occ",
				"energy": -0.29776,
				"method": "rhf"
			},
			{
				"type": "occ",
				"energy": -0.29254,
				"method": "rhf"
			},
			{
				"type": "occ",
				"energy": -0.25841,
				"method": "rhf"
			},
			{
				"type": "occ",
				"energy": -0.22978,
				"method": "rhf"
			},
			{
				"type": "unocc",
				"energy": -0.04367,
				"method": "rhf"
			},
			{
				"type": "unocc",
				"energy": 0.03751,
				"method": "rhf"
			},
			{
				"type": "unocc",
				"energy": 0.08077,
				"method": "rhf"
			},
			{
				"type": "unocc",
				"energy": 0.08894,
				"method": "rhf"
			},
			{
				"type": "unocc",
				"energy": 0.09314,
				"method": "rhf"
			}
		],
		"cosmo_sigma_profile": { 
			"-0.025": 0.0,
			"-0.024": 0.0,
			"-0.023": 0.0,
			"-0.022": 0.0,
			"-0.021": 0.0,
			"-0.02": 0.0,
			"-0.019": 0.0,
			"-0.018": 0.0,
			"-0.017": 0.0,
			"-0.016": 0.0,
			"-0.015": 0.0,
			"-0.014": 0.0,
			"-0.013": 0.0,
			"-0.012": 0.0,
			"-0.011": 0.0,
			"-0.01": 0.0,
			"-0.009": 0.0,
			"-0.008": 0.0,
			"-0.007": 0.0539724271409,
			"-0.006": 1.32427760737,
			"-0.005": 3.6815286452,
			"-0.004": 14.0674171864,
			"-0.003": 34.8003331496,
			"-0.002": 47.3381973552,
			"-0.001": 41.8323285525,
			"0.0": 39.109068097,
			"0.001": 37.1017588726,
			"0.002": 20.4252706501,
			"0.003": 10.1704688158,
			"0.004": 3.42210267343,
			"0.005": 2.70413903051,
			"0.006": 2.62759207272,
			"0.007": 2.82260619429,
			"0.008": 1.86196281029,
			"0.009": 1.79813882948,
			"0.01": 1.61045212616,
			"0.011": 2.19177942462,
			"0.012": 2.96713731717,
			"0.013": 3.01918509645,
			"0.014": 0.681915920919,
			"0.015": 0.0,
			"0.016": 0.0,
			"0.017": 0.0,
			"0.018": 0.0,
			"0.019": 0.0,
			"0.02": 0.0,
			"0.021": 0.0,
			"0.022": 0.0,
			"0.023": 0.0,
			"0.024": 0.0,
			"0.025": 0.0
		}
	}
}
