{
	 "smiles": "NNC1=CC=C(I)C=C1", 
	 "Tm": 375.15, 
	 "num_atms": 16, 
	 "gaussian": { 
		 "optdone": 1, 
		 "sigma_profile": "no", 
		 "theory": "DFT", 
		 "functional": "B3LYP", 
		 "basiset": "6-31G**", 
		 "properties": { 
			 "R2extent": 1602.2156, 
			 "electric_dipole_moment_norm": 4.99425116909, 
			 "electric_quadrupole_moment_norm": 4.73853930447, 
			 "total_energy": -353.708235212, 
			 "HOMO_LUMO_gap": 0.17379, 
			 "cosmo_polarized_energy": -101619.68, 
			 "cosmo_cavitation_energy": 23.02, 
			 "cosmo_dispersion_energy": -18.76, 
			 "cosmo_repulsion_energy": 1.52, 
			 "cosmo_total_nonelectrostatic_energy": 5.78, 
			 "SMD_solvation_energy": 3.61 
		},
		"coords": [
			{
				"x": 0.0645482394,
				"y": 0.1607455397,
				"z": -2.5033391741,
				"element": "N" 
			},
			{
				"x": 0.1834810281,
				"y": -0.6616212337,
				"z": -1.3667173736,
				"element": "N" 
			},
			{
				"x": 0.075764978,
				"y": -0.0507635305,
				"z": -0.112400964,
				"element": "C" 
			},
			{
				"x": -0.1839724937,
				"y": -0.8473492552,
				"z": 1.0162839858,
				"element": "C" 
			},
			{
				"x": -0.2413904328,
				"y": -0.2855343607,
				"z": 2.2887271232,
				"element": "C" 
			},
			{
				"x": -0.0441777628,
				"y": 1.0875379076,
				"z": 2.4469918504,
				"element": "C" 
			},
			{
				"x": -0.1411973253,
				"y": 1.9526459109,
				"z": 4.3833619209,
				"element": "I" 
			},
			{
				"x": 0.2099565068,
				"y": 1.8922003163,
				"z": 1.3352689842,
				"element": "C" 
			},
			{
				"x": 0.2691575667,
				"y": 1.328335359,
				"z": 0.062101685,
				"element": "C" 
			},
			{
				"x": 0.6910410506,
				"y": -0.1817745997,
				"z": -3.2241941212,
				"element": "H" 
			},
			{
				"x": -0.8879038421,
				"y": 0.1681581598,
				"z": -2.867204756,
				"element": "H" 
			},
			{
				"x": -0.2785742991,
				"y": -1.5641815886,
				"z": -1.41988308,
				"element": "H" 
			},
			{
				"x": -0.3375106376,
				"y": -1.9178562775,
				"z": 0.8989332639,
				"element": "H" 
			},
			{
				"x": -0.443623222,
				"y": -0.9179101675,
				"z": 3.1461464293,
				"element": "H" 
			},
			{
				"x": 0.3611069273,
				"y": 2.9598219091,
				"z": 1.4525470626,
				"element": "H" 
			},
			{
				"x": 0.4633937185,
				"y": 1.9449459111,
				"z": -0.8069228365,
				"element": "H" 
			}
		],
		 "valence_orbital": [ 
			{
				"type": "occ",
				"energy": -0.27496,
				"method": "rhf"
			},
			{
				"type": "occ",
				"energy": -0.25891,
				"method": "rhf"
			},
			{
				"type": "occ",
				"energy": -0.25707,
				"method": "rhf"
			},
			{
				"type": "occ",
				"energy": -0.25286,
				"method": "rhf"
			},
			{
				"type": "occ",
				"energy": -0.20017,
				"method": "rhf"
			},
			{
				"type": "unocc",
				"energy": -0.02638,
				"method": "rhf"
			},
			{
				"type": "unocc",
				"energy": -0.00363,
				"method": "rhf"
			},
			{
				"type": "unocc",
				"energy": 0.00627,
				"method": "rhf"
			},
			{
				"type": "unocc",
				"energy": 0.04979,
				"method": "rhf"
			},
			{
				"type": "unocc",
				"energy": 0.05797,
				"method": "rhf"
			}
		],
		"cosmo_sigma_profile": { 
			"0.0": 0.0,
			"0.0": 0.0,
			"0.0": 0.0,
			"0.0": 0.0,
			"0.0": 0.0,
			"0.0": 0.0,
			"0.0": 0.0,
			"0.0": 0.0,
			"0.0": 0.0,
			"0.0": 0.0,
			"0.0": 0.0,
			"0.0": 0.0,
			"0.0": 0.0,
			"0.0": 0.0,
			"0.0": 0.0,
			"0.0": 0.0,
			"0.0": 0.0,
			"0.0": 0.0,
			"0.0": 0.0,
			"0.0": 0.0,
			"0.0": 0.0,
			"0.0": 0.0,
			"0.0": 0.0,
			"0.0": 0.0,
			"0.0": 0.0,
			"0.0": 0.0,
			"0.0": 0.0,
			"0.0": 0.0,
			"0.0": 0.0,
			"0.0": 0.0,
			"0.0": 0.0,
			"0.0": 0.0,
			"0.0": 0.0,
			"0.0": 0.0,
			"0.0": 0.0,
			"0.0": 0.0,
			"0.0": 0.0,
			"0.0": 0.0,
			"0.0": 0.0,
			"0.0": 0.0,
			"0.0": 0.0,
			"0.0": 0.0,
			"0.0": 0.0,
			"0.0": 0.0,
			"0.0": 0.0,
			"0.0": 0.0,
			"0.0": 0.0,
			"0.0": 0.0,
			"0.0": 0.0,
			"0.0": 0.0,
			"0.0": 0.0
		}
	}
}
