{
	 "smiles": "OC(=O)C1CCCCC1C(=O)N1CCCC1", 
	 "Tm": 393.15, 
	 "num_atms": 35, 
	 "gaussian": { 
		 "optdone": 1, 
		 "sigma_profile": "yes", 
		 "theory": "DFT", 
		 "functional": "B3LYP", 
		 "basiset": "6-31G**", 
		 "properties": { 
			 "R2extent": 4513.8669, 
			 "electric_dipole_moment_norm": 5.35571052429, 
			 "electric_quadrupole_moment_norm": 7.54040561376, 
			 "total_energy": -749.189414582, 
			 "HOMO_LUMO_gap": 0.2528, 
			 "cosmo_polarized_energy": -16.43, 
			 "cosmo_cavitation_energy": 34.03, 
			 "cosmo_dispersion_energy": -24.37, 
			 "cosmo_repulsion_energy": 1.91, 
			 "cosmo_total_nonelectrostatic_energy": 11.58, 
			 "SMD_solvation_energy": 5.15 
		},
		"coords": [
			{
				"x": 1.7736532784,
				"y": -0.9722896524,
				"z": 2.5215297598,
				"element": "O" 
			},
			{
				"x": 2.2353599164,
				"y": 0.1072324642,
				"z": 1.8320765925,
				"element": "C" 
			},
			{
				"x": 3.2796976921,
				"y": 0.0772853336,
				"z": 1.2225053644,
				"element": "O" 
			},
			{
				"x": 1.3446076,
				"y": 1.3234324813,
				"z": 2.0497116734,
				"element": "C" 
			},
			{
				"x": 1.7834860151,
				"y": 2.5285778397,
				"z": 1.1831805306,
				"element": "C" 
			},
			{
				"x": 0.9593673971,
				"y": 2.6633784975,
				"z": -0.1019230966,
				"element": "C" 
			},
			{
				"x": -0.5497197072,
				"y": 2.8409257887,
				"z": 0.199417216,
				"element": "C" 
			},
			{
				"x": -0.9499567939,
				"y": 2.2881340997,
				"z": 1.5847720121,
				"element": "C" 
			},
			{
				"x": -0.182692746,
				"y": 0.9972386821,
				"z": 1.9646034614,
				"element": "C" 
			},
			{
				"x": -0.507270073,
				"y": -0.1241941513,
				"z": 0.9689908881,
				"element": "C" 
			},
			{
				"x": 0.1871986279,
				"y": -0.3418331145,
				"z": -0.0260799251,
				"element": "O" 
			},
			{
				"x": -1.6330550254,
				"y": -0.8571366474,
				"z": 1.2058335009,
				"element": "N" 
			},
			{
				"x": -1.9870257661,
				"y": -1.9614798848,
				"z": 0.2975194147,
				"element": "C" 
			},
			{
				"x": -2.9905679115,
				"y": -2.7913980756,
				"z": 1.1093644317,
				"element": "C" 
			},
			{
				"x": -3.6627117809,
				"y": -1.7463743207,
				"z": 2.0150949131,
				"element": "C" 
			},
			{
				"x": -2.5034718389,
				"y": -0.8102549703,
				"z": 2.3906247833,
				"element": "C" 
			},
			{
				"x": 2.3996901981,
				"y": -1.6902654297,
				"z": 2.3307807837,
				"element": "H" 
			},
			{
				"x": 1.5277879981,
				"y": 1.5858138668,
				"z": 3.1016042834,
				"element": "H" 
			},
			{
				"x": 1.6881680642,
				"y": 3.4442969435,
				"z": 1.7800110186,
				"element": "H" 
			},
			{
				"x": 2.8435342675,
				"y": 2.4120855143,
				"z": 0.9445277726,
				"element": "H" 
			},
			{
				"x": 1.329081872,
				"y": 3.5096135244,
				"z": -0.6916388576,
				"element": "H" 
			},
			{
				"x": 1.1059406447,
				"y": 1.7601255876,
				"z": -0.6977503308,
				"element": "H" 
			},
			{
				"x": -1.1352271678,
				"y": 2.3407526026,
				"z": -0.5795722703,
				"element": "H" 
			},
			{
				"x": -0.8287918108,
				"y": 3.9007664812,
				"z": 0.1621922837,
				"element": "H" 
			},
			{
				"x": -0.7372522331,
				"y": 3.0354631349,
				"z": 2.3592313001,
				"element": "H" 
			},
			{
				"x": -2.0312556979,
				"y": 2.1130348657,
				"z": 1.6210201258,
				"element": "H" 
			},
			{
				"x": -0.513307089,
				"y": 0.6771013613,
				"z": 2.9568856139,
				"element": "H" 
			},
			{
				"x": -2.4351639474,
				"y": -1.5644615248,
				"z": -0.622685427,
				"element": "H" 
			},
			{
				"x": -1.0865352349,
				"y": -2.5083745119,
				"z": 0.0085888975,
				"element": "H" 
			},
			{
				"x": -2.4602296259,
				"y": -3.5312781967,
				"z": 1.7198957483,
				"element": "H" 
			},
			{
				"x": -3.6991581613,
				"y": -3.3295692875,
				"z": 0.4743725466,
				"element": "H" 
			},
			{
				"x": -4.1487099428,
				"y": -2.1771583122,
				"z": 2.894634579,
				"element": "H" 
			},
			{
				"x": -4.4205727256,
				"y": -1.1907885098,
				"z": 1.4510446553,
				"element": "H" 
			},
			{
				"x": -2.8456700879,
				"y": 0.2070504092,
				"z": 2.6019638439,
				"element": "H" 
			},
			{
				"x": -1.9736282043,
				"y": -1.1797528887,
				"z": 3.2802719128,
				"element": "H" 
			}
		],
		 "valence_orbital": [ 
			{
				"type": "occ",
				"energy": -0.30027,
				"method": "rhf"
			},
			{
				"type": "occ",
				"energy": -0.29604,
				"method": "rhf"
			},
			{
				"type": "occ",
				"energy": -0.2607,
				"method": "rhf"
			},
			{
				"type": "occ",
				"energy": -0.23889,
				"method": "rhf"
			},
			{
				"type": "occ",
				"energy": -0.23499,
				"method": "rhf"
			},
			{
				"type": "unocc",
				"energy": 0.01781,
				"method": "rhf"
			},
			{
				"type": "unocc",
				"energy": 0.03488,
				"method": "rhf"
			},
			{
				"type": "unocc",
				"energy": 0.06616,
				"method": "rhf"
			},
			{
				"type": "unocc",
				"energy": 0.08478,
				"method": "rhf"
			},
			{
				"type": "unocc",
				"energy": 0.09116,
				"method": "rhf"
			}
		],
		"cosmo_sigma_profile": { 
			"-0.025": 0.0,
			"-0.024": 0.0,
			"-0.023": 0.0,
			"-0.022": 0.0,
			"-0.021": 0.0,
			"-0.02": 0.0,
			"-0.019": 0.0,
			"-0.018": 0.216308877964,
			"-0.017": 0.856449129014,
			"-0.016": 0.692499073874,
			"-0.015": 1.13044533767,
			"-0.014": 0.972609815848,
			"-0.013": 0.333237795419,
			"-0.012": 0.391451743196,
			"-0.011": 0.641306327442,
			"-0.01": 0.972917548806,
			"-0.009": 0.739479484597,
			"-0.008": 0.402074865502,
			"-0.007": 0.722582080194,
			"-0.006": 3.82417834865,
			"-0.005": 11.4732803802,
			"-0.004": 23.799652649,
			"-0.003": 37.1426452664,
			"-0.002": 36.1143827703,
			"-0.001": 33.337259966,
			"0.0": 28.7073369401,
			"0.001": 16.5285446662,
			"0.002": 9.89850844443,
			"0.003": 4.601289567,
			"0.004": 4.53943758567,
			"0.005": 3.76772751993,
			"0.006": 4.76777006125,
			"0.007": 5.02744206597,
			"0.008": 4.5264771237,
			"0.009": 4.24156434343,
			"0.01": 3.98149575442,
			"0.011": 5.38558185559,
			"0.012": 7.19366909091,
			"0.013": 2.68526422033,
			"0.014": 2.63368348492,
			"0.015": 0.838366887085,
			"0.016": 0.0,
			"0.017": 0.0,
			"0.018": 0.0,
			"0.019": 0.0,
			"0.02": 0.0,
			"0.021": 0.0,
			"0.022": 0.0,
			"0.023": 0.0,
			"0.024": 0.0,
			"0.025": 0.0
		}
	}
}
