{
	 "smiles": "NNC(=S)NC1=C(Cl)C=CC(=C1)S(=O)(=O)N1CCOCC1", 
	 "Tm": 455.15, 
	 "num_atms": 36, 
	 "gaussian": { 
		 "optdone": 1, 
		 "sigma_profile": "yes", 
		 "theory": "DFT", 
		 "functional": "B3LYP", 
		 "basiset": "6-31G**", 
		 "properties": { 
			 "R2extent": 9867.6844, 
			 "electric_dipole_moment_norm": 3.93371809107, 
			 "electric_quadrupole_moment_norm": 19.0626577575, 
			 "total_energy": -2129.33633694, 
			 "HOMO_LUMO_gap": 0.16043, 
			 "cosmo_polarized_energy": -23.66, 
			 "cosmo_cavitation_energy": 43.55, 
			 "cosmo_dispersion_energy": -31.41, 
			 "cosmo_repulsion_energy": 2.37, 
			 "cosmo_total_nonelectrostatic_energy": 14.51, 
			 "SMD_solvation_energy": 4.9 
		},
		"coords": [
			{
				"x": 2.6526213356,
				"y": -2.1136008378,
				"z": 3.499702187,
				"element": "N" 
			},
			{
				"x": 2.5834851321,
				"y": -1.4480333683,
				"z": 2.2622040613,
				"element": "N" 
			},
			{
				"x": 3.5435903756,
				"y": -0.586275117,
				"z": 1.8329028594,
				"element": "C" 
			},
			{
				"x": 4.8460052424,
				"y": -0.1081803231,
				"z": 2.775927169,
				"element": "S" 
			},
			{
				"x": 3.4237650077,
				"y": -0.1211778009,
				"z": 0.5375528193,
				"element": "N" 
			},
			{
				"x": 2.3569440797,
				"y": -0.1822624394,
				"z": -0.3675836551,
				"element": "C" 
			},
			{
				"x": 2.6194677905,
				"y": -0.152026371,
				"z": -1.7541470192,
				"element": "C" 
			},
			{
				"x": 4.2767260921,
				"y": -0.0787832913,
				"z": -2.3208263972,
				"element": "Cl" 
			},
			{
				"x": 1.591156612,
				"y": -0.1765002364,
				"z": -2.695019283,
				"element": "C" 
			},
			{
				"x": 0.2639579013,
				"y": -0.2333915109,
				"z": -2.2809863385,
				"element": "C" 
			},
			{
				"x": -0.0052906629,
				"y": -0.240290259,
				"z": -0.9121036358,
				"element": "C" 
			},
			{
				"x": 1.0103525479,
				"y": -0.2068555705,
				"z": 0.0381109199,
				"element": "C" 
			},
			{
				"x": -1.7145189427,
				"y": -0.2870634214,
				"z": -0.3497525622,
				"element": "S" 
			},
			{
				"x": -2.4766873124,
				"y": -1.0971450306,
				"z": -1.3050077944,
				"element": "O" 
			},
			{
				"x": -1.6751740957,
				"y": -0.6240396051,
				"z": 1.078935136,
				"element": "O" 
			},
			{
				"x": -2.2110890529,
				"y": 1.3086928275,
				"z": -0.5529518391,
				"element": "N" 
			},
			{
				"x": -3.4845380089,
				"y": 1.5788812021,
				"z": -1.2585042185,
				"element": "C" 
			},
			{
				"x": -4.4649925795,
				"y": 2.283282908,
				"z": -0.3264245367,
				"element": "C" 
			},
			{
				"x": -3.951461814,
				"y": 3.5145960761,
				"z": 0.1829483714,
				"element": "O" 
			},
			{
				"x": -2.5329833862,
				"y": 3.5855191758,
				"z": 0.2527135535,
				"element": "C" 
			},
			{
				"x": -1.8859011815,
				"y": 2.236110261,
				"z": 0.5518476739,
				"element": "C" 
			},
			{
				"x": 3.6414230889,
				"y": -2.2863405393,
				"z": 3.6929645257,
				"element": "H" 
			},
			{
				"x": 2.3457355571,
				"y": -1.4581270436,
				"z": 4.2179089429,
				"element": "H" 
			},
			{
				"x": 2.0105430061,
				"y": -1.9299948061,
				"z": 1.5816677956,
				"element": "H" 
			},
			{
				"x": 4.266640069,
				"y": 0.3354009194,
				"z": 0.2135146233,
				"element": "H" 
			},
			{
				"x": 1.8412602169,
				"y": -0.165618766,
				"z": -3.7499168829,
				"element": "H" 
			},
			{
				"x": -0.5428727756,
				"y": -0.2851152322,
				"z": -3.0026378786,
				"element": "H" 
			},
			{
				"x": 0.7517918465,
				"y": -0.196956804,
				"z": 1.0894117008,
				"element": "H" 
			},
			{
				"x": -3.2801233111,
				"y": 2.2075134265,
				"z": -2.1338091637,
				"element": "H" 
			},
			{
				"x": -3.9040930007,
				"y": 0.636700104,
				"z": -1.6139161381,
				"element": "H" 
			},
			{
				"x": -5.3868692115,
				"y": 2.5213268896,
				"z": -0.8682242201,
				"element": "H" 
			},
			{
				"x": -4.7264660121,
				"y": 1.6120191563,
				"z": 0.5052626789,
				"element": "H" 
			},
			{
				"x": -2.1187183879,
				"y": 3.9902417579,
				"z": -0.6838057616,
				"element": "H" 
			},
			{
				"x": -2.2903740675,
				"y": 4.2889632741,
				"z": 1.0552454232,
				"element": "H" 
			},
			{
				"x": -2.2443683004,
				"y": 1.851099691,
				"z": 1.5136596776,
				"element": "H" 
			},
			{
				"x": -0.7985437974,
				"y": 2.3581307048,
				"z": 0.6187372061,
				"element": "H" 
			}
		],
		 "valence_orbital": [ 
			{
				"type": "occ",
				"energy": -0.26722,
				"method": "rhf"
			},
			{
				"type": "occ",
				"energy": -0.26135,
				"method": "rhf"
			},
			{
				"type": "occ",
				"energy": -0.2545,
				"method": "rhf"
			},
			{
				"type": "occ",
				"energy": -0.23124,
				"method": "rhf"
			},
			{
				"type": "occ",
				"energy": -0.22309,
				"method": "rhf"
			},
			{
				"type": "unocc",
				"energy": -0.06266,
				"method": "rhf"
			},
			{
				"type": "unocc",
				"energy": -0.05337,
				"method": "rhf"
			},
			{
				"type": "unocc",
				"energy": -0.0055,
				"method": "rhf"
			},
			{
				"type": "unocc",
				"energy": 0.00208,
				"method": "rhf"
			},
			{
				"type": "unocc",
				"energy": 0.04748,
				"method": "rhf"
			}
		],
		"cosmo_sigma_profile": { 
			"-0.025": 0.0,
			"-0.024": 0.0,
			"-0.023": 0.0,
			"-0.022": 0.0,
			"-0.021": 0.0,
			"-0.02": 0.0,
			"-0.019": 0.0,
			"-0.018": 0.0,
			"-0.017": 0.0,
			"-0.016": 0.0,
			"-0.015": 0.265850143536,
			"-0.014": 0.920170909043,
			"-0.013": 1.14471059934,
			"-0.012": 2.21074150176,
			"-0.011": 3.45913125594,
			"-0.01": 3.37017080492,
			"-0.009": 5.78183147942,
			"-0.008": 6.76253576984,
			"-0.007": 10.0436784354,
			"-0.006": 17.1992345629,
			"-0.005": 32.047590561,
			"-0.004": 30.1403379458,
			"-0.003": 25.463580174,
			"-0.002": 24.7290760792,
			"-0.001": 23.8400927387,
			"0.0": 23.4999439351,
			"0.001": 17.4466380614,
			"0.002": 16.7035729498,
			"0.003": 15.1014356839,
			"0.004": 10.3869768813,
			"0.005": 8.61164148885,
			"0.006": 7.11529200712,
			"0.007": 9.37677680833,
			"0.008": 9.35541097213,
			"0.009": 12.1136049107,
			"0.01": 15.7604853259,
			"0.011": 10.1197179377,
			"0.012": 2.81408929393,
			"0.013": 3.06677049818,
			"0.014": 0.556129642707,
			"0.015": 0.63136306692,
			"0.016": 0.17539013214,
			"0.017": 0.0,
			"0.018": 0.0,
			"0.019": 0.0,
			"0.02": 0.0,
			"0.021": 0.0,
			"0.022": 0.0,
			"0.023": 0.0,
			"0.024": 0.0,
			"0.025": 0.0
		}
	}
}
