{
	 "smiles": "O=C=NC1=CC=CC2=C(C=CC=C12)N=C=O", 
	 "Tm": 403.15, 
	 "num_atms": 22, 
	 "gaussian": { 
		 "optdone": 1, 
		 "sigma_profile": "yes", 
		 "theory": "DFT", 
		 "functional": "B3LYP", 
		 "basiset": "6-31G**", 
		 "properties": { 
			 "R2extent": 4452.1704, 
			 "electric_dipole_moment_norm": 0.000678232998313, 
			 "electric_quadrupole_moment_norm": 21.3973828748, 
			 "total_energy": -720.853777233, 
			 "HOMO_LUMO_gap": 0.15521, 
			 "cosmo_polarized_energy": -6.89, 
			 "cosmo_cavitation_energy": 29.37, 
			 "cosmo_dispersion_energy": -20.82, 
			 "cosmo_repulsion_energy": 1.6, 
			 "cosmo_total_nonelectrostatic_energy": 10.14, 
			 "SMD_solvation_energy": 9.79 
		},
		"coords": [
			{
				"x": -1.267300954,
				"y": 3.2603150598,
				"z": -3.8448195009,
				"element": "O" 
			},
			{
				"x": -1.0319733245,
				"y": 2.6284597577,
				"z": -2.878673924,
				"element": "C" 
			},
			{
				"x": -0.6642229746,
				"y": 2.0454872314,
				"z": -1.8845748772,
				"element": "N" 
			},
			{
				"x": -1.1168498103,
				"y": 1.0880414977,
				"z": -0.9722919243,
				"element": "C" 
			},
			{
				"x": -2.3673248008,
				"y": 0.5071585139,
				"z": -1.0844302161,
				"element": "C" 
			},
			{
				"x": -2.7897843957,
				"y": -0.4559966146,
				"z": -0.1444574623,
				"element": "C" 
			},
			{
				"x": -1.9697119224,
				"y": -0.8328684983,
				"z": 0.8954216813,
				"element": "C" 
			},
			{
				"x": -0.6823269214,
				"y": -0.2547786416,
				"z": 1.0361755324,
				"element": "C" 
			},
			{
				"x": 0.2010614637,
				"y": -0.6178823079,
				"z": 2.1014306346,
				"element": "C" 
			},
			{
				"x": 1.4515654225,
				"y": -0.0370505646,
				"z": 2.2135288266,
				"element": "C" 
			},
			{
				"x": 1.8740321886,
				"y": 0.9260889349,
				"z": 1.2735435878,
				"element": "C" 
			},
			{
				"x": 1.0539285739,
				"y": 1.3030132175,
				"z": 0.2337083285,
				"element": "C" 
			},
			{
				"x": -0.2334747656,
				"y": 0.724954467,
				"z": 0.0929783349,
				"element": "C" 
			},
			{
				"x": -0.2515465182,
				"y": -1.5752712592,
				"z": 3.0137467589,
				"element": "N" 
			},
			{
				"x": 0.1163209346,
				"y": -2.1593357761,
				"z": 4.007130404,
				"element": "C" 
			},
			{
				"x": 0.3517729602,
				"y": -2.7919998814,
				"z": 4.972727466,
				"element": "O" 
			},
			{
				"x": -3.0221760329,
				"y": 0.7969426167,
				"z": -1.9005484081,
				"element": "H" 
			},
			{
				"x": -3.7748387051,
				"y": -0.9000344376,
				"z": -0.2501374346,
				"element": "H" 
			},
			{
				"x": -2.2926226249,
				"y": -1.5728442308,
				"z": 1.6187461651,
				"element": "H" 
			},
			{
				"x": 2.1064248102,
				"y": -0.3268701019,
				"z": 3.0296265521,
				"element": "H" 
			},
			{
				"x": 2.8591191465,
				"y": 1.370066547,
				"z": 1.3791737449,
				"element": "H" 
			},
			{
				"x": 1.3768282501,
				"y": 2.0430044703,
				"z": -0.4896042695,
				"element": "H" 
			}
		],
		 "valence_orbital": [ 
			{
				"type": "occ",
				"energy": -0.31865,
				"method": "rhf"
			},
			{
				"type": "occ",
				"energy": -0.30946,
				"method": "rhf"
			},
			{
				"type": "occ",
				"energy": -0.26258,
				"method": "rhf"
			},
			{
				"type": "occ",
				"energy": -0.26244,
				"method": "rhf"
			},
			{
				"type": "occ",
				"energy": -0.21694,
				"method": "rhf"
			},
			{
				"type": "unocc",
				"energy": -0.06173,
				"method": "rhf"
			},
			{
				"type": "unocc",
				"energy": -0.02646,
				"method": "rhf"
			},
			{
				"type": "unocc",
				"energy": -0.00614,
				"method": "rhf"
			},
			{
				"type": "unocc",
				"energy": 0.00507,
				"method": "rhf"
			},
			{
				"type": "unocc",
				"energy": 0.00739,
				"method": "rhf"
			}
		],
		"cosmo_sigma_profile": { 
			"-0.025": 0.0,
			"-0.024": 0.0,
			"-0.023": 0.0,
			"-0.022": 0.0,
			"-0.021": 0.0,
			"-0.02": 0.0,
			"-0.019": 0.0,
			"-0.018": 0.0,
			"-0.017": 0.0,
			"-0.016": 0.0,
			"-0.015": 0.0,
			"-0.014": 0.0,
			"-0.013": 0.0,
			"-0.012": 0.0,
			"-0.011": 0.0,
			"-0.01": 0.0,
			"-0.009": 0.228667711959,
			"-0.008": 4.64421315563,
			"-0.007": 7.13066183363,
			"-0.006": 11.938968338,
			"-0.005": 14.6022849007,
			"-0.004": 14.4644453287,
			"-0.003": 18.2719232343,
			"-0.002": 15.8395862854,
			"-0.001": 16.3302539044,
			"0.0": 17.3581892758,
			"0.001": 24.6427296712,
			"0.002": 31.5394088058,
			"0.003": 21.2823294058,
			"0.004": 12.6075546208,
			"0.005": 5.18254317854,
			"0.006": 5.19810984885,
			"0.007": 14.4721926028,
			"0.008": 4.17580638493,
			"0.009": 0.0,
			"0.01": 0.0,
			"0.011": 0.0,
			"0.012": 0.0,
			"0.013": 0.0,
			"0.014": 0.0,
			"0.015": 0.0,
			"0.016": 0.0,
			"0.017": 0.0,
			"0.018": 0.0,
			"0.019": 0.0,
			"0.02": 0.0,
			"0.021": 0.0,
			"0.022": 0.0,
			"0.023": 0.0,
			"0.024": 0.0,
			"0.025": 0.0
		}
	}
}
