{
	 "smiles": "CNS(=O)(=O)C1=C(C)C=CC(Br)=C1", 
	 "Tm": 379.15, 
	 "num_atms": 23, 
	 "gaussian": { 
		 "optdone": 1, 
		 "sigma_profile": "yes", 
		 "theory": "DFT", 
		 "functional": "B3LYP", 
		 "basiset": "6-31G**", 
		 "properties": { 
			 "R2extent": 5098.2466, 
			 "electric_dipole_moment_norm": 4.3778355531, 
			 "electric_quadrupole_moment_norm": 10.8001439301, 
			 "total_energy": -3485.60266362, 
			 "HOMO_LUMO_gap": 0.20279, 
			 "cosmo_polarized_energy": -12.74, 
			 "cosmo_cavitation_energy": 29.84, 
			 "cosmo_dispersion_energy": -22.31, 
			 "cosmo_repulsion_energy": 1.73, 
			 "cosmo_total_nonelectrostatic_energy": 9.26, 
			 "SMD_solvation_energy": 3.52 
		},
		"coords": [
			{
				"x": -1.9895790465,
				"y": -2.8862620893,
				"z": -0.7629233628,
				"element": "C" 
			},
			{
				"x": -0.9438452945,
				"y": -2.4444261638,
				"z": 0.1706555601,
				"element": "N" 
			},
			{
				"x": 0.1660753659,
				"y": -1.3006040162,
				"z": -0.4051263206,
				"element": "S" 
			},
			{
				"x": 1.3344384139,
				"y": -1.4341962514,
				"z": 0.4712508032,
				"element": "O" 
			},
			{
				"x": 0.3088618762,
				"y": -1.409583564,
				"z": -1.8620646107,
				"element": "O" 
			},
			{
				"x": -0.6820715953,
				"y": 0.2549994629,
				"z": -0.069791197,
				"element": "C" 
			},
			{
				"x": -0.9466538335,
				"y": 0.6916913161,
				"z": 1.2448641068,
				"element": "C" 
			},
			{
				"x": -0.5845863564,
				"y": -0.0975073477,
				"z": 2.4776901114,
				"element": "C" 
			},
			{
				"x": -1.5847311583,
				"y": 1.9325269893,
				"z": 1.3713762396,
				"element": "C" 
			},
			{
				"x": -1.940469817,
				"y": 2.707295575,
				"z": 0.2675698862,
				"element": "C" 
			},
			{
				"x": -1.6549563365,
				"y": 2.2400050125,
				"z": -1.0118013133,
				"element": "C" 
			},
			{
				"x": -2.1330480986,
				"y": 3.2860756946,
				"z": -2.5347424886,
				"element": "Br" 
			},
			{
				"x": -1.022672785,
				"y": 1.0134859304,
				"z": -1.1921449004,
				"element": "C" 
			},
			{
				"x": -2.6121533688,
				"y": -3.6178737376,
				"z": -0.2425684532,
				"element": "H" 
			},
			{
				"x": -2.6207208607,
				"y": -2.0330862064,
				"z": -1.0236907035,
				"element": "H" 
			},
			{
				"x": -1.5934067815,
				"y": -3.3264824163,
				"z": -1.6840212707,
				"element": "H" 
			},
			{
				"x": -0.3930816778,
				"y": -3.2053682033,
				"z": 0.5631399674,
				"element": "H" 
			},
			{
				"x": -1.0630409796,
				"y": -1.0815806108,
				"z": 2.4630723426,
				"element": "H" 
			},
			{
				"x": -0.9050714616,
				"y": 0.4341158265,
				"z": 3.3766736159,
				"element": "H" 
			},
			{
				"x": 0.4934354306,
				"y": -0.2695305452,
				"z": 2.5317151454,
				"element": "H" 
			},
			{
				"x": -1.8076871638,
				"y": 2.3045887879,
				"z": 2.3673949237,
				"element": "H" 
			},
			{
				"x": -2.4323164456,
				"y": 3.6639107712,
				"z": 0.4031055172,
				"element": "H" 
			},
			{
				"x": -0.7862180256,
				"y": 0.6409057855,
				"z": -2.1809335987,
				"element": "H" 
			}
		],
		 "valence_orbital": [ 
			{
				"type": "occ",
				"energy": -0.30569,
				"method": "rhf"
			},
			{
				"type": "occ",
				"energy": -0.29402,
				"method": "rhf"
			},
			{
				"type": "occ",
				"energy": -0.28951,
				"method": "rhf"
			},
			{
				"type": "occ",
				"energy": -0.27125,
				"method": "rhf"
			},
			{
				"type": "occ",
				"energy": -0.25009,
				"method": "rhf"
			},
			{
				"type": "unocc",
				"energy": -0.0473,
				"method": "rhf"
			},
			{
				"type": "unocc",
				"energy": -0.02573,
				"method": "rhf"
			},
			{
				"type": "unocc",
				"energy": -0.00323,
				"method": "rhf"
			},
			{
				"type": "unocc",
				"energy": 0.06105,
				"method": "rhf"
			},
			{
				"type": "unocc",
				"energy": 0.08199,
				"method": "rhf"
			}
		],
		"cosmo_sigma_profile": { 
			"-0.025": 0.0,
			"-0.024": 0.0,
			"-0.023": 0.0,
			"-0.022": 0.0,
			"-0.021": 0.0,
			"-0.02": 0.0,
			"-0.019": 0.0,
			"-0.018": 0.0,
			"-0.017": 0.0,
			"-0.016": 0.0,
			"-0.015": 0.321897483052,
			"-0.014": 1.46356929543,
			"-0.013": 0.461937840549,
			"-0.012": 1.23427516209,
			"-0.011": 1.42845718169,
			"-0.01": 1.06193765791,
			"-0.009": 0.822633092133,
			"-0.008": 2.65365002529,
			"-0.007": 7.12985558119,
			"-0.006": 10.0504081508,
			"-0.005": 13.9244998143,
			"-0.004": 15.4294927142,
			"-0.003": 20.1484418377,
			"-0.002": 19.5617584742,
			"-0.001": 20.6748781663,
			"0.0": 20.4030552748,
			"0.001": 24.0932014179,
			"0.002": 16.9768807324,
			"0.003": 11.9295359941,
			"0.004": 15.9178204568,
			"0.005": 5.82682780134,
			"0.006": 2.2385401174,
			"0.007": 2.91159113994,
			"0.008": 3.68407654815,
			"0.009": 3.69105161349,
			"0.01": 6.78705616019,
			"0.011": 7.24584079527,
			"0.012": 2.66276160545,
			"0.013": 0.0,
			"0.014": 0.0,
			"0.015": 0.0,
			"0.016": 0.0,
			"0.017": 0.0,
			"0.018": 0.0,
			"0.019": 0.0,
			"0.02": 0.0,
			"0.021": 0.0,
			"0.022": 0.0,
			"0.023": 0.0,
			"0.024": 0.0,
			"0.025": 0.0
		}
	}
}
