{
	 "smiles": "CCCCCCOC(=O)CCC", 
	 "Tm": 195.15, 
	 "num_atms": 32, 
	 "gaussian": { 
		 "optdone": 1, 
		 "sigma_profile": "yes", 
		 "theory": "DFT", 
		 "functional": "B3LYP", 
		 "basiset": "6-31G**", 
		 "properties": { 
			 "R2extent": 4358.8405, 
			 "electric_dipole_moment_norm": 1.64019062612, 
			 "electric_quadrupole_moment_norm": 7.68273615127, 
			 "total_energy": -543.605851707, 
			 "HOMO_LUMO_gap": 0.28281, 
			 "cosmo_polarized_energy": -6.0, 
			 "cosmo_cavitation_energy": 33.51, 
			 "cosmo_dispersion_energy": -23.3, 
			 "cosmo_repulsion_energy": 1.94, 
			 "cosmo_total_nonelectrostatic_energy": 12.15, 
			 "SMD_solvation_energy": 6.1 
		},
		"coords": [
			{
				"x": 0.7137168915,
				"y": 1.2126396385,
				"z": 3.8079771972,
				"element": "C" 
			},
			{
				"x": 1.2796834314,
				"y": 1.831658652,
				"z": 2.5241856012,
				"element": "C" 
			},
			{
				"x": 0.3407792656,
				"y": 1.7530998904,
				"z": 1.3079140813,
				"element": "C" 
			},
			{
				"x": 0.0779025392,
				"y": 0.326947091,
				"z": 0.8018682022,
				"element": "C" 
			},
			{
				"x": -0.8622203359,
				"y": 0.244564205,
				"z": -0.4123627007,
				"element": "C" 
			},
			{
				"x": -0.3061252395,
				"y": 0.8350606416,
				"z": -1.7065074905,
				"element": "C" 
			},
			{
				"x": 0.9331927863,
				"y": 0.1943784287,
				"z": -2.0987174159,
				"element": "O" 
			},
			{
				"x": 0.8282933769,
				"y": -0.924161436,
				"z": -2.8536643602,
				"element": "C" 
			},
			{
				"x": -0.2286760159,
				"y": -1.4093467092,
				"z": -3.2004976525,
				"element": "O" 
			},
			{
				"x": 2.2020415525,
				"y": -1.4502010105,
				"z": -3.2292762666,
				"element": "C" 
			},
			{
				"x": 2.1774289185,
				"y": -2.8787758683,
				"z": -3.7829879074,
				"element": "C" 
			},
			{
				"x": 1.8316271276,
				"y": -3.9359909486,
				"z": -2.7292221069,
				"element": "C" 
			},
			{
				"x": -0.2389761207,
				"y": 1.6799110865,
				"z": 4.0839814231,
				"element": "H" 
			},
			{
				"x": 1.4041839071,
				"y": 1.3481624139,
				"z": 4.6469882756,
				"element": "H" 
			},
			{
				"x": 0.5361822593,
				"y": 0.1375709251,
				"z": 3.702231964,
				"element": "H" 
			},
			{
				"x": 2.2334691581,
				"y": 1.3473003539,
				"z": 2.2736567792,
				"element": "H" 
			},
			{
				"x": 1.5175440861,
				"y": 2.8860454023,
				"z": 2.7143679342,
				"element": "H" 
			},
			{
				"x": 0.7762068743,
				"y": 2.3534717568,
				"z": 0.4988816924,
				"element": "H" 
			},
			{
				"x": -0.617589713,
				"y": 2.2306288873,
				"z": 1.5604032399,
				"element": "H" 
			},
			{
				"x": -0.3592902644,
				"y": -0.2730353547,
				"z": 1.6086682956,
				"element": "H" 
			},
			{
				"x": 1.0335442002,
				"y": -0.1498979548,
				"z": 0.5481540627,
				"element": "H" 
			},
			{
				"x": -1.8024675659,
				"y": 0.7688595107,
				"z": -0.1910054021,
				"element": "H" 
			},
			{
				"x": -1.1292777564,
				"y": -0.7999707074,
				"z": -0.6062555195,
				"element": "H" 
			},
			{
				"x": -1.0305891352,
				"y": 0.7270828127,
				"z": -2.5170551167,
				"element": "H" 
			},
			{
				"x": -0.0430517168,
				"y": 1.8896118604,
				"z": -1.5949427366,
				"element": "H" 
			},
			{
				"x": 2.8561159515,
				"y": -1.3663856479,
				"z": -2.3536726048,
				"element": "H" 
			},
			{
				"x": 2.6109557271,
				"y": -0.7533873358,
				"z": -3.9733021203,
				"element": "H" 
			},
			{
				"x": 1.4505035106,
				"y": -2.9249895907,
				"z": -4.6007109654,
				"element": "H" 
			},
			{
				"x": 3.1605230699,
				"y": -3.0970819838,
				"z": -4.2168433314,
				"element": "H" 
			},
			{
				"x": 0.8339344411,
				"y": -3.7621760391,
				"z": -2.3160981389,
				"element": "H" 
			},
			{
				"x": 1.8426146472,
				"y": -4.9408499706,
				"z": -3.163346049,
				"element": "H" 
			},
			{
				"x": 2.5516201418,
				"y": -3.9235429992,
				"z": -1.9023108634,
				"element": "H" 
			}
		],
		 "valence_orbital": [ 
			{
				"type": "occ",
				"energy": -0.32137,
				"method": "rhf"
			},
			{
				"type": "occ",
				"energy": -0.31873,
				"method": "rhf"
			},
			{
				"type": "occ",
				"energy": -0.31038,
				"method": "rhf"
			},
			{
				"type": "occ",
				"energy": -0.29058,
				"method": "rhf"
			},
			{
				"type": "occ",
				"energy": -0.26694,
				"method": "rhf"
			},
			{
				"type": "unocc",
				"energy": 0.01587,
				"method": "rhf"
			},
			{
				"type": "unocc",
				"energy": 0.0841,
				"method": "rhf"
			},
			{
				"type": "unocc",
				"energy": 0.09608,
				"method": "rhf"
			},
			{
				"type": "unocc",
				"energy": 0.11157,
				"method": "rhf"
			},
			{
				"type": "unocc",
				"energy": 0.11373,
				"method": "rhf"
			}
		],
		"cosmo_sigma_profile": { 
			"-0.025": 0.0,
			"-0.024": 0.0,
			"-0.023": 0.0,
			"-0.022": 0.0,
			"-0.021": 0.0,
			"-0.02": 0.0,
			"-0.019": 0.0,
			"-0.018": 0.0,
			"-0.017": 0.0,
			"-0.016": 0.0,
			"-0.015": 0.0,
			"-0.014": 0.0,
			"-0.013": 0.0,
			"-0.012": 0.0,
			"-0.011": 0.0,
			"-0.01": 0.0,
			"-0.009": 0.0,
			"-0.008": 0.0,
			"-0.007": 0.00984388279666,
			"-0.006": 2.16348472471,
			"-0.005": 6.09050615533,
			"-0.004": 10.4625499216,
			"-0.003": 25.5315859401,
			"-0.002": 41.4308663008,
			"-0.001": 45.3098892512,
			"0.0": 44.7579498047,
			"0.001": 37.1927228047,
			"0.002": 14.8413678457,
			"0.003": 4.245700409,
			"0.004": 3.88847694469,
			"0.005": 3.11157443997,
			"0.006": 2.82544106068,
			"0.007": 2.2131032382,
			"0.008": 3.58735941647,
			"0.009": 2.25740461448,
			"0.01": 1.54019260364,
			"0.011": 2.47040064863,
			"0.012": 3.70523122617,
			"0.013": 0.984992694398,
			"0.014": 0.0,
			"0.015": 0.0,
			"0.016": 0.0,
			"0.017": 0.0,
			"0.018": 0.0,
			"0.019": 0.0,
			"0.02": 0.0,
			"0.021": 0.0,
			"0.022": 0.0,
			"0.023": 0.0,
			"0.024": 0.0,
			"0.025": 0.0
		}
	}
}
