{
	 "smiles": "CC12C3CC(C(=C(C4=CC=CC=C4)C4=CC=CC=C4)C13C1=CC=CC=C1)C2(C)C", 
	 "Tm": 437.15, 
	 "num_atms": 57, 
	 "gaussian": { 
		 "optdone": 1, 
		 "sigma_profile": "yes", 
		 "theory": "DFT", 
		 "functional": "B3LYP", 
		 "basiset": "6-31G**", 
		 "properties": { 
			 "R2extent": 10074.7067, 
			 "electric_dipole_moment_norm": 0.868495883698, 
			 "electric_quadrupole_moment_norm": 5.6693550418, 
			 "total_energy": -1121.93387522, 
			 "HOMO_LUMO_gap": 0.18736, 
			 "cosmo_polarized_energy": -8.58, 
			 "cosmo_cavitation_energy": 55.07, 
			 "cosmo_dispersion_energy": -34.47, 
			 "cosmo_repulsion_energy": 2.6, 
			 "cosmo_total_nonelectrostatic_energy": 23.2, 
			 "SMD_solvation_energy": 8.58 
		},
		"coords": [
			{
				"x": 1.839681819,
				"y": -1.6313745061,
				"z": -2.5306017474,
				"element": "C" 
			},
			{
				"x": 0.6363679099,
				"y": -1.6474239404,
				"z": -1.6218659002,
				"element": "C" 
			},
			{
				"x": -0.7400497423,
				"y": -1.244337366,
				"z": -2.0892514048,
				"element": "C" 
			},
			{
				"x": -1.7647535182,
				"y": -2.0354796677,
				"z": -1.2834480876,
				"element": "C" 
			},
			{
				"x": -0.9067123427,
				"y": -2.1684120208,
				"z": 0.006583124,
				"element": "C" 
			},
			{
				"x": -0.6074070468,
				"y": -0.6898508692,
				"z": 0.2510992357,
				"element": "C" 
			},
			{
				"x": -0.9454044565,
				"y": 0.0446607267,
				"z": 1.334445407,
				"element": "C" 
			},
			{
				"x": -1.5130854771,
				"y": -0.5932707101,
				"z": 2.5672616015,
				"element": "C" 
			},
			{
				"x": -0.8609969918,
				"y": -1.6412506855,
				"z": 3.2376905719,
				"element": "C" 
			},
			{
				"x": -1.4092377946,
				"y": -2.2113004421,
				"z": 4.3884919989,
				"element": "C" 
			},
			{
				"x": -2.619735518,
				"y": -1.7410694434,
				"z": 4.8981351008,
				"element": "C" 
			},
			{
				"x": -3.2730064171,
				"y": -0.6885728369,
				"z": 4.2518968427,
				"element": "C" 
			},
			{
				"x": -2.7216570526,
				"y": -0.1169152538,
				"z": 3.1068716097,
				"element": "C" 
			},
			{
				"x": -0.8516889111,
				"y": 1.5363321585,
				"z": 1.4036988201,
				"element": "C" 
			},
			{
				"x": -1.513468992,
				"y": 2.3559578288,
				"z": 0.4771149976,
				"element": "C" 
			},
			{
				"x": -1.4549490859,
				"y": 3.7464712277,
				"z": 0.5803538167,
				"element": "C" 
			},
			{
				"x": -0.7377957875,
				"y": 4.3440699611,
				"z": 1.6172278124,
				"element": "C" 
			},
			{
				"x": -0.0866160948,
				"y": 3.5406344286,
				"z": 2.5566300084,
				"element": "C" 
			},
			{
				"x": -0.1520955032,
				"y": 2.152295525,
				"z": 2.4556776019,
				"element": "C" 
			},
			{
				"x": -0.0055192066,
				"y": -0.331658212,
				"z": -1.0895759863,
				"element": "C" 
			},
			{
				"x": 0.5943361836,
				"y": 0.9817002526,
				"z": -1.4742455457,
				"element": "C" 
			},
			{
				"x": 1.7054355693,
				"y": 1.4775370425,
				"z": -0.7725221079,
				"element": "C" 
			},
			{
				"x": 2.3029549997,
				"y": 2.682947231,
				"z": -1.1340384557,
				"element": "C" 
			},
			{
				"x": 1.8096009575,
				"y": 3.4160247109,
				"z": -2.2163891638,
				"element": "C" 
			},
			{
				"x": 0.7120702956,
				"y": 2.9325508551,
				"z": -2.9281158428,
				"element": "C" 
			},
			{
				"x": 0.1106718878,
				"y": 1.7277264761,
				"z": -2.557926282,
				"element": "C" 
			},
			{
				"x": 0.4566263401,
				"y": -2.7192585161,
				"z": -0.5276737355,
				"element": "C" 
			},
			{
				"x": 0.3688999679,
				"y": -4.1455086758,
				"z": -1.0988381567,
				"element": "C" 
			},
			{
				"x": 1.5727758064,
				"y": -2.6794177249,
				"z": 0.5277436627,
				"element": "C" 
			},
			{
				"x": 1.9014072147,
				"y": -2.5596886816,
				"z": -3.1104274961,
				"element": "H" 
			},
			{
				"x": 1.7927978695,
				"y": -0.7991544337,
				"z": -3.237839563,
				"element": "H" 
			},
			{
				"x": 2.7725302753,
				"y": -1.5264715874,
				"z": -1.9650874938,
				"element": "H" 
			},
			{
				"x": -0.9164213029,
				"y": -0.9241006066,
				"z": -3.1105659785,
				"element": "H" 
			},
			{
				"x": -2.0363027124,
				"y": -2.9939556998,
				"z": -1.7349557632,
				"element": "H" 
			},
			{
				"x": -2.6840305004,
				"y": -1.4699686864,
				"z": -1.0967852729,
				"element": "H" 
			},
			{
				"x": -1.3584481344,
				"y": -2.717695614,
				"z": 0.8303557616,
				"element": "H" 
			},
			{
				"x": 0.0911424975,
				"y": -1.9996627921,
				"z": 2.8614735573,
				"element": "H" 
			},
			{
				"x": -0.8828195005,
				"y": -3.018135426,
				"z": 4.8913971991,
				"element": "H" 
			},
			{
				"x": -3.0462090242,
				"y": -2.1832174354,
				"z": 5.794061059,
				"element": "H" 
			},
			{
				"x": -4.2137637216,
				"y": -0.3101000423,
				"z": 4.6424305201,
				"element": "H" 
			},
			{
				"x": -3.2302160996,
				"y": 0.7079588454,
				"z": 2.6165720195,
				"element": "H" 
			},
			{
				"x": -2.0792527436,
				"y": 1.8955152298,
				"z": -0.3264124861,
				"element": "H" 
			},
			{
				"x": -1.9726659154,
				"y": 4.3621586125,
				"z": -0.1498696517,
				"element": "H" 
			},
			{
				"x": -0.6919932393,
				"y": 5.4264969002,
				"z": 1.6978215353,
				"element": "H" 
			},
			{
				"x": 0.4692136067,
				"y": 3.9965561436,
				"z": 3.3715158767,
				"element": "H" 
			},
			{
				"x": 0.3434202452,
				"y": 1.5316452986,
				"z": 3.1970259591,
				"element": "H" 
			},
			{
				"x": 2.0943566868,
				"y": 0.9138134186,
				"z": 0.0704576912,
				"element": "H" 
			},
			{
				"x": 3.1573856078,
				"y": 3.0501837189,
				"z": -0.5723188235,
				"element": "H" 
			},
			{
				"x": 2.2776216011,
				"y": 4.3540804893,
				"z": -2.5010832359,
				"element": "H" 
			},
			{
				"x": 0.3185876701,
				"y": 3.4936959348,
				"z": -3.7714524019,
				"element": "H" 
			},
			{
				"x": -0.751311146,
				"y": 1.3675073149,
				"z": -3.1117680621,
				"element": "H" 
			},
			{
				"x": 1.3494481627,
				"y": -4.4774040335,
				"z": -1.4574103707,
				"element": "H" 
			},
			{
				"x": 0.0489863071,
				"y": -4.8527939967,
				"z": -0.3248289005,
				"element": "H" 
			},
			{
				"x": -0.3268821903,
				"y": -4.2251254687,
				"z": -1.9375335748,
				"element": "H" 
			},
			{
				"x": 2.5373107136,
				"y": -2.951068634,
				"z": 0.0849714598,
				"element": "H" 
			},
			{
				"x": 1.6757853291,
				"y": -1.6868418979,
				"z": 0.9749225429,
				"element": "H" 
			},
			{
				"x": 1.3729806454,
				"y": -3.3965344242,
				"z": 1.3324040974,
				"element": "H" 
			}
		],
		 "valence_orbital": [ 
			{
				"type": "occ",
				"energy": -0.24356,
				"method": "rhf"
			},
			{
				"type": "occ",
				"energy": -0.24269,
				"method": "rhf"
			},
			{
				"type": "occ",
				"energy": -0.23641,
				"method": "rhf"
			},
			{
				"type": "occ",
				"energy": -0.22193,
				"method": "rhf"
			},
			{
				"type": "occ",
				"energy": -0.20172,
				"method": "rhf"
			},
			{
				"type": "unocc",
				"energy": -0.01436,
				"method": "rhf"
			},
			{
				"type": "unocc",
				"energy": -0.00349,
				"method": "rhf"
			},
			{
				"type": "unocc",
				"energy": -0.00146,
				"method": "rhf"
			},
			{
				"type": "unocc",
				"energy": 0.00477,
				"method": "rhf"
			},
			{
				"type": "unocc",
				"energy": 0.00951,
				"method": "rhf"
			}
		],
		"cosmo_sigma_profile": { 
			"-0.025": 0.0,
			"-0.024": 0.0,
			"-0.023": 0.0,
			"-0.022": 0.0,
			"-0.021": 0.0,
			"-0.02": 0.0,
			"-0.019": 0.0,
			"-0.018": 0.0,
			"-0.017": 0.0,
			"-0.016": 0.0,
			"-0.015": 0.0,
			"-0.014": 0.0,
			"-0.013": 0.0,
			"-0.012": 0.0,
			"-0.011": 0.0,
			"-0.01": 0.0,
			"-0.009": 0.0,
			"-0.008": 0.0,
			"-0.007": 0.0,
			"-0.006": 4.24393879066,
			"-0.005": 23.3595247125,
			"-0.004": 29.7303339693,
			"-0.003": 47.5188211009,
			"-0.002": 52.1465392558,
			"-0.001": 51.6043586953,
			"0.0": 49.094728088,
			"0.001": 51.705379763,
			"0.002": 29.5748439038,
			"0.003": 24.0339717603,
			"0.004": 21.6473310135,
			"0.005": 21.6892253945,
			"0.006": 18.7615301298,
			"0.007": 6.63491118925,
			"0.008": 2.35943069089,
			"0.009": 0.622244799459,
			"0.01": 0.0,
			"0.011": 0.0,
			"0.012": 0.0,
			"0.013": 0.0,
			"0.014": 0.0,
			"0.015": 0.0,
			"0.016": 0.0,
			"0.017": 0.0,
			"0.018": 0.0,
			"0.019": 0.0,
			"0.02": 0.0,
			"0.021": 0.0,
			"0.022": 0.0,
			"0.023": 0.0,
			"0.024": 0.0,
			"0.025": 0.0
		}
	}
}
