{
	 "smiles": "CN(C)CCCN", 
	 "Tm": 213.15, 
	 "num_atms": 21, 
	 "gaussian": { 
		 "optdone": 1, 
		 "sigma_profile": "yes", 
		 "theory": "DFT", 
		 "functional": "B3LYP", 
		 "basiset": "6-31G**", 
		 "properties": { 
			 "R2extent": 1043.9491, 
			 "electric_dipole_moment_norm": 1.21689622401, 
			 "electric_quadrupole_moment_norm": 3.73131163266, 
			 "total_energy": -308.458812588, 
			 "HOMO_LUMO_gap": 0.28569, 
			 "cosmo_polarized_energy": -5.41, 
			 "cosmo_cavitation_energy": 21.87, 
			 "cosmo_dispersion_energy": -15.94, 
			 "cosmo_repulsion_energy": 1.36, 
			 "cosmo_total_nonelectrostatic_energy": 7.29, 
			 "SMD_solvation_energy": 1.77 
		},
		"coords": [
			{
				"x": 0.9259411925,
				"y": -0.7087907182,
				"z": -2.1877996377,
				"element": "C" 
			},
			{
				"x": 0.0360263149,
				"y": -0.361209974,
				"z": -1.0865059536,
				"element": "N" 
			},
			{
				"x": -1.169781404,
				"y": 0.2877465549,
				"z": -1.5876666919,
				"element": "C" 
			},
			{
				"x": -0.2558681655,
				"y": -1.5327774039,
				"z": -0.2541011735,
				"element": "C" 
			},
			{
				"x": -0.9602365041,
				"y": -1.2044454619,
				"z": 1.0702486844,
				"element": "C" 
			},
			{
				"x": -0.294027365,
				"y": -0.0739601646,
				"z": 1.8668690087,
				"element": "C" 
			},
			{
				"x": 1.1442565359,
				"y": -0.3207214508,
				"z": 2.0298538021,
				"element": "N" 
			},
			{
				"x": 1.1894687517,
				"y": 0.1927149328,
				"z": -2.751006407,
				"element": "H" 
			},
			{
				"x": 1.8497470242,
				"y": -1.1474142378,
				"z": -1.7970641361,
				"element": "H" 
			},
			{
				"x": 0.4806335127,
				"y": -1.4330245781,
				"z": -2.8977056944,
				"element": "H" 
			},
			{
				"x": -1.7990063008,
				"y": 0.6219646136,
				"z": -0.7589401962,
				"element": "H" 
			},
			{
				"x": -0.8949495792,
				"y": 1.1706044837,
				"z": -2.1740035862,
				"element": "H" 
			},
			{
				"x": -1.7791667138,
				"y": -0.3738619736,
				"z": -2.234343609,
				"element": "H" 
			},
			{
				"x": 0.7036201493,
				"y": -2.0049155308,
				"z": -0.0167564452,
				"element": "H" 
			},
			{
				"x": -0.8516809791,
				"y": -2.2866133709,
				"z": -0.8074958688,
				"element": "H" 
			},
			{
				"x": -2.0134335945,
				"y": -0.9473631422,
				"z": 0.900726448,
				"element": "H" 
			},
			{
				"x": -0.9550713586,
				"y": -2.1209073687,
				"z": 1.6721175248,
				"element": "H" 
			},
			{
				"x": -0.7500341534,
				"y": -0.0356623678,
				"z": 2.863500679,
				"element": "H" 
			},
			{
				"x": -0.5158797812,
				"y": 0.8900970912,
				"z": 1.3804159946,
				"element": "H" 
			},
			{
				"x": 1.603023059,
				"y": -0.0954571735,
				"z": 1.1494007137,
				"element": "H" 
			},
			{
				"x": 1.5249193588,
				"y": 0.3256972406,
				"z": 2.7165565441,
				"element": "H" 
			}
		],
		 "valence_orbital": [ 
			{
				"type": "occ",
				"energy": -0.34139,
				"method": "rhf"
			},
			{
				"type": "occ",
				"energy": -0.32637,
				"method": "rhf"
			},
			{
				"type": "occ",
				"energy": -0.32033,
				"method": "rhf"
			},
			{
				"type": "occ",
				"energy": -0.22369,
				"method": "rhf"
			},
			{
				"type": "occ",
				"energy": -0.21155,
				"method": "rhf"
			},
			{
				"type": "unocc",
				"energy": 0.07414,
				"method": "rhf"
			},
			{
				"type": "unocc",
				"energy": 0.11216,
				"method": "rhf"
			},
			{
				"type": "unocc",
				"energy": 0.11408,
				"method": "rhf"
			},
			{
				"type": "unocc",
				"energy": 0.13612,
				"method": "rhf"
			},
			{
				"type": "unocc",
				"energy": 0.13811,
				"method": "rhf"
			}
		],
		"cosmo_sigma_profile": { 
			"-0.025": 0.0,
			"-0.024": 0.0,
			"-0.023": 0.0,
			"-0.022": 0.0,
			"-0.021": 0.0,
			"-0.02": 0.0,
			"-0.019": 0.0,
			"-0.018": 0.0,
			"-0.017": 0.0,
			"-0.016": 0.0,
			"-0.015": 0.0,
			"-0.014": 0.0,
			"-0.013": 0.0,
			"-0.012": 0.0,
			"-0.011": 0.0,
			"-0.01": 0.191168712762,
			"-0.009": 1.06899942674,
			"-0.008": 1.58275515236,
			"-0.007": 1.78268696371,
			"-0.006": 2.17682305008,
			"-0.005": 2.47154422471,
			"-0.004": 6.01796498968,
			"-0.003": 17.6510592271,
			"-0.002": 21.4889856629,
			"-0.001": 32.9546066085,
			"0.0": 38.2467998319,
			"0.001": 16.1413098797,
			"0.002": 3.73027699167,
			"0.003": 3.09206410636,
			"0.004": 2.57078971168,
			"0.005": 1.81958445621,
			"0.006": 1.50341629113,
			"0.007": 1.32888164934,
			"0.008": 2.30222832104,
			"0.009": 1.1847157964,
			"0.01": 0.780772130364,
			"0.011": 1.31009976573,
			"0.012": 0.811427211676,
			"0.013": 1.05082552726,
			"0.014": 0.689149082007,
			"0.015": 0.956318359457,
			"0.016": 0.593946938543,
			"0.017": 0.34927102711,
			"0.018": 0.347967793155,
			"0.019": 0.656905898802,
			"0.02": 0.521316368641,
			"0.021": 0.0352921113195,
			"0.022": 0.0,
			"0.023": 0.0,
			"0.024": 0.0,
			"0.025": 0.0
		}
	}
}
