{
	 "smiles": "OC(=O)C1=CC=C(COC2=CC=CC=C2)O1", 
	 "Tm": 443.15, 
	 "num_atms": 26, 
	 "gaussian": { 
		 "optdone": 1, 
		 "sigma_profile": "yes", 
		 "theory": "DFT", 
		 "functional": "B3LYP", 
		 "basiset": "6-31G**", 
		 "properties": { 
			 "R2extent": 4619.4531, 
			 "electric_dipole_moment_norm": 4.43076985749, 
			 "electric_quadrupole_moment_norm": 17.2418512675, 
			 "total_energy": -764.164948358, 
			 "HOMO_LUMO_gap": 0.17426, 
			 "cosmo_polarized_energy": -18.7, 
			 "cosmo_cavitation_energy": 31.63, 
			 "cosmo_dispersion_energy": -22.5, 
			 "cosmo_repulsion_energy": 1.77, 
			 "cosmo_total_nonelectrostatic_energy": 10.9, 
			 "SMD_solvation_energy": 7.29 
		},
		"coords": [
			{
				"x": 0.4489712068,
				"y": 4.5595475175,
				"z": 1.0992996167,
				"element": "O" 
			},
			{
				"x": 0.9571383481,
				"y": 3.4915658146,
				"z": 0.4243457057,
				"element": "C" 
			},
			{
				"x": 2.1485382559,
				"y": 3.3563842844,
				"z": 0.2891960099,
				"element": "O" 
			},
			{
				"x": -0.0428274204,
				"y": 2.5422430007,
				"z": -0.0989014303,
				"element": "C" 
			},
			{
				"x": -1.4033380589,
				"y": 2.4053637431,
				"z": 0.0300057437,
				"element": "C" 
			},
			{
				"x": -1.7718298682,
				"y": 1.2495686152,
				"z": -0.7155114746,
				"element": "C" 
			},
			{
				"x": -0.6103903814,
				"y": 0.7563116707,
				"z": -1.2456498364,
				"element": "C" 
			},
			{
				"x": -0.307837549,
				"y": -0.413153814,
				"z": -2.1357039195,
				"element": "C" 
			},
			{
				"x": -1.1379521981,
				"y": -1.5313513321,
				"z": -1.8633630696,
				"element": "O" 
			},
			{
				"x": -0.8720583533,
				"y": -2.3046885862,
				"z": -0.7559321305,
				"element": "C" 
			},
			{
				"x": -1.6995075022,
				"y": -3.4251460082,
				"z": -0.6039362546,
				"element": "C" 
			},
			{
				"x": -1.512167547,
				"y": -4.2845409389,
				"z": 0.4736625206,
				"element": "C" 
			},
			{
				"x": -0.5019542274,
				"y": -4.039195147,
				"z": 1.4096110484,
				"element": "C" 
			},
			{
				"x": 0.3144540714,
				"y": -2.9214855164,
				"z": 1.252621937,
				"element": "C" 
			},
			{
				"x": 0.1384518065,
				"y": -2.0458543699,
				"z": 0.1757911725,
				"element": "C" 
			},
			{
				"x": 0.4430184702,
				"y": 1.5270644447,
				"z": -0.8758527159,
				"element": "O" 
			},
			{
				"x": -0.5168406956,
				"y": 4.5727507454,
				"z": 1.0502717034,
				"element": "H" 
			},
			{
				"x": -2.0738398948,
				"y": 3.0351210129,
				"z": 0.5999528109,
				"element": "H" 
			},
			{
				"x": -2.758317259,
				"y": 0.8276783435,
				"z": -0.8366316402,
				"element": "H" 
			},
			{
				"x": 0.7582167581,
				"y": -0.661611951,
				"z": -2.0617619562,
				"element": "H" 
			},
			{
				"x": -0.517124337,
				"y": -0.1615837599,
				"z": -3.1808749732,
				"element": "H" 
			},
			{
				"x": -2.4743346559,
				"y": -3.6018505632,
				"z": -1.3428912713,
				"element": "H" 
			},
			{
				"x": -2.1569584902,
				"y": -5.1521031531,
				"z": 0.5817008288,
				"element": "H" 
			},
			{
				"x": -0.3568173306,
				"y": -4.7111113289,
				"z": 2.2496961367,
				"element": "H" 
			},
			{
				"x": 1.1005786917,
				"y": -2.7152501908,
				"z": 1.9733396006,
				"element": "H" 
			},
			{
				"x": 0.7805281601,
				"y": -1.1775725332,
				"z": 0.0879158374,
				"element": "H" 
			}
		],
		 "valence_orbital": [ 
			{
				"type": "occ",
				"energy": -0.3066,
				"method": "rhf"
			},
			{
				"type": "occ",
				"energy": -0.27863,
				"method": "rhf"
			},
			{
				"type": "occ",
				"energy": -0.25593,
				"method": "rhf"
			},
			{
				"type": "occ",
				"energy": -0.24846,
				"method": "rhf"
			},
			{
				"type": "occ",
				"energy": -0.22678,
				"method": "rhf"
			},
			{
				"type": "unocc",
				"energy": -0.05252,
				"method": "rhf"
			},
			{
				"type": "unocc",
				"energy": -0.00467,
				"method": "rhf"
			},
			{
				"type": "unocc",
				"energy": 0.00842,
				"method": "rhf"
			},
			{
				"type": "unocc",
				"energy": 0.02141,
				"method": "rhf"
			},
			{
				"type": "unocc",
				"energy": 0.04861,
				"method": "rhf"
			}
		],
		"cosmo_sigma_profile": { 
			"-0.025": 0.0,
			"-0.024": 0.0,
			"-0.023": 0.0,
			"-0.022": 0.0,
			"-0.021": 0.0,
			"-0.02": 0.0,
			"-0.019": 0.865081369308,
			"-0.018": 0.82729608923,
			"-0.017": 1.83422072879,
			"-0.016": 0.881595385013,
			"-0.015": 0.516951991044,
			"-0.014": 0.633746789385,
			"-0.013": 1.61280103862,
			"-0.012": 1.3790337742,
			"-0.011": 1.32098026336,
			"-0.01": 1.37091390904,
			"-0.009": 1.69813059295,
			"-0.008": 5.17909884416,
			"-0.007": 8.56931965468,
			"-0.006": 13.443533012,
			"-0.005": 18.0804756558,
			"-0.004": 17.7540594487,
			"-0.003": 17.313248789,
			"-0.002": 15.8345993254,
			"-0.001": 13.691088138,
			"0.0": 13.7943293979,
			"0.001": 14.4370873463,
			"0.002": 14.9679830368,
			"0.003": 16.8326140043,
			"0.004": 13.1337312961,
			"0.005": 13.8936977024,
			"0.006": 10.5941339252,
			"0.007": 3.45836333846,
			"0.008": 4.24492698985,
			"0.009": 5.60598436286,
			"0.01": 5.88335825592,
			"0.011": 5.58727873356,
			"0.012": 6.16285528036,
			"0.013": 2.15009157459,
			"0.014": 0.0356590316817,
			"0.015": 0.0,
			"0.016": 0.0,
			"0.017": 0.0,
			"0.018": 0.0,
			"0.019": 0.0,
			"0.02": 0.0,
			"0.021": 0.0,
			"0.022": 0.0,
			"0.023": 0.0,
			"0.024": 0.0,
			"0.025": 0.0
		}
	}
}
