{
	 "smiles": "NC1=CC(NC(=O)CCN2C=CN=C2)=CC=C1", 
	 "Tm": 399.15, 
	 "num_atms": 31, 
	 "gaussian": { 
		 "optdone": 1, 
		 "sigma_profile": "yes", 
		 "theory": "DFT", 
		 "functional": "B3LYP", 
		 "basiset": "6-31G**", 
		 "properties": { 
			 "R2extent": 4892.4333, 
			 "electric_dipole_moment_norm": 6.3143501558, 
			 "electric_quadrupole_moment_norm": 24.1979575717, 
			 "total_energy": -759.954021878, 
			 "HOMO_LUMO_gap": 0.19681, 
			 "cosmo_polarized_energy": -22.0, 
			 "cosmo_cavitation_energy": 35.07, 
			 "cosmo_dispersion_energy": -24.03, 
			 "cosmo_repulsion_energy": 1.86, 
			 "cosmo_total_nonelectrostatic_energy": 12.9, 
			 "SMD_solvation_energy": 4.97 
		},
		"coords": [
			{
				"x": -3.2675939421,
				"y": -3.2917588674,
				"z": 1.8124081854,
				"element": "N" 
			},
			{
				"x": -2.4594199264,
				"y": -2.3661395041,
				"z": 1.1549735962,
				"element": "C" 
			},
			{
				"x": -2.0703512288,
				"y": -1.1779349368,
				"z": 1.7943989015,
				"element": "C" 
			},
			{
				"x": -1.218637367,
				"y": -0.2718908463,
				"z": 1.1568497779,
				"element": "C" 
			},
			{
				"x": -0.9003519692,
				"y": 0.9438352267,
				"z": 1.8308263586,
				"element": "N" 
			},
			{
				"x": 0.316192735,
				"y": 1.5293208384,
				"z": 2.079665418,
				"element": "C" 
			},
			{
				"x": 0.3796452355,
				"y": 2.6641671254,
				"z": 2.5415436922,
				"element": "O" 
			},
			{
				"x": 1.5857340439,
				"y": 0.710939237,
				"z": 1.8507850358,
				"element": "C" 
			},
			{
				"x": 2.6867198796,
				"y": 1.577821266,
				"z": 1.226660633,
				"element": "C" 
			},
			{
				"x": 2.4072055065,
				"y": 1.9309843865,
				"z": -0.1606044502,
				"element": "N" 
			},
			{
				"x": 2.6770242455,
				"y": 1.1650405284,
				"z": -1.2798375992,
				"element": "C" 
			},
			{
				"x": 2.145349829,
				"y": 1.8593040389,
				"z": -2.3394624565,
				"element": "C" 
			},
			{
				"x": 1.5512193469,
				"y": 3.0242174938,
				"z": -1.9085958468,
				"element": "N" 
			},
			{
				"x": 1.7232422411,
				"y": 3.0330339455,
				"z": -0.6026753996,
				"element": "C" 
			},
			{
				"x": -0.7419401435,
				"y": -0.5307411962,
				"z": -0.1344409261,
				"element": "C" 
			},
			{
				"x": -1.1104323854,
				"y": -1.725114247,
				"z": -0.7564255038,
				"element": "C" 
			},
			{
				"x": -1.9583035795,
				"y": -2.634545823,
				"z": -0.1317728383,
				"element": "C" 
			},
			{
				"x": -3.7664249148,
				"y": -3.934513645,
				"z": 1.2133853889,
				"element": "H" 
			},
			{
				"x": -3.8558872579,
				"y": -2.916870765,
				"z": 2.5433004458,
				"element": "H" 
			},
			{
				"x": -2.418621034,
				"y": -0.9632153645,
				"z": 2.8014447418,
				"element": "H" 
			},
			{
				"x": -1.6741569294,
				"y": 1.5225377454,
				"z": 2.1366499088,
				"element": "H" 
			},
			{
				"x": 1.9217104747,
				"y": 0.3886888806,
				"z": 2.8448557131,
				"element": "H" 
			},
			{
				"x": 1.4092556353,
				"y": -0.187787451,
				"z": 1.2586229762,
				"element": "H" 
			},
			{
				"x": 3.6470114921,
				"y": 1.0558916311,
				"z": 1.2616838275,
				"element": "H" 
			},
			{
				"x": 2.7760201928,
				"y": 2.5019428427,
				"z": 1.8015703044,
				"element": "H" 
			},
			{
				"x": 3.2217857943,
				"y": 0.2350168617,
				"z": -1.2144357823,
				"element": "H" 
			},
			{
				"x": 2.1685772882,
				"y": 1.5916539901,
				"z": -3.3872453469,
				"element": "H" 
			},
			{
				"x": 1.3728092485,
				"y": 3.7902033013,
				"z": 0.085585538,
				"element": "H" 
			},
			{
				"x": -0.124599551,
				"y": 0.1970642581,
				"z": -0.6495224966,
				"element": "H" 
			},
			{
				"x": -0.7472560789,
				"y": -1.9376079274,
				"z": -1.7577876318,
				"element": "H" 
			},
			{
				"x": -2.240926881,
				"y": -3.555043024,
				"z": -0.6359041652,
				"element": "H" 
			}
		],
		 "valence_orbital": [ 
			{
				"type": "occ",
				"energy": -0.25558,
				"method": "rhf"
			},
			{
				"type": "occ",
				"energy": -0.25289,
				"method": "rhf"
			},
			{
				"type": "occ",
				"energy": -0.24052,
				"method": "rhf"
			},
			{
				"type": "occ",
				"energy": -0.21807,
				"method": "rhf"
			},
			{
				"type": "occ",
				"energy": -0.21298,
				"method": "rhf"
			},
			{
				"type": "unocc",
				"energy": -0.01617,
				"method": "rhf"
			},
			{
				"type": "unocc",
				"energy": 0.0034,
				"method": "rhf"
			},
			{
				"type": "unocc",
				"energy": 0.02067,
				"method": "rhf"
			},
			{
				"type": "unocc",
				"energy": 0.03578,
				"method": "rhf"
			},
			{
				"type": "unocc",
				"energy": 0.07138,
				"method": "rhf"
			}
		],
		"cosmo_sigma_profile": { 
			"-0.025": 0.0,
			"-0.024": 0.0,
			"-0.023": 0.0,
			"-0.022": 0.0,
			"-0.021": 0.0,
			"-0.02": 0.0,
			"-0.019": 0.0,
			"-0.018": 0.0,
			"-0.017": 0.0,
			"-0.016": 0.0,
			"-0.015": 0.0140290268974,
			"-0.014": 0.600145186191,
			"-0.013": 1.63243457315,
			"-0.012": 3.50643056398,
			"-0.011": 3.72248906659,
			"-0.01": 4.16760061131,
			"-0.009": 4.55767271182,
			"-0.008": 6.01382040649,
			"-0.007": 11.3305610954,
			"-0.006": 17.7265830031,
			"-0.005": 21.4587536866,
			"-0.004": 18.1239537535,
			"-0.003": 18.8992037759,
			"-0.002": 15.904205142,
			"-0.001": 13.3560306561,
			"0.0": 16.8597779997,
			"0.001": 16.9915707352,
			"0.002": 13.8779987277,
			"0.003": 13.5500865827,
			"0.004": 12.1750407157,
			"0.005": 14.1288552074,
			"0.006": 12.584359292,
			"0.007": 5.25826747768,
			"0.008": 2.60468204787,
			"0.009": 2.68686814752,
			"0.01": 4.54003312517,
			"0.011": 3.19252621697,
			"0.012": 3.8246775409,
			"0.013": 5.26180755769,
			"0.014": 4.70043175406,
			"0.015": 1.58145704081,
			"0.016": 1.26572316471,
			"0.017": 1.08682793152,
			"0.018": 0.915785495806,
			"0.019": 0.270976710941,
			"0.02": 0.0,
			"0.021": 0.0,
			"0.022": 0.0,
			"0.023": 0.0,
			"0.024": 0.0,
			"0.025": 0.0
		}
	}
}
