{
	 "smiles": "CC(OC1=CC=C(CCC(C)=O)C=C1)C(O)=O", 
	 "Tm": 342.15, 
	 "num_atms": 33, 
	 "gaussian": { 
		 "optdone": 1, 
		 "sigma_profile": "yes", 
		 "theory": "DFT", 
		 "functional": "B3LYP", 
		 "basiset": "6-31G**", 
		 "properties": { 
			 "R2extent": 7584.8542, 
			 "electric_dipole_moment_norm": 6.51551761413, 
			 "electric_quadrupole_moment_norm": 14.0063362119, 
			 "total_energy": -805.925127037, 
			 "HOMO_LUMO_gap": 0.2037, 
			 "cosmo_polarized_energy": -24.64, 
			 "cosmo_cavitation_energy": 37.69, 
			 "cosmo_dispersion_energy": -26.02, 
			 "cosmo_repulsion_energy": 2.07, 
			 "cosmo_total_nonelectrostatic_energy": 13.73, 
			 "SMD_solvation_energy": 8.11 
		},
		"coords": [
			{
				"x": 1.7399161684,
				"y": 5.5568653222,
				"z": 0.8755041447,
				"element": "C" 
			},
			{
				"x": 0.8562222323,
				"y": 4.3812576215,
				"z": 0.4487932386,
				"element": "C" 
			},
			{
				"x": 1.7235199654,
				"y": 3.3653372903,
				"z": 0.001006613,
				"element": "O" 
			},
			{
				"x": 1.2310232984,
				"y": 2.0985581613,
				"z": -0.2070045177,
				"element": "C" 
			},
			{
				"x": 2.1809723227,
				"y": 1.142568165,
				"z": -0.586785955,
				"element": "C" 
			},
			{
				"x": 1.7934230141,
				"y": -0.1737157512,
				"z": -0.8053587368,
				"element": "C" 
			},
			{
				"x": 0.4579212496,
				"y": -0.5800715789,
				"z": -0.6519319639,
				"element": "C" 
			},
			{
				"x": 0.0508503645,
				"y": -2.0226071727,
				"z": -0.8588396221,
				"element": "C" 
			},
			{
				"x": 0.2253643065,
				"y": -2.8743262687,
				"z": 0.4081661299,
				"element": "C" 
			},
			{
				"x": -0.1814587873,
				"y": -4.3324728178,
				"z": 0.2280519981,
				"element": "C" 
			},
			{
				"x": -0.0045246601,
				"y": -5.24050877,
				"z": 1.4344061372,
				"element": "C" 
			},
			{
				"x": -0.6242906455,
				"y": -4.7505270605,
				"z": -0.8253351318,
				"element": "O" 
			},
			{
				"x": -0.4743003497,
				"y": 0.3913399231,
				"z": -0.2781595872,
				"element": "C" 
			},
			{
				"x": -0.105748708,
				"y": 1.7215945623,
				"z": -0.0548839231,
				"element": "C" 
			},
			{
				"x": -0.1061971562,
				"y": 4.8349370657,
				"z": -0.6684876958,
				"element": "C" 
			},
			{
				"x": -1.223228186,
				"y": 5.4790575426,
				"z": -0.2280453258,
				"element": "O" 
			},
			{
				"x": 0.1028280651,
				"y": 4.6940472432,
				"z": -1.841979893,
				"element": "O" 
			},
			{
				"x": 2.3362507575,
				"y": 5.8935106808,
				"z": 0.0239689888,
				"element": "H" 
			},
			{
				"x": 2.4135642505,
				"y": 5.2408248586,
				"z": 1.6752879285,
				"element": "H" 
			},
			{
				"x": 1.1343623678,
				"y": 6.3951070071,
				"z": 1.2326818318,
				"element": "H" 
			},
			{
				"x": 0.2692455287,
				"y": 4.0241280367,
				"z": 1.3111235158,
				"element": "H" 
			},
			{
				"x": 3.2120714455,
				"y": 1.456766689,
				"z": -0.711080079,
				"element": "H" 
			},
			{
				"x": 2.5424956631,
				"y": -0.9014782236,
				"z": -1.1088312666,
				"element": "H" 
			},
			{
				"x": 0.6379311408,
				"y": -2.4713812792,
				"z": -1.6669926371,
				"element": "H" 
			},
			{
				"x": -0.9938471572,
				"y": -2.0808556007,
				"z": -1.1802539567,
				"element": "H" 
			},
			{
				"x": -0.3595378467,
				"y": -2.4549910702,
				"z": 1.239423732,
				"element": "H" 
			},
			{
				"x": 1.267727413,
				"y": -2.8457303996,
				"z": 0.7562251323,
				"element": "H" 
			},
			{
				"x": -0.3570186231,
				"y": -6.2445946138,
				"z": 1.1945083374,
				"element": "H" 
			},
			{
				"x": -0.55804686,
				"y": -4.8508718267,
				"z": 2.2964707062,
				"element": "H" 
			},
			{
				"x": 1.0509742342,
				"y": -5.2835703313,
				"z": 1.7276873814,
				"element": "H" 
			},
			{
				"x": -1.5200573269,
				"y": 0.1141624178,
				"z": -0.1681596012,
				"element": "H" 
			},
			{
				"x": -0.8721566619,
				"y": 2.4409176182,
				"z": 0.210227244,
				"element": "H" 
			},
			{
				"x": -1.2564508198,
				"y": 5.4840225594,
				"z": 0.7395968329,
				"element": "H" 
			}
		],
		 "valence_orbital": [ 
			{
				"type": "occ",
				"energy": -0.32222,
				"method": "rhf"
			},
			{
				"type": "occ",
				"energy": -0.27726,
				"method": "rhf"
			},
			{
				"type": "occ",
				"energy": -0.25251,
				"method": "rhf"
			},
			{
				"type": "occ",
				"energy": -0.24793,
				"method": "rhf"
			},
			{
				"type": "occ",
				"energy": -0.21796,
				"method": "rhf"
			},
			{
				"type": "unocc",
				"energy": -0.01426,
				"method": "rhf"
			},
			{
				"type": "unocc",
				"energy": -0.00738,
				"method": "rhf"
			},
			{
				"type": "unocc",
				"energy": 0.00309,
				"method": "rhf"
			},
			{
				"type": "unocc",
				"energy": 0.00923,
				"method": "rhf"
			},
			{
				"type": "unocc",
				"energy": 0.03656,
				"method": "rhf"
			}
		],
		"cosmo_sigma_profile": { 
			"-0.025": 0.0,
			"-0.024": 0.0,
			"-0.023": 0.0,
			"-0.022": 0.0,
			"-0.021": 0.0,
			"-0.02": 0.246388934432,
			"-0.019": 1.23504510933,
			"-0.018": 1.10260377865,
			"-0.017": 1.29387510082,
			"-0.016": 1.21648006523,
			"-0.015": 1.00669947306,
			"-0.014": 1.34380098289,
			"-0.013": 1.30683738175,
			"-0.012": 1.23711851636,
			"-0.011": 1.35123374344,
			"-0.01": 1.52626662068,
			"-0.009": 1.447176506,
			"-0.008": 2.28732453731,
			"-0.007": 4.71768125941,
			"-0.006": 14.1824228462,
			"-0.005": 24.6455248958,
			"-0.004": 28.3304944824,
			"-0.003": 29.6730558767,
			"-0.002": 24.5773203954,
			"-0.001": 21.7039652754,
			"0.0": 14.2094611752,
			"0.001": 12.0764794448,
			"0.002": 9.48164406784,
			"0.003": 10.1580182182,
			"0.004": 12.1367527257,
			"0.005": 15.597361697,
			"0.006": 10.1886050648,
			"0.007": 6.30585550937,
			"0.008": 5.60479984084,
			"0.009": 8.26985060286,
			"0.01": 7.85297545248,
			"0.011": 8.83979936875,
			"0.012": 8.65994634795,
			"0.013": 2.62566669393,
			"0.014": 0.170991153973,
			"0.015": 0.0,
			"0.016": 0.0,
			"0.017": 0.0,
			"0.018": 0.0,
			"0.019": 0.0,
			"0.02": 0.0,
			"0.021": 0.0,
			"0.022": 0.0,
			"0.023": 0.0,
			"0.024": 0.0,
			"0.025": 0.0
		}
	}
}
