{
	 "smiles": "BrCC1CSC2=NN=C(N12)C1=CC=CC=C1", 
	 "Tm": 431.15, 
	 "num_atms": 26, 
	 "gaussian": { 
		 "optdone": 1, 
		 "sigma_profile": "yes", 
		 "theory": "DFT", 
		 "functional": "B3LYP", 
		 "basiset": "6-31G**", 
		 "properties": { 
			 "R2extent": 5881.8476, 
			 "electric_dipole_moment_norm": 6.29555573639, 
			 "electric_quadrupole_moment_norm": 18.7166725395, 
			 "total_energy": -3559.01324748, 
			 "HOMO_LUMO_gap": 0.18747, 
			 "cosmo_polarized_energy": -21.97, 
			 "cosmo_cavitation_energy": 32.8, 
			 "cosmo_dispersion_energy": -24.11, 
			 "cosmo_repulsion_energy": 1.82, 
			 "cosmo_total_nonelectrostatic_energy": 10.5, 
			 "SMD_solvation_energy": 1.45 
		},
		"coords": [
			{
				"x": 0.6156021679,
				"y": 3.5823121303,
				"z": -1.0910476634,
				"element": "Br" 
			},
			{
				"x": 2.0838930809,
				"y": 2.4179789176,
				"z": -0.5004590003,
				"element": "C" 
			},
			{
				"x": 1.6162207034,
				"y": 1.1377993808,
				"z": 0.2023276476,
				"element": "C" 
			},
			{
				"x": 2.840026942,
				"y": 0.3282579499,
				"z": 0.7046896174,
				"element": "C" 
			},
			{
				"x": 3.430662494,
				"y": -0.6925778762,
				"z": -0.7287356375,
				"element": "S" 
			},
			{
				"x": 1.7727574352,
				"y": -0.7027181654,
				"z": -1.3351579019,
				"element": "C" 
			},
			{
				"x": 1.1512304145,
				"y": -1.3719228043,
				"z": -2.2648053012,
				"element": "N" 
			},
			{
				"x": -0.1567527853,
				"y": -0.9109789525,
				"z": -2.2512052475,
				"element": "N" 
			},
			{
				"x": -0.2785099537,
				"y": 0.0184692045,
				"z": -1.321499294,
				"element": "C" 
			},
			{
				"x": 0.9472622266,
				"y": 0.1913839881,
				"z": -0.695190595,
				"element": "N" 
			},
			{
				"x": -1.5515380649,
				"y": 0.6640937422,
				"z": -0.9777268089,
				"element": "C" 
			},
			{
				"x": -1.8706759035,
				"y": 1.0436522598,
				"z": 0.3347216454,
				"element": "C" 
			},
			{
				"x": -3.1076838247,
				"y": 1.618511226,
				"z": 0.6222286912,
				"element": "C" 
			},
			{
				"x": -4.0441019698,
				"y": 1.8131910884,
				"z": -0.3943313466,
				"element": "C" 
			},
			{
				"x": -3.7393814758,
				"y": 1.4213149288,
				"z": -1.7004950629,
				"element": "C" 
			},
			{
				"x": -2.5035422181,
				"y": 0.8505704945,
				"z": -1.9930492192,
				"element": "C" 
			},
			{
				"x": 2.6750118768,
				"y": 3.0206517666,
				"z": 0.1892996877,
				"element": "H" 
			},
			{
				"x": 2.6730420012,
				"y": 2.1890751042,
				"z": -1.3876943502,
				"element": "H" 
			},
			{
				"x": 0.967491682,
				"y": 1.3939548165,
				"z": 1.0421843141,
				"element": "H" 
			},
			{
				"x": 3.652562452,
				"y": 0.9705001221,
				"z": 1.0482829124,
				"element": "H" 
			},
			{
				"x": 2.5443844527,
				"y": -0.3412156329,
				"z": 1.5158650949,
				"element": "H" 
			},
			{
				"x": -1.1670087297,
				"y": 0.8637508309,
				"z": 1.1415889542,
				"element": "H" 
			},
			{
				"x": -3.3428822609,
				"y": 1.9054399359,
				"z": 1.6429983839,
				"element": "H" 
			},
			{
				"x": -5.0071604824,
				"y": 2.2619816833,
				"z": -0.1693417025,
				"element": "H" 
			},
			{
				"x": -4.4659954003,
				"y": 1.5640412391,
				"z": -2.4949963109,
				"element": "H" 
			},
			{
				"x": -2.2568148603,
				"y": 0.5404826217,
				"z": -3.002451507,
				"element": "H" 
			}
		],
		 "valence_orbital": [ 
			{
				"type": "occ",
				"energy": -0.28713,
				"method": "rhf"
			},
			{
				"type": "occ",
				"energy": -0.26042,
				"method": "rhf"
			},
			{
				"type": "occ",
				"energy": -0.25786,
				"method": "rhf"
			},
			{
				"type": "occ",
				"energy": -0.25337,
				"method": "rhf"
			},
			{
				"type": "occ",
				"energy": -0.2205,
				"method": "rhf"
			},
			{
				"type": "unocc",
				"energy": -0.03303,
				"method": "rhf"
			},
			{
				"type": "unocc",
				"energy": -0.01995,
				"method": "rhf"
			},
			{
				"type": "unocc",
				"energy": -0.0098,
				"method": "rhf"
			},
			{
				"type": "unocc",
				"energy": -0.004,
				"method": "rhf"
			},
			{
				"type": "unocc",
				"energy": 0.02478,
				"method": "rhf"
			}
		],
		"cosmo_sigma_profile": { 
			"-0.025": 0.0,
			"-0.024": 0.0,
			"-0.023": 0.0,
			"-0.022": 0.0,
			"-0.021": 0.0,
			"-0.02": 0.0,
			"-0.019": 0.0,
			"-0.018": 0.0,
			"-0.017": 0.0,
			"-0.016": 0.0,
			"-0.015": 0.0,
			"-0.014": 0.0,
			"-0.013": 0.0,
			"-0.012": 0.0,
			"-0.011": 0.616941342682,
			"-0.01": 4.60065731611,
			"-0.009": 9.67078993588,
			"-0.008": 11.323569713,
			"-0.007": 10.6360277049,
			"-0.006": 15.8693225843,
			"-0.005": 18.3354101321,
			"-0.004": 16.51766383,
			"-0.003": 13.8641653,
			"-0.002": 12.6769814177,
			"-0.001": 13.2615596139,
			"0.0": 13.3483689394,
			"0.001": 17.6194037832,
			"0.002": 14.9388924892,
			"0.003": 18.1311004962,
			"0.004": 21.65380561,
			"0.005": 21.8025813529,
			"0.006": 7.99867733382,
			"0.007": 2.56826175267,
			"0.008": 2.04966195675,
			"0.009": 1.99499444029,
			"0.01": 1.72809359281,
			"0.011": 3.09249289188,
			"0.012": 2.36816868336,
			"0.013": 3.270446881,
			"0.014": 3.0734860161,
			"0.015": 2.83150246628,
			"0.016": 1.61100253208,
			"0.017": 0.343653589565,
			"0.018": 0.0,
			"0.019": 0.0,
			"0.02": 0.0,
			"0.021": 0.0,
			"0.022": 0.0,
			"0.023": 0.0,
			"0.024": 0.0,
			"0.025": 0.0
		}
	}
}
