{
	 "smiles": "COC1=CC(=O)C(C#N)C(C1)C1=CC=CC=C1", 
	 "Tm": 440.15, 
	 "num_atms": 30, 
	 "gaussian": { 
		 "optdone": 1, 
		 "sigma_profile": "yes", 
		 "theory": "DFT", 
		 "functional": "B3LYP", 
		 "basiset": "6-31G**", 
		 "properties": { 
			 "R2extent": 4702.2654, 
			 "electric_dipole_moment_norm": 8.67189990371, 
			 "electric_quadrupole_moment_norm": 25.6174153968, 
			 "total_energy": -746.47417971, 
			 "HOMO_LUMO_gap": 0.19346, 
			 "cosmo_polarized_energy": -23.34, 
			 "cosmo_cavitation_energy": 33.81, 
			 "cosmo_dispersion_energy": -23.04, 
			 "cosmo_repulsion_energy": 1.8, 
			 "cosmo_total_nonelectrostatic_energy": 12.57, 
			 "SMD_solvation_energy": 8.05 
		},
		"coords": [
			{
				"x": -1.2931389751,
				"y": -3.3891209644,
				"z": 3.6444920459,
				"element": "C" 
			},
			{
				"x": 0.0015230943,
				"y": -3.3354856908,
				"z": 3.04489995,
				"element": "O" 
			},
			{
				"x": 0.1611903608,
				"y": -2.943516167,
				"z": 1.7600519304,
				"element": "C" 
			},
			{
				"x": 1.4327514537,
				"y": -2.7985204781,
				"z": 1.3132196253,
				"element": "C" 
			},
			{
				"x": 1.7544435584,
				"y": -2.4729338426,
				"z": -0.0697567932,
				"element": "C" 
			},
			{
				"x": 2.8869082658,
				"y": -2.2460027044,
				"z": -0.4616997822,
				"element": "O" 
			},
			{
				"x": 0.5586849197,
				"y": -2.5374874877,
				"z": -1.0544069404,
				"element": "C" 
			},
			{
				"x": 0.870917613,
				"y": -1.9265141209,
				"z": -2.3470238465,
				"element": "C" 
			},
			{
				"x": 1.0644794282,
				"y": -1.4603574942,
				"z": -3.3915125936,
				"element": "N" 
			},
			{
				"x": -0.7649535035,
				"y": -1.9855978633,
				"z": -0.4357353397,
				"element": "C" 
			},
			{
				"x": -1.0514096082,
				"y": -2.73087324,
				"z": 0.8892133875,
				"element": "C" 
			},
			{
				"x": -0.807217226,
				"y": -0.4637185924,
				"z": -0.3268130916,
				"element": "C" 
			},
			{
				"x": -1.4393742143,
				"y": 0.2610790538,
				"z": -1.3475723505,
				"element": "C" 
			},
			{
				"x": -1.509547161,
				"y": 1.6533618585,
				"z": -1.3065344336,
				"element": "C" 
			},
			{
				"x": -0.9498278769,
				"y": 2.3497229235,
				"z": -0.2351057179,
				"element": "C" 
			},
			{
				"x": -0.3190305922,
				"y": 1.6420511959,
				"z": 0.7885670174,
				"element": "C" 
			},
			{
				"x": -0.2460811656,
				"y": 0.2488929528,
				"z": 0.74364455,
				"element": "C" 
			},
			{
				"x": -1.971914066,
				"y": -4.0528404677,
				"z": 3.0990102968,
				"element": "H" 
			},
			{
				"x": -1.1308300202,
				"y": -3.7908568283,
				"z": 4.6450934253,
				"element": "H" 
			},
			{
				"x": -1.7418547216,
				"y": -2.3930498571,
				"z": 3.7287327277,
				"element": "H" 
			},
			{
				"x": 2.2650233101,
				"y": -2.9361378025,
				"z": 1.9950357005,
				"element": "H" 
			},
			{
				"x": 0.4036974226,
				"y": -3.6112172002,
				"z": -1.2434558342,
				"element": "H" 
			},
			{
				"x": -1.5655244436,
				"y": -2.2646907563,
				"z": -1.1282778727,
				"element": "H" 
			},
			{
				"x": -1.8189414278,
				"y": -2.1782827237,
				"z": 1.4395750637,
				"element": "H" 
			},
			{
				"x": -1.4867640907,
				"y": -3.7163007953,
				"z": 0.6657060156,
				"element": "H" 
			},
			{
				"x": -1.8751572465,
				"y": -0.2712310662,
				"z": -2.188884614,
				"element": "H" 
			},
			{
				"x": -2.0018269733,
				"y": 2.1910026467,
				"z": -2.1115547059,
				"element": "H" 
			},
			{
				"x": -1.0031444271,
				"y": 3.4338693057,
				"z": -0.1986917613,
				"element": "H" 
			},
			{
				"x": 0.1237304841,
				"y": 2.1737612315,
				"z": 1.6259715475,
				"element": "H" 
			},
			{
				"x": 0.261287829,
				"y": -0.2770050253,
				"z": 1.5449123935,
				"element": "H" 
			}
		],
		 "valence_orbital": [ 
			{
				"type": "occ",
				"energy": -0.31348,
				"method": "rhf"
			},
			{
				"type": "occ",
				"energy": -0.2555,
				"method": "rhf"
			},
			{
				"type": "occ",
				"energy": -0.25526,
				"method": "rhf"
			},
			{
				"type": "occ",
				"energy": -0.24802,
				"method": "rhf"
			},
			{
				"type": "occ",
				"energy": -0.24523,
				"method": "rhf"
			},
			{
				"type": "unocc",
				"energy": -0.05177,
				"method": "rhf"
			},
			{
				"type": "unocc",
				"energy": -0.01027,
				"method": "rhf"
			},
			{
				"type": "unocc",
				"energy": -0.00636,
				"method": "rhf"
			},
			{
				"type": "unocc",
				"energy": 0.03288,
				"method": "rhf"
			},
			{
				"type": "unocc",
				"energy": 0.04111,
				"method": "rhf"
			}
		],
		"cosmo_sigma_profile": { 
			"-0.025": 0.0,
			"-0.024": 0.0,
			"-0.023": 0.0,
			"-0.022": 0.0,
			"-0.021": 0.0,
			"-0.02": 0.0,
			"-0.019": 0.0,
			"-0.018": 0.0,
			"-0.017": 0.0,
			"-0.016": 0.0,
			"-0.015": 0.0,
			"-0.014": 0.0,
			"-0.013": 0.0,
			"-0.012": 0.0,
			"-0.011": 0.0353548484944,
			"-0.01": 3.57953713717,
			"-0.009": 3.89732674596,
			"-0.008": 7.06260954838,
			"-0.007": 17.3386897855,
			"-0.006": 21.9679635716,
			"-0.005": 22.6590040688,
			"-0.004": 25.1946712343,
			"-0.003": 16.1423332415,
			"-0.002": 11.3131549995,
			"-0.001": 11.5098209051,
			"0.0": 14.0370799271,
			"0.001": 11.9362558147,
			"0.002": 11.7420276087,
			"0.003": 12.1315830513,
			"0.004": 12.5292229153,
			"0.005": 13.3761585756,
			"0.006": 10.3403076594,
			"0.007": 5.71798887048,
			"0.008": 7.64347796767,
			"0.009": 5.58397270068,
			"0.01": 5.76790277729,
			"0.011": 5.39366808865,
			"0.012": 7.31470571104,
			"0.013": 4.69515805691,
			"0.014": 0.488012953701,
			"0.015": 0.0,
			"0.016": 0.0,
			"0.017": 0.0,
			"0.018": 0.0,
			"0.019": 0.0,
			"0.02": 0.0,
			"0.021": 0.0,
			"0.022": 0.0,
			"0.023": 0.0,
			"0.024": 0.0,
			"0.025": 0.0
		}
	}
}
