{
	 "smiles": "OC(=O)CC1=CC(O)=CC=C1", 
	 "Tm": 404.15, 
	 "num_atms": 19, 
	 "gaussian": { 
		 "optdone": 1, 
		 "sigma_profile": "yes", 
		 "theory": "DFT", 
		 "functional": "B3LYP", 
		 "basiset": "6-31G**", 
		 "properties": { 
			 "R2extent": 2983.9704, 
			 "electric_dipole_moment_norm": 5.96764650511, 
			 "electric_quadrupole_moment_norm": 22.7011973283, 
			 "total_energy": -535.351182648, 
			 "HOMO_LUMO_gap": 0.21304, 
			 "cosmo_polarized_energy": -16.62, 
			 "cosmo_cavitation_energy": 23.49, 
			 "cosmo_dispersion_energy": -17.11, 
			 "cosmo_repulsion_energy": 1.39, 
			 "cosmo_total_nonelectrostatic_energy": 7.76, 
			 "SMD_solvation_energy": 5.54 
		},
		"coords": [
			{
				"x": 3.7259251665,
				"y": -0.8066383792,
				"z": 1.5383450759,
				"element": "O" 
			},
			{
				"x": 4.2436883666,
				"y": 0.3569791462,
				"z": 1.0841995974,
				"element": "C" 
			},
			{
				"x": 5.2855537921,
				"y": 0.7836498427,
				"z": 1.5150157645,
				"element": "O" 
			},
			{
				"x": 3.4623287433,
				"y": 1.0651461406,
				"z": -0.0371124229,
				"element": "C" 
			},
			{
				"x": 1.9805486588,
				"y": 0.7677756024,
				"z": -0.0883759711,
				"element": "C" 
			},
			{
				"x": 1.5090254238,
				"y": -0.3344948476,
				"z": -0.8130689031,
				"element": "C" 
			},
			{
				"x": 0.1424327925,
				"y": -0.6437429939,
				"z": -0.828512243,
				"element": "C" 
			},
			{
				"x": -0.2400431447,
				"y": -1.7265916787,
				"z": -1.5628974047,
				"element": "O" 
			},
			{
				"x": -0.7615853899,
				"y": 0.1493224923,
				"z": -0.1147932632,
				"element": "C" 
			},
			{
				"x": -0.2902383051,
				"y": 1.2473450597,
				"z": 0.6060806451,
				"element": "C" 
			},
			{
				"x": 1.0680160852,
				"y": 1.5586841317,
				"z": 0.6266428139,
				"element": "C" 
			},
			{
				"x": 2.8664158564,
				"y": -0.9695526082,
				"z": 1.1155547885,
				"element": "H" 
			},
			{
				"x": 3.9440422561,
				"y": 0.7664602745,
				"z": -0.9765537079,
				"element": "H" 
			},
			{
				"x": 3.6538693685,
				"y": 2.1332133563,
				"z": 0.0866716914,
				"element": "H" 
			},
			{
				"x": 2.184769656,
				"y": -0.9521260998,
				"z": -1.3984389114,
				"element": "H" 
			},
			{
				"x": -1.1984265367,
				"y": -1.8329104234,
				"z": -1.5028145414,
				"element": "H" 
			},
			{
				"x": -1.8233324974,
				"y": -0.0865925374,
				"z": -0.1274733582,
				"element": "H" 
			},
			{
				"x": -0.9945309096,
				"y": 1.8637342988,
				"z": 1.1570245106,
				"element": "H" 
			},
			{
				"x": 1.4238406177,
				"y": 2.4138392229,
				"z": 1.1934058398,
				"element": "H" 
			}
		],
		 "valence_orbital": [ 
			{
				"type": "occ",
				"energy": -0.34885,
				"method": "rhf"
			},
			{
				"type": "occ",
				"energy": -0.3069,
				"method": "rhf"
			},
			{
				"type": "occ",
				"energy": -0.28162,
				"method": "rhf"
			},
			{
				"type": "occ",
				"energy": -0.25481,
				"method": "rhf"
			},
			{
				"type": "occ",
				"energy": -0.23915,
				"method": "rhf"
			},
			{
				"type": "unocc",
				"energy": -0.02611,
				"method": "rhf"
			},
			{
				"type": "unocc",
				"energy": -0.01047,
				"method": "rhf"
			},
			{
				"type": "unocc",
				"energy": 0.0194,
				"method": "rhf"
			},
			{
				"type": "unocc",
				"energy": 0.05623,
				"method": "rhf"
			},
			{
				"type": "unocc",
				"energy": 0.07988,
				"method": "rhf"
			}
		],
		"cosmo_sigma_profile": { 
			"-0.025": 0.0,
			"-0.024": 0.0,
			"-0.023": 0.0,
			"-0.022": 0.0,
			"-0.021": 0.0,
			"-0.02": 0.0,
			"-0.019": 0.0,
			"-0.018": 0.623126485859,
			"-0.017": 1.05219535163,
			"-0.016": 1.18698028605,
			"-0.015": 1.11448387554,
			"-0.014": 1.02168629141,
			"-0.013": 1.4063285357,
			"-0.012": 0.997643684099,
			"-0.011": 1.55340283652,
			"-0.01": 3.3409637805,
			"-0.009": 2.982619259,
			"-0.008": 4.44652751383,
			"-0.007": 8.41010250752,
			"-0.006": 13.4851391327,
			"-0.005": 11.8073602395,
			"-0.004": 11.8830053743,
			"-0.003": 10.7714551092,
			"-0.002": 9.32497812467,
			"-0.001": 7.48766211173,
			"0.0": 7.28339294619,
			"0.001": 8.37136193344,
			"0.002": 8.6380593347,
			"0.003": 11.4044648512,
			"0.004": 10.2673663005,
			"0.005": 8.88531618909,
			"0.006": 4.4165997019,
			"0.007": 3.97057735123,
			"0.008": 3.61608936582,
			"0.009": 4.09961433297,
			"0.01": 6.61946366979,
			"0.011": 6.96333013766,
			"0.012": 6.23548799136,
			"0.013": 2.84122972315,
			"0.014": 0.147823539336,
			"0.015": 0.0,
			"0.016": 0.0,
			"0.017": 0.0,
			"0.018": 0.0,
			"0.019": 0.0,
			"0.02": 0.0,
			"0.021": 0.0,
			"0.022": 0.0,
			"0.023": 0.0,
			"0.024": 0.0,
			"0.025": 0.0
		}
	}
}
