{
	 "smiles": "NC(=O)C(=C/C1=C(O)C=CC=C1)C1=NC2=C(S1)C=CC=C2", 
	 "Tm": 483.15, 
	 "num_atms": 33, 
	 "gaussian": { 
		 "optdone": 1, 
		 "sigma_profile": "yes", 
		 "theory": "DFT", 
		 "functional": "B3LYP", 
		 "basiset": "6-31G**", 
		 "properties": { 
			 "R2extent": 8679.7763, 
			 "electric_dipole_moment_norm": 4.26354830042, 
			 "electric_quadrupole_moment_norm": 11.1222274078, 
			 "total_energy": -1275.09472471, 
			 "HOMO_LUMO_gap": 0.12935, 
			 "cosmo_polarized_energy": -13.24, 
			 "cosmo_cavitation_energy": 38.51, 
			 "cosmo_dispersion_energy": -28.98, 
			 "cosmo_repulsion_energy": 2.13, 
			 "cosmo_total_nonelectrostatic_energy": 11.67, 
			 "SMD_solvation_energy": 5.74 
		},
		"coords": [
			{
				"x": -1.7928955189,
				"y": -2.0144310025,
				"z": 0.6574356562,
				"element": "N" 
			},
			{
				"x": -1.5344131739,
				"y": -0.8939448338,
				"z": 1.3537188702,
				"element": "C" 
			},
			{
				"x": -2.3592240068,
				"y": -0.4724212527,
				"z": 2.1882118002,
				"element": "O" 
			},
			{
				"x": -0.2097297828,
				"y": -0.2237172473,
				"z": 1.1353917133,
				"element": "C" 
			},
			{
				"x": 0.3590896855,
				"y": 0.6409724912,
				"z": 2.0409246985,
				"element": "C" 
			},
			{
				"x": -0.019510514,
				"y": 1.3821654638,
				"z": 3.2357699338,
				"element": "C" 
			},
			{
				"x": -1.2614270232,
				"y": 2.0416859628,
				"z": 3.4942649194,
				"element": "C" 
			},
			{
				"x": -2.321835304,
				"y": 1.9743296528,
				"z": 2.6886837646,
				"element": "O" 
			},
			{
				"x": -1.3696786108,
				"y": 2.8836732255,
				"z": 4.6199447635,
				"element": "C" 
			},
			{
				"x": -0.3135590786,
				"y": 3.0634244926,
				"z": 5.4959948453,
				"element": "C" 
			},
			{
				"x": 0.9119408732,
				"y": 2.4167193247,
				"z": 5.2664843967,
				"element": "C" 
			},
			{
				"x": 1.0483633172,
				"y": 1.6227707197,
				"z": 4.1442756093,
				"element": "C" 
			},
			{
				"x": 0.6122047577,
				"y": -0.6024935954,
				"z": -0.0301935784,
				"element": "C" 
			},
			{
				"x": 0.4805575109,
				"y": -1.6869548283,
				"z": -0.7447205874,
				"element": "N" 
			},
			{
				"x": 1.3941612579,
				"y": -1.760844639,
				"z": -1.7789801944,
				"element": "C" 
			},
			{
				"x": 2.2794237369,
				"y": -0.6610357626,
				"z": -1.8738770082,
				"element": "C" 
			},
			{
				"x": 1.8986147867,
				"y": 0.4958749694,
				"z": -0.618121745,
				"element": "S" 
			},
			{
				"x": 3.2625088352,
				"y": -0.6018155374,
				"z": -2.8643451104,
				"element": "C" 
			},
			{
				"x": 3.3490681669,
				"y": -1.6597696832,
				"z": -3.7660801054,
				"element": "C" 
			},
			{
				"x": 2.4754163412,
				"y": -2.7581156558,
				"z": -3.6809201459,
				"element": "C" 
			},
			{
				"x": 1.4987649732,
				"y": -2.8187207173,
				"z": -2.6947320178,
				"element": "C" 
			},
			{
				"x": -2.6804961464,
				"y": -2.4612360768,
				"z": 0.8306734618,
				"element": "H" 
			},
			{
				"x": -1.1208270172,
				"y": -2.3624438906,
				"z": -0.0240532076,
				"element": "H" 
			},
			{
				"x": 1.4161304708,
				"y": 0.8064395513,
				"z": 1.8337240517,
				"element": "H" 
			},
			{
				"x": -2.3926109735,
				"y": 1.024404138,
				"z": 2.3607043864,
				"element": "H" 
			},
			{
				"x": -2.3236699804,
				"y": 3.3771631676,
				"z": 4.7724067647,
				"element": "H" 
			},
			{
				"x": -0.4350374767,
				"y": 3.7108087924,
				"z": 6.3601364924,
				"element": "H" 
			},
			{
				"x": 1.7476219478,
				"y": 2.5564629641,
				"z": 5.9445009338,
				"element": "H" 
			},
			{
				"x": 2.0061374482,
				"y": 1.1500972785,
				"z": 3.9405882424,
				"element": "H" 
			},
			{
				"x": 3.9393235962,
				"y": 0.2435941782,
				"z": -2.9331711058,
				"element": "H" 
			},
			{
				"x": 4.1036965065,
				"y": -1.6337467141,
				"z": -4.5462460515,
				"element": "H" 
			},
			{
				"x": 2.5669533226,
				"y": -3.5698368951,
				"z": -4.3960381272,
				"element": "H" 
			},
			{
				"x": 0.8215370725,
				"y": -3.6628580408,
				"z": -2.6160563194,
				"element": "H" 
			}
		],
		 "valence_orbital": [ 
			{
				"type": "occ",
				"energy": -0.27311,
				"method": "rhf"
			},
			{
				"type": "occ",
				"energy": -0.25882,
				"method": "rhf"
			},
			{
				"type": "occ",
				"energy": -0.24551,
				"method": "rhf"
			},
			{
				"type": "occ",
				"energy": -0.23159,
				"method": "rhf"
			},
			{
				"type": "occ",
				"energy": -0.21216,
				"method": "rhf"
			},
			{
				"type": "unocc",
				"energy": -0.08281,
				"method": "rhf"
			},
			{
				"type": "unocc",
				"energy": -0.02913,
				"method": "rhf"
			},
			{
				"type": "unocc",
				"energy": -0.01593,
				"method": "rhf"
			},
			{
				"type": "unocc",
				"energy": -0.00247,
				"method": "rhf"
			},
			{
				"type": "unocc",
				"energy": 0.01063,
				"method": "rhf"
			}
		],
		"cosmo_sigma_profile": { 
			"-0.025": 0.0,
			"-0.024": 0.0,
			"-0.023": 0.0,
			"-0.022": 0.0,
			"-0.021": 0.0,
			"-0.02": 0.0,
			"-0.019": 0.0,
			"-0.018": 0.0,
			"-0.017": 0.0,
			"-0.016": 0.0,
			"-0.015": 0.261957294518,
			"-0.014": 1.026738033,
			"-0.013": 1.05481645403,
			"-0.012": 1.20135838857,
			"-0.011": 1.03930171026,
			"-0.01": 0.690382700965,
			"-0.009": 1.74220551583,
			"-0.008": 3.30396998747,
			"-0.007": 8.62009750748,
			"-0.006": 17.5161598984,
			"-0.005": 20.0396959982,
			"-0.004": 20.1178241723,
			"-0.003": 18.5374173542,
			"-0.002": 18.7302268711,
			"-0.001": 21.941653809,
			"0.0": 25.9018591278,
			"0.001": 27.6657736885,
			"0.002": 28.1226741094,
			"0.003": 31.656444736,
			"0.004": 27.0259074215,
			"0.005": 13.9234810459,
			"0.006": 4.40629475057,
			"0.007": 1.79087159737,
			"0.008": 2.98711365194,
			"0.009": 2.24649474319,
			"0.01": 3.39077762337,
			"0.011": 2.6723711531,
			"0.012": 3.6452793185,
			"0.013": 1.30087979157,
			"0.014": 0.0,
			"0.015": 0.0,
			"0.016": 0.0,
			"0.017": 0.0,
			"0.018": 0.0,
			"0.019": 0.0,
			"0.02": 0.0,
			"0.021": 0.0,
			"0.022": 0.0,
			"0.023": 0.0,
			"0.024": 0.0,
			"0.025": 0.0
		}
	}
}
