{
	 "smiles": "NC1=CC=C(C=C1)S(=O)(=O)NC1CN2CCC1CC2", 
	 "Tm": 442.15, 
	 "num_atms": 38, 
	 "gaussian": { 
		 "optdone": 1, 
		 "sigma_profile": "yes", 
		 "theory": "DFT", 
		 "functional": "B3LYP", 
		 "basiset": "6-31G**", 
		 "properties": { 
			 "R2extent": 6466.9969, 
			 "electric_dipole_moment_norm": 6.9025039109, 
			 "electric_quadrupole_moment_norm": 31.402280254, 
			 "total_energy": -1219.64759162, 
			 "HOMO_LUMO_gap": 0.18864, 
			 "cosmo_polarized_energy": -23.47, 
			 "cosmo_cavitation_energy": 39.48, 
			 "cosmo_dispersion_energy": -28.28, 
			 "cosmo_repulsion_energy": 2.13, 
			 "cosmo_total_nonelectrostatic_energy": 13.34, 
			 "SMD_solvation_energy": 0.96 
		},
		"coords": [
			{
				"x": -2.4906398793,
				"y": 4.2739367474,
				"z": 0.5642846817,
				"element": "N" 
			},
			{
				"x": -2.3748672304,
				"y": 2.9891982745,
				"z": 0.0617632787,
				"element": "C" 
			},
			{
				"x": -1.6113402127,
				"y": 2.7361580272,
				"z": -1.0950732781,
				"element": "C" 
			},
			{
				"x": -1.5360871908,
				"y": 1.4553364133,
				"z": -1.6276367177,
				"element": "C" 
			},
			{
				"x": -2.2185542547,
				"y": 0.401342732,
				"z": -1.0119279461,
				"element": "C" 
			},
			{
				"x": -2.9932546599,
				"y": 0.6391795089,
				"z": 0.1288716519,
				"element": "C" 
			},
			{
				"x": -3.0693270383,
				"y": 1.9188547978,
				"z": 0.6615912959,
				"element": "C" 
			},
			{
				"x": -2.0854425187,
				"y": -1.2572852102,
				"z": -1.6678861941,
				"element": "S" 
			},
			{
				"x": -3.3145274597,
				"y": -1.9705048602,
				"z": -1.3107725007,
				"element": "O" 
			},
			{
				"x": -1.6100420774,
				"y": -1.1338982041,
				"z": -3.0485356142,
				"element": "O" 
			},
			{
				"x": -0.8751646035,
				"y": -2.0650502968,
				"z": -0.8270103365,
				"element": "N" 
			},
			{
				"x": 0.5320541098,
				"y": -1.6533037348,
				"z": -0.9270256439,
				"element": "C" 
			},
			{
				"x": 1.0071642833,
				"y": -0.6686914842,
				"z": 0.1987412296,
				"element": "C" 
			},
			{
				"x": 2.2019119036,
				"y": -1.1585749443,
				"z": 0.8982030616,
				"element": "N" 
			},
			{
				"x": 3.2914956291,
				"y": -1.351255535,
				"z": -0.0730187358,
				"element": "C" 
			},
			{
				"x": 2.9034077155,
				"y": -2.3912759281,
				"z": -1.1728972179,
				"element": "C" 
			},
			{
				"x": 1.4697130314,
				"y": -2.8831334556,
				"z": -0.8869088252,
				"element": "C" 
			},
			{
				"x": 1.4387924392,
				"y": -3.5222700864,
				"z": 0.5161971934,
				"element": "C" 
			},
			{
				"x": 1.8963491549,
				"y": -2.4439706273,
				"z": 1.5492737383,
				"element": "C" 
			},
			{
				"x": -2.7871320793,
				"y": 4.363175479,
				"z": 1.5248345574,
				"element": "H" 
			},
			{
				"x": -1.7731753114,
				"y": 4.9330649643,
				"z": 0.3009696005,
				"element": "H" 
			},
			{
				"x": -1.0899068959,
				"y": 3.5561530666,
				"z": -1.5819422689,
				"element": "H" 
			},
			{
				"x": -0.9677556503,
				"y": 1.2673964589,
				"z": -2.5321635652,
				"element": "H" 
			},
			{
				"x": -3.5508842108,
				"y": -0.1751537893,
				"z": 0.5799256459,
				"element": "H" 
			},
			{
				"x": -3.6814791818,
				"y": 2.1039470801,
				"z": 1.5404045101,
				"element": "H" 
			},
			{
				"x": -1.2035670488,
				"y": -2.330989823,
				"z": 0.0962261896,
				"element": "H" 
			},
			{
				"x": 0.6277534244,
				"y": -1.1908378567,
				"z": -1.9135848081,
				"element": "H" 
			},
			{
				"x": 1.2283045749,
				"y": 0.3204242011,
				"z": -0.2163436041,
				"element": "H" 
			},
			{
				"x": 0.2079763083,
				"y": -0.5313737796,
				"z": 0.9370658602,
				"element": "H" 
			},
			{
				"x": 3.5234259993,
				"y": -0.3766083632,
				"z": -0.5164620566,
				"element": "H" 
			},
			{
				"x": 4.1820523133,
				"y": -1.6721637084,
				"z": 0.4780506288,
				"element": "H" 
			},
			{
				"x": 3.5907832853,
				"y": -3.2449793623,
				"z": -1.1693167591,
				"element": "H" 
			},
			{
				"x": 2.9566782082,
				"y": -1.9459656648,
				"z": -2.1732804335,
				"element": "H" 
			},
			{
				"x": 1.1444056223,
				"y": -3.6006057921,
				"z": -1.6454484471,
				"element": "H" 
			},
			{
				"x": 0.4349746314,
				"y": -3.8983442287,
				"z": 0.7448715226,
				"element": "H" 
			},
			{
				"x": 2.1024094401,
				"y": -4.3940783,
				"z": 0.5348106901,
				"element": "H" 
			},
			{
				"x": 2.7931103123,
				"y": -2.7687475163,
				"z": 2.0879192376,
				"element": "H" 
			},
			{
				"x": 1.1212851168,
				"y": -2.2629051997,
				"z": 2.3030303789,
				"element": "H" 
			}
		],
		 "valence_orbital": [ 
			{
				"type": "occ",
				"energy": -0.28837,
				"method": "rhf"
			},
			{
				"type": "occ",
				"energy": -0.27018,
				"method": "rhf"
			},
			{
				"type": "occ",
				"energy": -0.26663,
				"method": "rhf"
			},
			{
				"type": "occ",
				"energy": -0.22137,
				"method": "rhf"
			},
			{
				"type": "occ",
				"energy": -0.20748,
				"method": "rhf"
			},
			{
				"type": "unocc",
				"energy": -0.01884,
				"method": "rhf"
			},
			{
				"type": "unocc",
				"energy": -0.01651,
				"method": "rhf"
			},
			{
				"type": "unocc",
				"energy": 0.05138,
				"method": "rhf"
			},
			{
				"type": "unocc",
				"energy": 0.06314,
				"method": "rhf"
			},
			{
				"type": "unocc",
				"energy": 0.07749,
				"method": "rhf"
			}
		],
		"cosmo_sigma_profile": { 
			"-0.025": 0.0,
			"-0.024": 0.0,
			"-0.023": 0.0,
			"-0.022": 0.0,
			"-0.021": 0.0,
			"-0.02": 0.0,
			"-0.019": 0.0,
			"-0.018": 0.0,
			"-0.017": 0.0,
			"-0.016": 0.0,
			"-0.015": 0.0,
			"-0.014": 0.435746731751,
			"-0.013": 3.10089425358,
			"-0.012": 3.98430473491,
			"-0.011": 5.09107860156,
			"-0.01": 4.76288850853,
			"-0.009": 4.41020954153,
			"-0.008": 4.49088613883,
			"-0.007": 6.67308612338,
			"-0.006": 9.3942639766,
			"-0.005": 11.5876105665,
			"-0.004": 20.9800298806,
			"-0.003": 31.62545565,
			"-0.002": 31.3857658253,
			"-0.001": 26.3733104408,
			"0.0": 25.0438294955,
			"0.001": 17.2774646932,
			"0.002": 12.4939306468,
			"0.003": 13.8534068161,
			"0.004": 15.9366704275,
			"0.005": 7.03534092489,
			"0.006": 4.9923366238,
			"0.007": 5.63950371705,
			"0.008": 6.62367349702,
			"0.009": 5.97890149144,
			"0.01": 5.22427990136,
			"0.011": 10.1544248324,
			"0.012": 9.93152502527,
			"0.013": 2.1132337477,
			"0.014": 0.109516761316,
			"0.015": 0.56815088826,
			"0.016": 0.557635074549,
			"0.017": 0.6492551081,
			"0.018": 0.0686810137751,
			"0.019": 0.0,
			"0.02": 0.0,
			"0.021": 0.0,
			"0.022": 0.0,
			"0.023": 0.0,
			"0.024": 0.0,
			"0.025": 0.0
		}
	}
}
