{
	 "smiles": "CC(C(O)=O)C1=CC=C(N2CC=CC2)C(Cl)=C1", 
	 "Tm": 372.15, 
	 "num_atms": 31, 
	 "gaussian": { 
		 "optdone": 1, 
		 "sigma_profile": "yes", 
		 "theory": "DFT", 
		 "functional": "B3LYP", 
		 "basiset": "6-31G**", 
		 "properties": { 
			 "R2extent": 5844.4452, 
			 "electric_dipole_moment_norm": 7.16811044418, 
			 "electric_quadrupole_moment_norm": 19.2429858286, 
			 "total_energy": -1169.19236443, 
			 "HOMO_LUMO_gap": 0.18232, 
			 "cosmo_polarized_energy": -14.46, 
			 "cosmo_cavitation_energy": 35.3, 
			 "cosmo_dispersion_energy": -25.42, 
			 "cosmo_repulsion_energy": 1.97, 
			 "cosmo_total_nonelectrostatic_energy": 11.86, 
			 "SMD_solvation_energy": 5.76 
		},
		"coords": [
			{
				"x": 1.0701765866,
				"y": 1.4216167208,
				"z": 3.5871082059,
				"element": "C" 
			},
			{
				"x": 0.8773192315,
				"y": -0.0720136235,
				"z": 3.284573474,
				"element": "C" 
			},
			{
				"x": -0.2089233067,
				"y": -0.6711017946,
				"z": 4.2029795208,
				"element": "C" 
			},
			{
				"x": -0.730757367,
				"y": -1.8546604878,
				"z": 3.799733227,
				"element": "O" 
			},
			{
				"x": -0.5547923326,
				"y": -0.1727026728,
				"z": 5.2459472825,
				"element": "O" 
			},
			{
				"x": 0.6436419722,
				"y": -0.3715657726,
				"z": 1.8120329086,
				"element": "C" 
			},
			{
				"x": 1.5340883603,
				"y": -1.1459884269,
				"z": 1.0620583949,
				"element": "C" 
			},
			{
				"x": 1.326218634,
				"y": -1.3901827846,
				"z": -0.2894290395,
				"element": "C" 
			},
			{
				"x": 0.2107702863,
				"y": -0.8808909969,
				"z": -1.0057368262,
				"element": "C" 
			},
			{
				"x": 0.0919406032,
				"y": -1.1689413055,
				"z": -2.3503274661,
				"element": "N" 
			},
			{
				"x": -0.8318884858,
				"y": -0.5571021003,
				"z": -3.325177273,
				"element": "C" 
			},
			{
				"x": -0.3528869962,
				"y": -1.1152763335,
				"z": -4.6353267272,
				"element": "C" 
			},
			{
				"x": 0.7073196117,
				"y": -1.9019453366,
				"z": -4.474709339,
				"element": "C" 
			},
			{
				"x": 1.1172610618,
				"y": -1.9708202955,
				"z": -3.0323725268,
				"element": "C" 
			},
			{
				"x": -0.7016485506,
				"y": -0.1244635228,
				"z": -0.2151777641,
				"element": "C" 
			},
			{
				"x": -2.2188072599,
				"y": 0.5354350142,
				"z": -0.8454073611,
				"element": "Cl" 
			},
			{
				"x": -0.4787483481,
				"y": 0.1234571787,
				"z": 1.1357318964,
				"element": "C" 
			},
			{
				"x": 0.1858182619,
				"y": 1.9981401264,
				"z": 3.300629105,
				"element": "H" 
			},
			{
				"x": 1.2308139399,
				"y": 1.5713546353,
				"z": 4.6563227304,
				"element": "H" 
			},
			{
				"x": 1.927543966,
				"y": 1.8127105313,
				"z": 3.0327401578,
				"element": "H" 
			},
			{
				"x": 1.7974359583,
				"y": -0.5992822011,
				"z": 3.5776347709,
				"element": "H" 
			},
			{
				"x": -0.4012760832,
				"y": -2.0572375539,
				"z": 2.9090265597,
				"element": "H" 
			},
			{
				"x": 2.4201005607,
				"y": -1.5619948451,
				"z": 1.5358019647,
				"element": "H" 
			},
			{
				"x": 2.0552197808,
				"y": -1.9942935519,
				"z": -0.8119764116,
				"element": "H" 
			},
			{
				"x": -1.8741692274,
				"y": -0.83205858,
				"z": -3.1298782708,
				"element": "H" 
			},
			{
				"x": -0.7809140763,
				"y": 0.5403338039,
				"z": -3.3055596356,
				"element": "H" 
			},
			{
				"x": -0.848075401,
				"y": -0.8826319757,
				"z": -5.5711219756,
				"element": "H" 
			},
			{
				"x": 1.2456253294,
				"y": -2.4300739473,
				"z": -5.2531099209,
				"element": "H" 
			},
			{
				"x": 1.1418221789,
				"y": -3.0030340217,
				"z": -2.6480626793,
				"element": "H" 
			},
			{
				"x": 2.128801196,
				"y": -1.5550328195,
				"z": -2.886227445,
				"element": "H" 
			},
			{
				"x": -1.2189300846,
				"y": 0.7119469396,
				"z": 1.6687804632,
				"element": "H" 
			}
		],
		 "valence_orbital": [ 
			{
				"type": "occ",
				"energy": -0.3052,
				"method": "rhf"
			},
			{
				"type": "occ",
				"energy": -0.26688,
				"method": "rhf"
			},
			{
				"type": "occ",
				"energy": -0.25996,
				"method": "rhf"
			},
			{
				"type": "occ",
				"energy": -0.25497,
				"method": "rhf"
			},
			{
				"type": "occ",
				"energy": -0.20347,
				"method": "rhf"
			},
			{
				"type": "unocc",
				"energy": -0.02115,
				"method": "rhf"
			},
			{
				"type": "unocc",
				"energy": -0.00883,
				"method": "rhf"
			},
			{
				"type": "unocc",
				"energy": 0.00504,
				"method": "rhf"
			},
			{
				"type": "unocc",
				"energy": 0.01394,
				"method": "rhf"
			},
			{
				"type": "unocc",
				"energy": 0.02596,
				"method": "rhf"
			}
		],
		"cosmo_sigma_profile": { 
			"-0.025": 0.0,
			"-0.024": 0.0,
			"-0.023": 0.0,
			"-0.022": 0.0,
			"-0.021": 0.0,
			"-0.02": 0.0,
			"-0.019": 0.0,
			"-0.018": 0.0,
			"-0.017": 0.0,
			"-0.016": 0.0,
			"-0.015": 0.0138006449403,
			"-0.014": 0.590508313968,
			"-0.013": 0.279803470711,
			"-0.012": 0.56996506748,
			"-0.011": 1.66916194023,
			"-0.01": 1.29149839017,
			"-0.009": 1.11541010689,
			"-0.008": 2.20868610275,
			"-0.007": 9.16543170655,
			"-0.006": 14.8018908955,
			"-0.005": 16.8000914192,
			"-0.004": 23.5631893212,
			"-0.003": 26.2057861899,
			"-0.002": 22.3724558553,
			"-0.001": 19.0426456312,
			"0.0": 22.2455475902,
			"0.001": 20.3405229576,
			"0.002": 18.2813481614,
			"0.003": 19.4763779616,
			"0.004": 18.5422463766,
			"0.005": 12.5660227013,
			"0.006": 4.04585128346,
			"0.007": 2.79437055448,
			"0.008": 3.01063880913,
			"0.009": 2.82803748832,
			"0.01": 4.69806593641,
			"0.011": 5.21858367928,
			"0.012": 5.48745832658,
			"0.013": 2.22825719884,
			"0.014": 0.195481739757,
			"0.015": 0.0,
			"0.016": 0.0,
			"0.017": 0.0,
			"0.018": 0.0,
			"0.019": 0.0,
			"0.02": 0.0,
			"0.021": 0.0,
			"0.022": 0.0,
			"0.023": 0.0,
			"0.024": 0.0,
			"0.025": 0.0
		}
	}
}
