{
	 "smiles": "NC1=C(C#N)C2=C(CCCC2)C2(O1)C(=O)NC1=C2C=CC=C1", 
	 "Tm": 504.15, 
	 "num_atms": 37, 
	 "gaussian": { 
		 "optdone": 1, 
		 "sigma_profile": "yes", 
		 "theory": "DFT", 
		 "functional": "B3LYP", 
		 "basiset": "6-31G**", 
		 "properties": { 
			 "R2extent": 5887.7117, 
			 "electric_dipole_moment_norm": 5.76734999805, 
			 "electric_quadrupole_moment_norm": 19.9596440106, 
			 "total_energy": -971.542503891, 
			 "HOMO_LUMO_gap": 0.14718, 
			 "cosmo_polarized_energy": -21.59, 
			 "cosmo_cavitation_energy": 40.14, 
			 "cosmo_dispersion_energy": -27.36, 
			 "cosmo_repulsion_energy": 2.11, 
			 "cosmo_total_nonelectrostatic_energy": 14.9, 
			 "SMD_solvation_energy": 7.56 
		},
		"coords": [
			{
				"x": 3.1368930467,
				"y": -1.0700780907,
				"z": -1.0443788396,
				"element": "N" 
			},
			{
				"x": 1.8083557051,
				"y": -1.06521889,
				"z": -0.7599361021,
				"element": "C" 
			},
			{
				"x": 0.8745928393,
				"y": -1.9477856688,
				"z": -1.2560169258,
				"element": "C" 
			},
			{
				"x": 1.3176649887,
				"y": -2.9666400942,
				"z": -2.1341094908,
				"element": "C" 
			},
			{
				"x": 1.7346562278,
				"y": -3.7881190053,
				"z": -2.8528883988,
				"element": "N" 
			},
			{
				"x": -0.5051452956,
				"y": -1.8622265745,
				"z": -0.7621467761,
				"element": "C" 
			},
			{
				"x": -0.8910450191,
				"y": -0.7984623349,
				"z": -0.0287107261,
				"element": "C" 
			},
			{
				"x": -2.2858035225,
				"y": -0.6245769486,
				"z": 0.5293523773,
				"element": "C" 
			},
			{
				"x": -3.2948450048,
				"y": -1.5725276043,
				"z": -0.1325474289,
				"element": "C" 
			},
			{
				"x": -2.7181677777,
				"y": -2.9884083094,
				"z": -0.2308849028,
				"element": "C" 
			},
			{
				"x": -1.4466745428,
				"y": -3.0022101884,
				"z": -1.0885962275,
				"element": "C" 
			},
			{
				"x": 0.0863494588,
				"y": 0.3305682742,
				"z": 0.2113411308,
				"element": "C" 
			},
			{
				"x": 1.4805808167,
				"y": -0.0883443721,
				"z": 0.0987501002,
				"element": "O" 
			},
			{
				"x": 0.0130158952,
				"y": 0.9052069188,
				"z": 1.6732335219,
				"element": "C" 
			},
			{
				"x": 0.1573347987,
				"y": 0.2826858784,
				"z": 2.7021655568,
				"element": "O" 
			},
			{
				"x": -0.2319998244,
				"y": 2.2574963122,
				"z": 1.5556824606,
				"element": "N" 
			},
			{
				"x": -0.3348001429,
				"y": 2.6752876446,
				"z": 0.2188838413,
				"element": "C" 
			},
			{
				"x": -0.1597682761,
				"y": 1.5729185013,
				"z": -0.6310695732,
				"element": "C" 
			},
			{
				"x": -0.2428696567,
				"y": 1.7332687585,
				"z": -2.0064592976,
				"element": "C" 
			},
			{
				"x": -0.4825992614,
				"y": 3.0132411894,
				"z": -2.5259861419,
				"element": "C" 
			},
			{
				"x": -0.649548456,
				"y": 4.1019548097,
				"z": -1.6671767924,
				"element": "C" 
			},
			{
				"x": -0.5834632001,
				"y": 3.9497496393,
				"z": -0.2757114495,
				"element": "C" 
			},
			{
				"x": 3.5323496887,
				"y": -1.9137752954,
				"z": -1.4330763153,
				"element": "H" 
			},
			{
				"x": 3.7298634318,
				"y": -0.5004106115,
				"z": -0.460290211,
				"element": "H" 
			},
			{
				"x": -2.6125996003,
				"y": 0.4160395242,
				"z": 0.3943643549,
				"element": "H" 
			},
			{
				"x": -2.2668027107,
				"y": -0.7945787117,
				"z": 1.6158744528,
				"element": "H" 
			},
			{
				"x": -4.2325083683,
				"y": -1.5725491276,
				"z": 0.4342564577,
				"element": "H" 
			},
			{
				"x": -3.5319895335,
				"y": -1.2066869252,
				"z": -1.1403742745,
				"element": "H" 
			},
			{
				"x": -2.4810127895,
				"y": -3.3516034647,
				"z": 0.7775943224,
				"element": "H" 
			},
			{
				"x": -3.4558086797,
				"y": -3.6810122826,
				"z": -0.6510153579,
				"element": "H" 
			},
			{
				"x": -1.7086062032,
				"y": -2.9450723942,
				"z": -2.1554987664,
				"element": "H" 
			},
			{
				"x": -0.91661768,
				"y": -3.9547311154,
				"z": -0.9706805211,
				"element": "H" 
			},
			{
				"x": -0.3082019192,
				"y": 2.8570438319,
				"z": 2.3643074189,
				"element": "H" 
			},
			{
				"x": -0.1244991882,
				"y": 0.879555893,
				"z": -2.6669463585,
				"element": "H" 
			},
			{
				"x": -0.5434166359,
				"y": 3.1577847376,
				"z": -3.5999093461,
				"element": "H" 
			},
			{
				"x": -0.8398071659,
				"y": 5.087918557,
				"z": -2.081011877,
				"element": "H" 
			},
			{
				"x": -0.7232564429,
				"y": 4.7981975394,
				"z": 0.3872161052,
				"element": "H" 
			}
		],
		 "valence_orbital": [ 
			{
				"type": "occ",
				"energy": -0.27991,
				"method": "rhf"
			},
			{
				"type": "occ",
				"energy": -0.26628,
				"method": "rhf"
			},
			{
				"type": "occ",
				"energy": -0.26439,
				"method": "rhf"
			},
			{
				"type": "occ",
				"energy": -0.23161,
				"method": "rhf"
			},
			{
				"type": "occ",
				"energy": -0.18917,
				"method": "rhf"
			},
			{
				"type": "unocc",
				"energy": -0.04199,
				"method": "rhf"
			},
			{
				"type": "unocc",
				"energy": -0.01824,
				"method": "rhf"
			},
			{
				"type": "unocc",
				"energy": -0.00894,
				"method": "rhf"
			},
			{
				"type": "unocc",
				"energy": 0.02069,
				"method": "rhf"
			},
			{
				"type": "unocc",
				"energy": 0.03399,
				"method": "rhf"
			}
		],
		"cosmo_sigma_profile": { 
			"-0.025": 0.0,
			"-0.024": 0.0,
			"-0.023": 0.0,
			"-0.022": 0.0,
			"-0.021": 0.0,
			"-0.02": 0.0,
			"-0.019": 0.0,
			"-0.018": 0.0,
			"-0.017": 0.102354809462,
			"-0.016": 1.38301620681,
			"-0.015": 2.52863513375,
			"-0.014": 3.43332318318,
			"-0.013": 3.72005360255,
			"-0.012": 3.14026479623,
			"-0.011": 2.86364769414,
			"-0.01": 2.69563933928,
			"-0.009": 2.91551026163,
			"-0.008": 4.15102111637,
			"-0.007": 4.6989567855,
			"-0.006": 8.90690782882,
			"-0.005": 10.2806396235,
			"-0.004": 13.9316500372,
			"-0.003": 24.2643537384,
			"-0.002": 33.9720980246,
			"-0.001": 37.6279612763,
			"0.0": 30.5456401801,
			"0.001": 21.6542530176,
			"0.002": 18.578366639,
			"0.003": 15.9837531331,
			"0.004": 15.8144291982,
			"0.005": 9.53656217475,
			"0.006": 5.1435962225,
			"0.007": 4.43891055894,
			"0.008": 4.31045306775,
			"0.009": 4.72311159255,
			"0.01": 4.47782865656,
			"0.011": 7.01579539372,
			"0.012": 8.64762312456,
			"0.013": 4.60238122279,
			"0.014": 2.17765100381,
			"0.015": 0.52687756532,
			"0.016": 0.0,
			"0.017": 0.0,
			"0.018": 0.0,
			"0.019": 0.0,
			"0.02": 0.0,
			"0.021": 0.0,
			"0.022": 0.0,
			"0.023": 0.0,
			"0.024": 0.0,
			"0.025": 0.0
		}
	}
}
