{
	 "smiles": "COC1=CC=C(OC2=C(N)C=C(Cl)C=C2)C=C1", 
	 "Tm": 321.15, 
	 "num_atms": 29, 
	 "gaussian": { 
		 "optdone": 1, 
		 "sigma_profile": "yes", 
		 "theory": "DFT", 
		 "functional": "B3LYP", 
		 "basiset": "6-31G**", 
		 "properties": { 
			 "R2extent": 6705.1517, 
			 "electric_dipole_moment_norm": 2.31664402963, 
			 "electric_quadrupole_moment_norm": 16.0307769581, 
			 "total_energy": -1167.98863331, 
			 "HOMO_LUMO_gap": 0.18706, 
			 "cosmo_polarized_energy": -11.08, 
			 "cosmo_cavitation_energy": 35.25, 
			 "cosmo_dispersion_energy": -25.57, 
			 "cosmo_repulsion_energy": 2.0, 
			 "cosmo_total_nonelectrostatic_energy": 11.68, 
			 "SMD_solvation_energy": 6.5 
		},
		"coords": [
			{
				"x": -2.4667742457,
				"y": -4.847964777,
				"z": 0.3710529839,
				"element": "C" 
			},
			{
				"x": -2.7625382795,
				"y": -3.942403509,
				"z": -0.6784237102,
				"element": "O" 
			},
			{
				"x": -2.0127753214,
				"y": -2.8030178558,
				"z": -0.7759461999,
				"element": "C" 
			},
			{
				"x": -2.3416767118,
				"y": -1.9455988889,
				"z": -1.8367041544,
				"element": "C" 
			},
			{
				"x": -1.6474714832,
				"y": -0.7571326887,
				"z": -2.0207372521,
				"element": "C" 
			},
			{
				"x": -0.6074666072,
				"y": -0.4137968143,
				"z": -1.150988893,
				"element": "C" 
			},
			{
				"x": 0.081121732,
				"y": 0.7567895413,
				"z": -1.4392008208,
				"element": "O" 
			},
			{
				"x": 0.6449573024,
				"y": 1.5003534559,
				"z": -0.4132653937,
				"element": "C" 
			},
			{
				"x": 1.9837216403,
				"y": 1.9024857752,
				"z": -0.6035916411,
				"element": "C" 
			},
			{
				"x": 2.6948634176,
				"y": 1.4322814934,
				"z": -1.699079207,
				"element": "N" 
			},
			{
				"x": 2.5683790457,
				"y": 2.7362384654,
				"z": 0.3623569395,
				"element": "C" 
			},
			{
				"x": 1.8306083954,
				"y": 3.1346130415,
				"z": 1.4738898204,
				"element": "C" 
			},
			{
				"x": 2.5979701629,
				"y": 4.1756146386,
				"z": 2.6702892081,
				"element": "Cl" 
			},
			{
				"x": 0.5094691763,
				"y": 2.7354297882,
				"z": 1.6643108364,
				"element": "C" 
			},
			{
				"x": -0.0792432737,
				"y": 1.9163416121,
				"z": 0.6985096905,
				"element": "C" 
			},
			{
				"x": -0.2679362527,
				"y": -1.2611661655,
				"z": -0.0992752613,
				"element": "C" 
			},
			{
				"x": -0.9730472832,
				"y": -2.4540089169,
				"z": 0.0926185812,
				"element": "C" 
			},
			{
				"x": -2.6017482799,
				"y": -4.3852245822,
				"z": 1.3577308657,
				"element": "H" 
			},
			{
				"x": -1.4423763538,
				"y": -5.2363094849,
				"z": 0.2965515172,
				"element": "H" 
			},
			{
				"x": -3.1709753972,
				"y": -5.6747460445,
				"z": 0.2649317091,
				"element": "H" 
			},
			{
				"x": -3.1511225101,
				"y": -2.229106188,
				"z": -2.5012242106,
				"element": "H" 
			},
			{
				"x": -1.8968739,
				"y": -0.084801547,
				"z": -2.835131778,
				"element": "H" 
			},
			{
				"x": 3.4597725177,
				"y": 2.0131878059,
				"z": -2.0100967481,
				"element": "H" 
			},
			{
				"x": 2.1152805284,
				"y": 1.0871757196,
				"z": -2.451437635,
				"element": "H" 
			},
			{
				"x": 3.5981102261,
				"y": 3.0580331369,
				"z": 0.2476591488,
				"element": "H" 
			},
			{
				"x": -0.0475947032,
				"y": 3.0618733174,
				"z": 2.5340869484,
				"element": "H" 
			},
			{
				"x": -1.1106385994,
				"y": 1.5967387659,
				"z": 0.8058044684,
				"element": "H" 
			},
			{
				"x": 0.5422671507,
				"y": -0.9980228634,
				"z": 0.5718265327,
				"element": "H" 
			},
			{
				"x": -0.6941620933,
				"y": -3.0986562312,
				"z": 0.9175836548,
				"element": "H" 
			}
		],
		 "valence_orbital": [ 
			{
				"type": "occ",
				"energy": -0.29473,
				"method": "rhf"
			},
			{
				"type": "occ",
				"energy": -0.25593,
				"method": "rhf"
			},
			{
				"type": "occ",
				"energy": -0.24092,
				"method": "rhf"
			},
			{
				"type": "occ",
				"energy": -0.21481,
				"method": "rhf"
			},
			{
				"type": "occ",
				"energy": -0.19845,
				"method": "rhf"
			},
			{
				"type": "unocc",
				"energy": -0.01139,
				"method": "rhf"
			},
			{
				"type": "unocc",
				"energy": -0.00308,
				"method": "rhf"
			},
			{
				"type": "unocc",
				"energy": 0.00817,
				"method": "rhf"
			},
			{
				"type": "unocc",
				"energy": 0.01944,
				"method": "rhf"
			},
			{
				"type": "unocc",
				"energy": 0.03557,
				"method": "rhf"
			}
		],
		"cosmo_sigma_profile": { 
			"-0.025": 0.0,
			"-0.024": 0.0,
			"-0.023": 0.0,
			"-0.022": 0.0,
			"-0.021": 0.0,
			"-0.02": 0.0,
			"-0.019": 0.0,
			"-0.018": 0.0,
			"-0.017": 0.0,
			"-0.016": 0.0,
			"-0.015": 0.0,
			"-0.014": 0.00839991199857,
			"-0.013": 1.04813206209,
			"-0.012": 1.58562227291,
			"-0.011": 2.17736014655,
			"-0.01": 2.80843096429,
			"-0.009": 2.81577494898,
			"-0.008": 2.14268157565,
			"-0.007": 5.83415770591,
			"-0.006": 15.2666360364,
			"-0.005": 21.0977003257,
			"-0.004": 19.5611883735,
			"-0.003": 20.1835581838,
			"-0.002": 15.4563790011,
			"-0.001": 14.7322795944,
			"0.0": 15.4450111072,
			"0.001": 18.5933341394,
			"0.002": 21.8725507294,
			"0.003": 28.1938073487,
			"0.004": 32.3689062365,
			"0.005": 24.6180975815,
			"0.006": 5.0755712501,
			"0.007": 2.9151003949,
			"0.008": 2.84344218305,
			"0.009": 1.89023204288,
			"0.01": 2.22279969722,
			"0.011": 1.53563770603,
			"0.012": 0.567983945603,
			"0.013": 0.56421099811,
			"0.014": 0.184788640041,
			"0.015": 0.0,
			"0.016": 0.0,
			"0.017": 0.0,
			"0.018": 0.0,
			"0.019": 0.0,
			"0.02": 0.0,
			"0.021": 0.0,
			"0.022": 0.0,
			"0.023": 0.0,
			"0.024": 0.0,
			"0.025": 0.0
		}
	}
}
