{
	 "smiles": "OC(=O)C1=CC=C(NN=CC2=CC(F)=CC=C2)C=C1", 
	 "Tm": 503.15, 
	 "num_atms": 30, 
	 "gaussian": { 
		 "optdone": 1, 
		 "sigma_profile": "yes", 
		 "theory": "DFT", 
		 "functional": "B3LYP", 
		 "basiset": "6-31G**", 
		 "properties": { 
			 "R2extent": 7042.5511, 
			 "electric_dipole_moment_norm": 1.92101758711, 
			 "electric_quadrupole_moment_norm": 16.0877002169, 
			 "total_energy": -899.876796613, 
			 "HOMO_LUMO_gap": 0.14585, 
			 "cosmo_polarized_energy": -15.14, 
			 "cosmo_cavitation_energy": 35.59, 
			 "cosmo_dispersion_energy": -25.05, 
			 "cosmo_repulsion_energy": 1.9, 
			 "cosmo_total_nonelectrostatic_energy": 12.44, 
			 "SMD_solvation_energy": 7.13 
		},
		"coords": [
			{
				"x": -3.2221690337,
				"y": -2.8014396305,
				"z": 2.4257216376,
				"element": "O" 
			},
			{
				"x": -2.5959197844,
				"y": -2.0981084852,
				"z": 3.407186769,
				"element": "C" 
			},
			{
				"x": -2.9327123208,
				"y": -2.1907401887,
				"z": 4.5734597489,
				"element": "O" 
			},
			{
				"x": -1.500780086,
				"y": -1.2428150329,
				"z": 2.9035067941,
				"element": "C" 
			},
			{
				"x": -1.151351372,
				"y": -1.1761907859,
				"z": 1.5487433213,
				"element": "C" 
			},
			{
				"x": -0.1170028268,
				"y": -0.3530816079,
				"z": 1.1141613397,
				"element": "C" 
			},
			{
				"x": 0.599860023,
				"y": 0.4220148284,
				"z": 2.03981492,
				"element": "C" 
			},
			{
				"x": 1.6526305657,
				"y": 1.2898490264,
				"z": 1.694383026,
				"element": "N" 
			},
			{
				"x": 2.3277373725,
				"y": 1.2356487325,
				"z": 0.4672791937,
				"element": "N" 
			},
			{
				"x": 1.73612739,
				"y": 1.6149371266,
				"z": -0.6116078612,
				"element": "C" 
			},
			{
				"x": 0.4243478684,
				"y": 2.2182979058,
				"z": -0.9121896486,
				"element": "C" 
			},
			{
				"x": 0.0634972484,
				"y": 2.277931945,
				"z": -2.271364583,
				"element": "C" 
			},
			{
				"x": -1.1273015873,
				"y": 2.8849568417,
				"z": -2.6396768581,
				"element": "C" 
			},
			{
				"x": -1.463684301,
				"y": 2.9209595399,
				"z": -3.9453269875,
				"element": "F" 
			},
			{
				"x": -1.9794884637,
				"y": 3.4640799663,
				"z": -1.7059108734,
				"element": "C" 
			},
			{
				"x": -1.6117681409,
				"y": 3.4211394882,
				"z": -0.3597803839,
				"element": "C" 
			},
			{
				"x": -0.4313087544,
				"y": 2.799459672,
				"z": 0.0437406323,
				"element": "C" 
			},
			{
				"x": 0.2524022665,
				"y": 0.3507312547,
				"z": 3.4058553604,
				"element": "C" 
			},
			{
				"x": -0.78060193,
				"y": -0.4675534051,
				"z": 3.8275346368,
				"element": "C" 
			},
			{
				"x": -3.908969615,
				"y": -3.3184292426,
				"z": 2.8771168992,
				"element": "H" 
			},
			{
				"x": -1.6934093332,
				"y": -1.778043371,
				"z": 0.8279648213,
				"element": "H" 
			},
			{
				"x": 0.1416721673,
				"y": -0.3297227555,
				"z": 0.0640309866,
				"element": "H" 
			},
			{
				"x": 2.3593291255,
				"y": 1.3016193681,
				"z": 2.4205909477,
				"element": "H" 
			},
			{
				"x": 2.3774280949,
				"y": 1.4987767191,
				"z": -1.4875970593,
				"element": "H" 
			},
			{
				"x": 0.7029064321,
				"y": 1.855652639,
				"z": -3.0401685462,
				"element": "H" 
			},
			{
				"x": -2.8994383284,
				"y": 3.9339449989,
				"z": -2.0361814141,
				"element": "H" 
			},
			{
				"x": -2.2594620877,
				"y": 3.8741498708,
				"z": 0.3844638129,
				"element": "H" 
			},
			{
				"x": -0.1608367363,
				"y": 2.7826606528,
				"z": 1.0903247997,
				"element": "H" 
			},
			{
				"x": 0.8018304944,
				"y": 0.9503176431,
				"z": 4.1274925022,
				"element": "H" 
			},
			{
				"x": -1.051464347,
				"y": -0.5247037139,
				"z": 4.8764320658,
				"element": "H" 
			}
		],
		 "valence_orbital": [ 
			{
				"type": "occ",
				"energy": -0.2695,
				"method": "rhf"
			},
			{
				"type": "occ",
				"energy": -0.26743,
				"method": "rhf"
			},
			{
				"type": "occ",
				"energy": -0.26398,
				"method": "rhf"
			},
			{
				"type": "occ",
				"energy": -0.25073,
				"method": "rhf"
			},
			{
				"type": "occ",
				"energy": -0.20986,
				"method": "rhf"
			},
			{
				"type": "unocc",
				"energy": -0.06401,
				"method": "rhf"
			},
			{
				"type": "unocc",
				"energy": -0.03641,
				"method": "rhf"
			},
			{
				"type": "unocc",
				"energy": -0.01642,
				"method": "rhf"
			},
			{
				"type": "unocc",
				"energy": -0.00594,
				"method": "rhf"
			},
			{
				"type": "unocc",
				"energy": 0.03608,
				"method": "rhf"
			}
		],
		"cosmo_sigma_profile": { 
			"-0.025": 0.0,
			"-0.024": 0.0,
			"-0.023": 0.0,
			"-0.022": 0.0,
			"-0.021": 0.0,
			"-0.02": 0.0,
			"-0.019": 0.00501751591602,
			"-0.018": 0.491377459666,
			"-0.017": 0.89388136752,
			"-0.016": 1.07171278868,
			"-0.015": 0.524054264354,
			"-0.014": 2.0501477689,
			"-0.013": 1.22616181247,
			"-0.012": 2.38184625662,
			"-0.011": 2.20876020594,
			"-0.01": 1.24465192476,
			"-0.009": 2.0713669861,
			"-0.008": 6.86668857233,
			"-0.007": 9.9676748497,
			"-0.006": 12.4612026248,
			"-0.005": 16.3058190299,
			"-0.004": 14.952145353,
			"-0.003": 12.709307466,
			"-0.002": 14.2009989028,
			"-0.001": 16.5938130827,
			"0.0": 21.7973435209,
			"0.001": 25.8300679652,
			"0.002": 27.4432704534,
			"0.003": 26.0946489414,
			"0.004": 28.4261405616,
			"0.005": 7.88824635791,
			"0.006": 4.57046049052,
			"0.007": 3.51993056457,
			"0.008": 4.04019822052,
			"0.009": 2.46075941635,
			"0.01": 2.63419491584,
			"0.011": 3.6109681666,
			"0.012": 5.68480346605,
			"0.013": 2.51889413762,
			"0.014": 0.827649427048,
			"0.015": 0.0665353463761,
			"0.016": 0.0,
			"0.017": 0.0,
			"0.018": 0.0,
			"0.019": 0.0,
			"0.02": 0.0,
			"0.021": 0.0,
			"0.022": 0.0,
			"0.023": 0.0,
			"0.024": 0.0,
			"0.025": 0.0
		}
	}
}
