{
	 "smiles": "OC(=O)CCCCC(=O)C1=CC=CC=C1", 
	 "Tm": 350.15, 
	 "num_atms": 29, 
	 "gaussian": { 
		 "optdone": 1, 
		 "sigma_profile": "yes", 
		 "theory": "DFT", 
		 "functional": "B3LYP", 
		 "basiset": "6-31G**", 
		 "properties": { 
			 "R2extent": 4982.0324, 
			 "electric_dipole_moment_norm": 3.22048223718, 
			 "electric_quadrupole_moment_norm": 8.46988123175, 
			 "total_energy": -691.412798808, 
			 "HOMO_LUMO_gap": 0.18696, 
			 "cosmo_polarized_energy": -14.27, 
			 "cosmo_cavitation_energy": 32.99, 
			 "cosmo_dispersion_energy": -23.29, 
			 "cosmo_repulsion_energy": 1.85, 
			 "cosmo_total_nonelectrostatic_energy": 11.55, 
			 "SMD_solvation_energy": 6.79 
		},
		"coords": [
			{
				"x": 2.2691053881,
				"y": -1.3266833257,
				"z": 4.7823168546,
				"element": "O" 
			},
			{
				"x": 2.5132319854,
				"y": -0.6573804026,
				"z": 3.628511211,
				"element": "C" 
			},
			{
				"x": 3.1098775256,
				"y": 0.3979623344,
				"z": 3.6074798475,
				"element": "O" 
			},
			{
				"x": 1.9709671759,
				"y": -1.4060262106,
				"z": 2.4289225904,
				"element": "C" 
			},
			{
				"x": 2.0847343929,
				"y": -0.6328046153,
				"z": 1.1121525384,
				"element": "C" 
			},
			{
				"x": 1.1563061608,
				"y": 0.5877276199,
				"z": 1.0390227347,
				"element": "C" 
			},
			{
				"x": 1.2330573758,
				"y": 1.3333613817,
				"z": -0.3149662402,
				"element": "C" 
			},
			{
				"x": 0.6982729796,
				"y": 0.4964123545,
				"z": -1.4695782218,
				"element": "C" 
			},
			{
				"x": 1.4661695887,
				"y": -0.174071929,
				"z": -2.1478362831,
				"element": "O" 
			},
			{
				"x": -0.7785291579,
				"y": 0.459154474,
				"z": -1.7446201673,
				"element": "C" 
			},
			{
				"x": -1.2282627627,
				"y": -0.3656750609,
				"z": -2.78924851,
				"element": "C" 
			},
			{
				"x": -2.5827083996,
				"y": -0.4460013466,
				"z": -3.0957807373,
				"element": "C" 
			},
			{
				"x": -3.5113316634,
				"y": 0.2964068545,
				"z": -2.3591988128,
				"element": "C" 
			},
			{
				"x": -3.0774793043,
				"y": 1.1181981057,
				"z": -1.3177208909,
				"element": "C" 
			},
			{
				"x": -1.7185753509,
				"y": 1.2010667654,
				"z": -1.0121346596,
				"element": "C" 
			},
			{
				"x": 2.6642754049,
				"y": -0.7923522327,
				"z": 5.4917105569,
				"element": "H" 
			},
			{
				"x": 2.5235736359,
				"y": -2.352753545,
				"z": 2.3727794443,
				"element": "H" 
			},
			{
				"x": 0.9330879553,
				"y": -1.6875107502,
				"z": 2.6463008003,
				"element": "H" 
			},
			{
				"x": 3.1212144471,
				"y": -0.3029705888,
				"z": 0.9802451096,
				"element": "H" 
			},
			{
				"x": 1.8679115923,
				"y": -1.3173995601,
				"z": 0.285635623,
				"element": "H" 
			},
			{
				"x": 1.4282799977,
				"y": 1.289850153,
				"z": 1.8332306923,
				"element": "H" 
			},
			{
				"x": 0.1202259777,
				"y": 0.2756784639,
				"z": 1.2283616088,
				"element": "H" 
			},
			{
				"x": 2.277764569,
				"y": 1.5595503083,
				"z": -0.547688478,
				"element": "H" 
			},
			{
				"x": 0.6947874886,
				"y": 2.2837230874,
				"z": -0.2407126646,
				"element": "H" 
			},
			{
				"x": -0.4881050218,
				"y": -0.9315852469,
				"z": -3.3449341002,
				"element": "H" 
			},
			{
				"x": -2.9186488832,
				"y": -1.0854744988,
				"z": -3.9070115777,
				"element": "H" 
			},
			{
				"x": -4.5694752826,
				"y": 0.2346974046,
				"z": -2.5974217665,
				"element": "H" 
			},
			{
				"x": -3.7962189045,
				"y": 1.6962967396,
				"z": -0.7442872193,
				"element": "H" 
			},
			{
				"x": -1.3987089103,
				"y": 1.8458032662,
				"z": -0.2004292824,
				"element": "H" 
			}
		],
		 "valence_orbital": [ 
			{
				"type": "occ",
				"energy": -0.3188,
				"method": "rhf"
			},
			{
				"type": "occ",
				"energy": -0.27623,
				"method": "rhf"
			},
			{
				"type": "occ",
				"energy": -0.26138,
				"method": "rhf"
			},
			{
				"type": "occ",
				"energy": -0.25781,
				"method": "rhf"
			},
			{
				"type": "occ",
				"energy": -0.24288,
				"method": "rhf"
			},
			{
				"type": "unocc",
				"energy": -0.05592,
				"method": "rhf"
			},
			{
				"type": "unocc",
				"energy": -0.01032,
				"method": "rhf"
			},
			{
				"type": "unocc",
				"energy": 0.00843,
				"method": "rhf"
			},
			{
				"type": "unocc",
				"energy": 0.03868,
				"method": "rhf"
			},
			{
				"type": "unocc",
				"energy": 0.07823,
				"method": "rhf"
			}
		],
		"cosmo_sigma_profile": { 
			"-0.025": 0.0,
			"-0.024": 0.0,
			"-0.023": 0.0,
			"-0.022": 0.0,
			"-0.021": 0.0,
			"-0.02": 0.0,
			"-0.019": 0.0,
			"-0.018": 0.34286792646,
			"-0.017": 1.07667252031,
			"-0.016": 0.762959461866,
			"-0.015": 0.789426621977,
			"-0.014": 0.760914938708,
			"-0.013": 0.839838758864,
			"-0.012": 0.656376516199,
			"-0.011": 0.441192184842,
			"-0.01": 1.13101412181,
			"-0.009": 0.41211066953,
			"-0.008": 0.586513492319,
			"-0.007": 3.90705578797,
			"-0.006": 13.8083157356,
			"-0.005": 19.094366825,
			"-0.004": 22.5568697741,
			"-0.003": 26.7556553226,
			"-0.002": 29.3586812178,
			"-0.001": 19.1803972433,
			"0.0": 14.0864281898,
			"0.001": 12.869653525,
			"0.002": 13.8057813566,
			"0.003": 14.5629717394,
			"0.004": 16.6278167902,
			"0.005": 7.90358984089,
			"0.006": 4.18477856582,
			"0.007": 5.06478210594,
			"0.008": 3.66271617773,
			"0.009": 4.7283508591,
			"0.01": 5.07111153372,
			"0.011": 5.17900037899,
			"0.012": 8.0296530167,
			"0.013": 1.92435487029,
			"0.014": 0.263997238706,
			"0.015": 0.0,
			"0.016": 0.0,
			"0.017": 0.0,
			"0.018": 0.0,
			"0.019": 0.0,
			"0.02": 0.0,
			"0.021": 0.0,
			"0.022": 0.0,
			"0.023": 0.0,
			"0.024": 0.0,
			"0.025": 0.0
		}
	}
}
