{
	 "smiles": "ClCCC(=O)NC1=NC=CC=C1", 
	 "Tm": 378.15, 
	 "num_atms": 21, 
	 "gaussian": { 
		 "optdone": 1, 
		 "sigma_profile": "yes", 
		 "theory": "DFT", 
		 "functional": "B3LYP", 
		 "basiset": "6-31G**", 
		 "properties": { 
			 "R2extent": 4049.15, 
			 "electric_dipole_moment_norm": 5.37555391192, 
			 "electric_quadrupole_moment_norm": 10.6190894935, 
			 "total_energy": -955.21734926, 
			 "HOMO_LUMO_gap": 0.20182, 
			 "cosmo_polarized_energy": -12.09, 
			 "cosmo_cavitation_energy": 27.15, 
			 "cosmo_dispersion_energy": -20.06, 
			 "cosmo_repulsion_energy": 1.63, 
			 "cosmo_total_nonelectrostatic_energy": 8.72, 
			 "SMD_solvation_energy": 4.35 
		},
		"coords": [
			{
				"x": -2.3118275736,
				"y": -1.9082025894,
				"z": 3.9622209402,
				"element": "Cl" 
			},
			{
				"x": -2.2621640446,
				"y": -0.589111873,
				"z": 2.7130507942,
				"element": "C" 
			},
			{
				"x": -0.880789908,
				"y": -0.5162490633,
				"z": 2.0741762358,
				"element": "C" 
			},
			{
				"x": -0.8526622251,
				"y": 0.5876077923,
				"z": 1.0343510314,
				"element": "C" 
			},
			{
				"x": -1.8331542714,
				"y": 1.28043798,
				"z": 0.79490578,
				"element": "O" 
			},
			{
				"x": 0.3145066887,
				"y": 0.8375003525,
				"z": 0.3186782295,
				"element": "N" 
			},
			{
				"x": 1.5901691856,
				"y": 0.2630022004,
				"z": 0.3256918815,
				"element": "C" 
			},
			{
				"x": 1.8414818718,
				"y": -0.7462987086,
				"z": 1.1618261613,
				"element": "N" 
			},
			{
				"x": 3.0711333699,
				"y": -1.2787953935,
				"z": 1.1486378656,
				"element": "C" 
			},
			{
				"x": 4.097714265,
				"y": -0.8429165395,
				"z": 0.3175083244,
				"element": "C" 
			},
			{
				"x": 3.8228048128,
				"y": 0.2154838627,
				"z": -0.5545464875,
				"element": "C" 
			},
			{
				"x": 2.557065449,
				"y": 0.7823900087,
				"z": -0.5584897944,
				"element": "C" 
			},
			{
				"x": -2.5245547376,
				"y": 0.3377135521,
				"z": 3.2210673951,
				"element": "H" 
			},
			{
				"x": -3.0366987998,
				"y": -0.81636297,
				"z": 1.982034029,
				"element": "H" 
			},
			{
				"x": -0.1047716184,
				"y": -0.3381984524,
				"z": 2.8240083898,
				"element": "H" 
			},
			{
				"x": -0.6061659039,
				"y": -1.4681271472,
				"z": 1.6108710023,
				"element": "H" 
			},
			{
				"x": 0.1729721718,
				"y": 1.5999415437,
				"z": -0.3328670117,
				"element": "H" 
			},
			{
				"x": 3.2343093337,
				"y": -2.0989525799,
				"z": 1.8450673302,
				"element": "H" 
			},
			{
				"x": 5.0743778418,
				"y": -1.3127764255,
				"z": 0.3507621717,
				"element": "H" 
			},
			{
				"x": 4.5886328777,
				"y": 0.5946641333,
				"z": -1.2248815808,
				"element": "H" 
			},
			{
				"x": 2.3125212146,
				"y": 1.6051503166,
				"z": -1.2236726877,
				"element": "H" 
			}
		],
		 "valence_orbital": [ 
			{
				"type": "occ",
				"energy": -0.29308,
				"method": "rhf"
			},
			{
				"type": "occ",
				"energy": -0.28692,
				"method": "rhf"
			},
			{
				"type": "occ",
				"energy": -0.27711,
				"method": "rhf"
			},
			{
				"type": "occ",
				"energy": -0.26423,
				"method": "rhf"
			},
			{
				"type": "occ",
				"energy": -0.24037,
				"method": "rhf"
			},
			{
				"type": "unocc",
				"energy": -0.03855,
				"method": "rhf"
			},
			{
				"type": "unocc",
				"energy": -0.02765,
				"method": "rhf"
			},
			{
				"type": "unocc",
				"energy": 0.02802,
				"method": "rhf"
			},
			{
				"type": "unocc",
				"energy": 0.03461,
				"method": "rhf"
			},
			{
				"type": "unocc",
				"energy": 0.07072,
				"method": "rhf"
			}
		],
		"cosmo_sigma_profile": { 
			"-0.025": 0.0,
			"-0.024": 0.0,
			"-0.023": 0.0,
			"-0.022": 0.0,
			"-0.021": 0.0,
			"-0.02": 0.0,
			"-0.019": 0.0,
			"-0.018": 0.0,
			"-0.017": 0.0,
			"-0.016": 0.0,
			"-0.015": 0.658576366163,
			"-0.014": 1.12272847362,
			"-0.013": 1.13219958915,
			"-0.012": 1.14943709413,
			"-0.011": 1.31762445982,
			"-0.01": 1.12326780811,
			"-0.009": 1.62455335217,
			"-0.008": 1.65811845721,
			"-0.007": 8.16841519707,
			"-0.006": 14.9785163264,
			"-0.005": 18.5066785496,
			"-0.004": 12.869678301,
			"-0.003": 12.578499374,
			"-0.002": 10.9738047595,
			"-0.001": 11.5472827056,
			"0.0": 15.4268742599,
			"0.001": 16.2337050642,
			"0.002": 17.6414549066,
			"0.003": 16.5232210081,
			"0.004": 9.21775828827,
			"0.005": 9.20899907896,
			"0.006": 12.8345154049,
			"0.007": 7.99618824844,
			"0.008": 1.84364858883,
			"0.009": 0.830614978456,
			"0.01": 2.17001084945,
			"0.011": 1.91908110252,
			"0.012": 3.97979584726,
			"0.013": 3.10326940278,
			"0.014": 0.0456747859064,
			"0.015": 0.0,
			"0.016": 0.0,
			"0.017": 0.0,
			"0.018": 0.0,
			"0.019": 0.0,
			"0.02": 0.0,
			"0.021": 0.0,
			"0.022": 0.0,
			"0.023": 0.0,
			"0.024": 0.0,
			"0.025": 0.0
		}
	}
}
