{
	 "smiles": "CC1C2C(CC3C4CCC5CC(O)CCC5(C)C4CC(=O)C23C)OC11CCC(C)CO1", 
	 "Tm": 539.15, 
	 "num_atms": 73, 
	 "gaussian": { 
		 "optdone": 1, 
		 "sigma_profile": "yes", 
		 "theory": "DFT", 
		 "functional": "B3LYP", 
		 "basiset": "6-31G**", 
		 "properties": { 
			 "R2extent": 13405.1418, 
			 "electric_dipole_moment_norm": 1.54043056968, 
			 "electric_quadrupole_moment_norm": 22.4523974773, 
			 "total_energy": -1355.09259192, 
			 "HOMO_LUMO_gap": 0.2192, 
			 "cosmo_polarized_energy": -15.36, 
			 "cosmo_cavitation_energy": 59.81, 
			 "cosmo_dispersion_energy": -39.09, 
			 "cosmo_repulsion_energy": 2.82, 
			 "cosmo_total_nonelectrostatic_energy": 23.55, 
			 "SMD_solvation_energy": 8.26 
		},
		"coords": [
			{
				"x": -0.6854970717,
				"y": -0.8897048221,
				"z": -4.8618869088,
				"element": "C" 
			},
			{
				"x": -0.8630423418,
				"y": -1.0992777172,
				"z": -3.3541413822,
				"element": "C" 
			},
			{
				"x": -0.6817484111,
				"y": -2.59837067,
				"z": -2.9740618303,
				"element": "C" 
			},
			{
				"x": -2.0169092016,
				"y": -2.9908178465,
				"z": -2.2647435822,
				"element": "C" 
			},
			{
				"x": -1.6873247853,
				"y": -3.205411462,
				"z": -0.7582882707,
				"element": "C" 
			},
			{
				"x": -0.2806844925,
				"y": -2.607300875,
				"z": -0.5830593018,
				"element": "C" 
			},
			{
				"x": 0.5786874591,
				"y": -2.9491732253,
				"z": 0.642921567,
				"element": "C" 
			},
			{
				"x": -0.1461664753,
				"y": -2.7748982199,
				"z": 2.0132844585,
				"element": "C" 
			},
			{
				"x": 0.4451235546,
				"y": -1.6569847387,
				"z": 2.8860980507,
				"element": "C" 
			},
			{
				"x": 0.6810354781,
				"y": -0.4044778282,
				"z": 2.0281837302,
				"element": "C" 
			},
			{
				"x": 0.8208628912,
				"y": 0.8934246024,
				"z": 2.8565876187,
				"element": "C" 
			},
			{
				"x": 2.1810922572,
				"y": 1.073149637,
				"z": 3.5365466601,
				"element": "C" 
			},
			{
				"x": 2.2332527548,
				"y": 2.2742300338,
				"z": 4.303400074,
				"element": "O" 
			},
			{
				"x": 3.2961370138,
				"y": 0.9956312897,
				"z": 2.4920128147,
				"element": "C" 
			},
			{
				"x": 3.2257147505,
				"y": -0.3355324016,
				"z": 1.731667087,
				"element": "C" 
			},
			{
				"x": 1.8655685235,
				"y": -0.6297998729,
				"z": 1.0259851254,
				"element": "C" 
			},
			{
				"x": 1.694326016,
				"y": 0.3492547608,
				"z": -0.1583785215,
				"element": "C" 
			},
			{
				"x": 1.9209984102,
				"y": -2.1536969019,
				"z": 0.5847354706,
				"element": "C" 
			},
			{
				"x": 2.6293065423,
				"y": -2.3813580352,
				"z": -0.7794000611,
				"element": "C" 
			},
			{
				"x": 1.7534044997,
				"y": -2.2483292719,
				"z": -2.0281858704,
				"element": "C" 
			},
			{
				"x": 2.1453237695,
				"y": -1.6699923286,
				"z": -3.0276243778,
				"element": "O" 
			},
			{
				"x": 0.4102250011,
				"y": -2.9639522485,
				"z": -1.9371737835,
				"element": "C" 
			},
			{
				"x": 0.7135263155,
				"y": -4.4825937874,
				"z": -2.0964562727,
				"element": "C" 
			},
			{
				"x": -2.9369156065,
				"y": -1.925936567,
				"z": -2.518699648,
				"element": "O" 
			},
			{
				"x": -2.2537699377,
				"y": -0.7090249227,
				"z": -2.7672743909,
				"element": "C" 
			},
			{
				"x": -3.2070048151,
				"y": 0.1604919107,
				"z": -3.6102616251,
				"element": "C" 
			},
			{
				"x": -3.0308467222,
				"y": 1.6477956642,
				"z": -3.2839373892,
				"element": "C" 
			},
			{
				"x": -3.3809286448,
				"y": 1.9326410703,
				"z": -1.8032484607,
				"element": "C" 
			},
			{
				"x": -2.6356086486,
				"y": 3.1640634481,
				"z": -1.2765496701,
				"element": "C" 
			},
			{
				"x": -3.0699237125,
				"y": 0.6632877365,
				"z": -0.9775017344,
				"element": "C" 
			},
			{
				"x": -1.9531408625,
				"y": -0.0336525657,
				"z": -1.5320271788,
				"element": "O" 
			},
			{
				"x": -1.3999434584,
				"y": -1.4830348764,
				"z": -5.4443274089,
				"element": "H" 
			},
			{
				"x": -0.8000356685,
				"y": 0.1605396387,
				"z": -5.148557354,
				"element": "H" 
			},
			{
				"x": 0.3248671774,
				"y": -1.2021251339,
				"z": -5.139111652,
				"element": "H" 
			},
			{
				"x": -0.1198477426,
				"y": -0.4827859474,
				"z": -2.848303044,
				"element": "H" 
			},
			{
				"x": -0.5409620699,
				"y": -3.1778446239,
				"z": -3.891199903,
				"element": "H" 
			},
			{
				"x": -2.4828076254,
				"y": -3.8849645153,
				"z": -2.6897157605,
				"element": "H" 
			},
			{
				"x": -2.4459792097,
				"y": -2.7206829627,
				"z": -0.1396790707,
				"element": "H" 
			},
			{
				"x": -1.7004120525,
				"y": -4.2748941876,
				"z": -0.5156600861,
				"element": "H" 
			},
			{
				"x": -0.4266254418,
				"y": -1.5228648218,
				"z": -0.5924647463,
				"element": "H" 
			},
			{
				"x": 0.8558899217,
				"y": -4.0085652439,
				"z": 0.5650948087,
				"element": "H" 
			},
			{
				"x": -1.2032222894,
				"y": -2.5456464812,
				"z": 1.8371424765,
				"element": "H" 
			},
			{
				"x": -0.132056061,
				"y": -3.7221916527,
				"z": 2.5640218599,
				"element": "H" 
			},
			{
				"x": -0.2463349879,
				"y": -1.4314263378,
				"z": 3.7069888731,
				"element": "H" 
			},
			{
				"x": 1.3789578487,
				"y": -1.987250949,
				"z": 3.3590001007,
				"element": "H" 
			},
			{
				"x": -0.2301822751,
				"y": -0.2786538103,
				"z": 1.4257157124,
				"element": "H" 
			},
			{
				"x": 0.6618391064,
				"y": 1.7626029696,
				"z": 2.201198953,
				"element": "H" 
			},
			{
				"x": 0.028536734,
				"y": 0.9325392587,
				"z": 3.6132817372,
				"element": "H" 
			},
			{
				"x": 2.3321894232,
				"y": 0.2743614707,
				"z": 4.274219766,
				"element": "H" 
			},
			{
				"x": 2.0896983096,
				"y": 3.0113323418,
				"z": 3.6938129449,
				"element": "H" 
			},
			{
				"x": 3.2005231364,
				"y": 1.8479325864,
				"z": 1.8039935831,
				"element": "H" 
			},
			{
				"x": 4.2701010384,
				"y": 1.0993405791,
				"z": 2.9834486315,
				"element": "H" 
			},
			{
				"x": 4.0340639096,
				"y": -0.388010888,
				"z": 0.9917394214,
				"element": "H" 
			},
			{
				"x": 3.429552342,
				"y": -1.1369378545,
				"z": 2.4545639599,
				"element": "H" 
			},
			{
				"x": 0.7330493423,
				"y": 0.2199604537,
				"z": -0.66333123,
				"element": "H" 
			},
			{
				"x": 1.7230136456,
				"y": 1.3851451268,
				"z": 0.1918124603,
				"element": "H" 
			},
			{
				"x": 2.4863438879,
				"y": 0.2462435518,
				"z": -0.904460595,
				"element": "H" 
			},
			{
				"x": 2.5654404158,
				"y": -2.6368724891,
				"z": 1.3285804952,
				"element": "H" 
			},
			{
				"x": 3.5010184998,
				"y": -1.7355380715,
				"z": -0.9088182448,
				"element": "H" 
			},
			{
				"x": 3.0107149458,
				"y": -3.4119907996,
				"z": -0.7894052527,
				"element": "H" 
			},
			{
				"x": 1.3642356847,
				"y": -4.879095473,
				"z": -1.3141569285,
				"element": "H" 
			},
			{
				"x": 1.2043926807,
				"y": -4.6558404326,
				"z": -3.0597790796,
				"element": "H" 
			},
			{
				"x": -0.207367164,
				"y": -5.0721220218,
				"z": -2.0866457231,
				"element": "H" 
			},
			{
				"x": -3.0597987047,
				"y": -0.0391691837,
				"z": -4.6733686717,
				"element": "H" 
			},
			{
				"x": -4.2302924169,
				"y": -0.1550015836,
				"z": -3.3775663709,
				"element": "H" 
			},
			{
				"x": -3.648977128,
				"y": 2.2636545143,
				"z": -3.9460995193,
				"element": "H" 
			},
			{
				"x": -1.9892498677,
				"y": 1.9381082961,
				"z": -3.4698243482,
				"element": "H" 
			},
			{
				"x": -4.4617756502,
				"y": 2.1178317139,
				"z": -1.7279630225,
				"element": "H" 
			},
			{
				"x": -2.8135057628,
				"y": 4.039372581,
				"z": -1.9111577161,
				"element": "H" 
			},
			{
				"x": -2.9507043793,
				"y": 3.4196279023,
				"z": -0.2585796402,
				"element": "H" 
			},
			{
				"x": -1.5556654362,
				"y": 2.9772089771,
				"z": -1.2592841388,
				"element": "H" 
			},
			{
				"x": -3.9380799915,
				"y": -0.0071248946,
				"z": -0.9346555104,
				"element": "H" 
			},
			{
				"x": -2.7924761744,
				"y": 0.9135494291,
				"z": 0.0512768375,
				"element": "H" 
			}
		],
		 "valence_orbital": [ 
			{
				"type": "occ",
				"energy": -0.27847,
				"method": "rhf"
			},
			{
				"type": "occ",
				"energy": -0.26116,
				"method": "rhf"
			},
			{
				"type": "occ",
				"energy": -0.25263,
				"method": "rhf"
			},
			{
				"type": "occ",
				"energy": -0.25016,
				"method": "rhf"
			},
			{
				"type": "occ",
				"energy": -0.23277,
				"method": "rhf"
			},
			{
				"type": "unocc",
				"energy": -0.01357,
				"method": "rhf"
			},
			{
				"type": "unocc",
				"energy": 0.06259,
				"method": "rhf"
			},
			{
				"type": "unocc",
				"energy": 0.07006,
				"method": "rhf"
			},
			{
				"type": "unocc",
				"energy": 0.08016,
				"method": "rhf"
			},
			{
				"type": "unocc",
				"energy": 0.08198,
				"method": "rhf"
			}
		],
		"cosmo_sigma_profile": { 
			"-0.025": 0.0,
			"-0.024": 0.0,
			"-0.023": 0.0,
			"-0.022": 0.0,
			"-0.021": 0.0,
			"-0.02": 0.0,
			"-0.019": 0.0,
			"-0.018": 0.0,
			"-0.017": 0.0,
			"-0.016": 0.0,
			"-0.015": 0.0904307122205,
			"-0.014": 0.664692673268,
			"-0.013": 0.999862178945,
			"-0.012": 0.96381818604,
			"-0.011": 0.755313155606,
			"-0.01": 1.20433830918,
			"-0.009": 0.707154550192,
			"-0.008": 1.19919389745,
			"-0.007": 1.33068634622,
			"-0.006": 3.53462702306,
			"-0.005": 7.95387091868,
			"-0.004": 19.4301109752,
			"-0.003": 54.5997972053,
			"-0.002": 79.5864633026,
			"-0.001": 75.7170217227,
			"0.0": 65.1686911403,
			"0.001": 51.78330752,
			"0.002": 20.93158237,
			"0.003": 9.78361097028,
			"0.004": 9.17587313568,
			"0.005": 7.91563153104,
			"0.006": 7.65766529709,
			"0.007": 5.99428644194,
			"0.008": 3.99845869284,
			"0.009": 4.47406147301,
			"0.01": 4.06938439053,
			"0.011": 4.23900663332,
			"0.012": 5.04379439874,
			"0.013": 3.81569970614,
			"0.014": 2.36179820227,
			"0.015": 2.05816139985,
			"0.016": 0.0328841083251,
			"0.017": 0.0,
			"0.018": 0.0,
			"0.019": 0.0,
			"0.02": 0.0,
			"0.021": 0.0,
			"0.022": 0.0,
			"0.023": 0.0,
			"0.024": 0.0,
			"0.025": 0.0
		}
	}
}
