{
	 "smiles": "NC1=NN=C(CC2=CC(F)=CC=C2)S1", 
	 "Tm": 467.15, 
	 "num_atms": 22, 
	 "gaussian": { 
		 "optdone": 1, 
		 "sigma_profile": "yes", 
		 "theory": "DFT", 
		 "functional": "B3LYP", 
		 "basiset": "6-31G**", 
		 "properties": { 
			 "R2extent": 3747.7084, 
			 "electric_dipole_moment_norm": 3.60379287696, 
			 "electric_quadrupole_moment_norm": 15.4680177861, 
			 "total_energy": -1010.0308405, 
			 "HOMO_LUMO_gap": 0.20822, 
			 "cosmo_polarized_energy": -15.52, 
			 "cosmo_cavitation_energy": 29.26, 
			 "cosmo_dispersion_energy": -21.21, 
			 "cosmo_repulsion_energy": 1.62, 
			 "cosmo_total_nonelectrostatic_energy": 9.67, 
			 "SMD_solvation_energy": 3.02 
		},
		"coords": [
			{
				"x": -2.0964754979,
				"y": 4.0540428438,
				"z": 1.3107338679,
				"element": "N" 
			},
			{
				"x": -1.4402552968,
				"y": 3.2159503944,
				"z": 0.4421885942,
				"element": "C" 
			},
			{
				"x": -1.7217626612,
				"y": 3.1381721608,
				"z": -0.8308270499,
				"element": "N" 
			},
			{
				"x": -0.8744235077,
				"y": 2.2995902456,
				"z": -1.5060111085,
				"element": "N" 
			},
			{
				"x": 0.0272384528,
				"y": 1.7384139863,
				"z": -0.762753205,
				"element": "C" 
			},
			{
				"x": 1.0370748024,
				"y": 0.7507723033,
				"z": -1.2737173973,
				"element": "C" 
			},
			{
				"x": 0.8005545901,
				"y": -0.676334236,
				"z": -0.8021451592,
				"element": "C" 
			},
			{
				"x": -0.4237238759,
				"y": -1.3039300889,
				"z": -1.0681547991,
				"element": "C" 
			},
			{
				"x": -0.6176883557,
				"y": -2.6116619676,
				"z": -0.645762903,
				"element": "C" 
			},
			{
				"x": -1.7984227263,
				"y": -3.2110635297,
				"z": -0.9068152082,
				"element": "F" 
			},
			{
				"x": 0.3608967191,
				"y": -3.3282001975,
				"z": 0.0371675974,
				"element": "C" 
			},
			{
				"x": 1.5756531419,
				"y": -2.6969830051,
				"z": 0.2992841654,
				"element": "C" 
			},
			{
				"x": 1.7955641221,
				"y": -1.380677852,
				"z": -0.1153797143,
				"element": "C" 
			},
			{
				"x": -0.0703223382,
				"y": 2.226090199,
				"z": 0.9406219782,
				"element": "S" 
			},
			{
				"x": -2.1963131348,
				"y": 3.7380914412,
				"z": 2.2646628441,
				"element": "H" 
			},
			{
				"x": -2.9456102124,
				"y": 4.4369809015,
				"z": 0.9140572681,
				"element": "H" 
			},
			{
				"x": 2.0474400825,
				"y": 1.0666282909,
				"z": -0.9920743607,
				"element": "H" 
			},
			{
				"x": 0.9742738812,
				"y": 0.8026848041,
				"z": -2.3661855047,
				"element": "H" 
			},
			{
				"x": -1.2186219792,
				"y": -0.7843664508,
				"z": -1.5938175899,
				"element": "H" 
			},
			{
				"x": 0.1622370086,
				"y": -4.3481718259,
				"z": 0.3473613791,
				"element": "H" 
			},
			{
				"x": 2.355413761,
				"y": -3.234039212,
				"z": 0.8311006478,
				"element": "H" 
			},
			{
				"x": 2.7473730244,
				"y": -0.9001892054,
				"z": 0.0934656577,
				"element": "H" 
			}
		],
		 "valence_orbital": [ 
			{
				"type": "occ",
				"energy": -0.28829,
				"method": "rhf"
			},
			{
				"type": "occ",
				"energy": -0.25946,
				"method": "rhf"
			},
			{
				"type": "occ",
				"energy": -0.25709,
				"method": "rhf"
			},
			{
				"type": "occ",
				"energy": -0.24594,
				"method": "rhf"
			},
			{
				"type": "occ",
				"energy": -0.23226,
				"method": "rhf"
			},
			{
				"type": "unocc",
				"energy": -0.02404,
				"method": "rhf"
			},
			{
				"type": "unocc",
				"energy": -0.01599,
				"method": "rhf"
			},
			{
				"type": "unocc",
				"energy": -0.00104,
				"method": "rhf"
			},
			{
				"type": "unocc",
				"energy": 0.0027,
				"method": "rhf"
			},
			{
				"type": "unocc",
				"energy": 0.0465,
				"method": "rhf"
			}
		],
		"cosmo_sigma_profile": { 
			"-0.025": 0.0,
			"-0.024": 0.0,
			"-0.023": 0.0,
			"-0.022": 0.0,
			"-0.021": 0.0,
			"-0.02": 0.0,
			"-0.019": 0.0,
			"-0.018": 0.0,
			"-0.017": 0.0,
			"-0.016": 0.0267515611552,
			"-0.015": 0.976837295725,
			"-0.014": 2.5029285249,
			"-0.013": 3.06681229429,
			"-0.012": 2.40996115048,
			"-0.011": 3.21607012838,
			"-0.01": 2.0264068426,
			"-0.009": 1.373342292,
			"-0.008": 2.1786135386,
			"-0.007": 6.76120180072,
			"-0.006": 13.891047501,
			"-0.005": 12.5741787149,
			"-0.004": 13.9681256587,
			"-0.003": 12.1999368115,
			"-0.002": 11.8808485762,
			"-0.001": 13.6124676815,
			"0.0": 17.7039588672,
			"0.001": 22.1308789428,
			"0.002": 19.2358007507,
			"0.003": 17.6174149583,
			"0.004": 21.0242860528,
			"0.005": 9.71666646031,
			"0.006": 2.23720280446,
			"0.007": 2.46605548914,
			"0.008": 2.77463039307,
			"0.009": 2.40748180854,
			"0.01": 2.53175412827,
			"0.011": 3.4998741976,
			"0.012": 2.81590036707,
			"0.013": 3.27781096596,
			"0.014": 2.10424185845,
			"0.015": 1.84159405296,
			"0.016": 0.311660377706,
			"0.017": 0.0,
			"0.018": 0.0,
			"0.019": 0.0,
			"0.02": 0.0,
			"0.021": 0.0,
			"0.022": 0.0,
			"0.023": 0.0,
			"0.024": 0.0,
			"0.025": 0.0
		}
	}
}
