{
	 "smiles": "COC1=CC=C(C=C1)C12C3CC(C1=C(C1=CC=CC=C1)C1=CC=CC=C1)C(C)(C)C23C", 
	 "Tm": 397.15, 
	 "num_atms": 61, 
	 "gaussian": { 
		 "optdone": 1, 
		 "sigma_profile": "yes", 
		 "theory": "DFT", 
		 "functional": "B3LYP", 
		 "basiset": "6-31G**", 
		 "properties": { 
			 "R2extent": 12826.5433, 
			 "electric_dipole_moment_norm": 1.29604480632, 
			 "electric_quadrupole_moment_norm": 10.1283477636, 
			 "total_energy": -1236.45718514, 
			 "HOMO_LUMO_gap": 0.18671, 
			 "cosmo_polarized_energy": -10.51, 
			 "cosmo_cavitation_energy": 59.04, 
			 "cosmo_dispersion_energy": -36.84, 
			 "cosmo_repulsion_energy": 2.78, 
			 "cosmo_total_nonelectrostatic_energy": 24.98, 
			 "SMD_solvation_energy": 10.0 
		},
		"coords": [
			{
				"x": 3.9818795228,
				"y": 2.1885213068,
				"z": -4.9285945999,
				"element": "C" 
			},
			{
				"x": 2.6973604936,
				"y": 1.6061594765,
				"z": -5.0710397062,
				"element": "O" 
			},
			{
				"x": 1.9888695459,
				"y": 1.3224114618,
				"z": -3.9371360011,
				"element": "C" 
			},
			{
				"x": 0.7318301025,
				"y": 0.7354881805,
				"z": -4.1322082795,
				"element": "C" 
			},
			{
				"x": -0.0614685848,
				"y": 0.4056167778,
				"z": -3.0393183908,
				"element": "C" 
			},
			{
				"x": 0.3627275312,
				"y": 0.6503374979,
				"z": -1.7231798892,
				"element": "C" 
			},
			{
				"x": 1.6169052546,
				"y": 1.2489071526,
				"z": -1.5505508577,
				"element": "C" 
			},
			{
				"x": 2.4317225018,
				"y": 1.579693022,
				"z": -2.6339931567,
				"element": "C" 
			},
			{
				"x": -0.4916009174,
				"y": 0.3301278427,
				"z": -0.5405263643,
				"element": "C" 
			},
			{
				"x": -2.0305664823,
				"y": 0.3096980825,
				"z": -0.6047128362,
				"element": "C" 
			},
			{
				"x": -2.4971070779,
				"y": -0.6983152563,
				"z": 0.4397708871,
				"element": "C" 
			},
			{
				"x": -1.3758561739,
				"y": -0.4057150487,
				"z": 1.4763223047,
				"element": "C" 
			},
			{
				"x": -0.1555449372,
				"y": -0.625719685,
				"z": 0.5828889046,
				"element": "C" 
			},
			{
				"x": 0.8324979465,
				"y": -1.531611928,
				"z": 0.758065423,
				"element": "C" 
			},
			{
				"x": 0.9387784357,
				"y": -2.3419567476,
				"z": 2.0158559455,
				"element": "C" 
			},
			{
				"x": 0.9962116261,
				"y": -1.7496350549,
				"z": 3.2881798302,
				"element": "C" 
			},
			{
				"x": 1.1033756559,
				"y": -2.529550125,
				"z": 4.4415399071,
				"element": "C" 
			},
			{
				"x": 1.1618896102,
				"y": -3.9201665842,
				"z": 4.3473904392,
				"element": "C" 
			},
			{
				"x": 1.1218000403,
				"y": -4.5241530332,
				"z": 3.0881243923,
				"element": "C" 
			},
			{
				"x": 1.0206402456,
				"y": -3.7440991638,
				"z": 1.9378488637,
				"element": "C" 
			},
			{
				"x": 1.8671179082,
				"y": -1.8628060762,
				"z": -0.2711852936,
				"element": "C" 
			},
			{
				"x": 3.2325050394,
				"y": -1.804688103,
				"z": 0.057411506,
				"element": "C" 
			},
			{
				"x": 4.2097949122,
				"y": -2.1467802404,
				"z": -0.8754489428,
				"element": "C" 
			},
			{
				"x": 3.8410076736,
				"y": -2.5733583857,
				"z": -2.1536917551,
				"element": "C" 
			},
			{
				"x": 2.4886841982,
				"y": -2.656671212,
				"z": -2.4872869475,
				"element": "C" 
			},
			{
				"x": 1.5120483285,
				"y": -2.3084748164,
				"z": -1.5532016121,
				"element": "C" 
			},
			{
				"x": -1.4252860242,
				"y": 1.1514598197,
				"z": 1.6241108222,
				"element": "C" 
			},
			{
				"x": -0.2229050809,
				"y": 1.717676054,
				"z": 2.3955189799,
				"element": "C" 
			},
			{
				"x": -2.7183588707,
				"y": 1.6724130603,
				"z": 2.2757207629,
				"element": "C" 
			},
			{
				"x": -1.3536690918,
				"y": 1.4505527387,
				"z": 0.1130027268,
				"element": "C" 
			},
			{
				"x": -1.3558357166,
				"y": 2.8605371417,
				"z": -0.4212858149,
				"element": "C" 
			},
			{
				"x": 3.9325912671,
				"y": 3.1669388422,
				"z": -4.4326248405,
				"element": "H" 
			},
			{
				"x": 4.3681121677,
				"y": 2.3205657829,
				"z": -5.9407513447,
				"element": "H" 
			},
			{
				"x": 4.6629021337,
				"y": 1.5374867242,
				"z": -4.3650637496,
				"element": "H" 
			},
			{
				"x": 0.4009455734,
				"y": 0.5433217287,
				"z": -5.1478746445,
				"element": "H" 
			},
			{
				"x": -1.0269676943,
				"y": -0.0609049058,
				"z": -3.2119201782,
				"element": "H" 
			},
			{
				"x": 1.9744201393,
				"y": 1.451475818,
				"z": -0.5450380885,
				"element": "H" 
			},
			{
				"x": 3.398824417,
				"y": 2.0332192532,
				"z": -2.4516829418,
				"element": "H" 
			},
			{
				"x": -2.5493265653,
				"y": 0.4645546603,
				"z": -1.5448228185,
				"element": "H" 
			},
			{
				"x": -3.5069595338,
				"y": -0.5098933725,
				"z": 0.815284628,
				"element": "H" 
			},
			{
				"x": -2.4508097966,
				"y": -1.7319813676,
				"z": 0.0803065383,
				"element": "H" 
			},
			{
				"x": -1.4137148367,
				"y": -0.9783117548,
				"z": 2.4010785553,
				"element": "H" 
			},
			{
				"x": 0.9723979647,
				"y": -0.6683649808,
				"z": 3.3708017584,
				"element": "H" 
			},
			{
				"x": 1.1503119476,
				"y": -2.0466983376,
				"z": 5.414014669,
				"element": "H" 
			},
			{
				"x": 1.2463949061,
				"y": -4.5274632677,
				"z": 5.2441248659,
				"element": "H" 
			},
			{
				"x": 1.1718659728,
				"y": -5.60619576,
				"z": 3.0015588235,
				"element": "H" 
			},
			{
				"x": 1.0009882904,
				"y": -4.2206950584,
				"z": 0.9621692668,
				"element": "H" 
			},
			{
				"x": 3.5238151118,
				"y": -1.4878262571,
				"z": 1.0549755698,
				"element": "H" 
			},
			{
				"x": 5.2601153735,
				"y": -2.0853935009,
				"z": -0.6032515026,
				"element": "H" 
			},
			{
				"x": 4.6013597188,
				"y": -2.846113594,
				"z": -2.8802327209,
				"element": "H" 
			},
			{
				"x": 2.1908533451,
				"y": -2.9956650974,
				"z": -3.4755363564,
				"element": "H" 
			},
			{
				"x": 0.4615277382,
				"y": -2.383498644,
				"z": -1.8144028139,
				"element": "H" 
			},
			{
				"x": -0.2242044734,
				"y": 2.8129315998,
				"z": 2.3691616929,
				"element": "H" 
			},
			{
				"x": 0.7274397384,
				"y": 1.3722870687,
				"z": 1.9791143975,
				"element": "H" 
			},
			{
				"x": -0.2614713739,
				"y": 1.4197721824,
				"z": 3.449789636,
				"element": "H" 
			},
			{
				"x": -2.8251215475,
				"y": 1.2777364801,
				"z": 3.2928837358,
				"element": "H" 
			},
			{
				"x": -3.615599274,
				"y": 1.4034740804,
				"z": 1.7131522925,
				"element": "H" 
			},
			{
				"x": -2.6976933234,
				"y": 2.7651788143,
				"z": 2.3512801182,
				"element": "H" 
			},
			{
				"x": -1.2928071842,
				"y": 2.8710962258,
				"z": -1.5125593446,
				"element": "H" 
			},
			{
				"x": -2.2746949472,
				"y": 3.3850030002,
				"z": -0.133969585,
				"element": "H" 
			},
			{
				"x": -0.5065428706,
				"y": 3.4390654822,
				"z": -0.0401568657,
				"element": "H" 
			}
		],
		 "valence_orbital": [ 
			{
				"type": "occ",
				"energy": -0.24377,
				"method": "rhf"
			},
			{
				"type": "occ",
				"energy": -0.24106,
				"method": "rhf"
			},
			{
				"type": "occ",
				"energy": -0.23598,
				"method": "rhf"
			},
			{
				"type": "occ",
				"energy": -0.20343,
				"method": "rhf"
			},
			{
				"type": "occ",
				"energy": -0.19972,
				"method": "rhf"
			},
			{
				"type": "unocc",
				"energy": -0.01301,
				"method": "rhf"
			},
			{
				"type": "unocc",
				"energy": -0.00313,
				"method": "rhf"
			},
			{
				"type": "unocc",
				"energy": 0.00361,
				"method": "rhf"
			},
			{
				"type": "unocc",
				"energy": 0.00484,
				"method": "rhf"
			},
			{
				"type": "unocc",
				"energy": 0.01364,
				"method": "rhf"
			}
		],
		"cosmo_sigma_profile": { 
			"-0.025": 0.0,
			"-0.024": 0.0,
			"-0.023": 0.0,
			"-0.022": 0.0,
			"-0.021": 0.0,
			"-0.02": 0.0,
			"-0.019": 0.0,
			"-0.018": 0.0,
			"-0.017": 0.0,
			"-0.016": 0.0,
			"-0.015": 0.0,
			"-0.014": 0.0,
			"-0.013": 0.0,
			"-0.012": 0.0,
			"-0.011": 0.0,
			"-0.01": 0.0,
			"-0.009": 0.0,
			"-0.008": 0.0,
			"-0.007": 0.0333896846672,
			"-0.006": 6.75480597458,
			"-0.005": 28.5791952097,
			"-0.004": 35.4189665981,
			"-0.003": 49.6871066484,
			"-0.002": 54.2198854846,
			"-0.001": 52.9540968664,
			"0.0": 51.2149071822,
			"0.001": 48.4781231893,
			"0.002": 31.8324795294,
			"0.003": 23.2598367124,
			"0.004": 25.3897086934,
			"0.005": 24.1479051057,
			"0.006": 18.3809995017,
			"0.007": 7.87452845237,
			"0.008": 3.32549023355,
			"0.009": 1.39981350419,
			"0.01": 1.83102433119,
			"0.011": 0.79092468228,
			"0.012": 0.0,
			"0.013": 0.0,
			"0.014": 0.0,
			"0.015": 0.0,
			"0.016": 0.0,
			"0.017": 0.0,
			"0.018": 0.0,
			"0.019": 0.0,
			"0.02": 0.0,
			"0.021": 0.0,
			"0.022": 0.0,
			"0.023": 0.0,
			"0.024": 0.0,
			"0.025": 0.0
		}
	}
}
