{
	 "smiles": "CN(CCCC(O)=O)S(=O)(=O)C1=CC=C(C=C1)C(C)=O", 
	 "Tm": 354.15, 
	 "num_atms": 37, 
	 "gaussian": { 
		 "optdone": 1, 
		 "sigma_profile": "yes", 
		 "theory": "DFT", 
		 "functional": "B3LYP", 
		 "basiset": "6-31G**", 
		 "properties": { 
			 "R2extent": 9382.4837, 
			 "electric_dipole_moment_norm": 4.44130614122, 
			 "electric_quadrupole_moment_norm": 43.7145452891, 
			 "total_energy": -1334.63005665, 
			 "HOMO_LUMO_gap": 0.1797, 
			 "cosmo_polarized_energy": -27.06, 
			 "cosmo_cavitation_energy": 42.37, 
			 "cosmo_dispersion_energy": -29.22, 
			 "cosmo_repulsion_energy": 2.21, 
			 "cosmo_total_nonelectrostatic_energy": 15.36, 
			 "SMD_solvation_energy": 8.15 
		},
		"coords": [
			{
				"x": -2.1584166288,
				"y": -0.7660445911,
				"z": 1.3699267025,
				"element": "C" 
			},
			{
				"x": -0.9314603667,
				"y": 0.0261609699,
				"z": 1.4864615776,
				"element": "N" 
			},
			{
				"x": 0.1210749774,
				"y": -0.5281258072,
				"z": 2.3593222701,
				"element": "C" 
			},
			{
				"x": -0.0863053433,
				"y": -0.1331726327,
				"z": 3.8260837543,
				"element": "C" 
			},
			{
				"x": 0.0101699816,
				"y": 1.3761192318,
				"z": 4.0458644035,
				"element": "C" 
			},
			{
				"x": -0.2421422068,
				"y": 1.7762181023,
				"z": 5.4911514662,
				"element": "C" 
			},
			{
				"x": -0.164337328,
				"y": 3.110858746,
				"z": 5.7446138432,
				"element": "O" 
			},
			{
				"x": -0.4961503778,
				"y": 1.0060902652,
				"z": 6.3840399276,
				"element": "O" 
			},
			{
				"x": -0.458294643,
				"y": 0.9231600221,
				"z": 0.144474101,
				"element": "S" 
			},
			{
				"x": 0.6613264117,
				"y": 1.7586923631,
				"z": 0.5893447454,
				"element": "O" 
			},
			{
				"x": -1.6808035149,
				"y": 1.4960802286,
				"z": -0.4208334686,
				"element": "O" 
			},
			{
				"x": 0.1942662177,
				"y": -0.2425605893,
				"z": -1.0634356307,
				"element": "C" 
			},
			{
				"x": -0.6872801414,
				"y": -0.8953208033,
				"z": -1.9331337924,
				"element": "C" 
			},
			{
				"x": -0.1832976273,
				"y": -1.8284215005,
				"z": -2.8322275431,
				"element": "C" 
			},
			{
				"x": 1.1911304371,
				"y": -2.1106631568,
				"z": -2.8764920822,
				"element": "C" 
			},
			{
				"x": 2.0597875999,
				"y": -1.4341475911,
				"z": -2.0078748057,
				"element": "C" 
			},
			{
				"x": 1.5665387997,
				"y": -0.49941813,
				"z": -1.0984297433,
				"element": "C" 
			},
			{
				"x": 1.6685850683,
				"y": -3.1311344585,
				"z": -3.8748278715,
				"element": "C" 
			},
			{
				"x": 3.1529314004,
				"y": -3.4339210082,
				"z": -3.9628438555,
				"element": "C" 
			},
			{
				"x": 0.8678570793,
				"y": -3.7014218847,
				"z": -4.59793485,
				"element": "O" 
			},
			{
				"x": -1.9906967633,
				"y": -1.7262776153,
				"z": 0.8597213625,
				"element": "H" 
			},
			{
				"x": -2.9127572735,
				"y": -0.1906486648,
				"z": 0.8343466997,
				"element": "H" 
			},
			{
				"x": -2.5332713089,
				"y": -0.9695892386,
				"z": 2.3762635341,
				"element": "H" 
			},
			{
				"x": 0.1381237109,
				"y": -1.6223192675,
				"z": 2.2596168485,
				"element": "H" 
			},
			{
				"x": 1.0874113675,
				"y": -0.1503035015,
				"z": 2.0184310073,
				"element": "H" 
			},
			{
				"x": 0.6665893879,
				"y": -0.6456211912,
				"z": 4.4349341754,
				"element": "H" 
			},
			{
				"x": -1.0554819696,
				"y": -0.4905328973,
				"z": 4.1894228932,
				"element": "H" 
			},
			{
				"x": 0.9984113456,
				"y": 1.7494810367,
				"z": 3.7437855025,
				"element": "H" 
			},
			{
				"x": -0.7101591232,
				"y": 1.8964280703,
				"z": 3.40192585,
				"element": "H" 
			},
			{
				"x": 0.0338194616,
				"y": 3.5944213275,
				"z": 4.9295851674,
				"element": "H" 
			},
			{
				"x": -1.743311228,
				"y": -0.6494469416,
				"z": -1.9175656622,
				"element": "H" 
			},
			{
				"x": -0.8359729966,
				"y": -2.3511399173,
				"z": -3.5231163017,
				"element": "H" 
			},
			{
				"x": 3.1272193093,
				"y": -1.6253776493,
				"z": -2.0385502777,
				"element": "H" 
			},
			{
				"x": 2.2337137724,
				"y": 0.0476008752,
				"z": -0.4418896019,
				"element": "H" 
			},
			{
				"x": 3.7230578171,
				"y": -2.5332045209,
				"z": -4.2161618874,
				"element": "H" 
			},
			{
				"x": 3.5365684255,
				"y": -3.8054558325,
				"z": -3.0061094489,
				"element": "H" 
			},
			{
				"x": 3.3095562703,
				"y": -4.1895418475,
				"z": -4.7327890091,
				"element": "H" 
			}
		],
		 "valence_orbital": [ 
			{
				"type": "occ",
				"energy": -0.29229,
				"method": "rhf"
			},
			{
				"type": "occ",
				"energy": -0.28578,
				"method": "rhf"
			},
			{
				"type": "occ",
				"energy": -0.27076,
				"method": "rhf"
			},
			{
				"type": "occ",
				"energy": -0.26639,
				"method": "rhf"
			},
			{
				"type": "occ",
				"energy": -0.26347,
				"method": "rhf"
			},
			{
				"type": "unocc",
				"energy": -0.08377,
				"method": "rhf"
			},
			{
				"type": "unocc",
				"energy": -0.03639,
				"method": "rhf"
			},
			{
				"type": "unocc",
				"energy": 0.00308,
				"method": "rhf"
			},
			{
				"type": "unocc",
				"energy": 0.01265,
				"method": "rhf"
			},
			{
				"type": "unocc",
				"energy": 0.04496,
				"method": "rhf"
			}
		],
		"cosmo_sigma_profile": { 
			"-0.025": 0.0,
			"-0.024": 0.0,
			"-0.023": 0.0,
			"-0.022": 0.0,
			"-0.021": 0.0,
			"-0.02": 0.0,
			"-0.019": 0.316871303422,
			"-0.018": 1.31218749301,
			"-0.017": 0.868035493846,
			"-0.016": 1.29260277149,
			"-0.015": 1.21628013918,
			"-0.014": 0.759054383274,
			"-0.013": 1.27499752231,
			"-0.012": 1.20140964481,
			"-0.011": 0.689370220518,
			"-0.01": 1.25814456239,
			"-0.009": 1.22621598694,
			"-0.008": 3.25063281045,
			"-0.007": 12.5527347725,
			"-0.006": 22.5991122187,
			"-0.005": 29.0570550918,
			"-0.004": 33.4990781664,
			"-0.003": 30.9827484479,
			"-0.002": 22.6129990209,
			"-0.001": 18.8519305608,
			"0.0": 17.5232390739,
			"0.001": 22.3881171084,
			"0.002": 15.1717310136,
			"0.003": 7.14232837921,
			"0.004": 7.35269629017,
			"0.005": 7.32255677298,
			"0.006": 7.27081023472,
			"0.007": 6.5913383809,
			"0.008": 7.92541642634,
			"0.009": 8.51640557332,
			"0.01": 13.3332489905,
			"0.011": 15.9102859727,
			"0.012": 10.2882022205,
			"0.013": 3.06518272457,
			"0.014": 0.156623441531,
			"0.015": 0.0,
			"0.016": 0.0,
			"0.017": 0.0,
			"0.018": 0.0,
			"0.019": 0.0,
			"0.02": 0.0,
			"0.021": 0.0,
			"0.022": 0.0,
			"0.023": 0.0,
			"0.024": 0.0,
			"0.025": 0.0
		}
	}
}
