{
	 "smiles": "CCCCSCC", 
	 "Tm": 178.15, 
	 "num_atms": 21, 
	 "gaussian": { 
		 "optdone": 1, 
		 "sigma_profile": "yes", 
		 "theory": "DFT", 
		 "functional": "B3LYP", 
		 "basiset": "6-31G**", 
		 "properties": { 
			 "R2extent": 1514.6334, 
			 "electric_dipole_moment_norm": 1.73820305488, 
			 "electric_quadrupole_moment_norm": 5.19882474027, 
			 "total_energy": -635.277433226, 
			 "HOMO_LUMO_gap": 0.26192, 
			 "cosmo_polarized_energy": -4.07, 
			 "cosmo_cavitation_energy": 23.63, 
			 "cosmo_dispersion_energy": -17.54, 
			 "cosmo_repulsion_energy": 1.45, 
			 "cosmo_total_nonelectrostatic_energy": 7.55, 
			 "SMD_solvation_energy": 3.66 
		},
		"coords": [
			{
				"x": -1.3845218516,
				"y": -2.1474465962,
				"z": 2.214157486,
				"element": "C" 
			},
			{
				"x": 0.0922565506,
				"y": -1.7368701014,
				"z": 2.2460707117,
				"element": "C" 
			},
			{
				"x": 0.5943310533,
				"y": -0.9111390397,
				"z": 1.0482919781,
				"element": "C" 
			},
			{
				"x": 0.0841492157,
				"y": 0.5378019671,
				"z": 0.9593002796,
				"element": "C" 
			},
			{
				"x": -1.5831278251,
				"y": 0.8000494029,
				"z": 0.2213296189,
				"element": "S" 
			},
			{
				"x": -1.23226585,
				"y": 0.5668407297,
				"z": -1.5682636042,
				"element": "C" 
			},
			{
				"x": -0.4802377958,
				"y": 1.7201505974,
				"z": -2.2319625627,
				"element": "C" 
			},
			{
				"x": -1.616639581,
				"y": -2.7123928828,
				"z": 1.3043315579,
				"element": "H" 
			},
			{
				"x": -1.6237468099,
				"y": -2.7843374172,
				"z": 3.0729404253,
				"element": "H" 
			},
			{
				"x": -2.0534219433,
				"y": -1.2838898802,
				"z": 2.2358479095,
				"element": "H" 
			},
			{
				"x": 0.7076609589,
				"y": -2.6440760303,
				"z": 2.3067041511,
				"element": "H" 
			},
			{
				"x": 0.2972063318,
				"y": -1.1764103271,
				"z": 3.1692313045,
				"element": "H" 
			},
			{
				"x": 1.6901937772,
				"y": -0.8593063601,
				"z": 1.1138434536,
				"element": "H" 
			},
			{
				"x": 0.3768308968,
				"y": -1.4428078099,
				"z": 0.1125832363,
				"element": "H" 
			},
			{
				"x": 0.0144954123,
				"y": 0.9791112385,
				"z": 1.9596524711,
				"element": "H" 
			},
			{
				"x": 0.7932445037,
				"y": 1.1555515674,
				"z": 0.3994913092,
				"element": "H" 
			},
			{
				"x": -0.7030171956,
				"y": -0.3820995931,
				"z": -1.7046394839,
				"element": "H" 
			},
			{
				"x": -2.2211369124,
				"y": 0.4429275293,
				"z": -2.0206156391,
				"element": "H" 
			},
			{
				"x": 0.5097232207,
				"y": 1.8670200462,
				"z": -1.7888307007,
				"element": "H" 
			},
			{
				"x": -1.0347462857,
				"y": 2.6573724794,
				"z": -2.1327813257,
				"element": "H" 
			},
			{
				"x": -0.3354298704,
				"y": 1.5155504801,
				"z": -3.2994825766,
				"element": "H" 
			}
		],
		 "valence_orbital": [ 
			{
				"type": "occ",
				"energy": -0.32992,
				"method": "rhf"
			},
			{
				"type": "occ",
				"energy": -0.32615,
				"method": "rhf"
			},
			{
				"type": "occ",
				"energy": -0.3218,
				"method": "rhf"
			},
			{
				"type": "occ",
				"energy": -0.29051,
				"method": "rhf"
			},
			{
				"type": "occ",
				"energy": -0.21284,
				"method": "rhf"
			},
			{
				"type": "unocc",
				"energy": 0.04908,
				"method": "rhf"
			},
			{
				"type": "unocc",
				"energy": 0.0744,
				"method": "rhf"
			},
			{
				"type": "unocc",
				"energy": 0.08388,
				"method": "rhf"
			},
			{
				"type": "unocc",
				"energy": 0.11317,
				"method": "rhf"
			},
			{
				"type": "unocc",
				"energy": 0.11498,
				"method": "rhf"
			}
		],
		"cosmo_sigma_profile": { 
			"-0.025": 0.0,
			"-0.024": 0.0,
			"-0.023": 0.0,
			"-0.022": 0.0,
			"-0.021": 0.0,
			"-0.02": 0.0,
			"-0.019": 0.0,
			"-0.018": 0.0,
			"-0.017": 0.0,
			"-0.016": 0.0,
			"-0.015": 0.0,
			"-0.014": 0.0,
			"-0.013": 0.0,
			"-0.012": 0.0,
			"-0.011": 0.0,
			"-0.01": 0.0,
			"-0.009": 0.0,
			"-0.008": 0.0,
			"-0.007": 0.0,
			"-0.006": 0.0966048345022,
			"-0.005": 4.60516910748,
			"-0.004": 11.8059869552,
			"-0.003": 19.5403264333,
			"-0.002": 28.5336741035,
			"-0.001": 31.8590299128,
			"0.0": 28.6644459136,
			"0.001": 21.4704600654,
			"0.002": 10.5980219965,
			"0.003": 4.20292618983,
			"0.004": 3.59382733106,
			"0.005": 2.64347459279,
			"0.006": 3.64263993307,
			"0.007": 4.36993864911,
			"0.008": 2.68857995704,
			"0.009": 2.69947747189,
			"0.01": 1.72936953247,
			"0.011": 1.13466341533,
			"0.012": 0.538298916988,
			"0.013": 0.00439418319149,
			"0.014": 0.0,
			"0.015": 0.0,
			"0.016": 0.0,
			"0.017": 0.0,
			"0.018": 0.0,
			"0.019": 0.0,
			"0.02": 0.0,
			"0.021": 0.0,
			"0.022": 0.0,
			"0.023": 0.0,
			"0.024": 0.0,
			"0.025": 0.0
		}
	}
}
