{
	 "smiles": "CC1=CC=C(C=C1)C(=C/CN1CCCC1)C1=CC=CC=N1", 
	 "Tm": 333.15, 
	 "num_atms": 43, 
	 "gaussian": { 
		 "optdone": 1, 
		 "sigma_profile": "yes", 
		 "theory": "DFT", 
		 "functional": "B3LYP", 
		 "basiset": "6-31G**", 
		 "properties": { 
			 "R2extent": 7928.3805, 
			 "electric_dipole_moment_norm": 1.2841174479, 
			 "electric_quadrupole_moment_norm": 10.3757871644, 
			 "total_energy": -846.769445858, 
			 "HOMO_LUMO_gap": 0.17106, 
			 "cosmo_polarized_energy": -8.16, 
			 "cosmo_cavitation_energy": 44.24, 
			 "cosmo_dispersion_energy": -30.56, 
			 "cosmo_repulsion_energy": 2.38, 
			 "cosmo_total_nonelectrostatic_energy": 16.05, 
			 "SMD_solvation_energy": 4.93 
		},
		"coords": [
			{
				"x": -1.9602247685,
				"y": -4.1775617429,
				"z": 1.9083434973,
				"element": "C" 
			},
			{
				"x": -1.2355488701,
				"y": -2.8747244874,
				"z": 1.6648547256,
				"element": "C" 
			},
			{
				"x": -1.3017757261,
				"y": -1.8285617877,
				"z": 2.5969286525,
				"element": "C" 
			},
			{
				"x": -0.6520711599,
				"y": -0.6186229527,
				"z": 2.3688209615,
				"element": "C" 
			},
			{
				"x": 0.0882543082,
				"y": -0.4030886613,
				"z": 1.1922922694,
				"element": "C" 
			},
			{
				"x": 0.1565730918,
				"y": -1.4502351698,
				"z": 0.2594040992,
				"element": "C" 
			},
			{
				"x": -0.4949148373,
				"y": -2.6615670837,
				"z": 0.4966238569,
				"element": "C" 
			},
			{
				"x": 0.768841572,
				"y": 0.9012811681,
				"z": 0.9449580835,
				"element": "C" 
			},
			{
				"x": 0.6193689445,
				"y": 1.6027714287,
				"z": -0.1986997897,
				"element": "C" 
			},
			{
				"x": -0.2657072669,
				"y": 1.2479689634,
				"z": -1.3638520216,
				"element": "C" 
			},
			{
				"x": 0.4497929384,
				"y": 0.562970344,
				"z": -2.4455013366,
				"element": "N" 
			},
			{
				"x": 1.5371291463,
				"y": 1.3324776941,
				"z": -3.0554728213,
				"element": "C" 
			},
			{
				"x": 1.8892321806,
				"y": 0.523035444,
				"z": -4.3179641827,
				"element": "C" 
			},
			{
				"x": 0.5757792051,
				"y": -0.2360631569,
				"z": -4.6674809992,
				"element": "C" 
			},
			{
				"x": -0.4145079822,
				"y": 0.1941123726,
				"z": -3.5685282929,
				"element": "C" 
			},
			{
				"x": 1.6696148608,
				"y": 1.4451255748,
				"z": 2.0079962778,
				"element": "C" 
			},
			{
				"x": 2.2479437044,
				"y": 0.6076974654,
				"z": 2.9785550932,
				"element": "C" 
			},
			{
				"x": 3.110058017,
				"y": 1.153721282,
				"z": 3.926453712,
				"element": "C" 
			},
			{
				"x": 3.3799886466,
				"y": 2.5200171882,
				"z": 3.8888708733,
				"element": "C" 
			},
			{
				"x": 2.7689636057,
				"y": 3.2744173342,
				"z": 2.8847685703,
				"element": "C" 
			},
			{
				"x": 1.9388213916,
				"y": 2.7665207249,
				"z": 1.9731355446,
				"element": "N" 
			},
			{
				"x": -1.8882477406,
				"y": -4.4875581733,
				"z": 2.956041197,
				"element": "H" 
			},
			{
				"x": -1.5547907744,
				"y": -4.9827848263,
				"z": 1.2888395307,
				"element": "H" 
			},
			{
				"x": -3.0281654395,
				"y": -4.088545485,
				"z": 1.6719769705,
				"element": "H" 
			},
			{
				"x": -1.8711978423,
				"y": -1.9642053347,
				"z": 3.5137193706,
				"element": "H" 
			},
			{
				"x": -0.7223074727,
				"y": 0.1742699041,
				"z": 3.1082543777,
				"element": "H" 
			},
			{
				"x": 0.7168386563,
				"y": -1.3010466565,
				"z": -0.6591526603,
				"element": "H" 
			},
			{
				"x": -0.4206799748,
				"y": -3.4580843844,
				"z": -0.2402968976,
				"element": "H" 
			},
			{
				"x": 1.1724212658,
				"y": 2.5355920305,
				"z": -0.2688715792,
				"element": "H" 
			},
			{
				"x": -0.7324842452,
				"y": 2.1812670416,
				"z": -1.7413230923,
				"element": "H" 
			},
			{
				"x": -1.0766972747,
				"y": 0.5888861948,
				"z": -1.0375951773,
				"element": "H" 
			},
			{
				"x": 1.2021514996,
				"y": 2.3521879329,
				"z": -3.3348108254,
				"element": "H" 
			},
			{
				"x": 2.3756544464,
				"y": 1.4398443575,
				"z": -2.3611067458,
				"element": "H" 
			},
			{
				"x": 2.2285438629,
				"y": 1.1733115323,
				"z": -5.1290763785,
				"element": "H" 
			},
			{
				"x": 2.6961579825,
				"y": -0.1842305499,
				"z": -4.1069401272,
				"element": "H" 
			},
			{
				"x": 0.7375981346,
				"y": -1.3172244301,
				"z": -4.6389060377,
				"element": "H" 
			},
			{
				"x": 0.1994644833,
				"y": 0.0115563186,
				"z": -5.6640339542,
				"element": "H" 
			},
			{
				"x": -1.0184539953,
				"y": 1.0573583915,
				"z": -3.9143530793,
				"element": "H" 
			},
			{
				"x": -1.1122298433,
				"y": -0.5973035038,
				"z": -3.273687487,
				"element": "H" 
			},
			{
				"x": 2.0297096041,
				"y": -0.4536227238,
				"z": 2.978877309,
				"element": "H" 
			},
			{
				"x": 3.5668325884,
				"y": 0.5176633052,
				"z": 4.679701327,
				"element": "H" 
			},
			{
				"x": 4.0413534599,
				"y": 2.99089642,
				"z": 4.6091440549,
				"element": "H" 
			},
			{
				"x": 2.9537176169,
				"y": 4.3458806966,
				"z": 2.8154931316,
				"element": "H" 
			}
		],
		 "valence_orbital": [ 
			{
				"type": "occ",
				"energy": -0.24989,
				"method": "rhf"
			},
			{
				"type": "occ",
				"energy": -0.24409,
				"method": "rhf"
			},
			{
				"type": "occ",
				"energy": -0.24007,
				"method": "rhf"
			},
			{
				"type": "occ",
				"energy": -0.21286,
				"method": "rhf"
			},
			{
				"type": "occ",
				"energy": -0.2086,
				"method": "rhf"
			},
			{
				"type": "unocc",
				"energy": -0.03754,
				"method": "rhf"
			},
			{
				"type": "unocc",
				"energy": -0.01283,
				"method": "rhf"
			},
			{
				"type": "unocc",
				"energy": -0.00214,
				"method": "rhf"
			},
			{
				"type": "unocc",
				"energy": 0.0065,
				"method": "rhf"
			},
			{
				"type": "unocc",
				"energy": 0.05941,
				"method": "rhf"
			}
		],
		"cosmo_sigma_profile": { 
			"-0.025": 0.0,
			"-0.024": 0.0,
			"-0.023": 0.0,
			"-0.022": 0.0,
			"-0.021": 0.0,
			"-0.02": 0.0,
			"-0.019": 0.0,
			"-0.018": 0.0,
			"-0.017": 0.0,
			"-0.016": 0.0,
			"-0.015": 0.0,
			"-0.014": 0.0,
			"-0.013": 0.0,
			"-0.012": 0.0,
			"-0.011": 0.0,
			"-0.01": 0.0,
			"-0.009": 0.0,
			"-0.008": 0.0,
			"-0.007": 2.39334806232,
			"-0.006": 7.67321926442,
			"-0.005": 14.2343437956,
			"-0.004": 20.4263568738,
			"-0.003": 30.7732214658,
			"-0.002": 42.7701543922,
			"-0.001": 56.4128706397,
			"0.0": 45.8875096835,
			"0.001": 30.3343216161,
			"0.002": 24.2443164929,
			"0.003": 24.7465229867,
			"0.004": 14.4393377935,
			"0.005": 11.4110396709,
			"0.006": 9.23919115651,
			"0.007": 3.41268599779,
			"0.008": 2.96249859123,
			"0.009": 2.41861359896,
			"0.01": 1.56207376451,
			"0.011": 1.17222534776,
			"0.012": 0.60576619919,
			"0.013": 0.820755706644,
			"0.014": 0.806454751154,
			"0.015": 0.108699332772,
			"0.016": 0.0,
			"0.017": 0.0,
			"0.018": 0.0,
			"0.019": 0.0,
			"0.02": 0.0,
			"0.021": 0.0,
			"0.022": 0.0,
			"0.023": 0.0,
			"0.024": 0.0,
			"0.025": 0.0
		}
	}
}
