{
	 "smiles": "CC1=NN(CC(=O)NN)C(C)=C1", 
	 "Tm": 376.15, 
	 "num_atms": 24, 
	 "gaussian": { 
		 "optdone": 1, 
		 "sigma_profile": "yes", 
		 "theory": "DFT", 
		 "functional": "B3LYP", 
		 "basiset": "6-31G**", 
		 "properties": { 
			 "R2extent": 2569.0578, 
			 "electric_dipole_moment_norm": 2.87356181768, 
			 "electric_quadrupole_moment_norm": 5.66194231779, 
			 "total_energy": -568.183013733, 
			 "HOMO_LUMO_gap": 0.24369, 
			 "cosmo_polarized_energy": -13.01, 
			 "cosmo_cavitation_energy": 27.74, 
			 "cosmo_dispersion_energy": -19.79, 
			 "cosmo_repulsion_energy": 1.63, 
			 "cosmo_total_nonelectrostatic_energy": 9.58, 
			 "SMD_solvation_energy": 5.31 
		},
		"coords": [
			{
				"x": 2.9940500037,
				"y": 0.5964284178,
				"z": -1.3633892968,
				"element": "C" 
			},
			{
				"x": 1.647437437,
				"y": 0.0316724,
				"z": -1.0273890337,
				"element": "C" 
			},
			{
				"x": 1.4422868229,
				"y": -0.5794418228,
				"z": 0.1415125125,
				"element": "N" 
			},
			{
				"x": 0.1361613481,
				"y": -0.9664570904,
				"z": 0.12074992,
				"element": "N" 
			},
			{
				"x": -0.4180999169,
				"y": -1.6363509324,
				"z": 1.2821443057,
				"element": "C" 
			},
			{
				"x": -0.6038953267,
				"y": -0.7671210081,
				"z": 2.5375958961,
				"element": "C" 
			},
			{
				"x": -1.4448936614,
				"y": -1.0641718518,
				"z": 3.3797182096,
				"element": "O" 
			},
			{
				"x": 0.249405207,
				"y": 0.280508097,
				"z": 2.6606064051,
				"element": "N" 
			},
			{
				"x": 0.3043629282,
				"y": 1.031643867,
				"z": 3.854207651,
				"element": "N" 
			},
			{
				"x": -0.4916915476,
				"y": -0.607882807,
				"z": -1.0383281742,
				"element": "C" 
			},
			{
				"x": -1.9293315971,
				"y": -0.9062192063,
				"z": -1.3269420818,
				"element": "C" 
			},
			{
				"x": 0.4654269663,
				"y": 0.0347262443,
				"z": -1.8047545517,
				"element": "C" 
			},
			{
				"x": 3.6859336787,
				"y": 0.4307962583,
				"z": -0.5345339834,
				"element": "H" 
			},
			{
				"x": 2.9386202951,
				"y": 1.6731599528,
				"z": -1.5582570557,
				"element": "H" 
			},
			{
				"x": 3.4119344978,
				"y": 0.1245079298,
				"z": -2.2595766633,
				"element": "H" 
			},
			{
				"x": 0.2343449725,
				"y": -2.4751142949,
				"z": 1.548371875,
				"element": "H" 
			},
			{
				"x": -1.3979762543,
				"y": -2.0426269008,
				"z": 1.0327261929,
				"element": "H" 
			},
			{
				"x": 1.0524710466,
				"y": 0.3456995311,
				"z": 2.0427542962,
				"element": "H" 
			},
			{
				"x": -0.4570708734,
				"y": 1.7099910558,
				"z": 3.8254268639,
				"element": "H" 
			},
			{
				"x": 0.0608884885,
				"y": 0.3895829219,
				"z": 4.6098551746,
				"element": "H" 
			},
			{
				"x": -2.1340137235,
				"y": -1.983282268,
				"z": -1.330068917,
				"element": "H" 
			},
			{
				"x": -2.1924338104,
				"y": -0.5168151381,
				"z": -2.3125696497,
				"element": "H" 
			},
			{
				"x": -2.6012755893,
				"y": -0.4440432826,
				"z": -0.5948716234,
				"element": "H" 
			},
			{
				"x": 0.3248586084,
				"y": 0.4457099274,
				"z": -2.794188272,
				"element": "H" 
			}
		],
		 "valence_orbital": [ 
			{
				"type": "occ",
				"energy": -0.28593,
				"method": "rhf"
			},
			{
				"type": "occ",
				"energy": -0.26739,
				"method": "rhf"
			},
			{
				"type": "occ",
				"energy": -0.24681,
				"method": "rhf"
			},
			{
				"type": "occ",
				"energy": -0.242,
				"method": "rhf"
			},
			{
				"type": "occ",
				"energy": -0.23369,
				"method": "rhf"
			},
			{
				"type": "unocc",
				"energy": 0.01,
				"method": "rhf"
			},
			{
				"type": "unocc",
				"energy": 0.02496,
				"method": "rhf"
			},
			{
				"type": "unocc",
				"energy": 0.06413,
				"method": "rhf"
			},
			{
				"type": "unocc",
				"energy": 0.08405,
				"method": "rhf"
			},
			{
				"type": "unocc",
				"energy": 0.09263,
				"method": "rhf"
			}
		],
		"cosmo_sigma_profile": { 
			"-0.025": 0.0,
			"-0.024": 0.0,
			"-0.023": 0.0,
			"-0.022": 0.0,
			"-0.021": 0.0,
			"-0.02": 0.0,
			"-0.019": 0.0,
			"-0.018": 0.0,
			"-0.017": 0.0,
			"-0.016": 0.0,
			"-0.015": 0.0,
			"-0.014": 0.0,
			"-0.013": 0.0,
			"-0.012": 0.443313567908,
			"-0.011": 1.77110151984,
			"-0.01": 2.21754515463,
			"-0.009": 3.05001695744,
			"-0.008": 3.21432618643,
			"-0.007": 7.76605934066,
			"-0.006": 12.1905069231,
			"-0.005": 14.9108926206,
			"-0.004": 17.4887440985,
			"-0.003": 19.1519680181,
			"-0.002": 20.1593807953,
			"-0.001": 20.7358753851,
			"0.0": 15.594499269,
			"0.001": 11.1351141914,
			"0.002": 10.7396730594,
			"0.003": 8.35806881241,
			"0.004": 8.15145539516,
			"0.005": 6.90409293087,
			"0.006": 5.2031457562,
			"0.007": 2.81671997724,
			"0.008": 2.7478178805,
			"0.009": 2.41447750755,
			"0.01": 2.4931319227,
			"0.011": 2.90108767071,
			"0.012": 3.82531170578,
			"0.013": 5.94176964806,
			"0.014": 4.15470168651,
			"0.015": 1.12238011954,
			"0.016": 0.487859784011,
			"0.017": 0.323210390457,
			"0.018": 0.0,
			"0.019": 0.0,
			"0.02": 0.0,
			"0.021": 0.0,
			"0.022": 0.0,
			"0.023": 0.0,
			"0.024": 0.0,
			"0.025": 0.0
		}
	}
}
