{
	 "smiles": "[O-][N+](=O)C1=CC(=CC=C1C(=O)C=NNC1=CC=CC=C1)C(=O)C=NNC1=CC=CC=C1", 
	 "Tm": 373.15, 
	 "num_atms": 48, 
	 "gaussian": { 
		 "optdone": 1, 
		 "sigma_profile": "yes", 
		 "theory": "DFT", 
		 "functional": "B3LYP", 
		 "basiset": "6-31G**", 
		 "properties": { 
			 "R2extent": 18543.5864, 
			 "electric_dipole_moment_norm": 5.50265540353, 
			 "electric_quadrupole_moment_norm": 17.1542793063, 
			 "total_energy": -1423.03778028, 
			 "HOMO_LUMO_gap": 0.1068, 
			 "cosmo_polarized_energy": -19.08, 
			 "cosmo_cavitation_energy": 54.52, 
			 "cosmo_dispersion_energy": -36.41, 
			 "cosmo_repulsion_energy": 2.71, 
			 "cosmo_total_nonelectrostatic_energy": 20.82, 
			 "SMD_solvation_energy": 10.79 
		},
		"coords": [
			{
				"x": 2.4753660728,
				"y": -3.2686882777,
				"z": -2.2765689986,
				"element": "O" 
			},
			{
				"x": 3.1506242471,
				"y": -2.2644357321,
				"z": -2.0626197596,
				"element": "N" 
			},
			{
				"x": 4.3442959755,
				"y": -2.145905012,
				"z": -2.3434510086,
				"element": "O" 
			},
			{
				"x": 2.5046995858,
				"y": -1.1314882811,
				"z": -1.3815710996,
				"element": "C" 
			},
			{
				"x": 1.4053347971,
				"y": -1.4263954082,
				"z": -0.5821697713,
				"element": "C" 
			},
			{
				"x": 0.8160124533,
				"y": -0.4172456748,
				"z": 0.1884144872,
				"element": "C" 
			},
			{
				"x": 1.3705046908,
				"y": 0.8711148286,
				"z": 0.1453053924,
				"element": "C" 
			},
			{
				"x": 2.4583949462,
				"y": 1.1513193709,
				"z": -0.6727026784,
				"element": "C" 
			},
			{
				"x": 3.0410282584,
				"y": 0.1611313435,
				"z": -1.4749268058,
				"element": "C" 
			},
			{
				"x": 4.1949021788,
				"y": 0.5935402863,
				"z": -2.3517118091,
				"element": "C" 
			},
			{
				"x": 5.0394245299,
				"y": 1.3411950837,
				"z": -1.8858387571,
				"element": "O" 
			},
			{
				"x": 4.3400097051,
				"y": 0.1533055036,
				"z": -3.7841742384,
				"element": "C" 
			},
			{
				"x": 3.4806094435,
				"y": -0.0684256126,
				"z": -4.7118576771,
				"element": "N" 
			},
			{
				"x": 2.132050555,
				"y": 0.1160055702,
				"z": -4.4763628561,
				"element": "N" 
			},
			{
				"x": 1.553318298,
				"y": 1.3449252307,
				"z": -4.0351294552,
				"element": "C" 
			},
			{
				"x": 0.1803289439,
				"y": 1.3324764161,
				"z": -3.7478586518,
				"element": "C" 
			},
			{
				"x": -0.4656470657,
				"y": 2.5024014114,
				"z": -3.3559432818,
				"element": "C" 
			},
			{
				"x": 0.2477479656,
				"y": 3.6974253117,
				"z": -3.2327793483,
				"element": "C" 
			},
			{
				"x": 1.6127700656,
				"y": 3.708096686,
				"z": -3.521802783,
				"element": "C" 
			},
			{
				"x": 2.2691977627,
				"y": 2.5447248177,
				"z": -3.9279925799,
				"element": "C" 
			},
			{
				"x": -0.3626413005,
				"y": -0.6440210251,
				"z": 1.0905725292,
				"element": "C" 
			},
			{
				"x": -0.6935639911,
				"y": 0.2611346254,
				"z": 1.883235493,
				"element": "O" 
			},
			{
				"x": -1.0998503833,
				"y": -1.8925632723,
				"z": 1.0122139619,
				"element": "C" 
			},
			{
				"x": -2.1400828664,
				"y": -2.2122566245,
				"z": 1.7519890661,
				"element": "N" 
			},
			{
				"x": -2.5889874298,
				"y": -1.3749317683,
				"z": 2.6564594509,
				"element": "N" 
			},
			{
				"x": -3.6928424104,
				"y": -1.6932782772,
				"z": 3.4625401278,
				"element": "C" 
			},
			{
				"x": -4.3678758601,
				"y": -2.9164510773,
				"z": 3.3456177378,
				"element": "C" 
			},
			{
				"x": -5.4569713219,
				"y": -3.174394495,
				"z": 4.17330814,
				"element": "C" 
			},
			{
				"x": -5.881964191,
				"y": -2.2319034267,
				"z": 5.1147651911,
				"element": "C" 
			},
			{
				"x": -5.2036074918,
				"y": -1.0166031556,
				"z": 5.2246906782,
				"element": "C" 
			},
			{
				"x": -4.1117812626,
				"y": -0.7425804199,
				"z": 4.4039207446,
				"element": "C" 
			},
			{
				"x": 1.0621842041,
				"y": -2.4519688264,
				"z": -0.5593889526,
				"element": "H" 
			},
			{
				"x": 0.9250508243,
				"y": 1.6419047831,
				"z": 0.7640395095,
				"element": "H" 
			},
			{
				"x": 2.8685549816,
				"y": 2.1534102101,
				"z": -0.7206017328,
				"element": "H" 
			},
			{
				"x": 5.3791069068,
				"y": 0.0069799962,
				"z": -4.0722266553,
				"element": "H" 
			},
			{
				"x": 1.6289760919,
				"y": -0.2584544899,
				"z": -5.2720989757,
				"element": "H" 
			},
			{
				"x": -0.3694773994,
				"y": 0.3984320851,
				"z": -3.8243544736,
				"element": "H" 
			},
			{
				"x": -1.5289903839,
				"y": 2.4761991884,
				"z": -3.1356918154,
				"element": "H" 
			},
			{
				"x": -0.2541775285,
				"y": 4.6068503357,
				"z": -2.9177135003,
				"element": "H" 
			},
			{
				"x": 2.1782170126,
				"y": 4.632500836,
				"z": -3.4454994661,
				"element": "H" 
			},
			{
				"x": 3.3249793529,
				"y": 2.5790757098,
				"z": -4.1701463726,
				"element": "H" 
			},
			{
				"x": -0.8257657846,
				"y": -2.6518737439,
				"z": 0.2904738961,
				"element": "H" 
			},
			{
				"x": -2.1035052448,
				"y": -0.474927342,
				"z": 2.7489533839,
				"element": "H" 
			},
			{
				"x": -4.0304960867,
				"y": -3.6399755549,
				"z": 2.6135214072,
				"element": "H" 
			},
			{
				"x": -5.9790471196,
				"y": -4.1224710904,
				"z": 4.0818524029,
				"element": "H" 
			},
			{
				"x": -6.7323119652,
				"y": -2.4436259117,
				"z": 5.7554024612,
				"element": "H" 
			},
			{
				"x": -5.5229857256,
				"y": -0.2761607841,
				"z": 5.9520037213,
				"element": "H" 
			},
			{
				"x": -3.5825170364,
				"y": 0.2028756533,
				"z": 4.4889037216,
				"element": "H" 
			}
		],
		 "valence_orbital": [ 
			{
				"type": "occ",
				"energy": -0.26344,
				"method": "rhf"
			},
			{
				"type": "occ",
				"energy": -0.26256,
				"method": "rhf"
			},
			{
				"type": "occ",
				"energy": -0.26107,
				"method": "rhf"
			},
			{
				"type": "occ",
				"energy": -0.22023,
				"method": "rhf"
			},
			{
				"type": "occ",
				"energy": -0.21525,
				"method": "rhf"
			},
			{
				"type": "unocc",
				"energy": -0.10845,
				"method": "rhf"
			},
			{
				"type": "unocc",
				"energy": -0.09161,
				"method": "rhf"
			},
			{
				"type": "unocc",
				"energy": -0.07327,
				"method": "rhf"
			},
			{
				"type": "unocc",
				"energy": -0.04087,
				"method": "rhf"
			},
			{
				"type": "unocc",
				"energy": -0.0156,
				"method": "rhf"
			}
		],
		"cosmo_sigma_profile": { 
			"-0.025": 0.0,
			"-0.024": 0.0,
			"-0.023": 0.0,
			"-0.022": 0.0,
			"-0.021": 0.0,
			"-0.02": 0.0,
			"-0.019": 0.0,
			"-0.018": 0.0,
			"-0.017": 0.0,
			"-0.016": 0.0,
			"-0.015": 0.291866375368,
			"-0.014": 1.15665180282,
			"-0.013": 1.32997225827,
			"-0.012": 0.758610557407,
			"-0.011": 2.59228994827,
			"-0.01": 2.9092526846,
			"-0.009": 4.11387145068,
			"-0.008": 6.90195830959,
			"-0.007": 11.2116829411,
			"-0.006": 22.3381777988,
			"-0.005": 28.2494561659,
			"-0.004": 30.8194159947,
			"-0.003": 29.7620073881,
			"-0.002": 31.6995030645,
			"-0.001": 33.230797182,
			"0.0": 32.3526361305,
			"0.001": 33.7240155585,
			"0.002": 28.9154013823,
			"0.003": 29.5419731594,
			"0.004": 25.3436535859,
			"0.005": 25.2673428389,
			"0.006": 13.289409844,
			"0.007": 11.3736728374,
			"0.008": 10.5516944814,
			"0.009": 7.85937357625,
			"0.01": 6.86920802363,
			"0.011": 4.15431089899,
			"0.012": 1.00526555354,
			"0.013": 0.721486856038,
			"0.014": 0.0177746510601,
			"0.015": 0.0,
			"0.016": 0.0,
			"0.017": 0.0,
			"0.018": 0.0,
			"0.019": 0.0,
			"0.02": 0.0,
			"0.021": 0.0,
			"0.022": 0.0,
			"0.023": 0.0,
			"0.024": 0.0,
			"0.025": 0.0
		}
	}
}
