{
	 "smiles": "CC1=CC=CC(C)=C1NC(=O)C1=NC=C(N=C1)C(C)(C)C", 
	 "Tm": 358.15, 
	 "num_atms": 42, 
	 "gaussian": { 
		 "optdone": 1, 
		 "sigma_profile": "yes", 
		 "theory": "DFT", 
		 "functional": "B3LYP", 
		 "basiset": "6-31G**", 
		 "properties": { 
			 "R2extent": 7221.4717, 
			 "electric_dipole_moment_norm": 3.46266288426, 
			 "electric_quadrupole_moment_norm": 11.5338364489, 
			 "total_energy": -899.972076481, 
			 "HOMO_LUMO_gap": 0.17275, 
			 "cosmo_polarized_energy": -13.02, 
			 "cosmo_cavitation_energy": 44.07, 
			 "cosmo_dispersion_energy": -29.17, 
			 "cosmo_repulsion_energy": 2.26, 
			 "cosmo_total_nonelectrostatic_energy": 17.16, 
			 "SMD_solvation_energy": 7.2 
		},
		"coords": [
			{
				"x": -1.3078141383,
				"y": -3.2291617731,
				"z": 0.9119810434,
				"element": "C" 
			},
			{
				"x": 0.1432052887,
				"y": -3.0340459537,
				"z": 1.2827427919,
				"element": "C" 
			},
			{
				"x": 1.1463427565,
				"y": -3.7592375559,
				"z": 0.6273401491,
				"element": "C" 
			},
			{
				"x": 2.4859867435,
				"y": -3.6004131194,
				"z": 0.9731853109,
				"element": "C" 
			},
			{
				"x": 2.8443813974,
				"y": -2.706944335,
				"z": 1.9816990342,
				"element": "C" 
			},
			{
				"x": 1.8744956758,
				"y": -1.9565571015,
				"z": 2.6534506112,
				"element": "C" 
			},
			{
				"x": 2.2609826672,
				"y": -0.959864314,
				"z": 3.7159316741,
				"element": "C" 
			},
			{
				"x": 0.5267235831,
				"y": -2.1290762098,
				"z": 2.2896210209,
				"element": "C" 
			},
			{
				"x": -0.4825627427,
				"y": -1.4157011632,
				"z": 3.0242041962,
				"element": "N" 
			},
			{
				"x": -1.3098450565,
				"y": -0.3948669753,
				"z": 2.6289000031,
				"element": "C" 
			},
			{
				"x": -2.3214782825,
				"y": -0.1101993464,
				"z": 3.2644684386,
				"element": "O" 
			},
			{
				"x": -0.9447872269,
				"y": 0.4053898429,
				"z": 1.4078598723,
				"element": "C" 
			},
			{
				"x": 0.3364556659,
				"y": 0.5206843368,
				"z": 1.0291753252,
				"element": "N" 
			},
			{
				"x": 0.5822516,
				"y": 1.2899216143,
				"z": -0.0295035654,
				"element": "C" 
			},
			{
				"x": -0.4330329445,
				"y": 1.9541470177,
				"z": -0.7456073532,
				"element": "C" 
			},
			{
				"x": -1.7089615708,
				"y": 1.836946786,
				"z": -0.3505426251,
				"element": "N" 
			},
			{
				"x": -1.9594578268,
				"y": 1.0795988382,
				"z": 0.7217721345,
				"element": "C" 
			},
			{
				"x": -0.1147311501,
				"y": 2.8202200109,
				"z": -1.9688078574,
				"element": "C" 
			},
			{
				"x": -1.4005393458,
				"y": 3.4175091384,
				"z": -2.5660724908,
				"element": "C" 
			},
			{
				"x": 0.8282401156,
				"y": 3.971889424,
				"z": -1.5441004791,
				"element": "C" 
			},
			{
				"x": 0.5851901105,
				"y": 1.9509946167,
				"z": -3.0410595675,
				"element": "C" 
			},
			{
				"x": -1.9321054917,
				"y": -3.4089928497,
				"z": 1.7933117862,
				"element": "H" 
			},
			{
				"x": -1.4223664947,
				"y": -4.0790392053,
				"z": 0.2343466251,
				"element": "H" 
			},
			{
				"x": -1.7211563866,
				"y": -2.3475276023,
				"z": 0.4079528284,
				"element": "H" 
			},
			{
				"x": 0.8664855175,
				"y": -4.4616408816,
				"z": -0.1533355761,
				"element": "H" 
			},
			{
				"x": 3.251187894,
				"y": -4.1760528522,
				"z": 0.4599477497,
				"element": "H" 
			},
			{
				"x": 3.8899627325,
				"y": -2.5826274566,
				"z": 2.2507353566,
				"element": "H" 
			},
			{
				"x": 3.3417586654,
				"y": -0.9637841363,
				"z": 3.880250324,
				"element": "H" 
			},
			{
				"x": 1.772181933,
				"y": -1.1680429405,
				"z": 4.6740571841,
				"element": "H" 
			},
			{
				"x": 1.9580505736,
				"y": 0.0481378564,
				"z": 3.4136084644,
				"element": "H" 
			},
			{
				"x": -0.8191315258,
				"y": -1.8439231193,
				"z": 3.880535611,
				"element": "H" 
			},
			{
				"x": 1.6256758743,
				"y": 1.3846308509,
				"z": -0.3204264135,
				"element": "H" 
			},
			{
				"x": -2.989133439,
				"y": 0.9994708894,
				"z": 1.0580120643,
				"element": "H" 
			},
			{
				"x": -2.0955252363,
				"y": 2.6353437871,
				"z": -2.8819826624,
				"element": "H" 
			},
			{
				"x": -1.9250802325,
				"y": 4.0441529049,
				"z": -1.8405844913,
				"element": "H" 
			},
			{
				"x": -1.1477445247,
				"y": 4.0306394047,
				"z": -3.4376284964,
				"element": "H" 
			},
			{
				"x": 1.7756249226,
				"y": 3.6010608413,
				"z": -1.1401498219,
				"element": "H" 
			},
			{
				"x": 1.0606375993,
				"y": 4.6030627956,
				"z": -2.4085851537,
				"element": "H" 
			},
			{
				"x": 0.3598812553,
				"y": 4.6027576077,
				"z": -0.7817177252,
				"element": "H" 
			},
			{
				"x": 0.8147617775,
				"y": 2.5584203326,
				"z": -3.9231008646,
				"element": "H" 
			},
			{
				"x": 1.5258946789,
				"y": 1.525510202,
				"z": -2.6775347616,
				"element": "H" 
			},
			{
				"x": -0.0584054117,
				"y": 1.1243097924,
				"z": -3.3590496942,
				"element": "H" 
			}
		],
		 "valence_orbital": [ 
			{
				"type": "occ",
				"energy": -0.26569,
				"method": "rhf"
			},
			{
				"type": "occ",
				"energy": -0.25823,
				"method": "rhf"
			},
			{
				"type": "occ",
				"energy": -0.24773,
				"method": "rhf"
			},
			{
				"type": "occ",
				"energy": -0.23893,
				"method": "rhf"
			},
			{
				"type": "occ",
				"energy": -0.23074,
				"method": "rhf"
			},
			{
				"type": "unocc",
				"energy": -0.05799,
				"method": "rhf"
			},
			{
				"type": "unocc",
				"energy": -0.0398,
				"method": "rhf"
			},
			{
				"type": "unocc",
				"energy": -0.00603,
				"method": "rhf"
			},
			{
				"type": "unocc",
				"energy": 0.00344,
				"method": "rhf"
			},
			{
				"type": "unocc",
				"energy": 0.04562,
				"method": "rhf"
			}
		],
		"cosmo_sigma_profile": { 
			"-0.025": 0.0,
			"-0.024": 0.0,
			"-0.023": 0.0,
			"-0.022": 0.0,
			"-0.021": 0.0,
			"-0.02": 0.0,
			"-0.019": 0.0,
			"-0.018": 0.0,
			"-0.017": 0.0,
			"-0.016": 0.0,
			"-0.015": 0.0,
			"-0.014": 0.442025415733,
			"-0.013": 1.04424641677,
			"-0.012": 0.774109488398,
			"-0.011": 1.03731613052,
			"-0.01": 0.858100595021,
			"-0.009": 1.01216002951,
			"-0.008": 1.06692683609,
			"-0.007": 4.71102554246,
			"-0.006": 6.51470196536,
			"-0.005": 15.1505154299,
			"-0.004": 25.0763996399,
			"-0.003": 38.6447961167,
			"-0.002": 38.8171024793,
			"-0.001": 41.5054631985,
			"0.0": 44.7770293633,
			"0.001": 36.4312679598,
			"0.002": 16.8553687142,
			"0.003": 13.0419081131,
			"0.004": 10.5206338553,
			"0.005": 10.4886375611,
			"0.006": 8.83365475906,
			"0.007": 6.01393072901,
			"0.008": 3.9112024174,
			"0.009": 2.72349443457,
			"0.01": 3.31674982029,
			"0.011": 2.29628486174,
			"0.012": 3.50171860385,
			"0.013": 5.45780151234,
			"0.014": 1.83501506607,
			"0.015": 0.0107779045809,
			"0.016": 0.0,
			"0.017": 0.0,
			"0.018": 0.0,
			"0.019": 0.0,
			"0.02": 0.0,
			"0.021": 0.0,
			"0.022": 0.0,
			"0.023": 0.0,
			"0.024": 0.0,
			"0.025": 0.0
		}
	}
}
