{
	 "smiles": "OC(=O)C1=C(F)C(C(O)=O)=C(F)C(F)=C1F", 
	 "Tm": 484.15, 
	 "num_atms": 18, 
	 "gaussian": { 
		 "optdone": 1, 
		 "sigma_profile": "yes", 
		 "theory": "DFT", 
		 "functional": "B3LYP", 
		 "basiset": "6-31G**", 
		 "properties": { 
			 "R2extent": 3484.2847, 
			 "electric_dipole_moment_norm": 4.30061917868, 
			 "electric_quadrupole_moment_norm": 16.6196684239, 
			 "total_energy": -1006.27465221, 
			 "HOMO_LUMO_gap": 0.19739, 
			 "cosmo_polarized_energy": -17.98, 
			 "cosmo_cavitation_energy": 26.2, 
			 "cosmo_dispersion_energy": -18.91, 
			 "cosmo_repulsion_energy": 1.39, 
			 "cosmo_total_nonelectrostatic_energy": 8.68, 
			 "SMD_solvation_energy": 8.69 
		},
		"coords": [
			{
				"x": -2.7152447446,
				"y": 1.2441617006,
				"z": -2.4197968409,
				"element": "O" 
			},
			{
				"x": -1.4317573126,
				"y": 0.8744343613,
				"z": -2.6089241773,
				"element": "C" 
			},
			{
				"x": -0.8651649648,
				"y": 0.9405122679,
				"z": -3.6741267478,
				"element": "O" 
			},
			{
				"x": -0.7993462024,
				"y": 0.3826208833,
				"z": -1.3418705229,
				"element": "C" 
			},
			{
				"x": 0.5453164337,
				"y": 0.6789559663,
				"z": -1.0672956229,
				"element": "C" 
			},
			{
				"x": 1.1977833238,
				"y": 1.4378852466,
				"z": -1.9352796447,
				"element": "F" 
			},
			{
				"x": 1.2161369799,
				"y": 0.2174536313,
				"z": 0.0809592771,
				"element": "C" 
			},
			{
				"x": 2.6445482633,
				"y": 0.6390251954,
				"z": 0.3528404606,
				"element": "C" 
			},
			{
				"x": 3.3564102781,
				"y": -0.1242376959,
				"z": 1.2094613978,
				"element": "O" 
			},
			{
				"x": 3.1437980259,
				"y": 1.6029787557,
				"z": -0.1682121219,
				"element": "O" 
			},
			{
				"x": 0.4630718795,
				"y": -0.5862171172,
				"z": 0.9461783954,
				"element": "C" 
			},
			{
				"x": 1.0235608871,
				"y": -1.1040994322,
				"z": 2.0622213267,
				"element": "F" 
			},
			{
				"x": -0.8677533153,
				"y": -0.9053056619,
				"z": 0.718852857,
				"element": "C" 
			},
			{
				"x": -1.5351026987,
				"y": -1.6801815792,
				"z": 1.5779067731,
				"element": "F" 
			},
			{
				"x": -1.4933608432,
				"y": -0.4100387508,
				"z": -0.4213598655,
				"element": "C" 
			},
			{
				"x": -2.7634995134,
				"y": -0.7515728115,
				"z": -0.6225259555,
				"element": "F" 
			},
			{
				"x": -3.0470460037,
				"y": 1.5250482133,
				"z": -3.2899542548,
				"element": "H" 
			},
			{
				"x": 2.8161495277,
				"y": -0.8249231731,
				"z": 1.6022252665,
				"element": "H" 
			}
		],
		 "valence_orbital": [ 
			{
				"type": "occ",
				"energy": -0.3293,
				"method": "rhf"
			},
			{
				"type": "occ",
				"energy": -0.31068,
				"method": "rhf"
			},
			{
				"type": "occ",
				"energy": -0.29611,
				"method": "rhf"
			},
			{
				"type": "occ",
				"energy": -0.29026,
				"method": "rhf"
			},
			{
				"type": "occ",
				"energy": -0.28081,
				"method": "rhf"
			},
			{
				"type": "unocc",
				"energy": -0.08342,
				"method": "rhf"
			},
			{
				"type": "unocc",
				"energy": -0.06185,
				"method": "rhf"
			},
			{
				"type": "unocc",
				"energy": -0.00052,
				"method": "rhf"
			},
			{
				"type": "unocc",
				"energy": 0.0046,
				"method": "rhf"
			},
			{
				"type": "unocc",
				"energy": 0.03261,
				"method": "rhf"
			}
		],
		"cosmo_sigma_profile": { 
			"-0.025": 0.0,
			"-0.024": 0.0,
			"-0.023": 0.0,
			"-0.022": 0.0,
			"-0.021": 0.0,
			"-0.02": 0.0114086319182,
			"-0.019": 0.935128041438,
			"-0.018": 0.973790346792,
			"-0.017": 0.981478692743,
			"-0.016": 1.03061707509,
			"-0.015": 2.23617368521,
			"-0.014": 1.69386260178,
			"-0.013": 1.21969650204,
			"-0.012": 2.08916949969,
			"-0.011": 1.61977349306,
			"-0.01": 1.41278404516,
			"-0.009": 1.85656256694,
			"-0.008": 3.79459038987,
			"-0.007": 5.09273274663,
			"-0.006": 13.0539585252,
			"-0.005": 16.7603590527,
			"-0.004": 13.9995270102,
			"-0.003": 8.94529026581,
			"-0.002": 9.45593055521,
			"-0.001": 8.21102668631,
			"0.0": 11.3222917718,
			"0.001": 15.3460640433,
			"0.002": 22.3855560888,
			"0.003": 8.97279456979,
			"0.004": 7.17296260549,
			"0.005": 6.27365938722,
			"0.006": 5.85269804715,
			"0.007": 6.30220284949,
			"0.008": 5.89006318988,
			"0.009": 7.23040965056,
			"0.01": 10.7055333694,
			"0.011": 8.2056432332,
			"0.012": 1.47367678806,
			"0.013": 0.0456182760141,
			"0.014": 0.0,
			"0.015": 0.0,
			"0.016": 0.0,
			"0.017": 0.0,
			"0.018": 0.0,
			"0.019": 0.0,
			"0.02": 0.0,
			"0.021": 0.0,
			"0.022": 0.0,
			"0.023": 0.0,
			"0.024": 0.0,
			"0.025": 0.0
		}
	}
}
