{
	 "smiles": "CN(C)C1=CC(C)=C(C=C1)C#N", 
	 "Tm": 333.15, 
	 "num_atms": 24, 
	 "gaussian": { 
		 "optdone": 1, 
		 "sigma_profile": "yes", 
		 "theory": "DFT", 
		 "functional": "B3LYP", 
		 "basiset": "6-31G**", 
		 "properties": { 
			 "R2extent": 2846.8644, 
			 "electric_dipole_moment_norm": 7.2760094255, 
			 "electric_quadrupole_moment_norm": 17.6813704288, 
			 "total_energy": -497.78837694, 
			 "HOMO_LUMO_gap": 0.17822, 
			 "cosmo_polarized_energy": -11.85, 
			 "cosmo_cavitation_energy": 27.67, 
			 "cosmo_dispersion_energy": -19.54, 
			 "cosmo_repulsion_energy": 1.54, 
			 "cosmo_total_nonelectrostatic_energy": 9.67, 
			 "SMD_solvation_energy": 5.87 
		},
		"coords": [
			{
				"x": -1.4238786689,
				"y": 1.5205782287,
				"z": -2.600576253,
				"element": "C" 
			},
			{
				"x": -0.5063983847,
				"y": 0.3981333277,
				"z": -2.4948185532,
				"element": "N" 
			},
			{
				"x": -0.4405314068,
				"y": -0.579896815,
				"z": -3.5683198231,
				"element": "C" 
			},
			{
				"x": 0.3247449924,
				"y": 0.2805925152,
				"z": -1.4017602932,
				"element": "C" 
			},
			{
				"x": 0.2925759021,
				"y": 1.2312936891,
				"z": -0.3512170734,
				"element": "C" 
			},
			{
				"x": 1.1171071374,
				"y": 1.1362539381,
				"z": 0.7644258409,
				"element": "C" 
			},
			{
				"x": 1.048725508,
				"y": 2.1717840868,
				"z": 1.8595256489,
				"element": "C" 
			},
			{
				"x": 2.0221136172,
				"y": 0.0518906886,
				"z": 0.8546737303,
				"element": "C" 
			},
			{
				"x": 2.0655734692,
				"y": -0.8971126478,
				"z": -0.1804047328,
				"element": "C" 
			},
			{
				"x": 1.2404380129,
				"y": -0.7938583241,
				"z": -1.2876320981,
				"element": "C" 
			},
			{
				"x": 2.8868826938,
				"y": -0.0823878664,
				"z": 1.9841394673,
				"element": "C" 
			},
			{
				"x": 3.5895232543,
				"y": -0.1864821102,
				"z": 2.9078709666,
				"element": "N" 
			},
			{
				"x": -0.8956954001,
				"y": 2.4837374162,
				"z": -2.6172903335,
				"element": "H" 
			},
			{
				"x": -2.1403237881,
				"y": 1.5417589683,
				"z": -1.7686487363,
				"element": "H" 
			},
			{
				"x": -1.991388694,
				"y": 1.4334897495,
				"z": -3.5274704338,
				"element": "H" 
			},
			{
				"x": -0.6706705573,
				"y": -1.5926135916,
				"z": -3.2116444239,
				"element": "H" 
			},
			{
				"x": -1.1720533328,
				"y": -0.3216042833,
				"z": -4.3344183068,
				"element": "H" 
			},
			{
				"x": 0.5503777791,
				"y": -0.6046535441,
				"z": -4.0420609937,
				"element": "H" 
			},
			{
				"x": -0.3929213516,
				"y": 2.0682547827,
				"z": -0.4032753655,
				"element": "H" 
			},
			{
				"x": 0.3006304475,
				"y": 2.936017186,
				"z": 1.63495231,
				"element": "H" 
			},
			{
				"x": 0.7937082506,
				"y": 1.7139206289,
				"z": 2.821463689,
				"element": "H" 
			},
			{
				"x": 2.0159341521,
				"y": 2.6677429048,
				"z": 1.9958117832,
				"element": "H" 
			},
			{
				"x": 2.76195309,
				"y": -1.726496152,
				"z": -0.1072269844,
				"element": "H" 
			},
			{
				"x": 1.3081732775,
				"y": -1.5470427761,
				"z": -2.0618990315,
				"element": "H" 
			}
		],
		 "valence_orbital": [ 
			{
				"type": "occ",
				"energy": -0.33881,
				"method": "rhf"
			},
			{
				"type": "occ",
				"energy": -0.30969,
				"method": "rhf"
			},
			{
				"type": "occ",
				"energy": -0.28244,
				"method": "rhf"
			},
			{
				"type": "occ",
				"energy": -0.25367,
				"method": "rhf"
			},
			{
				"type": "occ",
				"energy": -0.20236,
				"method": "rhf"
			},
			{
				"type": "unocc",
				"energy": -0.02414,
				"method": "rhf"
			},
			{
				"type": "unocc",
				"energy": -0.00582,
				"method": "rhf"
			},
			{
				"type": "unocc",
				"energy": 0.05346,
				"method": "rhf"
			},
			{
				"type": "unocc",
				"energy": 0.0739,
				"method": "rhf"
			},
			{
				"type": "unocc",
				"energy": 0.09192,
				"method": "rhf"
			}
		],
		"cosmo_sigma_profile": { 
			"-0.025": 0.0,
			"-0.024": 0.0,
			"-0.023": 0.0,
			"-0.022": 0.0,
			"-0.021": 0.0,
			"-0.02": 0.0,
			"-0.019": 0.0,
			"-0.018": 0.0,
			"-0.017": 0.0,
			"-0.016": 0.0,
			"-0.015": 0.0,
			"-0.014": 0.0,
			"-0.013": 0.0,
			"-0.012": 0.0,
			"-0.011": 0.0,
			"-0.01": 0.0,
			"-0.009": 0.0,
			"-0.008": 0.33400137481,
			"-0.007": 3.55551641383,
			"-0.006": 8.31194771619,
			"-0.005": 18.2650131907,
			"-0.004": 26.4608181916,
			"-0.003": 22.2155227779,
			"-0.002": 26.0307688165,
			"-0.001": 19.6538805185,
			"0.0": 14.5176455463,
			"0.001": 13.1902213493,
			"0.002": 10.8931291684,
			"0.003": 10.8593973785,
			"0.004": 12.7365609777,
			"0.005": 7.97257764352,
			"0.006": 2.3091312915,
			"0.007": 2.12813049845,
			"0.008": 2.74245783944,
			"0.009": 3.12842041723,
			"0.01": 3.6062403063,
			"0.011": 3.27752059528,
			"0.012": 3.21570774559,
			"0.013": 2.63696031447,
			"0.014": 1.72011579488,
			"0.015": 0.15926294218,
			"0.016": 0.0,
			"0.017": 0.0,
			"0.018": 0.0,
			"0.019": 0.0,
			"0.02": 0.0,
			"0.021": 0.0,
			"0.022": 0.0,
			"0.023": 0.0,
			"0.024": 0.0,
			"0.025": 0.0
		}
	}
}
