{
	 "smiles": "FC(F)COC1=NC(=CC=C1)C#N", 
	 "Tm": 323.15, 
	 "num_atms": 19, 
	 "gaussian": { 
		 "optdone": 1, 
		 "sigma_profile": "yes", 
		 "theory": "DFT", 
		 "functional": "B3LYP", 
		 "basiset": "6-31G**", 
		 "properties": { 
			 "R2extent": 3612.1962, 
			 "electric_dipole_moment_norm": 4.77183065395, 
			 "electric_quadrupole_moment_norm": 16.8644644157, 
			 "total_energy": -692.840466236, 
			 "HOMO_LUMO_gap": 0.18758, 
			 "cosmo_polarized_energy": -11.08, 
			 "cosmo_cavitation_energy": 26.15, 
			 "cosmo_dispersion_energy": -17.96, 
			 "cosmo_repulsion_energy": 1.41, 
			 "cosmo_total_nonelectrostatic_energy": 9.59, 
			 "SMD_solvation_energy": 6.54 
		},
		"coords": [
			{
				"x": 0.7174940925,
				"y": -3.0041643883,
				"z": 2.930309049,
				"element": "F" 
			},
			{
				"x": 1.1713234231,
				"y": -3.2517448923,
				"z": 1.667808674,
				"element": "C" 
			},
			{
				"x": 1.9521988835,
				"y": -4.3746237713,
				"z": 1.7039800864,
				"element": "F" 
			},
			{
				"x": 2.0595689044,
				"y": -2.1057742278,
				"z": 1.2087603233,
				"element": "C" 
			},
			{
				"x": 1.3829861876,
				"y": -0.8462710185,
				"z": 1.2436283813,
				"element": "O" 
			},
			{
				"x": 0.5702595195,
				"y": -0.5247293542,
				"z": 0.21304772,
				"element": "C" 
			},
			{
				"x": 0.3517371753,
				"y": -1.4075010713,
				"z": -0.7505728362,
				"element": "N" 
			},
			{
				"x": -0.4603765584,
				"y": -1.0333513831,
				"z": -1.7615108337,
				"element": "C" 
			},
			{
				"x": -1.0777975947,
				"y": 0.2132891462,
				"z": -1.8398428746,
				"element": "C" 
			},
			{
				"x": -0.8333185234,
				"y": 1.1243678954,
				"z": -0.8028880085,
				"element": "C" 
			},
			{
				"x": -0.0003374835,
				"y": 0.7643019965,
				"z": 0.2416600726,
				"element": "C" 
			},
			{
				"x": -0.6811989328,
				"y": -2.0114057638,
				"z": -2.799246626,
				"element": "C" 
			},
			{
				"x": -0.8751358812,
				"y": -2.7816392545,
				"z": -3.6475926473,
				"element": "N" 
			},
			{
				"x": 0.3133093936,
				"y": -3.4368071438,
				"z": 1.0158241678,
				"element": "H" 
			},
			{
				"x": 2.8862839445,
				"y": -2.011525281,
				"z": 1.9157258748,
				"element": "H" 
			},
			{
				"x": 2.4399013126,
				"y": -2.3222567114,
				"z": 0.2079929551,
				"element": "H" 
			},
			{
				"x": -1.7229373493,
				"y": 0.4562589846,
				"z": -2.6755427275,
				"element": "H" 
			},
			{
				"x": -1.2932089817,
				"y": 2.1074234317,
				"z": -0.8210004608,
				"element": "H" 
			},
			{
				"x": 0.2248484685,
				"y": 1.430752807,
				"z": 1.0658597103,
				"element": "H" 
			}
		],
		 "valence_orbital": [ 
			{
				"type": "occ",
				"energy": -0.34413,
				"method": "rhf"
			},
			{
				"type": "occ",
				"energy": -0.33262,
				"method": "rhf"
			},
			{
				"type": "occ",
				"energy": -0.31126,
				"method": "rhf"
			},
			{
				"type": "occ",
				"energy": -0.30529,
				"method": "rhf"
			},
			{
				"type": "occ",
				"energy": -0.26189,
				"method": "rhf"
			},
			{
				"type": "unocc",
				"energy": -0.07431,
				"method": "rhf"
			},
			{
				"type": "unocc",
				"energy": -0.03584,
				"method": "rhf"
			},
			{
				"type": "unocc",
				"energy": 0.025,
				"method": "rhf"
			},
			{
				"type": "unocc",
				"energy": 0.06672,
				"method": "rhf"
			},
			{
				"type": "unocc",
				"energy": 0.07412,
				"method": "rhf"
			}
		],
		"cosmo_sigma_profile": { 
			"-0.025": 0.0,
			"-0.024": 0.0,
			"-0.023": 0.0,
			"-0.022": 0.0,
			"-0.021": 0.0,
			"-0.02": 0.0,
			"-0.019": 0.0,
			"-0.018": 0.0,
			"-0.017": 0.0,
			"-0.016": 0.0,
			"-0.015": 0.0,
			"-0.014": 0.0,
			"-0.013": 0.0,
			"-0.012": 0.0,
			"-0.011": 0.0,
			"-0.01": 0.0,
			"-0.009": 2.60036531234,
			"-0.008": 9.80001324801,
			"-0.007": 12.3091202886,
			"-0.006": 11.3879768725,
			"-0.005": 9.92625174211,
			"-0.004": 11.0087329514,
			"-0.003": 11.8947918874,
			"-0.002": 15.7190104004,
			"-0.001": 17.5488626065,
			"0.0": 17.0915439413,
			"0.001": 11.5026072805,
			"0.002": 7.48258828599,
			"0.003": 10.2648226105,
			"0.004": 22.5121427694,
			"0.005": 14.3194116818,
			"0.006": 5.91512279328,
			"0.007": 4.55607587411,
			"0.008": 4.42830680064,
			"0.009": 3.24015310476,
			"0.01": 2.93743426397,
			"0.011": 2.357087671,
			"0.012": 1.98952309817,
			"0.013": 0.336066231236,
			"0.014": 0.0,
			"0.015": 0.0,
			"0.016": 0.0,
			"0.017": 0.0,
			"0.018": 0.0,
			"0.019": 0.0,
			"0.02": 0.0,
			"0.021": 0.0,
			"0.022": 0.0,
			"0.023": 0.0,
			"0.024": 0.0,
			"0.025": 0.0
		}
	}
}
