{
	 "smiles": "CC(C)(C)OC(=O)NC1(CO)CC1", 
	 "Tm": 349.15, 
	 "num_atms": 30, 
	 "gaussian": { 
		 "optdone": 1, 
		 "sigma_profile": "yes", 
		 "theory": "DFT", 
		 "functional": "B3LYP", 
		 "basiset": "6-31G**", 
		 "properties": { 
			 "R2extent": 3854.6941, 
			 "electric_dipole_moment_norm": 1.28339973897, 
			 "electric_quadrupole_moment_norm": 14.5572643721, 
			 "total_energy": -633.624451912, 
			 "HOMO_LUMO_gap": 0.28363, 
			 "cosmo_polarized_energy": -10.84, 
			 "cosmo_cavitation_energy": 31.59, 
			 "cosmo_dispersion_energy": -22.26, 
			 "cosmo_repulsion_energy": 1.79, 
			 "cosmo_total_nonelectrostatic_energy": 11.12, 
			 "SMD_solvation_energy": 5.58 
		},
		"coords": [
			{
				"x": 0.9634961351,
				"y": -2.624112717,
				"z": -1.6208786304,
				"element": "C" 
			},
			{
				"x": -0.1419928948,
				"y": -2.2620718676,
				"z": -0.6224525792,
				"element": "C" 
			},
			{
				"x": -1.3183808616,
				"y": -3.2352623019,
				"z": -0.7405600394,
				"element": "C" 
			},
			{
				"x": 0.3742312706,
				"y": -2.2078048276,
				"z": 0.819793329,
				"element": "C" 
			},
			{
				"x": -0.7536449188,
				"y": -0.9775784014,
				"z": -0.9892194066,
				"element": "O" 
			},
			{
				"x": -0.025359161,
				"y": 0.1691406905,
				"z": -0.9931347315,
				"element": "C" 
			},
			{
				"x": 1.1681519723,
				"y": 0.2604622933,
				"z": -0.7388751045,
				"element": "O" 
			},
			{
				"x": -0.8481203824,
				"y": 1.2097344644,
				"z": -1.3142251155,
				"element": "N" 
			},
			{
				"x": -0.4369332829,
				"y": 2.5596907261,
				"z": -1.6244871814,
				"element": "C" 
			},
			{
				"x": -1.6708293031,
				"y": 3.4165810438,
				"z": -1.8304484106,
				"element": "C" 
			},
			{
				"x": -2.5643992425,
				"y": 2.8513323486,
				"z": -2.7871789374,
				"element": "O" 
			},
			{
				"x": 0.7929879867,
				"y": 2.8510200373,
				"z": -2.4638919786,
				"element": "C" 
			},
			{
				"x": 0.7613210614,
				"y": 3.206042272,
				"z": -0.9894391536,
				"element": "C" 
			},
			{
				"x": 0.5699211353,
				"y": -2.6137856783,
				"z": -2.6424293787,
				"element": "H" 
			},
			{
				"x": 1.3337826807,
				"y": -3.6328667069,
				"z": -1.4105093954,
				"element": "H" 
			},
			{
				"x": 1.7945873482,
				"y": -1.9218132521,
				"z": -1.5542785715,
				"element": "H" 
			},
			{
				"x": -1.7152346931,
				"y": -3.2392956214,
				"z": -1.7599912167,
				"element": "H" 
			},
			{
				"x": -2.1246621263,
				"y": -2.9505681666,
				"z": -0.0583730804,
				"element": "H" 
			},
			{
				"x": -0.9939984201,
				"y": -4.2498557264,
				"z": -0.4906762599,
				"element": "H" 
			},
			{
				"x": -0.4296523087,
				"y": -1.9063485093,
				"z": 1.498876471,
				"element": "H" 
			},
			{
				"x": 1.1995577482,
				"y": -1.5015976612,
				"z": 0.9128125466,
				"element": "H" 
			},
			{
				"x": 0.7214452493,
				"y": -3.2006903392,
				"z": 1.1240149281,
				"element": "H" 
			},
			{
				"x": -1.760109417,
				"y": 0.9646763718,
				"z": -1.6782570603,
				"element": "H" 
			},
			{
				"x": -1.3647775598,
				"y": 4.4349463754,
				"z": -2.1086489966,
				"element": "H" 
			},
			{
				"x": -2.2452724323,
				"y": 3.4775622742,
				"z": -0.9001153254,
				"element": "H" 
			},
			{
				"x": -2.0921594662,
				"y": 2.8040610318,
				"z": -3.6300987509,
				"element": "H" 
			},
			{
				"x": 0.7423529103,
				"y": 3.6503521527,
				"z": -3.1994875026,
				"element": "H" 
			},
			{
				"x": 1.4182008141,
				"y": 2.0088553809,
				"z": -2.7384498192,
				"element": "H" 
			},
			{
				"x": 1.3663407324,
				"y": 2.5936718455,
				"z": -0.3337259633,
				"element": "H" 
			},
			{
				"x": 0.672049426,
				"y": 4.2520224688,
				"z": -0.706364685,
				"element": "H" 
			}
		],
		 "valence_orbital": [ 
			{
				"type": "occ",
				"energy": -0.30336,
				"method": "rhf"
			},
			{
				"type": "occ",
				"energy": -0.28398,
				"method": "rhf"
			},
			{
				"type": "occ",
				"energy": -0.28098,
				"method": "rhf"
			},
			{
				"type": "occ",
				"energy": -0.25961,
				"method": "rhf"
			},
			{
				"type": "occ",
				"energy": -0.23215,
				"method": "rhf"
			},
			{
				"type": "unocc",
				"energy": 0.05148,
				"method": "rhf"
			},
			{
				"type": "unocc",
				"energy": 0.067,
				"method": "rhf"
			},
			{
				"type": "unocc",
				"energy": 0.09013,
				"method": "rhf"
			},
			{
				"type": "unocc",
				"energy": 0.10007,
				"method": "rhf"
			},
			{
				"type": "unocc",
				"energy": 0.10731,
				"method": "rhf"
			}
		],
		"cosmo_sigma_profile": { 
			"-0.025": 0.0,
			"-0.024": 0.0,
			"-0.023": 0.0,
			"-0.022": 0.0,
			"-0.021": 0.0,
			"-0.02": 0.0,
			"-0.019": 0.0,
			"-0.018": 0.0,
			"-0.017": 0.0,
			"-0.016": 0.116029921936,
			"-0.015": 0.670836608973,
			"-0.014": 0.527001745374,
			"-0.013": 1.52661008313,
			"-0.012": 0.669192782941,
			"-0.011": 0.491453203514,
			"-0.01": 0.917974882317,
			"-0.009": 1.17329212026,
			"-0.008": 2.00095742078,
			"-0.007": 2.35711402705,
			"-0.006": 3.75620109928,
			"-0.005": 11.2850196503,
			"-0.004": 18.639622234,
			"-0.003": 25.5442080846,
			"-0.002": 24.8239044406,
			"-0.001": 25.2983394262,
			"0.0": 33.5951899494,
			"0.001": 25.2205995937,
			"0.002": 12.3037018827,
			"0.003": 9.25567885535,
			"0.004": 8.83688589795,
			"0.005": 8.27235809333,
			"0.006": 5.13774301322,
			"0.007": 5.28823302556,
			"0.008": 4.06629893131,
			"0.009": 1.95014610479,
			"0.01": 1.90282445083,
			"0.011": 2.90228999797,
			"0.012": 2.8200128043,
			"0.013": 2.988251336,
			"0.014": 0.995848183359,
			"0.015": 0.0,
			"0.016": 0.0,
			"0.017": 0.0,
			"0.018": 0.0,
			"0.019": 0.0,
			"0.02": 0.0,
			"0.021": 0.0,
			"0.022": 0.0,
			"0.023": 0.0,
			"0.024": 0.0,
			"0.025": 0.0
		}
	}
}
