{
	 "smiles": "COC(=O)CCCN1C(=O)NC(C)(C)C1=O", 
	 "Tm": 334.15, 
	 "num_atms": 32, 
	 "gaussian": { 
		 "optdone": 1, 
		 "sigma_profile": "yes", 
		 "theory": "DFT", 
		 "functional": "B3LYP", 
		 "basiset": "6-31G**", 
		 "properties": { 
			 "R2extent": 4543.9945, 
			 "electric_dipole_moment_norm": 3.54638560509, 
			 "electric_quadrupole_moment_norm": 12.8309595818, 
			 "total_energy": -801.1761324, 
			 "HOMO_LUMO_gap": 0.25281, 
			 "cosmo_polarized_energy": -18.28, 
			 "cosmo_cavitation_energy": 35.17, 
			 "cosmo_dispersion_energy": -23.8, 
			 "cosmo_repulsion_energy": 1.88, 
			 "cosmo_total_nonelectrostatic_energy": 13.25, 
			 "SMD_solvation_energy": 8.13 
		},
		"coords": [
			{
				"x": 2.1073364439,
				"y": 3.2326829262,
				"z": 2.9868340084,
				"element": "C" 
			},
			{
				"x": 1.0057045557,
				"y": 2.3464700616,
				"z": 2.731851882,
				"element": "O" 
			},
			{
				"x": 1.3056877418,
				"y": 1.0325863652,
				"z": 2.7567074451,
				"element": "C" 
			},
			{
				"x": 2.4089092301,
				"y": 0.6005877445,
				"z": 3.0204224696,
				"element": "O" 
			},
			{
				"x": 0.0824845372,
				"y": 0.1892680653,
				"z": 2.4477838225,
				"element": "C" 
			},
			{
				"x": 0.4184364975,
				"y": -1.287461283,
				"z": 2.2201522394,
				"element": "C" 
			},
			{
				"x": 1.2690563936,
				"y": -1.5605007365,
				"z": 0.9719244719,
				"element": "C" 
			},
			{
				"x": 0.5891931403,
				"y": -1.2438710695,
				"z": -0.2830542449,
				"element": "N" 
			},
			{
				"x": 0.7398608434,
				"y": -0.0141709146,
				"z": -0.9650031726,
				"element": "C" 
			},
			{
				"x": 1.3645720465,
				"y": 0.9470013731,
				"z": -0.5557115655,
				"element": "O" 
			},
			{
				"x": 0.0545454869,
				"y": -0.1428895569,
				"z": -2.1437943535,
				"element": "N" 
			},
			{
				"x": -0.6782439924,
				"y": -1.402998379,
				"z": -2.2613608618,
				"element": "C" 
			},
			{
				"x": -0.2494236168,
				"y": -2.2150470185,
				"z": -3.4925143818,
				"element": "C" 
			},
			{
				"x": -2.2024226386,
				"y": -1.2010990025,
				"z": -2.2251235969,
				"element": "C" 
			},
			{
				"x": -0.2191021265,
				"y": -2.1201536004,
				"z": -0.9741488911,
				"element": "C" 
			},
			{
				"x": -0.5171227233,
				"y": -3.2509509831,
				"z": -0.6385483547,
				"element": "O" 
			},
			{
				"x": 1.6933025154,
				"y": 4.2397308849,
				"z": 2.9354143978,
				"element": "H" 
			},
			{
				"x": 2.8849137715,
				"y": 3.0992299796,
				"z": 2.2309053492,
				"element": "H" 
			},
			{
				"x": 2.5362871803,
				"y": 3.0439036338,
				"z": 3.9743156931,
				"element": "H" 
			},
			{
				"x": -0.6097957802,
				"y": 0.2939493679,
				"z": 3.2929461968,
				"element": "H" 
			},
			{
				"x": -0.4252525663,
				"y": 0.6339371288,
				"z": 1.5867559205,
				"element": "H" 
			},
			{
				"x": 0.9772968457,
				"y": -1.6633940326,
				"z": 3.0834673802,
				"element": "H" 
			},
			{
				"x": -0.5081603089,
				"y": -1.8677519948,
				"z": 2.1542493467,
				"element": "H" 
			},
			{
				"x": 1.5266890063,
				"y": -2.6219406185,
				"z": 0.9289866313,
				"element": "H" 
			},
			{
				"x": 2.1867779731,
				"y": -0.9710492461,
				"z": 1.0032216977,
				"element": "H" 
			},
			{
				"x": -0.115263883,
				"y": 0.6700626759,
				"z": -2.7156679819,
				"element": "H" 
			},
			{
				"x": 0.838253845,
				"y": -2.3192995835,
				"z": -3.5281543481,
				"element": "H" 
			},
			{
				"x": -0.6953428743,
				"y": -3.2120733437,
				"z": -3.4498846315,
				"element": "H" 
			},
			{
				"x": -0.5802452946,
				"y": -1.7207521325,
				"z": -4.4117388138,
				"element": "H" 
			},
			{
				"x": -2.5420438537,
				"y": -0.6868261834,
				"z": -3.1304155399,
				"element": "H" 
			},
			{
				"x": -2.7023397255,
				"y": -2.1715241747,
				"z": -2.1685867439,
				"element": "H" 
			},
			{
				"x": -2.4987486701,
				"y": -0.6060563529,
				"z": -1.3563314704,
				"element": "H" 
			}
		],
		 "valence_orbital": [ 
			{
				"type": "occ",
				"energy": -0.28648,
				"method": "rhf"
			},
			{
				"type": "occ",
				"energy": -0.27451,
				"method": "rhf"
			},
			{
				"type": "occ",
				"energy": -0.26667,
				"method": "rhf"
			},
			{
				"type": "occ",
				"energy": -0.26154,
				"method": "rhf"
			},
			{
				"type": "occ",
				"energy": -0.2596,
				"method": "rhf"
			},
			{
				"type": "unocc",
				"energy": -0.00679,
				"method": "rhf"
			},
			{
				"type": "unocc",
				"energy": 0.02029,
				"method": "rhf"
			},
			{
				"type": "unocc",
				"energy": 0.05826,
				"method": "rhf"
			},
			{
				"type": "unocc",
				"energy": 0.07145,
				"method": "rhf"
			},
			{
				"type": "unocc",
				"energy": 0.09598,
				"method": "rhf"
			}
		],
		"cosmo_sigma_profile": { 
			"-0.025": 0.0,
			"-0.024": 0.0,
			"-0.023": 0.0,
			"-0.022": 0.0,
			"-0.021": 0.0,
			"-0.02": 0.0,
			"-0.019": 0.0,
			"-0.018": 0.0,
			"-0.017": 0.0,
			"-0.016": 0.0644785151684,
			"-0.015": 0.907986361367,
			"-0.014": 1.41897070958,
			"-0.013": 0.956896694169,
			"-0.012": 0.625558763631,
			"-0.011": 0.952574120165,
			"-0.01": 1.31784260663,
			"-0.009": 1.27432453194,
			"-0.008": 1.24901224584,
			"-0.007": 2.25059877428,
			"-0.006": 10.8358285136,
			"-0.005": 24.5207001569,
			"-0.004": 30.2302028471,
			"-0.003": 37.2169570928,
			"-0.002": 28.204193666,
			"-0.001": 26.0980154496,
			"0.0": 15.810787365,
			"0.001": 9.69627162914,
			"0.002": 7.27911646324,
			"0.003": 7.54377844612,
			"0.004": 7.3718475147,
			"0.005": 7.68471089511,
			"0.006": 5.02349368749,
			"0.007": 5.76205261423,
			"0.008": 6.56964287637,
			"0.009": 6.07193526898,
			"0.01": 5.02490421451,
			"0.011": 6.18235673217,
			"0.012": 11.1704887277,
			"0.013": 4.90682739452,
			"0.014": 0.780217819928,
			"0.015": 0.0,
			"0.016": 0.0,
			"0.017": 0.0,
			"0.018": 0.0,
			"0.019": 0.0,
			"0.02": 0.0,
			"0.021": 0.0,
			"0.022": 0.0,
			"0.023": 0.0,
			"0.024": 0.0,
			"0.025": 0.0
		}
	}
}
