{
	 "smiles": "COCCN(C(=O)CCl)C1=C(N)N(CC(C)C)C(=O)NC1=O", 
	 "Tm": 478.15, 
	 "num_atms": 43, 
	 "gaussian": { 
		 "optdone": 1, 
		 "sigma_profile": "yes", 
		 "theory": "DFT", 
		 "functional": "B3LYP", 
		 "basiset": "6-31G**", 
		 "properties": { 
			 "R2extent": 8819.2853, 
			 "electric_dipole_moment_norm": 7.80797103991, 
			 "electric_quadrupole_moment_norm": 37.9316341368, 
			 "total_energy": -1488.17425465, 
			 "HOMO_LUMO_gap": 0.19765, 
			 "cosmo_polarized_energy": -31.51, 
			 "cosmo_cavitation_energy": 45.24, 
			 "cosmo_dispersion_energy": -30.59, 
			 "cosmo_repulsion_energy": 2.38, 
			 "cosmo_total_nonelectrostatic_energy": 17.03, 
			 "SMD_solvation_energy": 9.41 
		},
		"coords": [
			{
				"x": -4.3652170146,
				"y": 2.6892333815,
				"z": 1.8045985302,
				"element": "C" 
			},
			{
				"x": -4.1772241487,
				"y": 2.0690221957,
				"z": 0.548400259,
				"element": "O" 
			},
			{
				"x": -2.9879178998,
				"y": 2.4589442005,
				"z": -0.0936107456,
				"element": "C" 
			},
			{
				"x": -2.6775721508,
				"y": 1.4534895539,
				"z": -1.1978629325,
				"element": "C" 
			},
			{
				"x": -2.3437806899,
				"y": 0.1093288611,
				"z": -0.6824293877,
				"element": "N" 
			},
			{
				"x": -3.3739234557,
				"y": -0.8335259206,
				"z": -0.631295528,
				"element": "C" 
			},
			{
				"x": -4.4232985095,
				"y": -0.6842343712,
				"z": -1.2229634952,
				"element": "O" 
			},
			{
				"x": -3.066106468,
				"y": -2.0616991648,
				"z": 0.2322329303,
				"element": "C" 
			},
			{
				"x": -4.2130401189,
				"y": -3.4082264233,
				"z": -0.0624046333,
				"element": "Cl" 
			},
			{
				"x": -1.0997669645,
				"y": -0.056167708,
				"z": -0.0069432421,
				"element": "C" 
			},
			{
				"x": 0.0343229166,
				"y": -0.3110217158,
				"z": -0.7657602364,
				"element": "C" 
			},
			{
				"x": -0.0580100573,
				"y": -0.3936210896,
				"z": -2.1278896411,
				"element": "N" 
			},
			{
				"x": 1.2910850705,
				"y": -0.4327913208,
				"z": -0.1920298218,
				"element": "N" 
			},
			{
				"x": 2.5314666722,
				"y": -0.5731848636,
				"z": -0.9912239746,
				"element": "C" 
			},
			{
				"x": 3.032696452,
				"y": -2.0149446676,
				"z": -1.2503242008,
				"element": "C" 
			},
			{
				"x": 2.1827133986,
				"y": -2.8098061634,
				"z": -2.2537363075,
				"element": "C" 
			},
			{
				"x": 3.2408411656,
				"y": -2.8173270411,
				"z": 0.0419864239,
				"element": "C" 
			},
			{
				"x": 1.4767394542,
				"y": -0.2235126346,
				"z": 1.1923445904,
				"element": "C" 
			},
			{
				"x": 2.581915835,
				"y": -0.2188835126,
				"z": 1.7096195437,
				"element": "O" 
			},
			{
				"x": 0.3194657591,
				"y": -0.0310573227,
				"z": 1.908363372,
				"element": "N" 
			},
			{
				"x": -0.9997878275,
				"y": 0.0843825583,
				"z": 1.4262455266,
				"element": "C" 
			},
			{
				"x": -1.9199608077,
				"y": 0.2655421589,
				"z": 2.216915723,
				"element": "O" 
			},
			{
				"x": -3.5565513286,
				"y": 2.4279452583,
				"z": 2.501070982,
				"element": "H" 
			},
			{
				"x": -5.312322507,
				"y": 2.3191684683,
				"z": 2.2041688415,
				"element": "H" 
			},
			{
				"x": -4.424897264,
				"y": 3.7862918887,
				"z": 1.7167234703,
				"element": "H" 
			},
			{
				"x": -2.1512730854,
				"y": 2.5067478756,
				"z": 0.6205149765,
				"element": "H" 
			},
			{
				"x": -3.0875902068,
				"y": 3.462264745,
				"z": -0.5466523988,
				"element": "H" 
			},
			{
				"x": -3.5494786363,
				"y": 1.3374862251,
				"z": -1.843443114,
				"element": "H" 
			},
			{
				"x": -1.8347696902,
				"y": 1.8200982161,
				"z": -1.7947783456,
				"element": "H" 
			},
			{
				"x": -3.1426514076,
				"y": -1.7694842844,
				"z": 1.2817404108,
				"element": "H" 
			},
			{
				"x": -2.0605432256,
				"y": -2.4413958691,
				"z": 0.0514951107,
				"element": "H" 
			},
			{
				"x": -1.0117899834,
				"y": -0.4640807883,
				"z": -2.4591220738,
				"element": "H" 
			},
			{
				"x": 0.6092653929,
				"y": -0.9602631328,
				"z": -2.6265077777,
				"element": "H" 
			},
			{
				"x": 2.3831888642,
				"y": -0.0382821003,
				"z": -1.9336901711,
				"element": "H" 
			},
			{
				"x": 3.2947553394,
				"y": -0.039381882,
				"z": -0.4245260116,
				"element": "H" 
			},
			{
				"x": 4.0188729991,
				"y": -1.8632990536,
				"z": -1.7128609193,
				"element": "H" 
			},
			{
				"x": 1.1763060642,
				"y": -3.0104167415,
				"z": -1.8682887212,
				"element": "H" 
			},
			{
				"x": 2.6425495214,
				"y": -3.782060019,
				"z": -2.4556954861,
				"element": "H" 
			},
			{
				"x": 2.098442275,
				"y": -2.2969419201,
				"z": -3.2213877512,
				"element": "H" 
			},
			{
				"x": 2.283949981,
				"y": -3.0370865037,
				"z": 0.5283819033,
				"element": "H" 
			},
			{
				"x": 3.7214959185,
				"y": -3.7748778336,
				"z": -0.1826442882,
				"element": "H" 
			},
			{
				"x": 3.8581000877,
				"y": -2.2736402281,
				"z": 0.7596271964,
				"element": "H" 
			},
			{
				"x": 0.4424002804,
				"y": 0.0929686893,
				"z": 2.9059414145,
				"element": "H" 
			}
		],
		 "valence_orbital": [ 
			{
				"type": "occ",
				"energy": -0.27276,
				"method": "rhf"
			},
			{
				"type": "occ",
				"energy": -0.26406,
				"method": "rhf"
			},
			{
				"type": "occ",
				"energy": -0.25293,
				"method": "rhf"
			},
			{
				"type": "occ",
				"energy": -0.2445,
				"method": "rhf"
			},
			{
				"type": "occ",
				"energy": -0.23256,
				"method": "rhf"
			},
			{
				"type": "unocc",
				"energy": -0.03491,
				"method": "rhf"
			},
			{
				"type": "unocc",
				"energy": -0.00278,
				"method": "rhf"
			},
			{
				"type": "unocc",
				"energy": 0.01774,
				"method": "rhf"
			},
			{
				"type": "unocc",
				"energy": 0.03876,
				"method": "rhf"
			},
			{
				"type": "unocc",
				"energy": 0.04372,
				"method": "rhf"
			}
		],
		"cosmo_sigma_profile": { 
			"-0.025": 0.0,
			"-0.024": 0.0,
			"-0.023": 0.0,
			"-0.022": 0.0,
			"-0.021": 0.0,
			"-0.02": 0.0,
			"-0.019": 0.0,
			"-0.018": 0.0,
			"-0.017": 0.000434842175488,
			"-0.016": 0.394301317342,
			"-0.015": 0.955046508557,
			"-0.014": 0.91309827143,
			"-0.013": 2.42024617676,
			"-0.012": 3.74501665816,
			"-0.011": 3.17968355713,
			"-0.01": 3.42325319259,
			"-0.009": 3.86022076279,
			"-0.008": 6.45079520192,
			"-0.007": 6.72793745391,
			"-0.006": 10.1166896761,
			"-0.005": 19.3980782202,
			"-0.004": 36.241228801,
			"-0.003": 43.0655385935,
			"-0.002": 36.525424072,
			"-0.001": 29.0254752942,
			"0.0": 21.2953379655,
			"0.001": 17.823027278,
			"0.002": 9.9316372712,
			"0.003": 9.09670380717,
			"0.004": 9.97586467883,
			"0.005": 11.2823192426,
			"0.006": 13.0323930403,
			"0.007": 8.12924675104,
			"0.008": 5.59111659523,
			"0.009": 6.42549437532,
			"0.01": 5.84768998939,
			"0.011": 7.34220844205,
			"0.012": 11.2925478459,
			"0.013": 10.0358595867,
			"0.014": 3.01130210589,
			"0.015": 0.0944410850622,
			"0.016": 0.0,
			"0.017": 0.0,
			"0.018": 0.0,
			"0.019": 0.0,
			"0.02": 0.0,
			"0.021": 0.0,
			"0.022": 0.0,
			"0.023": 0.0,
			"0.024": 0.0,
			"0.025": 0.0
		}
	}
}
