{
	 "smiles": "CC1=NNC(=N1)C(N)=O", 
	 "Tm": 496.15, 
	 "num_atms": 15, 
	 "gaussian": { 
		 "optdone": 1, 
		 "sigma_profile": "yes", 
		 "theory": "DFT", 
		 "functional": "B3LYP", 
		 "basiset": "6-31G**", 
		 "properties": { 
			 "R2extent": 2200.1869, 
			 "electric_dipole_moment_norm": 4.38807086201, 
			 "electric_quadrupole_moment_norm": 22.4425325284, 
			 "total_energy": -450.273045798, 
			 "HOMO_LUMO_gap": 0.22155, 
			 "cosmo_polarized_energy": -21.28, 
			 "cosmo_cavitation_energy": 20.13, 
			 "cosmo_dispersion_energy": -15.03, 
			 "cosmo_repulsion_energy": 1.27, 
			 "cosmo_total_nonelectrostatic_energy": 6.37, 
			 "SMD_solvation_energy": 1.86 
		},
		"coords": [
			{
				"x": 2.349229182,
				"y": -0.7733741826,
				"z": -3.079106189,
				"element": "C" 
			},
			{
				"x": 1.8963748526,
				"y": -0.2232594184,
				"z": -1.7668260782,
				"element": "C" 
			},
			{
				"x": 0.6081638868,
				"y": -0.1177571399,
				"z": -1.4429699399,
				"element": "N" 
			},
			{
				"x": 0.6663036308,
				"y": 0.392498003,
				"z": -0.1908138835,
				"element": "N" 
			},
			{
				"x": 1.9595190079,
				"y": 0.5982984549,
				"z": 0.1757456423,
				"element": "C" 
			},
			{
				"x": 2.7605301235,
				"y": 0.2108838716,
				"z": -0.8009151082,
				"element": "N" 
			},
			{
				"x": 2.3626438136,
				"y": 1.183227488,
				"z": 1.4916772678,
				"element": "C" 
			},
			{
				"x": 1.4573889087,
				"y": 0.9313073615,
				"z": 2.5071859013,
				"element": "N" 
			},
			{
				"x": 3.3563386519,
				"y": 1.8692442214,
				"z": 1.6322480179,
				"element": "O" 
			},
			{
				"x": 2.9727892303,
				"y": -0.0443246435,
				"z": -3.6052753008,
				"element": "H" 
			},
			{
				"x": 1.486993993,
				"y": -1.0218762071,
				"z": -3.7002102668,
				"element": "H" 
			},
			{
				"x": 2.9536785739,
				"y": -1.6740773239,
				"z": -2.9322444539,
				"element": "H" 
			},
			{
				"x": -0.1791225255,
				"y": 0.6802038554,
				"z": 0.2804573104,
				"element": "H" 
			},
			{
				"x": 1.7577420726,
				"y": 1.2463940644,
				"z": 3.420632953,
				"element": "H" 
			},
			{
				"x": 0.944326598,
				"y": 0.0605115951,
				"z": 2.4954141275,
				"element": "H" 
			}
		],
		 "valence_orbital": [ 
			{
				"type": "occ",
				"energy": -0.30268,
				"method": "rhf"
			},
			{
				"type": "occ",
				"energy": -0.29594,
				"method": "rhf"
			},
			{
				"type": "occ",
				"energy": -0.28077,
				"method": "rhf"
			},
			{
				"type": "occ",
				"energy": -0.27123,
				"method": "rhf"
			},
			{
				"type": "occ",
				"energy": -0.26426,
				"method": "rhf"
			},
			{
				"type": "unocc",
				"energy": -0.04271,
				"method": "rhf"
			},
			{
				"type": "unocc",
				"energy": 0.03299,
				"method": "rhf"
			},
			{
				"type": "unocc",
				"energy": 0.04699,
				"method": "rhf"
			},
			{
				"type": "unocc",
				"energy": 0.07913,
				"method": "rhf"
			},
			{
				"type": "unocc",
				"energy": 0.09511,
				"method": "rhf"
			}
		],
		"cosmo_sigma_profile": { 
			"-0.025": 0.0,
			"-0.024": 0.0,
			"-0.023": 0.0,
			"-0.022": 0.0,
			"-0.021": 0.0,
			"-0.02": 0.0,
			"-0.019": 0.0,
			"-0.018": 0.486989431487,
			"-0.017": 1.26069059768,
			"-0.016": 1.12177421175,
			"-0.015": 2.80755031396,
			"-0.014": 3.63318652192,
			"-0.013": 3.17647398482,
			"-0.012": 4.7479232205,
			"-0.011": 3.54851024225,
			"-0.01": 2.48416997602,
			"-0.009": 3.31577521432,
			"-0.008": 2.04864237437,
			"-0.007": 2.96655668096,
			"-0.006": 2.86444691848,
			"-0.005": 7.60442840639,
			"-0.004": 7.79965295103,
			"-0.003": 9.51430150415,
			"-0.002": 10.8167471326,
			"-0.001": 12.8725159853,
			"0.0": 9.93014133305,
			"0.001": 6.37129043319,
			"0.002": 5.26567274165,
			"0.003": 4.3223084646,
			"0.004": 4.34945629982,
			"0.005": 4.1965110328,
			"0.006": 4.96594155104,
			"0.007": 3.01778987285,
			"0.008": 3.61438089298,
			"0.009": 3.70283877142,
			"0.01": 3.45053975505,
			"0.011": 4.93476583562,
			"0.012": 7.55889667911,
			"0.013": 6.00173328234,
			"0.014": 2.99939091705,
			"0.015": 1.33183079507,
			"0.016": 0.807281228177,
			"0.017": 0.0148926972188,
			"0.018": 0.0,
			"0.019": 0.0,
			"0.02": 0.0,
			"0.021": 0.0,
			"0.022": 0.0,
			"0.023": 0.0,
			"0.024": 0.0,
			"0.025": 0.0
		}
	}
}
