{
	 "smiles": "CS(=O)(=O)C1=CC=C(OCCBr)C=C1", 
	 "Tm": 374.15, 
	 "num_atms": 25, 
	 "gaussian": { 
		 "optdone": 1, 
		 "sigma_profile": "yes", 
		 "theory": "DFT", 
		 "functional": "B3LYP", 
		 "basiset": "6-31G**", 
		 "properties": { 
			 "R2extent": 8234.2241, 
			 "electric_dipole_moment_norm": 4.82957815549, 
			 "electric_quadrupole_moment_norm": 25.1300916055, 
			 "total_energy": -3544.78015772, 
			 "HOMO_LUMO_gap": 0.2152, 
			 "cosmo_polarized_energy": -18.08, 
			 "cosmo_cavitation_energy": 32.65, 
			 "cosmo_dispersion_energy": -24.43, 
			 "cosmo_repulsion_energy": 1.9, 
			 "cosmo_total_nonelectrostatic_energy": 10.11, 
			 "SMD_solvation_energy": 4.3 
		},
		"coords": [
			{
				"x": 2.2370029667,
				"y": 2.1601828721,
				"z": 1.591088129,
				"element": "C" 
			},
			{
				"x": 0.5817372415,
				"y": 2.7713558287,
				"z": 1.1883928613,
				"element": "S" 
			},
			{
				"x": 0.751288302,
				"y": 3.9579015268,
				"z": 0.3348579122,
				"element": "O" 
			},
			{
				"x": -0.1773516766,
				"y": 2.8376935017,
				"z": 2.4473865941,
				"element": "O" 
			},
			{
				"x": -0.1285259167,
				"y": 1.4661954541,
				"z": 0.1844067142,
				"element": "C" 
			},
			{
				"x": 0.0587379752,
				"y": 1.4771833228,
				"z": -1.2028886065,
				"element": "C" 
			},
			{
				"x": -0.4918007318,
				"y": 0.4645090354,
				"z": -1.9747145087,
				"element": "C" 
			},
			{
				"x": -1.2376122085,
				"y": -0.5607287791,
				"z": -1.368507527,
				"element": "C" 
			},
			{
				"x": -1.7379817743,
				"y": -1.4929100022,
				"z": -2.2295366543,
				"element": "O" 
			},
			{
				"x": -2.5425903217,
				"y": -2.5672993319,
				"z": -1.7407764093,
				"element": "C" 
			},
			{
				"x": -1.6595782484,
				"y": -3.702688001,
				"z": -1.2347957576,
				"element": "C" 
			},
			{
				"x": -2.7909657598,
				"y": -5.1905487692,
				"z": -0.6084888404,
				"element": "Br" 
			},
			{
				"x": -1.4304815818,
				"y": -0.5615467539,
				"z": 0.0207013544,
				"element": "C" 
			},
			{
				"x": -0.8754881536,
				"y": 0.4593312659,
				"z": 0.7929583616,
				"element": "C" 
			},
			{
				"x": 2.7078201389,
				"y": 2.9333716597,
				"z": 2.2018197325,
				"element": "H" 
			},
			{
				"x": 2.1500131889,
				"y": 1.2308855148,
				"z": 2.1556470051,
				"element": "H" 
			},
			{
				"x": 2.7997945942,
				"y": 2.0104313823,
				"z": 0.6686990624,
				"element": "H" 
			},
			{
				"x": 0.6113120025,
				"y": 2.2880099822,
				"z": -1.6658549204,
				"element": "H" 
			},
			{
				"x": -0.3733476979,
				"y": 0.4488431248,
				"z": -3.05279828,
				"element": "H" 
			},
			{
				"x": -3.1297738407,
				"y": -2.9031000828,
				"z": -2.5978381848,
				"element": "H" 
			},
			{
				"x": -3.2374099788,
				"y": -2.226233349,
				"z": -0.9668953081,
				"element": "H" 
			},
			{
				"x": -1.0426312659,
				"y": -3.407431626,
				"z": -0.3873640163,
				"element": "H" 
			},
			{
				"x": -1.0297426635,
				"y": -4.0999408787,
				"z": -2.0294931921,
				"element": "H" 
			},
			{
				"x": -2.0110117838,
				"y": -1.3344896406,
				"z": 0.5100047804,
				"element": "H" 
			},
			{
				"x": -1.0374128062,
				"y": 0.4850227432,
				"z": 1.8654896983,
				"element": "H" 
			}
		],
		 "valence_orbital": [ 
			{
				"type": "occ",
				"energy": -0.29315,
				"method": "rhf"
			},
			{
				"type": "occ",
				"energy": -0.29086,
				"method": "rhf"
			},
			{
				"type": "occ",
				"energy": -0.2862,
				"method": "rhf"
			},
			{
				"type": "occ",
				"energy": -0.279,
				"method": "rhf"
			},
			{
				"type": "occ",
				"energy": -0.25025,
				"method": "rhf"
			},
			{
				"type": "unocc",
				"energy": -0.03505,
				"method": "rhf"
			},
			{
				"type": "unocc",
				"energy": -0.03064,
				"method": "rhf"
			},
			{
				"type": "unocc",
				"energy": -0.01497,
				"method": "rhf"
			},
			{
				"type": "unocc",
				"energy": 0.05991,
				"method": "rhf"
			},
			{
				"type": "unocc",
				"energy": 0.07751,
				"method": "rhf"
			}
		],
		"cosmo_sigma_profile": { 
			"-0.025": 0.0,
			"-0.024": 0.0,
			"-0.023": 0.0,
			"-0.022": 0.0,
			"-0.021": 0.0,
			"-0.02": 0.0,
			"-0.019": 0.0,
			"-0.018": 0.0,
			"-0.017": 0.0,
			"-0.016": 0.0,
			"-0.015": 0.0,
			"-0.014": 0.0,
			"-0.013": 0.0,
			"-0.012": 0.0,
			"-0.011": 0.0,
			"-0.01": 0.152725922473,
			"-0.009": 2.67137430826,
			"-0.008": 10.9356532149,
			"-0.007": 20.0571484309,
			"-0.006": 19.3851397617,
			"-0.005": 20.3845283648,
			"-0.004": 19.1141357032,
			"-0.003": 16.02052721,
			"-0.002": 11.6315883273,
			"-0.001": 11.9174806927,
			"0.0": 12.2714255718,
			"0.001": 14.7176065446,
			"0.002": 20.3403681081,
			"0.003": 16.3259773254,
			"0.004": 10.5416068459,
			"0.005": 11.5226272687,
			"0.006": 8.45018360677,
			"0.007": 4.78408934197,
			"0.008": 4.475922466,
			"0.009": 4.27443613194,
			"0.01": 3.09856341861,
			"0.011": 8.43377443221,
			"0.012": 9.3467102657,
			"0.013": 2.25556139498,
			"0.014": 0.0,
			"0.015": 0.0,
			"0.016": 0.0,
			"0.017": 0.0,
			"0.018": 0.0,
			"0.019": 0.0,
			"0.02": 0.0,
			"0.021": 0.0,
			"0.022": 0.0,
			"0.023": 0.0,
			"0.024": 0.0,
			"0.025": 0.0
		}
	}
}
