{
	 "smiles": "COC1=CC(NC(=O)CNC2=CC=CC=C2)=CC=C1", 
	 "Tm": 479.15, 
	 "num_atms": 35, 
	 "gaussian": { 
		 "optdone": 1, 
		 "sigma_profile": "yes", 
		 "theory": "DFT", 
		 "functional": "B3LYP", 
		 "basiset": "6-31G**", 
		 "properties": { 
			 "R2extent": 7239.7931, 
			 "electric_dipole_moment_norm": 3.21896275219, 
			 "electric_quadrupole_moment_norm": 12.8301775709, 
			 "total_energy": -841.19957144, 
			 "HOMO_LUMO_gap": 0.1938, 
			 "cosmo_polarized_energy": -15.93, 
			 "cosmo_cavitation_energy": 38.84, 
			 "cosmo_dispersion_energy": -27.5, 
			 "cosmo_repulsion_energy": 2.13, 
			 "cosmo_total_nonelectrostatic_energy": 13.47, 
			 "SMD_solvation_energy": 7.39 
		},
		"coords": [
			{
				"x": -1.1233479557,
				"y": -3.1935604365,
				"z": 3.5886424035,
				"element": "C" 
			},
			{
				"x": -2.4074888893,
				"y": -2.6856933267,
				"z": 3.2573712199,
				"element": "O" 
			},
			{
				"x": -2.5158563441,
				"y": -1.8529757828,
				"z": 2.1820421005,
				"element": "C" 
			},
			{
				"x": -1.4305026449,
				"y": -1.4739008462,
				"z": 1.3859349006,
				"element": "C" 
			},
			{
				"x": -1.6513008767,
				"y": -0.61006733,
				"z": 0.3013347777,
				"element": "C" 
			},
			{
				"x": -0.6039970078,
				"y": -0.190182191,
				"z": -0.5438896877,
				"element": "N" 
			},
			{
				"x": 0.7285331029,
				"y": -0.4757594791,
				"z": -0.479092596,
				"element": "C" 
			},
			{
				"x": 1.2824567537,
				"y": -1.1835416948,
				"z": 0.3541723601,
				"element": "O" 
			},
			{
				"x": 1.5537540906,
				"y": 0.1488772215,
				"z": -1.620744903,
				"element": "C" 
			},
			{
				"x": 0.8799717202,
				"y": 1.1946090418,
				"z": -2.3782624821,
				"element": "N" 
			},
			{
				"x": 0.9974226128,
				"y": 2.5463659247,
				"z": -1.9993033831,
				"element": "C" 
			},
			{
				"x": 0.7778410692,
				"y": 3.5507248819,
				"z": -2.95828461,
				"element": "C" 
			},
			{
				"x": 0.8470091674,
				"y": 4.8946128991,
				"z": -2.6035844987,
				"element": "C" 
			},
			{
				"x": 1.1371130592,
				"y": 5.2687551301,
				"z": -1.2887813807,
				"element": "C" 
			},
			{
				"x": 1.3534780984,
				"y": 4.2744323567,
				"z": -0.3353527311,
				"element": "C" 
			},
			{
				"x": 1.2846068802,
				"y": 2.9227965786,
				"z": -0.6772988651,
				"element": "C" 
			},
			{
				"x": -2.9391027778,
				"y": -0.1356273719,
				"z": 0.0207307959,
				"element": "C" 
			},
			{
				"x": -4.0058546167,
				"y": -0.5288956702,
				"z": 0.8291966974,
				"element": "C" 
			},
			{
				"x": -3.8090002178,
				"y": -1.3831542653,
				"z": 1.907681683,
				"element": "C" 
			},
			{
				"x": -0.41943504,
				"y": -2.3881155166,
				"z": 3.8324507453,
				"element": "H" 
			},
			{
				"x": -0.7036030636,
				"y": -3.7969635594,
				"z": 2.7740860259,
				"element": "H" 
			},
			{
				"x": -1.2681485981,
				"y": -3.8244809739,
				"z": 4.4671715722,
				"element": "H" 
			},
			{
				"x": -0.4260028231,
				"y": -1.8197263324,
				"z": 1.5753034654,
				"element": "H" 
			},
			{
				"x": -0.8479496502,
				"y": 0.4347595602,
				"z": -1.305153459,
				"element": "H" 
			},
			{
				"x": 2.4976785756,
				"y": 0.4880165526,
				"z": -1.1763819209,
				"element": "H" 
			},
			{
				"x": 1.8023935004,
				"y": -0.6716367694,
				"z": -2.3018750401,
				"element": "H" 
			},
			{
				"x": 0.9355418739,
				"y": 1.0672081933,
				"z": -3.3794963144,
				"element": "H" 
			},
			{
				"x": 0.5538038928,
				"y": 3.2698059812,
				"z": -3.9852578269,
				"element": "H" 
			},
			{
				"x": 0.6776341746,
				"y": 5.6537614458,
				"z": -3.3621410543,
				"element": "H" 
			},
			{
				"x": 1.1924764699,
				"y": 6.3173321298,
				"z": -1.0141594787,
				"element": "H" 
			},
			{
				"x": 1.5776102488,
				"y": 4.5460751618,
				"z": 0.6923649706,
				"element": "H" 
			},
			{
				"x": 1.4448273024,
				"y": 2.1703198433,
				"z": 0.0873243856,
				"element": "H" 
			},
			{
				"x": -3.1018842476,
				"y": 0.534782625,
				"z": -0.8187992086,
				"element": "H" 
			},
			{
				"x": -5.0043571145,
				"y": -0.1606720377,
				"z": 0.6119423909,
				"element": "H" 
			},
			{
				"x": -4.6275207253,
				"y": -1.6975819431,
				"z": 2.5458089457,
				"element": "H" 
			}
		],
		 "valence_orbital": [ 
			{
				"type": "occ",
				"energy": -0.25334,
				"method": "rhf"
			},
			{
				"type": "occ",
				"energy": -0.25243,
				"method": "rhf"
			},
			{
				"type": "occ",
				"energy": -0.22822,
				"method": "rhf"
			},
			{
				"type": "occ",
				"energy": -0.21231,
				"method": "rhf"
			},
			{
				"type": "occ",
				"energy": -0.20498,
				"method": "rhf"
			},
			{
				"type": "unocc",
				"energy": -0.01118,
				"method": "rhf"
			},
			{
				"type": "unocc",
				"energy": -0.0028,
				"method": "rhf"
			},
			{
				"type": "unocc",
				"energy": 0.0091,
				"method": "rhf"
			},
			{
				"type": "unocc",
				"energy": 0.01654,
				"method": "rhf"
			},
			{
				"type": "unocc",
				"energy": 0.04728,
				"method": "rhf"
			}
		],
		"cosmo_sigma_profile": { 
			"-0.025": 0.0,
			"-0.024": 0.0,
			"-0.023": 0.0,
			"-0.022": 0.0,
			"-0.021": 0.0,
			"-0.02": 0.0,
			"-0.019": 0.0,
			"-0.018": 0.0,
			"-0.017": 0.0,
			"-0.016": 0.0,
			"-0.015": 0.0,
			"-0.014": 0.171004655165,
			"-0.013": 1.27171827959,
			"-0.012": 2.15783420163,
			"-0.011": 2.13511777754,
			"-0.01": 2.90875231817,
			"-0.009": 2.92447013443,
			"-0.008": 4.63704164151,
			"-0.007": 5.35417209313,
			"-0.006": 11.3517604292,
			"-0.005": 26.0806389565,
			"-0.004": 29.8003658653,
			"-0.003": 31.7243953642,
			"-0.002": 19.7477962102,
			"-0.001": 16.83825187,
			"0.0": 14.8690591284,
			"0.001": 15.3368009389,
			"0.002": 16.7993088097,
			"0.003": 18.9490204779,
			"0.004": 20.6528786146,
			"0.005": 21.1901858238,
			"0.006": 17.6479942367,
			"0.007": 7.80368695288,
			"0.008": 2.67423087389,
			"0.009": 3.50860999495,
			"0.01": 2.77800416473,
			"0.011": 2.2552628202,
			"0.012": 2.66659852051,
			"0.013": 3.10408159513,
			"0.014": 1.87629469191,
			"0.015": 0.0978944203101,
			"0.016": 0.0,
			"0.017": 0.0,
			"0.018": 0.0,
			"0.019": 0.0,
			"0.02": 0.0,
			"0.021": 0.0,
			"0.022": 0.0,
			"0.023": 0.0,
			"0.024": 0.0,
			"0.025": 0.0
		}
	}
}
