{
	 "smiles": "CCCOC(=O)CN1C=C(I)C(=O)C(I)=C1", 
	 "Tm": 459.15, 
	 "num_atms": 27, 
	 "gaussian": { 
		 "optdone": 1, 
		 "sigma_profile": "no", 
		 "theory": "DFT", 
		 "functional": "B3LYP", 
		 "basiset": "6-31G**", 
		 "properties": { 
			 "R2extent": 4258.7778, 
			 "electric_dipole_moment_norm": 5.88667510654, 
			 "electric_quadrupole_moment_norm": 23.4992212592, 
			 "total_energy": -690.883080018, 
			 "HOMO_LUMO_gap": 0.17451, 
			 "cosmo_polarized_energy": -212586.31, 
			 "cosmo_cavitation_energy": 38.41, 
			 "cosmo_dispersion_energy": -27.81, 
			 "cosmo_repulsion_energy": 2.18, 
			 "cosmo_total_nonelectrostatic_energy": 12.79, 
			 "SMD_solvation_energy": 6.63 
		},
		"coords": [
			{
				"x": 1.323249045,
				"y": 2.429687167,
				"z": -2.6260275515,
				"element": "C" 
			},
			{
				"x": 2.5544692872,
				"y": 2.0545118566,
				"z": -1.7951045257,
				"element": "C" 
			},
			{
				"x": 2.8823205502,
				"y": 0.5707927577,
				"z": -1.8175801041,
				"element": "C" 
			},
			{
				"x": 1.7728066651,
				"y": -0.1424978114,
				"z": -1.1988883167,
				"element": "O" 
			},
			{
				"x": 1.8759701832,
				"y": -1.4728283692,
				"z": -1.1549893667,
				"element": "C" 
			},
			{
				"x": 2.8024496807,
				"y": -2.1284279277,
				"z": -1.5745199872,
				"element": "O" 
			},
			{
				"x": 0.6658461207,
				"y": -2.1378151731,
				"z": -0.4866777611,
				"element": "C" 
			},
			{
				"x": -0.4181192445,
				"y": -1.247170103,
				"z": -0.0901729144,
				"element": "N" 
			},
			{
				"x": -0.3926842154,
				"y": -0.6296472553,
				"z": 1.1364471852,
				"element": "C" 
			},
			{
				"x": -1.321564628,
				"y": 0.2985255029,
				"z": 1.4895953412,
				"element": "C" 
			},
			{
				"x": -1.2370617672,
				"y": 1.1805157535,
				"z": 3.3965321489,
				"element": "I" 
			},
			{
				"x": -2.4083895792,
				"y": 0.7303067988,
				"z": 0.5909030213,
				"element": "C" 
			},
			{
				"x": -3.2543985876,
				"y": 1.5664955098,
				"z": 0.8805860237,
				"element": "O" 
			},
			{
				"x": -2.3462642164,
				"y": 0.0219305901,
				"z": -0.7016490899,
				"element": "C" 
			},
			{
				"x": -3.8249732821,
				"y": 0.4785196007,
				"z": -2.1252831186,
				"element": "I" 
			},
			{
				"x": -1.3905379071,
				"y": -0.8999686435,
				"z": -0.9959933673,
				"element": "C" 
			},
			{
				"x": 1.1432822368,
				"y": 3.5078152992,
				"z": -2.5891398804,
				"element": "H" 
			},
			{
				"x": 1.4545035443,
				"y": 2.1483548357,
				"z": -3.67712668,
				"element": "H" 
			},
			{
				"x": 0.4264367896,
				"y": 1.9284538838,
				"z": -2.2514732438,
				"element": "H" 
			},
			{
				"x": 2.4214191649,
				"y": 2.3724450517,
				"z": -0.7542209145,
				"element": "H" 
			},
			{
				"x": 3.4396542686,
				"y": 2.5827942133,
				"z": -2.1712543176,
				"element": "H" 
			},
			{
				"x": 3.0068047172,
				"y": 0.1893754339,
				"z": -2.8361909594,
				"element": "H" 
			},
			{
				"x": 3.7920204675,
				"y": 0.3380628771,
				"z": -1.2563006159,
				"element": "H" 
			},
			{
				"x": 0.2832246094,
				"y": -2.8919449274,
				"z": -1.1791837222,
				"element": "H" 
			},
			{
				"x": 1.0304533448,
				"y": -2.6774913955,
				"z": 0.3916451383,
				"element": "H" 
			},
			{
				"x": 0.4077627205,
				"y": -0.9344877652,
				"z": 1.7993350957,
				"element": "H" 
			},
			{
				"x": -1.3487799685,
				"y": -1.4119077602,
				"z": -1.9496675171,
				"element": "H" 
			}
		],
		 "valence_orbital": [ 
			{
				"type": "occ",
				"energy": -0.26926,
				"method": "rhf"
			},
			{
				"type": "occ",
				"energy": -0.26696,
				"method": "rhf"
			},
			{
				"type": "occ",
				"energy": -0.25417,
				"method": "rhf"
			},
			{
				"type": "occ",
				"energy": -0.24595,
				"method": "rhf"
			},
			{
				"type": "occ",
				"energy": -0.22745,
				"method": "rhf"
			},
			{
				"type": "unocc",
				"energy": -0.05294,
				"method": "rhf"
			},
			{
				"type": "unocc",
				"energy": -0.0428,
				"method": "rhf"
			},
			{
				"type": "unocc",
				"energy": -0.04081,
				"method": "rhf"
			},
			{
				"type": "unocc",
				"energy": -0.02674,
				"method": "rhf"
			},
			{
				"type": "unocc",
				"energy": -0.01641,
				"method": "rhf"
			}
		],
		"cosmo_sigma_profile": { 
			"0.0": 0.0,
			"0.0": 0.0,
			"0.0": 0.0,
			"0.0": 0.0,
			"0.0": 0.0,
			"0.0": 0.0,
			"0.0": 0.0,
			"0.0": 0.0,
			"0.0": 0.0,
			"0.0": 0.0,
			"0.0": 0.0,
			"0.0": 0.0,
			"0.0": 0.0,
			"0.0": 0.0,
			"0.0": 0.0,
			"0.0": 0.0,
			"0.0": 0.0,
			"0.0": 0.0,
			"0.0": 0.0,
			"0.0": 0.0,
			"0.0": 0.0,
			"0.0": 0.0,
			"0.0": 0.0,
			"0.0": 0.0,
			"0.0": 0.0,
			"0.0": 0.0,
			"0.0": 0.0,
			"0.0": 0.0,
			"0.0": 0.0,
			"0.0": 0.0,
			"0.0": 0.0,
			"0.0": 0.0,
			"0.0": 0.0,
			"0.0": 0.0,
			"0.0": 0.0,
			"0.0": 0.0,
			"0.0": 0.0,
			"0.0": 0.0,
			"0.0": 0.0,
			"0.0": 0.0,
			"0.0": 0.0,
			"0.0": 0.0,
			"0.0": 0.0,
			"0.0": 0.0,
			"0.0": 0.0,
			"0.0": 0.0,
			"0.0": 0.0,
			"0.0": 0.0,
			"0.0": 0.0,
			"0.0": 0.0,
			"0.0": 0.0
		}
	}
}
