{
	 "smiles": "FC(F)OC1=CC=C(C=C1)N1CCCC(Br)C1=O", 
	 "Tm": 346.15, 
	 "num_atms": 30, 
	 "gaussian": { 
		 "optdone": 1, 
		 "sigma_profile": "yes", 
		 "theory": "DFT", 
		 "functional": "B3LYP", 
		 "basiset": "6-31G**", 
		 "properties": { 
			 "R2extent": 9128.5656, 
			 "electric_dipole_moment_norm": 5.52279952922, 
			 "electric_quadrupole_moment_norm": 12.4662638906, 
			 "total_energy": -3440.79822306, 
			 "HOMO_LUMO_gap": 0.18219, 
			 "cosmo_polarized_energy": -13.97, 
			 "cosmo_cavitation_energy": 35.81, 
			 "cosmo_dispersion_energy": -26.13, 
			 "cosmo_repulsion_energy": 1.98, 
			 "cosmo_total_nonelectrostatic_energy": 11.67, 
			 "SMD_solvation_energy": 5.94 
		},
		"coords": [
			{
				"x": 6.200334342,
				"y": 2.8487973666,
				"z": 2.9695163342,
				"element": "F" 
			},
			{
				"x": 5.0752107771,
				"y": 2.7644682511,
				"z": 2.2385056784,
				"element": "C" 
			},
			{
				"x": 5.3163613685,
				"y": 3.3856038187,
				"z": 1.0451059819,
				"element": "F" 
			},
			{
				"x": 4.8193960684,
				"y": 1.4303063082,
				"z": 2.0531322409,
				"element": "O" 
			},
			{
				"x": 3.5407030256,
				"y": 1.061167681,
				"z": 1.6588142239,
				"element": "C" 
			},
			{
				"x": 2.7252956928,
				"y": 1.8560039297,
				"z": 0.8541633309,
				"element": "C" 
			},
			{
				"x": 1.4571724935,
				"y": 1.3912355319,
				"z": 0.4996436793,
				"element": "C" 
			},
			{
				"x": 0.9973001422,
				"y": 0.1437750743,
				"z": 0.936192235,
				"element": "C" 
			},
			{
				"x": 1.8403983642,
				"y": -0.6516539314,
				"z": 1.7294376813,
				"element": "C" 
			},
			{
				"x": 3.1019726549,
				"y": -0.1930102627,
				"z": 2.0878191352,
				"element": "C" 
			},
			{
				"x": -0.3183055967,
				"y": -0.2942488142,
				"z": 0.5910090856,
				"element": "N" 
			},
			{
				"x": -1.4003794948,
				"y": 0.7022228469,
				"z": 0.4726367898,
				"element": "C" 
			},
			{
				"x": -2.7251431356,
				"y": 0.1866905784,
				"z": 1.0595867948,
				"element": "C" 
			},
			{
				"x": -3.0050389563,
				"y": -1.2967486053,
				"z": 0.7164363435,
				"element": "C" 
			},
			{
				"x": -1.9845784886,
				"y": -1.8879167489,
				"z": -0.2480617378,
				"element": "C" 
			},
			{
				"x": -2.2979464912,
				"y": -1.2564148241,
				"z": -2.1278034853,
				"element": "Br" 
			},
			{
				"x": -0.5432357867,
				"y": -1.5871418479,
				"z": 0.1580673903,
				"element": "C" 
			},
			{
				"x": 0.2998309223,
				"y": -2.472053397,
				"z": 0.1445923905,
				"element": "O" 
			},
			{
				"x": 4.2530734358,
				"y": 3.2915562676,
				"z": 2.7381398502,
				"element": "H" 
			},
			{
				"x": 3.0813021809,
				"y": 2.8052256821,
				"z": 0.4727598937,
				"element": "H" 
			},
			{
				"x": 0.8406794656,
				"y": 2.0039258718,
				"z": -0.1492146562,
				"element": "H" 
			},
			{
				"x": 1.5071237721,
				"y": -1.6264315861,
				"z": 2.0576456142,
				"element": "H" 
			},
			{
				"x": 3.7569117563,
				"y": -0.7946905345,
				"z": 2.708767759,
				"element": "H" 
			},
			{
				"x": -1.0849098159,
				"y": 1.5925976433,
				"z": 1.018284655,
				"element": "H" 
			},
			{
				"x": -1.5364128698,
				"y": 0.9833331555,
				"z": -0.5769742704,
				"element": "H" 
			},
			{
				"x": -3.5278146514,
				"y": 0.8279610275,
				"z": 0.683342399,
				"element": "H" 
			},
			{
				"x": -2.7060754751,
				"y": 0.3076926698,
				"z": 2.1469201529,
				"element": "H" 
			},
			{
				"x": -4.0138514645,
				"y": -1.4356143104,
				"z": 0.3202324518,
				"element": "H" 
			},
			{
				"x": -2.9426771179,
				"y": -1.9045126176,
				"z": 1.6282077175,
				"element": "H" 
			},
			{
				"x": -2.0691971177,
				"y": -2.9680262244,
				"z": -0.3373056594,
				"element": "H" 
			}
		],
		 "valence_orbital": [ 
			{
				"type": "occ",
				"energy": -0.28586,
				"method": "rhf"
			},
			{
				"type": "occ",
				"energy": -0.28031,
				"method": "rhf"
			},
			{
				"type": "occ",
				"energy": -0.26772,
				"method": "rhf"
			},
			{
				"type": "occ",
				"energy": -0.2554,
				"method": "rhf"
			},
			{
				"type": "occ",
				"energy": -0.2259,
				"method": "rhf"
			},
			{
				"type": "unocc",
				"energy": -0.04371,
				"method": "rhf"
			},
			{
				"type": "unocc",
				"energy": -0.01672,
				"method": "rhf"
			},
			{
				"type": "unocc",
				"energy": -0.00536,
				"method": "rhf"
			},
			{
				"type": "unocc",
				"energy": 0.04445,
				"method": "rhf"
			},
			{
				"type": "unocc",
				"energy": 0.06956,
				"method": "rhf"
			}
		],
		"cosmo_sigma_profile": { 
			"-0.025": 0.0,
			"-0.024": 0.0,
			"-0.023": 0.0,
			"-0.022": 0.0,
			"-0.021": 0.0,
			"-0.02": 0.0,
			"-0.019": 0.0,
			"-0.018": 0.0,
			"-0.017": 0.0,
			"-0.016": 0.0,
			"-0.015": 0.0,
			"-0.014": 0.0,
			"-0.013": 0.0,
			"-0.012": 0.0,
			"-0.011": 0.0,
			"-0.01": 2.34431149504,
			"-0.009": 2.9264619827,
			"-0.008": 3.13441346771,
			"-0.007": 8.8677076211,
			"-0.006": 16.2742805707,
			"-0.005": 21.1890612526,
			"-0.004": 26.19674815,
			"-0.003": 21.1656571507,
			"-0.002": 19.7688103473,
			"-0.001": 15.71627966,
			"0.0": 14.5061223878,
			"0.001": 16.2084107619,
			"0.002": 20.2744018062,
			"0.003": 32.0735755394,
			"0.004": 30.3417911451,
			"0.005": 11.9248298046,
			"0.006": 5.47154039486,
			"0.007": 4.39271009583,
			"0.008": 2.34351666578,
			"0.009": 0.936910866437,
			"0.01": 2.08014314668,
			"0.011": 2.08925395602,
			"0.012": 3.36023663637,
			"0.013": 3.52749999628,
			"0.014": 0.500742106036,
			"0.015": 0.0,
			"0.016": 0.0,
			"0.017": 0.0,
			"0.018": 0.0,
			"0.019": 0.0,
			"0.02": 0.0,
			"0.021": 0.0,
			"0.022": 0.0,
			"0.023": 0.0,
			"0.024": 0.0,
			"0.025": 0.0
		}
	}
}
