{
	 "smiles": "COC1=CC(Cl)=NC(N)=N1", 
	 "Tm": 445.15, 
	 "num_atms": 16, 
	 "gaussian": { 
		 "optdone": 1, 
		 "sigma_profile": "yes", 
		 "theory": "DFT", 
		 "functional": "B3LYP", 
		 "basiset": "6-31G**", 
		 "properties": { 
			 "R2extent": 1921.3989, 
			 "electric_dipole_moment_norm": 3.71058353093, 
			 "electric_quadrupole_moment_norm": 8.88151680458, 
			 "total_energy": -893.832586544, 
			 "HOMO_LUMO_gap": 0.20877, 
			 "cosmo_polarized_energy": -9.61, 
			 "cosmo_cavitation_energy": 22.48, 
			 "cosmo_dispersion_energy": -17.16, 
			 "cosmo_repulsion_energy": 1.43, 
			 "cosmo_total_nonelectrostatic_energy": 6.75, 
			 "SMD_solvation_energy": 2.24 
		},
		"coords": [
			{
				"x": -2.2507338761,
				"y": 2.2507779071,
				"z": -0.0856231768,
				"element": "C" 
			},
			{
				"x": -1.3414118239,
				"y": 1.5774949583,
				"z": 0.7941387634,
				"element": "O" 
			},
			{
				"x": -0.4753778417,
				"y": 0.7114279084,
				"z": 0.2458411092,
				"element": "C" 
			},
			{
				"x": 0.4085619167,
				"y": 0.0542467287,
				"z": 1.1211921031,
				"element": "C" 
			},
			{
				"x": 1.2808472943,
				"y": -0.8195479275,
				"z": 0.4940277306,
				"element": "C" 
			},
			{
				"x": 2.4474705841,
				"y": -1.6983631672,
				"z": 1.4757604861,
				"element": "Cl" 
			},
			{
				"x": 1.3180091625,
				"y": -1.0560286707,
				"z": -0.8083007952,
				"element": "N" 
			},
			{
				"x": 0.4161897131,
				"y": -0.3710964846,
				"z": -1.5355087487,
				"element": "C" 
			},
			{
				"x": 0.3994966524,
				"y": -0.6154590065,
				"z": -2.8738824704,
				"element": "N" 
			},
			{
				"x": -0.4853690731,
				"y": 0.5154740029,
				"z": -1.0679998217,
				"element": "N" 
			},
			{
				"x": -2.8549898501,
				"y": 2.8881383583,
				"z": 0.5605965985,
				"element": "H" 
			},
			{
				"x": -2.8842593229,
				"y": 1.5353731316,
				"z": -0.6164839253,
				"element": "H" 
			},
			{
				"x": -1.7108063027,
				"y": 2.8550301004,
				"z": -0.8194854804,
				"element": "H" 
			},
			{
				"x": 0.3982096906,
				"y": 0.2314180854,
				"z": 2.1865514351,
				"element": "H" 
			},
			{
				"x": 1.1670931451,
				"y": -1.1368262195,
				"z": -3.26475082,
				"element": "H" 
			},
			{
				"x": -0.1292300684,
				"y": 0.0061402949,
				"z": -3.4629729875,
				"element": "H" 
			}
		],
		 "valence_orbital": [ 
			{
				"type": "occ",
				"energy": -0.31092,
				"method": "rhf"
			},
			{
				"type": "occ",
				"energy": -0.29181,
				"method": "rhf"
			},
			{
				"type": "occ",
				"energy": -0.27781,
				"method": "rhf"
			},
			{
				"type": "occ",
				"energy": -0.26626,
				"method": "rhf"
			},
			{
				"type": "occ",
				"energy": -0.2295,
				"method": "rhf"
			},
			{
				"type": "unocc",
				"energy": -0.02073,
				"method": "rhf"
			},
			{
				"type": "unocc",
				"energy": -0.00085,
				"method": "rhf"
			},
			{
				"type": "unocc",
				"energy": 0.0368,
				"method": "rhf"
			},
			{
				"type": "unocc",
				"energy": 0.08534,
				"method": "rhf"
			},
			{
				"type": "unocc",
				"energy": 0.11388,
				"method": "rhf"
			}
		],
		"cosmo_sigma_profile": { 
			"-0.025": 0.0,
			"-0.024": 0.0,
			"-0.023": 0.0,
			"-0.022": 0.0,
			"-0.021": 0.0,
			"-0.02": 0.0,
			"-0.019": 0.0,
			"-0.018": 0.0,
			"-0.017": 0.0,
			"-0.016": 0.0,
			"-0.015": 0.0372989583098,
			"-0.014": 1.81943618009,
			"-0.013": 1.93148138089,
			"-0.012": 2.40437861297,
			"-0.011": 1.47372083153,
			"-0.01": 2.60890243469,
			"-0.009": 1.58842709628,
			"-0.008": 2.80272044921,
			"-0.007": 2.51489875867,
			"-0.006": 6.03761263716,
			"-0.005": 9.15194866627,
			"-0.004": 10.3168450267,
			"-0.003": 11.5494162059,
			"-0.002": 11.5864693303,
			"-0.001": 12.0323737008,
			"0.0": 16.1183018571,
			"0.001": 16.4812368079,
			"0.002": 13.1482141288,
			"0.003": 11.0459886806,
			"0.004": 15.4266268323,
			"0.005": 8.17525884126,
			"0.006": 5.77856119557,
			"0.007": 4.97906711725,
			"0.008": 4.43946201927,
			"0.009": 3.61918038726,
			"0.01": 1.60206887002,
			"0.011": 0.884061708919,
			"0.012": 0.95953008498,
			"0.013": 0.869572802115,
			"0.014": 0.278682345769,
			"0.015": 0.0,
			"0.016": 0.0,
			"0.017": 0.0,
			"0.018": 0.0,
			"0.019": 0.0,
			"0.02": 0.0,
			"0.021": 0.0,
			"0.022": 0.0,
			"0.023": 0.0,
			"0.024": 0.0,
			"0.025": 0.0
		}
	}
}
