{
	 "smiles": "[O-][N+](=O)C1=CC(C=O)=CS1", 
	 "Tm": 353.15, 
	 "num_atms": 13, 
	 "gaussian": { 
		 "optdone": 1, 
		 "sigma_profile": "yes", 
		 "theory": "DFT", 
		 "functional": "B3LYP", 
		 "basiset": "6-31G**", 
		 "properties": { 
			 "R2extent": 2175.9901, 
			 "electric_dipole_moment_norm": 1.68896887183, 
			 "electric_quadrupole_moment_norm": 18.0949900611, 
			 "total_energy": -870.812370311, 
			 "HOMO_LUMO_gap": 0.16652, 
			 "cosmo_polarized_energy": -11.49, 
			 "cosmo_cavitation_energy": 20.9, 
			 "cosmo_dispersion_energy": -15.7, 
			 "cosmo_repulsion_energy": 1.22, 
			 "cosmo_total_nonelectrostatic_energy": 6.43, 
			 "SMD_solvation_energy": 7.17 
		},
		"coords": [
			{
				"x": -1.7055196416,
				"y": 0.8627537059,
				"z": -2.3927614782,
				"element": "O" 
			},
			{
				"x": -0.6096909005,
				"y": 0.3114382642,
				"z": -2.2986963483,
				"element": "N" 
			},
			{
				"x": 0.3223298542,
				"y": 0.4135170266,
				"z": -3.1008838716,
				"element": "O" 
			},
			{
				"x": -0.3917411222,
				"y": -0.5289624922,
				"z": -1.1525395334,
				"element": "C" 
			},
			{
				"x": -1.281993705,
				"y": -0.78302522,
				"z": -0.1451212322,
				"element": "C" 
			},
			{
				"x": -0.7229516771,
				"y": -1.6629057637,
				"z": 0.8262252369,
				"element": "C" 
			},
			{
				"x": -1.423288852,
				"y": -2.1351942601,
				"z": 2.0389658649,
				"element": "C" 
			},
			{
				"x": -0.9272698821,
				"y": -2.8855392717,
				"z": 2.856095261,
				"element": "O" 
			},
			{
				"x": 0.5709662312,
				"y": -2.0387944418,
				"z": 0.5119759503,
				"element": "C" 
			},
			{
				"x": 1.1335804852,
				"y": -1.3428196584,
				"z": -0.9507218575,
				"element": "S" 
			},
			{
				"x": -2.2769632888,
				"y": -0.3566028958,
				"z": -0.1154693489,
				"element": "H" 
			},
			{
				"x": -2.4577599726,
				"y": -1.7493688181,
				"z": 2.1606089494,
				"element": "H" 
			},
			{
				"x": 1.1990024714,
				"y": -2.6985961748,
				"z": 1.0959224075,
				"element": "H" 
			}
		],
		 "valence_orbital": [ 
			{
				"type": "occ",
				"energy": -0.32505,
				"method": "rhf"
			},
			{
				"type": "occ",
				"energy": -0.30809,
				"method": "rhf"
			},
			{
				"type": "occ",
				"energy": -0.30152,
				"method": "rhf"
			},
			{
				"type": "occ",
				"energy": -0.28558,
				"method": "rhf"
			},
			{
				"type": "occ",
				"energy": -0.2782,
				"method": "rhf"
			},
			{
				"type": "unocc",
				"energy": -0.11168,
				"method": "rhf"
			},
			{
				"type": "unocc",
				"energy": -0.08043,
				"method": "rhf"
			},
			{
				"type": "unocc",
				"energy": -0.01017,
				"method": "rhf"
			},
			{
				"type": "unocc",
				"energy": -0.00165,
				"method": "rhf"
			},
			{
				"type": "unocc",
				"energy": 0.06533,
				"method": "rhf"
			}
		],
		"cosmo_sigma_profile": { 
			"-0.025": 0.0,
			"-0.024": 0.0,
			"-0.023": 0.0,
			"-0.022": 0.0,
			"-0.021": 0.0,
			"-0.02": 0.0,
			"-0.019": 0.0,
			"-0.018": 0.0,
			"-0.017": 0.0,
			"-0.016": 0.0,
			"-0.015": 0.0,
			"-0.014": 0.0,
			"-0.013": 0.0,
			"-0.012": 0.047081307279,
			"-0.011": 1.90868533556,
			"-0.01": 4.8788558166,
			"-0.009": 4.1649128787,
			"-0.008": 5.21513707236,
			"-0.007": 7.61918401456,
			"-0.006": 7.06452979512,
			"-0.005": 7.27739469516,
			"-0.004": 9.00069712245,
			"-0.003": 12.9017676445,
			"-0.002": 17.582196114,
			"-0.001": 18.3983350148,
			"0.0": 10.5386304831,
			"0.001": 5.02581541768,
			"0.002": 4.60151849333,
			"0.003": 4.02821834853,
			"0.004": 5.36140205022,
			"0.005": 3.24209931906,
			"0.006": 6.60224921556,
			"0.007": 11.9858768648,
			"0.008": 7.5456871738,
			"0.009": 6.11427932898,
			"0.01": 4.77671542648,
			"0.011": 3.71350258174,
			"0.012": 1.40033897178,
			"0.013": 0.0698335358196,
			"0.014": 0.0,
			"0.015": 0.0,
			"0.016": 0.0,
			"0.017": 0.0,
			"0.018": 0.0,
			"0.019": 0.0,
			"0.02": 0.0,
			"0.021": 0.0,
			"0.022": 0.0,
			"0.023": 0.0,
			"0.024": 0.0,
			"0.025": 0.0
		}
	}
}
