{
	 "smiles": "OC(=O)C1=C2CCCCN2N=C1", 
	 "Tm": 488.15, 
	 "num_atms": 22, 
	 "gaussian": { 
		 "optdone": 1, 
		 "sigma_profile": "yes", 
		 "theory": "DFT", 
		 "functional": "B3LYP", 
		 "basiset": "6-31G**", 
		 "properties": { 
			 "R2extent": 3501.6038, 
			 "electric_dipole_moment_norm": 4.25821588227, 
			 "electric_quadrupole_moment_norm": 16.7173432276, 
			 "total_energy": -570.834409269, 
			 "HOMO_LUMO_gap": 0.23182, 
			 "cosmo_polarized_energy": -16.14, 
			 "cosmo_cavitation_energy": 24.71, 
			 "cosmo_dispersion_energy": -18.73, 
			 "cosmo_repulsion_energy": 1.49, 
			 "cosmo_total_nonelectrostatic_energy": 7.47, 
			 "SMD_solvation_energy": 3.52 
		},
		"coords": [
			{
				"x": 1.8216177813,
				"y": -0.0574675256,
				"z": -4.900638594,
				"element": "O" 
			},
			{
				"x": 1.89441668,
				"y": 0.3588150669,
				"z": -3.6044221848,
				"element": "C" 
			},
			{
				"x": 2.2942184966,
				"y": 1.4786140794,
				"z": -3.3615318459,
				"element": "O" 
			},
			{
				"x": 1.4758253969,
				"y": -0.6031117588,
				"z": -2.5761646234,
				"element": "C" 
			},
			{
				"x": 1.5416481313,
				"y": -0.3655060245,
				"z": -1.1988469317,
				"element": "C" 
			},
			{
				"x": 1.9921197502,
				"y": 0.8197984846,
				"z": -0.3986738458,
				"element": "C" 
			},
			{
				"x": 2.2249371818,
				"y": 0.4458161695,
				"z": 1.0750162283,
				"element": "C" 
			},
			{
				"x": 1.0774127133,
				"y": -0.4263638528,
				"z": 1.6057062183,
				"element": "C" 
			},
			{
				"x": 0.9909724542,
				"y": -1.7436556457,
				"z": 0.8300770251,
				"element": "C" 
			},
			{
				"x": 1.0601191712,
				"y": -1.4830458531,
				"z": -0.6063726178,
				"element": "N" 
			},
			{
				"x": 0.6891353801,
				"y": -2.4459274651,
				"z": -1.4906856775,
				"element": "N" 
			},
			{
				"x": 0.9376616498,
				"y": -1.9130744248,
				"z": -2.6796502292,
				"element": "C" 
			},
			{
				"x": 1.5150923159,
				"y": -0.9731849917,
				"z": -4.9465072321,
				"element": "H" 
			},
			{
				"x": 1.224611476,
				"y": 1.6018221993,
				"z": -0.4738980822,
				"element": "H" 
			},
			{
				"x": 2.8837106485,
				"y": 1.2470368737,
				"z": -0.8639216511,
				"element": "H" 
			},
			{
				"x": 2.3218885547,
				"y": 1.3559389175,
				"z": 1.6748748085,
				"element": "H" 
			},
			{
				"x": 3.1716556844,
				"y": -0.1011165077,
				"z": 1.1741027821,
				"element": "H" 
			},
			{
				"x": 0.1283814019,
				"y": 0.1168519797,
				"z": 1.5138813375,
				"element": "H" 
			},
			{
				"x": 1.2151913758,
				"y": -0.6544525448,
				"z": 2.6675004146,
				"element": "H" 
			},
			{
				"x": 0.0571857227,
				"y": -2.2771017917,
				"z": 1.0235122073,
				"element": "H" 
			},
			{
				"x": 1.8186323621,
				"y": -2.4100769369,
				"z": 1.1027024073,
				"element": "H" 
			},
			{
				"x": 0.7091656712,
				"y": -2.4930084473,
				"z": -3.5666599136,
				"element": "H" 
			}
		],
		 "valence_orbital": [ 
			{
				"type": "occ",
				"energy": -0.30656,
				"method": "rhf"
			},
			{
				"type": "occ",
				"energy": -0.30279,
				"method": "rhf"
			},
			{
				"type": "occ",
				"energy": -0.26458,
				"method": "rhf"
			},
			{
				"type": "occ",
				"energy": -0.26259,
				"method": "rhf"
			},
			{
				"type": "occ",
				"energy": -0.24908,
				"method": "rhf"
			},
			{
				"type": "unocc",
				"energy": -0.01726,
				"method": "rhf"
			},
			{
				"type": "unocc",
				"energy": 0.01038,
				"method": "rhf"
			},
			{
				"type": "unocc",
				"energy": 0.06138,
				"method": "rhf"
			},
			{
				"type": "unocc",
				"energy": 0.07565,
				"method": "rhf"
			},
			{
				"type": "unocc",
				"energy": 0.10152,
				"method": "rhf"
			}
		],
		"cosmo_sigma_profile": { 
			"-0.025": 0.0,
			"-0.024": 0.0,
			"-0.023": 0.0,
			"-0.022": 0.0,
			"-0.021": 0.0,
			"-0.02": 0.0,
			"-0.019": 0.0744383200032,
			"-0.018": 1.11504173789,
			"-0.017": 1.00482199796,
			"-0.016": 0.909582397314,
			"-0.015": 1.20532943832,
			"-0.014": 0.742863231337,
			"-0.013": 0.841099165428,
			"-0.012": 1.55017736863,
			"-0.011": 1.21230911701,
			"-0.01": 1.03850918674,
			"-0.009": 1.65251296172,
			"-0.008": 1.49224340074,
			"-0.007": 1.65717366228,
			"-0.006": 5.26692207699,
			"-0.005": 12.2491936869,
			"-0.004": 25.7791666483,
			"-0.003": 22.2428512005,
			"-0.002": 18.561558928,
			"-0.001": 14.7755745767,
			"0.0": 10.7566505956,
			"0.001": 7.90593327281,
			"0.002": 7.23076694738,
			"0.003": 6.93812042307,
			"0.004": 5.48078215299,
			"0.005": 3.29744887775,
			"0.006": 3.93972391822,
			"0.007": 4.0804142377,
			"0.008": 3.98498759005,
			"0.009": 3.92914691131,
			"0.01": 4.94465831336,
			"0.011": 6.07331859931,
			"0.012": 5.34103767634,
			"0.013": 4.66525431369,
			"0.014": 2.11916221082,
			"0.015": 0.730290301238,
			"0.016": 0.17543663952,
			"0.017": 0.0,
			"0.018": 0.0,
			"0.019": 0.0,
			"0.02": 0.0,
			"0.021": 0.0,
			"0.022": 0.0,
			"0.023": 0.0,
			"0.024": 0.0,
			"0.025": 0.0
		}
	}
}
