{
	 "smiles": "CNC(=O)C1=CC(Cl)=CC=N1", 
	 "Tm": 315.15, 
	 "num_atms": 18, 
	 "gaussian": { 
		 "optdone": 1, 
		 "sigma_profile": "yes", 
		 "theory": "DFT", 
		 "functional": "B3LYP", 
		 "basiset": "6-31G**", 
		 "properties": { 
			 "R2extent": 2733.5264, 
			 "electric_dipole_moment_norm": 3.3935437127, 
			 "electric_quadrupole_moment_norm": 7.21191194275, 
			 "total_energy": -915.901710053, 
			 "HOMO_LUMO_gap": 0.1925, 
			 "cosmo_polarized_energy": -9.56, 
			 "cosmo_cavitation_energy": 24.4, 
			 "cosmo_dispersion_energy": -18.4, 
			 "cosmo_repulsion_energy": 1.49, 
			 "cosmo_total_nonelectrostatic_energy": 7.49, 
			 "SMD_solvation_energy": 3.54 
		},
		"coords": [
			{
				"x": 3.4833487266,
				"y": -0.0706359278,
				"z": -0.8775897505,
				"element": "C" 
			},
			{
				"x": 2.1408335241,
				"y": -0.348343459,
				"z": -0.4102671877,
				"element": "N" 
			},
			{
				"x": 1.282618378,
				"y": 0.6264544921,
				"z": -0.0234712785,
				"element": "C" 
			},
			{
				"x": 1.5316532231,
				"y": 1.8301008742,
				"z": -0.0219361858,
				"element": "O" 
			},
			{
				"x": -0.0671996751,
				"y": 0.1077977563,
				"z": 0.4278827763,
				"element": "C" 
			},
			{
				"x": -1.0227207979,
				"y": 1.0360153491,
				"z": 0.8464522856,
				"element": "C" 
			},
			{
				"x": -2.2568542078,
				"y": 0.5442798102,
				"z": 1.2578237897,
				"element": "C" 
			},
			{
				"x": -3.5053653737,
				"y": 1.6449865512,
				"z": 1.7960984308,
				"element": "Cl" 
			},
			{
				"x": -2.5002677513,
				"y": -0.8285238747,
				"z": 1.2414397074,
				"element": "C" 
			},
			{
				"x": -1.4705448231,
				"y": -1.6628469452,
				"z": 0.8031591334,
				"element": "C" 
			},
			{
				"x": -0.2761474949,
				"y": -1.21714527,
				"z": 0.4027279042,
				"element": "N" 
			},
			{
				"x": 3.6268174438,
				"y": 1.0102770577,
				"z": -0.8489946734,
				"element": "H" 
			},
			{
				"x": 4.2333596778,
				"y": -0.5481332462,
				"z": -0.2367675408,
				"element": "H" 
			},
			{
				"x": 3.6264732292,
				"y": -0.4233080857,
				"z": -1.9053662514,
				"element": "H" 
			},
			{
				"x": 1.7891205373,
				"y": -1.2956752923,
				"z": -0.3549555231,
				"element": "H" 
			},
			{
				"x": -0.7790529312,
				"y": 2.0909866779,
				"z": 0.8384313931,
				"element": "H" 
			},
			{
				"x": -3.4539394129,
				"y": -1.2347430428,
				"z": 1.5572720349,
				"element": "H" 
			},
			{
				"x": -1.621032272,
				"y": -2.7399434251,
				"z": 0.7755609361,
				"element": "H" 
			}
		],
		 "valence_orbital": [ 
			{
				"type": "occ",
				"energy": -0.29102,
				"method": "rhf"
			},
			{
				"type": "occ",
				"energy": -0.28449,
				"method": "rhf"
			},
			{
				"type": "occ",
				"energy": -0.27964,
				"method": "rhf"
			},
			{
				"type": "occ",
				"energy": -0.25257,
				"method": "rhf"
			},
			{
				"type": "occ",
				"energy": -0.25093,
				"method": "rhf"
			},
			{
				"type": "unocc",
				"energy": -0.05843,
				"method": "rhf"
			},
			{
				"type": "unocc",
				"energy": -0.03885,
				"method": "rhf"
			},
			{
				"type": "unocc",
				"energy": 0.01724,
				"method": "rhf"
			},
			{
				"type": "unocc",
				"energy": 0.05563,
				"method": "rhf"
			},
			{
				"type": "unocc",
				"energy": 0.10423,
				"method": "rhf"
			}
		],
		"cosmo_sigma_profile": { 
			"-0.025": 0.0,
			"-0.024": 0.0,
			"-0.023": 0.0,
			"-0.022": 0.0,
			"-0.021": 0.0,
			"-0.02": 0.0,
			"-0.019": 0.0,
			"-0.018": 0.0,
			"-0.017": 0.0,
			"-0.016": 0.0,
			"-0.015": 0.0,
			"-0.014": 0.0,
			"-0.013": 0.00594385846685,
			"-0.012": 0.3502374735,
			"-0.011": 0.918717109087,
			"-0.01": 0.57971406578,
			"-0.009": 1.68487052003,
			"-0.008": 4.54620405749,
			"-0.007": 6.60112245206,
			"-0.006": 5.36648722852,
			"-0.005": 10.4507547728,
			"-0.004": 11.6231735208,
			"-0.003": 13.0967597578,
			"-0.002": 18.3915532617,
			"-0.001": 24.5977435438,
			"0.0": 26.3904921825,
			"0.001": 14.5270801331,
			"0.002": 11.4594023189,
			"0.003": 12.7888999614,
			"0.004": 9.25307901213,
			"0.005": 3.65968004713,
			"0.006": 3.29440727822,
			"0.007": 2.50246087856,
			"0.008": 2.46265810433,
			"0.009": 1.30758371805,
			"0.01": 1.21651185311,
			"0.011": 1.8862107963,
			"0.012": 2.04814760131,
			"0.013": 4.12860170893,
			"0.014": 2.71949794415,
			"0.015": 0.0,
			"0.016": 0.0,
			"0.017": 0.0,
			"0.018": 0.0,
			"0.019": 0.0,
			"0.02": 0.0,
			"0.021": 0.0,
			"0.022": 0.0,
			"0.023": 0.0,
			"0.024": 0.0,
			"0.025": 0.0
		}
	}
}
