{
	 "smiles": "OC(=O)C1=CC2=C(N1)C=CS2", 
	 "Tm": 453.15, 
	 "num_atms": 16, 
	 "gaussian": { 
		 "optdone": 1, 
		 "sigma_profile": "yes", 
		 "theory": "DFT", 
		 "functional": "B3LYP", 
		 "basiset": "6-31G**", 
		 "properties": { 
			 "R2extent": 2406.3207, 
			 "electric_dipole_moment_norm": 1.0019598445, 
			 "electric_quadrupole_moment_norm": 13.0542262727, 
			 "total_energy": -873.144454861, 
			 "HOMO_LUMO_gap": 0.16988, 
			 "cosmo_polarized_energy": -11.38, 
			 "cosmo_cavitation_energy": 22.66, 
			 "cosmo_dispersion_energy": -17.69, 
			 "cosmo_repulsion_energy": 1.37, 
			 "cosmo_total_nonelectrostatic_energy": 6.34, 
			 "SMD_solvation_energy": 4.73 
		},
		"coords": [
			{
				"x": 1.4720185121,
				"y": 3.0924648432,
				"z": -0.3276372388,
				"element": "O" 
			},
			{
				"x": 1.3384218705,
				"y": 1.9784123668,
				"z": 0.4316227112,
				"element": "C" 
			},
			{
				"x": 1.6697958151,
				"y": 1.9318742058,
				"z": 1.6066461144,
				"element": "O" 
			},
			{
				"x": 0.7628471195,
				"y": 0.8561391037,
				"z": -0.2916351246,
				"element": "C" 
			},
			{
				"x": 0.3264831663,
				"y": 0.7074431386,
				"z": -1.6060411932,
				"element": "C" 
			},
			{
				"x": -0.1319865164,
				"y": -0.6224823869,
				"z": -1.7070878634,
				"element": "C" 
			},
			{
				"x": 0.034122902,
				"y": -1.2504557271,
				"z": -0.4601405763,
				"element": "C" 
			},
			{
				"x": 0.5807530477,
				"y": -0.3351540694,
				"z": 0.3914286011,
				"element": "N" 
			},
			{
				"x": -0.3922912438,
				"y": -2.6104803397,
				"z": -0.4200585542,
				"element": "C" 
			},
			{
				"x": -0.8761939068,
				"y": -2.993755306,
				"z": -1.6398529149,
				"element": "C" 
			},
			{
				"x": -0.8300304728,
				"y": -1.7314351543,
				"z": -2.8602222975,
				"element": "S" 
			},
			{
				"x": 1.8604306449,
				"y": 3.7640552859,
				"z": 0.2564465773,
				"element": "H" 
			},
			{
				"x": 0.3510226821,
				"y": 1.4770759009,
				"z": -2.3623530129,
				"element": "H" 
			},
			{
				"x": 0.833208306,
				"y": -0.442596466,
				"z": 1.3625825769,
				"element": "H" 
			},
			{
				"x": -0.3474509898,
				"y": -3.2629943602,
				"z": 0.4432779492,
				"element": "H" 
			},
			{
				"x": -1.2690509364,
				"y": -3.9641110355,
				"z": -1.9111757541,
				"element": "H" 
			}
		],
		 "valence_orbital": [ 
			{
				"type": "occ",
				"energy": -0.31633,
				"method": "rhf"
			},
			{
				"type": "occ",
				"energy": -0.28569,
				"method": "rhf"
			},
			{
				"type": "occ",
				"energy": -0.28014,
				"method": "rhf"
			},
			{
				"type": "occ",
				"energy": -0.22942,
				"method": "rhf"
			},
			{
				"type": "occ",
				"energy": -0.21383,
				"method": "rhf"
			},
			{
				"type": "unocc",
				"energy": -0.04395,
				"method": "rhf"
			},
			{
				"type": "unocc",
				"energy": 0.0129,
				"method": "rhf"
			},
			{
				"type": "unocc",
				"energy": 0.02374,
				"method": "rhf"
			},
			{
				"type": "unocc",
				"energy": 0.07935,
				"method": "rhf"
			},
			{
				"type": "unocc",
				"energy": 0.08386,
				"method": "rhf"
			}
		],
		"cosmo_sigma_profile": { 
			"-0.025": 0.0,
			"-0.024": 0.0,
			"-0.023": 0.0,
			"-0.022": 0.0,
			"-0.021": 0.0,
			"-0.02": 0.0,
			"-0.019": 0.0,
			"-0.018": 0.926838493487,
			"-0.017": 0.853566361489,
			"-0.016": 0.906792934588,
			"-0.015": 1.42839486066,
			"-0.014": 2.12126630679,
			"-0.013": 1.49840533138,
			"-0.012": 1.7446198273,
			"-0.011": 1.50125913531,
			"-0.01": 1.46021433453,
			"-0.009": 2.13472431902,
			"-0.008": 5.24571657796,
			"-0.007": 7.63711917106,
			"-0.006": 7.41756249931,
			"-0.005": 7.15358938156,
			"-0.004": 6.09199426184,
			"-0.003": 8.05519567941,
			"-0.002": 9.19209954874,
			"-0.001": 8.80456563713,
			"0.0": 10.6298466317,
			"0.001": 12.7609333428,
			"0.002": 14.0335740193,
			"0.003": 19.8232609914,
			"0.004": 19.2862419096,
			"0.005": 11.9092174445,
			"0.006": 4.74558539893,
			"0.007": 2.23470899754,
			"0.008": 2.90147746492,
			"0.009": 2.22098882651,
			"0.01": 1.49045507263,
			"0.011": 2.95102554182,
			"0.012": 4.60922300477,
			"0.013": 0.742351014972,
			"0.014": 0.0,
			"0.015": 0.0,
			"0.016": 0.0,
			"0.017": 0.0,
			"0.018": 0.0,
			"0.019": 0.0,
			"0.02": 0.0,
			"0.021": 0.0,
			"0.022": 0.0,
			"0.023": 0.0,
			"0.024": 0.0,
			"0.025": 0.0
		}
	}
}
