{
	 "smiles": "CCCCCCCCCCCCCCCCC(O)=O", 
	 "Tm": 333.75, 
	 "num_atms": 53, 
	 "gaussian": { 
		 "optdone": 1, 
		 "sigma_profile": "yes", 
		 "theory": "DFT", 
		 "functional": "B3LYP", 
		 "basiset": "6-31G**", 
		 "properties": { 
			 "R2extent": 11581.1789, 
			 "electric_dipole_moment_norm": 4.89718208156, 
			 "electric_quadrupole_moment_norm": 32.4139430872, 
			 "total_energy": -818.794402409, 
			 "HOMO_LUMO_gap": 0.27645, 
			 "cosmo_polarized_energy": -13.55, 
			 "cosmo_cavitation_energy": 51.82, 
			 "cosmo_dispersion_energy": -34.7, 
			 "cosmo_repulsion_energy": 2.82, 
			 "cosmo_total_nonelectrostatic_energy": 19.94, 
			 "SMD_solvation_energy": 7.94 
		},
		"coords": [
			{
				"x": 2.4238130016,
				"y": -4.8098980597,
				"z": 1.2826773337,
				"element": "C" 
			},
			{
				"x": 2.6031069742,
				"y": -4.4602593991,
				"z": 2.7663433166,
				"element": "C" 
			},
			{
				"x": 1.8202220984,
				"y": -3.2193835163,
				"z": 3.2507326638,
				"element": "C" 
			},
			{
				"x": 2.5512015176,
				"y": -1.8678112815,
				"z": 3.1529136417,
				"element": "C" 
			},
			{
				"x": 2.9171047136,
				"y": -1.3955869858,
				"z": 1.7359618564,
				"element": "C" 
			},
			{
				"x": 3.5151601603,
				"y": 0.0298506979,
				"z": 1.6712875136,
				"element": "C" 
			},
			{
				"x": 2.5179085983,
				"y": 1.1628488084,
				"z": 1.3663788041,
				"element": "C" 
			},
			{
				"x": 1.4397238177,
				"y": 1.4056782834,
				"z": 2.4352910164,
				"element": "C" 
			},
			{
				"x": 0.5337912541,
				"y": 2.6331960271,
				"z": 2.1873566701,
				"element": "C" 
			},
			{
				"x": -0.7527497367,
				"y": 2.3834495788,
				"z": 1.3783396902,
				"element": "C" 
			},
			{
				"x": -0.555662741,
				"y": 1.9844791353,
				"z": -0.0922890077,
				"element": "C" 
			},
			{
				"x": -1.8525409352,
				"y": 1.9591579446,
				"z": -0.9210303951,
				"element": "C" 
			},
			{
				"x": -2.854460377,
				"y": 0.8724705749,
				"z": -0.5023791955,
				"element": "C" 
			},
			{
				"x": -4.1634748751,
				"y": 0.86315383,
				"z": -1.3122003263,
				"element": "C" 
			},
			{
				"x": -4.03168105,
				"y": 0.5624532579,
				"z": -2.8155363992,
				"element": "C" 
			},
			{
				"x": -3.473722214,
				"y": -0.8433263262,
				"z": -3.1167045337,
				"element": "C" 
			},
			{
				"x": -3.4829850568,
				"y": -1.2040057854,
				"z": -4.5959247026,
				"element": "C" 
			},
			{
				"x": -2.7864478352,
				"y": -0.3631239004,
				"z": -5.4134910353,
				"element": "O" 
			},
			{
				"x": -4.0519203534,
				"y": -2.1577316956,
				"z": -5.063432391,
				"element": "O" 
			},
			{
				"x": 2.9836418421,
				"y": -5.7146782169,
				"z": 1.0219467365,
				"element": "H" 
			},
			{
				"x": 1.3685640637,
				"y": -4.9975751611,
				"z": 1.0526754285,
				"element": "H" 
			},
			{
				"x": 2.7653888655,
				"y": -4.0084173746,
				"z": 0.6216099873,
				"element": "H" 
			},
			{
				"x": 2.2841715709,
				"y": -5.3276762803,
				"z": 3.3578490017,
				"element": "H" 
			},
			{
				"x": 3.6705572805,
				"y": -4.326060397,
				"z": 2.9900814859,
				"element": "H" 
			},
			{
				"x": 1.5529058586,
				"y": -3.3665032366,
				"z": 4.3049211479,
				"element": "H" 
			},
			{
				"x": 0.8654487795,
				"y": -3.1594370204,
				"z": 2.7083491338,
				"element": "H" 
			},
			{
				"x": 3.472836059,
				"y": -1.920261166,
				"z": 3.7505952279,
				"element": "H" 
			},
			{
				"x": 1.9268040868,
				"y": -1.1082800429,
				"z": 3.6387789342,
				"element": "H" 
			},
			{
				"x": 3.6412688905,
				"y": -2.0994239762,
				"z": 1.3102103435,
				"element": "H" 
			},
			{
				"x": 2.0306801962,
				"y": -1.4499666221,
				"z": 1.0873176229,
				"element": "H" 
			},
			{
				"x": 4.2861458491,
				"y": 0.0559218103,
				"z": 0.8912377253,
				"element": "H" 
			},
			{
				"x": 4.0389859275,
				"y": 0.2477061141,
				"z": 2.6130690389,
				"element": "H" 
			},
			{
				"x": 3.0861489025,
				"y": 2.0945076939,
				"z": 1.2362940385,
				"element": "H" 
			},
			{
				"x": 2.0482575875,
				"y": 0.962287757,
				"z": 0.3952696778,
				"element": "H" 
			},
			{
				"x": 0.8090778881,
				"y": 0.513849172,
				"z": 2.5478942567,
				"element": "H" 
			},
			{
				"x": 1.9481877918,
				"y": 1.5355113221,
				"z": 3.4001434211,
				"element": "H" 
			},
			{
				"x": 1.120597529,
				"y": 3.4279415558,
				"z": 1.7047507593,
				"element": "H" 
			},
			{
				"x": 0.228706332,
				"y": 3.0390446501,
				"z": 3.160006895,
				"element": "H" 
			},
			{
				"x": -1.3568870808,
				"y": 3.3015402026,
				"z": 1.4079446856,
				"element": "H" 
			},
			{
				"x": -1.3452677967,
				"y": 1.6171130178,
				"z": 1.8956644665,
				"element": "H" 
			},
			{
				"x": 0.1439578361,
				"y": 2.6909688552,
				"z": -0.5590105509,
				"element": "H" 
			},
			{
				"x": -0.0776008567,
				"y": 0.9981961106,
				"z": -0.1528419643,
				"element": "H" 
			},
			{
				"x": -2.3408061092,
				"y": 2.9427733873,
				"z": -0.8609135612,
				"element": "H" 
			},
			{
				"x": -1.5821395781,
				"y": 1.8220173699,
				"z": -1.9766212886,
				"element": "H" 
			},
			{
				"x": -3.1175543059,
				"y": 1.008100614,
				"z": 0.5532241156,
				"element": "H" 
			},
			{
				"x": -2.3672053908,
				"y": -0.1108618311,
				"z": -0.5609728004,
				"element": "H" 
			},
			{
				"x": -4.655497853,
				"y": 1.8383526351,
				"z": -1.2003273859,
				"element": "H" 
			},
			{
				"x": -4.8474821326,
				"y": 0.1264923932,
				"z": -0.8707976495,
				"element": "H" 
			},
			{
				"x": -5.0209459789,
				"y": 0.654884142,
				"z": -3.2791961242,
				"element": "H" 
			},
			{
				"x": -3.4064202115,
				"y": 1.3318102576,
				"z": -3.2890247905,
				"element": "H" 
			},
			{
				"x": -4.0671566032,
				"y": -1.6053309416,
				"z": -2.6058462775,
				"element": "H" 
			},
			{
				"x": -2.442992843,
				"y": -0.9301876949,
				"z": -2.747635508,
				"element": "H" 
			},
			{
				"x": -2.3832633582,
				"y": 0.3479297128,
				"z": -4.8960407499,
				"element": "H" 
			}
		],
		 "valence_orbital": [ 
			{
				"type": "occ",
				"energy": -0.30982,
				"method": "rhf"
			},
			{
				"type": "occ",
				"energy": -0.30508,
				"method": "rhf"
			},
			{
				"type": "occ",
				"energy": -0.29858,
				"method": "rhf"
			},
			{
				"type": "occ",
				"energy": -0.29614,
				"method": "rhf"
			},
			{
				"type": "occ",
				"energy": -0.26364,
				"method": "rhf"
			},
			{
				"type": "unocc",
				"energy": 0.01281,
				"method": "rhf"
			},
			{
				"type": "unocc",
				"energy": 0.03909,
				"method": "rhf"
			},
			{
				"type": "unocc",
				"energy": 0.07573,
				"method": "rhf"
			},
			{
				"type": "unocc",
				"energy": 0.08333,
				"method": "rhf"
			},
			{
				"type": "unocc",
				"energy": 0.09109,
				"method": "rhf"
			}
		],
		"cosmo_sigma_profile": { 
			"-0.025": 0.0,
			"-0.024": 0.0,
			"-0.023": 0.0,
			"-0.022": 0.0,
			"-0.021": 0.0,
			"-0.02": 0.0,
			"-0.019": 0.0,
			"-0.018": 0.0597925398417,
			"-0.017": 0.665997320374,
			"-0.016": 1.21996660094,
			"-0.015": 0.875963013675,
			"-0.014": 1.53561845187,
			"-0.013": 0.708437340416,
			"-0.012": 1.41620641353,
			"-0.011": 1.3147750263,
			"-0.01": 0.78828015601,
			"-0.009": 0.730085720009,
			"-0.008": 1.12728403927,
			"-0.007": 2.80686207331,
			"-0.006": 3.4247888358,
			"-0.005": 4.57479370633,
			"-0.004": 9.83262408283,
			"-0.003": 14.1450666304,
			"-0.002": 45.367717312,
			"-0.001": 85.1804112495,
			"0.0": 90.9972728591,
			"0.001": 67.5159082742,
			"0.002": 26.7397263705,
			"0.003": 2.44531424174,
			"0.004": 2.0743233585,
			"0.005": 1.57999456542,
			"0.006": 2.36368695273,
			"0.007": 2.21367985573,
			"0.008": 2.53431632578,
			"0.009": 2.94116836339,
			"0.01": 3.92777803599,
			"0.011": 5.99248029515,
			"0.012": 5.85011804914,
			"0.013": 3.61367140958,
			"0.014": 0.448139784602,
			"0.015": 0.0,
			"0.016": 0.0,
			"0.017": 0.0,
			"0.018": 0.0,
			"0.019": 0.0,
			"0.02": 0.0,
			"0.021": 0.0,
			"0.022": 0.0,
			"0.023": 0.0,
			"0.024": 0.0,
			"0.025": 0.0
		}
	}
}
