{
	 "smiles": "NC(CC1=CN=CC=C1)=NO", 
	 "Tm": 423.15, 
	 "num_atms": 20, 
	 "gaussian": { 
		 "optdone": 1, 
		 "sigma_profile": "yes", 
		 "theory": "DFT", 
		 "functional": "B3LYP", 
		 "basiset": "6-31G**", 
		 "properties": { 
			 "R2extent": 2221.8375, 
			 "electric_dipole_moment_norm": 3.5261933044, 
			 "electric_quadrupole_moment_norm": 10.1550206401, 
			 "total_energy": -511.590930542, 
			 "HOMO_LUMO_gap": 0.18932, 
			 "cosmo_polarized_energy": -15.78, 
			 "cosmo_cavitation_energy": 24.51, 
			 "cosmo_dispersion_energy": -17.77, 
			 "cosmo_repulsion_energy": 1.46, 
			 "cosmo_total_nonelectrostatic_energy": 8.2, 
			 "SMD_solvation_energy": 2.68 
		},
		"coords": [
			{
				"x": -0.2048536372,
				"y": -0.3193241079,
				"z": 1.8149148982,
				"element": "N" 
			},
			{
				"x": 0.9921872104,
				"y": -0.0702794646,
				"z": 1.1931543282,
				"element": "C" 
			},
			{
				"x": 1.1053135854,
				"y": -0.3514101914,
				"z": -0.285949041,
				"element": "C" 
			},
			{
				"x": 0.1309097956,
				"y": 0.4388547033,
				"z": -1.1410029649,
				"element": "C" 
			},
			{
				"x": 0.0942376051,
				"y": 1.8404492873,
				"z": -1.0784948171,
				"element": "C" 
			},
			{
				"x": -0.718882719,
				"y": 2.6056217289,
				"z": -1.8118872654,
				"element": "N" 
			},
			{
				"x": -1.552083415,
				"y": 1.9852143283,
				"z": -2.6589747089,
				"element": "C" 
			},
			{
				"x": -1.6050496684,
				"y": 0.6002062853,
				"z": -2.8051695912,
				"element": "C" 
			},
			{
				"x": -0.7472504487,
				"y": -0.1821274419,
				"z": -2.0311337046,
				"element": "C" 
			},
			{
				"x": 2.0298323829,
				"y": 0.4348919899,
				"z": 1.7725502722,
				"element": "N" 
			},
			{
				"x": 1.7465935604,
				"y": 0.6206327117,
				"z": 3.1615384511,
				"element": "O" 
			},
			{
				"x": -0.8463316213,
				"y": -0.9634193584,
				"z": 1.3813931828,
				"element": "H" 
			},
			{
				"x": -0.1870549495,
				"y": -0.2989764043,
				"z": 2.823854623,
				"element": "H" 
			},
			{
				"x": 2.137376762,
				"y": -0.1242132927,
				"z": -0.569471965,
				"element": "H" 
			},
			{
				"x": 0.9529645372,
				"y": -1.4246633952,
				"z": -0.4621842696,
				"element": "H" 
			},
			{
				"x": 0.7600870387,
				"y": 2.3625152111,
				"z": -0.3924786989,
				"element": "H" 
			},
			{
				"x": -2.205443194,
				"y": 2.6277533486,
				"z": -3.2466995618,
				"element": "H" 
			},
			{
				"x": -2.2986504677,
				"y": 0.1465843015,
				"z": -3.506552996,
				"element": "H" 
			},
			{
				"x": -0.7569324094,
				"y": -1.2662269498,
				"z": -2.1222873774,
				"element": "H" 
			},
			{
				"x": 2.5873300525,
				"y": 0.9598167104,
				"z": 3.4904812064,
				"element": "H" 
			}
		],
		 "valence_orbital": [ 
			{
				"type": "occ",
				"energy": -0.28404,
				"method": "rhf"
			},
			{
				"type": "occ",
				"energy": -0.27145,
				"method": "rhf"
			},
			{
				"type": "occ",
				"energy": -0.25359,
				"method": "rhf"
			},
			{
				"type": "occ",
				"energy": -0.24968,
				"method": "rhf"
			},
			{
				"type": "occ",
				"energy": -0.21171,
				"method": "rhf"
			},
			{
				"type": "unocc",
				"energy": -0.02239,
				"method": "rhf"
			},
			{
				"type": "unocc",
				"energy": -0.01251,
				"method": "rhf"
			},
			{
				"type": "unocc",
				"energy": 0.03813,
				"method": "rhf"
			},
			{
				"type": "unocc",
				"energy": 0.07291,
				"method": "rhf"
			},
			{
				"type": "unocc",
				"energy": 0.09479,
				"method": "rhf"
			}
		],
		"cosmo_sigma_profile": { 
			"-0.025": 0.0,
			"-0.024": 0.0,
			"-0.023": 0.0,
			"-0.022": 0.0,
			"-0.021": 0.0,
			"-0.02": 0.0,
			"-0.019": 0.0,
			"-0.018": 0.0,
			"-0.017": 0.0261342866983,
			"-0.016": 1.29647074212,
			"-0.015": 0.48269470833,
			"-0.014": 0.977715576023,
			"-0.013": 1.92724067667,
			"-0.012": 2.38633767565,
			"-0.011": 2.76994950873,
			"-0.01": 3.03765137734,
			"-0.009": 2.58976610096,
			"-0.008": 3.29027971355,
			"-0.007": 8.57711842384,
			"-0.006": 11.6130732188,
			"-0.005": 13.8779854871,
			"-0.004": 11.2029439672,
			"-0.003": 10.4497940732,
			"-0.002": 11.7947193786,
			"-0.001": 8.41503192871,
			"0.0": 10.4541772066,
			"0.001": 9.67362694234,
			"0.002": 12.2227557092,
			"0.003": 14.4171608421,
			"0.004": 7.5138226576,
			"0.005": 5.60075798034,
			"0.006": 6.45205272278,
			"0.007": 4.88740914025,
			"0.008": 5.93299510921,
			"0.009": 5.86393121795,
			"0.01": 4.65576196252,
			"0.011": 2.93969552227,
			"0.012": 1.37282294387,
			"0.013": 2.12387112238,
			"0.014": 2.34332050377,
			"0.015": 1.6862879348,
			"0.016": 0.890256355112,
			"0.017": 0.433415180305,
			"0.018": 0.0,
			"0.019": 0.0,
			"0.02": 0.0,
			"0.021": 0.0,
			"0.022": 0.0,
			"0.023": 0.0,
			"0.024": 0.0,
			"0.025": 0.0
		}
	}
}
