{
	 "smiles": "CC1=C(C=CC=N1)C(O)=O", 
	 "Tm": 505.15, 
	 "num_atms": 17, 
	 "gaussian": { 
		 "optdone": 1, 
		 "sigma_profile": "yes", 
		 "theory": "DFT", 
		 "functional": "B3LYP", 
		 "basiset": "6-31G**", 
		 "properties": { 
			 "R2extent": 1615.5846, 
			 "electric_dipole_moment_norm": 2.59123826191, 
			 "electric_quadrupole_moment_norm": 4.36346020837, 
			 "total_energy": -476.180102191, 
			 "HOMO_LUMO_gap": 0.20049, 
			 "cosmo_polarized_energy": -9.62, 
			 "cosmo_cavitation_energy": 21.17, 
			 "cosmo_dispersion_energy": -15.92, 
			 "cosmo_repulsion_energy": 1.28, 
			 "cosmo_total_nonelectrostatic_energy": 6.54, 
			 "SMD_solvation_energy": 3.7 
		},
		"coords": [
			{
				"x": 2.1402700237,
				"y": -1.8293696882,
				"z": -0.9433839864,
				"element": "C" 
			},
			{
				"x": 0.7714635862,
				"y": -1.2115636287,
				"z": -1.063224458,
				"element": "C" 
			},
			{
				"x": -0.0345844081,
				"y": -0.8583746785,
				"z": 0.0491227249,
				"element": "C" 
			},
			{
				"x": -1.2937984011,
				"y": -0.2888067972,
				"z": -0.1869547648,
				"element": "C" 
			},
			{
				"x": -1.7208293475,
				"y": -0.0845314916,
				"z": -1.4926015742,
				"element": "C" 
			},
			{
				"x": -0.8600511515,
				"y": -0.4631333387,
				"z": -2.5215877139,
				"element": "C" 
			},
			{
				"x": 0.3440990575,
				"y": -1.0075993942,
				"z": -2.3212354043,
				"element": "N" 
			},
			{
				"x": 0.4265808113,
				"y": -1.0787714737,
				"z": 1.4448244779,
				"element": "C" 
			},
			{
				"x": -0.4891080861,
				"y": -0.6757076603,
				"z": 2.3661161273,
				"element": "O" 
			},
			{
				"x": 1.4898624248,
				"y": -1.5618778658,
				"z": 1.7831886842,
				"element": "O" 
			},
			{
				"x": 2.8214391816,
				"y": -1.1844634772,
				"z": -0.3811890935,
				"element": "H" 
			},
			{
				"x": 2.1047686102,
				"y": -2.7752442144,
				"z": -0.3956349438,
				"element": "H" 
			},
			{
				"x": 2.5302458515,
				"y": -1.995940645,
				"z": -1.9482679872,
				"element": "H" 
			},
			{
				"x": -1.9196737098,
				"y": -0.0143804952,
				"z": 0.6541639675,
				"element": "H" 
			},
			{
				"x": -2.6893713072,
				"y": 0.3538893631,
				"z": -1.7091438806,
				"element": "H" 
			},
			{
				"x": -1.1495564745,
				"y": -0.3232759021,
				"z": -3.5621232936,
				"element": "H" 
			},
			{
				"x": -0.0869566611,
				"y": -0.8654486123,
				"z": 3.2295311184,
				"element": "H" 
			}
		],
		 "valence_orbital": [ 
			{
				"type": "occ",
				"energy": -0.32439,
				"method": "rhf"
			},
			{
				"type": "occ",
				"energy": -0.29382,
				"method": "rhf"
			},
			{
				"type": "occ",
				"energy": -0.28018,
				"method": "rhf"
			},
			{
				"type": "occ",
				"energy": -0.26447,
				"method": "rhf"
			},
			{
				"type": "occ",
				"energy": -0.25868,
				"method": "rhf"
			},
			{
				"type": "unocc",
				"energy": -0.05819,
				"method": "rhf"
			},
			{
				"type": "unocc",
				"energy": -0.02426,
				"method": "rhf"
			},
			{
				"type": "unocc",
				"energy": 0.04553,
				"method": "rhf"
			},
			{
				"type": "unocc",
				"energy": 0.07509,
				"method": "rhf"
			},
			{
				"type": "unocc",
				"energy": 0.10456,
				"method": "rhf"
			}
		],
		"cosmo_sigma_profile": { 
			"-0.025": 0.0,
			"-0.024": 0.0,
			"-0.023": 0.0,
			"-0.022": 0.0,
			"-0.021": 0.0,
			"-0.02": 0.0,
			"-0.019": 0.0228392613065,
			"-0.018": 0.971212708651,
			"-0.017": 0.486097742664,
			"-0.016": 0.926449674271,
			"-0.015": 1.08958165143,
			"-0.014": 0.551312170861,
			"-0.013": 0.306291080815,
			"-0.012": 0.683755834859,
			"-0.011": 1.07779496356,
			"-0.01": 0.754945882465,
			"-0.009": 0.326257535846,
			"-0.008": 1.07624742847,
			"-0.007": 5.99454993786,
			"-0.006": 7.67721382464,
			"-0.005": 6.70717656299,
			"-0.004": 8.31946443494,
			"-0.003": 12.3398881894,
			"-0.002": 15.0062661198,
			"-0.001": 14.7296371416,
			"0.0": 20.719561813,
			"0.001": 16.5849004331,
			"0.002": 11.6645397237,
			"0.003": 5.15189089271,
			"0.004": 4.41423753159,
			"0.005": 4.4184917064,
			"0.006": 5.21900945567,
			"0.007": 4.00279251381,
			"0.008": 3.08643108588,
			"0.009": 2.31348157185,
			"0.01": 2.76563959516,
			"0.011": 4.12320792501,
			"0.012": 3.02683457519,
			"0.013": 0.53767555046,
			"0.014": 0.952406217381,
			"0.015": 0.745148178012,
			"0.016": 0.246870375544,
			"0.017": 0.0,
			"0.018": 0.0,
			"0.019": 0.0,
			"0.02": 0.0,
			"0.021": 0.0,
			"0.022": 0.0,
			"0.023": 0.0,
			"0.024": 0.0,
			"0.025": 0.0
		}
	}
}
