{
	 "smiles": "OC(=O)C1=CC(=CS1)C(O)=O", 
	 "Tm": 553.15, 
	 "num_atms": 15, 
	 "gaussian": { 
		 "optdone": 1, 
		 "sigma_profile": "yes", 
		 "theory": "DFT", 
		 "functional": "B3LYP", 
		 "basiset": "6-31G**", 
		 "properties": { 
			 "R2extent": 4039.988, 
			 "electric_dipole_moment_norm": 2.04030518551, 
			 "electric_quadrupole_moment_norm": 4.13449489176, 
			 "total_energy": -930.150244711, 
			 "HOMO_LUMO_gap": 0.19336, 
			 "cosmo_polarized_energy": -13.9, 
			 "cosmo_cavitation_energy": 22.8, 
			 "cosmo_dispersion_energy": -17.27, 
			 "cosmo_repulsion_energy": 1.35, 
			 "cosmo_total_nonelectrostatic_energy": 6.88, 
			 "SMD_solvation_energy": 6.52 
		},
		"coords": [
			{
				"x": 1.9991025527,
				"y": -0.1049672509,
				"z": 0.3403874526,
				"element": "O" 
			},
			{
				"x": 2.0004635243,
				"y": -0.6587925503,
				"z": -0.8958245477,
				"element": "C" 
			},
			{
				"x": 2.8281024293,
				"y": -0.3879277823,
				"z": -1.7441595193,
				"element": "O" 
			},
			{
				"x": 0.8964318327,
				"y": -1.6083068298,
				"z": -1.0809546496,
				"element": "C" 
			},
			{
				"x": -0.0875723077,
				"y": -1.9872010507,
				"z": -0.2017648818,
				"element": "C" 
			},
			{
				"x": -0.9816226977,
				"y": -2.9425106366,
				"z": -0.7677829608,
				"element": "C" 
			},
			{
				"x": -0.6512203141,
				"y": -3.2651687138,
				"z": -2.0678853418,
				"element": "C" 
			},
			{
				"x": 0.7357878236,
				"y": -2.42277438,
				"z": -2.6186044097,
				"element": "S" 
			},
			{
				"x": -2.1468619737,
				"y": -3.5572514272,
				"z": -0.0976766644,
				"element": "C" 
			},
			{
				"x": -2.3028194152,
				"y": -3.1106487346,
				"z": 1.1730537146,
				"element": "O" 
			},
			{
				"x": -2.8926738906,
				"y": -4.3700695316,
				"z": -0.6051046771,
				"element": "O" 
			},
			{
				"x": 2.7580669724,
				"y": 0.501229258,
				"z": 0.3618166913,
				"element": "H" 
			},
			{
				"x": -0.1681696287,
				"y": -1.5996861782,
				"z": 0.8051839097,
				"element": "H" 
			},
			{
				"x": -1.1779404101,
				"y": -3.9634030365,
				"z": -2.7038072231,
				"element": "H" 
			},
			{
				"x": -3.0851744973,
				"y": -3.5677211553,
				"z": 1.5240231071,
				"element": "H" 
			}
		],
		 "valence_orbital": [ 
			{
				"type": "occ",
				"energy": -0.32676,
				"method": "rhf"
			},
			{
				"type": "occ",
				"energy": -0.29414,
				"method": "rhf"
			},
			{
				"type": "occ",
				"energy": -0.28355,
				"method": "rhf"
			},
			{
				"type": "occ",
				"energy": -0.27902,
				"method": "rhf"
			},
			{
				"type": "occ",
				"energy": -0.26359,
				"method": "rhf"
			},
			{
				"type": "unocc",
				"energy": -0.07023,
				"method": "rhf"
			},
			{
				"type": "unocc",
				"energy": -0.03889,
				"method": "rhf"
			},
			{
				"type": "unocc",
				"energy": 0.01329,
				"method": "rhf"
			},
			{
				"type": "unocc",
				"energy": 0.06617,
				"method": "rhf"
			},
			{
				"type": "unocc",
				"energy": 0.06846,
				"method": "rhf"
			}
		],
		"cosmo_sigma_profile": { 
			"-0.025": 0.0,
			"-0.024": 0.0,
			"-0.023": 0.0,
			"-0.022": 0.0,
			"-0.021": 0.0,
			"-0.02": 0.0,
			"-0.019": 0.688875128555,
			"-0.018": 1.758325587,
			"-0.017": 2.3491427293,
			"-0.016": 1.26388051482,
			"-0.015": 1.31900568219,
			"-0.014": 0.976480821508,
			"-0.013": 1.32185346855,
			"-0.012": 1.54160175351,
			"-0.011": 2.23458426248,
			"-0.01": 2.81112305024,
			"-0.009": 3.33771270956,
			"-0.008": 2.40920470337,
			"-0.007": 4.33131785247,
			"-0.006": 4.30646139831,
			"-0.005": 3.89454817195,
			"-0.004": 5.19986877273,
			"-0.003": 9.65270367454,
			"-0.002": 13.3037815863,
			"-0.001": 15.613413838,
			"0.0": 25.3799953888,
			"0.001": 18.6273089222,
			"0.002": 9.39871172889,
			"0.003": 5.77588775122,
			"0.004": 4.99153199275,
			"0.005": 5.15433432807,
			"0.006": 5.30089334465,
			"0.007": 6.70161171208,
			"0.008": 3.18810822731,
			"0.009": 3.53976342411,
			"0.01": 4.55878891882,
			"0.011": 9.62955514178,
			"0.012": 4.486251207,
			"0.013": 0.0,
			"0.014": 0.0,
			"0.015": 0.0,
			"0.016": 0.0,
			"0.017": 0.0,
			"0.018": 0.0,
			"0.019": 0.0,
			"0.02": 0.0,
			"0.021": 0.0,
			"0.022": 0.0,
			"0.023": 0.0,
			"0.024": 0.0,
			"0.025": 0.0
		}
	}
}
