{
	 "smiles": "OC(=O)C1=CC=CN=C1F", 
	 "Tm": 437.15, 
	 "num_atms": 14, 
	 "gaussian": { 
		 "optdone": 1, 
		 "sigma_profile": "yes", 
		 "theory": "DFT", 
		 "functional": "B3LYP", 
		 "basiset": "6-31G**", 
		 "properties": { 
			 "R2extent": 1881.096, 
			 "electric_dipole_moment_norm": 5.8850754719, 
			 "electric_quadrupole_moment_norm": 13.8164363625, 
			 "total_energy": -536.080017963, 
			 "HOMO_LUMO_gap": 0.20548, 
			 "cosmo_polarized_energy": -17.46, 
			 "cosmo_cavitation_energy": 19.66, 
			 "cosmo_dispersion_energy": -14.51, 
			 "cosmo_repulsion_energy": 1.16, 
			 "cosmo_total_nonelectrostatic_energy": 6.3, 
			 "SMD_solvation_energy": 3.65 
		},
		"coords": [
			{
				"x": 3.0282029633,
				"y": 0.7098166193,
				"z": -2.2307541409,
				"element": "O" 
			},
			{
				"x": 1.7627575865,
				"y": 1.2114514339,
				"z": -2.2951525086,
				"element": "C" 
			},
			{
				"x": 1.4250224681,
				"y": 1.9041706416,
				"z": -3.2196746071,
				"element": "O" 
			},
			{
				"x": 0.8809852415,
				"y": 0.8712776309,
				"z": -1.129737089,
				"element": "C" 
			},
			{
				"x": 1.366002339,
				"y": 0.8152104129,
				"z": 0.1812696931,
				"element": "C" 
			},
			{
				"x": 0.4902847219,
				"y": 0.5647526514,
				"z": 1.2373254999,
				"element": "C" 
			},
			{
				"x": -0.8558379697,
				"y": 0.3703425904,
				"z": 0.9373771026,
				"element": "C" 
			},
			{
				"x": -1.3457510704,
				"y": 0.4105283058,
				"z": -0.3103183672,
				"element": "N" 
			},
			{
				"x": -0.5015280034,
				"y": 0.6607970492,
				"z": -1.2866580613,
				"element": "C" 
			},
			{
				"x": -1.018967155,
				"y": 0.6780328344,
				"z": -2.5134613401,
				"element": "F" 
			},
			{
				"x": 3.0886862166,
				"y": 0.0402975169,
				"z": -1.5349258745,
				"element": "H" 
			},
			{
				"x": 2.4193101778,
				"y": 0.9993863195,
				"z": 0.3758648859,
				"element": "H" 
			},
			{
				"x": 0.8403693829,
				"y": 0.5294701774,
				"z": 2.2628927515,
				"element": "H" 
			},
			{
				"x": -1.579336899,
				"y": 0.1745658164,
				"z": 1.7254520558,
				"element": "H" 
			}
		],
		 "valence_orbital": [ 
			{
				"type": "occ",
				"energy": -0.33144,
				"method": "rhf"
			},
			{
				"type": "occ",
				"energy": -0.31771,
				"method": "rhf"
			},
			{
				"type": "occ",
				"energy": -0.30011,
				"method": "rhf"
			},
			{
				"type": "occ",
				"energy": -0.28629,
				"method": "rhf"
			},
			{
				"type": "occ",
				"energy": -0.27563,
				"method": "rhf"
			},
			{
				"type": "unocc",
				"energy": -0.07015,
				"method": "rhf"
			},
			{
				"type": "unocc",
				"energy": -0.04081,
				"method": "rhf"
			},
			{
				"type": "unocc",
				"energy": 0.02026,
				"method": "rhf"
			},
			{
				"type": "unocc",
				"energy": 0.05544,
				"method": "rhf"
			},
			{
				"type": "unocc",
				"energy": 0.08632,
				"method": "rhf"
			}
		],
		"cosmo_sigma_profile": { 
			"-0.025": 0.0,
			"-0.024": 0.0,
			"-0.023": 0.0,
			"-0.022": 0.0,
			"-0.021": 0.0,
			"-0.02": 0.041709527543,
			"-0.019": 0.837440598215,
			"-0.018": 0.980393878912,
			"-0.017": 1.06853133085,
			"-0.016": 1.15343728392,
			"-0.015": 0.830215888948,
			"-0.014": 0.618470454552,
			"-0.013": 1.30653646376,
			"-0.012": 1.75783912083,
			"-0.011": 0.919914183921,
			"-0.01": 1.75803746311,
			"-0.009": 2.71029479237,
			"-0.008": 7.55053162295,
			"-0.007": 9.02641990157,
			"-0.006": 6.31795592459,
			"-0.005": 5.54483702195,
			"-0.004": 6.48472353637,
			"-0.003": 8.02294824295,
			"-0.002": 9.72036840206,
			"-0.001": 10.5511739926,
			"0.0": 9.89636735837,
			"0.001": 7.68980337262,
			"0.002": 5.57857984528,
			"0.003": 8.53881418804,
			"0.004": 6.97581440743,
			"0.005": 5.14107084873,
			"0.006": 4.12368072567,
			"0.007": 4.06852635166,
			"0.008": 4.94460869267,
			"0.009": 5.79954270618,
			"0.01": 6.6614330038,
			"0.011": 6.87657663823,
			"0.012": 3.50003419359,
			"0.013": 1.23535619448,
			"0.014": 0.421710266297,
			"0.015": 0.0,
			"0.016": 0.0,
			"0.017": 0.0,
			"0.018": 0.0,
			"0.019": 0.0,
			"0.02": 0.0,
			"0.021": 0.0,
			"0.022": 0.0,
			"0.023": 0.0,
			"0.024": 0.0,
			"0.025": 0.0
		}
	}
}
