{
	 "smiles": "CC1=C(C=CC(F)=C1)N1C=C(N=N1)C(O)=O", 
	 "Tm": 403.15, 
	 "num_atms": 24, 
	 "gaussian": { 
		 "optdone": 1, 
		 "sigma_profile": "yes", 
		 "theory": "DFT", 
		 "functional": "B3LYP", 
		 "basiset": "6-31G**", 
		 "properties": { 
			 "R2extent": 4647.2158, 
			 "electric_dipole_moment_norm": 4.87000283881, 
			 "electric_quadrupole_moment_norm": 25.0384848292, 
			 "total_energy": -800.397165332, 
			 "HOMO_LUMO_gap": 0.21129, 
			 "cosmo_polarized_energy": -15.58, 
			 "cosmo_cavitation_energy": 30.14, 
			 "cosmo_dispersion_energy": -21.54, 
			 "cosmo_repulsion_energy": 1.64, 
			 "cosmo_total_nonelectrostatic_energy": 10.25, 
			 "SMD_solvation_energy": 6.15 
		},
		"coords": [
			{
				"x": 0.7938726401,
				"y": -0.3625065523,
				"z": 2.6625679286,
				"element": "C" 
			},
			{
				"x": 0.5809135784,
				"y": -1.3690517799,
				"z": 1.5567954695,
				"element": "C" 
			},
			{
				"x": 0.4173615195,
				"y": -1.0052290849,
				"z": 0.2071737785,
				"element": "C" 
			},
			{
				"x": 0.2677244547,
				"y": -1.9634738801,
				"z": -0.800118698,
				"element": "C" 
			},
			{
				"x": 0.2599751252,
				"y": -3.3176324775,
				"z": -0.4847187217,
				"element": "C" 
			},
			{
				"x": 0.3977656112,
				"y": -3.6782940919,
				"z": 0.8507026347,
				"element": "C" 
			},
			{
				"x": 0.3849368889,
				"y": -4.9823822911,
				"z": 1.1808814999,
				"element": "F" 
			},
			{
				"x": 0.5574053765,
				"y": -2.7359481221,
				"z": 1.8587344022,
				"element": "C" 
			},
			{
				"x": 0.4307681347,
				"y": 0.3690894261,
				"z": -0.191956555,
				"element": "N" 
			},
			{
				"x": -0.3087492678,
				"y": 1.4090987409,
				"z": 0.2666702381,
				"element": "C" 
			},
			{
				"x": 0.0815820973,
				"y": 2.4746565271,
				"z": -0.5147359665,
				"element": "C" 
			},
			{
				"x": 1.0200702411,
				"y": 2.0368616775,
				"z": -1.40374123,
				"element": "N" 
			},
			{
				"x": 1.2397129057,
				"y": 0.7714193394,
				"z": -1.2198627721,
				"element": "N" 
			},
			{
				"x": -0.3735437398,
				"y": 3.883785478,
				"z": -0.4881233988,
				"element": "C" 
			},
			{
				"x": 0.2186750615,
				"y": 4.6664636063,
				"z": -1.4131346312,
				"element": "O" 
			},
			{
				"x": -1.2005455945,
				"y": 4.3019904729,
				"z": 0.2889823954,
				"element": "O" 
			},
			{
				"x": 1.2757253944,
				"y": -0.838746124,
				"z": 3.5195097733,
				"element": "H" 
			},
			{
				"x": -0.1532904143,
				"y": 0.0601040745,
				"z": 3.0181376707,
				"element": "H" 
			},
			{
				"x": 1.4227172626,
				"y": 0.4711968466,
				"z": 2.3388510673,
				"element": "H" 
			},
			{
				"x": 0.1637300353,
				"y": -1.633717193,
				"z": -1.8273512666,
				"element": "H" 
			},
			{
				"x": 0.1458212547,
				"y": -4.0804218664,
				"z": -1.2461384676,
				"element": "H" 
			},
			{
				"x": 0.681112863,
				"y": -3.0763366672,
				"z": 2.881357769,
				"element": "H" 
			},
			{
				"x": -1.0367633911,
				"y": 1.3251642866,
				"z": 1.0560771407,
				"element": "H" 
			},
			{
				"x": 0.8455219626,
				"y": 4.1215096543,
				"z": -1.9232600602,
				"element": "H" 
			}
		],
		 "valence_orbital": [ 
			{
				"type": "occ",
				"energy": -0.30353,
				"method": "rhf"
			},
			{
				"type": "occ",
				"energy": -0.28645,
				"method": "rhf"
			},
			{
				"type": "occ",
				"energy": -0.28164,
				"method": "rhf"
			},
			{
				"type": "occ",
				"energy": -0.27528,
				"method": "rhf"
			},
			{
				"type": "occ",
				"energy": -0.26276,
				"method": "rhf"
			},
			{
				"type": "unocc",
				"energy": -0.05147,
				"method": "rhf"
			},
			{
				"type": "unocc",
				"energy": -0.03774,
				"method": "rhf"
			},
			{
				"type": "unocc",
				"energy": -0.03268,
				"method": "rhf"
			},
			{
				"type": "unocc",
				"energy": -0.01125,
				"method": "rhf"
			},
			{
				"type": "unocc",
				"energy": 0.07097,
				"method": "rhf"
			}
		],
		"cosmo_sigma_profile": { 
			"-0.025": 0.0,
			"-0.024": 0.0,
			"-0.023": 0.0,
			"-0.022": 0.0,
			"-0.021": 0.0,
			"-0.02": 0.0,
			"-0.019": 0.0,
			"-0.018": 0.0,
			"-0.017": 0.0,
			"-0.016": 0.021344242847,
			"-0.015": 0.473051893485,
			"-0.014": 0.48239568218,
			"-0.013": 0.321852052748,
			"-0.012": 1.12796753498,
			"-0.011": 3.44213522244,
			"-0.01": 2.8004019819,
			"-0.009": 2.25656659474,
			"-0.008": 5.28585228469,
			"-0.007": 9.44042304282,
			"-0.006": 12.369137209,
			"-0.005": 15.1022086853,
			"-0.004": 16.0057351862,
			"-0.003": 16.4525933077,
			"-0.002": 19.3594828406,
			"-0.001": 16.8861224026,
			"0.0": 17.8844557452,
			"0.001": 16.2868581684,
			"0.002": 15.2509903015,
			"0.003": 11.2554894757,
			"0.004": 13.1538432937,
			"0.005": 4.70539654961,
			"0.006": 4.73349128834,
			"0.007": 4.82929220456,
			"0.008": 6.14564833441,
			"0.009": 7.57300092694,
			"0.01": 7.04415703518,
			"0.011": 6.18726690802,
			"0.012": 4.56389810869,
			"0.013": 0.927884785685,
			"0.014": 0.0,
			"0.015": 0.0,
			"0.016": 0.0,
			"0.017": 0.0,
			"0.018": 0.0,
			"0.019": 0.0,
			"0.02": 0.0,
			"0.021": 0.0,
			"0.022": 0.0,
			"0.023": 0.0,
			"0.024": 0.0,
			"0.025": 0.0
		}
	}
}
