{
	 "smiles": "ON=CC1=CC(Cl)=C(Cl)C=C1", 
	 "Tm": 395.15, 
	 "num_atms": 16, 
	 "gaussian": { 
		 "optdone": 1, 
		 "sigma_profile": "yes", 
		 "theory": "DFT", 
		 "functional": "B3LYP", 
		 "basiset": "6-31G**", 
		 "properties": { 
			 "R2extent": 3452.4142, 
			 "electric_dipole_moment_norm": 2.38021407861, 
			 "electric_quadrupole_moment_norm": 5.99422632622, 
			 "total_energy": -1320.05205759, 
			 "HOMO_LUMO_gap": 0.18122, 
			 "cosmo_polarized_energy": -8.01, 
			 "cosmo_cavitation_energy": 24.37, 
			 "cosmo_dispersion_energy": -18.42, 
			 "cosmo_repulsion_energy": 1.48, 
			 "cosmo_total_nonelectrostatic_energy": 7.43, 
			 "SMD_solvation_energy": 3.81 
		},
		"coords": [
			{
				"x": -0.6639659161,
				"y": -1.8117155213,
				"z": 3.560135014,
				"element": "O" 
			},
			{
				"x": -1.3812829662,
				"y": -0.6390176184,
				"z": 3.8125134199,
				"element": "N" 
			},
			{
				"x": -1.0928054088,
				"y": 0.3324545086,
				"z": 3.0217989602,
				"element": "C" 
			},
			{
				"x": -0.1574632791,
				"y": 0.4681145118,
				"z": 1.8973366418,
				"element": "C" 
			},
			{
				"x": -0.1273048972,
				"y": 1.7222053682,
				"z": 1.2627129835,
				"element": "C" 
			},
			{
				"x": 0.718063497,
				"y": 1.9721075424,
				"z": 0.1855086251,
				"element": "C" 
			},
			{
				"x": 0.6979508842,
				"y": 3.5564603381,
				"z": -0.5504496938,
				"element": "Cl" 
			},
			{
				"x": 1.5619501907,
				"y": 0.9559695769,
				"z": -0.2837501036,
				"element": "C" 
			},
			{
				"x": 2.6410707933,
				"y": 1.2127850894,
				"z": -1.6291362923,
				"element": "Cl" 
			},
			{
				"x": 1.5403664482,
				"y": -0.294443748,
				"z": 0.3395577265,
				"element": "C" 
			},
			{
				"x": 0.6959898966,
				"y": -0.5438893849,
				"z": 1.4153661677,
				"element": "C" 
			},
			{
				"x": -1.0080927929,
				"y": -2.410520915,
				"z": 4.2359861698,
				"element": "H" 
			},
			{
				"x": -1.6750506995,
				"y": 1.2229267821,
				"z": 3.2561244224,
				"element": "H" 
			},
			{
				"x": -0.7727417094,
				"y": 2.5220006106,
				"z": 1.6107225644,
				"element": "H" 
			},
			{
				"x": 2.1969466457,
				"y": -1.0739359931,
				"z": -0.030881917,
				"element": "H" 
			},
			{
				"x": 0.6952693132,
				"y": -1.5173011472,
				"z": 1.8824553114,
				"element": "H" 
			}
		],
		 "valence_orbital": [ 
			{
				"type": "occ",
				"energy": -0.31433,
				"method": "rhf"
			},
			{
				"type": "occ",
				"energy": -0.29319,
				"method": "rhf"
			},
			{
				"type": "occ",
				"energy": -0.2835,
				"method": "rhf"
			},
			{
				"type": "occ",
				"energy": -0.26378,
				"method": "rhf"
			},
			{
				"type": "occ",
				"energy": -0.24172,
				"method": "rhf"
			},
			{
				"type": "unocc",
				"energy": -0.0605,
				"method": "rhf"
			},
			{
				"type": "unocc",
				"energy": -0.02722,
				"method": "rhf"
			},
			{
				"type": "unocc",
				"energy": -0.00167,
				"method": "rhf"
			},
			{
				"type": "unocc",
				"energy": 0.03573,
				"method": "rhf"
			},
			{
				"type": "unocc",
				"energy": 0.05853,
				"method": "rhf"
			}
		],
		"cosmo_sigma_profile": { 
			"-0.025": 0.0,
			"-0.024": 0.0,
			"-0.023": 0.0,
			"-0.022": 0.0,
			"-0.021": 0.0,
			"-0.02": 0.0,
			"-0.019": 0.0,
			"-0.018": 0.537956398497,
			"-0.017": 0.978659337164,
			"-0.016": 1.28363393937,
			"-0.015": 0.447312004507,
			"-0.014": 0.643858086901,
			"-0.013": 0.537283418937,
			"-0.012": 1.16116208987,
			"-0.011": 1.15298472554,
			"-0.01": 0.807697681496,
			"-0.009": 2.70728029958,
			"-0.008": 5.59577212814,
			"-0.007": 5.44413548759,
			"-0.006": 5.53458263976,
			"-0.005": 5.83954744535,
			"-0.004": 5.81879757949,
			"-0.003": 7.82528336358,
			"-0.002": 8.73369574275,
			"-0.001": 14.8847024061,
			"0.0": 21.2513300922,
			"0.001": 27.7477736056,
			"0.002": 22.6264802563,
			"0.003": 19.1351111026,
			"0.004": 19.0631607857,
			"0.005": 8.11553707169,
			"0.006": 3.02495039615,
			"0.007": 2.71139365428,
			"0.008": 1.97017528525,
			"0.009": 1.15863411133,
			"0.01": 1.01983969474,
			"0.011": 0.854566405588,
			"0.012": 1.06243178896,
			"0.013": 0.614528931178,
			"0.014": 0.0336879548075,
			"0.015": 0.0,
			"0.016": 0.0,
			"0.017": 0.0,
			"0.018": 0.0,
			"0.019": 0.0,
			"0.02": 0.0,
			"0.021": 0.0,
			"0.022": 0.0,
			"0.023": 0.0,
			"0.024": 0.0,
			"0.025": 0.0
		}
	}
}
