{
	 "smiles": "C1COCCN1", 
	 "Tm": 268.25, 
	 "num_atms": 15, 
	 "gaussian": { 
		 "optdone": 1, 
		 "sigma_profile": "yes", 
		 "theory": "DFT", 
		 "functional": "B3LYP", 
		 "basiset": "6-31G**", 
		 "properties": { 
			 "R2extent": 617.3359, 
			 "electric_dipole_moment_norm": 1.40767341738, 
			 "electric_quadrupole_moment_norm": 4.9152023407, 
			 "total_energy": -287.789836398, 
			 "HOMO_LUMO_gap": 0.28996, 
			 "cosmo_polarized_energy": -6.58, 
			 "cosmo_cavitation_energy": 16.4, 
			 "cosmo_dispersion_energy": -13.07, 
			 "cosmo_repulsion_energy": 1.13, 
			 "cosmo_total_nonelectrostatic_energy": 4.47, 
			 "SMD_solvation_energy": 0.15 
		},
		"coords": [
			{
				"x": -1.2263598847,
				"y": 0.0993779231,
				"z": -0.6146093192,
				"element": "C" 
			},
			{
				"x": -0.2167672847,
				"y": 0.7120842958,
				"z": -1.5789211114,
				"element": "C" 
			},
			{
				"x": 1.0992059368,
				"y": 0.7582058311,
				"z": -1.0307465893,
				"element": "O" 
			},
			{
				"x": 1.4261358955,
				"y": -0.3401769119,
				"z": -0.177033446,
				"element": "C" 
			},
			{
				"x": 0.5714354984,
				"y": -1.5709311832,
				"z": -0.4804257354,
				"element": "C" 
			},
			{
				"x": -0.8715773516,
				"y": -1.3071686261,
				"z": -0.3549771946,
				"element": "N" 
			},
			{
				"x": -2.2314144842,
				"y": 0.1556176137,
				"z": -1.0539674408,
				"element": "H" 
			},
			{
				"x": -1.2388840038,
				"y": 0.7150611123,
				"z": 0.3001199555,
				"element": "H" 
			},
			{
				"x": -0.491464892,
				"y": 1.7454071369,
				"z": -1.8130699937,
				"element": "H" 
			},
			{
				"x": -0.2233514425,
				"y": 0.1437064055,
				"z": -2.5225658785,
				"element": "H" 
			},
			{
				"x": 2.4914938307,
				"y": -0.5555899646,
				"z": -0.3246115175,
				"element": "H" 
			},
			{
				"x": 1.2902202756,
				"y": -0.0463495089,
				"z": 0.8770026161,
				"element": "H" 
			},
			{
				"x": 0.7945542368,
				"y": -1.9113059814,
				"z": -1.5007348626,
				"element": "H" 
			},
			{
				"x": 0.8472165761,
				"y": -2.3930091059,
				"z": 0.1882707519,
				"element": "H" 
			},
			{
				"x": -1.1907429064,
				"y": -1.5721290364,
				"z": 0.5704697656,
				"element": "H" 
			}
		],
		 "valence_orbital": [ 
			{
				"type": "occ",
				"energy": -0.37123,
				"method": "rhf"
			},
			{
				"type": "occ",
				"energy": -0.36782,
				"method": "rhf"
			},
			{
				"type": "occ",
				"energy": -0.29861,
				"method": "rhf"
			},
			{
				"type": "occ",
				"energy": -0.24196,
				"method": "rhf"
			},
			{
				"type": "occ",
				"energy": -0.21508,
				"method": "rhf"
			},
			{
				"type": "unocc",
				"energy": 0.07488,
				"method": "rhf"
			},
			{
				"type": "unocc",
				"energy": 0.10927,
				"method": "rhf"
			},
			{
				"type": "unocc",
				"energy": 0.12709,
				"method": "rhf"
			},
			{
				"type": "unocc",
				"energy": 0.13988,
				"method": "rhf"
			},
			{
				"type": "unocc",
				"energy": 0.14542,
				"method": "rhf"
			}
		],
		"cosmo_sigma_profile": { 
			"-0.025": 0.0,
			"-0.024": 0.0,
			"-0.023": 0.0,
			"-0.022": 0.0,
			"-0.021": 0.0,
			"-0.02": 0.0,
			"-0.019": 0.0,
			"-0.018": 0.0,
			"-0.017": 0.0,
			"-0.016": 0.0,
			"-0.015": 0.0,
			"-0.014": 0.0,
			"-0.013": 0.0,
			"-0.012": 0.0,
			"-0.011": 0.0353588063138,
			"-0.01": 1.01585852019,
			"-0.009": 1.44236790429,
			"-0.008": 1.66705627527,
			"-0.007": 1.28850897448,
			"-0.006": 1.66045210955,
			"-0.005": 5.80604998565,
			"-0.004": 11.1709922538,
			"-0.003": 24.8334574716,
			"-0.002": 21.3347532066,
			"-0.001": 13.8974088508,
			"0.0": 7.6153943105,
			"0.001": 3.26686962686,
			"0.002": 3.90559991307,
			"0.003": 2.44150764567,
			"0.004": 2.46553842815,
			"0.005": 2.47464475369,
			"0.006": 2.23520053805,
			"0.007": 1.78043887029,
			"0.008": 2.36005253238,
			"0.009": 2.32166436743,
			"0.01": 0.892949376897,
			"0.011": 1.76372628837,
			"0.012": 2.2682242754,
			"0.013": 2.22741652546,
			"0.014": 2.31407739625,
			"0.015": 0.585043047569,
			"0.016": 0.495755548507,
			"0.017": 0.426791908484,
			"0.018": 0.525533884779,
			"0.019": 0.136316177727,
			"0.02": 0.0,
			"0.021": 0.0,
			"0.022": 0.0,
			"0.023": 0.0,
			"0.024": 0.0,
			"0.025": 0.0
		}
	}
}
