{
	 "smiles": "COC(=O)NCCC(O)=O", 
	 "Tm": 349.15, 
	 "num_atms": 19, 
	 "gaussian": { 
		 "optdone": 1, 
		 "sigma_profile": "yes", 
		 "theory": "DFT", 
		 "functional": "B3LYP", 
		 "basiset": "6-31G**", 
		 "properties": { 
			 "R2extent": 2052.9782, 
			 "electric_dipole_moment_norm": 2.52507580876, 
			 "electric_quadrupole_moment_norm": 17.6004339117, 
			 "total_energy": -551.636212116, 
			 "HOMO_LUMO_gap": 0.25436, 
			 "cosmo_polarized_energy": -15.31, 
			 "cosmo_cavitation_energy": 23.68, 
			 "cosmo_dispersion_energy": -16.96, 
			 "cosmo_repulsion_energy": 1.44, 
			 "cosmo_total_nonelectrostatic_energy": 8.15, 
			 "SMD_solvation_energy": 6.56 
		},
		"coords": [
			{
				"x": 1.8464208874,
				"y": -3.6127769517,
				"z": -0.1486544492,
				"element": "C" 
			},
			{
				"x": 1.6459482943,
				"y": -2.2885095912,
				"z": 0.363192875,
				"element": "O" 
			},
			{
				"x": 1.9752638794,
				"y": -1.2934399247,
				"z": -0.5072009813,
				"element": "C" 
			},
			{
				"x": 2.3789077666,
				"y": -1.4828606341,
				"z": -1.6399230157,
				"element": "O" 
			},
			{
				"x": 1.8106847641,
				"y": -0.0621356094,
				"z": 0.0637927129,
				"element": "N" 
			},
			{
				"x": 1.1762580572,
				"y": 0.2051913753,
				"z": 1.3452770069,
				"element": "C" 
			},
			{
				"x": -0.3574942367,
				"y": 0.2355626663,
				"z": 1.2896087683,
				"element": "C" 
			},
			{
				"x": -0.9720776572,
				"y": 1.2859615917,
				"z": 0.3843923259,
				"element": "C" 
			},
			{
				"x": -0.083663163,
				"y": 2.2446179115,
				"z": 0.005827854,
				"element": "O" 
			},
			{
				"x": -2.1296697886,
				"y": 1.3070954904,
				"z": 0.0359305092,
				"element": "O" 
			},
			{
				"x": 1.5249617072,
				"y": -4.2858677701,
				"z": 0.6468212018,
				"element": "H" 
			},
			{
				"x": 2.8995178786,
				"y": -3.7813245647,
				"z": -0.3878039536,
				"element": "H" 
			},
			{
				"x": 1.2515828355,
				"y": -3.7747803607,
				"z": -1.0508376219,
				"element": "H" 
			},
			{
				"x": 1.9033646731,
				"y": 0.7047730156,
				"z": -0.5854281139,
				"element": "H" 
			},
			{
				"x": 1.4895587749,
				"y": -0.5661823888,
				"z": 2.0509963311,
				"element": "H" 
			},
			{
				"x": 1.5565707302,
				"y": 1.1629473878,
				"z": 1.7101700258,
				"element": "H" 
			},
			{
				"x": -0.7621711548,
				"y": 0.4125052177,
				"z": 2.2949394822,
				"element": "H" 
			},
			{
				"x": -0.7501910367,
				"y": -0.7335258864,
				"z": 0.9681635309,
				"element": "H" 
			},
			{
				"x": -0.5829732116,
				"y": 2.8653490255,
				"z": -0.5517644882,
				"element": "H" 
			}
		],
		 "valence_orbital": [ 
			{
				"type": "occ",
				"energy": -0.32683,
				"method": "rhf"
			},
			{
				"type": "occ",
				"energy": -0.29512,
				"method": "rhf"
			},
			{
				"type": "occ",
				"energy": -0.2833,
				"method": "rhf"
			},
			{
				"type": "occ",
				"energy": -0.26805,
				"method": "rhf"
			},
			{
				"type": "occ",
				"energy": -0.25403,
				"method": "rhf"
			},
			{
				"type": "unocc",
				"energy": 0.00033,
				"method": "rhf"
			},
			{
				"type": "unocc",
				"energy": 0.05347,
				"method": "rhf"
			},
			{
				"type": "unocc",
				"energy": 0.0637,
				"method": "rhf"
			},
			{
				"type": "unocc",
				"energy": 0.09795,
				"method": "rhf"
			},
			{
				"type": "unocc",
				"energy": 0.10944,
				"method": "rhf"
			}
		],
		"cosmo_sigma_profile": { 
			"-0.025": 0.0,
			"-0.024": 0.0,
			"-0.023": 0.0,
			"-0.022": 0.0,
			"-0.021": 0.0,
			"-0.02": 0.0,
			"-0.019": 0.0833279889556,
			"-0.018": 0.75682845905,
			"-0.017": 1.13753314347,
			"-0.016": 0.832201671585,
			"-0.015": 0.438924723197,
			"-0.014": 0.474705513778,
			"-0.013": 0.360124536192,
			"-0.012": 1.53525013538,
			"-0.011": 2.17253237322,
			"-0.01": 1.09985727599,
			"-0.009": 0.633409835908,
			"-0.008": 2.00363818257,
			"-0.007": 4.91821318594,
			"-0.006": 9.53767852157,
			"-0.005": 17.0632846198,
			"-0.004": 18.8409757388,
			"-0.003": 19.9290785698,
			"-0.002": 14.5392133438,
			"-0.001": 10.8790016824,
			"0.0": 6.82673916588,
			"0.001": 7.72206700298,
			"0.002": 7.31093376133,
			"0.003": 6.41199794301,
			"0.004": 5.72789514901,
			"0.005": 5.84605046124,
			"0.006": 5.16609234917,
			"0.007": 3.67540993894,
			"0.008": 2.86318262203,
			"0.009": 2.5251243564,
			"0.01": 2.27245459899,
			"0.011": 6.24194163906,
			"0.012": 6.58526753858,
			"0.013": 6.12756552721,
			"0.014": 3.31696686709,
			"0.015": 0.0195227566474,
			"0.016": 0.0,
			"0.017": 0.0,
			"0.018": 0.0,
			"0.019": 0.0,
			"0.02": 0.0,
			"0.021": 0.0,
			"0.022": 0.0,
			"0.023": 0.0,
			"0.024": 0.0,
			"0.025": 0.0
		}
	}
}
