{
	 "smiles": "CCNC1=CC=C(C=C1)[N+]([O-])=O", 
	 "Tm": 369.65, 
	 "num_atms": 22, 
	 "gaussian": { 
		 "optdone": 1, 
		 "sigma_profile": "yes", 
		 "theory": "DFT", 
		 "functional": "B3LYP", 
		 "basiset": "6-31G**", 
		 "properties": { 
			 "R2extent": 2814.0364, 
			 "electric_dipole_moment_norm": 7.79243572062, 
			 "electric_quadrupole_moment_norm": 11.4864150944, 
			 "total_energy": -570.73875057, 
			 "HOMO_LUMO_gap": 0.15068, 
			 "cosmo_polarized_energy": -14.25, 
			 "cosmo_cavitation_energy": 26.13, 
			 "cosmo_dispersion_energy": -19.18, 
			 "cosmo_repulsion_energy": 1.54, 
			 "cosmo_total_nonelectrostatic_energy": 8.48, 
			 "SMD_solvation_energy": 6.17 
		},
		"coords": [
			{
				"x": 2.1503596877,
				"y": -1.3381689955,
				"z": 2.6732940708,
				"element": "C" 
			},
			{
				"x": 2.784299959,
				"y": -0.5563738812,
				"z": 1.5152002908,
				"element": "C" 
			},
			{
				"x": 2.1985506949,
				"y": -0.8299255717,
				"z": 0.210399937,
				"element": "N" 
			},
			{
				"x": 0.9842822823,
				"y": -0.3625011144,
				"z": -0.2285603347,
				"element": "C" 
			},
			{
				"x": 0.2581341709,
				"y": 0.6357012075,
				"z": 0.4634518625,
				"element": "C" 
			},
			{
				"x": -0.9448681759,
				"y": 1.1083431338,
				"z": -0.0385736648,
				"element": "C" 
			},
			{
				"x": -1.4511969003,
				"y": 0.5929535589,
				"z": -1.2327842469,
				"element": "C" 
			},
			{
				"x": -0.7569914743,
				"y": -0.3983807715,
				"z": -1.9346266434,
				"element": "C" 
			},
			{
				"x": 0.4435582575,
				"y": -0.8686108598,
				"z": -1.4369726993,
				"element": "C" 
			},
			{
				"x": -2.7152883038,
				"y": 1.0881056493,
				"z": -1.7511283136,
				"element": "N" 
			},
			{
				"x": -3.1331592113,
				"y": 0.6081916675,
				"z": -2.8096548152,
				"element": "O" 
			},
			{
				"x": -3.3031301793,
				"y": 1.961741499,
				"z": -1.105826371,
				"element": "O" 
			},
			{
				"x": 1.0836329917,
				"y": -1.1142033874,
				"z": 2.7646279955,
				"element": "H" 
			},
			{
				"x": 2.6363294675,
				"y": -1.0803055306,
				"z": 3.6201428849,
				"element": "H" 
			},
			{
				"x": 2.256283676,
				"y": -2.4169046028,
				"z": 2.5197018014,
				"element": "H" 
			},
			{
				"x": 3.850690362,
				"y": -0.7939789445,
				"z": 1.4432202297,
				"element": "H" 
			},
			{
				"x": 2.7283479629,
				"y": 0.520990291,
				"z": 1.7051369411,
				"element": "H" 
			},
			{
				"x": 2.5580339878,
				"y": -1.6370064597,
				"z": -0.277395282,
				"element": "H" 
			},
			{
				"x": 0.6356232963,
				"y": 1.0414605285,
				"z": 1.3944499211,
				"element": "H" 
			},
			{
				"x": -1.5067843901,
				"y": 1.8726934363,
				"z": 0.4839612683,
				"element": "H" 
			},
			{
				"x": -1.1737169281,
				"y": -0.7817343483,
				"z": -2.8577445883,
				"element": "H" 
			},
			{
				"x": 0.9884087666,
				"y": -1.6357865044,
				"z": -1.9812202441,
				"element": "H" 
			}
		],
		 "valence_orbital": [ 
			{
				"type": "occ",
				"energy": -0.28957,
				"method": "rhf"
			},
			{
				"type": "occ",
				"energy": -0.28854,
				"method": "rhf"
			},
			{
				"type": "occ",
				"energy": -0.26999,
				"method": "rhf"
			},
			{
				"type": "occ",
				"energy": -0.26936,
				"method": "rhf"
			},
			{
				"type": "occ",
				"energy": -0.21824,
				"method": "rhf"
			},
			{
				"type": "unocc",
				"energy": -0.06756,
				"method": "rhf"
			},
			{
				"type": "unocc",
				"energy": -0.01707,
				"method": "rhf"
			},
			{
				"type": "unocc",
				"energy": 0.02497,
				"method": "rhf"
			},
			{
				"type": "unocc",
				"energy": 0.06078,
				"method": "rhf"
			},
			{
				"type": "unocc",
				"energy": 0.0821,
				"method": "rhf"
			}
		],
		"cosmo_sigma_profile": { 
			"-0.025": 0.0,
			"-0.024": 0.0,
			"-0.023": 0.0,
			"-0.022": 0.0,
			"-0.021": 0.0,
			"-0.02": 0.0,
			"-0.019": 0.0,
			"-0.018": 0.0,
			"-0.017": 0.0,
			"-0.016": 0.0,
			"-0.015": 0.0,
			"-0.014": 0.982357089356,
			"-0.013": 1.61300296112,
			"-0.012": 1.35793633553,
			"-0.011": 1.6847553498,
			"-0.01": 1.58686006832,
			"-0.009": 1.42266145062,
			"-0.008": 1.70896631782,
			"-0.007": 6.05575815229,
			"-0.006": 9.39009798408,
			"-0.005": 10.8257297887,
			"-0.004": 14.077006888,
			"-0.003": 17.5390021617,
			"-0.002": 17.7583423121,
			"-0.001": 14.4599693278,
			"0.0": 17.6825435981,
			"0.001": 17.2564838376,
			"0.002": 13.1697573639,
			"0.003": 15.9845268849,
			"0.004": 6.44373464243,
			"0.005": 3.8440938455,
			"0.006": 3.1048787102,
			"0.007": 3.52468154981,
			"0.008": 5.36034002948,
			"0.009": 10.5439159642,
			"0.01": 4.84302212604,
			"0.011": 4.01593661533,
			"0.012": 0.97072707632,
			"0.013": 0.0,
			"0.014": 0.0,
			"0.015": 0.0,
			"0.016": 0.0,
			"0.017": 0.0,
			"0.018": 0.0,
			"0.019": 0.0,
			"0.02": 0.0,
			"0.021": 0.0,
			"0.022": 0.0,
			"0.023": 0.0,
			"0.024": 0.0,
			"0.025": 0.0
		}
	}
}
