{
	 "smiles": "NC(=O)NC1=CC=C(C=C1)C(O)=O", 
	 "Tm": 570.15, 
	 "num_atms": 21, 
	 "gaussian": { 
		 "optdone": 1, 
		 "sigma_profile": "yes", 
		 "theory": "DFT", 
		 "functional": "B3LYP", 
		 "basiset": "6-31G**", 
		 "properties": { 
			 "R2extent": 3544.9663, 
			 "electric_dipole_moment_norm": 2.39552649328, 
			 "electric_quadrupole_moment_norm": 19.1706380246, 
			 "total_energy": -644.895029796, 
			 "HOMO_LUMO_gap": 0.18212, 
			 "cosmo_polarized_energy": -19.3, 
			 "cosmo_cavitation_energy": 26.22, 
			 "cosmo_dispersion_energy": -19.48, 
			 "cosmo_repulsion_energy": 1.55, 
			 "cosmo_total_nonelectrostatic_energy": 8.29, 
			 "SMD_solvation_energy": 6.77 
		},
		"coords": [
			{
				"x": -1.6029983685,
				"y": -1.8351278866,
				"z": -2.9243045433,
				"element": "N" 
			},
			{
				"x": -1.5539451708,
				"y": -2.6449674419,
				"z": -1.8078889965,
				"element": "C" 
			},
			{
				"x": -2.2276658468,
				"y": -3.6563389521,
				"z": -1.6859145098,
				"element": "O" 
			},
			{
				"x": -0.6869788592,
				"y": -2.2536510476,
				"z": -0.7851136562,
				"element": "N" 
			},
			{
				"x": 0.0821242538,
				"y": -1.1008921433,
				"z": -0.5852563411,
				"element": "C" 
			},
			{
				"x": 1.2242038288,
				"y": -1.2047427118,
				"z": 0.233656195,
				"element": "C" 
			},
			{
				"x": 2.0109837894,
				"y": -0.0937787516,
				"z": 0.4914140032,
				"element": "C" 
			},
			{
				"x": 1.6886136338,
				"y": 1.1532017092,
				"z": -0.0651229939,
				"element": "C" 
			},
			{
				"x": 0.5465145233,
				"y": 1.2624249135,
				"z": -0.8687245936,
				"element": "C" 
			},
			{
				"x": -0.2574126858,
				"y": 0.1553437929,
				"z": -1.1219309539,
				"element": "C" 
			},
			{
				"x": 2.570796056,
				"y": 2.3046841804,
				"z": 0.2337375778,
				"element": "C" 
			},
			{
				"x": 2.1649160882,
				"y": 3.4564617853,
				"z": -0.3617600537,
				"element": "O" 
			},
			{
				"x": 3.5638470528,
				"y": 2.2588284172,
				"z": 0.9346535082,
				"element": "O" 
			},
			{
				"x": -2.0938297186,
				"y": -2.2699184451,
				"z": -3.6924949485,
				"element": "H" 
			},
			{
				"x": -0.7834070174,
				"y": -1.3004120862,
				"z": -3.1757602463,
				"element": "H" 
			},
			{
				"x": -0.6074718069,
				"y": -2.98216869,
				"z": -0.0889301639,
				"element": "H" 
			},
			{
				"x": 1.4903699095,
				"y": -2.1705813199,
				"z": 0.6545839765,
				"element": "H" 
			},
			{
				"x": 2.8933791384,
				"y": -0.1705704857,
				"z": 1.1176986906,
				"element": "H" 
			},
			{
				"x": 0.2750480558,
				"y": 2.2270969267,
				"z": -1.2825628943,
				"element": "H" 
			},
			{
				"x": -1.1656281615,
				"y": 0.2699237789,
				"z": -1.7009409602,
				"element": "H" 
			},
			{
				"x": 2.8099413059,
				"y": 4.1307844576,
				"z": -0.0929380959,
				"element": "H" 
			}
		],
		 "valence_orbital": [ 
			{
				"type": "occ",
				"energy": -0.28526,
				"method": "rhf"
			},
			{
				"type": "occ",
				"energy": -0.27781,
				"method": "rhf"
			},
			{
				"type": "occ",
				"energy": -0.27172,
				"method": "rhf"
			},
			{
				"type": "occ",
				"energy": -0.26763,
				"method": "rhf"
			},
			{
				"type": "occ",
				"energy": -0.23375,
				"method": "rhf"
			},
			{
				"type": "unocc",
				"energy": -0.05163,
				"method": "rhf"
			},
			{
				"type": "unocc",
				"energy": -0.02145,
				"method": "rhf"
			},
			{
				"type": "unocc",
				"energy": 0.03397,
				"method": "rhf"
			},
			{
				"type": "unocc",
				"energy": 0.06622,
				"method": "rhf"
			},
			{
				"type": "unocc",
				"energy": 0.07466,
				"method": "rhf"
			}
		],
		"cosmo_sigma_profile": { 
			"-0.025": 0.0,
			"-0.024": 0.0,
			"-0.023": 0.0,
			"-0.022": 0.0,
			"-0.021": 0.0,
			"-0.02": 0.0,
			"-0.019": 0.0,
			"-0.018": 0.519807982939,
			"-0.017": 0.914709643258,
			"-0.016": 1.10024176532,
			"-0.015": 0.897940309279,
			"-0.014": 2.55825425893,
			"-0.013": 4.52332552067,
			"-0.012": 3.22879338379,
			"-0.011": 4.21253550053,
			"-0.01": 4.54893189883,
			"-0.009": 4.74988240565,
			"-0.008": 3.59407792204,
			"-0.007": 5.50985208565,
			"-0.006": 8.07869506799,
			"-0.005": 9.41004517243,
			"-0.004": 8.92694464085,
			"-0.003": 7.96055804406,
			"-0.002": 10.089899731,
			"-0.001": 13.0195574814,
			"0.0": 13.0258457147,
			"0.001": 15.9175581603,
			"0.002": 15.1357078961,
			"0.003": 17.3259468406,
			"0.004": 8.11515062668,
			"0.005": 3.93944520252,
			"0.006": 4.76172290125,
			"0.007": 4.62693827231,
			"0.008": 4.541460691,
			"0.009": 2.82788711167,
			"0.01": 2.86851636149,
			"0.011": 4.50565687307,
			"0.012": 6.90732810184,
			"0.013": 4.92866794606,
			"0.014": 5.36410425746,
			"0.015": 0.236733715376,
			"0.016": 0.0,
			"0.017": 0.0,
			"0.018": 0.0,
			"0.019": 0.0,
			"0.02": 0.0,
			"0.021": 0.0,
			"0.022": 0.0,
			"0.023": 0.0,
			"0.024": 0.0,
			"0.025": 0.0
		}
	}
}
