{
	 "smiles": "OC(=O)CCS(=O)(=O)N1CCOCC1", 
	 "Tm": 437.15, 
	 "num_atms": 27, 
	 "gaussian": { 
		 "optdone": 1, 
		 "sigma_profile": "yes", 
		 "theory": "DFT", 
		 "functional": "B3LYP", 
		 "basiset": "6-31G**", 
		 "properties": { 
			 "R2extent": 3725.432, 
			 "electric_dipole_moment_norm": 4.83514180247, 
			 "electric_quadrupole_moment_norm": 12.2604944578, 
			 "total_energy": -1103.55842777, 
			 "HOMO_LUMO_gap": 0.25933, 
			 "cosmo_polarized_energy": -21.4, 
			 "cosmo_cavitation_energy": 30.81, 
			 "cosmo_dispersion_energy": -22.48, 
			 "cosmo_repulsion_energy": 1.75, 
			 "cosmo_total_nonelectrostatic_energy": 10.08, 
			 "SMD_solvation_energy": 4.67 
		},
		"coords": [
			{
				"x": 0.6889963299,
				"y": -3.268614693,
				"z": 1.3730676814,
				"element": "O" 
			},
			{
				"x": -0.6538485193,
				"y": -3.1499688188,
				"z": 1.2311302551,
				"element": "C" 
			},
			{
				"x": -1.3442214361,
				"y": -4.0134223094,
				"z": 0.7451997908,
				"element": "O" 
			},
			{
				"x": -1.1759412539,
				"y": -1.8549992299,
				"z": 1.8287986266,
				"element": "C" 
			},
			{
				"x": -0.3017657337,
				"y": -0.6195159736,
				"z": 1.5954399566,
				"element": "C" 
			},
			{
				"x": -0.4100668942,
				"y": -0.0387884566,
				"z": -0.1227092281,
				"element": "S" 
			},
			{
				"x": 0.0560315792,
				"y": -1.1295686136,
				"z": -0.9886214145,
				"element": "O" 
			},
			{
				"x": -1.7437105008,
				"y": 0.5491768953,
				"z": -0.3035295619,
				"element": "O" 
			},
			{
				"x": 0.7241057192,
				"y": 1.2119505452,
				"z": -0.1460771014,
				"element": "N" 
			},
			{
				"x": 2.0708341755,
				"y": 0.8601035289,
				"z": -0.6500693156,
				"element": "C" 
			},
			{
				"x": 2.9086640947,
				"y": 2.1340829258,
				"z": -0.7084097399,
				"element": "C" 
			},
			{
				"x": 2.3814037311,
				"y": 3.1041852773,
				"z": -1.6050439644,
				"element": "O" 
			},
			{
				"x": 0.9585942684,
				"y": 3.0930268684,
				"z": -1.7253207866,
				"element": "C" 
			},
			{
				"x": 0.2670294324,
				"y": 2.5834032708,
				"z": -0.4653651302,
				"element": "C" 
			},
			{
				"x": 0.9293558354,
				"y": -4.1142924784,
				"z": 0.9592365686,
				"element": "H" 
			},
			{
				"x": -2.1909410577,
				"y": -1.7013856429,
				"z": 1.4569093765,
				"element": "H" 
			},
			{
				"x": -1.2473771259,
				"y": -2.0135158625,
				"z": 2.9124284156,
				"element": "H" 
			},
			{
				"x": 0.7497025866,
				"y": -0.8292353993,
				"z": 1.8002153918,
				"element": "H" 
			},
			{
				"x": -0.6310743075,
				"y": 0.2228127216,
				"z": 2.2078108318,
				"element": "H" 
			},
			{
				"x": 2.5441181526,
				"y": 0.1419936981,
				"z": 0.0284021032,
				"element": "H" 
			},
			{
				"x": 2.0188921549,
				"y": 0.3954420074,
				"z": -1.6410751871,
				"element": "H" 
			},
			{
				"x": 3.0033983703,
				"y": 2.5563752412,
				"z": 0.304392701,
				"element": "H" 
			},
			{
				"x": 3.9152408813,
				"y": 1.8889475338,
				"z": -1.062066937,
				"element": "H" 
			},
			{
				"x": 0.6485909638,
				"y": 4.1236401754,
				"z": -1.9289933893,
				"element": "H" 
			},
			{
				"x": 0.6569850939,
				"y": 2.4747857992,
				"z": -2.5841301326,
				"element": "H" 
			},
			{
				"x": 0.4953206396,
				"y": 3.2445323743,
				"z": 0.3799246409,
				"element": "H" 
			},
			{
				"x": -0.8151171796,
				"y": 2.5742486153,
				"z": -0.6055444515,
				"element": "H" 
			}
		],
		 "valence_orbital": [ 
			{
				"type": "occ",
				"energy": -0.30401,
				"method": "rhf"
			},
			{
				"type": "occ",
				"energy": -0.30088,
				"method": "rhf"
			},
			{
				"type": "occ",
				"energy": -0.27765,
				"method": "rhf"
			},
			{
				"type": "occ",
				"energy": -0.26368,
				"method": "rhf"
			},
			{
				"type": "occ",
				"energy": -0.2545,
				"method": "rhf"
			},
			{
				"type": "unocc",
				"energy": 0.00483,
				"method": "rhf"
			},
			{
				"type": "unocc",
				"energy": 0.0521,
				"method": "rhf"
			},
			{
				"type": "unocc",
				"energy": 0.05533,
				"method": "rhf"
			},
			{
				"type": "unocc",
				"energy": 0.07441,
				"method": "rhf"
			},
			{
				"type": "unocc",
				"energy": 0.08001,
				"method": "rhf"
			}
		],
		"cosmo_sigma_profile": { 
			"-0.025": 0.0,
			"-0.024": 0.0,
			"-0.023": 0.0,
			"-0.022": 0.0,
			"-0.021": 0.0,
			"-0.02": 0.0,
			"-0.019": 0.0405314004384,
			"-0.018": 1.07745344593,
			"-0.017": 0.688984185329,
			"-0.016": 0.858110962497,
			"-0.015": 0.732629861256,
			"-0.014": 1.1464092725,
			"-0.013": 0.311290529501,
			"-0.012": 0.419378726867,
			"-0.011": 0.533680647043,
			"-0.01": 0.953123604535,
			"-0.009": 2.57810310256,
			"-0.008": 7.93883454043,
			"-0.007": 8.4034940386,
			"-0.006": 15.6174748494,
			"-0.005": 28.3327278303,
			"-0.004": 27.9421308645,
			"-0.003": 18.5318081477,
			"-0.002": 13.3291418442,
			"-0.001": 9.63592186471,
			"0.0": 6.60907394779,
			"0.001": 8.20712345052,
			"0.002": 7.63131300269,
			"0.003": 5.20631290674,
			"0.004": 6.20289287821,
			"0.005": 5.48619411012,
			"0.006": 7.20802163619,
			"0.007": 7.7716269207,
			"0.008": 7.56521250001,
			"0.009": 6.4979452848,
			"0.01": 9.9139131102,
			"0.011": 13.0545620736,
			"0.012": 8.06688512214,
			"0.013": 2.19485334404,
			"0.014": 0.295143958912,
			"0.015": 0.0,
			"0.016": 0.0,
			"0.017": 0.0,
			"0.018": 0.0,
			"0.019": 0.0,
			"0.02": 0.0,
			"0.021": 0.0,
			"0.022": 0.0,
			"0.023": 0.0,
			"0.024": 0.0,
			"0.025": 0.0
		}
	}
}
