{
	 "smiles": "NC1C(O)CC2=C1C=CC=C2", 
	 "Tm": 392.15, 
	 "num_atms": 22, 
	 "gaussian": { 
		 "optdone": 1, 
		 "sigma_profile": "yes", 
		 "theory": "DFT", 
		 "functional": "B3LYP", 
		 "basiset": "6-31G**", 
		 "properties": { 
			 "R2extent": 1903.5119, 
			 "electric_dipole_moment_norm": 1.66514975002, 
			 "electric_quadrupole_moment_norm": 10.8718716769, 
			 "total_energy": -479.553123483, 
			 "HOMO_LUMO_gap": 0.22847, 
			 "cosmo_polarized_energy": -10.29, 
			 "cosmo_cavitation_energy": 24.3, 
			 "cosmo_dispersion_energy": -17.94, 
			 "cosmo_repulsion_energy": 1.46, 
			 "cosmo_total_nonelectrostatic_energy": 7.81, 
			 "SMD_solvation_energy": 2.81 
		},
		"coords": [
			{
				"x": -1.6755137123,
				"y": 0.7367048607,
				"z": 1.9822539889,
				"element": "N" 
			},
			{
				"x": -2.0483723655,
				"y": -0.1490235601,
				"z": 0.8659513765,
				"element": "C" 
			},
			{
				"x": -2.6020643847,
				"y": 0.7066419451,
				"z": -0.3086784006,
				"element": "C" 
			},
			{
				"x": -3.4713224439,
				"y": -0.0539641124,
				"z": -1.1391588818,
				"element": "O" 
			},
			{
				"x": -1.3346795243,
				"y": 1.1692508397,
				"z": -1.0685308226,
				"element": "C" 
			},
			{
				"x": -0.3755003593,
				"y": 0.0178740942,
				"z": -0.8446955351,
				"element": "C" 
			},
			{
				"x": -0.7955484113,
				"y": -0.7494076322,
				"z": 0.2534798653,
				"element": "C" 
			},
			{
				"x": -0.0747830317,
				"y": -1.871544407,
				"z": 0.6562996766,
				"element": "C" 
			},
			{
				"x": 1.0817824632,
				"y": -2.2240052406,
				"z": -0.0479212832,
				"element": "C" 
			},
			{
				"x": 1.5027608415,
				"y": -1.4594795478,
				"z": -1.1400268011,
				"element": "C" 
			},
			{
				"x": 0.7757172366,
				"y": -0.3348461867,
				"z": -1.5462957879,
				"element": "C" 
			},
			{
				"x": -2.5110083733,
				"y": 1.0225925029,
				"z": 2.4886441038,
				"element": "H" 
			},
			{
				"x": -1.0891321359,
				"y": 0.2342147259,
				"z": 2.6436869264,
				"element": "H" 
			},
			{
				"x": -2.7897914128,
				"y": -0.9186524595,
				"z": 1.1357931326,
				"element": "H" 
			},
			{
				"x": -3.2028555324,
				"y": 1.5443560097,
				"z": 0.0560729084,
				"element": "H" 
			},
			{
				"x": -2.956568185,
				"y": -0.7922210563,
				"z": -1.4950999511,
				"element": "H" 
			},
			{
				"x": -1.5573635808,
				"y": 1.3721271641,
				"z": -2.1208286645,
				"element": "H" 
			},
			{
				"x": -0.9357900508,
				"y": 2.0882603883,
				"z": -0.6227018743,
				"element": "H" 
			},
			{
				"x": -0.4066736804,
				"y": -2.4727650425,
				"z": 1.499749697,
				"element": "H" 
			},
			{
				"x": 1.6513299559,
				"y": -3.0998438644,
				"z": 0.249768351,
				"element": "H" 
			},
			{
				"x": 2.3985150601,
				"y": -1.7464283537,
				"z": -1.683898301,
				"element": "H" 
			},
			{
				"x": 1.1057616273,
				"y": 0.2497589325,
				"z": -2.4012637231,
				"element": "H" 
			}
		],
		 "valence_orbital": [ 
			{
				"type": "occ",
				"energy": -0.31507,
				"method": "rhf"
			},
			{
				"type": "occ",
				"energy": -0.26434,
				"method": "rhf"
			},
			{
				"type": "occ",
				"energy": -0.24862,
				"method": "rhf"
			},
			{
				"type": "occ",
				"energy": -0.24027,
				"method": "rhf"
			},
			{
				"type": "occ",
				"energy": -0.23527,
				"method": "rhf"
			},
			{
				"type": "unocc",
				"energy": -0.0068,
				"method": "rhf"
			},
			{
				"type": "unocc",
				"energy": -0.00119,
				"method": "rhf"
			},
			{
				"type": "unocc",
				"energy": 0.08882,
				"method": "rhf"
			},
			{
				"type": "unocc",
				"energy": 0.09805,
				"method": "rhf"
			},
			{
				"type": "unocc",
				"energy": 0.10174,
				"method": "rhf"
			}
		],
		"cosmo_sigma_profile": { 
			"-0.025": 0.0,
			"-0.024": 0.0,
			"-0.023": 0.0,
			"-0.022": 0.0,
			"-0.021": 0.0,
			"-0.02": 0.0,
			"-0.019": 0.0,
			"-0.018": 0.0,
			"-0.017": 0.0,
			"-0.016": 0.0,
			"-0.015": 0.0,
			"-0.014": 0.498259518167,
			"-0.013": 0.512157566585,
			"-0.012": 0.873320031617,
			"-0.011": 0.58493762915,
			"-0.01": 2.0797772669,
			"-0.009": 3.30610145717,
			"-0.008": 3.03974692814,
			"-0.007": 4.41435675596,
			"-0.006": 6.57270918854,
			"-0.005": 12.6611391568,
			"-0.004": 16.76529681,
			"-0.003": 20.6220555765,
			"-0.002": 18.0996585216,
			"-0.001": 15.6189031759,
			"0.0": 11.8911149215,
			"0.001": 8.24139403333,
			"0.002": 8.71408381324,
			"0.003": 8.2687333261,
			"0.004": 8.68030703727,
			"0.005": 8.97136741344,
			"0.006": 8.61528110349,
			"0.007": 3.80903925945,
			"0.008": 1.94389591417,
			"0.009": 2.29057825067,
			"0.01": 1.45891772198,
			"0.011": 2.06516746688,
			"0.012": 2.07897525767,
			"0.013": 2.38873645249,
			"0.014": 2.73038746973,
			"0.015": 1.52612373204,
			"0.016": 0.571198059443,
			"0.017": 0.519951055943,
			"0.018": 0.110842334994,
			"0.019": 0.0,
			"0.02": 0.0,
			"0.021": 0.0,
			"0.022": 0.0,
			"0.023": 0.0,
			"0.024": 0.0,
			"0.025": 0.0
		}
	}
}
