{
	 "smiles": "FC1=CC=C(C=C1Cl)N1C(=O)NN=C(C2=CC=CC=C2)C1=S", 
	 "Tm": 411.15, 
	 "num_atms": 31, 
	 "gaussian": { 
		 "optdone": 1, 
		 "sigma_profile": "yes", 
		 "theory": "DFT", 
		 "functional": "B3LYP", 
		 "basiset": "6-31G**", 
		 "properties": { 
			 "R2extent": 9455.9979, 
			 "electric_dipole_moment_norm": 3.58733387629, 
			 "electric_quadrupole_moment_norm": 12.1841594782, 
			 "total_energy": -1774.6902152, 
			 "HOMO_LUMO_gap": 0.12615, 
			 "cosmo_polarized_energy": -17.1, 
			 "cosmo_cavitation_energy": 40.74, 
			 "cosmo_dispersion_energy": -28.73, 
			 "cosmo_repulsion_energy": 2.15, 
			 "cosmo_total_nonelectrostatic_energy": 14.16, 
			 "SMD_solvation_energy": 6.54 
		},
		"coords": [
			{
				"x": -5.8508479098,
				"y": -0.294421264,
				"z": -0.3002023197,
				"element": "F" 
			},
			{
				"x": -4.5162435329,
				"y": -0.2388373991,
				"z": -0.3965525662,
				"element": "C" 
			},
			{
				"x": -3.7983508145,
				"y": -1.4128806521,
				"z": -0.59268767,
				"element": "C" 
			},
			{
				"x": -2.4107429076,
				"y": -1.3600558015,
				"z": -0.6947273291,
				"element": "C" 
			},
			{
				"x": -1.7620712963,
				"y": -0.1311725243,
				"z": -0.593314465,
				"element": "C" 
			},
			{
				"x": -2.4788605507,
				"y": 1.04840654,
				"z": -0.4034556598,
				"element": "C" 
			},
			{
				"x": -3.8667041995,
				"y": 0.9946663007,
				"z": -0.3024719671,
				"element": "C" 
			},
			{
				"x": -4.7981501676,
				"y": 2.4481876952,
				"z": -0.0634428504,
				"element": "Cl" 
			},
			{
				"x": -0.322192921,
				"y": -0.0706677879,
				"z": -0.7242762685,
				"element": "N" 
			},
			{
				"x": 0.147459977,
				"y": 0.2000836272,
				"z": -2.0254829405,
				"element": "C" 
			},
			{
				"x": -0.5708317783,
				"y": 0.3497281623,
				"z": -2.9931395413,
				"element": "O" 
			},
			{
				"x": 1.5228054529,
				"y": 0.2905099982,
				"z": -2.0915082074,
				"element": "N" 
			},
			{
				"x": 2.406828462,
				"y": 0.0622666348,
				"z": -1.1029147373,
				"element": "N" 
			},
			{
				"x": 1.9520884138,
				"y": -0.1991604903,
				"z": 0.0900321401,
				"element": "C" 
			},
			{
				"x": 2.9990282424,
				"y": -0.4160997144,
				"z": 1.1259701542,
				"element": "C" 
			},
			{
				"x": 2.9714260099,
				"y": -1.5143489663,
				"z": 1.9988586705,
				"element": "C" 
			},
			{
				"x": 4.0133206623,
				"y": -1.720979336,
				"z": 2.9008575914,
				"element": "C" 
			},
			{
				"x": 5.0903723259,
				"y": -0.8334820882,
				"z": 2.9506203657,
				"element": "C" 
			},
			{
				"x": 5.1272035371,
				"y": 0.2591765633,
				"z": 2.0831518861,
				"element": "C" 
			},
			{
				"x": 4.0917808422,
				"y": 0.4626325908,
				"z": 1.1725528444,
				"element": "C" 
			},
			{
				"x": 0.5033801793,
				"y": -0.2284902024,
				"z": 0.3953359788,
				"element": "C" 
			},
			{
				"x": -0.1190028171,
				"y": -0.3884188567,
				"z": 1.9217008995,
				"element": "S" 
			},
			{
				"x": -4.3387248903,
				"y": -2.3499734942,
				"z": -0.6651942235,
				"element": "H" 
			},
			{
				"x": -1.8357567784,
				"y": -2.2662908846,
				"z": -0.8485955415,
				"element": "H" 
			},
			{
				"x": -1.9677116716,
				"y": 2.0008495997,
				"z": -0.3302647749,
				"element": "H" 
			},
			{
				"x": 1.9179572538,
				"y": 0.4670762522,
				"z": -3.0052539321,
				"element": "H" 
			},
			{
				"x": 2.1402362773,
				"y": -2.2084726689,
				"z": 1.9682581524,
				"element": "H" 
			},
			{
				"x": 3.9825446938,
				"y": -2.5784203012,
				"z": 3.5665667625,
				"element": "H" 
			},
			{
				"x": 5.8961347696,
				"y": -0.993509589,
				"z": 3.661210024,
				"element": "H" 
			},
			{
				"x": 5.9607567402,
				"y": 0.9546396133,
				"z": 2.1148192386,
				"element": "H" 
			},
			{
				"x": 4.1201683962,
				"y": 1.3068584433,
				"z": 0.491450286,
				"element": "H" 
			}
		],
		 "valence_orbital": [ 
			{
				"type": "occ",
				"energy": -0.26445,
				"method": "rhf"
			},
			{
				"type": "occ",
				"energy": -0.26044,
				"method": "rhf"
			},
			{
				"type": "occ",
				"energy": -0.25591,
				"method": "rhf"
			},
			{
				"type": "occ",
				"energy": -0.24292,
				"method": "rhf"
			},
			{
				"type": "occ",
				"energy": -0.22309,
				"method": "rhf"
			},
			{
				"type": "unocc",
				"energy": -0.09694,
				"method": "rhf"
			},
			{
				"type": "unocc",
				"energy": -0.03972,
				"method": "rhf"
			},
			{
				"type": "unocc",
				"energy": -0.03127,
				"method": "rhf"
			},
			{
				"type": "unocc",
				"energy": -0.026,
				"method": "rhf"
			},
			{
				"type": "unocc",
				"energy": -0.00605,
				"method": "rhf"
			}
		],
		"cosmo_sigma_profile": { 
			"-0.025": 0.0,
			"-0.024": 0.0,
			"-0.023": 0.0,
			"-0.022": 0.0,
			"-0.021": 0.0,
			"-0.02": 0.0,
			"-0.019": 0.0,
			"-0.018": 0.393166831632,
			"-0.017": 1.33659706222,
			"-0.016": 1.33056833721,
			"-0.015": 1.02037388655,
			"-0.014": 0.843679423334,
			"-0.013": 0.21862221746,
			"-0.012": 1.32666349286,
			"-0.011": 0.823227544732,
			"-0.01": 0.749453196116,
			"-0.009": 5.33095579726,
			"-0.008": 11.2295543288,
			"-0.007": 9.30825979457,
			"-0.006": 14.3003285606,
			"-0.005": 19.6088871595,
			"-0.004": 20.1866940795,
			"-0.003": 18.3636511833,
			"-0.002": 20.5290012137,
			"-0.001": 20.4484054001,
			"0.0": 22.8618889421,
			"0.001": 21.3701364729,
			"0.002": 22.3224606906,
			"0.003": 31.2839872722,
			"0.004": 28.5528926809,
			"0.005": 20.5215134243,
			"0.006": 9.55979388527,
			"0.007": 7.45299023782,
			"0.008": 6.44803391068,
			"0.009": 4.239571577,
			"0.01": 3.70429367965,
			"0.011": 5.41788952644,
			"0.012": 2.31955167872,
			"0.013": 0.0,
			"0.014": 0.0,
			"0.015": 0.0,
			"0.016": 0.0,
			"0.017": 0.0,
			"0.018": 0.0,
			"0.019": 0.0,
			"0.02": 0.0,
			"0.021": 0.0,
			"0.022": 0.0,
			"0.023": 0.0,
			"0.024": 0.0,
			"0.025": 0.0
		}
	}
}
