{
	 "smiles": "ClCC(=O)OCCOC(=O)CCl", 
	 "Tm": 318.65, 
	 "num_atms": 20, 
	 "gaussian": { 
		 "optdone": 1, 
		 "sigma_profile": "yes", 
		 "theory": "DFT", 
		 "functional": "B3LYP", 
		 "basiset": "6-31G**", 
		 "properties": { 
			 "R2extent": 4947.9597, 
			 "electric_dipole_moment_norm": 2.35996402939, 
			 "electric_quadrupole_moment_norm": 10.51953945, 
			 "total_energy": -1454.74802585, 
			 "HOMO_LUMO_gap": 0.25155, 
			 "cosmo_polarized_energy": -14.41, 
			 "cosmo_cavitation_energy": 29.15, 
			 "cosmo_dispersion_energy": -20.48, 
			 "cosmo_repulsion_energy": 1.71, 
			 "cosmo_total_nonelectrostatic_energy": 10.37, 
			 "SMD_solvation_energy": 6.58 
		},
		"coords": [
			{
				"x": -0.5258571767,
				"y": -3.7086791094,
				"z": -3.5752106606,
				"element": "Cl" 
			},
			{
				"x": 0.6815503854,
				"y": -3.0583788618,
				"z": -2.4299923079,
				"element": "C" 
			},
			{
				"x": 0.7217144534,
				"y": -1.5356149213,
				"z": -2.4105475475,
				"element": "C" 
			},
			{
				"x": 0.0403552821,
				"y": -0.7806395158,
				"z": -3.0589563017,
				"element": "O" 
			},
			{
				"x": 1.6698904699,
				"y": -1.1552062484,
				"z": -1.5250859025,
				"element": "O" 
			},
			{
				"x": 1.8576512895,
				"y": 0.2658424093,
				"z": -1.3602994207,
				"element": "C" 
			},
			{
				"x": 0.7998020747,
				"y": 0.882886033,
				"z": -0.4601642478,
				"element": "C" 
			},
			{
				"x": 0.7752888433,
				"y": 0.2689065623,
				"z": 0.8469280789,
				"element": "O" 
			},
			{
				"x": 1.7088801629,
				"y": 0.6836338037,
				"z": 1.720082281,
				"element": "C" 
			},
			{
				"x": 2.5344461729,
				"y": 1.5416751709,
				"z": 1.4980931344,
				"element": "O" 
			},
			{
				"x": 1.578646832,
				"y": -0.0256577259,
				"z": 3.0583767978,
				"element": "C" 
			},
			{
				"x": 1.8025691772,
				"y": -1.8125155113,
				"z": 2.9097347457,
				"element": "Cl" 
			},
			{
				"x": 1.6659036378,
				"y": -3.4417007425,
				"z": -2.705574299,
				"element": "H" 
			},
			{
				"x": 0.4445415395,
				"y": -3.4215203895,
				"z": -1.427925801,
				"element": "H" 
			},
			{
				"x": 2.8507627879,
				"y": 0.3729312666,
				"z": -0.9237957901,
				"element": "H" 
			},
			{
				"x": 1.8233002482,
				"y": 0.7581783665,
				"z": -2.3363290094,
				"element": "H" 
			},
			{
				"x": -0.1981291258,
				"y": 0.7223051781,
				"z": -0.8674590559,
				"element": "H" 
			},
			{
				"x": 0.9964465061,
				"y": 1.9539698322,
				"z": -0.3601163862,
				"element": "H" 
			},
			{
				"x": 0.5848824669,
				"y": 0.1389199154,
				"z": 3.4786462842,
				"element": "H" 
			},
			{
				"x": 2.3469539728,
				"y": 0.3547644878,
				"z": 3.7278954083,
				"element": "H" 
			}
		],
		 "valence_orbital": [ 
			{
				"type": "occ",
				"energy": -0.31109,
				"method": "rhf"
			},
			{
				"type": "occ",
				"energy": -0.30843,
				"method": "rhf"
			},
			{
				"type": "occ",
				"energy": -0.30336,
				"method": "rhf"
			},
			{
				"type": "occ",
				"energy": -0.29478,
				"method": "rhf"
			},
			{
				"type": "occ",
				"energy": -0.29081,
				"method": "rhf"
			},
			{
				"type": "unocc",
				"energy": -0.03926,
				"method": "rhf"
			},
			{
				"type": "unocc",
				"energy": -0.00895,
				"method": "rhf"
			},
			{
				"type": "unocc",
				"energy": 0.01807,
				"method": "rhf"
			},
			{
				"type": "unocc",
				"energy": 0.0354,
				"method": "rhf"
			},
			{
				"type": "unocc",
				"energy": 0.08676,
				"method": "rhf"
			}
		],
		"cosmo_sigma_profile": { 
			"-0.025": 0.0,
			"-0.024": 0.0,
			"-0.023": 0.0,
			"-0.022": 0.0,
			"-0.021": 0.0,
			"-0.02": 0.0,
			"-0.019": 0.0,
			"-0.018": 0.0,
			"-0.017": 0.0,
			"-0.016": 0.0,
			"-0.015": 0.0,
			"-0.014": 0.0,
			"-0.013": 0.0,
			"-0.012": 0.0,
			"-0.011": 0.0,
			"-0.01": 4.07209896499,
			"-0.009": 8.61994857822,
			"-0.008": 9.46575538119,
			"-0.007": 14.5140071206,
			"-0.006": 17.0741836801,
			"-0.005": 16.2174920717,
			"-0.004": 12.3883969707,
			"-0.003": 9.22260277771,
			"-0.002": 9.78778127381,
			"-0.001": 10.6070267284,
			"0.0": 11.1546216913,
			"0.001": 10.5344734907,
			"0.002": 12.9494325551,
			"0.003": 11.7811225356,
			"0.004": 12.2879695271,
			"0.005": 21.8504685635,
			"0.006": 13.0946025341,
			"0.007": 6.63354013743,
			"0.008": 4.67566726228,
			"0.009": 3.97097831442,
			"0.01": 6.35241331817,
			"0.011": 6.51514788866,
			"0.012": 1.95095598069,
			"0.013": 0.031574565439,
			"0.014": 0.0,
			"0.015": 0.0,
			"0.016": 0.0,
			"0.017": 0.0,
			"0.018": 0.0,
			"0.019": 0.0,
			"0.02": 0.0,
			"0.021": 0.0,
			"0.022": 0.0,
			"0.023": 0.0,
			"0.024": 0.0,
			"0.025": 0.0
		}
	}
}
