{
	 "smiles": "COC1=CC2=C(C=C1OC)C(=O)NCC2", 
	 "Tm": 448.15, 
	 "num_atms": 28, 
	 "gaussian": { 
		 "optdone": 1, 
		 "sigma_profile": "yes", 
		 "theory": "DFT", 
		 "functional": "B3LYP", 
		 "basiset": "6-31G**", 
		 "properties": { 
			 "R2extent": 4093.911, 
			 "electric_dipole_moment_norm": 3.74631865302, 
			 "electric_quadrupole_moment_norm": 26.8704725751, 
			 "total_energy": -707.421920458, 
			 "HOMO_LUMO_gap": 0.19773, 
			 "cosmo_polarized_energy": -13.99, 
			 "cosmo_cavitation_energy": 30.74, 
			 "cosmo_dispersion_energy": -22.5, 
			 "cosmo_repulsion_energy": 1.77, 
			 "cosmo_total_nonelectrostatic_energy": 10.01, 
			 "SMD_solvation_energy": 6.21 
		},
		"coords": [
			{
				"x": -2.0682145445,
				"y": 0.3985312019,
				"z": 2.5042394268,
				"element": "C" 
			},
			{
				"x": -0.7177953962,
				"y": 0.6608486172,
				"z": 2.0977669298,
				"element": "O" 
			},
			{
				"x": -0.2264589898,
				"y": -0.162228576,
				"z": 1.114218959,
				"element": "C" 
			},
			{
				"x": 0.1211702549,
				"y": 0.404958193,
				"z": -0.1133989518,
				"element": "C" 
			},
			{
				"x": 0.6499448234,
				"y": -0.3744322643,
				"z": -1.1442884874,
				"element": "C" 
			},
			{
				"x": 0.8204253681,
				"y": -1.7539597737,
				"z": -0.9321946249,
				"element": "C" 
			},
			{
				"x": 0.4918746891,
				"y": -2.3235056966,
				"z": 0.3026720369,
				"element": "C" 
			},
			{
				"x": -0.0221665834,
				"y": -1.5417875799,
				"z": 1.3305533381,
				"element": "C" 
			},
			{
				"x": -0.3550027303,
				"y": -2.1333544657,
				"z": 2.5299279783,
				"element": "O" 
			},
			{
				"x": 0.5219170929,
				"y": -1.8077739308,
				"z": 3.6152066143,
				"element": "C" 
			},
			{
				"x": 1.376940652,
				"y": -2.6434513793,
				"z": -1.9983694238,
				"element": "C" 
			},
			{
				"x": 1.6876457201,
				"y": -3.813749943,
				"z": -1.7965860927,
				"element": "O" 
			},
			{
				"x": 1.5408029261,
				"y": -2.0512137506,
				"z": -3.2289748623,
				"element": "N" 
			},
			{
				"x": 0.8942481595,
				"y": -0.7956112438,
				"z": -3.5980819971,
				"element": "C" 
			},
			{
				"x": 1.0708677572,
				"y": 0.2212774498,
				"z": -2.4690541647,
				"element": "C" 
			},
			{
				"x": -2.1801419658,
				"y": -0.6195386363,
				"z": 2.8869165452,
				"element": "H" 
			},
			{
				"x": -2.2923788643,
				"y": 1.1198706476,
				"z": 3.2923843561,
				"element": "H" 
			},
			{
				"x": -2.7585685251,
				"y": 0.552928422,
				"z": 1.6656393768,
				"element": "H" 
			},
			{
				"x": -0.0373783814,
				"y": 1.4717444927,
				"z": -0.2432207381,
				"element": "H" 
			},
			{
				"x": 0.6485386203,
				"y": -3.3858130936,
				"z": 0.4547970373,
				"element": "H" 
			},
			{
				"x": 1.5434566607,
				"y": -2.1467873444,
				"z": 3.4033146839,
				"element": "H" 
			},
			{
				"x": 0.5291894705,
				"y": -0.7307583206,
				"z": 3.8130241246,
				"element": "H" 
			},
			{
				"x": 0.1392973447,
				"y": -2.3399397947,
				"z": 4.4884880169,
				"element": "H" 
			},
			{
				"x": 1.793019462,
				"y": -2.7035767648,
				"z": -3.9597259627,
				"element": "H" 
			},
			{
				"x": 1.3541233537,
				"y": -0.4268959742,
				"z": -4.519700515,
				"element": "H" 
			},
			{
				"x": -0.1783732012,
				"y": -0.9434629666,
				"z": -3.8003713107,
				"element": "H" 
			},
			{
				"x": 2.1281796645,
				"y": 0.5164728595,
				"z": -2.4184314527,
				"element": "H" 
			},
			{
				"x": 0.4946371625,
				"y": 1.1259096153,
				"z": -2.68925084,
				"element": "H" 
			}
		],
		 "valence_orbital": [ 
			{
				"type": "occ",
				"energy": -0.26683,
				"method": "rhf"
			},
			{
				"type": "occ",
				"energy": -0.25167,
				"method": "rhf"
			},
			{
				"type": "occ",
				"energy": -0.24607,
				"method": "rhf"
			},
			{
				"type": "occ",
				"energy": -0.23959,
				"method": "rhf"
			},
			{
				"type": "occ",
				"energy": -0.22958,
				"method": "rhf"
			},
			{
				"type": "unocc",
				"energy": -0.03185,
				"method": "rhf"
			},
			{
				"type": "unocc",
				"energy": -0.00433,
				"method": "rhf"
			},
			{
				"type": "unocc",
				"energy": 0.06527,
				"method": "rhf"
			},
			{
				"type": "unocc",
				"energy": 0.08003,
				"method": "rhf"
			},
			{
				"type": "unocc",
				"energy": 0.09241,
				"method": "rhf"
			}
		],
		"cosmo_sigma_profile": { 
			"-0.025": 0.0,
			"-0.024": 0.0,
			"-0.023": 0.0,
			"-0.022": 0.0,
			"-0.021": 0.0,
			"-0.02": 0.0,
			"-0.019": 0.0,
			"-0.018": 0.0,
			"-0.017": 0.0,
			"-0.016": 0.0,
			"-0.015": 0.0,
			"-0.014": 0.258166022859,
			"-0.013": 1.20853971642,
			"-0.012": 1.01388424624,
			"-0.011": 1.06286310181,
			"-0.01": 0.923212998132,
			"-0.009": 0.848039381963,
			"-0.008": 0.950785610074,
			"-0.007": 2.16895972184,
			"-0.006": 7.43268742913,
			"-0.005": 17.7755407655,
			"-0.004": 26.6197251833,
			"-0.003": 32.5926921981,
			"-0.002": 28.0090206752,
			"-0.001": 17.5858861533,
			"0.0": 14.8664727177,
			"0.001": 11.7680221385,
			"0.002": 13.5964343595,
			"0.003": 16.5594906803,
			"0.004": 8.68958852855,
			"0.005": 4.61290784375,
			"0.006": 4.91654945883,
			"0.007": 3.67290993716,
			"0.008": 3.61673138481,
			"0.009": 2.76033536181,
			"0.01": 3.38998861215,
			"0.011": 3.66631461846,
			"0.012": 2.46028250252,
			"0.013": 3.13654935441,
			"0.014": 5.60233124084,
			"0.015": 1.02221349078,
			"0.016": 0.0,
			"0.017": 0.0,
			"0.018": 0.0,
			"0.019": 0.0,
			"0.02": 0.0,
			"0.021": 0.0,
			"0.022": 0.0,
			"0.023": 0.0,
			"0.024": 0.0,
			"0.025": 0.0
		}
	}
}
