{
	 "smiles": "OC(=O)C1CCN(CC1)S(=O)(=O)C1=CN=CC=C1", 
	 "Tm": 511.15, 
	 "num_atms": 32, 
	 "gaussian": { 
		 "optdone": 1, 
		 "sigma_profile": "yes", 
		 "theory": "DFT", 
		 "functional": "B3LYP", 
		 "basiset": "6-31G**", 
		 "properties": { 
			 "R2extent": 5146.5068, 
			 "electric_dipole_moment_norm": 4.46655705773, 
			 "electric_quadrupole_moment_norm": 20.1105139576, 
			 "total_energy": -1236.12457348, 
			 "HOMO_LUMO_gap": 0.20055, 
			 "cosmo_polarized_energy": -21.3, 
			 "cosmo_cavitation_energy": 35.92, 
			 "cosmo_dispersion_energy": -25.33, 
			 "cosmo_repulsion_energy": 1.92, 
			 "cosmo_total_nonelectrostatic_energy": 12.51, 
			 "SMD_solvation_energy": 3.66 
		},
		"coords": [
			{
				"x": 1.2247035128,
				"y": -3.298693273,
				"z": -0.4269521959,
				"element": "O" 
			},
			{
				"x": 2.4237107461,
				"y": -2.7158728572,
				"z": -0.6979351906,
				"element": "C" 
			},
			{
				"x": 3.3387504658,
				"y": -3.3276577399,
				"z": -1.2009000417,
				"element": "O" 
			},
			{
				"x": 2.4447934639,
				"y": -1.2480150962,
				"z": -0.3156963673,
				"element": "C" 
			},
			{
				"x": 1.5703986577,
				"y": -0.4261784309,
				"z": -1.303593488,
				"element": "C" 
			},
			{
				"x": 1.1658055593,
				"y": 0.9153777245,
				"z": -0.6896138654,
				"element": "C" 
			},
			{
				"x": 0.3605451067,
				"y": 0.7146203267,
				"z": 0.53551229,
				"element": "N" 
			},
			{
				"x": 0.5360630714,
				"y": -0.5584653342,
				"z": 1.264457721,
				"element": "C" 
			},
			{
				"x": 1.9970004101,
				"y": -0.997951857,
				"z": 1.1542450558,
				"element": "C" 
			},
			{
				"x": -1.1161982415,
				"y": 1.4855493024,
				"z": 0.6702114665,
				"element": "S" 
			},
			{
				"x": -1.5194971025,
				"y": 1.3618273449,
				"z": 2.0723284753,
				"element": "O" 
			},
			{
				"x": -0.977266978,
				"y": 2.7777121251,
				"z": -0.0030767107,
				"element": "O" 
			},
			{
				"x": -2.297139335,
				"y": 0.5223424332,
				"z": -0.2876867893,
				"element": "C" 
			},
			{
				"x": -2.5069798202,
				"y": 0.8050808535,
				"z": -1.6424058763,
				"element": "C" 
			},
			{
				"x": -3.340154944,
				"y": 0.0951444718,
				"z": -2.4103056064,
				"element": "N" 
			},
			{
				"x": -3.9993467213,
				"y": -0.9189233863,
				"z": -1.8342214516,
				"element": "C" 
			},
			{
				"x": -3.874391364,
				"y": -1.2615001573,
				"z": -0.4859362463,
				"element": "C" 
			},
			{
				"x": -3.0020040974,
				"y": -0.523814257,
				"z": 0.3110333022,
				"element": "C" 
			},
			{
				"x": 1.3025132818,
				"y": -4.2238398791,
				"z": -0.7151861486,
				"element": "H" 
			},
			{
				"x": 3.4880323073,
				"y": -0.9418924839,
				"z": -0.4268274933,
				"element": "H" 
			},
			{
				"x": 0.6666036722,
				"y": -0.9888285156,
				"z": -1.5600049162,
				"element": "H" 
			},
			{
				"x": 2.1192926235,
				"y": -0.2561930552,
				"z": -2.2350430553,
				"element": "H" 
			},
			{
				"x": 0.5943322308,
				"y": 1.5141456099,
				"z": -1.4009632842,
				"element": "H" 
			},
			{
				"x": 2.05714746,
				"y": 1.5033283057,
				"z": -0.4355984167,
				"element": "H" 
			},
			{
				"x": 0.2666354593,
				"y": -0.3885073935,
				"z": 2.3080362127,
				"element": "H" 
			},
			{
				"x": -0.1167503502,
				"y": -1.3483987932,
				"z": 0.8653231603,
				"element": "H" 
			},
			{
				"x": 2.6291290031,
				"y": -0.2157751916,
				"z": 1.5868440623,
				"element": "H" 
			},
			{
				"x": 2.1420459072,
				"y": -1.8943432006,
				"z": 1.7640614057,
				"element": "H" 
			},
			{
				"x": -2.0021882903,
				"y": 1.6472061667,
				"z": -2.1084814887,
				"element": "H" 
			},
			{
				"x": -4.6694277529,
				"y": -1.4804708384,
				"z": -2.4824137729,
				"element": "H" 
			},
			{
				"x": -4.4528102766,
				"y": -2.0809212726,
				"z": -0.0715569565,
				"element": "H" 
			},
			{
				"x": -2.883047665,
				"y": -0.7257916519,
				"z": 1.3701462103,
				"element": "H" 
			}
		],
		 "valence_orbital": [ 
			{
				"type": "occ",
				"energy": -0.30495,
				"method": "rhf"
			},
			{
				"type": "occ",
				"energy": -0.28981,
				"method": "rhf"
			},
			{
				"type": "occ",
				"energy": -0.2827,
				"method": "rhf"
			},
			{
				"type": "occ",
				"energy": -0.27108,
				"method": "rhf"
			},
			{
				"type": "occ",
				"energy": -0.25316,
				"method": "rhf"
			},
			{
				"type": "unocc",
				"energy": -0.05261,
				"method": "rhf"
			},
			{
				"type": "unocc",
				"energy": -0.04155,
				"method": "rhf"
			},
			{
				"type": "unocc",
				"energy": -0.00512,
				"method": "rhf"
			},
			{
				"type": "unocc",
				"energy": 0.05001,
				"method": "rhf"
			},
			{
				"type": "unocc",
				"energy": 0.05723,
				"method": "rhf"
			}
		],
		"cosmo_sigma_profile": { 
			"-0.025": 0.0,
			"-0.024": 0.0,
			"-0.023": 0.0,
			"-0.022": 0.0,
			"-0.021": 0.0,
			"-0.02": 0.0,
			"-0.019": 0.0237456765341,
			"-0.018": 0.953261689707,
			"-0.017": 0.670828955066,
			"-0.016": 0.914653590741,
			"-0.015": 0.750982602499,
			"-0.014": 0.547351118324,
			"-0.013": 0.424173846897,
			"-0.012": 0.81827337903,
			"-0.011": 0.945185559494,
			"-0.01": 0.687379400032,
			"-0.009": 0.523046493236,
			"-0.008": 4.60022604053,
			"-0.007": 10.3959912687,
			"-0.006": 15.0020292978,
			"-0.005": 29.5993650818,
			"-0.004": 29.041879571,
			"-0.003": 26.8295200216,
			"-0.002": 19.8641352297,
			"-0.001": 16.989594533,
			"0.0": 17.6936969288,
			"0.001": 13.6655537462,
			"0.002": 8.42783443897,
			"0.003": 8.41219348897,
			"0.004": 8.54086881081,
			"0.005": 6.86693047734,
			"0.006": 8.13826522427,
			"0.007": 7.13372708793,
			"0.008": 5.69259222741,
			"0.009": 5.867109606,
			"0.01": 10.441817606,
			"0.011": 12.4642582979,
			"0.012": 7.77793543039,
			"0.013": 1.27740875288,
			"0.014": 1.32001494283,
			"0.015": 0.563727258195,
			"0.016": 0.135422934562,
			"0.017": 0.0,
			"0.018": 0.0,
			"0.019": 0.0,
			"0.02": 0.0,
			"0.021": 0.0,
			"0.022": 0.0,
			"0.023": 0.0,
			"0.024": 0.0,
			"0.025": 0.0
		}
	}
}
