{
	 "smiles": "CCCCCOC(=O)CCCCC", 
	 "Tm": 226.15, 
	 "num_atms": 35, 
	 "gaussian": { 
		 "optdone": 1, 
		 "sigma_profile": "yes", 
		 "theory": "DFT", 
		 "functional": "B3LYP", 
		 "basiset": "6-31G**", 
		 "properties": { 
			 "R2extent": 5272.955, 
			 "electric_dipole_moment_norm": 1.93968181927, 
			 "electric_quadrupole_moment_norm": 8.54493851763, 
			 "total_energy": -582.916200546, 
			 "HOMO_LUMO_gap": 0.27641, 
			 "cosmo_polarized_energy": -6.44, 
			 "cosmo_cavitation_energy": 35.97, 
			 "cosmo_dispersion_energy": -24.59, 
			 "cosmo_repulsion_energy": 2.03, 
			 "cosmo_total_nonelectrostatic_energy": 13.4, 
			 "SMD_solvation_energy": 6.18 
		},
		"coords": [
			{
				"x": -0.8092094676,
				"y": -2.3543898078,
				"z": -5.450007862,
				"element": "C" 
			},
			{
				"x": 0.5906853103,
				"y": -2.8766780039,
				"z": -5.1052250754,
				"element": "C" 
			},
			{
				"x": 1.1245888013,
				"y": -2.4993868824,
				"z": -3.7118265361,
				"element": "C" 
			},
			{
				"x": 1.3486599641,
				"y": -0.9920895572,
				"z": -3.4626166581,
				"element": "C" 
			},
			{
				"x": 0.1617700038,
				"y": -0.2447352947,
				"z": -2.867021863,
				"element": "C" 
			},
			{
				"x": -0.0661031805,
				"y": -0.7737816419,
				"z": -1.5388827044,
				"element": "O" 
			},
			{
				"x": -1.1362794206,
				"y": -0.2774634517,
				"z": -0.876234224,
				"element": "C" 
			},
			{
				"x": -1.8840868632,
				"y": 0.556328828,
				"z": -1.3444763064,
				"element": "O" 
			},
			{
				"x": -1.2403687134,
				"y": -0.8650180031,
				"z": 0.5154866154,
				"element": "C" 
			},
			{
				"x": -0.2170073378,
				"y": -0.242525536,
				"z": 1.492706759,
				"element": "C" 
			},
			{
				"x": -0.3041029233,
				"y": 1.2869528015,
				"z": 1.6394307706,
				"element": "C" 
			},
			{
				"x": -1.6657705833,
				"y": 1.8411656352,
				"z": 2.0930340394,
				"element": "C" 
			},
			{
				"x": -2.1346945164,
				"y": 1.3317240065,
				"z": 3.4608523542,
				"element": "C" 
			},
			{
				"x": -1.5454407971,
				"y": -2.6583743971,
				"z": -4.6969510662,
				"element": "H" 
			},
			{
				"x": -0.8355346771,
				"y": -1.2620664752,
				"z": -5.5192559132,
				"element": "H" 
			},
			{
				"x": -1.1435397035,
				"y": -2.7461458748,
				"z": -6.4164709829,
				"element": "H" 
			},
			{
				"x": 1.3032958812,
				"y": -2.5264304581,
				"z": -5.8650518467,
				"element": "H" 
			},
			{
				"x": 0.5862163264,
				"y": -3.971739808,
				"z": -5.1814199492,
				"element": "H" 
			},
			{
				"x": 0.4560985139,
				"y": -2.8936337681,
				"z": -2.93601969,
				"element": "H" 
			},
			{
				"x": 2.0809213383,
				"y": -3.0175979523,
				"z": -3.5719794997,
				"element": "H" 
			},
			{
				"x": 2.1967328202,
				"y": -0.8544937234,
				"z": -2.7814862546,
				"element": "H" 
			},
			{
				"x": 1.6260333181,
				"y": -0.4918353079,
				"z": -4.4002803325,
				"element": "H" 
			},
			{
				"x": 0.3657053018,
				"y": 0.8283428223,
				"z": -2.7855448795,
				"element": "H" 
			},
			{
				"x": -0.7543471363,
				"y": -0.3615798611,
				"z": -3.4507370445,
				"element": "H" 
			},
			{
				"x": -2.2625876535,
				"y": -0.6958152094,
				"z": 0.8614031207,
				"element": "H" 
			},
			{
				"x": -1.0689560482,
				"y": -1.9449264056,
				"z": 0.4595326464,
				"element": "H" 
			},
			{
				"x": 0.7914013517,
				"y": -0.5101440838,
				"z": 1.1568174104,
				"element": "H" 
			},
			{
				"x": -0.3532121791,
				"y": -0.7218056444,
				"z": 2.4691899397,
				"element": "H" 
			},
			{
				"x": -0.0405389202,
				"y": 1.7553425751,
				"z": 0.6824616212,
				"element": "H" 
			},
			{
				"x": 0.4686802019,
				"y": 1.6019615207,
				"z": 2.3539050164,
				"element": "H" 
			},
			{
				"x": -1.591738582,
				"y": 2.9354924415,
				"z": 2.1265313507,
				"element": "H" 
			},
			{
				"x": -2.4213519127,
				"y": 1.6191412463,
				"z": 1.3301486096,
				"element": "H" 
			},
			{
				"x": -1.3924227282,
				"y": 1.5442906239,
				"z": 4.2395598024,
				"element": "H" 
			},
			{
				"x": -2.3090051815,
				"y": 0.2501427931,
				"z": 3.4600306448,
				"element": "H" 
			},
			{
				"x": -3.0730906077,
				"y": 1.8111718537,
				"z": 3.7581979876,
				"element": "H" 
			}
		],
		 "valence_orbital": [ 
			{
				"type": "occ",
				"energy": -0.31815,
				"method": "rhf"
			},
			{
				"type": "occ",
				"energy": -0.31624,
				"method": "rhf"
			},
			{
				"type": "occ",
				"energy": -0.31247,
				"method": "rhf"
			},
			{
				"type": "occ",
				"energy": -0.29149,
				"method": "rhf"
			},
			{
				"type": "occ",
				"energy": -0.2614,
				"method": "rhf"
			},
			{
				"type": "unocc",
				"energy": 0.01501,
				"method": "rhf"
			},
			{
				"type": "unocc",
				"energy": 0.07937,
				"method": "rhf"
			},
			{
				"type": "unocc",
				"energy": 0.08721,
				"method": "rhf"
			},
			{
				"type": "unocc",
				"energy": 0.11629,
				"method": "rhf"
			},
			{
				"type": "unocc",
				"energy": 0.11825,
				"method": "rhf"
			}
		],
		"cosmo_sigma_profile": { 
			"-0.025": 0.0,
			"-0.024": 0.0,
			"-0.023": 0.0,
			"-0.022": 0.0,
			"-0.021": 0.0,
			"-0.02": 0.0,
			"-0.019": 0.0,
			"-0.018": 0.0,
			"-0.017": 0.0,
			"-0.016": 0.0,
			"-0.015": 0.0,
			"-0.014": 0.0,
			"-0.013": 0.0,
			"-0.012": 0.0,
			"-0.011": 0.0,
			"-0.01": 0.0,
			"-0.009": 0.0,
			"-0.008": 0.0,
			"-0.007": 0.0,
			"-0.006": 0.0763482719376,
			"-0.005": 3.70681096215,
			"-0.004": 10.2265608298,
			"-0.003": 32.0214611354,
			"-0.002": 49.1239759786,
			"-0.001": 48.8651325119,
			"0.0": 47.9168265077,
			"0.001": 36.638493922,
			"0.002": 16.2628110135,
			"0.003": 4.4664402904,
			"0.004": 4.52435683445,
			"0.005": 3.22633430824,
			"0.006": 3.65901778556,
			"0.007": 2.71955842404,
			"0.008": 1.63551470659,
			"0.009": 1.93435004258,
			"0.01": 1.46009491713,
			"0.011": 2.38985778092,
			"0.012": 4.2612801183,
			"0.013": 1.98980876488,
			"0.014": 0.0,
			"0.015": 0.0,
			"0.016": 0.0,
			"0.017": 0.0,
			"0.018": 0.0,
			"0.019": 0.0,
			"0.02": 0.0,
			"0.021": 0.0,
			"0.022": 0.0,
			"0.023": 0.0,
			"0.024": 0.0,
			"0.025": 0.0
		}
	}
}
