{
	 "smiles": "CC(C)COC1=C(C=CC=N1)C(O)=O", 
	 "Tm": 358.15, 
	 "num_atms": 27, 
	 "gaussian": { 
		 "optdone": 1, 
		 "sigma_profile": "yes", 
		 "theory": "DFT", 
		 "functional": "B3LYP", 
		 "basiset": "6-31G**", 
		 "properties": { 
			 "R2extent": 3719.8643, 
			 "electric_dipole_moment_norm": 1.70664544941, 
			 "electric_quadrupole_moment_norm": 10.2217419646, 
			 "total_energy": -669.344275716, 
			 "HOMO_LUMO_gap": 0.18518, 
			 "cosmo_polarized_energy": -10.6, 
			 "cosmo_cavitation_energy": 30.72, 
			 "cosmo_dispersion_energy": -21.65, 
			 "cosmo_repulsion_energy": 1.73, 
			 "cosmo_total_nonelectrostatic_energy": 10.79, 
			 "SMD_solvation_energy": 6.31 
		},
		"coords": [
			{
				"x": 2.7360622162,
				"y": -2.5454749297,
				"z": 1.3311228426,
				"element": "C" 
			},
			{
				"x": 2.130549099,
				"y": -2.1394916807,
				"z": -0.019155074,
				"element": "C" 
			},
			{
				"x": 2.6300727948,
				"y": -3.0382637156,
				"z": -1.1594501953,
				"element": "C" 
			},
			{
				"x": 0.5994918654,
				"y": -2.1727080512,
				"z": 0.0195956785,
				"element": "C" 
			},
			{
				"x": 0.0631991084,
				"y": -1.3210170863,
				"z": 1.0544611472,
				"element": "O" 
			},
			{
				"x": -0.1460843507,
				"y": -0.0224559634,
				"z": 0.7917231605,
				"element": "C" 
			},
			{
				"x": -0.6348949377,
				"y": 0.8136054991,
				"z": 1.8339098455,
				"element": "C" 
			},
			{
				"x": -0.8841661801,
				"y": 2.149889907,
				"z": 1.5078448018,
				"element": "C" 
			},
			{
				"x": -0.6433863395,
				"y": 2.6232198523,
				"z": 0.2214440623,
				"element": "C" 
			},
			{
				"x": -0.1466681562,
				"y": 1.7175618295,
				"z": -0.7114944189,
				"element": "C" 
			},
			{
				"x": 0.0965462317,
				"y": 0.4311893807,
				"z": -0.4390743927,
				"element": "N" 
			},
			{
				"x": -0.9071794631,
				"y": 0.4208113842,
				"z": 3.2437099438,
				"element": "C" 
			},
			{
				"x": -0.5585517414,
				"y": -0.8414838188,
				"z": 3.5701324971,
				"element": "O" 
			},
			{
				"x": -1.3958851722,
				"y": 1.1801642909,
				"z": 4.0620983367,
				"element": "O" 
			},
			{
				"x": 3.8259822444,
				"y": -2.4401364,
				"z": 1.3185147456,
				"element": "H" 
			},
			{
				"x": 2.3399324011,
				"y": -1.9301600449,
				"z": 2.143541754,
				"element": "H" 
			},
			{
				"x": 2.5053029391,
				"y": -3.5929227564,
				"z": 1.5626382259,
				"element": "H" 
			},
			{
				"x": 2.4238736025,
				"y": -1.1059109181,
				"z": -0.2430018051,
				"element": "H" 
			},
			{
				"x": 3.7226754778,
				"y": -3.0146966254,
				"z": -1.2219582006,
				"element": "H" 
			},
			{
				"x": 2.3321918806,
				"y": -4.0820127966,
				"z": -0.9999781705,
				"element": "H" 
			},
			{
				"x": 2.2325923614,
				"y": -2.7194014901,
				"z": -2.1291226492,
				"element": "H" 
			},
			{
				"x": 0.1779610671,
				"y": -1.8852178272,
				"z": -0.9458423635,
				"element": "H" 
			},
			{
				"x": 0.2438361073,
				"y": -3.1719561766,
				"z": 0.2909471627,
				"element": "H" 
			},
			{
				"x": -1.2652238498,
				"y": 2.7947788251,
				"z": 2.2925236939,
				"element": "H" 
			},
			{
				"x": -0.8271901349,
				"y": 3.6571905097,
				"z": -0.0478384728,
				"element": "H" 
			},
			{
				"x": 0.0708931141,
				"y": 2.0333783441,
				"z": -1.730555481,
				"element": "H" 
			},
			{
				"x": -0.7908321855,
				"y": -0.9289795418,
				"z": 4.5102633258,
				"element": "H" 
			}
		],
		 "valence_orbital": [ 
			{
				"type": "occ",
				"energy": -0.31418,
				"method": "rhf"
			},
			{
				"type": "occ",
				"energy": -0.28985,
				"method": "rhf"
			},
			{
				"type": "occ",
				"energy": -0.28333,
				"method": "rhf"
			},
			{
				"type": "occ",
				"energy": -0.26541,
				"method": "rhf"
			},
			{
				"type": "occ",
				"energy": -0.23895,
				"method": "rhf"
			},
			{
				"type": "unocc",
				"energy": -0.05377,
				"method": "rhf"
			},
			{
				"type": "unocc",
				"energy": -0.01052,
				"method": "rhf"
			},
			{
				"type": "unocc",
				"energy": 0.04962,
				"method": "rhf"
			},
			{
				"type": "unocc",
				"energy": 0.08298,
				"method": "rhf"
			},
			{
				"type": "unocc",
				"energy": 0.09047,
				"method": "rhf"
			}
		],
		"cosmo_sigma_profile": { 
			"-0.025": 0.0,
			"-0.024": 0.0,
			"-0.023": 0.0,
			"-0.022": 0.0,
			"-0.021": 0.0,
			"-0.02": 0.0,
			"-0.019": 0.0176609367876,
			"-0.018": 0.537711059583,
			"-0.017": 1.19717155654,
			"-0.016": 0.812899438217,
			"-0.015": 0.290398947923,
			"-0.014": 0.9289438304,
			"-0.013": 0.569413471107,
			"-0.012": 0.483384384108,
			"-0.011": 0.947896529665,
			"-0.01": 1.09025716529,
			"-0.009": 0.335959084215,
			"-0.008": 0.911588892766,
			"-0.007": 5.20476196114,
			"-0.006": 7.23764540175,
			"-0.005": 8.96122978548,
			"-0.004": 10.4551032468,
			"-0.003": 20.1652497036,
			"-0.002": 25.6840631627,
			"-0.001": 31.0455493326,
			"0.0": 29.3633280468,
			"0.001": 29.4110232435,
			"0.002": 17.2461992281,
			"0.003": 8.21801560253,
			"0.004": 4.74528423512,
			"0.005": 5.04314191887,
			"0.006": 5.19746397944,
			"0.007": 4.25878971099,
			"0.008": 3.96051167718,
			"0.009": 3.21067164525,
			"0.01": 4.06375937364,
			"0.011": 5.08093731659,
			"0.012": 4.89223687117,
			"0.013": 0.758769045572,
			"0.014": 0.00306325656853,
			"0.015": 0.0,
			"0.016": 0.0,
			"0.017": 0.0,
			"0.018": 0.0,
			"0.019": 0.0,
			"0.02": 0.0,
			"0.021": 0.0,
			"0.022": 0.0,
			"0.023": 0.0,
			"0.024": 0.0,
			"0.025": 0.0
		}
	}
}
