{
	 "smiles": "CS(=O)(=O)C1=CC(=C(F)C=C1)S(C)(=O)=O", 
	 "Tm": 470.15, 
	 "num_atms": 24, 
	 "gaussian": { 
		 "optdone": 1, 
		 "sigma_profile": "yes", 
		 "theory": "DFT", 
		 "functional": "B3LYP", 
		 "basiset": "6-31G**", 
		 "properties": { 
			 "R2extent": 4462.9323, 
			 "electric_dipole_moment_norm": 3.55594555779, 
			 "electric_quadrupole_moment_norm": 27.9533911152, 
			 "total_energy": -1507.24479553, 
			 "HOMO_LUMO_gap": 0.22305, 
			 "cosmo_polarized_energy": -23.69, 
			 "cosmo_cavitation_energy": 31.45, 
			 "cosmo_dispersion_energy": -23.24, 
			 "cosmo_repulsion_energy": 1.71, 
			 "cosmo_total_nonelectrostatic_energy": 9.92, 
			 "SMD_solvation_energy": 5.37 
		},
		"coords": [
			{
				"x": 1.6234290918,
				"y": 2.9277359046,
				"z": 1.1387258762,
				"element": "C" 
			},
			{
				"x": -0.1614934866,
				"y": 2.6866893211,
				"z": 1.2894985078,
				"element": "S" 
			},
			{
				"x": -0.7875228304,
				"y": 3.2090954522,
				"z": 0.0675621882,
				"element": "O" 
			},
			{
				"x": -0.5676161725,
				"y": 3.1560251264,
				"z": 2.6228562295,
				"element": "O" 
			},
			{
				"x": -0.3518350056,
				"y": 0.8923258147,
				"z": 1.2780180373,
				"element": "C" 
			},
			{
				"x": -0.3772909871,
				"y": 0.2130262892,
				"z": 0.059870085,
				"element": "C" 
			},
			{
				"x": -0.5332722096,
				"y": -1.1719938154,
				"z": 0.060841738,
				"element": "C" 
			},
			{
				"x": -0.6772684944,
				"y": -1.8431287693,
				"z": 1.278009617,
				"element": "C" 
			},
			{
				"x": -0.8548404536,
				"y": -3.1742389233,
				"z": 1.2807430065,
				"element": "F" 
			},
			{
				"x": -0.672765913,
				"y": -1.1669299577,
				"z": 2.49262324,
				"element": "C" 
			},
			{
				"x": -0.5033372183,
				"y": 0.2165986173,
				"z": 2.4910083417,
				"element": "C" 
			},
			{
				"x": -0.4535477531,
				"y": -2.0533003079,
				"z": -1.5185060303,
				"element": "S" 
			},
			{
				"x": -2.0685671511,
				"y": -2.8452444439,
				"z": -1.6464298633,
				"element": "C" 
			},
			{
				"x": 0.5676384506,
				"y": -3.1008199834,
				"z": -1.4074781741,
				"element": "O" 
			},
			{
				"x": -0.3614753638,
				"y": -1.0189509928,
				"z": -2.5584025276,
				"element": "O" 
			},
			{
				"x": 2.1220934042,
				"y": 2.4683754644,
				"z": 1.9932634994,
				"element": "H" 
			},
			{
				"x": 1.9677082956,
				"y": 2.4952322909,
				"z": 0.1983231597,
				"element": "H" 
			},
			{
				"x": 1.7836544552,
				"y": 4.0079633001,
				"z": 1.1402730458,
				"element": "H" 
			},
			{
				"x": -0.2934262007,
				"y": 0.737318283,
				"z": -0.8867705385,
				"element": "H" 
			},
			{
				"x": -0.8035633961,
				"y": -1.7271323515,
				"z": 3.4117935674,
				"element": "H" 
			},
			{
				"x": -0.5095789452,
				"y": 0.7796052548,
				"z": 3.4181756922,
				"element": "H" 
			},
			{
				"x": -2.0532446467,
				"y": -3.4134151238,
				"z": -2.5787703856,
				"element": "H" 
			},
			{
				"x": -2.1999117026,
				"y": -3.512287971,
				"z": -0.7943586656,
				"element": "H" 
			},
			{
				"x": -2.8403657671,
				"y": -2.0751484787,
				"z": -1.6813696467,
				"element": "H" 
			}
		],
		 "valence_orbital": [ 
			{
				"type": "occ",
				"energy": -0.30872,
				"method": "rhf"
			},
			{
				"type": "occ",
				"energy": -0.30818,
				"method": "rhf"
			},
			{
				"type": "occ",
				"energy": -0.30255,
				"method": "rhf"
			},
			{
				"type": "occ",
				"energy": -0.29732,
				"method": "rhf"
			},
			{
				"type": "occ",
				"energy": -0.29066,
				"method": "rhf"
			},
			{
				"type": "unocc",
				"energy": -0.06761,
				"method": "rhf"
			},
			{
				"type": "unocc",
				"energy": -0.05791,
				"method": "rhf"
			},
			{
				"type": "unocc",
				"energy": 0.02823,
				"method": "rhf"
			},
			{
				"type": "unocc",
				"energy": 0.05085,
				"method": "rhf"
			},
			{
				"type": "unocc",
				"energy": 0.06392,
				"method": "rhf"
			}
		],
		"cosmo_sigma_profile": { 
			"-0.025": 0.0,
			"-0.024": 0.0,
			"-0.023": 0.0,
			"-0.022": 0.0,
			"-0.021": 0.0,
			"-0.02": 0.0,
			"-0.019": 0.0,
			"-0.018": 0.0,
			"-0.017": 0.0,
			"-0.016": 0.0,
			"-0.015": 0.0,
			"-0.014": 0.0,
			"-0.013": 0.0,
			"-0.012": 0.0,
			"-0.011": 0.0517742250513,
			"-0.01": 2.09724005071,
			"-0.009": 13.1771633928,
			"-0.008": 14.7703465738,
			"-0.007": 16.5000761119,
			"-0.006": 14.8280001813,
			"-0.005": 17.1966349585,
			"-0.004": 18.3021897498,
			"-0.003": 17.3036147547,
			"-0.002": 15.2661953946,
			"-0.001": 14.388739641,
			"0.0": 10.4287834185,
			"0.001": 7.53377325753,
			"0.002": 9.59665743233,
			"0.003": 5.42276365147,
			"0.004": 4.86565817165,
			"0.005": 5.72202697686,
			"0.006": 4.03516048352,
			"0.007": 5.38746750263,
			"0.008": 7.18526425898,
			"0.009": 5.88993508789,
			"0.01": 14.8038844826,
			"0.011": 19.1024108613,
			"0.012": 7.93984749847,
			"0.013": 0.00191925585623,
			"0.014": 0.0,
			"0.015": 0.0,
			"0.016": 0.0,
			"0.017": 0.0,
			"0.018": 0.0,
			"0.019": 0.0,
			"0.02": 0.0,
			"0.021": 0.0,
			"0.022": 0.0,
			"0.023": 0.0,
			"0.024": 0.0,
			"0.025": 0.0
		}
	}
}
