{
	 "smiles": "CCOC(=O)C(C#N)=C(N)C1=CC2=C(OC1=O)C=CC(Br)=C2", 
	 "Tm": 544.15, 
	 "num_atms": 33, 
	 "gaussian": { 
		 "optdone": 1, 
		 "sigma_profile": "yes", 
		 "theory": "DFT", 
		 "functional": "B3LYP", 
		 "basiset": "6-31G**", 
		 "properties": { 
			 "R2extent": 12820.5494, 
			 "electric_dipole_moment_norm": 4.71525799188, 
			 "electric_quadrupole_moment_norm": 23.516627713, 
			 "total_energy": -3560.02436723, 
			 "HOMO_LUMO_gap": 0.14696, 
			 "cosmo_polarized_energy": -26.4, 
			 "cosmo_cavitation_energy": 42.4, 
			 "cosmo_dispersion_energy": -29.56, 
			 "cosmo_repulsion_energy": 2.31, 
			 "cosmo_total_nonelectrostatic_energy": 15.14, 
			 "SMD_solvation_energy": 9.09 
		},
		"coords": [
			{
				"x": -0.8673202331,
				"y": -4.4414532231,
				"z": 3.5044244256,
				"element": "C" 
			},
			{
				"x": -0.347135995,
				"y": -3.5411729135,
				"z": 2.4003359588,
				"element": "C" 
			},
			{
				"x": -1.2216171134,
				"y": -2.391152549,
				"z": 2.3347553885,
				"element": "O" 
			},
			{
				"x": -0.9102066294,
				"y": -1.4640368541,
				"z": 1.4085990327,
				"element": "C" 
			},
			{
				"x": 0.0351098374,
				"y": -1.5631158363,
				"z": 0.6440214801,
				"element": "O" 
			},
			{
				"x": -1.8657845006,
				"y": -0.3413838669,
				"z": 1.4396018297,
				"element": "C" 
			},
			{
				"x": -3.0048659471,
				"y": -0.3876145926,
				"z": 2.2923673552,
				"element": "C" 
			},
			{
				"x": -3.9732388714,
				"y": -0.328669677,
				"z": 2.9396323234,
				"element": "N" 
			},
			{
				"x": -1.7184450328,
				"y": 0.7659575392,
				"z": 0.6271129613,
				"element": "C" 
			},
			{
				"x": -2.6711048189,
				"y": 1.7297254401,
				"z": 0.549045822,
				"element": "N" 
			},
			{
				"x": -0.552239295,
				"y": 0.969378978,
				"z": -0.2730689494,
				"element": "C" 
			},
			{
				"x": -0.7104189756,
				"y": 1.0620324773,
				"z": -1.6170014621,
				"element": "C" 
			},
			{
				"x": 0.4247205902,
				"y": 1.2376760411,
				"z": -2.4846976036,
				"element": "C" 
			},
			{
				"x": 1.6941574592,
				"y": 1.3215946306,
				"z": -1.8845771711,
				"element": "C" 
			},
			{
				"x": 1.8408370413,
				"y": 1.2876667581,
				"z": -0.5306358799,
				"element": "O" 
			},
			{
				"x": 0.7733909211,
				"y": 1.1536024842,
				"z": 0.3492266157,
				"element": "C" 
			},
			{
				"x": 0.9957061401,
				"y": 1.2425011139,
				"z": 1.5295383543,
				"element": "O" 
			},
			{
				"x": 2.8490029009,
				"y": 1.4583601552,
				"z": -2.656794714,
				"element": "C" 
			},
			{
				"x": 2.7404980577,
				"y": 1.5187678826,
				"z": -4.0413716393,
				"element": "C" 
			},
			{
				"x": 1.4788427197,
				"y": 1.4412521201,
				"z": -4.6476191354,
				"element": "C" 
			},
			{
				"x": 1.3491581492,
				"y": 1.528622444,
				"z": -6.5492172442,
				"element": "Br" 
			},
			{
				"x": 0.3287458058,
				"y": 1.300456662,
				"z": -3.887235546,
				"element": "C" 
			},
			{
				"x": -0.2312734371,
				"y": -5.328167574,
				"z": 3.5887252929,
				"element": "H" 
			},
			{
				"x": -0.8639643019,
				"y": -3.9209188031,
				"z": 4.4660739679,
				"element": "H" 
			},
			{
				"x": -1.8896265434,
				"y": -4.7678261677,
				"z": 3.293850668,
				"element": "H" 
			},
			{
				"x": -0.347234809,
				"y": -4.0400257286,
				"z": 1.4258709917,
				"element": "H" 
			},
			{
				"x": 0.6728983172,
				"y": -3.1955113046,
				"z": 2.5944797089,
				"element": "H" 
			},
			{
				"x": -3.462011297,
				"y": 1.6891617295,
				"z": 1.1799178889,
				"element": "H" 
			},
			{
				"x": -2.4269022073,
				"y": 2.6295583994,
				"z": 0.1669713571,
				"element": "H" 
			},
			{
				"x": -1.6980578826,
				"y": 0.9574236654,
				"z": -2.0589126221,
				"element": "H" 
			},
			{
				"x": 3.8123734433,
				"y": 1.5169479279,
				"z": -2.1627530972,
				"element": "H" 
			},
			{
				"x": 3.6283877138,
				"y": 1.625857887,
				"z": -4.6535568355,
				"element": "H" 
			},
			{
				"x": -0.6430812061,
				"y": 1.2336047548,
				"z": -4.3640095234,
				"element": "H" 
			}
		],
		 "valence_orbital": [ 
			{
				"type": "occ",
				"energy": -0.29071,
				"method": "rhf"
			},
			{
				"type": "occ",
				"energy": -0.28262,
				"method": "rhf"
			},
			{
				"type": "occ",
				"energy": -0.26574,
				"method": "rhf"
			},
			{
				"type": "occ",
				"energy": -0.24758,
				"method": "rhf"
			},
			{
				"type": "occ",
				"energy": -0.2371,
				"method": "rhf"
			},
			{
				"type": "unocc",
				"energy": -0.09014,
				"method": "rhf"
			},
			{
				"type": "unocc",
				"energy": -0.04883,
				"method": "rhf"
			},
			{
				"type": "unocc",
				"energy": -0.03169,
				"method": "rhf"
			},
			{
				"type": "unocc",
				"energy": -0.01643,
				"method": "rhf"
			},
			{
				"type": "unocc",
				"energy": -0.00962,
				"method": "rhf"
			}
		],
		"cosmo_sigma_profile": { 
			"-0.025": 0.0,
			"-0.024": 0.0,
			"-0.023": 0.0,
			"-0.022": 0.0,
			"-0.021": 0.0,
			"-0.02": 0.0,
			"-0.019": 0.0,
			"-0.018": 0.0,
			"-0.017": 0.0120687759153,
			"-0.016": 1.13312233063,
			"-0.015": 1.46665898483,
			"-0.014": 2.5021486572,
			"-0.013": 2.94581721026,
			"-0.012": 1.72433202783,
			"-0.011": 2.23102702248,
			"-0.01": 4.63469972004,
			"-0.009": 5.71216332423,
			"-0.008": 9.73059345543,
			"-0.007": 10.5483657311,
			"-0.006": 9.98084403533,
			"-0.005": 16.1968667224,
			"-0.004": 21.7493344505,
			"-0.003": 23.2157717662,
			"-0.002": 24.7807476071,
			"-0.001": 28.6745298165,
			"0.0": 30.8797256639,
			"0.001": 27.3087356634,
			"0.002": 15.8135135103,
			"0.003": 15.4507157723,
			"0.004": 16.9967327151,
			"0.005": 7.9163022239,
			"0.006": 7.80098656794,
			"0.007": 8.79356874328,
			"0.008": 9.96915561043,
			"0.009": 7.28453237711,
			"0.01": 8.27885825921,
			"0.011": 9.87095560323,
			"0.012": 7.00667628808,
			"0.013": 2.48034989011,
			"0.014": 0.532111063775,
			"0.015": 0.0,
			"0.016": 0.0,
			"0.017": 0.0,
			"0.018": 0.0,
			"0.019": 0.0,
			"0.02": 0.0,
			"0.021": 0.0,
			"0.022": 0.0,
			"0.023": 0.0,
			"0.024": 0.0,
			"0.025": 0.0
		}
	}
}
