{
	 "smiles": "COC1=CC(=CC=C1O)C1NN2C(S1)=NN=C2C1=CN=CC=C1", 
	 "Tm": 489.15, 
	 "num_atms": 36, 
	 "gaussian": { 
		 "optdone": 1, 
		 "sigma_profile": "yes", 
		 "theory": "DFT", 
		 "functional": "B3LYP", 
		 "basiset": "6-31G**", 
		 "properties": { 
			 "R2extent": 10470.9887, 
			 "electric_dipole_moment_norm": 8.27589729878, 
			 "electric_quadrupole_moment_norm": 28.1816594817, 
			 "total_energy": -1401.73324239, 
			 "HOMO_LUMO_gap": 0.17445, 
			 "cosmo_polarized_energy": -25.25, 
			 "cosmo_cavitation_energy": 42.39, 
			 "cosmo_dispersion_energy": -30.89, 
			 "cosmo_repulsion_energy": 2.28, 
			 "cosmo_total_nonelectrostatic_energy": 13.79, 
			 "SMD_solvation_energy": 3.7 
		},
		"coords": [
			{
				"x": 3.2253077698,
				"y": 1.8252121713,
				"z": 3.1344481726,
				"element": "C" 
			},
			{
				"x": 3.6109880113,
				"y": 0.455915101,
				"z": 3.1403711001,
				"element": "O" 
			},
			{
				"x": 2.8286996511,
				"y": -0.4444633329,
				"z": 2.4666990138,
				"element": "C" 
			},
			{
				"x": 1.6861442341,
				"y": -0.1501999407,
				"z": 1.7344411878,
				"element": "C" 
			},
			{
				"x": 0.9726795673,
				"y": -1.1863624796,
				"z": 1.0996616374,
				"element": "C" 
			},
			{
				"x": 1.4219553527,
				"y": -2.5027038555,
				"z": 1.2203314786,
				"element": "C" 
			},
			{
				"x": 2.5712353826,
				"y": -2.7999769684,
				"z": 1.9561163675,
				"element": "C" 
			},
			{
				"x": 3.2807820595,
				"y": -1.7795203065,
				"z": 2.5796073936,
				"element": "C" 
			},
			{
				"x": 4.3935250605,
				"y": -2.0609674016,
				"z": 3.300113664,
				"element": "O" 
			},
			{
				"x": -0.2323280239,
				"y": -0.8892768456,
				"z": 0.2569223724,
				"element": "C" 
			},
			{
				"x": 0.1168366131,
				"y": -0.2396833017,
				"z": -1.0157993462,
				"element": "N" 
			},
			{
				"x": -1.0613589353,
				"y": 0.4019628513,
				"z": -1.4456557507,
				"element": "N" 
			},
			{
				"x": -1.9865392618,
				"y": 0.7675415969,
				"z": -0.5012727906,
				"element": "C" 
			},
			{
				"x": -1.5153862795,
				"y": 0.2565798288,
				"z": 1.1143106995,
				"element": "S" 
			},
			{
				"x": -2.9958131374,
				"y": 1.3903348721,
				"z": -1.0525639963,
				"element": "N" 
			},
			{
				"x": -2.7164812775,
				"y": 1.4509135459,
				"z": -2.4097089981,
				"element": "N" 
			},
			{
				"x": -1.5632422882,
				"y": 0.8491826571,
				"z": -2.6496896678,
				"element": "C" 
			},
			{
				"x": -0.9487422404,
				"y": 0.6947250043,
				"z": -3.9675433163,
				"element": "C" 
			},
			{
				"x": -1.5185681208,
				"y": 1.3677587557,
				"z": -5.0661658503,
				"element": "C" 
			},
			{
				"x": -1.0451821128,
				"y": 1.289526154,
				"z": -6.3100920192,
				"element": "N" 
			},
			{
				"x": 0.0362299752,
				"y": 0.5235977452,
				"z": -6.5164334113,
				"element": "C" 
			},
			{
				"x": 0.6783033861,
				"y": -0.1863804459,
				"z": -5.5025464889,
				"element": "C" 
			},
			{
				"x": 0.1800131644,
				"y": -0.1019711629,
				"z": -4.2045897441,
				"element": "C" 
			},
			{
				"x": 3.9668962245,
				"y": 2.3517944899,
				"z": 3.7358678349,
				"element": "H" 
			},
			{
				"x": 2.231972198,
				"y": 1.9596088993,
				"z": 3.5787504324,
				"element": "H" 
			},
			{
				"x": 3.2268910781,
				"y": 2.2334687373,
				"z": 2.1164603213,
				"element": "H" 
			},
			{
				"x": 1.3191029158,
				"y": 0.8682373217,
				"z": 1.6738535639,
				"element": "H" 
			},
			{
				"x": 0.8762496248,
				"y": -3.3059155198,
				"z": 0.7343491736,
				"element": "H" 
			},
			{
				"x": 2.9281705031,
				"y": -3.8189942013,
				"z": 2.0587080485,
				"element": "H" 
			},
			{
				"x": 4.7265818243,
				"y": -1.2229166448,
				"z": 3.6578824643,
				"element": "H" 
			},
			{
				"x": -0.7834789027,
				"y": -1.8020089572,
				"z": 0.0232344136,
				"element": "H" 
			},
			{
				"x": 0.8166734633,
				"y": 0.4852428066,
				"z": -0.8359236977,
				"element": "H" 
			},
			{
				"x": -2.3958518818,
				"y": 1.9891419865,
				"z": -4.9071080983,
				"element": "H" 
			},
			{
				"x": 0.403143333,
				"y": 0.4777413633,
				"z": -7.5402100962,
				"element": "H" 
			},
			{
				"x": 1.5489796045,
				"y": -0.7953749375,
				"z": -5.724913526,
				"element": "H" 
			},
			{
				"x": 0.648111465,
				"y": -0.6469695863,
				"z": -3.3915125417,
				"element": "H" 
			}
		],
		 "valence_orbital": [ 
			{
				"type": "occ",
				"energy": -0.26376,
				"method": "rhf"
			},
			{
				"type": "occ",
				"energy": -0.25997,
				"method": "rhf"
			},
			{
				"type": "occ",
				"energy": -0.2497,
				"method": "rhf"
			},
			{
				"type": "occ",
				"energy": -0.23268,
				"method": "rhf"
			},
			{
				"type": "occ",
				"energy": -0.22205,
				"method": "rhf"
			},
			{
				"type": "unocc",
				"energy": -0.0476,
				"method": "rhf"
			},
			{
				"type": "unocc",
				"energy": -0.03525,
				"method": "rhf"
			},
			{
				"type": "unocc",
				"energy": -0.02332,
				"method": "rhf"
			},
			{
				"type": "unocc",
				"energy": -0.01714,
				"method": "rhf"
			},
			{
				"type": "unocc",
				"energy": -0.00431,
				"method": "rhf"
			}
		],
		"cosmo_sigma_profile": { 
			"-0.025": 0.0,
			"-0.024": 0.0,
			"-0.023": 0.0,
			"-0.022": 0.0,
			"-0.021": 0.0,
			"-0.02": 0.0,
			"-0.019": 0.0,
			"-0.018": 0.0,
			"-0.017": 0.0,
			"-0.016": 0.0,
			"-0.015": 0.507158226173,
			"-0.014": 1.38370769911,
			"-0.013": 2.69581315521,
			"-0.012": 2.36815260466,
			"-0.011": 2.09560189771,
			"-0.01": 1.82098611715,
			"-0.009": 3.44186243817,
			"-0.008": 6.01488912969,
			"-0.007": 11.5751131412,
			"-0.006": 23.2476398382,
			"-0.005": 23.3553188066,
			"-0.004": 22.1163473837,
			"-0.003": 22.2602689822,
			"-0.002": 19.8580234134,
			"-0.001": 19.2215627443,
			"0.0": 23.4292250076,
			"0.001": 32.6075140421,
			"0.002": 28.3593092946,
			"0.003": 21.4000556961,
			"0.004": 18.0664346194,
			"0.005": 9.59291862906,
			"0.006": 6.75847286988,
			"0.007": 4.45885926983,
			"0.008": 4.11415954793,
			"0.009": 5.27037917008,
			"0.01": 4.17436156361,
			"0.011": 5.66121883469,
			"0.012": 3.79755440307,
			"0.013": 4.20803447369,
			"0.014": 3.71667814855,
			"0.015": 3.11721609467,
			"0.016": 1.76467256066,
			"0.017": 0.116862139028,
			"0.018": 0.0,
			"0.019": 0.0,
			"0.02": 0.0,
			"0.021": 0.0,
			"0.022": 0.0,
			"0.023": 0.0,
			"0.024": 0.0,
			"0.025": 0.0
		}
	}
}
