{
	 "smiles": "CC1=C(NC2=CC=CC=C12)C(O)=O", 
	 "Tm": 435.15, 
	 "num_atms": 22, 
	 "gaussian": { 
		 "optdone": 1, 
		 "sigma_profile": "yes", 
		 "theory": "DFT", 
		 "functional": "B3LYP", 
		 "basiset": "6-31G**", 
		 "properties": { 
			 "R2extent": 3021.9026, 
			 "electric_dipole_moment_norm": 3.62861717049, 
			 "electric_quadrupole_moment_norm": 17.5888176385, 
			 "total_energy": -591.712471806, 
			 "HOMO_LUMO_gap": 0.16503, 
			 "cosmo_polarized_energy": -14.0, 
			 "cosmo_cavitation_energy": 25.8, 
			 "cosmo_dispersion_energy": -19.34, 
			 "cosmo_repulsion_energy": 1.5, 
			 "cosmo_total_nonelectrostatic_energy": 7.97, 
			 "SMD_solvation_energy": 5.06 
		},
		"coords": [
			{
				"x": -2.5222564688,
				"y": 1.5056567059,
				"z": -1.8340192837,
				"element": "C" 
			},
			{
				"x": -1.5956083953,
				"y": 1.1481719352,
				"z": -0.7053204111,
				"element": "C" 
			},
			{
				"x": -1.876952521,
				"y": 1.1002639419,
				"z": 0.6540525495,
				"element": "C" 
			},
			{
				"x": -0.7397806626,
				"y": 0.7272456632,
				"z": 1.3478899441,
				"element": "N" 
			},
			{
				"x": 0.2897719273,
				"y": 0.5263325911,
				"z": 0.4707684793,
				"element": "C" 
			},
			{
				"x": 1.6203170074,
				"y": 0.1432139359,
				"z": 0.6961728685,
				"element": "C" 
			},
			{
				"x": 2.4449216894,
				"y": 0.0192423371,
				"z": -0.4114688994,
				"element": "C" 
			},
			{
				"x": 1.9673861448,
				"y": 0.2684485879,
				"z": -1.7194542986,
				"element": "C" 
			},
			{
				"x": 0.6534809073,
				"y": 0.6467231403,
				"z": -1.9414623232,
				"element": "C" 
			},
			{
				"x": -0.2139008825,
				"y": 0.7828607667,
				"z": -0.8386407859,
				"element": "C" 
			},
			{
				"x": -3.0777035485,
				"y": 1.3549012283,
				"z": 1.4672154035,
				"element": "C" 
			},
			{
				"x": -4.2158861967,
				"y": 1.7071890737,
				"z": 0.8200987425,
				"element": "O" 
			},
			{
				"x": -3.0651912258,
				"y": 1.2566081497,
				"z": 2.6777703279,
				"element": "O" 
			},
			{
				"x": -2.941009135,
				"y": 2.5156160731,
				"z": -1.7291863839,
				"element": "H" 
			},
			{
				"x": -1.9908654983,
				"y": 1.4924328045,
				"z": -2.7885314695,
				"element": "H" 
			},
			{
				"x": -3.3553414063,
				"y": 0.7966531302,
				"z": -1.9348972683,
				"element": "H" 
			},
			{
				"x": -0.7397923656,
				"y": 0.6386588818,
				"z": 2.3534475098,
				"element": "H" 
			},
			{
				"x": 1.9885955379,
				"y": -0.0484688108,
				"z": 1.6994654451,
				"element": "H" 
			},
			{
				"x": 3.4808854689,
				"y": -0.2756760113,
				"z": -0.2729801311,
				"element": "H" 
			},
			{
				"x": 2.6461083268,
				"y": 0.1597547326,
				"z": -2.559953356,
				"element": "H" 
			},
			{
				"x": 0.2995232191,
				"y": 0.8344694441,
				"z": -2.9513770061,
				"element": "H" 
			},
			{
				"x": -4.0745019225,
				"y": 1.731201699,
				"z": -0.1361896534,
				"element": "H" 
			}
		],
		 "valence_orbital": [ 
			{
				"type": "occ",
				"energy": -0.31429,
				"method": "rhf"
			},
			{
				"type": "occ",
				"energy": -0.28594,
				"method": "rhf"
			},
			{
				"type": "occ",
				"energy": -0.27806,
				"method": "rhf"
			},
			{
				"type": "occ",
				"energy": -0.23275,
				"method": "rhf"
			},
			{
				"type": "occ",
				"energy": -0.21656,
				"method": "rhf"
			},
			{
				"type": "unocc",
				"energy": -0.05153,
				"method": "rhf"
			},
			{
				"type": "unocc",
				"energy": 0.01151,
				"method": "rhf"
			},
			{
				"type": "unocc",
				"energy": 0.02396,
				"method": "rhf"
			},
			{
				"type": "unocc",
				"energy": 0.05729,
				"method": "rhf"
			},
			{
				"type": "unocc",
				"energy": 0.09629,
				"method": "rhf"
			}
		],
		"cosmo_sigma_profile": { 
			"-0.025": 0.0,
			"-0.024": 0.0,
			"-0.023": 0.0,
			"-0.022": 0.0,
			"-0.021": 0.0,
			"-0.02": 0.0,
			"-0.019": 0.0,
			"-0.018": 0.0,
			"-0.017": 0.0,
			"-0.016": 0.0,
			"-0.015": 0.606624596518,
			"-0.014": 1.91387927625,
			"-0.013": 1.88501024303,
			"-0.012": 2.85983745404,
			"-0.011": 2.32171505552,
			"-0.01": 2.55395142143,
			"-0.009": 2.74696203096,
			"-0.008": 2.17670510506,
			"-0.007": 5.03725656835,
			"-0.006": 10.4678534275,
			"-0.005": 11.7225606351,
			"-0.004": 14.5054465052,
			"-0.003": 15.2547626627,
			"-0.002": 14.255272889,
			"-0.001": 13.2919924854,
			"0.0": 11.0427237752,
			"0.001": 10.0372963961,
			"0.002": 11.6706412623,
			"0.003": 15.1906890677,
			"0.004": 11.8369453988,
			"0.005": 11.5930576053,
			"0.006": 8.81506399508,
			"0.007": 3.05248180391,
			"0.008": 2.84704599811,
			"0.009": 2.65790699858,
			"0.01": 4.37214988969,
			"0.011": 4.82336738352,
			"0.012": 4.15578496101,
			"0.013": 2.24123253539,
			"0.014": 0.318342828094,
			"0.015": 0.0,
			"0.016": 0.0,
			"0.017": 0.0,
			"0.018": 0.0,
			"0.019": 0.0,
			"0.02": 0.0,
			"0.021": 0.0,
			"0.022": 0.0,
			"0.023": 0.0,
			"0.024": 0.0,
			"0.025": 0.0
		}
	}
}
