{
	 "smiles": "CC1=CC(C(Cl)=O)=C(C)O1", 
	 "Tm": 293.15, 
	 "num_atms": 17, 
	 "gaussian": { 
		 "optdone": 1, 
		 "sigma_profile": "yes", 
		 "theory": "DFT", 
		 "functional": "B3LYP", 
		 "basiset": "6-31G**", 
		 "properties": { 
			 "R2extent": 2459.6036, 
			 "electric_dipole_moment_norm": 4.29500175204, 
			 "electric_quadrupole_moment_norm": 10.5613749346, 
			 "total_energy": -881.60650818, 
			 "HOMO_LUMO_gap": 0.18109, 
			 "cosmo_polarized_energy": -6.44, 
			 "cosmo_cavitation_energy": 23.43, 
			 "cosmo_dispersion_energy": -17.2, 
			 "cosmo_repulsion_energy": 1.42, 
			 "cosmo_total_nonelectrostatic_energy": 7.65, 
			 "SMD_solvation_energy": 5.32 
		},
		"coords": [
			{
				"x": -1.9458470026,
				"y": 2.8691416052,
				"z": 1.1897928406,
				"element": "C" 
			},
			{
				"x": -1.2521306383,
				"y": 1.5559195356,
				"z": 1.1214633575,
				"element": "C" 
			},
			{
				"x": -0.8508862992,
				"y": 0.6468300287,
				"z": 2.0443712707,
				"element": "C" 
			},
			{
				"x": -0.2279783139,
				"y": -0.4287491759,
				"z": 1.3155198519,
				"element": "C" 
			},
			{
				"x": 0.3804609613,
				"y": -1.6614403324,
				"z": 1.7761525284,
				"element": "C" 
			},
			{
				"x": 0.3354761152,
				"y": -1.8581649877,
				"z": 3.6032659806,
				"element": "Cl" 
			},
			{
				"x": 0.8837359048,
				"y": -2.5184487192,
				"z": 1.1065350677,
				"element": "O" 
			},
			{
				"x": -0.2961300894,
				"y": -0.0908481697,
				"z": -0.0229645156,
				"element": "C" 
			},
			{
				"x": 0.1574303483,
				"y": -0.7629300941,
				"z": -1.2692363627,
				"element": "C" 
			},
			{
				"x": -0.9128856181,
				"y": 1.105045963,
				"z": -0.1439410482,
				"element": "O" 
			},
			{
				"x": -2.8922903169,
				"y": 2.8513490104,
				"z": 0.6376925641,
				"element": "H" 
			},
			{
				"x": -2.1608238664,
				"y": 3.1175810791,
				"z": 2.2313035886,
				"element": "H" 
			},
			{
				"x": -1.3301733022,
				"y": 3.6699384129,
				"z": 0.7648717836,
				"element": "H" 
			},
			{
				"x": -0.9720024831,
				"y": 0.7116851363,
				"z": 3.1145884723,
				"element": "H" 
			},
			{
				"x": -0.3112282393,
				"y": -1.7463688165,
				"z": -1.3747557114,
				"element": "H" 
			},
			{
				"x": 1.2383578206,
				"y": -0.9336232911,
				"z": -1.2491790692,
				"element": "H" 
			},
			{
				"x": -0.0949849807,
				"y": -0.1478171846,
				"z": -2.1350805989,
				"element": "H" 
			}
		],
		 "valence_orbital": [ 
			{
				"type": "occ",
				"energy": -0.31147,
				"method": "rhf"
			},
			{
				"type": "occ",
				"energy": -0.31107,
				"method": "rhf"
			},
			{
				"type": "occ",
				"energy": -0.29728,
				"method": "rhf"
			},
			{
				"type": "occ",
				"energy": -0.28658,
				"method": "rhf"
			},
			{
				"type": "occ",
				"energy": -0.23689,
				"method": "rhf"
			},
			{
				"type": "unocc",
				"energy": -0.0558,
				"method": "rhf"
			},
			{
				"type": "unocc",
				"energy": 0.00918,
				"method": "rhf"
			},
			{
				"type": "unocc",
				"energy": 0.02628,
				"method": "rhf"
			},
			{
				"type": "unocc",
				"energy": 0.09205,
				"method": "rhf"
			},
			{
				"type": "unocc",
				"energy": 0.09748,
				"method": "rhf"
			}
		],
		"cosmo_sigma_profile": { 
			"-0.025": 0.0,
			"-0.024": 0.0,
			"-0.023": 0.0,
			"-0.022": 0.0,
			"-0.021": 0.0,
			"-0.02": 0.0,
			"-0.019": 0.0,
			"-0.018": 0.0,
			"-0.017": 0.0,
			"-0.016": 0.0,
			"-0.015": 0.0,
			"-0.014": 0.0,
			"-0.013": 0.0,
			"-0.012": 0.0,
			"-0.011": 0.0,
			"-0.01": 0.0,
			"-0.009": 0.0,
			"-0.008": 0.208449579006,
			"-0.007": 1.49033426687,
			"-0.006": 8.54911582957,
			"-0.005": 13.3327937214,
			"-0.004": 13.4408179163,
			"-0.003": 17.2287885115,
			"-0.002": 24.4481538753,
			"-0.001": 19.0896302386,
			"0.0": 15.5293658561,
			"0.001": 13.7613427957,
			"0.002": 11.189248393,
			"0.003": 11.9298337089,
			"0.004": 10.5901018305,
			"0.005": 10.4692973599,
			"0.006": 5.91839006817,
			"0.007": 2.9977088343,
			"0.008": 2.83414974777,
			"0.009": 3.83159636562,
			"0.01": 2.18032238761,
			"0.011": 0.0927194679484,
			"0.012": 0.0,
			"0.013": 0.0,
			"0.014": 0.0,
			"0.015": 0.0,
			"0.016": 0.0,
			"0.017": 0.0,
			"0.018": 0.0,
			"0.019": 0.0,
			"0.02": 0.0,
			"0.021": 0.0,
			"0.022": 0.0,
			"0.023": 0.0,
			"0.024": 0.0,
			"0.025": 0.0
		}
	}
}
