{
	 "smiles": "COCCN1C(S)=NC2=C1C=CC(Cl)=C2", 
	 "Tm": 469.15, 
	 "num_atms": 26, 
	 "gaussian": { 
		 "optdone": 1, 
		 "sigma_profile": "yes", 
		 "theory": "DFT", 
		 "functional": "B3LYP", 
		 "basiset": "6-31G**", 
		 "properties": { 
			 "R2extent": 6262.4538, 
			 "electric_dipole_moment_norm": 4.43998274434, 
			 "electric_quadrupole_moment_norm": 8.78808103115, 
			 "total_energy": -1430.78828693, 
			 "HOMO_LUMO_gap": 0.1952, 
			 "cosmo_polarized_energy": -12.39, 
			 "cosmo_cavitation_energy": 33.49, 
			 "cosmo_dispersion_energy": -24.35, 
			 "cosmo_repulsion_energy": 1.86, 
			 "cosmo_total_nonelectrostatic_energy": 11.01, 
			 "SMD_solvation_energy": 3.24 
		},
		"coords": [
			{
				"x": -3.4772320961,
				"y": 1.3547563753,
				"z": 1.3750422264,
				"element": "C" 
			},
			{
				"x": -2.8001577347,
				"y": 0.2229257284,
				"z": 1.8943112712,
				"element": "O" 
			},
			{
				"x": -1.4443276614,
				"y": 0.126952644,
				"z": 1.5113640858,
				"element": "C" 
			},
			{
				"x": -1.2922729622,
				"y": -0.5378331458,
				"z": 0.1294582383,
				"element": "C" 
			},
			{
				"x": 0.1020078549,
				"y": -0.7325830752,
				"z": -0.2405011637,
				"element": "N" 
			},
			{
				"x": 0.9156288353,
				"y": 0.1121101741,
				"z": -0.9711565281,
				"element": "C" 
			},
			{
				"x": 0.2764818085,
				"y": 1.617043075,
				"z": -1.6512971747,
				"element": "S" 
			},
			{
				"x": 2.1505121744,
				"y": -0.3034749576,
				"z": -1.1060254163,
				"element": "N" 
			},
			{
				"x": 2.1853441988,
				"y": -1.5077368458,
				"z": -0.4178542919,
				"element": "C" 
			},
			{
				"x": 0.9177321614,
				"y": -1.7956152138,
				"z": 0.1390955239,
				"element": "C" 
			},
			{
				"x": 0.6734726664,
				"y": -2.9500525688,
				"z": 0.8819574617,
				"element": "C" 
			},
			{
				"x": 1.7400136646,
				"y": -3.8293649861,
				"z": 1.0607637069,
				"element": "C" 
			},
			{
				"x": 3.0003914637,
				"y": -3.5427202291,
				"z": 0.5066170085,
				"element": "C" 
			},
			{
				"x": 4.3099362559,
				"y": -4.6931286474,
				"z": 0.769368384,
				"element": "Cl" 
			},
			{
				"x": 3.2525719001,
				"y": -2.3944395047,
				"z": -0.2352747003,
				"element": "C" 
			},
			{
				"x": -2.982295061,
				"y": 2.291132074,
				"z": 1.6725312177,
				"element": "H" 
			},
			{
				"x": -3.5568713272,
				"y": 1.3380418023,
				"z": 0.278219291,
				"element": "H" 
			},
			{
				"x": -4.4859260357,
				"y": 1.339261359,
				"z": 1.7937321616,
				"element": "H" 
			},
			{
				"x": -0.9539366714,
				"y": 1.1124627529,
				"z": 1.5083212979,
				"element": "H" 
			},
			{
				"x": -0.9445792521,
				"y": -0.491985097,
				"z": 2.2637320252,
				"element": "H" 
			},
			{
				"x": -1.7897300269,
				"y": -1.5120469309,
				"z": 0.1394419709,
				"element": "H" 
			},
			{
				"x": -1.7754232358,
				"y": 0.0604995117,
				"z": -0.6483069804,
				"element": "H" 
			},
			{
				"x": 1.4399774018,
				"y": 1.9140605489,
				"z": -2.2576577105,
				"element": "H" 
			},
			{
				"x": -0.2989922724,
				"y": -3.1697780587,
				"z": 1.311028817,
				"element": "H" 
			},
			{
				"x": 1.6051323239,
				"y": -4.7413666613,
				"z": 1.6305707756,
				"element": "H" 
			},
			{
				"x": 4.2294416271,
				"y": -2.1896201231,
				"z": -0.6563814978,
				"element": "H" 
			}
		],
		 "valence_orbital": [ 
			{
				"type": "occ",
				"energy": -0.28861,
				"method": "rhf"
			},
			{
				"type": "occ",
				"energy": -0.28517,
				"method": "rhf"
			},
			{
				"type": "occ",
				"energy": -0.27177,
				"method": "rhf"
			},
			{
				"type": "occ",
				"energy": -0.23064,
				"method": "rhf"
			},
			{
				"type": "occ",
				"energy": -0.22118,
				"method": "rhf"
			},
			{
				"type": "unocc",
				"energy": -0.02598,
				"method": "rhf"
			},
			{
				"type": "unocc",
				"energy": -0.00334,
				"method": "rhf"
			},
			{
				"type": "unocc",
				"energy": 0.00751,
				"method": "rhf"
			},
			{
				"type": "unocc",
				"energy": 0.03462,
				"method": "rhf"
			},
			{
				"type": "unocc",
				"energy": 0.04058,
				"method": "rhf"
			}
		],
		"cosmo_sigma_profile": { 
			"-0.025": 0.0,
			"-0.024": 0.0,
			"-0.023": 0.0,
			"-0.022": 0.0,
			"-0.021": 0.0,
			"-0.02": 0.0,
			"-0.019": 0.0,
			"-0.018": 0.0,
			"-0.017": 0.0,
			"-0.016": 0.0,
			"-0.015": 0.0,
			"-0.014": 0.0,
			"-0.013": 0.0352111043974,
			"-0.012": 1.36162428342,
			"-0.011": 1.33987025014,
			"-0.01": 1.33071278883,
			"-0.009": 1.1863675831,
			"-0.008": 3.56932442596,
			"-0.007": 10.1085531651,
			"-0.006": 11.4794277721,
			"-0.005": 17.185016323,
			"-0.004": 25.2799805059,
			"-0.003": 22.5437328678,
			"-0.002": 21.5801716739,
			"-0.001": 14.4519461393,
			"0.0": 15.9673110847,
			"0.001": 16.2026496719,
			"0.002": 20.4905963497,
			"0.003": 25.7384657054,
			"0.004": 19.8383377801,
			"0.005": 16.2503170564,
			"0.006": 6.3348112161,
			"0.007": 3.2830756014,
			"0.008": 2.33501172936,
			"0.009": 2.23301595613,
			"0.01": 2.46356809878,
			"0.011": 2.11264751861,
			"0.012": 2.22687582812,
			"0.013": 2.20534002622,
			"0.014": 1.01708520193,
			"0.015": 0.650146282873,
			"0.016": 0.555251818365,
			"0.017": 0.0,
			"0.018": 0.0,
			"0.019": 0.0,
			"0.02": 0.0,
			"0.021": 0.0,
			"0.022": 0.0,
			"0.023": 0.0,
			"0.024": 0.0,
			"0.025": 0.0
		}
	}
}
