{
	 "smiles": "CCOC(=O)C1=C(N)C=CC(=C1)C1=CC=CC=C1", 
	 "Tm": 333.15, 
	 "num_atms": 33, 
	 "gaussian": { 
		 "optdone": 1, 
		 "sigma_profile": "yes", 
		 "theory": "DFT", 
		 "functional": "B3LYP", 
		 "basiset": "6-31G**", 
		 "properties": { 
			 "R2extent": 6576.3748, 
			 "electric_dipole_moment_norm": 0.557628819198, 
			 "electric_quadrupole_moment_norm": 13.4921967174, 
			 "total_energy": -785.875711319, 
			 "HOMO_LUMO_gap": 0.1555, 
			 "cosmo_polarized_energy": -10.27, 
			 "cosmo_cavitation_energy": 36.54, 
			 "cosmo_dispersion_energy": -26.6, 
			 "cosmo_repulsion_energy": 2.07, 
			 "cosmo_total_nonelectrostatic_energy": 12.0, 
			 "SMD_solvation_energy": 6.82 
		},
		"coords": [
			{
				"x": -0.4612730421,
				"y": 1.0857498591,
				"z": 4.3319917002,
				"element": "C" 
			},
			{
				"x": 0.6295814708,
				"y": 0.5916016477,
				"z": 3.3932169697,
				"element": "C" 
			},
			{
				"x": 0.2394228684,
				"y": 0.7333356957,
				"z": 2.0084498916,
				"element": "O" 
			},
			{
				"x": 0.4636116952,
				"y": 1.9360517913,
				"z": 1.4304609308,
				"element": "C" 
			},
			{
				"x": 0.9772013543,
				"y": 2.8661175816,
				"z": 2.048392427,
				"element": "O" 
			},
			{
				"x": 0.0395946914,
				"y": 1.9876508895,
				"z": 0.0185320265,
				"element": "C" 
			},
			{
				"x": 0.1978483097,
				"y": 3.1907413418,
				"z": -0.7317667594,
				"element": "C" 
			},
			{
				"x": 0.6748226577,
				"y": 4.3405450975,
				"z": -0.1750970145,
				"element": "N" 
			},
			{
				"x": -0.1900848369,
				"y": 3.1688555596,
				"z": -2.0921020642,
				"element": "C" 
			},
			{
				"x": -0.7108599564,
				"y": 2.0299653946,
				"z": -2.6749902018,
				"element": "C" 
			},
			{
				"x": -0.8829180915,
				"y": 0.8327904433,
				"z": -1.9453571359,
				"element": "C" 
			},
			{
				"x": -0.4967338434,
				"y": 0.8473297281,
				"z": -0.6061190942,
				"element": "C" 
			},
			{
				"x": -1.4442749584,
				"y": -0.385181234,
				"z": -2.5791664691,
				"element": "C" 
			},
			{
				"x": -1.1501480764,
				"y": -0.7083725556,
				"z": -3.915776345,
				"element": "C" 
			},
			{
				"x": -1.678549083,
				"y": -1.8523139361,
				"z": -4.5124876027,
				"element": "C" 
			},
			{
				"x": -2.5099801547,
				"y": -2.7062304668,
				"z": -3.785402872,
				"element": "C" 
			},
			{
				"x": -2.8096710975,
				"y": -2.4011056744,
				"z": -2.4562113892,
				"element": "C" 
			},
			{
				"x": -2.2870940913,
				"y": -1.2532387268,
				"z": -1.8624226863,
				"element": "C" 
			},
			{
				"x": -1.4063196896,
				"y": 0.5703862924,
				"z": 4.1366829124,
				"element": "H" 
			},
			{
				"x": -0.1726445679,
				"y": 0.8927015189,
				"z": 5.3707373325,
				"element": "H" 
			},
			{
				"x": -0.6125987207,
				"y": 2.1610465357,
				"z": 4.2117672435,
				"element": "H" 
			},
			{
				"x": 0.8056335977,
				"y": -0.4800689594,
				"z": 3.5145549579,
				"element": "H" 
			},
			{
				"x": 1.564037466,
				"y": 1.133466331,
				"z": 3.5557764749,
				"element": "H" 
			},
			{
				"x": 0.9356787224,
				"y": 5.103197078,
				"z": -0.7777107468,
				"element": "H" 
			},
			{
				"x": 1.0528199089,
				"y": 4.2826490324,
				"z": 0.7621393189,
				"element": "H" 
			},
			{
				"x": -0.0873811869,
				"y": 4.0793025079,
				"z": -2.6772901191,
				"element": "H" 
			},
			{
				"x": -1.0182331579,
				"y": 2.0676649903,
				"z": -3.7162859686,
				"element": "H" 
			},
			{
				"x": -0.5817501141,
				"y": -0.0560039006,
				"z": -0.0143030807,
				"element": "H" 
			},
			{
				"x": -0.4796295305,
				"y": -0.0701739234,
				"z": -4.484215601,
				"element": "H" 
			},
			{
				"x": -1.4305815332,
				"y": -2.0826856926,
				"z": -5.5450376327,
				"element": "H" 
			},
			{
				"x": -2.9201062344,
				"y": -3.5986090437,
				"z": -4.2492736012,
				"element": "H" 
			},
			{
				"x": -3.4629083039,
				"y": -3.0525827902,
				"z": -1.8821342817,
				"element": "H" 
			},
			{
				"x": -2.5531124719,
				"y": -1.0108824127,
				"z": -0.83765152,
				"element": "H" 
			}
		],
		 "valence_orbital": [ 
			{
				"type": "occ",
				"energy": -0.27182,
				"method": "rhf"
			},
			{
				"type": "occ",
				"energy": -0.25407,
				"method": "rhf"
			},
			{
				"type": "occ",
				"energy": -0.24845,
				"method": "rhf"
			},
			{
				"type": "occ",
				"energy": -0.24473,
				"method": "rhf"
			},
			{
				"type": "occ",
				"energy": -0.19304,
				"method": "rhf"
			},
			{
				"type": "unocc",
				"energy": -0.03754,
				"method": "rhf"
			},
			{
				"type": "unocc",
				"energy": -0.01475,
				"method": "rhf"
			},
			{
				"type": "unocc",
				"energy": 0.00379,
				"method": "rhf"
			},
			{
				"type": "unocc",
				"energy": 0.03281,
				"method": "rhf"
			},
			{
				"type": "unocc",
				"energy": 0.06849,
				"method": "rhf"
			}
		],
		"cosmo_sigma_profile": { 
			"-0.025": 0.0,
			"-0.024": 0.0,
			"-0.023": 0.0,
			"-0.022": 0.0,
			"-0.021": 0.0,
			"-0.02": 0.0,
			"-0.019": 0.0,
			"-0.018": 0.0,
			"-0.017": 0.0,
			"-0.016": 0.0,
			"-0.015": 0.0,
			"-0.014": 0.149887601712,
			"-0.013": 1.37582069604,
			"-0.012": 1.3706304897,
			"-0.011": 1.06459894882,
			"-0.01": 1.70020083491,
			"-0.009": 1.94065549662,
			"-0.008": 1.94503666089,
			"-0.007": 3.12470749916,
			"-0.006": 7.45756056802,
			"-0.005": 20.171435174,
			"-0.004": 25.4132941663,
			"-0.003": 26.4939192266,
			"-0.002": 22.3693371774,
			"-0.001": 23.1385477848,
			"0.0": 21.3037537416,
			"0.001": 19.3217339417,
			"0.002": 20.0393696327,
			"0.003": 22.555664031,
			"0.004": 24.9881554225,
			"0.005": 20.0405094403,
			"0.006": 12.6581590413,
			"0.007": 3.95441855774,
			"0.008": 1.97373944306,
			"0.009": 2.23067414311,
			"0.01": 1.67265290662,
			"0.011": 1.65951691981,
			"0.012": 0.879853467696,
			"0.013": 0.0,
			"0.014": 0.0,
			"0.015": 0.0,
			"0.016": 0.0,
			"0.017": 0.0,
			"0.018": 0.0,
			"0.019": 0.0,
			"0.02": 0.0,
			"0.021": 0.0,
			"0.022": 0.0,
			"0.023": 0.0,
			"0.024": 0.0,
			"0.025": 0.0
		}
	}
}
