{
	 "smiles": "NCC1=C(O)C=CC=C1", 
	 "Tm": 402.15, 
	 "num_atms": 18, 
	 "gaussian": { 
		 "optdone": 1, 
		 "sigma_profile": "yes", 
		 "theory": "DFT", 
		 "functional": "B3LYP", 
		 "basiset": "6-31G**", 
		 "properties": { 
			 "R2extent": 1934.7145, 
			 "electric_dipole_moment_norm": 0.717573264552, 
			 "electric_quadrupole_moment_norm": 4.7376303085, 
			 "total_energy": -402.134599051, 
			 "HOMO_LUMO_gap": 0.21743, 
			 "cosmo_polarized_energy": -10.42, 
			 "cosmo_cavitation_energy": 21.09, 
			 "cosmo_dispersion_energy": -15.74, 
			 "cosmo_repulsion_energy": 1.29, 
			 "cosmo_total_nonelectrostatic_energy": 6.65, 
			 "SMD_solvation_energy": 2.27 
		},
		"coords": [
			{
				"x": -3.3402527025,
				"y": -1.8455600664,
				"z": 0.4917525358,
				"element": "N" 
			},
			{
				"x": -1.9671937427,
				"y": -1.4781393995,
				"z": 0.8818231353,
				"element": "C" 
			},
			{
				"x": -1.6052385772,
				"y": -0.0106917408,
				"z": 0.7354349556,
				"element": "C" 
			},
			{
				"x": -1.4117801778,
				"y": 0.5587552945,
				"z": -0.5377823231,
				"element": "C" 
			},
			{
				"x": -1.4815124738,
				"y": -0.1866142539,
				"z": -1.6904385996,
				"element": "O" 
			},
			{
				"x": -1.1614272048,
				"y": 1.9248511636,
				"z": -0.6834785994,
				"element": "C" 
			},
			{
				"x": -1.0981648535,
				"y": 2.7427408279,
				"z": 0.4434408839,
				"element": "C" 
			},
			{
				"x": -1.2730004735,
				"y": 2.1991676795,
				"z": 1.7176069729,
				"element": "C" 
			},
			{
				"x": -1.5242436686,
				"y": 0.8331012175,
				"z": 1.8495899739,
				"element": "C" 
			},
			{
				"x": -3.9931713713,
				"y": -1.3105342991,
				"z": 1.0611708825,
				"element": "H" 
			},
			{
				"x": -3.5111266056,
				"y": -1.5407636851,
				"z": -0.4651538653,
				"element": "H" 
			},
			{
				"x": -1.2785975619,
				"y": -2.1133265923,
				"z": 0.3032005409,
				"element": "H" 
			},
			{
				"x": -1.8223539584,
				"y": -1.780189848,
				"z": 1.9239683935,
				"element": "H" 
			},
			{
				"x": -1.3743008134,
				"y": -1.1221170491,
				"z": -1.4755090465,
				"element": "H" 
			},
			{
				"x": -1.0161018398,
				"y": 2.3224075234,
				"z": -1.6827425739,
				"element": "H" 
			},
			{
				"x": -0.9030774252,
				"y": 3.8045818907,
				"z": 0.3236709041,
				"element": "H" 
			},
			{
				"x": -1.2159827942,
				"y": 2.8314622188,
				"z": 2.5982564565,
				"element": "H" 
			},
			{
				"x": -1.6651737559,
				"y": 0.4030691182,
				"z": 2.8389893729,
				"element": "H" 
			}
		],
		 "valence_orbital": [ 
			{
				"type": "occ",
				"energy": -0.34178,
				"method": "rhf"
			},
			{
				"type": "occ",
				"energy": -0.32797,
				"method": "rhf"
			},
			{
				"type": "occ",
				"energy": -0.25699,
				"method": "rhf"
			},
			{
				"type": "occ",
				"energy": -0.23817,
				"method": "rhf"
			},
			{
				"type": "occ",
				"energy": -0.22051,
				"method": "rhf"
			},
			{
				"type": "unocc",
				"energy": -0.00308,
				"method": "rhf"
			},
			{
				"type": "unocc",
				"energy": 0.00976,
				"method": "rhf"
			},
			{
				"type": "unocc",
				"energy": 0.05196,
				"method": "rhf"
			},
			{
				"type": "unocc",
				"energy": 0.09668,
				"method": "rhf"
			},
			{
				"type": "unocc",
				"energy": 0.10998,
				"method": "rhf"
			}
		],
		"cosmo_sigma_profile": { 
			"-0.025": 0.0,
			"-0.024": 0.0,
			"-0.023": 0.0,
			"-0.022": 0.0,
			"-0.021": 0.0,
			"-0.02": 0.0,
			"-0.019": 0.0,
			"-0.018": 0.0,
			"-0.017": 0.0892498720409,
			"-0.016": 0.749941908549,
			"-0.015": 1.00950188223,
			"-0.014": 0.918602202167,
			"-0.013": 1.39467392212,
			"-0.012": 1.7186264884,
			"-0.011": 0.774296482029,
			"-0.01": 1.09007816769,
			"-0.009": 3.09168516839,
			"-0.008": 3.93586997188,
			"-0.007": 3.42891009526,
			"-0.006": 5.47323292438,
			"-0.005": 14.0364406361,
			"-0.004": 12.9597225307,
			"-0.003": 14.0317272786,
			"-0.002": 10.0862771381,
			"-0.001": 10.4084389379,
			"0.0": 8.4495551328,
			"0.001": 6.83011664091,
			"0.002": 7.84043437943,
			"0.003": 9.73320173476,
			"0.004": 9.39046716112,
			"0.005": 10.1904333792,
			"0.006": 9.56626681744,
			"0.007": 3.64187130037,
			"0.008": 2.94404875874,
			"0.009": 1.77657003239,
			"0.01": 1.91151397132,
			"0.011": 2.81901553326,
			"0.012": 1.34739900857,
			"0.013": 0.684707393463,
			"0.014": 0.392286645785,
			"0.015": 0.615998142963,
			"0.016": 1.06157445117,
			"0.017": 0.382576404105,
			"0.018": 0.804304664924,
			"0.019": 0.600070191675,
			"0.02": 0.201136882077,
			"0.021": 0.0,
			"0.022": 0.0,
			"0.023": 0.0,
			"0.024": 0.0,
			"0.025": 0.0
		}
	}
}
