{
	 "smiles": "OC(=O)C1=CSC(=N1)C1=CC(Br)=CS1", 
	 "Tm": 503.15, 
	 "num_atms": 18, 
	 "gaussian": { 
		 "optdone": 1, 
		 "sigma_profile": "yes", 
		 "theory": "DFT", 
		 "functional": "B3LYP", 
		 "basiset": "6-31G**", 
		 "properties": { 
			 "R2extent": 7283.0306, 
			 "electric_dipole_moment_norm": 4.51182717089, 
			 "electric_quadrupole_moment_norm": 21.713645509, 
			 "total_energy": -3880.23066271, 
			 "HOMO_LUMO_gap": 0.15207, 
			 "cosmo_polarized_energy": -12.7, 
			 "cosmo_cavitation_energy": 29.59, 
			 "cosmo_dispersion_energy": -23.12, 
			 "cosmo_repulsion_energy": 1.73, 
			 "cosmo_total_nonelectrostatic_energy": 8.2, 
			 "SMD_solvation_energy": 4.14 
		},
		"coords": [
			{
				"x": -2.0153930527,
				"y": 1.8572715627,
				"z": 2.619354525,
				"element": "O" 
			},
			{
				"x": -0.7376279754,
				"y": 2.2625051854,
				"z": 2.7570783274,
				"element": "C" 
			},
			{
				"x": -0.3683138205,
				"y": 2.9653713979,
				"z": 3.6686175731,
				"element": "O" 
			},
			{
				"x": 0.1736054153,
				"y": 1.7643014433,
				"z": 1.6838419198,
				"element": "C" 
			},
			{
				"x": 1.510761347,
				"y": 2.0411319105,
				"z": 1.6093101301,
				"element": "C" 
			},
			{
				"x": 2.191166659,
				"y": 1.2746797095,
				"z": 0.2210127737,
				"element": "S" 
			},
			{
				"x": 0.5963291071,
				"y": 0.6204272821,
				"z": -0.1726665879,
				"element": "C" 
			},
			{
				"x": -0.3315342972,
				"y": 0.9685383582,
				"z": 0.6831344919,
				"element": "N" 
			},
			{
				"x": 0.362440239,
				"y": -0.215183332,
				"z": -1.3314295096,
				"element": "C" 
			},
			{
				"x": 1.253859644,
				"y": -0.6418784402,
				"z": -2.290389364,
				"element": "C" 
			},
			{
				"x": 0.6310046034,
				"y": -1.4553894547,
				"z": -3.2748443313,
				"element": "C" 
			},
			{
				"x": 1.5818993745,
				"y": -2.2035111415,
				"z": -4.7335510868,
				"element": "Br" 
			},
			{
				"x": -0.7084268958,
				"y": -1.6446148872,
				"z": -3.069797355,
				"element": "C" 
			},
			{
				"x": -1.2485017663,
				"y": -0.8208772248,
				"z": -1.6476081844,
				"element": "S" 
			},
			{
				"x": -2.070482362,
				"y": 1.3051037471,
				"z": 1.817690859,
				"element": "H" 
			},
			{
				"x": 2.0967135946,
				"y": 2.6414057575,
				"z": 2.2896379436,
				"element": "H" 
			},
			{
				"x": 2.3077872318,
				"y": -0.3927849936,
				"z": -2.302541104,
				"element": "H" 
			},
			{
				"x": -1.3996870459,
				"y": -2.2170968802,
				"z": -3.6706510206,
				"element": "H" 
			}
		],
		 "valence_orbital": [ 
			{
				"type": "occ",
				"energy": -0.30521,
				"method": "rhf"
			},
			{
				"type": "occ",
				"energy": -0.30076,
				"method": "rhf"
			},
			{
				"type": "occ",
				"energy": -0.27669,
				"method": "rhf"
			},
			{
				"type": "occ",
				"energy": -0.26882,
				"method": "rhf"
			},
			{
				"type": "occ",
				"energy": -0.24082,
				"method": "rhf"
			},
			{
				"type": "unocc",
				"energy": -0.08875,
				"method": "rhf"
			},
			{
				"type": "unocc",
				"energy": -0.04774,
				"method": "rhf"
			},
			{
				"type": "unocc",
				"energy": -0.01612,
				"method": "rhf"
			},
			{
				"type": "unocc",
				"energy": -0.01378,
				"method": "rhf"
			},
			{
				"type": "unocc",
				"energy": 0.0005,
				"method": "rhf"
			}
		],
		"cosmo_sigma_profile": { 
			"-0.025": 0.0,
			"-0.024": 0.0,
			"-0.023": 0.0,
			"-0.022": 0.0,
			"-0.021": 0.0,
			"-0.02": 0.0,
			"-0.019": 0.0,
			"-0.018": 0.0,
			"-0.017": 0.0,
			"-0.016": 0.0,
			"-0.015": 0.0,
			"-0.014": 0.359680978034,
			"-0.013": 0.65924365909,
			"-0.012": 0.758467775899,
			"-0.011": 1.52173808724,
			"-0.01": 4.60495974829,
			"-0.009": 6.2181739847,
			"-0.008": 6.52076788447,
			"-0.007": 5.96579693827,
			"-0.006": 6.55837715423,
			"-0.005": 8.98708272792,
			"-0.004": 10.5337374511,
			"-0.003": 12.855451633,
			"-0.002": 17.9140416006,
			"-0.001": 23.345405467,
			"0.0": 26.9693203704,
			"0.001": 29.8324786277,
			"0.002": 24.6769567975,
			"0.003": 15.2445036548,
			"0.004": 13.5385500252,
			"0.005": 3.11752466602,
			"0.006": 2.1345314902,
			"0.007": 2.78458642989,
			"0.008": 2.89098937553,
			"0.009": 3.44222665989,
			"0.01": 5.51567964696,
			"0.011": 4.71648202753,
			"0.012": 4.37782744645,
			"0.013": 1.18434917831,
			"0.014": 0.0109468806997,
			"0.015": 0.0,
			"0.016": 0.0,
			"0.017": 0.0,
			"0.018": 0.0,
			"0.019": 0.0,
			"0.02": 0.0,
			"0.021": 0.0,
			"0.022": 0.0,
			"0.023": 0.0,
			"0.024": 0.0,
			"0.025": 0.0
		}
	}
}
