{
	 "smiles": "OC(C1=CC=C(Cl)C=C1)(C1=CC=C(Cl)C=C1)C1=CC=C(Cl)C=C1", 
	 "Tm": 368.65, 
	 "num_atms": 36, 
	 "gaussian": { 
		 "optdone": 1, 
		 "sigma_profile": "yes", 
		 "theory": "DFT", 
		 "functional": "B3LYP", 
		 "basiset": "6-31G**", 
		 "properties": { 
			 "R2extent": 11788.1463, 
			 "electric_dipole_moment_norm": 1.75375269351, 
			 "electric_quadrupole_moment_norm": 13.8718086283, 
			 "total_energy": -2187.65356581, 
			 "HOMO_LUMO_gap": 0.20693, 
			 "cosmo_polarized_energy": -11.23, 
			 "cosmo_cavitation_energy": 45.16, 
			 "cosmo_dispersion_energy": -31.5, 
			 "cosmo_repulsion_energy": 2.43, 
			 "cosmo_total_nonelectrostatic_energy": 16.09, 
			 "SMD_solvation_energy": 6.73 
		},
		"coords": [
			{
				"x": 1.1528662646,
				"y": 0.5797878045,
				"z": 1.5472939923,
				"element": "O" 
			},
			{
				"x": 0.0310151327,
				"y": 0.1091218433,
				"z": 0.7798719465,
				"element": "C" 
			},
			{
				"x": -0.4332409009,
				"y": -1.1758101383,
				"z": 1.4865745043,
				"element": "C" 
			},
			{
				"x": 0.5193024913,
				"y": -2.0077037031,
				"z": 2.0899422955,
				"element": "C" 
			},
			{
				"x": 0.1444967329,
				"y": -3.2034866103,
				"z": 2.698584801,
				"element": "C" 
			},
			{
				"x": -1.1993307359,
				"y": -3.5775997878,
				"z": 2.6981284458,
				"element": "C" 
			},
			{
				"x": -1.6798833201,
				"y": -5.0858739669,
				"z": 3.4631637159,
				"element": "Cl" 
			},
			{
				"x": -2.1656376482,
				"y": -2.7700483237,
				"z": 2.1041280581,
				"element": "C" 
			},
			{
				"x": -1.7752977199,
				"y": -1.5711376699,
				"z": 1.5043802195,
				"element": "C" 
			},
			{
				"x": 0.4827490479,
				"y": -0.25085847,
				"z": -0.6524339489,
				"element": "C" 
			},
			{
				"x": 1.7787426931,
				"y": 0.0441260502,
				"z": -1.0860418073,
				"element": "C" 
			},
			{
				"x": 2.2030560971,
				"y": -0.2790889388,
				"z": -2.3767063343,
				"element": "C" 
			},
			{
				"x": 1.3177920419,
				"y": -0.9096939861,
				"z": -3.2460303772,
				"element": "C" 
			},
			{
				"x": 1.8386058325,
				"y": -1.3199719737,
				"z": -4.873491302,
				"element": "Cl" 
			},
			{
				"x": 0.0223599038,
				"y": -1.2286287093,
				"z": -2.8372969683,
				"element": "C" 
			},
			{
				"x": -0.3822849406,
				"y": -0.9021986599,
				"z": -1.5448895905,
				"element": "C" 
			},
			{
				"x": -1.0432185312,
				"y": 1.2124651766,
				"z": 0.8205356221,
				"element": "C" 
			},
			{
				"x": -1.5528370297,
				"y": 1.8515008034,
				"z": -0.3140405113,
				"element": "C" 
			},
			{
				"x": -2.4806299261,
				"y": 2.8913867138,
				"z": -0.201064838,
				"element": "C" 
			},
			{
				"x": -2.897089717,
				"y": 3.2992153787,
				"z": 1.062145978,
				"element": "C" 
			},
			{
				"x": -4.0635618264,
				"y": 4.6035700142,
				"z": 1.2141340624,
				"element": "Cl" 
			},
			{
				"x": -2.3965805911,
				"y": 2.6871186824,
				"z": 2.2136553118,
				"element": "C" 
			},
			{
				"x": -1.4739991369,
				"y": 1.6542475287,
				"z": 2.0840989246,
				"element": "C" 
			},
			{
				"x": 1.2978583657,
				"y": 1.504885742,
				"z": 1.3067631846,
				"element": "H" 
			},
			{
				"x": 1.561503508,
				"y": -1.7103921465,
				"z": 2.0901874437,
				"element": "H" 
			},
			{
				"x": 0.8858332292,
				"y": -3.8401447996,
				"z": 3.1688365146,
				"element": "H" 
			},
			{
				"x": -3.2083841428,
				"y": -3.0672944609,
				"z": 2.1168634022,
				"element": "H" 
			},
			{
				"x": -2.5358384586,
				"y": -0.9358750151,
				"z": 1.0617808689,
				"element": "H" 
			},
			{
				"x": 2.4769277362,
				"y": 0.5107050795,
				"z": -0.4011753078,
				"element": "H" 
			},
			{
				"x": 3.2121542801,
				"y": -0.0477937836,
				"z": -2.6997269593,
				"element": "H" 
			},
			{
				"x": -0.6551031338,
				"y": -1.7319021211,
				"z": -3.5182573858,
				"element": "H" 
			},
			{
				"x": -1.3853698196,
				"y": -1.1712744419,
				"z": -1.2297665748,
				"element": "H" 
			},
			{
				"x": -1.2298889524,
				"y": 1.5476613856,
				"z": -1.3028902733,
				"element": "H" 
			},
			{
				"x": -2.8701082504,
				"y": 3.3797647357,
				"z": -1.0874435434,
				"element": "H" 
			},
			{
				"x": -2.7254930347,
				"y": 3.0176863597,
				"z": 3.1927006867,
				"element": "H" 
			},
			{
				"x": -1.0748855405,
				"y": 1.1804344083,
				"z": 2.9750857433,
				"element": "H" 
			}
		],
		 "valence_orbital": [ 
			{
				"type": "occ",
				"energy": -0.27038,
				"method": "rhf"
			},
			{
				"type": "occ",
				"energy": -0.26555,
				"method": "rhf"
			},
			{
				"type": "occ",
				"energy": -0.25714,
				"method": "rhf"
			},
			{
				"type": "occ",
				"energy": -0.25182,
				"method": "rhf"
			},
			{
				"type": "occ",
				"energy": -0.24051,
				"method": "rhf"
			},
			{
				"type": "unocc",
				"energy": -0.03358,
				"method": "rhf"
			},
			{
				"type": "unocc",
				"energy": -0.02988,
				"method": "rhf"
			},
			{
				"type": "unocc",
				"energy": -0.02704,
				"method": "rhf"
			},
			{
				"type": "unocc",
				"energy": -0.02396,
				"method": "rhf"
			},
			{
				"type": "unocc",
				"energy": -0.01013,
				"method": "rhf"
			}
		],
		"cosmo_sigma_profile": { 
			"-0.025": 0.0,
			"-0.024": 0.0,
			"-0.023": 0.0,
			"-0.022": 0.0,
			"-0.021": 0.0,
			"-0.02": 0.0,
			"-0.019": 0.0,
			"-0.018": 0.0,
			"-0.017": 0.0,
			"-0.016": 0.394232187365,
			"-0.015": 0.571244249771,
			"-0.014": 1.06936833918,
			"-0.013": 0.472448185995,
			"-0.012": 0.80625668198,
			"-0.011": 1.50343764953,
			"-0.01": 1.00974062667,
			"-0.009": 0.924126580838,
			"-0.008": 1.69901188182,
			"-0.007": 11.6460061117,
			"-0.006": 21.2203851425,
			"-0.005": 21.9320803577,
			"-0.004": 18.1627446228,
			"-0.003": 16.3338875916,
			"-0.002": 22.239791697,
			"-0.001": 23.2269861353,
			"0.0": 27.7751777733,
			"0.001": 35.4389763817,
			"0.002": 45.3107924215,
			"0.003": 49.0276116398,
			"0.004": 39.2721977386,
			"0.005": 22.2536522405,
			"0.006": 1.24924457634,
			"0.007": 1.07052096627,
			"0.008": 1.38186124995,
			"0.009": 1.30276705856,
			"0.01": 1.19113595097,
			"0.011": 0.525092455748,
			"0.012": 0.198039593025,
			"0.013": 0.0,
			"0.014": 0.0,
			"0.015": 0.0,
			"0.016": 0.0,
			"0.017": 0.0,
			"0.018": 0.0,
			"0.019": 0.0,
			"0.02": 0.0,
			"0.021": 0.0,
			"0.022": 0.0,
			"0.023": 0.0,
			"0.024": 0.0,
			"0.025": 0.0
		}
	}
}
