{
	 "smiles": "CCN", 
	 "Tm": 192.05, 
	 "num_atms": 10, 
	 "gaussian": { 
		 "optdone": 1, 
		 "sigma_profile": "yes", 
		 "theory": "DFT", 
		 "functional": "B3LYP", 
		 "basiset": "6-31G**", 
		 "properties": { 
			 "R2extent": 278.4734, 
			 "electric_dipole_moment_norm": 1.3798451145, 
			 "electric_quadrupole_moment_norm": 5.62736386064, 
			 "total_energy": -135.181363698, 
			 "HOMO_LUMO_gap": 0.3123, 
			 "cosmo_polarized_energy": -4.77, 
			 "cosmo_cavitation_energy": 12.33, 
			 "cosmo_dispersion_energy": -9.39, 
			 "cosmo_repulsion_energy": 0.91, 
			 "cosmo_total_nonelectrostatic_energy": 3.85, 
			 "SMD_solvation_energy": 1.15 
		},
		"coords": [
			{
				"x": 1.1523283314,
				"y": 0.6327530286,
				"z": 0.3071719335,
				"element": "C" 
			},
			{
				"x": 1.0608635817,
				"y": -0.8684854439,
				"z": 0.0027635472,
				"element": "C" 
			},
			{
				"x": -0.2463688558,
				"y": -1.4917038573,
				"z": 0.2332674953,
				"element": "N" 
			},
			{
				"x": 0.4467683112,
				"y": 1.2025792038,
				"z": -0.3093179121,
				"element": "H" 
			},
			{
				"x": 2.1579306233,
				"y": 1.0228099879,
				"z": 0.1101558538,
				"element": "H" 
			},
			{
				"x": 0.9158053413,
				"y": 0.8358027213,
				"z": 1.3585518015,
				"element": "H" 
			},
			{
				"x": 1.334669664,
				"y": -1.0480319483,
				"z": -1.0441990957,
				"element": "H" 
			},
			{
				"x": 1.7987993217,
				"y": -1.4110175807,
				"z": 0.6064573396,
				"element": "H" 
			},
			{
				"x": -0.5230073648,
				"y": -1.3546549312,
				"z": 1.2036383773,
				"element": "H" 
			},
			{
				"x": -0.9531889541,
				"y": -1.0180511801,
				"z": -0.3261893404,
				"element": "H" 
			}
		],
		 "valence_orbital": [ 
			{
				"type": "occ",
				"energy": -0.40695,
				"method": "rhf"
			},
			{
				"type": "occ",
				"energy": -0.40078,
				"method": "rhf"
			},
			{
				"type": "occ",
				"energy": -0.35646,
				"method": "rhf"
			},
			{
				"type": "occ",
				"energy": -0.33555,
				"method": "rhf"
			},
			{
				"type": "occ",
				"energy": -0.22932,
				"method": "rhf"
			},
			{
				"type": "unocc",
				"energy": 0.08298,
				"method": "rhf"
			},
			{
				"type": "unocc",
				"energy": 0.13408,
				"method": "rhf"
			},
			{
				"type": "unocc",
				"energy": 0.13785,
				"method": "rhf"
			},
			{
				"type": "unocc",
				"energy": 0.15447,
				"method": "rhf"
			},
			{
				"type": "unocc",
				"energy": 0.17173,
				"method": "rhf"
			}
		],
		"cosmo_sigma_profile": { 
			"-0.025": 0.0,
			"-0.024": 0.0,
			"-0.023": 0.0,
			"-0.022": 0.0,
			"-0.021": 0.0,
			"-0.02": 0.0,
			"-0.019": 0.0,
			"-0.018": 0.0,
			"-0.017": 0.0,
			"-0.016": 0.0,
			"-0.015": 0.0,
			"-0.014": 0.0,
			"-0.013": 0.0,
			"-0.012": 0.0,
			"-0.011": 0.0,
			"-0.01": 0.00712273274247,
			"-0.009": 1.91775247295,
			"-0.008": 2.6359114483,
			"-0.007": 2.55250436265,
			"-0.006": 2.98194676934,
			"-0.005": 3.24569282434,
			"-0.004": 3.18006509283,
			"-0.003": 9.63280010485,
			"-0.002": 13.446981103,
			"-0.001": 12.0613971149,
			"0.0": 12.3740855164,
			"0.001": 11.1680003141,
			"0.002": 5.71653107368,
			"0.003": 1.549106714,
			"0.004": 0.906456271028,
			"0.005": 0.838402689999,
			"0.006": 0.632528873336,
			"0.007": 0.837839619928,
			"0.008": 0.323927973678,
			"0.009": 1.01598854897,
			"0.01": 1.05973742159,
			"0.011": 0.912854503598,
			"0.012": 0.667138427852,
			"0.013": 0.244487958993,
			"0.014": 0.687364617236,
			"0.015": 0.485844704918,
			"0.016": 0.933914579494,
			"0.017": 0.883273506126,
			"0.018": 0.410678490901,
			"0.019": 0.547094381159,
			"0.02": 0.833629178609,
			"0.021": 0.0441900884308,
			"0.022": 0.0,
			"0.023": 0.0,
			"0.024": 0.0,
			"0.025": 0.0
		}
	}
}
