{
	 "smiles": "NC1=CC(CN2CCC(O)CC2)=CC=C1", 
	 "Tm": 420.15, 
	 "num_atms": 33, 
	 "gaussian": { 
		 "optdone": 1, 
		 "sigma_profile": "yes", 
		 "theory": "DFT", 
		 "functional": "B3LYP", 
		 "basiset": "6-31G**", 
		 "properties": { 
			 "R2extent": 4142.0831, 
			 "electric_dipole_moment_norm": 3.63602502467, 
			 "electric_quadrupole_moment_norm": 15.9977737464, 
			 "total_energy": -652.843757114, 
			 "HOMO_LUMO_gap": 0.20178, 
			 "cosmo_polarized_energy": -12.41, 
			 "cosmo_cavitation_energy": 33.2, 
			 "cosmo_dispersion_energy": -24.01, 
			 "cosmo_repulsion_energy": 1.88, 
			 "cosmo_total_nonelectrostatic_energy": 11.08, 
			 "SMD_solvation_energy": 4.14 
		},
		"coords": [
			{
				"x": 1.7229482607,
				"y": -2.1879548673,
				"z": -3.3160092187,
				"element": "N" 
			},
			{
				"x": 1.4226648054,
				"y": -2.1276007193,
				"z": -1.9535558157,
				"element": "C" 
			},
			{
				"x": 1.6485688866,
				"y": -0.9484077377,
				"z": -1.2228747001,
				"element": "C" 
			},
			{
				"x": 1.411811145,
				"y": -0.884834707,
				"z": 0.153871358,
				"element": "C" 
			},
			{
				"x": 1.6394160873,
				"y": 0.4172283681,
				"z": 0.9120744366,
				"element": "C" 
			},
			{
				"x": 0.4834299497,
				"y": 1.3171190786,
				"z": 1.0594513907,
				"element": "N" 
			},
			{
				"x": -0.6215911029,
				"y": 0.7828584919,
				"z": 1.8688755529,
				"element": "C" 
			},
			{
				"x": -1.5156785604,
				"y": 1.9477467958,
				"z": 2.3621418752,
				"element": "C" 
			},
			{
				"x": -1.3194466616,
				"y": 3.207242869,
				"z": 1.4937558159,
				"element": "C" 
			},
			{
				"x": -0.1664856836,
				"y": 3.9399578014,
				"z": 1.8960085084,
				"element": "O" 
			},
			{
				"x": -1.2260191607,
				"y": 2.7930440662,
				"z": 0.0178900048,
				"element": "C" 
			},
			{
				"x": -0.0046940039,
				"y": 1.8682857926,
				"z": -0.2157375682,
				"element": "C" 
			},
			{
				"x": 0.9496706242,
				"y": -2.0298170793,
				"z": 0.8183049436,
				"element": "C" 
			},
			{
				"x": 0.7218650893,
				"y": -3.205234601,
				"z": 0.1014839505,
				"element": "C" 
			},
			{
				"x": 0.9498315053,
				"y": -3.2612284701,
				"z": -1.2710274822,
				"element": "C" 
			},
			{
				"x": 1.2337627829,
				"y": -2.9057044463,
				"z": -3.8326631667,
				"element": "H" 
			},
			{
				"x": 1.7095242278,
				"y": -1.3006489691,
				"z": -3.7996335126,
				"element": "H" 
			},
			{
				"x": 2.0334411606,
				"y": -0.0720492548,
				"z": -1.7412100386,
				"element": "H" 
			},
			{
				"x": 1.9976549255,
				"y": 0.1875956898,
				"z": 1.9223163006,
				"element": "H" 
			},
			{
				"x": 2.4298315199,
				"y": 0.9913285973,
				"z": 0.413325848,
				"element": "H" 
			},
			{
				"x": -1.2158683467,
				"y": 0.0455048506,
				"z": 1.3021482289,
				"element": "H" 
			},
			{
				"x": -0.193073336,
				"y": 0.2453699605,
				"z": 2.720691437,
				"element": "H" 
			},
			{
				"x": -2.567407121,
				"y": 1.6379163272,
				"z": 2.3479185425,
				"element": "H" 
			},
			{
				"x": -1.2700019768,
				"y": 2.2174102939,
				"z": 3.3941442824,
				"element": "H" 
			},
			{
				"x": -2.1670884071,
				"y": 3.8866370137,
				"z": 1.6359320614,
				"element": "H" 
			},
			{
				"x": 0.5531519463,
				"y": 3.2863668651,
				"z": 1.8471122785,
				"element": "H" 
			},
			{
				"x": -2.1520896571,
				"y": 2.277061312,
				"z": -0.2648687977,
				"element": "H" 
			},
			{
				"x": -1.1475957454,
				"y": 3.6830001768,
				"z": -0.6135802944,
				"element": "H" 
			},
			{
				"x": -0.2713048762,
				"y": 1.0706887964,
				"z": -0.9287556532,
				"element": "H" 
			},
			{
				"x": 0.8218000293,
				"y": 2.4334677299,
				"z": -0.6625663957,
				"element": "H" 
			},
			{
				"x": 0.7816238644,
				"y": -2.0049497331,
				"z": 1.8910903946,
				"element": "H" 
			},
			{
				"x": 0.3662422346,
				"y": -4.0930781644,
				"z": 0.6174671482,
				"element": "H" 
			},
			{
				"x": 0.7770055946,
				"y": -4.184722127,
				"z": -1.8183217149,
				"element": "H" 
			}
		],
		 "valence_orbital": [ 
			{
				"type": "occ",
				"energy": -0.30299,
				"method": "rhf"
			},
			{
				"type": "occ",
				"energy": -0.24466,
				"method": "rhf"
			},
			{
				"type": "occ",
				"energy": -0.24206,
				"method": "rhf"
			},
			{
				"type": "occ",
				"energy": -0.21376,
				"method": "rhf"
			},
			{
				"type": "occ",
				"energy": -0.20342,
				"method": "rhf"
			},
			{
				"type": "unocc",
				"energy": -0.00164,
				"method": "rhf"
			},
			{
				"type": "unocc",
				"energy": 0.01377,
				"method": "rhf"
			},
			{
				"type": "unocc",
				"energy": 0.07535,
				"method": "rhf"
			},
			{
				"type": "unocc",
				"energy": 0.07997,
				"method": "rhf"
			},
			{
				"type": "unocc",
				"energy": 0.10061,
				"method": "rhf"
			}
		],
		"cosmo_sigma_profile": { 
			"-0.025": 0.0,
			"-0.024": 0.0,
			"-0.023": 0.0,
			"-0.022": 0.0,
			"-0.021": 0.0,
			"-0.02": 0.0,
			"-0.019": 0.0,
			"-0.018": 0.0,
			"-0.017": 0.0,
			"-0.016": 0.0,
			"-0.015": 0.0,
			"-0.014": 0.0,
			"-0.013": 0.0312383687289,
			"-0.012": 1.93360935869,
			"-0.011": 2.67890050388,
			"-0.01": 2.96190984136,
			"-0.009": 3.47869982564,
			"-0.008": 2.07119220695,
			"-0.007": 3.36381400597,
			"-0.006": 3.57800637993,
			"-0.005": 8.41581078513,
			"-0.004": 20.2871355032,
			"-0.003": 29.9597322589,
			"-0.002": 34.2204854646,
			"-0.001": 29.9056562035,
			"0.0": 25.7236738543,
			"0.001": 15.1795271205,
			"0.002": 9.71345289831,
			"0.003": 9.83089687989,
			"0.004": 8.36176534646,
			"0.005": 7.94304232984,
			"0.006": 10.0597220856,
			"0.007": 9.07263336011,
			"0.008": 3.21032499594,
			"0.009": 1.66157970358,
			"0.01": 1.96809949142,
			"0.011": 2.59647557932,
			"0.012": 1.50114961612,
			"0.013": 1.85298237954,
			"0.014": 2.33457287012,
			"0.015": 2.59942929485,
			"0.016": 1.42356193565,
			"0.017": 0.0,
			"0.018": 0.0,
			"0.019": 0.0,
			"0.02": 0.0,
			"0.021": 0.0,
			"0.022": 0.0,
			"0.023": 0.0,
			"0.024": 0.0,
			"0.025": 0.0
		}
	}
}
