{
	 "smiles": "OC(=O)C1=NN(C2=C1CCCCC2)C1=CC=C(F)C=C1", 
	 "Tm": 441.15, 
	 "num_atms": 35, 
	 "gaussian": { 
		 "optdone": 1, 
		 "sigma_profile": "yes", 
		 "theory": "DFT", 
		 "functional": "B3LYP", 
		 "basiset": "6-31G**", 
		 "properties": { 
			 "R2extent": 6971.1645, 
			 "electric_dipole_moment_norm": 2.75494846776, 
			 "electric_quadrupole_moment_norm": 10.2787511255, 
			 "total_energy": -940.43292829, 
			 "HOMO_LUMO_gap": 0.19327, 
			 "cosmo_polarized_energy": -13.97, 
			 "cosmo_cavitation_energy": 37.85, 
			 "cosmo_dispersion_energy": -27.24, 
			 "cosmo_repulsion_energy": 2.07, 
			 "cosmo_total_nonelectrostatic_energy": 12.68, 
			 "SMD_solvation_energy": 6.36 
		},
		"coords": [
			{
				"x": 3.5361789084,
				"y": -1.1443835869,
				"z": -0.4266729887,
				"element": "O" 
			},
			{
				"x": 2.5574715863,
				"y": -1.272921376,
				"z": 0.4971442795,
				"element": "C" 
			},
			{
				"x": 2.7235973117,
				"y": -1.8867765151,
				"z": 1.5372385549,
				"element": "O" 
			},
			{
				"x": 1.2990836617,
				"y": -0.6069256482,
				"z": 0.116786025,
				"element": "C" 
			},
			{
				"x": 1.1920975731,
				"y": 0.0525341208,
				"z": -1.040261474,
				"element": "N" 
			},
			{
				"x": -0.06503978,
				"y": 0.5329735502,
				"z": -1.0452630964,
				"element": "N" 
			},
			{
				"x": -0.7749200426,
				"y": 0.1812916539,
				"z": 0.0896341794,
				"element": "C" 
			},
			{
				"x": 0.0952054639,
				"y": -0.5588044879,
				"z": 0.8758508436,
				"element": "C" 
			},
			{
				"x": -0.1723125828,
				"y": -1.1454970739,
				"z": 2.2383011677,
				"element": "C" 
			},
			{
				"x": -1.2261203706,
				"y": -0.3607789317,
				"z": 3.0390585195,
				"element": "C" 
			},
			{
				"x": -2.6868541534,
				"y": -0.6004877939,
				"z": 2.6124067357,
				"element": "C" 
			},
			{
				"x": -2.9466450748,
				"y": -0.6308090727,
				"z": 1.0945527211,
				"element": "C" 
			},
			{
				"x": -2.2377726883,
				"y": 0.4750773187,
				"z": 0.2886874457,
				"element": "C" 
			},
			{
				"x": -0.4961953329,
				"y": 1.2794255088,
				"z": -2.179604738,
				"element": "C" 
			},
			{
				"x": -1.2519226321,
				"y": 2.4465379043,
				"z": -2.0284737956,
				"element": "C" 
			},
			{
				"x": -1.6575147556,
				"y": 3.1653204055,
				"z": -3.1527054444,
				"element": "C" 
			},
			{
				"x": -1.2787918279,
				"y": 2.713849581,
				"z": -4.4112439765,
				"element": "C" 
			},
			{
				"x": -1.6647589594,
				"y": 3.4093597002,
				"z": -5.4992360792,
				"element": "F" 
			},
			{
				"x": -0.5070856366,
				"y": 1.5681372799,
				"z": -4.5801115084,
				"element": "C" 
			},
			{
				"x": -0.118308913,
				"y": 0.8454899851,
				"z": -3.4560217245,
				"element": "C" 
			},
			{
				"x": 4.2985853096,
				"y": -1.6199994923,
				"z": -0.0571610305,
				"element": "H" 
			},
			{
				"x": -0.4764403974,
				"y": -2.1984630937,
				"z": 2.1466862482,
				"element": "H" 
			},
			{
				"x": 0.7735435778,
				"y": -1.1706140909,
				"z": 2.7842369063,
				"element": "H" 
			},
			{
				"x": -0.9882295435,
				"y": 0.7081046086,
				"z": 2.9657592448,
				"element": "H" 
			},
			{
				"x": -1.1324916308,
				"y": -0.6159090323,
				"z": 4.101176163,
				"element": "H" 
			},
			{
				"x": -3.0352880904,
				"y": -1.5529986784,
				"z": 3.0318991651,
				"element": "H" 
			},
			{
				"x": -3.3117576831,
				"y": 0.1773854395,
				"z": 3.0705410493,
				"element": "H" 
			},
			{
				"x": -2.6436045605,
				"y": -1.6004634669,
				"z": 0.6824621041,
				"element": "H" 
			},
			{
				"x": -4.0268727445,
				"y": -0.5525961189,
				"z": 0.924336786,
				"element": "H" 
			},
			{
				"x": -2.7140261639,
				"y": 0.5672733125,
				"z": -0.6931981174,
				"element": "H" 
			},
			{
				"x": -2.3842586254,
				"y": 1.4449663048,
				"z": 0.7860940425,
				"element": "H" 
			},
			{
				"x": -1.5042659026,
				"y": 2.808227269,
				"z": -1.0385169117,
				"element": "H" 
			},
			{
				"x": -2.2428337414,
				"y": 4.0734281635,
				"z": -3.0612109436,
				"element": "H" 
			},
			{
				"x": -0.2265970057,
				"y": 1.2529348821,
				"z": -5.5790281223,
				"element": "H" 
			},
			{
				"x": 0.4872454471,
				"y": -0.0479885287,
				"z": -3.5498422302,
				"element": "H" 
			}
		],
		 "valence_orbital": [ 
			{
				"type": "occ",
				"energy": -0.28075,
				"method": "rhf"
			},
			{
				"type": "occ",
				"energy": -0.27351,
				"method": "rhf"
			},
			{
				"type": "occ",
				"energy": -0.2675,
				"method": "rhf"
			},
			{
				"type": "occ",
				"energy": -0.24173,
				"method": "rhf"
			},
			{
				"type": "occ",
				"energy": -0.23058,
				"method": "rhf"
			},
			{
				"type": "unocc",
				"energy": -0.03731,
				"method": "rhf"
			},
			{
				"type": "unocc",
				"energy": -0.02427,
				"method": "rhf"
			},
			{
				"type": "unocc",
				"energy": -0.00562,
				"method": "rhf"
			},
			{
				"type": "unocc",
				"energy": 0.03365,
				"method": "rhf"
			},
			{
				"type": "unocc",
				"energy": 0.07301,
				"method": "rhf"
			}
		],
		"cosmo_sigma_profile": { 
			"-0.025": 0.0,
			"-0.024": 0.0,
			"-0.023": 0.0,
			"-0.022": 0.0,
			"-0.021": 0.0,
			"-0.02": 0.0,
			"-0.019": 0.0120078414046,
			"-0.018": 0.545848081499,
			"-0.017": 1.15017621385,
			"-0.016": 0.650693313185,
			"-0.015": 0.752386031558,
			"-0.014": 0.886363622483,
			"-0.013": 0.613471147325,
			"-0.012": 0.292757135567,
			"-0.011": 0.958229206123,
			"-0.01": 1.05642534156,
			"-0.009": 0.444104092791,
			"-0.008": 3.27469172898,
			"-0.007": 8.2602696965,
			"-0.006": 9.81592931239,
			"-0.005": 9.16684994819,
			"-0.004": 11.9101854316,
			"-0.003": 24.5401990441,
			"-0.002": 36.2580482216,
			"-0.001": 36.6049169719,
			"0.0": 34.839960951,
			"0.001": 26.8573212216,
			"0.002": 21.4725122092,
			"0.003": 17.2114805305,
			"0.004": 14.4328062129,
			"0.005": 5.57618140253,
			"0.006": 3.32351438536,
			"0.007": 4.21096483698,
			"0.008": 3.531239736,
			"0.009": 3.46279693692,
			"0.01": 3.82627071412,
			"0.011": 4.89467132007,
			"0.012": 5.24692434462,
			"0.013": 1.34185466857,
			"0.014": 1.54699842388,
			"0.015": 0.694684770065,
			"0.016": 0.0,
			"0.017": 0.0,
			"0.018": 0.0,
			"0.019": 0.0,
			"0.02": 0.0,
			"0.021": 0.0,
			"0.022": 0.0,
			"0.023": 0.0,
			"0.024": 0.0,
			"0.025": 0.0
		}
	}
}
