{
	 "smiles": "CC(C)(C)N(NC(=O)C1=CC=CC=C1)C(=O)C1=CC=C(C=C1)C#N", 
	 "Tm": 473.15, 
	 "num_atms": 43, 
	 "gaussian": { 
		 "optdone": 1, 
		 "sigma_profile": "yes", 
		 "theory": "DFT", 
		 "functional": "B3LYP", 
		 "basiset": "6-31G**", 
		 "properties": { 
			 "R2extent": 8778.3164, 
			 "electric_dipole_moment_norm": 5.34460805485, 
			 "electric_quadrupole_moment_norm": 31.1049825788, 
			 "total_energy": -1050.15368381, 
			 "HOMO_LUMO_gap": 0.18169, 
			 "cosmo_polarized_energy": -20.63, 
			 "cosmo_cavitation_energy": 46.3, 
			 "cosmo_dispersion_energy": -29.72, 
			 "cosmo_repulsion_energy": 2.23, 
			 "cosmo_total_nonelectrostatic_energy": 18.81, 
			 "SMD_solvation_energy": 10.77 
		},
		"coords": [
			{
				"x": 0.1211873623,
				"y": -2.9418687635,
				"z": -0.2521667744,
				"element": "C" 
			},
			{
				"x": 1.029185763,
				"y": -1.7611811482,
				"z": 0.1243914593,
				"element": "C" 
			},
			{
				"x": 1.8584654102,
				"y": -1.3586394099,
				"z": -1.1097764547,
				"element": "C" 
			},
			{
				"x": 1.9407934183,
				"y": -2.1887087825,
				"z": 1.2911974174,
				"element": "C" 
			},
			{
				"x": 0.1697180152,
				"y": -0.5822102578,
				"z": 0.5751465147,
				"element": "N" 
			},
			{
				"x": -1.2115303569,
				"y": -0.7210928475,
				"z": 0.6755881193,
				"element": "N" 
			},
			{
				"x": -2.1170912259,
				"y": -0.7620733506,
				"z": -0.3907864441,
				"element": "C" 
			},
			{
				"x": -3.1788693125,
				"y": -1.3404126875,
				"z": -0.2055529723,
				"element": "O" 
			},
			{
				"x": -1.796144939,
				"y": -0.1004172249,
				"z": -1.6933597988,
				"element": "C" 
			},
			{
				"x": -2.3623093606,
				"y": -0.6815821808,
				"z": -2.8391746845,
				"element": "C" 
			},
			{
				"x": -2.152204187,
				"y": -0.1160136548,
				"z": -4.0939825752,
				"element": "C" 
			},
			{
				"x": -1.3972515474,
				"y": 1.0534321274,
				"z": -4.2150214181,
				"element": "C" 
			},
			{
				"x": -0.8586445113,
				"y": 1.6549042941,
				"z": -3.0762076471,
				"element": "C" 
			},
			{
				"x": -1.050573707,
				"y": 1.0799100177,
				"z": -1.819792808,
				"element": "C" 
			},
			{
				"x": 0.7566040337,
				"y": 0.5747831953,
				"z": 1.061344775,
				"element": "C" 
			},
			{
				"x": 1.9604211125,
				"y": 0.7837145218,
				"z": 0.9482532952,
				"element": "O" 
			},
			{
				"x": -0.0920807526,
				"y": 1.6332803949,
				"z": 1.7321706699,
				"element": "C" 
			},
			{
				"x": -1.0526101458,
				"y": 1.380801444,
				"z": 2.7216347036,
				"element": "C" 
			},
			{
				"x": -1.6913990957,
				"y": 2.4309197904,
				"z": 3.3731482419,
				"element": "C" 
			},
			{
				"x": -1.3866156404,
				"y": 3.7586507255,
				"z": 3.0316173889,
				"element": "C" 
			},
			{
				"x": -0.4142276848,
				"y": 4.0207154759,
				"z": 2.0521311525,
				"element": "C" 
			},
			{
				"x": 0.2361877556,
				"y": 2.9635644135,
				"z": 1.427526681,
				"element": "C" 
			},
			{
				"x": -2.0571616889,
				"y": 4.842333981,
				"z": 3.6895203413,
				"element": "C" 
			},
			{
				"x": -2.6006808519,
				"y": 5.721739162,
				"z": 4.2227103017,
				"element": "N" 
			},
			{
				"x": -0.5245021169,
				"y": -2.7181695201,
				"z": -1.1044594082,
				"element": "H" 
			},
			{
				"x": 0.7646514875,
				"y": -3.7776528967,
				"z": -0.540170041,
				"element": "H" 
			},
			{
				"x": -0.5028296319,
				"y": -3.2809746334,
				"z": 0.5794880305,
				"element": "H" 
			},
			{
				"x": 2.5392381086,
				"y": -0.5414931414,
				"z": -0.8752146259,
				"element": "H" 
			},
			{
				"x": 2.4453233891,
				"y": -2.2198581718,
				"z": -1.4464001653,
				"element": "H" 
			},
			{
				"x": 1.2035800045,
				"y": -1.0505634171,
				"z": -1.9295185493,
				"element": "H" 
			},
			{
				"x": 1.3445785031,
				"y": -2.4900879169,
				"z": 2.1596717864,
				"element": "H" 
			},
			{
				"x": 2.5451457747,
				"y": -3.0485360132,
				"z": 0.9855768183,
				"element": "H" 
			},
			{
				"x": 2.6129086853,
				"y": -1.3829582217,
				"z": 1.5858331323,
				"element": "H" 
			},
			{
				"x": -1.5453624991,
				"y": -1.3106671171,
				"z": 1.4326494031,
				"element": "H" 
			},
			{
				"x": -2.9698339086,
				"y": -1.5727923744,
				"z": -2.7231086629,
				"element": "H" 
			},
			{
				"x": -2.5841582747,
				"y": -0.5803734097,
				"z": -4.9754569593,
				"element": "H" 
			},
			{
				"x": -1.2376729367,
				"y": 1.4998924214,
				"z": -5.1922434065,
				"element": "H" 
			},
			{
				"x": -0.2901580245,
				"y": 2.575946449,
				"z": -3.1637821189,
				"element": "H" 
			},
			{
				"x": -0.6513314595,
				"y": 1.5722275319,
				"z": -0.9426391806,
				"element": "H" 
			},
			{
				"x": -1.2974865731,
				"y": 0.3651651135,
				"z": 3.0063756379,
				"element": "H" 
			},
			{
				"x": -2.4270792573,
				"y": 2.2305017883,
				"z": 4.1445176312,
				"element": "H" 
			},
			{
				"x": -0.1681726123,
				"y": 5.0463793476,
				"z": 1.7992540035,
				"element": "H" 
			},
			{
				"x": 1.020393479,
				"y": 3.1544649464,
				"z": 0.7030671903,
				"element": "H" 
			}
		],
		 "valence_orbital": [ 
			{
				"type": "occ",
				"energy": -0.27872,
				"method": "rhf"
			},
			{
				"type": "occ",
				"energy": -0.27331,
				"method": "rhf"
			},
			{
				"type": "occ",
				"energy": -0.26557,
				"method": "rhf"
			},
			{
				"type": "occ",
				"energy": -0.26004,
				"method": "rhf"
			},
			{
				"type": "occ",
				"energy": -0.25353,
				"method": "rhf"
			},
			{
				"type": "unocc",
				"energy": -0.07184,
				"method": "rhf"
			},
			{
				"type": "unocc",
				"energy": -0.05108,
				"method": "rhf"
			},
			{
				"type": "unocc",
				"energy": -0.03102,
				"method": "rhf"
			},
			{
				"type": "unocc",
				"energy": -0.01742,
				"method": "rhf"
			},
			{
				"type": "unocc",
				"energy": 0.00736,
				"method": "rhf"
			}
		],
		"cosmo_sigma_profile": { 
			"-0.025": 0.0,
			"-0.024": 0.0,
			"-0.023": 0.0,
			"-0.022": 0.0,
			"-0.021": 0.0,
			"-0.02": 0.0,
			"-0.019": 0.0,
			"-0.018": 0.0,
			"-0.017": 0.0,
			"-0.016": 0.0,
			"-0.015": 0.0562007774465,
			"-0.014": 0.817747523261,
			"-0.013": 1.43458197718,
			"-0.012": 1.69276421105,
			"-0.011": 1.89799096362,
			"-0.01": 1.8155042661,
			"-0.009": 2.46355956394,
			"-0.008": 6.59048513883,
			"-0.007": 10.5545658495,
			"-0.006": 18.3366362737,
			"-0.005": 20.0760772096,
			"-0.004": 26.269461544,
			"-0.003": 27.1100863662,
			"-0.002": 30.7931802516,
			"-0.001": 31.7868263334,
			"0.0": 37.7092625192,
			"0.001": 37.1674550434,
			"0.002": 22.6891230759,
			"0.003": 15.8508231508,
			"0.004": 14.6500283763,
			"0.005": 7.07854656761,
			"0.006": 5.70099561014,
			"0.007": 7.03602141818,
			"0.008": 5.50662692792,
			"0.009": 6.68119226942,
			"0.01": 5.44974124879,
			"0.011": 6.78457148207,
			"0.012": 8.92977386018,
			"0.013": 5.94273761117,
			"0.014": 0.177242660455,
			"0.015": 0.0,
			"0.016": 0.0,
			"0.017": 0.0,
			"0.018": 0.0,
			"0.019": 0.0,
			"0.02": 0.0,
			"0.021": 0.0,
			"0.022": 0.0,
			"0.023": 0.0,
			"0.024": 0.0,
			"0.025": 0.0
		}
	}
}
