{
	 "smiles": "COC(=O)C1=CC(Cl)=CC=C1Br", 
	 "Tm": 312.15, 
	 "num_atms": 18, 
	 "gaussian": { 
		 "optdone": 1, 
		 "sigma_profile": "yes", 
		 "theory": "DFT", 
		 "functional": "B3LYP", 
		 "basiset": "6-31G**", 
		 "properties": { 
			 "R2extent": 4153.2221, 
			 "electric_dipole_moment_norm": 1.9036830067, 
			 "electric_quadrupole_moment_norm": 10.4223994848, 
			 "total_energy": -3490.5119479, 
			 "HOMO_LUMO_gap": 0.18708, 
			 "cosmo_polarized_energy": -7.28, 
			 "cosmo_cavitation_energy": 26.9, 
			 "cosmo_dispersion_energy": -20.09, 
			 "cosmo_repulsion_energy": 1.6, 
			 "cosmo_total_nonelectrostatic_energy": 8.41, 
			 "SMD_solvation_energy": 4.93 
		},
		"coords": [
			{
				"x": -0.5129513432,
				"y": -2.9205292746,
				"z": 1.634526886,
				"element": "C" 
			},
			{
				"x": -0.9261405417,
				"y": -1.6263992602,
				"z": 1.1616619878,
				"element": "O" 
			},
			{
				"x": -0.0580076183,
				"y": -1.0083045394,
				"z": 0.3493372622,
				"element": "C" 
			},
			{
				"x": 0.9961213487,
				"y": -1.501134847,
				"z": -0.003141582,
				"element": "O" 
			},
			{
				"x": -0.5243656239,
				"y": 0.3366353414,
				"z": -0.1345705157,
				"element": "C" 
			},
			{
				"x": 0.1297497892,
				"y": 0.7758933355,
				"z": -1.2987855158,
				"element": "C" 
			},
			{
				"x": -0.1940617739,
				"y": 1.9903850765,
				"z": -1.8860023177,
				"element": "C" 
			},
			{
				"x": 0.6334375532,
				"y": 2.4978334822,
				"z": -3.34613455,
				"element": "Cl" 
			},
			{
				"x": -1.1706071283,
				"y": 2.8120836707,
				"z": -1.324080422,
				"element": "C" 
			},
			{
				"x": -1.8114177785,
				"y": 2.3987689227,
				"z": -0.160525988,
				"element": "C" 
			},
			{
				"x": -1.5004961799,
				"y": 1.1735817243,
				"z": 0.4369615733,
				"element": "C" 
			},
			{
				"x": -2.4380745798,
				"y": 0.7947653731,
				"z": 2.0563559603,
				"element": "Br" 
			},
			{
				"x": 0.4275860433,
				"y": -2.8447153254,
				"z": 2.185021524,
				"element": "H" 
			},
			{
				"x": -0.3781594996,
				"y": -3.6078625945,
				"z": 0.7959623037,
				"element": "H" 
			},
			{
				"x": -1.3163999206,
				"y": -3.2602145281,
				"z": 2.2871252143,
				"element": "H" 
			},
			{
				"x": 0.8962657582,
				"y": 0.1375303071,
				"z": -1.7209588745,
				"element": "H" 
			},
			{
				"x": -1.4223280588,
				"y": 3.7617987192,
				"z": -1.7827259687,
				"element": "H" 
			},
			{
				"x": -2.5605504458,
				"y": 3.0342844165,
				"z": 0.2967730231,
				"element": "H" 
			}
		],
		 "valence_orbital": [ 
			{
				"type": "occ",
				"energy": -0.30649,
				"method": "rhf"
			},
			{
				"type": "occ",
				"energy": -0.29225,
				"method": "rhf"
			},
			{
				"type": "occ",
				"energy": -0.28538,
				"method": "rhf"
			},
			{
				"type": "occ",
				"energy": -0.27751,
				"method": "rhf"
			},
			{
				"type": "occ",
				"energy": -0.24955,
				"method": "rhf"
			},
			{
				"type": "unocc",
				"energy": -0.06247,
				"method": "rhf"
			},
			{
				"type": "unocc",
				"energy": -0.03146,
				"method": "rhf"
			},
			{
				"type": "unocc",
				"energy": -0.00537,
				"method": "rhf"
			},
			{
				"type": "unocc",
				"energy": 0.02293,
				"method": "rhf"
			},
			{
				"type": "unocc",
				"energy": 0.0374,
				"method": "rhf"
			}
		],
		"cosmo_sigma_profile": { 
			"-0.025": 0.0,
			"-0.024": 0.0,
			"-0.023": 0.0,
			"-0.022": 0.0,
			"-0.021": 0.0,
			"-0.02": 0.0,
			"-0.019": 0.0,
			"-0.018": 0.0,
			"-0.017": 0.0,
			"-0.016": 0.0,
			"-0.015": 0.0,
			"-0.014": 0.0,
			"-0.013": 0.0,
			"-0.012": 0.0,
			"-0.011": 0.0,
			"-0.01": 0.0,
			"-0.009": 0.777341335766,
			"-0.008": 3.54631907481,
			"-0.007": 6.05887405437,
			"-0.006": 10.5381341049,
			"-0.005": 11.9291868758,
			"-0.004": 16.6639628296,
			"-0.003": 17.0669944916,
			"-0.002": 14.3281500773,
			"-0.001": 16.5612220735,
			"0.0": 26.1468924902,
			"0.001": 24.4268177111,
			"0.002": 14.4199243011,
			"0.003": 15.1555159578,
			"0.004": 20.3244730299,
			"0.005": 6.42429082722,
			"0.006": 3.38628403824,
			"0.007": 2.32413750851,
			"0.008": 1.9169786573,
			"0.009": 1.88214153161,
			"0.01": 1.82119882564,
			"0.011": 3.88260275058,
			"0.012": 1.87052003125,
			"0.013": 0.0,
			"0.014": 0.0,
			"0.015": 0.0,
			"0.016": 0.0,
			"0.017": 0.0,
			"0.018": 0.0,
			"0.019": 0.0,
			"0.02": 0.0,
			"0.021": 0.0,
			"0.022": 0.0,
			"0.023": 0.0,
			"0.024": 0.0,
			"0.025": 0.0
		}
	}
}
