{
	 "smiles": "ClC1=CC=C(C=NNC2=CC=CC=C2)C=C1", 
	 "Tm": 584.15, 
	 "num_atms": 27, 
	 "gaussian": { 
		 "optdone": 1, 
		 "sigma_profile": "yes", 
		 "theory": "DFT", 
		 "functional": "B3LYP", 
		 "basiset": "6-31G**", 
		 "properties": { 
			 "R2extent": 7928.4873, 
			 "electric_dipole_moment_norm": 3.02164887106, 
			 "electric_quadrupole_moment_norm": 12.5312296264, 
			 "total_energy": -1071.6806562, 
			 "HOMO_LUMO_gap": 0.14244, 
			 "cosmo_polarized_energy": -10.85, 
			 "cosmo_cavitation_energy": 34.04, 
			 "cosmo_dispersion_energy": -25.0, 
			 "cosmo_repulsion_energy": 1.93, 
			 "cosmo_total_nonelectrostatic_energy": 10.97, 
			 "SMD_solvation_energy": 5.2 
		},
		"coords": [
			{
				"x": -1.569957085,
				"y": 5.8467107271,
				"z": 2.6038296031,
				"element": "Cl" 
			},
			{
				"x": -1.0648909652,
				"y": 4.2357983784,
				"z": 2.1144675901,
				"element": "C" 
			},
			{
				"x": -1.064062208,
				"y": 3.2019365317,
				"z": 3.0488066505,
				"element": "C" 
			},
			{
				"x": -0.6617427865,
				"y": 1.9291451736,
				"z": 2.6494211914,
				"element": "C" 
			},
			{
				"x": -0.2593304335,
				"y": 1.6728485942,
				"z": 1.3280040261,
				"element": "C" 
			},
			{
				"x": 0.1545812511,
				"y": 0.3234052304,
				"z": 0.9533375172,
				"element": "C" 
			},
			{
				"x": 0.5340952503,
				"y": 0.0295208549,
				"z": -0.2437264431,
				"element": "N" 
			},
			{
				"x": 0.8984284607,
				"y": -1.2321431639,
				"z": -0.5071850765,
				"element": "N" 
			},
			{
				"x": 1.3227460466,
				"y": -1.6392639789,
				"z": -1.7727002068,
				"element": "C" 
			},
			{
				"x": 1.6864447385,
				"y": -2.9827581096,
				"z": -1.9587828214,
				"element": "C" 
			},
			{
				"x": 2.11448849,
				"y": -3.4231523849,
				"z": -3.2086701022,
				"element": "C" 
			},
			{
				"x": 2.1870024381,
				"y": -2.5388176706,
				"z": -4.2868834099,
				"element": "C" 
			},
			{
				"x": 1.8237050353,
				"y": -1.2032215799,
				"z": -4.0952004627,
				"element": "C" 
			},
			{
				"x": 1.3933231791,
				"y": -0.745161104,
				"z": -2.8523443682,
				"element": "C" 
			},
			{
				"x": -0.2706569394,
				"y": 2.7373663482,
				"z": 0.4064619912,
				"element": "C" 
			},
			{
				"x": -0.669705929,
				"y": 4.0108453197,
				"z": 0.7925328141,
				"element": "C" 
			},
			{
				"x": -1.3731135458,
				"y": 3.3909561344,
				"z": 4.0708424641,
				"element": "H" 
			},
			{
				"x": -0.6603161141,
				"y": 1.1211435146,
				"z": 3.3766821089,
				"element": "H" 
			},
			{
				"x": 0.1291261785,
				"y": -0.4404197396,
				"z": 1.7428112616,
				"element": "H" 
			},
			{
				"x": 0.8683631729,
				"y": -1.9257382944,
				"z": 0.236150019,
				"element": "H" 
			},
			{
				"x": 1.632662395,
				"y": -3.6778317936,
				"z": -1.1237626569,
				"element": "H" 
			},
			{
				"x": 2.3925377934,
				"y": -4.4653927613,
				"z": -3.3373060703,
				"element": "H" 
			},
			{
				"x": 2.5209444804,
				"y": -2.8844408977,
				"z": -5.260057499,
				"element": "H" 
			},
			{
				"x": 1.8750147611,
				"y": -0.5035469289,
				"z": -4.9249079056,
				"element": "H" 
			},
			{
				"x": 1.1112798366,
				"y": 0.2893448726,
				"z": -2.7014452761,
				"element": "H" 
			},
			{
				"x": 0.0380608979,
				"y": 2.550650916,
				"z": -0.6162645834,
				"element": "H" 
			},
			{
				"x": -0.6769283991,
				"y": 4.8279158112,
				"z": 0.0793896449,
				"element": "H" 
			}
		],
		 "valence_orbital": [ 
			{
				"type": "occ",
				"energy": -0.29157,
				"method": "rhf"
			},
			{
				"type": "occ",
				"energy": -0.26391,
				"method": "rhf"
			},
			{
				"type": "occ",
				"energy": -0.25079,
				"method": "rhf"
			},
			{
				"type": "occ",
				"energy": -0.24631,
				"method": "rhf"
			},
			{
				"type": "occ",
				"energy": -0.19241,
				"method": "rhf"
			},
			{
				"type": "unocc",
				"energy": -0.04997,
				"method": "rhf"
			},
			{
				"type": "unocc",
				"energy": -0.01239,
				"method": "rhf"
			},
			{
				"type": "unocc",
				"energy": -0.00032,
				"method": "rhf"
			},
			{
				"type": "unocc",
				"energy": 0.017,
				"method": "rhf"
			},
			{
				"type": "unocc",
				"energy": 0.03141,
				"method": "rhf"
			}
		],
		"cosmo_sigma_profile": { 
			"-0.025": 0.0,
			"-0.024": 0.0,
			"-0.023": 0.0,
			"-0.022": 0.0,
			"-0.021": 0.0,
			"-0.02": 0.0,
			"-0.019": 0.0,
			"-0.018": 0.0,
			"-0.017": 0.0,
			"-0.016": 0.0,
			"-0.015": 0.105179679062,
			"-0.014": 1.53356377344,
			"-0.013": 1.85542443662,
			"-0.012": 2.37313035202,
			"-0.011": 1.02896284623,
			"-0.01": 1.36579071305,
			"-0.009": 2.09248668472,
			"-0.008": 1.83414352659,
			"-0.007": 8.55678970011,
			"-0.006": 12.101771762,
			"-0.005": 16.6190031251,
			"-0.004": 16.5522286372,
			"-0.003": 16.2186946788,
			"-0.002": 16.1843953092,
			"-0.001": 13.849661364,
			"0.0": 16.0386444215,
			"0.001": 19.7459907706,
			"0.002": 23.4545674882,
			"0.003": 33.5120690953,
			"0.004": 33.2105411867,
			"0.005": 20.473087417,
			"0.006": 11.4616979723,
			"0.007": 5.14689778369,
			"0.008": 0.203233863657,
			"0.009": 0.0,
			"0.01": 0.0,
			"0.011": 0.0,
			"0.012": 0.0,
			"0.013": 0.0,
			"0.014": 0.0,
			"0.015": 0.0,
			"0.016": 0.0,
			"0.017": 0.0,
			"0.018": 0.0,
			"0.019": 0.0,
			"0.02": 0.0,
			"0.021": 0.0,
			"0.022": 0.0,
			"0.023": 0.0,
			"0.024": 0.0,
			"0.025": 0.0
		}
	}
}
