{
	 "smiles": "CC1=C(C=C(N)C=C1)S(=O)(=O)NC1CC1", 
	 "Tm": 405.15, 
	 "num_atms": 29, 
	 "gaussian": { 
		 "optdone": 1, 
		 "sigma_profile": "yes", 
		 "theory": "DFT", 
		 "functional": "B3LYP", 
		 "basiset": "6-31G**", 
		 "properties": { 
			 "R2extent": 3517.9372, 
			 "electric_dipole_moment_norm": 5.37526952813, 
			 "electric_quadrupole_moment_norm": 12.9247572321, 
			 "total_energy": -1047.54744989, 
			 "HOMO_LUMO_gap": 0.18191, 
			 "cosmo_polarized_energy": -17.34, 
			 "cosmo_cavitation_energy": 33.16, 
			 "cosmo_dispersion_energy": -23.42, 
			 "cosmo_repulsion_energy": 1.81, 
			 "cosmo_total_nonelectrostatic_energy": 11.55, 
			 "SMD_solvation_energy": 4.54 
		},
		"coords": [
			{
				"x": -2.3739724164,
				"y": -0.0492839412,
				"z": 1.7090189902,
				"element": "C" 
			},
			{
				"x": -1.8835986649,
				"y": 0.7935493276,
				"z": 0.5568698458,
				"element": "C" 
			},
			{
				"x": -0.5464866534,
				"y": 0.8306440154,
				"z": 0.1137456132,
				"element": "C" 
			},
			{
				"x": -0.1229550763,
				"y": 1.6336547544,
				"z": -0.9440425604,
				"element": "C" 
			},
			{
				"x": -1.0387752501,
				"y": 2.4483835729,
				"z": -1.6273683748,
				"element": "C" 
			},
			{
				"x": -0.6140953375,
				"y": 3.2986502142,
				"z": -2.64625709,
				"element": "N" 
			},
			{
				"x": -2.3788606739,
				"y": 2.4189154835,
				"z": -1.2122640186,
				"element": "C" 
			},
			{
				"x": -2.7752787018,
				"y": 1.6113143991,
				"z": -0.1499505355,
				"element": "C" 
			},
			{
				"x": 0.743271467,
				"y": -0.131942939,
				"z": 0.9215346446,
				"element": "S" 
			},
			{
				"x": 2.008705983,
				"y": 0.149044911,
				"z": 0.230235396,
				"element": "O" 
			},
			{
				"x": 0.6464805095,
				"y": 0.0202444922,
				"z": 2.3784284012,
				"element": "O" 
			},
			{
				"x": 0.2648360455,
				"y": -1.7431696008,
				"z": 0.6331287667,
				"element": "N" 
			},
			{
				"x": 0.7395890053,
				"y": -2.3678293032,
				"z": -0.5820932425,
				"element": "C" 
			},
			{
				"x": -0.1222499174,
				"y": -2.246878284,
				"z": -1.8136405277,
				"element": "C" 
			},
			{
				"x": -0.0475824419,
				"y": -3.5567397109,
				"z": -1.0720646633,
				"element": "C" 
			},
			{
				"x": -1.8736237388,
				"y": 0.2227253863,
				"z": 2.6422847818,
				"element": "H" 
			},
			{
				"x": -2.1723656153,
				"y": -1.1115047367,
				"z": 1.5383420044,
				"element": "H" 
			},
			{
				"x": -3.451620701,
				"y": 0.0807317304,
				"z": 1.8384156567,
				"element": "H" 
			},
			{
				"x": 0.9251643086,
				"y": 1.6227457338,
				"z": -1.22329926,
				"element": "H" 
			},
			{
				"x": 0.2555485292,
				"y": 3.044004612,
				"z": -3.0928607956,
				"element": "H" 
			},
			{
				"x": -1.3230865371,
				"y": 3.5709084958,
				"z": -3.3123764349,
				"element": "H" 
			},
			{
				"x": -3.1128302122,
				"y": 3.0398088585,
				"z": -1.7200708121,
				"element": "H" 
			},
			{
				"x": -3.8204031219,
				"y": 1.61588673,
				"z": 0.148524757,
				"element": "H" 
			},
			{
				"x": 0.4964866681,
				"y": -2.2600881708,
				"z": 1.4802445054,
				"element": "H" 
			},
			{
				"x": 1.8176626463,
				"y": -2.3784212959,
				"z": -0.7288695647,
				"element": "H" 
			},
			{
				"x": -1.0364670213,
				"y": -1.6709814119,
				"z": -1.7223352845,
				"element": "H" 
			},
			{
				"x": 0.3820311582,
				"y": -2.1588835248,
				"z": -2.7705470595,
				"element": "H" 
			},
			{
				"x": -0.9136964993,
				"y": -3.8515360209,
				"z": -0.4884491807,
				"element": "H" 
			},
			{
				"x": 0.5079722599,
				"y": -4.3791537769,
				"z": -1.5114839583,
				"element": "H" 
			}
		],
		 "valence_orbital": [ 
			{
				"type": "occ",
				"energy": -0.29613,
				"method": "rhf"
			},
			{
				"type": "occ",
				"energy": -0.28643,
				"method": "rhf"
			},
			{
				"type": "occ",
				"energy": -0.27105,
				"method": "rhf"
			},
			{
				"type": "occ",
				"energy": -0.25642,
				"method": "rhf"
			},
			{
				"type": "occ",
				"energy": -0.20953,
				"method": "rhf"
			},
			{
				"type": "unocc",
				"energy": -0.02762,
				"method": "rhf"
			},
			{
				"type": "unocc",
				"energy": 0.00425,
				"method": "rhf"
			},
			{
				"type": "unocc",
				"energy": 0.06749,
				"method": "rhf"
			},
			{
				"type": "unocc",
				"energy": 0.07317,
				"method": "rhf"
			},
			{
				"type": "unocc",
				"energy": 0.08523,
				"method": "rhf"
			}
		],
		"cosmo_sigma_profile": { 
			"-0.025": 0.0,
			"-0.024": 0.0,
			"-0.023": 0.0,
			"-0.022": 0.0,
			"-0.021": 0.0,
			"-0.02": 0.0,
			"-0.019": 0.0,
			"-0.018": 0.0,
			"-0.017": 0.0,
			"-0.016": 0.0,
			"-0.015": 0.0284530666815,
			"-0.014": 0.579242739888,
			"-0.013": 2.52441105814,
			"-0.012": 4.31015922021,
			"-0.011": 2.40615222939,
			"-0.01": 4.68450914544,
			"-0.009": 4.16630256069,
			"-0.008": 4.99937744336,
			"-0.007": 4.39311408802,
			"-0.006": 7.88416185186,
			"-0.005": 16.2095149832,
			"-0.004": 16.5995762292,
			"-0.003": 17.8662148799,
			"-0.002": 15.8015743844,
			"-0.001": 18.920008646,
			"0.0": 22.2164828029,
			"0.001": 21.5220865796,
			"0.002": 19.2919140871,
			"0.003": 15.982217987,
			"0.004": 15.4934419865,
			"0.005": 7.96094068367,
			"0.006": 4.39644493406,
			"0.007": 3.44355936204,
			"0.008": 3.71979551602,
			"0.009": 5.0723295949,
			"0.01": 6.10074953982,
			"0.011": 8.44654768084,
			"0.012": 5.92592431514,
			"0.013": 0.581794295233,
			"0.014": 0.349701194709,
			"0.015": 0.0,
			"0.016": 0.0,
			"0.017": 0.0,
			"0.018": 0.0,
			"0.019": 0.0,
			"0.02": 0.0,
			"0.021": 0.0,
			"0.022": 0.0,
			"0.023": 0.0,
			"0.024": 0.0,
			"0.025": 0.0
		}
	}
}
