{
	 "smiles": "COCCN1N=C(C)C(C(C)=O)=C1C", 
	 "Tm": 305.15, 
	 "num_atms": 30, 
	 "gaussian": { 
		 "optdone": 1, 
		 "sigma_profile": "yes", 
		 "theory": "DFT", 
		 "functional": "B3LYP", 
		 "basiset": "6-31G**", 
		 "properties": { 
			 "R2extent": 3983.947, 
			 "electric_dipole_moment_norm": 4.53608029911, 
			 "electric_quadrupole_moment_norm": 10.7758577311, 
			 "total_energy": -650.637593073, 
			 "HOMO_LUMO_gap": 0.20845, 
			 "cosmo_polarized_energy": -15.44, 
			 "cosmo_cavitation_energy": 32.09, 
			 "cosmo_dispersion_energy": -22.34, 
			 "cosmo_repulsion_energy": 1.77, 
			 "cosmo_total_nonelectrostatic_energy": 11.51, 
			 "SMD_solvation_energy": 5.98 
		},
		"coords": [
			{
				"x": 2.0797442229,
				"y": -0.9799023808,
				"z": 3.2631140758,
				"element": "C" 
			},
			{
				"x": 3.4540214255,
				"y": -0.8745629839,
				"z": 2.9156280753,
				"element": "O" 
			},
			{
				"x": 3.7236136999,
				"y": -0.2056846546,
				"z": 1.7078407512,
				"element": "C" 
			},
			{
				"x": 3.5256912847,
				"y": -1.0478053035,
				"z": 0.4323709546,
				"element": "C" 
			},
			{
				"x": 2.1517490619,
				"y": -1.1679529443,
				"z": -0.0458304244,
				"element": "N" 
			},
			{
				"x": 1.4777220926,
				"y": -2.3282158246,
				"z": 0.2091318213,
				"element": "N" 
			},
			{
				"x": 0.2750181921,
				"y": -2.1673655336,
				"z": -0.3251847388,
				"element": "C" 
			},
			{
				"x": -0.7390411866,
				"y": -3.2629954584,
				"z": -0.2325150266,
				"element": "C" 
			},
			{
				"x": 0.1571944532,
				"y": -0.8816520641,
				"z": -0.9442437676,
				"element": "C" 
			},
			{
				"x": -1.0538323372,
				"y": -0.3918682667,
				"z": -1.6198577973,
				"element": "C" 
			},
			{
				"x": -1.0711848445,
				"y": 1.0012027336,
				"z": -2.234498562,
				"element": "C" 
			},
			{
				"x": -2.0567206807,
				"y": -1.0955382058,
				"z": -1.6942954092,
				"element": "O" 
			},
			{
				"x": 1.4042474213,
				"y": -0.2699403969,
				"z": -0.7391276903,
				"element": "C" 
			},
			{
				"x": 1.9380811893,
				"y": 1.0724755013,
				"z": -1.1410052561,
				"element": "C" 
			},
			{
				"x": 1.5803398796,
				"y": 0.0005490931,
				"z": 3.2144619052,
				"element": "H" 
			},
			{
				"x": 2.0470490231,
				"y": -1.3371617452,
				"z": 4.2953429347,
				"element": "H" 
			},
			{
				"x": 1.543420793,
				"y": -1.6863257798,
				"z": 2.6201411866,
				"element": "H" 
			},
			{
				"x": 3.1432618755,
				"y": 0.7294006602,
				"z": 1.6338584598,
				"element": "H" 
			},
			{
				"x": 4.7851126499,
				"y": 0.0657484057,
				"z": 1.7512707777,
				"element": "H" 
			},
			{
				"x": 4.1404728712,
				"y": -0.6254827636,
				"z": -0.3699354185,
				"element": "H" 
			},
			{
				"x": 3.8690076608,
				"y": -2.0667072307,
				"z": 0.6193019895,
				"element": "H" 
			},
			{
				"x": -0.3114295318,
				"y": -4.1085054946,
				"z": 0.311543565,
				"element": "H" 
			},
			{
				"x": -1.0553136491,
				"y": -3.5899502495,
				"z": -1.226953036,
				"element": "H" 
			},
			{
				"x": -1.6440815502,
				"y": -2.918985945,
				"z": 0.2757907963,
				"element": "H" 
			},
			{
				"x": -0.3655570556,
				"y": 1.0689616463,
				"z": -3.070458958,
				"element": "H" 
			},
			{
				"x": -0.7939846196,
				"y": 1.7707642514,
				"z": -1.5067287696,
				"element": "H" 
			},
			{
				"x": -2.0777157959,
				"y": 1.197883206,
				"z": -2.6058088506,
				"element": "H" 
			},
			{
				"x": 1.7312570485,
				"y": 1.2812221954,
				"z": -2.1931207122,
				"element": "H" 
			},
			{
				"x": 3.0189383597,
				"y": 1.1338760671,
				"z": -1.0003758122,
				"element": "H" 
			},
			{
				"x": 1.4855180461,
				"y": 1.8795194655,
				"z": -0.5536570635,
				"element": "H" 
			}
		],
		 "valence_orbital": [ 
			{
				"type": "occ",
				"energy": -0.28891,
				"method": "rhf"
			},
			{
				"type": "occ",
				"energy": -0.26559,
				"method": "rhf"
			},
			{
				"type": "occ",
				"energy": -0.24668,
				"method": "rhf"
			},
			{
				"type": "occ",
				"energy": -0.23827,
				"method": "rhf"
			},
			{
				"type": "occ",
				"energy": -0.23722,
				"method": "rhf"
			},
			{
				"type": "unocc",
				"energy": -0.02877,
				"method": "rhf"
			},
			{
				"type": "unocc",
				"energy": 0.0201,
				"method": "rhf"
			},
			{
				"type": "unocc",
				"energy": 0.0662,
				"method": "rhf"
			},
			{
				"type": "unocc",
				"energy": 0.07569,
				"method": "rhf"
			},
			{
				"type": "unocc",
				"energy": 0.09545,
				"method": "rhf"
			}
		],
		"cosmo_sigma_profile": { 
			"-0.025": 0.0,
			"-0.024": 0.0,
			"-0.023": 0.0,
			"-0.022": 0.0,
			"-0.021": 0.0,
			"-0.02": 0.0,
			"-0.019": 0.0,
			"-0.018": 0.0,
			"-0.017": 0.0,
			"-0.016": 0.0,
			"-0.015": 0.0,
			"-0.014": 0.0,
			"-0.013": 0.0,
			"-0.012": 0.0,
			"-0.011": 0.0,
			"-0.01": 0.0,
			"-0.009": 0.34153635336,
			"-0.008": 2.3904481837,
			"-0.007": 5.81819765506,
			"-0.006": 14.1799406708,
			"-0.005": 19.3075536248,
			"-0.004": 27.9679995372,
			"-0.003": 25.0746999387,
			"-0.002": 26.4600282534,
			"-0.001": 22.7431562264,
			"0.0": 19.9747544568,
			"0.001": 14.490299165,
			"0.002": 11.9909683044,
			"0.003": 9.97127034431,
			"0.004": 6.91250580124,
			"0.005": 5.50288238516,
			"0.006": 4.99431521238,
			"0.007": 5.62841181613,
			"0.008": 3.68227054931,
			"0.009": 2.80941928886,
			"0.01": 4.04554903652,
			"0.011": 4.4368016333,
			"0.012": 4.04002488856,
			"0.013": 5.43011130178,
			"0.014": 2.87020206381,
			"0.015": 0.688118910435,
			"0.016": 0.0253343254754,
			"0.017": 0.0,
			"0.018": 0.0,
			"0.019": 0.0,
			"0.02": 0.0,
			"0.021": 0.0,
			"0.022": 0.0,
			"0.023": 0.0,
			"0.024": 0.0,
			"0.025": 0.0
		}
	}
}
