{
	 "smiles": "COC(=O)C1=NC2=C(C=CC=C2)C(Cl)=C1", 
	 "Tm": 395.15, 
	 "num_atms": 23, 
	 "gaussian": { 
		 "optdone": 1, 
		 "sigma_profile": "yes", 
		 "theory": "DFT", 
		 "functional": "B3LYP", 
		 "basiset": "6-31G**", 
		 "properties": { 
			 "R2extent": 5336.2771, 
			 "electric_dipole_moment_norm": 2.31611533823, 
			 "electric_quadrupole_moment_norm": 8.10276187852, 
			 "total_energy": -1089.39691276, 
			 "HOMO_LUMO_gap": 0.16592, 
			 "cosmo_polarized_energy": -9.5, 
			 "cosmo_cavitation_energy": 29.77, 
			 "cosmo_dispersion_energy": -22.14, 
			 "cosmo_repulsion_energy": 1.72, 
			 "cosmo_total_nonelectrostatic_energy": 9.35, 
			 "SMD_solvation_energy": 5.03 
		},
		"coords": [
			{
				"x": 2.9821253443,
				"y": 3.7185940542,
				"z": 3.9340297174,
				"element": "C" 
			},
			{
				"x": 2.741836002,
				"y": 3.0510413108,
				"z": 2.6846555525,
				"element": "O" 
			},
			{
				"x": 1.963096706,
				"y": 1.9640838863,
				"z": 2.76460727,
				"element": "C" 
			},
			{
				"x": 1.4789440807,
				"y": 1.5451206909,
				"z": 3.7992545422,
				"element": "O" 
			},
			{
				"x": 1.7392773746,
				"y": 1.2982490201,
				"z": 1.4321222413,
				"element": "C" 
			},
			{
				"x": 2.2974110583,
				"y": 1.8115089041,
				"z": 0.3541493135,
				"element": "N" 
			},
			{
				"x": 2.0762627046,
				"y": 1.1871831672,
				"z": -0.8339915793,
				"element": "C" 
			},
			{
				"x": 1.2695159978,
				"y": 0.0048403096,
				"z": -0.965752755,
				"element": "C" 
			},
			{
				"x": 1.0976829821,
				"y": -0.5740264756,
				"z": -2.2486059697,
				"element": "C" 
			},
			{
				"x": 1.6971764732,
				"y": -0.0085434187,
				"z": -3.3522939831,
				"element": "C" 
			},
			{
				"x": 2.4930887845,
				"y": 1.156633461,
				"z": -3.2273847573,
				"element": "C" 
			},
			{
				"x": 2.678292515,
				"y": 1.7409892795,
				"z": -1.9963025368,
				"element": "C" 
			},
			{
				"x": 0.6977152118,
				"y": -0.4951430523,
				"z": 0.237711492,
				"element": "C" 
			},
			{
				"x": -0.3064834014,
				"y": -1.9321459278,
				"z": 0.2065103342,
				"element": "Cl" 
			},
			{
				"x": 0.9230353229,
				"y": 0.1372446548,
				"z": 1.4338472873,
				"element": "C" 
			},
			{
				"x": 3.4797613869,
				"y": 3.0479979198,
				"z": 4.6392140412,
				"element": "H" 
			},
			{
				"x": 3.6223723948,
				"y": 4.5666111694,
				"z": 3.692908922,
				"element": "H" 
			},
			{
				"x": 2.0419790687,
				"y": 4.0586064807,
				"z": 4.3757768584,
				"element": "H" 
			},
			{
				"x": 0.4892515093,
				"y": -1.465690873,
				"z": -2.3477444492,
				"element": "H" 
			},
			{
				"x": 1.5587139156,
				"y": -0.4603879817,
				"z": -4.3299515921,
				"element": "H" 
			},
			{
				"x": 2.9567976633,
				"y": 1.5864177941,
				"z": -4.1102085958,
				"element": "H" 
			},
			{
				"x": 3.2812926225,
				"y": 2.6331519417,
				"z": -1.8654063058,
				"element": "H" 
			},
			{
				"x": 0.5034542826,
				"y": -0.2166363151,
				"z": 2.3665549521,
				"element": "H" 
			}
		],
		 "valence_orbital": [ 
			{
				"type": "occ",
				"energy": -0.29586,
				"method": "rhf"
			},
			{
				"type": "occ",
				"energy": -0.29168,
				"method": "rhf"
			},
			{
				"type": "occ",
				"energy": -0.2663,
				"method": "rhf"
			},
			{
				"type": "occ",
				"energy": -0.26365,
				"method": "rhf"
			},
			{
				"type": "occ",
				"energy": -0.24371,
				"method": "rhf"
			},
			{
				"type": "unocc",
				"energy": -0.07779,
				"method": "rhf"
			},
			{
				"type": "unocc",
				"energy": -0.04512,
				"method": "rhf"
			},
			{
				"type": "unocc",
				"energy": 0.00443,
				"method": "rhf"
			},
			{
				"type": "unocc",
				"energy": 0.02153,
				"method": "rhf"
			},
			{
				"type": "unocc",
				"energy": 0.02898,
				"method": "rhf"
			}
		],
		"cosmo_sigma_profile": { 
			"-0.025": 0.0,
			"-0.024": 0.0,
			"-0.023": 0.0,
			"-0.022": 0.0,
			"-0.021": 0.0,
			"-0.02": 0.0,
			"-0.019": 0.0,
			"-0.018": 0.0,
			"-0.017": 0.0,
			"-0.016": 0.0,
			"-0.015": 0.0,
			"-0.014": 0.0,
			"-0.013": 0.0,
			"-0.012": 0.0,
			"-0.011": 0.0,
			"-0.01": 0.0,
			"-0.009": 0.0,
			"-0.008": 0.324676081763,
			"-0.007": 6.2614528616,
			"-0.006": 15.3082101583,
			"-0.005": 17.2761714741,
			"-0.004": 19.7591546804,
			"-0.003": 18.443184249,
			"-0.002": 18.8800334243,
			"-0.001": 24.0552169189,
			"0.0": 24.1244327093,
			"0.001": 20.499849836,
			"0.002": 20.4654169131,
			"0.003": 19.8531790367,
			"0.004": 7.98997694132,
			"0.005": 2.66369990465,
			"0.006": 2.68349344334,
			"0.007": 2.95505022072,
			"0.008": 2.93024569112,
			"0.009": 2.56952708762,
			"0.01": 3.95059436949,
			"0.011": 5.39972221587,
			"0.012": 2.15291499764,
			"0.013": 0.894758047629,
			"0.014": 1.01519020488,
			"0.015": 0.772056037065,
			"0.016": 0.6051137841,
			"0.017": 0.0513811720412,
			"0.018": 0.0,
			"0.019": 0.0,
			"0.02": 0.0,
			"0.021": 0.0,
			"0.022": 0.0,
			"0.023": 0.0,
			"0.024": 0.0,
			"0.025": 0.0
		}
	}
}
