{
	 "smiles": "NC1=C(C=CC=C1)N1CCC(O)CC1", 
	 "Tm": 391.15, 
	 "num_atms": 30, 
	 "gaussian": { 
		 "optdone": 1, 
		 "sigma_profile": "yes", 
		 "theory": "DFT", 
		 "functional": "B3LYP", 
		 "basiset": "6-31G**", 
		 "properties": { 
			 "R2extent": 4176.0698, 
			 "electric_dipole_moment_norm": 1.45029611114, 
			 "electric_quadrupole_moment_norm": 10.8830284296, 
			 "total_energy": -613.528295388, 
			 "HOMO_LUMO_gap": 0.20041, 
			 "cosmo_polarized_energy": -11.63, 
			 "cosmo_cavitation_energy": 30.72, 
			 "cosmo_dispersion_energy": -22.48, 
			 "cosmo_repulsion_energy": 1.77, 
			 "cosmo_total_nonelectrostatic_energy": 10.01, 
			 "SMD_solvation_energy": 4.3 
		},
		"coords": [
			{
				"x": 2.2255051606,
				"y": 0.6853842394,
				"z": 1.5342643042,
				"element": "N" 
			},
			{
				"x": 2.4198968704,
				"y": 0.956618613,
				"z": 0.1767811105,
				"element": "C" 
			},
			{
				"x": 1.3302655088,
				"y": 1.4399842234,
				"z": -0.5907393009,
				"element": "C" 
			},
			{
				"x": 1.5183180993,
				"y": 1.703348262,
				"z": -1.9507653038,
				"element": "C" 
			},
			{
				"x": 2.7569167856,
				"y": 1.4989155611,
				"z": -2.5644527001,
				"element": "C" 
			},
			{
				"x": 3.8207456747,
				"y": 1.0061443991,
				"z": -1.8097162178,
				"element": "C" 
			},
			{
				"x": 3.6533214698,
				"y": 0.7381602321,
				"z": -0.4513927777,
				"element": "C" 
			},
			{
				"x": 0.0870443336,
				"y": 1.6426849651,
				"z": 0.0856237664,
				"element": "N" 
			},
			{
				"x": -0.6815760781,
				"y": 0.3898542923,
				"z": 0.2766281866,
				"element": "C" 
			},
			{
				"x": -2.0857539589,
				"y": 0.6853296325,
				"z": 0.8456286693,
				"element": "C" 
			},
			{
				"x": -2.0986221464,
				"y": 1.9894714339,
				"z": 1.648779733,
				"element": "C" 
			},
			{
				"x": -3.384816824,
				"y": 2.276595714,
				"z": 2.1935183178,
				"element": "O" 
			},
			{
				"x": -1.7241235796,
				"y": 3.1688065851,
				"z": 0.7361039549,
				"element": "C" 
			},
			{
				"x": -0.7640116428,
				"y": 2.7361551238,
				"z": -0.391812782,
				"element": "C" 
			},
			{
				"x": 3.0704816716,
				"y": 0.7187230262,
				"z": 2.0894964538,
				"element": "H" 
			},
			{
				"x": 1.4837785363,
				"y": 1.2590018974,
				"z": 1.9228311216,
				"element": "H" 
			},
			{
				"x": 0.6836141574,
				"y": 2.0746818182,
				"z": -2.5379282627,
				"element": "H" 
			},
			{
				"x": 2.8821779472,
				"y": 1.7147037499,
				"z": -3.6211109233,
				"element": "H" 
			},
			{
				"x": 4.7890493999,
				"y": 0.8375490138,
				"z": -2.2725262479,
				"element": "H" 
			},
			{
				"x": 4.4885645672,
				"y": 0.368552499,
				"z": 0.1392072692,
				"element": "H" 
			},
			{
				"x": -0.1112041119,
				"y": -0.2504985931,
				"z": 0.9570136147,
				"element": "H" 
			},
			{
				"x": -0.7769691797,
				"y": -0.1566240806,
				"z": -0.6762862076,
				"element": "H" 
			},
			{
				"x": -2.4139594085,
				"y": -0.154596935,
				"z": 1.4703622552,
				"element": "H" 
			},
			{
				"x": -2.8224585402,
				"y": 0.7810730972,
				"z": 0.0393267464,
				"element": "H" 
			},
			{
				"x": -1.3571749427,
				"y": 1.9110818896,
				"z": 2.4595065758,
				"element": "H" 
			},
			{
				"x": -3.599413461,
				"y": 1.5815712412,
				"z": 2.8293205189,
				"element": "H" 
			},
			{
				"x": -2.6513158925,
				"y": 3.5641206917,
				"z": 0.3067397816,
				"element": "H" 
			},
			{
				"x": -1.277777533,
				"y": 3.9681303224,
				"z": 1.3358860981,
				"element": "H" 
			},
			{
				"x": -1.3399555286,
				"y": 2.4464953358,
				"z": -1.2892017007,
				"element": "H" 
			},
			{
				"x": -0.1225473544,
				"y": 3.5701817494,
				"z": -0.6871860534,
				"element": "H" 
			}
		],
		 "valence_orbital": [ 
			{
				"type": "occ",
				"energy": -0.29901,
				"method": "rhf"
			},
			{
				"type": "occ",
				"energy": -0.26628,
				"method": "rhf"
			},
			{
				"type": "occ",
				"energy": -0.24664,
				"method": "rhf"
			},
			{
				"type": "occ",
				"energy": -0.21364,
				"method": "rhf"
			},
			{
				"type": "occ",
				"energy": -0.18937,
				"method": "rhf"
			},
			{
				"type": "unocc",
				"energy": 0.01104,
				"method": "rhf"
			},
			{
				"type": "unocc",
				"energy": 0.02406,
				"method": "rhf"
			},
			{
				"type": "unocc",
				"energy": 0.06886,
				"method": "rhf"
			},
			{
				"type": "unocc",
				"energy": 0.08539,
				"method": "rhf"
			},
			{
				"type": "unocc",
				"energy": 0.09559,
				"method": "rhf"
			}
		],
		"cosmo_sigma_profile": { 
			"-0.025": 0.0,
			"-0.024": 0.0,
			"-0.023": 0.0,
			"-0.022": 0.0,
			"-0.021": 0.0,
			"-0.02": 0.0,
			"-0.019": 0.0,
			"-0.018": 0.0,
			"-0.017": 0.0,
			"-0.016": 0.0405789599255,
			"-0.015": 0.690952108211,
			"-0.014": 1.06000089856,
			"-0.013": 1.18087366808,
			"-0.012": 1.06088986718,
			"-0.011": 2.11964083605,
			"-0.01": 2.98487518171,
			"-0.009": 2.57334164768,
			"-0.008": 3.46298683347,
			"-0.007": 3.79454028352,
			"-0.006": 3.81283402847,
			"-0.005": 8.2848782883,
			"-0.004": 13.5727706217,
			"-0.003": 25.4293685805,
			"-0.002": 36.057126249,
			"-0.001": 25.6010028475,
			"0.0": 18.4835911538,
			"0.001": 12.4680481828,
			"0.002": 9.22778030103,
			"0.003": 8.60354916071,
			"0.004": 10.2428581263,
			"0.005": 10.7090990247,
			"0.006": 9.6430201106,
			"0.007": 9.65555436354,
			"0.008": 4.84795509344,
			"0.009": 1.93055434579,
			"0.01": 2.49129835107,
			"0.011": 1.48867173528,
			"0.012": 2.55367661222,
			"0.013": 1.99623016758,
			"0.014": 2.48139536207,
			"0.015": 0.672413373246,
			"0.016": 0.0,
			"0.017": 0.0,
			"0.018": 0.0,
			"0.019": 0.0,
			"0.02": 0.0,
			"0.021": 0.0,
			"0.022": 0.0,
			"0.023": 0.0,
			"0.024": 0.0,
			"0.025": 0.0
		}
	}
}
