{
	 "smiles": "CC1CN(CC(C)O1)C(CN)C1=C(F)C=CC=C1F", 
	 "Tm": 333.15, 
	 "num_atms": 39, 
	 "gaussian": { 
		 "optdone": 1, 
		 "sigma_profile": "yes", 
		 "theory": "DFT", 
		 "functional": "B3LYP", 
		 "basiset": "6-31G**", 
		 "properties": { 
			 "R2extent": 5486.274, 
			 "electric_dipole_moment_norm": 2.34804769543, 
			 "electric_quadrupole_moment_norm": 18.1842224544, 
			 "total_energy": -929.911665528, 
			 "HOMO_LUMO_gap": 0.18327, 
			 "cosmo_polarized_energy": -10.51, 
			 "cosmo_cavitation_energy": 38.75, 
			 "cosmo_dispersion_energy": -26.48, 
			 "cosmo_repulsion_energy": 2.01, 
			 "cosmo_total_nonelectrostatic_energy": 14.28, 
			 "SMD_solvation_energy": 4.73 
		},
		"coords": [
			{
				"x": -1.2691986825,
				"y": 1.6597279631,
				"z": -2.486092565,
				"element": "C" 
			},
			{
				"x": -0.5310705663,
				"y": 1.7423088605,
				"z": -1.1566698941,
				"element": "C" 
			},
			{
				"x": -0.6444233561,
				"y": 0.4487380643,
				"z": -0.3505631234,
				"element": "C" 
			},
			{
				"x": 0.0017263957,
				"y": 0.5966384332,
				"z": 0.9635004404,
				"element": "N" 
			},
			{
				"x": 1.0828316683,
				"y": 1.6009415908,
				"z": 0.940084759,
				"element": "C" 
			},
			{
				"x": 1.7801230831,
				"y": 1.7787119403,
				"z": -0.4185989486,
				"element": "C" 
			},
			{
				"x": 2.6791164726,
				"y": 0.6092555427,
				"z": -0.8298457501,
				"element": "C" 
			},
			{
				"x": 0.8321321257,
				"y": 2.0410246686,
				"z": -1.4636639911,
				"element": "O" 
			},
			{
				"x": 0.3533184738,
				"y": -0.6593825078,
				"z": 1.6560107479,
				"element": "C" 
			},
			{
				"x": 0.5561866241,
				"y": -0.4111171841,
				"z": 3.1866839274,
				"element": "C" 
			},
			{
				"x": -0.5450969641,
				"y": 0.2001544096,
				"z": 3.9156899774,
				"element": "N" 
			},
			{
				"x": -0.6571013151,
				"y": -1.7800769963,
				"z": 1.440407195,
				"element": "C" 
			},
			{
				"x": -0.2061214265,
				"y": -3.072514314,
				"z": 1.1347157202,
				"element": "C" 
			},
			{
				"x": 1.1235603475,
				"y": -3.2689705883,
				"z": 0.9770932734,
				"element": "F" 
			},
			{
				"x": -1.0370470316,
				"y": -4.1759001812,
				"z": 0.9833864622,
				"element": "C" 
			},
			{
				"x": -2.4105778136,
				"y": -4.0043568239,
				"z": 1.1452319685,
				"element": "C" 
			},
			{
				"x": -2.9235858941,
				"y": -2.7451302709,
				"z": 1.4503840527,
				"element": "C" 
			},
			{
				"x": -2.0453827885,
				"y": -1.6765482015,
				"z": 1.5961804969,
				"element": "C" 
			},
			{
				"x": -2.5919972843,
				"y": -0.4691558684,
				"z": 1.876715155,
				"element": "F" 
			},
			{
				"x": -0.8973519239,
				"y": 0.8188905701,
				"z": -3.0801839944,
				"element": "H" 
			},
			{
				"x": -2.3445605087,
				"y": 1.5322281451,
				"z": -2.3268637737,
				"element": "H" 
			},
			{
				"x": -1.1084829886,
				"y": 2.5774208674,
				"z": -3.0581263523,
				"element": "H" 
			},
			{
				"x": -0.965593673,
				"y": 2.5610256446,
				"z": -0.5583871977,
				"element": "H" 
			},
			{
				"x": -1.7041477332,
				"y": 0.2139015761,
				"z": -0.212103989,
				"element": "H" 
			},
			{
				"x": -0.2030627372,
				"y": -0.3620670156,
				"z": -0.956470758,
				"element": "H" 
			},
			{
				"x": 1.8434366963,
				"y": 1.3488175666,
				"z": 1.6825128935,
				"element": "H" 
			},
			{
				"x": 0.6752267911,
				"y": 2.5754077907,
				"z": 1.2408788462,
				"element": "H" 
			},
			{
				"x": 2.4085747401,
				"y": 2.6784617023,
				"z": -0.3393822998,
				"element": "H" 
			},
			{
				"x": 2.1264251254,
				"y": -0.3330505488,
				"z": -0.8773271968,
				"element": "H" 
			},
			{
				"x": 3.5083013692,
				"y": 0.4877183463,
				"z": -0.1235311003,
				"element": "H" 
			},
			{
				"x": 3.0987755277,
				"y": 0.801833481,
				"z": -1.8214929327,
				"element": "H" 
			},
			{
				"x": 1.3117271629,
				"y": -1.0521498422,
				"z": 1.2826913785,
				"element": "H" 
			},
			{
				"x": 1.4425744228,
				"y": 0.2217702863,
				"z": 3.3142164018,
				"element": "H" 
			},
			{
				"x": 0.8072178314,
				"y": -1.3709159029,
				"z": 3.6517113159,
				"element": "H" 
			},
			{
				"x": -1.319833598,
				"y": -0.4529727404,
				"z": 3.9915713792,
				"element": "H" 
			},
			{
				"x": -0.900693765,
				"y": 0.9769064175,
				"z": 3.3615209589,
				"element": "H" 
			},
			{
				"x": -0.5988848875,
				"y": -5.1380726871,
				"z": 0.7444686677,
				"element": "H" 
			},
			{
				"x": -3.0805899912,
				"y": -4.8504411585,
				"z": 1.0323595847,
				"element": "H" 
			},
			{
				"x": -3.9858499285,
				"y": -2.5714610354,
				"z": 1.5795882645,
				"element": "H" 
			}
		],
		 "valence_orbital": [ 
			{
				"type": "occ",
				"energy": -0.26389,
				"method": "rhf"
			},
			{
				"type": "occ",
				"energy": -0.25322,
				"method": "rhf"
			},
			{
				"type": "occ",
				"energy": -0.24163,
				"method": "rhf"
			},
			{
				"type": "occ",
				"energy": -0.2276,
				"method": "rhf"
			},
			{
				"type": "occ",
				"energy": -0.20426,
				"method": "rhf"
			},
			{
				"type": "unocc",
				"energy": -0.02099,
				"method": "rhf"
			},
			{
				"type": "unocc",
				"energy": -0.00797,
				"method": "rhf"
			},
			{
				"type": "unocc",
				"energy": 0.06693,
				"method": "rhf"
			},
			{
				"type": "unocc",
				"energy": 0.07882,
				"method": "rhf"
			},
			{
				"type": "unocc",
				"energy": 0.10282,
				"method": "rhf"
			}
		],
		"cosmo_sigma_profile": { 
			"-0.025": 0.0,
			"-0.024": 0.0,
			"-0.023": 0.0,
			"-0.022": 0.0,
			"-0.021": 0.0,
			"-0.02": 0.0,
			"-0.019": 0.0,
			"-0.018": 0.0,
			"-0.017": 0.0,
			"-0.016": 0.0,
			"-0.015": 0.0,
			"-0.014": 0.0,
			"-0.013": 0.0,
			"-0.012": 0.0,
			"-0.011": 0.0,
			"-0.01": 0.0,
			"-0.009": 0.111527329522,
			"-0.008": 1.3104770628,
			"-0.007": 6.59687671627,
			"-0.006": 9.07618936209,
			"-0.005": 11.3867269025,
			"-0.004": 20.6497136313,
			"-0.003": 40.6280702946,
			"-0.002": 38.3267368457,
			"-0.001": 33.6784998815,
			"0.0": 30.0318612162,
			"0.001": 27.3998224496,
			"0.002": 17.5532452758,
			"0.003": 16.1544666871,
			"0.004": 19.9233391299,
			"0.005": 5.187162128,
			"0.006": 3.19737456248,
			"0.007": 2.65839706257,
			"0.008": 2.44438352967,
			"0.009": 3.76644939018,
			"0.01": 1.71689727939,
			"0.011": 1.72760828726,
			"0.012": 2.4271491291,
			"0.013": 1.65363593548,
			"0.014": 1.39174142512,
			"0.015": 0.884713933291,
			"0.016": 0.659805415318,
			"0.017": 0.726403404774,
			"0.018": 0.558360409541,
			"0.019": 0.764796743682,
			"0.02": 0.262914796446,
			"0.021": 0.0,
			"0.022": 0.0,
			"0.023": 0.0,
			"0.024": 0.0,
			"0.025": 0.0
		}
	}
}
