{
	 "smiles": "OC(=O)C1=NNC=C1[N+]([O-])=O", 
	 "Tm": 497.15, 
	 "num_atms": 14, 
	 "gaussian": { 
		 "optdone": 1, 
		 "sigma_profile": "yes", 
		 "theory": "DFT", 
		 "functional": "B3LYP", 
		 "basiset": "6-31G**", 
		 "properties": { 
			 "R2extent": 1848.3765, 
			 "electric_dipole_moment_norm": 8.36516302352, 
			 "electric_quadrupole_moment_norm": 11.3331855129, 
			 "total_energy": -619.251020788, 
			 "HOMO_LUMO_gap": 0.18528, 
			 "cosmo_polarized_energy": -24.58, 
			 "cosmo_cavitation_energy": 20.38, 
			 "cosmo_dispersion_energy": -15.28, 
			 "cosmo_repulsion_energy": 1.25, 
			 "cosmo_total_nonelectrostatic_energy": 6.34, 
			 "SMD_solvation_energy": 6.77 
		},
		"coords": [
			{
				"x": -1.3235058743,
				"y": 2.6905974366,
				"z": -2.525610367,
				"element": "O" 
			},
			{
				"x": -0.3480534652,
				"y": 1.9125493488,
				"z": -2.0095249373,
				"element": "C" 
			},
			{
				"x": 0.7530745985,
				"y": 1.8553563887,
				"z": -2.4904179234,
				"element": "O" 
			},
			{
				"x": -0.793759448,
				"y": 1.1172860526,
				"z": -0.8154873854,
				"element": "C" 
			},
			{
				"x": -2.1038601941,
				"y": 1.0568723339,
				"z": -0.5704146329,
				"element": "N" 
			},
			{
				"x": -2.2408862166,
				"y": 0.2295364781,
				"z": 0.4812439847,
				"element": "N" 
			},
			{
				"x": -1.0671864125,
				"y": -0.2641294279,
				"z": 0.9260910321,
				"element": "C" 
			},
			{
				"x": -0.0987101727,
				"y": 0.29427088,
				"z": 0.1127011806,
				"element": "C" 
			},
			{
				"x": 1.3127220964,
				"y": 0.0623828905,
				"z": 0.3240448305,
				"element": "N" 
			},
			{
				"x": 1.596518603,
				"y": -0.9202090691,
				"z": 1.0176244101,
				"element": "O" 
			},
			{
				"x": 2.1103955995,
				"y": 0.8537534526,
				"z": -0.1592302685,
				"element": "O" 
			},
			{
				"x": -2.1439680995,
				"y": 2.5485887791,
				"z": -2.02228076,
				"element": "H" 
			},
			{
				"x": -3.1657807153,
				"y": 0.0387294932,
				"z": 0.8391634242,
				"element": "H" 
			},
			{
				"x": -0.9749002994,
				"y": -0.9432850373,
				"z": 1.7588974122,
				"element": "H" 
			}
		],
		 "valence_orbital": [ 
			{
				"type": "occ",
				"energy": -0.31554,
				"method": "rhf"
			},
			{
				"type": "occ",
				"energy": -0.31283,
				"method": "rhf"
			},
			{
				"type": "occ",
				"energy": -0.31148,
				"method": "rhf"
			},
			{
				"type": "occ",
				"energy": -0.29865,
				"method": "rhf"
			},
			{
				"type": "occ",
				"energy": -0.27831,
				"method": "rhf"
			},
			{
				"type": "unocc",
				"energy": -0.09303,
				"method": "rhf"
			},
			{
				"type": "unocc",
				"energy": -0.05774,
				"method": "rhf"
			},
			{
				"type": "unocc",
				"energy": 0.00259,
				"method": "rhf"
			},
			{
				"type": "unocc",
				"energy": 0.03119,
				"method": "rhf"
			},
			{
				"type": "unocc",
				"energy": 0.08156,
				"method": "rhf"
			}
		],
		"cosmo_sigma_profile": { 
			"-0.025": 0.0,
			"-0.024": 0.0,
			"-0.023": 0.0,
			"-0.022": 0.0,
			"-0.021": 0.0,
			"-0.02": 0.306770914516,
			"-0.019": 2.35883147557,
			"-0.018": 1.94931311892,
			"-0.017": 1.2375145485,
			"-0.016": 1.20727651354,
			"-0.015": 1.56532460808,
			"-0.014": 1.8455497699,
			"-0.013": 1.58767596914,
			"-0.012": 3.81152010728,
			"-0.011": 2.9464289475,
			"-0.01": 2.55998926924,
			"-0.009": 2.88027322309,
			"-0.008": 2.55792126203,
			"-0.007": 3.82859072566,
			"-0.006": 6.10195186354,
			"-0.005": 6.76107318183,
			"-0.004": 9.73943150225,
			"-0.003": 13.465700111,
			"-0.002": 7.73361738929,
			"-0.001": 5.60235788737,
			"0.0": 5.1722512285,
			"0.001": 4.70852208833,
			"0.002": 5.51710869714,
			"0.003": 4.4968366792,
			"0.004": 4.80614503289,
			"0.005": 5.64779828271,
			"0.006": 6.08838563936,
			"0.007": 9.88139500969,
			"0.008": 10.9017472729,
			"0.009": 9.53945952261,
			"0.01": 7.23955120335,
			"0.011": 5.57781715549,
			"0.012": 4.18965054535,
			"0.013": 0.357793594233,
			"0.014": 0.0,
			"0.015": 0.0,
			"0.016": 0.0,
			"0.017": 0.0,
			"0.018": 0.0,
			"0.019": 0.0,
			"0.02": 0.0,
			"0.021": 0.0,
			"0.022": 0.0,
			"0.023": 0.0,
			"0.024": 0.0,
			"0.025": 0.0
		}
	}
}
