{
	 "smiles": "FC1=CC2=C(C=C1)C(=CN2)C1CCNCC1", 
	 "Tm": 499.15, 
	 "num_atms": 31, 
	 "gaussian": { 
		 "optdone": 1, 
		 "sigma_profile": "yes", 
		 "theory": "DFT", 
		 "functional": "B3LYP", 
		 "basiset": "6-31G**", 
		 "properties": { 
			 "R2extent": 4667.1342, 
			 "electric_dipole_moment_norm": 2.64485000898, 
			 "electric_quadrupole_moment_norm": 16.3566315609, 
			 "total_energy": -713.755243881, 
			 "HOMO_LUMO_gap": 0.18848, 
			 "cosmo_polarized_energy": -11.28, 
			 "cosmo_cavitation_energy": 32.82, 
			 "cosmo_dispersion_energy": -23.86, 
			 "cosmo_repulsion_energy": 1.81, 
			 "cosmo_total_nonelectrostatic_energy": 10.78, 
			 "SMD_solvation_energy": 2.69 
		},
		"coords": [
			{
				"x": 3.1726833687,
				"y": 3.771255834,
				"z": 2.7247938395,
				"element": "F" 
			},
			{
				"x": 2.4191255606,
				"y": 2.8381925923,
				"z": 2.09675667,
				"element": "C" 
			},
			{
				"x": 1.0491350692,
				"y": 2.8549024908,
				"z": 2.2933219654,
				"element": "C" 
			},
			{
				"x": 0.3183972284,
				"y": 1.8688531357,
				"z": 1.6193390695,
				"element": "C" 
			},
			{
				"x": 0.932539656,
				"y": 0.8991425875,
				"z": 0.7776971897,
				"element": "C" 
			},
			{
				"x": 2.3289356199,
				"y": 0.9321425744,
				"z": 0.6189537627,
				"element": "C" 
			},
			{
				"x": 3.0718879638,
				"y": 1.9024385661,
				"z": 1.2794802469,
				"element": "C" 
			},
			{
				"x": -0.1147002579,
				"y": 0.0420860279,
				"z": 0.2656879794,
				"element": "C" 
			},
			{
				"x": -1.2864881558,
				"y": 0.5167199236,
				"z": 0.7992029792,
				"element": "C" 
			},
			{
				"x": -1.0332943823,
				"y": 1.6160158458,
				"z": 1.6089400123,
				"element": "N" 
			},
			{
				"x": 0.0804365615,
				"y": -1.100827032,
				"z": -0.6999281089,
				"element": "C" 
			},
			{
				"x": -1.102855125,
				"y": -2.1108241756,
				"z": -0.7421994897,
				"element": "C" 
			},
			{
				"x": -2.0445043574,
				"y": -1.8477718482,
				"z": -1.9198102734,
				"element": "C" 
			},
			{
				"x": -1.3347778059,
				"y": -2.0901787798,
				"z": -3.1861134588,
				"element": "N" 
			},
			{
				"x": 0.0789989977,
				"y": -1.6668117049,
				"z": -3.1770589512,
				"element": "C" 
			},
			{
				"x": 0.3762538959,
				"y": -0.5780490772,
				"z": -2.1385675711,
				"element": "C" 
			},
			{
				"x": 0.5930415621,
				"y": 3.5986912731,
				"z": 2.9375378775,
				"element": "H" 
			},
			{
				"x": 2.8309520919,
				"y": 0.2054395135,
				"z": -0.0131268152,
				"element": "H" 
			},
			{
				"x": 4.1503413846,
				"y": 1.958827526,
				"z": 1.1814680718,
				"element": "H" 
			},
			{
				"x": -2.2997607374,
				"y": 0.16481944,
				"z": 0.6709068685,
				"element": "H" 
			},
			{
				"x": -1.7266983482,
				"y": 2.1212970132,
				"z": 2.1350272646,
				"element": "H" 
			},
			{
				"x": 0.9693784332,
				"y": -1.6552313984,
				"z": -0.3690420613,
				"element": "H" 
			},
			{
				"x": -1.6571328758,
				"y": -2.0921669352,
				"z": 0.2011673176,
				"element": "H" 
			},
			{
				"x": -0.7097338494,
				"y": -3.1280781375,
				"z": -0.8495291583,
				"element": "H" 
			},
			{
				"x": -2.4390861435,
				"y": -0.8186694675,
				"z": -1.8367022119,
				"element": "H" 
			},
			{
				"x": -2.910638883,
				"y": -2.5197086096,
				"z": -1.8676401484,
				"element": "H" 
			},
			{
				"x": -1.8250322042,
				"y": -1.6205915627,
				"z": -3.9399137894,
				"element": "H" 
			},
			{
				"x": 0.7183317346,
				"y": -2.5385359379,
				"z": -2.9713216831,
				"element": "H" 
			},
			{
				"x": 0.3468207527,
				"y": -1.3262177057,
				"z": -4.1830180767,
				"element": "H" 
			},
			{
				"x": -0.2487576571,
				"y": 0.2998490329,
				"z": -2.3423400321,
				"element": "H" 
			},
			{
				"x": 1.4168009021,
				"y": -0.2430110046,
				"z": -2.2139692849,
				"element": "H" 
			}
		],
		 "valence_orbital": [ 
			{
				"type": "occ",
				"energy": -0.30733,
				"method": "rhf"
			},
			{
				"type": "occ",
				"energy": -0.26694,
				"method": "rhf"
			},
			{
				"type": "occ",
				"energy": -0.22059,
				"method": "rhf"
			},
			{
				"type": "occ",
				"energy": -0.20687,
				"method": "rhf"
			},
			{
				"type": "occ",
				"energy": -0.19799,
				"method": "rhf"
			},
			{
				"type": "unocc",
				"energy": -0.00951,
				"method": "rhf"
			},
			{
				"type": "unocc",
				"energy": 0.02822,
				"method": "rhf"
			},
			{
				"type": "unocc",
				"energy": 0.06748,
				"method": "rhf"
			},
			{
				"type": "unocc",
				"energy": 0.07531,
				"method": "rhf"
			},
			{
				"type": "unocc",
				"energy": 0.0796,
				"method": "rhf"
			}
		],
		"cosmo_sigma_profile": { 
			"-0.025": 0.0,
			"-0.024": 0.0,
			"-0.023": 0.0,
			"-0.022": 0.0,
			"-0.021": 0.0,
			"-0.02": 0.0,
			"-0.019": 0.0,
			"-0.018": 0.0,
			"-0.017": 0.0,
			"-0.016": 0.0751471570739,
			"-0.015": 1.57872595915,
			"-0.014": 1.38359105201,
			"-0.013": 1.63057569019,
			"-0.012": 0.977911379407,
			"-0.011": 1.24243034484,
			"-0.01": 1.55642142925,
			"-0.009": 2.54256961354,
			"-0.008": 3.30700986832,
			"-0.007": 5.7035666362,
			"-0.006": 6.41491626591,
			"-0.005": 9.56861601347,
			"-0.004": 12.0108989946,
			"-0.003": 18.0989025915,
			"-0.002": 28.8141260283,
			"-0.001": 28.9418914866,
			"0.0": 22.7314083653,
			"0.001": 16.5154677228,
			"0.002": 15.3107589209,
			"0.003": 14.8212666433,
			"0.004": 17.7649547854,
			"0.005": 26.7383000933,
			"0.006": 10.7455847315,
			"0.007": 2.17790671797,
			"0.008": 0.921740549546,
			"0.009": 0.639700195936,
			"0.01": 1.08330935278,
			"0.011": 0.345360922188,
			"0.012": 0.212572491993,
			"0.013": 0.776552067989,
			"0.014": 0.766114736882,
			"0.015": 0.44969319327,
			"0.016": 0.548668830241,
			"0.017": 0.401368745442,
			"0.018": 0.579762820518,
			"0.019": 0.471768449245,
			"0.02": 0.0,
			"0.021": 0.0,
			"0.022": 0.0,
			"0.023": 0.0,
			"0.024": 0.0,
			"0.025": 0.0
		}
	}
}
