{
	 "smiles": "CC1=C(SC(=N1)C1=CC=C2OCCC2=C1)C(O)=O", 
	 "Tm": 496.15, 
	 "num_atms": 29, 
	 "gaussian": { 
		 "optdone": 1, 
		 "sigma_profile": "yes", 
		 "theory": "DFT", 
		 "functional": "B3LYP", 
		 "basiset": "6-31G**", 
		 "properties": { 
			 "R2extent": 8386.4976, 
			 "electric_dipole_moment_norm": 4.07560383747, 
			 "electric_quadrupole_moment_norm": 5.17697505403, 
			 "total_energy": -1180.6431692, 
			 "HOMO_LUMO_gap": 0.14138, 
			 "cosmo_polarized_energy": -12.96, 
			 "cosmo_cavitation_energy": 34.91, 
			 "cosmo_dispersion_energy": -26.45, 
			 "cosmo_repulsion_energy": 1.99, 
			 "cosmo_total_nonelectrostatic_energy": 10.46, 
			 "SMD_solvation_energy": 5.57 
		},
		"coords": [
			{
				"x": 1.8529168562,
				"y": -1.666628532,
				"z": -5.4514969578,
				"element": "C" 
			},
			{
				"x": 1.4349903635,
				"y": -1.6028757275,
				"z": -4.0119918032,
				"element": "C" 
			},
			{
				"x": 1.0350273946,
				"y": -2.676878296,
				"z": -3.2328859611,
				"element": "C" 
			},
			{
				"x": 0.6406498326,
				"y": -2.1305708968,
				"z": -1.621389808,
				"element": "S" 
			},
			{
				"x": 1.0464060949,
				"y": -0.4936082299,
				"z": -2.1154881159,
				"element": "C" 
			},
			{
				"x": 1.4339649356,
				"y": -0.3971317194,
				"z": -3.3707285398,
				"element": "N" 
			},
			{
				"x": 0.9571740877,
				"y": 0.6508950652,
				"z": -1.2087528958,
				"element": "C" 
			},
			{
				"x": 1.2755336711,
				"y": 1.9330933164,
				"z": -1.7006109134,
				"element": "C" 
			},
			{
				"x": 1.2044904554,
				"y": 3.064074076,
				"z": -0.8913547751,
				"element": "C" 
			},
			{
				"x": 0.8054143199,
				"y": 2.8874070605,
				"z": 0.4317494024,
				"element": "C" 
			},
			{
				"x": 0.6910916209,
				"y": 3.890128868,
				"z": 1.3411944718,
				"element": "O" 
			},
			{
				"x": 0.0750339524,
				"y": 3.3371105703,
				"z": 2.5362987387,
				"element": "C" 
			},
			{
				"x": 0.1570787994,
				"y": 1.7949194735,
				"z": 2.4157777716,
				"element": "C" 
			},
			{
				"x": 0.4881549974,
				"y": 1.6257567505,
				"z": 0.9496062197,
				"element": "C" 
			},
			{
				"x": 0.5644194329,
				"y": 0.5071566851,
				"z": 0.1395245362,
				"element": "C" 
			},
			{
				"x": 0.9413958477,
				"y": -4.0702517808,
				"z": -3.6525736718,
				"element": "C" 
			},
			{
				"x": 0.515926958,
				"y": -4.8890301131,
				"z": -2.6527342907,
				"element": "O" 
			},
			{
				"x": 1.2066456359,
				"y": -4.4883304452,
				"z": -4.7661715663,
				"element": "O" 
			},
			{
				"x": 1.0521727931,
				"y": -2.0733176871,
				"z": -6.0757144092,
				"element": "H" 
			},
			{
				"x": 2.1119546284,
				"y": -0.6635832295,
				"z": -5.794010039,
				"element": "H" 
			},
			{
				"x": 2.7101363288,
				"y": -2.3330809285,
				"z": -5.5828459982,
				"element": "H" 
			},
			{
				"x": 1.5758434163,
				"y": 2.0206646115,
				"z": -2.7385414608,
				"element": "H" 
			},
			{
				"x": 1.4449516107,
				"y": 4.0506672244,
				"z": -1.2715857464,
				"element": "H" 
			},
			{
				"x": 0.60925895,
				"y": 3.7418723841,
				"z": 3.3982215916,
				"element": "H" 
			},
			{
				"x": -0.9631006704,
				"y": 3.6868845479,
				"z": 2.5667685881,
				"element": "H" 
			},
			{
				"x": -0.7816312918,
				"y": 1.3149732026,
				"z": 2.7085659661,
				"element": "H" 
			},
			{
				"x": 0.9495137561,
				"y": 1.3810604192,
				"z": 3.0512455719,
				"element": "H" 
			},
			{
				"x": 0.3248885229,
				"y": -0.4738790149,
				"z": 0.5415882048,
				"element": "H" 
			},
			{
				"x": 0.4892966999,
				"y": -5.7815976548,
				"z": -3.0344641104,
				"element": "H" 
			}
		],
		 "valence_orbital": [ 
			{
				"type": "occ",
				"energy": -0.27504,
				"method": "rhf"
			},
			{
				"type": "occ",
				"energy": -0.27358,
				"method": "rhf"
			},
			{
				"type": "occ",
				"energy": -0.26324,
				"method": "rhf"
			},
			{
				"type": "occ",
				"energy": -0.25424,
				"method": "rhf"
			},
			{
				"type": "occ",
				"energy": -0.20865,
				"method": "rhf"
			},
			{
				"type": "unocc",
				"energy": -0.06727,
				"method": "rhf"
			},
			{
				"type": "unocc",
				"energy": -0.01501,
				"method": "rhf"
			},
			{
				"type": "unocc",
				"energy": -0.00444,
				"method": "rhf"
			},
			{
				"type": "unocc",
				"energy": 0.0194,
				"method": "rhf"
			},
			{
				"type": "unocc",
				"energy": 0.0531,
				"method": "rhf"
			}
		],
		"cosmo_sigma_profile": { 
			"-0.025": 0.0,
			"-0.024": 0.0,
			"-0.023": 0.0,
			"-0.022": 0.0,
			"-0.021": 0.0,
			"-0.02": 0.0,
			"-0.019": 0.0624611003678,
			"-0.018": 0.969355354216,
			"-0.017": 0.82014965971,
			"-0.016": 0.73877392291,
			"-0.015": 0.651533668927,
			"-0.014": 0.548988277746,
			"-0.013": 0.622139139373,
			"-0.012": 1.23864648866,
			"-0.011": 0.850748738338,
			"-0.01": 0.419904774982,
			"-0.009": 0.46146314895,
			"-0.008": 0.92846935216,
			"-0.007": 4.19987468085,
			"-0.006": 10.813204347,
			"-0.005": 21.3258576104,
			"-0.004": 22.5379899925,
			"-0.003": 20.1069733706,
			"-0.002": 22.0982591335,
			"-0.001": 22.4958321891,
			"0.0": 25.5881638682,
			"0.001": 21.8827631029,
			"0.002": 23.470899218,
			"0.003": 22.0437504894,
			"0.004": 14.2817683427,
			"0.005": 7.83900097573,
			"0.006": 5.86441508746,
			"0.007": 5.48233477521,
			"0.008": 5.41588548053,
			"0.009": 4.14723739054,
			"0.01": 4.91115132565,
			"0.011": 4.25110370758,
			"0.012": 3.64644293424,
			"0.013": 0.16597782055,
			"0.014": 0.0,
			"0.015": 0.0,
			"0.016": 0.0,
			"0.017": 0.0,
			"0.018": 0.0,
			"0.019": 0.0,
			"0.02": 0.0,
			"0.021": 0.0,
			"0.022": 0.0,
			"0.023": 0.0,
			"0.024": 0.0,
			"0.025": 0.0
		}
	}
}
