{
	 "smiles": "CC1(NC(=O)NC1=O)C1=C(Br)C=CC=C1", 
	 "Tm": 493.15, 
	 "num_atms": 24, 
	 "gaussian": { 
		 "optdone": 1, 
		 "sigma_profile": "yes", 
		 "theory": "DFT", 
		 "functional": "B3LYP", 
		 "basiset": "6-31G**", 
		 "properties": { 
			 "R2extent": 3894.6503, 
			 "electric_dipole_moment_norm": 2.9231660336, 
			 "electric_quadrupole_moment_norm": 14.9381043787, 
			 "total_energy": -3217.88212597, 
			 "HOMO_LUMO_gap": 0.22512, 
			 "cosmo_polarized_energy": -13.71, 
			 "cosmo_cavitation_energy": 29.52, 
			 "cosmo_dispersion_energy": -21.81, 
			 "cosmo_repulsion_energy": 1.69, 
			 "cosmo_total_nonelectrostatic_energy": 9.41, 
			 "SMD_solvation_energy": 5.26 
		},
		"coords": [
			{
				"x": -0.2308906817,
				"y": -0.4357523369,
				"z": 2.2637739807,
				"element": "C" 
			},
			{
				"x": 0.3893671253,
				"y": 0.6462870752,
				"z": 1.3547347395,
				"element": "C" 
			},
			{
				"x": -0.4556873507,
				"y": 1.8344233336,
				"z": 1.2188544869,
				"element": "N" 
			},
			{
				"x": 0.1133986413,
				"y": 2.9933143504,
				"z": 1.6662895715,
				"element": "C" 
			},
			{
				"x": -0.3262528976,
				"y": 4.1231883551,
				"z": 1.6371307555,
				"element": "O" 
			},
			{
				"x": 1.3598968269,
				"y": 2.6059284036,
				"z": 2.2120248611,
				"element": "N" 
			},
			{
				"x": 1.5998459571,
				"y": 1.2600851559,
				"z": 2.1203098122,
				"element": "C" 
			},
			{
				"x": 2.5499229777,
				"y": 0.6562263112,
				"z": 2.5789680568,
				"element": "O" 
			},
			{
				"x": 0.8027713719,
				"y": 0.0502056055,
				"z": -0.0103567204,
				"element": "C" 
			},
			{
				"x": -0.1201848476,
				"y": -0.2962114594,
				"z": -1.0140861412,
				"element": "C" 
			},
			{
				"x": -2.0292126822,
				"y": -0.0851237599,
				"z": -0.8067743265,
				"element": "Br" 
			},
			{
				"x": 0.2766204161,
				"y": -0.8358894822,
				"z": -2.2370826681,
				"element": "C" 
			},
			{
				"x": 1.6273928398,
				"y": -1.0614722395,
				"z": -2.4916125736,
				"element": "C" 
			},
			{
				"x": 2.5658807668,
				"y": -0.751359493,
				"z": -1.5115483628,
				"element": "C" 
			},
			{
				"x": 2.1543153543,
				"y": -0.2084530408,
				"z": -0.2955165331,
				"element": "C" 
			},
			{
				"x": 0.5224118358,
				"y": -1.1982711561,
				"z": 2.4756720402,
				"element": "H" 
			},
			{
				"x": -1.0904869023,
				"y": -0.9034940576,
				"z": 1.7811681184,
				"element": "H" 
			},
			{
				"x": -0.5575625357,
				"y": 0.0103565648,
				"z": 3.2075456993,
				"element": "H" 
			},
			{
				"x": -1.3201272718,
				"y": 1.8498814485,
				"z": 0.7004060816,
				"element": "H" 
			},
			{
				"x": 1.9659791891,
				"y": 3.2566734095,
				"z": 2.6907111309,
				"element": "H" 
			},
			{
				"x": -0.4742237237,
				"y": -1.0785701,
				"z": -2.9800472037,
				"element": "H" 
			},
			{
				"x": 1.9330399753,
				"y": -1.4811930495,
				"z": -3.4450219389,
				"element": "H" 
			},
			{
				"x": 3.6225319543,
				"y": -0.9294108127,
				"z": -1.6855393606,
				"element": "H" 
			},
			{
				"x": 2.8966536617,
				"y": 0.0048309745,
				"z": 0.4632964944,
				"element": "H" 
			}
		],
		 "valence_orbital": [ 
			{
				"type": "occ",
				"energy": -0.29109,
				"method": "rhf"
			},
			{
				"type": "occ",
				"energy": -0.27675,
				"method": "rhf"
			},
			{
				"type": "occ",
				"energy": -0.26666,
				"method": "rhf"
			},
			{
				"type": "occ",
				"energy": -0.26228,
				"method": "rhf"
			},
			{
				"type": "occ",
				"energy": -0.25756,
				"method": "rhf"
			},
			{
				"type": "unocc",
				"energy": -0.03244,
				"method": "rhf"
			},
			{
				"type": "unocc",
				"energy": -0.02489,
				"method": "rhf"
			},
			{
				"type": "unocc",
				"energy": -0.01646,
				"method": "rhf"
			},
			{
				"type": "unocc",
				"energy": -0.00948,
				"method": "rhf"
			},
			{
				"type": "unocc",
				"energy": 0.06156,
				"method": "rhf"
			}
		],
		"cosmo_sigma_profile": { 
			"-0.025": 0.0,
			"-0.024": 0.0,
			"-0.023": 0.0,
			"-0.022": 0.0,
			"-0.021": 0.0,
			"-0.02": 0.0,
			"-0.019": 0.0,
			"-0.018": 0.0,
			"-0.017": 0.623912049781,
			"-0.016": 1.26900911027,
			"-0.015": 1.63561684467,
			"-0.014": 0.556326226911,
			"-0.013": 0.733046027714,
			"-0.012": 0.876728031876,
			"-0.011": 1.89673389005,
			"-0.01": 1.0111067249,
			"-0.009": 1.50399972694,
			"-0.008": 2.36879878966,
			"-0.007": 6.5662947676,
			"-0.006": 10.1467110941,
			"-0.005": 14.2942869241,
			"-0.004": 16.1816929987,
			"-0.003": 18.6830130823,
			"-0.002": 21.1780852644,
			"-0.001": 21.9461809163,
			"0.0": 17.8840198614,
			"0.001": 17.0757197086,
			"0.002": 17.9172319501,
			"0.003": 18.6742523762,
			"0.004": 10.8581895201,
			"0.005": 1.98667039774,
			"0.006": 2.07570476866,
			"0.007": 2.7524994761,
			"0.008": 2.27022556424,
			"0.009": 3.17647212473,
			"0.01": 2.9641252664,
			"0.011": 6.02087944071,
			"0.012": 7.78923052174,
			"0.013": 5.45221873109,
			"0.014": 0.470996239913,
			"0.015": 0.0,
			"0.016": 0.0,
			"0.017": 0.0,
			"0.018": 0.0,
			"0.019": 0.0,
			"0.02": 0.0,
			"0.021": 0.0,
			"0.022": 0.0,
			"0.023": 0.0,
			"0.024": 0.0,
			"0.025": 0.0
		}
	}
}
