{
	 "smiles": "CCCCC1=NC2=C(N1)C=CC=C2", 
	 "Tm": 423.15, 
	 "num_atms": 27, 
	 "gaussian": { 
		 "optdone": 1, 
		 "sigma_profile": "yes", 
		 "theory": "DFT", 
		 "functional": "B3LYP", 
		 "basiset": "6-31G**", 
		 "properties": { 
			 "R2extent": 3020.6587, 
			 "electric_dipole_moment_norm": 3.19648074451, 
			 "electric_quadrupole_moment_norm": 7.03787501523, 
			 "total_energy": -537.139701959, 
			 "HOMO_LUMO_gap": 0.20642, 
			 "cosmo_polarized_energy": -12.36, 
			 "cosmo_cavitation_energy": 29.38, 
			 "cosmo_dispersion_energy": -21.25, 
			 "cosmo_repulsion_energy": 1.71, 
			 "cosmo_total_nonelectrostatic_energy": 9.83, 
			 "SMD_solvation_energy": 2.72 
		},
		"coords": [
			{
				"x": 2.0711805246,
				"y": 1.974080958,
				"z": -1.2187602556,
				"element": "C" 
			},
			{
				"x": 2.6781153896,
				"y": 1.3720670877,
				"z": -2.4917410642,
				"element": "C" 
			},
			{
				"x": 1.8194298189,
				"y": 0.3097235061,
				"z": -3.1981292838,
				"element": "C" 
			},
			{
				"x": 1.5560647171,
				"y": -0.9721043852,
				"z": -2.3822598828,
				"element": "C" 
			},
			{
				"x": 0.4334593421,
				"y": -0.8519856456,
				"z": -1.3915808707,
				"element": "C" 
			},
			{
				"x": -0.6989594626,
				"y": -0.2215692709,
				"z": -1.5941384912,
				"element": "N" 
			},
			{
				"x": -1.4428305301,
				"y": -0.419127336,
				"z": -0.437994548,
				"element": "C" 
			},
			{
				"x": -0.7150347996,
				"y": -1.2048782098,
				"z": 0.48880113,
				"element": "C" 
			},
			{
				"x": 0.4843724618,
				"y": -1.4658977872,
				"z": -0.1538593871,
				"element": "N" 
			},
			{
				"x": -1.2231705601,
				"y": -1.5573816941,
				"z": 1.7396679155,
				"element": "C" 
			},
			{
				"x": -2.5022413274,
				"y": -1.0978326006,
				"z": 2.0484875085,
				"element": "C" 
			},
			{
				"x": -3.2418632837,
				"y": -0.315515266,
				"z": 1.1396655345,
				"element": "C" 
			},
			{
				"x": -2.7261221864,
				"y": 0.0320135859,
				"z": -0.1057430297,
				"element": "C" 
			},
			{
				"x": 1.0749479724,
				"y": 2.3846685567,
				"z": -1.410337321,
				"element": "H" 
			},
			{
				"x": 1.9673269463,
				"y": 1.2301786824,
				"z": -0.4223250025,
				"element": "H" 
			},
			{
				"x": 2.7041067299,
				"y": 2.780301398,
				"z": -0.8325002623,
				"element": "H" 
			},
			{
				"x": 3.6619489271,
				"y": 0.9399080014,
				"z": -2.2581775598,
				"element": "H" 
			},
			{
				"x": 2.8702684422,
				"y": 2.1798786127,
				"z": -3.2096260408,
				"element": "H" 
			},
			{
				"x": 0.8513161909,
				"y": 0.7359980228,
				"z": -3.4824708205,
				"element": "H" 
			},
			{
				"x": 2.3253973862,
				"y": 0.0207959814,
				"z": -4.1270839558,
				"element": "H" 
			},
			{
				"x": 1.3032151233,
				"y": -1.786463214,
				"z": -3.074757961,
				"element": "H" 
			},
			{
				"x": 2.4712344667,
				"y": -1.2881982133,
				"z": -1.8634345723,
				"element": "H" 
			},
			{
				"x": 1.2585734729,
				"y": -1.999708438,
				"z": 0.2091631807,
				"element": "H" 
			},
			{
				"x": -0.6556443637,
				"y": -2.1602249393,
				"z": 2.4426581514,
				"element": "H" 
			},
			{
				"x": -2.9377345856,
				"y": -1.3489225683,
				"z": 3.0111920656,
				"element": "H" 
			},
			{
				"x": -4.2353942425,
				"y": 0.0214524721,
				"z": 1.4206017123,
				"element": "H" 
			},
			{
				"x": -3.2919625701,
				"y": 0.6341427027,
				"z": -0.8094168896,
				"element": "H" 
			}
		],
		 "valence_orbital": [ 
			{
				"type": "occ",
				"energy": -0.31805,
				"method": "rhf"
			},
			{
				"type": "occ",
				"energy": -0.29644,
				"method": "rhf"
			},
			{
				"type": "occ",
				"energy": -0.26298,
				"method": "rhf"
			},
			{
				"type": "occ",
				"energy": -0.2219,
				"method": "rhf"
			},
			{
				"type": "occ",
				"energy": -0.21496,
				"method": "rhf"
			},
			{
				"type": "unocc",
				"energy": -0.00854,
				"method": "rhf"
			},
			{
				"type": "unocc",
				"energy": 0.02762,
				"method": "rhf"
			},
			{
				"type": "unocc",
				"energy": 0.05787,
				"method": "rhf"
			},
			{
				"type": "unocc",
				"energy": 0.07068,
				"method": "rhf"
			},
			{
				"type": "unocc",
				"energy": 0.09767,
				"method": "rhf"
			}
		],
		"cosmo_sigma_profile": { 
			"-0.025": 0.0,
			"-0.024": 0.0,
			"-0.023": 0.0,
			"-0.022": 0.0,
			"-0.021": 0.0,
			"-0.02": 0.0,
			"-0.019": 0.0,
			"-0.018": 0.0,
			"-0.017": 0.0,
			"-0.016": 0.899945053312,
			"-0.015": 1.62906138698,
			"-0.014": 1.0319123593,
			"-0.013": 1.22182269567,
			"-0.012": 1.5408431762,
			"-0.011": 1.41654221094,
			"-0.01": 1.50270711664,
			"-0.009": 1.19766217781,
			"-0.008": 0.976752719193,
			"-0.007": 2.34688576765,
			"-0.006": 5.12430712826,
			"-0.005": 10.5360161972,
			"-0.004": 11.4955101696,
			"-0.003": 19.7988086666,
			"-0.002": 24.4722309362,
			"-0.001": 23.5847080839,
			"0.0": 25.9136846912,
			"0.001": 23.0467039271,
			"0.002": 14.0455687732,
			"0.003": 9.74587788097,
			"0.004": 9.98696700901,
			"0.005": 12.1460845023,
			"0.006": 11.1118420447,
			"0.007": 5.77401495418,
			"0.008": 1.74969373904,
			"0.009": 1.62888556437,
			"0.01": 0.757749530279,
			"0.011": 1.67011487558,
			"0.012": 0.823534526848,
			"0.013": 0.688251459276,
			"0.014": 0.872710532022,
			"0.015": 1.04737760944,
			"0.016": 0.840029526883,
			"0.017": 0.58948442749,
			"0.018": 0.094868367677,
			"0.019": 0.0,
			"0.02": 0.0,
			"0.021": 0.0,
			"0.022": 0.0,
			"0.023": 0.0,
			"0.024": 0.0,
			"0.025": 0.0
		}
	}
}
