{
	 "smiles": "O=C(CCC1=CC=CC=C1)NNC1=CC=CC=C1", 
	 "Tm": 390.15, 
	 "num_atms": 34, 
	 "gaussian": { 
		 "optdone": 1, 
		 "sigma_profile": "yes", 
		 "theory": "DFT", 
		 "functional": "B3LYP", 
		 "basiset": "6-31G**", 
		 "properties": { 
			 "R2extent": 5480.5508, 
			 "electric_dipole_moment_norm": 3.56907734996, 
			 "electric_quadrupole_moment_norm": 13.0173357255, 
			 "total_energy": -765.953391063, 
			 "HOMO_LUMO_gap": 0.21146, 
			 "cosmo_polarized_energy": -15.15, 
			 "cosmo_cavitation_energy": 37.38, 
			 "cosmo_dispersion_energy": -25.44, 
			 "cosmo_repulsion_energy": 1.98, 
			 "cosmo_total_nonelectrostatic_energy": 13.92, 
			 "SMD_solvation_energy": 7.06 
		},
		"coords": [
			{
				"x": 1.4365445468,
				"y": 3.2415797309,
				"z": -1.0352837805,
				"element": "O" 
			},
			{
				"x": 1.6269104365,
				"y": 2.044796252,
				"z": -0.8684749099,
				"element": "C" 
			},
			{
				"x": 2.6103930879,
				"y": 1.4861838846,
				"z": 0.1505213603,
				"element": "C" 
			},
			{
				"x": 1.9794958559,
				"y": 0.8127685305,
				"z": 1.3866759048,
				"element": "C" 
			},
			{
				"x": 1.0842106725,
				"y": 1.6609077564,
				"z": 2.2773642304,
				"element": "C" 
			},
			{
				"x": 1.0069308918,
				"y": 3.0571501393,
				"z": 2.1940152838,
				"element": "C" 
			},
			{
				"x": 0.1956630638,
				"y": 3.7789357797,
				"z": 3.0752102485,
				"element": "C" 
			},
			{
				"x": -0.5494565329,
				"y": 3.1221045292,
				"z": 4.0528854559,
				"element": "C" 
			},
			{
				"x": -0.4855210768,
				"y": 1.7289783287,
				"z": 4.1416120034,
				"element": "C" 
			},
			{
				"x": 0.3205631338,
				"y": 1.0107834059,
				"z": 3.261021204,
				"element": "C" 
			},
			{
				"x": 0.9313975366,
				"y": 1.1402017477,
				"z": -1.6459416561,
				"element": "N" 
			},
			{
				"x": 1.1156043028,
				"y": -0.232958718,
				"z": -1.6109291432,
				"element": "N" 
			},
			{
				"x": 0.0067170989,
				"y": -1.0452501516,
				"z": -1.2721420626,
				"element": "C" 
			},
			{
				"x": -0.0074299248,
				"y": -2.380356266,
				"z": -1.7040801064,
				"element": "C" 
			},
			{
				"x": -1.0561329162,
				"y": -3.2217825191,
				"z": -1.3416630912,
				"element": "C" 
			},
			{
				"x": -2.1066885876,
				"y": -2.7470487952,
				"z": -0.5522229185,
				"element": "C" 
			},
			{
				"x": -2.0907443555,
				"y": -1.4180188869,
				"z": -0.1277913047,
				"element": "C" 
			},
			{
				"x": -1.0445878765,
				"y": -0.5640639332,
				"z": -0.4804433581,
				"element": "C" 
			},
			{
				"x": 3.2400615488,
				"y": 2.3286304576,
				"z": 0.4463630892,
				"element": "H" 
			},
			{
				"x": 3.2503017198,
				"y": 0.7452419668,
				"z": -0.3391648961,
				"element": "H" 
			},
			{
				"x": 2.8099215347,
				"y": 0.430157372,
				"z": 1.996174145,
				"element": "H" 
			},
			{
				"x": 1.4225389216,
				"y": -0.0731675766,
				"z": 1.0652717911,
				"element": "H" 
			},
			{
				"x": 1.5526517068,
				"y": 3.5900517941,
				"z": 1.4233971159,
				"element": "H" 
			},
			{
				"x": 0.1464158181,
				"y": 4.8609183444,
				"z": 2.988516117,
				"element": "H" 
			},
			{
				"x": -1.1786199606,
				"y": 3.6863749222,
				"z": 4.7355029222,
				"element": "H" 
			},
			{
				"x": -1.0656766873,
				"y": 1.2023193343,
				"z": 4.8946157086,
				"element": "H" 
			},
			{
				"x": 0.3629214758,
				"y": -0.0738616086,
				"z": 3.3352186933,
				"element": "H" 
			},
			{
				"x": 0.2654417003,
				"y": 1.54498561,
				"z": -2.2996316038,
				"element": "H" 
			},
			{
				"x": 1.6214540135,
				"y": -0.573437993,
				"z": -2.4227619658,
				"element": "H" 
			},
			{
				"x": 0.8060991321,
				"y": -2.7561613558,
				"z": -2.3208316634,
				"element": "H" 
			},
			{
				"x": -1.0538130075,
				"y": -4.2525618779,
				"z": -1.6846680615,
				"element": "H" 
			},
			{
				"x": -2.9252262328,
				"y": -3.4037125934,
				"z": -0.2748012963,
				"element": "H" 
			},
			{
				"x": -2.8999159753,
				"y": -1.0333114102,
				"z": 0.4864592184,
				"element": "H" 
			},
			{
				"x": -1.0377250652,
				"y": 0.4657237991,
				"z": -0.1411926738,
				"element": "H" 
			}
		],
		 "valence_orbital": [ 
			{
				"type": "occ",
				"energy": -0.2553,
				"method": "rhf"
			},
			{
				"type": "occ",
				"energy": -0.25168,
				"method": "rhf"
			},
			{
				"type": "occ",
				"energy": -0.23887,
				"method": "rhf"
			},
			{
				"type": "occ",
				"energy": -0.23133,
				"method": "rhf"
			},
			{
				"type": "occ",
				"energy": -0.21902,
				"method": "rhf"
			},
			{
				"type": "unocc",
				"energy": -0.00756,
				"method": "rhf"
			},
			{
				"type": "unocc",
				"energy": 0.00294,
				"method": "rhf"
			},
			{
				"type": "unocc",
				"energy": 0.0059,
				"method": "rhf"
			},
			{
				"type": "unocc",
				"energy": 0.01158,
				"method": "rhf"
			},
			{
				"type": "unocc",
				"energy": 0.02245,
				"method": "rhf"
			}
		],
		"cosmo_sigma_profile": { 
			"-0.025": 0.0,
			"-0.024": 0.0,
			"-0.023": 0.0,
			"-0.022": 0.0,
			"-0.021": 0.0,
			"-0.02": 0.0,
			"-0.019": 0.0,
			"-0.018": 0.0,
			"-0.017": 0.0,
			"-0.016": 0.0,
			"-0.015": 0.0,
			"-0.014": 0.838592062314,
			"-0.013": 2.44935322747,
			"-0.012": 2.40809923773,
			"-0.011": 2.55454647521,
			"-0.01": 2.33106081477,
			"-0.009": 2.70568159649,
			"-0.008": 2.102295674,
			"-0.007": 3.49397822539,
			"-0.006": 5.90167509005,
			"-0.005": 20.326539946,
			"-0.004": 27.7140288617,
			"-0.003": 32.7306843582,
			"-0.002": 26.0405582827,
			"-0.001": 21.4250175853,
			"0.0": 17.6828306909,
			"0.001": 16.3270477042,
			"0.002": 15.4154575954,
			"0.003": 17.129972715,
			"0.004": 17.1360525413,
			"0.005": 17.4565870913,
			"0.006": 18.5741734041,
			"0.007": 8.31757303521,
			"0.008": 1.44978602736,
			"0.009": 1.40241770472,
			"0.01": 2.02904681963,
			"0.011": 0.89326195555,
			"0.012": 2.0870569772,
			"0.013": 4.36894116391,
			"0.014": 3.29491254226,
			"0.015": 0.129177784451,
			"0.016": 0.0,
			"0.017": 0.0,
			"0.018": 0.0,
			"0.019": 0.0,
			"0.02": 0.0,
			"0.021": 0.0,
			"0.022": 0.0,
			"0.023": 0.0,
			"0.024": 0.0,
			"0.025": 0.0
		}
	}
}
