{
	 "smiles": "NC1=C(CC2=CC=C3OCOC3=C2)C(N)=NN1", 
	 "Tm": 443.15, 
	 "num_atms": 29, 
	 "gaussian": { 
		 "optdone": 1, 
		 "sigma_profile": "yes", 
		 "theory": "DFT", 
		 "functional": "B3LYP", 
		 "basiset": "6-31G**", 
		 "properties": { 
			 "R2extent": 5224.5981, 
			 "electric_dipole_moment_norm": 3.36029671458, 
			 "electric_quadrupole_moment_norm": 8.02770013827, 
			 "total_energy": -795.810425297, 
			 "HOMO_LUMO_gap": 0.18231, 
			 "cosmo_polarized_energy": -20.04, 
			 "cosmo_cavitation_energy": 33.03, 
			 "cosmo_dispersion_energy": -23.98, 
			 "cosmo_repulsion_energy": 1.89, 
			 "cosmo_total_nonelectrostatic_energy": 10.94, 
			 "SMD_solvation_energy": 4.71 
		},
		"coords": [
			{
				"x": 0.8362394004,
				"y": 2.0381873226,
				"z": -0.3686889666,
				"element": "N" 
			},
			{
				"x": -0.4750237641,
				"y": 1.5781488601,
				"z": -0.2424657301,
				"element": "C" 
			},
			{
				"x": -1.1504076163,
				"y": 0.5663373665,
				"z": -0.9157986125,
				"element": "C" 
			},
			{
				"x": -0.607047085,
				"y": -0.3575239617,
				"z": -1.9727640634,
				"element": "C" 
			},
			{
				"x": 0.6906660175,
				"y": -1.0653729209,
				"z": -1.6012594587,
				"element": "C" 
			},
			{
				"x": 1.8068965276,
				"y": -0.9932096674,
				"z": -2.4409619756,
				"element": "C" 
			},
			{
				"x": 3.0162738479,
				"y": -1.6562851821,
				"z": -2.1455019991,
				"element": "C" 
			},
			{
				"x": 3.0519768251,
				"y": -2.3921995541,
				"z": -0.9806151769,
				"element": "C" 
			},
			{
				"x": 4.0983510981,
				"y": -3.1056542447,
				"z": -0.4431421583,
				"element": "O" 
			},
			{
				"x": 3.5522138317,
				"y": -3.7936786838,
				"z": 0.6873296439,
				"element": "C" 
			},
			{
				"x": 2.2637019711,
				"y": -3.2347330296,
				"z": 0.9658497869,
				"element": "O" 
			},
			{
				"x": 1.9470985667,
				"y": -2.4684097659,
				"z": -0.1315893604,
				"element": "C" 
			},
			{
				"x": 0.7636183669,
				"y": -1.8175162054,
				"z": -0.404931239,
				"element": "C" 
			},
			{
				"x": -2.4793010359,
				"y": 0.6528875115,
				"z": -0.4044647538,
				"element": "C" 
			},
			{
				"x": -3.5774204215,
				"y": -0.1171166434,
				"z": -0.8133879325,
				"element": "N" 
			},
			{
				"x": -2.6247853414,
				"y": 1.6083439146,
				"z": 0.5053126966,
				"element": "N" 
			},
			{
				"x": -1.3688184169,
				"y": 2.1636473874,
				"z": 0.5940657934,
				"element": "N" 
			},
			{
				"x": 1.2666671806,
				"y": 2.2761869597,
				"z": 0.5184621427,
				"element": "H" 
			},
			{
				"x": 1.4184437947,
				"y": 1.3682622888,
				"z": -0.859119013,
				"element": "H" 
			},
			{
				"x": -1.3729398615,
				"y": -1.1095519569,
				"z": -2.2032146637,
				"element": "H" 
			},
			{
				"x": -0.4470630241,
				"y": 0.1823251492,
				"z": -2.9161394323,
				"element": "H" 
			},
			{
				"x": 1.7379397275,
				"y": -0.4174896368,
				"z": -3.3598804037,
				"element": "H" 
			},
			{
				"x": 3.8775239598,
				"y": -1.5911041144,
				"z": -2.8008803074,
				"element": "H" 
			},
			{
				"x": 3.4454903474,
				"y": -4.8626989537,
				"z": 0.4512209922,
				"element": "H" 
			},
			{
				"x": 4.2065523422,
				"y": -3.6503579462,
				"z": 1.5524467555,
				"element": "H" 
			},
			{
				"x": -0.0784146755,
				"y": -1.8681833147,
				"z": 0.276855817,
				"element": "H" 
			},
			{
				"x": -4.376253816,
				"y": 0.0644796947,
				"z": -0.2152656942,
				"element": "H" 
			},
			{
				"x": -3.3805333304,
				"y": -1.1117341066,
				"z": -0.8272928541,
				"element": "H" 
			},
			{
				"x": -1.2514454167,
				"y": 3.0238134328,
				"z": 1.1037201672,
				"element": "H" 
			}
		],
		 "valence_orbital": [ 
			{
				"type": "occ",
				"energy": -0.26877,
				"method": "rhf"
			},
			{
				"type": "occ",
				"energy": -0.24771,
				"method": "rhf"
			},
			{
				"type": "occ",
				"energy": -0.20988,
				"method": "rhf"
			},
			{
				"type": "occ",
				"energy": -0.19911,
				"method": "rhf"
			},
			{
				"type": "occ",
				"energy": -0.18804,
				"method": "rhf"
			},
			{
				"type": "unocc",
				"energy": -0.00573,
				"method": "rhf"
			},
			{
				"type": "unocc",
				"energy": 0.00888,
				"method": "rhf"
			},
			{
				"type": "unocc",
				"energy": 0.047,
				"method": "rhf"
			},
			{
				"type": "unocc",
				"energy": 0.0748,
				"method": "rhf"
			},
			{
				"type": "unocc",
				"energy": 0.08067,
				"method": "rhf"
			}
		],
		"cosmo_sigma_profile": { 
			"-0.025": 0.0,
			"-0.024": 0.0,
			"-0.023": 0.0,
			"-0.022": 0.0,
			"-0.021": 0.0,
			"-0.02": 0.0,
			"-0.019": 0.0,
			"-0.018": 0.0,
			"-0.017": 0.0,
			"-0.016": 0.11089883892,
			"-0.015": 1.45041666233,
			"-0.014": 1.20288973094,
			"-0.013": 2.87285552532,
			"-0.012": 3.58587773789,
			"-0.011": 4.32837870874,
			"-0.01": 4.23987477706,
			"-0.009": 4.68626399651,
			"-0.008": 7.93665100498,
			"-0.007": 12.1110927189,
			"-0.006": 13.540508855,
			"-0.005": 16.3931225614,
			"-0.004": 16.6628796332,
			"-0.003": 14.2733469681,
			"-0.002": 12.0371844899,
			"-0.001": 13.2315500699,
			"0.0": 12.7677573611,
			"0.001": 12.1894089586,
			"0.002": 14.1702229568,
			"0.003": 18.0475257897,
			"0.004": 12.7025021804,
			"0.005": 11.0500805897,
			"0.006": 8.74818640828,
			"0.007": 8.53346498331,
			"0.008": 6.04044100016,
			"0.009": 6.62233553915,
			"0.01": 5.55497886309,
			"0.011": 2.90221302984,
			"0.012": 3.30508465873,
			"0.013": 2.28856293415,
			"0.014": 2.36247172432,
			"0.015": 2.3007614106,
			"0.016": 2.09737475074,
			"0.017": 0.970776875248,
			"0.018": 0.483203383043,
			"0.019": 0.0,
			"0.02": 0.0,
			"0.021": 0.0,
			"0.022": 0.0,
			"0.023": 0.0,
			"0.024": 0.0,
			"0.025": 0.0
		}
	}
}
