{
	 "smiles": "N#CC1=CC=C(C=C1)C1=CC=C(C=C1)C#N", 
	 "Tm": 509.15, 
	 "num_atms": 24, 
	 "gaussian": { 
		 "optdone": 1, 
		 "sigma_profile": "yes", 
		 "theory": "DFT", 
		 "functional": "B3LYP", 
		 "basiset": "6-31G**", 
		 "properties": { 
			 "R2extent": 6049.1468, 
			 "electric_dipole_moment_norm": 0.00275862284483, 
			 "electric_quadrupole_moment_norm": 45.9643188442, 
			 "total_energy": -647.789272155, 
			 "HOMO_LUMO_gap": 0.17068, 
			 "cosmo_polarized_energy": -15.79, 
			 "cosmo_cavitation_energy": 31.38, 
			 "cosmo_dispersion_energy": -21.59, 
			 "cosmo_repulsion_energy": 1.65, 
			 "cosmo_total_nonelectrostatic_energy": 11.44, 
			 "SMD_solvation_energy": 7.97 
		},
		"coords": [
			{
				"x": -5.3152338213,
				"y": 3.3223031768,
				"z": -1.2175839685,
				"element": "N" 
			},
			{
				"x": -4.522002291,
				"y": 2.5278268475,
				"z": -0.9127238294,
				"element": "C" 
			},
			{
				"x": -3.5460220719,
				"y": 1.547885477,
				"z": -0.5358036775,
				"element": "C" 
			},
			{
				"x": -2.6843595803,
				"y": 1.788129991,
				"z": 0.547538287,
				"element": "C" 
			},
			{
				"x": -1.7398914345,
				"y": 0.834473065,
				"z": 0.9078206401,
				"element": "C" 
			},
			{
				"x": -1.6273429382,
				"y": -0.3784456171,
				"z": 0.2049909368,
				"element": "C" 
			},
			{
				"x": -2.4966371321,
				"y": -0.605634676,
				"z": -0.8769259316,
				"element": "C" 
			},
			{
				"x": -3.4445978449,
				"y": 0.3406818493,
				"z": -1.2472633409,
				"element": "C" 
			},
			{
				"x": -0.617394869,
				"y": -1.3923116931,
				"z": 0.5949781935,
				"element": "C" 
			},
			{
				"x": -0.9134408841,
				"y": -2.7657666853,
				"z": 0.5334070172,
				"element": "C" 
			},
			{
				"x": 0.0284578044,
				"y": -3.7203400585,
				"z": 0.8979758185,
				"element": "C" 
			},
			{
				"x": 1.3013500493,
				"y": -3.3184408043,
				"z": 1.3361831189,
				"element": "C" 
			},
			{
				"x": 1.6111089849,
				"y": -1.9496877824,
				"z": 1.4023186735,
				"element": "C" 
			},
			{
				"x": 0.6605287996,
				"y": -1.0045064045,
				"z": 1.035833979,
				"element": "C" 
			},
			{
				"x": 2.277400135,
				"y": -4.2982418623,
				"z": 1.7132661236,
				"element": "C" 
			},
			{
				"x": 3.0695238904,
				"y": -5.0933693923,
				"z": 2.0192995842,
				"element": "N" 
			},
			{
				"x": -2.7676082601,
				"y": 2.7158057314,
				"z": 1.1036066342,
				"element": "H" 
			},
			{
				"x": -1.098447874,
				"y": 1.020639468,
				"z": 1.7632286309,
				"element": "H" 
			},
			{
				"x": -2.4104440157,
				"y": -1.522342756,
				"z": -1.451430111,
				"element": "H" 
			},
			{
				"x": -4.1030305896,
				"y": 0.157658774,
				"z": -2.0896976349,
				"element": "H" 
			},
			{
				"x": -1.9019109307,
				"y": -3.0883826367,
				"z": 0.222492566,
				"element": "H" 
			},
			{
				"x": -0.2153137514,
				"y": -4.7764977779,
				"z": 0.8551332181,
				"element": "H" 
			},
			{
				"x": 2.5965714543,
				"y": -1.6380826667,
				"z": 1.7317048016,
				"element": "H" 
			},
			{
				"x": 0.921337171,
				"y": 0.0485464333,
				"z": 1.0657502709,
				"element": "H" 
			}
		],
		 "valence_orbital": [ 
			{
				"type": "occ",
				"energy": -0.33723,
				"method": "rhf"
			},
			{
				"type": "occ",
				"energy": -0.29517,
				"method": "rhf"
			},
			{
				"type": "occ",
				"energy": -0.28869,
				"method": "rhf"
			},
			{
				"type": "occ",
				"energy": -0.28807,
				"method": "rhf"
			},
			{
				"type": "occ",
				"energy": -0.25615,
				"method": "rhf"
			},
			{
				"type": "unocc",
				"energy": -0.08547,
				"method": "rhf"
			},
			{
				"type": "unocc",
				"energy": -0.03994,
				"method": "rhf"
			},
			{
				"type": "unocc",
				"energy": -0.03972,
				"method": "rhf"
			},
			{
				"type": "unocc",
				"energy": -0.03566,
				"method": "rhf"
			},
			{
				"type": "unocc",
				"energy": 0.02795,
				"method": "rhf"
			}
		],
		"cosmo_sigma_profile": { 
			"-0.025": 0.0,
			"-0.024": 0.0,
			"-0.023": 0.0,
			"-0.022": 0.0,
			"-0.021": 0.0,
			"-0.02": 0.0,
			"-0.019": 0.0,
			"-0.018": 0.0,
			"-0.017": 0.0,
			"-0.016": 0.0,
			"-0.015": 0.0,
			"-0.014": 0.0,
			"-0.013": 0.0,
			"-0.012": 0.0,
			"-0.011": 0.0,
			"-0.01": 0.0,
			"-0.009": 0.383486728802,
			"-0.008": 9.51903838033,
			"-0.007": 19.9963304018,
			"-0.006": 18.546716472,
			"-0.005": 13.6717030226,
			"-0.004": 13.6904922557,
			"-0.003": 13.3201822737,
			"-0.002": 14.7635829807,
			"-0.001": 22.4245194204,
			"0.0": 20.1007389385,
			"0.001": 23.9571582089,
			"0.002": 26.2383791928,
			"0.003": 6.67821546736,
			"0.004": 3.78702417529,
			"0.005": 4.83124807155,
			"0.006": 5.25763710896,
			"0.007": 5.16489721745,
			"0.008": 7.08271840426,
			"0.009": 6.46447616914,
			"0.01": 6.66368186016,
			"0.011": 5.40104064445,
			"0.012": 4.86635648881,
			"0.013": 2.84678903042,
			"0.014": 0.0734620960244,
			"0.015": 0.0,
			"0.016": 0.0,
			"0.017": 0.0,
			"0.018": 0.0,
			"0.019": 0.0,
			"0.02": 0.0,
			"0.021": 0.0,
			"0.022": 0.0,
			"0.023": 0.0,
			"0.024": 0.0,
			"0.025": 0.0
		}
	}
}
