{
	 "smiles": "COC1=CC=C(NC(C)=O)C=C1", 
	 "Tm": 402.15, 
	 "num_atms": 23, 
	 "gaussian": { 
		 "optdone": 1, 
		 "sigma_profile": "yes", 
		 "theory": "DFT", 
		 "functional": "B3LYP", 
		 "basiset": "6-31G**", 
		 "properties": { 
			 "R2extent": 3219.0281, 
			 "electric_dipole_moment_norm": 4.02440871433, 
			 "electric_quadrupole_moment_norm": 16.994778033, 
			 "total_energy": -554.787430073, 
			 "HOMO_LUMO_gap": 0.19044, 
			 "cosmo_polarized_energy": -12.95, 
			 "cosmo_cavitation_energy": 26.69, 
			 "cosmo_dispersion_energy": -19.78, 
			 "cosmo_repulsion_energy": 1.57, 
			 "cosmo_total_nonelectrostatic_energy": 8.48, 
			 "SMD_solvation_energy": 6.22 
		},
		"coords": [
			{
				"x": 1.2926633559,
				"y": -3.3989423381,
				"z": -0.3582478578,
				"element": "C" 
			},
			{
				"x": 0.6403025821,
				"y": -2.719146982,
				"z": 0.7010863563,
				"element": "O" 
			},
			{
				"x": 0.0173474999,
				"y": -1.5365190927,
				"z": 0.4171385294,
				"element": "C" 
			},
			{
				"x": -0.0317183709,
				"y": -0.9346455031,
				"z": -0.841327658,
				"element": "C" 
			},
			{
				"x": -0.6985869962,
				"y": 0.2822941271,
				"z": -1.0260429826,
				"element": "C" 
			},
			{
				"x": -1.3317022583,
				"y": 0.925148141,
				"z": 0.0438108002,
				"element": "C" 
			},
			{
				"x": -2.032126354,
				"y": 2.1489288387,
				"z": -0.0184093005,
				"element": "N" 
			},
			{
				"x": -2.3383857854,
				"y": 3.0762916737,
				"z": -0.9997112228,
				"element": "C" 
			},
			{
				"x": -1.8671278078,
				"y": 2.8554922316,
				"z": -2.4219545947,
				"element": "C" 
			},
			{
				"x": -2.9912823415,
				"y": 4.0643989274,
				"z": -0.6879481399,
				"element": "O" 
			},
			{
				"x": -1.2728738439,
				"y": 0.3041037066,
				"z": 1.3084335856,
				"element": "C" 
			},
			{
				"x": -0.6142622675,
				"y": -0.8995587903,
				"z": 1.4951874046,
				"element": "C" 
			},
			{
				"x": 1.7165855987,
				"y": -4.3042246494,
				"z": 0.078931962,
				"element": "H" 
			},
			{
				"x": 2.1013097445,
				"y": -2.7952614223,
				"z": -0.7912195205,
				"element": "H" 
			},
			{
				"x": 0.5904846851,
				"y": -3.6783790896,
				"z": -1.1549086056,
				"element": "H" 
			},
			{
				"x": 0.4441097712,
				"y": -1.3959356732,
				"z": -1.6986012121,
				"element": "H" 
			},
			{
				"x": -0.7069305822,
				"y": 0.7053822181,
				"z": -2.0193910507,
				"element": "H" 
			},
			{
				"x": -2.4231044804,
				"y": 2.4540902149,
				"z": 0.8649330081,
				"element": "H" 
			},
			{
				"x": -2.2188675698,
				"y": 3.7004628125,
				"z": -3.0131601809,
				"element": "H" 
			},
			{
				"x": -2.2736074658,
				"y": 1.9289973074,
				"z": -2.8395970063,
				"element": "H" 
			},
			{
				"x": -0.7752397705,
				"y": 2.8049281138,
				"z": -2.4791145665,
				"element": "H" 
			},
			{
				"x": -1.7560031534,
				"y": 0.7811356497,
				"z": 2.1578159796,
				"element": "H" 
			},
			{
				"x": -0.5759841901,
				"y": -1.3675404218,
				"z": 2.4732962732,
				"element": "H" 
			}
		],
		 "valence_orbital": [ 
			{
				"type": "occ",
				"energy": -0.3307,
				"method": "rhf"
			},
			{
				"type": "occ",
				"energy": -0.28082,
				"method": "rhf"
			},
			{
				"type": "occ",
				"energy": -0.25941,
				"method": "rhf"
			},
			{
				"type": "occ",
				"energy": -0.25135,
				"method": "rhf"
			},
			{
				"type": "occ",
				"energy": -0.20176,
				"method": "rhf"
			},
			{
				"type": "unocc",
				"energy": -0.01132,
				"method": "rhf"
			},
			{
				"type": "unocc",
				"energy": -0.00362,
				"method": "rhf"
			},
			{
				"type": "unocc",
				"energy": 0.04663,
				"method": "rhf"
			},
			{
				"type": "unocc",
				"energy": 0.07922,
				"method": "rhf"
			},
			{
				"type": "unocc",
				"energy": 0.09214,
				"method": "rhf"
			}
		],
		"cosmo_sigma_profile": { 
			"-0.025": 0.0,
			"-0.024": 0.0,
			"-0.023": 0.0,
			"-0.022": 0.0,
			"-0.021": 0.0,
			"-0.02": 0.0,
			"-0.019": 0.0,
			"-0.018": 0.0,
			"-0.017": 0.0,
			"-0.016": 0.0,
			"-0.015": 0.0,
			"-0.014": 0.527973604486,
			"-0.013": 1.18818524934,
			"-0.012": 0.864562810264,
			"-0.011": 1.22077093316,
			"-0.01": 1.03444051013,
			"-0.009": 1.22197013614,
			"-0.008": 1.44360372076,
			"-0.007": 3.740312196,
			"-0.006": 15.1987444116,
			"-0.005": 22.5758109654,
			"-0.004": 19.3949120067,
			"-0.003": 18.9129076186,
			"-0.002": 14.9954360302,
			"-0.001": 13.3374051647,
			"0.0": 8.91023281342,
			"0.001": 9.47296558081,
			"0.002": 10.6831409259,
			"0.003": 12.0421377635,
			"0.004": 11.9242960627,
			"0.005": 14.1885144962,
			"0.006": 4.38114562038,
			"0.007": 2.24749853014,
			"0.008": 3.32297110506,
			"0.009": 2.0504071271,
			"0.01": 2.68713084748,
			"0.011": 2.85445595534,
			"0.012": 1.6212395452,
			"0.013": 4.86725116079,
			"0.014": 4.25133126791,
			"0.015": 0.705081931706,
			"0.016": 0.0,
			"0.017": 0.0,
			"0.018": 0.0,
			"0.019": 0.0,
			"0.02": 0.0,
			"0.021": 0.0,
			"0.022": 0.0,
			"0.023": 0.0,
			"0.024": 0.0,
			"0.025": 0.0
		}
	}
}
