{
	 "smiles": "ON=C(CC1=CC=CC=C1)CC1=CC=CC=C1", 
	 "Tm": 396.15, 
	 "num_atms": 32, 
	 "gaussian": { 
		 "optdone": 1, 
		 "sigma_profile": "yes", 
		 "theory": "DFT", 
		 "functional": "B3LYP", 
		 "basiset": "6-31G**", 
		 "properties": { 
			 "R2extent": 4012.2308, 
			 "electric_dipole_moment_norm": 0.282549995576, 
			 "electric_quadrupole_moment_norm": 12.3417986367, 
			 "total_energy": -710.560554413, 
			 "HOMO_LUMO_gap": 0.21858, 
			 "cosmo_polarized_energy": -10.72, 
			 "cosmo_cavitation_energy": 35.51, 
			 "cosmo_dispersion_energy": -23.63, 
			 "cosmo_repulsion_energy": 1.87, 
			 "cosmo_total_nonelectrostatic_energy": 13.75, 
			 "SMD_solvation_energy": 5.53 
		},
		"coords": [
			{
				"x": -0.2450807454,
				"y": 0.8530714908,
				"z": -3.7165028318,
				"element": "O" 
			},
			{
				"x": 0.8526907825,
				"y": 1.14600916,
				"z": -2.8742275662,
				"element": "N" 
			},
			{
				"x": 0.515587397,
				"y": 1.222274071,
				"z": -1.6386111623,
				"element": "C" 
			},
			{
				"x": -0.8964577778,
				"y": 1.051323742,
				"z": -1.1067580854,
				"element": "C" 
			},
			{
				"x": -1.2676713398,
				"y": -0.3732738006,
				"z": -0.7111368494,
				"element": "C" 
			},
			{
				"x": -1.5696398884,
				"y": -0.6844255335,
				"z": 0.6196485288,
				"element": "C" 
			},
			{
				"x": -1.9351862178,
				"y": -1.9808594723,
				"z": 0.9869662452,
				"element": "C" 
			},
			{
				"x": -2.0029121795,
				"y": -2.9879412123,
				"z": 0.0242797045,
				"element": "C" 
			},
			{
				"x": -1.7025665722,
				"y": -2.6879132408,
				"z": -1.3065509969,
				"element": "C" 
			},
			{
				"x": -1.3385575959,
				"y": -1.3923711768,
				"z": -1.6729568754,
				"element": "C" 
			},
			{
				"x": 1.6430370065,
				"y": 1.5732763752,
				"z": -0.6893333844,
				"element": "C" 
			},
			{
				"x": 1.9584618623,
				"y": 0.50644107,
				"z": 0.3473070228,
				"element": "C" 
			},
			{
				"x": 1.8895843343,
				"y": 0.7902089847,
				"z": 1.7156850027,
				"element": "C" 
			},
			{
				"x": 2.2066270517,
				"y": -0.1840206925,
				"z": 2.665489089,
				"element": "C" 
			},
			{
				"x": 2.5965406568,
				"y": -1.458565411,
				"z": 2.2549975591,
				"element": "C" 
			},
			{
				"x": 2.6691726673,
				"y": -1.7519571471,
				"z": 0.890601251,
				"element": "C" 
			},
			{
				"x": 2.3531573113,
				"y": -0.7774032551,
				"z": -0.054138963,
				"element": "C" 
			},
			{
				"x": 0.1667198456,
				"y": 0.8714334599,
				"z": -4.5902047453,
				"element": "H" 
			},
			{
				"x": -1.0120455923,
				"y": 1.7025008081,
				"z": -0.234127264,
				"element": "H" 
			},
			{
				"x": -1.5870306985,
				"y": 1.4048399051,
				"z": -1.8791281871,
				"element": "H" 
			},
			{
				"x": -1.5121761192,
				"y": 0.0926090823,
				"z": 1.3774086532,
				"element": "H" 
			},
			{
				"x": -2.1645145251,
				"y": -2.2017761499,
				"z": 2.0257612538,
				"element": "H" 
			},
			{
				"x": -2.2873667955,
				"y": -3.9975116886,
				"z": 0.3072866301,
				"element": "H" 
			},
			{
				"x": -1.7547810155,
				"y": -3.4655681445,
				"z": -2.0639349979,
				"element": "H" 
			},
			{
				"x": -1.1090940892,
				"y": -1.1577998387,
				"z": -2.7073899075,
				"element": "H" 
			},
			{
				"x": 1.3827970109,
				"y": 2.5066881645,
				"z": -0.1733960463,
				"element": "H" 
			},
			{
				"x": 2.5298511013,
				"y": 1.778632669,
				"z": -1.2984010189,
				"element": "H" 
			},
			{
				"x": 1.5909046581,
				"y": 1.7839576885,
				"z": 2.0417305888,
				"element": "H" 
			},
			{
				"x": 2.1486143678,
				"y": 0.0548021033,
				"z": 3.7238917011,
				"element": "H" 
			},
			{
				"x": 2.8426161644,
				"y": -2.2186639103,
				"z": 2.9909789662,
				"element": "H" 
			},
			{
				"x": 2.9710193665,
				"y": -2.7427396924,
				"z": 0.5627174932,
				"element": "H" 
			},
			{
				"x": 2.4042995678,
				"y": -1.0106784079,
				"z": -1.1143508079,
				"element": "H" 
			}
		],
		 "valence_orbital": [ 
			{
				"type": "occ",
				"energy": -0.25367,
				"method": "rhf"
			},
			{
				"type": "occ",
				"energy": -0.24597,
				"method": "rhf"
			},
			{
				"type": "occ",
				"energy": -0.24179,
				"method": "rhf"
			},
			{
				"type": "occ",
				"energy": -0.23881,
				"method": "rhf"
			},
			{
				"type": "occ",
				"energy": -0.22762,
				"method": "rhf"
			},
			{
				"type": "unocc",
				"energy": -0.00904,
				"method": "rhf"
			},
			{
				"type": "unocc",
				"energy": -0.00064,
				"method": "rhf"
			},
			{
				"type": "unocc",
				"energy": 0.00816,
				"method": "rhf"
			},
			{
				"type": "unocc",
				"energy": 0.01041,
				"method": "rhf"
			},
			{
				"type": "unocc",
				"energy": 0.01913,
				"method": "rhf"
			}
		],
		"cosmo_sigma_profile": { 
			"-0.025": 0.0,
			"-0.024": 0.0,
			"-0.023": 0.0,
			"-0.022": 0.0,
			"-0.021": 0.0,
			"-0.02": 0.0,
			"-0.019": 0.0,
			"-0.018": 0.0246448623336,
			"-0.017": 0.664666996433,
			"-0.016": 0.973805142889,
			"-0.015": 1.13493915441,
			"-0.014": 0.860860860935,
			"-0.013": 0.237027629098,
			"-0.012": 0.790138182902,
			"-0.011": 0.494747545392,
			"-0.01": 0.887680456185,
			"-0.009": 0.75818399479,
			"-0.008": 0.614390277251,
			"-0.007": 0.784324797017,
			"-0.006": 7.07151341828,
			"-0.005": 25.7485709445,
			"-0.004": 25.2835408066,
			"-0.003": 27.9177088692,
			"-0.002": 22.9834972708,
			"-0.001": 21.3929482872,
			"0.0": 17.2679544065,
			"0.001": 15.8263463473,
			"0.002": 18.5418024629,
			"0.003": 19.4663436225,
			"0.004": 19.1326319182,
			"0.005": 18.4670729866,
			"0.006": 19.0086933234,
			"0.007": 7.52872938427,
			"0.008": 3.01516253656,
			"0.009": 1.37021124294,
			"0.01": 1.24591825007,
			"0.011": 1.08508302404,
			"0.012": 0.629719455639,
			"0.013": 0.595728920816,
			"0.014": 0.238477113086,
			"0.015": 0.0,
			"0.016": 0.0,
			"0.017": 0.0,
			"0.018": 0.0,
			"0.019": 0.0,
			"0.02": 0.0,
			"0.021": 0.0,
			"0.022": 0.0,
			"0.023": 0.0,
			"0.024": 0.0,
			"0.025": 0.0
		}
	}
}
