{
	 "smiles": "OC1=CC=CC=C1C1=CC=CC=C1", 
	 "Tm": 331.15, 
	 "num_atms": 23, 
	 "gaussian": { 
		 "optdone": 1, 
		 "sigma_profile": "yes", 
		 "theory": "DFT", 
		 "functional": "B3LYP", 
		 "basiset": "6-31G**", 
		 "properties": { 
			 "R2extent": 3110.1698, 
			 "electric_dipole_moment_norm": 1.54118418432, 
			 "electric_quadrupole_moment_norm": 11.2244985705, 
			 "total_energy": -538.52827655, 
			 "HOMO_LUMO_gap": 0.19068, 
			 "cosmo_polarized_energy": -9.62, 
			 "cosmo_cavitation_energy": 26.58, 
			 "cosmo_dispersion_energy": -19.75, 
			 "cosmo_repulsion_energy": 1.55, 
			 "cosmo_total_nonelectrostatic_energy": 8.38, 
			 "SMD_solvation_energy": 4.68 
		},
		"coords": [
			{
				"x": 1.1335530532,
				"y": 2.2613498504,
				"z": 1.7815635776,
				"element": "O" 
			},
			{
				"x": 1.6160838545,
				"y": 2.4369796294,
				"z": 0.5126744782,
				"element": "C" 
			},
			{
				"x": 2.3812928333,
				"y": 3.5596360501,
				"z": 0.1814687263,
				"element": "C" 
			},
			{
				"x": 2.8554546337,
				"y": 3.7380571509,
				"z": -1.1170608351,
				"element": "C" 
			},
			{
				"x": 2.5653912254,
				"y": 2.7885508058,
				"z": -2.0955992366,
				"element": "C" 
			},
			{
				"x": 1.8011852417,
				"y": 1.6717101937,
				"z": -1.759404948,
				"element": "C" 
			},
			{
				"x": 1.3065612076,
				"y": 1.462518886,
				"z": -0.4621032226,
				"element": "C" 
			},
			{
				"x": 0.4786495508,
				"y": 0.2626022514,
				"z": -0.1648540365,
				"element": "C" 
			},
			{
				"x": 0.6694618821,
				"y": -0.50583481,
				"z": 0.9966414122,
				"element": "C" 
			},
			{
				"x": -0.0896823756,
				"y": -1.6521216609,
				"z": 1.2260083817,
				"element": "C" 
			},
			{
				"x": -1.058582028,
				"y": -2.0557037686,
				"z": 0.3049342582,
				"element": "C" 
			},
			{
				"x": -1.2635114562,
				"y": -1.2995485479,
				"z": -0.8498297514,
				"element": "C" 
			},
			{
				"x": -0.5033162643,
				"y": -0.1534569601,
				"z": -1.0806080125,
				"element": "C" 
			},
			{
				"x": 1.3879276132,
				"y": 3.0228501125,
				"z": 2.3186630154,
				"element": "H" 
			},
			{
				"x": 2.6000236992,
				"y": 4.2994600072,
				"z": 0.9496203417,
				"element": "H" 
			},
			{
				"x": 3.4506371714,
				"y": 4.61459326,
				"z": -1.3557969083,
				"element": "H" 
			},
			{
				"x": 2.9356643932,
				"y": 2.9097305745,
				"z": -3.1087476523,
				"element": "H" 
			},
			{
				"x": 1.5912667974,
				"y": 0.9201525318,
				"z": -2.5146597145,
				"element": "H" 
			},
			{
				"x": 1.4182091532,
				"y": -0.2018052608,
				"z": 1.7187766119,
				"element": "H" 
			},
			{
				"x": 0.0789718228,
				"y": -2.234686164,
				"z": 2.127601844,
				"element": "H" 
			},
			{
				"x": -1.6504444285,
				"y": -2.9480516487,
				"z": 0.4879662334,
				"element": "H" 
			},
			{
				"x": -2.0210831072,
				"y": -1.5966805762,
				"z": -1.569811146,
				"element": "H" 
			},
			{
				"x": -0.6843144731,
				"y": 0.4405980933,
				"z": -1.971743417,
				"element": "H" 
			}
		],
		 "valence_orbital": [ 
			{
				"type": "occ",
				"energy": -0.3242,
				"method": "rhf"
			},
			{
				"type": "occ",
				"energy": -0.26684,
				"method": "rhf"
			},
			{
				"type": "occ",
				"energy": -0.24179,
				"method": "rhf"
			},
			{
				"type": "occ",
				"energy": -0.23369,
				"method": "rhf"
			},
			{
				"type": "occ",
				"energy": -0.21122,
				"method": "rhf"
			},
			{
				"type": "unocc",
				"energy": -0.02054,
				"method": "rhf"
			},
			{
				"type": "unocc",
				"energy": 0.00741,
				"method": "rhf"
			},
			{
				"type": "unocc",
				"energy": 0.00962,
				"method": "rhf"
			},
			{
				"type": "unocc",
				"energy": 0.0321,
				"method": "rhf"
			},
			{
				"type": "unocc",
				"energy": 0.06977,
				"method": "rhf"
			}
		],
		"cosmo_sigma_profile": { 
			"-0.025": 0.0,
			"-0.024": 0.0,
			"-0.023": 0.0,
			"-0.022": 0.0,
			"-0.021": 0.0,
			"-0.02": 0.0,
			"-0.019": 0.0,
			"-0.018": 0.230990101229,
			"-0.017": 1.15313979863,
			"-0.016": 1.16231786688,
			"-0.015": 0.921198107222,
			"-0.014": 1.02012968918,
			"-0.013": 1.24358707574,
			"-0.012": 0.879437482163,
			"-0.011": 0.557398779143,
			"-0.01": 0.987283429196,
			"-0.009": 1.10642150571,
			"-0.008": 1.27430621999,
			"-0.007": 1.43865126229,
			"-0.006": 6.05932556498,
			"-0.005": 15.1206514516,
			"-0.004": 19.9297125494,
			"-0.003": 18.7856518937,
			"-0.002": 13.2338817352,
			"-0.001": 12.3986659449,
			"0.0": 10.3622427445,
			"0.001": 12.8407240574,
			"0.002": 13.4195129122,
			"0.003": 16.9124711741,
			"0.004": 17.3451419916,
			"0.005": 18.629652976,
			"0.006": 16.5960711204,
			"0.007": 3.55929216065,
			"0.008": 1.62906763815,
			"0.009": 1.52511116796,
			"0.01": 1.03808467238,
			"0.011": 1.27101485489,
			"0.012": 0.112974704609,
			"0.013": 0.0,
			"0.014": 0.0,
			"0.015": 0.0,
			"0.016": 0.0,
			"0.017": 0.0,
			"0.018": 0.0,
			"0.019": 0.0,
			"0.02": 0.0,
			"0.021": 0.0,
			"0.022": 0.0,
			"0.023": 0.0,
			"0.024": 0.0,
			"0.025": 0.0
		}
	}
}
