{
	 "smiles": "NC1=C(N)C=NC=C1", 
	 "Tm": 491.15, 
	 "num_atms": 15, 
	 "gaussian": { 
		 "optdone": 1, 
		 "sigma_profile": "yes", 
		 "theory": "DFT", 
		 "functional": "B3LYP", 
		 "basiset": "6-31G**", 
		 "properties": { 
			 "R2extent": 1717.2114, 
			 "electric_dipole_moment_norm": 3.56353121215, 
			 "electric_quadrupole_moment_norm": 11.3399609228, 
			 "total_energy": -359.00575595, 
			 "HOMO_LUMO_gap": 0.20916, 
			 "cosmo_polarized_energy": -13.76, 
			 "cosmo_cavitation_energy": 18.51, 
			 "cosmo_dispersion_energy": -14.19, 
			 "cosmo_repulsion_energy": 1.18, 
			 "cosmo_total_nonelectrostatic_energy": 5.5, 
			 "SMD_solvation_energy": 1.85 
		},
		"coords": [
			{
				"x": 2.8634947129,
				"y": 2.6254540557,
				"z": 0.6925767467,
				"element": "N" 
			},
			{
				"x": 1.518988787,
				"y": 2.3035483146,
				"z": 0.5237130433,
				"element": "C" 
			},
			{
				"x": 1.0643434764,
				"y": 1.0382776629,
				"z": 0.9604220058,
				"element": "C" 
			},
			{
				"x": 1.9822622793,
				"y": 0.1823924166,
				"z": 1.6092225143,
				"element": "N" 
			},
			{
				"x": -0.2827938524,
				"y": 0.7279363704,
				"z": 0.7763453902,
				"element": "C" 
			},
			{
				"x": -1.1810484991,
				"y": 1.5404262874,
				"z": 0.2034394578,
				"element": "N" 
			},
			{
				"x": -0.7300156344,
				"y": 2.7213492861,
				"z": -0.2321888941,
				"element": "C" 
			},
			{
				"x": 0.5914851232,
				"y": 3.1460699786,
				"z": -0.0962758987,
				"element": "C" 
			},
			{
				"x": 3.0793327216,
				"y": 3.6077277676,
				"z": 0.5847868488,
				"element": "H" 
			},
			{
				"x": 3.2591591813,
				"y": 2.2394369806,
				"z": 1.5432757878,
				"element": "H" 
			},
			{
				"x": 1.5676361352,
				"y": -0.707276305,
				"z": 1.8631214943,
				"element": "H" 
			},
			{
				"x": 2.8127658462,
				"y": 0.015744193,
				"z": 1.0465446493,
				"element": "H" 
			},
			{
				"x": -0.6537297112,
				"y": -0.2395825825,
				"z": 1.119077713,
				"element": "H" 
			},
			{
				"x": -1.4604299734,
				"y": 3.3719048617,
				"z": -0.7101137339,
				"element": "H" 
			},
			{
				"x": 0.8944494074,
				"y": 4.1265907123,
				"z": -0.4546471245,
				"element": "H" 
			}
		],
		 "valence_orbital": [ 
			{
				"type": "occ",
				"energy": -0.33153,
				"method": "rhf"
			},
			{
				"type": "occ",
				"energy": -0.31462,
				"method": "rhf"
			},
			{
				"type": "occ",
				"energy": -0.24,
				"method": "rhf"
			},
			{
				"type": "occ",
				"energy": -0.23469,
				"method": "rhf"
			},
			{
				"type": "occ",
				"energy": -0.20414,
				"method": "rhf"
			},
			{
				"type": "unocc",
				"energy": 0.00502,
				"method": "rhf"
			},
			{
				"type": "unocc",
				"energy": 0.01353,
				"method": "rhf"
			},
			{
				"type": "unocc",
				"energy": 0.06813,
				"method": "rhf"
			},
			{
				"type": "unocc",
				"energy": 0.09847,
				"method": "rhf"
			},
			{
				"type": "unocc",
				"energy": 0.1192,
				"method": "rhf"
			}
		],
		"cosmo_sigma_profile": { 
			"-0.025": 0.0,
			"-0.024": 0.0,
			"-0.023": 0.0,
			"-0.022": 0.0,
			"-0.021": 0.0,
			"-0.02": 0.0,
			"-0.019": 0.0,
			"-0.018": 0.0,
			"-0.017": 0.0,
			"-0.016": 0.0,
			"-0.015": 0.0,
			"-0.014": 0.0,
			"-0.013": 0.628664081816,
			"-0.012": 2.85027905634,
			"-0.011": 5.46928444459,
			"-0.01": 4.80657727448,
			"-0.009": 6.12678685663,
			"-0.008": 5.36579278815,
			"-0.007": 4.79309156058,
			"-0.006": 7.15773641796,
			"-0.005": 7.60766859269,
			"-0.004": 8.03602551873,
			"-0.003": 6.54917273408,
			"-0.002": 6.11139296892,
			"-0.001": 5.89430897219,
			"0.0": 4.61006597261,
			"0.001": 6.20541051658,
			"0.002": 6.07156423689,
			"0.003": 8.17176379688,
			"0.004": 11.9631738553,
			"0.005": 9.83525251602,
			"0.006": 4.50854529752,
			"0.007": 3.5986262275,
			"0.008": 2.41212480378,
			"0.009": 2.82220754351,
			"0.01": 2.82922208111,
			"0.011": 2.54353499698,
			"0.012": 1.7390019072,
			"0.013": 2.15888093523,
			"0.014": 1.78785887721,
			"0.015": 1.12201951779,
			"0.016": 0.716530110341,
			"0.017": 1.13386163083,
			"0.018": 0.794804899671,
			"0.019": 0.0276938819433,
			"0.02": 0.0,
			"0.021": 0.0,
			"0.022": 0.0,
			"0.023": 0.0,
			"0.024": 0.0,
			"0.025": 0.0
		}
	}
}
