{
	 "smiles": "CC(C)(C)OC(=O)N1CCC(CC1)C1=NC(=CS1)C(O)=O", 
	 "Tm": 437.15, 
	 "num_atms": 41, 
	 "gaussian": { 
		 "optdone": 1, 
		 "sigma_profile": "yes", 
		 "theory": "DFT", 
		 "functional": "B3LYP", 
		 "basiset": "6-31G**", 
		 "properties": { 
			 "R2extent": 8494.3402, 
			 "electric_dipole_moment_norm": 5.91935085039, 
			 "electric_quadrupole_moment_norm": 29.3048478964, 
			 "total_energy": -1354.17804982, 
			 "HOMO_LUMO_gap": 0.17949, 
			 "cosmo_polarized_energy": -17.03, 
			 "cosmo_cavitation_energy": 42.57, 
			 "cosmo_dispersion_energy": -29.23, 
			 "cosmo_repulsion_energy": 2.16, 
			 "cosmo_total_nonelectrostatic_energy": 15.5, 
			 "SMD_solvation_energy": 7.78 
		},
		"coords": [
			{
				"x": -0.5906625385,
				"y": -1.4252292247,
				"z": 1.4664073765,
				"element": "C" 
			},
			{
				"x": -0.3447719097,
				"y": -1.8296981037,
				"z": 0.0088727891,
				"element": "C" 
			},
			{
				"x": -1.6621930767,
				"y": -2.1837239636,
				"z": -0.6860345457,
				"element": "C" 
			},
			{
				"x": 0.6630555763,
				"y": -2.977123089,
				"z": -0.1107918056,
				"element": "C" 
			},
			{
				"x": 0.1336332342,
				"y": -0.6741769226,
				"z": -0.7835582104,
				"element": "O" 
			},
			{
				"x": 1.3391768414,
				"y": -0.1039303667,
				"z": -0.515828655,
				"element": "C" 
			},
			{
				"x": 2.0075323549,
				"y": -0.3051335567,
				"z": 0.4888855494,
				"element": "O" 
			},
			{
				"x": 1.7160924996,
				"y": 0.7437472277,
				"z": -1.5253870439,
				"element": "N" 
			},
			{
				"x": 0.9500570752,
				"y": 0.9428334071,
				"z": -2.7596138825,
				"element": "C" 
			},
			{
				"x": 1.2630393868,
				"y": 2.3219696447,
				"z": -3.3677044706,
				"element": "C" 
			},
			{
				"x": 1.385628655,
				"y": 3.4429941007,
				"z": -2.305142111,
				"element": "C" 
			},
			{
				"x": 2.4788082483,
				"y": 3.0673459994,
				"z": -1.2441120364,
				"element": "C" 
			},
			{
				"x": 2.8891201199,
				"y": 1.5874053999,
				"z": -1.3349290419,
				"element": "C" 
			},
			{
				"x": 0.0519044326,
				"y": 3.7405624112,
				"z": -1.6644739337,
				"element": "C" 
			},
			{
				"x": -0.700290509,
				"y": 2.8712521812,
				"z": -1.0540409302,
				"element": "N" 
			},
			{
				"x": -1.8636394789,
				"y": 3.4322411,
				"z": -0.5772299809,
				"element": "C" 
			},
			{
				"x": -2.017940326,
				"y": 4.7701895681,
				"z": -0.8124061801,
				"element": "C" 
			},
			{
				"x": -0.648429926,
				"y": 5.3622492375,
				"z": -1.6794697516,
				"element": "S" 
			},
			{
				"x": -2.8519846759,
				"y": 2.5602737055,
				"z": 0.121028247,
				"element": "C" 
			},
			{
				"x": -2.4847882268,
				"y": 1.262771622,
				"z": 0.1877184685,
				"element": "O" 
			},
			{
				"x": -3.8942367622,
				"y": 2.9654390238,
				"z": 0.5808511937,
				"element": "O" 
			},
			{
				"x": -1.2884179575,
				"y": -0.5849850218,
				"z": 1.5215996391,
				"element": "H" 
			},
			{
				"x": -1.0402450198,
				"y": -2.2684961616,
				"z": 2.0014543666,
				"element": "H" 
			},
			{
				"x": 0.3422646916,
				"y": -1.1501845075,
				"z": 1.9573350773,
				"element": "H" 
			},
			{
				"x": -2.1170228599,
				"y": -3.0518326296,
				"z": -0.1997772244,
				"element": "H" 
			},
			{
				"x": -1.4916122493,
				"y": -2.4272157143,
				"z": -1.7390190672,
				"element": "H" 
			},
			{
				"x": -2.3682446975,
				"y": -1.3506450749,
				"z": -0.6279942133,
				"element": "H" 
			},
			{
				"x": 0.2629616722,
				"y": -3.868313331,
				"z": 0.3830190996,
				"element": "H" 
			},
			{
				"x": 0.8399293058,
				"y": -3.2229578968,
				"z": -1.1629674898,
				"element": "H" 
			},
			{
				"x": 1.6120263484,
				"y": -2.7147672843,
				"z": 0.3586557561,
				"element": "H" 
			},
			{
				"x": -0.1110962223,
				"y": 0.8655636602,
				"z": -2.53199329,
				"element": "H" 
			},
			{
				"x": 1.1896494884,
				"y": 0.1600531606,
				"z": -3.4940602595,
				"element": "H" 
			},
			{
				"x": 0.4881924377,
				"y": 2.5709475585,
				"z": -4.0998953446,
				"element": "H" 
			},
			{
				"x": 2.209727604,
				"y": 2.2859933985,
				"z": -3.9185180672,
				"element": "H" 
			},
			{
				"x": 1.7008014667,
				"y": 4.3543594191,
				"z": -2.8238903894,
				"element": "H" 
			},
			{
				"x": 2.0981912101,
				"y": 3.2687873623,
				"z": -0.2390124475,
				"element": "H" 
			},
			{
				"x": 3.3633258687,
				"y": 3.6981813752,
				"z": -1.3855129293,
				"element": "H" 
			},
			{
				"x": 3.3843690015,
				"y": 1.2629722205,
				"z": -0.4203595759,
				"element": "H" 
			},
			{
				"x": 3.5899539643,
				"y": 1.4301363606,
				"z": -2.1656075683,
				"element": "H" 
			},
			{
				"x": -2.849417245,
				"y": 5.3967811374,
				"z": -0.5250395442,
				"element": "H" 
			},
			{
				"x": -1.6103478026,
				"y": 1.1540625673,
				"z": -0.2349575728,
				"element": "H" 
			}
		],
		 "valence_orbital": [ 
			{
				"type": "occ",
				"energy": -0.28728,
				"method": "rhf"
			},
			{
				"type": "occ",
				"energy": -0.27149,
				"method": "rhf"
			},
			{
				"type": "occ",
				"energy": -0.26372,
				"method": "rhf"
			},
			{
				"type": "occ",
				"energy": -0.25928,
				"method": "rhf"
			},
			{
				"type": "occ",
				"energy": -0.23599,
				"method": "rhf"
			},
			{
				"type": "unocc",
				"energy": -0.0565,
				"method": "rhf"
			},
			{
				"type": "unocc",
				"energy": -0.02119,
				"method": "rhf"
			},
			{
				"type": "unocc",
				"energy": -0.00788,
				"method": "rhf"
			},
			{
				"type": "unocc",
				"energy": 0.0498,
				"method": "rhf"
			},
			{
				"type": "unocc",
				"energy": 0.06958,
				"method": "rhf"
			}
		],
		"cosmo_sigma_profile": { 
			"-0.025": 0.0,
			"-0.024": 0.0,
			"-0.023": 0.0,
			"-0.022": 0.0,
			"-0.021": 0.0,
			"-0.02": 0.0,
			"-0.019": 0.0,
			"-0.018": 0.0,
			"-0.017": 0.0,
			"-0.016": 0.0,
			"-0.015": 0.0,
			"-0.014": 0.0,
			"-0.013": 0.0,
			"-0.012": 0.0,
			"-0.011": 0.210740230315,
			"-0.01": 1.66716564664,
			"-0.009": 1.44063959961,
			"-0.008": 1.90312395886,
			"-0.007": 4.16041285651,
			"-0.006": 5.51060734299,
			"-0.005": 15.7025225726,
			"-0.004": 36.9815186618,
			"-0.003": 38.4713952825,
			"-0.002": 35.9284810426,
			"-0.001": 36.8231113838,
			"0.0": 43.6010868221,
			"0.001": 36.3981370644,
			"0.002": 14.1002943287,
			"0.003": 9.37490511875,
			"0.004": 6.35387731057,
			"0.005": 6.07419934851,
			"0.006": 5.01030110037,
			"0.007": 4.59658482638,
			"0.008": 4.09044242465,
			"0.009": 4.21743470814,
			"0.01": 5.18038483476,
			"0.011": 6.14606695836,
			"0.012": 6.29443207521,
			"0.013": 4.53554654701,
			"0.014": 1.78361482095,
			"0.015": 0.0,
			"0.016": 0.0,
			"0.017": 0.0,
			"0.018": 0.0,
			"0.019": 0.0,
			"0.02": 0.0,
			"0.021": 0.0,
			"0.022": 0.0,
			"0.023": 0.0,
			"0.024": 0.0,
			"0.025": 0.0
		}
	}
}
