{
	 "smiles": "CC1=C(Cl)C(O)=NC(=N1)C1=CC=CC=N1", 
	 "Tm": 416.15, 
	 "num_atms": 23, 
	 "gaussian": { 
		 "optdone": 1, 
		 "sigma_profile": "yes", 
		 "theory": "DFT", 
		 "functional": "B3LYP", 
		 "basiset": "6-31G**", 
		 "properties": { 
			 "R2extent": 5279.473, 
			 "electric_dipole_moment_norm": 2.77684040953, 
			 "electric_quadrupole_moment_norm": 17.1260969908, 
			 "total_energy": -1085.56223604, 
			 "HOMO_LUMO_gap": 0.18171, 
			 "cosmo_polarized_energy": -15.35, 
			 "cosmo_cavitation_energy": 29.62, 
			 "cosmo_dispersion_energy": -22.22, 
			 "cosmo_repulsion_energy": 1.73, 
			 "cosmo_total_nonelectrostatic_energy": 9.13, 
			 "SMD_solvation_energy": 1.81 
		},
		"coords": [
			{
				"x": -2.7519769566,
				"y": -0.4851858323,
				"z": 0.0223295371,
				"element": "C" 
			},
			{
				"x": -1.4496208545,
				"y": -1.1469532389,
				"z": -0.3318483163,
				"element": "C" 
			},
			{
				"x": -1.3147641443,
				"y": -1.9972113884,
				"z": -1.4300220847,
				"element": "C" 
			},
			{
				"x": -2.6656126959,
				"y": -2.3654818148,
				"z": -2.4948958862,
				"element": "Cl" 
			},
			{
				"x": -0.0531982127,
				"y": -2.5696199916,
				"z": -1.6800343248,
				"element": "C" 
			},
			{
				"x": 0.1789762695,
				"y": -3.3983403084,
				"z": -2.7084680123,
				"element": "O" 
			},
			{
				"x": 0.983393576,
				"y": -2.3112431722,
				"z": -0.895774086,
				"element": "N" 
			},
			{
				"x": 0.7765440748,
				"y": -1.4874096243,
				"z": 0.1365781023,
				"element": "C" 
			},
			{
				"x": -0.3891919101,
				"y": -0.8977304232,
				"z": 0.4498721498,
				"element": "N" 
			},
			{
				"x": 1.935988277,
				"y": -1.1850634111,
				"z": 1.0317483059,
				"element": "C" 
			},
			{
				"x": 1.7699220175,
				"y": -0.3263740018,
				"z": 2.1289544236,
				"element": "C" 
			},
			{
				"x": 2.8677633319,
				"y": -0.0639631011,
				"z": 2.9440402899,
				"element": "C" 
			},
			{
				"x": 4.0891499322,
				"y": -0.6627977139,
				"z": 2.640666912,
				"element": "C" 
			},
			{
				"x": 4.1513455014,
				"y": -1.5029671095,
				"z": 1.5252842304,
				"element": "C" 
			},
			{
				"x": 3.1097382775,
				"y": -1.7647524572,
				"z": 0.73456188,
				"element": "N" 
			},
			{
				"x": -2.6108892865,
				"y": 0.1274273269,
				"z": 0.9129416067,
				"element": "H" 
			},
			{
				"x": -3.1083345904,
				"y": 0.145880123,
				"z": -0.7987739236,
				"element": "H" 
			},
			{
				"x": -3.5317820477,
				"y": -1.2297646056,
				"z": 0.2145676855,
				"element": "H" 
			},
			{
				"x": -0.6410473837,
				"y": -3.5170391655,
				"z": -3.2125910695,
				"element": "H" 
			},
			{
				"x": 0.7978878878,
				"y": 0.1116536264,
				"z": 2.3180291112,
				"element": "H" 
			},
			{
				"x": 2.7700184935,
				"y": 0.5967024079,
				"z": 3.8007891529,
				"element": "H" 
			},
			{
				"x": 4.97235748,
				"y": -0.4879670161,
				"z": 3.2471037098,
				"element": "H" 
			},
			{
				"x": 5.0882329634,
				"y": -1.9887991082,
				"z": 1.2566406062,
				"element": "H" 
			}
		],
		 "valence_orbital": [ 
			{
				"type": "occ",
				"energy": -0.28401,
				"method": "rhf"
			},
			{
				"type": "occ",
				"energy": -0.27618,
				"method": "rhf"
			},
			{
				"type": "occ",
				"energy": -0.26222,
				"method": "rhf"
			},
			{
				"type": "occ",
				"energy": -0.2442,
				"method": "rhf"
			},
			{
				"type": "occ",
				"energy": -0.24285,
				"method": "rhf"
			},
			{
				"type": "unocc",
				"energy": -0.06114,
				"method": "rhf"
			},
			{
				"type": "unocc",
				"energy": -0.03079,
				"method": "rhf"
			},
			{
				"type": "unocc",
				"energy": -0.01495,
				"method": "rhf"
			},
			{
				"type": "unocc",
				"energy": 0.01298,
				"method": "rhf"
			},
			{
				"type": "unocc",
				"energy": 0.02158,
				"method": "rhf"
			}
		],
		"cosmo_sigma_profile": { 
			"-0.025": 0.0,
			"-0.024": 0.0,
			"-0.023": 0.0,
			"-0.022": 0.0,
			"-0.021": 0.0,
			"-0.02": 0.0,
			"-0.019": 0.0,
			"-0.018": 0.0,
			"-0.017": 0.131344538139,
			"-0.016": 0.549064931872,
			"-0.015": 0.98534579916,
			"-0.014": 0.913935053844,
			"-0.013": 0.498447247953,
			"-0.012": 0.78273223443,
			"-0.011": 1.25201893723,
			"-0.01": 0.987046721416,
			"-0.009": 1.01357294596,
			"-0.008": 1.87195937809,
			"-0.007": 6.45746390808,
			"-0.006": 11.304725938,
			"-0.005": 16.1000400329,
			"-0.004": 15.0881538436,
			"-0.003": 19.5505153213,
			"-0.002": 22.829107077,
			"-0.001": 22.7532975095,
			"0.0": 17.7308383696,
			"0.001": 20.8558121372,
			"0.002": 24.0394079016,
			"0.003": 11.8285011752,
			"0.004": 6.59641996066,
			"0.005": 4.14000474633,
			"0.006": 4.10679498825,
			"0.007": 5.09750018883,
			"0.008": 4.79171752029,
			"0.009": 3.12132198302,
			"0.01": 3.0486435333,
			"0.011": 1.83926379305,
			"0.012": 2.60139309879,
			"0.013": 1.16936087099,
			"0.014": 1.0675053817,
			"0.015": 0.785533780255,
			"0.016": 1.05129863766,
			"0.017": 1.1932652858,
			"0.018": 0.737001645984,
			"0.019": 0.908951388626,
			"0.02": 0.674058907855,
			"0.021": 0.0652357286174,
			"0.022": 0.0,
			"0.023": 0.0,
			"0.024": 0.0,
			"0.025": 0.0
		}
	}
}
