{
	 "smiles": "CN(C)C1=CC=C(C=CC2=NC3=C(C=C(Br)C=C3)C(=C2)C(O)=O)C=C1", 
	 "Tm": 572.15, 
	 "num_atms": 42, 
	 "gaussian": { 
		 "optdone": 1, 
		 "sigma_profile": "yes", 
		 "theory": "DFT", 
		 "functional": "B3LYP", 
		 "basiset": "6-31G**", 
		 "properties": { 
			 "R2extent": 15445.2613, 
			 "electric_dipole_moment_norm": 6.75691909453, 
			 "electric_quadrupole_moment_norm": 26.6027694934, 
			 "total_energy": -3603.72641713, 
			 "HOMO_LUMO_gap": 0.11861, 
			 "cosmo_polarized_energy": -16.42, 
			 "cosmo_cavitation_energy": 47.65, 
			 "cosmo_dispersion_energy": -33.49, 
			 "cosmo_repulsion_energy": 2.49, 
			 "cosmo_total_nonelectrostatic_energy": 16.64, 
			 "SMD_solvation_energy": 5.61 
		},
		"coords": [
			{
				"x": -4.7798044104,
				"y": -0.6593786287,
				"z": 3.9207085773,
				"element": "C" 
			},
			{
				"x": -3.5832374662,
				"y": -1.3016975199,
				"z": 3.4017211431,
				"element": "N" 
			},
			{
				"x": -3.6718033284,
				"y": -2.6586233025,
				"z": 2.8863155231,
				"element": "C" 
			},
			{
				"x": -2.4452607143,
				"y": -0.5546918423,
				"z": 3.1765612835,
				"element": "C" 
			},
			{
				"x": -1.2883127507,
				"y": -1.1301770021,
				"z": 2.5892517318,
				"element": "C" 
			},
			{
				"x": -0.1451627545,
				"y": -0.3716666318,
				"z": 2.3670745592,
				"element": "C" 
			},
			{
				"x": -0.083672403,
				"y": 0.9976832928,
				"z": 2.6871100734,
				"element": "C" 
			},
			{
				"x": 1.1027154099,
				"y": 1.8277734438,
				"z": 2.4268823707,
				"element": "C" 
			},
			{
				"x": 1.937415735,
				"y": 1.8226220915,
				"z": 1.3632394644,
				"element": "C" 
			},
			{
				"x": 1.8160771108,
				"y": 1.0900777523,
				"z": 0.092204621,
				"element": "C" 
			},
			{
				"x": 2.9425975508,
				"y": 0.846911366,
				"z": -0.5645299216,
				"element": "N" 
			},
			{
				"x": 2.8821549075,
				"y": 0.1784634771,
				"z": -1.7497497808,
				"element": "C" 
			},
			{
				"x": 1.6595573091,
				"y": -0.2863988088,
				"z": -2.3393580639,
				"element": "C" 
			},
			{
				"x": 1.7062677044,
				"y": -0.9916174534,
				"z": -3.5689452494,
				"element": "C" 
			},
			{
				"x": 2.9227524171,
				"y": -1.2152917156,
				"z": -4.1740449453,
				"element": "C" 
			},
			{
				"x": 2.9897800114,
				"y": -2.164145985,
				"z": -5.8306290008,
				"element": "Br" 
			},
			{
				"x": 4.1366095677,
				"y": -0.7609996873,
				"z": -3.6111150302,
				"element": "C" 
			},
			{
				"x": 4.1087026817,
				"y": -0.0748771006,
				"z": -2.4198081617,
				"element": "C" 
			},
			{
				"x": 0.4548552221,
				"y": 0.0046094969,
				"z": -1.6166504058,
				"element": "C" 
			},
			{
				"x": 0.5478361331,
				"y": 0.7104875798,
				"z": -0.4396568904,
				"element": "C" 
			},
			{
				"x": -0.9014853781,
				"y": -0.4138289991,
				"z": -2.1181949151,
				"element": "C" 
			},
			{
				"x": -1.828226725,
				"y": -0.6741039054,
				"z": -1.1607681938,
				"element": "O" 
			},
			{
				"x": -1.1978320371,
				"y": -0.5192902766,
				"z": -3.2858457566,
				"element": "O" 
			},
			{
				"x": -1.2165976983,
				"y": 1.5508159525,
				"z": 3.3098746395,
				"element": "C" 
			},
			{
				"x": -2.3698847954,
				"y": 0.811940253,
				"z": 3.5394843314,
				"element": "C" 
			},
			{
				"x": -4.5932567294,
				"y": -0.2007550237,
				"z": 4.8993713673,
				"element": "H" 
			},
			{
				"x": -5.1637895623,
				"y": 0.120670813,
				"z": 3.24707651,
				"element": "H" 
			},
			{
				"x": -5.5607353798,
				"y": -1.4091215913,
				"z": 4.0511128207,
				"element": "H" 
			},
			{
				"x": -3.5554810663,
				"y": -2.6980116201,
				"z": 1.7935185996,
				"element": "H" 
			},
			{
				"x": -4.6479863388,
				"y": -3.0742728412,
				"z": 3.1374307148,
				"element": "H" 
			},
			{
				"x": -2.909486222,
				"y": -3.3092927765,
				"z": 3.3327933402,
				"element": "H" 
			},
			{
				"x": -1.2678891499,
				"y": -2.1853806391,
				"z": 2.3443052098,
				"element": "H" 
			},
			{
				"x": 0.7304862226,
				"y": -0.8579794741,
				"z": 1.9480370962,
				"element": "H" 
			},
			{
				"x": 1.3421885622,
				"y": 2.5406030461,
				"z": 3.2162386586,
				"element": "H" 
			},
			{
				"x": 2.833070299,
				"y": 2.4364390817,
				"z": 1.4169528605,
				"element": "H" 
			},
			{
				"x": 0.7863622309,
				"y": -1.3246590406,
				"z": -4.0290021888,
				"element": "H" 
			},
			{
				"x": 5.0729218708,
				"y": -0.9570184163,
				"z": -4.1209023994,
				"element": "H" 
			},
			{
				"x": 5.0184648512,
				"y": 0.2874964566,
				"z": -1.9532106823,
				"element": "H" 
			},
			{
				"x": -0.3446986076,
				"y": 1.0122897226,
				"z": 0.0933472354,
				"element": "H" 
			},
			{
				"x": -1.430008352,
				"y": -0.6714593902,
				"z": -0.2756833514,
				"element": "H" 
			},
			{
				"x": -1.2028374644,
				"y": 2.5988164579,
				"z": 3.5993707341,
				"element": "H" 
			},
			{
				"x": -3.2171664633,
				"y": 1.3020393885,
				"z": 4.0025114716,
				"element": "H" 
			}
		],
		 "valence_orbital": [ 
			{
				"type": "occ",
				"energy": -0.26507,
				"method": "rhf"
			},
			{
				"type": "occ",
				"energy": -0.26007,
				"method": "rhf"
			},
			{
				"type": "occ",
				"energy": -0.25018,
				"method": "rhf"
			},
			{
				"type": "occ",
				"energy": -0.23164,
				"method": "rhf"
			},
			{
				"type": "occ",
				"energy": -0.19782,
				"method": "rhf"
			},
			{
				"type": "unocc",
				"energy": -0.07921,
				"method": "rhf"
			},
			{
				"type": "unocc",
				"energy": -0.05353,
				"method": "rhf"
			},
			{
				"type": "unocc",
				"energy": -0.01353,
				"method": "rhf"
			},
			{
				"type": "unocc",
				"energy": -0.01264,
				"method": "rhf"
			},
			{
				"type": "unocc",
				"energy": -0.00565,
				"method": "rhf"
			}
		],
		"cosmo_sigma_profile": { 
			"-0.025": 0.0,
			"-0.024": 0.0,
			"-0.023": 0.0,
			"-0.022": 0.0,
			"-0.021": 0.0,
			"-0.02": 0.0,
			"-0.019": 0.0,
			"-0.018": 0.0,
			"-0.017": 0.0,
			"-0.016": 0.0,
			"-0.015": 0.0,
			"-0.014": 0.0,
			"-0.013": 0.0,
			"-0.012": 0.214766899885,
			"-0.011": 1.11077672903,
			"-0.01": 1.16398880726,
			"-0.009": 1.6181237837,
			"-0.008": 2.42976971484,
			"-0.007": 7.62775973504,
			"-0.006": 15.2646094481,
			"-0.005": 29.176301808,
			"-0.004": 35.0027127971,
			"-0.003": 33.1440197561,
			"-0.002": 34.0781399772,
			"-0.001": 29.6780121983,
			"0.0": 27.4835841878,
			"0.001": 31.5181527288,
			"0.002": 32.3817433167,
			"0.003": 24.7885493983,
			"0.004": 24.9124870029,
			"0.005": 15.4966193541,
			"0.006": 9.11646864429,
			"0.007": 3.94305835784,
			"0.008": 3.3529557697,
			"0.009": 5.35144435798,
			"0.01": 6.58302621159,
			"0.011": 4.44641450024,
			"0.012": 2.58619181141,
			"0.013": 1.56424054931,
			"0.014": 0.576038683539,
			"0.015": 0.101039333891,
			"0.016": 0.0,
			"0.017": 0.0,
			"0.018": 0.0,
			"0.019": 0.0,
			"0.02": 0.0,
			"0.021": 0.0,
			"0.022": 0.0,
			"0.023": 0.0,
			"0.024": 0.0,
			"0.025": 0.0
		}
	}
}
