{
	 "smiles": "CC1=C(OC2=C1C=CC=C2Cl)C(O)=O", 
	 "Tm": 503.15, 
	 "num_atms": 21, 
	 "gaussian": { 
		 "optdone": 1, 
		 "sigma_profile": "yes", 
		 "theory": "DFT", 
		 "functional": "B3LYP", 
		 "basiset": "6-31G**", 
		 "properties": { 
			 "R2extent": 3862.3393, 
			 "electric_dipole_moment_norm": 4.53521904432, 
			 "electric_quadrupole_moment_norm": 13.7672917159, 
			 "total_energy": -1071.1541389, 
			 "HOMO_LUMO_gap": 0.17294, 
			 "cosmo_polarized_energy": -11.52, 
			 "cosmo_cavitation_energy": 27.77, 
			 "cosmo_dispersion_energy": -20.42, 
			 "cosmo_repulsion_energy": 1.6, 
			 "cosmo_total_nonelectrostatic_energy": 8.95, 
			 "SMD_solvation_energy": 5.91 
		},
		"coords": [
			{
				"x": -1.7873126533,
				"y": 3.3346752316,
				"z": -0.4538923915,
				"element": "C" 
			},
			{
				"x": -1.2698435839,
				"y": 1.9461786771,
				"z": -0.6721850721,
				"element": "C" 
			},
			{
				"x": -1.281608863,
				"y": 0.9079508073,
				"z": 0.2166191671,
				"element": "C" 
			},
			{
				"x": -0.7186424986,
				"y": -0.246073213,
				"z": -0.3154547006,
				"element": "O" 
			},
			{
				"x": -0.3392897908,
				"y": 0.0740014706,
				"z": -1.5808320876,
				"element": "C" 
			},
			{
				"x": -0.651059342,
				"y": 1.416898831,
				"z": -1.8675232452,
				"element": "C" 
			},
			{
				"x": -0.3363080521,
				"y": 1.9415399805,
				"z": -3.1315940017,
				"element": "C" 
			},
			{
				"x": 0.2761374706,
				"y": 1.1051847484,
				"z": -4.0569920138,
				"element": "C" 
			},
			{
				"x": 0.5809455477,
				"y": -0.2360345186,
				"z": -3.7534462792,
				"element": "C" 
			},
			{
				"x": 0.2743999918,
				"y": -0.7679622396,
				"z": -2.5049265545,
				"element": "C" 
			},
			{
				"x": 0.6383046948,
				"y": -2.4259550466,
				"z": -2.0958384417,
				"element": "Cl" 
			},
			{
				"x": -1.7804054945,
				"y": 0.8287497967,
				"z": 1.5981842137,
				"element": "C" 
			},
			{
				"x": -1.6365320043,
				"y": -0.3702720219,
				"z": 2.2070387805,
				"element": "O" 
			},
			{
				"x": -2.2898803395,
				"y": 1.77421534,
				"z": 2.1592697087,
				"element": "O" 
			},
			{
				"x": -1.2805267672,
				"y": 3.8125737211,
				"z": 0.3892567788,
				"element": "H" 
			},
			{
				"x": -2.8525850245,
				"y": 3.3204171884,
				"z": -0.2066881091,
				"element": "H" 
			},
			{
				"x": -1.6424523375,
				"y": 3.9504786609,
				"z": -1.344602609,
				"element": "H" 
			},
			{
				"x": -0.5649107501,
				"y": 2.9727627033,
				"z": -3.3803504462,
				"element": "H" 
			},
			{
				"x": 0.5303592201,
				"y": 1.4847288695,
				"z": -5.04155273,
				"element": "H" 
			},
			{
				"x": 1.059152123,
				"y": -0.8689179911,
				"z": -4.4927619165,
				"element": "H" 
			},
			{
				"x": -1.2104415467,
				"y": -0.9985409956,
				"z": 1.60197195,
				"element": "H" 
			}
		],
		 "valence_orbital": [ 
			{
				"type": "occ",
				"energy": -0.32007,
				"method": "rhf"
			},
			{
				"type": "occ",
				"energy": -0.2966,
				"method": "rhf"
			},
			{
				"type": "occ",
				"energy": -0.28139,
				"method": "rhf"
			},
			{
				"type": "occ",
				"energy": -0.26125,
				"method": "rhf"
			},
			{
				"type": "occ",
				"energy": -0.24218,
				"method": "rhf"
			},
			{
				"type": "unocc",
				"energy": -0.06924,
				"method": "rhf"
			},
			{
				"type": "unocc",
				"energy": -0.01677,
				"method": "rhf"
			},
			{
				"type": "unocc",
				"energy": 0.00406,
				"method": "rhf"
			},
			{
				"type": "unocc",
				"energy": 0.01502,
				"method": "rhf"
			},
			{
				"type": "unocc",
				"energy": 0.08232,
				"method": "rhf"
			}
		],
		"cosmo_sigma_profile": { 
			"-0.025": 0.0,
			"-0.024": 0.0,
			"-0.023": 0.0,
			"-0.022": 0.0,
			"-0.021": 0.0,
			"-0.02": 0.0,
			"-0.019": 0.0,
			"-0.018": 0.0,
			"-0.017": 0.306126240874,
			"-0.016": 0.326532120485,
			"-0.015": 0.670115970088,
			"-0.014": 0.93338917319,
			"-0.013": 0.494878828855,
			"-0.012": 0.697179868127,
			"-0.011": 1.14984327499,
			"-0.01": 0.809653493324,
			"-0.009": 1.0879543619,
			"-0.008": 2.61986732139,
			"-0.007": 7.86754572121,
			"-0.006": 9.8602522467,
			"-0.005": 12.3127568043,
			"-0.004": 12.1630007056,
			"-0.003": 13.9642597427,
			"-0.002": 18.9312399481,
			"-0.001": 23.46554843,
			"0.0": 20.333651336,
			"0.001": 18.86695299,
			"0.002": 17.39501385,
			"0.003": 17.0810168207,
			"0.004": 14.9400002536,
			"0.005": 3.15501341109,
			"0.006": 2.46264911026,
			"0.007": 2.37509491386,
			"0.008": 3.46747117478,
			"0.009": 3.42853261999,
			"0.01": 5.22358360822,
			"0.011": 3.86319910239,
			"0.012": 3.76631242329,
			"0.013": 1.25827465771,
			"0.014": 0.0177240261952,
			"0.015": 0.0,
			"0.016": 0.0,
			"0.017": 0.0,
			"0.018": 0.0,
			"0.019": 0.0,
			"0.02": 0.0,
			"0.021": 0.0,
			"0.022": 0.0,
			"0.023": 0.0,
			"0.024": 0.0,
			"0.025": 0.0
		}
	}
}
