{
	 "smiles": "CN1CCN(CC1)C1=CC=C(CO)C=C1", 
	 "Tm": 391.15, 
	 "num_atms": 33, 
	 "gaussian": { 
		 "optdone": 1, 
		 "sigma_profile": "yes", 
		 "theory": "DFT", 
		 "functional": "B3LYP", 
		 "basiset": "6-31G**", 
		 "properties": { 
			 "R2extent": 5207.1327, 
			 "electric_dipole_moment_norm": 3.24644619392, 
			 "electric_quadrupole_moment_norm": 16.1246441251, 
			 "total_energy": -652.819917433, 
			 "HOMO_LUMO_gap": 0.18935, 
			 "cosmo_polarized_energy": -10.11, 
			 "cosmo_cavitation_energy": 33.6, 
			 "cosmo_dispersion_energy": -24.77, 
			 "cosmo_repulsion_energy": 1.93, 
			 "cosmo_total_nonelectrostatic_energy": 10.76, 
			 "SMD_solvation_energy": 1.94 
		},
		"coords": [
			{
				"x": 3.7486471767,
				"y": -1.6421673195,
				"z": 1.2659786982,
				"element": "C" 
			},
			{
				"x": 2.4681152971,
				"y": -1.8370745455,
				"z": 0.6054914533,
				"element": "N" 
			},
			{
				"x": 2.3496157442,
				"y": -1.0079951431,
				"z": -0.5940311766,
				"element": "C" 
			},
			{
				"x": 0.9008901142,
				"y": -0.9042453225,
				"z": -1.0671751179,
				"element": "C" 
			},
			{
				"x": 0.0823525182,
				"y": -0.2597684303,
				"z": -0.0449921288,
				"element": "N" 
			},
			{
				"x": 0.5226836525,
				"y": -0.4090251475,
				"z": 1.3381757761,
				"element": "C" 
			},
			{
				"x": 1.2998800246,
				"y": -1.7232058034,
				"z": 1.4928233256,
				"element": "C" 
			},
			{
				"x": -1.0690360944,
				"y": 0.4406338061,
				"z": -0.372752863,
				"element": "C" 
			},
			{
				"x": -1.6914625878,
				"y": 1.307782484,
				"z": 0.5558755182,
				"element": "C" 
			},
			{
				"x": -2.8488030842,
				"y": 2.001937881,
				"z": 0.2223170207,
				"element": "C" 
			},
			{
				"x": -3.437135221,
				"y": 1.8849863107,
				"z": -1.043930016,
				"element": "C" 
			},
			{
				"x": -4.7074817714,
				"y": 2.6346562352,
				"z": -1.380312997,
				"element": "C" 
			},
			{
				"x": -4.7389169798,
				"y": 3.9605575354,
				"z": -0.8584724408,
				"element": "O" 
			},
			{
				"x": -2.8142642668,
				"y": 1.0411125003,
				"z": -1.9684106177,
				"element": "C" 
			},
			{
				"x": -1.6637802292,
				"y": 0.3243176689,
				"z": -1.6490436963,
				"element": "C" 
			},
			{
				"x": 3.9040141281,
				"y": -0.6153655142,
				"z": 1.6519068952,
				"element": "H" 
			},
			{
				"x": 3.8507784177,
				"y": -2.3412345847,
				"z": 2.1016499402,
				"element": "H" 
			},
			{
				"x": 4.5585404751,
				"y": -1.8520814547,
				"z": 0.558408327,
				"element": "H" 
			},
			{
				"x": 2.7274081023,
				"y": 0.0193384663,
				"z": -0.4245986826,
				"element": "H" 
			},
			{
				"x": 2.9618184384,
				"y": -1.441760968,
				"z": -1.3952908446,
				"element": "H" 
			},
			{
				"x": 0.5234465021,
				"y": -1.9053576488,
				"z": -1.3331990166,
				"element": "H" 
			},
			{
				"x": 0.8810996658,
				"y": -0.2975419614,
				"z": -1.9784389771,
				"element": "H" 
			},
			{
				"x": 1.138636003,
				"y": 0.4435330842,
				"z": 1.6702686993,
				"element": "H" 
			},
			{
				"x": -0.3536096726,
				"y": -0.4458309175,
				"z": 1.9943650076,
				"element": "H" 
			},
			{
				"x": 0.6066850884,
				"y": -2.5520815097,
				"z": 1.2935699248,
				"element": "H" 
			},
			{
				"x": 1.6251298668,
				"y": -1.826020738,
				"z": 2.5329701231,
				"element": "H" 
			},
			{
				"x": -1.2533199502,
				"y": 1.4601585511,
				"z": 1.5357614274,
				"element": "H" 
			},
			{
				"x": -3.2996427049,
				"y": 2.6702725942,
				"z": 0.9508234021,
				"element": "H" 
			},
			{
				"x": -5.5815589619,
				"y": 2.1413263833,
				"z": -0.9370024404,
				"element": "H" 
			},
			{
				"x": -4.860408346,
				"y": 2.6277069879,
				"z": -2.4719003631,
				"element": "H" 
			},
			{
				"x": -3.9223006878,
				"y": 4.3937103943,
				"z": -1.1414849851,
				"element": "H" 
			},
			{
				"x": -3.2411910785,
				"y": 0.9281332486,
				"z": -2.9630844909,
				"element": "H" 
			},
			{
				"x": -1.2387295786,
				"y": -0.3415071228,
				"z": -2.3912646841,
				"element": "H" 
			}
		],
		 "valence_orbital": [ 
			{
				"type": "occ",
				"energy": -0.27878,
				"method": "rhf"
			},
			{
				"type": "occ",
				"energy": -0.25819,
				"method": "rhf"
			},
			{
				"type": "occ",
				"energy": -0.24069,
				"method": "rhf"
			},
			{
				"type": "occ",
				"energy": -0.20962,
				"method": "rhf"
			},
			{
				"type": "occ",
				"energy": -0.18289,
				"method": "rhf"
			},
			{
				"type": "unocc",
				"energy": 0.00646,
				"method": "rhf"
			},
			{
				"type": "unocc",
				"energy": 0.01816,
				"method": "rhf"
			},
			{
				"type": "unocc",
				"energy": 0.07235,
				"method": "rhf"
			},
			{
				"type": "unocc",
				"energy": 0.09894,
				"method": "rhf"
			},
			{
				"type": "unocc",
				"energy": 0.10445,
				"method": "rhf"
			}
		],
		"cosmo_sigma_profile": { 
			"-0.025": 0.0,
			"-0.024": 0.0,
			"-0.023": 0.0,
			"-0.022": 0.0,
			"-0.021": 0.0,
			"-0.02": 0.0,
			"-0.019": 0.0,
			"-0.018": 0.0,
			"-0.017": 0.0,
			"-0.016": 0.0,
			"-0.015": 0.384697874634,
			"-0.014": 0.922735058275,
			"-0.013": 0.911881923875,
			"-0.012": 0.601506717204,
			"-0.011": 0.54643793624,
			"-0.01": 0.993868468255,
			"-0.009": 0.38921306459,
			"-0.008": 0.797411342149,
			"-0.007": 1.24332052309,
			"-0.006": 0.997898896202,
			"-0.005": 10.0392916734,
			"-0.004": 26.5090654212,
			"-0.003": 38.0239306084,
			"-0.002": 42.5239306407,
			"-0.001": 28.8509519008,
			"0.0": 22.7077213356,
			"0.001": 11.5592965835,
			"0.002": 9.18423467715,
			"0.003": 10.1195251531,
			"0.004": 8.80845874811,
			"0.005": 10.3375942932,
			"0.006": 9.3439342158,
			"0.007": 9.60133375245,
			"0.008": 3.09248662395,
			"0.009": 1.84820967088,
			"0.01": 1.62983623995,
			"0.011": 1.89622045392,
			"0.012": 1.5337253823,
			"0.013": 2.45465026927,
			"0.014": 2.27144645511,
			"0.015": 1.30605796643,
			"0.016": 0.578142684238,
			"0.017": 0.00927604498729,
			"0.018": 0.0,
			"0.019": 0.0,
			"0.02": 0.0,
			"0.021": 0.0,
			"0.022": 0.0,
			"0.023": 0.0,
			"0.024": 0.0,
			"0.025": 0.0
		}
	}
}
