{
	 "smiles": "CC(=O)O[C@@H]1CCC2(C)C(CCC3C4CC[C@@](O)(C=CC5=CC=CC=C5)C4(C)CCC23)C1", 
	 "Tm": 435.15, 
	 "num_atms": 72, 
	 "gaussian": { 
		 "optdone": 1, 
		 "sigma_profile": "yes", 
		 "theory": "DFT", 
		 "functional": "B3LYP", 
		 "basiset": "6-31G**", 
		 "properties": { 
			 "R2extent": 18243.8075, 
			 "electric_dipole_moment_norm": 2.29688351903, 
			 "electric_quadrupole_moment_norm": 21.3508508133, 
			 "total_energy": -1354.87045747, 
			 "HOMO_LUMO_gap": 0.19158, 
			 "cosmo_polarized_energy": -12.86, 
			 "cosmo_cavitation_energy": 63.13, 
			 "cosmo_dispersion_energy": -42.61, 
			 "cosmo_repulsion_energy": 3.16, 
			 "cosmo_total_nonelectrostatic_energy": 23.68, 
			 "SMD_solvation_energy": 9.94 
		},
		"coords": [
			{
				"x": 2.3643864119,
				"y": 6.5594070306,
				"z": -1.4236314763,
				"element": "C" 
			},
			{
				"x": 3.2420179436,
				"y": 5.4196905893,
				"z": -0.9581008388,
				"element": "C" 
			},
			{
				"x": 4.354640839,
				"y": 5.5412508921,
				"z": -0.4914142049,
				"element": "O" 
			},
			{
				"x": 2.618060588,
				"y": 4.2330898687,
				"z": -1.1367826879,
				"element": "O" 
			},
			{
				"x": 3.3524334191,
				"y": 3.0349572282,
				"z": -0.7508079454,
				"element": "C" 
			},
			{
				"x": 2.7932560623,
				"y": 1.903274483,
				"z": -1.6232005574,
				"element": "C" 
			},
			{
				"x": 3.0693056916,
				"y": 0.5342403989,
				"z": -0.9877489438,
				"element": "C" 
			},
			{
				"x": 2.3912940517,
				"y": 0.3358488992,
				"z": 0.4116878695,
				"element": "C" 
			},
			{
				"x": 3.3919635098,
				"y": -0.451923693,
				"z": 1.2876487972,
				"element": "C" 
			},
			{
				"x": 2.0540202763,
				"y": 1.7373775285,
				"z": 1.004968998,
				"element": "C" 
			},
			{
				"x": 1.6006476677,
				"y": 1.6471973931,
				"z": 2.469095808,
				"element": "C" 
			},
			{
				"x": 0.6699322941,
				"y": 0.4354742068,
				"z": 2.7129155045,
				"element": "C" 
			},
			{
				"x": 0.0055906379,
				"y": -0.1287344551,
				"z": 1.4335529525,
				"element": "C" 
			},
			{
				"x": -0.856206824,
				"y": -1.3597127685,
				"z": 1.8463683357,
				"element": "C" 
			},
			{
				"x": -2.2009508649,
				"y": -0.9312506878,
				"z": 2.522956155,
				"element": "C" 
			},
			{
				"x": -3.3363406239,
				"y": -1.6423259799,
				"z": 1.7586654928,
				"element": "C" 
			},
			{
				"x": -2.7413132545,
				"y": -2.0077338762,
				"z": 0.3691350873,
				"element": "C" 
			},
			{
				"x": -3.3858180418,
				"y": -3.1450167776,
				"z": -0.194017523,
				"element": "O" 
			},
			{
				"x": -2.8369656014,
				"y": -0.782295051,
				"z": -0.5168207155,
				"element": "C" 
			},
			{
				"x": -3.2421607214,
				"y": -0.5872499719,
				"z": -1.7884653504,
				"element": "C" 
			},
			{
				"x": -3.6498480907,
				"y": -1.4796204502,
				"z": -2.89589507,
				"element": "C" 
			},
			{
				"x": -4.516644242,
				"y": -0.9385576045,
				"z": -3.8669011867,
				"element": "C" 
			},
			{
				"x": -4.9354485313,
				"y": -1.6845078619,
				"z": -4.9657579345,
				"element": "C" 
			},
			{
				"x": -4.4784212454,
				"y": -2.992942238,
				"z": -5.1354667694,
				"element": "C" 
			},
			{
				"x": -3.5996615319,
				"y": -3.53797191,
				"z": -4.1974630824,
				"element": "C" 
			},
			{
				"x": -3.1856420805,
				"y": -2.7945079685,
				"z": -3.0924854995,
				"element": "C" 
			},
			{
				"x": -1.2565703913,
				"y": -2.3948580909,
				"z": 0.7374263358,
				"element": "C" 
			},
			{
				"x": -1.2432385445,
				"y": -3.8022417652,
				"z": 1.3812107094,
				"element": "C" 
			},
			{
				"x": -0.2786700566,
				"y": -2.4179938217,
				"z": -0.46241838,
				"element": "C" 
			},
			{
				"x": 1.1116949777,
				"y": -1.9003564719,
				"z": -0.0719764301,
				"element": "C" 
			},
			{
				"x": 1.0201322554,
				"y": -0.4022368691,
				"z": 0.2567444421,
				"element": "C" 
			},
			{
				"x": 3.1768916739,
				"y": 2.7498768967,
				"z": 0.7576470284,
				"element": "C" 
			},
			{
				"x": 1.4179394028,
				"y": 6.553364109,
				"z": -0.8748844103,
				"element": "H" 
			},
			{
				"x": 2.8817043784,
				"y": 7.5048128514,
				"z": -1.2632492136,
				"element": "H" 
			},
			{
				"x": 2.125395872,
				"y": 6.4397848507,
				"z": -2.4845660471,
				"element": "H" 
			},
			{
				"x": 4.4071417656,
				"y": 3.2184533569,
				"z": -0.9691063085,
				"element": "H" 
			},
			{
				"x": 3.2283515024,
				"y": 1.9576817817,
				"z": -2.6268079855,
				"element": "H" 
			},
			{
				"x": 1.7151423064,
				"y": 2.0570205566,
				"z": -1.7462120795,
				"element": "H" 
			},
			{
				"x": 2.7566527922,
				"y": -0.2590146554,
				"z": -1.6752579003,
				"element": "H" 
			},
			{
				"x": 4.1558182684,
				"y": 0.4192148734,
				"z": -0.8802526262,
				"element": "H" 
			},
			{
				"x": 2.9820392658,
				"y": -0.7620589277,
				"z": 2.2506401415,
				"element": "H" 
			},
			{
				"x": 3.7197024269,
				"y": -1.3575803514,
				"z": 0.7669736674,
				"element": "H" 
			},
			{
				"x": 4.2900529765,
				"y": 0.143133114,
				"z": 1.4860705187,
				"element": "H" 
			},
			{
				"x": 1.185181981,
				"y": 2.1027846526,
				"z": 0.4389761028,
				"element": "H" 
			},
			{
				"x": 2.472146144,
				"y": 1.5820465678,
				"z": 3.1326278797,
				"element": "H" 
			},
			{
				"x": 1.0916458683,
				"y": 2.5824097853,
				"z": 2.7330158882,
				"element": "H" 
			},
			{
				"x": 1.2305349712,
				"y": -0.373701939,
				"z": 3.1948086849,
				"element": "H" 
			},
			{
				"x": -0.1154670748,
				"y": 0.7058349774,
				"z": 3.4282923524,
				"element": "H" 
			},
			{
				"x": -0.6815472124,
				"y": 0.6475052778,
				"z": 1.0723166693,
				"element": "H" 
			},
			{
				"x": -0.2529011867,
				"y": -1.9106737061,
				"z": 2.5775076879,
				"element": "H" 
			},
			{
				"x": -2.2244221063,
				"y": -1.1792965417,
				"z": 3.5883938469,
				"element": "H" 
			},
			{
				"x": -2.3189664407,
				"y": 0.1568171615,
				"z": 2.4617795127,
				"element": "H" 
			},
			{
				"x": -3.6253938485,
				"y": -2.5774382498,
				"z": 2.2455419327,
				"element": "H" 
			},
			{
				"x": -4.2397733125,
				"y": -1.0291114083,
				"z": 1.6733695489,
				"element": "H" 
			},
			{
				"x": -4.2180269566,
				"y": -2.8534163478,
				"z": -0.5886954961,
				"element": "H" 
			},
			{
				"x": -2.6018653523,
				"y": 0.1344133901,
				"z": 0.0215492024,
				"element": "H" 
			},
			{
				"x": -3.3085507562,
				"y": 0.4631007543,
				"z": -2.0744768587,
				"element": "H" 
			},
			{
				"x": -4.8682575071,
				"y": 0.0835295808,
				"z": -3.7477925674,
				"element": "H" 
			},
			{
				"x": -5.6118710138,
				"y": -1.2426813264,
				"z": -5.6920890146,
				"element": "H" 
			},
			{
				"x": -4.7957359148,
				"y": -3.5775418999,
				"z": -5.9942263171,
				"element": "H" 
			},
			{
				"x": -3.2256065756,
				"y": -4.5496950362,
				"z": -4.3281236984,
				"element": "H" 
			},
			{
				"x": -2.5079798825,
				"y": -3.2351033453,
				"z": -2.3737730159,
				"element": "H" 
			},
			{
				"x": -1.6675088791,
				"y": -4.5451541396,
				"z": 0.7029900413,
				"element": "H" 
			},
			{
				"x": -1.8030954862,
				"y": -3.842654568,
				"z": 2.3203050932,
				"element": "H" 
			},
			{
				"x": -0.2088675675,
				"y": -4.0864072662,
				"z": 1.6057527704,
				"element": "H" 
			},
			{
				"x": -0.6565277693,
				"y": -1.7932379402,
				"z": -1.2794011786,
				"element": "H" 
			},
			{
				"x": -0.2105698596,
				"y": -3.4382870941,
				"z": -0.8573734643,
				"element": "H" 
			},
			{
				"x": 1.5070167296,
				"y": -2.4706266648,
				"z": 0.7786397069,
				"element": "H" 
			},
			{
				"x": 1.8097228619,
				"y": -2.0644348106,
				"z": -0.9013800522,
				"element": "H" 
			},
			{
				"x": 0.5607100884,
				"y": 0.0552631566,
				"z": -0.6324108368,
				"element": "H" 
			},
			{
				"x": 2.9798144443,
				"y": 3.6917917485,
				"z": 1.2794887947,
				"element": "H" 
			},
			{
				"x": 4.1236530022,
				"y": 2.3743065698,
				"z": 1.164670108,
				"element": "H" 
			}
		],
		 "valence_orbital": [ 
			{
				"type": "occ",
				"energy": -0.26803,
				"method": "rhf"
			},
			{
				"type": "occ",
				"energy": -0.26205,
				"method": "rhf"
			},
			{
				"type": "occ",
				"energy": -0.25789,
				"method": "rhf"
			},
			{
				"type": "occ",
				"energy": -0.24667,
				"method": "rhf"
			},
			{
				"type": "occ",
				"energy": -0.22165,
				"method": "rhf"
			},
			{
				"type": "unocc",
				"energy": -0.03007,
				"method": "rhf"
			},
			{
				"type": "unocc",
				"energy": 0.00036,
				"method": "rhf"
			},
			{
				"type": "unocc",
				"energy": 0.01826,
				"method": "rhf"
			},
			{
				"type": "unocc",
				"energy": 0.04919,
				"method": "rhf"
			},
			{
				"type": "unocc",
				"energy": 0.062,
				"method": "rhf"
			}
		],
		"cosmo_sigma_profile": { 
			"-0.025": 0.0,
			"-0.024": 0.0,
			"-0.023": 0.0,
			"-0.022": 0.0,
			"-0.021": 0.0,
			"-0.02": 0.0,
			"-0.019": 0.0,
			"-0.018": 0.0,
			"-0.017": 0.0,
			"-0.016": 0.0,
			"-0.015": 0.0,
			"-0.014": 0.117269279467,
			"-0.013": 0.434125933148,
			"-0.012": 0.84018641433,
			"-0.011": 0.407139954874,
			"-0.01": 0.563664585393,
			"-0.009": 0.87395669319,
			"-0.008": 0.603687505687,
			"-0.007": 1.39993376924,
			"-0.006": 7.10246716622,
			"-0.005": 18.2001210154,
			"-0.004": 26.2531456944,
			"-0.003": 46.1460478852,
			"-0.002": 69.6086518893,
			"-0.001": 77.3770469157,
			"0.0": 68.9486742207,
			"0.001": 50.8794603665,
			"0.002": 30.4878829447,
			"0.003": 17.7739366255,
			"0.004": 16.5190653659,
			"0.005": 14.841217157,
			"0.006": 11.9278257296,
			"0.007": 4.50179306749,
			"0.008": 4.16447089873,
			"0.009": 4.19599616108,
			"0.01": 2.63572890955,
			"0.011": 3.13216679183,
			"0.012": 5.72016199446,
			"0.013": 2.70289547656,
			"0.014": 0.112177751876,
			"0.015": 0.0,
			"0.016": 0.0,
			"0.017": 0.0,
			"0.018": 0.0,
			"0.019": 0.0,
			"0.02": 0.0,
			"0.021": 0.0,
			"0.022": 0.0,
			"0.023": 0.0,
			"0.024": 0.0,
			"0.025": 0.0
		}
	}
}
