{
	 "smiles": "O=S(=O)(NC1=NCCN1)C1=CC=CS1", 
	 "Tm": 447.15, 
	 "num_atms": 23, 
	 "gaussian": { 
		 "optdone": 1, 
		 "sigma_profile": "yes", 
		 "theory": "DFT", 
		 "functional": "B3LYP", 
		 "basiset": "6-31G**", 
		 "properties": { 
			 "R2extent": 3983.735, 
			 "electric_dipole_moment_norm": 4.05528858899, 
			 "electric_quadrupole_moment_norm": 20.3682649045, 
			 "total_energy": -1383.14469614, 
			 "HOMO_LUMO_gap": 0.16617, 
			 "cosmo_polarized_energy": -15.63, 
			 "cosmo_cavitation_energy": 29.47, 
			 "cosmo_dispersion_energy": -22.59, 
			 "cosmo_repulsion_energy": 1.7, 
			 "cosmo_total_nonelectrostatic_energy": 8.58, 
			 "SMD_solvation_energy": 0.22 
		},
		"coords": [
			{
				"x": -0.6763481449,
				"y": -0.3766504627,
				"z": 2.6464729992,
				"element": "O" 
			},
			{
				"x": 0.2796111527,
				"y": -0.7702038863,
				"z": 1.6172726594,
				"element": "S" 
			},
			{
				"x": 1.7095116666,
				"y": -0.9317255557,
				"z": 1.8813333534,
				"element": "O" 
			},
			{
				"x": 0.1497826371,
				"y": 0.4371244007,
				"z": 0.4451944461,
				"element": "N" 
			},
			{
				"x": 0.8998383246,
				"y": 0.5227783564,
				"z": -0.7346094624,
				"element": "C" 
			},
			{
				"x": 0.4702227629,
				"y": 1.1728728039,
				"z": -1.7514620514,
				"element": "N" 
			},
			{
				"x": 1.5380377613,
				"y": 1.0654452968,
				"z": -2.760172942,
				"element": "C" 
			},
			{
				"x": 2.7689834101,
				"y": 0.4623645357,
				"z": -2.0213643598,
				"element": "C" 
			},
			{
				"x": 2.1314255202,
				"y": -0.1094346755,
				"z": -0.8236165183,
				"element": "N" 
			},
			{
				"x": -0.3211931904,
				"y": -2.2729492388,
				"z": 0.9035942205,
				"element": "C" 
			},
			{
				"x": -1.5609564259,
				"y": -2.8080129274,
				"z": 1.1571327182,
				"element": "C" 
			},
			{
				"x": -1.7676474076,
				"y": -4.0322680093,
				"z": 0.4634489712,
				"element": "C" 
			},
			{
				"x": -0.683976415,
				"y": -4.3962361343,
				"z": -0.2932483562,
				"element": "C" 
			},
			{
				"x": 0.6158277071,
				"y": -3.2615017365,
				"z": -0.1821938736,
				"element": "S" 
			},
			{
				"x": -0.7804209107,
				"y": 0.8350008336,
				"z": 0.3663122615,
				"element": "H" 
			},
			{
				"x": 1.755886802,
				"y": 2.0415234845,
				"z": -3.2048612561,
				"element": "H" 
			},
			{
				"x": 1.202362614,
				"y": 0.4056880914,
				"z": -3.5715006175,
				"element": "H" 
			},
			{
				"x": 3.4964220504,
				"y": 1.2384704233,
				"z": -1.7469439218,
				"element": "H" 
			},
			{
				"x": 3.2869014882,
				"y": -0.3062240467,
				"z": -2.6015189055,
				"element": "H" 
			},
			{
				"x": 2.6652349223,
				"y": -0.2061092654,
				"z": 0.0324055777,
				"element": "H" 
			},
			{
				"x": -2.2731712165,
				"y": -2.3400257225,
				"z": 1.8251862436,
				"element": "H" 
			},
			{
				"x": -2.6768905005,
				"y": -4.6179451247,
				"z": 0.5287935137,
				"element": "H" 
			},
			{
				"x": -0.5705446081,
				"y": -5.2741814402,
				"z": -0.9152547001,
				"element": "H" 
			}
		],
		 "valence_orbital": [ 
			{
				"type": "occ",
				"energy": -0.29332,
				"method": "rhf"
			},
			{
				"type": "occ",
				"energy": -0.2755,
				"method": "rhf"
			},
			{
				"type": "occ",
				"energy": -0.26985,
				"method": "rhf"
			},
			{
				"type": "occ",
				"energy": -0.26111,
				"method": "rhf"
			},
			{
				"type": "occ",
				"energy": -0.22127,
				"method": "rhf"
			},
			{
				"type": "unocc",
				"energy": -0.0551,
				"method": "rhf"
			},
			{
				"type": "unocc",
				"energy": 0.00921,
				"method": "rhf"
			},
			{
				"type": "unocc",
				"energy": 0.02412,
				"method": "rhf"
			},
			{
				"type": "unocc",
				"energy": 0.03539,
				"method": "rhf"
			},
			{
				"type": "unocc",
				"energy": 0.05405,
				"method": "rhf"
			}
		],
		"cosmo_sigma_profile": { 
			"-0.025": 0.0,
			"-0.024": 0.0,
			"-0.023": 0.0,
			"-0.022": 0.0,
			"-0.021": 0.0,
			"-0.02": 0.0,
			"-0.019": 0.0,
			"-0.018": 0.0,
			"-0.017": 0.197191622715,
			"-0.016": 0.565825053793,
			"-0.015": 1.04778669289,
			"-0.014": 0.943946002326,
			"-0.013": 0.564247625766,
			"-0.012": 0.522041604663,
			"-0.011": 1.75333123144,
			"-0.01": 3.48969812424,
			"-0.009": 4.19736335922,
			"-0.008": 6.16955612086,
			"-0.007": 7.52225088393,
			"-0.006": 7.91072417904,
			"-0.005": 12.4395628317,
			"-0.004": 20.53104477,
			"-0.003": 18.4922935816,
			"-0.002": 17.4607420929,
			"-0.001": 14.202749715,
			"0.0": 13.1051723271,
			"0.001": 18.0543752116,
			"0.002": 19.5027698007,
			"0.003": 13.7645887165,
			"0.004": 8.05454840333,
			"0.005": 6.45761787113,
			"0.006": 4.7457067151,
			"0.007": 5.83560039325,
			"0.008": 3.89213729684,
			"0.009": 7.99552370874,
			"0.01": 9.13920531621,
			"0.011": 2.24200083744,
			"0.012": 1.19265944975,
			"0.013": 0.810169184898,
			"0.014": 1.37550131019,
			"0.015": 0.770319354963,
			"0.016": 1.09417608172,
			"0.017": 0.824448610812,
			"0.018": 0.365676760631,
			"0.019": 0.0,
			"0.02": 0.0,
			"0.021": 0.0,
			"0.022": 0.0,
			"0.023": 0.0,
			"0.024": 0.0,
			"0.025": 0.0
		}
	}
}
