{
	 "smiles": "COC1=C(C=C(Cl)C(NC(=O)OC(C)(C)C)=C1)C(O)=O", 
	 "Tm": 429.15, 
	 "num_atms": 36, 
	 "gaussian": { 
		 "optdone": 1, 
		 "sigma_profile": "yes", 
		 "theory": "DFT", 
		 "functional": "B3LYP", 
		 "basiset": "6-31G**", 
		 "properties": { 
			 "R2extent": 8874.8302, 
			 "electric_dipole_moment_norm": 8.99129819214, 
			 "electric_quadrupole_moment_norm": 38.008793599, 
			 "total_energy": -1396.12540939, 
			 "HOMO_LUMO_gap": 0.18342, 
			 "cosmo_polarized_energy": -23.17, 
			 "cosmo_cavitation_energy": 41.37, 
			 "cosmo_dispersion_energy": -29.04, 
			 "cosmo_repulsion_energy": 2.25, 
			 "cosmo_total_nonelectrostatic_energy": 14.58, 
			 "SMD_solvation_energy": 9.73 
		},
		"coords": [
			{
				"x": -0.7025903451,
				"y": 4.5829394354,
				"z": 1.7863038715,
				"element": "C" 
			},
			{
				"x": -1.3971592845,
				"y": 3.5992115221,
				"z": 2.5496514808,
				"element": "O" 
			},
			{
				"x": -1.3808148552,
				"y": 2.2863051768,
				"z": 2.1474964842,
				"element": "C" 
			},
			{
				"x": -2.0678007504,
				"y": 1.3532724449,
				"z": 2.9544854033,
				"element": "C" 
			},
			{
				"x": -2.0659396073,
				"y": 0.0143499601,
				"z": 2.5550481395,
				"element": "C" 
			},
			{
				"x": -1.4167933389,
				"y": -0.4113260301,
				"z": 1.4017148466,
				"element": "C" 
			},
			{
				"x": -1.5653822248,
				"y": -2.0838004361,
				"z": 0.9220146988,
				"element": "Cl" 
			},
			{
				"x": -0.7081977713,
				"y": 0.5135485387,
				"z": 0.6174102435,
				"element": "C" 
			},
			{
				"x": -0.047137336,
				"y": 0.1512007655,
				"z": -0.573956196,
				"element": "N" 
			},
			{
				"x": 1.0358577939,
				"y": -0.7157220227,
				"z": -0.6198479287,
				"element": "C" 
			},
			{
				"x": 1.4794608421,
				"y": -1.3129418995,
				"z": 0.3383833977,
				"element": "O" 
			},
			{
				"x": 1.4842943922,
				"y": -0.7553329767,
				"z": -1.893639415,
				"element": "O" 
			},
			{
				"x": 2.6301996806,
				"y": -1.6093334268,
				"z": -2.262839729,
				"element": "C" 
			},
			{
				"x": 3.8838902216,
				"y": -1.1561367302,
				"z": -1.5078990002,
				"element": "C" 
			},
			{
				"x": 2.2888331105,
				"y": -3.0787161339,
				"z": -1.9973611784,
				"element": "C" 
			},
			{
				"x": 2.7700945448,
				"y": -1.343052092,
				"z": -3.7634081014,
				"element": "C" 
			},
			{
				"x": -0.7064397484,
				"y": 1.8612158885,
				"z": 1.0039301407,
				"element": "C" 
			},
			{
				"x": -2.832097529,
				"y": 1.6628212381,
				"z": 4.2196567781,
				"element": "C" 
			},
			{
				"x": -2.8595698018,
				"y": 2.9407618005,
				"z": 4.640357049,
				"element": "O" 
			},
			{
				"x": -3.4050274858,
				"y": 0.7953679514,
				"z": 4.8414949034,
				"element": "O" 
			},
			{
				"x": -0.8669418248,
				"y": 5.5295294509,
				"z": 2.3011994369,
				"element": "H" 
			},
			{
				"x": -1.1033578908,
				"y": 4.6465018294,
				"z": 0.7686238162,
				"element": "H" 
			},
			{
				"x": 0.3709217361,
				"y": 4.3674856027,
				"z": 1.7503738709,
				"element": "H" 
			},
			{
				"x": -2.6142666918,
				"y": -0.6893447565,
				"z": 3.170189233,
				"element": "H" 
			},
			{
				"x": -0.1720489813,
				"y": 0.7402608584,
				"z": -1.3848046185,
				"element": "H" 
			},
			{
				"x": 4.7512755368,
				"y": -1.7174846467,
				"z": -1.8697238316,
				"element": "H" 
			},
			{
				"x": 4.0717140912,
				"y": -0.0921915118,
				"z": -1.6848831309,
				"element": "H" 
			},
			{
				"x": 3.7790202355,
				"y": -1.3247941781,
				"z": -0.435885968,
				"element": "H" 
			},
			{
				"x": 1.3653589846,
				"y": -3.3541107406,
				"z": -2.5160520027,
				"element": "H" 
			},
			{
				"x": 3.094788183,
				"y": -3.7154200005,
				"z": -2.3762460154,
				"element": "H" 
			},
			{
				"x": 2.1643438656,
				"y": -3.2662029788,
				"z": -0.9306011073,
				"element": "H" 
			},
			{
				"x": 2.9684304775,
				"y": -0.283868587,
				"z": -3.9524323207,
				"element": "H" 
			},
			{
				"x": 3.5994335021,
				"y": -1.9281337446,
				"z": -4.1714190028,
				"element": "H" 
			},
			{
				"x": 1.8549730068,
				"y": -1.6235162059,
				"z": -4.2927889513,
				"element": "H" 
			},
			{
				"x": -0.1418099246,
				"y": 2.5602266957,
				"z": 0.3994900087,
				"element": "H" 
			},
			{
				"x": -2.3509148131,
				"y": 3.5016299394,
				"z": 4.026364695,
				"element": "H" 
			}
		],
		 "valence_orbital": [ 
			{
				"type": "occ",
				"energy": -0.29359,
				"method": "rhf"
			},
			{
				"type": "occ",
				"energy": -0.2754,
				"method": "rhf"
			},
			{
				"type": "occ",
				"energy": -0.26674,
				"method": "rhf"
			},
			{
				"type": "occ",
				"energy": -0.26086,
				"method": "rhf"
			},
			{
				"type": "occ",
				"energy": -0.2389,
				"method": "rhf"
			},
			{
				"type": "unocc",
				"energy": -0.05548,
				"method": "rhf"
			},
			{
				"type": "unocc",
				"energy": -0.01881,
				"method": "rhf"
			},
			{
				"type": "unocc",
				"energy": 0.02982,
				"method": "rhf"
			},
			{
				"type": "unocc",
				"energy": 0.03612,
				"method": "rhf"
			},
			{
				"type": "unocc",
				"energy": 0.05691,
				"method": "rhf"
			}
		],
		"cosmo_sigma_profile": { 
			"-0.025": 0.0,
			"-0.024": 0.0,
			"-0.023": 0.0,
			"-0.022": 0.0,
			"-0.021": 0.0,
			"-0.02": 0.0,
			"-0.019": 0.0,
			"-0.018": 0.0,
			"-0.017": 0.0,
			"-0.016": 0.212091424248,
			"-0.015": 0.962326359038,
			"-0.014": 1.33473603628,
			"-0.013": 0.92143815564,
			"-0.012": 0.981370059676,
			"-0.011": 1.56944984614,
			"-0.01": 1.37571890606,
			"-0.009": 3.37811381649,
			"-0.008": 5.46692967308,
			"-0.007": 9.76706895965,
			"-0.006": 13.3088699341,
			"-0.005": 14.2928119708,
			"-0.004": 27.107166233,
			"-0.003": 24.5187187597,
			"-0.002": 25.3271062305,
			"-0.001": 31.0780914175,
			"0.0": 39.8555504275,
			"0.001": 30.8847958194,
			"0.002": 14.3974073179,
			"0.003": 12.5475305323,
			"0.004": 13.8311463363,
			"0.005": 9.54025783295,
			"0.006": 6.24735025565,
			"0.007": 5.05764940808,
			"0.008": 4.36803473548,
			"0.009": 4.88616465293,
			"0.01": 5.91372239844,
			"0.011": 7.96807831913,
			"0.012": 7.9697034801,
			"0.013": 3.8122597584,
			"0.014": 0.337690334607,
			"0.015": 0.0,
			"0.016": 0.0,
			"0.017": 0.0,
			"0.018": 0.0,
			"0.019": 0.0,
			"0.02": 0.0,
			"0.021": 0.0,
			"0.022": 0.0,
			"0.023": 0.0,
			"0.024": 0.0,
			"0.025": 0.0
		}
	}
}
