{
	 "smiles": "NC(=O)NCCC1=CC=CS1", 
	 "Tm": 366.15, 
	 "num_atms": 21, 
	 "gaussian": { 
		 "optdone": 1, 
		 "sigma_profile": "yes", 
		 "theory": "DFT", 
		 "functional": "B3LYP", 
		 "basiset": "6-31G**", 
		 "properties": { 
			 "R2extent": 2626.119, 
			 "electric_dipole_moment_norm": 2.9391494569, 
			 "electric_quadrupole_moment_norm": 17.7862665487, 
			 "total_energy": -855.698971308, 
			 "HOMO_LUMO_gap": 0.21514, 
			 "cosmo_polarized_energy": -14.75, 
			 "cosmo_cavitation_energy": 26.12, 
			 "cosmo_dispersion_energy": -19.24, 
			 "cosmo_repulsion_energy": 1.51, 
			 "cosmo_total_nonelectrostatic_energy": 8.4, 
			 "SMD_solvation_energy": 3.94 
		},
		"coords": [
			{
				"x": 2.9889035645,
				"y": 1.7421653297,
				"z": -0.7950510978,
				"element": "N" 
			},
			{
				"x": 1.6419624206,
				"y": 1.9709628737,
				"z": -0.544537675,
				"element": "C" 
			},
			{
				"x": 1.2488318613,
				"y": 2.5077690616,
				"z": 0.4837079671,
				"element": "O" 
			},
			{
				"x": 0.7692416684,
				"y": 1.5377636749,
				"z": -1.5348687445,
				"element": "N" 
			},
			{
				"x": 1.0051109733,
				"y": 0.3522858557,
				"z": -2.3534872254,
				"element": "C" 
			},
			{
				"x": 0.9784018519,
				"y": -0.9777700952,
				"z": -1.5599419171,
				"element": "C" 
			},
			{
				"x": -0.3393291918,
				"y": -1.2387119558,
				"z": -0.8841287675,
				"element": "C" 
			},
			{
				"x": -0.8188812455,
				"y": -0.7049072722,
				"z": 0.2866528002,
				"element": "C" 
			},
			{
				"x": -2.1478964231,
				"y": -1.1264151505,
				"z": 0.6017816868,
				"element": "C" 
			},
			{
				"x": -2.6724580907,
				"y": -1.9754242938,
				"z": -0.3319853641,
				"element": "C" 
			},
			{
				"x": -1.5441063625,
				"y": -2.2744811277,
				"z": -1.6162059974,
				"element": "S" 
			},
			{
				"x": 3.301550259,
				"y": 1.7601743993,
				"z": -1.755886735,
				"element": "H" 
			},
			{
				"x": 3.5839926357,
				"y": 2.2483039098,
				"z": -0.1542368592,
				"element": "H" 
			},
			{
				"x": -0.1832195295,
				"y": 1.6236532121,
				"z": -1.2008704319,
				"element": "H" 
			},
			{
				"x": 0.2377712034,
				"y": 0.3357478436,
				"z": -3.1339910749,
				"element": "H" 
			},
			{
				"x": 1.967936134,
				"y": 0.4445987977,
				"z": -2.8666739719,
				"element": "H" 
			},
			{
				"x": 1.7724369441,
				"y": -0.9413020345,
				"z": -0.8056297549,
				"element": "H" 
			},
			{
				"x": 1.2294699046,
				"y": -1.7968319729,
				"z": -2.2441123782,
				"element": "H" 
			},
			{
				"x": -0.2389834189,
				"y": -0.025524427,
				"z": 0.9033124359,
				"element": "H" 
			},
			{
				"x": -2.6845141332,
				"y": -0.8120367099,
				"z": 1.4898868688,
				"element": "H" 
			},
			{
				"x": -3.6430210257,
				"y": -2.4515199186,
				"z": -0.340633764,
				"element": "H" 
			}
		],
		 "valence_orbital": [ 
			{
				"type": "occ",
				"energy": -0.27438,
				"method": "rhf"
			},
			{
				"type": "occ",
				"energy": -0.2631,
				"method": "rhf"
			},
			{
				"type": "occ",
				"energy": -0.24814,
				"method": "rhf"
			},
			{
				"type": "occ",
				"energy": -0.24569,
				"method": "rhf"
			},
			{
				"type": "occ",
				"energy": -0.22582,
				"method": "rhf"
			},
			{
				"type": "unocc",
				"energy": -0.01068,
				"method": "rhf"
			},
			{
				"type": "unocc",
				"energy": 0.02774,
				"method": "rhf"
			},
			{
				"type": "unocc",
				"energy": 0.04663,
				"method": "rhf"
			},
			{
				"type": "unocc",
				"energy": 0.06477,
				"method": "rhf"
			},
			{
				"type": "unocc",
				"energy": 0.07001,
				"method": "rhf"
			}
		],
		"cosmo_sigma_profile": { 
			"-0.025": 0.0,
			"-0.024": 0.0,
			"-0.023": 0.0,
			"-0.022": 0.0,
			"-0.021": 0.0,
			"-0.02": 0.0,
			"-0.019": 0.0,
			"-0.018": 0.0,
			"-0.017": 0.0,
			"-0.016": 0.0,
			"-0.015": 0.0,
			"-0.014": 0.502295759929,
			"-0.013": 2.33763773579,
			"-0.012": 2.31327143775,
			"-0.011": 3.19699899682,
			"-0.01": 2.99598094621,
			"-0.009": 2.99906447597,
			"-0.008": 4.56122486618,
			"-0.007": 5.42754264379,
			"-0.006": 7.89332375979,
			"-0.005": 13.4777565145,
			"-0.004": 16.0321241699,
			"-0.003": 17.8387580838,
			"-0.002": 13.9290186285,
			"-0.001": 11.1093508666,
			"0.0": 11.5660030286,
			"0.001": 10.4294299534,
			"0.002": 11.0814585452,
			"0.003": 12.3213096647,
			"0.004": 13.5247893075,
			"0.005": 14.8745085931,
			"0.006": 7.3114700645,
			"0.007": 2.7421956763,
			"0.008": 2.04883441798,
			"0.009": 2.59219544337,
			"0.01": 2.27060667533,
			"0.011": 1.2966033577,
			"0.012": 1.44628873604,
			"0.013": 1.74399774584,
			"0.014": 5.30129323497,
			"0.015": 3.19402283953,
			"0.016": 0.00833949232985,
			"0.017": 0.0,
			"0.018": 0.0,
			"0.019": 0.0,
			"0.02": 0.0,
			"0.021": 0.0,
			"0.022": 0.0,
			"0.023": 0.0,
			"0.024": 0.0,
			"0.025": 0.0
		}
	}
}
