{
	 "smiles": "BrC1=CC(Br)=C(Br)C(Br)=C1", 
	 "Tm": 372.65, 
	 "num_atms": 12, 
	 "gaussian": { 
		 "optdone": 1, 
		 "sigma_profile": "yes", 
		 "theory": "DFT", 
		 "functional": "B3LYP", 
		 "basiset": "6-31G**", 
		 "properties": { 
			 "R2extent": 6553.4468, 
			 "electric_dipole_moment_norm": 0.727280798592, 
			 "electric_quadrupole_moment_norm": 3.22238055791, 
			 "total_energy": -10515.445339, 
			 "HOMO_LUMO_gap": 0.19727, 
			 "cosmo_polarized_energy": -3.63, 
			 "cosmo_cavitation_energy": 25.65, 
			 "cosmo_dispersion_energy": -20.56, 
			 "cosmo_repulsion_energy": 1.65, 
			 "cosmo_total_nonelectrostatic_energy": 6.75, 
			 "SMD_solvation_energy": 0.11 
		},
		"coords": [
			{
				"x": 2.2021054934,
				"y": 2.1731428394,
				"z": -0.4192640829,
				"element": "Br" 
			},
			{
				"x": 0.9585865385,
				"y": 0.9149983255,
				"z": 0.2832346875,
				"element": "C" 
			},
			{
				"x": 0.4860153469,
				"y": -0.1083727615,
				"z": -0.5317166664,
				"element": "C" 
			},
			{
				"x": -0.4250618489,
				"y": -1.0275194428,
				"z": -0.0119491583,
				"element": "C" 
			},
			{
				"x": -1.0289002977,
				"y": -2.3984609315,
				"z": -1.1792899145,
				"element": "Br" 
			},
			{
				"x": -0.870501091,
				"y": -0.9353863798,
				"z": 1.316710557,
				"element": "C" 
			},
			{
				"x": -2.1067436529,
				"y": -2.185717819,
				"z": 2.0150381232,
				"element": "Br" 
			},
			{
				"x": -0.3742923394,
				"y": 0.1093210659,
				"z": 2.1133584383,
				"element": "C" 
			},
			{
				"x": -0.9070380097,
				"y": 0.3306892613,
				"z": 3.9227932855,
				"element": "Br" 
			},
			{
				"x": 0.5369828383,
				"y": 1.0337390258,
				"z": 1.6034508289,
				"element": "C" 
			},
			{
				"x": 0.8164687573,
				"y": -0.1970943681,
				"z": -1.5577684681,
				"element": "H" 
			},
			{
				"x": 0.9069782653,
				"y": 1.8310611847,
				"z": 2.2337023699,
				"element": "H" 
			}
		],
		 "valence_orbital": [ 
			{
				"type": "occ",
				"energy": -0.30578,
				"method": "rhf"
			},
			{
				"type": "occ",
				"energy": -0.29806,
				"method": "rhf"
			},
			{
				"type": "occ",
				"energy": -0.27909,
				"method": "rhf"
			},
			{
				"type": "occ",
				"energy": -0.26335,
				"method": "rhf"
			},
			{
				"type": "occ",
				"energy": -0.25397,
				"method": "rhf"
			},
			{
				"type": "unocc",
				"energy": -0.0567,
				"method": "rhf"
			},
			{
				"type": "unocc",
				"energy": -0.04644,
				"method": "rhf"
			},
			{
				"type": "unocc",
				"energy": -0.04637,
				"method": "rhf"
			},
			{
				"type": "unocc",
				"energy": -0.00469,
				"method": "rhf"
			},
			{
				"type": "unocc",
				"energy": 0.01197,
				"method": "rhf"
			}
		],
		"cosmo_sigma_profile": { 
			"-0.025": 0.0,
			"-0.024": 0.0,
			"-0.023": 0.0,
			"-0.022": 0.0,
			"-0.021": 0.0,
			"-0.02": 0.0,
			"-0.019": 0.0,
			"-0.018": 0.0,
			"-0.017": 0.0,
			"-0.016": 0.0,
			"-0.015": 0.0,
			"-0.014": 0.0,
			"-0.013": 0.0,
			"-0.012": 0.0,
			"-0.011": 0.0,
			"-0.01": 0.0,
			"-0.009": 1.53784811186,
			"-0.008": 2.69538292201,
			"-0.007": 3.16911781795,
			"-0.006": 5.76825840221,
			"-0.005": 9.34842541029,
			"-0.004": 8.57662655903,
			"-0.003": 10.841448465,
			"-0.002": 15.7349226341,
			"-0.001": 31.0177293248,
			"0.0": 30.2598712077,
			"0.001": 19.7250551399,
			"0.002": 21.2524086933,
			"0.003": 37.1625990064,
			"0.004": 20.9360655027,
			"0.005": 1.98023568575,
			"0.006": 0.0,
			"0.007": 0.0,
			"0.008": 0.0,
			"0.009": 0.0,
			"0.01": 0.0,
			"0.011": 0.0,
			"0.012": 0.0,
			"0.013": 0.0,
			"0.014": 0.0,
			"0.015": 0.0,
			"0.016": 0.0,
			"0.017": 0.0,
			"0.018": 0.0,
			"0.019": 0.0,
			"0.02": 0.0,
			"0.021": 0.0,
			"0.022": 0.0,
			"0.023": 0.0,
			"0.024": 0.0,
			"0.025": 0.0
		}
	}
}
