{
	 "smiles": "CCC(OC1=C(Cl)C=CC=C1)C(O)=O", 
	 "Tm": 356.15, 
	 "num_atms": 25, 
	 "gaussian": { 
		 "optdone": 1, 
		 "sigma_profile": "yes", 
		 "theory": "DFT", 
		 "functional": "B3LYP", 
		 "basiset": "6-31G**", 
		 "properties": { 
			 "R2extent": 3575.4572, 
			 "electric_dipole_moment_norm": 5.05507604493, 
			 "electric_quadrupole_moment_norm": 16.1615763779, 
			 "total_energy": -1073.56333244, 
			 "HOMO_LUMO_gap": 0.21424, 
			 "cosmo_polarized_energy": -12.15, 
			 "cosmo_cavitation_energy": 30.24, 
			 "cosmo_dispersion_energy": -21.51, 
			 "cosmo_repulsion_energy": 1.7, 
			 "cosmo_total_nonelectrostatic_energy": 10.42, 
			 "SMD_solvation_energy": 6.19 
		},
		"coords": [
			{
				"x": 0.2311599383,
				"y": -2.3623219858,
				"z": 3.2531717071,
				"element": "C" 
			},
			{
				"x": -1.1850496793,
				"y": -1.9531027409,
				"z": 2.8450339429,
				"element": "C" 
			},
			{
				"x": -1.2339260363,
				"y": -0.7709878136,
				"z": 1.8709596896,
				"element": "C" 
			},
			{
				"x": -0.6536840611,
				"y": -1.1511817069,
				"z": 0.6047844572,
				"element": "O" 
			},
			{
				"x": 0.3769561754,
				"y": -0.4327492019,
				"z": 0.0577842322,
				"element": "C" 
			},
			{
				"x": 0.411782705,
				"y": -0.3061600852,
				"z": -1.341262418,
				"element": "C" 
			},
			{
				"x": -0.8863848892,
				"y": -0.9929428361,
				"z": -2.3043281694,
				"element": "Cl" 
			},
			{
				"x": 1.4557064099,
				"y": 0.3619219076,
				"z": -1.9758356052,
				"element": "C" 
			},
			{
				"x": 2.4820693342,
				"y": 0.9247506519,
				"z": -1.216860377,
				"element": "C" 
			},
			{
				"x": 2.4589831473,
				"y": 0.8047908845,
				"z": 0.1720364137,
				"element": "C" 
			},
			{
				"x": 1.4190926506,
				"y": 0.1250880044,
				"z": 0.8065450669,
				"element": "C" 
			},
			{
				"x": -2.6934398633,
				"y": -0.3316887107,
				"z": 1.6442210031,
				"element": "C" 
			},
			{
				"x": -3.1707900843,
				"y": -0.4843205082,
				"z": 0.4019773179,
				"element": "O" 
			},
			{
				"x": -3.3584031269,
				"y": 0.1012755146,
				"z": 2.5547892384,
				"element": "O" 
			},
			{
				"x": 0.8325143475,
				"y": -2.6385919007,
				"z": 2.3819222835,
				"element": "H" 
			},
			{
				"x": 0.7454581563,
				"y": -1.5519115834,
				"z": 3.7827331025,
				"element": "H" 
			},
			{
				"x": 0.2013451334,
				"y": -3.2251561639,
				"z": 3.925068819,
				"element": "H" 
			},
			{
				"x": -1.7753353285,
				"y": -1.6650668089,
				"z": 3.7202368991,
				"element": "H" 
			},
			{
				"x": -1.7013681542,
				"y": -2.7992971314,
				"z": 2.3758037531,
				"element": "H" 
			},
			{
				"x": -0.7056645956,
				"y": 0.092898212,
				"z": 2.2856090446,
				"element": "H" 
			},
			{
				"x": 1.4512202375,
				"y": 0.4432515362,
				"z": -3.057207981,
				"element": "H" 
			},
			{
				"x": 3.2922196136,
				"y": 1.4496533699,
				"z": -1.7122753095,
				"element": "H" 
			},
			{
				"x": 3.2575050728,
				"y": 1.231117275,
				"z": 0.7711802471,
				"element": "H" 
			},
			{
				"x": 1.4259631542,
				"y": 0.010702708,
				"z": 1.8842947441,
				"element": "H" 
			},
			{
				"x": -2.4623302573,
				"y": -0.8483708865,
				"z": -0.1616821016,
				"element": "H" 
			}
		],
		 "valence_orbital": [ 
			{
				"type": "occ",
				"energy": -0.32757,
				"method": "rhf"
			},
			{
				"type": "occ",
				"energy": -0.3101,
				"method": "rhf"
			},
			{
				"type": "occ",
				"energy": -0.27678,
				"method": "rhf"
			},
			{
				"type": "occ",
				"energy": -0.26573,
				"method": "rhf"
			},
			{
				"type": "occ",
				"energy": -0.24333,
				"method": "rhf"
			},
			{
				"type": "unocc",
				"energy": -0.02909,
				"method": "rhf"
			},
			{
				"type": "unocc",
				"energy": -0.01806,
				"method": "rhf"
			},
			{
				"type": "unocc",
				"energy": 0.00877,
				"method": "rhf"
			},
			{
				"type": "unocc",
				"energy": 0.01353,
				"method": "rhf"
			},
			{
				"type": "unocc",
				"energy": 0.0767,
				"method": "rhf"
			}
		],
		"cosmo_sigma_profile": { 
			"-0.025": 0.0,
			"-0.024": 0.0,
			"-0.023": 0.0,
			"-0.022": 0.0,
			"-0.021": 0.0,
			"-0.02": 0.0,
			"-0.019": 0.0,
			"-0.018": 0.0,
			"-0.017": 0.0,
			"-0.016": 0.0,
			"-0.015": 0.0,
			"-0.014": 0.0,
			"-0.013": 0.0,
			"-0.012": 0.0,
			"-0.011": 0.0,
			"-0.01": 0.134669327669,
			"-0.009": 2.28006378278,
			"-0.008": 6.10431324361,
			"-0.007": 9.89601804262,
			"-0.006": 12.5619490736,
			"-0.005": 14.6278387047,
			"-0.004": 17.4786736701,
			"-0.003": 16.1520787845,
			"-0.002": 21.7371597269,
			"-0.001": 20.3967959912,
			"0.0": 18.8431576951,
			"0.001": 17.9207203009,
			"0.002": 16.7617923691,
			"0.003": 16.841902616,
			"0.004": 17.279411246,
			"0.005": 5.26614660602,
			"0.006": 2.95614007792,
			"0.007": 2.92782658879,
			"0.008": 3.33294514722,
			"0.009": 3.55981055983,
			"0.01": 4.72027811992,
			"0.011": 4.35468885293,
			"0.012": 4.84743776399,
			"0.013": 1.50186860057,
			"0.014": 0.000679018155078,
			"0.015": 0.0,
			"0.016": 0.0,
			"0.017": 0.0,
			"0.018": 0.0,
			"0.019": 0.0,
			"0.02": 0.0,
			"0.021": 0.0,
			"0.022": 0.0,
			"0.023": 0.0,
			"0.024": 0.0,
			"0.025": 0.0
		}
	}
}
