{
	 "smiles": "COC1=CC2=C(CNCC2)C(O)=C1OC", 
	 "Tm": 461.15, 
	 "num_atms": 30, 
	 "gaussian": { 
		 "optdone": 1, 
		 "sigma_profile": "yes", 
		 "theory": "DFT", 
		 "functional": "B3LYP", 
		 "basiset": "6-31G**", 
		 "properties": { 
			 "R2extent": 3682.818, 
			 "electric_dipole_moment_norm": 2.60171090054, 
			 "electric_quadrupole_moment_norm": 9.07287477209, 
			 "total_energy": -708.600759842, 
			 "HOMO_LUMO_gap": 0.21676, 
			 "cosmo_polarized_energy": -11.26, 
			 "cosmo_cavitation_energy": 31.49, 
			 "cosmo_dispersion_energy": -23.37, 
			 "cosmo_repulsion_energy": 1.84, 
			 "cosmo_total_nonelectrostatic_energy": 9.96, 
			 "SMD_solvation_energy": 4.19 
		},
		"coords": [
			{
				"x": 0.2079135574,
				"y": -2.880832775,
				"z": 2.7398524517,
				"element": "C" 
			},
			{
				"x": 1.0871548842,
				"y": -1.7989862436,
				"z": 2.4776748117,
				"element": "O" 
			},
			{
				"x": 0.696489273,
				"y": -0.8649324677,
				"z": 1.5565139826,
				"element": "C" 
			},
			{
				"x": -0.4892764427,
				"y": -0.9122107212,
				"z": 0.8208244749,
				"element": "C" 
			},
			{
				"x": -0.8109899291,
				"y": 0.1070359265,
				"z": -0.0903396676,
				"element": "C" 
			},
			{
				"x": 0.0512890938,
				"y": 1.1920461897,
				"z": -0.2775068331,
				"element": "C" 
			},
			{
				"x": -0.2518183798,
				"y": 2.3065869021,
				"z": -1.2553960374,
				"element": "C" 
			},
			{
				"x": -1.659900293,
				"y": 2.2908284823,
				"z": -1.6504840067,
				"element": "N" 
			},
			{
				"x": -2.0875188434,
				"y": 0.9634450079,
				"z": -2.0864184511,
				"element": "C" 
			},
			{
				"x": -2.1143720602,
				"y": 0.0430664766,
				"z": -0.8638144641,
				"element": "C" 
			},
			{
				"x": 1.2516247895,
				"y": 1.218811841,
				"z": 0.4486717408,
				"element": "C" 
			},
			{
				"x": 2.1120050637,
				"y": 2.2620946198,
				"z": 0.2762570207,
				"element": "O" 
			},
			{
				"x": 1.58146295,
				"y": 0.2075375201,
				"z": 1.3544536444,
				"element": "C" 
			},
			{
				"x": 2.7646922663,
				"y": 0.3744319122,
				"z": 2.0553477158,
				"element": "O" 
			},
			{
				"x": 3.7761722824,
				"y": -0.6101689601,
				"z": 1.8016396958,
				"element": "C" 
			},
			{
				"x": 0.6921882124,
				"y": -3.4827247968,
				"z": 3.5106135529,
				"element": "H" 
			},
			{
				"x": -0.7628131612,
				"y": -2.5296951277,
				"z": 3.1117892918,
				"element": "H" 
			},
			{
				"x": 0.0461483177,
				"y": -3.4988719179,
				"z": 1.8471759587,
				"element": "H" 
			},
			{
				"x": -1.1809045108,
				"y": -1.737171921,
				"z": 0.9479803751,
				"element": "H" 
			},
			{
				"x": -0.0216353621,
				"y": 3.2720318367,
				"z": -0.7906707534,
				"element": "H" 
			},
			{
				"x": 0.4367318346,
				"y": 2.2103829915,
				"z": -2.1191934341,
				"element": "H" 
			},
			{
				"x": -1.8075270415,
				"y": 2.9697994881,
				"z": -2.3910235813,
				"element": "H" 
			},
			{
				"x": -1.4248662299,
				"y": 0.5276182378,
				"z": -2.8599068886,
				"element": "H" 
			},
			{
				"x": -3.0893894727,
				"y": 1.039206104,
				"z": -2.5221623641,
				"element": "H" 
			},
			{
				"x": -2.9404277676,
				"y": 0.3537080723,
				"z": -0.2107783644,
				"element": "H" 
			},
			{
				"x": -2.3188615218,
				"y": -0.9900382694,
				"z": -1.170740052,
				"element": "H" 
			},
			{
				"x": 2.8272151676,
				"y": 2.1185266248,
				"z": 0.9192266393,
				"element": "H" 
			},
			{
				"x": 3.4577659089,
				"y": -1.5938362381,
				"z": 2.1552610719,
				"element": "H" 
			},
			{
				"x": 4.0132273527,
				"y": -0.6641560628,
				"z": 0.7315247528,
				"element": "H" 
			},
			{
				"x": 4.6612200616,
				"y": -0.2882327319,
				"z": 2.3549277168,
				"element": "H" 
			}
		],
		 "valence_orbital": [ 
			{
				"type": "occ",
				"energy": -0.28599,
				"method": "rhf"
			},
			{
				"type": "occ",
				"energy": -0.28269,
				"method": "rhf"
			},
			{
				"type": "occ",
				"energy": -0.21691,
				"method": "rhf"
			},
			{
				"type": "occ",
				"energy": -0.20543,
				"method": "rhf"
			},
			{
				"type": "occ",
				"energy": -0.20094,
				"method": "rhf"
			},
			{
				"type": "unocc",
				"energy": 0.01582,
				"method": "rhf"
			},
			{
				"type": "unocc",
				"energy": 0.02603,
				"method": "rhf"
			},
			{
				"type": "unocc",
				"energy": 0.07452,
				"method": "rhf"
			},
			{
				"type": "unocc",
				"energy": 0.09332,
				"method": "rhf"
			},
			{
				"type": "unocc",
				"energy": 0.10114,
				"method": "rhf"
			}
		],
		"cosmo_sigma_profile": { 
			"-0.025": 0.0,
			"-0.024": 0.0,
			"-0.023": 0.0,
			"-0.022": 0.0,
			"-0.021": 0.0,
			"-0.02": 0.0,
			"-0.019": 0.0,
			"-0.018": 0.0,
			"-0.017": 0.0,
			"-0.016": 0.0,
			"-0.015": 0.0,
			"-0.014": 0.0502746573894,
			"-0.013": 0.735626321328,
			"-0.012": 0.353051956913,
			"-0.011": 0.802379230601,
			"-0.01": 1.59280049462,
			"-0.009": 1.85040212053,
			"-0.008": 2.09807206406,
			"-0.007": 2.09572949104,
			"-0.006": 5.96165397582,
			"-0.005": 16.0515074188,
			"-0.004": 23.4513410889,
			"-0.003": 30.947226187,
			"-0.002": 28.8064151995,
			"-0.001": 25.1562789117,
			"0.0": 15.7763680597,
			"0.001": 11.1933861562,
			"0.002": 9.89676743111,
			"0.003": 13.3976195231,
			"0.004": 12.0023520257,
			"0.005": 10.1596800086,
			"0.006": 9.82496434808,
			"0.007": 3.84888294124,
			"0.008": 4.11543557315,
			"0.009": 4.14662943191,
			"0.01": 5.17354153857,
			"0.011": 3.27664371914,
			"0.012": 1.22320388714,
			"0.013": 0.502771015694,
			"0.014": 0.349079218921,
			"0.015": 0.400469825716,
			"0.016": 0.75178548447,
			"0.017": 0.471144822264,
			"0.018": 0.351170714152,
			"0.019": 0.0,
			"0.02": 0.0,
			"0.021": 0.0,
			"0.022": 0.0,
			"0.023": 0.0,
			"0.024": 0.0,
			"0.025": 0.0
		}
	}
}
