{
	 "smiles": "SC1=NC2=C(CCCC2)S1", 
	 "Tm": 393.15, 
	 "num_atms": 19, 
	 "gaussian": { 
		 "optdone": 1, 
		 "sigma_profile": "yes", 
		 "theory": "DFT", 
		 "functional": "B3LYP", 
		 "basiset": "6-31G**", 
		 "properties": { 
			 "R2extent": 3352.7162, 
			 "electric_dipole_moment_norm": 2.5137275628, 
			 "electric_quadrupole_moment_norm": 7.85604935957, 
			 "total_energy": -1123.29686, 
			 "HOMO_LUMO_gap": 0.19352, 
			 "cosmo_polarized_energy": -7.15, 
			 "cosmo_cavitation_energy": 24.51, 
			 "cosmo_dispersion_energy": -19.69, 
			 "cosmo_repulsion_energy": 1.51, 
			 "cosmo_total_nonelectrostatic_energy": 6.33, 
			 "SMD_solvation_energy": 0.86 
		},
		"coords": [
			{
				"x": -5.0567660723,
				"y": 0.5662467507,
				"z": 0.472845699,
				"element": "S" 
			},
			{
				"x": -3.30036664,
				"y": 0.4658293268,
				"z": 0.6855509453,
				"element": "C" 
			},
			{
				"x": -2.6227436762,
				"y": -0.5273752908,
				"z": 0.2032812035,
				"element": "N" 
			},
			{
				"x": -1.2755511551,
				"y": -0.3939014562,
				"z": 0.4883556122,
				"element": "C" 
			},
			{
				"x": -0.9152655459,
				"y": 0.713497961,
				"z": 1.2042293143,
				"element": "C" 
			},
			{
				"x": 0.4833598212,
				"y": 1.0641123123,
				"z": 1.628038658,
				"element": "C" 
			},
			{
				"x": 1.3945329307,
				"y": -0.1708954846,
				"z": 1.4769327779,
				"element": "C" 
			},
			{
				"x": 1.1576021135,
				"y": -0.890905378,
				"z": 0.1397589379,
				"element": "C" 
			},
			{
				"x": -0.2807848704,
				"y": -1.4272140499,
				"z": 0.0318142909,
				"element": "C" 
			},
			{
				"x": -2.3410228216,
				"y": 1.6724881145,
				"z": 1.5479303768,
				"element": "S" 
			},
			{
				"x": -5.2201528716,
				"y": 1.732370164,
				"z": 1.1277974385,
				"element": "H" 
			},
			{
				"x": 0.8674713988,
				"y": 1.8899594733,
				"z": 1.0120898061,
				"element": "H" 
			},
			{
				"x": 0.5019541198,
				"y": 1.4208362103,
				"z": 2.6648524868,
				"element": "H" 
			},
			{
				"x": 2.4420950094,
				"y": 0.1371053553,
				"z": 1.5661396979,
				"element": "H" 
			},
			{
				"x": 1.195865224,
				"y": -0.8667191886,
				"z": 2.302220806,
				"element": "H" 
			},
			{
				"x": 1.8712025105,
				"y": -1.713456464,
				"z": 0.0213207259,
				"element": "H" 
			},
			{
				"x": 1.3458688325,
				"y": -0.1893458603,
				"z": -0.6837471775,
				"element": "H" 
			},
			{
				"x": -0.512306979,
				"y": -1.7234920883,
				"z": -0.9973964404,
				"element": "H" 
			},
			{
				"x": -0.3953913284,
				"y": -2.3341404075,
				"z": 0.6422848411,
				"element": "H" 
			}
		],
		 "valence_orbital": [ 
			{
				"type": "occ",
				"energy": -0.32242,
				"method": "rhf"
			},
			{
				"type": "occ",
				"energy": -0.29134,
				"method": "rhf"
			},
			{
				"type": "occ",
				"energy": -0.27269,
				"method": "rhf"
			},
			{
				"type": "occ",
				"energy": -0.27261,
				"method": "rhf"
			},
			{
				"type": "occ",
				"energy": -0.2135,
				"method": "rhf"
			},
			{
				"type": "unocc",
				"energy": -0.01998,
				"method": "rhf"
			},
			{
				"type": "unocc",
				"energy": -0.01443,
				"method": "rhf"
			},
			{
				"type": "unocc",
				"energy": 0.03826,
				"method": "rhf"
			},
			{
				"type": "unocc",
				"energy": 0.05242,
				"method": "rhf"
			},
			{
				"type": "unocc",
				"energy": 0.06444,
				"method": "rhf"
			}
		],
		"cosmo_sigma_profile": { 
			"-0.025": 0.0,
			"-0.024": 0.0,
			"-0.023": 0.0,
			"-0.022": 0.0,
			"-0.021": 0.0,
			"-0.02": 0.0,
			"-0.019": 0.0,
			"-0.018": 0.0,
			"-0.017": 0.0,
			"-0.016": 0.0,
			"-0.015": 0.0,
			"-0.014": 0.0,
			"-0.013": 0.0,
			"-0.012": 1.48463581629,
			"-0.011": 2.44470046063,
			"-0.01": 1.8263502332,
			"-0.009": 1.76898712425,
			"-0.008": 1.3556090402,
			"-0.007": 1.52346257394,
			"-0.006": 1.73540054017,
			"-0.005": 2.81641391402,
			"-0.004": 10.7863848912,
			"-0.003": 21.6939485121,
			"-0.002": 26.0106225932,
			"-0.001": 26.3838138694,
			"0.0": 18.8904551456,
			"0.001": 15.2429560327,
			"0.002": 14.5032475769,
			"0.003": 16.2634978586,
			"0.004": 10.5321938684,
			"0.005": 6.05262736978,
			"0.006": 4.90007229159,
			"0.007": 4.01134033106,
			"0.008": 1.99103138125,
			"0.009": 1.42208798653,
			"0.01": 0.720542222689,
			"0.011": 0.842259733998,
			"0.012": 0.629485045118,
			"0.013": 0.985130781724,
			"0.014": 1.02694328373,
			"0.015": 0.31568900969,
			"0.016": 0.0,
			"0.017": 0.0,
			"0.018": 0.0,
			"0.019": 0.0,
			"0.02": 0.0,
			"0.021": 0.0,
			"0.022": 0.0,
			"0.023": 0.0,
			"0.024": 0.0,
			"0.025": 0.0
		}
	}
}
