{
	 "smiles": "CC(O)CN(CCO)CCO", 
	 "Tm": 306.95, 
	 "num_atms": 28, 
	 "gaussian": { 
		 "optdone": 1, 
		 "sigma_profile": "yes", 
		 "theory": "DFT", 
		 "functional": "B3LYP", 
		 "basiset": "6-31G**", 
		 "properties": { 
			 "R2extent": 2216.5422, 
			 "electric_dipole_moment_norm": 4.17351145919, 
			 "electric_quadrupole_moment_norm": 13.4040163097, 
			 "total_energy": -557.374825496, 
			 "HOMO_LUMO_gap": 0.24205, 
			 "cosmo_polarized_energy": -15.75, 
			 "cosmo_cavitation_energy": 28.22, 
			 "cosmo_dispersion_energy": -20.05, 
			 "cosmo_repulsion_energy": 1.62, 
			 "cosmo_total_nonelectrostatic_energy": 9.79, 
			 "SMD_solvation_energy": 4.23 
		},
		"coords": [
			{
				"x": 1.3445755191,
				"y": -0.0388365678,
				"z": 2.5917769145,
				"element": "C" 
			},
			{
				"x": 0.120393866,
				"y": 0.5304124817,
				"z": 1.8794268503,
				"element": "C" 
			},
			{
				"x": -1.0120972213,
				"y": 0.608359478,
				"z": 2.7455963332,
				"element": "O" 
			},
			{
				"x": -0.3390879867,
				"y": -0.3459800993,
				"z": 0.7021419452,
				"element": "C" 
			},
			{
				"x": 0.6422412122,
				"y": -0.4179904282,
				"z": -0.3714095081,
				"element": "N" 
			},
			{
				"x": 0.8209573324,
				"y": 0.7627992443,
				"z": -1.2017922329,
				"element": "C" 
			},
			{
				"x": -0.4478382168,
				"y": 1.4615536907,
				"z": -1.7226556401,
				"element": "C" 
			},
			{
				"x": -1.3215190677,
				"y": 0.6296909913,
				"z": -2.489410228,
				"element": "O" 
			},
			{
				"x": 0.9162745798,
				"y": -1.720710265,
				"z": -0.9669197482,
				"element": "C" 
			},
			{
				"x": -0.0116384536,
				"y": -2.1844391636,
				"z": -2.1041485946,
				"element": "C" 
			},
			{
				"x": -1.3792877288,
				"y": -2.1302168482,
				"z": -1.7614399287,
				"element": "O" 
			},
			{
				"x": 2.1703023237,
				"y": -0.1681880641,
				"z": 1.8861877736,
				"element": "H" 
			},
			{
				"x": 1.1038377639,
				"y": -1.0127383183,
				"z": 3.0317667363,
				"element": "H" 
			},
			{
				"x": 1.6831679956,
				"y": 0.6261518307,
				"z": 3.3957085423,
				"element": "H" 
			},
			{
				"x": 0.3685596625,
				"y": 1.5377981698,
				"z": 1.5008215536,
				"element": "H" 
			},
			{
				"x": -0.7505281113,
				"y": 1.1028994401,
				"z": 3.5323593346,
				"element": "H" 
			},
			{
				"x": -1.3238662115,
				"y": 0.0237907509,
				"z": 0.3781565977,
				"element": "H" 
			},
			{
				"x": -0.5135262233,
				"y": -1.3566882111,
				"z": 1.0805737724,
				"element": "H" 
			},
			{
				"x": 1.4530220952,
				"y": 0.4822685077,
				"z": -2.0537825339,
				"element": "H" 
			},
			{
				"x": 1.3852782316,
				"y": 1.5397394574,
				"z": -0.657863304,
				"element": "H" 
			},
			{
				"x": -1.0555005607,
				"y": 1.8183352438,
				"z": -0.8867303936,
				"element": "H" 
			},
			{
				"x": -0.1474856982,
				"y": 2.347457808,
				"z": -2.301674801,
				"element": "H" 
			},
			{
				"x": -0.891177773,
				"y": 0.4286264812,
				"z": -3.3307580946,
				"element": "H" 
			},
			{
				"x": 0.8670622253,
				"y": -2.4592582583,
				"z": -0.1598538126,
				"element": "H" 
			},
			{
				"x": 1.9523167249,
				"y": -1.7351806923,
				"z": -1.3413030794,
				"element": "H" 
			},
			{
				"x": 0.2294684547,
				"y": -3.2272458398,
				"z": -2.3484473047,
				"element": "H" 
			},
			{
				"x": 0.1985925913,
				"y": -1.5974488101,
				"z": -3.0160771219,
				"element": "H" 
			},
			{
				"x": -1.6283973255,
				"y": -1.1921620092,
				"z": -1.8234500275,
				"element": "H" 
			}
		],
		 "valence_orbital": [ 
			{
				"type": "occ",
				"energy": -0.3124,
				"method": "rhf"
			},
			{
				"type": "occ",
				"energy": -0.28969,
				"method": "rhf"
			},
			{
				"type": "occ",
				"energy": -0.26201,
				"method": "rhf"
			},
			{
				"type": "occ",
				"energy": -0.25444,
				"method": "rhf"
			},
			{
				"type": "occ",
				"energy": -0.19357,
				"method": "rhf"
			},
			{
				"type": "unocc",
				"energy": 0.04848,
				"method": "rhf"
			},
			{
				"type": "unocc",
				"energy": 0.07562,
				"method": "rhf"
			},
			{
				"type": "unocc",
				"energy": 0.09387,
				"method": "rhf"
			},
			{
				"type": "unocc",
				"energy": 0.10239,
				"method": "rhf"
			},
			{
				"type": "unocc",
				"energy": 0.11521,
				"method": "rhf"
			}
		],
		"cosmo_sigma_profile": { 
			"-0.025": 0.0,
			"-0.024": 0.0,
			"-0.023": 0.0,
			"-0.022": 0.0,
			"-0.021": 0.0,
			"-0.02": 0.0,
			"-0.019": 0.0,
			"-0.018": 0.0,
			"-0.017": 0.0,
			"-0.016": 0.299804710519,
			"-0.015": 1.23876216133,
			"-0.014": 2.1398569618,
			"-0.013": 1.9961189789,
			"-0.012": 2.25906640677,
			"-0.011": 1.84695905301,
			"-0.01": 2.16271168517,
			"-0.009": 2.5661954078,
			"-0.008": 2.06099533143,
			"-0.007": 2.56207728443,
			"-0.006": 3.03329111676,
			"-0.005": 6.12843747288,
			"-0.004": 15.8188021065,
			"-0.003": 29.3603172853,
			"-0.002": 27.9959411704,
			"-0.001": 20.8922682762,
			"0.0": 17.8203821756,
			"0.001": 14.2849574592,
			"0.002": 9.29998478638,
			"0.003": 6.38778809548,
			"0.004": 4.40639102267,
			"0.005": 4.6281905095,
			"0.006": 4.93498744778,
			"0.007": 4.48575620491,
			"0.008": 3.48321111403,
			"0.009": 3.01154396323,
			"0.01": 3.50632391474,
			"0.011": 2.92228040695,
			"0.012": 4.09992081555,
			"0.013": 3.12722626263,
			"0.014": 3.52827926011,
			"0.015": 3.21247800358,
			"0.016": 0.987388075571,
			"0.017": 0.0,
			"0.018": 0.0,
			"0.019": 0.0,
			"0.02": 0.0,
			"0.021": 0.0,
			"0.022": 0.0,
			"0.023": 0.0,
			"0.024": 0.0,
			"0.025": 0.0
		}
	}
}
