{
	 "smiles": "OC(=O)CCCC1=CC=C(C=C1)N(CCCl)CCCl", 
	 "Tm": 337.65, 
	 "num_atms": 38, 
	 "gaussian": { 
		 "optdone": 1, 
		 "sigma_profile": "yes", 
		 "theory": "DFT", 
		 "functional": "B3LYP", 
		 "basiset": "6-31G**", 
		 "properties": { 
			 "R2extent": 9029.4835, 
			 "electric_dipole_moment_norm": 4.2282838067, 
			 "electric_quadrupole_moment_norm": 19.1854203165, 
			 "total_energy": -1670.55240667, 
			 "HOMO_LUMO_gap": 0.19012, 
			 "cosmo_polarized_energy": -18.07, 
			 "cosmo_cavitation_energy": 43.6, 
			 "cosmo_dispersion_energy": -29.14, 
			 "cosmo_repulsion_energy": 2.33, 
			 "cosmo_total_nonelectrostatic_energy": 16.79, 
			 "SMD_solvation_energy": 6.73 
		},
		"coords": [
			{
				"x": -0.1462465944,
				"y": 1.1749973624,
				"z": -3.4402991893,
				"element": "O" 
			},
			{
				"x": 0.8414677589,
				"y": 1.9668280286,
				"z": -2.9543202901,
				"element": "C" 
			},
			{
				"x": 0.6131125882,
				"y": 2.9597791888,
				"z": -2.2988374516,
				"element": "O" 
			},
			{
				"x": 2.2134130708,
				"y": 1.4936995428,
				"z": -3.3914789445,
				"element": "C" 
			},
			{
				"x": 3.3156169216,
				"y": 1.764078149,
				"z": -2.3563079653,
				"element": "C" 
			},
			{
				"x": 3.422804488,
				"y": 0.6941943194,
				"z": -1.2471367157,
				"element": "C" 
			},
			{
				"x": 2.1964667975,
				"y": 0.543061124,
				"z": -0.3721561482,
				"element": "C" 
			},
			{
				"x": 1.892987742,
				"y": 1.4789139774,
				"z": 0.6257375175,
				"element": "C" 
			},
			{
				"x": 0.7668378282,
				"y": 1.3622711356,
				"z": 1.4310615169,
				"element": "C" 
			},
			{
				"x": -0.1309248617,
				"y": 0.2804896318,
				"z": 1.2807035411,
				"element": "C" 
			},
			{
				"x": 0.1755785692,
				"y": -0.666306742,
				"z": 0.2809492069,
				"element": "C" 
			},
			{
				"x": 1.3104380194,
				"y": -0.5277008417,
				"z": -0.5183171663,
				"element": "C" 
			},
			{
				"x": -1.2680258453,
				"y": 0.1580647171,
				"z": 2.0892642089,
				"element": "N" 
			},
			{
				"x": -1.5917163022,
				"y": 1.1600628163,
				"z": 3.095712715,
				"element": "C" 
			},
			{
				"x": -2.2944370306,
				"y": 2.373936122,
				"z": 2.4755766056,
				"element": "C" 
			},
			{
				"x": -2.6544968044,
				"y": 3.6229660614,
				"z": 3.7439896018,
				"element": "Cl" 
			},
			{
				"x": -2.1927261965,
				"y": -0.9463771899,
				"z": 1.9143560273,
				"element": "C" 
			},
			{
				"x": -1.7514796957,
				"y": -2.2714093816,
				"z": 2.5435934266,
				"element": "C" 
			},
			{
				"x": -1.7351298664,
				"y": -2.2022264453,
				"z": 4.358835463,
				"element": "Cl" 
			},
			{
				"x": -0.9789999979,
				"y": 1.5781158466,
				"z": -3.1417725861,
				"element": "H" 
			},
			{
				"x": 2.432834951,
				"y": 2.0483390568,
				"z": -4.3137218342,
				"element": "H" 
			},
			{
				"x": 2.1629703154,
				"y": 0.4370013976,
				"z": -3.6707989874,
				"element": "H" 
			},
			{
				"x": 4.2801957969,
				"y": 1.8149811867,
				"z": -2.8745606618,
				"element": "H" 
			},
			{
				"x": 3.1376974437,
				"y": 2.7500137009,
				"z": -1.9139822517,
				"element": "H" 
			},
			{
				"x": 4.288406244,
				"y": 0.9455541517,
				"z": -0.6208851016,
				"element": "H" 
			},
			{
				"x": 3.6537621025,
				"y": -0.2723383142,
				"z": -1.7131380916,
				"element": "H" 
			},
			{
				"x": 2.5515261196,
				"y": 2.3306480418,
				"z": 0.7785273241,
				"element": "H" 
			},
			{
				"x": 0.5914824881,
				"y": 2.1262832831,
				"z": 2.1783655907,
				"element": "H" 
			},
			{
				"x": -0.4598188107,
				"y": -1.5277859614,
				"z": 0.1156105968,
				"element": "H" 
			},
			{
				"x": 1.5082768093,
				"y": -1.2876065459,
				"z": -1.2709132273,
				"element": "H" 
			},
			{
				"x": -0.6905353276,
				"y": 1.4787376137,
				"z": 3.6268556809,
				"element": "H" 
			},
			{
				"x": -2.2398177275,
				"y": 0.7052257642,
				"z": 3.84679224,
				"element": "H" 
			},
			{
				"x": -1.6754914354,
				"y": 2.8570860912,
				"z": 1.7192207712,
				"element": "H" 
			},
			{
				"x": -3.250318343,
				"y": 2.0938050991,
				"z": 2.0294769892,
				"element": "H" 
			},
			{
				"x": -2.3656542457,
				"y": -1.1342740488,
				"z": 0.8457557735,
				"element": "H" 
			},
			{
				"x": -3.1611226079,
				"y": -0.6601806189,
				"z": 2.3340441612,
				"element": "H" 
			},
			{
				"x": -0.7402710549,
				"y": -2.5429001039,
				"z": 2.2411720271,
				"element": "H" 
			},
			{
				"x": -2.4416633064,
				"y": -3.0727272164,
				"z": 2.2712256276,
				"element": "H" 
			}
		],
		 "valence_orbital": [ 
			{
				"type": "occ",
				"energy": -0.29575,
				"method": "rhf"
			},
			{
				"type": "occ",
				"energy": -0.2812,
				"method": "rhf"
			},
			{
				"type": "occ",
				"energy": -0.27148,
				"method": "rhf"
			},
			{
				"type": "occ",
				"energy": -0.24864,
				"method": "rhf"
			},
			{
				"type": "occ",
				"energy": -0.19624,
				"method": "rhf"
			},
			{
				"type": "unocc",
				"energy": -0.00612,
				"method": "rhf"
			},
			{
				"type": "unocc",
				"energy": 0.00488,
				"method": "rhf"
			},
			{
				"type": "unocc",
				"energy": 0.01797,
				"method": "rhf"
			},
			{
				"type": "unocc",
				"energy": 0.02134,
				"method": "rhf"
			},
			{
				"type": "unocc",
				"energy": 0.02876,
				"method": "rhf"
			}
		],
		"cosmo_sigma_profile": { 
			"-0.025": 0.0,
			"-0.024": 0.0,
			"-0.023": 0.0,
			"-0.022": 0.0,
			"-0.021": 0.0,
			"-0.02": 0.0,
			"-0.019": 0.0,
			"-0.018": 0.435814847304,
			"-0.017": 0.810602668696,
			"-0.016": 0.640577547072,
			"-0.015": 1.03664468156,
			"-0.014": 0.833210727275,
			"-0.013": 0.59541596759,
			"-0.012": 0.291128508618,
			"-0.011": 1.03850966975,
			"-0.01": 0.606296852193,
			"-0.009": 0.503302385613,
			"-0.008": 2.42919670355,
			"-0.007": 14.1095023852,
			"-0.006": 20.8313529968,
			"-0.005": 22.6316588204,
			"-0.004": 28.4551202977,
			"-0.003": 31.7251432224,
			"-0.002": 27.9615687619,
			"-0.001": 22.473818174,
			"0.0": 21.7086968005,
			"0.001": 17.2640123499,
			"0.002": 15.0928879136,
			"0.003": 15.200238928,
			"0.004": 18.251293734,
			"0.005": 21.303122989,
			"0.006": 24.3249189777,
			"0.007": 15.4122907735,
			"0.008": 4.21094174141,
			"0.009": 4.00707943643,
			"0.01": 3.82889670133,
			"0.011": 2.81524362337,
			"0.012": 4.39526352346,
			"0.013": 1.3099687262,
			"0.014": 0.0,
			"0.015": 0.0,
			"0.016": 0.0,
			"0.017": 0.0,
			"0.018": 0.0,
			"0.019": 0.0,
			"0.02": 0.0,
			"0.021": 0.0,
			"0.022": 0.0,
			"0.023": 0.0,
			"0.024": 0.0,
			"0.025": 0.0
		}
	}
}
