{
	 "smiles": "OCC(NCC1=CC=CC=C1)C1CC1", 
	 "Tm": 330.15, 
	 "num_atms": 31, 
	 "gaussian": { 
		 "optdone": 1, 
		 "sigma_profile": "yes", 
		 "theory": "DFT", 
		 "functional": "B3LYP", 
		 "basiset": "6-31G**", 
		 "properties": { 
			 "R2extent": 3764.2682, 
			 "electric_dipole_moment_norm": 2.22959449452, 
			 "electric_quadrupole_moment_norm": 5.34726469422, 
			 "total_energy": -597.451240452, 
			 "HOMO_LUMO_gap": 0.21817, 
			 "cosmo_polarized_energy": -10.04, 
			 "cosmo_cavitation_energy": 33.17, 
			 "cosmo_dispersion_energy": -22.74, 
			 "cosmo_repulsion_energy": 1.83, 
			 "cosmo_total_nonelectrostatic_energy": 12.26, 
			 "SMD_solvation_energy": 4.05 
		},
		"coords": [
			{
				"x": 2.6622793396,
				"y": 1.4433947228,
				"z": -0.0616353074,
				"element": "O" 
			},
			{
				"x": 1.2423563187,
				"y": 1.5279757601,
				"z": 0.0551310606,
				"element": "C" 
			},
			{
				"x": 0.7690492117,
				"y": 0.2629126576,
				"z": 0.7892180779,
				"element": "C" 
			},
			{
				"x": 1.1571328377,
				"y": -0.97286295,
				"z": 0.0924883122,
				"element": "N" 
			},
			{
				"x": 0.381173691,
				"y": -1.2892561581,
				"z": -1.1061288589,
				"element": "C" 
			},
			{
				"x": -0.9988706946,
				"y": -1.8389409295,
				"z": -0.7813147513,
				"element": "C" 
			},
			{
				"x": -2.1088051284,
				"y": -1.4908423113,
				"z": -1.5592164812,
				"element": "C" 
			},
			{
				"x": -3.3687462277,
				"y": -2.0322148261,
				"z": -1.2929150584,
				"element": "C" 
			},
			{
				"x": -3.5350310917,
				"y": -2.9266904764,
				"z": -0.235092577,
				"element": "C" 
			},
			{
				"x": -2.4341511098,
				"y": -3.2750953479,
				"z": 0.5523338132,
				"element": "C" 
			},
			{
				"x": -1.1766001168,
				"y": -2.7361321739,
				"z": 0.2811889416,
				"element": "C" 
			},
			{
				"x": 1.2849683021,
				"y": 0.2434963412,
				"z": 2.2193301604,
				"element": "C" 
			},
			{
				"x": 0.5314081918,
				"y": 0.980628155,
				"z": 3.3015511692,
				"element": "C" 
			},
			{
				"x": 0.5465482634,
				"y": -0.5309265211,
				"z": 3.2747891222,
				"element": "C" 
			},
			{
				"x": 2.976594631,
				"y": 2.2199038869,
				"z": -0.5390000544,
				"element": "H" 
			},
			{
				"x": 0.7710749767,
				"y": 1.5896902824,
				"z": -0.9381583485,
				"element": "H" 
			},
			{
				"x": 0.938466578,
				"y": 2.4184963858,
				"z": 0.625757963,
				"element": "H" 
			},
			{
				"x": -0.3281556656,
				"y": 0.289890914,
				"z": 0.8200651232,
				"element": "H" 
			},
			{
				"x": 2.1422375729,
				"y": -0.8999863428,
				"z": -0.1480060544,
				"element": "H" 
			},
			{
				"x": 0.945632652,
				"y": -2.0543518018,
				"z": -1.6557833632,
				"element": "H" 
			},
			{
				"x": 0.2646459793,
				"y": -0.4420183515,
				"z": -1.8065600791,
				"element": "H" 
			},
			{
				"x": -1.9861629079,
				"y": -0.7888765053,
				"z": -2.3814084373,
				"element": "H" 
			},
			{
				"x": -4.2195050015,
				"y": -1.7491873017,
				"z": -1.9068798963,
				"element": "H" 
			},
			{
				"x": -4.5144217387,
				"y": -3.3462045343,
				"z": -0.0225649845,
				"element": "H" 
			},
			{
				"x": -2.5565705094,
				"y": -3.9695402708,
				"z": 1.3793677722,
				"element": "H" 
			},
			{
				"x": -0.317185994,
				"y": -2.9909044673,
				"z": 0.8933603356,
				"element": "H" 
			},
			{
				"x": 2.3697188231,
				"y": 0.2625456665,
				"z": 2.2930525395,
				"element": "H" 
			},
			{
				"x": -0.3948222259,
				"y": 1.4815045297,
				"z": 3.0301764514,
				"element": "H" 
			},
			{
				"x": 1.0991615303,
				"y": 1.4933728547,
				"z": 4.0725023181,
				"element": "H" 
			},
			{
				"x": -0.3634927988,
				"y": -1.0434387915,
				"z": 2.9755222079,
				"element": "H" 
			},
			{
				"x": 1.1230723113,
				"y": -1.0553420952,
				"z": 4.0311288836,
				"element": "H" 
			}
		],
		 "valence_orbital": [ 
			{
				"type": "occ",
				"energy": -0.27358,
				"method": "rhf"
			},
			{
				"type": "occ",
				"energy": -0.2697,
				"method": "rhf"
			},
			{
				"type": "occ",
				"energy": -0.24155,
				"method": "rhf"
			},
			{
				"type": "occ",
				"energy": -0.23579,
				"method": "rhf"
			},
			{
				"type": "occ",
				"energy": -0.2135,
				"method": "rhf"
			},
			{
				"type": "unocc",
				"energy": 0.00467,
				"method": "rhf"
			},
			{
				"type": "unocc",
				"energy": 0.00719,
				"method": "rhf"
			},
			{
				"type": "unocc",
				"energy": 0.06829,
				"method": "rhf"
			},
			{
				"type": "unocc",
				"energy": 0.10026,
				"method": "rhf"
			},
			{
				"type": "unocc",
				"energy": 0.10647,
				"method": "rhf"
			}
		],
		"cosmo_sigma_profile": { 
			"-0.025": 0.0,
			"-0.024": 0.0,
			"-0.023": 0.0,
			"-0.022": 0.0,
			"-0.021": 0.0,
			"-0.02": 0.0,
			"-0.019": 0.0,
			"-0.018": 0.0,
			"-0.017": 0.0,
			"-0.016": 0.325691425739,
			"-0.015": 1.07455624531,
			"-0.014": 1.24170379406,
			"-0.013": 0.617662357447,
			"-0.012": 0.812268694211,
			"-0.011": 0.912804853636,
			"-0.01": 0.828063075469,
			"-0.009": 0.795980434527,
			"-0.008": 1.15693450085,
			"-0.007": 1.98429483839,
			"-0.006": 3.39550928108,
			"-0.005": 9.87554888514,
			"-0.004": 21.839028149,
			"-0.003": 34.8781152983,
			"-0.002": 28.6552155393,
			"-0.001": 27.7161228944,
			"0.0": 19.6768185684,
			"0.001": 17.9894685645,
			"0.002": 15.3782942841,
			"0.003": 14.019323525,
			"0.004": 13.494534901,
			"0.005": 12.1491352431,
			"0.006": 11.4962848505,
			"0.007": 6.48186108738,
			"0.008": 2.48547187896,
			"0.009": 3.00992485598,
			"0.01": 2.10205987141,
			"0.011": 1.98134185075,
			"0.012": 1.82106172613,
			"0.013": 0.636318459774,
			"0.014": 0.643158357269,
			"0.015": 0.189354814847,
			"0.016": 0.0,
			"0.017": 0.0,
			"0.018": 0.0,
			"0.019": 0.0,
			"0.02": 0.0,
			"0.021": 0.0,
			"0.022": 0.0,
			"0.023": 0.0,
			"0.024": 0.0,
			"0.025": 0.0
		}
	}
}
