{
	 "smiles": "CC(OC1=CC=C(C=C1)C(C)=O)C(O)=O", 
	 "Tm": 433.15, 
	 "num_atms": 27, 
	 "gaussian": { 
		 "optdone": 1, 
		 "sigma_profile": "yes", 
		 "theory": "DFT", 
		 "functional": "B3LYP", 
		 "basiset": "6-31G**", 
		 "properties": { 
			 "R2extent": 5000.7193, 
			 "electric_dipole_moment_norm": 3.59296702044, 
			 "electric_quadrupole_moment_norm": 20.1156063794, 
			 "total_energy": -727.309737406, 
			 "HOMO_LUMO_gap": 0.18657, 
			 "cosmo_polarized_energy": -16.76, 
			 "cosmo_cavitation_energy": 31.78, 
			 "cosmo_dispersion_energy": -22.44, 
			 "cosmo_repulsion_energy": 1.78, 
			 "cosmo_total_nonelectrostatic_energy": 11.12, 
			 "SMD_solvation_energy": 7.5 
		},
		"coords": [
			{
				"x": -1.111082014,
				"y": -4.4408396689,
				"z": 0.4241118622,
				"element": "C" 
			},
			{
				"x": -0.542659559,
				"y": -3.1964865795,
				"z": 1.1083563212,
				"element": "C" 
			},
			{
				"x": -0.1452399122,
				"y": -2.3067649387,
				"z": 0.0790899806,
				"element": "O" 
			},
			{
				"x": 0.1726032644,
				"y": -1.0149532844,
				"z": 0.385792158,
				"element": "C" 
			},
			{
				"x": 0.1332205165,
				"y": -0.463105976,
				"z": 1.6748749642,
				"element": "C" 
			},
			{
				"x": 0.4584508413,
				"y": 0.87747176,
				"z": 1.853077777,
				"element": "C" 
			},
			{
				"x": 0.8273925951,
				"y": 1.6917908132,
				"z": 0.7734392446,
				"element": "C" 
			},
			{
				"x": 0.8652800775,
				"y": 1.1197983849,
				"z": -0.5107608116,
				"element": "C" 
			},
			{
				"x": 0.5419985573,
				"y": -0.2151770099,
				"z": -0.7057212122,
				"element": "C" 
			},
			{
				"x": 1.162832922,
				"y": 3.1212663376,
				"z": 1.0447818836,
				"element": "C" 
			},
			{
				"x": 1.5748746928,
				"y": 4.0106289562,
				"z": -0.1182549783,
				"element": "C" 
			},
			{
				"x": 1.1089983817,
				"y": 3.5742758399,
				"z": 2.1801222709,
				"element": "O" 
			},
			{
				"x": 0.6529221283,
				"y": -3.5816251136,
				"z": 1.9857148483,
				"element": "C" 
			},
			{
				"x": 0.2263609044,
				"y": -4.0481373625,
				"z": 3.1842581016,
				"element": "O" 
			},
			{
				"x": 1.8137164278,
				"y": -3.5219284914,
				"z": 1.66377511,
				"element": "O" 
			},
			{
				"x": -0.349160233,
				"y": -4.8982938902,
				"z": -0.212365942,
				"element": "H" 
			},
			{
				"x": -1.4386786649,
				"y": -5.1675165885,
				"z": 1.1714620896,
				"element": "H" 
			},
			{
				"x": -1.9642618391,
				"y": -4.1586097252,
				"z": -0.1971380769,
				"element": "H" 
			},
			{
				"x": -1.3118544415,
				"y": -2.7400751144,
				"z": 1.7434589139,
				"element": "H" 
			},
			{
				"x": -0.1391427741,
				"y": -1.0611160102,
				"z": 2.5368218833,
				"element": "H" 
			},
			{
				"x": 0.4350638148,
				"y": 1.3234185018,
				"z": 2.8418919888,
				"element": "H" 
			},
			{
				"x": 1.1489226909,
				"y": 1.7189487148,
				"z": -1.3700162338,
				"element": "H" 
			},
			{
				"x": 0.5677994775,
				"y": -0.6664793236,
				"z": -1.6917661373,
				"element": "H" 
			},
			{
				"x": 2.4709616517,
				"y": 3.62091124,
				"z": -0.613901744,
				"element": "H" 
			},
			{
				"x": 0.7824181263,
				"y": 4.0659876607,
				"z": -0.8728957674,
				"element": "H" 
			},
			{
				"x": 1.7797409973,
				"y": 5.0108617048,
				"z": 0.2643032407,
				"element": "H" 
			},
			{
				"x": 1.0211213701,
				"y": -4.321450837,
				"z": 3.6735882652,
				"element": "H" 
			}
		],
		 "valence_orbital": [ 
			{
				"type": "occ",
				"energy": -0.32634,
				"method": "rhf"
			},
			{
				"type": "occ",
				"energy": -0.28839,
				"method": "rhf"
			},
			{
				"type": "occ",
				"energy": -0.2613,
				"method": "rhf"
			},
			{
				"type": "occ",
				"energy": -0.24091,
				"method": "rhf"
			},
			{
				"type": "occ",
				"energy": -0.23128,
				"method": "rhf"
			},
			{
				"type": "unocc",
				"energy": -0.04471,
				"method": "rhf"
			},
			{
				"type": "unocc",
				"energy": -0.01528,
				"method": "rhf"
			},
			{
				"type": "unocc",
				"energy": -0.00233,
				"method": "rhf"
			},
			{
				"type": "unocc",
				"energy": 0.05037,
				"method": "rhf"
			},
			{
				"type": "unocc",
				"energy": 0.06156,
				"method": "rhf"
			}
		],
		"cosmo_sigma_profile": { 
			"-0.025": 0.0,
			"-0.024": 0.0,
			"-0.023": 0.0,
			"-0.022": 0.0,
			"-0.021": 0.0,
			"-0.02": 0.0,
			"-0.019": 0.214560358617,
			"-0.018": 1.080047092,
			"-0.017": 1.19741017381,
			"-0.016": 0.378332116391,
			"-0.015": 1.01233291418,
			"-0.014": 0.486464275577,
			"-0.013": 0.86036356984,
			"-0.012": 0.821321773462,
			"-0.011": 0.857803175455,
			"-0.01": 0.784877491733,
			"-0.009": 0.495870881271,
			"-0.008": 2.28642723671,
			"-0.007": 6.59235697044,
			"-0.006": 16.1082478115,
			"-0.005": 21.5637908358,
			"-0.004": 21.2917760876,
			"-0.003": 19.4705715797,
			"-0.002": 18.4675366298,
			"-0.001": 18.9901180214,
			"0.0": 14.072858265,
			"0.001": 11.1091314672,
			"0.002": 13.3240630097,
			"0.003": 17.4790418536,
			"0.004": 13.9160166196,
			"0.005": 5.08840582733,
			"0.006": 6.59765945944,
			"0.007": 4.48515176344,
			"0.008": 6.34832564336,
			"0.009": 4.35746691257,
			"0.01": 5.71060338918,
			"0.011": 7.55005030312,
			"0.012": 5.96592156997,
			"0.013": 2.22189530367,
			"0.014": 0.553901250445,
			"0.015": 0.0,
			"0.016": 0.0,
			"0.017": 0.0,
			"0.018": 0.0,
			"0.019": 0.0,
			"0.02": 0.0,
			"0.021": 0.0,
			"0.022": 0.0,
			"0.023": 0.0,
			"0.024": 0.0,
			"0.025": 0.0
		}
	}
}
