{
	 "smiles": "OC(=O)CCC1=CC=CC=C1", 
	 "Tm": 380.15, 
	 "num_atms": 21, 
	 "gaussian": { 
		 "optdone": 1, 
		 "sigma_profile": "yes", 
		 "theory": "DFT", 
		 "functional": "B3LYP", 
		 "basiset": "6-31G**", 
		 "properties": { 
			 "R2extent": 2405.789, 
			 "electric_dipole_moment_norm": 4.24666754644, 
			 "electric_quadrupole_moment_norm": 17.4271361015, 
			 "total_energy": -499.441925102, 
			 "HOMO_LUMO_gap": 0.23556, 
			 "cosmo_polarized_energy": -15.3, 
			 "cosmo_cavitation_energy": 24.51, 
			 "cosmo_dispersion_energy": -17.83, 
			 "cosmo_repulsion_energy": 1.45, 
			 "cosmo_total_nonelectrostatic_energy": 8.12, 
			 "SMD_solvation_energy": 4.98 
		},
		"coords": [
			{
				"x": -2.716256027,
				"y": 0.2150563691,
				"z": -2.1219964593,
				"element": "O" 
			},
			{
				"x": -1.9206189959,
				"y": 1.3176501723,
				"z": -2.0958715432,
				"element": "C" 
			},
			{
				"x": -2.4168201608,
				"y": 2.4168586195,
				"z": -2.0970597376,
				"element": "O" 
			},
			{
				"x": -0.4164274071,
				"y": 1.0598927584,
				"z": -2.105764762,
				"element": "C" 
			},
			{
				"x": 0.1149120111,
				"y": 0.0961746485,
				"z": -1.0301688049,
				"element": "C" 
			},
			{
				"x": -0.0238841404,
				"y": 0.5332365183,
				"z": 0.4204218829,
				"element": "C" 
			},
			{
				"x": -0.5429323077,
				"y": 1.7762927085,
				"z": 0.8010959737,
				"element": "C" 
			},
			{
				"x": -0.624946852,
				"y": 2.1286444855,
				"z": 2.1522327164,
				"element": "C" 
			},
			{
				"x": -0.1898326487,
				"y": 1.248248769,
				"z": 3.1403044786,
				"element": "C" 
			},
			{
				"x": 0.3289107949,
				"y": 0.0039035276,
				"z": 2.7711843934,
				"element": "C" 
			},
			{
				"x": 0.4090114099,
				"y": -0.3461234241,
				"z": 1.4257112453,
				"element": "C" 
			},
			{
				"x": -2.1791726113,
				"y": -0.5897708201,
				"z": -2.109899253,
				"element": "H" 
			},
			{
				"x": 0.0702880545,
				"y": 2.0341504743,
				"z": -2.0312411326,
				"element": "H" 
			},
			{
				"x": -0.1618726523,
				"y": 0.6509660631,
				"z": -3.0928005143,
				"element": "H" 
			},
			{
				"x": 1.1772699295,
				"y": -0.0776617926,
				"z": -1.2446844144,
				"element": "H" 
			},
			{
				"x": -0.351740567,
				"y": -0.8940962433,
				"z": -1.1469826136,
				"element": "H" 
			},
			{
				"x": -0.9024556003,
				"y": 2.4768930966,
				"z": 0.0550372778,
				"element": "H" 
			},
			{
				"x": -1.0352205908,
				"y": 3.096397706,
				"z": 2.4261609331,
				"element": "H" 
			},
			{
				"x": -0.2554664891,
				"y": 1.5244676298,
				"z": 4.1886553356,
				"element": "H" 
			},
			{
				"x": 0.6698565851,
				"y": -0.69292823,
				"z": 3.5317999925,
				"element": "H" 
			},
			{
				"x": 0.8151982655,
				"y": -1.3164530363,
				"z": 1.1470650058,
				"element": "H" 
			}
		],
		 "valence_orbital": [ 
			{
				"type": "occ",
				"energy": -0.34096,
				"method": "rhf"
			},
			{
				"type": "occ",
				"energy": -0.31337,
				"method": "rhf"
			},
			{
				"type": "occ",
				"energy": -0.26941,
				"method": "rhf"
			},
			{
				"type": "occ",
				"energy": -0.25174,
				"method": "rhf"
			},
			{
				"type": "occ",
				"energy": -0.24537,
				"method": "rhf"
			},
			{
				"type": "unocc",
				"energy": -0.00981,
				"method": "rhf"
			},
			{
				"type": "unocc",
				"energy": -0.00173,
				"method": "rhf"
			},
			{
				"type": "unocc",
				"energy": 0.01125,
				"method": "rhf"
			},
			{
				"type": "unocc",
				"energy": 0.04369,
				"method": "rhf"
			},
			{
				"type": "unocc",
				"energy": 0.09448,
				"method": "rhf"
			}
		],
		"cosmo_sigma_profile": { 
			"-0.025": 0.0,
			"-0.024": 0.0,
			"-0.023": 0.0,
			"-0.022": 0.0,
			"-0.021": 0.0,
			"-0.02": 0.0,
			"-0.019": 0.0456349610525,
			"-0.018": 0.842456521396,
			"-0.017": 1.36017499457,
			"-0.016": 0.913654095426,
			"-0.015": 1.00414652761,
			"-0.014": 0.86515525996,
			"-0.013": 1.09663758097,
			"-0.012": 1.07103670544,
			"-0.011": 1.60434985445,
			"-0.01": 0.927038173207,
			"-0.009": 1.07173007981,
			"-0.008": 2.33838568383,
			"-0.007": 3.32467030019,
			"-0.006": 6.1358588336,
			"-0.005": 16.956033275,
			"-0.004": 20.09344018,
			"-0.003": 19.8580070786,
			"-0.002": 12.7832036351,
			"-0.001": 9.14663539838,
			"0.0": 8.45348481332,
			"0.001": 8.56304035021,
			"0.002": 9.93087149112,
			"0.003": 8.44789642808,
			"0.004": 9.79339229948,
			"0.005": 10.0712054435,
			"0.006": 10.4512597449,
			"0.007": 4.42607808436,
			"0.008": 2.3889564126,
			"0.009": 2.92208758755,
			"0.01": 4.43281801658,
			"0.011": 5.01831582355,
			"0.012": 5.35435635014,
			"0.013": 2.41747644808,
			"0.014": 0.144076105826,
			"0.015": 0.0,
			"0.016": 0.0,
			"0.017": 0.0,
			"0.018": 0.0,
			"0.019": 0.0,
			"0.02": 0.0,
			"0.021": 0.0,
			"0.022": 0.0,
			"0.023": 0.0,
			"0.024": 0.0,
			"0.025": 0.0
		}
	}
}
