{
	 "smiles": "OCCC1CCCCN1", 
	 "Tm": 342.15, 
	 "num_atms": 24, 
	 "gaussian": { 
		 "optdone": 1, 
		 "sigma_profile": "yes", 
		 "theory": "DFT", 
		 "functional": "B3LYP", 
		 "basiset": "6-31G**", 
		 "properties": { 
			 "R2extent": 1427.4872, 
			 "electric_dipole_moment_norm": 3.16640318974, 
			 "electric_quadrupole_moment_norm": 7.35459901354, 
			 "total_energy": -405.754821957, 
			 "HOMO_LUMO_gap": 0.29318, 
			 "cosmo_polarized_energy": -7.28, 
			 "cosmo_cavitation_energy": 23.1, 
			 "cosmo_dispersion_energy": -17.7, 
			 "cosmo_repulsion_energy": 1.44, 
			 "cosmo_total_nonelectrostatic_energy": 6.85, 
			 "SMD_solvation_energy": 2.87 
		},
		"coords": [
			{
				"x": -0.7818459179,
				"y": -1.1781633319,
				"z": -1.5577005442,
				"element": "O" 
			},
			{
				"x": -1.7250274917,
				"y": -0.9465121293,
				"z": -0.5276461977,
				"element": "C" 
			},
			{
				"x": -1.3545467941,
				"y": -1.6265676318,
				"z": 0.7969647254,
				"element": "C" 
			},
			{
				"x": -0.0279261448,
				"y": -1.1524045065,
				"z": 1.4227184114,
				"element": "C" 
			},
			{
				"x": 0.0191768438,
				"y": 0.3747513375,
				"z": 1.7185036449,
				"element": "C" 
			},
			{
				"x": 0.8306640597,
				"y": 1.1443157635,
				"z": 0.6651354179,
				"element": "C" 
			},
			{
				"x": 2.290508412,
				"y": 0.6433842985,
				"z": 0.6286162883,
				"element": "C" 
			},
			{
				"x": 2.3566518148,
				"y": -0.8732157992,
				"z": 0.9171163684,
				"element": "C" 
			},
			{
				"x": 1.091722609,
				"y": -1.5002626025,
				"z": 0.5123501999,
				"element": "N" 
			},
			{
				"x": 0.0908515648,
				"y": -1.2030419529,
				"z": -1.1153417388,
				"element": "H" 
			},
			{
				"x": -2.6918807628,
				"y": -1.3343793007,
				"z": -0.8728564807,
				"element": "H" 
			},
			{
				"x": -1.8692157337,
				"y": 0.1346351551,
				"z": -0.3542364803,
				"element": "H" 
			},
			{
				"x": -1.2991951778,
				"y": -2.7116173225,
				"z": 0.6312282067,
				"element": "H" 
			},
			{
				"x": -2.1591632811,
				"y": -1.4608760334,
				"z": 1.5254203641,
				"element": "H" 
			},
			{
				"x": 0.0913944115,
				"y": -1.6813115609,
				"z": 2.3854936738,
				"element": "H" 
			},
			{
				"x": -1.0007691564,
				"y": 0.7688406715,
				"z": 1.7844570354,
				"element": "H" 
			},
			{
				"x": 0.4728956877,
				"y": 0.5381468626,
				"z": 2.703778706,
				"element": "H" 
			},
			{
				"x": 0.3742189953,
				"y": 1.0050186298,
				"z": -0.3195453615,
				"element": "H" 
			},
			{
				"x": 0.8027458326,
				"y": 2.2186661909,
				"z": 0.8771728608,
				"element": "H" 
			},
			{
				"x": 2.8973207891,
				"y": 1.1752826098,
				"z": 1.3708033706,
				"element": "H" 
			},
			{
				"x": 2.7272699643,
				"y": 0.8608826646,
				"z": -0.3519200563,
				"element": "H" 
			},
			{
				"x": 2.5650818162,
				"y": -1.0470460223,
				"z": 1.9880461566,
				"element": "H" 
			},
			{
				"x": 3.1723520358,
				"y": -1.3407294256,
				"z": 0.3570371717,
				"element": "H" 
			},
			{
				"x": 1.1933156235,
				"y": -2.511896564,
				"z": 0.4870042576,
				"element": "H" 
			}
		],
		 "valence_orbital": [ 
			{
				"type": "occ",
				"energy": -0.3143,
				"method": "rhf"
			},
			{
				"type": "occ",
				"energy": -0.30787,
				"method": "rhf"
			},
			{
				"type": "occ",
				"energy": -0.30535,
				"method": "rhf"
			},
			{
				"type": "occ",
				"energy": -0.23843,
				"method": "rhf"
			},
			{
				"type": "occ",
				"energy": -0.22931,
				"method": "rhf"
			},
			{
				"type": "unocc",
				"energy": 0.06387,
				"method": "rhf"
			},
			{
				"type": "unocc",
				"energy": 0.1015,
				"method": "rhf"
			},
			{
				"type": "unocc",
				"energy": 0.10992,
				"method": "rhf"
			},
			{
				"type": "unocc",
				"energy": 0.1141,
				"method": "rhf"
			},
			{
				"type": "unocc",
				"energy": 0.13757,
				"method": "rhf"
			}
		],
		"cosmo_sigma_profile": { 
			"-0.025": 0.0,
			"-0.024": 0.0,
			"-0.023": 0.0,
			"-0.022": 0.0,
			"-0.021": 0.0,
			"-0.02": 0.0,
			"-0.019": 0.0,
			"-0.018": 0.0,
			"-0.017": 0.0,
			"-0.016": 0.0,
			"-0.015": 0.0,
			"-0.014": 0.0,
			"-0.013": 0.0,
			"-0.012": 0.0,
			"-0.011": 0.293820806986,
			"-0.01": 1.22063386074,
			"-0.009": 1.15294864981,
			"-0.008": 1.34829628775,
			"-0.007": 1.61817406917,
			"-0.006": 1.75846144227,
			"-0.005": 1.89073146448,
			"-0.004": 4.78774174739,
			"-0.003": 15.4965054132,
			"-0.002": 37.1548777846,
			"-0.001": 35.5976582674,
			"0.0": 29.0437618032,
			"0.001": 17.6620507826,
			"0.002": 4.53900559181,
			"0.003": 3.75820171956,
			"0.004": 2.21980222255,
			"0.005": 1.14991304882,
			"0.006": 1.58251737666,
			"0.007": 1.44796019868,
			"0.008": 0.789654195393,
			"0.009": 0.989939280741,
			"0.01": 1.2789237718,
			"0.011": 2.10770041301,
			"0.012": 0.601472301848,
			"0.013": 1.13030391344,
			"0.014": 1.44725449805,
			"0.015": 2.14927054517,
			"0.016": 2.33583769193,
			"0.017": 0.415735439975,
			"0.018": 0.0,
			"0.019": 0.0,
			"0.02": 0.0,
			"0.021": 0.0,
			"0.022": 0.0,
			"0.023": 0.0,
			"0.024": 0.0,
			"0.025": 0.0
		}
	}
}
