{
	 "smiles": "BrC1=CC=CC2=C1NN=C2", 
	 "Tm": 400.65, 
	 "num_atms": 15, 
	 "gaussian": { 
		 "optdone": 1, 
		 "sigma_profile": "yes", 
		 "theory": "DFT", 
		 "functional": "B3LYP", 
		 "basiset": "6-31G**", 
		 "properties": { 
			 "R2extent": 2582.5935, 
			 "electric_dipole_moment_norm": 1.33173305884, 
			 "electric_quadrupole_moment_norm": 7.26011768431, 
			 "total_energy": -2950.64899, 
			 "HOMO_LUMO_gap": 0.18655, 
			 "cosmo_polarized_energy": -7.45, 
			 "cosmo_cavitation_energy": 21.48, 
			 "cosmo_dispersion_energy": -16.71, 
			 "cosmo_repulsion_energy": 1.34, 
			 "cosmo_total_nonelectrostatic_energy": 6.11, 
			 "SMD_solvation_energy": 1.58 
		},
		"coords": [
			{
				"x": 2.1962913143,
				"y": 0.7042005679,
				"z": -1.9432059057,
				"element": "Br" 
			},
			{
				"x": 0.8568714364,
				"y": 0.0113792869,
				"z": -0.7737979183,
				"element": "C" 
			},
			{
				"x": 0.2933817239,
				"y": 0.7810305086,
				"z": 0.2274139824,
				"element": "C" 
			},
			{
				"x": -0.698395464,
				"y": 0.2390174289,
				"z": 1.0789623473,
				"element": "C" 
			},
			{
				"x": -1.1361079771,
				"y": -1.0685038396,
				"z": 0.9418205762,
				"element": "C" 
			},
			{
				"x": -0.570460743,
				"y": -1.8618437326,
				"z": -0.073121561,
				"element": "C" 
			},
			{
				"x": 0.4237553783,
				"y": -1.3123493816,
				"z": -0.9237506353,
				"element": "C" 
			},
			{
				"x": 0.7715700316,
				"y": -2.3049395041,
				"z": -1.7901905131,
				"element": "N" 
			},
			{
				"x": 0.0811386234,
				"y": -3.4535485083,
				"z": -1.5679408641,
				"element": "N" 
			},
			{
				"x": -0.7207167499,
				"y": -3.2028811061,
				"z": -0.5485059188,
				"element": "C" 
			},
			{
				"x": 0.6163198535,
				"y": 1.8078149619,
				"z": 0.3583491293,
				"element": "H" 
			},
			{
				"x": -1.1178314346,
				"y": 0.8732209106,
				"z": 1.8536272136,
				"element": "H" 
			},
			{
				"x": -1.8977879484,
				"y": -1.4715437325,
				"z": 1.60209466,
				"element": "H" 
			},
			{
				"x": 1.4518273937,
				"y": -2.2625350473,
				"z": -2.5324242821,
				"element": "H" 
			},
			{
				"x": -1.380755438,
				"y": -3.9768188128,
				"z": -0.1802303105,
				"element": "H" 
			}
		],
		 "valence_orbital": [ 
			{
				"type": "occ",
				"energy": -0.30028,
				"method": "rhf"
			},
			{
				"type": "occ",
				"energy": -0.29917,
				"method": "rhf"
			},
			{
				"type": "occ",
				"energy": -0.28234,
				"method": "rhf"
			},
			{
				"type": "occ",
				"energy": -0.25258,
				"method": "rhf"
			},
			{
				"type": "occ",
				"energy": -0.22615,
				"method": "rhf"
			},
			{
				"type": "unocc",
				"energy": -0.0396,
				"method": "rhf"
			},
			{
				"type": "unocc",
				"energy": -8e-05,
				"method": "rhf"
			},
			{
				"type": "unocc",
				"energy": 0.00665,
				"method": "rhf"
			},
			{
				"type": "unocc",
				"energy": 0.04955,
				"method": "rhf"
			},
			{
				"type": "unocc",
				"energy": 0.08681,
				"method": "rhf"
			}
		],
		"cosmo_sigma_profile": { 
			"-0.025": 0.0,
			"-0.024": 0.0,
			"-0.023": 0.0,
			"-0.022": 0.0,
			"-0.021": 0.0,
			"-0.02": 0.0,
			"-0.019": 0.0,
			"-0.018": 0.0,
			"-0.017": 0.030434335163,
			"-0.016": 0.65882755136,
			"-0.015": 0.899477700909,
			"-0.014": 1.11463419078,
			"-0.013": 0.758220299942,
			"-0.012": 0.505825800106,
			"-0.011": 0.60366952021,
			"-0.01": 1.02535447706,
			"-0.009": 1.0452215118,
			"-0.008": 2.28095547916,
			"-0.007": 6.15246982649,
			"-0.006": 9.16192136,
			"-0.005": 10.2870392932,
			"-0.004": 10.0836271909,
			"-0.003": 9.50175783102,
			"-0.002": 8.29501318153,
			"-0.001": 8.36207825455,
			"0.0": 10.9609510849,
			"0.001": 17.3683330026,
			"0.002": 21.0702846546,
			"0.003": 21.3445433355,
			"0.004": 17.874679862,
			"0.005": 4.75115596071,
			"0.006": 1.69364684087,
			"0.007": 1.62229248238,
			"0.008": 1.39850311687,
			"0.009": 1.40687077903,
			"0.01": 0.866287785243,
			"0.011": 1.6016328345,
			"0.012": 1.12291660204,
			"0.013": 0.881000913723,
			"0.014": 1.09470656485,
			"0.015": 0.728611256022,
			"0.016": 0.0,
			"0.017": 0.0,
			"0.018": 0.0,
			"0.019": 0.0,
			"0.02": 0.0,
			"0.021": 0.0,
			"0.022": 0.0,
			"0.023": 0.0,
			"0.024": 0.0,
			"0.025": 0.0
		}
	}
}
