{
	 "smiles": "CCCS(=O)(=O)C1=CC=C(C=C1)C(O)=O", 
	 "Tm": 467.15, 
	 "num_atms": 27, 
	 "gaussian": { 
		 "optdone": 1, 
		 "sigma_profile": "yes", 
		 "theory": "DFT", 
		 "functional": "B3LYP", 
		 "basiset": "6-31G**", 
		 "properties": { 
			 "R2extent": 5889.3143, 
			 "electric_dipole_moment_norm": 4.30542977646, 
			 "electric_quadrupole_moment_norm": 13.7997538199, 
			 "total_energy": -1087.34145023, 
			 "HOMO_LUMO_gap": 0.20542, 
			 "cosmo_polarized_energy": -18.16, 
			 "cosmo_cavitation_energy": 32.49, 
			 "cosmo_dispersion_energy": -23.67, 
			 "cosmo_repulsion_energy": 1.81, 
			 "cosmo_total_nonelectrostatic_energy": 10.63, 
			 "SMD_solvation_energy": 6.14 
		},
		"coords": [
			{
				"x": -0.9965014837,
				"y": 2.3268038101,
				"z": -3.2708307948,
				"element": "C" 
			},
			{
				"x": -1.3881004315,
				"y": 2.0580393508,
				"z": -1.8136073182,
				"element": "C" 
			},
			{
				"x": -1.1230613522,
				"y": 0.625574096,
				"z": -1.3303419391,
				"element": "C" 
			},
			{
				"x": 0.6560630918,
				"y": 0.291652388,
				"z": -1.0865478024,
				"element": "S" 
			},
			{
				"x": 1.1617527021,
				"y": 1.2765797513,
				"z": -0.1141805115,
				"element": "O" 
			},
			{
				"x": 1.2987437197,
				"y": 0.1272373862,
				"z": -2.4022576632,
				"element": "O" 
			},
			{
				"x": 0.6577907903,
				"y": -1.3254009853,
				"z": -0.2791779136,
				"element": "C" 
			},
			{
				"x": 0.6126539228,
				"y": -1.39027497,
				"z": 1.1147835338,
				"element": "C" 
			},
			{
				"x": 0.608492725,
				"y": -2.6381113726,
				"z": 1.7348285213,
				"element": "C" 
			},
			{
				"x": 0.6521774441,
				"y": -3.8043009339,
				"z": 0.9580157849,
				"element": "C" 
			},
			{
				"x": 0.7109556933,
				"y": -3.7213705139,
				"z": -0.4397041211,
				"element": "C" 
			},
			{
				"x": 0.7168529769,
				"y": -2.4781365622,
				"z": -1.0658207667,
				"element": "C" 
			},
			{
				"x": 0.6473363298,
				"y": -5.163617907,
				"z": 1.571297871,
				"element": "C" 
			},
			{
				"x": 0.5982490708,
				"y": -5.1324441477,
				"z": 2.9243723466,
				"element": "O" 
			},
			{
				"x": 0.6814598364,
				"y": -6.2025257886,
				"z": 0.944079989,
				"element": "O" 
			},
			{
				"x": -1.2505777047,
				"y": 3.3546141245,
				"z": -3.5475856736,
				"element": "H" 
			},
			{
				"x": 0.0736383642,
				"y": 2.1813161638,
				"z": -3.4339477525,
				"element": "H" 
			},
			{
				"x": -1.5308171202,
				"y": 1.6552985741,
				"z": -3.9522911268,
				"element": "H" 
			},
			{
				"x": -2.4616343142,
				"y": 2.2388273881,
				"z": -1.6791540713,
				"element": "H" 
			},
			{
				"x": -0.8709370064,
				"y": 2.7520323502,
				"z": -1.1419933248,
				"element": "H" 
			},
			{
				"x": -1.4849860376,
				"y": -0.1274472098,
				"z": -2.0372853735,
				"element": "H" 
			},
			{
				"x": -1.583325134,
				"y": 0.4456595498,
				"z": -0.354163553,
				"element": "H" 
			},
			{
				"x": 0.6030244215,
				"y": -0.4746925696,
				"z": 1.6964920369,
				"element": "H" 
			},
			{
				"x": 0.57828275,
				"y": -2.7129721203,
				"z": 2.8155694494,
				"element": "H" 
			},
			{
				"x": 0.7577240846,
				"y": -4.6400878091,
				"z": -1.014151203,
				"element": "H" 
			},
			{
				"x": 0.7872161931,
				"y": -2.3920174168,
				"z": -2.1447990392,
				"element": "H" 
			},
			{
				"x": 0.6019264681,
				"y": -6.0596346261,
				"z": 3.2142004154,
				"element": "H" 
			}
		],
		 "valence_orbital": [ 
			{
				"type": "occ",
				"energy": -0.29839,
				"method": "rhf"
			},
			{
				"type": "occ",
				"energy": -0.29184,
				"method": "rhf"
			},
			{
				"type": "occ",
				"energy": -0.28899,
				"method": "rhf"
			},
			{
				"type": "occ",
				"energy": -0.28242,
				"method": "rhf"
			},
			{
				"type": "occ",
				"energy": -0.28158,
				"method": "rhf"
			},
			{
				"type": "unocc",
				"energy": -0.07616,
				"method": "rhf"
			},
			{
				"type": "unocc",
				"energy": -0.03185,
				"method": "rhf"
			},
			{
				"type": "unocc",
				"energy": 0.02162,
				"method": "rhf"
			},
			{
				"type": "unocc",
				"energy": 0.05752,
				"method": "rhf"
			},
			{
				"type": "unocc",
				"energy": 0.06423,
				"method": "rhf"
			}
		],
		"cosmo_sigma_profile": { 
			"-0.025": 0.0,
			"-0.024": 0.0,
			"-0.023": 0.0,
			"-0.022": 0.0,
			"-0.021": 0.0,
			"-0.02": 0.0,
			"-0.019": 0.262729980767,
			"-0.018": 0.747581346465,
			"-0.017": 1.34204042695,
			"-0.016": 0.772606845923,
			"-0.015": 0.162129147627,
			"-0.014": 1.15671522808,
			"-0.013": 0.512629214439,
			"-0.012": 0.878253280883,
			"-0.011": 0.974206225719,
			"-0.01": 0.346450594584,
			"-0.009": 0.312896202045,
			"-0.008": 5.57711990724,
			"-0.007": 12.8363455924,
			"-0.006": 14.1772185527,
			"-0.005": 11.9133909757,
			"-0.004": 17.5497326012,
			"-0.003": 18.3175578743,
			"-0.002": 19.7259872784,
			"-0.001": 25.75874827,
			"0.0": 23.1078967034,
			"0.001": 24.9807258742,
			"0.002": 10.2581751376,
			"0.003": 5.86952096838,
			"0.004": 5.45737214562,
			"0.005": 6.47194342635,
			"0.006": 5.62835655006,
			"0.007": 4.85805347383,
			"0.008": 4.92900850785,
			"0.009": 4.58631854683,
			"0.01": 7.58988491155,
			"0.011": 13.3332405096,
			"0.012": 6.74081985515,
			"0.013": 0.526064939283,
			"0.014": 0.0,
			"0.015": 0.0,
			"0.016": 0.0,
			"0.017": 0.0,
			"0.018": 0.0,
			"0.019": 0.0,
			"0.02": 0.0,
			"0.021": 0.0,
			"0.022": 0.0,
			"0.023": 0.0,
			"0.024": 0.0,
			"0.025": 0.0
		}
	}
}
