{
	 "smiles": "ClSC1=CC=C(C=C1N(=O)=O)N(=O)=O", 
	 "Tm": 372.15, 
	 "num_atms": 17, 
	 "gaussian": { 
		 "optdone": 1, 
		 "sigma_profile": "yes", 
		 "theory": "DFT", 
		 "functional": "B3LYP", 
		 "basiset": "6-31G**", 
		 "properties": { 
			 "R2extent": 4380.4699, 
			 "electric_dipole_moment_norm": 1.87519667768, 
			 "electric_quadrupole_moment_norm": 12.4501610335, 
			 "total_energy": -1499.00704076, 
			 "HOMO_LUMO_gap": 0.1396, 
			 "cosmo_polarized_energy": -10.54, 
			 "cosmo_cavitation_energy": 26.5, 
			 "cosmo_dispersion_energy": -20.46, 
			 "cosmo_repulsion_energy": 1.55, 
			 "cosmo_total_nonelectrostatic_energy": 7.58, 
			 "SMD_solvation_energy": 8.02 
		},
		"coords": [
			{
				"x": 3.0671026727,
				"y": 1.3942555381,
				"z": -3.3171550426,
				"element": "Cl" 
			},
			{
				"x": 2.7714848027,
				"y": 1.4111151945,
				"z": -1.2160082281,
				"element": "S" 
			},
			{
				"x": 1.4361027885,
				"y": 0.2574563525,
				"z": -1.0536492643,
				"element": "C" 
			},
			{
				"x": 0.8333709977,
				"y": -0.4157326433,
				"z": -2.1345662232,
				"element": "C" 
			},
			{
				"x": -0.2091364526,
				"y": -1.3060722616,
				"z": -1.9287444406,
				"element": "C" 
			},
			{
				"x": -0.6771326439,
				"y": -1.5470639677,
				"z": -0.6329351169,
				"element": "C" 
			},
			{
				"x": -0.1207032087,
				"y": -0.9128185141,
				"z": 0.4620831982,
				"element": "C" 
			},
			{
				"x": 0.9252128594,
				"y": -0.0221673156,
				"z": 0.2347526682,
				"element": "C" 
			},
			{
				"x": 1.5107202811,
				"y": 0.643291612,
				"z": 1.3735341784,
				"element": "N" 
			},
			{
				"x": 1.0935691217,
				"y": 0.4248746695,
				"z": 2.5019252667,
				"element": "O" 
			},
			{
				"x": 2.4458975986,
				"y": 1.4319040163,
				"z": 1.1134290065,
				"element": "O" 
			},
			{
				"x": -1.7830249712,
				"y": -2.4931279971,
				"z": -0.4258689269,
				"element": "N" 
			},
			{
				"x": -2.1626771315,
				"y": -2.6749475423,
				"z": 0.7285441056,
				"element": "O" 
			},
			{
				"x": -2.2510047926,
				"y": -3.0370623213,
				"z": -1.4242132977,
				"element": "O" 
			},
			{
				"x": 1.1893643572,
				"y": -0.2350857304,
				"z": -3.1395923429,
				"element": "H" 
			},
			{
				"x": -0.6714691378,
				"y": -1.8228179668,
				"z": -2.7608760627,
				"element": "H" 
			},
			{
				"x": -0.4777771412,
				"y": -1.0944011228,
				"z": 1.4673405225,
				"element": "H" 
			}
		],
		 "valence_orbital": [ 
			{
				"type": "occ",
				"energy": -0.33028,
				"method": "rhf"
			},
			{
				"type": "occ",
				"energy": -0.32489,
				"method": "rhf"
			},
			{
				"type": "occ",
				"energy": -0.3213,
				"method": "rhf"
			},
			{
				"type": "occ",
				"energy": -0.31506,
				"method": "rhf"
			},
			{
				"type": "occ",
				"energy": -0.27004,
				"method": "rhf"
			},
			{
				"type": "unocc",
				"energy": -0.13044,
				"method": "rhf"
			},
			{
				"type": "unocc",
				"energy": -0.1155,
				"method": "rhf"
			},
			{
				"type": "unocc",
				"energy": -0.09243,
				"method": "rhf"
			},
			{
				"type": "unocc",
				"energy": -0.04767,
				"method": "rhf"
			},
			{
				"type": "unocc",
				"energy": -0.02456,
				"method": "rhf"
			}
		],
		"cosmo_sigma_profile": { 
			"-0.025": 0.0,
			"-0.024": 0.0,
			"-0.023": 0.0,
			"-0.022": 0.0,
			"-0.021": 0.0,
			"-0.02": 0.0,
			"-0.019": 0.0,
			"-0.018": 0.0,
			"-0.017": 0.0,
			"-0.016": 0.0,
			"-0.015": 0.0,
			"-0.014": 0.0,
			"-0.013": 0.0,
			"-0.012": 0.0,
			"-0.011": 0.0,
			"-0.01": 1.20096972954,
			"-0.009": 4.87917659156,
			"-0.008": 6.43203206133,
			"-0.007": 6.9412287305,
			"-0.006": 8.95183786347,
			"-0.005": 12.6892701184,
			"-0.004": 19.7695973088,
			"-0.003": 18.7499328318,
			"-0.002": 13.985378889,
			"-0.001": 12.6936757251,
			"0.0": 11.9587370265,
			"0.001": 13.3267303239,
			"0.002": 12.4032818263,
			"0.003": 13.4653861434,
			"0.004": 12.2429799822,
			"0.005": 12.791816296,
			"0.006": 12.182563805,
			"0.007": 13.0764653607,
			"0.008": 7.27379302057,
			"0.009": 3.2085918169,
			"0.01": 0.406571579998,
			"0.011": 0.0,
			"0.012": 0.0,
			"0.013": 0.0,
			"0.014": 0.0,
			"0.015": 0.0,
			"0.016": 0.0,
			"0.017": 0.0,
			"0.018": 0.0,
			"0.019": 0.0,
			"0.02": 0.0,
			"0.021": 0.0,
			"0.022": 0.0,
			"0.023": 0.0,
			"0.024": 0.0,
			"0.025": 0.0
		}
	}
}
