{
	 "smiles": "CNC(N)=S", 
	 "Tm": 393.15, 
	 "num_atms": 11, 
	 "gaussian": { 
		 "optdone": 1, 
		 "sigma_profile": "yes", 
		 "theory": "DFT", 
		 "functional": "B3LYP", 
		 "basiset": "6-31G**", 
		 "properties": { 
			 "R2extent": 909.1735, 
			 "electric_dipole_moment_norm": 5.20901176328, 
			 "electric_quadrupole_moment_norm": 8.04896204551, 
			 "total_energy": -587.532536878, 
			 "HOMO_LUMO_gap": 0.20113, 
			 "cosmo_polarized_energy": -18.22, 
			 "cosmo_cavitation_energy": 16.11, 
			 "cosmo_dispersion_energy": -12.65, 
			 "cosmo_repulsion_energy": 1.08, 
			 "cosmo_total_nonelectrostatic_energy": 4.54, 
			 "SMD_solvation_energy": 1.78 
		},
		"coords": [
			{
				"x": 2.044115089,
				"y": -1.678989702,
				"z": 2.2736714544,
				"element": "C" 
			},
			{
				"x": 1.7381925356,
				"y": -1.3777202895,
				"z": 0.8839641961,
				"element": "N" 
			},
			{
				"x": 0.6438608575,
				"y": -0.6718609653,
				"z": 0.4960626575,
				"element": "C" 
			},
			{
				"x": 0.5995515378,
				"y": -0.3939999853,
				"z": -0.8492502472,
				"element": "N" 
			},
			{
				"x": -0.5534851488,
				"y": -0.1443871627,
				"z": 1.5477734892,
				"element": "S" 
			},
			{
				"x": 2.8914723422,
				"y": -2.3684898966,
				"z": 2.2957828959,
				"element": "H" 
			},
			{
				"x": 1.180589112,
				"y": -2.1491303821,
				"z": 2.7475385922,
				"element": "H" 
			},
			{
				"x": 2.2917204316,
				"y": -0.7761796041,
				"z": 2.8439577615,
				"element": "H" 
			},
			{
				"x": 2.5050920332,
				"y": -1.4380208609,
				"z": 0.2279125522,
				"element": "H" 
			},
			{
				"x": 1.0566540207,
				"y": -1.0257639954,
				"z": -1.4944572239,
				"element": "H" 
			},
			{
				"x": -0.2791628108,
				"y": -0.012557156,
				"z": -1.1662561278,
				"element": "H" 
			}
		],
		 "valence_orbital": [ 
			{
				"type": "occ",
				"energy": -0.38038,
				"method": "rhf"
			},
			{
				"type": "occ",
				"energy": -0.35716,
				"method": "rhf"
			},
			{
				"type": "occ",
				"energy": -0.26722,
				"method": "rhf"
			},
			{
				"type": "occ",
				"energy": -0.21488,
				"method": "rhf"
			},
			{
				"type": "occ",
				"energy": -0.20061,
				"method": "rhf"
			},
			{
				"type": "unocc",
				"energy": 0.00052,
				"method": "rhf"
			},
			{
				"type": "unocc",
				"energy": 0.05304,
				"method": "rhf"
			},
			{
				"type": "unocc",
				"energy": 0.09247,
				"method": "rhf"
			},
			{
				"type": "unocc",
				"energy": 0.10154,
				"method": "rhf"
			},
			{
				"type": "unocc",
				"energy": 0.12884,
				"method": "rhf"
			}
		],
		"cosmo_sigma_profile": { 
			"-0.025": 0.0,
			"-0.024": 0.0,
			"-0.023": 0.0,
			"-0.022": 0.0,
			"-0.021": 0.0,
			"-0.02": 0.0,
			"-0.019": 0.0,
			"-0.018": 0.0,
			"-0.017": 0.0712550282563,
			"-0.016": 1.34775265499,
			"-0.015": 2.93776560691,
			"-0.014": 3.09165402438,
			"-0.013": 3.49060020021,
			"-0.012": 2.86344290458,
			"-0.011": 3.0093719237,
			"-0.01": 3.39497167687,
			"-0.009": 2.63383485884,
			"-0.008": 1.80297280876,
			"-0.007": 2.45941764515,
			"-0.006": 4.76444358093,
			"-0.005": 4.09839231119,
			"-0.004": 6.29850620827,
			"-0.003": 8.50274324706,
			"-0.002": 9.66426851272,
			"-0.001": 5.53101990198,
			"0.0": 3.62704959794,
			"0.001": 3.31371600929,
			"0.002": 4.65402876399,
			"0.003": 3.77289118542,
			"0.004": 4.01905713275,
			"0.005": 4.70672700382,
			"0.006": 4.10799681773,
			"0.007": 4.85522896824,
			"0.008": 4.74776308672,
			"0.009": 4.04647394474,
			"0.01": 6.16197321266,
			"0.011": 7.64671370848,
			"0.012": 5.76086925222,
			"0.013": 1.69226503018,
			"0.014": 0.0,
			"0.015": 0.0,
			"0.016": 0.0,
			"0.017": 0.0,
			"0.018": 0.0,
			"0.019": 0.0,
			"0.02": 0.0,
			"0.021": 0.0,
			"0.022": 0.0,
			"0.023": 0.0,
			"0.024": 0.0,
			"0.025": 0.0
		}
	}
}
