{
	 "smiles": "COC1=CC=CC(=C1)C1=CC=C(O1)C(O)=O", 
	 "Tm": 443.15, 
	 "num_atms": 26, 
	 "gaussian": { 
		 "optdone": 1, 
		 "sigma_profile": "yes", 
		 "theory": "DFT", 
		 "functional": "B3LYP", 
		 "basiset": "6-31G**", 
		 "properties": { 
			 "R2extent": 4789.5546, 
			 "electric_dipole_moment_norm": 4.74862172214, 
			 "electric_quadrupole_moment_norm": 22.6633725496, 
			 "total_energy": -764.182334622, 
			 "HOMO_LUMO_gap": 0.15546, 
			 "cosmo_polarized_energy": -15.51, 
			 "cosmo_cavitation_energy": 31.44, 
			 "cosmo_dispersion_energy": -22.63, 
			 "cosmo_repulsion_energy": 1.75, 
			 "cosmo_total_nonelectrostatic_energy": 10.56, 
			 "SMD_solvation_energy": 7.74 
		},
		"coords": [
			{
				"x": -1.2948525338,
				"y": -3.3170724552,
				"z": 2.3702860297,
				"element": "C" 
			},
			{
				"x": 0.0546057074,
				"y": -3.0887333024,
				"z": 2.7469498108,
				"element": "O" 
			},
			{
				"x": 0.6646357656,
				"y": -1.946822611,
				"z": 2.3216999721,
				"element": "C" 
			},
			{
				"x": 1.997625948,
				"y": -1.7841915634,
				"z": 2.7308696381,
				"element": "C" 
			},
			{
				"x": 2.7020663508,
				"y": -0.649503459,
				"z": 2.3453057376,
				"element": "C" 
			},
			{
				"x": 2.1022427109,
				"y": 0.3316906666,
				"z": 1.5561195179,
				"element": "C" 
			},
			{
				"x": 0.7704194392,
				"y": 0.174996722,
				"z": 1.143815561,
				"element": "C" 
			},
			{
				"x": 0.0515199936,
				"y": -0.9722053543,
				"z": 1.531208125,
				"element": "C" 
			},
			{
				"x": 0.1379242142,
				"y": 1.1972398752,
				"z": 0.3182070651,
				"element": "C" 
			},
			{
				"x": 0.5777137111,
				"y": 2.3928118017,
				"z": -0.2063296776,
				"element": "C" 
			},
			{
				"x": -0.5036683049,
				"y": 2.9546021267,
				"z": -0.9350882671,
				"element": "C" 
			},
			{
				"x": -1.546973727,
				"y": 2.0778464089,
				"z": -0.8202865266,
				"element": "C" 
			},
			{
				"x": -1.1647764693,
				"y": 0.9999146156,
				"z": -0.0557720353,
				"element": "O" 
			},
			{
				"x": -2.9156168583,
				"y": 2.1113955644,
				"z": -1.3521013915,
				"element": "C" 
			},
			{
				"x": -3.6956993599,
				"y": 1.0475764663,
				"z": -1.0306864156,
				"element": "O" 
			},
			{
				"x": -3.3319439391,
				"y": 3.020956926,
				"z": -2.0325320993,
				"element": "O" 
			},
			{
				"x": -1.5730967016,
				"y": -4.2735780359,
				"z": 2.8147510424,
				"element": "H" 
			},
			{
				"x": -1.9604719681,
				"y": -2.5337351417,
				"z": 2.755006656,
				"element": "H" 
			},
			{
				"x": -1.4055430364,
				"y": -3.3805210327,
				"z": 1.2801471916,
				"element": "H" 
			},
			{
				"x": 2.4505849731,
				"y": -2.555588617,
				"z": 3.3443202877,
				"element": "H" 
			},
			{
				"x": 3.7330010602,
				"y": -0.5264924267,
				"z": 2.6634885537,
				"element": "H" 
			},
			{
				"x": 2.6661041194,
				"y": 1.2110357126,
				"z": 1.2644188149,
				"element": "H" 
			},
			{
				"x": -0.9745742123,
				"y": -1.0842156521,
				"z": 1.2084632262,
				"element": "H" 
			},
			{
				"x": 1.5625632087,
				"y": 2.817974448,
				"z": -0.0829864014,
				"element": "H" 
			},
			{
				"x": -0.5279811391,
				"y": 3.88581762,
				"z": -1.4810515858,
				"element": "H" 
			},
			{
				"x": -3.1886089524,
				"y": 0.4283006974,
				"z": -0.4835228296,
				"element": "H" 
			}
		],
		 "valence_orbital": [ 
			{
				"type": "occ",
				"energy": -0.30206,
				"method": "rhf"
			},
			{
				"type": "occ",
				"energy": -0.28571,
				"method": "rhf"
			},
			{
				"type": "occ",
				"energy": -0.27561,
				"method": "rhf"
			},
			{
				"type": "occ",
				"energy": -0.24339,
				"method": "rhf"
			},
			{
				"type": "occ",
				"energy": -0.2205,
				"method": "rhf"
			},
			{
				"type": "unocc",
				"energy": -0.06504,
				"method": "rhf"
			},
			{
				"type": "unocc",
				"energy": -0.01275,
				"method": "rhf"
			},
			{
				"type": "unocc",
				"energy": -0.00416,
				"method": "rhf"
			},
			{
				"type": "unocc",
				"energy": 0.05786,
				"method": "rhf"
			},
			{
				"type": "unocc",
				"energy": 0.06152,
				"method": "rhf"
			}
		],
		"cosmo_sigma_profile": { 
			"-0.025": 0.0,
			"-0.024": 0.0,
			"-0.023": 0.0,
			"-0.022": 0.0,
			"-0.021": 0.0,
			"-0.02": 0.0,
			"-0.019": 0.0,
			"-0.018": 0.0,
			"-0.017": 0.0833193886921,
			"-0.016": 0.554223631387,
			"-0.015": 0.601037618084,
			"-0.014": 0.311194918813,
			"-0.013": 1.09799703018,
			"-0.012": 0.716428672136,
			"-0.011": 0.95353425471,
			"-0.01": 1.44224493404,
			"-0.009": 2.30444599047,
			"-0.008": 5.68135775676,
			"-0.007": 7.56541706734,
			"-0.006": 14.5191032198,
			"-0.005": 19.284254309,
			"-0.004": 20.4330127053,
			"-0.003": 18.1522337804,
			"-0.002": 12.1477717638,
			"-0.001": 14.3284987884,
			"0.0": 17.5298564338,
			"0.001": 20.3272718771,
			"0.002": 18.2471512232,
			"0.003": 17.5413350122,
			"0.004": 14.8360798341,
			"0.005": 8.59385978916,
			"0.006": 3.42494487845,
			"0.007": 3.11300292101,
			"0.008": 4.92665751483,
			"0.009": 4.48286390422,
			"0.01": 6.58390719973,
			"0.011": 4.81806064795,
			"0.012": 5.88599948142,
			"0.013": 1.74087889187,
			"0.014": 0.0721334246341,
			"0.015": 0.0,
			"0.016": 0.0,
			"0.017": 0.0,
			"0.018": 0.0,
			"0.019": 0.0,
			"0.02": 0.0,
			"0.021": 0.0,
			"0.022": 0.0,
			"0.023": 0.0,
			"0.024": 0.0,
			"0.025": 0.0
		}
	}
}
