{
	 "smiles": "CC1(C)N(Br)C(=O)N(Br)C1=O", 
	 "Tm": 462.15, 
	 "num_atms": 17, 
	 "gaussian": { 
		 "optdone": 1, 
		 "sigma_profile": "yes", 
		 "theory": "DFT", 
		 "functional": "B3LYP", 
		 "basiset": "6-31G**", 
		 "properties": { 
			 "R2extent": 6259.5464, 
			 "electric_dipole_moment_norm": 2.94566302893, 
			 "electric_quadrupole_moment_norm": 17.0980761587, 
			 "total_energy": -5596.86987519, 
			 "HOMO_LUMO_gap": 0.16828, 
			 "cosmo_polarized_energy": -11.31, 
			 "cosmo_cavitation_energy": 25.95, 
			 "cosmo_dispersion_energy": -18.86, 
			 "cosmo_repulsion_energy": 1.51, 
			 "cosmo_total_nonelectrostatic_energy": 8.61, 
			 "SMD_solvation_energy": 3.71 
		},
		"coords": [
			{
				"x": -1.3563049442,
				"y": -0.3289794167,
				"z": -0.335839247,
				"element": "C" 
			},
			{
				"x": -1.4636915674,
				"y": 0.5866914998,
				"z": 0.8903849115,
				"element": "C" 
			},
			{
				"x": -2.3441393036,
				"y": -0.0195285052,
				"z": 1.9908378382,
				"element": "C" 
			},
			{
				"x": -1.8806727565,
				"y": 1.9502267165,
				"z": 0.5320293854,
				"element": "N" 
			},
			{
				"x": -3.5346334276,
				"y": 2.3693585849,
				"z": -0.2247347612,
				"element": "Br" 
			},
			{
				"x": -0.9615691702,
				"y": 2.9385684384,
				"z": 0.7921979108,
				"element": "C" 
			},
			{
				"x": -1.0263016018,
				"y": 4.1266896514,
				"z": 0.6078473485,
				"element": "O" 
			},
			{
				"x": 0.1465268658,
				"y": 2.2266909144,
				"z": 1.3569310724,
				"element": "N" 
			},
			{
				"x": 1.6942441784,
				"y": 3.1056262172,
				"z": 1.8993425008,
				"element": "Br" 
			},
			{
				"x": -0.0447897756,
				"y": 0.8622285603,
				"z": 1.4563350934,
				"element": "C" 
			},
			{
				"x": 0.7169579954,
				"y": 0.0315124536,
				"z": 1.8898782068,
				"element": "O" 
			},
			{
				"x": -0.9123455046,
				"y": -1.2824893212,
				"z": -0.0406998754,
				"element": "H" 
			},
			{
				"x": -0.7330829027,
				"y": 0.1251740076,
				"z": -1.1106918622,
				"element": "H" 
			},
			{
				"x": -2.3506366112,
				"y": -0.5138677911,
				"z": -0.7518636322,
				"element": "H" 
			},
			{
				"x": -3.3515781487,
				"y": -0.2000909422,
				"z": 1.6056014761,
				"element": "H" 
			},
			{
				"x": -2.4147659255,
				"y": 0.6519488237,
				"z": 2.8506026226,
				"element": "H" 
			},
			{
				"x": -1.9146174001,
				"y": -0.9686598913,
				"z": 2.3195410116,
				"element": "H" 
			}
		],
		 "valence_orbital": [ 
			{
				"type": "occ",
				"energy": -0.31476,
				"method": "rhf"
			},
			{
				"type": "occ",
				"energy": -0.31004,
				"method": "rhf"
			},
			{
				"type": "occ",
				"energy": -0.28255,
				"method": "rhf"
			},
			{
				"type": "occ",
				"energy": -0.28194,
				"method": "rhf"
			},
			{
				"type": "occ",
				"energy": -0.25814,
				"method": "rhf"
			},
			{
				"type": "unocc",
				"energy": -0.08986,
				"method": "rhf"
			},
			{
				"type": "unocc",
				"energy": -0.0567,
				"method": "rhf"
			},
			{
				"type": "unocc",
				"energy": -0.02444,
				"method": "rhf"
			},
			{
				"type": "unocc",
				"energy": 0.04209,
				"method": "rhf"
			},
			{
				"type": "unocc",
				"energy": 0.08129,
				"method": "rhf"
			}
		],
		"cosmo_sigma_profile": { 
			"-0.025": 0.0,
			"-0.024": 0.0,
			"-0.023": 0.0,
			"-0.022": 0.0,
			"-0.021": 0.0,
			"-0.02": 0.0,
			"-0.019": 0.0,
			"-0.018": 0.0,
			"-0.017": 0.0,
			"-0.016": 0.0,
			"-0.015": 0.0,
			"-0.014": 0.0,
			"-0.013": 0.0,
			"-0.012": 0.0,
			"-0.011": 0.0817725512957,
			"-0.01": 1.16117096587,
			"-0.009": 2.69746442062,
			"-0.008": 4.55791194903,
			"-0.007": 4.8821344084,
			"-0.006": 9.53031670082,
			"-0.005": 16.6629161724,
			"-0.004": 17.6320998481,
			"-0.003": 17.5775926711,
			"-0.002": 20.7999206,
			"-0.001": 19.8527522612,
			"0.0": 13.8561730118,
			"0.001": 13.7274541324,
			"0.002": 16.4180830841,
			"0.003": 9.44092856818,
			"0.004": 5.2526579456,
			"0.005": 4.75707938603,
			"0.006": 3.42865766834,
			"0.007": 3.78272888232,
			"0.008": 3.90557434039,
			"0.009": 4.71377119194,
			"0.01": 7.70417350246,
			"0.011": 9.69785334683,
			"0.012": 0.911113360764,
			"0.013": 0.0,
			"0.014": 0.0,
			"0.015": 0.0,
			"0.016": 0.0,
			"0.017": 0.0,
			"0.018": 0.0,
			"0.019": 0.0,
			"0.02": 0.0,
			"0.021": 0.0,
			"0.022": 0.0,
			"0.023": 0.0,
			"0.024": 0.0,
			"0.025": 0.0
		}
	}
}
