{
	 "smiles": "BrC1=CC=NC=C1", 
	 "Tm": 273.65, 
	 "num_atms": 11, 
	 "gaussian": { 
		 "optdone": 1, 
		 "sigma_profile": "yes", 
		 "theory": "DFT", 
		 "functional": "B3LYP", 
		 "basiset": "6-31G**", 
		 "properties": { 
			 "R2extent": 1568.0605, 
			 "electric_dipole_moment_norm": 0.63327973282, 
			 "electric_quadrupole_moment_norm": 7.29768612164, 
			 "total_energy": -2819.08842463, 
			 "HOMO_LUMO_gap": 0.22859, 
			 "cosmo_polarized_energy": -5.21, 
			 "cosmo_cavitation_energy": 17.48, 
			 "cosmo_dispersion_energy": -13.64, 
			 "cosmo_repulsion_energy": 1.14, 
			 "cosmo_total_nonelectrostatic_energy": 4.98, 
			 "SMD_solvation_energy": 0.63 
		},
		"coords": [
			{
				"x": -0.1780181672,
				"y": 1.6596216228,
				"z": 1.8654126955,
				"element": "Br" 
			},
			{
				"x": 0.5940718621,
				"y": 0.9002866018,
				"z": 0.2964689219,
				"element": "C" 
			},
			{
				"x": 1.9015455942,
				"y": 0.4232995617,
				"z": 0.3224359624,
				"element": "C" 
			},
			{
				"x": 2.4123154926,
				"y": -0.1220546418,
				"z": -0.8576150213,
				"element": "C" 
			},
			{
				"x": 1.7254090662,
				"y": -0.2126667125,
				"z": -2.0023434346,
				"element": "N" 
			},
			{
				"x": 0.4715550368,
				"y": 0.2544984819,
				"z": -1.9950410081,
				"element": "C" 
			},
			{
				"x": -0.1478525011,
				"y": 0.8209522577,
				"z": -0.8786645427,
				"element": "C" 
			},
			{
				"x": 2.5030386106,
				"y": 0.4717155301,
				"z": 1.2223947473,
				"element": "H" 
			},
			{
				"x": 3.4311034364,
				"y": -0.5049682294,
				"z": -0.8745964042,
				"element": "H" 
			},
			{
				"x": -0.078116167,
				"y": 0.1758828149,
				"z": -2.9312676637,
				"element": "H" 
			},
			{
				"x": -1.1675522636,
				"y": 1.1839327127,
				"z": -0.9288842525,
				"element": "H" 
			}
		],
		 "valence_orbital": [ 
			{
				"type": "occ",
				"energy": -0.34164,
				"method": "rhf"
			},
			{
				"type": "occ",
				"energy": -0.29897,
				"method": "rhf"
			},
			{
				"type": "occ",
				"energy": -0.27666,
				"method": "rhf"
			},
			{
				"type": "occ",
				"energy": -0.26974,
				"method": "rhf"
			},
			{
				"type": "occ",
				"energy": -0.26602,
				"method": "rhf"
			},
			{
				"type": "unocc",
				"energy": -0.03743,
				"method": "rhf"
			},
			{
				"type": "unocc",
				"energy": -0.02536,
				"method": "rhf"
			},
			{
				"type": "unocc",
				"energy": -0.00458,
				"method": "rhf"
			},
			{
				"type": "unocc",
				"energy": 0.11991,
				"method": "rhf"
			},
			{
				"type": "unocc",
				"energy": 0.12804,
				"method": "rhf"
			}
		],
		"cosmo_sigma_profile": { 
			"-0.025": 0.0,
			"-0.024": 0.0,
			"-0.023": 0.0,
			"-0.022": 0.0,
			"-0.021": 0.0,
			"-0.02": 0.0,
			"-0.019": 0.0,
			"-0.018": 0.0,
			"-0.017": 0.0,
			"-0.016": 0.0,
			"-0.015": 0.0,
			"-0.014": 0.0,
			"-0.013": 0.0,
			"-0.012": 0.0,
			"-0.011": 0.0,
			"-0.01": 0.0,
			"-0.009": 0.0312078515115,
			"-0.008": 3.00106294508,
			"-0.007": 8.32076267662,
			"-0.006": 9.40912200592,
			"-0.005": 7.03161968821,
			"-0.004": 8.09321956142,
			"-0.003": 6.53994210993,
			"-0.002": 7.7487346977,
			"-0.001": 9.4070469603,
			"0.0": 15.2342222292,
			"0.001": 23.668087746,
			"0.002": 10.2803101626,
			"0.003": 10.6484281138,
			"0.004": 12.2186799124,
			"0.005": 1.59059255208,
			"0.006": 1.30711196054,
			"0.007": 1.06708301011,
			"0.008": 1.22935751128,
			"0.009": 1.57704599424,
			"0.01": 0.777194254152,
			"0.011": 0.883555876583,
			"0.012": 0.971395624168,
			"0.013": 0.817970479965,
			"0.014": 0.865679103575,
			"0.015": 0.839752155784,
			"0.016": 0.745248006098,
			"0.017": 0.0314104937806,
			"0.018": 0.0,
			"0.019": 0.0,
			"0.02": 0.0,
			"0.021": 0.0,
			"0.022": 0.0,
			"0.023": 0.0,
			"0.024": 0.0,
			"0.025": 0.0
		}
	}
}
