{
	 "smiles": "BrCC(Br)(CCC#N)C#N", 
	 "Tm": 324.15, 
	 "num_atms": 16, 
	 "gaussian": { 
		 "optdone": 1, 
		 "sigma_profile": "yes", 
		 "theory": "DFT", 
		 "functional": "B3LYP", 
		 "basiset": "6-31G**", 
		 "properties": { 
			 "R2extent": 3899.9353, 
			 "electric_dipole_moment_norm": 3.00247281586, 
			 "electric_quadrupole_moment_norm": 18.8467833009, 
			 "total_energy": -5484.52311947, 
			 "HOMO_LUMO_gap": 0.21393, 
			 "cosmo_polarized_energy": -15.25, 
			 "cosmo_cavitation_energy": 25.47, 
			 "cosmo_dispersion_energy": -17.63, 
			 "cosmo_repulsion_energy": 1.44, 
			 "cosmo_total_nonelectrostatic_energy": 9.27, 
			 "SMD_solvation_energy": 4.57 
		},
		"coords": [
			{
				"x": -2.9552317321,
				"y": 0.9875755667,
				"z": -1.8508187106,
				"element": "Br" 
			},
			{
				"x": -1.5273494524,
				"y": 1.3949185071,
				"z": -0.5508855486,
				"element": "C" 
			},
			{
				"x": -0.9192261283,
				"y": 0.1133621313,
				"z": 0.0348388547,
				"element": "C" 
			},
			{
				"x": 0.5726120344,
				"y": 0.7612516868,
				"z": 1.2414927894,
				"element": "Br" 
			},
			{
				"x": -1.8712477683,
				"y": -0.8017379135,
				"z": 0.8395816164,
				"element": "C" 
			},
			{
				"x": -2.4462031117,
				"y": -0.2525113671,
				"z": 2.1606558054,
				"element": "C" 
			},
			{
				"x": -3.3783723958,
				"y": 0.8708637015,
				"z": 2.0302077392,
				"element": "C" 
			},
			{
				"x": -4.1100412457,
				"y": 1.7673793309,
				"z": 1.9394967736,
				"element": "N" 
			},
			{
				"x": -0.2570326442,
				"y": -0.6818630054,
				"z": -1.0017469013,
				"element": "C" 
			},
			{
				"x": 0.2487941764,
				"y": -1.3350922688,
				"z": -1.8169055031,
				"element": "N" 
			},
			{
				"x": -0.775489996,
				"y": 1.9614643054,
				"z": -1.0947230205,
				"element": "H" 
			},
			{
				"x": -1.9826883697,
				"y": 2.0061945282,
				"z": 0.2235493719,
				"element": "H" 
			},
			{
				"x": -2.6855484138,
				"y": -1.0776342188,
				"z": 0.1620419419,
				"element": "H" 
			},
			{
				"x": -1.3237449603,
				"y": -1.7163015009,
				"z": 1.0799119502,
				"element": "H" 
			},
			{
				"x": -2.9790028607,
				"y": -1.0710153157,
				"z": 2.6574978174,
				"element": "H" 
			},
			{
				"x": -1.6327271318,
				"y": 0.0497458324,
				"z": 2.8281050241,
				"element": "H" 
			}
		],
		 "valence_orbital": [ 
			{
				"type": "occ",
				"energy": -0.34116,
				"method": "rhf"
			},
			{
				"type": "occ",
				"energy": -0.31771,
				"method": "rhf"
			},
			{
				"type": "occ",
				"energy": -0.31412,
				"method": "rhf"
			},
			{
				"type": "occ",
				"energy": -0.29967,
				"method": "rhf"
			},
			{
				"type": "occ",
				"energy": -0.29455,
				"method": "rhf"
			},
			{
				"type": "unocc",
				"energy": -0.08062,
				"method": "rhf"
			},
			{
				"type": "unocc",
				"energy": -0.02048,
				"method": "rhf"
			},
			{
				"type": "unocc",
				"energy": -0.00095,
				"method": "rhf"
			},
			{
				"type": "unocc",
				"energy": 0.01353,
				"method": "rhf"
			},
			{
				"type": "unocc",
				"energy": 0.01958,
				"method": "rhf"
			}
		],
		"cosmo_sigma_profile": { 
			"-0.025": 0.0,
			"-0.024": 0.0,
			"-0.023": 0.0,
			"-0.022": 0.0,
			"-0.021": 0.0,
			"-0.02": 0.0,
			"-0.019": 0.0,
			"-0.018": 0.0,
			"-0.017": 0.0,
			"-0.016": 0.0,
			"-0.015": 0.0,
			"-0.014": 0.0,
			"-0.013": 0.0,
			"-0.012": 0.0,
			"-0.011": 0.0,
			"-0.01": 2.89299927314,
			"-0.009": 7.84611595498,
			"-0.008": 12.6687270079,
			"-0.007": 12.5245111421,
			"-0.006": 13.8309708879,
			"-0.005": 10.8818372693,
			"-0.004": 8.761926505,
			"-0.003": 9.92252165764,
			"-0.002": 8.04949426046,
			"-0.001": 10.338224993,
			"0.0": 10.9435101307,
			"0.001": 10.9601643206,
			"0.002": 15.0793230099,
			"0.003": 17.3030431062,
			"0.004": 12.672050204,
			"0.005": 9.08950280947,
			"0.006": 4.99742323583,
			"0.007": 6.01432965398,
			"0.008": 5.69346767216,
			"0.009": 5.80596961999,
			"0.01": 5.08194894704,
			"0.011": 4.72134747585,
			"0.012": 3.12559974308,
			"0.013": 1.25921197418,
			"0.014": 0.0143503186292,
			"0.015": 0.0,
			"0.016": 0.0,
			"0.017": 0.0,
			"0.018": 0.0,
			"0.019": 0.0,
			"0.02": 0.0,
			"0.021": 0.0,
			"0.022": 0.0,
			"0.023": 0.0,
			"0.024": 0.0,
			"0.025": 0.0
		}
	}
}
