{
	 "smiles": "CN1C(C)=CC=C(C#N)C1=O", 
	 "Tm": 403.15, 
	 "num_atms": 19, 
	 "gaussian": { 
		 "optdone": 1, 
		 "sigma_profile": "yes", 
		 "theory": "DFT", 
		 "functional": "B3LYP", 
		 "basiset": "6-31G**", 
		 "properties": { 
			 "R2extent": 2268.1474, 
			 "electric_dipole_moment_norm": 8.67129205424, 
			 "electric_quadrupole_moment_norm": 22.0707644007, 
			 "total_energy": -494.391934188, 
			 "HOMO_LUMO_gap": 0.15823, 
			 "cosmo_polarized_energy": -19.17, 
			 "cosmo_cavitation_energy": 23.69, 
			 "cosmo_dispersion_energy": -16.93, 
			 "cosmo_repulsion_energy": 1.34, 
			 "cosmo_total_nonelectrostatic_energy": 8.11, 
			 "SMD_solvation_energy": 6.28 
		},
		"coords": [
			{
				"x": 1.1335495805,
				"y": 2.392347751,
				"z": -0.0127541241,
				"element": "C" 
			},
			{
				"x": 0.2677974392,
				"y": 1.2804939924,
				"z": -0.4264049341,
				"element": "N" 
			},
			{
				"x": 0.6338919578,
				"y": -0.0206702316,
				"z": -0.1905069054,
				"element": "C" 
			},
			{
				"x": 1.9421780136,
				"y": -0.2824744208,
				"z": 0.5012037262,
				"element": "C" 
			},
			{
				"x": -0.1890371988,
				"y": -1.052618348,
				"z": -0.5844171874,
				"element": "C" 
			},
			{
				"x": -1.4077910588,
				"y": -0.7702091237,
				"z": -1.2302512532,
				"element": "C" 
			},
			{
				"x": -1.7904750016,
				"y": 0.53042724,
				"z": -1.474823996,
				"element": "C" 
			},
			{
				"x": -3.0245619225,
				"y": 0.8258253656,
				"z": -2.1291138501,
				"element": "C" 
			},
			{
				"x": -4.0380417995,
				"y": 1.0253003711,
				"z": -2.6649459602,
				"element": "N" 
			},
			{
				"x": -0.9524035146,
				"y": 1.6557399102,
				"z": -1.0762501991,
				"element": "C" 
			},
			{
				"x": -1.2251605252,
				"y": 2.8353418159,
				"z": -1.2593328286,
				"element": "O" 
			},
			{
				"x": 0.6296488323,
				"y": 3.3102469529,
				"z": -0.3074826813,
				"element": "H" 
			},
			{
				"x": 2.1051377537,
				"y": 2.3304646869,
				"z": -0.50969506,
				"element": "H" 
			},
			{
				"x": 1.2801699077,
				"y": 2.3849910692,
				"z": 1.0703996488,
				"element": "H" 
			},
			{
				"x": 2.7876651023,
				"y": 0.1213734778,
				"z": -0.0665275778,
				"element": "H" 
			},
			{
				"x": 1.9722248444,
				"y": 0.1750232834,
				"z": 1.496218857,
				"element": "H" 
			},
			{
				"x": 2.0915927196,
				"y": -1.3568867868,
				"z": 0.616059458,
				"element": "H" 
			},
			{
				"x": 0.1117959526,
				"y": -2.0744881063,
				"z": -0.3921828416,
				"element": "H" 
			},
			{
				"x": -2.0572810826,
				"y": -1.5828288993,
				"z": -1.5411922912,
				"element": "H" 
			}
		],
		 "valence_orbital": [ 
			{
				"type": "occ",
				"energy": -0.34779,
				"method": "rhf"
			},
			{
				"type": "occ",
				"energy": -0.32029,
				"method": "rhf"
			},
			{
				"type": "occ",
				"energy": -0.29784,
				"method": "rhf"
			},
			{
				"type": "occ",
				"energy": -0.26847,
				"method": "rhf"
			},
			{
				"type": "occ",
				"energy": -0.22861,
				"method": "rhf"
			},
			{
				"type": "unocc",
				"energy": -0.07038,
				"method": "rhf"
			},
			{
				"type": "unocc",
				"energy": -0.00437,
				"method": "rhf"
			},
			{
				"type": "unocc",
				"energy": 0.04332,
				"method": "rhf"
			},
			{
				"type": "unocc",
				"energy": 0.06064,
				"method": "rhf"
			},
			{
				"type": "unocc",
				"energy": 0.0659,
				"method": "rhf"
			}
		],
		"cosmo_sigma_profile": { 
			"-0.025": 0.0,
			"-0.024": 0.0,
			"-0.023": 0.0,
			"-0.022": 0.0,
			"-0.021": 0.0,
			"-0.02": 0.0,
			"-0.019": 0.0,
			"-0.018": 0.0,
			"-0.017": 0.0,
			"-0.016": 0.0,
			"-0.015": 0.0,
			"-0.014": 0.0,
			"-0.013": 0.0,
			"-0.012": 0.0,
			"-0.011": 0.0,
			"-0.01": 0.000359742206867,
			"-0.009": 1.87149188938,
			"-0.008": 6.73121867665,
			"-0.007": 14.2896903089,
			"-0.006": 13.0437715979,
			"-0.005": 12.9331391485,
			"-0.004": 14.1276315331,
			"-0.003": 20.5949956043,
			"-0.002": 17.5162867994,
			"-0.001": 12.7039400125,
			"0.0": 10.9234460808,
			"0.001": 7.43653681455,
			"0.002": 5.76011891324,
			"0.003": 3.12156913906,
			"0.004": 3.29852225473,
			"0.005": 3.35305089041,
			"0.006": 3.38641319675,
			"0.007": 4.68947889344,
			"0.008": 5.47677263778,
			"0.009": 5.27577845398,
			"0.01": 5.48791684573,
			"0.011": 4.78049115118,
			"0.012": 5.56818006616,
			"0.013": 6.57034068362,
			"0.014": 1.13051818972,
			"0.015": 0.0,
			"0.016": 0.0,
			"0.017": 0.0,
			"0.018": 0.0,
			"0.019": 0.0,
			"0.02": 0.0,
			"0.021": 0.0,
			"0.022": 0.0,
			"0.023": 0.0,
			"0.024": 0.0,
			"0.025": 0.0
		}
	}
}
