{
	 "smiles": "Cl[Si](C1=CC=CC=C1)(C1=CC=CC=C1)C1=CC=CC=C1", 
	 "Tm": 365.95, 
	 "num_atms": 35, 
	 "gaussian": { 
		 "optdone": 1, 
		 "sigma_profile": "yes", 
		 "theory": "DFT", 
		 "functional": "B3LYP", 
		 "basiset": "6-31G**", 
		 "properties": { 
			 "R2extent": 6616.2222, 
			 "electric_dipole_moment_norm": 2.75463287754, 
			 "electric_quadrupole_moment_norm": 12.5237717769, 
			 "total_energy": -1444.72383555, 
			 "HOMO_LUMO_gap": 0.22012, 
			 "cosmo_polarized_energy": -8.3, 
			 "cosmo_cavitation_energy": 42.12, 
			 "cosmo_dispersion_energy": -26.96, 
			 "cosmo_repulsion_energy": 2.16, 
			 "cosmo_total_nonelectrostatic_energy": 17.33, 
			 "SMD_solvation_energy": 6.92 
		},
		"coords": [
			{
				"x": 0.6164762976,
				"y": -2.4300475617,
				"z": 1.7020691232,
				"element": "Cl" 
			},
			{
				"x": 0.3099106251,
				"y": -0.5267264108,
				"z": 0.8434528163,
				"element": "Si" 
			},
			{
				"x": -1.3688079352,
				"y": -0.5549581459,
				"z": 0.0000856212,
				"element": "C" 
			},
			{
				"x": -2.5109551629,
				"y": -1.03527636,
				"z": 0.6698323422,
				"element": "C" 
			},
			{
				"x": -3.7631592195,
				"y": -1.0204201428,
				"z": 0.0567266175,
				"element": "C" 
			},
			{
				"x": -3.8999387226,
				"y": -0.5235702157,
				"z": -1.242146262,
				"element": "C" 
			},
			{
				"x": -2.7809043041,
				"y": -0.0445942699,
				"z": -1.9237314008,
				"element": "C" 
			},
			{
				"x": -1.5274611021,
				"y": -0.0616238079,
				"z": -1.3076571814,
				"element": "C" 
			},
			{
				"x": 0.3586243098,
				"y": 0.7325818179,
				"z": 2.2369236916,
				"element": "C" 
			},
			{
				"x": 1.4068869685,
				"y": 0.7349208666,
				"z": 3.1776703419,
				"element": "C" 
			},
			{
				"x": 1.4627068071,
				"y": 1.6927046851,
				"z": 4.1894048239,
				"element": "C" 
			},
			{
				"x": 0.4690872183,
				"y": 2.670890888,
				"z": 4.2818697951,
				"element": "C" 
			},
			{
				"x": -0.5787627591,
				"y": 2.6853620678,
				"z": 3.3610121888,
				"element": "C" 
			},
			{
				"x": -0.6328606837,
				"y": 1.7240840646,
				"z": 2.3490755819,
				"element": "C" 
			},
			{
				"x": 1.6954464546,
				"y": -0.238266363,
				"z": -0.3923322922,
				"element": "C" 
			},
			{
				"x": 2.404851429,
				"y": 0.9762932153,
				"z": -0.410675374,
				"element": "C" 
			},
			{
				"x": 3.4089114884,
				"y": 1.20962242,
				"z": -1.3532313341,
				"element": "C" 
			},
			{
				"x": 3.7233562469,
				"y": 0.2295248409,
				"z": -2.2948979139,
				"element": "C" 
			},
			{
				"x": 3.0322064393,
				"y": -0.984953916,
				"z": -2.2919140717,
				"element": "C" 
			},
			{
				"x": 2.0295794655,
				"y": -1.2148715729,
				"z": -1.3506581267,
				"element": "C" 
			},
			{
				"x": -2.4199323191,
				"y": -1.4343348045,
				"z": 1.6768376125,
				"element": "H" 
			},
			{
				"x": -4.6312793872,
				"y": -1.3988736546,
				"z": 0.589174842,
				"element": "H" 
			},
			{
				"x": -4.8752395158,
				"y": -0.5135493172,
				"z": -1.7209265399,
				"element": "H" 
			},
			{
				"x": -2.8813270536,
				"y": 0.3385867431,
				"z": -2.9354243075,
				"element": "H" 
			},
			{
				"x": -0.6635602965,
				"y": 0.3070437155,
				"z": -1.8537149738,
				"element": "H" 
			},
			{
				"x": 2.1823979889,
				"y": -0.0250144641,
				"z": 3.1257169381,
				"element": "H" 
			},
			{
				"x": 2.2778855592,
				"y": 1.6750271079,
				"z": 4.9074087548,
				"element": "H" 
			},
			{
				"x": 0.5112485912,
				"y": 3.4163378068,
				"z": 5.0712198246,
				"element": "H" 
			},
			{
				"x": -1.3560550311,
				"y": 3.441215254,
				"z": 3.4312844198,
				"element": "H" 
			},
			{
				"x": -1.4592157241,
				"y": 1.7429612142,
				"z": 1.6439707564,
				"element": "H" 
			},
			{
				"x": 2.1764786536,
				"y": 1.7456130841,
				"z": 0.3217211693,
				"element": "H" 
			},
			{
				"x": 3.9464072497,
				"y": 2.1538227524,
				"z": -1.3486469841,
				"element": "H" 
			},
			{
				"x": 4.505955127,
				"y": 0.4083676051,
				"z": -3.027083791,
				"element": "H" 
			},
			{
				"x": 3.2772881973,
				"y": -1.7527255717,
				"z": -3.0204880662,
				"element": "H" 
			},
			{
				"x": 1.5083540994,
				"y": -2.1687535707,
				"z": -1.3556286418,
				"element": "H" 
			}
		],
		 "valence_orbital": [ 
			{
				"type": "occ",
				"energy": -0.25588,
				"method": "rhf"
			},
			{
				"type": "occ",
				"energy": -0.25582,
				"method": "rhf"
			},
			{
				"type": "occ",
				"energy": -0.25324,
				"method": "rhf"
			},
			{
				"type": "occ",
				"energy": -0.25136,
				"method": "rhf"
			},
			{
				"type": "occ",
				"energy": -0.25134,
				"method": "rhf"
			},
			{
				"type": "unocc",
				"energy": -0.03122,
				"method": "rhf"
			},
			{
				"type": "unocc",
				"energy": -0.0188,
				"method": "rhf"
			},
			{
				"type": "unocc",
				"energy": -0.01872,
				"method": "rhf"
			},
			{
				"type": "unocc",
				"energy": -0.01076,
				"method": "rhf"
			},
			{
				"type": "unocc",
				"energy": -0.00073,
				"method": "rhf"
			}
		],
		"cosmo_sigma_profile": { 
			"-0.025": 0.0,
			"-0.024": 0.0,
			"-0.023": 0.0,
			"-0.022": 0.0,
			"-0.021": 0.0,
			"-0.02": 0.0,
			"-0.019": 0.0,
			"-0.018": 0.0,
			"-0.017": 0.0,
			"-0.016": 0.0,
			"-0.015": 0.0,
			"-0.014": 0.0,
			"-0.013": 0.0,
			"-0.012": 0.0,
			"-0.011": 0.0,
			"-0.01": 0.0,
			"-0.009": 0.0,
			"-0.008": 0.0,
			"-0.007": 0.348791045437,
			"-0.006": 16.387004011,
			"-0.005": 29.302865979,
			"-0.004": 33.5320762275,
			"-0.003": 25.9422594302,
			"-0.002": 26.3393486599,
			"-0.001": 22.3922456192,
			"0.0": 25.9404644214,
			"0.001": 23.177681546,
			"0.002": 24.8488139017,
			"0.003": 28.6387195163,
			"0.004": 33.6294385835,
			"0.005": 35.0210067779,
			"0.006": 10.512828086,
			"0.007": 0.299768853895,
			"0.008": 0.0,
			"0.009": 0.0,
			"0.01": 0.0,
			"0.011": 0.0,
			"0.012": 0.0,
			"0.013": 0.0,
			"0.014": 0.0,
			"0.015": 0.0,
			"0.016": 0.0,
			"0.017": 0.0,
			"0.018": 0.0,
			"0.019": 0.0,
			"0.02": 0.0,
			"0.021": 0.0,
			"0.022": 0.0,
			"0.023": 0.0,
			"0.024": 0.0,
			"0.025": 0.0
		}
	}
}
