{
	 "smiles": "NS(=O)(=O)C1=CC(=CC=C1)C(=O)C1=CC=CC=C1", 
	 "Tm": 417.15, 
	 "num_atms": 29, 
	 "gaussian": { 
		 "optdone": 1, 
		 "sigma_profile": "yes", 
		 "theory": "DFT", 
		 "functional": "B3LYP", 
		 "basiset": "6-31G**", 
		 "properties": { 
			 "R2extent": 7263.9402, 
			 "electric_dipole_moment_norm": 2.9944766304, 
			 "electric_quadrupole_moment_norm": 38.4782033537, 
			 "total_energy": -1180.55418496, 
			 "HOMO_LUMO_gap": 0.17789, 
			 "cosmo_polarized_energy": -21.83, 
			 "cosmo_cavitation_energy": 35.35, 
			 "cosmo_dispersion_energy": -25.5, 
			 "cosmo_repulsion_energy": 1.92, 
			 "cosmo_total_nonelectrostatic_energy": 11.77, 
			 "SMD_solvation_energy": 6.05 
		},
		"coords": [
			{
				"x": -4.0022105509,
				"y": -1.7649346995,
				"z": 3.3860878961,
				"element": "N" 
			},
			{
				"x": -3.3871128649,
				"y": -0.2031460862,
				"z": 3.4483023651,
				"element": "S" 
			},
			{
				"x": -2.1985720547,
				"y": -0.2814758779,
				"z": 4.2956349915,
				"element": "O" 
			},
			{
				"x": -4.5280419158,
				"y": 0.6595929704,
				"z": 3.7481217745,
				"element": "O" 
			},
			{
				"x": -2.829787689,
				"y": 0.2087509077,
				"z": 1.7853183172,
				"element": "C" 
			},
			{
				"x": -1.5249599945,
				"y": -0.1131202424,
				"z": 1.4071177806,
				"element": "C" 
			},
			{
				"x": -1.0939264482,
				"y": 0.1786660935,
				"z": 0.1066008077,
				"element": "C" 
			},
			{
				"x": -1.9898313699,
				"y": 0.777978082,
				"z": -0.7939212976,
				"element": "C" 
			},
			{
				"x": -3.278521477,
				"y": 1.1217735245,
				"z": -0.3943410229,
				"element": "C" 
			},
			{
				"x": -3.7091625388,
				"y": 0.8404524491,
				"z": 0.9044073652,
				"element": "C" 
			},
			{
				"x": 0.2693041251,
				"y": -0.199507064,
				"z": -0.4105797985,
				"element": "C" 
			},
			{
				"x": 0.3981189168,
				"y": -0.457102164,
				"z": -1.6021552209,
				"element": "O" 
			},
			{
				"x": 1.4467607572,
				"y": -0.2676070432,
				"z": 0.51056172,
				"element": "C" 
			},
			{
				"x": 1.550712183,
				"y": 0.4965634274,
				"z": 1.6842567792,
				"element": "C" 
			},
			{
				"x": 2.7035658451,
				"y": 0.4282627861,
				"z": 2.4671977614,
				"element": "C" 
			},
			{
				"x": 3.7561297356,
				"y": -0.4077221366,
				"z": 2.0917826053,
				"element": "C" 
			},
			{
				"x": 3.664437865,
				"y": -1.1649395535,
				"z": 0.9192873231,
				"element": "C" 
			},
			{
				"x": 2.5230079378,
				"y": -1.0863912903,
				"z": 0.1282972375,
				"element": "C" 
			},
			{
				"x": -4.8336763861,
				"y": -1.8437374561,
				"z": 2.8094869692,
				"element": "H" 
			},
			{
				"x": -3.2972129495,
				"y": -2.4638064463,
				"z": 3.1748783547,
				"element": "H" 
			},
			{
				"x": -0.8622893123,
				"y": -0.5839558911,
				"z": 2.1241410879,
				"element": "H" 
			},
			{
				"x": -1.6484266182,
				"y": 0.9698077807,
				"z": -1.8055490315,
				"element": "H" 
			},
			{
				"x": -3.9514745391,
				"y": 1.6118651059,
				"z": -1.0912357037,
				"element": "H" 
			},
			{
				"x": -4.7021350536,
				"y": 1.1177845811,
				"z": 1.2420808796,
				"element": "H" 
			},
			{
				"x": 0.7466504367,
				"y": 1.1634470992,
				"z": 1.9761680225,
				"element": "H" 
			},
			{
				"x": 2.7780450047,
				"y": 1.0288651933,
				"z": 3.3686212606,
				"element": "H" 
			},
			{
				"x": 4.6489807809,
				"y": -0.465869179,
				"z": 2.7077075658,
				"element": "H" 
			},
			{
				"x": 4.485828558,
				"y": -1.8107421026,
				"z": 0.6230626682,
				"element": "H" 
			},
			{
				"x": 2.4395996167,
				"y": -1.6504527683,
				"z": -0.7946394582,
				"element": "H" 
			}
		],
		 "valence_orbital": [ 
			{
				"type": "occ",
				"energy": -0.28244,
				"method": "rhf"
			},
			{
				"type": "occ",
				"energy": -0.27734,
				"method": "rhf"
			},
			{
				"type": "occ",
				"energy": -0.26879,
				"method": "rhf"
			},
			{
				"type": "occ",
				"energy": -0.26596,
				"method": "rhf"
			},
			{
				"type": "occ",
				"energy": -0.25667,
				"method": "rhf"
			},
			{
				"type": "unocc",
				"energy": -0.07878,
				"method": "rhf"
			},
			{
				"type": "unocc",
				"energy": -0.04535,
				"method": "rhf"
			},
			{
				"type": "unocc",
				"energy": -0.03028,
				"method": "rhf"
			},
			{
				"type": "unocc",
				"energy": -0.01437,
				"method": "rhf"
			},
			{
				"type": "unocc",
				"energy": 0.0373,
				"method": "rhf"
			}
		],
		"cosmo_sigma_profile": { 
			"-0.025": 0.0,
			"-0.024": 0.0,
			"-0.023": 0.0,
			"-0.022": 0.0,
			"-0.021": 0.0,
			"-0.02": 0.0,
			"-0.019": 0.0,
			"-0.018": 0.0,
			"-0.017": 0.0,
			"-0.016": 0.406412158418,
			"-0.015": 2.7640162961,
			"-0.014": 2.7241928474,
			"-0.013": 2.19891756624,
			"-0.012": 3.27698188788,
			"-0.011": 2.388293313,
			"-0.01": 2.83986212532,
			"-0.009": 2.70481546652,
			"-0.008": 2.34573913178,
			"-0.007": 8.93735031406,
			"-0.006": 19.204505894,
			"-0.005": 19.3170325358,
			"-0.004": 19.277653685,
			"-0.003": 17.9650702382,
			"-0.002": 16.5552533556,
			"-0.001": 15.1229297232,
			"0.0": 15.9615302773,
			"0.001": 21.3588277681,
			"0.002": 18.6798290477,
			"0.003": 14.91601455,
			"0.004": 14.9878337955,
			"0.005": 5.50121580236,
			"0.006": 6.15984810381,
			"0.007": 4.96799527581,
			"0.008": 5.7855455823,
			"0.009": 6.51572086693,
			"0.01": 10.1150910934,
			"0.011": 13.9194050317,
			"0.012": 6.62658690029,
			"0.013": 0.127487678345,
			"0.014": 0.0,
			"0.015": 0.0,
			"0.016": 0.0,
			"0.017": 0.0,
			"0.018": 0.0,
			"0.019": 0.0,
			"0.02": 0.0,
			"0.021": 0.0,
			"0.022": 0.0,
			"0.023": 0.0,
			"0.024": 0.0,
			"0.025": 0.0
		}
	}
}
