{
	 "smiles": "ClC1=CC(=CC=C1)C(=O)C1=CN=CC=C1", 
	 "Tm": 321.15, 
	 "num_atms": 23, 
	 "gaussian": { 
		 "optdone": 1, 
		 "sigma_profile": "yes", 
		 "theory": "DFT", 
		 "functional": "B3LYP", 
		 "basiset": "6-31G**", 
		 "properties": { 
			 "R2extent": 5696.2466, 
			 "electric_dipole_moment_norm": 4.72414513854, 
			 "electric_quadrupole_moment_norm": 8.86151042148, 
			 "total_energy": -1052.25820448, 
			 "HOMO_LUMO_gap": 0.17456, 
			 "cosmo_polarized_energy": -11.52, 
			 "cosmo_cavitation_energy": 29.87, 
			 "cosmo_dispersion_energy": -21.83, 
			 "cosmo_repulsion_energy": 1.69, 
			 "cosmo_total_nonelectrostatic_energy": 9.73, 
			 "SMD_solvation_energy": 3.84 
		},
		"coords": [
			{
				"x": -5.935420009,
				"y": -1.7077233441,
				"z": -0.6630889765,
				"element": "Cl" 
			},
			{
				"x": -4.3264319676,
				"y": -1.1135022513,
				"z": -1.0422002379,
				"element": "C" 
			},
			{
				"x": -3.2392673767,
				"y": -1.5633667193,
				"z": -0.3035400001,
				"element": "C" 
			},
			{
				"x": -1.9564925343,
				"y": -1.0728342176,
				"z": -0.5935001424,
				"element": "C" 
			},
			{
				"x": -1.7841299754,
				"y": -0.1614525237,
				"z": -1.6455154402,
				"element": "C" 
			},
			{
				"x": -2.8857650988,
				"y": 0.2639456818,
				"z": -2.3890557139,
				"element": "C" 
			},
			{
				"x": -4.1656082979,
				"y": -0.2001126487,
				"z": -2.087598949,
				"element": "C" 
			},
			{
				"x": -0.8142919905,
				"y": -1.6296123426,
				"z": 0.2081115757,
				"element": "C" 
			},
			{
				"x": -0.9119995738,
				"y": -2.7355012642,
				"z": 0.725384937,
				"element": "O" 
			},
			{
				"x": 0.4473182652,
				"y": -0.8394512948,
				"z": 0.3785731012,
				"element": "C" 
			},
			{
				"x": 1.6490133025,
				"y": -1.5437325399,
				"z": 0.5719563257,
				"element": "C" 
			},
			{
				"x": 2.8313062475,
				"y": -0.9614278508,
				"z": 0.7792638398,
				"element": "N" 
			},
			{
				"x": 2.8554814742,
				"y": 0.3786419439,
				"z": 0.828258641,
				"element": "C" 
			},
			{
				"x": 1.7233216513,
				"y": 1.178756453,
				"z": 0.6713292517,
				"element": "C" 
			},
			{
				"x": 0.4974525877,
				"y": 0.5591326948,
				"z": 0.43731833,
				"element": "C" 
			},
			{
				"x": -3.3602921421,
				"y": -2.2903294528,
				"z": 0.4909341994,
				"element": "H" 
			},
			{
				"x": -0.7920956774,
				"y": 0.1924908287,
				"z": -1.9030326073,
				"element": "H" 
			},
			{
				"x": -2.7492496344,
				"y": 0.9594790368,
				"z": -3.2114914698,
				"element": "H" 
			},
			{
				"x": -5.0281588442,
				"y": 0.1324931528,
				"z": -2.6544583292,
				"element": "H" 
			},
			{
				"x": 1.6305255496,
				"y": -2.6305218517,
				"z": 0.5488828507,
				"element": "H" 
			},
			{
				"x": 3.8283411426,
				"y": 0.8325866288,
				"z": 1.008386312,
				"element": "H" 
			},
			{
				"x": 1.8012343728,
				"y": 2.2592613084,
				"z": 0.7371363784,
				"element": "H" 
			},
			{
				"x": -0.4063914713,
				"y": 1.1496805724,
				"z": 0.3267461237,
				"element": "H" 
			}
		],
		 "valence_orbital": [ 
			{
				"type": "occ",
				"energy": -0.28321,
				"method": "rhf"
			},
			{
				"type": "occ",
				"energy": -0.27734,
				"method": "rhf"
			},
			{
				"type": "occ",
				"energy": -0.26858,
				"method": "rhf"
			},
			{
				"type": "occ",
				"energy": -0.26095,
				"method": "rhf"
			},
			{
				"type": "occ",
				"energy": -0.25512,
				"method": "rhf"
			},
			{
				"type": "unocc",
				"energy": -0.08056,
				"method": "rhf"
			},
			{
				"type": "unocc",
				"energy": -0.04053,
				"method": "rhf"
			},
			{
				"type": "unocc",
				"energy": -0.0282,
				"method": "rhf"
			},
			{
				"type": "unocc",
				"energy": -0.02553,
				"method": "rhf"
			},
			{
				"type": "unocc",
				"energy": 0.02226,
				"method": "rhf"
			}
		],
		"cosmo_sigma_profile": { 
			"-0.025": 0.0,
			"-0.024": 0.0,
			"-0.023": 0.0,
			"-0.022": 0.0,
			"-0.021": 0.0,
			"-0.02": 0.0,
			"-0.019": 0.0,
			"-0.018": 0.0,
			"-0.017": 0.0,
			"-0.016": 0.0,
			"-0.015": 0.0,
			"-0.014": 0.0,
			"-0.013": 0.0,
			"-0.012": 0.0,
			"-0.011": 0.0,
			"-0.01": 0.0,
			"-0.009": 0.0,
			"-0.008": 3.16047306085,
			"-0.007": 13.0767615248,
			"-0.006": 17.1737288797,
			"-0.005": 17.0170311876,
			"-0.004": 15.0506376709,
			"-0.003": 13.9201238335,
			"-0.002": 14.5488153077,
			"-0.001": 16.471990475,
			"0.0": 21.3209495296,
			"0.001": 28.9937998299,
			"0.002": 24.2414907986,
			"0.003": 13.3414140254,
			"0.004": 13.1366444554,
			"0.005": 6.63909504923,
			"0.006": 3.13705188441,
			"0.007": 3.50322798426,
			"0.008": 2.0936047228,
			"0.009": 2.69267527804,
			"0.01": 3.27090916156,
			"0.011": 4.76295431978,
			"0.012": 2.91100412719,
			"0.013": 0.878072827101,
			"0.014": 0.727736383716,
			"0.015": 0.857215334442,
			"0.016": 0.568763833039,
			"0.017": 0.0146228603452,
			"0.018": 0.0,
			"0.019": 0.0,
			"0.02": 0.0,
			"0.021": 0.0,
			"0.022": 0.0,
			"0.023": 0.0,
			"0.024": 0.0,
			"0.025": 0.0
		}
	}
}
