{
	 "smiles": "OC(=O)CC1=CC=C(OCC2=CC=CC=C2)C=C1", 
	 "Tm": 397.15, 
	 "num_atms": 32, 
	 "gaussian": { 
		 "optdone": 1, 
		 "sigma_profile": "yes", 
		 "theory": "DFT", 
		 "functional": "B3LYP", 
		 "basiset": "6-31G**", 
		 "properties": { 
			 "R2extent": 6924.3598, 
			 "electric_dipole_moment_norm": 5.93962978139, 
			 "electric_quadrupole_moment_norm": 26.2810830171, 
			 "total_energy": -805.709018564, 
			 "HOMO_LUMO_gap": 0.20632, 
			 "cosmo_polarized_energy": -15.78, 
			 "cosmo_cavitation_energy": 36.45, 
			 "cosmo_dispersion_energy": -25.62, 
			 "cosmo_repulsion_energy": 2.0, 
			 "cosmo_total_nonelectrostatic_energy": 12.83, 
			 "SMD_solvation_energy": 7.38 
		},
		"coords": [
			{
				"x": -3.6464539742,
				"y": -3.1838978672,
				"z": -0.5864751106,
				"element": "O" 
			},
			{
				"x": -3.1260245399,
				"y": -3.6472617435,
				"z": 0.5724970322,
				"element": "C" 
			},
			{
				"x": -3.8055922389,
				"y": -4.257526118,
				"z": 1.3597195766,
				"element": "O" 
			},
			{
				"x": -1.6275577063,
				"y": -3.3833777707,
				"z": 0.8097278255,
				"element": "C" 
			},
			{
				"x": -0.9723809472,
				"y": -2.3743133024,
				"z": -0.1052132485,
				"element": "C" 
			},
			{
				"x": -0.3981846173,
				"y": -2.7655118383,
				"z": -1.3282915558,
				"element": "C" 
			},
			{
				"x": 0.178831377,
				"y": -1.8357546038,
				"z": -2.185861939,
				"element": "C" 
			},
			{
				"x": 0.2014533712,
				"y": -0.4771592561,
				"z": -1.8393375225,
				"element": "C" 
			},
			{
				"x": 0.7840964292,
				"y": 0.3522771528,
				"z": -2.7550209353,
				"element": "O" 
			},
			{
				"x": 0.7322478033,
				"y": 1.7655231252,
				"z": -2.5543245986,
				"element": "C" 
			},
			{
				"x": 1.7303905336,
				"y": 2.2872174629,
				"z": -1.5387232733,
				"element": "C" 
			},
			{
				"x": 2.9747844304,
				"y": 1.6678208052,
				"z": -1.3737777737,
				"element": "C" 
			},
			{
				"x": 3.9063732423,
				"y": 2.1870510042,
				"z": -0.474690461,
				"element": "C" 
			},
			{
				"x": 3.608650214,
				"y": 3.3352155406,
				"z": 0.2629241246,
				"element": "C" 
			},
			{
				"x": 2.3708658209,
				"y": 3.9593993687,
				"z": 0.1008003906,
				"element": "C" 
			},
			{
				"x": 1.4355249461,
				"y": 3.4342336143,
				"z": -0.7926538044,
				"element": "C" 
			},
			{
				"x": -0.356843489,
				"y": -0.0663212868,
				"z": -0.6219860329,
				"element": "C" 
			},
			{
				"x": -0.9371838041,
				"y": -1.013195764,
				"z": 0.2234897162,
				"element": "C" 
			},
			{
				"x": -2.9601513722,
				"y": -2.695492677,
				"z": -1.0706954729,
				"element": "H" 
			},
			{
				"x": -1.1361178925,
				"y": -4.3598510986,
				"z": 0.7232795716,
				"element": "H" 
			},
			{
				"x": -1.5357028594,
				"y": -3.0911219359,
				"z": 1.8595690888,
				"element": "H" 
			},
			{
				"x": -0.3972318513,
				"y": -3.8163284475,
				"z": -1.6086954785,
				"element": "H" 
			},
			{
				"x": 0.6210338611,
				"y": -2.1384065686,
				"z": -3.1293255314,
				"element": "H" 
			},
			{
				"x": 0.9539613949,
				"y": 2.1773632759,
				"z": -3.5447786208,
				"element": "H" 
			},
			{
				"x": -0.2872826903,
				"y": 2.0767200137,
				"z": -2.2913181493,
				"element": "H" 
			},
			{
				"x": 3.2032014502,
				"y": 0.7740633194,
				"z": -1.9460906292,
				"element": "H" 
			},
			{
				"x": 4.8668928813,
				"y": 1.6950812987,
				"z": -0.3504022938,
				"element": "H" 
			},
			{
				"x": 4.3353980498,
				"y": 3.7384465027,
				"z": 0.9620975759,
				"element": "H" 
			},
			{
				"x": 2.1290415841,
				"y": 4.849459114,
				"z": 0.6746064721,
				"element": "H" 
			},
			{
				"x": 0.4693663651,
				"y": 3.9205605834,
				"z": -0.9100629076,
				"element": "H" 
			},
			{
				"x": -0.3223770633,
				"y": 0.9714050658,
				"z": -0.3147096055,
				"element": "H" 
			},
			{
				"x": -1.3628287086,
				"y": -0.6812169691,
				"z": 1.1672235702,
				"element": "H" 
			}
		],
		 "valence_orbital": [ 
			{
				"type": "occ",
				"energy": -0.2693,
				"method": "rhf"
			},
			{
				"type": "occ",
				"energy": -0.26523,
				"method": "rhf"
			},
			{
				"type": "occ",
				"energy": -0.26046,
				"method": "rhf"
			},
			{
				"type": "occ",
				"energy": -0.25454,
				"method": "rhf"
			},
			{
				"type": "occ",
				"energy": -0.22954,
				"method": "rhf"
			},
			{
				"type": "unocc",
				"energy": -0.02322,
				"method": "rhf"
			},
			{
				"type": "unocc",
				"energy": -0.01405,
				"method": "rhf"
			},
			{
				"type": "unocc",
				"energy": -0.01224,
				"method": "rhf"
			},
			{
				"type": "unocc",
				"energy": -0.00837,
				"method": "rhf"
			},
			{
				"type": "unocc",
				"energy": 0.02194,
				"method": "rhf"
			}
		],
		"cosmo_sigma_profile": { 
			"-0.025": 0.0,
			"-0.024": 0.0,
			"-0.023": 0.0,
			"-0.022": 0.0,
			"-0.021": 0.0,
			"-0.02": 0.0,
			"-0.019": 0.0,
			"-0.018": 0.0,
			"-0.017": 0.0,
			"-0.016": 0.0,
			"-0.015": 0.0,
			"-0.014": 0.118690990377,
			"-0.013": 0.499583514001,
			"-0.012": 0.501010237817,
			"-0.011": 0.654298458106,
			"-0.01": 0.806207082193,
			"-0.009": 0.991521549888,
			"-0.008": 2.23576746796,
			"-0.007": 9.8657163899,
			"-0.006": 25.6549686685,
			"-0.005": 26.7496038271,
			"-0.004": 26.1748366403,
			"-0.003": 23.1994738775,
			"-0.002": 15.8969656467,
			"-0.001": 16.7377155408,
			"0.0": 13.8604154943,
			"0.001": 15.4918399417,
			"0.002": 17.7050616089,
			"0.003": 18.3752789327,
			"0.004": 19.4724577777,
			"0.005": 15.3862812771,
			"0.006": 9.10814219015,
			"0.007": 3.51701439462,
			"0.008": 3.71408829149,
			"0.009": 4.08781275421,
			"0.01": 5.0322210795,
			"0.011": 4.89062336908,
			"0.012": 6.0655279817,
			"0.013": 3.43253601878,
			"0.014": 0.315600736052,
			"0.015": 0.0,
			"0.016": 0.0,
			"0.017": 0.0,
			"0.018": 0.0,
			"0.019": 0.0,
			"0.02": 0.0,
			"0.021": 0.0,
			"0.022": 0.0,
			"0.023": 0.0,
			"0.024": 0.0,
			"0.025": 0.0
		}
	}
}
