{
	 "smiles": "COC1=CC(N)=C(OC)C=C1[N+]([O-])=O", 
	 "Tm": 428.15, 
	 "num_atms": 24, 
	 "gaussian": { 
		 "optdone": 1, 
		 "sigma_profile": "yes", 
		 "theory": "DFT", 
		 "functional": "B3LYP", 
		 "basiset": "6-31G**", 
		 "properties": { 
			 "R2extent": 3404.734, 
			 "electric_dipole_moment_norm": 7.30204510394, 
			 "electric_quadrupole_moment_norm": 26.3304836885, 
			 "total_energy": -721.148105993, 
			 "HOMO_LUMO_gap": 0.14647, 
			 "cosmo_polarized_energy": -19.59, 
			 "cosmo_cavitation_energy": 28.38, 
			 "cosmo_dispersion_energy": -20.94, 
			 "cosmo_repulsion_energy": 1.67, 
			 "cosmo_total_nonelectrostatic_energy": 9.11, 
			 "SMD_solvation_energy": 8.64 
		},
		"coords": [
			{
				"x": -0.7166995104,
				"y": 0.6258161473,
				"z": -4.1421110362,
				"element": "C" 
			},
			{
				"x": -0.7668844631,
				"y": 1.3968128748,
				"z": -2.9506841483,
				"element": "O" 
			},
			{
				"x": -0.7182895825,
				"y": 0.7659262245,
				"z": -1.7572087813,
				"element": "C" 
			},
			{
				"x": -0.6094514032,
				"y": -0.6284825766,
				"z": -1.6463378285,
				"element": "C" 
			},
			{
				"x": -0.5639527013,
				"y": -1.2757956618,
				"z": -0.4071006279,
				"element": "C" 
			},
			{
				"x": -0.5028988919,
				"y": -2.6444759482,
				"z": -0.2953297247,
				"element": "N" 
			},
			{
				"x": -0.6251788275,
				"y": -0.4947155144,
				"z": 0.7772521703,
				"element": "C" 
			},
			{
				"x": -0.5589537767,
				"y": -1.2185693158,
				"z": 1.9411548486,
				"element": "O" 
			},
			{
				"x": -0.6032633823,
				"y": -0.5008412416,
				"z": 3.1658816511,
				"element": "C" 
			},
			{
				"x": -0.7305670954,
				"y": 0.875803349,
				"z": 0.6856891501,
				"element": "C" 
			},
			{
				"x": -0.7796660986,
				"y": 1.5227858096,
				"z": -0.5626253363,
				"element": "C" 
			},
			{
				"x": -0.8891338872,
				"y": 2.9720271849,
				"z": -0.53377581,
				"element": "N" 
			},
			{
				"x": -0.9491086936,
				"y": 3.5150620392,
				"z": 0.5803193073,
				"element": "O" 
			},
			{
				"x": -0.9164569025,
				"y": 3.5954771611,
				"z": -1.5951788049,
				"element": "O" 
			},
			{
				"x": -1.5623465169,
				"y": -0.069875933,
				"z": -4.2114108369,
				"element": "H" 
			},
			{
				"x": -0.7764638244,
				"y": 1.3474719602,
				"z": -4.9573987186,
				"element": "H" 
			},
			{
				"x": 0.2230798773,
				"y": 0.065174275,
				"z": -4.2237059386,
				"element": "H" 
			},
			{
				"x": -0.5674764993,
				"y": -1.2380367374,
				"z": -2.540380278,
				"element": "H" 
			},
			{
				"x": -0.161946868,
				"y": -3.1691658396,
				"z": -1.0854868359,
				"element": "H" 
			},
			{
				"x": -0.2493319364,
				"y": -3.0016931437,
				"z": 0.6136354192,
				"element": "H" 
			},
			{
				"x": -0.538366654,
				"y": -1.2478032744,
				"z": 3.9583140587,
				"element": "H" 
			},
			{
				"x": 0.2392677903,
				"y": 0.1968462118,
				"z": 3.2524190119,
				"element": "H" 
			},
			{
				"x": -1.5422617988,
				"y": 0.0571511263,
				"z": 3.2679294496,
				"element": "H" 
			},
			{
				"x": -0.7759483535,
				"y": 1.5086008228,
				"z": 1.5604396396,
				"element": "H" 
			}
		],
		 "valence_orbital": [ 
			{
				"type": "occ",
				"energy": -0.27665,
				"method": "rhf"
			},
			{
				"type": "occ",
				"energy": -0.276,
				"method": "rhf"
			},
			{
				"type": "occ",
				"energy": -0.25444,
				"method": "rhf"
			},
			{
				"type": "occ",
				"energy": -0.2389,
				"method": "rhf"
			},
			{
				"type": "occ",
				"energy": -0.20513,
				"method": "rhf"
			},
			{
				"type": "unocc",
				"energy": -0.05866,
				"method": "rhf"
			},
			{
				"type": "unocc",
				"energy": 0.0055,
				"method": "rhf"
			},
			{
				"type": "unocc",
				"energy": 0.03126,
				"method": "rhf"
			},
			{
				"type": "unocc",
				"energy": 0.06789,
				"method": "rhf"
			},
			{
				"type": "unocc",
				"energy": 0.0815,
				"method": "rhf"
			}
		],
		"cosmo_sigma_profile": { 
			"-0.025": 0.0,
			"-0.024": 0.0,
			"-0.023": 0.0,
			"-0.022": 0.0,
			"-0.021": 0.0,
			"-0.02": 0.0,
			"-0.019": 0.0,
			"-0.018": 0.0,
			"-0.017": 0.0,
			"-0.016": 0.0,
			"-0.015": 0.00367239252161,
			"-0.014": 1.15078858352,
			"-0.013": 1.68668942057,
			"-0.012": 2.33899844916,
			"-0.011": 2.54408852661,
			"-0.01": 2.70976012879,
			"-0.009": 2.34702095141,
			"-0.008": 2.95868607274,
			"-0.007": 5.46545092516,
			"-0.006": 16.0928502843,
			"-0.005": 19.8769541465,
			"-0.004": 17.9523890157,
			"-0.003": 18.0194997865,
			"-0.002": 10.6831557333,
			"-0.001": 9.79728361525,
			"0.0": 10.2074501821,
			"0.001": 15.1868032236,
			"0.002": 17.9893381235,
			"0.003": 11.7644658854,
			"0.004": 6.32641150861,
			"0.005": 5.22791034091,
			"0.006": 6.19226633461,
			"0.007": 3.78744684421,
			"0.008": 5.40248821402,
			"0.009": 7.36307115037,
			"0.01": 9.13731583409,
			"0.011": 6.366680989,
			"0.012": 4.69811350411,
			"0.013": 1.42030868661,
			"0.014": 0.550818674674,
			"0.015": 0.0,
			"0.016": 0.0,
			"0.017": 0.0,
			"0.018": 0.0,
			"0.019": 0.0,
			"0.02": 0.0,
			"0.021": 0.0,
			"0.022": 0.0,
			"0.023": 0.0,
			"0.024": 0.0,
			"0.025": 0.0
		}
	}
}
