{
	 "smiles": "NS(=O)(=O)CCS(=O)(=O)C1=CC=C(F)C=C1", 
	 "Tm": 447.15, 
	 "num_atms": 26, 
	 "gaussian": { 
		 "optdone": 1, 
		 "sigma_profile": "yes", 
		 "theory": "DFT", 
		 "functional": "B3LYP", 
		 "basiset": "6-31G**", 
		 "properties": { 
			 "R2extent": 6906.8997, 
			 "electric_dipole_moment_norm": 5.24208216742, 
			 "electric_quadrupole_moment_norm": 22.2428084515, 
			 "total_energy": -1562.60511296, 
			 "HOMO_LUMO_gap": 0.22841, 
			 "cosmo_polarized_energy": -24.33, 
			 "cosmo_cavitation_energy": 34.07, 
			 "cosmo_dispersion_energy": -24.98, 
			 "cosmo_repulsion_energy": 1.85, 
			 "cosmo_total_nonelectrostatic_energy": 10.94, 
			 "SMD_solvation_energy": 5.0 
		},
		"coords": [
			{
				"x": 4.6313648989,
				"y": -1.4449025715,
				"z": 0.3659878021,
				"element": "N" 
			},
			{
				"x": 3.6600136076,
				"y": -2.481227851,
				"z": -0.5631130781,
				"element": "S" 
			},
			{
				"x": 3.2266962876,
				"y": -3.5539467709,
				"z": 0.3371597887,
				"element": "O" 
			},
			{
				"x": 4.3268348367,
				"y": -2.7540586503,
				"z": -1.8372510426,
				"element": "O" 
			},
			{
				"x": 2.230573641,
				"y": -1.4295081,
				"z": -0.9234991142,
				"element": "C" 
			},
			{
				"x": 1.4620540321,
				"y": -1.062535823,
				"z": 0.3375611417,
				"element": "C" 
			},
			{
				"x": 0.0198014956,
				"y": -0.0385621428,
				"z": -0.1185785554,
				"element": "S" 
			},
			{
				"x": -0.8652304276,
				"y": -0.8767160796,
				"z": -0.9435191229,
				"element": "O" 
			},
			{
				"x": 0.5390841751,
				"y": 1.2445106261,
				"z": -0.6202952631,
				"element": "O" 
			},
			{
				"x": -0.7925137437,
				"y": 0.2605786145,
				"z": 1.4526093556,
				"element": "C" 
			},
			{
				"x": -1.7594366392,
				"y": -0.6423476422,
				"z": 1.904064495,
				"element": "C" 
			},
			{
				"x": -2.3889386507,
				"y": -0.4132825166,
				"z": 3.1251613826,
				"element": "C" 
			},
			{
				"x": -2.0345969809,
				"y": 0.717365299,
				"z": 3.8572392274,
				"element": "C" 
			},
			{
				"x": -2.6409186359,
				"y": 0.9399301086,
				"z": 5.0350753512,
				"element": "F" 
			},
			{
				"x": -1.0818987494,
				"y": 1.630491033,
				"z": 3.4120680511,
				"element": "C" 
			},
			{
				"x": -0.4538036067,
				"y": 1.3980355145,
				"z": 2.1907286972,
				"element": "C" 
			},
			{
				"x": 5.4295649542,
				"y": -1.1330149209,
				"z": -0.182309429,
				"element": "H" 
			},
			{
				"x": 4.9357363543,
				"y": -1.9472592154,
				"z": 1.1963679077,
				"element": "H" 
			},
			{
				"x": 1.6148197037,
				"y": -2.0138878967,
				"z": -1.6126022793,
				"element": "H" 
			},
			{
				"x": 2.6061034312,
				"y": -0.546880289,
				"z": -1.4462498886,
				"element": "H" 
			},
			{
				"x": 1.0875201813,
				"y": -1.952822026,
				"z": 0.847420127,
				"element": "H" 
			},
			{
				"x": 2.0746467795,
				"y": -0.4709980744,
				"z": 1.0218563922,
				"element": "H" 
			},
			{
				"x": -2.0259166566,
				"y": -1.498681622,
				"z": 1.2939003057,
				"element": "H" 
			},
			{
				"x": -3.1479623704,
				"y": -1.0849668446,
				"z": 3.510263813,
				"element": "H" 
			},
			{
				"x": -0.8539837649,
				"y": 2.503181672,
				"z": 4.0138075277,
				"element": "H" 
			},
			{
				"x": 0.2759858471,
				"y": 2.0980061691,
				"z": 1.7983464076,
				"element": "H" 
			}
		],
		 "valence_orbital": [ 
			{
				"type": "occ",
				"energy": -0.30823,
				"method": "rhf"
			},
			{
				"type": "occ",
				"energy": -0.30549,
				"method": "rhf"
			},
			{
				"type": "occ",
				"energy": -0.29447,
				"method": "rhf"
			},
			{
				"type": "occ",
				"energy": -0.29087,
				"method": "rhf"
			},
			{
				"type": "occ",
				"energy": -0.27832,
				"method": "rhf"
			},
			{
				"type": "unocc",
				"energy": -0.04991,
				"method": "rhf"
			},
			{
				"type": "unocc",
				"energy": -0.04079,
				"method": "rhf"
			},
			{
				"type": "unocc",
				"energy": 0.03317,
				"method": "rhf"
			},
			{
				"type": "unocc",
				"energy": 0.04137,
				"method": "rhf"
			},
			{
				"type": "unocc",
				"energy": 0.05927,
				"method": "rhf"
			}
		],
		"cosmo_sigma_profile": { 
			"-0.025": 0.0,
			"-0.024": 0.0,
			"-0.023": 0.0,
			"-0.022": 0.0,
			"-0.021": 0.0,
			"-0.02": 0.0,
			"-0.019": 0.0,
			"-0.018": 0.0,
			"-0.017": 0.0,
			"-0.016": 0.0,
			"-0.015": 1.68712284548,
			"-0.014": 2.82464075376,
			"-0.013": 2.25741700575,
			"-0.012": 2.43594815665,
			"-0.011": 2.48627287293,
			"-0.01": 3.13707514224,
			"-0.009": 7.30262091466,
			"-0.008": 14.5837934854,
			"-0.007": 15.1280305923,
			"-0.006": 15.2761204114,
			"-0.005": 12.8508416213,
			"-0.004": 11.6207358772,
			"-0.003": 11.7217609584,
			"-0.002": 10.749011979,
			"-0.001": 18.077012187,
			"0.0": 18.9167350846,
			"0.001": 19.4281213604,
			"0.002": 10.8211358834,
			"0.003": 10.8142488089,
			"0.004": 10.5075948967,
			"0.005": 6.07916296228,
			"0.006": 4.58640504474,
			"0.007": 5.6316006969,
			"0.008": 6.19710218582,
			"0.009": 7.22268691549,
			"0.01": 14.934660022,
			"0.011": 18.6796627444,
			"0.012": 5.31962039405,
			"0.013": 0.0,
			"0.014": 0.0,
			"0.015": 0.0,
			"0.016": 0.0,
			"0.017": 0.0,
			"0.018": 0.0,
			"0.019": 0.0,
			"0.02": 0.0,
			"0.021": 0.0,
			"0.022": 0.0,
			"0.023": 0.0,
			"0.024": 0.0,
			"0.025": 0.0
		}
	}
}
