{
	 "smiles": "CN1N=CC2=C1N=C(C)C=C2", 
	 "Tm": 457.15, 
	 "num_atms": 20, 
	 "gaussian": { 
		 "optdone": 1, 
		 "sigma_profile": "yes", 
		 "theory": "DFT", 
		 "functional": "B3LYP", 
		 "basiset": "6-31G**", 
		 "properties": { 
			 "R2extent": 2351.8444, 
			 "electric_dipole_moment_norm": 1.62037114267, 
			 "electric_quadrupole_moment_norm": 8.94011763122, 
			 "total_energy": -474.524286439, 
			 "HOMO_LUMO_gap": 0.18922, 
			 "cosmo_polarized_energy": -7.38, 
			 "cosmo_cavitation_energy": 23.65, 
			 "cosmo_dispersion_energy": -17.72, 
			 "cosmo_repulsion_energy": 1.42, 
			 "cosmo_total_nonelectrostatic_energy": 7.35, 
			 "SMD_solvation_energy": 2.21 
		},
		"coords": [
			{
				"x": 1.6624772727,
				"y": -0.4157531704,
				"z": 0.3689936148,
				"element": "C" 
			},
			{
				"x": 1.0960143443,
				"y": 0.9128861831,
				"z": 0.2676343617,
				"element": "N" 
			},
			{
				"x": 1.7898268919,
				"y": 2.0038150991,
				"z": 0.6913323612,
				"element": "N" 
			},
			{
				"x": 1.0168540175,
				"y": 3.0561763863,
				"z": 0.469318087,
				"element": "C" 
			},
			{
				"x": -0.2235088903,
				"y": 2.6712056186,
				"z": -0.1156664792,
				"element": "C" 
			},
			{
				"x": -0.1281210405,
				"y": 1.2613364288,
				"z": -0.2293815254,
				"element": "C" 
			},
			{
				"x": -1.0501095184,
				"y": 0.4252843742,
				"z": -0.724820669,
				"element": "N" 
			},
			{
				"x": -2.1712952798,
				"y": 1.0114610978,
				"z": -1.1505904344,
				"element": "C" 
			},
			{
				"x": -3.2414485874,
				"y": 0.1119398732,
				"z": -1.7178824997,
				"element": "C" 
			},
			{
				"x": -2.3827181795,
				"y": 2.4173005719,
				"z": -1.0880389329,
				"element": "C" 
			},
			{
				"x": -1.4137160086,
				"y": 3.2609024371,
				"z": -0.5711997886,
				"element": "C" 
			},
			{
				"x": 1.8778742437,
				"y": -0.6592198603,
				"z": 1.4131472111,
				"element": "H" 
			},
			{
				"x": 2.5876642322,
				"y": -0.4804926026,
				"z": -0.2104641175,
				"element": "H" 
			},
			{
				"x": 0.9284232312,
				"y": -1.1173127345,
				"z": -0.0291200203,
				"element": "H" 
			},
			{
				"x": 1.3689798464,
				"y": 4.0449387524,
				"z": 0.7323568026,
				"element": "H" 
			},
			{
				"x": -2.9072279503,
				"y": -0.9261662888,
				"z": -1.6864286278,
				"element": "H" 
			},
			{
				"x": -4.1744291924,
				"y": 0.1994891951,
				"z": -1.1490986034,
				"element": "H" 
			},
			{
				"x": -3.4716614525,
				"y": 0.3770496802,
				"z": -2.7563177283,
				"element": "H" 
			},
			{
				"x": -3.3217531143,
				"y": 2.820681203,
				"z": -1.4542446038,
				"element": "H" 
			},
			{
				"x": -1.573424866,
				"y": 4.3344777558,
				"z": -0.5226284081,
				"element": "H" 
			}
		],
		 "valence_orbital": [ 
			{
				"type": "occ",
				"energy": -0.30494,
				"method": "rhf"
			},
			{
				"type": "occ",
				"energy": -0.29084,
				"method": "rhf"
			},
			{
				"type": "occ",
				"energy": -0.26281,
				"method": "rhf"
			},
			{
				"type": "occ",
				"energy": -0.23822,
				"method": "rhf"
			},
			{
				"type": "occ",
				"energy": -0.22736,
				"method": "rhf"
			},
			{
				"type": "unocc",
				"energy": -0.03814,
				"method": "rhf"
			},
			{
				"type": "unocc",
				"energy": 0.01175,
				"method": "rhf"
			},
			{
				"type": "unocc",
				"energy": 0.05001,
				"method": "rhf"
			},
			{
				"type": "unocc",
				"energy": 0.10635,
				"method": "rhf"
			},
			{
				"type": "unocc",
				"energy": 0.12208,
				"method": "rhf"
			}
		],
		"cosmo_sigma_profile": { 
			"-0.025": 0.0,
			"-0.024": 0.0,
			"-0.023": 0.0,
			"-0.022": 0.0,
			"-0.021": 0.0,
			"-0.02": 0.0,
			"-0.019": 0.0,
			"-0.018": 0.0,
			"-0.017": 0.0,
			"-0.016": 0.0,
			"-0.015": 0.0,
			"-0.014": 0.0,
			"-0.013": 0.0,
			"-0.012": 0.0,
			"-0.011": 0.0,
			"-0.01": 0.0,
			"-0.009": 0.0,
			"-0.008": 0.952256532089,
			"-0.007": 4.18595065378,
			"-0.006": 8.94434325406,
			"-0.005": 14.1367538617,
			"-0.004": 18.2085502016,
			"-0.003": 20.0767409967,
			"-0.002": 15.4708412393,
			"-0.001": 13.7651240908,
			"0.0": 14.7680053255,
			"0.001": 15.8394623533,
			"0.002": 14.9660797794,
			"0.003": 15.3288342666,
			"0.004": 7.06602360346,
			"0.005": 4.27906873929,
			"0.006": 2.88421906746,
			"0.007": 3.18765293174,
			"0.008": 2.8552324908,
			"0.009": 2.82725952545,
			"0.01": 2.09287230248,
			"0.011": 1.99872675701,
			"0.012": 2.3143169955,
			"0.013": 0.664475563516,
			"0.014": 1.45280493249,
			"0.015": 0.683533587312,
			"0.016": 0.0217517744039,
			"0.017": 0.0,
			"0.018": 0.0,
			"0.019": 0.0,
			"0.02": 0.0,
			"0.021": 0.0,
			"0.022": 0.0,
			"0.023": 0.0,
			"0.024": 0.0,
			"0.025": 0.0
		}
	}
}
