{
	 "smiles": "CC(C)C1CC1", 
	 "Tm": 160.15, 
	 "num_atms": 18, 
	 "gaussian": { 
		 "optdone": 1, 
		 "sigma_profile": "yes", 
		 "theory": "DFT", 
		 "functional": "B3LYP", 
		 "basiset": "6-31G**", 
		 "properties": { 
			 "R2extent": 875.9587, 
			 "electric_dipole_moment_norm": 0.139340876989, 
			 "electric_quadrupole_moment_norm": 1.46789304788, 
			 "total_energy": -235.850491202, 
			 "HOMO_LUMO_gap": 0.35845, 
			 "cosmo_polarized_energy": -1.3, 
			 "cosmo_cavitation_energy": 19.18, 
			 "cosmo_dispersion_energy": -14.11, 
			 "cosmo_repulsion_energy": 1.21, 
			 "cosmo_total_nonelectrostatic_energy": 6.28, 
			 "SMD_solvation_energy": 3.14 
		},
		"coords": [
			{
				"x": 0.418284414,
				"y": 1.9321338774,
				"z": -0.9442110924,
				"element": "C" 
			},
			{
				"x": 0.0441535833,
				"y": 0.637706604,
				"z": -1.6800996995,
				"element": "C" 
			},
			{
				"x": -1.4761650793,
				"y": 0.4086239604,
				"z": -1.6290614139,
				"element": "C" 
			},
			{
				"x": 0.7748052173,
				"y": -0.6123331469,
				"z": -1.1887957077,
				"element": "C" 
			},
			{
				"x": 2.1960549231,
				"y": -0.6194108806,
				"z": -0.6828951557,
				"element": "C" 
			},
			{
				"x": 1.0540012831,
				"y": -0.8925430703,
				"z": 0.2695343204,
				"element": "C" 
			},
			{
				"x": 0.140892338,
				"y": 1.8901820786,
				"z": 0.1151719646,
				"element": "H" 
			},
			{
				"x": 1.4892350339,
				"y": 2.1483578955,
				"z": -1.0064746623,
				"element": "H" 
			},
			{
				"x": -0.112952511,
				"y": 2.7824889896,
				"z": -1.3843378634,
				"element": "H" 
			},
			{
				"x": 0.3255230027,
				"y": 0.7716443044,
				"z": -2.7357652279,
				"element": "H" 
			},
			{
				"x": -1.8132321568,
				"y": 0.27187242,
				"z": -0.5950333945,
				"element": "H" 
			},
			{
				"x": -2.021288723,
				"y": 1.2600647341,
				"z": -2.0511534258,
				"element": "H" 
			},
			{
				"x": -1.7639406773,
				"y": -0.4857978979,
				"z": -2.1925442576,
				"element": "H" 
			},
			{
				"x": 0.5028011072,
				"y": -1.4944698927,
				"z": -1.7680015258,
				"element": "H" 
			},
			{
				"x": 2.8386970636,
				"y": -1.4456279774,
				"z": -0.973162683,
				"element": "H" 
			},
			{
				"x": 2.7191701727,
				"y": 0.326415932,
				"z": -0.5797715931,
				"element": "H" 
			},
			{
				"x": 0.8187520306,
				"y": -0.1246166005,
				"z": 1.0004621676,
				"element": "H" 
			},
			{
				"x": 0.9128089778,
				"y": -1.9048913298,
				"z": 0.6367392502,
				"element": "H" 
			}
		],
		 "valence_orbital": [ 
			{
				"type": "occ",
				"energy": -0.34012,
				"method": "rhf"
			},
			{
				"type": "occ",
				"energy": -0.3339,
				"method": "rhf"
			},
			{
				"type": "occ",
				"energy": -0.3208,
				"method": "rhf"
			},
			{
				"type": "occ",
				"energy": -0.27916,
				"method": "rhf"
			},
			{
				"type": "occ",
				"energy": -0.26982,
				"method": "rhf"
			},
			{
				"type": "unocc",
				"energy": 0.08863,
				"method": "rhf"
			},
			{
				"type": "unocc",
				"energy": 0.10305,
				"method": "rhf"
			},
			{
				"type": "unocc",
				"energy": 0.12433,
				"method": "rhf"
			},
			{
				"type": "unocc",
				"energy": 0.12759,
				"method": "rhf"
			},
			{
				"type": "unocc",
				"energy": 0.14624,
				"method": "rhf"
			}
		],
		"cosmo_sigma_profile": { 
			"-0.025": 0.0,
			"-0.024": 0.0,
			"-0.023": 0.0,
			"-0.022": 0.0,
			"-0.021": 0.0,
			"-0.02": 0.0,
			"-0.019": 0.0,
			"-0.018": 0.0,
			"-0.017": 0.0,
			"-0.016": 0.0,
			"-0.015": 0.0,
			"-0.014": 0.0,
			"-0.013": 0.0,
			"-0.012": 0.0,
			"-0.011": 0.0,
			"-0.01": 0.0,
			"-0.009": 0.0,
			"-0.008": 0.0,
			"-0.007": 0.0,
			"-0.006": 0.0,
			"-0.005": 0.0399552540501,
			"-0.004": 4.97774760246,
			"-0.003": 14.3913627667,
			"-0.002": 21.3766851229,
			"-0.001": 25.0362724532,
			"0.0": 24.1850200577,
			"0.001": 24.0777310685,
			"0.002": 16.2221582618,
			"0.003": 6.81154840453,
			"0.004": 4.43592837295,
			"0.005": 4.20735634889,
			"0.006": 2.1686235308,
			"0.007": 0.33331870051,
			"0.008": 0.0,
			"0.009": 0.0,
			"0.01": 0.0,
			"0.011": 0.0,
			"0.012": 0.0,
			"0.013": 0.0,
			"0.014": 0.0,
			"0.015": 0.0,
			"0.016": 0.0,
			"0.017": 0.0,
			"0.018": 0.0,
			"0.019": 0.0,
			"0.02": 0.0,
			"0.021": 0.0,
			"0.022": 0.0,
			"0.023": 0.0,
			"0.024": 0.0,
			"0.025": 0.0
		}
	}
}
