{
	 "smiles": "OCC1(CCCC1)NCCC1=CC=CC=C1", 
	 "Tm": 360.15, 
	 "num_atms": 37, 
	 "gaussian": { 
		 "optdone": 1, 
		 "sigma_profile": "yes", 
		 "theory": "DFT", 
		 "functional": "B3LYP", 
		 "basiset": "6-31G**", 
		 "properties": { 
			 "R2extent": 5488.6911, 
			 "electric_dipole_moment_norm": 1.94874393905, 
			 "electric_quadrupole_moment_norm": 6.40004494672, 
			 "total_energy": -676.116474876, 
			 "HOMO_LUMO_gap": 0.21778, 
			 "cosmo_polarized_energy": -9.53, 
			 "cosmo_cavitation_energy": 37.45, 
			 "cosmo_dispersion_energy": -26.17, 
			 "cosmo_repulsion_energy": 2.08, 
			 "cosmo_total_nonelectrostatic_energy": 13.35, 
			 "SMD_solvation_energy": 4.53 
		},
		"coords": [
			{
				"x": -1.4817479006,
				"y": 1.5733151527,
				"z": -2.8116139388,
				"element": "O" 
			},
			{
				"x": -0.0859947773,
				"y": 1.6499835043,
				"z": -2.5301207393,
				"element": "C" 
			},
			{
				"x": 0.073637883,
				"y": 2.1060423317,
				"z": -1.0723185327,
				"element": "C" 
			},
			{
				"x": 1.555999556,
				"y": 2.2015734141,
				"z": -0.6500259305,
				"element": "C" 
			},
			{
				"x": 1.5650264719,
				"y": 3.1325715893,
				"z": 0.5846786652,
				"element": "C" 
			},
			{
				"x": 0.2807617805,
				"y": 4.0042913503,
				"z": 0.4645162597,
				"element": "C" 
			},
			{
				"x": -0.395552889,
				"y": 3.5627344506,
				"z": -0.8513999608,
				"element": "C" 
			},
			{
				"x": -0.6785261041,
				"y": 1.2632200394,
				"z": -0.1214923646,
				"element": "N" 
			},
			{
				"x": -0.4267664017,
				"y": -0.1766928731,
				"z": -0.1482543161,
				"element": "C" 
			},
			{
				"x": -1.2106597282,
				"y": -0.8703032304,
				"z": 0.9816287123,
				"element": "C" 
			},
			{
				"x": -0.9684397813,
				"y": -2.3628400288,
				"z": 1.0270096287,
				"element": "C" 
			},
			{
				"x": 0.0746644658,
				"y": -2.8974539218,
				"z": 1.7961514555,
				"element": "C" 
			},
			{
				"x": 0.3268409141,
				"y": -4.2700024509,
				"z": 1.8107636535,
				"element": "C" 
			},
			{
				"x": -0.4633542341,
				"y": -5.1356889527,
				"z": 1.0521389707,
				"element": "C" 
			},
			{
				"x": -1.5063652697,
				"y": -4.6179016203,
				"z": 0.2819424964,
				"element": "C" 
			},
			{
				"x": -1.7542264224,
				"y": -3.2444846447,
				"z": 0.2715568957,
				"element": "C" 
			},
			{
				"x": -1.5921694986,
				"y": 1.2536116732,
				"z": -3.7149009966,
				"element": "H" 
			},
			{
				"x": 0.417846203,
				"y": 2.368763344,
				"z": -3.1953441149,
				"element": "H" 
			},
			{
				"x": 0.3990186015,
				"y": 0.6720462694,
				"z": -2.6752768617,
				"element": "H" 
			},
			{
				"x": 2.0115875586,
				"y": 1.2268121851,
				"z": -0.4520722365,
				"element": "H" 
			},
			{
				"x": 2.1233544785,
				"y": 2.6536238544,
				"z": -1.4737388697,
				"element": "H" 
			},
			{
				"x": 2.4770838924,
				"y": 3.7368864473,
				"z": 0.6202884373,
				"element": "H" 
			},
			{
				"x": 1.5363353037,
				"y": 2.541560934,
				"z": 1.5037720383,
				"element": "H" 
			},
			{
				"x": 0.5035851899,
				"y": 5.0761054521,
				"z": 0.4620235678,
				"element": "H" 
			},
			{
				"x": -0.383145106,
				"y": 3.8139111389,
				"z": 1.3114269449,
				"element": "H" 
			},
			{
				"x": -1.4862801743,
				"y": 3.6491674691,
				"z": -0.8317449909,
				"element": "H" 
			},
			{
				"x": -0.0420553853,
				"y": 4.175511219,
				"z": -1.689847541,
				"element": "H" 
			},
			{
				"x": -1.666196796,
				"y": 1.4084590656,
				"z": -0.3204463196,
				"element": "H" 
			},
			{
				"x": 0.6425777105,
				"y": -0.3590426014,
				"z": 0.0064690405,
				"element": "H" 
			},
			{
				"x": -0.6926597047,
				"y": -0.6542925394,
				"z": -1.1072541073,
				"element": "H" 
			},
			{
				"x": -2.2816065059,
				"y": -0.6736717847,
				"z": 0.8403531284,
				"element": "H" 
			},
			{
				"x": -0.9272824598,
				"y": -0.404565822,
				"z": 1.9315878391,
				"element": "H" 
			},
			{
				"x": 0.6908209901,
				"y": -2.2295818439,
				"z": 2.3939644007,
				"element": "H" 
			},
			{
				"x": 1.1372632651,
				"y": -4.6637723089,
				"z": 2.4181835594,
				"element": "H" 
			},
			{
				"x": -0.2711765878,
				"y": -6.2047952762,
				"z": 1.0649818955,
				"element": "H" 
			},
			{
				"x": -2.1306697284,
				"y": -5.2839659794,
				"z": -0.307502965,
				"element": "H" 
			},
			{
				"x": -2.5725288096,
				"y": -2.8490350056,
				"z": -0.3260828038,
				"element": "H" 
			}
		],
		 "valence_orbital": [ 
			{
				"type": "occ",
				"energy": -0.30223,
				"method": "rhf"
			},
			{
				"type": "occ",
				"energy": -0.26811,
				"method": "rhf"
			},
			{
				"type": "occ",
				"energy": -0.24369,
				"method": "rhf"
			},
			{
				"type": "occ",
				"energy": -0.23559,
				"method": "rhf"
			},
			{
				"type": "occ",
				"energy": -0.21288,
				"method": "rhf"
			},
			{
				"type": "unocc",
				"energy": 0.0049,
				"method": "rhf"
			},
			{
				"type": "unocc",
				"energy": 0.00536,
				"method": "rhf"
			},
			{
				"type": "unocc",
				"energy": 0.06733,
				"method": "rhf"
			},
			{
				"type": "unocc",
				"energy": 0.08959,
				"method": "rhf"
			},
			{
				"type": "unocc",
				"energy": 0.09441,
				"method": "rhf"
			}
		],
		"cosmo_sigma_profile": { 
			"-0.025": 0.0,
			"-0.024": 0.0,
			"-0.023": 0.0,
			"-0.022": 0.0,
			"-0.021": 0.0,
			"-0.02": 0.0,
			"-0.019": 0.0,
			"-0.018": 0.0,
			"-0.017": 0.0,
			"-0.016": 0.347619088334,
			"-0.015": 0.874307286692,
			"-0.014": 1.11940336772,
			"-0.013": 0.648284060326,
			"-0.012": 1.09931913889,
			"-0.011": 0.716909696729,
			"-0.01": 0.731688121269,
			"-0.009": 0.698070444979,
			"-0.008": 0.736984991581,
			"-0.007": 2.18237138533,
			"-0.006": 2.9122151587,
			"-0.005": 11.6187814054,
			"-0.004": 17.6796000112,
			"-0.003": 32.6298913585,
			"-0.002": 36.2912538118,
			"-0.001": 34.3938359836,
			"0.0": 33.0863612212,
			"0.001": 27.3409587752,
			"0.002": 21.248640741,
			"0.003": 11.9957960004,
			"0.004": 10.5482340514,
			"0.005": 10.8052811628,
			"0.006": 11.7555381443,
			"0.007": 6.49235543219,
			"0.008": 2.13374024173,
			"0.009": 2.22548613273,
			"0.01": 2.06134735762,
			"0.011": 2.41832219004,
			"0.012": 2.03725728358,
			"0.013": 0.933203097764,
			"0.014": 1.02030427823,
			"0.015": 0.0,
			"0.016": 0.0,
			"0.017": 0.0,
			"0.018": 0.0,
			"0.019": 0.0,
			"0.02": 0.0,
			"0.021": 0.0,
			"0.022": 0.0,
			"0.023": 0.0,
			"0.024": 0.0,
			"0.025": 0.0
		}
	}
}
