{
	 "smiles": "CSC1=C(C#N)C(=C(S1)C(O)=O)C1=CC(=CC=C1)C(F)(F)F", 
	 "Tm": 506.15, 
	 "num_atms": 30, 
	 "gaussian": { 
		 "optdone": 1, 
		 "sigma_profile": "yes", 
		 "theory": "DFT", 
		 "functional": "B3LYP", 
		 "basiset": "6-31G**", 
		 "properties": { 
			 "R2extent": 9411.3681, 
			 "electric_dipole_moment_norm": 3.43430591241, 
			 "electric_quadrupole_moment_norm": 17.2751056283, 
			 "total_energy": -1839.39812023, 
			 "HOMO_LUMO_gap": 0.15753, 
			 "cosmo_polarized_energy": -15.38, 
			 "cosmo_cavitation_energy": 41.08, 
			 "cosmo_dispersion_energy": -27.92, 
			 "cosmo_repulsion_energy": 2.01, 
			 "cosmo_total_nonelectrostatic_energy": 15.17, 
			 "SMD_solvation_energy": 9.95 
		},
		"coords": [
			{
				"x": 1.1446047376,
				"y": 0.7287635739,
				"z": -4.1753122437,
				"element": "C" 
			},
			{
				"x": -0.4635839099,
				"y": 1.3036343828,
				"z": -3.5009412997,
				"element": "S" 
			},
			{
				"x": -0.148552584,
				"y": 1.3793274533,
				"z": -1.767985274,
				"element": "C" 
			},
			{
				"x": 0.3074570622,
				"y": 0.3920065226,
				"z": -0.8983143353,
				"element": "C" 
			},
			{
				"x": 0.6392564217,
				"y": -0.923212026,
				"z": -1.3372724498,
				"element": "C" 
			},
			{
				"x": 0.9148411771,
				"y": -1.985980567,
				"z": -1.724236031,
				"element": "N" 
			},
			{
				"x": 0.349257376,
				"y": 0.8076303854,
				"z": 0.4810826111,
				"element": "C" 
			},
			{
				"x": -0.0913234913,
				"y": 2.1136591318,
				"z": 0.6181128383,
				"element": "C" 
			},
			{
				"x": -0.5260724577,
				"y": 2.8312016314,
				"z": -0.9127231204,
				"element": "S" 
			},
			{
				"x": -0.1972771954,
				"y": 3.0228770736,
				"z": 1.7727995123,
				"element": "C" 
			},
			{
				"x": 0.2662835788,
				"y": 2.5097948791,
				"z": 2.9309722541,
				"element": "O" 
			},
			{
				"x": -0.6466677951,
				"y": 4.1505945292,
				"z": 1.6831024474,
				"element": "O" 
			},
			{
				"x": 0.7757739665,
				"y": -0.1146711193,
				"z": 1.5641165168,
				"element": "C" 
			},
			{
				"x": -0.08556561,
				"y": -0.420562057,
				"z": 2.6258699619,
				"element": "C" 
			},
			{
				"x": 0.313242171,
				"y": -1.3153885197,
				"z": 3.6169394898,
				"element": "C" 
			},
			{
				"x": 1.5736266043,
				"y": -1.9179370437,
				"z": 3.5634349139,
				"element": "C" 
			},
			{
				"x": 2.4314798358,
				"y": -1.6209288041,
				"z": 2.5071425535,
				"element": "C" 
			},
			{
				"x": 2.0349736659,
				"y": -0.7303254899,
				"z": 1.5098833729,
				"element": "C" 
			},
			{
				"x": -0.6415230383,
				"y": -1.6810240962,
				"z": 4.7226182891,
				"element": "C" 
			},
			{
				"x": 0.0100960902,
				"y": -1.9456397806,
				"z": 5.876934187,
				"element": "F" 
			},
			{
				"x": -1.5270528996,
				"y": -0.6911923484,
				"z": 4.9726776681,
				"element": "F" 
			},
			{
				"x": -1.3602527431,
				"y": -2.7847107637,
				"z": 4.4159765793,
				"element": "F" 
			},
			{
				"x": 1.0123494408,
				"y": 0.7331987678,
				"z": -5.2595134429,
				"element": "H" 
			},
			{
				"x": 1.3768748723,
				"y": -0.2826664047,
				"z": -3.8430097354,
				"element": "H" 
			},
			{
				"x": 1.9411530631,
				"y": 1.4235262946,
				"z": -3.9050060538,
				"element": "H" 
			},
			{
				"x": 0.1477121918,
				"y": 3.2078225904,
				"z": 3.5972654542,
				"element": "H" 
			},
			{
				"x": -1.0633829432,
				"y": 0.0423141104,
				"z": 2.6807896398,
				"element": "H" 
			},
			{
				"x": 1.8767376068,
				"y": -2.6068073286,
				"z": 4.3443985693,
				"element": "H" 
			},
			{
				"x": 3.4123639035,
				"y": -2.0828814959,
				"z": 2.4584169715,
				"element": "H" 
			},
			{
				"x": 2.7103709021,
				"y": -0.5026234815,
				"z": 0.6913801559,
				"element": "H" 
			}
		],
		 "valence_orbital": [ 
			{
				"type": "occ",
				"energy": -0.29919,
				"method": "rhf"
			},
			{
				"type": "occ",
				"energy": -0.28468,
				"method": "rhf"
			},
			{
				"type": "occ",
				"energy": -0.27657,
				"method": "rhf"
			},
			{
				"type": "occ",
				"energy": -0.26532,
				"method": "rhf"
			},
			{
				"type": "occ",
				"energy": -0.24531,
				"method": "rhf"
			},
			{
				"type": "unocc",
				"energy": -0.08778,
				"method": "rhf"
			},
			{
				"type": "unocc",
				"energy": -0.05313,
				"method": "rhf"
			},
			{
				"type": "unocc",
				"energy": -0.03581,
				"method": "rhf"
			},
			{
				"type": "unocc",
				"energy": -0.02051,
				"method": "rhf"
			},
			{
				"type": "unocc",
				"energy": -0.00954,
				"method": "rhf"
			}
		],
		"cosmo_sigma_profile": { 
			"-0.025": 0.0,
			"-0.024": 0.0,
			"-0.023": 0.0,
			"-0.022": 0.0,
			"-0.021": 0.0,
			"-0.02": 0.0,
			"-0.019": 0.506378803962,
			"-0.018": 0.812026061309,
			"-0.017": 1.18561818086,
			"-0.016": 1.05105336016,
			"-0.015": 0.36937693631,
			"-0.014": 0.576894199149,
			"-0.013": 0.443622425776,
			"-0.012": 1.33328175998,
			"-0.011": 0.815574074339,
			"-0.01": 0.405427423547,
			"-0.009": 0.33486579221,
			"-0.008": 3.79585756119,
			"-0.007": 12.7463154941,
			"-0.006": 14.7837989595,
			"-0.005": 15.0412100886,
			"-0.004": 17.0452261766,
			"-0.003": 27.5000181642,
			"-0.002": 29.6698227974,
			"-0.001": 23.7402633901,
			"0.0": 24.2697389421,
			"0.001": 27.9219537288,
			"0.002": 34.8922486397,
			"0.003": 40.4447316853,
			"0.004": 10.3166963081,
			"0.005": 7.72482944948,
			"0.006": 7.15849652789,
			"0.007": 5.82639754045,
			"0.008": 4.33813920565,
			"0.009": 4.79726333385,
			"0.01": 4.82756234494,
			"0.011": 7.46527150722,
			"0.012": 2.67863276557,
			"0.013": 0.305171762461,
			"0.014": 0.0,
			"0.015": 0.0,
			"0.016": 0.0,
			"0.017": 0.0,
			"0.018": 0.0,
			"0.019": 0.0,
			"0.02": 0.0,
			"0.021": 0.0,
			"0.022": 0.0,
			"0.023": 0.0,
			"0.024": 0.0,
			"0.025": 0.0
		}
	}
}
