{
	 "smiles": "CSC1=NC(=O)N2C=CC=CC2=N1", 
	 "Tm": 423.15, 
	 "num_atms": 20, 
	 "gaussian": { 
		 "optdone": 1, 
		 "sigma_profile": "yes", 
		 "theory": "DFT", 
		 "functional": "B3LYP", 
		 "basiset": "6-31G**", 
		 "properties": { 
			 "R2extent": 3331.327, 
			 "electric_dipole_moment_norm": 6.86753763586, 
			 "electric_quadrupole_moment_norm": 15.7143499029, 
			 "total_energy": -946.746450207, 
			 "HOMO_LUMO_gap": 0.15964, 
			 "cosmo_polarized_energy": -16.63, 
			 "cosmo_cavitation_energy": 26.16, 
			 "cosmo_dispersion_energy": -20.12, 
			 "cosmo_repulsion_energy": 1.52, 
			 "cosmo_total_nonelectrostatic_energy": 7.57, 
			 "SMD_solvation_energy": 3.24 
		},
		"coords": [
			{
				"x": -0.14879638,
				"y": -0.2025577367,
				"z": 4.8186938484,
				"element": "C" 
			},
			{
				"x": 1.4816743201,
				"y": -0.2291711134,
				"z": 3.999347496,
				"element": "S" 
			},
			{
				"x": 1.0568687961,
				"y": 0.0891907594,
				"z": 2.3134046927,
				"element": "C" 
			},
			{
				"x": 2.1073649646,
				"y": 0.1180079582,
				"z": 1.5035028319,
				"element": "N" 
			},
			{
				"x": 1.9244556655,
				"y": 0.3512286475,
				"z": 0.1887079651,
				"element": "C" 
			},
			{
				"x": 2.7635956213,
				"y": 0.4129282205,
				"z": -0.6876107191,
				"element": "O" 
			},
			{
				"x": 0.5005077545,
				"y": 0.5599573974,
				"z": -0.2217707822,
				"element": "N" 
			},
			{
				"x": 0.2474072097,
				"y": 0.8023717657,
				"z": -1.5444907483,
				"element": "C" 
			},
			{
				"x": -1.0291301816,
				"y": 1.0017351764,
				"z": -1.9887305219,
				"element": "C" 
			},
			{
				"x": -2.095150569,
				"y": 0.9535300402,
				"z": -1.0534834322,
				"element": "C" 
			},
			{
				"x": -1.8393188499,
				"y": 0.710481829,
				"z": 0.2715224276,
				"element": "C" 
			},
			{
				"x": -0.5052909476,
				"y": 0.5039184023,
				"z": 0.725525011,
				"element": "C" 
			},
			{
				"x": -0.2406293201,
				"y": 0.2670043486,
				"z": 2.00998488,
				"element": "N" 
			},
			{
				"x": -0.7989246306,
				"y": -0.9794414584,
				"z": 4.4160619332,
				"element": "H" 
			},
			{
				"x": -0.6260337197,
				"y": 0.7707030536,
				"z": 4.7031713709,
				"element": "H" 
			},
			{
				"x": 0.0507836705,
				"y": -0.3955782391,
				"z": 5.8751871977,
				"element": "H" 
			},
			{
				"x": 1.1366833738,
				"y": 0.8157179928,
				"z": -2.1619246922,
				"element": "H" 
			},
			{
				"x": -1.2095171833,
				"y": 1.1922759951,
				"z": -3.0397569974,
				"element": "H" 
			},
			{
				"x": -3.1158001923,
				"y": 1.1097216196,
				"z": -1.3892747,
				"element": "H" 
			},
			{
				"x": -2.6204494018,
				"y": 0.6647753413,
				"z": 1.0204329388,
				"element": "H" 
			}
		],
		 "valence_orbital": [ 
			{
				"type": "occ",
				"energy": -0.31112,
				"method": "rhf"
			},
			{
				"type": "occ",
				"energy": -0.27748,
				"method": "rhf"
			},
			{
				"type": "occ",
				"energy": -0.26351,
				"method": "rhf"
			},
			{
				"type": "occ",
				"energy": -0.24225,
				"method": "rhf"
			},
			{
				"type": "occ",
				"energy": -0.23631,
				"method": "rhf"
			},
			{
				"type": "unocc",
				"energy": -0.07667,
				"method": "rhf"
			},
			{
				"type": "unocc",
				"energy": -0.05471,
				"method": "rhf"
			},
			{
				"type": "unocc",
				"energy": 0.00636,
				"method": "rhf"
			},
			{
				"type": "unocc",
				"energy": 0.03888,
				"method": "rhf"
			},
			{
				"type": "unocc",
				"energy": 0.07075,
				"method": "rhf"
			}
		],
		"cosmo_sigma_profile": { 
			"-0.025": 0.0,
			"-0.024": 0.0,
			"-0.023": 0.0,
			"-0.022": 0.0,
			"-0.021": 0.0,
			"-0.02": 0.0,
			"-0.019": 0.0,
			"-0.018": 0.0,
			"-0.017": 0.0,
			"-0.016": 0.0,
			"-0.015": 0.0,
			"-0.014": 0.0,
			"-0.013": 0.0,
			"-0.012": 0.0,
			"-0.011": 0.0,
			"-0.01": 0.0,
			"-0.009": 3.47947791487,
			"-0.008": 8.97562948903,
			"-0.007": 12.1763562634,
			"-0.006": 12.7023149601,
			"-0.005": 13.5613214094,
			"-0.004": 16.1088839488,
			"-0.003": 13.9415440208,
			"-0.002": 18.5933464751,
			"-0.001": 17.0982869046,
			"0.0": 17.3440971528,
			"0.001": 9.55878627022,
			"0.002": 6.6718866631,
			"0.003": 5.96778318059,
			"0.004": 8.76631229694,
			"0.005": 8.18283282496,
			"0.006": 7.83807061374,
			"0.007": 5.58494140434,
			"0.008": 3.85138024113,
			"0.009": 4.19606904353,
			"0.01": 2.05512091411,
			"0.011": 4.03618872418,
			"0.012": 5.56240419105,
			"0.013": 3.99599960849,
			"0.014": 2.19240354624,
			"0.015": 0.511137857497,
			"0.016": 0.0,
			"0.017": 0.0,
			"0.018": 0.0,
			"0.019": 0.0,
			"0.02": 0.0,
			"0.021": 0.0,
			"0.022": 0.0,
			"0.023": 0.0,
			"0.024": 0.0,
			"0.025": 0.0
		}
	}
}
