{
	 "smiles": "CC1CCCC1(N)C(N)=O", 
	 "Tm": 338.15, 
	 "num_atms": 24, 
	 "gaussian": { 
		 "optdone": 1, 
		 "sigma_profile": "yes", 
		 "theory": "DFT", 
		 "functional": "B3LYP", 
		 "basiset": "6-31G**", 
		 "properties": { 
			 "R2extent": 2012.8294, 
			 "electric_dipole_moment_norm": 3.25537746045, 
			 "electric_quadrupole_moment_norm": 11.7234017759, 
			 "total_energy": -459.93832548, 
			 "HOMO_LUMO_gap": 0.26359, 
			 "cosmo_polarized_energy": -12.18, 
			 "cosmo_cavitation_energy": 24.55, 
			 "cosmo_dispersion_energy": -18.02, 
			 "cosmo_repulsion_energy": 1.47, 
			 "cosmo_total_nonelectrostatic_energy": 8.0, 
			 "SMD_solvation_energy": 4.03 
		},
		"coords": [
			{
				"x": 0.6553467494,
				"y": -1.1470883843,
				"z": -0.8202594654,
				"element": "C" 
			},
			{
				"x": 1.0166334579,
				"y": -1.052386598,
				"z": 0.6613205722,
				"element": "C" 
			},
			{
				"x": 0.4395351914,
				"y": -2.1768143058,
				"z": 1.5424450637,
				"element": "C" 
			},
			{
				"x": 0.514645628,
				"y": -1.6420348048,
				"z": 2.99798838,
				"element": "C" 
			},
			{
				"x": 0.8255212714,
				"y": -0.123470003,
				"z": 2.8745952923,
				"element": "C" 
			},
			{
				"x": 0.5619753489,
				"y": 0.2458289108,
				"z": 1.3927714909,
				"element": "C" 
			},
			{
				"x": -0.8632192319,
				"y": 0.5944632373,
				"z": 1.2296031267,
				"element": "N" 
			},
			{
				"x": 1.4478401946,
				"y": 1.4440979666,
				"z": 0.9859514582,
				"element": "C" 
			},
			{
				"x": 0.7833314573,
				"y": 2.6201074212,
				"z": 0.8427562971,
				"element": "N" 
			},
			{
				"x": 2.6582875907,
				"y": 1.3237366605,
				"z": 0.8268300498,
				"element": "O" 
			},
			{
				"x": 1.0322671978,
				"y": -2.0808911585,
				"z": -1.2503379865,
				"element": "H" 
			},
			{
				"x": -0.4303545392,
				"y": -1.1390777937,
				"z": -0.9806451811,
				"element": "H" 
			},
			{
				"x": 1.0948154891,
				"y": -0.3221265761,
				"z": -1.3909202973,
				"element": "H" 
			},
			{
				"x": 2.1093577858,
				"y": -1.057577533,
				"z": 0.7453118317,
				"element": "H" 
			},
			{
				"x": -0.6029645513,
				"y": -2.371720309,
				"z": 1.2582951945,
				"element": "H" 
			},
			{
				"x": 0.9789801237,
				"y": -3.1196496137,
				"z": 1.4085313147,
				"element": "H" 
			},
			{
				"x": -0.4218355314,
				"y": -1.8219163063,
				"z": 3.5364089318,
				"element": "H" 
			},
			{
				"x": 1.2987706429,
				"y": -2.1462525596,
				"z": 3.5704720923,
				"element": "H" 
			},
			{
				"x": 0.230709192,
				"y": 0.5008382308,
				"z": 3.5488893595,
				"element": "H" 
			},
			{
				"x": 1.8800441808,
				"y": 0.0676788265,
				"z": 3.0897427496,
				"element": "H" 
			},
			{
				"x": -1.4477672883,
				"y": -0.0389007307,
				"z": 1.7680847076,
				"element": "H" 
			},
			{
				"x": -1.1460718551,
				"y": 0.4964017651,
				"z": 0.2570103793,
				"element": "H" 
			},
			{
				"x": -0.1961348501,
				"y": 2.65040865,
				"z": 1.0887174988,
				"element": "H" 
			},
			{
				"x": 1.3169863458,
				"y": 3.4581450076,
				"z": 0.6731371398,
				"element": "H" 
			}
		],
		 "valence_orbital": [ 
			{
				"type": "occ",
				"energy": -0.31767,
				"method": "rhf"
			},
			{
				"type": "occ",
				"energy": -0.31283,
				"method": "rhf"
			},
			{
				"type": "occ",
				"energy": -0.26182,
				"method": "rhf"
			},
			{
				"type": "occ",
				"energy": -0.25406,
				"method": "rhf"
			},
			{
				"type": "occ",
				"energy": -0.22745,
				"method": "rhf"
			},
			{
				"type": "unocc",
				"energy": 0.03614,
				"method": "rhf"
			},
			{
				"type": "unocc",
				"energy": 0.063,
				"method": "rhf"
			},
			{
				"type": "unocc",
				"energy": 0.09641,
				"method": "rhf"
			},
			{
				"type": "unocc",
				"energy": 0.10719,
				"method": "rhf"
			},
			{
				"type": "unocc",
				"energy": 0.11329,
				"method": "rhf"
			}
		],
		"cosmo_sigma_profile": { 
			"-0.025": 0.0,
			"-0.024": 0.0,
			"-0.023": 0.0,
			"-0.022": 0.0,
			"-0.021": 0.0,
			"-0.02": 0.0,
			"-0.019": 0.0,
			"-0.018": 0.0,
			"-0.017": 0.0,
			"-0.016": 0.0,
			"-0.015": 0.0,
			"-0.014": 0.203337721183,
			"-0.013": 1.08482046147,
			"-0.012": 1.02489042186,
			"-0.011": 1.00426391802,
			"-0.01": 2.58609074187,
			"-0.009": 3.57443795353,
			"-0.008": 5.35266962057,
			"-0.007": 4.69302993283,
			"-0.006": 5.08374412226,
			"-0.005": 4.56124896786,
			"-0.004": 6.24136130408,
			"-0.003": 15.1535781185,
			"-0.002": 21.2616510053,
			"-0.001": 24.2704200012,
			"0.0": 24.6666180713,
			"0.001": 21.7706126717,
			"0.002": 9.29926007424,
			"0.003": 5.00731321473,
			"0.004": 4.25156739044,
			"0.005": 2.30909450293,
			"0.006": 3.69611843425,
			"0.007": 2.55785791168,
			"0.008": 1.41148425789,
			"0.009": 1.74856952229,
			"0.01": 2.44395929786,
			"0.011": 1.40534548038,
			"0.012": 1.91749280122,
			"0.013": 1.93567765032,
			"0.014": 4.07037022996,
			"0.015": 4.23903116459,
			"0.016": 0.304323767801,
			"0.017": 0.0,
			"0.018": 0.0,
			"0.019": 0.0,
			"0.02": 0.0,
			"0.021": 0.0,
			"0.022": 0.0,
			"0.023": 0.0,
			"0.024": 0.0,
			"0.025": 0.0
		}
	}
}
