{
	 "smiles": "[O-][N+](=O)C1=CC=C2CCC3=CC=C(C(Cl)=CC4=CC=CC=C4)C1=C23", 
	 "Tm": 434.15, 
	 "num_atms": 38, 
	 "gaussian": { 
		 "optdone": 1, 
		 "sigma_profile": "yes", 
		 "theory": "DFT", 
		 "functional": "B3LYP", 
		 "basiset": "6-31G**", 
		 "properties": { 
			 "R2extent": 7341.1701, 
			 "electric_dipole_moment_norm": 6.63035909209, 
			 "electric_quadrupole_moment_norm": 15.7325170103, 
			 "total_energy": -1435.8476691, 
			 "HOMO_LUMO_gap": 0.13447, 
			 "cosmo_polarized_energy": -14.81, 
			 "cosmo_cavitation_energy": 43.01, 
			 "cosmo_dispersion_energy": -28.95, 
			 "cosmo_repulsion_energy": 2.2, 
			 "cosmo_total_nonelectrostatic_energy": 16.26, 
			 "SMD_solvation_energy": 7.99 
		},
		"coords": [
			{
				"x": 2.33147608,
				"y": -1.8356051632,
				"z": -0.9226840793,
				"element": "O" 
			},
			{
				"x": 1.6530802059,
				"y": -1.707636369,
				"z": 0.0942368965,
				"element": "N" 
			},
			{
				"x": 2.1012044571,
				"y": -1.6736327286,
				"z": 1.241125735,
				"element": "O" 
			},
			{
				"x": 0.1941357487,
				"y": -1.666694418,
				"z": -0.0739464459,
				"element": "C" 
			},
			{
				"x": -0.5152096765,
				"y": -2.4410401828,
				"z": 0.8275643047,
				"element": "C" 
			},
			{
				"x": -1.9025383775,
				"y": -2.6680196031,
				"z": 0.6926998125,
				"element": "C" 
			},
			{
				"x": -2.551934965,
				"y": -2.1013825646,
				"z": -0.3802953482,
				"element": "C" 
			},
			{
				"x": -4.000138574,
				"y": -2.1746243207,
				"z": -0.8206880528,
				"element": "C" 
			},
			{
				"x": -4.0706789019,
				"y": -1.2988338029,
				"z": -2.1132916387,
				"element": "C" 
			},
			{
				"x": -2.6633768614,
				"y": -0.7658987977,
				"z": -2.2943979704,
				"element": "C" 
			},
			{
				"x": -2.1211831648,
				"y": 0.0775811211,
				"z": -3.2368461295,
				"element": "C" 
			},
			{
				"x": -0.761127469,
				"y": 0.4388900715,
				"z": -3.110987932,
				"element": "C" 
			},
			{
				"x": 0.0771367353,
				"y": -0.0270035742,
				"z": -2.0996554598,
				"element": "C" 
			},
			{
				"x": 1.4373241173,
				"y": 0.5602376006,
				"z": -2.0115014388,
				"element": "C" 
			},
			{
				"x": 2.4665784607,
				"y": 0.2267012069,
				"z": -3.4186207453,
				"element": "Cl" 
			},
			{
				"x": 1.9487401927,
				"y": 1.3264866953,
				"z": -1.0326598175,
				"element": "C" 
			},
			{
				"x": 1.2905277429,
				"y": 1.8308959094,
				"z": 0.185728764,
				"element": "C" 
			},
			{
				"x": -0.0817838861,
				"y": 2.1311096181,
				"z": 0.2692683463,
				"element": "C" 
			},
			{
				"x": -0.6282254256,
				"y": 2.6377335719,
				"z": 1.4467392309,
				"element": "C" 
			},
			{
				"x": 0.1786560715,
				"y": 2.858935349,
				"z": 2.5650187253,
				"element": "C" 
			},
			{
				"x": 1.5446369476,
				"y": 2.5788956189,
				"z": 2.4927748841,
				"element": "C" 
			},
			{
				"x": 2.0939534808,
				"y": 2.0790950489,
				"z": 1.3146961568,
				"element": "C" 
			},
			{
				"x": -0.4405900744,
				"y": -0.9841520993,
				"z": -1.1610197227,
				"element": "C" 
			},
			{
				"x": -1.8278575868,
				"y": -1.2757429775,
				"z": -1.2743997122,
				"element": "C" 
			},
			{
				"x": 0.0378338322,
				"y": -2.9045936966,
				"z": 1.6361739798,
				"element": "H" 
			},
			{
				"x": -2.4173459556,
				"y": -3.2953082167,
				"z": 1.4138416117,
				"element": "H" 
			},
			{
				"x": -4.3046733255,
				"y": -3.2093312553,
				"z": -1.0132396199,
				"element": "H" 
			},
			{
				"x": -4.6681213697,
				"y": -1.7954909097,
				"z": -0.0390812438,
				"element": "H" 
			},
			{
				"x": -4.7978421371,
				"y": -0.4854291073,
				"z": -2.0128728837,
				"element": "H" 
			},
			{
				"x": -4.3838122818,
				"y": -1.8890629389,
				"z": -2.9819221332,
				"element": "H" 
			},
			{
				"x": -2.7139865036,
				"y": 0.4895635771,
				"z": -4.0483964494,
				"element": "H" 
			},
			{
				"x": -0.3431573212,
				"y": 1.1418972599,
				"z": -3.8252055297,
				"element": "H" 
			},
			{
				"x": 2.9951830169,
				"y": 1.6030969688,
				"z": -1.134343103,
				"element": "H" 
			},
			{
				"x": -0.7171790623,
				"y": 1.9885189583,
				"z": -0.5972540321,
				"element": "H" 
			},
			{
				"x": -1.6888601142,
				"y": 2.8700450996,
				"z": 1.4876532629,
				"element": "H" 
			},
			{
				"x": -0.2515187791,
				"y": 3.254237912,
				"z": 3.4806856683,
				"element": "H" 
			},
			{
				"x": 2.1839878169,
				"y": 2.7520008211,
				"z": 3.353625776,
				"element": "H" 
			},
			{
				"x": 3.1573869067,
				"y": 1.8617603178,
				"z": 1.2646763332,
				"element": "H" 
			}
		],
		 "valence_orbital": [ 
			{
				"type": "occ",
				"energy": -0.27506,
				"method": "rhf"
			},
			{
				"type": "occ",
				"energy": -0.26481,
				"method": "rhf"
			},
			{
				"type": "occ",
				"energy": -0.24899,
				"method": "rhf"
			},
			{
				"type": "occ",
				"energy": -0.23167,
				"method": "rhf"
			},
			{
				"type": "occ",
				"energy": -0.21323,
				"method": "rhf"
			},
			{
				"type": "unocc",
				"energy": -0.07876,
				"method": "rhf"
			},
			{
				"type": "unocc",
				"energy": -0.05464,
				"method": "rhf"
			},
			{
				"type": "unocc",
				"energy": -0.03151,
				"method": "rhf"
			},
			{
				"type": "unocc",
				"energy": -0.02519,
				"method": "rhf"
			},
			{
				"type": "unocc",
				"energy": 0.0004,
				"method": "rhf"
			}
		],
		"cosmo_sigma_profile": { 
			"-0.025": 0.0,
			"-0.024": 0.0,
			"-0.023": 0.0,
			"-0.022": 0.0,
			"-0.021": 0.0,
			"-0.02": 0.0,
			"-0.019": 0.0,
			"-0.018": 0.0,
			"-0.017": 0.0,
			"-0.016": 0.0,
			"-0.015": 0.0,
			"-0.014": 0.0,
			"-0.013": 0.0,
			"-0.012": 0.0,
			"-0.011": 0.0,
			"-0.01": 0.0,
			"-0.009": 0.0,
			"-0.008": 0.792570288098,
			"-0.007": 6.68060726066,
			"-0.006": 19.0108782669,
			"-0.005": 28.8349628124,
			"-0.004": 33.110512146,
			"-0.003": 29.3189050361,
			"-0.002": 26.509135832,
			"-0.001": 24.7375837972,
			"0.0": 21.6494660648,
			"0.001": 27.4261699054,
			"0.002": 28.4961651875,
			"0.003": 24.668383394,
			"0.004": 20.580363144,
			"0.005": 20.1703176995,
			"0.006": 7.81214314404,
			"0.007": 7.26603713942,
			"0.008": 9.39166954978,
			"0.009": 6.26241939672,
			"0.01": 3.43614651495,
			"0.011": 0.548226253525,
			"0.012": 0.0,
			"0.013": 0.0,
			"0.014": 0.0,
			"0.015": 0.0,
			"0.016": 0.0,
			"0.017": 0.0,
			"0.018": 0.0,
			"0.019": 0.0,
			"0.02": 0.0,
			"0.021": 0.0,
			"0.022": 0.0,
			"0.023": 0.0,
			"0.024": 0.0,
			"0.025": 0.0
		}
	}
}
