{
	 "smiles": "ClC1=C2OC=CC2=CN=N1", 
	 "Tm": 391.15, 
	 "num_atms": 13, 
	 "gaussian": { 
		 "optdone": 1, 
		 "sigma_profile": "yes", 
		 "theory": "DFT", 
		 "functional": "B3LYP", 
		 "basiset": "6-31G**", 
		 "properties": { 
			 "R2extent": 1524.4512, 
			 "electric_dipole_moment_norm": 5.63977602126, 
			 "electric_quadrupole_moment_norm": 5.74629690757, 
			 "total_energy": -875.297331887, 
			 "HOMO_LUMO_gap": 0.18783, 
			 "cosmo_polarized_energy": -11.89, 
			 "cosmo_cavitation_energy": 19.91, 
			 "cosmo_dispersion_energy": -15.29, 
			 "cosmo_repulsion_energy": 1.22, 
			 "cosmo_total_nonelectrostatic_energy": 5.84, 
			 "SMD_solvation_energy": 2.43 
		},
		"coords": [
			{
				"x": -0.0013259972,
				"y": 1.0328169795,
				"z": 2.4586256909,
				"element": "Cl" 
			},
			{
				"x": 0.2247247092,
				"y": 0.5604088821,
				"z": 0.7962214281,
				"element": "C" 
			},
			{
				"x": 0.2491269353,
				"y": -0.7851843279,
				"z": 0.4326721869,
				"element": "C" 
			},
			{
				"x": 0.1172831784,
				"y": -1.8903001184,
				"z": 1.2064966449,
				"element": "O" 
			},
			{
				"x": 0.2176548741,
				"y": -2.9583786562,
				"z": 0.3463263121,
				"element": "C" 
			},
			{
				"x": 0.4077188352,
				"y": -2.5703641867,
				"z": -0.9406040173,
				"element": "C" 
			},
			{
				"x": 0.4320628246,
				"y": -1.1300200108,
				"z": -0.9081075363,
				"element": "C" 
			},
			{
				"x": 0.5808769644,
				"y": -0.0587742233,
				"z": -1.8066441899,
				"element": "C" 
			},
			{
				"x": 0.5496942569,
				"y": 1.2089453139,
				"z": -1.4061231454,
				"element": "N" 
			},
			{
				"x": 0.3717522139,
				"y": 1.5135525042,
				"z": -0.1064142203,
				"element": "N" 
			},
			{
				"x": 0.132050751,
				"y": -3.9276819772,
				"z": 0.8132203446,
				"element": "H" 
			},
			{
				"x": 0.5162013805,
				"y": -3.2174637118,
				"z": -1.7983282797,
				"element": "H" 
			},
			{
				"x": 0.7287790735,
				"y": -0.2103564675,
				"z": -2.8723412186,
				"element": "H" 
			}
		],
		 "valence_orbital": [ 
			{
				"type": "occ",
				"energy": -0.32529,
				"method": "rhf"
			},
			{
				"type": "occ",
				"energy": -0.31944,
				"method": "rhf"
			},
			{
				"type": "occ",
				"energy": -0.28483,
				"method": "rhf"
			},
			{
				"type": "occ",
				"energy": -0.26852,
				"method": "rhf"
			},
			{
				"type": "occ",
				"energy": -0.24805,
				"method": "rhf"
			},
			{
				"type": "unocc",
				"energy": -0.06022,
				"method": "rhf"
			},
			{
				"type": "unocc",
				"energy": -0.03969,
				"method": "rhf"
			},
			{
				"type": "unocc",
				"energy": 0.01859,
				"method": "rhf"
			},
			{
				"type": "unocc",
				"energy": 0.02371,
				"method": "rhf"
			},
			{
				"type": "unocc",
				"energy": 0.10206,
				"method": "rhf"
			}
		],
		"cosmo_sigma_profile": { 
			"-0.025": 0.0,
			"-0.024": 0.0,
			"-0.023": 0.0,
			"-0.022": 0.0,
			"-0.021": 0.0,
			"-0.02": 0.0,
			"-0.019": 0.0,
			"-0.018": 0.0,
			"-0.017": 0.0,
			"-0.016": 0.0,
			"-0.015": 0.0,
			"-0.014": 0.0,
			"-0.013": 0.0,
			"-0.012": 0.0996840965886,
			"-0.011": 1.93326599829,
			"-0.01": 2.13939982112,
			"-0.009": 5.2359805841,
			"-0.008": 6.72041654551,
			"-0.007": 5.77365688847,
			"-0.006": 5.18068743601,
			"-0.005": 4.40220805999,
			"-0.004": 10.6956489901,
			"-0.003": 13.6174767037,
			"-0.002": 12.9157500026,
			"-0.001": 15.2887972756,
			"0.0": 11.9809480847,
			"0.001": 10.1818776203,
			"0.002": 9.37711730286,
			"0.003": 13.637587175,
			"0.004": 7.25738386227,
			"0.005": 4.25687366176,
			"0.006": 3.71238376527,
			"0.007": 3.31516332417,
			"0.008": 1.83648637779,
			"0.009": 1.42802598196,
			"0.01": 1.38812838766,
			"0.011": 2.74015453466,
			"0.012": 2.43431450582,
			"0.013": 3.29918099929,
			"0.014": 2.01891617423,
			"0.015": 1.33159948299,
			"0.016": 0.234465068164,
			"0.017": 0.0,
			"0.018": 0.0,
			"0.019": 0.0,
			"0.02": 0.0,
			"0.021": 0.0,
			"0.022": 0.0,
			"0.023": 0.0,
			"0.024": 0.0,
			"0.025": 0.0
		}
	}
}
