{
	 "smiles": "CCCCCCCCC=CCCCCCCCCCCCCO", 
	 "Tm": 308.15, 
	 "num_atms": 67, 
	 "gaussian": { 
		 "optdone": 1, 
		 "sigma_profile": "yes", 
		 "theory": "DFT", 
		 "functional": "B3LYP", 
		 "basiset": "6-31G**", 
		 "properties": { 
			 "R2extent": 16127.1396, 
			 "electric_dipole_moment_norm": 1.88514805785, 
			 "electric_quadrupole_moment_norm": 14.2172338322, 
			 "total_energy": -940.107137225, 
			 "HOMO_LUMO_gap": 0.26383, 
			 "cosmo_polarized_energy": -7.47, 
			 "cosmo_cavitation_energy": 64.93, 
			 "cosmo_dispersion_energy": -41.69, 
			 "cosmo_repulsion_energy": 3.44, 
			 "cosmo_total_nonelectrostatic_energy": 26.67, 
			 "SMD_solvation_energy": 8.41 
		},
		"coords": [
			{
				"x": 4.8696940208,
				"y": -5.2675234212,
				"z": -0.1971001843,
				"element": "C" 
			},
			{
				"x": 4.5719195705,
				"y": -4.1240975867,
				"z": -1.1721608874,
				"element": "C" 
			},
			{
				"x": 3.9130952258,
				"y": -2.9130124832,
				"z": -0.4931978586,
				"element": "C" 
			},
			{
				"x": 3.586546145,
				"y": -1.7307190977,
				"z": -1.4351574697,
				"element": "C" 
			},
			{
				"x": 2.1395317881,
				"y": -1.6681676519,
				"z": -1.9600518742,
				"element": "C" 
			},
			{
				"x": 1.7071322983,
				"y": -2.8478457448,
				"z": -2.841426025,
				"element": "C" 
			},
			{
				"x": 0.2488207815,
				"y": -2.8191498179,
				"z": -3.3333156846,
				"element": "C" 
			},
			{
				"x": -0.1356872564,
				"y": -1.6516424874,
				"z": -4.2812378848,
				"element": "C" 
			},
			{
				"x": -0.6446997739,
				"y": -0.4095745895,
				"z": -3.5959383087,
				"element": "C" 
			},
			{
				"x": -1.8654352105,
				"y": 0.1078850563,
				"z": -3.766844804,
				"element": "C" 
			},
			{
				"x": -2.3943462108,
				"y": 1.3463076202,
				"z": -3.0947357189,
				"element": "C" 
			},
			{
				"x": -3.680529905,
				"y": 1.1011731513,
				"z": -2.2745737052,
				"element": "C" 
			},
			{
				"x": -3.5262862799,
				"y": 0.1328955684,
				"z": -1.0906971813,
				"element": "C" 
			},
			{
				"x": -2.6137093145,
				"y": 0.63868061,
				"z": 0.0350080521,
				"element": "C" 
			},
			{
				"x": -2.5529635159,
				"y": -0.3134664792,
				"z": 1.2365993679,
				"element": "C" 
			},
			{
				"x": -1.6379366607,
				"y": 0.1777741119,
				"z": 2.36639674,
				"element": "C" 
			},
			{
				"x": -1.5975588701,
				"y": -0.779056732,
				"z": 3.5659041727,
				"element": "C" 
			},
			{
				"x": -0.6219154925,
				"y": -0.4058918579,
				"z": 4.6968740721,
				"element": "C" 
			},
			{
				"x": -0.9347452304,
				"y": 0.9149312547,
				"z": 5.4383732589,
				"element": "C" 
			},
			{
				"x": -0.211351046,
				"y": 2.1712131409,
				"z": 4.9152401172,
				"element": "C" 
			},
			{
				"x": 1.2901616612,
				"y": 2.2049191017,
				"z": 5.2327587667,
				"element": "C" 
			},
			{
				"x": 1.9852029309,
				"y": 3.4582100322,
				"z": 4.6976504337,
				"element": "C" 
			},
			{
				"x": 3.3616589838,
				"y": 3.5258696217,
				"z": 5.0486904668,
				"element": "O" 
			},
			{
				"x": 5.5322971301,
				"y": -4.9368685729,
				"z": 0.6112517904,
				"element": "H" 
			},
			{
				"x": 3.9499712902,
				"y": -5.6439387928,
				"z": 0.2655901637,
				"element": "H" 
			},
			{
				"x": 5.3557529974,
				"y": -6.1091768458,
				"z": -0.7014951894,
				"element": "H" 
			},
			{
				"x": 3.9352028333,
				"y": -4.4939294813,
				"z": -1.9848149414,
				"element": "H" 
			},
			{
				"x": 5.5062710966,
				"y": -3.7965528256,
				"z": -1.6482218573,
				"element": "H" 
			},
			{
				"x": 4.5887774245,
				"y": -2.5654778727,
				"z": 0.299652058,
				"element": "H" 
			},
			{
				"x": 2.996832424,
				"y": -3.2361690925,
				"z": 0.0219680761,
				"element": "H" 
			},
			{
				"x": 3.7828587127,
				"y": -0.7897442599,
				"z": -0.906405812,
				"element": "H" 
			},
			{
				"x": 4.2819311082,
				"y": -1.7412094667,
				"z": -2.2864677077,
				"element": "H" 
			},
			{
				"x": 1.4535283235,
				"y": -1.5893124729,
				"z": -1.1040414675,
				"element": "H" 
			},
			{
				"x": 2.0288805411,
				"y": -0.7343471719,
				"z": -2.5248911901,
				"element": "H" 
			},
			{
				"x": 1.850353247,
				"y": -3.7825522343,
				"z": -2.2851717229,
				"element": "H" 
			},
			{
				"x": 2.3757934818,
				"y": -2.9084638324,
				"z": -3.7127333431,
				"element": "H" 
			},
			{
				"x": -0.4333978191,
				"y": -2.8216295492,
				"z": -2.4729818565,
				"element": "H" 
			},
			{
				"x": 0.0649876257,
				"y": -3.7609331795,
				"z": -3.8655430924,
				"element": "H" 
			},
			{
				"x": 0.7384579814,
				"y": -1.4033745963,
				"z": -4.9025265713,
				"element": "H" 
			},
			{
				"x": -0.9102795887,
				"y": -1.9994372298,
				"z": -4.9751675309,
				"element": "H" 
			},
			{
				"x": 0.039125398,
				"y": 0.0939872475,
				"z": -2.912141854,
				"element": "H" 
			},
			{
				"x": -2.5563823236,
				"y": -0.3945068841,
				"z": -4.4486861451,
				"element": "H" 
			},
			{
				"x": -2.6238144491,
				"y": 2.1018384817,
				"z": -3.8604275416,
				"element": "H" 
			},
			{
				"x": -1.6146048484,
				"y": 1.7832347885,
				"z": -2.4595608818,
				"element": "H" 
			},
			{
				"x": -4.0530627075,
				"y": 2.0672952413,
				"z": -1.9079795549,
				"element": "H" 
			},
			{
				"x": -4.4553456169,
				"y": 0.7136023008,
				"z": -2.9498372369,
				"element": "H" 
			},
			{
				"x": -4.5223084309,
				"y": -0.0692854027,
				"z": -0.6736865812,
				"element": "H" 
			},
			{
				"x": -3.1464770532,
				"y": -0.8297103259,
				"z": -1.4577528211,
				"element": "H" 
			},
			{
				"x": -1.5966199234,
				"y": 0.791581954,
				"z": -0.3496036455,
				"element": "H" 
			},
			{
				"x": -2.9638914157,
				"y": 1.6257752023,
				"z": 0.3709980611,
				"element": "H" 
			},
			{
				"x": -2.2119064753,
				"y": -1.3024763461,
				"z": 0.8984584713,
				"element": "H" 
			},
			{
				"x": -3.5679254819,
				"y": -0.4636989044,
				"z": 1.6319805123,
				"element": "H" 
			},
			{
				"x": -1.9763786175,
				"y": 1.1705084699,
				"z": 2.6909995177,
				"element": "H" 
			},
			{
				"x": -0.6195543136,
				"y": 0.3148326455,
				"z": 1.9742302,
				"element": "H" 
			},
			{
				"x": -1.3362509415,
				"y": -1.7829291961,
				"z": 3.2029474619,
				"element": "H" 
			},
			{
				"x": -2.6099072747,
				"y": -0.866969956,
				"z": 3.9862632267,
				"element": "H" 
			},
			{
				"x": -0.6308230813,
				"y": -1.2280038268,
				"z": 5.4230980396,
				"element": "H" 
			},
			{
				"x": 0.4012785666,
				"y": -0.378982751,
				"z": 4.2978873624,
				"element": "H" 
			},
			{
				"x": -2.0189317354,
				"y": 1.087896328,
				"z": 5.4102625233,
				"element": "H" 
			},
			{
				"x": -0.6817162708,
				"y": 0.8007793591,
				"z": 6.5005847735,
				"element": "H" 
			},
			{
				"x": -0.3571301896,
				"y": 2.2656753934,
				"z": 3.8318425352,
				"element": "H" 
			},
			{
				"x": -0.6813527611,
				"y": 3.057775023,
				"z": 5.362344815,
				"element": "H" 
			},
			{
				"x": 1.4462823854,
				"y": 2.1567567233,
				"z": 6.3180589415,
				"element": "H" 
			},
			{
				"x": 1.7854878762,
				"y": 1.3194232863,
				"z": 4.8080488653,
				"element": "H" 
			},
			{
				"x": 1.8475618504,
				"y": 3.5250562236,
				"z": 3.6050261896,
				"element": "H" 
			},
			{
				"x": 1.5276471431,
				"y": 4.3548390175,
				"z": 5.130692548,
				"element": "H" 
			},
			{
				"x": 3.798983243,
				"y": 2.7561120639,
				"z": 4.6622945504,
				"element": "H" 
			}
		],
		 "valence_orbital": [ 
			{
				"type": "occ",
				"energy": -0.3028,
				"method": "rhf"
			},
			{
				"type": "occ",
				"energy": -0.29928,
				"method": "rhf"
			},
			{
				"type": "occ",
				"energy": -0.29335,
				"method": "rhf"
			},
			{
				"type": "occ",
				"energy": -0.25906,
				"method": "rhf"
			},
			{
				"type": "occ",
				"energy": -0.23563,
				"method": "rhf"
			},
			{
				"type": "unocc",
				"energy": 0.0282,
				"method": "rhf"
			},
			{
				"type": "unocc",
				"energy": 0.07788,
				"method": "rhf"
			},
			{
				"type": "unocc",
				"energy": 0.08064,
				"method": "rhf"
			},
			{
				"type": "unocc",
				"energy": 0.08651,
				"method": "rhf"
			},
			{
				"type": "unocc",
				"energy": 0.09005,
				"method": "rhf"
			}
		],
		"cosmo_sigma_profile": { 
			"-0.025": 0.0,
			"-0.024": 0.0,
			"-0.023": 0.0,
			"-0.022": 0.0,
			"-0.021": 0.0,
			"-0.02": 0.0,
			"-0.019": 0.0,
			"-0.018": 0.0,
			"-0.017": 0.0,
			"-0.016": 0.0,
			"-0.015": 0.382203784851,
			"-0.014": 1.00712144933,
			"-0.013": 1.06512632358,
			"-0.012": 0.979524815061,
			"-0.011": 0.981111007586,
			"-0.01": 0.846747740277,
			"-0.009": 0.562827253403,
			"-0.008": 1.00618872327,
			"-0.007": 1.43229236554,
			"-0.006": 0.924907826157,
			"-0.005": 0.945246536081,
			"-0.004": 2.63501271819,
			"-0.003": 18.5633634782,
			"-0.002": 66.8693443317,
			"-0.001": 117.695604742,
			"0.0": 117.09345694,
			"0.001": 87.2193030559,
			"0.002": 40.1292720523,
			"0.003": 8.26504142083,
			"0.004": 5.67694344285,
			"0.005": 4.35842335536,
			"0.006": 3.03318675757,
			"0.007": 2.22998769087,
			"0.008": 1.4305191601,
			"0.009": 1.16929940887,
			"0.01": 1.00446579289,
			"0.011": 1.98328960817,
			"0.012": 1.00005569449,
			"0.013": 1.64236232987,
			"0.014": 2.19805379287,
			"0.015": 1.86466944568,
			"0.016": 0.0,
			"0.017": 0.0,
			"0.018": 0.0,
			"0.019": 0.0,
			"0.02": 0.0,
			"0.021": 0.0,
			"0.022": 0.0,
			"0.023": 0.0,
			"0.024": 0.0,
			"0.025": 0.0
		}
	}
}
