{
	 "smiles": "NC1=CC(=NO1)C1=CSC=C1", 
	 "Tm": 363.15, 
	 "num_atms": 17, 
	 "gaussian": { 
		 "optdone": 1, 
		 "sigma_profile": "yes", 
		 "theory": "DFT", 
		 "functional": "B3LYP", 
		 "basiset": "6-31G**", 
		 "properties": { 
			 "R2extent": 3057.4241, 
			 "electric_dipole_moment_norm": 3.47926254974, 
			 "electric_quadrupole_moment_norm": 19.2739473645, 
			 "total_energy": -853.210415471, 
			 "HOMO_LUMO_gap": 0.19346, 
			 "cosmo_polarized_energy": -14.33, 
			 "cosmo_cavitation_energy": 23.58, 
			 "cosmo_dispersion_energy": -18.32, 
			 "cosmo_repulsion_energy": 1.42, 
			 "cosmo_total_nonelectrostatic_energy": 6.67, 
			 "SMD_solvation_energy": 4.34 
		},
		"coords": [
			{
				"x": 4.7380975408,
				"y": 1.4994715041,
				"z": -1.1376364624,
				"element": "N" 
			},
			{
				"x": 3.6124803161,
				"y": 0.8914859233,
				"z": -0.6365345349,
				"element": "C" 
			},
			{
				"x": 2.5395252993,
				"y": 1.3406964777,
				"z": 0.085465815,
				"element": "C" 
			},
			{
				"x": 1.7864812472,
				"y": 0.154283475,
				"z": 0.3296212044,
				"element": "C" 
			},
			{
				"x": 2.3519062468,
				"y": -0.9163084294,
				"z": -0.1990760607,
				"element": "N" 
			},
			{
				"x": 3.5285125879,
				"y": -0.437521373,
				"z": -0.8227122859,
				"element": "O" 
			},
			{
				"x": 0.52536602,
				"y": 0.0123727296,
				"z": 1.0620059505,
				"element": "C" 
			},
			{
				"x": -0.1507821814,
				"y": 1.0501263224,
				"z": 1.6573105567,
				"element": "C" 
			},
			{
				"x": -1.6018848859,
				"y": 0.517268354,
				"z": 2.4327676667,
				"element": "S" 
			},
			{
				"x": -1.3050755895,
				"y": -1.1273735943,
				"z": 1.9548823342,
				"element": "C" 
			},
			{
				"x": -0.1507469018,
				"y": -1.2435184922,
				"z": 1.2398924205,
				"element": "C" 
			},
			{
				"x": 5.1987310197,
				"y": 0.9837600788,
				"z": -1.8755776181,
				"element": "H" 
			},
			{
				"x": 4.6422484506,
				"y": 2.4847029334,
				"z": -1.33626112,
				"element": "H" 
			},
			{
				"x": 2.3271854666,
				"y": 2.3502502717,
				"z": 0.3987077216,
				"element": "H" 
			},
			{
				"x": 0.1222787272,
				"y": 2.0954508258,
				"z": 1.6849568147,
				"element": "H" 
			},
			{
				"x": -2.0025847132,
				"y": -1.9050265674,
				"z": 2.2328657652,
				"element": "H" 
			},
			{
				"x": 0.2299613495,
				"y": -2.1757204395,
				"z": 0.8420218326,
				"element": "H" 
			}
		],
		 "valence_orbital": [ 
			{
				"type": "occ",
				"energy": -0.30699,
				"method": "rhf"
			},
			{
				"type": "occ",
				"energy": -0.29524,
				"method": "rhf"
			},
			{
				"type": "occ",
				"energy": -0.24513,
				"method": "rhf"
			},
			{
				"type": "occ",
				"energy": -0.22946,
				"method": "rhf"
			},
			{
				"type": "occ",
				"energy": -0.21724,
				"method": "rhf"
			},
			{
				"type": "unocc",
				"energy": -0.02378,
				"method": "rhf"
			},
			{
				"type": "unocc",
				"energy": 0.00867,
				"method": "rhf"
			},
			{
				"type": "unocc",
				"energy": 0.0313,
				"method": "rhf"
			},
			{
				"type": "unocc",
				"energy": 0.04958,
				"method": "rhf"
			},
			{
				"type": "unocc",
				"energy": 0.0671,
				"method": "rhf"
			}
		],
		"cosmo_sigma_profile": { 
			"-0.025": 0.0,
			"-0.024": 0.0,
			"-0.023": 0.0,
			"-0.022": 0.0,
			"-0.021": 0.0,
			"-0.02": 0.0,
			"-0.019": 0.0,
			"-0.018": 0.0,
			"-0.017": 0.0,
			"-0.016": 0.0,
			"-0.015": 0.606162215188,
			"-0.014": 2.68162854421,
			"-0.013": 2.83949003059,
			"-0.012": 2.52347924474,
			"-0.011": 2.69690826567,
			"-0.01": 2.15690892111,
			"-0.009": 4.37060804098,
			"-0.008": 8.73153712871,
			"-0.007": 7.38652627274,
			"-0.006": 7.58823694232,
			"-0.005": 6.77007605341,
			"-0.004": 7.22843026478,
			"-0.003": 7.28551794414,
			"-0.002": 7.2642882766,
			"-0.001": 8.04314460737,
			"0.0": 8.36755553181,
			"0.001": 10.0189376846,
			"0.002": 14.7352801787,
			"0.003": 25.4284881851,
			"0.004": 21.317537723,
			"0.005": 8.03832571838,
			"0.006": 3.79003399906,
			"0.007": 3.2596909915,
			"0.008": 4.22512171513,
			"0.009": 4.25377712594,
			"0.01": 3.75632910098,
			"0.011": 1.52794664443,
			"0.012": 1.90314626678,
			"0.013": 1.37901180087,
			"0.014": 1.29898746462,
			"0.015": 0.170933905501,
			"0.016": 0.0,
			"0.017": 0.0,
			"0.018": 0.0,
			"0.019": 0.0,
			"0.02": 0.0,
			"0.021": 0.0,
			"0.022": 0.0,
			"0.023": 0.0,
			"0.024": 0.0,
			"0.025": 0.0
		}
	}
}
