{
	 "smiles": "BrC1=CC2=C(OCC2)C=C1", 
	 "Tm": 322.65, 
	 "num_atms": 17, 
	 "gaussian": { 
		 "optdone": 1, 
		 "sigma_profile": "yes", 
		 "theory": "DFT", 
		 "functional": "B3LYP", 
		 "basiset": "6-31G**", 
		 "properties": { 
			 "R2extent": 2914.0081, 
			 "electric_dipole_moment_norm": 2.66138077133, 
			 "electric_quadrupole_moment_norm": 9.33393557027, 
			 "total_energy": -2955.68973074, 
			 "HOMO_LUMO_gap": 0.19755, 
			 "cosmo_polarized_energy": -5.89, 
			 "cosmo_cavitation_energy": 22.66, 
			 "cosmo_dispersion_energy": -17.77, 
			 "cosmo_repulsion_energy": 1.44, 
			 "cosmo_total_nonelectrostatic_energy": 6.34, 
			 "SMD_solvation_energy": 2.72 
		},
		"coords": [
			{
				"x": 1.358422661,
				"y": -2.3497890147,
				"z": 2.5485112754,
				"element": "Br" 
			},
			{
				"x": 0.4682223244,
				"y": -1.2509768584,
				"z": 1.2566910701,
				"element": "C" 
			},
			{
				"x": 0.1971680319,
				"y": 0.0853592043,
				"z": 1.5721270359,
				"element": "C" 
			},
			{
				"x": -0.4409600638,
				"y": 0.8650382135,
				"z": 0.6169192571,
				"element": "C" 
			},
			{
				"x": -0.7996849253,
				"y": 0.3129589768,
				"z": -0.6165783153,
				"element": "C" 
			},
			{
				"x": -1.4256161507,
				"y": 1.1976653516,
				"z": -1.4446106726,
				"element": "O" 
			},
			{
				"x": -1.3127676905,
				"y": 2.5130180572,
				"z": -0.841015464,
				"element": "C" 
			},
			{
				"x": -0.9237598838,
				"y": 2.2981817269,
				"z": 0.6426871841,
				"element": "C" 
			},
			{
				"x": -0.5384385662,
				"y": -1.0154062298,
				"z": -0.9343406358,
				"element": "C" 
			},
			{
				"x": 0.1066851585,
				"y": -1.801339712,
				"z": 0.0268675132,
				"element": "C" 
			},
			{
				"x": 0.4816867477,
				"y": 0.4893552351,
				"z": 2.5375980555,
				"element": "H" 
			},
			{
				"x": -2.2689556808,
				"y": 3.0223124047,
				"z": -0.9776567431,
				"element": "H" 
			},
			{
				"x": -0.5362426344,
				"y": 3.0660474287,
				"z": -1.3828517084,
				"element": "H" 
			},
			{
				"x": -1.7877660301,
				"y": 2.4110920175,
				"z": 1.3093024414,
				"element": "H" 
			},
			{
				"x": -0.1611498561,
				"y": 3.0110151542,
				"z": 0.9704668229,
				"element": "H" 
			},
			{
				"x": -0.8231116077,
				"y": -1.4250261422,
				"z": -1.8971356435,
				"element": "H" 
			},
			{
				"x": 0.3317681659,
				"y": -2.8403058135,
				"z": -0.185081473,
				"element": "H" 
			}
		],
		 "valence_orbital": [ 
			{
				"type": "occ",
				"energy": -0.33804,
				"method": "rhf"
			},
			{
				"type": "occ",
				"energy": -0.28315,
				"method": "rhf"
			},
			{
				"type": "occ",
				"energy": -0.28145,
				"method": "rhf"
			},
			{
				"type": "occ",
				"energy": -0.258,
				"method": "rhf"
			},
			{
				"type": "occ",
				"energy": -0.21255,
				"method": "rhf"
			},
			{
				"type": "unocc",
				"energy": -0.015,
				"method": "rhf"
			},
			{
				"type": "unocc",
				"energy": 0.00382,
				"method": "rhf"
			},
			{
				"type": "unocc",
				"energy": 0.01214,
				"method": "rhf"
			},
			{
				"type": "unocc",
				"energy": 0.08899,
				"method": "rhf"
			},
			{
				"type": "unocc",
				"energy": 0.11363,
				"method": "rhf"
			}
		],
		"cosmo_sigma_profile": { 
			"-0.025": 0.0,
			"-0.024": 0.0,
			"-0.023": 0.0,
			"-0.022": 0.0,
			"-0.021": 0.0,
			"-0.02": 0.0,
			"-0.019": 0.0,
			"-0.018": 0.0,
			"-0.017": 0.0,
			"-0.016": 0.0,
			"-0.015": 0.0,
			"-0.014": 0.0,
			"-0.013": 0.0,
			"-0.012": 0.0,
			"-0.011": 0.0,
			"-0.01": 0.0,
			"-0.009": 0.0,
			"-0.008": 0.0212292145614,
			"-0.007": 3.28335373862,
			"-0.006": 9.36799073943,
			"-0.005": 18.5419173758,
			"-0.004": 18.1495392375,
			"-0.003": 16.0242832307,
			"-0.002": 12.6324692219,
			"-0.001": 9.09917209708,
			"0.0": 10.2142568603,
			"0.001": 9.75923790241,
			"0.002": 13.8227294894,
			"0.003": 20.3790875033,
			"0.004": 20.0128521545,
			"0.005": 12.8821711529,
			"0.006": 3.13394686478,
			"0.007": 1.4552189988,
			"0.008": 1.32996365518,
			"0.009": 0.748112707846,
			"0.01": 1.62443169701,
			"0.011": 1.72364397829,
			"0.012": 0.0776572906637,
			"0.013": 0.0,
			"0.014": 0.0,
			"0.015": 0.0,
			"0.016": 0.0,
			"0.017": 0.0,
			"0.018": 0.0,
			"0.019": 0.0,
			"0.02": 0.0,
			"0.021": 0.0,
			"0.022": 0.0,
			"0.023": 0.0,
			"0.024": 0.0,
			"0.025": 0.0
		}
	}
}
