{
	 "smiles": "CC(=O)NC1=CC2=C(C=C1)C1=CC=C(C=C1C2)[N+]([O-])=O", 
	 "Tm": 535.15, 
	 "num_atms": 32, 
	 "gaussian": { 
		 "optdone": 1, 
		 "sigma_profile": "yes", 
		 "theory": "DFT", 
		 "functional": "B3LYP", 
		 "basiset": "6-31G**", 
		 "properties": { 
			 "R2extent": 8676.5594, 
			 "electric_dipole_moment_norm": 3.2750029374, 
			 "electric_quadrupole_moment_norm": 50.7450966214, 
			 "total_energy": -913.938301527, 
			 "HOMO_LUMO_gap": 0.13265, 
			 "cosmo_polarized_energy": -18.39, 
			 "cosmo_cavitation_energy": 37.0, 
			 "cosmo_dispersion_energy": -26.94, 
			 "cosmo_repulsion_energy": 2.02, 
			 "cosmo_total_nonelectrostatic_energy": 12.08, 
			 "SMD_solvation_energy": 8.61 
		},
		"coords": [
			{
				"x": -5.0507585341,
				"y": -0.0486586048,
				"z": 0.9900992387,
				"element": "C" 
			},
			{
				"x": -4.9202325713,
				"y": 1.3836404119,
				"z": 0.5200187873,
				"element": "C" 
			},
			{
				"x": -5.8918275301,
				"y": 2.1180710282,
				"z": 0.4177345712,
				"element": "O" 
			},
			{
				"x": -3.6720275404,
				"y": 1.9018784135,
				"z": 0.1890646384,
				"element": "N" 
			},
			{
				"x": -2.3506855562,
				"y": 1.4299134246,
				"z": 0.1613619632,
				"element": "C" 
			},
			{
				"x": -1.943221265,
				"y": 0.1302724893,
				"z": 0.5177772439,
				"element": "C" 
			},
			{
				"x": -0.5957643859,
				"y": -0.1989508011,
				"z": 0.4414974682,
				"element": "C" 
			},
			{
				"x": 0.370762876,
				"y": 0.7333185289,
				"z": 0.0172813397,
				"element": "C" 
			},
			{
				"x": -0.0294196131,
				"y": 2.0252193999,
				"z": -0.3376930051,
				"element": "C" 
			},
			{
				"x": -1.3738879074,
				"y": 2.3603413237,
				"z": -0.2636574082,
				"element": "C" 
			},
			{
				"x": 1.6865565167,
				"y": 0.095988716,
				"z": 0.0426124871,
				"element": "C" 
			},
			{
				"x": 2.9543770537,
				"y": 0.5911995996,
				"z": -0.2837553806,
				"element": "C" 
			},
			{
				"x": 4.0600111622,
				"y": -0.2464764308,
				"z": -0.1668926424,
				"element": "C" 
			},
			{
				"x": 3.8805286557,
				"y": -1.5608195781,
				"z": 0.2728092774,
				"element": "C" 
			},
			{
				"x": 2.6237136928,
				"y": -2.0791876357,
				"z": 0.605027456,
				"element": "C" 
			},
			{
				"x": 1.5297647727,
				"y": -1.2388311851,
				"z": 0.4857158705,
				"element": "C" 
			},
			{
				"x": 0.0686510295,
				"y": -1.5207821326,
				"z": 0.7705078958,
				"element": "C" 
			},
			{
				"x": 5.0542123826,
				"y": -2.4319805297,
				"z": 0.3911125814,
				"element": "N" 
			},
			{
				"x": 6.1535117233,
				"y": -1.961254902,
				"z": 0.094251673,
				"element": "O" 
			},
			{
				"x": 4.8731761041,
				"y": -3.5873234586,
				"z": 0.7807828056,
				"element": "O" 
			},
			{
				"x": -4.70331772,
				"y": -0.7535094901,
				"z": 0.2283940941,
				"element": "H" 
			},
			{
				"x": -4.4786335381,
				"y": -0.2233098052,
				"z": 1.9065566683,
				"element": "H" 
			},
			{
				"x": -6.1071273434,
				"y": -0.2274987116,
				"z": 1.188039606,
				"element": "H" 
			},
			{
				"x": -3.7819605521,
				"y": 2.8666220306,
				"z": -0.1012634128,
				"element": "H" 
			},
			{
				"x": -2.653800858,
				"y": -0.6130715912,
				"z": 0.8479640359,
				"element": "H" 
			},
			{
				"x": 0.6920291947,
				"y": 2.7665083412,
				"z": -0.6687506407,
				"element": "H" 
			},
			{
				"x": -1.6907365444,
				"y": 3.3631541308,
				"z": -0.5383764133,
				"element": "H" 
			},
			{
				"x": 3.0845820662,
				"y": 1.6137525257,
				"z": -0.6245543194,
				"element": "H" 
			},
			{
				"x": 5.0594725074,
				"y": 0.0927687785,
				"z": -0.408001196,
				"element": "H" 
			},
			{
				"x": 2.5437675677,
				"y": -3.1062449128,
				"z": 0.9405512609,
				"element": "H" 
			},
			{
				"x": -0.0954168665,
				"y": -1.8146622159,
				"z": 1.8154499116,
				"element": "H" 
			},
			{
				"x": -0.3181989791,
				"y": -2.3407871572,
				"z": 0.1515335443,
				"element": "H" 
			}
		],
		 "valence_orbital": [ 
			{
				"type": "occ",
				"energy": -0.2818,
				"method": "rhf"
			},
			{
				"type": "occ",
				"energy": -0.27619,
				"method": "rhf"
			},
			{
				"type": "occ",
				"energy": -0.26834,
				"method": "rhf"
			},
			{
				"type": "occ",
				"energy": -0.26829,
				"method": "rhf"
			},
			{
				"type": "occ",
				"energy": -0.22146,
				"method": "rhf"
			},
			{
				"type": "unocc",
				"energy": -0.08881,
				"method": "rhf"
			},
			{
				"type": "unocc",
				"energy": -0.03828,
				"method": "rhf"
			},
			{
				"type": "unocc",
				"energy": -0.03306,
				"method": "rhf"
			},
			{
				"type": "unocc",
				"energy": -0.01561,
				"method": "rhf"
			},
			{
				"type": "unocc",
				"energy": 0.00838,
				"method": "rhf"
			}
		],
		"cosmo_sigma_profile": { 
			"-0.025": 0.0,
			"-0.024": 0.0,
			"-0.023": 0.0,
			"-0.022": 0.0,
			"-0.021": 0.0,
			"-0.02": 0.0,
			"-0.019": 0.0,
			"-0.018": 0.0,
			"-0.017": 0.0,
			"-0.016": 0.0,
			"-0.015": 0.0659250000193,
			"-0.014": 1.06748465379,
			"-0.013": 1.07104192998,
			"-0.012": 1.26816221807,
			"-0.011": 0.727048350341,
			"-0.01": 1.17513108055,
			"-0.009": 1.1554046521,
			"-0.008": 1.74030538304,
			"-0.007": 13.7590491746,
			"-0.006": 22.6534616525,
			"-0.005": 21.6041209559,
			"-0.004": 22.9661893018,
			"-0.003": 20.5612665309,
			"-0.002": 18.9864823489,
			"-0.001": 19.801413185,
			"0.0": 20.3743850489,
			"0.001": 21.6604326259,
			"0.002": 24.3639835405,
			"0.003": 16.3793099368,
			"0.004": 13.0400074464,
			"0.005": 4.56881498908,
			"0.006": 4.41872028245,
			"0.007": 6.24491193139,
			"0.008": 11.3164315375,
			"0.009": 6.59591022252,
			"0.01": 5.69021721689,
			"0.011": 2.37621730982,
			"0.012": 3.56758638177,
			"0.013": 5.31628423943,
			"0.014": 1.81672590329,
			"0.015": 0.109487367873,
			"0.016": 0.0,
			"0.017": 0.0,
			"0.018": 0.0,
			"0.019": 0.0,
			"0.02": 0.0,
			"0.021": 0.0,
			"0.022": 0.0,
			"0.023": 0.0,
			"0.024": 0.0,
			"0.025": 0.0
		}
	}
}
