{
	 "smiles": "OC(=O)C1=C(SCC2CCCCC2)N=CC=C1", 
	 "Tm": 419.15, 
	 "num_atms": 34, 
	 "gaussian": { 
		 "optdone": 1, 
		 "sigma_profile": "yes", 
		 "theory": "DFT", 
		 "functional": "B3LYP", 
		 "basiset": "6-31G**", 
		 "properties": { 
			 "R2extent": 5630.6556, 
			 "electric_dipole_moment_norm": 5.10816727017, 
			 "electric_quadrupole_moment_norm": 28.7083359067, 
			 "total_energy": -1109.03158493, 
			 "HOMO_LUMO_gap": 0.18125, 
			 "cosmo_polarized_energy": -11.18, 
			 "cosmo_cavitation_energy": 36.17, 
			 "cosmo_dispersion_energy": -26.65, 
			 "cosmo_repulsion_energy": 2.03, 
			 "cosmo_total_nonelectrostatic_energy": 11.55, 
			 "SMD_solvation_energy": 5.79 
		},
		"coords": [
			{
				"x": 1.2286736682,
				"y": 3.8148688072,
				"z": 0.5734917841,
				"element": "O" 
			},
			{
				"x": 0.0962744367,
				"y": 3.800745848,
				"z": 1.2989649927,
				"element": "C" 
			},
			{
				"x": -0.4129638101,
				"y": 4.8422649044,
				"z": 1.6502572985,
				"element": "O" 
			},
			{
				"x": -0.4977519644,
				"y": 2.4702069445,
				"z": 1.7068910798,
				"element": "C" 
			},
			{
				"x": -0.2417161424,
				"y": 1.1876053214,
				"z": 1.161668545,
				"element": "C" 
			},
			{
				"x": 0.7831084621,
				"y": 1.0022579463,
				"z": -0.3057279193,
				"element": "S" 
			},
			{
				"x": 1.3477905629,
				"y": -0.7570780024,
				"z": -0.2106823944,
				"element": "C" 
			},
			{
				"x": 0.8853153577,
				"y": -1.6432481547,
				"z": -1.3778847612,
				"element": "C" 
			},
			{
				"x": 1.3977853042,
				"y": -1.1662283204,
				"z": -2.7724720636,
				"element": "C" 
			},
			{
				"x": 0.2784140417,
				"y": -0.5755516515,
				"z": -3.6429753169,
				"element": "C" 
			},
			{
				"x": -0.8370857792,
				"y": -1.6090566068,
				"z": -3.9121079987,
				"element": "C" 
			},
			{
				"x": -1.0867309314,
				"y": -2.53511181,
				"z": -2.6936916813,
				"element": "C" 
			},
			{
				"x": -0.6400750956,
				"y": -1.877228334,
				"z": -1.3810650271,
				"element": "C" 
			},
			{
				"x": -0.7787418811,
				"y": 0.0733403405,
				"z": 1.6589688514,
				"element": "N" 
			},
			{
				"x": -1.6079959335,
				"y": 0.160243432,
				"z": 2.7035736701,
				"element": "C" 
			},
			{
				"x": -1.9721509835,
				"y": 1.3712522505,
				"z": 3.2869229755,
				"element": "C" 
			},
			{
				"x": -1.4037229174,
				"y": 2.5310969356,
				"z": 2.773772587,
				"element": "C" 
			},
			{
				"x": 1.5446442421,
				"y": 2.910655734,
				"z": 0.3750517391,
				"element": "H" 
			},
			{
				"x": 0.963973534,
				"y": -1.1330828397,
				"z": 0.7400428695,
				"element": "H" 
			},
			{
				"x": 2.4395212339,
				"y": -0.712026419,
				"z": -0.1697738523,
				"element": "H" 
			},
			{
				"x": 1.3600208203,
				"y": -2.613695885,
				"z": -1.1697967321,
				"element": "H" 
			},
			{
				"x": 1.8421973348,
				"y": -2.0179805593,
				"z": -3.3025819923,
				"element": "H" 
			},
			{
				"x": 2.2078780891,
				"y": -0.436363923,
				"z": -2.6509843688,
				"element": "H" 
			},
			{
				"x": 0.6926333578,
				"y": -0.2129039067,
				"z": -4.5905836409,
				"element": "H" 
			},
			{
				"x": -0.1418459907,
				"y": 0.301641337,
				"z": -3.1383920544,
				"element": "H" 
			},
			{
				"x": -1.7592464653,
				"y": -1.07855949,
				"z": -4.1762950429,
				"element": "H" 
			},
			{
				"x": -0.5752788004,
				"y": -2.219270393,
				"z": -4.7848723235,
				"element": "H" 
			},
			{
				"x": -0.5323502257,
				"y": -3.4747580636,
				"z": -2.8200366489,
				"element": "H" 
			},
			{
				"x": -2.1445727464,
				"y": -2.8143155314,
				"z": -2.6390514999,
				"element": "H" 
			},
			{
				"x": -0.916849787,
				"y": -2.4951575786,
				"z": -0.5197151403,
				"element": "H" 
			},
			{
				"x": -1.1631649501,
				"y": -0.9219452374,
				"z": -1.2497966853,
				"element": "H" 
			},
			{
				"x": -2.0012437976,
				"y": -0.7830496648,
				"z": 3.0773648985,
				"element": "H" 
			},
			{
				"x": -2.6679246007,
				"y": 1.4013875636,
				"z": 4.118305215,
				"element": "H" 
			},
			{
				"x": -1.6291176428,
				"y": 3.5097450063,
				"z": 3.183410638,
				"element": "H" 
			}
		],
		 "valence_orbital": [ 
			{
				"type": "occ",
				"energy": -0.29885,
				"method": "rhf"
			},
			{
				"type": "occ",
				"energy": -0.29483,
				"method": "rhf"
			},
			{
				"type": "occ",
				"energy": -0.28613,
				"method": "rhf"
			},
			{
				"type": "occ",
				"energy": -0.26635,
				"method": "rhf"
			},
			{
				"type": "occ",
				"energy": -0.24194,
				"method": "rhf"
			},
			{
				"type": "unocc",
				"energy": -0.06069,
				"method": "rhf"
			},
			{
				"type": "unocc",
				"energy": -0.04009,
				"method": "rhf"
			},
			{
				"type": "unocc",
				"energy": 0.02142,
				"method": "rhf"
			},
			{
				"type": "unocc",
				"energy": 0.04065,
				"method": "rhf"
			},
			{
				"type": "unocc",
				"energy": 0.04828,
				"method": "rhf"
			}
		],
		"cosmo_sigma_profile": { 
			"-0.025": 0.0,
			"-0.024": 0.0,
			"-0.023": 0.0,
			"-0.022": 0.0,
			"-0.021": 0.0,
			"-0.02": 0.0,
			"-0.019": 0.0,
			"-0.018": 0.0,
			"-0.017": 0.0,
			"-0.016": 0.0,
			"-0.015": 0.0,
			"-0.014": 0.0,
			"-0.013": 0.0,
			"-0.012": 0.0,
			"-0.011": 0.0620560933249,
			"-0.01": 0.65484720192,
			"-0.009": 1.36402384154,
			"-0.008": 3.05000417507,
			"-0.007": 7.28359834588,
			"-0.006": 8.91881527055,
			"-0.005": 10.3868196141,
			"-0.004": 12.4252955316,
			"-0.003": 20.0811393768,
			"-0.002": 35.1826956763,
			"-0.001": 40.0110351097,
			"0.0": 45.6952349262,
			"0.001": 36.1975430347,
			"0.002": 16.0167180882,
			"0.003": 6.67916531837,
			"0.004": 6.39020385999,
			"0.005": 5.06479867463,
			"0.006": 3.44953377867,
			"0.007": 4.13880740371,
			"0.008": 4.07630680802,
			"0.009": 3.34358637076,
			"0.01": 4.55280048771,
			"0.011": 5.25764981205,
			"0.012": 4.03693554407,
			"0.013": 1.46361722048,
			"0.014": 0.0187454536622,
			"0.015": 0.0,
			"0.016": 0.0,
			"0.017": 0.0,
			"0.018": 0.0,
			"0.019": 0.0,
			"0.02": 0.0,
			"0.021": 0.0,
			"0.022": 0.0,
			"0.023": 0.0,
			"0.024": 0.0,
			"0.025": 0.0
		}
	}
}
