{
	 "smiles": "CCC(C(O)=O)C1=CC=CC=C1C(O)=O", 
	 "Tm": 443.15, 
	 "num_atms": 27, 
	 "gaussian": { 
		 "optdone": 1, 
		 "sigma_profile": "yes", 
		 "theory": "DFT", 
		 "functional": "B3LYP", 
		 "basiset": "6-31G**", 
		 "properties": { 
			 "R2extent": 3476.8464, 
			 "electric_dipole_moment_norm": 3.83261977373, 
			 "electric_quadrupole_moment_norm": 13.429650329, 
			 "total_energy": -727.327480737, 
			 "HOMO_LUMO_gap": 0.20833, 
			 "cosmo_polarized_energy": -18.33, 
			 "cosmo_cavitation_energy": 30.74, 
			 "cosmo_dispersion_energy": -21.15, 
			 "cosmo_repulsion_energy": 1.67, 
			 "cosmo_total_nonelectrostatic_energy": 11.26, 
			 "SMD_solvation_energy": 7.28 
		},
		"coords": [
			{
				"x": 0.2764477237,
				"y": -0.0126750791,
				"z": 2.5725736341,
				"element": "C" 
			},
			{
				"x": 1.1280994846,
				"y": 1.1813693899,
				"z": 2.1344879467,
				"element": "C" 
			},
			{
				"x": 0.9146207746,
				"y": 1.5843548667,
				"z": 0.6559170851,
				"element": "C" 
			},
			{
				"x": 1.6950742943,
				"y": 2.8558297745,
				"z": 0.3467643864,
				"element": "C" 
			},
			{
				"x": 1.0940637002,
				"y": 3.5976670588,
				"z": -0.6084495507,
				"element": "O" 
			},
			{
				"x": 2.7412326115,
				"y": 3.1872750573,
				"z": 0.8665059634,
				"element": "O" 
			},
			{
				"x": 1.3490090477,
				"y": 0.4855970194,
				"z": -0.3185478488,
				"element": "C" 
			},
			{
				"x": 2.7198091503,
				"y": 0.2517576413,
				"z": -0.5023047668,
				"element": "C" 
			},
			{
				"x": 3.1866883554,
				"y": -0.7421246391,
				"z": -1.3604368742,
				"element": "C" 
			},
			{
				"x": 2.2815585457,
				"y": -1.5411372575,
				"z": -2.0580937392,
				"element": "C" 
			},
			{
				"x": 0.9171048576,
				"y": -1.3457117423,
				"z": -1.8681270079,
				"element": "C" 
			},
			{
				"x": 0.4342180448,
				"y": -0.3471438193,
				"z": -1.0025591845,
				"element": "C" 
			},
			{
				"x": -1.0567345357,
				"y": -0.1959967741,
				"z": -0.8629806146,
				"element": "C" 
			},
			{
				"x": -1.7631633113,
				"y": -1.3601161634,
				"z": -0.8955137234,
				"element": "O" 
			},
			{
				"x": -1.648911571,
				"y": 0.8516465283,
				"z": -0.7468940259,
				"element": "O" 
			},
			{
				"x": 0.5272972331,
				"y": -0.9172678383,
				"z": 2.0086467227,
				"element": "H" 
			},
			{
				"x": -0.7917669551,
				"y": 0.1852395397,
				"z": 2.4321487784,
				"element": "H" 
			},
			{
				"x": 0.4384097139,
				"y": -0.2310875036,
				"z": 3.6326508166,
				"element": "H" 
			},
			{
				"x": 2.1909902485,
				"y": 0.976278195,
				"z": 2.2990987944,
				"element": "H" 
			},
			{
				"x": 0.8872104759,
				"y": 2.0504181026,
				"z": 2.757688216,
				"element": "H" 
			},
			{
				"x": -0.1379445964,
				"y": 1.8039564339,
				"z": 0.4773276412,
				"element": "H" 
			},
			{
				"x": 1.6691839597,
				"y": 4.3678320643,
				"z": -0.7564230437,
				"element": "H" 
			},
			{
				"x": 3.4295702578,
				"y": 0.8768064467,
				"z": 0.0310868015,
				"element": "H" 
			},
			{
				"x": 4.2556649069,
				"y": -0.8849099932,
				"z": -1.4885723652,
				"element": "H" 
			},
			{
				"x": 2.6317289705,
				"y": -2.3056536542,
				"z": -2.7446982364,
				"element": "H" 
			},
			{
				"x": 0.211929149,
				"y": -1.9499286308,
				"z": -2.43304339,
				"element": "H" 
			},
			{
				"x": -1.1568905364,
				"y": -2.1125750233,
				"z": -0.8456524154,
				"element": "H" 
			}
		],
		 "valence_orbital": [ 
			{
				"type": "occ",
				"energy": -0.31875,
				"method": "rhf"
			},
			{
				"type": "occ",
				"energy": -0.2818,
				"method": "rhf"
			},
			{
				"type": "occ",
				"energy": -0.27672,
				"method": "rhf"
			},
			{
				"type": "occ",
				"energy": -0.26956,
				"method": "rhf"
			},
			{
				"type": "occ",
				"energy": -0.26046,
				"method": "rhf"
			},
			{
				"type": "unocc",
				"energy": -0.05213,
				"method": "rhf"
			},
			{
				"type": "unocc",
				"energy": -0.02825,
				"method": "rhf"
			},
			{
				"type": "unocc",
				"energy": 0.01001,
				"method": "rhf"
			},
			{
				"type": "unocc",
				"energy": 0.03545,
				"method": "rhf"
			},
			{
				"type": "unocc",
				"energy": 0.06592,
				"method": "rhf"
			}
		],
		"cosmo_sigma_profile": { 
			"-0.025": 0.0,
			"-0.024": 0.0,
			"-0.023": 0.0,
			"-0.022": 0.0,
			"-0.021": 0.0,
			"-0.02": 0.0,
			"-0.019": 0.0351717410968,
			"-0.018": 1.38137579555,
			"-0.017": 2.24096306904,
			"-0.016": 1.07513231331,
			"-0.015": 1.66271870457,
			"-0.014": 1.58465750328,
			"-0.013": 1.80639350644,
			"-0.012": 1.65856853314,
			"-0.011": 2.52043189397,
			"-0.01": 1.63508386973,
			"-0.009": 1.34949368077,
			"-0.008": 2.73937913921,
			"-0.007": 6.35192706711,
			"-0.006": 8.02626985322,
			"-0.005": 12.2224423503,
			"-0.004": 12.2642594384,
			"-0.003": 18.8639512889,
			"-0.002": 21.0690175038,
			"-0.001": 20.9803933622,
			"0.0": 20.3541167724,
			"0.001": 16.9185699677,
			"0.002": 13.8172573897,
			"0.003": 13.3616597052,
			"0.004": 7.95583647219,
			"0.005": 5.79737895042,
			"0.006": 4.47912145911,
			"0.007": 5.33983854607,
			"0.008": 6.3728858934,
			"0.009": 6.41061196101,
			"0.01": 6.80541236977,
			"0.011": 9.03070224526,
			"0.012": 5.97816794935,
			"0.013": 0.889201129405,
			"0.014": 0.0,
			"0.015": 0.0,
			"0.016": 0.0,
			"0.017": 0.0,
			"0.018": 0.0,
			"0.019": 0.0,
			"0.02": 0.0,
			"0.021": 0.0,
			"0.022": 0.0,
			"0.023": 0.0,
			"0.024": 0.0,
			"0.025": 0.0
		}
	}
}
