{
	 "smiles": "CC(C)(C)OC(=O)N1CCCC[C@H]1C(O)=O", 
	 "Tm": 393.15, 
	 "num_atms": 35, 
	 "gaussian": { 
		 "optdone": 1, 
		 "sigma_profile": "yes", 
		 "theory": "DFT", 
		 "functional": "B3LYP", 
		 "basiset": "6-31G**", 
		 "properties": { 
			 "R2extent": 4068.0598, 
			 "electric_dipole_moment_norm": 2.96523162839, 
			 "electric_quadrupole_moment_norm": 22.6146862998, 
			 "total_energy": -786.320659852, 
			 "HOMO_LUMO_gap": 0.25681, 
			 "cosmo_polarized_energy": -14.29, 
			 "cosmo_cavitation_energy": 35.44, 
			 "cosmo_dispersion_energy": -24.15, 
			 "cosmo_repulsion_energy": 1.89, 
			 "cosmo_total_nonelectrostatic_energy": 13.18, 
			 "SMD_solvation_energy": 7.69 
		},
		"coords": [
			{
				"x": 1.454727357,
				"y": -2.768031534,
				"z": -2.3520822964,
				"element": "C" 
			},
			{
				"x": 1.6986973399,
				"y": -1.2583730783,
				"z": -2.436201524,
				"element": "C" 
			},
			{
				"x": 3.1869427255,
				"y": -0.9022454049,
				"z": -2.3718794798,
				"element": "C" 
			},
			{
				"x": 1.0492685208,
				"y": -0.6673121686,
				"z": -3.6893769441,
				"element": "C" 
			},
			{
				"x": 0.9733134732,
				"y": -0.5694681949,
				"z": -1.3477649488,
				"element": "O" 
			},
			{
				"x": 1.2523226751,
				"y": -0.8247677895,
				"z": -0.0517146649,
				"element": "C" 
			},
			{
				"x": 2.0977030425,
				"y": -1.5977430947,
				"z": 0.3666621644,
				"element": "O" 
			},
			{
				"x": 0.4696437925,
				"y": -0.037569803,
				"z": 0.7844521891,
				"element": "N" 
			},
			{
				"x": 0.5932041403,
				"y": -0.3120721473,
				"z": 2.2326671013,
				"element": "C" 
			},
			{
				"x": -0.0706166835,
				"y": 0.8094360892,
				"z": 3.0313811613,
				"element": "C" 
			},
			{
				"x": -1.5824934368,
				"y": 0.9284439731,
				"z": 2.7199630381,
				"element": "C" 
			},
			{
				"x": -1.9209352298,
				"y": 0.3737927248,
				"z": 1.3205077197,
				"element": "C" 
			},
			{
				"x": -0.782048701,
				"y": 0.5906907219,
				"z": 0.310417472,
				"element": "C" 
			},
			{
				"x": -0.6138885432,
				"y": 2.0940352005,
				"z": -0.0022875369,
				"element": "C" 
			},
			{
				"x": 0.6423475386,
				"y": 2.5715250209,
				"z": 0.0740888003,
				"element": "O" 
			},
			{
				"x": -1.5516736809,
				"y": 2.7918928468,
				"z": -0.3063391139,
				"element": "O" 
			},
			{
				"x": 1.8969821758,
				"y": -3.2575080293,
				"z": -3.2256611353,
				"element": "H" 
			},
			{
				"x": 1.8998651957,
				"y": -3.189229005,
				"z": -1.4504269312,
				"element": "H" 
			},
			{
				"x": 0.3809719022,
				"y": -2.9810004207,
				"z": -2.3532380054,
				"element": "H" 
			},
			{
				"x": 3.7000659516,
				"y": -1.3219605778,
				"z": -3.2429744538,
				"element": "H" 
			},
			{
				"x": 3.319558302,
				"y": 0.1841069824,
				"z": -2.3928385173,
				"element": "H" 
			},
			{
				"x": 3.6470372351,
				"y": -1.3005569628,
				"z": -1.4673062974,
				"element": "H" 
			},
			{
				"x": 1.176920264,
				"y": 0.418508099,
				"z": -3.7162843948,
				"element": "H" 
			},
			{
				"x": 1.510779002,
				"y": -1.0932244607,
				"z": -4.5850487379,
				"element": "H" 
			},
			{
				"x": -0.0214958019,
				"y": -0.8899052456,
				"z": -3.7139268068,
				"element": "H" 
			},
			{
				"x": 1.6563683685,
				"y": -0.3944600476,
				"z": 2.4627523389,
				"element": "H" 
			},
			{
				"x": 0.140943582,
				"y": -1.284334477,
				"z": 2.4737895857,
				"element": "H" 
			},
			{
				"x": 0.0947676944,
				"y": 0.6310093138,
				"z": 4.0984922195,
				"element": "H" 
			},
			{
				"x": 0.4361388533,
				"y": 1.7519124253,
				"z": 2.7930969736,
				"element": "H" 
			},
			{
				"x": -1.8870488627,
				"y": 1.9775247041,
				"z": 2.7867847975,
				"element": "H" 
			},
			{
				"x": -2.1696517592,
				"y": 0.3848795558,
				"z": 3.4677125094,
				"element": "H" 
			},
			{
				"x": -2.8188974496,
				"y": 0.8484073669,
				"z": 0.9189180982,
				"element": "H" 
			},
			{
				"x": -2.1167418374,
				"y": -0.7027129497,
				"z": 1.3747435711,
				"element": "H" 
			},
			{
				"x": -1.0568381137,
				"y": 0.1299340388,
				"z": -0.6404723236,
				"element": "H" 
			},
			{
				"x": 1.2080609676,
				"y": 1.8221763281,
				"z": 0.3392943722,
				"element": "H" 
			}
		],
		 "valence_orbital": [ 
			{
				"type": "occ",
				"energy": -0.3091,
				"method": "rhf"
			},
			{
				"type": "occ",
				"energy": -0.30117,
				"method": "rhf"
			},
			{
				"type": "occ",
				"energy": -0.28717,
				"method": "rhf"
			},
			{
				"type": "occ",
				"energy": -0.27752,
				"method": "rhf"
			},
			{
				"type": "occ",
				"energy": -0.24566,
				"method": "rhf"
			},
			{
				"type": "unocc",
				"energy": 0.01115,
				"method": "rhf"
			},
			{
				"type": "unocc",
				"energy": 0.03227,
				"method": "rhf"
			},
			{
				"type": "unocc",
				"energy": 0.06169,
				"method": "rhf"
			},
			{
				"type": "unocc",
				"energy": 0.08217,
				"method": "rhf"
			},
			{
				"type": "unocc",
				"energy": 0.09083,
				"method": "rhf"
			}
		],
		"cosmo_sigma_profile": { 
			"-0.025": 0.0,
			"-0.024": 0.0,
			"-0.023": 0.0,
			"-0.022": 0.0,
			"-0.021": 0.0,
			"-0.02": 0.0,
			"-0.019": 0.0,
			"-0.018": 0.0,
			"-0.017": 0.0,
			"-0.016": 0.0,
			"-0.015": 0.0085766730711,
			"-0.014": 0.620540121654,
			"-0.013": 0.458085922579,
			"-0.012": 0.669681230381,
			"-0.011": 0.977952426957,
			"-0.01": 1.51986009685,
			"-0.009": 1.16852138583,
			"-0.008": 0.684068900366,
			"-0.007": 1.42211636324,
			"-0.006": 3.29833795309,
			"-0.005": 9.92570217631,
			"-0.004": 32.2416179797,
			"-0.003": 39.1585650082,
			"-0.002": 35.3971342329,
			"-0.001": 31.6523441351,
			"0.0": 35.216133337,
			"0.001": 17.8474877506,
			"0.002": 7.56263301469,
			"0.003": 5.47764690043,
			"0.004": 4.00833330448,
			"0.005": 3.95475073314,
			"0.006": 4.44884747022,
			"0.007": 3.96973652776,
			"0.008": 4.45318995988,
			"0.009": 4.17782334356,
			"0.01": 6.8659974788,
			"0.011": 5.62782768426,
			"0.012": 7.84305701536,
			"0.013": 4.32474680592,
			"0.014": 0.175462858608,
			"0.015": 0.0,
			"0.016": 0.0,
			"0.017": 0.0,
			"0.018": 0.0,
			"0.019": 0.0,
			"0.02": 0.0,
			"0.021": 0.0,
			"0.022": 0.0,
			"0.023": 0.0,
			"0.024": 0.0,
			"0.025": 0.0
		}
	}
}
