{
	 "smiles": "CN1CCC(=O)NC1=O", 
	 "Tm": 444.15, 
	 "num_atms": 17, 
	 "gaussian": { 
		 "optdone": 1, 
		 "sigma_profile": "yes", 
		 "theory": "DFT", 
		 "functional": "B3LYP", 
		 "basiset": "6-31G**", 
		 "properties": { 
			 "R2extent": 1603.1879, 
			 "electric_dipole_moment_norm": 3.99413498144, 
			 "electric_quadrupole_moment_norm": 7.05606953551, 
			 "total_energy": -455.344247731, 
			 "HOMO_LUMO_gap": 0.24092, 
			 "cosmo_polarized_energy": -14.01, 
			 "cosmo_cavitation_energy": 20.27, 
			 "cosmo_dispersion_energy": -15.34, 
			 "cosmo_repulsion_energy": 1.27, 
			 "cosmo_total_nonelectrostatic_energy": 6.2, 
			 "SMD_solvation_energy": 4.53 
		},
		"coords": [
			{
				"x": 0.7030092146,
				"y": -0.5646720804,
				"z": 1.6802356653,
				"element": "C" 
			},
			{
				"x": -0.2704150064,
				"y": -0.4845132886,
				"z": 0.5996506229,
				"element": "N" 
			},
			{
				"x": -0.3664152201,
				"y": 0.7726044343,
				"z": -0.1392861966,
				"element": "C" 
			},
			{
				"x": -0.9855021576,
				"y": 0.5435411838,
				"z": -1.5167876919,
				"element": "C" 
			},
			{
				"x": -2.2770239743,
				"y": -0.2492603865,
				"z": -1.4310203154,
				"element": "C" 
			},
			{
				"x": -3.1826898284,
				"y": -0.1811960292,
				"z": -2.2398870922,
				"element": "O" 
			},
			{
				"x": -2.3267178087,
				"y": -1.1089407798,
				"z": -0.3443847272,
				"element": "N" 
			},
			{
				"x": -1.3363663702,
				"y": -1.3513151345,
				"z": 0.629373986,
				"element": "C" 
			},
			{
				"x": -1.4605972192,
				"y": -2.2827324395,
				"z": 1.4099950031,
				"element": "O" 
			},
			{
				"x": 0.4962647121,
				"y": 0.1737876447,
				"z": 2.4672742904,
				"element": "H" 
			},
			{
				"x": 0.6531761048,
				"y": -1.5614973884,
				"z": 2.1154693322,
				"element": "H" 
			},
			{
				"x": 1.707825778,
				"y": -0.3836347845,
				"z": 1.2856235986,
				"element": "H" 
			},
			{
				"x": 0.6436852983,
				"y": 1.178651046,
				"z": -0.2453780746,
				"element": "H" 
			},
			{
				"x": -0.95475192,
				"y": 1.5129766743,
				"z": 0.4261833217,
				"element": "H" 
			},
			{
				"x": -1.1970550802,
				"y": 1.4864134776,
				"z": -2.0251482172,
				"element": "H" 
			},
			{
				"x": -0.2934376049,
				"y": -0.027610121,
				"z": -2.1485269342,
				"element": "H" 
			},
			{
				"x": -3.1224889175,
				"y": -1.7333020283,
				"z": -0.291086571,
				"element": "H" 
			}
		],
		 "valence_orbital": [ 
			{
				"type": "occ",
				"energy": -0.3647,
				"method": "rhf"
			},
			{
				"type": "occ",
				"energy": -0.28691,
				"method": "rhf"
			},
			{
				"type": "occ",
				"energy": -0.27951,
				"method": "rhf"
			},
			{
				"type": "occ",
				"energy": -0.26181,
				"method": "rhf"
			},
			{
				"type": "occ",
				"energy": -0.25337,
				"method": "rhf"
			},
			{
				"type": "unocc",
				"energy": -0.01245,
				"method": "rhf"
			},
			{
				"type": "unocc",
				"energy": 0.05142,
				"method": "rhf"
			},
			{
				"type": "unocc",
				"energy": 0.08175,
				"method": "rhf"
			},
			{
				"type": "unocc",
				"energy": 0.10198,
				"method": "rhf"
			},
			{
				"type": "unocc",
				"energy": 0.11191,
				"method": "rhf"
			}
		],
		"cosmo_sigma_profile": { 
			"-0.025": 0.0,
			"-0.024": 0.0,
			"-0.023": 0.0,
			"-0.022": 0.0,
			"-0.021": 0.0,
			"-0.02": 0.0,
			"-0.019": 0.0,
			"-0.018": 0.0,
			"-0.017": 0.0,
			"-0.016": 0.000534156780688,
			"-0.015": 0.608476786161,
			"-0.014": 1.0065250429,
			"-0.013": 0.400130893468,
			"-0.012": 1.09412414127,
			"-0.011": 0.63208777511,
			"-0.01": 0.377950251187,
			"-0.009": 0.941757606491,
			"-0.008": 0.898733059465,
			"-0.007": 5.0637284045,
			"-0.006": 14.1939609346,
			"-0.005": 18.947080704,
			"-0.004": 17.7058028839,
			"-0.003": 16.2176156952,
			"-0.002": 13.382324826,
			"-0.001": 7.91276600986,
			"0.0": 7.1636623851,
			"0.001": 3.83788371085,
			"0.002": 3.71785070572,
			"0.003": 3.2864958063,
			"0.004": 3.16144475486,
			"0.005": 3.30707233696,
			"0.006": 2.77893102929,
			"0.007": 2.26221417858,
			"0.008": 2.10539483822,
			"0.009": 2.40580459507,
			"0.01": 3.16455567322,
			"0.011": 4.19329481165,
			"0.012": 7.59777265312,
			"0.013": 9.41099698327,
			"0.014": 1.70603659097,
			"0.015": 0.0,
			"0.016": 0.0,
			"0.017": 0.0,
			"0.018": 0.0,
			"0.019": 0.0,
			"0.02": 0.0,
			"0.021": 0.0,
			"0.022": 0.0,
			"0.023": 0.0,
			"0.024": 0.0,
			"0.025": 0.0
		}
	}
}
