{
	 "smiles": "CC(C)COC(=O)NC1=CC2=NN(N=C2C=C1)C1CCCC1", 
	 "Tm": 394.15, 
	 "num_atms": 44, 
	 "gaussian": { 
		 "optdone": 1, 
		 "sigma_profile": "yes", 
		 "theory": "DFT", 
		 "functional": "B3LYP", 
		 "basiset": "6-31G**", 
		 "properties": { 
			 "R2extent": 12773.4729, 
			 "electric_dipole_moment_norm": 1.66733463348, 
			 "electric_quadrupole_moment_norm": 23.5699109502, 
			 "total_energy": -992.434409519, 
			 "HOMO_LUMO_gap": 0.16778, 
			 "cosmo_polarized_energy": -14.23, 
			 "cosmo_cavitation_energy": 46.28, 
			 "cosmo_dispersion_energy": -33.3, 
			 "cosmo_repulsion_energy": 2.57, 
			 "cosmo_total_nonelectrostatic_energy": 15.55, 
			 "SMD_solvation_energy": 5.96 
		},
		"coords": [
			{
				"x": -0.4038352385,
				"y": -6.5992939486,
				"z": -1.8911219641,
				"element": "C" 
			},
			{
				"x": 0.2211079568,
				"y": -5.6542770864,
				"z": -2.9283632221,
				"element": "C" 
			},
			{
				"x": 1.7508486546,
				"y": -5.7866883303,
				"z": -2.9708729346,
				"element": "C" 
			},
			{
				"x": -0.2175600657,
				"y": -4.2063657871,
				"z": -2.7145070293,
				"element": "C" 
			},
			{
				"x": 0.2632601444,
				"y": -3.7685812673,
				"z": -1.4248657372,
				"element": "O" 
			},
			{
				"x": -0.0424459162,
				"y": -2.4853531146,
				"z": -1.0952773893,
				"element": "C" 
			},
			{
				"x": -0.6726580526,
				"y": -1.7240067935,
				"z": -1.8041635388,
				"element": "O" 
			},
			{
				"x": 0.4763573013,
				"y": -2.2176450467,
				"z": 0.147247761,
				"element": "N" 
			},
			{
				"x": 0.4015085471,
				"y": -1.0158096818,
				"z": 0.8790203592,
				"element": "C" 
			},
			{
				"x": -0.2420918074,
				"y": 0.1188275724,
				"z": 0.4147065229,
				"element": "C" 
			},
			{
				"x": -0.2278480828,
				"y": 1.2432342253,
				"z": 1.2693901515,
				"element": "C" 
			},
			{
				"x": -0.7637963091,
				"y": 2.4740618678,
				"z": 1.0903862104,
				"element": "N" 
			},
			{
				"x": -0.436096076,
				"y": 3.1082962846,
				"z": 2.2135817806,
				"element": "N" 
			},
			{
				"x": 0.2573492919,
				"y": 2.4341040628,
				"z": 3.1233336364,
				"element": "N" 
			},
			{
				"x": 0.4113766258,
				"y": 1.2216445875,
				"z": 2.5420496536,
				"element": "C" 
			},
			{
				"x": 1.0628432525,
				"y": 0.053435358,
				"z": 2.9960127317,
				"element": "C" 
			},
			{
				"x": 1.0462582529,
				"y": -1.0382418149,
				"z": 2.1615712137,
				"element": "C" 
			},
			{
				"x": -0.8498151402,
				"y": 4.4957101826,
				"z": 2.4544868304,
				"element": "C" 
			},
			{
				"x": -2.3977807038,
				"y": 4.6588982568,
				"z": 2.4330961006,
				"element": "C" 
			},
			{
				"x": -2.7103674166,
				"y": 5.4011207385,
				"z": 1.1227865151,
				"element": "C" 
			},
			{
				"x": -1.5053699046,
				"y": 6.3413021323,
				"z": 0.9599439696,
				"element": "C" 
			},
			{
				"x": -0.30670613,
				"y": 5.4590776608,
				"z": 1.3586073551,
				"element": "C" 
			},
			{
				"x": -1.4973030447,
				"y": -6.532669934,
				"z": -1.8985147644,
				"element": "H" 
			},
			{
				"x": -0.059968843,
				"y": -6.3524829057,
				"z": -0.8818742691,
				"element": "H" 
			},
			{
				"x": -0.1294042544,
				"y": -7.6389864717,
				"z": -2.0964422002,
				"element": "H" 
			},
			{
				"x": -0.1726489189,
				"y": -5.9261983855,
				"z": -3.9186636599,
				"element": "H" 
			},
			{
				"x": 2.1934614906,
				"y": -5.5017761641,
				"z": -2.0113686631,
				"element": "H" 
			},
			{
				"x": 2.046528744,
				"y": -6.8185427671,
				"z": -3.185970507,
				"element": "H" 
			},
			{
				"x": 2.1854950047,
				"y": -5.1443630816,
				"z": -3.7445973386,
				"element": "H" 
			},
			{
				"x": -1.3083363092,
				"y": -4.1109338331,
				"z": -2.7355876289,
				"element": "H" 
			},
			{
				"x": 0.190567487,
				"y": -3.5456007923,
				"z": -3.4864760336,
				"element": "H" 
			},
			{
				"x": 0.9702605607,
				"y": -2.9859167391,
				"z": 0.5767851674,
				"element": "H" 
			},
			{
				"x": -0.7268498687,
				"y": 0.1355513417,
				"z": -0.5504949888,
				"element": "H" 
			},
			{
				"x": 1.5541086492,
				"y": 0.021556732,
				"z": 3.962431172,
				"element": "H" 
			},
			{
				"x": 1.5364288164,
				"y": -1.9569981417,
				"z": 2.4752147526,
				"element": "H" 
			},
			{
				"x": -0.4383439315,
				"y": 4.7179238432,
				"z": 3.4390435396,
				"element": "H" 
			},
			{
				"x": -2.6927081197,
				"y": 5.2732737937,
				"z": 3.2915165221,
				"element": "H" 
			},
			{
				"x": -2.906513802,
				"y": 3.6967234729,
				"z": 2.5258322722,
				"element": "H" 
			},
			{
				"x": -2.740414699,
				"y": 4.6873636161,
				"z": 0.2921226249,
				"element": "H" 
			},
			{
				"x": -3.6702520181,
				"y": 5.9259819215,
				"z": 1.1520053079,
				"element": "H" 
			},
			{
				"x": -1.5998055953,
				"y": 7.1926992088,
				"z": 1.6464188055,
				"element": "H" 
			},
			{
				"x": -1.4044199148,
				"y": 6.7476632825,
				"z": -0.0510115482,
				"element": "H" 
			},
			{
				"x": 0.5573511099,
				"y": 6.0297509815,
				"z": 1.7102508568,
				"element": "H" 
			},
			{
				"x": 0.0140282731,
				"y": 4.8607309636,
				"z": 0.5015316044,
				"element": "H" 
			}
		],
		 "valence_orbital": [ 
			{
				"type": "occ",
				"energy": -0.29194,
				"method": "rhf"
			},
			{
				"type": "occ",
				"energy": -0.28668,
				"method": "rhf"
			},
			{
				"type": "occ",
				"energy": -0.27452,
				"method": "rhf"
			},
			{
				"type": "occ",
				"energy": -0.23344,
				"method": "rhf"
			},
			{
				"type": "occ",
				"energy": -0.20856,
				"method": "rhf"
			},
			{
				"type": "unocc",
				"energy": -0.04078,
				"method": "rhf"
			},
			{
				"type": "unocc",
				"energy": 0.01814,
				"method": "rhf"
			},
			{
				"type": "unocc",
				"energy": 0.03578,
				"method": "rhf"
			},
			{
				"type": "unocc",
				"energy": 0.0713,
				"method": "rhf"
			},
			{
				"type": "unocc",
				"energy": 0.07563,
				"method": "rhf"
			}
		],
		"cosmo_sigma_profile": { 
			"-0.025": 0.0,
			"-0.024": 0.0,
			"-0.023": 0.0,
			"-0.022": 0.0,
			"-0.021": 0.0,
			"-0.02": 0.0,
			"-0.019": 0.0,
			"-0.018": 0.0,
			"-0.017": 0.0,
			"-0.016": 0.0188525104978,
			"-0.015": 0.900383468537,
			"-0.014": 1.23407802851,
			"-0.013": 1.6037634394,
			"-0.012": 0.542549020153,
			"-0.011": 0.971492769422,
			"-0.01": 1.58942972261,
			"-0.009": 1.18503645554,
			"-0.008": 1.71058505264,
			"-0.007": 3.73269789036,
			"-0.006": 5.14959870438,
			"-0.005": 9.71812594908,
			"-0.004": 22.9913545863,
			"-0.003": 39.0446709693,
			"-0.002": 42.7005513527,
			"-0.001": 46.8116670997,
			"0.0": 40.0963476674,
			"0.001": 39.8863310979,
			"0.002": 24.3718411515,
			"0.003": 24.1534726242,
			"0.004": 15.8924972935,
			"0.005": 6.6259671701,
			"0.006": 5.62899832604,
			"0.007": 4.39763033499,
			"0.008": 3.43071881813,
			"0.009": 3.36252220181,
			"0.01": 4.89507952249,
			"0.011": 2.90425451331,
			"0.012": 5.47024011397,
			"0.013": 1.90798214018,
			"0.014": 0.585122692328,
			"0.015": 0.0,
			"0.016": 0.0,
			"0.017": 0.0,
			"0.018": 0.0,
			"0.019": 0.0,
			"0.02": 0.0,
			"0.021": 0.0,
			"0.022": 0.0,
			"0.023": 0.0,
			"0.024": 0.0,
			"0.025": 0.0
		}
	}
}
