{
	 "smiles": "CCN1C(N)=NC2=C1C=CC=C2", 
	 "Tm": 426.15, 
	 "num_atms": 23, 
	 "gaussian": { 
		 "optdone": 1, 
		 "sigma_profile": "yes", 
		 "theory": "DFT", 
		 "functional": "B3LYP", 
		 "basiset": "6-31G**", 
		 "properties": { 
			 "R2extent": 2574.6011, 
			 "electric_dipole_moment_norm": 4.09553488326, 
			 "electric_quadrupole_moment_norm": 10.4464302534, 
			 "total_energy": -513.864273433, 
			 "HOMO_LUMO_gap": 0.20238, 
			 "cosmo_polarized_energy": -14.43, 
			 "cosmo_cavitation_energy": 26.09, 
			 "cosmo_dispersion_energy": -19.12, 
			 "cosmo_repulsion_energy": 1.52, 
			 "cosmo_total_nonelectrostatic_energy": 8.48, 
			 "SMD_solvation_energy": 2.22 
		},
		"coords": [
			{
				"x": 0.8381412698,
				"y": 1.3885673646,
				"z": -0.7707359589,
				"element": "C" 
			},
			{
				"x": 0.9003892078,
				"y": -0.1400045548,
				"z": -0.840597909,
				"element": "C" 
			},
			{
				"x": 0.2092396503,
				"y": -0.7928406488,
				"z": 0.2632434007,
				"element": "N" 
			},
			{
				"x": 0.6788833922,
				"y": -0.977434144,
				"z": 1.5519400633,
				"element": "C" 
			},
			{
				"x": 1.9764010422,
				"y": -0.6294331578,
				"z": 1.8968938951,
				"element": "N" 
			},
			{
				"x": -0.2165400315,
				"y": -1.4325604034,
				"z": 2.3952295846,
				"element": "N" 
			},
			{
				"x": -1.3788872686,
				"y": -1.5435260479,
				"z": 1.6414284863,
				"element": "C" 
			},
			{
				"x": -1.1410134924,
				"y": -1.1468344228,
				"z": 0.3029837841,
				"element": "C" 
			},
			{
				"x": -2.1343277505,
				"y": -1.1659287974,
				"z": -0.6730828514,
				"element": "C" 
			},
			{
				"x": -3.401705974,
				"y": -1.6012794704,
				"z": -0.2772759284,
				"element": "C" 
			},
			{
				"x": -3.6548230383,
				"y": -2.0026295792,
				"z": 1.0454616921,
				"element": "C" 
			},
			{
				"x": -2.652905822,
				"y": -1.979780148,
				"z": 2.0159977525,
				"element": "C" 
			},
			{
				"x": -0.2000297387,
				"y": 1.7324169266,
				"z": -0.7821740132,
				"element": "H" 
			},
			{
				"x": 1.3582640932,
				"y": 1.8303100822,
				"z": -1.6270071372,
				"element": "H" 
			},
			{
				"x": 1.3106300818,
				"y": 1.7493196861,
				"z": 0.1468908286,
				"element": "H" 
			},
			{
				"x": 0.4507546655,
				"y": -0.5065133911,
				"z": -1.7684136778,
				"element": "H" 
			},
			{
				"x": 1.9421169717,
				"y": -0.4796910637,
				"z": -0.8537020879,
				"element": "H" 
			},
			{
				"x": 2.690782795,
				"y": -0.9352920045,
				"z": 1.2468189659,
				"element": "H" 
			},
			{
				"x": 2.1799780971,
				"y": -0.9353838731,
				"z": 2.8406596348,
				"element": "H" 
			},
			{
				"x": -1.9453837233,
				"y": -0.8538012824,
				"z": -1.6961758816,
				"element": "H" 
			},
			{
				"x": -4.2053897367,
				"y": -1.6271576733,
				"z": -1.0072414783,
				"element": "H" 
			},
			{
				"x": -4.6526554206,
				"y": -2.3359782687,
				"z": 1.3158046034,
				"element": "H" 
			},
			{
				"x": -2.84471927,
				"y": -2.2886451281,
				"z": 3.0386542324,
				"element": "H" 
			}
		],
		 "valence_orbital": [ 
			{
				"type": "occ",
				"energy": -0.29331,
				"method": "rhf"
			},
			{
				"type": "occ",
				"energy": -0.28073,
				"method": "rhf"
			},
			{
				"type": "occ",
				"energy": -0.26215,
				"method": "rhf"
			},
			{
				"type": "occ",
				"energy": -0.2126,
				"method": "rhf"
			},
			{
				"type": "occ",
				"energy": -0.19694,
				"method": "rhf"
			},
			{
				"type": "unocc",
				"energy": 0.00544,
				"method": "rhf"
			},
			{
				"type": "unocc",
				"energy": 0.03226,
				"method": "rhf"
			},
			{
				"type": "unocc",
				"energy": 0.05609,
				"method": "rhf"
			},
			{
				"type": "unocc",
				"energy": 0.07172,
				"method": "rhf"
			},
			{
				"type": "unocc",
				"energy": 0.09663,
				"method": "rhf"
			}
		],
		"cosmo_sigma_profile": { 
			"-0.025": 0.0,
			"-0.024": 0.0,
			"-0.023": 0.0,
			"-0.022": 0.0,
			"-0.021": 0.0,
			"-0.02": 0.0,
			"-0.019": 0.0,
			"-0.018": 0.0,
			"-0.017": 0.0,
			"-0.016": 0.0,
			"-0.015": 0.0,
			"-0.014": 0.61141622353,
			"-0.013": 2.59580539389,
			"-0.012": 2.69452255827,
			"-0.011": 3.16485297132,
			"-0.01": 3.02116447754,
			"-0.009": 2.00479091569,
			"-0.008": 2.2353159719,
			"-0.007": 4.21294018979,
			"-0.006": 7.06493800869,
			"-0.005": 10.3755313187,
			"-0.004": 14.9981087347,
			"-0.003": 20.3725810656,
			"-0.002": 16.5339509979,
			"-0.001": 14.4387079702,
			"0.0": 16.1158295569,
			"0.001": 11.6332739613,
			"0.002": 8.72397809409,
			"0.003": 9.36742708452,
			"0.004": 9.69663053057,
			"0.005": 10.5419393232,
			"0.006": 11.0466481599,
			"0.007": 9.51291437025,
			"0.008": 3.20367834885,
			"0.009": 1.58678852086,
			"0.01": 2.00903153359,
			"0.011": 1.56592335476,
			"0.012": 1.85515321968,
			"0.013": 1.01495244909,
			"0.014": 1.04510161774,
			"0.015": 0.997235839849,
			"0.016": 0.815422302934,
			"0.017": 1.09341227255,
			"0.018": 0.577230547773,
			"0.019": 0.0,
			"0.02": 0.0,
			"0.021": 0.0,
			"0.022": 0.0,
			"0.023": 0.0,
			"0.024": 0.0,
			"0.025": 0.0
		}
	}
}
