{
	 "smiles": "CS(=O)C1=C(F)C=C(N)C=C1", 
	 "Tm": 383.15, 
	 "num_atms": 19, 
	 "gaussian": { 
		 "optdone": 1, 
		 "sigma_profile": "yes", 
		 "theory": "DFT", 
		 "functional": "B3LYP", 
		 "basiset": "6-31G**", 
		 "properties": { 
			 "R2extent": 2590.0423, 
			 "electric_dipole_moment_norm": 5.3658903921, 
			 "electric_quadrupole_moment_norm": 11.2926152764, 
			 "total_energy": -899.515689337, 
			 "HOMO_LUMO_gap": 0.1991, 
			 "cosmo_polarized_energy": -15.3, 
			 "cosmo_cavitation_energy": 24.59, 
			 "cosmo_dispersion_energy": -18.57, 
			 "cosmo_repulsion_energy": 1.42, 
			 "cosmo_total_nonelectrostatic_energy": 7.45, 
			 "SMD_solvation_energy": 4.56 
		},
		"coords": [
			{
				"x": -1.7570296892,
				"y": 3.0557380176,
				"z": 1.8977464411,
				"element": "C" 
			},
			{
				"x": -0.161498491,
				"y": 2.7184397371,
				"z": 1.0515208442,
				"element": "S" 
			},
			{
				"x": 0.9306556969,
				"y": 2.7842064994,
				"z": 2.09761838,
				"element": "O" 
			},
			{
				"x": -0.4504899397,
				"y": 0.950619576,
				"z": 0.7397779377,
				"element": "C" 
			},
			{
				"x": -1.3831009395,
				"y": 0.4920049939,
				"z": -0.1848110207,
				"element": "C" 
			},
			{
				"x": -2.1752935045,
				"y": 1.3956286263,
				"z": -0.8135908361,
				"element": "F" 
			},
			{
				"x": -1.5503915684,
				"y": -0.8515243071,
				"z": -0.4733803101,
				"element": "C" 
			},
			{
				"x": -0.7365209205,
				"y": -1.7973240557,
				"z": 0.1789830066,
				"element": "C" 
			},
			{
				"x": -0.839999848,
				"y": -3.1453952778,
				"z": -0.1345831106,
				"element": "N" 
			},
			{
				"x": 0.2195474787,
				"y": -1.3459299218,
				"z": 1.1105924758,
				"element": "C" 
			},
			{
				"x": 0.3591200587,
				"y": 0.0110598577,
				"z": 1.378540902,
				"element": "C" 
			},
			{
				"x": -2.5717896074,
				"y": 2.8541723852,
				"z": 1.1993343852,
				"element": "H" 
			},
			{
				"x": -1.8285061072,
				"y": 2.4233845174,
				"z": 2.7849901511,
				"element": "H" 
			},
			{
				"x": -1.7516055556,
				"y": 4.1097629447,
				"z": 2.1838238908,
				"element": "H" 
			},
			{
				"x": -2.2979763744,
				"y": -1.1507429268,
				"z": -1.2010007051,
				"element": "H" 
			},
			{
				"x": -0.4818544186,
				"y": -3.7901860163,
				"z": 0.5549310438,
				"element": "H" 
			},
			{
				"x": -1.7140757078,
				"y": -3.4470301316,
				"z": -0.5399173486,
				"element": "H" 
			},
			{
				"x": 0.858231985,
				"y": -2.0673918632,
				"z": 1.612720231,
				"element": "H" 
			},
			{
				"x": 1.0972774523,
				"y": 0.3789073451,
				"z": 2.0859036417,
				"element": "H" 
			}
		],
		 "valence_orbital": [ 
			{
				"type": "occ",
				"energy": -0.31769,
				"method": "rhf"
			},
			{
				"type": "occ",
				"energy": -0.26296,
				"method": "rhf"
			},
			{
				"type": "occ",
				"energy": -0.25616,
				"method": "rhf"
			},
			{
				"type": "occ",
				"energy": -0.23232,
				"method": "rhf"
			},
			{
				"type": "occ",
				"energy": -0.20968,
				"method": "rhf"
			},
			{
				"type": "unocc",
				"energy": -0.01058,
				"method": "rhf"
			},
			{
				"type": "unocc",
				"energy": -0.00555,
				"method": "rhf"
			},
			{
				"type": "unocc",
				"energy": 0.04854,
				"method": "rhf"
			},
			{
				"type": "unocc",
				"energy": 0.05116,
				"method": "rhf"
			},
			{
				"type": "unocc",
				"energy": 0.06793,
				"method": "rhf"
			}
		],
		"cosmo_sigma_profile": { 
			"-0.025": 0.0,
			"-0.024": 0.0,
			"-0.023": 0.0,
			"-0.022": 0.0,
			"-0.021": 0.0,
			"-0.02": 0.0,
			"-0.019": 0.0,
			"-0.018": 0.0,
			"-0.017": 0.0,
			"-0.016": 0.0,
			"-0.015": 0.0,
			"-0.014": 0.124337494291,
			"-0.013": 2.30501238637,
			"-0.012": 3.06580710419,
			"-0.011": 2.56952654195,
			"-0.01": 3.61855782804,
			"-0.009": 3.05057182494,
			"-0.008": 4.05290734658,
			"-0.007": 6.98463803526,
			"-0.006": 9.06535656901,
			"-0.005": 10.335916789,
			"-0.004": 11.9652585478,
			"-0.003": 12.9181850207,
			"-0.002": 12.4311364493,
			"-0.001": 12.2868233747,
			"0.0": 11.9377001345,
			"0.001": 12.9967860795,
			"0.002": 14.1065275486,
			"0.003": 16.4478727752,
			"0.004": 15.5170511567,
			"0.005": 5.71727986719,
			"0.006": 1.97730093066,
			"0.007": 2.61577120388,
			"0.008": 1.48537921284,
			"0.009": 1.46434241157,
			"0.01": 2.58873195419,
			"0.011": 2.04202364545,
			"0.012": 1.96843874259,
			"0.013": 2.94850638169,
			"0.014": 3.53712319771,
			"0.015": 3.96340811385,
			"0.016": 0.806775182691,
			"0.017": 0.0,
			"0.018": 0.0,
			"0.019": 0.0,
			"0.02": 0.0,
			"0.021": 0.0,
			"0.022": 0.0,
			"0.023": 0.0,
			"0.024": 0.0,
			"0.025": 0.0
		}
	}
}
