{
	 "smiles": "OCCN1C(=O)C2=C(C=NC=C2)C1=O", 
	 "Tm": 380.15, 
	 "num_atms": 22, 
	 "gaussian": { 
		 "optdone": 1, 
		 "sigma_profile": "yes", 
		 "theory": "DFT", 
		 "functional": "B3LYP", 
		 "basiset": "6-31G**", 
		 "properties": { 
			 "R2extent": 3131.7112, 
			 "electric_dipole_moment_norm": 3.04739964068, 
			 "electric_quadrupole_moment_norm": 6.38231573647, 
			 "total_energy": -682.964983187, 
			 "HOMO_LUMO_gap": 0.15383, 
			 "cosmo_polarized_energy": -13.17, 
			 "cosmo_cavitation_energy": 26.53, 
			 "cosmo_dispersion_energy": -19.64, 
			 "cosmo_repulsion_energy": 1.52, 
			 "cosmo_total_nonelectrostatic_energy": 8.41, 
			 "SMD_solvation_energy": 4.07 
		},
		"coords": [
			{
				"x": 2.4989797946,
				"y": -1.3504128151,
				"z": 3.4691938507,
				"element": "O" 
			},
			{
				"x": 2.4390902187,
				"y": 0.0314756944,
				"z": 3.2114752243,
				"element": "C" 
			},
			{
				"x": 1.0111852842,
				"y": 0.5989018229,
				"z": 3.1720704477,
				"element": "C" 
			},
			{
				"x": 0.3307687038,
				"y": 0.4682291087,
				"z": 1.8772777386,
				"element": "N" 
			},
			{
				"x": -0.2798912061,
				"y": 1.5687381426,
				"z": 1.2401900417,
				"element": "C" 
			},
			{
				"x": -0.2719985538,
				"y": 2.7115555518,
				"z": 1.6445694841,
				"element": "O" 
			},
			{
				"x": -0.9156263879,
				"y": 1.016291878,
				"z": 0.0025096506,
				"element": "C" 
			},
			{
				"x": -0.6688326097,
				"y": -0.3542620325,
				"z": -0.0344369095,
				"element": "C" 
			},
			{
				"x": -1.153419607,
				"y": -1.1145114017,
				"z": -1.0902697418,
				"element": "C" 
			},
			{
				"x": -1.8638368249,
				"y": -0.5487589836,
				"z": -2.079852422,
				"element": "N" 
			},
			{
				"x": -2.093607873,
				"y": 0.7708766949,
				"z": -2.029092139,
				"element": "C" 
			},
			{
				"x": -1.6428156032,
				"y": 1.6219970642,
				"z": -1.0062616002,
				"element": "C" 
			},
			{
				"x": 0.1373290527,
				"y": -0.7197026723,
				"z": 1.1633404364,
				"element": "C" 
			},
			{
				"x": 0.5647689247,
				"y": -1.8209273661,
				"z": 1.471705785,
				"element": "O" 
			},
			{
				"x": 1.9491964807,
				"y": -1.7923260107,
				"z": 2.8001050764,
				"element": "H" 
			},
			{
				"x": 2.9627101071,
				"y": 0.3164992373,
				"z": 2.2828883759,
				"element": "H" 
			},
			{
				"x": 2.963716374,
				"y": 0.5220510142,
				"z": 4.0388268521,
				"element": "H" 
			},
			{
				"x": 0.4153927028,
				"y": 0.1023575776,
				"z": 3.9459981089,
				"element": "H" 
			},
			{
				"x": 1.0165799361,
				"y": 1.6727233881,
				"z": 3.3757145753,
				"element": "H" 
			},
			{
				"x": -0.977407077,
				"y": -2.1854623052,
				"z": -1.1514632606,
				"element": "H" 
			},
			{
				"x": -2.6731651306,
				"y": 1.1791586706,
				"z": -2.8544879195,
				"element": "H" 
			},
			{
				"x": -1.854216706,
				"y": 2.685707742,
				"z": -1.0110016552,
				"element": "H" 
			}
		],
		 "valence_orbital": [ 
			{
				"type": "occ",
				"energy": -0.30164,
				"method": "rhf"
			},
			{
				"type": "occ",
				"energy": -0.29794,
				"method": "rhf"
			},
			{
				"type": "occ",
				"energy": -0.28914,
				"method": "rhf"
			},
			{
				"type": "occ",
				"energy": -0.27935,
				"method": "rhf"
			},
			{
				"type": "occ",
				"energy": -0.26101,
				"method": "rhf"
			},
			{
				"type": "unocc",
				"energy": -0.10718,
				"method": "rhf"
			},
			{
				"type": "unocc",
				"energy": -0.06383,
				"method": "rhf"
			},
			{
				"type": "unocc",
				"energy": 0.00162,
				"method": "rhf"
			},
			{
				"type": "unocc",
				"energy": 0.05188,
				"method": "rhf"
			},
			{
				"type": "unocc",
				"energy": 0.09172,
				"method": "rhf"
			}
		],
		"cosmo_sigma_profile": { 
			"-0.025": 0.0,
			"-0.024": 0.0,
			"-0.023": 0.0,
			"-0.022": 0.0,
			"-0.021": 0.0,
			"-0.02": 0.0,
			"-0.019": 0.0,
			"-0.018": 0.0,
			"-0.017": 0.0,
			"-0.016": 0.0,
			"-0.015": 0.0,
			"-0.014": 0.0,
			"-0.013": 0.0,
			"-0.012": 0.0,
			"-0.011": 0.0,
			"-0.01": 0.00779759791076,
			"-0.009": 1.56053827144,
			"-0.008": 6.39137534983,
			"-0.007": 9.35038059582,
			"-0.006": 13.36355208,
			"-0.005": 21.563357862,
			"-0.004": 19.3355816451,
			"-0.003": 19.2789645381,
			"-0.002": 20.0935713701,
			"-0.001": 16.1159846712,
			"0.0": 12.6528812537,
			"0.001": 6.66227835083,
			"0.002": 6.44969732192,
			"0.003": 6.2723606187,
			"0.004": 4.40931362171,
			"0.005": 4.21616672867,
			"0.006": 6.52105271113,
			"0.007": 5.58747040046,
			"0.008": 4.47028395038,
			"0.009": 5.77579099566,
			"0.01": 8.26881704507,
			"0.011": 4.60780814623,
			"0.012": 2.14532041085,
			"0.013": 2.78274659611,
			"0.014": 2.60080730397,
			"0.015": 2.1684738788,
			"0.016": 0.0579445331884,
			"0.017": 0.0,
			"0.018": 0.0,
			"0.019": 0.0,
			"0.02": 0.0,
			"0.021": 0.0,
			"0.022": 0.0,
			"0.023": 0.0,
			"0.024": 0.0,
			"0.025": 0.0
		}
	}
}
