{
	 "smiles": "SC(=S)N1CCNCC1", 
	 "Tm": 501.15, 
	 "num_atms": 19, 
	 "gaussian": { 
		 "optdone": 1, 
		 "sigma_profile": "yes", 
		 "theory": "DFT", 
		 "functional": "B3LYP", 
		 "basiset": "6-31G**", 
		 "properties": { 
			 "R2extent": 1898.2785, 
			 "electric_dipole_moment_norm": 6.00938468148, 
			 "electric_quadrupole_moment_norm": 10.0573380509, 
			 "total_energy": -1102.41341461, 
			 "HOMO_LUMO_gap": 0.17739, 
			 "cosmo_polarized_energy": -17.02, 
			 "cosmo_cavitation_energy": 23.82, 
			 "cosmo_dispersion_energy": -18.92, 
			 "cosmo_repulsion_energy": 1.46, 
			 "cosmo_total_nonelectrostatic_energy": 6.35, 
			 "SMD_solvation_energy": -0.77 
		},
		"coords": [
			{
				"x": -1.3357157146,
				"y": -1.6329841705,
				"z": -1.761989556,
				"element": "S" 
			},
			{
				"x": -1.2471851734,
				"y": -0.1557027552,
				"z": -0.7520597622,
				"element": "C" 
			},
			{
				"x": -2.5638379637,
				"y": 0.864572284,
				"z": -0.8737943688,
				"element": "S" 
			},
			{
				"x": -0.1688670192,
				"y": 0.0463501714,
				"z": 0.0410456579,
				"element": "N" 
			},
			{
				"x": 0.8414998148,
				"y": -0.9829151396,
				"z": 0.3508843826,
				"element": "C" 
			},
			{
				"x": 1.5149311875,
				"y": -0.6606122725,
				"z": 1.6923891219,
				"element": "C" 
			},
			{
				"x": 2.1496247696,
				"y": 0.6557049559,
				"z": 1.74499708,
				"element": "N" 
			},
			{
				"x": 1.4593670922,
				"y": 1.6709382261,
				"z": 0.9325741507,
				"element": "C" 
			},
			{
				"x": -0.0178246004,
				"y": 1.3304849849,
				"z": 0.7555641202,
				"element": "C" 
			},
			{
				"x": -0.050280168,
				"y": -2.0534684759,
				"z": -1.7295728198,
				"element": "H" 
			},
			{
				"x": 0.3509679903,
				"y": -1.9585489378,
				"z": 0.4156031609,
				"element": "H" 
			},
			{
				"x": 1.5971022798,
				"y": -1.032742569,
				"z": -0.4474971669,
				"element": "H" 
			},
			{
				"x": 0.7575142614,
				"y": -0.7383721367,
				"z": 2.4832016827,
				"element": "H" 
			},
			{
				"x": 2.2637898293,
				"y": -1.4293716952,
				"z": 1.9049301301,
				"element": "H" 
			},
			{
				"x": 3.1206714568,
				"y": 0.5888358855,
				"z": 1.4611572067,
				"element": "H" 
			},
			{
				"x": 1.905741169,
				"y": 1.7842818998,
				"z": -0.0683390768,
				"element": "H" 
			},
			{
				"x": 1.5268122509,
				"y": 2.6496240188,
				"z": 1.4238381861,
				"element": "H" 
			},
			{
				"x": -0.5302232389,
				"y": 1.2828442773,
				"z": 1.7245389045,
				"element": "H" 
			},
			{
				"x": -0.5195882233,
				"y": 2.0995814484,
				"z": 0.1678289661,
				"element": "H" 
			}
		],
		 "valence_orbital": [ 
			{
				"type": "occ",
				"energy": -0.34236,
				"method": "rhf"
			},
			{
				"type": "occ",
				"energy": -0.26535,
				"method": "rhf"
			},
			{
				"type": "occ",
				"energy": -0.23612,
				"method": "rhf"
			},
			{
				"type": "occ",
				"energy": -0.22387,
				"method": "rhf"
			},
			{
				"type": "occ",
				"energy": -0.20893,
				"method": "rhf"
			},
			{
				"type": "unocc",
				"energy": -0.03154,
				"method": "rhf"
			},
			{
				"type": "unocc",
				"energy": 0.01884,
				"method": "rhf"
			},
			{
				"type": "unocc",
				"energy": 0.04413,
				"method": "rhf"
			},
			{
				"type": "unocc",
				"energy": 0.05773,
				"method": "rhf"
			},
			{
				"type": "unocc",
				"energy": 0.08916,
				"method": "rhf"
			}
		],
		"cosmo_sigma_profile": { 
			"-0.025": 0.0,
			"-0.024": 0.0,
			"-0.023": 0.0,
			"-0.022": 0.0,
			"-0.021": 0.0,
			"-0.02": 0.0,
			"-0.019": 0.0,
			"-0.018": 0.0,
			"-0.017": 0.0,
			"-0.016": 0.0,
			"-0.015": 0.0,
			"-0.014": 0.0,
			"-0.013": 0.0,
			"-0.012": 0.0854682270386,
			"-0.011": 2.80283463721,
			"-0.01": 4.35388530965,
			"-0.009": 3.49180936674,
			"-0.008": 4.14115722025,
			"-0.007": 4.79606584774,
			"-0.006": 12.6048031402,
			"-0.005": 19.8735074315,
			"-0.004": 20.8517406836,
			"-0.003": 14.863490222,
			"-0.002": 10.8287702025,
			"-0.001": 8.23333398441,
			"0.0": 5.57517416513,
			"0.001": 5.34838550427,
			"0.002": 5.29063170459,
			"0.003": 7.06000062114,
			"0.004": 8.54856299241,
			"0.005": 8.48450636539,
			"0.006": 7.39216954164,
			"0.007": 7.72478348346,
			"0.008": 7.21297506178,
			"0.009": 8.17952634707,
			"0.01": 5.87073148226,
			"0.011": 3.615908515,
			"0.012": 1.46524292187,
			"0.013": 0.72196684881,
			"0.014": 0.607102974208,
			"0.015": 0.374784647787,
			"0.016": 0.444384463022,
			"0.017": 0.73070162158,
			"0.018": 0.0859519457365,
			"0.019": 0.0,
			"0.02": 0.0,
			"0.021": 0.0,
			"0.022": 0.0,
			"0.023": 0.0,
			"0.024": 0.0,
			"0.025": 0.0
		}
	}
}
