{
	 "smiles": "[O-][N+](=O)C=CC1=CC(F)=CC=C1", 
	 "Tm": 322.15, 
	 "num_atms": 18, 
	 "gaussian": { 
		 "optdone": 1, 
		 "sigma_profile": "yes", 
		 "theory": "DFT", 
		 "functional": "B3LYP", 
		 "basiset": "6-31G**", 
		 "properties": { 
			 "R2extent": 2927.5298, 
			 "electric_dipole_moment_norm": 5.43633395957, 
			 "electric_quadrupole_moment_norm": 7.78663637394, 
			 "total_energy": -613.373030511, 
			 "HOMO_LUMO_gap": 0.15423, 
			 "cosmo_polarized_energy": -10.12, 
			 "cosmo_cavitation_energy": 23.83, 
			 "cosmo_dispersion_energy": -17.39, 
			 "cosmo_repulsion_energy": 1.35, 
			 "cosmo_total_nonelectrostatic_energy": 7.79, 
			 "SMD_solvation_energy": 7.2 
		},
		"coords": [
			{
				"x": 2.3208886829,
				"y": -1.0412839935,
				"z": -1.6149006728,
				"element": "O" 
			},
			{
				"x": 1.3967909542,
				"y": -1.8296160293,
				"z": -1.8348288585,
				"element": "N" 
			},
			{
				"x": 1.3802688346,
				"y": -2.6297525337,
				"z": -2.7743596105,
				"element": "O" 
			},
			{
				"x": 0.2315989366,
				"y": -1.8700201455,
				"z": -0.9783002741,
				"element": "C" 
			},
			{
				"x": -0.0790048523,
				"y": -1.151525135,
				"z": 0.1214746128,
				"element": "C" 
			},
			{
				"x": 0.4901031234,
				"y": -0.0884467349,
				"z": 0.9514797964,
				"element": "C" 
			},
			{
				"x": 1.7319319246,
				"y": 0.5478869044,
				"z": 0.7573889369,
				"element": "C" 
			},
			{
				"x": 2.1227577185,
				"y": 1.5409316061,
				"z": 1.6419688895,
				"element": "C" 
			},
			{
				"x": 3.312052823,
				"y": 2.1433143126,
				"z": 1.4480052544,
				"element": "F" 
			},
			{
				"x": 1.341941501,
				"y": 1.9437777068,
				"z": 2.7213604131,
				"element": "C" 
			},
			{
				"x": 0.111467949,
				"y": 1.3155233215,
				"z": 2.9164502939,
				"element": "C" 
			},
			{
				"x": -0.3088970899,
				"y": 0.3151016708,
				"z": 2.0463216197,
				"element": "C" 
			},
			{
				"x": -0.4527135842,
				"y": -2.6222378089,
				"z": -1.3461820544,
				"element": "H" 
			},
			{
				"x": -1.0515443642,
				"y": -1.4668803031,
				"z": 0.4983580289,
				"element": "H" 
			},
			{
				"x": 2.374749359,
				"y": 0.272795568,
				"z": -0.0643434285,
				"element": "H" 
			},
			{
				"x": 1.6994207971,
				"y": 2.7269544629,
				"z": 3.3809736247,
				"element": "H" 
			},
			{
				"x": -0.5182824715,
				"y": 1.6093586101,
				"z": 3.7501713557,
				"element": "H" 
			},
			{
				"x": -1.2687302418,
				"y": -0.1659814793,
				"z": 2.209662073,
				"element": "H" 
			}
		],
		 "valence_orbital": [ 
			{
				"type": "occ",
				"energy": -0.30811,
				"method": "rhf"
			},
			{
				"type": "occ",
				"energy": -0.30649,
				"method": "rhf"
			},
			{
				"type": "occ",
				"energy": -0.28616,
				"method": "rhf"
			},
			{
				"type": "occ",
				"energy": -0.26795,
				"method": "rhf"
			},
			{
				"type": "occ",
				"energy": -0.2581,
				"method": "rhf"
			},
			{
				"type": "unocc",
				"energy": -0.10387,
				"method": "rhf"
			},
			{
				"type": "unocc",
				"energy": -0.03368,
				"method": "rhf"
			},
			{
				"type": "unocc",
				"energy": -0.01542,
				"method": "rhf"
			},
			{
				"type": "unocc",
				"energy": 0.04715,
				"method": "rhf"
			},
			{
				"type": "unocc",
				"energy": 0.06176,
				"method": "rhf"
			}
		],
		"cosmo_sigma_profile": { 
			"-0.025": 0.0,
			"-0.024": 0.0,
			"-0.023": 0.0,
			"-0.022": 0.0,
			"-0.021": 0.0,
			"-0.02": 0.0,
			"-0.019": 0.0,
			"-0.018": 0.0,
			"-0.017": 0.0,
			"-0.016": 0.0,
			"-0.015": 0.0,
			"-0.014": 0.0,
			"-0.013": 0.0,
			"-0.012": 0.0,
			"-0.011": 0.0,
			"-0.01": 1.31694931632,
			"-0.009": 5.62781981638,
			"-0.008": 6.13075826884,
			"-0.007": 8.20663611345,
			"-0.006": 8.30167407244,
			"-0.005": 10.1479287273,
			"-0.004": 6.81872332562,
			"-0.003": 11.1693873127,
			"-0.002": 10.7831969895,
			"-0.001": 14.3148416851,
			"0.0": 19.7324989594,
			"0.001": 20.3887413163,
			"0.002": 16.5445382617,
			"0.003": 11.1915511139,
			"0.004": 12.2790964746,
			"0.005": 4.09915212629,
			"0.006": 3.14476335356,
			"0.007": 3.80610921769,
			"0.008": 7.47209850533,
			"0.009": 5.87299605351,
			"0.01": 3.95047388727,
			"0.011": 1.00503237184,
			"0.012": 0.0,
			"0.013": 0.0,
			"0.014": 0.0,
			"0.015": 0.0,
			"0.016": 0.0,
			"0.017": 0.0,
			"0.018": 0.0,
			"0.019": 0.0,
			"0.02": 0.0,
			"0.021": 0.0,
			"0.022": 0.0,
			"0.023": 0.0,
			"0.024": 0.0,
			"0.025": 0.0
		}
	}
}
