{
	 "smiles": "[O-][N+](=O)C1=CC(Br)=CC2=C1NCC2", 
	 "Tm": 404.15, 
	 "num_atms": 20, 
	 "gaussian": { 
		 "optdone": 1, 
		 "sigma_profile": "yes", 
		 "theory": "DFT", 
		 "functional": "B3LYP", 
		 "basiset": "6-31G**", 
		 "properties": { 
			 "R2extent": 5578.5187, 
			 "electric_dipole_moment_norm": 5.63683811103, 
			 "electric_quadrupole_moment_norm": 3.85063414648, 
			 "total_energy": -3140.33158047, 
			 "HOMO_LUMO_gap": 0.13082, 
			 "cosmo_polarized_energy": -10.63, 
			 "cosmo_cavitation_energy": 26.3, 
			 "cosmo_dispersion_energy": -20.37, 
			 "cosmo_repulsion_energy": 1.62, 
			 "cosmo_total_nonelectrostatic_energy": 7.55, 
			 "SMD_solvation_energy": 4.0 
		},
		"coords": [
			{
				"x": 0.7020912555,
				"y": -0.7611231079,
				"z": -2.2613359718,
				"element": "O" 
			},
			{
				"x": 0.0563220737,
				"y": -1.7154141011,
				"z": -1.7903573982,
				"element": "N" 
			},
			{
				"x": -0.0992201428,
				"y": -2.7878808891,
				"z": -2.3749280069,
				"element": "O" 
			},
			{
				"x": -0.5347284063,
				"y": -1.5440349974,
				"z": -0.4856502481,
				"element": "C" 
			},
			{
				"x": -1.2373752227,
				"y": -2.6207142432,
				"z": 0.0905195224,
				"element": "C" 
			},
			{
				"x": -1.7828410009,
				"y": -2.4818307927,
				"z": 1.349386361,
				"element": "C" 
			},
			{
				"x": -2.729799126,
				"y": -3.9387893051,
				"z": 2.1426444235,
				"element": "Br" 
			},
			{
				"x": -1.6525984689,
				"y": -1.276485755,
				"z": 2.0762317037,
				"element": "C" 
			},
			{
				"x": -0.9671519582,
				"y": -0.2263344411,
				"z": 1.511295678,
				"element": "C" 
			},
			{
				"x": -0.3955512329,
				"y": -0.3342229327,
				"z": 0.2160373812,
				"element": "C" 
			},
			{
				"x": 0.2121385814,
				"y": 0.829966183,
				"z": -0.1374183386,
				"element": "N" 
			},
			{
				"x": 0.3416188329,
				"y": 1.7274410934,
				"z": 1.0163037531,
				"element": "C" 
			},
			{
				"x": -0.7074865469,
				"y": 1.1783342183,
				"z": 2.0209762166,
				"element": "C" 
			},
			{
				"x": -1.3241243446,
				"y": -3.5396773685,
				"z": -0.4733584937,
				"element": "H" 
			},
			{
				"x": -2.0897222116,
				"y": -1.1942667921,
				"z": 3.0657155761,
				"element": "H" 
			},
			{
				"x": 0.8227667666,
				"y": 0.841632443,
				"z": -0.9416777869,
				"element": "H" 
			},
			{
				"x": 0.1471812176,
				"y": 2.7639343836,
				"z": 0.7275061738,
				"element": "H" 
			},
			{
				"x": 1.3560967645,
				"y": 1.6763777869,
				"z": 1.4365384298,
				"element": "H" 
			},
			{
				"x": -0.3440741639,
				"y": 1.2039636817,
				"z": 3.0516750508,
				"element": "H" 
			},
			{
				"x": -1.6287426664,
				"y": 1.772624936,
				"z": 1.9836959742,
				"element": "H" 
			}
		],
		 "valence_orbital": [ 
			{
				"type": "occ",
				"energy": -0.29155,
				"method": "rhf"
			},
			{
				"type": "occ",
				"energy": -0.28833,
				"method": "rhf"
			},
			{
				"type": "occ",
				"energy": -0.28692,
				"method": "rhf"
			},
			{
				"type": "occ",
				"energy": -0.27787,
				"method": "rhf"
			},
			{
				"type": "occ",
				"energy": -0.21564,
				"method": "rhf"
			},
			{
				"type": "unocc",
				"energy": -0.08482,
				"method": "rhf"
			},
			{
				"type": "unocc",
				"energy": -0.01638,
				"method": "rhf"
			},
			{
				"type": "unocc",
				"energy": 0.00035,
				"method": "rhf"
			},
			{
				"type": "unocc",
				"energy": 0.00173,
				"method": "rhf"
			},
			{
				"type": "unocc",
				"energy": 0.07864,
				"method": "rhf"
			}
		],
		"cosmo_sigma_profile": { 
			"-0.025": 0.0,
			"-0.024": 0.0,
			"-0.023": 0.0,
			"-0.022": 0.0,
			"-0.021": 0.0,
			"-0.02": 0.0,
			"-0.019": 0.0,
			"-0.018": 0.0,
			"-0.017": 0.0,
			"-0.016": 0.0,
			"-0.015": 0.0,
			"-0.014": 0.0,
			"-0.013": 0.110170931422,
			"-0.012": 0.448024813694,
			"-0.011": 0.85270208023,
			"-0.01": 0.798161150316,
			"-0.009": 0.615666426227,
			"-0.008": 1.95538797798,
			"-0.007": 2.89964600445,
			"-0.006": 8.85095074829,
			"-0.005": 20.2770004142,
			"-0.004": 20.3632733265,
			"-0.003": 19.1577431299,
			"-0.002": 15.3547686618,
			"-0.001": 12.3587256847,
			"0.0": 17.0247747408,
			"0.001": 16.351256943,
			"0.002": 17.5095319435,
			"0.003": 10.5897124666,
			"0.004": 13.3192647934,
			"0.005": 8.90277087208,
			"0.006": 3.30079280017,
			"0.007": 3.69934777649,
			"0.008": 6.50923815697,
			"0.009": 5.35830204349,
			"0.01": 4.16718794896,
			"0.011": 2.72564985333,
			"0.012": 0.115471784442,
			"0.013": 0.0,
			"0.014": 0.0,
			"0.015": 0.0,
			"0.016": 0.0,
			"0.017": 0.0,
			"0.018": 0.0,
			"0.019": 0.0,
			"0.02": 0.0,
			"0.021": 0.0,
			"0.022": 0.0,
			"0.023": 0.0,
			"0.024": 0.0,
			"0.025": 0.0
		}
	}
}
