{
	 "smiles": "CC1=CC2=CC3=CC=CC=C3C(=O)N2C=C1", 
	 "Tm": 397.15, 
	 "num_atms": 27, 
	 "gaussian": { 
		 "optdone": 1, 
		 "sigma_profile": "yes", 
		 "theory": "DFT", 
		 "functional": "B3LYP", 
		 "basiset": "6-31G**", 
		 "properties": { 
			 "R2extent": 3954.5736, 
			 "electric_dipole_moment_norm": 3.66625475792, 
			 "electric_quadrupole_moment_norm": 14.247406364, 
			 "total_energy": -670.120058956, 
			 "HOMO_LUMO_gap": 0.12957, 
			 "cosmo_polarized_energy": -9.95, 
			 "cosmo_cavitation_energy": 30.38, 
			 "cosmo_dispersion_energy": -22.71, 
			 "cosmo_repulsion_energy": 1.7, 
			 "cosmo_total_nonelectrostatic_energy": 9.36, 
			 "SMD_solvation_energy": 5.74 
		},
		"coords": [
			{
				"x": 1.3914257815,
				"y": -1.2036747904,
				"z": 4.1022602857,
				"element": "C" 
			},
			{
				"x": 1.0167312954,
				"y": -0.536578094,
				"z": 2.80681007,
				"element": "C" 
			},
			{
				"x": -0.0203633195,
				"y": -0.9670066515,
				"z": 2.0329133051,
				"element": "C" 
			},
			{
				"x": -0.3841287809,
				"y": -0.3353611615,
				"z": 0.7949803663,
				"element": "C" 
			},
			{
				"x": -1.4279228184,
				"y": -0.7601083206,
				"z": 0.0054581699,
				"element": "C" 
			},
			{
				"x": -1.7454942681,
				"y": -0.0990583752,
				"z": -1.2111708011,
				"element": "C" 
			},
			{
				"x": -2.8145695418,
				"y": -0.5112435106,
				"z": -2.048530197,
				"element": "C" 
			},
			{
				"x": -3.0899946022,
				"y": 0.1590416822,
				"z": -3.2238279737,
				"element": "C" 
			},
			{
				"x": -2.3145504952,
				"y": 1.2704157916,
				"z": -3.6203922328,
				"element": "C" 
			},
			{
				"x": -1.2675510643,
				"y": 1.693108849,
				"z": -2.8237208128,
				"element": "C" 
			},
			{
				"x": -0.9705298699,
				"y": 1.0217182643,
				"z": -1.61981634,
				"element": "C" 
			},
			{
				"x": 0.1419079541,
				"y": 1.5047121641,
				"z": -0.8150224186,
				"element": "C" 
			},
			{
				"x": 0.8592461905,
				"y": 2.4618742297,
				"z": -1.0954936451,
				"element": "O" 
			},
			{
				"x": 0.3881238113,
				"y": 0.7737218992,
				"z": 0.3974951186,
				"element": "N" 
			},
			{
				"x": 1.4436418962,
				"y": 1.212989903,
				"z": 1.1836457166,
				"element": "C" 
			},
			{
				"x": 1.7690623511,
				"y": 0.6027822736,
				"z": 2.346777478,
				"element": "C" 
			},
			{
				"x": 2.4248775697,
				"y": -1.5691388871,
				"z": 4.0696544151,
				"element": "H" 
			},
			{
				"x": 0.7375168703,
				"y": -2.0505190457,
				"z": 4.3243663889,
				"element": "H" 
			},
			{
				"x": 1.3309627351,
				"y": -0.4966113543,
				"z": 4.9383582855,
				"element": "H" 
			},
			{
				"x": -0.6192835711,
				"y": -1.8211416434,
				"z": 2.3337796845,
				"element": "H" 
			},
			{
				"x": -2.0092863448,
				"y": -1.6156422811,
				"z": 0.3301799948,
				"element": "H" 
			},
			{
				"x": -3.4152159291,
				"y": -1.3659012707,
				"z": -1.7490668147,
				"element": "H" 
			},
			{
				"x": -3.91312091,
				"y": -0.172435063,
				"z": -3.8511169698,
				"element": "H" 
			},
			{
				"x": -2.542328364,
				"y": 1.7880593632,
				"z": -4.5470371671,
				"element": "H" 
			},
			{
				"x": -0.650531247,
				"y": 2.5426315376,
				"z": -3.0961666745,
				"element": "H" 
			},
			{
				"x": 1.9562909751,
				"y": 2.0705479098,
				"z": 0.7700220772,
				"element": "H" 
			},
			{
				"x": 2.6026836958,
				"y": 0.981716582,
				"z": 2.9281606912,
				"element": "H" 
			}
		],
		 "valence_orbital": [ 
			{
				"type": "occ",
				"energy": -0.29067,
				"method": "rhf"
			},
			{
				"type": "occ",
				"energy": -0.25944,
				"method": "rhf"
			},
			{
				"type": "occ",
				"energy": -0.25827,
				"method": "rhf"
			},
			{
				"type": "occ",
				"energy": -0.25111,
				"method": "rhf"
			},
			{
				"type": "occ",
				"energy": -0.18184,
				"method": "rhf"
			},
			{
				"type": "unocc",
				"energy": -0.05227,
				"method": "rhf"
			},
			{
				"type": "unocc",
				"energy": -0.03669,
				"method": "rhf"
			},
			{
				"type": "unocc",
				"energy": -0.00536,
				"method": "rhf"
			},
			{
				"type": "unocc",
				"energy": 0.0459,
				"method": "rhf"
			},
			{
				"type": "unocc",
				"energy": 0.06261,
				"method": "rhf"
			}
		],
		"cosmo_sigma_profile": { 
			"-0.025": 0.0,
			"-0.024": 0.0,
			"-0.023": 0.0,
			"-0.022": 0.0,
			"-0.021": 0.0,
			"-0.02": 0.0,
			"-0.019": 0.0,
			"-0.018": 0.0,
			"-0.017": 0.0,
			"-0.016": 0.0,
			"-0.015": 0.0,
			"-0.014": 0.0,
			"-0.013": 0.0,
			"-0.012": 0.0,
			"-0.011": 0.0,
			"-0.01": 0.0,
			"-0.009": 0.0,
			"-0.008": 0.0728330736965,
			"-0.007": 4.92089722267,
			"-0.006": 14.972712045,
			"-0.005": 18.451846397,
			"-0.004": 22.6678328283,
			"-0.003": 17.6803484562,
			"-0.002": 17.9376476266,
			"-0.001": 22.1988274944,
			"0.0": 20.9933493596,
			"0.001": 16.5717971792,
			"0.002": 21.0367225402,
			"0.003": 22.2288749244,
			"0.004": 17.9974475432,
			"0.005": 9.40270078676,
			"0.006": 1.60255322462,
			"0.007": 1.22165178369,
			"0.008": 1.71840521378,
			"0.009": 1.60374419869,
			"0.01": 1.17631431658,
			"0.011": 1.81096729824,
			"0.012": 2.26460210055,
			"0.013": 4.42144560705,
			"0.014": 0.832352396682,
			"0.015": 0.0,
			"0.016": 0.0,
			"0.017": 0.0,
			"0.018": 0.0,
			"0.019": 0.0,
			"0.02": 0.0,
			"0.021": 0.0,
			"0.022": 0.0,
			"0.023": 0.0,
			"0.024": 0.0,
			"0.025": 0.0
		}
	}
}
