{
	 "smiles": "ClCCC(=O)N1CCN(CC1)C1=NC=CC=N1", 
	 "Tm": 413.15, 
	 "num_atms": 32, 
	 "gaussian": { 
		 "optdone": 1, 
		 "sigma_profile": "yes", 
		 "theory": "DFT", 
		 "functional": "B3LYP", 
		 "basiset": "6-31G**", 
		 "properties": { 
			 "R2extent": 7792.3255, 
			 "electric_dipole_moment_norm": 4.48503311693, 
			 "electric_quadrupole_moment_norm": 7.60986794563, 
			 "total_energy": -1182.6565354, 
			 "HOMO_LUMO_gap": 0.18093, 
			 "cosmo_polarized_energy": -14.1, 
			 "cosmo_cavitation_energy": 36.07, 
			 "cosmo_dispersion_energy": -26.58, 
			 "cosmo_repulsion_energy": 2.08, 
			 "cosmo_total_nonelectrostatic_energy": 11.56, 
			 "SMD_solvation_energy": 3.25 
		},
		"coords": [
			{
				"x": -2.8801310894,
				"y": 5.5423638626,
				"z": 1.7888232222,
				"element": "Cl" 
			},
			{
				"x": -2.1642041794,
				"y": 4.5926693089,
				"z": 0.412520502,
				"element": "C" 
			},
			{
				"x": -1.5312579943,
				"y": 3.306690755,
				"z": 0.9286858222,
				"element": "C" 
			},
			{
				"x": -0.9324047416,
				"y": 2.5160476236,
				"z": -0.238213953,
				"element": "C" 
			},
			{
				"x": -1.017124931,
				"y": 2.9466860724,
				"z": -1.3866015774,
				"element": "O" 
			},
			{
				"x": -0.3135413326,
				"y": 1.3260493622,
				"z": 0.0515091211,
				"element": "N" 
			},
			{
				"x": -0.1223996999,
				"y": 0.7513088825,
				"z": 1.3805491019,
				"element": "C" 
			},
			{
				"x": -0.6033622932,
				"y": -0.705876149,
				"z": 1.4134587519,
				"element": "C" 
			},
			{
				"x": 0.0159450677,
				"y": -1.4650148813,
				"z": 0.3354338822,
				"element": "N" 
			},
			{
				"x": -0.1735880867,
				"y": -0.8989312838,
				"z": -0.9976361616,
				"element": "C" 
			},
			{
				"x": 0.3062151747,
				"y": 0.5543928691,
				"z": -1.0276935164,
				"element": "C" 
			},
			{
				"x": 0.5254908101,
				"y": -2.7247557917,
				"z": 0.5316380148,
				"element": "C" 
			},
			{
				"x": 0.9724048273,
				"y": -3.3879334283,
				"z": -0.557956027,
				"element": "N" 
			},
			{
				"x": 1.4867137332,
				"y": -4.597367963,
				"z": -0.34245854,
				"element": "C" 
			},
			{
				"x": 1.5710239086,
				"y": -5.1778018476,
				"z": 0.9225509336,
				"element": "C" 
			},
			{
				"x": 1.0739398093,
				"y": -4.4051454658,
				"z": 1.9711109743,
				"element": "C" 
			},
			{
				"x": 0.551649614,
				"y": -3.1917945897,
				"z": 1.8000360255,
				"element": "N" 
			},
			{
				"x": -1.4323510803,
				"y": 5.2364883344,
				"z": -0.0718552293,
				"element": "H" 
			},
			{
				"x": -2.9711799057,
				"y": 4.3917779152,
				"z": -0.2896402294,
				"element": "H" 
			},
			{
				"x": -0.7567123639,
				"y": 3.5456653406,
				"z": 1.6662613326,
				"element": "H" 
			},
			{
				"x": -2.2863371295,
				"y": 2.7079331016,
				"z": 1.4505122871,
				"element": "H" 
			},
			{
				"x": -0.6674268771,
				"y": 1.3280290794,
				"z": 2.1274901027,
				"element": "H" 
			},
			{
				"x": 0.9454778543,
				"y": 0.7832431413,
				"z": 1.6420421291,
				"element": "H" 
			},
			{
				"x": -1.6990352119,
				"y": -0.7251408817,
				"z": 1.3012014683,
				"element": "H" 
			},
			{
				"x": -0.3459483625,
				"y": -1.1745266596,
				"z": 2.3623053986,
				"element": "H" 
			},
			{
				"x": -1.2405984832,
				"y": -0.9356934677,
				"z": -1.2663606172,
				"element": "H" 
			},
			{
				"x": 0.381603216,
				"y": -1.5038871648,
				"z": -1.7128344029,
				"element": "H" 
			},
			{
				"x": 1.3987270294,
				"y": 0.5809642231,
				"z": -0.9092118833,
				"element": "H" 
			},
			{
				"x": 0.0441852162,
				"y": 1.0352560948,
				"z": -1.9700812497,
				"element": "H" 
			},
			{
				"x": 1.8457274823,
				"y": -5.1256953987,
				"z": -1.2251387472,
				"element": "H" 
			},
			{
				"x": 1.9896293535,
				"y": -6.1644336665,
				"z": 1.0792800022,
				"element": "H" 
			},
			{
				"x": 1.0925706657,
				"y": -4.7748673273,
				"z": 2.9958730621,
				"element": "H" 
			}
		],
		 "valence_orbital": [ 
			{
				"type": "occ",
				"energy": -0.29201,
				"method": "rhf"
			},
			{
				"type": "occ",
				"energy": -0.25695,
				"method": "rhf"
			},
			{
				"type": "occ",
				"energy": -0.25068,
				"method": "rhf"
			},
			{
				"type": "occ",
				"energy": -0.24813,
				"method": "rhf"
			},
			{
				"type": "occ",
				"energy": -0.21793,
				"method": "rhf"
			},
			{
				"type": "unocc",
				"energy": -0.037,
				"method": "rhf"
			},
			{
				"type": "unocc",
				"energy": -0.0049,
				"method": "rhf"
			},
			{
				"type": "unocc",
				"energy": 0.0174,
				"method": "rhf"
			},
			{
				"type": "unocc",
				"energy": 0.02993,
				"method": "rhf"
			},
			{
				"type": "unocc",
				"energy": 0.08528,
				"method": "rhf"
			}
		],
		"cosmo_sigma_profile": { 
			"-0.025": 0.0,
			"-0.024": 0.0,
			"-0.023": 0.0,
			"-0.022": 0.0,
			"-0.021": 0.0,
			"-0.02": 0.0,
			"-0.019": 0.0,
			"-0.018": 0.0,
			"-0.017": 0.0,
			"-0.016": 0.0,
			"-0.015": 0.0,
			"-0.014": 0.0,
			"-0.013": 0.0,
			"-0.012": 0.0,
			"-0.011": 0.0,
			"-0.01": 0.0,
			"-0.009": 0.0,
			"-0.008": 0.714996590229,
			"-0.007": 12.3315176844,
			"-0.006": 18.6175588557,
			"-0.005": 24.7692210667,
			"-0.004": 34.0398327675,
			"-0.003": 27.1955465656,
			"-0.002": 18.062351542,
			"-0.001": 14.7083905129,
			"0.0": 18.6224694504,
			"0.001": 17.8549980314,
			"0.002": 18.5971262441,
			"0.003": 14.159719051,
			"0.004": 9.74952015695,
			"0.005": 9.91091180923,
			"0.006": 13.7185000577,
			"0.007": 10.3380927762,
			"0.008": 3.76022849632,
			"0.009": 3.75170039948,
			"0.01": 4.24789217328,
			"0.011": 4.06264641372,
			"0.012": 2.0964696155,
			"0.013": 3.80638196851,
			"0.014": 2.27494284833,
			"0.015": 0.0,
			"0.016": 0.0,
			"0.017": 0.0,
			"0.018": 0.0,
			"0.019": 0.0,
			"0.02": 0.0,
			"0.021": 0.0,
			"0.022": 0.0,
			"0.023": 0.0,
			"0.024": 0.0,
			"0.025": 0.0
		}
	}
}
