{
	 "smiles": "BrC1=C2CCCC(=O)C2=CC=C1", 
	 "Tm": 324.15, 
	 "num_atms": 21, 
	 "gaussian": { 
		 "optdone": 1, 
		 "sigma_profile": "yes", 
		 "theory": "DFT", 
		 "functional": "B3LYP", 
		 "basiset": "6-31G**", 
		 "properties": { 
			 "R2extent": 3138.2075, 
			 "electric_dipole_moment_norm": 1.5466127117, 
			 "electric_quadrupole_moment_norm": 13.809642923, 
			 "total_energy": -3033.13185224, 
			 "HOMO_LUMO_gap": 0.18512, 
			 "cosmo_polarized_energy": -7.43, 
			 "cosmo_cavitation_energy": 25.82, 
			 "cosmo_dispersion_energy": -19.78, 
			 "cosmo_repulsion_energy": 1.56, 
			 "cosmo_total_nonelectrostatic_energy": 7.6, 
			 "SMD_solvation_energy": 3.26 
		},
		"coords": [
			{
				"x": -0.4057295628,
				"y": 1.7699151471,
				"z": -2.6697117955,
				"element": "Br" 
			},
			{
				"x": -0.4125252064,
				"y": 0.4223817941,
				"z": -1.3015616503,
				"element": "C" 
			},
			{
				"x": 0.001903146,
				"y": 0.7299986513,
				"z": 0.0028502713,
				"element": "C" 
			},
			{
				"x": 0.4920677581,
				"y": 2.1067914032,
				"z": 0.3960871232,
				"element": "C" 
			},
			{
				"x": 1.380730208,
				"y": 2.0803389348,
				"z": 1.644457379,
				"element": "C" 
			},
			{
				"x": 0.6912216527,
				"y": 1.3324992731,
				"z": 2.7888211905,
				"element": "C" 
			},
			{
				"x": 0.3075584505,
				"y": -0.0824197804,
				"z": 2.3905838275,
				"element": "C" 
			},
			{
				"x": 0.2765898779,
				"y": -0.9911447235,
				"z": 3.2060202056,
				"element": "O" 
			},
			{
				"x": -0.0633382731,
				"y": -0.3129964698,
				"z": 0.9553942141,
				"element": "C" 
			},
			{
				"x": -0.4994270912,
				"y": -1.5958884271,
				"z": 0.5959060252,
				"element": "C" 
			},
			{
				"x": -0.8883881631,
				"y": -1.8666329226,
				"z": -0.7090261821,
				"element": "C" 
			},
			{
				"x": -0.8495411044,
				"y": -0.8496797846,
				"z": -1.6650708042,
				"element": "C" 
			},
			{
				"x": -0.3789370471,
				"y": 2.7548138284,
				"z": 0.5762737558,
				"element": "H" 
			},
			{
				"x": 1.0265982933,
				"y": 2.5574492198,
				"z": -0.4444978787,
				"element": "H" 
			},
			{
				"x": 1.624876837,
				"y": 3.1034045094,
				"z": 1.9486118491,
				"element": "H" 
			},
			{
				"x": 2.3308183121,
				"y": 1.5862489938,
				"z": 1.4046747383,
				"element": "H" 
			},
			{
				"x": -0.2374581777,
				"y": 1.8548891001,
				"z": 3.0652925999,
				"element": "H" 
			},
			{
				"x": 1.3046947477,
				"y": 1.2747673054,
				"z": 3.6918916998,
				"element": "H" 
			},
			{
				"x": -0.5254635143,
				"y": -2.3559702281,
				"z": 1.3692145448,
				"element": "H" 
			},
			{
				"x": -1.2277088727,
				"y": -2.8583952218,
				"z": -0.9917477364,
				"element": "H" 
			},
			{
				"x": -1.1541422704,
				"y": -1.0391706025,
				"z": -2.6881633768,
				"element": "H" 
			}
		],
		 "valence_orbital": [ 
			{
				"type": "occ",
				"energy": -0.31545,
				"method": "rhf"
			},
			{
				"type": "occ",
				"energy": -0.29257,
				"method": "rhf"
			},
			{
				"type": "occ",
				"energy": -0.26433,
				"method": "rhf"
			},
			{
				"type": "occ",
				"energy": -0.24899,
				"method": "rhf"
			},
			{
				"type": "occ",
				"energy": -0.24727,
				"method": "rhf"
			},
			{
				"type": "unocc",
				"energy": -0.06215,
				"method": "rhf"
			},
			{
				"type": "unocc",
				"energy": -0.02037,
				"method": "rhf"
			},
			{
				"type": "unocc",
				"energy": 0.00144,
				"method": "rhf"
			},
			{
				"type": "unocc",
				"energy": 0.03154,
				"method": "rhf"
			},
			{
				"type": "unocc",
				"energy": 0.09064,
				"method": "rhf"
			}
		],
		"cosmo_sigma_profile": { 
			"-0.025": 0.0,
			"-0.024": 0.0,
			"-0.023": 0.0,
			"-0.022": 0.0,
			"-0.021": 0.0,
			"-0.02": 0.0,
			"-0.019": 0.0,
			"-0.018": 0.0,
			"-0.017": 0.0,
			"-0.016": 0.0,
			"-0.015": 0.0,
			"-0.014": 0.0,
			"-0.013": 0.0,
			"-0.012": 0.0,
			"-0.011": 0.0,
			"-0.01": 0.0,
			"-0.009": 0.0,
			"-0.008": 0.404120601747,
			"-0.007": 3.16217295964,
			"-0.006": 8.35598459159,
			"-0.005": 13.9240217062,
			"-0.004": 19.4494203506,
			"-0.003": 21.5933466237,
			"-0.002": 23.1594314019,
			"-0.001": 16.695731443,
			"0.0": 14.6741797631,
			"0.001": 15.9067464939,
			"0.002": 20.8635544989,
			"0.003": 17.2159442686,
			"0.004": 10.3968829296,
			"0.005": 5.76365704126,
			"0.006": 1.27323410924,
			"0.007": 1.51953797235,
			"0.008": 1.67703051047,
			"0.009": 1.82948440744,
			"0.01": 1.78019905141,
			"0.011": 3.11799194748,
			"0.012": 4.0583037959,
			"0.013": 1.4794611195,
			"0.014": 0.211886146291,
			"0.015": 0.0,
			"0.016": 0.0,
			"0.017": 0.0,
			"0.018": 0.0,
			"0.019": 0.0,
			"0.02": 0.0,
			"0.021": 0.0,
			"0.022": 0.0,
			"0.023": 0.0,
			"0.024": 0.0,
			"0.025": 0.0
		}
	}
}
