{
	 "smiles": "CC1=C(NC(=O)CCl)C=C(C=C1)S(=O)(=O)N1CCCCC1", 
	 "Tm": 381.15, 
	 "num_atms": 40, 
	 "gaussian": { 
		 "optdone": 1, 
		 "sigma_profile": "yes", 
		 "theory": "DFT", 
		 "functional": "B3LYP", 
		 "basiset": "6-31G**", 
		 "properties": { 
			 "R2extent": 9082.2707, 
			 "electric_dipole_moment_norm": 6.26010232584, 
			 "electric_quadrupole_moment_norm": 34.9683356211, 
			 "total_energy": -1738.43987622, 
			 "HOMO_LUMO_gap": 0.19632, 
			 "cosmo_polarized_energy": -23.51, 
			 "cosmo_cavitation_energy": 44.94, 
			 "cosmo_dispersion_energy": -31.07, 
			 "cosmo_repulsion_energy": 2.39, 
			 "cosmo_total_nonelectrostatic_energy": 16.26, 
			 "SMD_solvation_energy": 6.0 
		},
		"coords": [
			{
				"x": 2.6866402903,
				"y": -3.3853054238,
				"z": -0.883194274,
				"element": "C" 
			},
			{
				"x": 1.6512942343,
				"y": -2.4083967087,
				"z": -0.3858263236,
				"element": "C" 
			},
			{
				"x": 1.6948652342,
				"y": -1.0478823286,
				"z": -0.7758597133,
				"element": "C" 
			},
			{
				"x": 2.7422567477,
				"y": -0.6108248594,
				"z": -1.6228714475,
				"element": "N" 
			},
			{
				"x": 2.7256423367,
				"y": 0.1701704963,
				"z": -2.7681440064,
				"element": "C" 
			},
			{
				"x": 3.7648921001,
				"y": 0.4445638989,
				"z": -3.3364708521,
				"element": "O" 
			},
			{
				"x": 1.3505706832,
				"y": 0.6406697676,
				"z": -3.2551194278,
				"element": "C" 
			},
			{
				"x": 1.3421852658,
				"y": 0.9158085059,
				"z": -5.0275014897,
				"element": "Cl" 
			},
			{
				"x": 0.7415514248,
				"y": -0.1481188601,
				"z": -0.2942759756,
				"element": "C" 
			},
			{
				"x": -0.2839220063,
				"y": -0.6042521551,
				"z": 0.5342438185,
				"element": "C" 
			},
			{
				"x": -0.3580879829,
				"y": -1.9391300003,
				"z": 0.9197682245,
				"element": "C" 
			},
			{
				"x": 0.6227270089,
				"y": -2.8224345239,
				"z": 0.4646182867,
				"element": "C" 
			},
			{
				"x": -1.5642507088,
				"y": 0.5448499595,
				"z": 1.0564337203,
				"element": "S" 
			},
			{
				"x": -2.0967548833,
				"y": 1.2284101387,
				"z": -0.1270308186,
				"element": "O" 
			},
			{
				"x": -2.4640872993,
				"y": -0.2026057122,
				"z": 1.9487647671,
				"element": "O" 
			},
			{
				"x": -0.6692556179,
				"y": 1.7040653513,
				"z": 1.8919679993,
				"element": "N" 
			},
			{
				"x": -1.1915818512,
				"y": 3.0936022434,
				"z": 1.775768002,
				"element": "C" 
			},
			{
				"x": -0.3929209192,
				"y": 3.9953119535,
				"z": 2.7177375364,
				"element": "C" 
			},
			{
				"x": -0.6067212122,
				"y": 3.6055478261,
				"z": 4.198642945,
				"element": "C" 
			},
			{
				"x": -0.86485635,
				"y": 2.0885997666,
				"z": 4.3495408864,
				"element": "C" 
			},
			{
				"x": -0.1756379051,
				"y": 1.2984424931,
				"z": 3.2342667374,
				"element": "C" 
			},
			{
				"x": 2.780930538,
				"y": -3.34565856,
				"z": -1.9735293854,
				"element": "H" 
			},
			{
				"x": 3.6808954454,
				"y": -3.1741626547,
				"z": -0.4674173862,
				"element": "H" 
			},
			{
				"x": 2.4271059273,
				"y": -4.4069771598,
				"z": -0.5973935907,
				"element": "H" 
			},
			{
				"x": 3.6764520629,
				"y": -0.9508537911,
				"z": -1.4268511973,
				"element": "H" 
			},
			{
				"x": 1.0966759916,
				"y": 1.5929586543,
				"z": -2.7841879301,
				"element": "H" 
			},
			{
				"x": 0.5645223744,
				"y": -0.0777467644,
				"z": -3.0237325988,
				"element": "H" 
			},
			{
				"x": 0.8077812032,
				"y": 0.9051162581,
				"z": -0.5397736852,
				"element": "H" 
			},
			{
				"x": -1.1677087546,
				"y": -2.2700683175,
				"z": 1.5600718464,
				"element": "H" 
			},
			{
				"x": 0.5777815887,
				"y": -3.866080635,
				"z": 0.7629224363,
				"element": "H" 
			},
			{
				"x": -2.2596426627,
				"y": 3.1476001903,
				"z": 2.0292472668,
				"element": "H" 
			},
			{
				"x": -1.0885012272,
				"y": 3.4095315802,
				"z": 0.7365155769,
				"element": "H" 
			},
			{
				"x": -0.6873490423,
				"y": 5.0354208922,
				"z": 2.5442220504,
				"element": "H" 
			},
			{
				"x": 0.6685984965,
				"y": 3.923759146,
				"z": 2.4526623481,
				"element": "H" 
			},
			{
				"x": 0.2728414448,
				"y": 3.9014596851,
				"z": 4.7811445332,
				"element": "H" 
			},
			{
				"x": -1.454501875,
				"y": 4.1609928647,
				"z": 4.6145367807,
				"element": "H" 
			},
			{
				"x": -0.514010842,
				"y": 1.7283844255,
				"z": 5.3226755865,
				"element": "H" 
			},
			{
				"x": -1.9379802424,
				"y": 1.8734303802,
				"z": 4.3035477,
				"element": "H" 
			},
			{
				"x": 0.9096612967,
				"y": 1.4578714618,
				"z": 3.2634699849,
				"element": "H" 
			},
			{
				"x": -0.349500313,
				"y": 0.2282305152,
				"z": 3.3646110685,
				"element": "H" 
			}
		],
		 "valence_orbital": [ 
			{
				"type": "occ",
				"energy": -0.29635,
				"method": "rhf"
			},
			{
				"type": "occ",
				"energy": -0.27932,
				"method": "rhf"
			},
			{
				"type": "occ",
				"energy": -0.27259,
				"method": "rhf"
			},
			{
				"type": "occ",
				"energy": -0.25173,
				"method": "rhf"
			},
			{
				"type": "occ",
				"energy": -0.24648,
				"method": "rhf"
			},
			{
				"type": "unocc",
				"energy": -0.05016,
				"method": "rhf"
			},
			{
				"type": "unocc",
				"energy": -0.03687,
				"method": "rhf"
			},
			{
				"type": "unocc",
				"energy": -0.00075,
				"method": "rhf"
			},
			{
				"type": "unocc",
				"energy": 0.03503,
				"method": "rhf"
			},
			{
				"type": "unocc",
				"energy": 0.05165,
				"method": "rhf"
			}
		],
		"cosmo_sigma_profile": { 
			"-0.025": 0.0,
			"-0.024": 0.0,
			"-0.023": 0.0,
			"-0.022": 0.0,
			"-0.021": 0.0,
			"-0.02": 0.0,
			"-0.019": 0.0,
			"-0.018": 0.0,
			"-0.017": 0.0,
			"-0.016": 0.0,
			"-0.015": 0.0291019355748,
			"-0.014": 0.68759746759,
			"-0.013": 1.32419737664,
			"-0.012": 1.85475541694,
			"-0.011": 2.20624433824,
			"-0.01": 3.57712324318,
			"-0.009": 4.11995243237,
			"-0.008": 4.40351211718,
			"-0.007": 8.23131318996,
			"-0.006": 11.4469158356,
			"-0.005": 16.1452065827,
			"-0.004": 31.1192809353,
			"-0.003": 40.0048368933,
			"-0.002": 40.5560154108,
			"-0.001": 33.9680418568,
			"0.0": 29.732309304,
			"0.001": 18.9586114078,
			"0.002": 15.8086647362,
			"0.003": 12.7778857212,
			"0.004": 8.11047820994,
			"0.005": 11.8351072998,
			"0.006": 9.77466292386,
			"0.007": 4.45672726316,
			"0.008": 4.7832174032,
			"0.009": 6.22073916415,
			"0.01": 7.39041930349,
			"0.011": 10.5296692578,
			"0.012": 10.8527680007,
			"0.013": 4.03030695999,
			"0.014": 0.853438870563,
			"0.015": 0.0,
			"0.016": 0.0,
			"0.017": 0.0,
			"0.018": 0.0,
			"0.019": 0.0,
			"0.02": 0.0,
			"0.021": 0.0,
			"0.022": 0.0,
			"0.023": 0.0,
			"0.024": 0.0,
			"0.025": 0.0
		}
	}
}
