{
	 "smiles": "CC1=CC2=C(N1)C=CC(N)=C2", 
	 "Tm": 427.15, 
	 "num_atms": 21, 
	 "gaussian": { 
		 "optdone": 1, 
		 "sigma_profile": "yes", 
		 "theory": "DFT", 
		 "functional": "B3LYP", 
		 "basiset": "6-31G**", 
		 "properties": { 
			 "R2extent": 2046.9353, 
			 "electric_dipole_moment_norm": 1.93317422133, 
			 "electric_quadrupole_moment_norm": 12.4024063423, 
			 "total_energy": -458.499307352, 
			 "HOMO_LUMO_gap": 0.17841, 
			 "cosmo_polarized_energy": -12.5, 
			 "cosmo_cavitation_energy": 24.34, 
			 "cosmo_dispersion_energy": -18.35, 
			 "cosmo_repulsion_energy": 1.48, 
			 "cosmo_total_nonelectrostatic_energy": 7.46, 
			 "SMD_solvation_energy": 3.8 
		},
		"coords": [
			{
				"x": 0.5516015796,
				"y": 3.5173884012,
				"z": 1.8420741005,
				"element": "C" 
			},
			{
				"x": 0.217371096,
				"y": 2.1742046999,
				"z": 1.2783040363,
				"element": "C" 
			},
			{
				"x": 0.9855952763,
				"y": 1.3051199954,
				"z": 0.5397774139,
				"element": "C" 
			},
			{
				"x": 0.1864289949,
				"y": 0.1467590674,
				"z": 0.2517150682,
				"element": "C" 
			},
			{
				"x": -1.0830387445,
				"y": 0.3705041234,
				"z": 0.8496567293,
				"element": "C" 
			},
			{
				"x": -1.0342310236,
				"y": 1.6112494559,
				"z": 1.4655803418,
				"element": "N" 
			},
			{
				"x": -2.1117899794,
				"y": -0.5683495554,
				"z": 0.7580753888,
				"element": "C" 
			},
			{
				"x": -1.8629821366,
				"y": -1.7443474901,
				"z": 0.0605746002,
				"element": "C" 
			},
			{
				"x": -0.6084183399,
				"y": -1.995432496,
				"z": -0.5483622998,
				"element": "C" 
			},
			{
				"x": -0.3897448159,
				"y": -3.2313495932,
				"z": -1.1911766889,
				"element": "N" 
			},
			{
				"x": 0.4122955523,
				"y": -1.0479587578,
				"z": -0.4526576333,
				"element": "C" 
			},
			{
				"x": 0.4638938618,
				"y": 3.5345622691,
				"z": 2.9359601146,
				"element": "H" 
			},
			{
				"x": -0.1081921413,
				"y": 4.3013644411,
				"z": 1.4488367807,
				"element": "H" 
			},
			{
				"x": 1.5785734491,
				"y": 3.7868306222,
				"z": 1.5861044683,
				"element": "H" 
			},
			{
				"x": 2.0098872993,
				"y": 1.4789382865,
				"z": 0.23978638,
				"element": "H" 
			},
			{
				"x": -1.7886114755,
				"y": 2.0388442461,
				"z": 1.9771456674,
				"element": "H" 
			},
			{
				"x": -3.082289043,
				"y": -0.3942147819,
				"z": 1.2151055447,
				"element": "H" 
			},
			{
				"x": -2.6438209165,
				"y": -2.4968360569,
				"z": -0.0159313357,
				"element": "H" 
			},
			{
				"x": -1.2262295455,
				"y": -3.6275276383,
				"z": -1.6011189263,
				"element": "H" 
			},
			{
				"x": 0.3536970798,
				"y": -3.201849065,
				"z": -1.8775132187,
				"element": "H" 
			},
			{
				"x": 1.3770039724,
				"y": -1.2388001735,
				"z": -0.917336532,
				"element": "H" 
			}
		],
		 "valence_orbital": [ 
			{
				"type": "occ",
				"energy": -0.32245,
				"method": "rhf"
			},
			{
				"type": "occ",
				"energy": -0.27053,
				"method": "rhf"
			},
			{
				"type": "occ",
				"energy": -0.26017,
				"method": "rhf"
			},
			{
				"type": "occ",
				"energy": -0.18943,
				"method": "rhf"
			},
			{
				"type": "occ",
				"energy": -0.17476,
				"method": "rhf"
			},
			{
				"type": "unocc",
				"energy": 0.00365,
				"method": "rhf"
			},
			{
				"type": "unocc",
				"energy": 0.05103,
				"method": "rhf"
			},
			{
				"type": "unocc",
				"energy": 0.08094,
				"method": "rhf"
			},
			{
				"type": "unocc",
				"energy": 0.08459,
				"method": "rhf"
			},
			{
				"type": "unocc",
				"energy": 0.0979,
				"method": "rhf"
			}
		],
		"cosmo_sigma_profile": { 
			"-0.025": 0.0,
			"-0.024": 0.0,
			"-0.023": 0.0,
			"-0.022": 0.0,
			"-0.021": 0.0,
			"-0.02": 0.0,
			"-0.019": 0.0,
			"-0.018": 0.0,
			"-0.017": 0.0,
			"-0.016": 0.0,
			"-0.015": 0.639074179788,
			"-0.014": 1.25696371505,
			"-0.013": 1.34529177957,
			"-0.012": 1.04898765194,
			"-0.011": 3.29355421992,
			"-0.01": 4.13127795716,
			"-0.009": 3.78806445294,
			"-0.008": 4.81919058498,
			"-0.007": 3.96001067383,
			"-0.006": 5.71231345026,
			"-0.005": 11.5385930921,
			"-0.004": 14.7126132434,
			"-0.003": 14.0536372695,
			"-0.002": 14.3709328737,
			"-0.001": 13.9402523486,
			"0.0": 11.4717861421,
			"0.001": 8.0549396088,
			"0.002": 6.41382713844,
			"0.003": 6.24312330309,
			"0.004": 7.94850126687,
			"0.005": 9.23712790992,
			"0.006": 11.591593505,
			"0.007": 13.2788045456,
			"0.008": 12.8325665861,
			"0.009": 1.33332417035,
			"0.01": 1.01038441988,
			"0.011": 0.803081989164,
			"0.012": 1.20294918173,
			"0.013": 0.731076475448,
			"0.014": 0.39935720644,
			"0.015": 0.495658352961,
			"0.016": 0.878801249791,
			"0.017": 0.176290648606,
			"0.018": 0.0,
			"0.019": 0.0,
			"0.02": 0.0,
			"0.021": 0.0,
			"0.022": 0.0,
			"0.023": 0.0,
			"0.024": 0.0,
			"0.025": 0.0
		}
	}
}
