{
	 "smiles": "OC(=O)C=CC1=CC=C(C=C1)S(=O)(=O)N1CCOCC1", 
	 "Tm": 523.15, 
	 "num_atms": 35, 
	 "gaussian": { 
		 "optdone": 1, 
		 "sigma_profile": "yes", 
		 "theory": "DFT", 
		 "functional": "B3LYP", 
		 "basiset": "6-31G**", 
		 "properties": { 
			 "R2extent": 7729.6528, 
			 "electric_dipole_moment_norm": 2.89215138954, 
			 "electric_quadrupole_moment_norm": 26.6001141686, 
			 "total_energy": -1333.37697993, 
			 "HOMO_LUMO_gap": 0.16371, 
			 "cosmo_polarized_energy": -22.21, 
			 "cosmo_cavitation_energy": 39.65, 
			 "cosmo_dispersion_energy": -28.1, 
			 "cosmo_repulsion_energy": 2.13, 
			 "cosmo_total_nonelectrostatic_energy": 13.68, 
			 "SMD_solvation_energy": 6.03 
		},
		"coords": [
			{
				"x": -1.4221701482,
				"y": -1.9951044504,
				"z": -2.8930417309,
				"element": "O" 
			},
			{
				"x": -2.4970580041,
				"y": -1.7820307695,
				"z": -3.6929320078,
				"element": "C" 
			},
			{
				"x": -2.9761791837,
				"y": -2.670219466,
				"z": -4.3710476919,
				"element": "O" 
			},
			{
				"x": -3.0115579475,
				"y": -0.3958545612,
				"z": -3.7248825631,
				"element": "C" 
			},
			{
				"x": -2.7266896471,
				"y": 0.6916060998,
				"z": -2.9794184241,
				"element": "C" 
			},
			{
				"x": -1.8819219406,
				"y": 0.9040822727,
				"z": -1.7921336582,
				"element": "C" 
			},
			{
				"x": -1.722333067,
				"y": -0.0406124224,
				"z": -0.762235976,
				"element": "C" 
			},
			{
				"x": -0.9478311531,
				"y": 0.2502457075,
				"z": 0.3562832407,
				"element": "C" 
			},
			{
				"x": -0.3161379799,
				"y": 1.4939456505,
				"z": 0.4564081649,
				"element": "C" 
			},
			{
				"x": -0.4852169948,
				"y": 2.4625802716,
				"z": -0.5366597458,
				"element": "C" 
			},
			{
				"x": -1.2760869747,
				"y": 2.1661784495,
				"z": -1.6426932923,
				"element": "C" 
			},
			{
				"x": 0.7364793799,
				"y": 1.8468970184,
				"z": 1.8727287134,
				"element": "S" 
			},
			{
				"x": 0.77192314,
				"y": 3.3025683802,
				"z": 2.0250939173,
				"element": "O" 
			},
			{
				"x": 0.3255973569,
				"y": 0.9455052451,
				"z": 2.9510940923,
				"element": "O" 
			},
			{
				"x": 2.2898957751,
				"y": 1.3914145858,
				"z": 1.4450287224,
				"element": "N" 
			},
			{
				"x": 3.0060101523,
				"y": 2.2222767058,
				"z": 0.4599640207,
				"element": "C" 
			},
			{
				"x": 4.39568943,
				"y": 1.6267585276,
				"z": 0.2558637921,
				"element": "C" 
			},
			{
				"x": 4.3600504915,
				"y": 0.3022528133,
				"z": -0.2670459856,
				"element": "O" 
			},
			{
				"x": 3.2342941765,
				"y": -0.4733698848,
				"z": 0.1409522346,
				"element": "C" 
			},
			{
				"x": 2.674210923,
				"y": -0.0336893979,
				"z": 1.4907782492,
				"element": "C" 
			},
			{
				"x": -1.1929173125,
				"y": -2.9318679255,
				"z": -3.0155733242,
				"element": "H" 
			},
			{
				"x": -3.7245409523,
				"y": -0.2738322688,
				"z": -4.5342528273,
				"element": "H" 
			},
			{
				"x": -3.2128849014,
				"y": 1.6064619561,
				"z": -3.3190123716,
				"element": "H" 
			},
			{
				"x": -2.2218853188,
				"y": -0.997923284,
				"z": -0.8301834356,
				"element": "H" 
			},
			{
				"x": -0.8588707455,
				"y": -0.4637572413,
				"z": 1.1676108159,
				"element": "H" 
			},
			{
				"x": -0.0355404065,
				"y": 3.4420146421,
				"z": -0.4184230616,
				"element": "H" 
			},
			{
				"x": -1.4273757056,
				"y": 2.9227098535,
				"z": -2.4078410616,
				"element": "H" 
			},
			{
				"x": 2.4799796566,
				"y": 2.2533106983,
				"z": -0.5065258939,
				"element": "H" 
			},
			{
				"x": 3.0821013558,
				"y": 3.2426171962,
				"z": 0.8425250162,
				"element": "H" 
			},
			{
				"x": 4.9518456794,
				"y": 2.2351180891,
				"z": -0.4640593244,
				"element": "H" 
			},
			{
				"x": 4.9433322613,
				"y": 1.6496160095,
				"z": 1.2101528911,
				"element": "H" 
			},
			{
				"x": 2.4414001943,
				"y": -0.4157522732,
				"z": -0.6205354584,
				"element": "H" 
			},
			{
				"x": 3.5681963997,
				"y": -1.5151579491,
				"z": 0.1977816716,
				"element": "H" 
			},
			{
				"x": 1.8093658649,
				"y": -0.6412728537,
				"z": 1.7646288422,
				"element": "H" 
			},
			{
				"x": 3.425626146,
				"y": -0.1764154249,
				"z": 2.2766034497,
				"element": "H" 
			}
		],
		 "valence_orbital": [ 
			{
				"type": "occ",
				"energy": -0.2876,
				"method": "rhf"
			},
			{
				"type": "occ",
				"energy": -0.27814,
				"method": "rhf"
			},
			{
				"type": "occ",
				"energy": -0.27122,
				"method": "rhf"
			},
			{
				"type": "occ",
				"energy": -0.26187,
				"method": "rhf"
			},
			{
				"type": "occ",
				"energy": -0.24878,
				"method": "rhf"
			},
			{
				"type": "unocc",
				"energy": -0.08507,
				"method": "rhf"
			},
			{
				"type": "unocc",
				"energy": -0.03001,
				"method": "rhf"
			},
			{
				"type": "unocc",
				"energy": -0.01961,
				"method": "rhf"
			},
			{
				"type": "unocc",
				"energy": 0.05067,
				"method": "rhf"
			},
			{
				"type": "unocc",
				"energy": 0.06392,
				"method": "rhf"
			}
		],
		"cosmo_sigma_profile": { 
			"-0.025": 0.0,
			"-0.024": 0.0,
			"-0.023": 0.0,
			"-0.022": 0.0,
			"-0.021": 0.0,
			"-0.02": 0.0,
			"-0.019": 0.0747486710352,
			"-0.018": 0.621438601892,
			"-0.017": 0.925900265019,
			"-0.016": 0.95439791147,
			"-0.015": 0.655580920561,
			"-0.014": 0.676342266116,
			"-0.013": 0.413564805198,
			"-0.012": 0.283127469838,
			"-0.011": 1.02201159888,
			"-0.01": 1.04954866306,
			"-0.009": 0.711424429267,
			"-0.008": 4.09328062331,
			"-0.007": 11.3502808467,
			"-0.006": 24.8306305099,
			"-0.005": 30.625085853,
			"-0.004": 30.7751033461,
			"-0.003": 23.1565903086,
			"-0.002": 19.0672721514,
			"-0.001": 16.3626380158,
			"0.0": 18.2547018294,
			"0.001": 17.7093739404,
			"0.002": 20.566550805,
			"0.003": 10.6794573693,
			"0.004": 7.87968455776,
			"0.005": 8.50743722188,
			"0.006": 7.85899356394,
			"0.007": 7.19880332154,
			"0.008": 7.84570589659,
			"0.009": 5.37642966766,
			"0.01": 9.44573275676,
			"0.011": 13.077260449,
			"0.012": 9.27060107599,
			"0.013": 2.78715058786,
			"0.014": 0.188856586786,
			"0.015": 0.0,
			"0.016": 0.0,
			"0.017": 0.0,
			"0.018": 0.0,
			"0.019": 0.0,
			"0.02": 0.0,
			"0.021": 0.0,
			"0.022": 0.0,
			"0.023": 0.0,
			"0.024": 0.0,
			"0.0": 0.0
		}
	}
}
