{
	 "smiles": "CC1=C2C=C(NC2=CC=C1)C(O)=O", 
	 "Tm": 490.15, 
	 "num_atms": 22, 
	 "gaussian": { 
		 "optdone": 1, 
		 "sigma_profile": "yes", 
		 "theory": "DFT", 
		 "functional": "B3LYP", 
		 "basiset": "6-31G**", 
		 "properties": { 
			 "R2extent": 4324.0588, 
			 "electric_dipole_moment_norm": 4.54550864261, 
			 "electric_quadrupole_moment_norm": 25.1431977332, 
			 "total_energy": -591.705768996, 
			 "HOMO_LUMO_gap": 0.16778, 
			 "cosmo_polarized_energy": -17.64, 
			 "cosmo_cavitation_energy": 26.46, 
			 "cosmo_dispersion_energy": -19.42, 
			 "cosmo_repulsion_energy": 1.52, 
			 "cosmo_total_nonelectrostatic_energy": 8.57, 
			 "SMD_solvation_energy": 5.41 
		},
		"coords": [
			{
				"x": 0.1314680088,
				"y": 1.9881859672,
				"z": 1.5629864786,
				"element": "C" 
			},
			{
				"x": 0.8607222546,
				"y": 1.3031104906,
				"z": 0.4361724997,
				"element": "C" 
			},
			{
				"x": 1.5883445378,
				"y": 0.1101311019,
				"z": 0.6635643298,
				"element": "C" 
			},
			{
				"x": 1.8430053034,
				"y": -0.6748648346,
				"z": 1.8341567211,
				"element": "C" 
			},
			{
				"x": 2.6212850077,
				"y": -1.7416430054,
				"z": 1.4556156874,
				"element": "C" 
			},
			{
				"x": 2.8443117001,
				"y": -1.6836970269,
				"z": 0.0748451306,
				"element": "N" 
			},
			{
				"x": 2.2587071882,
				"y": -0.5282946572,
				"z": -0.4150189619,
				"element": "C" 
			},
			{
				"x": 2.2597231546,
				"y": -0.004663622,
				"z": -1.7131976741,
				"element": "C" 
			},
			{
				"x": 1.5517784957,
				"y": 1.171662954,
				"z": -1.9137637159,
				"element": "C" 
			},
			{
				"x": 0.8621587792,
				"y": 1.8085179233,
				"z": -0.8588922931,
				"element": "C" 
			},
			{
				"x": 3.103214028,
				"y": -2.8519625356,
				"z": 2.2956450999,
				"element": "C" 
			},
			{
				"x": 3.4362229689,
				"y": -3.9956658484,
				"z": 1.6193004903,
				"element": "O" 
			},
			{
				"x": 3.2196885059,
				"y": -2.7918203033,
				"z": 3.4961788666,
				"element": "O" 
			},
			{
				"x": -0.6249635621,
				"y": 1.3302858501,
				"z": 2.0071339819,
				"element": "H" 
			},
			{
				"x": 0.8193075151,
				"y": 2.2727005388,
				"z": 2.3681241088,
				"element": "H" 
			},
			{
				"x": -0.3725082015,
				"y": 2.8939331312,
				"z": 1.2160791649,
				"element": "H" 
			},
			{
				"x": 1.4773238303,
				"y": -0.5118476946,
				"z": 2.8373169356,
				"element": "H" 
			},
			{
				"x": 3.6363620139,
				"y": -2.1235508929,
				"z": -0.3718689724,
				"element": "H" 
			},
			{
				"x": 2.7834681926,
				"y": -0.497464726,
				"z": -2.5267873604,
				"element": "H" 
			},
			{
				"x": 1.5215286853,
				"y": 1.613095188,
				"z": -2.9055697613,
				"element": "H" 
			},
			{
				"x": 0.3174439263,
				"y": 2.7253851515,
				"z": -1.0676432506,
				"element": "H" 
			},
			{
				"x": 3.0274076675,
				"y": -3.9838331498,
				"z": 0.7412224945,
				"element": "H" 
			}
		],
		 "valence_orbital": [ 
			{
				"type": "occ",
				"energy": -0.31762,
				"method": "rhf"
			},
			{
				"type": "occ",
				"energy": -0.28805,
				"method": "rhf"
			},
			{
				"type": "occ",
				"energy": -0.27557,
				"method": "rhf"
			},
			{
				"type": "occ",
				"energy": -0.2373,
				"method": "rhf"
			},
			{
				"type": "occ",
				"energy": -0.21989,
				"method": "rhf"
			},
			{
				"type": "unocc",
				"energy": -0.05211,
				"method": "rhf"
			},
			{
				"type": "unocc",
				"energy": 0.00702,
				"method": "rhf"
			},
			{
				"type": "unocc",
				"energy": 0.021,
				"method": "rhf"
			},
			{
				"type": "unocc",
				"energy": 0.04471,
				"method": "rhf"
			},
			{
				"type": "unocc",
				"energy": 0.08967,
				"method": "rhf"
			}
		],
		"cosmo_sigma_profile": { 
			"-0.025": 0.0,
			"-0.024": 0.0,
			"-0.023": 0.0,
			"-0.022": 0.0,
			"-0.021": 0.0,
			"-0.02": 0.0,
			"-0.019": 0.0890812253302,
			"-0.018": 1.16923770943,
			"-0.017": 1.86272811523,
			"-0.016": 2.42382865246,
			"-0.015": 2.02622833702,
			"-0.014": 2.15618555953,
			"-0.013": 1.68757424594,
			"-0.012": 2.57656897148,
			"-0.011": 1.69310682777,
			"-0.01": 1.46518638869,
			"-0.009": 1.76188097014,
			"-0.008": 1.58437649922,
			"-0.007": 2.9042137473,
			"-0.006": 5.70096288136,
			"-0.005": 9.36940103589,
			"-0.004": 15.8969004169,
			"-0.003": 15.4646661225,
			"-0.002": 14.5454902299,
			"-0.001": 14.1774365925,
			"0.0": 14.4652771488,
			"0.001": 10.734559372,
			"0.002": 11.340336928,
			"0.003": 13.0371958476,
			"0.004": 16.3236584044,
			"0.005": 11.2104425048,
			"0.006": 8.09961667744,
			"0.007": 3.19394626973,
			"0.008": 2.93766653871,
			"0.009": 3.01129365275,
			"0.01": 4.46573996473,
			"0.011": 6.07671789521,
			"0.012": 5.44174491299,
			"0.013": 2.0386594392,
			"0.014": 0.0646236001737,
			"0.015": 0.0,
			"0.016": 0.0,
			"0.017": 0.0,
			"0.018": 0.0,
			"0.019": 0.0,
			"0.02": 0.0,
			"0.021": 0.0,
			"0.022": 0.0,
			"0.023": 0.0,
			"0.024": 0.0,
			"0.025": 0.0
		}
	}
}
