{
	 "smiles": "COC1=C(NC(=O)C2=C(NC(=O)CCC(O)=O)C=CC=C2)C=CC=C1", 
	 "Tm": 401.15, 
	 "num_atms": 43, 
	 "gaussian": { 
		 "optdone": 1, 
		 "sigma_profile": "yes", 
		 "theory": "DFT", 
		 "functional": "B3LYP", 
		 "basiset": "6-31G**", 
		 "properties": { 
			 "R2extent": 9796.5319, 
			 "electric_dipole_moment_norm": 4.40144931699, 
			 "electric_quadrupole_moment_norm": 43.009977237, 
			 "total_energy": -1182.43217559, 
			 "HOMO_LUMO_gap": 0.1499, 
			 "cosmo_polarized_energy": -25.05, 
			 "cosmo_cavitation_energy": 46.47, 
			 "cosmo_dispersion_energy": -31.34, 
			 "cosmo_repulsion_energy": 2.31, 
			 "cosmo_total_nonelectrostatic_energy": 17.43, 
			 "SMD_solvation_energy": 10.32 
		},
		"coords": [
			{
				"x": 3.5884508202,
				"y": 1.3553806803,
				"z": 1.2224308413,
				"element": "C" 
			},
			{
				"x": 2.1696436614,
				"y": 1.217979214,
				"z": 1.159606281,
				"element": "O" 
			},
			{
				"x": 1.3966159005,
				"y": 2.1579652302,
				"z": 1.7931241992,
				"element": "C" 
			},
			{
				"x": -0.0007879232,
				"y": 1.9347509059,
				"z": 1.7186448849,
				"element": "C" 
			},
			{
				"x": -0.3978362665,
				"y": 0.7815258266,
				"z": 1.0125938065,
				"element": "N" 
			},
			{
				"x": -1.6643475606,
				"y": 0.3595920649,
				"z": 0.7199104799,
				"element": "C" 
			},
			{
				"x": -2.6823466962,
				"y": 0.9482593767,
				"z": 1.0747274877,
				"element": "O" 
			},
			{
				"x": -1.7826935276,
				"y": -0.8868954914,
				"z": -0.1408123754,
				"element": "C" 
			},
			{
				"x": -0.8336069697,
				"y": -1.9184811885,
				"z": -0.300314791,
				"element": "C" 
			},
			{
				"x": 0.4045395458,
				"y": -1.9202714989,
				"z": 0.4269109841,
				"element": "N" 
			},
			{
				"x": 1.6816853394,
				"y": -2.0443293196,
				"z": -0.0527991909,
				"element": "C" 
			},
			{
				"x": 2.5923615363,
				"y": -2.3303579584,
				"z": 0.7330802609,
				"element": "O" 
			},
			{
				"x": 1.9409962981,
				"y": -1.7259024256,
				"z": -1.517088907,
				"element": "C" 
			},
			{
				"x": 3.2155294588,
				"y": -2.3824645385,
				"z": -2.0895918512,
				"element": "C" 
			},
			{
				"x": 4.5284945829,
				"y": -1.660446109,
				"z": -1.7644150157,
				"element": "C" 
			},
			{
				"x": 4.8199518696,
				"y": -1.527278413,
				"z": -0.4578305832,
				"element": "O" 
			},
			{
				"x": 5.2651767679,
				"y": -1.238266297,
				"z": -2.6252763676,
				"element": "O" 
			},
			{
				"x": -1.1224662092,
				"y": -3.0182166581,
				"z": -1.1194005231,
				"element": "C" 
			},
			{
				"x": -2.3244247907,
				"y": -3.0920684313,
				"z": -1.8180991755,
				"element": "C" 
			},
			{
				"x": -3.2716314834,
				"y": -2.0784198801,
				"z": -1.6659678658,
				"element": "C" 
			},
			{
				"x": -3.0032542902,
				"y": -1.0038348258,
				"z": -0.8251143708,
				"element": "C" 
			},
			{
				"x": -0.8746600145,
				"y": 2.8378078449,
				"z": 2.3303183612,
				"element": "C" 
			},
			{
				"x": -0.3653285399,
				"y": 3.9489227971,
				"z": 3.0084912189,
				"element": "C" 
			},
			{
				"x": 1.006954384,
				"y": 4.1644076613,
				"z": 3.0806401631,
				"element": "C" 
			},
			{
				"x": 1.8928310556,
				"y": 3.2683192183,
				"z": 2.4719632241,
				"element": "C" 
			},
			{
				"x": 3.9392328836,
				"y": 1.3312536249,
				"z": 2.2608014966,
				"element": "H" 
			},
			{
				"x": 4.005405623,
				"y": 0.5086270225,
				"z": 0.6781743371,
				"element": "H" 
			},
			{
				"x": 3.9145786447,
				"y": 2.289732963,
				"z": 0.7506224097,
				"element": "H" 
			},
			{
				"x": 0.3730802816,
				"y": 0.2351411798,
				"z": 0.6557961375,
				"element": "H" 
			},
			{
				"x": 0.3547167174,
				"y": -2.0481424524,
				"z": 1.4334472209,
				"element": "H" 
			},
			{
				"x": 1.0779662385,
				"y": -2.0100329396,
				"z": -2.1215020501,
				"element": "H" 
			},
			{
				"x": 2.0073810162,
				"y": -0.6314624085,
				"z": -1.5915849888,
				"element": "H" 
			},
			{
				"x": 3.2849619436,
				"y": -3.4185664849,
				"z": -1.7364357496,
				"element": "H" 
			},
			{
				"x": 3.1474994817,
				"y": -2.4054841812,
				"z": -3.1779879791,
				"element": "H" 
			},
			{
				"x": 4.0961177631,
				"y": -1.9261923721,
				"z": 0.0898427041,
				"element": "H" 
			},
			{
				"x": -0.3996888126,
				"y": -3.8259978044,
				"z": -1.1837524493,
				"element": "H" 
			},
			{
				"x": -2.526701981,
				"y": -3.947544981,
				"z": -2.4552382564,
				"element": "H" 
			},
			{
				"x": -4.2197694144,
				"y": -2.1305515116,
				"z": -2.1920279566,
				"element": "H" 
			},
			{
				"x": -3.7334465029,
				"y": -0.2178074042,
				"z": -0.6700481917,
				"element": "H" 
			},
			{
				"x": -1.9379251754,
				"y": 2.657983192,
				"z": 2.2642647429,
				"element": "H" 
			},
			{
				"x": -1.0540489033,
				"y": 4.6431302325,
				"z": 3.4797510353,
				"element": "H" 
			},
			{
				"x": 1.402280361,
				"y": 5.0272986349,
				"z": 3.6078379807,
				"element": "H" 
			},
			{
				"x": 2.9604128865,
				"y": 3.4417379049,
				"z": 2.5303083813,
				"element": "H" 
			}
		],
		 "valence_orbital": [ 
			{
				"type": "occ",
				"energy": -0.27252,
				"method": "rhf"
			},
			{
				"type": "occ",
				"energy": -0.26407,
				"method": "rhf"
			},
			{
				"type": "occ",
				"energy": -0.25628,
				"method": "rhf"
			},
			{
				"type": "occ",
				"energy": -0.24048,
				"method": "rhf"
			},
			{
				"type": "occ",
				"energy": -0.21247,
				"method": "rhf"
			},
			{
				"type": "unocc",
				"energy": -0.06257,
				"method": "rhf"
			},
			{
				"type": "unocc",
				"energy": -0.0391,
				"method": "rhf"
			},
			{
				"type": "unocc",
				"energy": -0.01839,
				"method": "rhf"
			},
			{
				"type": "unocc",
				"energy": -0.0014,
				"method": "rhf"
			},
			{
				"type": "unocc",
				"energy": 0.00908,
				"method": "rhf"
			}
		],
		"cosmo_sigma_profile": { 
			"-0.025": 0.0,
			"-0.024": 0.0,
			"-0.023": 0.0,
			"-0.022": 0.0,
			"-0.021": 0.0,
			"-0.02": 0.0,
			"-0.019": 0.0,
			"-0.018": 0.0,
			"-0.017": 0.0,
			"-0.016": 0.263033413715,
			"-0.015": 0.920650626514,
			"-0.014": 1.14428125754,
			"-0.013": 0.686559219796,
			"-0.012": 1.16680765223,
			"-0.011": 1.83094397621,
			"-0.01": 1.7067603195,
			"-0.009": 1.79236867005,
			"-0.008": 4.70135850626,
			"-0.007": 14.2461746272,
			"-0.006": 25.1733490549,
			"-0.005": 33.0821099131,
			"-0.004": 30.5095812522,
			"-0.003": 29.9412098249,
			"-0.002": 23.4322932307,
			"-0.001": 21.3982780393,
			"0.0": 20.1471726243,
			"0.001": 20.2520156711,
			"0.002": 23.5553519707,
			"0.003": 26.5600966605,
			"0.004": 16.0859266641,
			"0.005": 13.9235459589,
			"0.006": 12.0367568735,
			"0.007": 4.98420376914,
			"0.008": 4.14585086398,
			"0.009": 5.68179339293,
			"0.01": 6.18253766548,
			"0.011": 7.53030721557,
			"0.012": 10.284082034,
			"0.013": 6.50655521121,
			"0.014": 1.34338714651,
			"0.015": 0.0,
			"0.016": 0.0,
			"0.017": 0.0,
			"0.018": 0.0,
			"0.019": 0.0,
			"0.02": 0.0,
			"0.021": 0.0,
			"0.022": 0.0,
			"0.023": 0.0,
			"0.024": 0.0,
			"0.025": 0.0
		}
	}
}
