{
	 "smiles": "CC(C)CC(N)CC(O)=O", 
	 "Tm": 523.15, 
	 "num_atms": 25, 
	 "gaussian": { 
		 "optdone": 1, 
		 "sigma_profile": "yes", 
		 "theory": "DFT", 
		 "functional": "B3LYP", 
		 "basiset": "6-31G**", 
		 "properties": { 
			 "R2extent": 2348.9655, 
			 "electric_dipole_moment_norm": 3.55784554049, 
			 "electric_quadrupole_moment_norm": 16.2089933315, 
			 "total_energy": -481.003844408, 
			 "HOMO_LUMO_gap": 0.24029, 
			 "cosmo_polarized_energy": -14.76, 
			 "cosmo_cavitation_energy": 26.64, 
			 "cosmo_dispersion_energy": -19.14, 
			 "cosmo_repulsion_energy": 1.57, 
			 "cosmo_total_nonelectrostatic_energy": 9.07, 
			 "SMD_solvation_energy": 4.39 
		},
		"coords": [
			{
				"x": 0.9847379769,
				"y": 2.7160407272,
				"z": 1.6430324088,
				"element": "C" 
			},
			{
				"x": -0.0323014837,
				"y": 1.628167887,
				"z": 2.0212173437,
				"element": "C" 
			},
			{
				"x": -0.2442780637,
				"y": 1.5980625123,
				"z": 3.5425285376,
				"element": "C" 
			},
			{
				"x": 0.3440509455,
				"y": 0.2201830641,
				"z": 1.5111500897,
				"element": "C" 
			},
			{
				"x": 0.5081134458,
				"y": 0.0732367741,
				"z": -0.0167611807,
				"element": "C" 
			},
			{
				"x": 1.9113551315,
				"y": 0.2686372925,
				"z": -0.4072277715,
				"element": "N" 
			},
			{
				"x": 0.0892694362,
				"y": -1.332905158,
				"z": -0.4734721566,
				"element": "C" 
			},
			{
				"x": 0.1263038456,
				"y": -1.5201690103,
				"z": -1.9842912762,
				"element": "C" 
			},
			{
				"x": -0.1988302551,
				"y": -2.7650066756,
				"z": -2.4239463428,
				"element": "O" 
			},
			{
				"x": 0.4021600925,
				"y": -0.6585210505,
				"z": -2.7850175896,
				"element": "O" 
			},
			{
				"x": 0.6827081809,
				"y": 3.6871875328,
				"z": 2.0498698816,
				"element": "H" 
			},
			{
				"x": 1.0755755552,
				"y": 2.8351947436,
				"z": 0.5585483917,
				"element": "H" 
			},
			{
				"x": 1.9784452235,
				"y": 2.4858973067,
				"z": 2.0479652508,
				"element": "H" 
			},
			{
				"x": -0.9918432393,
				"y": 1.8971205483,
				"z": 1.5544441053,
				"element": "H" 
			},
			{
				"x": -0.5721757045,
				"y": 2.5738743219,
				"z": 3.9165419421,
				"element": "H" 
			},
			{
				"x": 0.686136268,
				"y": 1.3390596891,
				"z": 4.0624565826,
				"element": "H" 
			},
			{
				"x": -1.0005396878,
				"y": 0.8584633988,
				"z": 3.8279003419,
				"element": "H" 
			},
			{
				"x": -0.4374751114,
				"y": -0.4693487785,
				"z": 1.8566017073,
				"element": "H" 
			},
			{
				"x": 1.2779757295,
				"y": -0.113924107,
				"z": 1.9841056791,
				"element": "H" 
			},
			{
				"x": -0.1767175869,
				"y": 0.7851890771,
				"z": -0.5110098521,
				"element": "H" 
			},
			{
				"x": 2.2627890202,
				"y": 1.1418811691,
				"z": -0.0273836182,
				"element": "H" 
			},
			{
				"x": 1.9551965467,
				"y": 0.3455223984,
				"z": -1.4209765616,
				"element": "H" 
			},
			{
				"x": -0.9325929292,
				"y": -1.555317066,
				"z": -0.135275873,
				"element": "H" 
			},
			{
				"x": 0.7554014759,
				"y": -2.0738477358,
				"z": -0.0110823301,
				"element": "H" 
			},
			{
				"x": -0.3830648127,
				"y": -3.3452788612,
				"z": -1.6715177097,
				"element": "H" 
			}
		],
		 "valence_orbital": [ 
			{
				"type": "occ",
				"energy": -0.32327,
				"method": "rhf"
			},
			{
				"type": "occ",
				"energy": -0.3198,
				"method": "rhf"
			},
			{
				"type": "occ",
				"energy": -0.31495,
				"method": "rhf"
			},
			{
				"type": "occ",
				"energy": -0.27296,
				"method": "rhf"
			},
			{
				"type": "occ",
				"energy": -0.23197,
				"method": "rhf"
			},
			{
				"type": "unocc",
				"energy": 0.00832,
				"method": "rhf"
			},
			{
				"type": "unocc",
				"energy": 0.05642,
				"method": "rhf"
			},
			{
				"type": "unocc",
				"energy": 0.07401,
				"method": "rhf"
			},
			{
				"type": "unocc",
				"energy": 0.10871,
				"method": "rhf"
			},
			{
				"type": "unocc",
				"energy": 0.1133,
				"method": "rhf"
			}
		],
		"cosmo_sigma_profile": { 
			"-0.025": 0.0,
			"-0.024": 0.0,
			"-0.023": 0.0,
			"-0.022": 0.0,
			"-0.021": 0.0,
			"-0.02": 0.0,
			"-0.019": 0.413408030865,
			"-0.018": 1.1142914063,
			"-0.017": 1.17273970805,
			"-0.016": 0.805777555154,
			"-0.015": 1.15052510998,
			"-0.014": 1.24322991953,
			"-0.013": 1.32781450447,
			"-0.012": 0.743688397095,
			"-0.011": 1.09543895002,
			"-0.01": 1.00848556275,
			"-0.009": 1.73509818735,
			"-0.008": 1.75287911366,
			"-0.007": 4.41596379373,
			"-0.006": 6.55701017914,
			"-0.005": 6.88122100479,
			"-0.004": 8.17419250431,
			"-0.003": 13.1405093179,
			"-0.002": 27.7145527429,
			"-0.001": 27.7837436024,
			"0.0": 20.4362265453,
			"0.001": 21.1146712638,
			"0.002": 12.0285760994,
			"0.003": 3.69198045094,
			"0.004": 2.53206759702,
			"0.005": 3.0229420584,
			"0.006": 3.55690784227,
			"0.007": 3.10608661947,
			"0.008": 3.3338553968,
			"0.009": 3.55966274306,
			"0.01": 5.08596135825,
			"0.011": 6.28843936996,
			"0.012": 3.69427128872,
			"0.013": 2.05683436238,
			"0.014": 1.2226578113,
			"0.015": 0.292839363569,
			"0.016": 0.291373136701,
			"0.017": 0.355452624573,
			"0.018": 0.573849163311,
			"0.019": 0.666379688563,
			"0.02": 0.0661842328528,
			"0.021": 0.0,
			"0.022": 0.0,
			"0.023": 0.0,
			"0.024": 0.0,
			"0.025": 0.0
		}
	}
}
