{
	 "smiles": "NNC(=O)C1=CC=CC=C1Br", 
	 "Tm": 426.15, 
	 "num_atms": 18, 
	 "gaussian": { 
		 "optdone": 1, 
		 "sigma_profile": "yes", 
		 "theory": "DFT", 
		 "functional": "B3LYP", 
		 "basiset": "6-31G**", 
		 "properties": { 
			 "R2extent": 3041.9773, 
			 "electric_dipole_moment_norm": 3.68256673259, 
			 "electric_quadrupole_moment_norm": 17.7637960284, 
			 "total_energy": -3027.0641862, 
			 "HOMO_LUMO_gap": 0.2152, 
			 "cosmo_polarized_energy": -15.22, 
			 "cosmo_cavitation_energy": 24.49, 
			 "cosmo_dispersion_energy": -18.2, 
			 "cosmo_repulsion_energy": 1.5, 
			 "cosmo_total_nonelectrostatic_energy": 7.78, 
			 "SMD_solvation_energy": 4.57 
		},
		"coords": [
			{
				"x": 1.6437530119,
				"y": 0.4952606896,
				"z": 0.9146855372,
				"element": "N" 
			},
			{
				"x": 0.8318143901,
				"y": 0.4720262311,
				"z": 2.0494329422,
				"element": "N" 
			},
			{
				"x": -0.4450661235,
				"y": -0.0230700705,
				"z": 2.0529816849,
				"element": "C" 
			},
			{
				"x": -1.1568554519,
				"y": 0.0805740212,
				"z": 3.0429476598,
				"element": "O" 
			},
			{
				"x": -0.9534555822,
				"y": -0.6559301192,
				"z": 0.781285352,
				"element": "C" 
			},
			{
				"x": -2.0889620515,
				"y": -0.0777381928,
				"z": 0.1973941194,
				"element": "C" 
			},
			{
				"x": -2.6709193094,
				"y": -0.6215932562,
				"z": -0.9450334865,
				"element": "C" 
			},
			{
				"x": -2.1366770844,
				"y": -1.7808860783,
				"z": -1.5083658648,
				"element": "C" 
			},
			{
				"x": -1.0293071401,
				"y": -2.3947234305,
				"z": -0.9233450035,
				"element": "C" 
			},
			{
				"x": -0.4490625358,
				"y": -1.8296346797,
				"z": 0.2111009038,
				"element": "C" 
			},
			{
				"x": 1.0269498124,
				"y": -2.7650404249,
				"z": 1.0033895815,
				"element": "Br" 
			},
			{
				"x": 1.9474415797,
				"y": 1.4447592144,
				"z": 0.7192869011,
				"element": "H" 
			},
			{
				"x": 2.4508326355,
				"y": -0.1098848712,
				"z": 1.0396225855,
				"element": "H" 
			},
			{
				"x": 1.1468564243,
				"y": 0.8453584492,
				"z": 2.9399695329,
				"element": "H" 
			},
			{
				"x": -2.5103716783,
				"y": 0.8087532731,
				"z": 0.660829146,
				"element": "H" 
			},
			{
				"x": -3.5423272535,
				"y": -0.1483466596,
				"z": -1.3868955861,
				"element": "H" 
			},
			{
				"x": -2.5840628909,
				"y": -2.2193283519,
				"z": -2.3954279366,
				"element": "H" 
			},
			{
				"x": -0.6195807525,
				"y": -3.3089557435,
				"z": -1.3372580685,
				"element": "H" 
			}
		],
		 "valence_orbital": [ 
			{
				"type": "occ",
				"energy": -0.28149,
				"method": "rhf"
			},
			{
				"type": "occ",
				"energy": -0.27014,
				"method": "rhf"
			},
			{
				"type": "occ",
				"energy": -0.25763,
				"method": "rhf"
			},
			{
				"type": "occ",
				"energy": -0.24706,
				"method": "rhf"
			},
			{
				"type": "occ",
				"energy": -0.23914,
				"method": "rhf"
			},
			{
				"type": "unocc",
				"energy": -0.02394,
				"method": "rhf"
			},
			{
				"type": "unocc",
				"energy": -0.01219,
				"method": "rhf"
			},
			{
				"type": "unocc",
				"energy": 0.00504,
				"method": "rhf"
			},
			{
				"type": "unocc",
				"energy": 0.03803,
				"method": "rhf"
			},
			{
				"type": "unocc",
				"energy": 0.07087,
				"method": "rhf"
			}
		],
		"cosmo_sigma_profile": { 
			"-0.025": 0.0,
			"-0.024": 0.0,
			"-0.023": 0.0,
			"-0.022": 0.0,
			"-0.021": 0.0,
			"-0.02": 0.0,
			"-0.019": 0.0,
			"-0.018": 0.0,
			"-0.017": 0.0,
			"-0.016": 0.0,
			"-0.015": 0.0,
			"-0.014": 0.601657125228,
			"-0.013": 1.52368346628,
			"-0.012": 2.60763207979,
			"-0.011": 4.21929687334,
			"-0.01": 4.61582616487,
			"-0.009": 3.72355638636,
			"-0.008": 4.13311469981,
			"-0.007": 8.10215522994,
			"-0.006": 10.2995124901,
			"-0.005": 10.6232908098,
			"-0.004": 11.0336680103,
			"-0.003": 9.53799511795,
			"-0.002": 8.68834817829,
			"-0.001": 9.66773733215,
			"0.0": 10.900999453,
			"0.001": 12.5846218467,
			"0.002": 16.1446716918,
			"0.003": 18.2392240087,
			"0.004": 17.713725049,
			"0.005": 5.57526195351,
			"0.006": 2.3655945934,
			"0.007": 3.00360936854,
			"0.008": 1.97527707,
			"0.009": 1.9391104236,
			"0.01": 2.66895057749,
			"0.011": 2.30393518539,
			"0.012": 2.93714406287,
			"0.013": 6.06539207575,
			"0.014": 3.80190742865,
			"0.015": 0.263827112391,
			"0.016": 0.0,
			"0.017": 0.0,
			"0.018": 0.0,
			"0.019": 0.0,
			"0.02": 0.0,
			"0.021": 0.0,
			"0.022": 0.0,
			"0.023": 0.0,
			"0.024": 0.0,
			"0.025": 0.0
		}
	}
}
