{
	 "smiles": "CC1=CC(O)=NC2=C1C=CC=C2", 
	 "Tm": 498.65, 
	 "num_atms": 21, 
	 "gaussian": { 
		 "optdone": 1, 
		 "sigma_profile": "yes", 
		 "theory": "DFT", 
		 "functional": "B3LYP", 
		 "basiset": "6-31G**", 
		 "properties": { 
			 "R2extent": 2797.0592, 
			 "electric_dipole_moment_norm": 1.50624145143, 
			 "electric_quadrupole_moment_norm": 9.23385132813, 
			 "total_energy": -516.489043599, 
			 "HOMO_LUMO_gap": 0.17689, 
			 "cosmo_polarized_energy": -8.11, 
			 "cosmo_cavitation_energy": 24.52, 
			 "cosmo_dispersion_energy": -18.48, 
			 "cosmo_repulsion_energy": 1.45, 
			 "cosmo_total_nonelectrostatic_energy": 7.49, 
			 "SMD_solvation_energy": 3.05 
		},
		"coords": [
			{
				"x": -1.6560172241,
				"y": -3.2768390109,
				"z": 1.5736852991,
				"element": "C" 
			},
			{
				"x": -1.2690877829,
				"y": -1.9932383187,
				"z": 0.8855217561,
				"element": "C" 
			},
			{
				"x": -0.8339602595,
				"y": -0.9115394297,
				"z": 1.6109863275,
				"element": "C" 
			},
			{
				"x": -0.4775157077,
				"y": 0.2830715576,
				"z": 0.926448634,
				"element": "C" 
			},
			{
				"x": -0.054914774,
				"y": 1.3202355529,
				"z": 1.6856626516,
				"element": "O" 
			},
			{
				"x": -0.5297298595,
				"y": 0.4454636497,
				"z": -0.3714367279,
				"element": "N" 
			},
			{
				"x": -0.9593729395,
				"y": -0.6140847384,
				"z": -1.1230345828,
				"element": "C" 
			},
			{
				"x": -1.3440368697,
				"y": -1.8648241565,
				"z": -0.5439137338,
				"element": "C" 
			},
			{
				"x": -1.7769064475,
				"y": -2.908303827,
				"z": -1.4007222673,
				"element": "C" 
			},
			{
				"x": -1.8288636201,
				"y": -2.7285120867,
				"z": -2.7679543545,
				"element": "C" 
			},
			{
				"x": -1.4481169926,
				"y": -1.4918758525,
				"z": -3.3353835362,
				"element": "C" 
			},
			{
				"x": -1.0224590558,
				"y": -0.456691121,
				"z": -2.5302944167,
				"element": "C" 
			},
			{
				"x": -1.5366409375,
				"y": -3.1918763034,
				"z": 2.6561838483,
				"element": "H" 
			},
			{
				"x": -1.0391674585,
				"y": -4.114487169,
				"z": 1.228870637,
				"element": "H" 
			},
			{
				"x": -2.6995779373,
				"y": -3.5400055914,
				"z": 1.366874273,
				"element": "H" 
			},
			{
				"x": -0.7541718727,
				"y": -0.941970711,
				"z": 2.6922253564,
				"element": "H" 
			},
			{
				"x": 0.1417439111,
				"y": 2.0383676757,
				"z": 1.0626296109,
				"element": "H" 
			},
			{
				"x": -2.0712173293,
				"y": -3.8614712297,
				"z": -0.972828494,
				"element": "H" 
			},
			{
				"x": -2.1627289876,
				"y": -3.5377220885,
				"z": -3.4105563851,
				"element": "H" 
			},
			{
				"x": -1.4919613201,
				"y": -1.3585646357,
				"z": -4.4126684551,
				"element": "H" 
			},
			{
				"x": -0.7248965352,
				"y": 0.5021678342,
				"z": -2.9422954405,
				"element": "H" 
			}
		],
		 "valence_orbital": [ 
			{
				"type": "occ",
				"energy": -0.30941,
				"method": "rhf"
			},
			{
				"type": "occ",
				"energy": -0.2917,
				"method": "rhf"
			},
			{
				"type": "occ",
				"energy": -0.26513,
				"method": "rhf"
			},
			{
				"type": "occ",
				"energy": -0.23649,
				"method": "rhf"
			},
			{
				"type": "occ",
				"energy": -0.22077,
				"method": "rhf"
			},
			{
				"type": "unocc",
				"energy": -0.04388,
				"method": "rhf"
			},
			{
				"type": "unocc",
				"energy": -0.00478,
				"method": "rhf"
			},
			{
				"type": "unocc",
				"energy": 0.02768,
				"method": "rhf"
			},
			{
				"type": "unocc",
				"energy": 0.09093,
				"method": "rhf"
			},
			{
				"type": "unocc",
				"energy": 0.09648,
				"method": "rhf"
			}
		],
		"cosmo_sigma_profile": { 
			"-0.025": 0.0,
			"-0.024": 0.0,
			"-0.023": 0.0,
			"-0.022": 0.0,
			"-0.021": 0.0,
			"-0.02": 0.0,
			"-0.019": 0.0,
			"-0.018": 0.0,
			"-0.017": 0.270261330662,
			"-0.016": 0.99340499307,
			"-0.015": 0.671892851348,
			"-0.014": 0.505615701609,
			"-0.013": 0.567484757795,
			"-0.012": 1.02368911161,
			"-0.011": 0.460104238471,
			"-0.01": 0.766697669763,
			"-0.009": 0.547368645512,
			"-0.008": 0.872302841297,
			"-0.007": 1.10632325718,
			"-0.006": 6.92761947434,
			"-0.005": 16.7753176244,
			"-0.004": 17.4900532801,
			"-0.003": 14.782995061,
			"-0.002": 13.3107431076,
			"-0.001": 13.9432198135,
			"0.0": 12.375161602,
			"0.001": 16.9852338373,
			"0.002": 16.2841851727,
			"0.003": 14.7616345372,
			"0.004": 14.4392934787,
			"0.005": 11.9218544602,
			"0.006": 3.55461834545,
			"0.007": 2.1392288159,
			"0.008": 3.15466670945,
			"0.009": 2.51728430352,
			"0.01": 2.86439840311,
			"0.011": 2.07611032891,
			"0.012": 0.526234302316,
			"0.013": 0.873394382077,
			"0.014": 0.234254341883,
			"0.015": 0.0,
			"0.016": 0.0,
			"0.017": 0.0,
			"0.018": 0.0,
			"0.019": 0.0,
			"0.02": 0.0,
			"0.021": 0.0,
			"0.022": 0.0,
			"0.023": 0.0,
			"0.024": 0.0,
			"0.025": 0.0
		}
	}
}
