{
	 "smiles": "[O-][N+](=O)C1=CC=CC(=C1)C(=O)C1=CC=CC=C1", 
	 "Tm": 366.15, 
	 "num_atms": 26, 
	 "gaussian": { 
		 "optdone": 1, 
		 "sigma_profile": "yes", 
		 "theory": "DFT", 
		 "functional": "B3LYP", 
		 "basiset": "6-31G**", 
		 "properties": { 
			 "R2extent": 6347.7996, 
			 "electric_dipole_moment_norm": 6.63852820209, 
			 "electric_quadrupole_moment_norm": 20.7840764669, 
			 "total_energy": -781.130008322, 
			 "HOMO_LUMO_gap": 0.16615, 
			 "cosmo_polarized_energy": -12.96, 
			 "cosmo_cavitation_energy": 31.76, 
			 "cosmo_dispersion_energy": -22.9, 
			 "cosmo_repulsion_energy": 1.76, 
			 "cosmo_total_nonelectrostatic_energy": 10.61, 
			 "SMD_solvation_energy": 8.11 
		},
		"coords": [
			{
				"x": -4.6939868846,
				"y": -2.5742751196,
				"z": 1.4422693784,
				"element": "O" 
			},
			{
				"x": -3.841391781,
				"y": -2.994080281,
				"z": 0.6634154102,
				"element": "N" 
			},
			{
				"x": -3.9100434134,
				"y": -4.0586310145,
				"z": 0.0500678968,
				"element": "O" 
			},
			{
				"x": -2.642726814,
				"y": -2.1611778972,
				"z": 0.4469756545,
				"element": "C" 
			},
			{
				"x": -1.6532022657,
				"y": -2.6236866405,
				"z": -0.4216405261,
				"element": "C" 
			},
			{
				"x": -0.5277382701,
				"y": -1.8301567783,
				"z": -0.6253683166,
				"element": "C" 
			},
			{
				"x": -0.3942809925,
				"y": -0.6110722211,
				"z": 0.0444897831,
				"element": "C" 
			},
			{
				"x": -1.3950998741,
				"y": -0.1618639438,
				"z": 0.919734291,
				"element": "C" 
			},
			{
				"x": -2.5430123574,
				"y": -0.943449679,
				"z": 1.1062386265,
				"element": "C" 
			},
			{
				"x": -1.35166835,
				"y": 1.1790617996,
				"z": 1.6053991603,
				"element": "C" 
			},
			{
				"x": -2.4039324183,
				"y": 1.7576924345,
				"z": 1.8451764271,
				"element": "O" 
			},
			{
				"x": -0.0423140323,
				"y": 1.7988417798,
				"z": 1.9835033726,
				"element": "C" 
			},
			{
				"x": 1.102027402,
				"y": 1.0450216776,
				"z": 2.2895490917,
				"element": "C" 
			},
			{
				"x": 2.2740277131,
				"y": 1.6814702106,
				"z": 2.6995239931,
				"element": "C" 
			},
			{
				"x": 2.3173436909,
				"y": 3.0733080769,
				"z": 2.7955576123,
				"element": "C" 
			},
			{
				"x": 1.179368176,
				"y": 3.8307358784,
				"z": 2.4999317622,
				"element": "C" 
			},
			{
				"x": 0.0040027204,
				"y": 3.1972404874,
				"z": 2.1091764369,
				"element": "C" 
			},
			{
				"x": -1.7833881991,
				"y": -3.5774667663,
				"z": -0.9173009909,
				"element": "H" 
			},
			{
				"x": 0.2477653066,
				"y": -2.1605045855,
				"z": -1.3089721579,
				"element": "H" 
			},
			{
				"x": 0.481679276,
				"y": 0.0036855452,
				"z": -0.1320714566,
				"element": "H" 
			},
			{
				"x": -3.340287568,
				"y": -0.5983731562,
				"z": 1.7521765628,
				"element": "H" 
			},
			{
				"x": 1.0702942626,
				"y": -0.0382724869,
				"z": 2.2373161579,
				"element": "H" 
			},
			{
				"x": 3.1505747111,
				"y": 1.0903702961,
				"z": 2.9476243471,
				"element": "H" 
			},
			{
				"x": 3.2331659049,
				"y": 3.5675195333,
				"z": 3.1068429529,
				"element": "H" 
			},
			{
				"x": 1.2102476145,
				"y": 4.9132173939,
				"z": 2.5812898321,
				"element": "H" 
			},
			{
				"x": -0.8957235577,
				"y": 3.7647454568,
				"z": 1.8961946987,
				"element": "H" 
			}
		],
		 "valence_orbital": [ 
			{
				"type": "occ",
				"energy": -0.29062,
				"method": "rhf"
			},
			{
				"type": "occ",
				"energy": -0.28576,
				"method": "rhf"
			},
			{
				"type": "occ",
				"energy": -0.27307,
				"method": "rhf"
			},
			{
				"type": "occ",
				"energy": -0.27074,
				"method": "rhf"
			},
			{
				"type": "occ",
				"energy": -0.2599,
				"method": "rhf"
			},
			{
				"type": "unocc",
				"energy": -0.09375,
				"method": "rhf"
			},
			{
				"type": "unocc",
				"energy": -0.07941,
				"method": "rhf"
			},
			{
				"type": "unocc",
				"energy": -0.03113,
				"method": "rhf"
			},
			{
				"type": "unocc",
				"energy": -0.02132,
				"method": "rhf"
			},
			{
				"type": "unocc",
				"energy": -0.00891,
				"method": "rhf"
			}
		],
		"cosmo_sigma_profile": { 
			"-0.025": 0.0,
			"-0.024": 0.0,
			"-0.023": 0.0,
			"-0.022": 0.0,
			"-0.021": 0.0,
			"-0.02": 0.0,
			"-0.019": 0.0,
			"-0.018": 0.0,
			"-0.017": 0.0,
			"-0.016": 0.0,
			"-0.015": 0.0,
			"-0.014": 0.0,
			"-0.013": 0.0,
			"-0.012": 0.0,
			"-0.011": 0.0,
			"-0.01": 0.0,
			"-0.009": 0.0813442840961,
			"-0.008": 3.10031027598,
			"-0.007": 10.5410490688,
			"-0.006": 16.3069299408,
			"-0.005": 22.0896017298,
			"-0.004": 21.0759476534,
			"-0.003": 17.727759824,
			"-0.002": 18.4088991124,
			"-0.001": 21.5936901795,
			"0.0": 21.370010108,
			"0.001": 16.5375007186,
			"0.002": 12.9328337477,
			"0.003": 14.0233692159,
			"0.004": 15.0601354236,
			"0.005": 4.74480170671,
			"0.006": 6.55651943032,
			"0.007": 9.92855238337,
			"0.008": 8.53808792139,
			"0.009": 5.78188700116,
			"0.01": 3.65853644903,
			"0.011": 3.93792384273,
			"0.012": 2.17552280386,
			"0.013": 0.00705295484902,
			"0.014": 0.0,
			"0.015": 0.0,
			"0.016": 0.0,
			"0.017": 0.0,
			"0.018": 0.0,
			"0.019": 0.0,
			"0.02": 0.0,
			"0.021": 0.0,
			"0.022": 0.0,
			"0.023": 0.0,
			"0.024": 0.0,
			"0.025": 0.0
		}
	}
}
