{
	 "smiles": "CC(C)(C)OC(=O)NC1=CC(=CC=C1)C(N)=NO", 
	 "Tm": 442.15, 
	 "num_atms": 35, 
	 "gaussian": { 
		 "optdone": 1, 
		 "sigma_profile": "yes", 
		 "theory": "DFT", 
		 "functional": "B3LYP", 
		 "basiset": "6-31G**", 
		 "properties": { 
			 "R2extent": 7117.5205, 
			 "electric_dipole_moment_norm": 1.13960583537, 
			 "electric_quadrupole_moment_norm": 16.4601632513, 
			 "total_energy": -857.428123821, 
			 "HOMO_LUMO_gap": 0.18043, 
			 "cosmo_polarized_energy": -19.16, 
			 "cosmo_cavitation_energy": 38.45, 
			 "cosmo_dispersion_energy": -26.97, 
			 "cosmo_repulsion_energy": 2.11, 
			 "cosmo_total_nonelectrostatic_energy": 13.59, 
			 "SMD_solvation_energy": 7.48 
		},
		"coords": [
			{
				"x": -2.0041190645,
				"y": 2.6779165385,
				"z": 2.7547501107,
				"element": "C" 
			},
			{
				"x": -1.174662871,
				"y": 1.4697483306,
				"z": 3.1961582425,
				"element": "C" 
			},
			{
				"x": 0.1119820706,
				"y": 1.9178094005,
				"z": 3.8958480263,
				"element": "C" 
			},
			{
				"x": -2.0118969517,
				"y": 0.5214936291,
				"z": 4.0597525114,
				"element": "C" 
			},
			{
				"x": -0.8473601205,
				"y": 0.81955688,
				"z": 1.9087541801,
				"element": "O" 
			},
			{
				"x": -0.1156775127,
				"y": -0.3077460141,
				"z": 1.877947894,
				"element": "C" 
			},
			{
				"x": 0.3535939539,
				"y": -0.89543859,
				"z": 2.8391358018,
				"element": "O" 
			},
			{
				"x": 0.077990223,
				"y": -0.7878757552,
				"z": 0.5964979409,
				"element": "N" 
			},
			{
				"x": -0.3463774843,
				"y": -0.3739121158,
				"z": -0.6823586964,
				"element": "C" 
			},
			{
				"x": -0.1276132951,
				"y": -1.2767535175,
				"z": -1.7360392405,
				"element": "C" 
			},
			{
				"x": -0.4763930957,
				"y": -0.9605121546,
				"z": -3.0527203097,
				"element": "C" 
			},
			{
				"x": -1.0599527227,
				"y": 0.2833194795,
				"z": -3.3274004775,
				"element": "C" 
			},
			{
				"x": -1.2880120085,
				"y": 1.1728720162,
				"z": -2.2813447058,
				"element": "C" 
			},
			{
				"x": -0.9377198638,
				"y": 0.8653599646,
				"z": -0.9661243715,
				"element": "C" 
			},
			{
				"x": -0.2463390074,
				"y": -1.9642092051,
				"z": -4.1328421402,
				"element": "C" 
			},
			{
				"x": -0.7660146973,
				"y": -3.2356432084,
				"z": -3.9058551115,
				"element": "N" 
			},
			{
				"x": 0.3338067491,
				"y": -1.7687094315,
				"z": -5.2678780594,
				"element": "N" 
			},
			{
				"x": 0.7685979355,
				"y": -0.4271196602,
				"z": -5.426687314,
				"element": "O" 
			},
			{
				"x": -1.4159915504,
				"y": 3.3393674372,
				"z": 2.1115864539,
				"element": "H" 
			},
			{
				"x": -2.3267191348,
				"y": 3.2485145,
				"z": 3.630527918,
				"element": "H" 
			},
			{
				"x": -2.8933932025,
				"y": 2.357315078,
				"z": 2.2044062889,
				"element": "H" 
			},
			{
				"x": 0.7135016329,
				"y": 1.0602754611,
				"z": 4.1972586918,
				"element": "H" 
			},
			{
				"x": 0.7052787286,
				"y": 2.5531071479,
				"z": 3.2306813164,
				"element": "H" 
			},
			{
				"x": -0.1423156845,
				"y": 2.5027560874,
				"z": 4.7856749642,
				"element": "H" 
			},
			{
				"x": -2.3478579652,
				"y": 1.0487304468,
				"z": 4.9584582464,
				"element": "H" 
			},
			{
				"x": -2.8982424489,
				"y": 0.1890934044,
				"z": 3.5102454416,
				"element": "H" 
			},
			{
				"x": -1.431435224,
				"y": -0.3510560348,
				"z": 4.3594251983,
				"element": "H" 
			},
			{
				"x": 0.6070217074,
				"y": -1.6480887477,
				"z": 0.6264906108,
				"element": "H" 
			},
			{
				"x": 0.3470253621,
				"y": -2.2318936044,
				"z": -1.519743502,
				"element": "H" 
			},
			{
				"x": -1.3188583754,
				"y": 0.5413426355,
				"z": -4.3462962398,
				"element": "H" 
			},
			{
				"x": -1.7443008774,
				"y": 2.1367079273,
				"z": -2.4885476898,
				"element": "H" 
			},
			{
				"x": -1.1138625661,
				"y": 1.5749335004,
				"z": -0.1718283713,
				"element": "H" 
			},
			{
				"x": -0.381995283,
				"y": -3.9566298001,
				"z": -4.5022546755,
				"element": "H" 
			},
			{
				"x": -0.879112133,
				"y": -3.5050739731,
				"z": -2.9408706348,
				"element": "H" 
			},
			{
				"x": 1.1885247777,
				"y": -0.4705580525,
				"z": -6.2948082981,
				"element": "H" 
			}
		],
		 "valence_orbital": [ 
			{
				"type": "occ",
				"energy": -0.27326,
				"method": "rhf"
			},
			{
				"type": "occ",
				"energy": -0.26422,
				"method": "rhf"
			},
			{
				"type": "occ",
				"energy": -0.25387,
				"method": "rhf"
			},
			{
				"type": "occ",
				"energy": -0.22009,
				"method": "rhf"
			},
			{
				"type": "occ",
				"energy": -0.20102,
				"method": "rhf"
			},
			{
				"type": "unocc",
				"energy": -0.02059,
				"method": "rhf"
			},
			{
				"type": "unocc",
				"energy": -0.00662,
				"method": "rhf"
			},
			{
				"type": "unocc",
				"energy": 0.04541,
				"method": "rhf"
			},
			{
				"type": "unocc",
				"energy": 0.06708,
				"method": "rhf"
			},
			{
				"type": "unocc",
				"energy": 0.07142,
				"method": "rhf"
			}
		],
		"cosmo_sigma_profile": { 
			"-0.025": 0.0,
			"-0.024": 0.0,
			"-0.023": 0.0,
			"-0.022": 0.0,
			"-0.021": 0.0,
			"-0.02": 0.0,
			"-0.019": 0.0,
			"-0.018": 0.0,
			"-0.017": 0.121619968496,
			"-0.016": 0.896054699525,
			"-0.015": 1.92348285997,
			"-0.014": 2.27588231801,
			"-0.013": 2.84808952062,
			"-0.012": 4.25541872259,
			"-0.011": 4.07296947469,
			"-0.01": 3.51266414131,
			"-0.009": 4.63717962014,
			"-0.008": 4.38484287588,
			"-0.007": 3.9908508474,
			"-0.006": 5.90131871101,
			"-0.005": 8.6835132776,
			"-0.004": 20.6873076176,
			"-0.003": 23.6281922232,
			"-0.002": 21.8810911147,
			"-0.001": 28.3179506209,
			"0.0": 33.1364623636,
			"0.001": 25.4821547757,
			"0.002": 14.4546954409,
			"0.003": 14.2344374412,
			"0.004": 15.7614547845,
			"0.005": 10.9912264443,
			"0.006": 6.01452193397,
			"0.007": 6.77030191932,
			"0.008": 7.35029661735,
			"0.009": 5.0363301152,
			"0.01": 4.55462859175,
			"0.011": 4.42443284024,
			"0.012": 5.9595478572,
			"0.013": 4.8882164331,
			"0.014": 1.22431386197,
			"0.015": 0.082129245948,
			"0.016": 0.0,
			"0.017": 0.0,
			"0.018": 0.0,
			"0.019": 0.0,
			"0.02": 0.0,
			"0.021": 0.0,
			"0.022": 0.0,
			"0.023": 0.0,
			"0.024": 0.0,
			"0.025": 0.0
		}
	}
}
