{
	 "smiles": "CCCC1=C(C(=NN1)C(O)=O)[N+]([O-])=O", 
	 "Tm": 432.15, 
	 "num_atms": 23, 
	 "gaussian": { 
		 "optdone": 1, 
		 "sigma_profile": "yes", 
		 "theory": "DFT", 
		 "functional": "B3LYP", 
		 "basiset": "6-31G**", 
		 "properties": { 
			 "R2extent": 4931.6797, 
			 "electric_dipole_moment_norm": 4.90863786707, 
			 "electric_quadrupole_moment_norm": 13.7848669442, 
			 "total_energy": -737.211558104, 
			 "HOMO_LUMO_gap": 0.19117, 
			 "cosmo_polarized_energy": -20.54, 
			 "cosmo_cavitation_energy": 28.44, 
			 "cosmo_dispersion_energy": -19.93, 
			 "cosmo_repulsion_energy": 1.61, 
			 "cosmo_total_nonelectrostatic_energy": 10.13, 
			 "SMD_solvation_energy": 7.0 
		},
		"coords": [
			{
				"x": -2.6388348896,
				"y": -0.4206863332,
				"z": -1.3157393241,
				"element": "C" 
			},
			{
				"x": -1.7800641528,
				"y": 0.7038133669,
				"z": -0.7313419309,
				"element": "C" 
			},
			{
				"x": -0.3748115267,
				"y": 0.250647403,
				"z": -0.2726853512,
				"element": "C" 
			},
			{
				"x": -0.3923987745,
				"y": -0.7436720416,
				"z": 0.8467496516,
				"element": "C" 
			},
			{
				"x": -0.6481237861,
				"y": -0.6428299675,
				"z": 2.2151638941,
				"element": "C" 
			},
			{
				"x": -0.5427805096,
				"y": -1.9571968949,
				"z": 2.7458148186,
				"element": "C" 
			},
			{
				"x": -0.2485826822,
				"y": -2.8209650095,
				"z": 1.784367304,
				"element": "N" 
			},
			{
				"x": -0.1643532594,
				"y": -2.0641094836,
				"z": 0.6644477951,
				"element": "N" 
			},
			{
				"x": -0.6971962594,
				"y": -2.4542516907,
				"z": 4.1497949899,
				"element": "C" 
			},
			{
				"x": 0.169055069,
				"y": -1.8500545329,
				"z": 4.9841460346,
				"element": "O" 
			},
			{
				"x": -1.4737352419,
				"y": -3.3180120856,
				"z": 4.4808916906,
				"element": "O" 
			},
			{
				"x": -1.0126118049,
				"y": 0.5477548932,
				"z": 2.9194188139,
				"element": "N" 
			},
			{
				"x": -1.4212515079,
				"y": 0.4239563562,
				"z": 4.0738676729,
				"element": "O" 
			},
			{
				"x": -0.9061167952,
				"y": 1.6253198892,
				"z": 2.3202339451,
				"element": "O" 
			},
			{
				"x": -2.833520511,
				"y": -1.2081041823,
				"z": -0.5797357684,
				"element": "H" 
			},
			{
				"x": -2.155349641,
				"y": -0.8840242663,
				"z": -2.1843892435,
				"element": "H" 
			},
			{
				"x": -3.6083243372,
				"y": -0.0363132008,
				"z": -1.6464246091,
				"element": "H" 
			},
			{
				"x": -1.6402392683,
				"y": 1.4911108782,
				"z": -1.4811083291,
				"element": "H" 
			},
			{
				"x": -2.287203355,
				"y": 1.172054702,
				"z": 0.1178428235,
				"element": "H" 
			},
			{
				"x": 0.1644845561,
				"y": -0.1917651385,
				"z": -1.1203898041,
				"element": "H" 
			},
			{
				"x": 0.1903221789,
				"y": 1.1243878768,
				"z": 0.0600342272,
				"element": "H" 
			},
			{
				"x": 0.0585485197,
				"y": -2.5185627497,
				"z": -0.2096793303,
				"element": "H" 
			},
			{
				"x": -0.0179120208,
				"y": -2.1944977882,
				"z": 5.8741200298,
				"element": "H" 
			}
		],
		 "valence_orbital": [ 
			{
				"type": "occ",
				"energy": -0.30842,
				"method": "rhf"
			},
			{
				"type": "occ",
				"energy": -0.30592,
				"method": "rhf"
			},
			{
				"type": "occ",
				"energy": -0.29211,
				"method": "rhf"
			},
			{
				"type": "occ",
				"energy": -0.28422,
				"method": "rhf"
			},
			{
				"type": "occ",
				"energy": -0.27573,
				"method": "rhf"
			},
			{
				"type": "unocc",
				"energy": -0.08456,
				"method": "rhf"
			},
			{
				"type": "unocc",
				"energy": -0.02809,
				"method": "rhf"
			},
			{
				"type": "unocc",
				"energy": 0.0049,
				"method": "rhf"
			},
			{
				"type": "unocc",
				"energy": 0.04958,
				"method": "rhf"
			},
			{
				"type": "unocc",
				"energy": 0.05968,
				"method": "rhf"
			}
		],
		"cosmo_sigma_profile": { 
			"-0.025": 0.0,
			"-0.024": 0.0,
			"-0.023": 0.0,
			"-0.022": 0.0,
			"-0.021": 0.0,
			"-0.02": 0.0511549746876,
			"-0.019": 0.812990709134,
			"-0.018": 2.09998843549,
			"-0.017": 2.10500104762,
			"-0.016": 1.96357054088,
			"-0.015": 1.89548958721,
			"-0.014": 1.76410624196,
			"-0.013": 2.72883787193,
			"-0.012": 2.17732693873,
			"-0.011": 1.11448174133,
			"-0.01": 1.19275331061,
			"-0.009": 2.07556690592,
			"-0.008": 2.1663309257,
			"-0.007": 3.09537868707,
			"-0.006": 4.6089574441,
			"-0.005": 7.00046328777,
			"-0.004": 12.18682616,
			"-0.003": 26.1474480527,
			"-0.002": 21.4333266375,
			"-0.001": 18.9061189895,
			"0.0": 16.3801646562,
			"0.001": 12.5982758135,
			"0.002": 6.88343418025,
			"0.003": 6.71977996676,
			"0.004": 6.71099529968,
			"0.005": 4.75292733095,
			"0.006": 7.76151225458,
			"0.007": 9.66777700043,
			"0.008": 11.8912374103,
			"0.009": 9.17491423633,
			"0.01": 8.62772384017,
			"0.011": 5.82076329447,
			"0.012": 1.81503550894,
			"0.013": 0.651643790644,
			"0.014": 0.0,
			"0.015": 0.0,
			"0.016": 0.0,
			"0.017": 0.0,
			"0.018": 0.0,
			"0.019": 0.0,
			"0.02": 0.0,
			"0.021": 0.0,
			"0.022": 0.0,
			"0.023": 0.0,
			"0.024": 0.0,
			"0.025": 0.0
		}
	}
}
