{
	 "smiles": "OC(=O)C1=CC=C(C=C1)N1C=C(Br)C=N1", 
	 "Tm": 547.15, 
	 "num_atms": 22, 
	 "gaussian": { 
		 "optdone": 1, 
		 "sigma_profile": "yes", 
		 "theory": "DFT", 
		 "functional": "B3LYP", 
		 "basiset": "6-31G**", 
		 "properties": { 
			 "R2extent": 9276.3523, 
			 "electric_dipole_moment_norm": 3.05365941454, 
			 "electric_quadrupole_moment_norm": 22.7431495136, 
			 "total_energy": -3216.61650031, 
			 "HOMO_LUMO_gap": 0.17351, 
			 "cosmo_polarized_energy": -16.91, 
			 "cosmo_cavitation_energy": 30.04, 
			 "cosmo_dispersion_energy": -22.59, 
			 "cosmo_repulsion_energy": 1.74, 
			 "cosmo_total_nonelectrostatic_energy": 9.19, 
			 "SMD_solvation_energy": 4.88 
		},
		"coords": [
			{
				"x": -0.2750210317,
				"y": 2.5871142636,
				"z": 2.7729692612,
				"element": "O" 
			},
			{
				"x": -0.3260194972,
				"y": 1.2314977566,
				"z": 2.8702385747,
				"element": "C" 
			},
			{
				"x": -0.4076596537,
				"y": 0.7070955891,
				"z": 3.9563594681,
				"element": "O" 
			},
			{
				"x": -0.2768097434,
				"y": 0.4576396177,
				"z": 1.5889796493,
				"element": "C" 
			},
			{
				"x": -0.7142261867,
				"y": -0.8730861633,
				"z": 1.6161579794,
				"element": "C" 
			},
			{
				"x": -0.6973438221,
				"y": -1.6525263468,
				"z": 0.4666808829,
				"element": "C" 
			},
			{
				"x": -0.2095732914,
				"y": -1.1131980886,
				"z": -0.7316525247,
				"element": "C" 
			},
			{
				"x": 0.2501724327,
				"y": 0.2087107689,
				"z": -0.7713726537,
				"element": "C" 
			},
			{
				"x": 0.2105217478,
				"y": 0.9824352287,
				"z": 0.3830300867,
				"element": "C" 
			},
			{
				"x": -0.1695283008,
				"y": -1.8942177639,
				"z": -1.9118864646,
				"element": "N" 
			},
			{
				"x": -0.2988640084,
				"y": -3.25146258,
				"z": -2.0351889516,
				"element": "C" 
			},
			{
				"x": -0.1801028707,
				"y": -3.5258249106,
				"z": -3.3785066923,
				"element": "C" 
			},
			{
				"x": -0.2627043351,
				"y": -5.2167863761,
				"z": -4.1964366761,
				"element": "Br" 
			},
			{
				"x": 0.0235192841,
				"y": -2.2746319126,
				"z": -4.0051206323,
				"element": "C" 
			},
			{
				"x": 0.0308435308,
				"y": -1.2922676128,
				"z": -3.11528304,
				"element": "N" 
			},
			{
				"x": -0.3828663544,
				"y": 2.8635122225,
				"z": 1.8526387355,
				"element": "H" 
			},
			{
				"x": -1.0771754957,
				"y": -1.2783157482,
				"z": 2.5542129125,
				"element": "H" 
			},
			{
				"x": -1.0761677177,
				"y": -2.6675032069,
				"z": 0.5046415888,
				"element": "H" 
			},
			{
				"x": 0.6349784748,
				"y": 0.6044545463,
				"z": -1.7023562099,
				"element": "H" 
			},
			{
				"x": 0.6091612914,
				"y": 1.9928753978,
				"z": 0.3350761009,
				"element": "H" 
			},
			{
				"x": -0.4376915367,
				"y": -3.9109098266,
				"z": -1.1947075736,
				"element": "H" 
			},
			{
				"x": 0.159657084,
				"y": -2.0666048546,
				"z": -5.0568738213,
				"element": "H" 
			}
		],
		 "valence_orbital": [ 
			{
				"type": "occ",
				"energy": -0.2958,
				"method": "rhf"
			},
			{
				"type": "occ",
				"energy": -0.28405,
				"method": "rhf"
			},
			{
				"type": "occ",
				"energy": -0.27789,
				"method": "rhf"
			},
			{
				"type": "occ",
				"energy": -0.26687,
				"method": "rhf"
			},
			{
				"type": "occ",
				"energy": -0.24164,
				"method": "rhf"
			},
			{
				"type": "unocc",
				"energy": -0.06813,
				"method": "rhf"
			},
			{
				"type": "unocc",
				"energy": -0.03408,
				"method": "rhf"
			},
			{
				"type": "unocc",
				"energy": -0.00718,
				"method": "rhf"
			},
			{
				"type": "unocc",
				"energy": 0.00413,
				"method": "rhf"
			},
			{
				"type": "unocc",
				"energy": 0.04167,
				"method": "rhf"
			}
		],
		"cosmo_sigma_profile": { 
			"-0.025": 0.0,
			"-0.024": 0.0,
			"-0.023": 0.0,
			"-0.022": 0.0,
			"-0.021": 0.0,
			"-0.02": 0.0,
			"-0.019": 0.142073242413,
			"-0.018": 1.05893480812,
			"-0.017": 1.11290106222,
			"-0.016": 0.889004534613,
			"-0.015": 0.978265316326,
			"-0.014": 1.15035301513,
			"-0.013": 1.0886400951,
			"-0.012": 0.901601245042,
			"-0.011": 2.50341880165,
			"-0.01": 4.27474886228,
			"-0.009": 4.23161452268,
			"-0.008": 7.48558943303,
			"-0.007": 7.15327297003,
			"-0.006": 10.9516701587,
			"-0.005": 9.30099902988,
			"-0.004": 9.62780830751,
			"-0.003": 11.3713922414,
			"-0.002": 13.368172,
			"-0.001": 15.6497459601,
			"0.0": 18.677990234,
			"0.001": 22.4803401038,
			"0.002": 29.8905755467,
			"0.003": 16.491426017,
			"0.004": 14.6523593328,
			"0.005": 5.04332201414,
			"0.006": 4.50624162968,
			"0.007": 2.97462532321,
			"0.008": 5.08206663337,
			"0.009": 4.07621801746,
			"0.01": 5.78138962931,
			"0.011": 6.30336693336,
			"0.012": 5.1076650364,
			"0.013": 1.53780885713,
			"0.014": 0.0609572124206,
			"0.015": 0.0,
			"0.016": 0.0,
			"0.017": 0.0,
			"0.018": 0.0,
			"0.019": 0.0,
			"0.02": 0.0,
			"0.021": 0.0,
			"0.022": 0.0,
			"0.023": 0.0,
			"0.024": 0.0,
			"0.025": 0.0
		}
	}
}
