{
	 "smiles": "CC(C)(O)C1=CN(N=N1)C1=CC=CC=C1", 
	 "Tm": 363.15, 
	 "num_atms": 28, 
	 "gaussian": { 
		 "optdone": 1, 
		 "sigma_profile": "yes", 
		 "theory": "DFT", 
		 "functional": "B3LYP", 
		 "basiset": "6-31G**", 
		 "properties": { 
			 "R2extent": 4504.0262, 
			 "electric_dipole_moment_norm": 4.79406024681, 
			 "electric_quadrupole_moment_norm": 10.0683185399, 
			 "total_energy": -666.448295516, 
			 "HOMO_LUMO_gap": 0.20224, 
			 "cosmo_polarized_energy": -13.12, 
			 "cosmo_cavitation_energy": 31.61, 
			 "cosmo_dispersion_energy": -22.79, 
			 "cosmo_repulsion_energy": 1.77, 
			 "cosmo_total_nonelectrostatic_energy": 10.59, 
			 "SMD_solvation_energy": 4.49 
		},
		"coords": [
			{
				"x": -2.084599486,
				"y": -2.5919527955,
				"z": 3.3022203847,
				"element": "C" 
			},
			{
				"x": -1.9579944764,
				"y": -2.8524713947,
				"z": 1.7989259713,
				"element": "C" 
			},
			{
				"x": -3.3415468821,
				"y": -2.8474658744,
				"z": 1.1171113637,
				"element": "C" 
			},
			{
				"x": -1.3677650448,
				"y": -4.1454071462,
				"z": 1.6620169174,
				"element": "O" 
			},
			{
				"x": -1.0562957807,
				"y": -1.8336463574,
				"z": 1.130013191,
				"element": "C" 
			},
			{
				"x": -0.764821061,
				"y": -0.5173030219,
				"z": 1.4049681786,
				"element": "C" 
			},
			{
				"x": 0.1003541566,
				"y": -0.1412868819,
				"z": 0.4170741765,
				"element": "N" 
			},
			{
				"x": 0.3323119226,
				"y": -1.1785500617,
				"z": -0.4260057063,
				"element": "N" 
			},
			{
				"x": -0.3658990963,
				"y": -2.1885765339,
				"z": 0.0054514608,
				"element": "N" 
			},
			{
				"x": 0.7381101825,
				"y": 1.1143664379,
				"z": 0.2115327735,
				"element": "C" 
			},
			{
				"x": 1.9631232589,
				"y": 1.1566550133,
				"z": -0.4619508874,
				"element": "C" 
			},
			{
				"x": 2.5867736859,
				"y": 2.386114749,
				"z": -0.6631458483,
				"element": "C" 
			},
			{
				"x": 2.0055591909,
				"y": 3.5642385823,
				"z": -0.1880629786,
				"element": "C" 
			},
			{
				"x": 0.7829966957,
				"y": 3.5099606486,
				"z": 0.4827514037,
				"element": "C" 
			},
			{
				"x": 0.1394163905,
				"y": 2.2881904276,
				"z": 0.6782500277,
				"element": "C" 
			},
			{
				"x": -1.0985425118,
				"y": -2.6010755968,
				"z": 3.773774594,
				"element": "H" 
			},
			{
				"x": -2.6901002357,
				"y": -3.3811961573,
				"z": 3.7562414077,
				"element": "H" 
			},
			{
				"x": -2.5692028353,
				"y": -1.630711934,
				"z": 3.5022155665,
				"element": "H" 
			},
			{
				"x": -3.9684694033,
				"y": -3.6266942782,
				"z": 1.5605590361,
				"element": "H" 
			},
			{
				"x": -3.8442496125,
				"y": -1.8806805329,
				"z": 1.229524425,
				"element": "H" 
			},
			{
				"x": -3.2345806496,
				"y": -3.0543760241,
				"z": 0.0480183221,
				"element": "H" 
			},
			{
				"x": -0.9452372776,
				"y": -4.1666352506,
				"z": 0.7894559963,
				"element": "H" 
			},
			{
				"x": -1.0571722971,
				"y": 0.143591757,
				"z": 2.2037482771,
				"element": "H" 
			},
			{
				"x": 2.4040571161,
				"y": 0.2333801725,
				"z": -0.8174453046,
				"element": "H" 
			},
			{
				"x": 3.5372940028,
				"y": 2.4203524962,
				"z": -1.1868400421,
				"element": "H" 
			},
			{
				"x": 2.5005512865,
				"y": 4.5180151727,
				"z": -0.3424946556,
				"element": "H" 
			},
			{
				"x": 0.3179134278,
				"y": 4.4212273434,
				"z": 0.84628148,
				"element": "H" 
			},
			{
				"x": -0.8271846667,
				"y": 2.2528370409,
				"z": 1.1696104694,
				"element": "H" 
			}
		],
		 "valence_orbital": [ 
			{
				"type": "occ",
				"energy": -0.27626,
				"method": "rhf"
			},
			{
				"type": "occ",
				"energy": -0.26979,
				"method": "rhf"
			},
			{
				"type": "occ",
				"energy": -0.26706,
				"method": "rhf"
			},
			{
				"type": "occ",
				"energy": -0.25827,
				"method": "rhf"
			},
			{
				"type": "occ",
				"energy": -0.24446,
				"method": "rhf"
			},
			{
				"type": "unocc",
				"energy": -0.04222,
				"method": "rhf"
			},
			{
				"type": "unocc",
				"energy": -0.02047,
				"method": "rhf"
			},
			{
				"type": "unocc",
				"energy": 0.01656,
				"method": "rhf"
			},
			{
				"type": "unocc",
				"energy": 0.04313,
				"method": "rhf"
			},
			{
				"type": "unocc",
				"energy": 0.07651,
				"method": "rhf"
			}
		],
		"cosmo_sigma_profile": { 
			"-0.025": 0.0,
			"-0.024": 0.0,
			"-0.023": 0.0,
			"-0.022": 0.0,
			"-0.021": 0.0,
			"-0.02": 0.0,
			"-0.019": 0.0,
			"-0.018": 0.0,
			"-0.017": 0.0,
			"-0.016": 0.0,
			"-0.015": 0.0,
			"-0.014": 0.0,
			"-0.013": 0.0,
			"-0.012": 0.0,
			"-0.011": 0.725378094753,
			"-0.01": 3.05321517276,
			"-0.009": 2.33039986805,
			"-0.008": 3.60994981473,
			"-0.007": 6.00990986679,
			"-0.006": 12.6234611605,
			"-0.005": 13.8244170072,
			"-0.004": 18.1191072094,
			"-0.003": 20.9137261578,
			"-0.002": 20.9978830898,
			"-0.001": 23.8422088785,
			"0.0": 24.3374914329,
			"0.001": 22.3453812177,
			"0.002": 13.1604290461,
			"0.003": 14.1708834508,
			"0.004": 15.250874709,
			"0.005": 5.02518983639,
			"0.006": 3.42452654583,
			"0.007": 4.08094035205,
			"0.008": 2.61719958325,
			"0.009": 3.17181216744,
			"0.01": 5.40632723483,
			"0.011": 4.12860792158,
			"0.012": 3.70500279098,
			"0.013": 1.4635293954,
			"0.014": 2.17786586489,
			"0.015": 0.327498444545,
			"0.016": 0.0,
			"0.017": 0.0,
			"0.018": 0.0,
			"0.019": 0.0,
			"0.02": 0.0,
			"0.021": 0.0,
			"0.022": 0.0,
			"0.023": 0.0,
			"0.024": 0.0,
			"0.025": 0.0
		}
	}
}
