{
	 "smiles": "ClC1=CC=C(C=C1)C(=O)C1=NOC(=C1S(=O)(=O)C1=CC=CC=C1)C1=CC=C(Br)C=C1", 
	 "Tm": 398.15, 
	 "num_atms": 43, 
	 "gaussian": { 
		 "optdone": 1, 
		 "sigma_profile": "yes", 
		 "theory": "DFT", 
		 "functional": "B3LYP", 
		 "basiset": "6-31G**", 
		 "properties": { 
			 "R2extent": 20642.1293, 
			 "electric_dipole_moment_norm": 6.35657269053, 
			 "electric_quadrupole_moment_norm": 11.941979598, 
			 "total_energy": -4631.47427555, 
			 "HOMO_LUMO_gap": 0.17487, 
			 "cosmo_polarized_energy": -20.02, 
			 "cosmo_cavitation_energy": 54.62, 
			 "cosmo_dispersion_energy": -36.61, 
			 "cosmo_repulsion_energy": 2.72, 
			 "cosmo_total_nonelectrostatic_energy": 20.73, 
			 "SMD_solvation_energy": 7.15 
		},
		"coords": [
			{
				"x": 2.2254881733,
				"y": 3.7082790814,
				"z": 5.1887518332,
				"element": "Cl" 
			},
			{
				"x": 2.4239209911,
				"y": 2.7058492968,
				"z": 3.7649150592,
				"element": "C" 
			},
			{
				"x": 1.4280502482,
				"y": 2.7042508862,
				"z": 2.7875433119,
				"element": "C" 
			},
			{
				"x": 1.5886146196,
				"y": 1.9006950955,
				"z": 1.6602788772,
				"element": "C" 
			},
			{
				"x": 2.7362877411,
				"y": 1.1094332795,
				"z": 1.5078559077,
				"element": "C" 
			},
			{
				"x": 3.7280010011,
				"y": 1.1335645572,
				"z": 2.5015362394,
				"element": "C" 
			},
			{
				"x": 3.5769658523,
				"y": 1.9257192346,
				"z": 3.6324679988,
				"element": "C" 
			},
			{
				"x": 2.9570003657,
				"y": 0.244822964,
				"z": 0.320592649,
				"element": "C" 
			},
			{
				"x": 4.0049247683,
				"y": -0.3305580323,
				"z": 0.1004637114,
				"element": "O" 
			},
			{
				"x": 1.8338109026,
				"y": 0.0967306616,
				"z": -0.6972763887,
				"element": "C" 
			},
			{
				"x": 1.7078598905,
				"y": 1.0053078472,
				"z": -1.6328442201,
				"element": "N" 
			},
			{
				"x": 0.7048398538,
				"y": 0.5284346551,
				"z": -2.4861514646,
				"element": "O" 
			},
			{
				"x": 0.2410250311,
				"y": -0.6610002517,
				"z": -2.0497858663,
				"element": "C" 
			},
			{
				"x": 0.9196106867,
				"y": -0.9880366124,
				"z": -0.8914067398,
				"element": "C" 
			},
			{
				"x": 0.6858912668,
				"y": -2.3215371195,
				"z": 0.2718198708,
				"element": "S" 
			},
			{
				"x": 1.6932876288,
				"y": -2.0991326951,
				"z": 1.3174945386,
				"element": "O" 
			},
			{
				"x": 0.611919492,
				"y": -3.5940755971,
				"z": -0.461441172,
				"element": "O" 
			},
			{
				"x": -0.9305280047,
				"y": -2.0050133885,
				"z": 0.9956384529,
				"element": "C" 
			},
			{
				"x": -2.0468909386,
				"y": -2.694884464,
				"z": 0.519721626,
				"element": "C" 
			},
			{
				"x": -3.2907457257,
				"y": -2.4461058633,
				"z": 1.1020066142,
				"element": "C" 
			},
			{
				"x": -3.4050585728,
				"y": -1.5244426981,
				"z": 2.1446256364,
				"element": "C" 
			},
			{
				"x": -2.2760054529,
				"y": -0.8504729082,
				"z": 2.6189258163,
				"element": "C" 
			},
			{
				"x": -1.0270540803,
				"y": -1.0892942879,
				"z": 2.0474966508,
				"element": "C" 
			},
			{
				"x": -0.8203252282,
				"y": -1.256344852,
				"z": -2.8646320112,
				"element": "C" 
			},
			{
				"x": -0.9605712431,
				"y": -2.6488098594,
				"z": -2.9918947457,
				"element": "C" 
			},
			{
				"x": -1.9632472431,
				"y": -3.1821181642,
				"z": -3.7988618936,
				"element": "C" 
			},
			{
				"x": -2.8249255982,
				"y": -2.3248247059,
				"z": -4.4822913891,
				"element": "C" 
			},
			{
				"x": -4.1998683296,
				"y": -3.0558566601,
				"z": -5.5812910321,
				"element": "Br" 
			},
			{
				"x": -2.6943555288,
				"y": -0.9390371646,
				"z": -4.3792139296,
				"element": "C" 
			},
			{
				"x": -1.6908350527,
				"y": -0.4095582247,
				"z": -3.5752703495,
				"element": "C" 
			},
			{
				"x": 0.5479653788,
				"y": 3.3258718707,
				"z": 2.9074429118,
				"element": "H" 
			},
			{
				"x": 0.8250437932,
				"y": 1.90696589,
				"z": 0.8896346773,
				"element": "H" 
			},
			{
				"x": 4.6100274592,
				"y": 0.5166544645,
				"z": 2.3674011327,
				"element": "H" 
			},
			{
				"x": 4.3359976819,
				"y": 1.9442163128,
				"z": 4.4064046895,
				"element": "H" 
			},
			{
				"x": -1.9354513438,
				"y": -3.421790549,
				"z": -0.2760224652,
				"element": "H" 
			},
			{
				"x": -4.1671964625,
				"y": -2.978136416,
				"z": 0.7451138112,
				"element": "H" 
			},
			{
				"x": -4.3749182642,
				"y": -1.336841974,
				"z": 2.5957780055,
				"element": "H" 
			},
			{
				"x": -2.3661786679,
				"y": -0.1461159502,
				"z": 3.4401978366,
				"element": "H" 
			},
			{
				"x": -0.1376036421,
				"y": -0.5915799935,
				"z": 2.4185957332,
				"element": "H" 
			},
			{
				"x": -0.27850103,
				"y": -3.3115087385,
				"z": -2.4718490693,
				"element": "H" 
			},
			{
				"x": -2.0660406506,
				"y": -4.2560397351,
				"z": -3.9033831999,
				"element": "H" 
			},
			{
				"x": -3.3685402695,
				"y": -0.2850866662,
				"z": -4.9198897861,
				"element": "H" 
			},
			{
				"x": -1.5811914968,
				"y": 0.6661074744,
				"z": -3.4920978686,
				"element": "H" 
			}
		],
		 "valence_orbital": [ 
			{
				"type": "occ",
				"energy": -0.28174,
				"method": "rhf"
			},
			{
				"type": "occ",
				"energy": -0.28004,
				"method": "rhf"
			},
			{
				"type": "occ",
				"energy": -0.27246,
				"method": "rhf"
			},
			{
				"type": "occ",
				"energy": -0.26364,
				"method": "rhf"
			},
			{
				"type": "occ",
				"energy": -0.25376,
				"method": "rhf"
			},
			{
				"type": "unocc",
				"energy": -0.07889,
				"method": "rhf"
			},
			{
				"type": "unocc",
				"energy": -0.07814,
				"method": "rhf"
			},
			{
				"type": "unocc",
				"energy": -0.05145,
				"method": "rhf"
			},
			{
				"type": "unocc",
				"energy": -0.03696,
				"method": "rhf"
			},
			{
				"type": "unocc",
				"energy": -0.0314,
				"method": "rhf"
			}
		],
		"cosmo_sigma_profile": { 
			"-0.025": 0.0,
			"-0.024": 0.0,
			"-0.023": 0.0,
			"-0.022": 0.0,
			"-0.021": 0.0,
			"-0.02": 0.0,
			"-0.019": 0.0,
			"-0.018": 0.0,
			"-0.017": 0.0,
			"-0.016": 0.0,
			"-0.015": 0.0,
			"-0.014": 0.0,
			"-0.013": 0.0,
			"-0.012": 0.0,
			"-0.011": 0.0,
			"-0.01": 0.0,
			"-0.009": 0.292536920055,
			"-0.008": 8.60558314628,
			"-0.007": 21.126352376,
			"-0.006": 25.557851604,
			"-0.005": 25.2953346294,
			"-0.004": 26.6265706976,
			"-0.003": 28.7483558827,
			"-0.002": 29.415445988,
			"-0.001": 32.6484790963,
			"0.0": 42.6464400842,
			"0.001": 54.0426609353,
			"0.002": 40.0911497433,
			"0.003": 30.3988683333,
			"0.004": 26.3709732309,
			"0.005": 8.98855052897,
			"0.006": 6.42211776837,
			"0.007": 5.70889363717,
			"0.008": 7.01450609816,
			"0.009": 9.24094109764,
			"0.01": 10.4715141946,
			"0.011": 7.24550854435,
			"0.012": 0.619683627475,
			"0.013": 0.0,
			"0.014": 0.0,
			"0.015": 0.0,
			"0.016": 0.0,
			"0.017": 0.0,
			"0.018": 0.0,
			"0.019": 0.0,
			"0.02": 0.0,
			"0.021": 0.0,
			"0.022": 0.0,
			"0.023": 0.0,
			"0.024": 0.0,
			"0.025": 0.0
		}
	}
}
