{
	 "smiles": "CC12CCC3C(CCC4=CC(OC5CCCC5)=CC=C34)C1CCC2(O)C#C", 
	 "Tm": 381.15, 
	 "num_atms": 59, 
	 "gaussian": { 
		 "optdone": 1, 
		 "sigma_profile": "yes", 
		 "theory": "DFT", 
		 "functional": "B3LYP", 
		 "basiset": "6-31G**", 
		 "properties": { 
			 "R2extent": 13054.4124, 
			 "electric_dipole_moment_norm": 1.70524800836, 
			 "electric_quadrupole_moment_norm": 13.0970442498, 
			 "total_energy": -1122.33323328, 
			 "HOMO_LUMO_gap": 0.20992, 
			 "cosmo_polarized_energy": -11.49, 
			 "cosmo_cavitation_energy": 53.66, 
			 "cosmo_dispersion_energy": -36.63, 
			 "cosmo_repulsion_energy": 2.74, 
			 "cosmo_total_nonelectrostatic_energy": 19.78, 
			 "SMD_solvation_energy": 8.49 
		},
		"coords": [
			{
				"x": 2.723913272,
				"y": 3.1955933017,
				"z": 1.672029509,
				"element": "C" 
			},
			{
				"x": 1.9321274628,
				"y": 1.8837221445,
				"z": 1.4805523594,
				"element": "C" 
			},
			{
				"x": 0.4224984835,
				"y": 2.1521406762,
				"z": 1.6016294874,
				"element": "C" 
			},
			{
				"x": -0.0866519876,
				"y": 2.9770062818,
				"z": 0.4017240897,
				"element": "C" 
			},
			{
				"x": 0.2632873231,
				"y": 2.3929435101,
				"z": -0.985648732,
				"element": "C" 
			},
			{
				"x": 1.7853779856,
				"y": 2.0174448371,
				"z": -1.1022588121,
				"element": "C" 
			},
			{
				"x": 2.1024241959,
				"y": 1.2714656756,
				"z": -2.4334119895,
				"element": "C" 
			},
			{
				"x": 0.9210558355,
				"y": 1.2612280286,
				"z": -3.4240729615,
				"element": "C" 
			},
			{
				"x": -0.301996097,
				"y": 0.7093467317,
				"z": -2.7353451704,
				"element": "C" 
			},
			{
				"x": -1.0754233879,
				"y": -0.3074897722,
				"z": -3.2824586325,
				"element": "C" 
			},
			{
				"x": -2.1888896203,
				"y": -0.8130929205,
				"z": -2.5933207491,
				"element": "C" 
			},
			{
				"x": -2.8839136686,
				"y": -1.7959412355,
				"z": -3.2404331364,
				"element": "O" 
			},
			{
				"x": -4.043523713,
				"y": -2.3744720554,
				"z": -2.6199193493,
				"element": "C" 
			},
			{
				"x": -3.6512634851,
				"y": -3.3871020409,
				"z": -1.5094375598,
				"element": "C" 
			},
			{
				"x": -3.7482392263,
				"y": -4.7994993508,
				"z": -2.1552921137,
				"element": "C" 
			},
			{
				"x": -3.9382405863,
				"y": -4.5464880229,
				"z": -3.6652834197,
				"element": "C" 
			},
			{
				"x": -4.719886983,
				"y": -3.2245996115,
				"z": -3.7020641206,
				"element": "C" 
			},
			{
				"x": -2.5077991444,
				"y": -0.2918595642,
				"z": -1.3355213564,
				"element": "C" 
			},
			{
				"x": -1.7212337168,
				"y": 0.7308310353,
				"z": -0.7906077784,
				"element": "C" 
			},
			{
				"x": -0.6172779628,
				"y": 1.2478309916,
				"z": -1.4669430554,
				"element": "C" 
			},
			{
				"x": 2.2069309569,
				"y": 1.1926872936,
				"z": 0.1214812701,
				"element": "C" 
			},
			{
				"x": 3.6716736143,
				"y": 0.7176061045,
				"z": 0.2343492227,
				"element": "C" 
			},
			{
				"x": 3.8571940191,
				"y": 0.3806052132,
				"z": 1.7397761413,
				"element": "C" 
			},
			{
				"x": 2.5406791667,
				"y": 0.8106002443,
				"z": 2.4643102009,
				"element": "C" 
			},
			{
				"x": 2.896429304,
				"y": 1.3277133525,
				"z": 3.7500041774,
				"element": "O" 
			},
			{
				"x": 1.6432988911,
				"y": -0.3455844489,
				"z": 2.6457151884,
				"element": "C" 
			},
			{
				"x": 0.9155347097,
				"y": -1.2917348568,
				"z": 2.8381512208,
				"element": "C" 
			},
			{
				"x": 2.5424316236,
				"y": 3.5980734512,
				"z": 2.6716504169,
				"element": "H" 
			},
			{
				"x": 2.4313504035,
				"y": 3.954219611,
				"z": 0.9429520799,
				"element": "H" 
			},
			{
				"x": 3.8028354296,
				"y": 3.0518353213,
				"z": 1.578807661,
				"element": "H" 
			},
			{
				"x": -0.1069529779,
				"y": 1.1950016242,
				"z": 1.6471844964,
				"element": "H" 
			},
			{
				"x": 0.1928741226,
				"y": 2.6881545612,
				"z": 2.5329364508,
				"element": "H" 
			},
			{
				"x": -1.1713354052,
				"y": 3.1140823637,
				"z": 0.4777021556,
				"element": "H" 
			},
			{
				"x": 0.3358556112,
				"y": 3.986577566,
				"z": 0.4571058666,
				"element": "H" 
			},
			{
				"x": 0.104189628,
				"y": 3.2112017546,
				"z": -1.7048646934,
				"element": "H" 
			},
			{
				"x": 2.3442597183,
				"y": 2.9623801924,
				"z": -1.098830739,
				"element": "H" 
			},
			{
				"x": 2.3520583154,
				"y": 0.2270182542,
				"z": -2.21445212,
				"element": "H" 
			},
			{
				"x": 2.9877386289,
				"y": 1.7070068111,
				"z": -2.9096285584,
				"element": "H" 
			},
			{
				"x": 0.726657403,
				"y": 2.2850456168,
				"z": -3.7765759867,
				"element": "H" 
			},
			{
				"x": 1.1705988599,
				"y": 0.6688866812,
				"z": -4.3105481846,
				"element": "H" 
			},
			{
				"x": -0.8371065706,
				"y": -0.7283295026,
				"z": -4.2551701302,
				"element": "H" 
			},
			{
				"x": -4.6914649382,
				"y": -1.5680367146,
				"z": -2.2560035171,
				"element": "H" 
			},
			{
				"x": -2.6426655204,
				"y": -3.1659339703,
				"z": -1.1512178373,
				"element": "H" 
			},
			{
				"x": -4.3220015083,
				"y": -3.296702184,
				"z": -0.6482800905,
				"element": "H" 
			},
			{
				"x": -4.6189002259,
				"y": -5.3334288797,
				"z": -1.7571958701,
				"element": "H" 
			},
			{
				"x": -2.8714319595,
				"y": -5.4171192041,
				"z": -1.9399474788,
				"element": "H" 
			},
			{
				"x": -2.967582274,
				"y": -4.4062867257,
				"z": -4.1532253506,
				"element": "H" 
			},
			{
				"x": -4.4522967879,
				"y": -5.3674747373,
				"z": -4.1744271467,
				"element": "H" 
			},
			{
				"x": -4.7111600014,
				"y": -2.7195516382,
				"z": -4.6715554275,
				"element": "H" 
			},
			{
				"x": -5.7655024746,
				"y": -3.3954093412,
				"z": -3.4157714201,
				"element": "H" 
			},
			{
				"x": -3.3506472037,
				"y": -0.6693728392,
				"z": -0.7692727795,
				"element": "H" 
			},
			{
				"x": -1.9947063026,
				"y": 1.117654261,
				"z": 0.1858744741,
				"element": "H" 
			},
			{
				"x": 1.5795775364,
				"y": 0.2884989117,
				"z": 0.1106328642,
				"element": "H" 
			},
			{
				"x": 3.8761329583,
				"y": -0.1447362679,
				"z": -0.4060894847,
				"element": "H" 
			},
			{
				"x": 4.363011379,
				"y": 1.510307945,
				"z": -0.0734640901,
				"element": "H" 
			},
			{
				"x": 4.6752333323,
				"y": 0.947181456,
				"z": 2.1920791597,
				"element": "H" 
			},
			{
				"x": 4.0629401616,
				"y": -0.6775617225,
				"z": 1.9133131755,
				"element": "H" 
			},
			{
				"x": 2.0845499227,
				"y": 1.40435501,
				"z": 4.2694251325,
				"element": "H" 
			},
			{
				"x": 0.2793734749,
				"y": -2.131239208,
				"z": 2.9984530417,
				"element": "H" 
			}
		],
		 "valence_orbital": [ 
			{
				"type": "occ",
				"energy": -0.2735,
				"method": "rhf"
			},
			{
				"type": "occ",
				"energy": -0.26644,
				"method": "rhf"
			},
			{
				"type": "occ",
				"energy": -0.25124,
				"method": "rhf"
			},
			{
				"type": "occ",
				"energy": -0.23417,
				"method": "rhf"
			},
			{
				"type": "occ",
				"energy": -0.20238,
				"method": "rhf"
			},
			{
				"type": "unocc",
				"energy": 0.00754,
				"method": "rhf"
			},
			{
				"type": "unocc",
				"energy": 0.02137,
				"method": "rhf"
			},
			{
				"type": "unocc",
				"energy": 0.03535,
				"method": "rhf"
			},
			{
				"type": "unocc",
				"energy": 0.05337,
				"method": "rhf"
			},
			{
				"type": "unocc",
				"energy": 0.07851,
				"method": "rhf"
			}
		],
		"cosmo_sigma_profile": { 
			"-0.025": 0.0,
			"-0.024": 0.0,
			"-0.023": 0.0,
			"-0.022": 0.0,
			"-0.021": 0.0,
			"-0.02": 0.0,
			"-0.019": 0.0,
			"-0.018": 0.0,
			"-0.017": 0.0,
			"-0.016": 0.0,
			"-0.015": 0.525448540292,
			"-0.014": 0.980185520217,
			"-0.013": 0.401637463562,
			"-0.012": 1.08329661717,
			"-0.011": 1.81728050411,
			"-0.01": 2.1216384467,
			"-0.009": 1.69040212649,
			"-0.008": 2.17296288894,
			"-0.007": 2.47212321986,
			"-0.006": 2.33473623913,
			"-0.005": 6.69569436409,
			"-0.004": 17.1550920776,
			"-0.003": 47.4864657929,
			"-0.002": 59.0735501679,
			"-0.001": 59.6063501292,
			"0.0": 56.8404193326,
			"0.001": 47.1611224454,
			"0.002": 23.167150594,
			"0.003": 14.4500539027,
			"0.004": 14.2899068008,
			"0.005": 18.7210891178,
			"0.006": 15.4329333769,
			"0.007": 8.68141078668,
			"0.008": 3.34509300366,
			"0.009": 2.41623117982,
			"0.01": 2.13529380205,
			"0.011": 1.19678974686,
			"0.012": 1.30411463161,
			"0.013": 1.92581180523,
			"0.014": 0.281725927752,
			"0.015": 0.0,
			"0.016": 0.0,
			"0.017": 0.0,
			"0.018": 0.0,
			"0.019": 0.0,
			"0.02": 0.0,
			"0.021": 0.0,
			"0.022": 0.0,
			"0.023": 0.0,
			"0.024": 0.0,
			"0.025": 0.0
		}
	}
}
