{
	 "smiles": "ClC1OC(=O)C2=CC=CC=C12", 
	 "Tm": 333.15, 
	 "num_atms": 16, 
	 "gaussian": { 
		 "optdone": 1, 
		 "sigma_profile": "yes", 
		 "theory": "DFT", 
		 "functional": "B3LYP", 
		 "basiset": "6-31G**", 
		 "properties": { 
			 "R2extent": 2234.8808, 
			 "electric_dipole_moment_norm": 5.10163388926, 
			 "electric_quadrupole_moment_norm": 8.07833593508, 
			 "total_energy": -918.512522573, 
			 "HOMO_LUMO_gap": 0.21079, 
			 "cosmo_polarized_energy": -10.6, 
			 "cosmo_cavitation_energy": 22.49, 
			 "cosmo_dispersion_energy": -16.79, 
			 "cosmo_repulsion_energy": 1.35, 
			 "cosmo_total_nonelectrostatic_energy": 7.04, 
			 "SMD_solvation_energy": 4.34 
		},
		"coords": [
			{
				"x": -2.931911774,
				"y": 2.2250906369,
				"z": -0.9678801395,
				"element": "Cl" 
			},
			{
				"x": -1.1585188319,
				"y": 2.2307314794,
				"z": -0.5181749431,
				"element": "C" 
			},
			{
				"x": -0.3662739743,
				"y": 2.1391777482,
				"z": -1.6809935498,
				"element": "O" 
			},
			{
				"x": 0.4130862636,
				"y": 0.9820583982,
				"z": -1.6671156198,
				"element": "C" 
			},
			{
				"x": 1.1456565117,
				"y": 0.6967543198,
				"z": -2.5738962927,
				"element": "O" 
			},
			{
				"x": 0.1507805311,
				"y": 0.3012812237,
				"z": -0.3811941715,
				"element": "C" 
			},
			{
				"x": 0.6992211636,
				"y": -0.873301159,
				"z": 0.1282581632,
				"element": "C" 
			},
			{
				"x": 0.2711150309,
				"y": -1.2875385923,
				"z": 1.389744362,
				"element": "C" 
			},
			{
				"x": -0.6796941188,
				"y": -0.542228629,
				"z": 2.1047448406,
				"element": "C" 
			},
			{
				"x": -1.227800502,
				"y": 0.632576242,
				"z": 1.5808524106,
				"element": "C" 
			},
			{
				"x": -0.7915261573,
				"y": 1.0400543436,
				"z": 0.3249737426,
				"element": "C" 
			},
			{
				"x": -0.9979472065,
				"y": 3.2019485973,
				"z": -0.0486399943,
				"element": "H" 
			},
			{
				"x": 1.4324733224,
				"y": -1.4335209954,
				"z": -0.4427280188,
				"element": "H" 
			},
			{
				"x": 0.6747686048,
				"y": -2.1958118515,
				"z": 1.8263889846,
				"element": "H" 
			},
			{
				"x": -0.9983064402,
				"y": -0.8877423729,
				"z": 3.0836956634,
				"element": "H" 
			},
			{
				"x": -1.9750224229,
				"y": 1.1943706108,
				"z": 2.1324645623,
				"element": "H" 
			}
		],
		 "valence_orbital": [ 
			{
				"type": "occ",
				"energy": -0.31708,
				"method": "rhf"
			},
			{
				"type": "occ",
				"energy": -0.30766,
				"method": "rhf"
			},
			{
				"type": "occ",
				"energy": -0.28838,
				"method": "rhf"
			},
			{
				"type": "occ",
				"energy": -0.28458,
				"method": "rhf"
			},
			{
				"type": "occ",
				"energy": -0.28029,
				"method": "rhf"
			},
			{
				"type": "unocc",
				"energy": -0.0695,
				"method": "rhf"
			},
			{
				"type": "unocc",
				"energy": -0.0459,
				"method": "rhf"
			},
			{
				"type": "unocc",
				"energy": 0.01855,
				"method": "rhf"
			},
			{
				"type": "unocc",
				"energy": 0.04559,
				"method": "rhf"
			},
			{
				"type": "unocc",
				"energy": 0.07941,
				"method": "rhf"
			}
		],
		"cosmo_sigma_profile": { 
			"-0.025": 0.0,
			"-0.024": 0.0,
			"-0.023": 0.0,
			"-0.022": 0.0,
			"-0.021": 0.0,
			"-0.02": 0.0,
			"-0.019": 0.0,
			"-0.018": 0.0,
			"-0.017": 0.0,
			"-0.016": 0.0,
			"-0.015": 0.0,
			"-0.014": 0.0,
			"-0.013": 0.0,
			"-0.012": 0.0,
			"-0.011": 0.953487767576,
			"-0.01": 2.52942608185,
			"-0.009": 2.26223596198,
			"-0.008": 5.10226284725,
			"-0.007": 11.3636708828,
			"-0.006": 11.7475912503,
			"-0.005": 10.5359454619,
			"-0.004": 8.73243901464,
			"-0.003": 8.8041457544,
			"-0.002": 9.84623157069,
			"-0.001": 11.6956808607,
			"0.0": 11.9120342761,
			"0.001": 15.5428410756,
			"0.002": 16.9768819702,
			"0.003": 9.33145924731,
			"0.004": 10.42538285,
			"0.005": 10.1767522022,
			"0.006": 4.21632036935,
			"0.007": 3.87020220107,
			"0.008": 3.99433195486,
			"0.009": 3.61605053966,
			"0.01": 4.77112797551,
			"0.011": 4.58070109205,
			"0.012": 0.554277900987,
			"0.013": 0.0,
			"0.014": 0.0,
			"0.015": 0.0,
			"0.016": 0.0,
			"0.017": 0.0,
			"0.018": 0.0,
			"0.019": 0.0,
			"0.02": 0.0,
			"0.021": 0.0,
			"0.022": 0.0,
			"0.023": 0.0,
			"0.024": 0.0,
			"0.025": 0.0
		}
	}
}
