{
	 "smiles": "CCOC1=NC=NC2=C1C=NN2C1=CC=CC=C1", 
	 "Tm": 368.15, 
	 "num_atms": 30, 
	 "gaussian": { 
		 "optdone": 1, 
		 "sigma_profile": "yes", 
		 "theory": "DFT", 
		 "functional": "B3LYP", 
		 "basiset": "6-31G**", 
		 "properties": { 
			 "R2extent": 5804.08, 
			 "electric_dipole_moment_norm": 2.02593049486, 
			 "electric_quadrupole_moment_norm": 13.9381233421, 
			 "total_energy": -796.838521063, 
			 "HOMO_LUMO_gap": 0.17463, 
			 "cosmo_polarized_energy": -7.89, 
			 "cosmo_cavitation_energy": 34.12, 
			 "cosmo_dispersion_energy": -25.41, 
			 "cosmo_repulsion_energy": 1.94, 
			 "cosmo_total_nonelectrostatic_energy": 10.66, 
			 "SMD_solvation_energy": 4.22 
		},
		"coords": [
			{
				"x": 1.1465390298,
				"y": 3.8160586142,
				"z": 3.7001916679,
				"element": "C" 
			},
			{
				"x": 0.1552810527,
				"y": 2.6854800393,
				"z": 3.9280223135,
				"element": "C" 
			},
			{
				"x": 0.5711869375,
				"y": 1.4702576709,
				"z": 3.2548970746,
				"element": "O" 
			},
			{
				"x": 0.2533923546,
				"y": 1.3115896076,
				"z": 1.9664052941,
				"element": "C" 
			},
			{
				"x": -0.4331743576,
				"y": 2.2381623308,
				"z": 1.3063429431,
				"element": "N" 
			},
			{
				"x": -0.7239154262,
				"y": 1.9971246005,
				"z": 0.0094427712,
				"element": "C" 
			},
			{
				"x": -0.4087672288,
				"y": 0.9366127783,
				"z": -0.7232569541,
				"element": "N" 
			},
			{
				"x": 0.2884578198,
				"y": 0.0120574252,
				"z": -0.0351080511,
				"element": "C" 
			},
			{
				"x": 0.6599452097,
				"y": 0.1268534835,
				"z": 1.3205107571,
				"element": "C" 
			},
			{
				"x": 1.3681355664,
				"y": -1.0694923858,
				"z": 1.6100735732,
				"element": "C" 
			},
			{
				"x": 1.4310745455,
				"y": -1.8452986568,
				"z": 0.5476786242,
				"element": "N" 
			},
			{
				"x": 0.7738081188,
				"y": -1.197637969,
				"z": -0.4709105064,
				"element": "N" 
			},
			{
				"x": 0.689962905,
				"y": -1.8233271012,
				"z": -1.7501318967,
				"element": "C" 
			},
			{
				"x": 1.2831341424,
				"y": -3.080838309,
				"z": -1.9253554843,
				"element": "C" 
			},
			{
				"x": 1.2114811609,
				"y": -3.7068794988,
				"z": -3.1673332809,
				"element": "C" 
			},
			{
				"x": 0.5556305513,
				"y": -3.0949495881,
				"z": -4.2374248208,
				"element": "C" 
			},
			{
				"x": -0.0311486084,
				"y": -1.8433228614,
				"z": -4.0514611706,
				"element": "C" 
			},
			{
				"x": 0.0289133366,
				"y": -1.1985598302,
				"z": -2.815701074,
				"element": "C" 
			},
			{
				"x": 2.1547181624,
				"y": 3.5166306288,
				"z": 4.0010586075,
				"element": "H" 
			},
			{
				"x": 0.8544787041,
				"y": 4.6870037702,
				"z": 4.2965012747,
				"element": "H" 
			},
			{
				"x": 1.1614623275,
				"y": 4.1099741611,
				"z": 2.6481502685,
				"element": "H" 
			},
			{
				"x": -0.8447103518,
				"y": 2.9584876462,
				"z": 3.5850398513,
				"element": "H" 
			},
			{
				"x": 0.1135133594,
				"y": 2.3975611743,
				"z": 4.9811212523,
				"element": "H" 
			},
			{
				"x": -1.2889172794,
				"y": 2.7787122398,
				"z": -0.4938364893,
				"element": "H" 
			},
			{
				"x": 1.8246564931,
				"y": -1.3830992219,
				"z": 2.5384625518,
				"element": "H" 
			},
			{
				"x": 1.7894321228,
				"y": -3.5481548125,
				"z": -1.0909996876,
				"element": "H" 
			},
			{
				"x": 1.6735965106,
				"y": -4.6814711806,
				"z": -3.2955894767,
				"element": "H" 
			},
			{
				"x": 0.5030950659,
				"y": -3.5881195825,
				"z": -5.2034108057,
				"element": "H" 
			},
			{
				"x": -0.5448923369,
				"y": -1.3546450104,
				"z": -4.8743349181,
				"element": "H" 
			},
			{
				"x": -0.4265698877,
				"y": -0.2278701623,
				"z": -2.6726442086,
				"element": "H" 
			}
		],
		 "valence_orbital": [ 
			{
				"type": "occ",
				"energy": -0.29093,
				"method": "rhf"
			},
			{
				"type": "occ",
				"energy": -0.26859,
				"method": "rhf"
			},
			{
				"type": "occ",
				"energy": -0.25203,
				"method": "rhf"
			},
			{
				"type": "occ",
				"energy": -0.24837,
				"method": "rhf"
			},
			{
				"type": "occ",
				"energy": -0.22099,
				"method": "rhf"
			},
			{
				"type": "unocc",
				"energy": -0.04636,
				"method": "rhf"
			},
			{
				"type": "unocc",
				"energy": -0.02114,
				"method": "rhf"
			},
			{
				"type": "unocc",
				"energy": -0.00072,
				"method": "rhf"
			},
			{
				"type": "unocc",
				"energy": 0.0146,
				"method": "rhf"
			},
			{
				"type": "unocc",
				"energy": 0.05276,
				"method": "rhf"
			}
		],
		"cosmo_sigma_profile": { 
			"-0.025": 0.0,
			"-0.024": 0.0,
			"-0.023": 0.0,
			"-0.022": 0.0,
			"-0.021": 0.0,
			"-0.02": 0.0,
			"-0.019": 0.0,
			"-0.018": 0.0,
			"-0.017": 0.0,
			"-0.016": 0.0,
			"-0.015": 0.0,
			"-0.014": 0.0,
			"-0.013": 0.0,
			"-0.012": 0.0,
			"-0.011": 0.0,
			"-0.01": 0.0218609075257,
			"-0.009": 1.27858514723,
			"-0.008": 2.33129007966,
			"-0.007": 3.49025171451,
			"-0.006": 9.75538084713,
			"-0.005": 15.5287305045,
			"-0.004": 23.5163038113,
			"-0.003": 21.426134251,
			"-0.002": 25.4909149956,
			"-0.001": 28.7608568895,
			"0.0": 30.665223291,
			"0.001": 19.5109400543,
			"0.002": 18.9359717812,
			"0.003": 18.4666308639,
			"0.004": 16.370796985,
			"0.005": 15.3605906475,
			"0.006": 7.66867861631,
			"0.007": 5.22605699584,
			"0.008": 5.14897042106,
			"0.009": 2.47814655578,
			"0.01": 1.8985524764,
			"0.011": 0.900873509251,
			"0.012": 0.122136819427,
			"0.013": 0.0,
			"0.014": 0.0,
			"0.015": 0.0,
			"0.016": 0.0,
			"0.017": 0.0,
			"0.018": 0.0,
			"0.019": 0.0,
			"0.02": 0.0,
			"0.021": 0.0,
			"0.022": 0.0,
			"0.023": 0.0,
			"0.024": 0.0,
			"0.025": 0.0
		}
	}
}
