{
	 "smiles": "CC1=NC=CN=C1C", 
	 "Tm": 285.15, 
	 "num_atms": 16, 
	 "gaussian": { 
		 "optdone": 1, 
		 "sigma_profile": "yes", 
		 "theory": "DFT", 
		 "functional": "B3LYP", 
		 "basiset": "6-31G**", 
		 "properties": { 
			 "R2extent": 1822.382, 
			 "electric_dipole_moment_norm": 0.856390039643, 
			 "electric_quadrupole_moment_norm": 7.44350626788, 
			 "total_energy": -342.963610748, 
			 "HOMO_LUMO_gap": 0.20214, 
			 "cosmo_polarized_energy": -6.29, 
			 "cosmo_cavitation_energy": 19.4, 
			 "cosmo_dispersion_energy": -14.48, 
			 "cosmo_repulsion_energy": 1.2, 
			 "cosmo_total_nonelectrostatic_energy": 6.11, 
			 "SMD_solvation_energy": 0.96 
		},
		"coords": [
			{
				"x": 1.3643959715,
				"y": -3.407643714,
				"z": -1.5371379748,
				"element": "C" 
			},
			{
				"x": 0.5532194124,
				"y": -2.1534915608,
				"z": -1.7340969501,
				"element": "C" 
			},
			{
				"x": 0.4940541016,
				"y": -1.6521958818,
				"z": -2.9742095616,
				"element": "N" 
			},
			{
				"x": -0.2261365557,
				"y": -0.5379416125,
				"z": -3.1515004043,
				"element": "C" 
			},
			{
				"x": -0.8886522228,
				"y": 0.0795296022,
				"z": -2.0955838168,
				"element": "C" 
			},
			{
				"x": -0.8380798331,
				"y": -0.4106315843,
				"z": -0.8510525375,
				"element": "N" 
			},
			{
				"x": -0.1210704161,
				"y": -1.5250069239,
				"z": -0.6593676401,
				"element": "C" 
			},
			{
				"x": -0.0655581551,
				"y": -2.0746507437,
				"z": 0.7422478988,
				"element": "C" 
			},
			{
				"x": 2.1786561095,
				"y": -3.2513754577,
				"z": -0.8195276176,
				"element": "H" 
			},
			{
				"x": 0.7494748959,
				"y": -4.2269556926,
				"z": -1.1459886323,
				"element": "H" 
			},
			{
				"x": 1.7917497301,
				"y": -3.7138254444,
				"z": -2.4930368461,
				"element": "H" 
			},
			{
				"x": -0.2723134336,
				"y": -0.1329908864,
				"z": -4.1604909356,
				"element": "H" 
			},
			{
				"x": -1.4721912383,
				"y": 0.985279393,
				"z": -2.2481627482,
				"element": "H" 
			},
			{
				"x": 0.9642801195,
				"y": -2.1191231551,
				"z": 1.1162197757,
				"element": "H" 
			},
			{
				"x": -0.4650230727,
				"y": -3.0947097877,
				"z": 0.7903214505,
				"element": "H" 
			},
			{
				"x": -0.6526054131,
				"y": -1.4353665502,
				"z": 1.4031665401,
				"element": "H" 
			}
		],
		 "valence_orbital": [ 
			{
				"type": "occ",
				"energy": -0.36942,
				"method": "rhf"
			},
			{
				"type": "occ",
				"energy": -0.31528,
				"method": "rhf"
			},
			{
				"type": "occ",
				"energy": -0.29633,
				"method": "rhf"
			},
			{
				"type": "occ",
				"energy": -0.25478,
				"method": "rhf"
			},
			{
				"type": "occ",
				"energy": -0.2408,
				"method": "rhf"
			},
			{
				"type": "unocc",
				"energy": -0.03866,
				"method": "rhf"
			},
			{
				"type": "unocc",
				"energy": -0.01583,
				"method": "rhf"
			},
			{
				"type": "unocc",
				"energy": 0.09192,
				"method": "rhf"
			},
			{
				"type": "unocc",
				"energy": 0.12257,
				"method": "rhf"
			},
			{
				"type": "unocc",
				"energy": 0.12798,
				"method": "rhf"
			}
		],
		"cosmo_sigma_profile": { 
			"-0.025": 0.0,
			"-0.024": 0.0,
			"-0.023": 0.0,
			"-0.022": 0.0,
			"-0.021": 0.0,
			"-0.02": 0.0,
			"-0.019": 0.0,
			"-0.018": 0.0,
			"-0.017": 0.0,
			"-0.016": 0.0,
			"-0.015": 0.0,
			"-0.014": 0.0,
			"-0.013": 0.0,
			"-0.012": 0.0,
			"-0.011": 0.0,
			"-0.01": 0.0,
			"-0.009": 0.0,
			"-0.008": 0.024066467511,
			"-0.007": 3.13436005809,
			"-0.006": 5.56750807204,
			"-0.005": 14.3510442438,
			"-0.004": 13.9220397092,
			"-0.003": 12.9554625152,
			"-0.002": 14.4830740325,
			"-0.001": 19.1678481473,
			"0.0": 18.8811591531,
			"0.001": 12.8311179535,
			"0.002": 6.4351224011,
			"0.003": 4.90544071343,
			"0.004": 4.17122060433,
			"0.005": 3.58434512,
			"0.006": 2.50711880394,
			"0.007": 2.72515951336,
			"0.008": 2.43489228457,
			"0.009": 2.03275456818,
			"0.01": 2.04360082481,
			"0.011": 1.84470661959,
			"0.012": 1.42280651563,
			"0.013": 1.31654312982,
			"0.014": 1.70179749038,
			"0.015": 1.40536385284,
			"0.016": 0.169549734837,
			"0.017": 0.0,
			"0.018": 0.0,
			"0.019": 0.0,
			"0.02": 0.0,
			"0.021": 0.0,
			"0.022": 0.0,
			"0.023": 0.0,
			"0.024": 0.0,
			"0.025": 0.0
		}
	}
}
