{
	 "smiles": "CC1=CC(CCl)=C(C=C1)[N+]([O-])=O", 
	 "Tm": 317.15, 
	 "num_atms": 20, 
	 "gaussian": { 
		 "optdone": 1, 
		 "sigma_profile": "yes", 
		 "theory": "DFT", 
		 "functional": "B3LYP", 
		 "basiset": "6-31G**", 
		 "properties": { 
			 "R2extent": 3942.9352, 
			 "electric_dipole_moment_norm": 5.99655198593, 
			 "electric_quadrupole_moment_norm": 18.4438656176, 
			 "total_energy": -974.970989823, 
			 "HOMO_LUMO_gap": 0.18156, 
			 "cosmo_polarized_energy": -10.76, 
			 "cosmo_cavitation_energy": 26.07, 
			 "cosmo_dispersion_energy": -18.98, 
			 "cosmo_repulsion_energy": 1.52, 
			 "cosmo_total_nonelectrostatic_energy": 8.61, 
			 "SMD_solvation_energy": 6.27 
		},
		"coords": [
			{
				"x": 0.319290117,
				"y": 1.7893094019,
				"z": 1.5490401922,
				"element": "C" 
			},
			{
				"x": -0.0570657017,
				"y": 1.1285298796,
				"z": 0.2464587937,
				"element": "C" 
			},
			{
				"x": -1.141341482,
				"y": 0.2466094077,
				"z": 0.1744066887,
				"element": "C" 
			},
			{
				"x": -1.5458901122,
				"y": -0.3781652331,
				"z": -1.0118161762,
				"element": "C" 
			},
			{
				"x": -2.7436850154,
				"y": -1.2876728647,
				"z": -0.9445436504,
				"element": "C" 
			},
			{
				"x": -4.2508930018,
				"y": -0.4610293328,
				"z": -1.5680036388,
				"element": "Cl" 
			},
			{
				"x": -0.8089601613,
				"y": -0.0704930243,
				"z": -2.1729141059,
				"element": "C" 
			},
			{
				"x": 0.2721178722,
				"y": 0.8110050763,
				"z": -2.1325435103,
				"element": "C" 
			},
			{
				"x": 0.6490487915,
				"y": 1.3996014743,
				"z": -0.9322131533,
				"element": "C" 
			},
			{
				"x": -1.1086934213,
				"y": -0.6603784991,
				"z": -3.4919312752,
				"element": "N" 
			},
			{
				"x": -0.6257875519,
				"y": -0.1082889605,
				"z": -4.4793777143,
				"element": "O" 
			},
			{
				"x": -1.8025495511,
				"y": -1.6759697647,
				"z": -3.5411927576,
				"element": "O" 
			},
			{
				"x": -0.0164052658,
				"y": 1.2036493841,
				"z": 2.4090111847,
				"element": "H" 
			},
			{
				"x": 1.4016682797,
				"y": 1.9264436275,
				"z": 1.6281390095,
				"element": "H" 
			},
			{
				"x": -0.1411841865,
				"y": 2.7818113319,
				"z": 1.6273012511,
				"element": "H" 
			},
			{
				"x": -1.7051781579,
				"y": 0.0349011792,
				"z": 1.0793308594,
				"element": "H" 
			},
			{
				"x": -2.6263209921,
				"y": -2.1817073978,
				"z": -1.5467340491,
				"element": "H" 
			},
			{
				"x": -2.9581200793,
				"y": -1.5453369618,
				"z": 0.0920760185,
				"element": "H" 
			},
			{
				"x": 0.8044959716,
				"y": 1.0171047893,
				"z": -3.0521943044,
				"element": "H" 
			},
			{
				"x": 1.4996536485,
				"y": 2.0748764869,
				"z": -0.9122996621,
				"element": "H" 
			}
		],
		 "valence_orbital": [ 
			{
				"type": "occ",
				"energy": -0.30189,
				"method": "rhf"
			},
			{
				"type": "occ",
				"energy": -0.29768,
				"method": "rhf"
			},
			{
				"type": "occ",
				"energy": -0.28995,
				"method": "rhf"
			},
			{
				"type": "occ",
				"energy": -0.27811,
				"method": "rhf"
			},
			{
				"type": "occ",
				"energy": -0.27387,
				"method": "rhf"
			},
			{
				"type": "unocc",
				"energy": -0.09231,
				"method": "rhf"
			},
			{
				"type": "unocc",
				"energy": -0.04177,
				"method": "rhf"
			},
			{
				"type": "unocc",
				"energy": -0.00926,
				"method": "rhf"
			},
			{
				"type": "unocc",
				"energy": 0.0335,
				"method": "rhf"
			},
			{
				"type": "unocc",
				"energy": 0.07407,
				"method": "rhf"
			}
		],
		"cosmo_sigma_profile": { 
			"-0.025": 0.0,
			"-0.024": 0.0,
			"-0.023": 0.0,
			"-0.022": 0.0,
			"-0.021": 0.0,
			"-0.02": 0.0,
			"-0.019": 0.0,
			"-0.018": 0.0,
			"-0.017": 0.0,
			"-0.016": 0.0,
			"-0.015": 0.0,
			"-0.014": 0.0,
			"-0.013": 0.0,
			"-0.012": 0.0,
			"-0.011": 0.0,
			"-0.01": 0.00417743679145,
			"-0.009": 1.49583309342,
			"-0.008": 3.50180612349,
			"-0.007": 7.61360887635,
			"-0.006": 11.7159926833,
			"-0.005": 16.2839858656,
			"-0.004": 15.7118562542,
			"-0.003": 15.3412481663,
			"-0.002": 16.0620247687,
			"-0.001": 17.4003749425,
			"0.0": 14.3113224491,
			"0.001": 16.4527803351,
			"0.002": 15.3904379675,
			"0.003": 6.95146978863,
			"0.004": 7.04843374675,
			"0.005": 8.55678716128,
			"0.006": 13.9838864172,
			"0.007": 8.556081595,
			"0.008": 6.43255540738,
			"0.009": 4.58920012498,
			"0.01": 2.56412873425,
			"0.011": 0.148055415067,
			"0.012": 0.0,
			"0.013": 0.0,
			"0.014": 0.0,
			"0.015": 0.0,
			"0.016": 0.0,
			"0.017": 0.0,
			"0.018": 0.0,
			"0.019": 0.0,
			"0.02": 0.0,
			"0.021": 0.0,
			"0.022": 0.0,
			"0.023": 0.0,
			"0.024": 0.0,
			"0.025": 0.0
		}
	}
}
