{
	 "smiles": "CCCCCC#C", 
	 "Tm": 192.15, 
	 "num_atms": 19, 
	 "gaussian": { 
		 "optdone": 1, 
		 "sigma_profile": "yes", 
		 "theory": "DFT", 
		 "functional": "B3LYP", 
		 "basiset": "6-31G**", 
		 "properties": { 
			 "R2extent": 1529.1321, 
			 "electric_dipole_moment_norm": 0.625399880077, 
			 "electric_quadrupole_moment_norm": 3.65852768337, 
			 "total_energy": -273.91897316, 
			 "HOMO_LUMO_gap": 0.31276, 
			 "cosmo_polarized_energy": -3.53, 
			 "cosmo_cavitation_energy": 22.0, 
			 "cosmo_dispersion_energy": -15.19, 
			 "cosmo_repulsion_energy": 1.31, 
			 "cosmo_total_nonelectrostatic_energy": 8.11, 
			 "SMD_solvation_energy": 4.89 
		},
		"coords": [
			{
				"x": 2.2468508987,
				"y": -0.2103881527,
				"z": 0.928295778,
				"element": "C" 
			},
			{
				"x": 0.8389881937,
				"y": -0.7208076622,
				"z": 1.253220746,
				"element": "C" 
			},
			{
				"x": -0.1992296583,
				"y": -0.3125223553,
				"z": 0.1988284078,
				"element": "C" 
			},
			{
				"x": -1.6415920529,
				"y": -0.7295604669,
				"z": 0.5208941518,
				"element": "C" 
			},
			{
				"x": -1.885275344,
				"y": -2.2569780017,
				"z": 0.5604822457,
				"element": "C" 
			},
			{
				"x": -1.5919050864,
				"y": -2.9304603374,
				"z": -0.7057865934,
				"element": "C" 
			},
			{
				"x": -1.3470960427,
				"y": -3.4726243569,
				"z": -1.757600924,
				"element": "C" 
			},
			{
				"x": 2.9701729971,
				"y": -0.5146642507,
				"z": 1.691919222,
				"element": "H" 
			},
			{
				"x": 2.2673288874,
				"y": 0.8838362621,
				"z": 0.8672884093,
				"element": "H" 
			},
			{
				"x": 2.5956904955,
				"y": -0.6005678954,
				"z": -0.0345374612,
				"element": "H" 
			},
			{
				"x": 0.8678384174,
				"y": -1.8140404033,
				"z": 1.3450425274,
				"element": "H" 
			},
			{
				"x": 0.5282927527,
				"y": -0.3386981138,
				"z": 2.2358442328,
				"element": "H" 
			},
			{
				"x": 0.0857113311,
				"y": -0.7320522616,
				"z": -0.7747126481,
				"element": "H" 
			},
			{
				"x": -0.1741893129,
				"y": 0.7793531335,
				"z": 0.0821592579,
				"element": "H" 
			},
			{
				"x": -1.936949869,
				"y": -0.3177779259,
				"z": 1.4948628198,
				"element": "H" 
			},
			{
				"x": -2.31753424,
				"y": -0.2921081473,
				"z": -0.2229455338,
				"element": "H" 
			},
			{
				"x": -2.9325658982,
				"y": -2.4437539805,
				"z": 0.8311604407,
				"element": "H" 
			},
			{
				"x": -1.2833121011,
				"y": -2.7117500435,
				"z": 1.3574653143,
				"element": "H" 
			},
			{
				"x": -1.1355243683,
				"y": -3.9568350404,
				"z": -2.6823803933,
				"element": "H" 
			}
		],
		 "valence_orbital": [ 
			{
				"type": "occ",
				"energy": -0.32777,
				"method": "rhf"
			},
			{
				"type": "occ",
				"energy": -0.32134,
				"method": "rhf"
			},
			{
				"type": "occ",
				"energy": -0.3166,
				"method": "rhf"
			},
			{
				"type": "occ",
				"energy": -0.25833,
				"method": "rhf"
			},
			{
				"type": "occ",
				"energy": -0.25751,
				"method": "rhf"
			},
			{
				"type": "unocc",
				"energy": 0.05525,
				"method": "rhf"
			},
			{
				"type": "unocc",
				"energy": 0.0615,
				"method": "rhf"
			},
			{
				"type": "unocc",
				"energy": 0.0975,
				"method": "rhf"
			},
			{
				"type": "unocc",
				"energy": 0.11647,
				"method": "rhf"
			},
			{
				"type": "unocc",
				"energy": 0.12209,
				"method": "rhf"
			}
		],
		"cosmo_sigma_profile": { 
			"-0.025": 0.0,
			"-0.024": 0.0,
			"-0.023": 0.0,
			"-0.022": 0.0,
			"-0.021": 0.0,
			"-0.02": 0.0,
			"-0.019": 0.0,
			"-0.018": 0.0,
			"-0.017": 0.0,
			"-0.016": 0.0,
			"-0.015": 0.0,
			"-0.014": 0.0,
			"-0.013": 0.0,
			"-0.012": 0.00760706811948,
			"-0.011": 0.738045228922,
			"-0.01": 1.3223385726,
			"-0.009": 0.967841978612,
			"-0.008": 0.730494492132,
			"-0.007": 1.71318529125,
			"-0.006": 0.946860725526,
			"-0.005": 3.89606076379,
			"-0.004": 6.6242134349,
			"-0.003": 12.9887564523,
			"-0.002": 24.5104696028,
			"-0.001": 27.1367640712,
			"0.0": 26.2306589106,
			"0.001": 21.9656454962,
			"0.002": 12.2078857684,
			"0.003": 3.89971207147,
			"0.004": 5.05287701613,
			"0.005": 5.1747768111,
			"0.006": 4.48373606754,
			"0.007": 7.30629846532,
			"0.008": 4.09571740904,
			"0.009": 0.0,
			"0.01": 0.0,
			"0.011": 0.0,
			"0.012": 0.0,
			"0.013": 0.0,
			"0.014": 0.0,
			"0.015": 0.0,
			"0.016": 0.0,
			"0.017": 0.0,
			"0.018": 0.0,
			"0.019": 0.0,
			"0.02": 0.0,
			"0.021": 0.0,
			"0.022": 0.0,
			"0.023": 0.0,
			"0.024": 0.0,
			"0.025": 0.0
		}
	}
}
