{
	 "smiles": "OC(=O)C=CC1=C(F)C(F)=C(F)C(F)=C1F", 
	 "Tm": 426.15, 
	 "num_atms": 19, 
	 "gaussian": { 
		 "optdone": 1, 
		 "sigma_profile": "yes", 
		 "theory": "DFT", 
		 "functional": "B3LYP", 
		 "basiset": "6-31G**", 
		 "properties": { 
			 "R2extent": 4589.4038, 
			 "electric_dipole_moment_norm": 3.93766831894, 
			 "electric_quadrupole_moment_norm": 22.7076306769, 
			 "total_energy": -994.336563891, 
			 "HOMO_LUMO_gap": 0.1724, 
			 "cosmo_polarized_energy": -14.3, 
			 "cosmo_cavitation_energy": 27.79, 
			 "cosmo_dispersion_energy": -19.49, 
			 "cosmo_repulsion_energy": 1.41, 
			 "cosmo_total_nonelectrostatic_energy": 9.71, 
			 "SMD_solvation_energy": 8.5 
		},
		"coords": [
			{
				"x": 4.086045439,
				"y": 0.8838025816,
				"z": -0.6714207674,
				"element": "O" 
			},
			{
				"x": 3.5671933266,
				"y": -0.3141292331,
				"z": -1.0589401548,
				"element": "C" 
			},
			{
				"x": 4.2769070295,
				"y": -1.1516691945,
				"z": -1.5638221765,
				"element": "O" 
			},
			{
				"x": 2.1085446779,
				"y": -0.5354436042,
				"z": -0.8558377739,
				"element": "C" 
			},
			{
				"x": 1.2056327168,
				"y": 0.4623577362,
				"z": -0.8009456298,
				"element": "C" 
			},
			{
				"x": -0.24785803,
				"y": 0.3621716961,
				"z": -0.677645577,
				"element": "C" 
			},
			{
				"x": -0.971423751,
				"y": -0.8339312247,
				"z": -0.5273098628,
				"element": "C" 
			},
			{
				"x": -0.3377648823,
				"y": -2.0146933411,
				"z": -0.4869527346,
				"element": "F" 
			},
			{
				"x": -2.3572664395,
				"y": -0.8535350076,
				"z": -0.411968823,
				"element": "C" 
			},
			{
				"x": -3.0045611746,
				"y": -2.0127825938,
				"z": -0.2705356542,
				"element": "F" 
			},
			{
				"x": -3.0740507738,
				"y": 0.3418176393,
				"z": -0.4414751861,
				"element": "C" 
			},
			{
				"x": -4.4012856513,
				"y": 0.3278491343,
				"z": -0.3305660267,
				"element": "F" 
			},
			{
				"x": -2.3955099806,
				"y": 1.5499894942,
				"z": -0.5862119132,
				"element": "C" 
			},
			{
				"x": -3.0743899561,
				"y": 2.6995791272,
				"z": -0.6140511461,
				"element": "F" 
			},
			{
				"x": -1.0103942469,
				"y": 1.5446833142,
				"z": -0.6998810784,
				"element": "C" 
			},
			{
				"x": -0.3917653513,
				"y": 2.7284612217,
				"z": -0.8360817974,
				"element": "F" 
			},
			{
				"x": 3.4485442148,
				"y": 1.3621122793,
				"z": -0.1234474381,
				"element": "H" 
			},
			{
				"x": 1.8202594823,
				"y": -1.5779020752,
				"z": -0.8498216586,
				"element": "H" 
			},
			{
				"x": 1.5536433508,
				"y": 1.4888620502,
				"z": -0.8873846016,
				"element": "H" 
			}
		],
		 "valence_orbital": [ 
			{
				"type": "occ",
				"energy": -0.33583,
				"method": "rhf"
			},
			{
				"type": "occ",
				"energy": -0.32048,
				"method": "rhf"
			},
			{
				"type": "occ",
				"energy": -0.28141,
				"method": "rhf"
			},
			{
				"type": "occ",
				"energy": -0.27585,
				"method": "rhf"
			},
			{
				"type": "occ",
				"energy": -0.26465,
				"method": "rhf"
			},
			{
				"type": "unocc",
				"energy": -0.09225,
				"method": "rhf"
			},
			{
				"type": "unocc",
				"energy": -0.03505,
				"method": "rhf"
			},
			{
				"type": "unocc",
				"energy": -0.00968,
				"method": "rhf"
			},
			{
				"type": "unocc",
				"energy": -0.00436,
				"method": "rhf"
			},
			{
				"type": "unocc",
				"energy": 0.0532,
				"method": "rhf"
			}
		],
		"cosmo_sigma_profile": { 
			"-0.025": 0.0,
			"-0.024": 0.0,
			"-0.023": 0.0,
			"-0.022": 0.0,
			"-0.021": 0.0,
			"-0.02": 0.0,
			"-0.019": 0.24869255387,
			"-0.018": 1.18539047993,
			"-0.017": 1.11748821837,
			"-0.016": 1.27183575082,
			"-0.015": 0.949464414969,
			"-0.014": 0.484348229226,
			"-0.013": 0.706088414188,
			"-0.012": 1.44597833165,
			"-0.011": 1.45300049039,
			"-0.01": 0.869768759202,
			"-0.009": 0.988457976122,
			"-0.008": 1.6904825284,
			"-0.007": 1.75729632066,
			"-0.006": 4.39235945416,
			"-0.005": 9.37514462586,
			"-0.004": 23.9960623561,
			"-0.003": 21.0185394745,
			"-0.002": 15.6390969588,
			"-0.001": 15.9591602485,
			"0.0": 12.5594128062,
			"0.001": 17.2722430047,
			"0.002": 44.7505929648,
			"0.003": 14.4910092151,
			"0.004": 1.90280710558,
			"0.005": 1.8045095609,
			"0.006": 2.70969652822,
			"0.007": 2.1695465112,
			"0.008": 2.74011080897,
			"0.009": 2.79242460554,
			"0.01": 5.47400197314,
			"0.011": 5.22062354358,
			"0.012": 5.50309072089,
			"0.013": 1.80219363192,
			"0.014": 0.027293493716,
			"0.015": 0.0,
			"0.016": 0.0,
			"0.017": 0.0,
			"0.018": 0.0,
			"0.019": 0.0,
			"0.02": 0.0,
			"0.021": 0.0,
			"0.022": 0.0,
			"0.023": 0.0,
			"0.024": 0.0,
			"0.025": 0.0
		}
	}
}
