{
	 "smiles": "NS(=O)(=O)C1=NC2=C(S1)C=CC=C2", 
	 "Tm": 451.15, 
	 "num_atms": 19, 
	 "gaussian": { 
		 "optdone": 1, 
		 "sigma_profile": "yes", 
		 "theory": "DFT", 
		 "functional": "B3LYP", 
		 "basiset": "6-31G**", 
		 "properties": { 
			 "R2extent": 4035.6618, 
			 "electric_dipole_moment_norm": 3.93396189738, 
			 "electric_quadrupole_moment_norm": 22.7050279843, 
			 "total_energy": -1326.6097148, 
			 "HOMO_LUMO_gap": 0.18541, 
			 "cosmo_polarized_energy": -16.0, 
			 "cosmo_cavitation_energy": 26.85, 
			 "cosmo_dispersion_energy": -21.09, 
			 "cosmo_repulsion_energy": 1.58, 
			 "cosmo_total_nonelectrostatic_energy": 7.34, 
			 "SMD_solvation_energy": 1.97 
		},
		"coords": [
			{
				"x": -0.213115379,
				"y": 1.9272895602,
				"z": -2.2006436016,
				"element": "N" 
			},
			{
				"x": -1.7157220226,
				"y": 1.3729052692,
				"z": -1.6896074382,
				"element": "S" 
			},
			{
				"x": -2.2398166687,
				"y": 2.2679149288,
				"z": -0.6628706117,
				"element": "O" 
			},
			{
				"x": -2.46855484,
				"y": 1.0194503365,
				"z": -2.894503551,
				"element": "O" 
			},
			{
				"x": -1.2953139752,
				"y": -0.1904143332,
				"z": -0.900306769,
				"element": "C" 
			},
			{
				"x": -0.6597816266,
				"y": -0.2567479164,
				"z": 0.2160160174,
				"element": "N" 
			},
			{
				"x": -0.4822525054,
				"y": -1.5801263009,
				"z": 0.585449423,
				"element": "C" 
			},
			{
				"x": -1.024017155,
				"y": -2.531543519,
				"z": -0.3167358684,
				"element": "C" 
			},
			{
				"x": -1.7768294338,
				"y": -1.7055021907,
				"z": -1.6667682404,
				"element": "S" 
			},
			{
				"x": -0.9234283544,
				"y": -3.904243236,
				"z": -0.0678672763,
				"element": "C" 
			},
			{
				"x": -0.2712385869,
				"y": -4.310716796,
				"z": 1.0917433266,
				"element": "C" 
			},
			{
				"x": 0.2709470573,
				"y": -3.3743138027,
				"z": 1.992635402,
				"element": "C" 
			},
			{
				"x": 0.1711477708,
				"y": -2.0117221767,
				"z": 1.7504913529,
				"element": "C" 
			},
			{
				"x": 0.1128192557,
				"y": 2.6930216511,
				"z": -1.6179528924,
				"element": "H" 
			},
			{
				"x": -0.2561932145,
				"y": 2.1711616465,
				"z": -3.1860405022,
				"element": "H" 
			},
			{
				"x": -1.3393793286,
				"y": -4.6325817243,
				"z": -0.7562203567,
				"element": "H" 
			},
			{
				"x": -0.1799984042,
				"y": -5.3714646556,
				"z": 1.305044424,
				"element": "H" 
			},
			{
				"x": 0.7725320617,
				"y": -3.7260799731,
				"z": 2.8887878012,
				"element": "H" 
			},
			{
				"x": 0.5802953493,
				"y": -1.2753867679,
				"z": 2.4338493608,
				"element": "H" 
			}
		],
		 "valence_orbital": [ 
			{
				"type": "occ",
				"energy": -0.31653,
				"method": "rhf"
			},
			{
				"type": "occ",
				"energy": -0.30605,
				"method": "rhf"
			},
			{
				"type": "occ",
				"energy": -0.29535,
				"method": "rhf"
			},
			{
				"type": "occ",
				"energy": -0.25664,
				"method": "rhf"
			},
			{
				"type": "occ",
				"energy": -0.2501,
				"method": "rhf"
			},
			{
				"type": "unocc",
				"energy": -0.06469,
				"method": "rhf"
			},
			{
				"type": "unocc",
				"energy": -0.02028,
				"method": "rhf"
			},
			{
				"type": "unocc",
				"energy": -0.00289,
				"method": "rhf"
			},
			{
				"type": "unocc",
				"energy": 0.0104,
				"method": "rhf"
			},
			{
				"type": "unocc",
				"energy": 0.03726,
				"method": "rhf"
			}
		],
		"cosmo_sigma_profile": { 
			"-0.025": 0.0,
			"-0.024": 0.0,
			"-0.023": 0.0,
			"-0.022": 0.0,
			"-0.021": 0.0,
			"-0.02": 0.0,
			"-0.019": 0.0,
			"-0.018": 0.0,
			"-0.017": 0.0,
			"-0.016": 0.943482613307,
			"-0.015": 2.62561977966,
			"-0.014": 2.5375450686,
			"-0.013": 2.90851051675,
			"-0.012": 1.82135578722,
			"-0.011": 2.63502641723,
			"-0.01": 1.01729821634,
			"-0.009": 1.50825413735,
			"-0.008": 4.91113813941,
			"-0.007": 8.78446478911,
			"-0.006": 10.095411041,
			"-0.005": 11.2309350844,
			"-0.004": 11.3118035517,
			"-0.003": 9.99699100744,
			"-0.002": 11.3509817844,
			"-0.001": 11.379494488,
			"0.0": 16.5341711946,
			"0.001": 18.6770163192,
			"0.002": 18.5696624359,
			"0.003": 13.6948044506,
			"0.004": 9.29713022942,
			"0.005": 4.26278759041,
			"0.006": 5.99410817414,
			"0.007": 4.44953497744,
			"0.008": 4.65530082158,
			"0.009": 8.55076369983,
			"0.01": 13.6206624096,
			"0.011": 4.09375332547,
			"0.012": 0.61921001141,
			"0.013": 0.109424073388,
			"0.014": 0.0,
			"0.015": 0.0,
			"0.016": 0.0,
			"0.017": 0.0,
			"0.018": 0.0,
			"0.019": 0.0,
			"0.02": 0.0,
			"0.021": 0.0,
			"0.022": 0.0,
			"0.023": 0.0,
			"0.024": 0.0,
			"0.025": 0.0
		}
	}
}
