{
	 "smiles": "CC(=O)C1=CC(Cl)=C(F)C=C1", 
	 "Tm": 316.15, 
	 "num_atms": 17, 
	 "gaussian": { 
		 "optdone": 1, 
		 "sigma_profile": "yes", 
		 "theory": "DFT", 
		 "functional": "B3LYP", 
		 "basiset": "6-31G**", 
		 "properties": { 
			 "R2extent": 2678.8224, 
			 "electric_dipole_moment_norm": 3.66265495099, 
			 "electric_quadrupole_moment_norm": 9.81679244917, 
			 "total_energy": -943.718204923, 
			 "HOMO_LUMO_gap": 0.19356, 
			 "cosmo_polarized_energy": -8.27, 
			 "cosmo_cavitation_energy": 23.86, 
			 "cosmo_dispersion_energy": -17.45, 
			 "cosmo_repulsion_energy": 1.38, 
			 "cosmo_total_nonelectrostatic_energy": 7.78, 
			 "SMD_solvation_energy": 5.06 
		},
		"coords": [
			{
				"x": 1.2768011138,
				"y": 1.8100340888,
				"z": 3.0464537671,
				"element": "C" 
			},
			{
				"x": 0.3767829898,
				"y": 0.6336959106,
				"z": 2.7099959865,
				"element": "C" 
			},
			{
				"x": -0.4830164161,
				"y": 0.2609595033,
				"z": 3.4922860386,
				"element": "O" 
			},
			{
				"x": 0.5620669822,
				"y": -0.0651674765,
				"z": 1.3944979736,
				"element": "C" 
			},
			{
				"x": -0.2843062638,
				"y": -1.148296464,
				"z": 1.1112123769,
				"element": "C" 
			},
			{
				"x": -0.1660407684,
				"y": -1.8382035592,
				"z": -0.0874115133,
				"element": "C" 
			},
			{
				"x": -1.2084685326,
				"y": -3.1875102018,
				"z": -0.4589619445,
				"element": "Cl" 
			},
			{
				"x": 0.8068908184,
				"y": -1.4435679099,
				"z": -1.013469676,
				"element": "C" 
			},
			{
				"x": 0.9267511439,
				"y": -2.1039341441,
				"z": -2.1711282071,
				"element": "F" 
			},
			{
				"x": 1.6541638092,
				"y": -0.3732042495,
				"z": -0.7503755214,
				"element": "C" 
			},
			{
				"x": 1.5305823341,
				"y": 0.3151397732,
				"z": 0.4540945426,
				"element": "C" 
			},
			{
				"x": 2.3305843359,
				"y": 1.509921423,
				"z": 3.0548831333,
				"element": "H" 
			},
			{
				"x": 1.0005932192,
				"y": 2.1886509461,
				"z": 4.0305783289,
				"element": "H" 
			},
			{
				"x": 1.1716648125,
				"y": 2.6108731737,
				"z": 2.3060481553,
				"element": "H" 
			},
			{
				"x": -1.0293007867,
				"y": -1.4334651055,
				"z": 1.8453134327,
				"element": "H" 
			},
			{
				"x": 2.3943225836,
				"y": -0.0998519224,
				"z": -1.4944191082,
				"element": "H" 
			},
			{
				"x": 2.1943286249,
				"y": 1.1491262142,
				"z": 0.6534022351,
				"element": "H" 
			}
		],
		 "valence_orbital": [ 
			{
				"type": "occ",
				"energy": -0.34378,
				"method": "rhf"
			},
			{
				"type": "occ",
				"energy": -0.32356,
				"method": "rhf"
			},
			{
				"type": "occ",
				"energy": -0.2729,
				"method": "rhf"
			},
			{
				"type": "occ",
				"energy": -0.26035,
				"method": "rhf"
			},
			{
				"type": "occ",
				"energy": -0.25946,
				"method": "rhf"
			},
			{
				"type": "unocc",
				"energy": -0.0659,
				"method": "rhf"
			},
			{
				"type": "unocc",
				"energy": -0.03222,
				"method": "rhf"
			},
			{
				"type": "unocc",
				"energy": 0.01707,
				"method": "rhf"
			},
			{
				"type": "unocc",
				"energy": 0.02877,
				"method": "rhf"
			},
			{
				"type": "unocc",
				"energy": 0.08392,
				"method": "rhf"
			}
		],
		"cosmo_sigma_profile": { 
			"-0.025": 0.0,
			"-0.024": 0.0,
			"-0.023": 0.0,
			"-0.022": 0.0,
			"-0.021": 0.0,
			"-0.02": 0.0,
			"-0.019": 0.0,
			"-0.018": 0.0,
			"-0.017": 0.0,
			"-0.016": 0.0,
			"-0.015": 0.0,
			"-0.014": 0.0,
			"-0.013": 0.0,
			"-0.012": 0.0,
			"-0.011": 0.0,
			"-0.01": 0.0,
			"-0.009": 0.313882766349,
			"-0.008": 3.42718472148,
			"-0.007": 8.13424920181,
			"-0.006": 11.9678611494,
			"-0.005": 9.05569359463,
			"-0.004": 9.87315852355,
			"-0.003": 10.6188814635,
			"-0.002": 16.5960643555,
			"-0.001": 19.7628190923,
			"0.0": 20.8204855629,
			"0.001": 19.2849012704,
			"0.002": 13.3040325836,
			"0.003": 16.9461698198,
			"0.004": 14.0431956712,
			"0.005": 3.73344509193,
			"0.006": 1.31703744588,
			"0.007": 1.34706798011,
			"0.008": 1.91482317188,
			"0.009": 1.54718761216,
			"0.01": 2.31323079215,
			"0.011": 3.48533992866,
			"0.012": 3.05834316654,
			"0.013": 0.882369977204,
			"0.014": 0.00627819801403,
			"0.015": 0.0,
			"0.016": 0.0,
			"0.017": 0.0,
			"0.018": 0.0,
			"0.019": 0.0,
			"0.02": 0.0,
			"0.021": 0.0,
			"0.022": 0.0,
			"0.023": 0.0,
			"0.024": 0.0,
			"0.025": 0.0
		}
	}
}
