{
	 "smiles": "CCCCC(Br)C(O)=O", 
	 "Tm": 277.15, 
	 "num_atms": 20, 
	 "gaussian": { 
		 "optdone": 1, 
		 "sigma_profile": "yes", 
		 "theory": "DFT", 
		 "functional": "B3LYP", 
		 "basiset": "6-31G**", 
		 "properties": { 
			 "R2extent": 4014.412, 
			 "electric_dipole_moment_norm": 2.84788479577, 
			 "electric_quadrupole_moment_norm": 9.88183636021, 
			 "total_energy": -2957.14186071, 
			 "HOMO_LUMO_gap": 0.22988, 
			 "cosmo_polarized_energy": -9.66, 
			 "cosmo_cavitation_energy": 24.84, 
			 "cosmo_dispersion_energy": -18.35, 
			 "cosmo_repulsion_energy": 1.54, 
			 "cosmo_total_nonelectrostatic_energy": 8.03, 
			 "SMD_solvation_energy": 4.12 
		},
		"coords": [
			{
				"x": 0.6185065532,
				"y": 1.4672797393,
				"z": -2.7381631488,
				"element": "C" 
			},
			{
				"x": -0.3572953554,
				"y": 0.4770309108,
				"z": -2.0933317517,
				"element": "C" 
			},
			{
				"x": -0.0047071805,
				"y": 0.1735816309,
				"z": -0.630174121,
				"element": "C" 
			},
			{
				"x": -0.8953708832,
				"y": -0.8910613135,
				"z": 0.0437623304,
				"element": "C" 
			},
			{
				"x": -2.3459391132,
				"y": -0.4551270168,
				"z": 0.2452327381,
				"element": "C" 
			},
			{
				"x": -3.5203810059,
				"y": -2.0588533271,
				"z": 0.5672425392,
				"element": "Br" 
			},
			{
				"x": -2.5513210123,
				"y": 0.560391192,
				"z": 1.3799437877,
				"element": "C" 
			},
			{
				"x": -3.8113845135,
				"y": 0.7543476641,
				"z": 1.8073625246,
				"element": "O" 
			},
			{
				"x": -1.6353145566,
				"y": 1.213097138,
				"z": 1.8182397394,
				"element": "O" 
			},
			{
				"x": 0.3499639741,
				"y": 1.6725611961,
				"z": -3.7793108193,
				"element": "H" 
			},
			{
				"x": 1.6418796331,
				"y": 1.0755828223,
				"z": -2.7285375454,
				"element": "H" 
			},
			{
				"x": 0.6254198366,
				"y": 2.4216602939,
				"z": -2.2002199113,
				"element": "H" 
			},
			{
				"x": -0.3656164328,
				"y": -0.4585610788,
				"z": -2.6694429308,
				"element": "H" 
			},
			{
				"x": -1.3741565557,
				"y": 0.886777666,
				"z": -2.1642991363,
				"element": "H" 
			},
			{
				"x": 1.0266959946,
				"y": -0.200304929,
				"z": -0.5888091415,
				"element": "H" 
			},
			{
				"x": -0.0244299737,
				"y": 1.0916244381,
				"z": -0.035857099,
				"element": "H" 
			},
			{
				"x": -0.8957995507,
				"y": -1.7964900744,
				"z": -0.5715275382,
				"element": "H" 
			},
			{
				"x": -0.4774637044,
				"y": -1.1601280604,
				"z": 1.0183445867,
				"element": "H" 
			},
			{
				"x": -2.7741823336,
				"y": -0.0373730992,
				"z": -0.6689559486,
				"element": "H" 
			},
			{
				"x": -4.3884038202,
				"y": 0.0533642075,
				"z": 1.4585008457,
				"element": "H" 
			}
		],
		 "valence_orbital": [ 
			{
				"type": "occ",
				"energy": -0.33128,
				"method": "rhf"
			},
			{
				"type": "occ",
				"energy": -0.32856,
				"method": "rhf"
			},
			{
				"type": "occ",
				"energy": -0.30828,
				"method": "rhf"
			},
			{
				"type": "occ",
				"energy": -0.29904,
				"method": "rhf"
			},
			{
				"type": "occ",
				"energy": -0.27829,
				"method": "rhf"
			},
			{
				"type": "unocc",
				"energy": -0.04841,
				"method": "rhf"
			},
			{
				"type": "unocc",
				"energy": 0.01201,
				"method": "rhf"
			},
			{
				"type": "unocc",
				"energy": 0.07981,
				"method": "rhf"
			},
			{
				"type": "unocc",
				"energy": 0.09307,
				"method": "rhf"
			},
			{
				"type": "unocc",
				"energy": 0.10105,
				"method": "rhf"
			}
		],
		"cosmo_sigma_profile": { 
			"-0.025": 0.0,
			"-0.024": 0.0,
			"-0.023": 0.0,
			"-0.022": 0.0,
			"-0.021": 0.0,
			"-0.02": 0.0,
			"-0.019": 0.0,
			"-0.018": 0.0,
			"-0.017": 0.0,
			"-0.016": 0.0349870663551,
			"-0.015": 0.652053521957,
			"-0.014": 0.904440476099,
			"-0.013": 0.823412658539,
			"-0.012": 1.04169931303,
			"-0.011": 2.35626385588,
			"-0.01": 1.61254279249,
			"-0.009": 2.55796839463,
			"-0.008": 3.12369847794,
			"-0.007": 3.19518801603,
			"-0.006": 2.20319721024,
			"-0.005": 4.54730660278,
			"-0.004": 9.08656235101,
			"-0.003": 17.109795015,
			"-0.002": 24.1067595876,
			"-0.001": 24.3491072411,
			"0.0": 20.97032901,
			"0.001": 20.4287415048,
			"0.002": 11.0614489633,
			"0.003": 8.5111533075,
			"0.004": 8.06886605296,
			"0.005": 5.81926057856,
			"0.006": 2.61213837392,
			"0.007": 3.25893473683,
			"0.008": 3.210419433,
			"0.009": 4.72841350127,
			"0.01": 4.75755557545,
			"0.011": 4.13553605117,
			"0.012": 1.75030582596,
			"0.013": 0.103755637498,
			"0.014": 0.0,
			"0.015": 0.0,
			"0.016": 0.0,
			"0.017": 0.0,
			"0.018": 0.0,
			"0.019": 0.0,
			"0.02": 0.0,
			"0.021": 0.0,
			"0.022": 0.0,
			"0.023": 0.0,
			"0.024": 0.0,
			"0.025": 0.0
		}
	}
}
