{
	 "smiles": "OC1=C(I)C=C(I)C=C1C(=O)NC1=CC(Cl)=C(OC2=CC=C(Cl)C=C2)C=C1", 
	 "Tm": 442.15, 
	 "num_atms": 38, 
	 "gaussian": { 
		 "optdone": 1, 
		 "sigma_profile": "no", 
		 "theory": "DFT", 
		 "functional": "B3LYP", 
		 "basiset": "6-31G**", 
		 "properties": { 
			 "R2extent": 15723.708, 
			 "electric_dipole_moment_norm": 1.53847407843, 
			 "electric_quadrupole_moment_norm": 30.5510110365, 
			 "total_energy": -1954.22123986, 
			 "HOMO_LUMO_gap": 0.16055, 
			 "cosmo_polarized_energy": -218506.11, 
			 "cosmo_cavitation_energy": 54.57, 
			 "cosmo_dispersion_energy": -38.57, 
			 "cosmo_repulsion_energy": 2.96, 
			 "cosmo_total_nonelectrostatic_energy": 18.96, 
			 "SMD_solvation_energy": 7.85 
		},
		"coords": [
			{
				"x": 2.1190238811,
				"y": -3.1937736759,
				"z": -2.1405722293,
				"element": "O" 
			},
			{
				"x": 2.3402280871,
				"y": -1.8611648876,
				"z": -2.0610278481,
				"element": "C" 
			},
			{
				"x": 3.5425643238,
				"y": -1.2814557413,
				"z": -1.6287714848,
				"element": "C" 
			},
			{
				"x": 5.1730388712,
				"y": -2.5393926365,
				"z": -1.116031437,
				"element": "I" 
			},
			{
				"x": 3.6889028976,
				"y": 0.1029589425,
				"z": -1.5238236474,
				"element": "C" 
			},
			{
				"x": 2.6082883017,
				"y": 0.9219681849,
				"z": -1.8463382743,
				"element": "C" 
			},
			{
				"x": 2.8042380026,
				"y": 3.0240686442,
				"z": -1.680191284,
				"element": "I" 
			},
			{
				"x": 1.4021147983,
				"y": 0.3686914575,
				"z": -2.2787578445,
				"element": "C" 
			},
			{
				"x": 1.267358278,
				"y": -1.0144361984,
				"z": -2.3925911482,
				"element": "C" 
			},
			{
				"x": 0.0120577588,
				"y": -1.5888546804,
				"z": -3.0140780698,
				"element": "C" 
			},
			{
				"x": 0.0044584804,
				"y": -1.997207328,
				"z": -4.1632322778,
				"element": "O" 
			},
			{
				"x": -1.1409391277,
				"y": -1.5386930857,
				"z": -2.2601604315,
				"element": "N" 
			},
			{
				"x": -1.2826087484,
				"y": -1.3274326694,
				"z": -0.8631593654,
				"element": "C" 
			},
			{
				"x": -0.4797455788,
				"y": -2.0147601937,
				"z": 0.0545044133,
				"element": "C" 
			},
			{
				"x": -0.6364463621,
				"y": -1.7905308486,
				"z": 1.4200661544,
				"element": "C" 
			},
			{
				"x": 0.3880269315,
				"y": -2.641198101,
				"z": 2.5525516256,
				"element": "Cl" 
			},
			{
				"x": -1.6236446185,
				"y": -0.9137643368,
				"z": 1.8951699794,
				"element": "C" 
			},
			{
				"x": -1.7832863635,
				"y": -0.8018690931,
				"z": 3.2518278225,
				"element": "O" 
			},
			{
				"x": -2.170126963,
				"y": 0.3987755243,
				"z": 3.8200379974,
				"element": "C" 
			},
			{
				"x": -3.0960818981,
				"y": 0.3323272148,
				"z": 4.8614975208,
				"element": "C" 
			},
			{
				"x": -3.4682978405,
				"y": 1.495635133,
				"z": 5.5333533364,
				"element": "C" 
			},
			{
				"x": -2.9133128375,
				"y": 2.7160438871,
				"z": 5.1487110616,
				"element": "C" 
			},
			{
				"x": -3.3874750221,
				"y": 4.1863722393,
				"z": 5.9860408644,
				"element": "Cl" 
			},
			{
				"x": -1.9849306705,
				"y": 2.7860729401,
				"z": 4.1095841358,
				"element": "C" 
			},
			{
				"x": -1.6063368319,
				"y": 1.6208932586,
				"z": 3.4442122024,
				"element": "C" 
			},
			{
				"x": -2.4500005545,
				"y": -0.2632453697,
				"z": 0.97286523,
				"element": "C" 
			},
			{
				"x": -2.2714937038,
				"y": -0.4550719428,
				"z": -0.3936163998,
				"element": "C" 
			},
			{
				"x": 2.9294179091,
				"y": -3.6765381174,
				"z": -1.9091502384,
				"element": "H" 
			},
			{
				"x": 4.6276433844,
				"y": 0.526707165,
				"z": -1.190305288,
				"element": "H" 
			},
			{
				"x": 0.5647101194,
				"y": 1.0065157019,
				"z": -2.537748673,
				"element": "H" 
			},
			{
				"x": -1.9629405323,
				"y": -1.8207993543,
				"z": -2.7820947307,
				"element": "H" 
			},
			{
				"x": 0.255946332,
				"y": -2.7319428395,
				"z": -0.2898306545,
				"element": "H" 
			},
			{
				"x": -3.5104348614,
				"y": -0.6307850226,
				"z": 5.1392336203,
				"element": "H" 
			},
			{
				"x": -4.1861493598,
				"y": 1.4555451676,
				"z": 6.3448718066,
				"element": "H" 
			},
			{
				"x": -1.5537536688,
				"y": 3.7406493559,
				"z": 3.8293223134,
				"element": "H" 
			},
			{
				"x": -0.8744040343,
				"y": 1.6621766744,
				"z": 2.6448694829,
				"element": "H" 
			},
			{
				"x": -3.2241425869,
				"y": 0.4038206251,
				"z": 1.3354375311,
				"element": "H" 
			},
			{
				"x": -2.9015661926,
				"y": 0.0734940065,
				"z": -1.1022757718,
				"element": "H" 
			}
		],
		 "valence_orbital": [ 
			{
				"type": "occ",
				"energy": -0.26577,
				"method": "rhf"
			},
			{
				"type": "occ",
				"energy": -0.25924,
				"method": "rhf"
			},
			{
				"type": "occ",
				"energy": -0.25219,
				"method": "rhf"
			},
			{
				"type": "occ",
				"energy": -0.23724,
				"method": "rhf"
			},
			{
				"type": "occ",
				"energy": -0.22946,
				"method": "rhf"
			},
			{
				"type": "unocc",
				"energy": -0.06891,
				"method": "rhf"
			},
			{
				"type": "unocc",
				"energy": -0.04692,
				"method": "rhf"
			},
			{
				"type": "unocc",
				"energy": -0.04034,
				"method": "rhf"
			},
			{
				"type": "unocc",
				"energy": -0.03405,
				"method": "rhf"
			},
			{
				"type": "unocc",
				"energy": -0.03173,
				"method": "rhf"
			}
		],
		"cosmo_sigma_profile": { 
			"0.0": 0.0,
			"0.0": 0.0,
			"0.0": 0.0,
			"0.0": 0.0,
			"0.0": 0.0,
			"0.0": 0.0,
			"0.0": 0.0,
			"0.0": 0.0,
			"0.0": 0.0,
			"0.0": 0.0,
			"0.0": 0.0,
			"0.0": 0.0,
			"0.0": 0.0,
			"0.0": 0.0,
			"0.0": 0.0,
			"0.0": 0.0,
			"0.0": 0.0,
			"0.0": 0.0,
			"0.0": 0.0,
			"0.0": 0.0,
			"0.0": 0.0,
			"0.0": 0.0,
			"0.0": 0.0,
			"0.0": 0.0,
			"0.0": 0.0,
			"0.0": 0.0,
			"0.0": 0.0,
			"0.0": 0.0,
			"0.0": 0.0,
			"0.0": 0.0,
			"0.0": 0.0,
			"0.0": 0.0,
			"0.0": 0.0,
			"0.0": 0.0,
			"0.0": 0.0,
			"0.0": 0.0,
			"0.0": 0.0,
			"0.0": 0.0,
			"0.0": 0.0,
			"0.0": 0.0,
			"0.0": 0.0,
			"0.0": 0.0,
			"0.0": 0.0,
			"0.0": 0.0,
			"0.0": 0.0,
			"0.0": 0.0,
			"0.0": 0.0,
			"0.0": 0.0,
			"0.0": 0.0,
			"0.0": 0.0,
			"0.0": 0.0
		}
	}
}
