{
	 "smiles": "NC1=C2N=CN([C@@H]3O[C@H](CO)[C@@H](O)[C@H]3O)C2=NC=N1", 
	 "Tm": 508.15, 
	 "num_atms": 32, 
	 "gaussian": { 
		 "optdone": 1, 
		 "sigma_profile": "yes", 
		 "theory": "DFT", 
		 "functional": "B3LYP", 
		 "basiset": "6-31G**", 
		 "properties": { 
			 "R2extent": 5594.0177, 
			 "electric_dipole_moment_norm": 4.12820248777, 
			 "electric_quadrupole_moment_norm": 14.1472364301, 
			 "total_energy": -963.533175615, 
			 "HOMO_LUMO_gap": 0.19957, 
			 "cosmo_polarized_energy": -25.01, 
			 "cosmo_cavitation_energy": 34.85, 
			 "cosmo_dispersion_energy": -25.64, 
			 "cosmo_repulsion_energy": 1.97, 
			 "cosmo_total_nonelectrostatic_energy": 11.18, 
			 "SMD_solvation_energy": 1.25 
		},
		"coords": [
			{
				"x": -4.445325073,
				"y": 2.1799124775,
				"z": -1.5839711382,
				"element": "N" 
			},
			{
				"x": -3.7101357663,
				"y": 1.1801019986,
				"z": -1.0345224663,
				"element": "C" 
			},
			{
				"x": -2.3662824989,
				"y": 1.3605235719,
				"z": -0.6464971078,
				"element": "C" 
			},
			{
				"x": -1.5198519176,
				"y": 2.4555095928,
				"z": -0.6555853474,
				"element": "N" 
			},
			{
				"x": -0.3946726044,
				"y": 1.9983823691,
				"z": -0.1566099762,
				"element": "C" 
			},
			{
				"x": -0.4493087541,
				"y": 0.6528153542,
				"z": 0.1814235221,
				"element": "N" 
			},
			{
				"x": 0.5850536302,
				"y": -0.1894431404,
				"z": 0.772675022,
				"element": "C" 
			},
			{
				"x": 1.452993344,
				"y": 0.5987936634,
				"z": 1.5720205794,
				"element": "O" 
			},
			{
				"x": 2.7882679411,
				"y": 0.6202272774,
				"z": 1.0269417978,
				"element": "C" 
			},
			{
				"x": 3.3866678278,
				"y": 2.0091251865,
				"z": 1.1543833139,
				"element": "C" 
			},
			{
				"x": 2.702529875,
				"y": 2.8993687256,
				"z": 0.2823498094,
				"element": "O" 
			},
			{
				"x": 2.662886435,
				"y": 0.076331024,
				"z": -0.4135378715,
				"element": "C" 
			},
			{
				"x": 3.8326538235,
				"y": -0.5385612093,
				"z": -0.8918549646,
				"element": "O" 
			},
			{
				"x": 1.4769058724,
				"y": -0.8964606224,
				"z": -0.2645017388,
				"element": "C" 
			},
			{
				"x": 1.9573458587,
				"y": -2.1574218304,
				"z": 0.2071852731,
				"element": "O" 
			},
			{
				"x": -1.728679681,
				"y": 0.2307342414,
				"z": -0.1263910399,
				"element": "C" 
			},
			{
				"x": -2.2569565459,
				"y": -0.9888148428,
				"z": 0.0408778798,
				"element": "N" 
			},
			{
				"x": -3.5337690632,
				"y": -1.0207785183,
				"z": -0.3569570568,
				"element": "C" 
			},
			{
				"x": -4.2777574679,
				"y": -0.0298357265,
				"z": -0.8743735382,
				"element": "N" 
			},
			{
				"x": -5.4353728412,
				"y": 2.0297719902,
				"z": -1.6956544203,
				"element": "H" 
			},
			{
				"x": -4.0863135933,
				"y": 3.1205970077,
				"z": -1.5566086453,
				"element": "H" 
			},
			{
				"x": 0.508350659,
				"y": 2.5704861302,
				"z": 0.0090553533,
				"element": "H" 
			},
			{
				"x": 0.0578518554,
				"y": -0.9285217614,
				"z": 1.3870735239,
				"element": "H" 
			},
			{
				"x": 3.4274050601,
				"y": -0.0633076134,
				"z": 1.6085641172,
				"element": "H" 
			},
			{
				"x": 4.4527776364,
				"y": 1.9323076734,
				"z": 0.8927089304,
				"element": "H" 
			},
			{
				"x": 3.3099976458,
				"y": 2.3345181072,
				"z": 2.2017941383,
				"element": "H" 
			},
			{
				"x": 3.0619855272,
				"y": 3.7863997043,
				"z": 0.4005320562,
				"element": "H" 
			},
			{
				"x": 2.4072748478,
				"y": 0.8971079487,
				"z": -1.0896235422,
				"element": "H" 
			},
			{
				"x": 3.7676315868,
				"y": -1.4665159422,
				"z": -0.6098141918,
				"element": "H" 
			},
			{
				"x": 0.9505182488,
				"y": -1.1001820769,
				"z": -1.1979879886,
				"element": "H" 
			},
			{
				"x": 2.0919704537,
				"y": -2.1079074337,
				"z": 1.1637933902,
				"element": "H" 
			},
			{
				"x": -4.0424423218,
				"y": -1.9766633265,
				"z": -0.2480876731,
				"element": "H" 
			}
		],
		 "valence_orbital": [ 
			{
				"type": "occ",
				"energy": -0.27258,
				"method": "rhf"
			},
			{
				"type": "occ",
				"energy": -0.26612,
				"method": "rhf"
			},
			{
				"type": "occ",
				"energy": -0.25405,
				"method": "rhf"
			},
			{
				"type": "occ",
				"energy": -0.24248,
				"method": "rhf"
			},
			{
				"type": "occ",
				"energy": -0.21234,
				"method": "rhf"
			},
			{
				"type": "unocc",
				"energy": -0.01277,
				"method": "rhf"
			},
			{
				"type": "unocc",
				"energy": 0.01157,
				"method": "rhf"
			},
			{
				"type": "unocc",
				"energy": 0.0402,
				"method": "rhf"
			},
			{
				"type": "unocc",
				"energy": 0.04491,
				"method": "rhf"
			},
			{
				"type": "unocc",
				"energy": 0.06086,
				"method": "rhf"
			}
		],
		"cosmo_sigma_profile": { 
			"-0.025": 0.0,
			"-0.024": 0.0,
			"-0.023": 0.0,
			"-0.022": 0.0,
			"-0.021": 0.0,
			"-0.02": 0.0,
			"-0.019": 0.0,
			"-0.018": 0.00365266042179,
			"-0.017": 1.00100236029,
			"-0.016": 2.06566552782,
			"-0.015": 2.10693702092,
			"-0.014": 3.17383977666,
			"-0.013": 4.69189366247,
			"-0.012": 3.76654586613,
			"-0.011": 4.22567801349,
			"-0.01": 4.59492458045,
			"-0.009": 4.8178391645,
			"-0.008": 6.57505626522,
			"-0.007": 7.22700285941,
			"-0.006": 11.795270029,
			"-0.005": 19.0963197463,
			"-0.004": 14.4952942039,
			"-0.003": 13.1693142542,
			"-0.002": 12.2349743702,
			"-0.001": 13.990672882,
			"0.0": 18.4691795859,
			"0.001": 17.5273795429,
			"0.002": 14.9132648377,
			"0.003": 12.336428406,
			"0.004": 10.9935495784,
			"0.005": 11.0904847434,
			"0.006": 8.78673381166,
			"0.007": 7.69100009482,
			"0.008": 8.24184511822,
			"0.009": 7.03708380661,
			"0.01": 6.41006407121,
			"0.011": 6.73593460791,
			"0.012": 4.9156528573,
			"0.013": 4.89381648957,
			"0.014": 3.55145325994,
			"0.015": 2.14008277933,
			"0.016": 0.352109316776,
			"0.017": 0.0,
			"0.018": 0.0,
			"0.019": 0.0,
			"0.02": 0.0,
			"0.021": 0.0,
			"0.022": 0.0,
			"0.023": 0.0,
			"0.024": 0.0,
			"0.025": 0.0
		}
	}
}
