{
	 "smiles": "CC1=C(CC2=CC(F)=CC=C2)SC(N)=N1", 
	 "Tm": 356.15, 
	 "num_atms": 26, 
	 "gaussian": { 
		 "optdone": 1, 
		 "sigma_profile": "yes", 
		 "theory": "DFT", 
		 "functional": "B3LYP", 
		 "basiset": "6-31G**", 
		 "properties": { 
			 "R2extent": 4669.4617, 
			 "electric_dipole_moment_norm": 1.06066702598, 
			 "electric_quadrupole_moment_norm": 15.410657034, 
			 "total_energy": -1033.33237879, 
			 "HOMO_LUMO_gap": 0.19158, 
			 "cosmo_polarized_energy": -11.71, 
			 "cosmo_cavitation_energy": 32.21, 
			 "cosmo_dispersion_energy": -23.09, 
			 "cosmo_repulsion_energy": 1.78, 
			 "cosmo_total_nonelectrostatic_energy": 10.89, 
			 "SMD_solvation_energy": 3.9 
		},
		"coords": [
			{
				"x": 1.8124184817,
				"y": 0.4006905945,
				"z": -2.6387731422,
				"element": "C" 
			},
			{
				"x": 0.3536143564,
				"y": 0.748889208,
				"z": -2.5532067691,
				"element": "C" 
			},
			{
				"x": -0.3568136808,
				"y": 1.0320771948,
				"z": -1.4183889758,
				"element": "C" 
			},
			{
				"x": 0.0769340749,
				"y": 1.0803663169,
				"z": 0.0191702012,
				"element": "C" 
			},
			{
				"x": -0.5573934204,
				"y": 0.037073676,
				"z": 0.9316064293,
				"element": "C" 
			},
			{
				"x": -0.6408499024,
				"y": -1.302150906,
				"z": 0.5302095121,
				"element": "C" 
			},
			{
				"x": -1.1869434434,
				"y": -2.2382062847,
				"z": 1.3974546031,
				"element": "C" 
			},
			{
				"x": -1.2611494506,
				"y": -3.5272184431,
				"z": 0.9992562453,
				"element": "F" 
			},
			{
				"x": -1.6618466643,
				"y": -1.8987421678,
				"z": 2.6602869608,
				"element": "C" 
			},
			{
				"x": -1.5795196283,
				"y": -0.5636644377,
				"z": 3.0539070117,
				"element": "C" 
			},
			{
				"x": -1.0336083492,
				"y": 0.3962919663,
				"z": 2.1983316644,
				"element": "C" 
			},
			{
				"x": -2.0317938345,
				"y": 1.391585191,
				"z": -1.8585996446,
				"element": "S" 
			},
			{
				"x": -1.5977428499,
				"y": 1.1067232632,
				"z": -3.5454505481,
				"element": "C" 
			},
			{
				"x": -2.5175917094,
				"y": 1.28733595,
				"z": -4.5554221588,
				"element": "N" 
			},
			{
				"x": -0.3541992535,
				"y": 0.7883010079,
				"z": -3.7468939493,
				"element": "N" 
			},
			{
				"x": 2.3458065746,
				"y": 1.1433685704,
				"z": -3.2423944347,
				"element": "H" 
			},
			{
				"x": 2.2887767526,
				"y": 0.3503777617,
				"z": -1.6576139241,
				"element": "H" 
			},
			{
				"x": 1.9426587333,
				"y": -0.5673459531,
				"z": -3.1343302678,
				"element": "H" 
			},
			{
				"x": 1.1663387021,
				"y": 0.9560287122,
				"z": 0.0432241258,
				"element": "H" 
			},
			{
				"x": -0.1157625605,
				"y": 2.0752016644,
				"z": 0.4400780869,
				"element": "H" 
			},
			{
				"x": -0.2970498065,
				"y": -1.6162561708,
				"z": -0.4498291724,
				"element": "H" 
			},
			{
				"x": -2.0835422791,
				"y": -2.665016683,
				"z": 3.3014016916,
				"element": "H" 
			},
			{
				"x": -1.9475065983,
				"y": -0.2695774538,
				"z": 4.0325173867,
				"element": "H" 
			},
			{
				"x": -0.9775116339,
				"y": 1.4336426853,
				"z": 2.5170339635,
				"element": "H" 
			},
			{
				"x": -2.2044373419,
				"y": 0.9056834883,
				"z": -5.4388708388,
				"element": "H" 
			},
			{
				"x": -3.4801852685,
				"y": 1.0726412492,
				"z": -4.3370040566,
				"element": "H" 
			}
		],
		 "valence_orbital": [ 
			{
				"type": "occ",
				"energy": -0.26678,
				"method": "rhf"
			},
			{
				"type": "occ",
				"energy": -0.26545,
				"method": "rhf"
			},
			{
				"type": "occ",
				"energy": -0.24952,
				"method": "rhf"
			},
			{
				"type": "occ",
				"energy": -0.24016,
				"method": "rhf"
			},
			{
				"type": "occ",
				"energy": -0.20257,
				"method": "rhf"
			},
			{
				"type": "unocc",
				"energy": -0.01099,
				"method": "rhf"
			},
			{
				"type": "unocc",
				"energy": -0.00065,
				"method": "rhf"
			},
			{
				"type": "unocc",
				"energy": 0.00582,
				"method": "rhf"
			},
			{
				"type": "unocc",
				"energy": 0.01666,
				"method": "rhf"
			},
			{
				"type": "unocc",
				"energy": 0.06472,
				"method": "rhf"
			}
		],
		"cosmo_sigma_profile": { 
			"-0.025": 0.0,
			"-0.024": 0.0,
			"-0.023": 0.0,
			"-0.022": 0.0,
			"-0.021": 0.0,
			"-0.02": 0.0,
			"-0.019": 0.0,
			"-0.018": 0.0,
			"-0.017": 0.0,
			"-0.016": 0.0,
			"-0.015": 0.194698765819,
			"-0.014": 1.33734312165,
			"-0.013": 2.53933714341,
			"-0.012": 2.40925906498,
			"-0.011": 2.82239453614,
			"-0.01": 2.59221614765,
			"-0.009": 2.11327688496,
			"-0.008": 1.38907124722,
			"-0.007": 4.07819294948,
			"-0.006": 10.9157056605,
			"-0.005": 13.1870539244,
			"-0.004": 18.0081669013,
			"-0.003": 17.3103639401,
			"-0.002": 18.2895663594,
			"-0.001": 17.0791343147,
			"0.0": 18.9462391443,
			"0.001": 18.420087637,
			"0.002": 20.786491627,
			"0.003": 21.3670684969,
			"0.004": 27.5017681054,
			"0.005": 18.9782409747,
			"0.006": 3.64925516014,
			"0.007": 2.77099942841,
			"0.008": 1.76908426147,
			"0.009": 1.91432428691,
			"0.01": 1.69946438837,
			"0.011": 1.9858382774,
			"0.012": 1.35097483825,
			"0.013": 0.906146859532,
			"0.014": 0.892900193714,
			"0.015": 0.792706627829,
			"0.016": 0.572865420883,
			"0.017": 0.0456229720533,
			"0.018": 0.0,
			"0.019": 0.0,
			"0.02": 0.0,
			"0.021": 0.0,
			"0.022": 0.0,
			"0.023": 0.0,
			"0.024": 0.0,
			"0.025": 0.0
		}
	}
}
