{
	 "smiles": "CCOC(=O)C1=CC=C(C=C1)C1=CC=C(O1)C=O", 
	 "Tm": 384.15, 
	 "num_atms": 30, 
	 "gaussian": { 
		 "optdone": 1, 
		 "sigma_profile": "yes", 
		 "theory": "DFT", 
		 "functional": "B3LYP", 
		 "basiset": "6-31G**", 
		 "properties": { 
			 "R2extent": 8424.5991, 
			 "electric_dipole_moment_norm": 4.42770125912, 
			 "electric_quadrupole_moment_norm": 17.7906800002, 
			 "total_energy": -841.613854649, 
			 "HOMO_LUMO_gap": 0.14486, 
			 "cosmo_polarized_energy": -12.72, 
			 "cosmo_cavitation_energy": 36.05, 
			 "cosmo_dispersion_energy": -25.81, 
			 "cosmo_repulsion_energy": 1.98, 
			 "cosmo_total_nonelectrostatic_energy": 12.23, 
			 "SMD_solvation_energy": 8.75 
		},
		"coords": [
			{
				"x": 3.4607520107,
				"y": 3.5151130814,
				"z": 1.9511489465,
				"element": "C" 
			},
			{
				"x": 3.9429623754,
				"y": 2.1189049776,
				"z": 1.5872931287,
				"element": "C" 
			},
			{
				"x": 3.0102215898,
				"y": 1.4533403096,
				"z": 0.7020443422,
				"element": "O" 
			},
			{
				"x": 1.9781551424,
				"y": 0.8064654006,
				"z": 1.2896134969,
				"element": "C" 
			},
			{
				"x": 1.8090828192,
				"y": 0.7563287476,
				"z": 2.4936071971,
				"element": "O" 
			},
			{
				"x": 1.0769030167,
				"y": 0.159124624,
				"z": 0.2945756944,
				"element": "C" 
			},
			{
				"x": -0.030981526,
				"y": -0.5523037762,
				"z": 0.775039386,
				"element": "C" 
			},
			{
				"x": -0.9045859503,
				"y": -1.1760652443,
				"z": -0.1055432032,
				"element": "C" 
			},
			{
				"x": -0.6890005643,
				"y": -1.1012878205,
				"z": -1.4948270159,
				"element": "C" 
			},
			{
				"x": 0.4251735317,
				"y": -0.3848429056,
				"z": -1.9716041198,
				"element": "C" 
			},
			{
				"x": 1.2975222026,
				"y": 0.2377088905,
				"z": -1.0884764063,
				"element": "C" 
			},
			{
				"x": -1.5993453256,
				"y": -1.7515533947,
				"z": -2.4264620849,
				"element": "C" 
			},
			{
				"x": -1.6340466191,
				"y": -1.8421460648,
				"z": -3.8054937552,
				"element": "C" 
			},
			{
				"x": -2.7720425,
				"y": -2.6141525493,
				"z": -4.1367683814,
				"element": "C" 
			},
			{
				"x": -3.3731857994,
				"y": -2.955253028,
				"z": -2.9477948088,
				"element": "C" 
			},
			{
				"x": -2.6574333071,
				"y": -2.4286750676,
				"z": -1.9029007671,
				"element": "O" 
			},
			{
				"x": -4.5621755181,
				"y": -3.7293627388,
				"z": -2.6286874545,
				"element": "C" 
			},
			{
				"x": -5.2756316124,
				"y": -4.2439789324,
				"z": -3.4739752318,
				"element": "O" 
			},
			{
				"x": 2.5364878457,
				"y": 3.46276406,
				"z": 2.5314758322,
				"element": "H" 
			},
			{
				"x": 3.2828999456,
				"y": 4.1133147234,
				"z": 1.0526270922,
				"element": "H" 
			},
			{
				"x": 4.2185589157,
				"y": 4.0224027972,
				"z": 2.5574707431,
				"element": "H" 
			},
			{
				"x": 4.8767000061,
				"y": 2.1515656542,
				"z": 1.0208255034,
				"element": "H" 
			},
			{
				"x": 4.0795597899,
				"y": 1.5038329452,
				"z": 2.4796788842,
				"element": "H" 
			},
			{
				"x": -0.1880379136,
				"y": -0.6038017928,
				"z": 1.8469753999,
				"element": "H" 
			},
			{
				"x": -1.7595937672,
				"y": -1.7251646507,
				"z": 0.2721658352,
				"element": "H" 
			},
			{
				"x": 0.6085026278,
				"y": -0.3155877064,
				"z": -3.0391039284,
				"element": "H" 
			},
			{
				"x": 2.1530920129,
				"y": 0.7876438002,
				"z": -1.4624182906,
				"element": "H" 
			},
			{
				"x": -0.9249237749,
				"y": -1.4049165542,
				"z": -4.4927491518,
				"element": "H" 
			},
			{
				"x": -3.1249466345,
				"y": -2.8965857781,
				"z": -5.1177097977,
				"element": "H" 
			},
			{
				"x": -4.7731430194,
				"y": -3.8159320072,
				"z": -1.5422270847,
				"element": "H" 
			}
		],
		 "valence_orbital": [ 
			{
				"type": "occ",
				"energy": -0.29262,
				"method": "rhf"
			},
			{
				"type": "occ",
				"energy": -0.27815,
				"method": "rhf"
			},
			{
				"type": "occ",
				"energy": -0.27051,
				"method": "rhf"
			},
			{
				"type": "occ",
				"energy": -0.25966,
				"method": "rhf"
			},
			{
				"type": "occ",
				"energy": -0.22865,
				"method": "rhf"
			},
			{
				"type": "unocc",
				"energy": -0.08379,
				"method": "rhf"
			},
			{
				"type": "unocc",
				"energy": -0.04272,
				"method": "rhf"
			},
			{
				"type": "unocc",
				"energy": -0.01825,
				"method": "rhf"
			},
			{
				"type": "unocc",
				"energy": 0.0176,
				"method": "rhf"
			},
			{
				"type": "unocc",
				"energy": 0.07778,
				"method": "rhf"
			}
		],
		"cosmo_sigma_profile": { 
			"-0.025": 0.0,
			"-0.024": 0.0,
			"-0.023": 0.0,
			"-0.022": 0.0,
			"-0.021": 0.0,
			"-0.02": 0.0,
			"-0.019": 0.0,
			"-0.018": 0.0,
			"-0.017": 0.0,
			"-0.016": 0.0,
			"-0.015": 0.0,
			"-0.014": 0.0,
			"-0.013": 0.0,
			"-0.012": 0.0,
			"-0.011": 0.0,
			"-0.01": 0.167411967536,
			"-0.009": 3.0713267897,
			"-0.008": 4.35616412346,
			"-0.007": 6.41997035303,
			"-0.006": 14.3920625067,
			"-0.005": 16.8235244001,
			"-0.004": 21.2744161425,
			"-0.003": 23.0762098867,
			"-0.002": 22.5662618555,
			"-0.001": 27.1003416791,
			"0.0": 31.9153232378,
			"0.001": 30.1943496893,
			"0.002": 25.4744395702,
			"0.003": 18.1773527034,
			"0.004": 4.955304911,
			"0.005": 6.04809653317,
			"0.006": 4.18967667605,
			"0.007": 2.52803601027,
			"0.008": 2.69024721128,
			"0.009": 3.8482954277,
			"0.01": 4.32748820836,
			"0.011": 6.80342966389,
			"0.012": 7.34310173229,
			"0.013": 1.24813712487,
			"0.014": 0.0253293922005,
			"0.015": 0.0,
			"0.016": 0.0,
			"0.017": 0.0,
			"0.018": 0.0,
			"0.019": 0.0,
			"0.02": 0.0,
			"0.021": 0.0,
			"0.022": 0.0,
			"0.023": 0.0,
			"0.024": 0.0,
			"0.025": 0.0
		}
	}
}
