{
	 "smiles": "COC=CC(=O)OC", 
	 "Tm": 276.65, 
	 "num_atms": 16, 
	 "gaussian": { 
		 "optdone": 1, 
		 "sigma_profile": "yes", 
		 "theory": "DFT", 
		 "functional": "B3LYP", 
		 "basiset": "6-31G**", 
		 "properties": { 
			 "R2extent": 1522.792, 
			 "electric_dipole_moment_norm": 2.20794222071, 
			 "electric_quadrupole_moment_norm": 15.0328800258, 
			 "total_energy": -421.000921105, 
			 "HOMO_LUMO_gap": 0.22125, 
			 "cosmo_polarized_energy": -8.93, 
			 "cosmo_cavitation_energy": 20.48, 
			 "cosmo_dispersion_energy": -15.02, 
			 "cosmo_repulsion_energy": 1.27, 
			 "cosmo_total_nonelectrostatic_energy": 6.72, 
			 "SMD_solvation_energy": 6.74 
		},
		"coords": [
			{
				"x": 2.8119710471,
				"y": 1.6403107566,
				"z": 0.6255426435,
				"element": "C" 
			},
			{
				"x": 1.5357668409,
				"y": 2.2075516887,
				"z": 0.9160695097,
				"element": "O" 
			},
			{
				"x": 0.4769081576,
				"y": 1.3830341813,
				"z": 0.9318786843,
				"element": "C" 
			},
			{
				"x": 0.4609775766,
				"y": 0.0547114989,
				"z": 0.7033655421,
				"element": "C" 
			},
			{
				"x": -0.7694246567,
				"y": -0.7445060157,
				"z": 0.7493820405,
				"element": "C" 
			},
			{
				"x": -0.8115891216,
				"y": -1.9440552636,
				"z": 0.5468619776,
				"element": "O" 
			},
			{
				"x": -1.8766246477,
				"y": -0.0075198045,
				"z": 1.042851553,
				"element": "O" 
			},
			{
				"x": -3.1012248508,
				"y": -0.7506381257,
				"z": 1.09689209,
				"element": "C" 
			},
			{
				"x": 3.0816405066,
				"y": 0.8825774777,
				"z": 1.3702810839,
				"element": "H" 
			},
			{
				"x": 3.5250064054,
				"y": 2.4640162805,
				"z": 0.6615321988,
				"element": "H" 
			},
			{
				"x": 2.8196834048,
				"y": 1.1854532663,
				"z": -0.3717339655,
				"element": "H" 
			},
			{
				"x": -0.4332643525,
				"y": 1.9263221409,
				"z": 1.163149536,
				"element": "H" 
			},
			{
				"x": 1.3526292488,
				"y": -0.513058252,
				"z": 0.4706917696,
				"element": "H" 
			},
			{
				"x": -3.0513174912,
				"y": -1.5268097534,
				"z": 1.8652323812,
				"element": "H" 
			},
			{
				"x": -3.30978014,
				"y": -1.2267052195,
				"z": 0.1350468831,
				"element": "H" 
			},
			{
				"x": -3.8773579273,
				"y": -0.0240848566,
				"z": 1.3388560722,
				"element": "H" 
			}
		],
		 "valence_orbital": [ 
			{
				"type": "occ",
				"energy": -0.3596,
				"method": "rhf"
			},
			{
				"type": "occ",
				"energy": -0.34286,
				"method": "rhf"
			},
			{
				"type": "occ",
				"energy": -0.29041,
				"method": "rhf"
			},
			{
				"type": "occ",
				"energy": -0.26191,
				"method": "rhf"
			},
			{
				"type": "occ",
				"energy": -0.2444,
				"method": "rhf"
			},
			{
				"type": "unocc",
				"energy": -0.02315,
				"method": "rhf"
			},
			{
				"type": "unocc",
				"energy": 0.09458,
				"method": "rhf"
			},
			{
				"type": "unocc",
				"energy": 0.09925,
				"method": "rhf"
			},
			{
				"type": "unocc",
				"energy": 0.10488,
				"method": "rhf"
			},
			{
				"type": "unocc",
				"energy": 0.11866,
				"method": "rhf"
			}
		],
		"cosmo_sigma_profile": { 
			"-0.025": 0.0,
			"-0.024": 0.0,
			"-0.023": 0.0,
			"-0.022": 0.0,
			"-0.021": 0.0,
			"-0.02": 0.0,
			"-0.019": 0.0,
			"-0.018": 0.0,
			"-0.017": 0.0,
			"-0.016": 0.0,
			"-0.015": 0.0,
			"-0.014": 0.0,
			"-0.013": 0.0,
			"-0.012": 0.0,
			"-0.011": 0.0,
			"-0.01": 0.0,
			"-0.009": 0.0265256700398,
			"-0.008": 0.973376597354,
			"-0.007": 3.36696330989,
			"-0.006": 14.2859592935,
			"-0.005": 15.5286537909,
			"-0.004": 17.8841642926,
			"-0.003": 16.5978327887,
			"-0.002": 11.0838889186,
			"-0.001": 8.85749353683,
			"0.0": 9.62996260587,
			"0.001": 9.82924498677,
			"0.002": 10.9021294004,
			"0.003": 7.12288811305,
			"0.004": 5.77250714579,
			"0.005": 4.94028789905,
			"0.006": 3.78474916438,
			"0.007": 3.46213503651,
			"0.008": 2.41263724733,
			"0.009": 2.6406831456,
			"0.01": 2.37493176862,
			"0.011": 1.3785108581,
			"0.012": 3.77036352113,
			"0.013": 4.73902353499,
			"0.014": 0.739789469979,
			"0.015": 0.0,
			"0.016": 0.0,
			"0.017": 0.0,
			"0.018": 0.0,
			"0.019": 0.0,
			"0.02": 0.0,
			"0.021": 0.0,
			"0.022": 0.0,
			"0.023": 0.0,
			"0.024": 0.0,
			"0.025": 0.0
		}
	}
}
