{
	 "smiles": "COCC(C)OC(C)=O", 
	 "Tm": 186.15, 
	 "num_atms": 21, 
	 "gaussian": { 
		 "optdone": 1, 
		 "sigma_profile": "yes", 
		 "theory": "DFT", 
		 "functional": "B3LYP", 
		 "basiset": "6-31G**", 
		 "properties": { 
			 "R2extent": 1509.7924, 
			 "electric_dipole_moment_norm": 1.10578582465, 
			 "electric_quadrupole_moment_norm": 8.22035918133, 
			 "total_energy": -461.542138579, 
			 "HOMO_LUMO_gap": 0.26822, 
			 "cosmo_polarized_energy": -8.3, 
			 "cosmo_cavitation_energy": 24.01, 
			 "cosmo_dispersion_energy": -17.1, 
			 "cosmo_repulsion_energy": 1.46, 
			 "cosmo_total_nonelectrostatic_energy": 8.36, 
			 "SMD_solvation_energy": 5.97 
		},
		"coords": [
			{
				"x": 1.563151156,
				"y": -1.8714189511,
				"z": -2.4486801863,
				"element": "C" 
			},
			{
				"x": 0.7201077041,
				"y": -0.8507026598,
				"z": -1.9596326406,
				"element": "O" 
			},
			{
				"x": 1.4317811206,
				"y": 0.1611495204,
				"z": -1.2755157144,
				"element": "C" 
			},
			{
				"x": 0.4346578337,
				"y": 1.1981702733,
				"z": -0.7661028497,
				"element": "C" 
			},
			{
				"x": 1.1066628151,
				"y": 2.3841377413,
				"z": -0.0782192693,
				"element": "C" 
			},
			{
				"x": -0.603567024,
				"y": 0.6070076096,
				"z": 0.0641719693,
				"element": "O" 
			},
			{
				"x": -0.2812590247,
				"y": -0.0364099957,
				"z": 1.2055164259,
				"element": "C" 
			},
			{
				"x": -1.5204347109,
				"y": -0.6265221108,
				"z": 1.8401535708,
				"element": "C" 
			},
			{
				"x": 0.8409562066,
				"y": -0.134177024,
				"z": 1.65833097,
				"element": "O" 
			},
			{
				"x": 2.2943432481,
				"y": -1.4861495679,
				"z": -3.1778298016,
				"element": "H" 
			},
			{
				"x": 0.9270111828,
				"y": -2.6081587772,
				"z": -2.9453831523,
				"element": "H" 
			},
			{
				"x": 2.1179362733,
				"y": -2.3686233119,
				"z": -1.6376751205,
				"element": "H" 
			},
			{
				"x": 2.012800585,
				"y": -0.2566937137,
				"z": -0.4436995266,
				"element": "H" 
			},
			{
				"x": 2.1325854277,
				"y": 0.6761677102,
				"z": -1.9566179607,
				"element": "H" 
			},
			{
				"x": -0.1427703316,
				"y": 1.5488033125,
				"z": -1.6268358293,
				"element": "H" 
			},
			{
				"x": 1.7133671392,
				"y": 2.0577419655,
				"z": 0.7679640997,
				"element": "H" 
			},
			{
				"x": 0.3488315693,
				"y": 3.0853736169,
				"z": 0.2821050827,
				"element": "H" 
			},
			{
				"x": 1.7461240231,
				"y": 2.9148685237,
				"z": -0.7912382174,
				"element": "H" 
			},
			{
				"x": -1.9300766586,
				"y": -1.4045759385,
				"z": 1.1886187834,
				"element": "H" 
			},
			{
				"x": -2.2913867585,
				"y": 0.140042068,
				"z": 1.9568753735,
				"element": "H" 
			},
			{
				"x": -1.2631217761,
				"y": -1.0543302908,
				"z": 2.8086939934,
				"element": "H" 
			}
		],
		 "valence_orbital": [ 
			{
				"type": "occ",
				"energy": -0.33927,
				"method": "rhf"
			},
			{
				"type": "occ",
				"energy": -0.31668,
				"method": "rhf"
			},
			{
				"type": "occ",
				"energy": -0.29235,
				"method": "rhf"
			},
			{
				"type": "occ",
				"energy": -0.26348,
				"method": "rhf"
			},
			{
				"type": "occ",
				"energy": -0.25137,
				"method": "rhf"
			},
			{
				"type": "unocc",
				"energy": 0.01685,
				"method": "rhf"
			},
			{
				"type": "unocc",
				"energy": 0.09041,
				"method": "rhf"
			},
			{
				"type": "unocc",
				"energy": 0.10195,
				"method": "rhf"
			},
			{
				"type": "unocc",
				"energy": 0.11456,
				"method": "rhf"
			},
			{
				"type": "unocc",
				"energy": 0.12296,
				"method": "rhf"
			}
		],
		"cosmo_sigma_profile": { 
			"-0.025": 0.0,
			"-0.024": 0.0,
			"-0.023": 0.0,
			"-0.022": 0.0,
			"-0.021": 0.0,
			"-0.02": 0.0,
			"-0.019": 0.0,
			"-0.018": 0.0,
			"-0.017": 0.0,
			"-0.016": 0.0,
			"-0.015": 0.0,
			"-0.014": 0.0,
			"-0.013": 0.0,
			"-0.012": 0.0,
			"-0.011": 0.0,
			"-0.01": 0.0,
			"-0.009": 0.0,
			"-0.008": 0.0,
			"-0.007": 0.418904827969,
			"-0.006": 5.2229895782,
			"-0.005": 13.1592352511,
			"-0.004": 23.040543138,
			"-0.003": 26.1491337175,
			"-0.002": 29.6936745818,
			"-0.001": 20.7476700804,
			"0.0": 13.0545292633,
			"0.001": 7.25169955718,
			"0.002": 5.27178278221,
			"0.003": 4.2196252397,
			"0.004": 5.10078244273,
			"0.005": 3.82678695416,
			"0.006": 4.61766959769,
			"0.007": 3.68708184488,
			"0.008": 4.41777662887,
			"0.009": 2.96406976068,
			"0.01": 3.34126284337,
			"0.011": 3.35791129307,
			"0.012": 4.53645118302,
			"0.013": 2.98789015168,
			"0.014": 0.122205009418,
			"0.015": 0.0,
			"0.016": 0.0,
			"0.017": 0.0,
			"0.018": 0.0,
			"0.019": 0.0,
			"0.02": 0.0,
			"0.021": 0.0,
			"0.022": 0.0,
			"0.023": 0.0,
			"0.024": 0.0,
			"0.025": 0.0
		}
	}
}
