{
	 "smiles": "CC1COC(=O)O1", 
	 "Tm": 224.35, 
	 "num_atms": 13, 
	 "gaussian": { 
		 "optdone": 1, 
		 "sigma_profile": "yes", 
		 "theory": "DFT", 
		 "functional": "B3LYP", 
		 "basiset": "6-31G**", 
		 "properties": { 
			 "R2extent": 972.5382, 
			 "electric_dipole_moment_norm": 5.37082111972, 
			 "electric_quadrupole_moment_norm": 8.57801451386, 
			 "total_energy": -381.721128182, 
			 "HOMO_LUMO_gap": 0.32884, 
			 "cosmo_polarized_energy": -11.98, 
			 "cosmo_cavitation_energy": 16.59, 
			 "cosmo_dispersion_energy": -12.71, 
			 "cosmo_repulsion_energy": 1.1, 
			 "cosmo_total_nonelectrostatic_energy": 4.98, 
			 "SMD_solvation_energy": 4.88 
		},
		"coords": [
			{
				"x": 1.7989313315,
				"y": 1.2599344387,
				"z": -1.7378652858,
				"element": "C" 
			},
			{
				"x": 0.8534966632,
				"y": 0.9956070718,
				"z": -0.5750330609,
				"element": "C" 
			},
			{
				"x": -0.0054346567,
				"y": -0.27556442,
				"z": -0.7254272666,
				"element": "C" 
			},
			{
				"x": 0.7047388041,
				"y": -1.2527746169,
				"z": 0.0442693245,
				"element": "O" 
			},
			{
				"x": 1.5741579677,
				"y": -0.6264611739,
				"z": 0.8867900164,
				"element": "C" 
			},
			{
				"x": 2.2138095953,
				"y": -1.1735108993,
				"z": 1.7357578528,
				"element": "O" 
			},
			{
				"x": 1.6094129332,
				"y": 0.7077648915,
				"z": 0.6204024857,
				"element": "O" 
			},
			{
				"x": 2.390725824,
				"y": 0.3674535593,
				"z": -1.965264734,
				"element": "H" 
			},
			{
				"x": 1.2304211262,
				"y": 1.5369210923,
				"z": -2.6319902086,
				"element": "H" 
			},
			{
				"x": 2.482905893,
				"y": 2.0770050918,
				"z": -1.4952328732,
				"element": "H" 
			},
			{
				"x": 0.2409160362,
				"y": 1.8761506226,
				"z": -0.3633400599,
				"element": "H" 
			},
			{
				"x": -1.0117860047,
				"y": -0.1556675205,
				"z": -0.3098138092,
				"element": "H" 
			},
			{
				"x": -0.0780955131,
				"y": -0.6270581374,
				"z": -1.7572523813,
				"element": "H" 
			}
		],
		 "valence_orbital": [ 
			{
				"type": "occ",
				"energy": -0.37556,
				"method": "rhf"
			},
			{
				"type": "occ",
				"energy": -0.36496,
				"method": "rhf"
			},
			{
				"type": "occ",
				"energy": -0.31087,
				"method": "rhf"
			},
			{
				"type": "occ",
				"energy": -0.30476,
				"method": "rhf"
			},
			{
				"type": "occ",
				"energy": -0.29039,
				"method": "rhf"
			},
			{
				"type": "unocc",
				"energy": 0.03845,
				"method": "rhf"
			},
			{
				"type": "unocc",
				"energy": 0.06689,
				"method": "rhf"
			},
			{
				"type": "unocc",
				"energy": 0.08401,
				"method": "rhf"
			},
			{
				"type": "unocc",
				"energy": 0.10562,
				"method": "rhf"
			},
			{
				"type": "unocc",
				"energy": 0.12411,
				"method": "rhf"
			}
		],
		"cosmo_sigma_profile": { 
			"-0.025": 0.0,
			"-0.024": 0.0,
			"-0.023": 0.0,
			"-0.022": 0.0,
			"-0.021": 0.0,
			"-0.02": 0.0,
			"-0.019": 0.0,
			"-0.018": 0.0,
			"-0.017": 0.0,
			"-0.016": 0.0,
			"-0.015": 0.0,
			"-0.014": 0.0,
			"-0.013": 0.0,
			"-0.012": 0.0,
			"-0.011": 0.0,
			"-0.01": 0.0,
			"-0.009": 0.0,
			"-0.008": 4.1808636429,
			"-0.007": 14.6878702735,
			"-0.006": 11.1872669624,
			"-0.005": 12.9951120072,
			"-0.004": 9.49733488767,
			"-0.003": 9.06821860661,
			"-0.002": 7.71214583093,
			"-0.001": 8.0336825558,
			"0.0": 5.14936369129,
			"0.001": 2.57804337571,
			"0.002": 3.38353853126,
			"0.003": 2.71480631682,
			"0.004": 2.83113559086,
			"0.005": 3.38137106725,
			"0.006": 2.80488034573,
			"0.007": 4.42401010078,
			"0.008": 6.08391073964,
			"0.009": 5.83386451432,
			"0.01": 3.69353771386,
			"0.011": 6.45690133,
			"0.012": 4.2019748578,
			"0.013": 0.140170954593,
			"0.014": 0.0,
			"0.015": 0.0,
			"0.016": 0.0,
			"0.017": 0.0,
			"0.018": 0.0,
			"0.019": 0.0,
			"0.02": 0.0,
			"0.021": 0.0,
			"0.022": 0.0,
			"0.023": 0.0,
			"0.024": 0.0,
			"0.025": 0.0
		}
	}
}
