{
	 "smiles": "OC(=O)CCN1C=NC2=C(C3=C(CCCC3)S2)C1=O", 
	 "Tm": 467.15, 
	 "num_atms": 33, 
	 "gaussian": { 
		 "optdone": 1, 
		 "sigma_profile": "yes", 
		 "theory": "DFT", 
		 "functional": "B3LYP", 
		 "basiset": "6-31G**", 
		 "properties": { 
			 "R2extent": 6493.1231, 
			 "electric_dipole_moment_norm": 1.71955958606, 
			 "electric_quadrupole_moment_norm": 21.3115960397, 
			 "total_energy": -1237.23063588, 
			 "HOMO_LUMO_gap": 0.16745, 
			 "cosmo_polarized_energy": -18.2, 
			 "cosmo_cavitation_energy": 37.08, 
			 "cosmo_dispersion_energy": -26.9, 
			 "cosmo_repulsion_energy": 2.02, 
			 "cosmo_total_nonelectrostatic_energy": 12.2, 
			 "SMD_solvation_energy": 4.66 
		},
		"coords": [
			{
				"x": 4.6385283355,
				"y": -0.0117102184,
				"z": 0.2502909709,
				"element": "O" 
			},
			{
				"x": 3.8604977796,
				"y": -0.9467549084,
				"z": 0.8393493757,
				"element": "C" 
			},
			{
				"x": 3.1400981188,
				"y": -0.7183010228,
				"z": 1.7841537944,
				"element": "O" 
			},
			{
				"x": 4.0130026075,
				"y": -2.2955950586,
				"z": 0.1631909629,
				"element": "C" 
			},
			{
				"x": 3.2196162953,
				"y": -2.3965315682,
				"z": -1.1548731546,
				"element": "C" 
			},
			{
				"x": 1.7639311436,
				"y": -2.3588940494,
				"z": -0.9635625033,
				"element": "N" 
			},
			{
				"x": 1.0745767146,
				"y": -3.5229489693,
				"z": -0.7412941494,
				"element": "C" 
			},
			{
				"x": -0.2070604671,
				"y": -3.6176006197,
				"z": -0.5518012968,
				"element": "N" 
			},
			{
				"x": -0.8698108354,
				"y": -2.428608518,
				"z": -0.5817554362,
				"element": "C" 
			},
			{
				"x": -0.3047992289,
				"y": -1.1737292681,
				"z": -0.7962112858,
				"element": "C" 
			},
			{
				"x": -1.2672461204,
				"y": -0.1051751547,
				"z": -0.7758828533,
				"element": "C" 
			},
			{
				"x": -2.5352330015,
				"y": -0.5675955156,
				"z": -0.5428379552,
				"element": "C" 
			},
			{
				"x": -3.7708727106,
				"y": 0.2866161471,
				"z": -0.4614553017,
				"element": "C" 
			},
			{
				"x": -3.3828357045,
				"y": 1.7666614917,
				"z": -0.2832700768,
				"element": "C" 
			},
			{
				"x": -2.2514285498,
				"y": 2.1648720239,
				"z": -1.2421800701,
				"element": "C" 
			},
			{
				"x": -0.9684236877,
				"y": 1.3626266212,
				"z": -0.9682748456,
				"element": "C" 
			},
			{
				"x": -2.5955574696,
				"y": -2.3144266912,
				"z": -0.3487910577,
				"element": "S" 
			},
			{
				"x": 1.1240197089,
				"y": -1.0840373285,
				"z": -1.006045798,
				"element": "C" 
			},
			{
				"x": 1.7865793115,
				"y": -0.0695653021,
				"z": -1.2102610272,
				"element": "O" 
			},
			{
				"x": 4.4097343611,
				"y": 0.8364137831,
				"z": 0.6656428432,
				"element": "H" 
			},
			{
				"x": 3.6801609693,
				"y": -3.0627438237,
				"z": 0.8664035733,
				"element": "H" 
			},
			{
				"x": 5.0703121105,
				"y": -2.4605076316,
				"z": -0.0681986462,
				"element": "H" 
			},
			{
				"x": 3.4681790624,
				"y": -3.3365610392,
				"z": -1.6546255131,
				"element": "H" 
			},
			{
				"x": 3.4785279276,
				"y": -1.5660354401,
				"z": -1.8125310861,
				"element": "H" 
			},
			{
				"x": 1.6774289187,
				"y": -4.4283625742,
				"z": -0.7360717953,
				"element": "H" 
			},
			{
				"x": -4.3670495269,
				"y": 0.1656606866,
				"z": -1.3776829401,
				"element": "H" 
			},
			{
				"x": -4.413654242,
				"y": -0.0400316308,
				"z": 0.3650461576,
				"element": "H" 
			},
			{
				"x": -4.2648073141,
				"y": 2.3967999896,
				"z": -0.4425335844,
				"element": "H" 
			},
			{
				"x": -3.0559133616,
				"y": 1.931839981,
				"z": 0.7514575354,
				"element": "H" 
			},
			{
				"x": -2.5785490302,
				"y": 1.9884532172,
				"z": -2.275755572,
				"element": "H" 
			},
			{
				"x": -2.0413891516,
				"y": 3.2367749996,
				"z": -1.1580182865,
				"element": "H" 
			},
			{
				"x": -0.4686445904,
				"y": 1.745528045,
				"z": -0.0677035977,
				"element": "H" 
			},
			{
				"x": -0.2424183727,
				"y": 1.4899693468,
				"z": -1.7763173802,
				"element": "H" 
			}
		],
		 "valence_orbital": [ 
			{
				"type": "occ",
				"energy": -0.28194,
				"method": "rhf"
			},
			{
				"type": "occ",
				"energy": -0.27161,
				"method": "rhf"
			},
			{
				"type": "occ",
				"energy": -0.26237,
				"method": "rhf"
			},
			{
				"type": "occ",
				"energy": -0.25041,
				"method": "rhf"
			},
			{
				"type": "occ",
				"energy": -0.2111,
				"method": "rhf"
			},
			{
				"type": "unocc",
				"energy": -0.04365,
				"method": "rhf"
			},
			{
				"type": "unocc",
				"energy": -0.007,
				"method": "rhf"
			},
			{
				"type": "unocc",
				"energy": 0.00583,
				"method": "rhf"
			},
			{
				"type": "unocc",
				"energy": 0.02273,
				"method": "rhf"
			},
			{
				"type": "unocc",
				"energy": 0.03008,
				"method": "rhf"
			}
		],
		"cosmo_sigma_profile": { 
			"-0.025": 0.0,
			"-0.024": 0.0,
			"-0.023": 0.0,
			"-0.022": 0.0,
			"-0.021": 0.0,
			"-0.02": 0.0,
			"-0.019": 0.0120090599378,
			"-0.018": 0.813205660858,
			"-0.017": 0.770111263451,
			"-0.016": 0.522988746295,
			"-0.015": 1.22464814179,
			"-0.014": 0.690699607156,
			"-0.013": 0.229234913285,
			"-0.012": 0.219504344965,
			"-0.011": 1.85773344475,
			"-0.01": 4.29389410459,
			"-0.009": 4.0276598866,
			"-0.008": 4.29115816093,
			"-0.007": 8.13972164481,
			"-0.006": 8.97603105529,
			"-0.005": 11.7252139042,
			"-0.004": 18.1341890008,
			"-0.003": 28.4572196845,
			"-0.002": 29.5209914765,
			"-0.001": 28.1573471469,
			"0.0": 23.4578239679,
			"0.001": 21.3935044472,
			"0.002": 20.0608315196,
			"0.003": 15.2128101206,
			"0.004": 9.73485166841,
			"0.005": 6.70270061849,
			"0.006": 5.22058615522,
			"0.007": 6.57864111922,
			"0.008": 6.58500049267,
			"0.009": 5.219303502,
			"0.01": 4.77694565352,
			"0.011": 6.2768993613,
			"0.012": 7.76231350369,
			"0.013": 3.03508637956,
			"0.014": 0.676999430163,
			"0.015": 0.11079093973,
			"0.016": 0.0,
			"0.017": 0.0,
			"0.018": 0.0,
			"0.019": 0.0,
			"0.02": 0.0,
			"0.021": 0.0,
			"0.022": 0.0,
			"0.023": 0.0,
			"0.024": 0.0,
			"0.025": 0.0
		}
	}
}
