{
	 "smiles": "COC(=O)NC1=CC=C(CN)C=C1", 
	 "Tm": 377.15, 
	 "num_atms": 25, 
	 "gaussian": { 
		 "optdone": 1, 
		 "sigma_profile": "yes", 
		 "theory": "DFT", 
		 "functional": "B3LYP", 
		 "basiset": "6-31G**", 
		 "properties": { 
			 "R2extent": 3859.5992, 
			 "electric_dipole_moment_norm": 0.765427292432, 
			 "electric_quadrupole_moment_norm": 19.8034708741, 
			 "total_energy": -610.155281309, 
			 "HOMO_LUMO_gap": 0.20545, 
			 "cosmo_polarized_energy": -14.09, 
			 "cosmo_cavitation_energy": 29.18, 
			 "cosmo_dispersion_energy": -21.19, 
			 "cosmo_repulsion_energy": 1.7, 
			 "cosmo_total_nonelectrostatic_energy": 9.69, 
			 "SMD_solvation_energy": 5.28 
		},
		"coords": [
			{
				"x": -3.4788298988,
				"y": -3.0760325281,
				"z": -0.475391017,
				"element": "C" 
			},
			{
				"x": -2.317225618,
				"y": -2.2320221172,
				"z": -0.5354350995,
				"element": "O" 
			},
			{
				"x": -2.3040513008,
				"y": -1.3755773086,
				"z": -1.5808818199,
				"element": "C" 
			},
			{
				"x": -3.186530817,
				"y": -1.3010617469,
				"z": -2.4165930019,
				"element": "O" 
			},
			{
				"x": -1.183222349,
				"y": -0.57763232,
				"z": -1.6223450437,
				"element": "N" 
			},
			{
				"x": -0.0318746518,
				"y": -0.4611017863,
				"z": -0.8160346105,
				"element": "C" 
			},
			{
				"x": 0.9426442127,
				"y": 0.4569899576,
				"z": -1.2438444343,
				"element": "C" 
			},
			{
				"x": 2.109187893,
				"y": 0.6494837613,
				"z": -0.5122621225,
				"element": "C" 
			},
			{
				"x": 2.353329697,
				"y": -0.0641811423,
				"z": 0.668598263,
				"element": "C" 
			},
			{
				"x": 3.6550151225,
				"y": 0.0976421439,
				"z": 1.432477535,
				"element": "C" 
			},
			{
				"x": 4.7511924639,
				"y": -0.800204232,
				"z": 1.0272959948,
				"element": "N" 
			},
			{
				"x": 1.3714595595,
				"y": -0.9698801452,
				"z": 1.0866250919,
				"element": "C" 
			},
			{
				"x": 0.1937337059,
				"y": -1.1770404564,
				"z": 0.3691628832,
				"element": "C" 
			},
			{
				"x": -3.3392904743,
				"y": -3.6975464403,
				"z": 0.4091029569,
				"element": "H" 
			},
			{
				"x": -3.5518896102,
				"y": -3.6952175571,
				"z": -1.3723055417,
				"element": "H" 
			},
			{
				"x": -4.3868992136,
				"y": -2.4758359125,
				"z": -0.3839113846,
				"element": "H" 
			},
			{
				"x": -1.2182229533,
				"y": 0.0340237676,
				"z": -2.4256049723,
				"element": "H" 
			},
			{
				"x": 0.7774919417,
				"y": 1.027134544,
				"z": -2.1554653651,
				"element": "H" 
			},
			{
				"x": 2.8409081376,
				"y": 1.3729608851,
				"z": -0.8654264163,
				"element": "H" 
			},
			{
				"x": 4.0179139254,
				"y": 1.1268251707,
				"z": 1.3285799447,
				"element": "H" 
			},
			{
				"x": 3.476488904,
				"y": -0.0638261685,
				"z": 2.5018506744,
				"element": "H" 
			},
			{
				"x": 4.9382049318,
				"y": -0.669162329,
				"z": 0.0346152229,
				"element": "H" 
			},
			{
				"x": 4.4394772653,
				"y": -1.7657709779,
				"z": 1.1171399057,
				"element": "H" 
			},
			{
				"x": 1.5224425817,
				"y": -1.5306271262,
				"z": 2.0069443801,
				"element": "H" 
			},
			{
				"x": -0.5440534553,
				"y": -1.8800399356,
				"z": 0.7268079765,
				"element": "H" 
			}
		],
		 "valence_orbital": [ 
			{
				"type": "occ",
				"energy": -0.30148,
				"method": "rhf"
			},
			{
				"type": "occ",
				"energy": -0.28043,
				"method": "rhf"
			},
			{
				"type": "occ",
				"energy": -0.25508,
				"method": "rhf"
			},
			{
				"type": "occ",
				"energy": -0.24162,
				"method": "rhf"
			},
			{
				"type": "occ",
				"energy": -0.21296,
				"method": "rhf"
			},
			{
				"type": "unocc",
				"energy": -0.00751,
				"method": "rhf"
			},
			{
				"type": "unocc",
				"energy": -0.00659,
				"method": "rhf"
			},
			{
				"type": "unocc",
				"energy": 0.05915,
				"method": "rhf"
			},
			{
				"type": "unocc",
				"energy": 0.07748,
				"method": "rhf"
			},
			{
				"type": "unocc",
				"energy": 0.08861,
				"method": "rhf"
			}
		],
		"cosmo_sigma_profile": { 
			"-0.025": 0.0,
			"-0.024": 0.0,
			"-0.023": 0.0,
			"-0.022": 0.0,
			"-0.021": 0.0,
			"-0.02": 0.0,
			"-0.019": 0.0,
			"-0.018": 0.0,
			"-0.017": 0.0,
			"-0.016": 0.0,
			"-0.015": 0.463076932638,
			"-0.014": 1.08258362973,
			"-0.013": 1.12214194581,
			"-0.012": 1.61739282089,
			"-0.011": 1.29910621779,
			"-0.01": 1.79342037752,
			"-0.009": 3.47856924548,
			"-0.008": 3.69099944757,
			"-0.007": 4.9660852215,
			"-0.006": 10.2405876201,
			"-0.005": 17.4746887258,
			"-0.004": 22.2863716051,
			"-0.003": 20.8234393089,
			"-0.002": 16.9252603778,
			"-0.001": 13.9413107265,
			"0.0": 14.5279861946,
			"0.001": 12.8507625579,
			"0.002": 12.6605909487,
			"0.003": 13.1794646259,
			"0.004": 11.5542635011,
			"0.005": 11.0314957209,
			"0.006": 8.00411812656,
			"0.007": 1.8143057036,
			"0.008": 1.81090180271,
			"0.009": 2.40785231533,
			"0.01": 2.39025148468,
			"0.011": 2.29734582893,
			"0.012": 3.87172175784,
			"0.013": 6.14047596615,
			"0.014": 1.00364135435,
			"0.015": 0.534957513877,
			"0.016": 0.576861534141,
			"0.017": 0.813629733244,
			"0.018": 0.628673453542,
			"0.019": 0.574808083113,
			"0.02": 0.505163142339,
			"0.021": 0.0179892762903,
			"0.022": 0.0,
			"0.023": 0.0,
			"0.024": 0.0,
			"0.025": 0.0
		}
	}
}
