{
	 "smiles": "CC(=O)NC1=CC=C(C=C1C(F)(F)F)[N+]([O-])=O", 
	 "Tm": 421.15, 
	 "num_atms": 24, 
	 "gaussian": { 
		 "optdone": 1, 
		 "sigma_profile": "yes", 
		 "theory": "DFT", 
		 "functional": "B3LYP", 
		 "basiset": "6-31G**", 
		 "properties": { 
			 "R2extent": 4585.3875, 
			 "electric_dipole_moment_norm": 6.85355707717, 
			 "electric_quadrupole_moment_norm": 16.3819132118, 
			 "total_energy": -981.786893451, 
			 "HOMO_LUMO_gap": 0.16743, 
			 "cosmo_polarized_energy": -18.78, 
			 "cosmo_cavitation_energy": 30.67, 
			 "cosmo_dispersion_energy": -21.55, 
			 "cosmo_repulsion_energy": 1.62, 
			 "cosmo_total_nonelectrostatic_energy": 10.74, 
			 "SMD_solvation_energy": 9.35 
		},
		"coords": [
			{
				"x": 2.3672150127,
				"y": -3.1519661094,
				"z": 0.9470393998,
				"element": "C" 
			},
			{
				"x": 1.407808602,
				"y": -2.109519511,
				"z": 0.4047012562,
				"element": "C" 
			},
			{
				"x": 0.9132804842,
				"y": -2.162570936,
				"z": -0.7030653399,
				"element": "O" 
			},
			{
				"x": 1.1024810655,
				"y": -1.0914084366,
				"z": 1.3098515177,
				"element": "N" 
			},
			{
				"x": 0.2764836361,
				"y": 0.0135105692,
				"z": 1.0251320444,
				"element": "C" 
			},
			{
				"x": 0.8119364557,
				"y": 1.2923507649,
				"z": 1.2651434828,
				"element": "C" 
			},
			{
				"x": 0.0836810166,
				"y": 2.4460145799,
				"z": 1.0229899078,
				"element": "C" 
			},
			{
				"x": -1.2072644772,
				"y": 2.3155272172,
				"z": 0.5169065187,
				"element": "C" 
			},
			{
				"x": -1.7769525111,
				"y": 1.0696547877,
				"z": 0.2930229103,
				"element": "C" 
			},
			{
				"x": -1.0536495931,
				"y": -0.094741875,
				"z": 0.5606813782,
				"element": "C" 
			},
			{
				"x": -1.815412284,
				"y": -1.3948848492,
				"z": 0.3728296266,
				"element": "C" 
			},
			{
				"x": -1.8484468014,
				"y": -1.7910153455,
				"z": -0.9083259842,
				"element": "F" 
			},
			{
				"x": -3.1054651937,
				"y": -1.2203614843,
				"z": 0.7572916594,
				"element": "F" 
			},
			{
				"x": -1.3276059615,
				"y": -2.4056157549,
				"z": 1.1183119425,
				"element": "F" 
			},
			{
				"x": -1.994116522,
				"y": 3.523533651,
				"z": 0.2350988351,
				"element": "N" 
			},
			{
				"x": -1.4665885211,
				"y": 4.6099528918,
				"z": 0.4727680951,
				"element": "O" 
			},
			{
				"x": -3.1271436785,
				"y": 3.3742513958,
				"z": -0.2190330637,
				"element": "O" 
			},
			{
				"x": 2.8627589734,
				"y": -3.6399755108,
				"z": 0.1076847195,
				"element": "H" 
			},
			{
				"x": 1.7957998364,
				"y": -3.9070101117,
				"z": 1.4979370558,
				"element": "H" 
			},
			{
				"x": 3.1177770382,
				"y": -2.7344176163,
				"z": 1.625383261,
				"element": "H" 
			},
			{
				"x": 1.7364001964,
				"y": -0.9711106874,
				"z": 2.0874849765,
				"element": "H" 
			},
			{
				"x": 1.8335024953,
				"y": 1.3682999635,
				"z": 1.6254958785,
				"element": "H" 
			},
			{
				"x": 0.4966610553,
				"y": 3.4312060336,
				"z": 1.1986845539,
				"element": "H" 
			},
			{
				"x": -2.7987403244,
				"y": 1.0141963736,
				"z": -0.058714632,
				"element": "H" 
			}
		],
		 "valence_orbital": [ 
			{
				"type": "occ",
				"energy": -0.31419,
				"method": "rhf"
			},
			{
				"type": "occ",
				"energy": -0.298,
				"method": "rhf"
			},
			{
				"type": "occ",
				"energy": -0.29616,
				"method": "rhf"
			},
			{
				"type": "occ",
				"energy": -0.27487,
				"method": "rhf"
			},
			{
				"type": "occ",
				"energy": -0.26561,
				"method": "rhf"
			},
			{
				"type": "unocc",
				"energy": -0.09818,
				"method": "rhf"
			},
			{
				"type": "unocc",
				"energy": -0.05089,
				"method": "rhf"
			},
			{
				"type": "unocc",
				"energy": -0.02491,
				"method": "rhf"
			},
			{
				"type": "unocc",
				"energy": 0.0136,
				"method": "rhf"
			},
			{
				"type": "unocc",
				"energy": 0.05028,
				"method": "rhf"
			}
		],
		"cosmo_sigma_profile": { 
			"-0.025": 0.0,
			"-0.024": 0.0,
			"-0.023": 0.0,
			"-0.022": 0.0,
			"-0.021": 0.0,
			"-0.02": 0.0,
			"-0.019": 0.0,
			"-0.018": 0.0,
			"-0.017": 0.0,
			"-0.016": 0.891908891583,
			"-0.015": 1.58157598217,
			"-0.014": 1.54279382802,
			"-0.013": 1.44599868097,
			"-0.012": 2.18701512097,
			"-0.011": 1.50254663794,
			"-0.01": 1.68308106077,
			"-0.009": 3.03835028544,
			"-0.008": 5.40473694188,
			"-0.007": 7.72462251905,
			"-0.006": 10.4151132563,
			"-0.005": 12.4372233069,
			"-0.004": 13.6536338155,
			"-0.003": 15.1660993787,
			"-0.002": 20.9365317843,
			"-0.001": 21.3998920826,
			"0.0": 15.2388725711,
			"0.001": 12.4367640191,
			"0.002": 20.2164825482,
			"0.003": 21.2320590618,
			"0.004": 5.08295462706,
			"0.005": 5.46424915429,
			"0.006": 7.00055697556,
			"0.007": 10.7228131372,
			"0.008": 8.03434132149,
			"0.009": 6.46228274837,
			"0.01": 4.1277457239,
			"0.011": 2.20393620994,
			"0.012": 3.70748283437,
			"0.013": 1.95339641832,
			"0.014": 0.665954934165,
			"0.015": 0.0,
			"0.016": 0.0,
			"0.017": 0.0,
			"0.018": 0.0,
			"0.019": 0.0,
			"0.02": 0.0,
			"0.021": 0.0,
			"0.022": 0.0,
			"0.023": 0.0,
			"0.024": 0.0,
			"0.025": 0.0
		}
	}
}
