{
	 "smiles": "CN1CCN(CC2=CC=CC(I)=C2)CC1", 
	 "Tm": 355.15, 
	 "num_atms": 32, 
	 "gaussian": { 
		 "optdone": 1, 
		 "sigma_profile": "no", 
		 "theory": "DFT", 
		 "functional": "B3LYP", 
		 "basiset": "6-31G**", 
		 "properties": { 
			 "R2extent": 4968.4719, 
			 "electric_dipole_moment_norm": 2.44725891152, 
			 "electric_quadrupole_moment_norm": 7.66242653015, 
			 "total_energy": -588.38869658, 
			 "HOMO_LUMO_gap": 0.14875, 
			 "cosmo_polarized_energy": -104268.35, 
			 "cosmo_cavitation_energy": 35.77, 
			 "cosmo_dispersion_energy": -27.03, 
			 "cosmo_repulsion_energy": 2.08, 
			 "cosmo_total_nonelectrostatic_energy": 10.82, 
			 "SMD_solvation_energy": 0.72 
		},
		"coords": [
			{
				"x": -2.6511070111,
				"y": -1.6132311671,
				"z": 2.7903950556,
				"element": "C" 
			},
			{
				"x": -1.931422047,
				"y": -2.3346483361,
				"z": 1.7468528627,
				"element": "N" 
			},
			{
				"x": -2.0209705871,
				"y": -1.7133803754,
				"z": 0.418942191,
				"element": "C" 
			},
			{
				"x": -1.0915497298,
				"y": -0.4958532738,
				"z": 0.2460713133,
				"element": "C" 
			},
			{
				"x": 0.3125865581,
				"y": -0.7929926222,
				"z": 0.5804062203,
				"element": "N" 
			},
			{
				"x": 1.0391248048,
				"y": -1.5057273662,
				"z": -0.4705914231,
				"element": "C" 
			},
			{
				"x": 1.3415114121,
				"y": -0.6206405869,
				"z": -1.6705982807,
				"element": "C" 
			},
			{
				"x": 1.7387759875,
				"y": 0.7111261663,
				"z": -1.4968625149,
				"element": "C" 
			},
			{
				"x": 2.0637196655,
				"y": 1.4997831859,
				"z": -2.5985667101,
				"element": "C" 
			},
			{
				"x": 2.0012893819,
				"y": 0.9786357786,
				"z": -3.8942129043,
				"element": "C" 
			},
			{
				"x": 1.602034227,
				"y": -0.3468118993,
				"z": -4.0606979702,
				"element": "C" 
			},
			{
				"x": 1.4831429088,
				"y": -1.1648491531,
				"z": -6.0190124666,
				"element": "I" 
			},
			{
				"x": 1.2689075359,
				"y": -1.146299815,
				"z": -2.9658924447,
				"element": "C" 
			},
			{
				"x": 0.4001859589,
				"y": -1.4122293663,
				"z": 1.9109674782,
				"element": "C" 
			},
			{
				"x": -0.5320133181,
				"y": -2.6283650605,
				"z": 2.0787844864,
				"element": "C" 
			},
			{
				"x": -2.61087433,
				"y": -2.1922671714,
				"z": 3.7194310486,
				"element": "H" 
			},
			{
				"x": -2.2803783823,
				"y": -0.5975773659,
				"z": 3.0167112494,
				"element": "H" 
			},
			{
				"x": -3.7036971981,
				"y": -1.5215505883,
				"z": 2.5013008428,
				"element": "H" 
			},
			{
				"x": -1.7656258394,
				"y": -2.4794056123,
				"z": -0.3262730508,
				"element": "H" 
			},
			{
				"x": -3.0621833811,
				"y": -1.4258681212,
				"z": 0.2314022609,
				"element": "H" 
			},
			{
				"x": -1.4242494709,
				"y": 0.3199315204,
				"z": 0.9013746309,
				"element": "H" 
			},
			{
				"x": -1.1380242462,
				"y": -0.117182665,
				"z": -0.7803554398,
				"element": "H" 
			},
			{
				"x": 0.5402248288,
				"y": -2.4236038359,
				"z": -0.8281758184,
				"element": "H" 
			},
			{
				"x": 1.9917704031,
				"y": -1.834560723,
				"z": -0.0340552181,
				"element": "H" 
			},
			{
				"x": 1.773485463,
				"y": 1.1162235284,
				"z": -0.4908299401,
				"element": "H" 
			},
			{
				"x": 2.3705408193,
				"y": 2.532307505,
				"z": -2.4562138056,
				"element": "H" 
			},
			{
				"x": 2.2542005435,
				"y": 1.5945036726,
				"z": -4.7497713646,
				"element": "H" 
			},
			{
				"x": 0.9533824827,
				"y": -2.1742626483,
				"z": -3.1139626598,
				"element": "H" 
			},
			{
				"x": 0.1372099595,
				"y": -0.6442388858,
				"z": 2.6510006903,
				"element": "H" 
			},
			{
				"x": 1.4417038756,
				"y": -1.6959606708,
				"z": 2.1031232337,
				"element": "H" 
			},
			{
				"x": -0.1932389742,
				"y": -3.4413716882,
				"z": 1.4211385395,
				"element": "H" 
			},
			{
				"x": -0.4834623007,
				"y": -3.0086323595,
				"z": 3.106169908,
				"element": "H" 
			}
		],
		 "valence_orbital": [ 
			{
				"type": "occ",
				"energy": -0.26487,
				"method": "rhf"
			},
			{
				"type": "occ",
				"energy": -0.25615,
				"method": "rhf"
			},
			{
				"type": "occ",
				"energy": -0.24211,
				"method": "rhf"
			},
			{
				"type": "occ",
				"energy": -0.23345,
				"method": "rhf"
			},
			{
				"type": "occ",
				"energy": -0.18402,
				"method": "rhf"
			},
			{
				"type": "unocc",
				"energy": -0.03527,
				"method": "rhf"
			},
			{
				"type": "unocc",
				"energy": -0.01527,
				"method": "rhf"
			},
			{
				"type": "unocc",
				"energy": -0.01114,
				"method": "rhf"
			},
			{
				"type": "unocc",
				"energy": 0.04388,
				"method": "rhf"
			},
			{
				"type": "unocc",
				"energy": 0.05189,
				"method": "rhf"
			}
		],
		"cosmo_sigma_profile": { 
			"0.0": 0.0,
			"0.0": 0.0,
			"0.0": 0.0,
			"0.0": 0.0,
			"0.0": 0.0,
			"0.0": 0.0,
			"0.0": 0.0,
			"0.0": 0.0,
			"0.0": 0.0,
			"0.0": 0.0,
			"0.0": 0.0,
			"0.0": 0.0,
			"0.0": 0.0,
			"0.0": 0.0,
			"0.0": 0.0,
			"0.0": 0.0,
			"0.0": 0.0,
			"0.0": 0.0,
			"0.0": 0.0,
			"0.0": 0.0,
			"0.0": 0.0,
			"0.0": 0.0,
			"0.0": 0.0,
			"0.0": 0.0,
			"0.0": 0.0,
			"0.0": 0.0,
			"0.0": 0.0,
			"0.0": 0.0,
			"0.0": 0.0,
			"0.0": 0.0,
			"0.0": 0.0,
			"0.0": 0.0,
			"0.0": 0.0,
			"0.0": 0.0,
			"0.0": 0.0,
			"0.0": 0.0,
			"0.0": 0.0,
			"0.0": 0.0,
			"0.0": 0.0,
			"0.0": 0.0,
			"0.0": 0.0,
			"0.0": 0.0,
			"0.0": 0.0,
			"0.0": 0.0,
			"0.0": 0.0,
			"0.0": 0.0,
			"0.0": 0.0,
			"0.0": 0.0,
			"0.0": 0.0,
			"0.0": 0.0,
			"0.0": 0.0
		}
	}
}
