{
	 "smiles": "OC(=O)C1=NC=CN=C1", 
	 "Tm": 497.15, 
	 "num_atms": 13, 
	 "gaussian": { 
		 "optdone": 1, 
		 "sigma_profile": "yes", 
		 "theory": "DFT", 
		 "functional": "B3LYP", 
		 "basiset": "6-31G**", 
		 "properties": { 
			 "R2extent": 2210.9984, 
			 "electric_dipole_moment_norm": 4.74375303952, 
			 "electric_quadrupole_moment_norm": 14.3798659656, 
			 "total_energy": -452.888526345, 
			 "HOMO_LUMO_gap": 0.18172, 
			 "cosmo_polarized_energy": -11.67, 
			 "cosmo_cavitation_energy": 18.15, 
			 "cosmo_dispersion_energy": -13.77, 
			 "cosmo_repulsion_energy": 1.12, 
			 "cosmo_total_nonelectrostatic_energy": 5.5, 
			 "SMD_solvation_energy": 2.44 
		},
		"coords": [
			{
				"x": -1.9178761142,
				"y": 0.5558055759,
				"z": 3.3924055933,
				"element": "O" 
			},
			{
				"x": -1.7305261817,
				"y": 0.7185575129,
				"z": 2.0739457272,
				"element": "C" 
			},
			{
				"x": -2.5589049667,
				"y": 0.4280359109,
				"z": 1.2421981219,
				"element": "O" 
			},
			{
				"x": -0.3850986426,
				"y": 1.2972657703,
				"z": 1.7172909329,
				"element": "C" 
			},
			{
				"x": 0.4410426947,
				"y": 1.5739087439,
				"z": 2.7356266598,
				"element": "N" 
			},
			{
				"x": 1.6328236124,
				"y": 2.0866567632,
				"z": 2.4205977224,
				"element": "C" 
			},
			{
				"x": 1.9908934054,
				"y": 2.3194970562,
				"z": 1.0886998634,
				"element": "C" 
			},
			{
				"x": 1.1701002803,
				"y": 2.045191269,
				"z": 0.0684082239,
				"element": "N" 
			},
			{
				"x": -0.0225778149,
				"y": 1.5318464999,
				"z": 0.3874714383,
				"element": "C" 
			},
			{
				"x": -1.1025483119,
				"y": 0.8646166009,
				"z": 3.8372380251,
				"element": "H" 
			},
			{
				"x": 2.3127083411,
				"y": 2.3157004718,
				"z": 3.2371541915,
				"element": "H" 
			},
			{
				"x": 2.9641936475,
				"y": 2.7375080144,
				"z": 0.8422590855,
				"element": "H" 
			},
			{
				"x": -0.7144299495,
				"y": 1.2971098109,
				"z": -0.415795585,
				"element": "H" 
			}
		],
		 "valence_orbital": [ 
			{
				"type": "occ",
				"energy": -0.34232,
				"method": "rhf"
			},
			{
				"type": "occ",
				"energy": -0.32295,
				"method": "rhf"
			},
			{
				"type": "occ",
				"energy": -0.29889,
				"method": "rhf"
			},
			{
				"type": "occ",
				"energy": -0.29564,
				"method": "rhf"
			},
			{
				"type": "occ",
				"energy": -0.27035,
				"method": "rhf"
			},
			{
				"type": "unocc",
				"energy": -0.08863,
				"method": "rhf"
			},
			{
				"type": "unocc",
				"energy": -0.064,
				"method": "rhf"
			},
			{
				"type": "unocc",
				"energy": 0.0317,
				"method": "rhf"
			},
			{
				"type": "unocc",
				"energy": 0.08998,
				"method": "rhf"
			},
			{
				"type": "unocc",
				"energy": 0.11355,
				"method": "rhf"
			}
		],
		"cosmo_sigma_profile": { 
			"-0.025": 0.0,
			"-0.024": 0.0,
			"-0.023": 0.0,
			"-0.022": 0.0,
			"-0.021": 0.0,
			"-0.02": 0.0,
			"-0.019": 0.0,
			"-0.018": 0.0,
			"-0.017": 0.0,
			"-0.016": 0.0,
			"-0.015": 0.0280951267188,
			"-0.014": 0.334183560841,
			"-0.013": 0.530184443152,
			"-0.012": 0.422643640395,
			"-0.011": 0.719140340614,
			"-0.01": 0.855667665575,
			"-0.009": 5.00439383848,
			"-0.008": 6.57203828463,
			"-0.007": 7.01114750666,
			"-0.006": 7.75501534463,
			"-0.005": 8.36838021426,
			"-0.004": 10.6445729214,
			"-0.003": 13.0065275155,
			"-0.002": 13.7289606204,
			"-0.001": 7.65252303113,
			"0.0": 6.63608424413,
			"0.001": 5.49793689352,
			"0.002": 5.51609122252,
			"0.003": 4.64333105365,
			"0.004": 3.93355037471,
			"0.005": 4.41614378323,
			"0.006": 3.91615369097,
			"0.007": 3.13327290052,
			"0.008": 3.99030642357,
			"0.009": 5.25903474523,
			"0.01": 6.09807706468,
			"0.011": 5.75284335569,
			"0.012": 3.32805842728,
			"0.013": 1.3481160732,
			"0.014": 0.604238266314,
			"0.015": 0.0664092914042,
			"0.016": 0.0,
			"0.017": 0.0,
			"0.018": 0.0,
			"0.019": 0.0,
			"0.02": 0.0,
			"0.021": 0.0,
			"0.022": 0.0,
			"0.023": 0.0,
			"0.024": 0.0,
			"0.025": 0.0
		}
	}
}
