{
	 "smiles": "FC(F)(F)C1=CC(=CC(=C1)C1=NNC(=S)N1)C(F)(F)F", 
	 "Tm": 553.15, 
	 "num_atms": 25, 
	 "gaussian": { 
		 "optdone": 1, 
		 "sigma_profile": "yes", 
		 "theory": "DFT", 
		 "functional": "B3LYP", 
		 "basiset": "6-31G**", 
		 "properties": { 
			 "R2extent": 8731.1097, 
			 "electric_dipole_moment_norm": 2.31691895629, 
			 "electric_quadrupole_moment_norm": 21.5391554496, 
			 "total_energy": -1545.57554348, 
			 "HOMO_LUMO_gap": 0.13637, 
			 "cosmo_polarized_energy": -19.66, 
			 "cosmo_cavitation_energy": 35.73, 
			 "cosmo_dispersion_energy": -25.28, 
			 "cosmo_repulsion_energy": 1.78, 
			 "cosmo_total_nonelectrostatic_energy": 12.22, 
			 "SMD_solvation_energy": 6.32 
		},
		"coords": [
			{
				"x": -1.1178211862,
				"y": 4.4807233925,
				"z": 0.574295017,
				"element": "F" 
			},
			{
				"x": -1.454205468,
				"y": 3.1942559112,
				"z": 0.343200585,
				"element": "C" 
			},
			{
				"x": -1.7947757655,
				"y": 3.0829234555,
				"z": -0.9563717368,
				"element": "F" 
			},
			{
				"x": -2.5610200064,
				"y": 2.9353513675,
				"z": 1.0726337762,
				"element": "F" 
			},
			{
				"x": -0.3295635259,
				"y": 2.2565312034,
				"z": 0.7091201527,
				"element": "C" 
			},
			{
				"x": 0.4897925723,
				"y": 2.5621327556,
				"z": 1.7995521354,
				"element": "C" 
			},
			{
				"x": 1.4902500229,
				"y": 1.6666027906,
				"z": 2.1704392856,
				"element": "C" 
			},
			{
				"x": 1.6746333742,
				"y": 0.4765119875,
				"z": 1.4652109511,
				"element": "C" 
			},
			{
				"x": 0.8558112921,
				"y": 0.17288022,
				"z": 0.3713121415,
				"element": "C" 
			},
			{
				"x": -0.1516445151,
				"y": 1.07612208,
				"z": -0.0039383239,
				"element": "C" 
			},
			{
				"x": 1.0205480937,
				"y": -1.0654005718,
				"z": -0.3930687487,
				"element": "C" 
			},
			{
				"x": 0.2599600741,
				"y": -1.4139275907,
				"z": -1.4004729709,
				"element": "N" 
			},
			{
				"x": 0.7642720361,
				"y": -2.6146791171,
				"z": -1.804844127,
				"element": "N" 
			},
			{
				"x": 1.8372093939,
				"y": -3.0560972778,
				"z": -1.0816869416,
				"element": "C" 
			},
			{
				"x": 2.730502144,
				"y": -4.4481286992,
				"z": -1.2485112894,
				"element": "S" 
			},
			{
				"x": 1.9837437688,
				"y": -2.0281661927,
				"z": -0.1671551167,
				"element": "N" 
			},
			{
				"x": 2.4230766833,
				"y": 2.012112808,
				"z": 3.3046015012,
				"element": "C" 
			},
			{
				"x": 2.8911266428,
				"y": 0.9025211494,
				"z": 3.9165312337,
				"element": "F" 
			},
			{
				"x": 1.8131586282,
				"y": 2.7717322254,
				"z": 4.236083067,
				"element": "F" 
			},
			{
				"x": 3.4953073306,
				"y": 2.7040549948,
				"z": 2.8624433058,
				"element": "F" 
			},
			{
				"x": 0.3489852159,
				"y": 3.4847388529,
				"z": 2.3499370102,
				"element": "H" 
			},
			{
				"x": 2.4545483913,
				"y": -0.2027554958,
				"z": 1.7911762235,
				"element": "H" 
			},
			{
				"x": -0.7829395601,
				"y": 0.8452746095,
				"z": -0.8537005651,
				"element": "H" 
			},
			{
				"x": 0.3510370278,
				"y": -3.1095110818,
				"z": -2.580553155,
				"element": "H" 
			},
			{
				"x": 2.7120073353,
				"y": -2.0378037767,
				"z": 0.529766589,
				"element": "H" 
			}
		],
		 "valence_orbital": [ 
			{
				"type": "occ",
				"energy": -0.34983,
				"method": "rhf"
			},
			{
				"type": "occ",
				"energy": -0.30615,
				"method": "rhf"
			},
			{
				"type": "occ",
				"energy": -0.29007,
				"method": "rhf"
			},
			{
				"type": "occ",
				"energy": -0.22414,
				"method": "rhf"
			},
			{
				"type": "occ",
				"energy": -0.21844,
				"method": "rhf"
			},
			{
				"type": "unocc",
				"energy": -0.08207,
				"method": "rhf"
			},
			{
				"type": "unocc",
				"energy": -0.06551,
				"method": "rhf"
			},
			{
				"type": "unocc",
				"energy": -0.01362,
				"method": "rhf"
			},
			{
				"type": "unocc",
				"energy": 0.01171,
				"method": "rhf"
			},
			{
				"type": "unocc",
				"energy": 0.03696,
				"method": "rhf"
			}
		],
		"cosmo_sigma_profile": { 
			"-0.025": 0.0,
			"-0.024": 0.0,
			"-0.023": 0.0,
			"-0.022": 0.0,
			"-0.021": 0.0,
			"-0.02": 0.0,
			"-0.019": 0.215819545357,
			"-0.018": 2.70879920585,
			"-0.017": 3.11393609637,
			"-0.016": 1.75864231971,
			"-0.015": 1.21366055811,
			"-0.014": 2.25618725244,
			"-0.013": 2.44290857267,
			"-0.012": 1.81360842103,
			"-0.011": 2.21892729975,
			"-0.01": 2.06514256182,
			"-0.009": 2.08469082067,
			"-0.008": 3.58545933926,
			"-0.007": 4.67131816472,
			"-0.006": 7.13583723075,
			"-0.005": 7.86828311217,
			"-0.004": 11.6784842915,
			"-0.003": 14.0048908202,
			"-0.002": 20.338321431,
			"-0.001": 30.7704871056,
			"0.0": 21.8467507034,
			"0.001": 18.0666923972,
			"0.002": 50.902270944,
			"0.003": 32.7765077,
			"0.004": 3.86603765308,
			"0.005": 4.23966872036,
			"0.006": 4.62500689833,
			"0.007": 3.99708349742,
			"0.008": 4.54247551493,
			"0.009": 6.44303917693,
			"0.01": 7.94285324836,
			"0.011": 7.52673923863,
			"0.012": 2.53696657821,
			"0.013": 0.0,
			"0.014": 0.0,
			"0.015": 0.0,
			"0.016": 0.0,
			"0.017": 0.0,
			"0.018": 0.0,
			"0.019": 0.0,
			"0.02": 0.0,
			"0.021": 0.0,
			"0.022": 0.0,
			"0.023": 0.0,
			"0.024": 0.0,
			"0.025": 0.0
		}
	}
}
