{
	 "smiles": "CC1=CC(N2C(=O)C=CC2=O)=C(C)C=C1", 
	 "Tm": 353.15, 
	 "num_atms": 26, 
	 "gaussian": { 
		 "optdone": 1, 
		 "sigma_profile": "yes", 
		 "theory": "DFT", 
		 "functional": "B3LYP", 
		 "basiset": "6-31G**", 
		 "properties": { 
			 "R2extent": 3279.4086, 
			 "electric_dipole_moment_norm": 0.922167837218, 
			 "electric_quadrupole_moment_norm": 17.1355217464, 
			 "total_energy": -669.116977594, 
			 "HOMO_LUMO_gap": 0.13743, 
			 "cosmo_polarized_energy": -11.5, 
			 "cosmo_cavitation_energy": 30.39, 
			 "cosmo_dispersion_energy": -21.21, 
			 "cosmo_repulsion_energy": 1.66, 
			 "cosmo_total_nonelectrostatic_energy": 10.84, 
			 "SMD_solvation_energy": 7.15 
		},
		"coords": [
			{
				"x": -3.7288709988,
				"y": -2.7357281765,
				"z": 0.0874111523,
				"element": "C" 
			},
			{
				"x": -2.4829238398,
				"y": -2.0479018426,
				"z": -0.4188705661,
				"element": "C" 
			},
			{
				"x": -1.6102560471,
				"y": -1.4040422288,
				"z": 0.4625479279,
				"element": "C" 
			},
			{
				"x": -0.4451066933,
				"y": -0.7856826665,
				"z": 0.0042094312,
				"element": "C" 
			},
			{
				"x": 0.3939993839,
				"y": -0.1303885639,
				"z": 0.9628065654,
				"element": "N" 
			},
			{
				"x": -0.0200745118,
				"y": 0.9325609162,
				"z": 1.7934849823,
				"element": "C" 
			},
			{
				"x": -1.1091771118,
				"y": 1.4629655135,
				"z": 1.7886595877,
				"element": "O" 
			},
			{
				"x": 1.154272276,
				"y": 1.2545162821,
				"z": 2.6714816789,
				"element": "C" 
			},
			{
				"x": 2.1551826791,
				"y": 0.4208562036,
				"z": 2.3771475767,
				"element": "C" 
			},
			{
				"x": 1.7106146919,
				"y": -0.507340331,
				"z": 1.2839294525,
				"element": "C" 
			},
			{
				"x": 2.3458271278,
				"y": -1.405330392,
				"z": 0.7726713528,
				"element": "O" 
			},
			{
				"x": -0.1071198558,
				"y": -0.7780534082,
				"z": -1.3601186774,
				"element": "C" 
			},
			{
				"x": 1.1309931704,
				"y": -0.0937692491,
				"z": -1.8823617833,
				"element": "C" 
			},
			{
				"x": -0.9832425986,
				"y": -1.4367982306,
				"z": -2.23111109,
				"element": "C" 
			},
			{
				"x": -2.1454881926,
				"y": -2.0567950898,
				"z": -1.777090152,
				"element": "C" 
			},
			{
				"x": -4.5077294161,
				"y": -2.764302434,
				"z": -0.6803407918,
				"element": "H" 
			},
			{
				"x": -3.5201084557,
				"y": -3.7728554903,
				"z": 0.3786662535,
				"element": "H" 
			},
			{
				"x": -4.1378937318,
				"y": -2.2270928412,
				"z": 0.965503478,
				"element": "H" 
			},
			{
				"x": -1.83659088,
				"y": -1.3729545684,
				"z": 1.5239902446,
				"element": "H" 
			},
			{
				"x": 1.1123530113,
				"y": 2.0493492491,
				"z": 3.4045937619,
				"element": "H" 
			},
			{
				"x": 3.1456946297,
				"y": 0.3543425822,
				"z": 2.8077957421,
				"element": "H" 
			},
			{
				"x": 1.247525275,
				"y": 0.9073858271,
				"z": -1.4533368749,
				"element": "H" 
			},
			{
				"x": 2.0316237813,
				"y": -0.6624200195,
				"z": -1.6292189606,
				"element": "H" 
			},
			{
				"x": 1.0842402906,
				"y": 0.0092747493,
				"z": -2.9694603294,
				"element": "H" 
			},
			{
				"x": -0.7515306106,
				"y": -1.4493795236,
				"z": -3.2929158429,
				"element": "H" 
			},
			{
				"x": -2.8034133733,
				"y": -2.5476162669,
				"z": -2.4899741193,
				"element": "H" 
			}
		],
		 "valence_orbital": [ 
			{
				"type": "occ",
				"energy": -0.29659,
				"method": "rhf"
			},
			{
				"type": "occ",
				"energy": -0.29141,
				"method": "rhf"
			},
			{
				"type": "occ",
				"energy": -0.27068,
				"method": "rhf"
			},
			{
				"type": "occ",
				"energy": -0.24529,
				"method": "rhf"
			},
			{
				"type": "occ",
				"energy": -0.23397,
				"method": "rhf"
			},
			{
				"type": "unocc",
				"energy": -0.09654,
				"method": "rhf"
			},
			{
				"type": "unocc",
				"energy": -0.00984,
				"method": "rhf"
			},
			{
				"type": "unocc",
				"energy": 0.00029,
				"method": "rhf"
			},
			{
				"type": "unocc",
				"energy": 0.05683,
				"method": "rhf"
			},
			{
				"type": "unocc",
				"energy": 0.06508,
				"method": "rhf"
			}
		],
		"cosmo_sigma_profile": { 
			"-0.025": 0.0,
			"-0.024": 0.0,
			"-0.023": 0.0,
			"-0.022": 0.0,
			"-0.021": 0.0,
			"-0.02": 0.0,
			"-0.019": 0.0,
			"-0.018": 0.0,
			"-0.017": 0.0,
			"-0.016": 0.0,
			"-0.015": 0.0,
			"-0.014": 0.0,
			"-0.013": 0.0,
			"-0.012": 0.0,
			"-0.011": 0.0,
			"-0.01": 1.47905939306,
			"-0.009": 3.9201838978,
			"-0.008": 3.47790542147,
			"-0.007": 3.17671971636,
			"-0.006": 8.25856454622,
			"-0.005": 18.3927215272,
			"-0.004": 24.1698441819,
			"-0.003": 23.5742110255,
			"-0.002": 21.805969652,
			"-0.001": 24.0657431633,
			"0.0": 23.4767154334,
			"0.001": 12.5133493627,
			"0.002": 9.11853596731,
			"0.003": 7.89710947868,
			"0.004": 10.3148654801,
			"0.005": 11.9023477029,
			"0.006": 4.67805680756,
			"0.007": 4.38487415109,
			"0.008": 3.99134370233,
			"0.009": 4.10945057344,
			"0.01": 7.27756143264,
			"0.011": 8.69374205908,
			"0.012": 1.9934635989,
			"0.013": 0.0,
			"0.014": 0.0,
			"0.015": 0.0,
			"0.016": 0.0,
			"0.017": 0.0,
			"0.018": 0.0,
			"0.019": 0.0,
			"0.02": 0.0,
			"0.021": 0.0,
			"0.022": 0.0,
			"0.023": 0.0,
			"0.024": 0.0,
			"0.025": 0.0
		}
	}
}
