{
	 "smiles": "OC(=O)CN1C(=O)OC2=C1C=CC(=C2)[N+]([O-])=O", 
	 "Tm": 488.15, 
	 "num_atms": 23, 
	 "gaussian": { 
		 "optdone": 1, 
		 "sigma_profile": "yes", 
		 "theory": "DFT", 
		 "functional": "B3LYP", 
		 "basiset": "6-31G**", 
		 "properties": { 
			 "R2extent": 4640.7309, 
			 "electric_dipole_moment_norm": 3.58841747153, 
			 "electric_quadrupole_moment_norm": 26.7058339252, 
			 "total_energy": -907.346453267, 
			 "HOMO_LUMO_gap": 0.15957, 
			 "cosmo_polarized_energy": -20.43, 
			 "cosmo_cavitation_energy": 30.06, 
			 "cosmo_dispersion_energy": -21.44, 
			 "cosmo_repulsion_energy": 1.66, 
			 "cosmo_total_nonelectrostatic_energy": 10.28, 
			 "SMD_solvation_energy": 10.03 
		},
		"coords": [
			{
				"x": -1.4982467612,
				"y": 2.295662118,
				"z": -1.7987640869,
				"element": "O" 
			},
			{
				"x": -1.8225261789,
				"y": 3.0170040573,
				"z": -0.7097675245,
				"element": "C" 
			},
			{
				"x": -2.7623286441,
				"y": 3.7728820075,
				"z": -0.6448697629,
				"element": "O" 
			},
			{
				"x": -0.845273106,
				"y": 2.8105378117,
				"z": 0.4458193002,
				"element": "C" 
			},
			{
				"x": -0.0577133232,
				"y": 1.6019434208,
				"z": 0.3825490445,
				"element": "N" 
			},
			{
				"x": 1.2857621548,
				"y": 1.6103577711,
				"z": 0.0054945719,
				"element": "C" 
			},
			{
				"x": 1.979768603,
				"y": 2.5578767346,
				"z": -0.2489023235,
				"element": "O" 
			},
			{
				"x": 1.7115200382,
				"y": 0.2906269872,
				"z": -0.0136569792,
				"element": "O" 
			},
			{
				"x": 0.6436009829,
				"y": -0.5061401842,
				"z": 0.3258143341,
				"element": "C" 
			},
			{
				"x": -0.4810115878,
				"y": 0.2961250397,
				"z": 0.5713645932,
				"element": "C" 
			},
			{
				"x": -1.7018659629,
				"y": -0.2653843167,
				"z": 0.9315309718,
				"element": "C" 
			},
			{
				"x": -1.7565641268,
				"y": -1.657481655,
				"z": 1.0409314784,
				"element": "C" 
			},
			{
				"x": -0.6190827557,
				"y": -2.4280296807,
				"z": 0.7921954091,
				"element": "C" 
			},
			{
				"x": 0.6185323881,
				"y": -1.8778164423,
				"z": 0.4256012562,
				"element": "C" 
			},
			{
				"x": -0.7167739833,
				"y": -3.887167127,
				"z": 0.9168086898,
				"element": "N" 
			},
			{
				"x": -1.8058525478,
				"y": -4.3636018586,
				"z": 1.2368143532,
				"element": "O" 
			},
			{
				"x": 0.2991333063,
				"y": -4.5456034024,
				"z": 0.6930132491,
				"element": "O" 
			},
			{
				"x": -2.1495963944,
				"y": 2.5168811462,
				"z": -2.4862422133,
				"element": "H" 
			},
			{
				"x": -0.1413925766,
				"y": 3.6489794568,
				"z": 0.438037259,
				"element": "H" 
			},
			{
				"x": -1.4155538669,
				"y": 2.8580698091,
				"z": 1.3772765805,
				"element": "H" 
			},
			{
				"x": -2.5801774741,
				"y": 0.3417362596,
				"z": 1.1199555571,
				"element": "H" 
			},
			{
				"x": -2.6737085412,
				"y": -2.1613142873,
				"z": 1.317335456,
				"element": "H" 
			},
			{
				"x": 1.4793503578,
				"y": -2.5052436654,
				"z": 0.2384607861,
				"element": "H" 
			}
		],
		 "valence_orbital": [ 
			{
				"type": "occ",
				"energy": -0.31335,
				"method": "rhf"
			},
			{
				"type": "occ",
				"energy": -0.30943,
				"method": "rhf"
			},
			{
				"type": "occ",
				"energy": -0.29676,
				"method": "rhf"
			},
			{
				"type": "occ",
				"energy": -0.28623,
				"method": "rhf"
			},
			{
				"type": "occ",
				"energy": -0.25507,
				"method": "rhf"
			},
			{
				"type": "unocc",
				"energy": -0.0955,
				"method": "rhf"
			},
			{
				"type": "unocc",
				"energy": -0.04271,
				"method": "rhf"
			},
			{
				"type": "unocc",
				"energy": -0.02412,
				"method": "rhf"
			},
			{
				"type": "unocc",
				"energy": -0.00404,
				"method": "rhf"
			},
			{
				"type": "unocc",
				"energy": 0.01927,
				"method": "rhf"
			}
		],
		"cosmo_sigma_profile": { 
			"-0.025": 0.0,
			"-0.024": 0.0,
			"-0.023": 0.0,
			"-0.022": 0.0,
			"-0.021": 0.0,
			"-0.02": 0.028857878955,
			"-0.019": 0.684546905617,
			"-0.018": 1.10186012904,
			"-0.017": 0.942398262564,
			"-0.016": 0.765027541681,
			"-0.015": 0.713858765165,
			"-0.014": 0.789103927621,
			"-0.013": 0.61176433304,
			"-0.012": 0.826781034874,
			"-0.011": 1.74435444232,
			"-0.01": 4.27899885589,
			"-0.009": 8.42067969577,
			"-0.008": 9.14074022523,
			"-0.007": 10.4133336607,
			"-0.006": 11.4834046873,
			"-0.005": 11.930478331,
			"-0.004": 10.8543815662,
			"-0.003": 12.7307352169,
			"-0.002": 16.3013943656,
			"-0.001": 20.9858592487,
			"0.0": 12.7496148154,
			"0.001": 11.9734373697,
			"0.002": 8.57237216233,
			"0.003": 6.68741887073,
			"0.004": 6.2743751555,
			"0.005": 9.19198930702,
			"0.006": 9.05359124576,
			"0.007": 12.3293012635,
			"0.008": 10.3561349626,
			"0.009": 8.55703327411,
			"0.01": 10.5546122844,
			"0.011": 9.37734207037,
			"0.012": 1.40820167452,
			"0.013": 0.0,
			"0.014": 0.0,
			"0.015": 0.0,
			"0.016": 0.0,
			"0.017": 0.0,
			"0.018": 0.0,
			"0.019": 0.0,
			"0.02": 0.0,
			"0.021": 0.0,
			"0.022": 0.0,
			"0.023": 0.0,
			"0.024": 0.0,
			"0.025": 0.0
		}
	}
}
