{
	 "smiles": "NC1=CC(NC(=O)C2CCCCC2)=CC=C1", 
	 "Tm": 413.15, 
	 "num_atms": 34, 
	 "gaussian": { 
		 "optdone": 1, 
		 "sigma_profile": "yes", 
		 "theory": "DFT", 
		 "functional": "B3LYP", 
		 "basiset": "6-31G**", 
		 "properties": { 
			 "R2extent": 5872.634, 
			 "electric_dipole_moment_norm": 4.12780579364, 
			 "electric_quadrupole_moment_norm": 14.3205010726, 
			 "total_energy": -691.002669043, 
			 "HOMO_LUMO_gap": 0.19292, 
			 "cosmo_polarized_energy": -16.86, 
			 "cosmo_cavitation_energy": 35.35, 
			 "cosmo_dispersion_energy": -26.02, 
			 "cosmo_repulsion_energy": 2.05, 
			 "cosmo_total_nonelectrostatic_energy": 11.37, 
			 "SMD_solvation_energy": 5.28 
		},
		"coords": [
			{
				"x": 3.9722371773,
				"y": 1.6572703703,
				"z": -2.2644203401,
				"element": "N" 
			},
			{
				"x": 3.4459140831,
				"y": 0.8742393226,
				"z": -1.2318943198,
				"element": "C" 
			},
			{
				"x": 2.0630005231,
				"y": 0.8189172031,
				"z": -1.0165866003,
				"element": "C" 
			},
			{
				"x": 1.5269747869,
				"y": 0.0847317965,
				"z": 0.0513189455,
				"element": "C" 
			},
			{
				"x": 0.1205590849,
				"y": 0.0941489362,
				"z": 0.1844494265,
				"element": "N" 
			},
			{
				"x": -0.6731311574,
				"y": -0.5392723326,
				"z": 1.1151618804,
				"element": "C" 
			},
			{
				"x": -0.2434155097,
				"y": -1.2511426304,
				"z": 2.0150182589,
				"element": "O" 
			},
			{
				"x": -2.1743640562,
				"y": -0.2885149101,
				"z": 0.9500429108,
				"element": "C" 
			},
			{
				"x": -2.9038497454,
				"y": -1.628306247,
				"z": 0.709726248,
				"element": "C" 
			},
			{
				"x": -4.4275329621,
				"y": -1.4477820646,
				"z": 0.6493678642,
				"element": "C" 
			},
			{
				"x": -4.9648555106,
				"y": -0.7492714028,
				"z": 1.9071106063,
				"element": "C" 
			},
			{
				"x": -4.2502538426,
				"y": 0.5886319795,
				"z": 2.1474688184,
				"element": "C" 
			},
			{
				"x": -2.7262458988,
				"y": 0.4121735483,
				"z": 2.2111465699,
				"element": "C" 
			},
			{
				"x": 2.3748741797,
				"y": -0.6131045106,
				"z": 0.9238068589,
				"element": "C" 
			},
			{
				"x": 3.7505417334,
				"y": -0.550189079,
				"z": 0.6984759557,
				"element": "C" 
			},
			{
				"x": 4.2949309818,
				"y": 0.1758643491,
				"z": -0.3563790513,
				"element": "C" 
			},
			{
				"x": 3.3498910258,
				"y": 1.8075844449,
				"z": -3.0468407598,
				"element": "H" 
			},
			{
				"x": 4.8943898863,
				"y": 1.3811654632,
				"z": -2.5732942367,
				"element": "H" 
			},
			{
				"x": 1.3978337067,
				"y": 1.3616751781,
				"z": -1.6864791409,
				"element": "H" 
			},
			{
				"x": -0.3681937495,
				"y": 0.6509673,
				"z": -0.5012114105,
				"element": "H" 
			},
			{
				"x": -2.3549310336,
				"y": 0.3652852299,
				"z": 0.08298272,
				"element": "H" 
			},
			{
				"x": -2.5379591909,
				"y": -2.0906170407,
				"z": -0.2154178486,
				"element": "H" 
			},
			{
				"x": -2.6356280447,
				"y": -2.3069640103,
				"z": 1.5281113111,
				"element": "H" 
			},
			{
				"x": -4.6902727517,
				"y": -0.8508283223,
				"z": -0.23615269,
				"element": "H" 
			},
			{
				"x": -4.9105558251,
				"y": -2.4234792525,
				"z": 0.5186947239,
				"element": "H" 
			},
			{
				"x": -6.0469200919,
				"y": -0.5929408814,
				"z": 1.8225371165,
				"element": "H" 
			},
			{
				"x": -4.8090654992,
				"y": -1.402632301,
				"z": 2.7769174361,
				"element": "H" 
			},
			{
				"x": -4.5040616848,
				"y": 1.2856833589,
				"z": 1.3355459315,
				"element": "H" 
			},
			{
				"x": -4.6078854974,
				"y": 1.0513473924,
				"z": 3.0750091927,
				"element": "H" 
			},
			{
				"x": -2.4526530861,
				"y": -0.1983173744,
				"z": 3.0799447551,
				"element": "H" 
			},
			{
				"x": -2.2350904666,
				"y": 1.3843208343,
				"z": 2.3418944787,
				"element": "H" 
			},
			{
				"x": 1.9563997151,
				"y": -1.1794628922,
				"z": 1.7420001936,
				"element": "H" 
			},
			{
				"x": 4.415664201,
				"y": -1.088390563,
				"z": 1.3683050381,
				"element": "H" 
			},
			{
				"x": 5.3708545193,
				"y": 0.2111091076,
				"z": -0.5059608428,
				"element": "H" 
			}
		],
		 "valence_orbital": [ 
			{
				"type": "occ",
				"energy": -0.29745,
				"method": "rhf"
			},
			{
				"type": "occ",
				"energy": -0.28156,
				"method": "rhf"
			},
			{
				"type": "occ",
				"energy": -0.24258,
				"method": "rhf"
			},
			{
				"type": "occ",
				"energy": -0.21995,
				"method": "rhf"
			},
			{
				"type": "occ",
				"energy": -0.19733,
				"method": "rhf"
			},
			{
				"type": "unocc",
				"energy": -0.00441,
				"method": "rhf"
			},
			{
				"type": "unocc",
				"energy": 0.01775,
				"method": "rhf"
			},
			{
				"type": "unocc",
				"energy": 0.05565,
				"method": "rhf"
			},
			{
				"type": "unocc",
				"energy": 0.06566,
				"method": "rhf"
			},
			{
				"type": "unocc",
				"energy": 0.08178,
				"method": "rhf"
			}
		],
		"cosmo_sigma_profile": { 
			"-0.025": 0.0,
			"-0.024": 0.0,
			"-0.023": 0.0,
			"-0.022": 0.0,
			"-0.021": 0.0,
			"-0.02": 0.0,
			"-0.019": 0.0,
			"-0.018": 0.0,
			"-0.017": 0.0,
			"-0.016": 0.0,
			"-0.015": 0.292445580036,
			"-0.014": 1.41387803492,
			"-0.013": 1.58231647007,
			"-0.012": 3.46282728362,
			"-0.011": 3.99775689483,
			"-0.01": 4.31799680037,
			"-0.009": 5.78717832964,
			"-0.008": 3.36190774677,
			"-0.007": 4.84325784936,
			"-0.006": 6.46871226648,
			"-0.005": 7.05696506927,
			"-0.004": 7.76935513315,
			"-0.003": 18.0220568913,
			"-0.002": 32.5778165347,
			"-0.001": 32.8485894874,
			"0.0": 33.4525014399,
			"0.001": 23.798236145,
			"0.002": 10.832984749,
			"0.003": 9.31270778493,
			"0.004": 9.16959889562,
			"0.005": 12.5264568987,
			"0.006": 13.3477515132,
			"0.007": 10.2839960815,
			"0.008": 2.82348353686,
			"0.009": 2.46824807434,
			"0.01": 2.89078130473,
			"0.011": 1.98424381536,
			"0.012": 3.13484602871,
			"0.013": 3.64780198828,
			"0.014": 2.05535953016,
			"0.015": 0.473274133747,
			"0.016": 0.0,
			"0.017": 0.0,
			"0.018": 0.0,
			"0.019": 0.0,
			"0.02": 0.0,
			"0.021": 0.0,
			"0.022": 0.0,
			"0.023": 0.0,
			"0.024": 0.0,
			"0.025": 0.0
		}
	}
}
