{
	 "smiles": "CC(C)(CC(O)=O)CC(=O)N1CCOCC1", 
	 "Tm": 354.15, 
	 "num_atms": 35, 
	 "gaussian": { 
		 "optdone": 1, 
		 "sigma_profile": "yes", 
		 "theory": "DFT", 
		 "functional": "B3LYP", 
		 "basiset": "6-31G**", 
		 "properties": { 
			 "R2extent": 4402.592, 
			 "electric_dipole_moment_norm": 1.87822775509, 
			 "electric_quadrupole_moment_norm": 7.71792992194, 
			 "total_energy": -786.283995922, 
			 "HOMO_LUMO_gap": 0.25079, 
			 "cosmo_polarized_energy": -16.8, 
			 "cosmo_cavitation_energy": 35.16, 
			 "cosmo_dispersion_energy": -24.56, 
			 "cosmo_repulsion_energy": 1.92, 
			 "cosmo_total_nonelectrostatic_energy": 12.52, 
			 "SMD_solvation_energy": 6.42 
		},
		"coords": [
			{
				"x": 2.1338065554,
				"y": -0.8358924526,
				"z": 2.6692318053,
				"element": "C" 
			},
			{
				"x": 1.3333377812,
				"y": 0.405248227,
				"z": 2.2289838943,
				"element": "C" 
			},
			{
				"x": 2.2246211037,
				"y": 1.6515132469,
				"z": 2.4322600193,
				"element": "C" 
			},
			{
				"x": 0.0770725229,
				"y": 0.6172436688,
				"z": 3.132843696,
				"element": "C" 
			},
			{
				"x": -1.0660312313,
				"y": -0.3511703357,
				"z": 2.926969182,
				"element": "C" 
			},
			{
				"x": -0.958666685,
				"y": -1.4551542768,
				"z": 3.6987886718,
				"element": "O" 
			},
			{
				"x": -1.9978271295,
				"y": -0.1666697252,
				"z": 2.1707602373,
				"element": "O" 
			},
			{
				"x": 0.9481346865,
				"y": 0.3766576512,
				"z": 0.7259638635,
				"element": "C" 
			},
			{
				"x": 0.2042431674,
				"y": -0.8474051207,
				"z": 0.1862719387,
				"element": "C" 
			},
			{
				"x": 0.154936713,
				"y": -1.9209103282,
				"z": 0.7857519412,
				"element": "O" 
			},
			{
				"x": -0.3750292977,
				"y": -0.6947765244,
				"z": -1.0499907549,
				"element": "N" 
			},
			{
				"x": -0.3801762101,
				"y": 0.5531070476,
				"z": -1.8217358478,
				"element": "C" 
			},
			{
				"x": -0.9788099656,
				"y": 0.2876092921,
				"z": -3.2081037739,
				"element": "C" 
			},
			{
				"x": -0.3787124824,
				"y": -0.8434450665,
				"z": -3.8077084173,
				"element": "O" 
			},
			{
				"x": -0.5973435899,
				"y": -2.0593561717,
				"z": -3.0804990944,
				"element": "C" 
			},
			{
				"x": -1.0863101793,
				"y": -1.8221438605,
				"z": -1.6475185179,
				"element": "C" 
			},
			{
				"x": 2.505113968,
				"y": -0.6946877075,
				"z": 3.6908489961,
				"element": "H" 
			},
			{
				"x": 1.5314917446,
				"y": -1.7407364232,
				"z": 2.6294765187,
				"element": "H" 
			},
			{
				"x": 3.0035636514,
				"y": -0.9770774481,
				"z": 2.0171598435,
				"element": "H" 
			},
			{
				"x": 2.4825764579,
				"y": 1.775586626,
				"z": 3.4894355461,
				"element": "H" 
			},
			{
				"x": 1.7244245327,
				"y": 2.5679640243,
				"z": 2.0982600415,
				"element": "H" 
			},
			{
				"x": 3.1606544539,
				"y": 1.5545147393,
				"z": 1.8713980729,
				"element": "H" 
			},
			{
				"x": -0.3330342892,
				"y": 1.6126563334,
				"z": 2.9367031292,
				"element": "H" 
			},
			{
				"x": 0.3960887624,
				"y": 0.5761325409,
				"z": 4.1791292649,
				"element": "H" 
			},
			{
				"x": -1.681521691,
				"y": -2.0445223054,
				"z": 3.4252785322,
				"element": "H" 
			},
			{
				"x": 1.8720346074,
				"y": 0.4656964317,
				"z": 0.1356949899,
				"element": "H" 
			},
			{
				"x": 0.3688570124,
				"y": 1.2797429144,
				"z": 0.5039522264,
				"element": "H" 
			},
			{
				"x": -0.9629365875,
				"y": 1.3376477569,
				"z": -1.3172198605,
				"element": "H" 
			},
			{
				"x": 0.6449015042,
				"y": 0.9203214349,
				"z": -1.946353813,
				"element": "H" 
			},
			{
				"x": -0.7712570876,
				"y": 1.137912967,
				"z": -3.8635754136,
				"element": "H" 
			},
			{
				"x": -2.0728066234,
				"y": 0.181672627,
				"z": -3.1442333354,
				"element": "H" 
			},
			{
				"x": -1.3265547134,
				"y": -2.6859389182,
				"z": -3.6157798745,
				"element": "H" 
			},
			{
				"x": 0.361784955,
				"y": -2.5890460737,
				"z": -3.0694815377,
				"element": "H" 
			},
			{
				"x": -0.8961952813,
				"y": -2.6965147413,
				"z": -1.0249506878,
				"element": "H" 
			},
			{
				"x": -2.1676311355,
				"y": -1.6336800495,
				"z": -1.6284114821,
				"element": "H" 
			}
		],
		 "valence_orbital": [ 
			{
				"type": "occ",
				"energy": -0.30209,
				"method": "rhf"
			},
			{
				"type": "occ",
				"energy": -0.26225,
				"method": "rhf"
			},
			{
				"type": "occ",
				"energy": -0.25672,
				"method": "rhf"
			},
			{
				"type": "occ",
				"energy": -0.24317,
				"method": "rhf"
			},
			{
				"type": "occ",
				"energy": -0.23482,
				"method": "rhf"
			},
			{
				"type": "unocc",
				"energy": 0.01597,
				"method": "rhf"
			},
			{
				"type": "unocc",
				"energy": 0.02763,
				"method": "rhf"
			},
			{
				"type": "unocc",
				"energy": 0.06884,
				"method": "rhf"
			},
			{
				"type": "unocc",
				"energy": 0.08818,
				"method": "rhf"
			},
			{
				"type": "unocc",
				"energy": 0.0978,
				"method": "rhf"
			}
		],
		"cosmo_sigma_profile": { 
			"-0.025": 0.0,
			"-0.024": 0.0,
			"-0.023": 0.0,
			"-0.022": 0.0,
			"-0.021": 0.0,
			"-0.02": 0.0,
			"-0.019": 0.0,
			"-0.018": 0.122572915168,
			"-0.017": 1.13716849251,
			"-0.016": 0.452975165948,
			"-0.015": 0.77856302129,
			"-0.014": 0.905727114339,
			"-0.013": 0.896013614284,
			"-0.012": 0.437149077473,
			"-0.011": 0.228195797424,
			"-0.01": 0.549051553423,
			"-0.009": 0.724828324585,
			"-0.008": 0.523010322206,
			"-0.007": 0.724277854769,
			"-0.006": 7.76569456751,
			"-0.005": 29.5822156433,
			"-0.004": 36.8081499346,
			"-0.003": 33.4510518615,
			"-0.002": 24.6298253428,
			"-0.001": 18.3108172018,
			"0.0": 17.1459594534,
			"0.001": 15.9679715709,
			"0.002": 11.4560584095,
			"0.003": 6.4191533301,
			"0.004": 5.68231338366,
			"0.005": 6.16202217361,
			"0.006": 5.90466228426,
			"0.007": 6.81160250234,
			"0.008": 5.62437826999,
			"0.009": 6.73750628861,
			"0.01": 5.85987945842,
			"0.011": 5.37684756146,
			"0.012": 7.12336997134,
			"0.013": 5.94992895505,
			"0.014": 1.70306859947,
			"0.015": 0.0,
			"0.016": 0.0,
			"0.017": 0.0,
			"0.018": 0.0,
			"0.019": 0.0,
			"0.02": 0.0,
			"0.021": 0.0,
			"0.022": 0.0,
			"0.023": 0.0,
			"0.024": 0.0,
			"0.025": 0.0
		}
	}
}
