{
	 "smiles": "CC1=CC=CC=C1C1=CC=CC=C1P(C1CCCCC1)C1CCCCC1", 
	 "Tm": 382.15, 
	 "num_atms": 59, 
	 "gaussian": { 
		 "optdone": 1, 
		 "sigma_profile": "yes", 
		 "theory": "DFT", 
		 "functional": "B3LYP", 
		 "basiset": "6-31G**", 
		 "properties": { 
			 "R2extent": 10195.0013, 
			 "electric_dipole_moment_norm": 1.22577577884, 
			 "electric_quadrupole_moment_norm": 5.38182994064, 
			 "total_energy": -1313.91415163, 
			 "HOMO_LUMO_gap": 0.18294, 
			 "cosmo_polarized_energy": -7.96, 
			 "cosmo_cavitation_energy": 55.48, 
			 "cosmo_dispersion_energy": -36.18, 
			 "cosmo_repulsion_energy": 2.79, 
			 "cosmo_total_nonelectrostatic_energy": 22.09, 
			 "SMD_solvation_energy": 7.34 
		},
		"coords": [
			{
				"x": -3.7771285812,
				"y": -0.5759767604,
				"z": 0.5692765194,
				"element": "C" 
			},
			{
				"x": -3.1890826925,
				"y": -1.5426772362,
				"z": -0.4356554668,
				"element": "C" 
			},
			{
				"x": -4.0106589958,
				"y": -2.0756978579,
				"z": -1.4396744782,
				"element": "C" 
			},
			{
				"x": -3.5236442491,
				"y": -2.9843837835,
				"z": -2.377471131,
				"element": "C" 
			},
			{
				"x": -2.1859708073,
				"y": -3.3761837807,
				"z": -2.3268321213,
				"element": "C" 
			},
			{
				"x": -1.3531249764,
				"y": -2.8496544735,
				"z": -1.3423348989,
				"element": "C" 
			},
			{
				"x": -1.8316879176,
				"y": -1.9327325543,
				"z": -0.3940984055,
				"element": "C" 
			},
			{
				"x": -0.9135409616,
				"y": -1.451363217,
				"z": 0.6917568815,
				"element": "C" 
			},
			{
				"x": -1.1448770336,
				"y": -1.9502426891,
				"z": 1.9848663439,
				"element": "C" 
			},
			{
				"x": -0.3311838614,
				"y": -1.6060411234,
				"z": 3.0609174035,
				"element": "C" 
			},
			{
				"x": 0.7403747067,
				"y": -0.7398728316,
				"z": 2.8537853423,
				"element": "C" 
			},
			{
				"x": 0.9775367193,
				"y": -0.228838422,
				"z": 1.5786005881,
				"element": "C" 
			},
			{
				"x": 0.1720993813,
				"y": -0.5619446472,
				"z": 0.4734640576,
				"element": "C" 
			},
			{
				"x": 0.52151969,
				"y": 0.0496241485,
				"z": -1.2583081566,
				"element": "P" 
			},
			{
				"x": 2.356206432,
				"y": 0.5228135567,
				"z": -1.3029727654,
				"element": "C" 
			},
			{
				"x": 3.2532555626,
				"y": -0.6955314645,
				"z": -0.9982655449,
				"element": "C" 
			},
			{
				"x": 4.69237946,
				"y": -0.4814322502,
				"z": -1.5254878528,
				"element": "C" 
			},
			{
				"x": 5.1389174594,
				"y": 0.9996404017,
				"z": -1.4493981125,
				"element": "C" 
			},
			{
				"x": 4.4080045027,
				"y": 1.736785354,
				"z": -0.3210345334,
				"element": "C" 
			},
			{
				"x": 2.8858000358,
				"y": 1.8031119601,
				"z": -0.5907810067,
				"element": "C" 
			},
			{
				"x": -0.3377066895,
				"y": 1.7447485606,
				"z": -1.3469864879,
				"element": "C" 
			},
			{
				"x": -1.6532309778,
				"y": 1.6201202779,
				"z": -2.167570143,
				"element": "C" 
			},
			{
				"x": -2.6123016551,
				"y": 2.8149502404,
				"z": -1.9429865672,
				"element": "C" 
			},
			{
				"x": -1.8371020546,
				"y": 4.1020544985,
				"z": -1.6368434998,
				"element": "C" 
			},
			{
				"x": -1.0418119238,
				"y": 3.9624207942,
				"z": -0.3169135822,
				"element": "C" 
			},
			{
				"x": -0.6092754542,
				"y": 2.5011783676,
				"z": -0.0351411226,
				"element": "C" 
			},
			{
				"x": -3.1089272768,
				"y": 0.267993235,
				"z": 0.7633208521,
				"element": "H" 
			},
			{
				"x": -3.9622254327,
				"y": -1.0569627028,
				"z": 1.5369277611,
				"element": "H" 
			},
			{
				"x": -4.7324114014,
				"y": -0.1809154823,
				"z": 0.2120451083,
				"element": "H" 
			},
			{
				"x": -5.0530872804,
				"y": -1.7689415409,
				"z": -1.4809881464,
				"element": "H" 
			},
			{
				"x": -4.1846711633,
				"y": -3.381462957,
				"z": -3.1427969103,
				"element": "H" 
			},
			{
				"x": -1.7911808975,
				"y": -4.084155923,
				"z": -3.0497775271,
				"element": "H" 
			},
			{
				"x": -0.3104058109,
				"y": -3.1480352578,
				"z": -1.3000500295,
				"element": "H" 
			},
			{
				"x": -1.9711359685,
				"y": -2.6398819737,
				"z": 2.134060026,
				"element": "H" 
			},
			{
				"x": -0.52816906,
				"y": -2.0173940007,
				"z": 4.0469017051,
				"element": "H" 
			},
			{
				"x": 1.3900418327,
				"y": -0.45913832,
				"z": 3.6782798924,
				"element": "H" 
			},
			{
				"x": 1.8148698212,
				"y": 0.4442045889,
				"z": 1.4463140381,
				"element": "H" 
			},
			{
				"x": 2.4585406357,
				"y": 0.7040869971,
				"z": -2.3837065079,
				"element": "H" 
			},
			{
				"x": 2.8274668371,
				"y": -1.6027536419,
				"z": -1.4420114052,
				"element": "H" 
			},
			{
				"x": 3.2732477055,
				"y": -0.8712712688,
				"z": 0.0828614781,
				"element": "H" 
			},
			{
				"x": 4.7613195061,
				"y": -0.8294711696,
				"z": -2.5630520924,
				"element": "H" 
			},
			{
				"x": 5.3799771193,
				"y": -1.1090300153,
				"z": -0.9457154937,
				"element": "H" 
			},
			{
				"x": 4.9217783677,
				"y": 1.5060458071,
				"z": -2.399269108,
				"element": "H" 
			},
			{
				"x": 6.2245065292,
				"y": 1.0616658409,
				"z": -1.3143954167,
				"element": "H" 
			},
			{
				"x": 4.596678296,
				"y": 1.2152612814,
				"z": 0.6269553325,
				"element": "H" 
			},
			{
				"x": 4.8051911837,
				"y": 2.7506915609,
				"z": -0.1946825084,
				"element": "H" 
			},
			{
				"x": 2.3664647979,
				"y": 1.9949151705,
				"z": 0.3515709448,
				"element": "H" 
			},
			{
				"x": 2.6717517824,
				"y": 2.6696360771,
				"z": -1.2275221976,
				"element": "H" 
			},
			{
				"x": 0.3698194917,
				"y": 2.3449160232,
				"z": -1.9362170721,
				"element": "H" 
			},
			{
				"x": -1.3951794852,
				"y": 1.5402076026,
				"z": -3.2300477712,
				"element": "H" 
			},
			{
				"x": -2.1706800077,
				"y": 0.6884641941,
				"z": -1.9155411562,
				"element": "H" 
			},
			{
				"x": -3.2859722899,
				"y": 2.5997265722,
				"z": -1.1030330188,
				"element": "H" 
			},
			{
				"x": -3.2554319309,
				"y": 2.9458037172,
				"z": -2.8207690965,
				"element": "H" 
			},
			{
				"x": -1.1498215549,
				"y": 4.3085693545,
				"z": -2.4679415591,
				"element": "H" 
			},
			{
				"x": -2.5137594857,
				"y": 4.9624012933,
				"z": -1.5820546892,
				"element": "H" 
			},
			{
				"x": -1.6473892543,
				"y": 4.3225325469,
				"z": 0.5239658235,
				"element": "H" 
			},
			{
				"x": -0.1561159926,
				"y": 4.6085055117,
				"z": -0.3544247325,
				"element": "H" 
			},
			{
				"x": 0.2621510275,
				"y": 2.495793994,
				"z": 0.6249015911,
				"element": "H" 
			},
			{
				"x": -1.3988057594,
				"y": 1.9757178165,
				"z": 0.5156806261,
				"element": "H" 
			}
		],
		 "valence_orbital": [ 
			{
				"type": "occ",
				"energy": -0.25232,
				"method": "rhf"
			},
			{
				"type": "occ",
				"energy": -0.24728,
				"method": "rhf"
			},
			{
				"type": "occ",
				"energy": -0.23774,
				"method": "rhf"
			},
			{
				"type": "occ",
				"energy": -0.23086,
				"method": "rhf"
			},
			{
				"type": "occ",
				"energy": -0.19789,
				"method": "rhf"
			},
			{
				"type": "unocc",
				"energy": -0.01495,
				"method": "rhf"
			},
			{
				"type": "unocc",
				"energy": -0.01029,
				"method": "rhf"
			},
			{
				"type": "unocc",
				"energy": 0.00978,
				"method": "rhf"
			},
			{
				"type": "unocc",
				"energy": 0.0129,
				"method": "rhf"
			},
			{
				"type": "unocc",
				"energy": 0.06304,
				"method": "rhf"
			}
		],
		"cosmo_sigma_profile": { 
			"-0.025": 0.0,
			"-0.024": 0.0,
			"-0.023": 0.0,
			"-0.022": 0.0,
			"-0.021": 0.0,
			"-0.02": 0.0,
			"-0.019": 0.0,
			"-0.018": 0.0,
			"-0.017": 0.0,
			"-0.016": 0.0,
			"-0.015": 0.0,
			"-0.014": 0.0,
			"-0.013": 0.0,
			"-0.012": 0.0,
			"-0.011": 0.014345952344,
			"-0.01": 0.10795326968,
			"-0.009": 0.0649949025623,
			"-0.008": 0.0217223221933,
			"-0.007": 0.0357161685162,
			"-0.006": 3.03871676838,
			"-0.005": 14.1841859756,
			"-0.004": 23.2891099339,
			"-0.003": 34.0793130909,
			"-0.002": 59.3887018839,
			"-0.001": 70.9806250492,
			"0.0": 68.2986012844,
			"0.001": 57.9574588151,
			"0.002": 30.7590204883,
			"0.003": 15.4078684269,
			"0.004": 15.1722039686,
			"0.005": 14.4882647674,
			"0.006": 11.7757778619,
			"0.007": 2.89927798073,
			"0.008": 1.78590936734,
			"0.009": 1.26409858105,
			"0.01": 0.778873661515,
			"0.011": 0.981793269408,
			"0.012": 1.31154516485,
			"0.013": 0.551927495999,
			"0.014": 0.980121696365,
			"0.015": 0.457956863548,
			"0.016": 0.0308870164012,
			"0.017": 0.0,
			"0.018": 0.0,
			"0.019": 0.0,
			"0.02": 0.0,
			"0.021": 0.0,
			"0.022": 0.0,
			"0.023": 0.0,
			"0.024": 0.0,
			"0.025": 0.0
		}
	}
}
