{
	 "smiles": "COC(=O)C12ON1C1=CC=CC=C1C2=O", 
	 "Tm": 494.15, 
	 "num_atms": 22, 
	 "gaussian": { 
		 "optdone": 1, 
		 "sigma_profile": "yes", 
		 "theory": "DFT", 
		 "functional": "B3LYP", 
		 "basiset": "6-31G**", 
		 "properties": { 
			 "R2extent": 4465.7911, 
			 "electric_dipole_moment_norm": 4.69940235456, 
			 "electric_quadrupole_moment_norm": 17.5356558124, 
			 "total_energy": -740.823095512, 
			 "HOMO_LUMO_gap": 0.17525, 
			 "cosmo_polarized_energy": -13.4, 
			 "cosmo_cavitation_energy": 28.23, 
			 "cosmo_dispersion_energy": -20.09, 
			 "cosmo_repulsion_energy": 1.58, 
			 "cosmo_total_nonelectrostatic_energy": 9.72, 
			 "SMD_solvation_energy": 4.76 
		},
		"coords": [
			{
				"x": -1.1383289152,
				"y": 4.7577075844,
				"z": 0.4031209996,
				"element": "C" 
			},
			{
				"x": -1.2551743427,
				"y": 3.355551005,
				"z": 0.7144713677,
				"element": "O" 
			},
			{
				"x": -0.1068427008,
				"y": 2.7421019371,
				"z": 1.0411579897,
				"element": "C" 
			},
			{
				"x": 0.9829340107,
				"y": 3.2556180401,
				"z": 1.0853646081,
				"element": "O" 
			},
			{
				"x": -0.3922799355,
				"y": 1.2895343635,
				"z": 1.3628959031,
				"element": "C" 
			},
			{
				"x": 0.682153482,
				"y": 0.3967737654,
				"z": 1.3810259494,
				"element": "O" 
			},
			{
				"x": -0.3863545776,
				"y": 0.31819,
				"z": 0.2914053444,
				"element": "N" 
			},
			{
				"x": -1.3215641964,
				"y": -0.7028938631,
				"z": 0.7095697775,
				"element": "C" 
			},
			{
				"x": -1.5779789815,
				"y": -1.8713425288,
				"z": 0.0087499777,
				"element": "C" 
			},
			{
				"x": -2.5406817071,
				"y": -2.7379403865,
				"z": 0.541022445,
				"element": "C" 
			},
			{
				"x": -3.2160373045,
				"y": -2.4357884915,
				"z": 1.7326281785,
				"element": "C" 
			},
			{
				"x": -2.946116545,
				"y": -1.2546033146,
				"z": 2.4284586148,
				"element": "C" 
			},
			{
				"x": -1.9883014327,
				"y": -0.3930744103,
				"z": 1.8993479096,
				"element": "C" 
			},
			{
				"x": -1.4916092455,
				"y": 0.9158318784,
				"z": 2.3831199026,
				"element": "C" 
			},
			{
				"x": -1.8364210539,
				"y": 1.5697992705,
				"z": 3.3422603794,
				"element": "O" 
			},
			{
				"x": -2.1502660942,
				"y": 5.0926012896,
				"z": 0.1793818816,
				"element": "H" 
			},
			{
				"x": -0.4833521096,
				"y": 4.9014080457,
				"z": -0.4593383903,
				"element": "H" 
			},
			{
				"x": -0.7308438918,
				"y": 5.3019831294,
				"z": 1.2579156124,
				"element": "H" 
			},
			{
				"x": -1.052326233,
				"y": -2.0947541721,
				"z": -0.9134001695,
				"element": "H" 
			},
			{
				"x": -2.7704319882,
				"y": -3.662378721,
				"z": 0.0196908657,
				"element": "H" 
			},
			{
				"x": -3.9596522585,
				"y": -3.1288727723,
				"z": 2.1138396326,
				"element": "H" 
			},
			{
				"x": -3.4660239792,
				"y": -1.0014516491,
				"z": 3.3471112203,
				"element": "H" 
			}
		],
		 "valence_orbital": [ 
			{
				"type": "occ",
				"energy": -0.29499,
				"method": "rhf"
			},
			{
				"type": "occ",
				"energy": -0.28983,
				"method": "rhf"
			},
			{
				"type": "occ",
				"energy": -0.28177,
				"method": "rhf"
			},
			{
				"type": "occ",
				"energy": -0.27576,
				"method": "rhf"
			},
			{
				"type": "occ",
				"energy": -0.2627,
				"method": "rhf"
			},
			{
				"type": "unocc",
				"energy": -0.08745,
				"method": "rhf"
			},
			{
				"type": "unocc",
				"energy": -0.04831,
				"method": "rhf"
			},
			{
				"type": "unocc",
				"energy": -0.01541,
				"method": "rhf"
			},
			{
				"type": "unocc",
				"energy": 0.01041,
				"method": "rhf"
			},
			{
				"type": "unocc",
				"energy": 0.03481,
				"method": "rhf"
			}
		],
		"cosmo_sigma_profile": { 
			"-0.025": 0.0,
			"-0.024": 0.0,
			"-0.023": 0.0,
			"-0.022": 0.0,
			"-0.021": 0.0,
			"-0.02": 0.0,
			"-0.019": 0.0,
			"-0.018": 0.0,
			"-0.017": 0.0,
			"-0.016": 0.0,
			"-0.015": 0.0,
			"-0.014": 0.0,
			"-0.013": 0.0,
			"-0.012": 0.0,
			"-0.011": 0.0,
			"-0.01": 0.0,
			"-0.009": 0.33080900683,
			"-0.008": 5.65194491111,
			"-0.007": 13.7948023345,
			"-0.006": 18.9779762819,
			"-0.005": 15.4759401966,
			"-0.004": 17.3272707775,
			"-0.003": 15.0236168686,
			"-0.002": 14.1191535553,
			"-0.001": 15.1787479012,
			"0.0": 16.238347467,
			"0.001": 18.7850713491,
			"0.002": 12.6527459497,
			"0.003": 6.22668150121,
			"0.004": 6.7246230321,
			"0.005": 6.35257534835,
			"0.006": 7.62778054332,
			"0.007": 7.79762104213,
			"0.008": 6.62715201814,
			"0.009": 8.22207017604,
			"0.01": 10.3942298437,
			"0.011": 3.46479076272,
			"0.012": 0.214545156961,
			"0.013": 0.0,
			"0.014": 0.0,
			"0.015": 0.0,
			"0.016": 0.0,
			"0.017": 0.0,
			"0.018": 0.0,
			"0.019": 0.0,
			"0.02": 0.0,
			"0.021": 0.0,
			"0.022": 0.0,
			"0.023": 0.0,
			"0.024": 0.0,
			"0.025": 0.0
		}
	}
}
