{
	 "smiles": "NS(=O)(=O)C1=C(Cl)C=C(NCC2=CC=CO2)C(=C1)C(O)=O", 
	 "Tm": 479.15, 
	 "num_atms": 32, 
	 "gaussian": { 
		 "optdone": 1, 
		 "sigma_profile": "yes", 
		 "theory": "DFT", 
		 "functional": "B3LYP", 
		 "basiset": "6-31G**", 
		 "properties": { 
			 "R2extent": 9498.8788, 
			 "electric_dipole_moment_norm": 6.93081923441, 
			 "electric_quadrupole_moment_norm": 34.31896806, 
			 "total_energy": -1807.8117994, 
			 "HOMO_LUMO_gap": 0.16869, 
			 "cosmo_polarized_energy": -29.67, 
			 "cosmo_cavitation_energy": 39.83, 
			 "cosmo_dispersion_energy": -27.77, 
			 "cosmo_repulsion_energy": 2.1, 
			 "cosmo_total_nonelectrostatic_energy": 14.16, 
			 "SMD_solvation_energy": 7.91 
		},
		"coords": [
			{
				"x": -5.3595577662,
				"y": 3.0961056159,
				"z": 0.4950895568,
				"element": "N" 
			},
			{
				"x": -4.0240981998,
				"y": 3.1254273209,
				"z": -0.5341982396,
				"element": "S" 
			},
			{
				"x": -4.3646361734,
				"y": 2.4309882553,
				"z": -1.7752468617,
				"element": "O" 
			},
			{
				"x": -3.5202906576,
				"y": 4.4992237807,
				"z": -0.5295791335,
				"element": "O" 
			},
			{
				"x": -2.8099098529,
				"y": 2.1250508474,
				"z": 0.3527610844,
				"element": "C" 
			},
			{
				"x": -2.9928053847,
				"y": 0.7680736323,
				"z": 0.6598681124,
				"element": "C" 
			},
			{
				"x": -4.4699619954,
				"y": -0.087977926,
				"z": 0.2876386212,
				"element": "Cl" 
			},
			{
				"x": -1.975669192,
				"y": 0.0605671685,
				"z": 1.29402466,
				"element": "C" 
			},
			{
				"x": -0.7741722774,
				"y": 0.6895453249,
				"z": 1.6340390486,
				"element": "C" 
			},
			{
				"x": 0.285345935,
				"y": -0.0583978622,
				"z": 2.2764248483,
				"element": "N" 
			},
			{
				"x": 0.985397251,
				"y": -1.0441451045,
				"z": 1.3904444939,
				"element": "C" 
			},
			{
				"x": 1.6215746073,
				"y": -0.4141395973,
				"z": 0.1992937898,
				"element": "C" 
			},
			{
				"x": 2.7379133262,
				"y": 0.3480037886,
				"z": 0.0058208617,
				"element": "C" 
			},
			{
				"x": 2.7790808322,
				"y": 0.6629870827,
				"z": -1.3902019908,
				"element": "C" 
			},
			{
				"x": 1.6868666291,
				"y": 0.0676496733,
				"z": -1.9444521511,
				"element": "C" 
			},
			{
				"x": 0.9692181407,
				"y": -0.5912897924,
				"z": -0.9937232485,
				"element": "O" 
			},
			{
				"x": -0.58827935,
				"y": 2.0536660065,
				"z": 1.3506707007,
				"element": "C" 
			},
			{
				"x": -1.6157585642,
				"y": 2.7476469004,
				"z": 0.7012883981,
				"element": "C" 
			},
			{
				"x": 0.6320920802,
				"y": 2.8704534937,
				"z": 1.7389140562,
				"element": "C" 
			},
			{
				"x": 1.5494741354,
				"y": 2.2578544664,
				"z": 2.4938745385,
				"element": "O" 
			},
			{
				"x": 0.7412709855,
				"y": 4.0286473015,
				"z": 1.3996090341,
				"element": "O" 
			},
			{
				"x": -5.6218463333,
				"y": 4.0506507724,
				"z": 0.7255789675,
				"element": "H" 
			},
			{
				"x": -6.1234975627,
				"y": 2.5753810153,
				"z": 0.0742684997,
				"element": "H" 
			},
			{
				"x": -2.1227827554,
				"y": -0.9910372767,
				"z": 1.5177422604,
				"element": "H" 
			},
			{
				"x": -0.092041342,
				"y": -0.5631602714,
				"z": 3.076786904,
				"element": "H" 
			},
			{
				"x": 0.2949203489,
				"y": -1.8203714265,
				"z": 1.0356221308,
				"element": "H" 
			},
			{
				"x": 1.742358733,
				"y": -1.5262429034,
				"z": 2.0168462932,
				"element": "H" 
			},
			{
				"x": 3.4335914076,
				"y": 0.6685839613,
				"z": 0.7677619873,
				"element": "H" 
			},
			{
				"x": 3.5218169616,
				"y": 1.2544851658,
				"z": -1.9052363306,
				"element": "H" 
			},
			{
				"x": 1.2955885369,
				"y": 0.0164895939,
				"z": -2.9485869759,
				"element": "H" 
			},
			{
				"x": -1.4689141141,
				"y": 3.7986859845,
				"z": 0.4794629996,
				"element": "H" 
			},
			{
				"x": 1.2633116106,
				"y": 1.309595008,
				"z": 2.6159930845,
				"element": "H" 
			}
		],
		 "valence_orbital": [ 
			{
				"type": "occ",
				"energy": -0.28584,
				"method": "rhf"
			},
			{
				"type": "occ",
				"energy": -0.28139,
				"method": "rhf"
			},
			{
				"type": "occ",
				"energy": -0.27192,
				"method": "rhf"
			},
			{
				"type": "occ",
				"energy": -0.26634,
				"method": "rhf"
			},
			{
				"type": "occ",
				"energy": -0.23702,
				"method": "rhf"
			},
			{
				"type": "unocc",
				"energy": -0.06833,
				"method": "rhf"
			},
			{
				"type": "unocc",
				"energy": -0.04964,
				"method": "rhf"
			},
			{
				"type": "unocc",
				"energy": -0.00721,
				"method": "rhf"
			},
			{
				"type": "unocc",
				"energy": 0.00077,
				"method": "rhf"
			},
			{
				"type": "unocc",
				"energy": 0.03062,
				"method": "rhf"
			}
		],
		"cosmo_sigma_profile": { 
			"-0.025": 0.0,
			"-0.024": 0.0,
			"-0.023": 0.0,
			"-0.022": 0.0,
			"-0.021": 0.0,
			"-0.02": 0.0,
			"-0.019": 0.0,
			"-0.018": 0.0,
			"-0.017": 0.0,
			"-0.016": 0.112591867104,
			"-0.015": 2.19066863284,
			"-0.014": 3.98730317773,
			"-0.013": 4.27036620957,
			"-0.012": 4.30036730209,
			"-0.011": 4.21177902236,
			"-0.01": 3.9363827378,
			"-0.009": 6.00139033983,
			"-0.008": 7.25436958212,
			"-0.007": 12.3312720504,
			"-0.006": 15.0326893661,
			"-0.005": 15.7510451294,
			"-0.004": 16.0996118376,
			"-0.003": 16.1277386893,
			"-0.002": 20.8897183498,
			"-0.001": 22.5932100792,
			"0.0": 19.5843448552,
			"0.001": 18.2053542738,
			"0.002": 19.0650716289,
			"0.003": 19.2148999574,
			"0.004": 13.1611034246,
			"0.005": 11.3729972905,
			"0.006": 8.25722406845,
			"0.007": 6.48285380633,
			"0.008": 7.82661260914,
			"0.009": 8.28697490957,
			"0.01": 14.3003685623,
			"0.011": 11.649391847,
			"0.012": 5.56252070422,
			"0.013": 2.17100793182,
			"0.014": 0.406595085461,
			"0.015": 0.0,
			"0.016": 0.0,
			"0.017": 0.0,
			"0.018": 0.0,
			"0.019": 0.0,
			"0.02": 0.0,
			"0.021": 0.0,
			"0.022": 0.0,
			"0.023": 0.0,
			"0.024": 0.0,
			"0.025": 0.0
		}
	}
}
