{
	 "smiles": "CCN(C1CC1)S(=O)(=O)C1=C(C)NN=C1C", 
	 "Tm": 371.15, 
	 "num_atms": 33, 
	 "gaussian": { 
		 "optdone": 1, 
		 "sigma_profile": "yes", 
		 "theory": "DFT", 
		 "functional": "B3LYP", 
		 "basiset": "6-31G**", 
		 "properties": { 
			 "R2extent": 3801.0569, 
			 "electric_dipole_moment_norm": 4.85696648125, 
			 "electric_quadrupole_moment_norm": 11.8986971699, 
			 "total_energy": -1104.08906004, 
			 "HOMO_LUMO_gap": 0.23837, 
			 "cosmo_polarized_energy": -18.05, 
			 "cosmo_cavitation_energy": 35.86, 
			 "cosmo_dispersion_energy": -24.58, 
			 "cosmo_repulsion_energy": 1.87, 
			 "cosmo_total_nonelectrostatic_energy": 13.16, 
			 "SMD_solvation_energy": 3.99 
		},
		"coords": [
			{
				"x": 2.5518443132,
				"y": -1.1205263478,
				"z": 1.7083662362,
				"element": "C" 
			},
			{
				"x": 1.8718898916,
				"y": -0.9133452928,
				"z": 0.3510639568,
				"element": "C" 
			},
			{
				"x": 1.0253232224,
				"y": 0.2952182861,
				"z": 0.2122606026,
				"element": "N" 
			},
			{
				"x": 1.6884162625,
				"y": 1.5513480433,
				"z": 0.5046488042,
				"element": "C" 
			},
			{
				"x": 1.3790086866,
				"y": 2.7570089637,
				"z": -0.3364939567,
				"element": "C" 
			},
			{
				"x": 2.6896361272,
				"y": 2.0408067712,
				"z": -0.5200956366,
				"element": "C" 
			},
			{
				"x": -0.5592059287,
				"y": 0.1495760607,
				"z": 0.8489143516,
				"element": "S" 
			},
			{
				"x": -0.5445494445,
				"y": -0.4560276336,
				"z": 2.1901304759,
				"element": "O" 
			},
			{
				"x": -1.194577207,
				"y": 1.456674609,
				"z": 0.6514013921,
				"element": "O" 
			},
			{
				"x": -1.2843738213,
				"y": -1.0251028637,
				"z": -0.2412005469,
				"element": "C" 
			},
			{
				"x": -1.6404362164,
				"y": -0.7694778908,
				"z": -1.5643593243,
				"element": "C" 
			},
			{
				"x": -1.4725230669,
				"y": 0.434143569,
				"z": -2.4310669446,
				"element": "C" 
			},
			{
				"x": -2.2226954505,
				"y": -1.9131051967,
				"z": -1.9831200806,
				"element": "N" 
			},
			{
				"x": -2.285585857,
				"y": -2.8876327386,
				"z": -1.0387877771,
				"element": "N" 
			},
			{
				"x": -1.7159313482,
				"y": -2.3579357883,
				"z": 0.0400876144,
				"element": "C" 
			},
			{
				"x": -1.6177613828,
				"y": -3.1519706806,
				"z": 1.305022568,
				"element": "C" 
			},
			{
				"x": 3.1391240712,
				"y": -2.0447747905,
				"z": 1.6834775093,
				"element": "H" 
			},
			{
				"x": 3.238774943,
				"y": -0.3008583413,
				"z": 1.9396452399,
				"element": "H" 
			},
			{
				"x": 1.8144436301,
				"y": -1.1955244278,
				"z": 2.5099788986,
				"element": "H" 
			},
			{
				"x": 1.2489026079,
				"y": -1.7774408637,
				"z": 0.1008047527,
				"element": "H" 
			},
			{
				"x": 2.6285185653,
				"y": -0.8392739525,
				"z": -0.4378580194,
				"element": "H" 
			},
			{
				"x": 1.933773615,
				"y": 1.7345759347,
				"z": 1.5502131823,
				"element": "H" 
			},
			{
				"x": 0.6233590576,
				"y": 2.6398124382,
				"z": -1.1032903646,
				"element": "H" 
			},
			{
				"x": 1.3687979751,
				"y": 3.72030186,
				"z": 0.1629589251,
				"element": "H" 
			},
			{
				"x": 3.6028828037,
				"y": 2.4994129988,
				"z": -0.153730335,
				"element": "H" 
			},
			{
				"x": 2.8119435195,
				"y": 1.442976998,
				"z": -1.4178721448,
				"element": "H" 
			},
			{
				"x": -1.8562231994,
				"y": 1.3199863566,
				"z": -1.9191262387,
				"element": "H" 
			},
			{
				"x": -0.4130268757,
				"y": 0.6113239168,
				"z": -2.6437822724,
				"element": "H" 
			},
			{
				"x": -2.0008117044,
				"y": 0.3138204914,
				"z": -3.381199758,
				"element": "H" 
			},
			{
				"x": -2.6157848508,
				"y": -2.0928265294,
				"z": -2.8950854377,
				"element": "H" 
			},
			{
				"x": -2.1157393123,
				"y": -2.6376538379,
				"z": 2.1305265225,
				"element": "H" 
			},
			{
				"x": -0.5764841242,
				"y": -3.2957253211,
				"z": 1.6089238776,
				"element": "H" 
			},
			{
				"x": -2.080729502,
				"y": -4.1283848003,
				"z": 1.1487439277,
				"element": "H" 
			}
		],
		 "valence_orbital": [ 
			{
				"type": "occ",
				"energy": -0.28933,
				"method": "rhf"
			},
			{
				"type": "occ",
				"energy": -0.28615,
				"method": "rhf"
			},
			{
				"type": "occ",
				"energy": -0.26644,
				"method": "rhf"
			},
			{
				"type": "occ",
				"energy": -0.25571,
				"method": "rhf"
			},
			{
				"type": "occ",
				"energy": -0.2408,
				"method": "rhf"
			},
			{
				"type": "unocc",
				"energy": -0.00243,
				"method": "rhf"
			},
			{
				"type": "unocc",
				"energy": 0.02818,
				"method": "rhf"
			},
			{
				"type": "unocc",
				"energy": 0.06332,
				"method": "rhf"
			},
			{
				"type": "unocc",
				"energy": 0.07259,
				"method": "rhf"
			},
			{
				"type": "unocc",
				"energy": 0.07861,
				"method": "rhf"
			}
		],
		"cosmo_sigma_profile": { 
			"-0.025": 0.0,
			"-0.024": 0.0,
			"-0.023": 0.0,
			"-0.022": 0.0,
			"-0.021": 0.0,
			"-0.02": 0.0,
			"-0.019": 0.0,
			"-0.018": 0.0,
			"-0.017": 0.951745263833,
			"-0.016": 1.58328079441,
			"-0.015": 1.41011814994,
			"-0.014": 1.31842661531,
			"-0.013": 1.00507065338,
			"-0.012": 1.43308749423,
			"-0.011": 1.15201609313,
			"-0.01": 1.00145713178,
			"-0.009": 1.45191792043,
			"-0.008": 0.964650665639,
			"-0.007": 1.35230224409,
			"-0.006": 3.30687430446,
			"-0.005": 14.0817201226,
			"-0.004": 28.0454037079,
			"-0.003": 32.7597150562,
			"-0.002": 31.2171282184,
			"-0.001": 28.818943453,
			"0.0": 28.034783496,
			"0.001": 21.2580180495,
			"0.002": 13.0111299272,
			"0.003": 9.98801394455,
			"0.004": 9.70140395938,
			"0.005": 6.17983309819,
			"0.006": 4.78927658857,
			"0.007": 3.4710170277,
			"0.008": 4.46813781899,
			"0.009": 4.99963933145,
			"0.01": 6.08617417435,
			"0.011": 6.56720850448,
			"0.012": 6.85164011477,
			"0.013": 2.51011756108,
			"0.014": 0.787703291037,
			"0.015": 0.751694430132,
			"0.016": 0.21590274996,
			"0.017": 0.0,
			"0.018": 0.0,
			"0.019": 0.0,
			"0.02": 0.0,
			"0.021": 0.0,
			"0.022": 0.0,
			"0.023": 0.0,
			"0.024": 0.0,
			"0.025": 0.0
		}
	}
}
