{
	 "smiles": "NC1=CC=CC(CCC(O)=O)=C1", 
	 "Tm": 373.15, 
	 "num_atms": 23, 
	 "gaussian": { 
		 "optdone": 1, 
		 "sigma_profile": "yes", 
		 "theory": "DFT", 
		 "functional": "B3LYP", 
		 "basiset": "6-31G**", 
		 "properties": { 
			 "R2extent": 2479.2257, 
			 "electric_dipole_moment_norm": 2.98726284916, 
			 "electric_quadrupole_moment_norm": 13.8802193906, 
			 "total_energy": -554.810944119, 
			 "HOMO_LUMO_gap": 0.20376, 
			 "cosmo_polarized_energy": -14.82, 
			 "cosmo_cavitation_energy": 26.97, 
			 "cosmo_dispersion_energy": -19.1, 
			 "cosmo_repulsion_energy": 1.56, 
			 "cosmo_total_nonelectrostatic_energy": 9.43, 
			 "SMD_solvation_energy": 5.48 
		},
		"coords": [
			{
				"x": 1.0264957287,
				"y": 2.2763797207,
				"z": 1.8642553433,
				"element": "N" 
			},
			{
				"x": 0.4743278387,
				"y": 1.0806852153,
				"z": 1.3972739884,
				"element": "C" 
			},
			{
				"x": -0.4339121352,
				"y": 0.353186711,
				"z": 2.1839286419,
				"element": "C" 
			},
			{
				"x": -1.0144387695,
				"y": -0.8096399239,
				"z": 1.6832413344,
				"element": "C" 
			},
			{
				"x": -0.7065539527,
				"y": -1.2698821841,
				"z": 0.4030712522,
				"element": "C" 
			},
			{
				"x": 0.1955896838,
				"y": -0.5543572661,
				"z": -0.3967145305,
				"element": "C" 
			},
			{
				"x": 0.5171228685,
				"y": -1.0268359033,
				"z": -1.8006711873,
				"element": "C" 
			},
			{
				"x": -0.5244769606,
				"y": -0.5875062151,
				"z": -2.8537186094,
				"element": "C" 
			},
			{
				"x": -0.6234911174,
				"y": 0.9071991601,
				"z": -3.074676003,
				"element": "C" 
			},
			{
				"x": 0.5982505099,
				"y": 1.4925986771,
				"z": -3.1984691522,
				"element": "O" 
			},
			{
				"x": -1.650833142,
				"y": 1.5385035139,
				"z": -3.1760450589,
				"element": "O" 
			},
			{
				"x": 0.7779192878,
				"y": 0.6115903562,
				"z": 0.1076544689,
				"element": "C" 
			},
			{
				"x": 1.0592582474,
				"y": 2.3682623994,
				"z": 2.8702877667,
				"element": "H" 
			},
			{
				"x": 1.903377622,
				"y": 2.5385563022,
				"z": 1.4353469785,
				"element": "H" 
			},
			{
				"x": -0.6806951455,
				"y": 0.7029975314,
				"z": 3.1834008795,
				"element": "H" 
			},
			{
				"x": -1.7102207302,
				"y": -1.3665140683,
				"z": 2.3050799128,
				"element": "H" 
			},
			{
				"x": -1.1590550129,
				"y": -2.1836964026,
				"z": 0.0271685805,
				"element": "H" 
			},
			{
				"x": 0.5606366423,
				"y": -2.121836778,
				"z": -1.8158786016,
				"element": "H" 
			},
			{
				"x": 1.5032665243,
				"y": -0.6641340617,
				"z": -2.1049033485,
				"element": "H" 
			},
			{
				"x": -1.5256763751,
				"y": -0.9331401597,
				"z": -2.5874372621,
				"element": "H" 
			},
			{
				"x": -0.265300352,
				"y": -1.0355946872,
				"z": -3.8224127851,
				"element": "H" 
			},
			{
				"x": 0.421088691,
				"y": 2.4360681063,
				"z": -3.3509221967,
				"element": "H" 
			},
			{
				"x": 1.4734200487,
				"y": 1.1718099564,
				"z": -0.5130604118,
				"element": "H" 
			}
		],
		 "valence_orbital": [ 
			{
				"type": "occ",
				"energy": -0.31344,
				"method": "rhf"
			},
			{
				"type": "occ",
				"energy": -0.30002,
				"method": "rhf"
			},
			{
				"type": "occ",
				"energy": -0.26742,
				"method": "rhf"
			},
			{
				"type": "occ",
				"energy": -0.23763,
				"method": "rhf"
			},
			{
				"type": "occ",
				"energy": -0.19879,
				"method": "rhf"
			},
			{
				"type": "unocc",
				"energy": 0.00497,
				"method": "rhf"
			},
			{
				"type": "unocc",
				"energy": 0.0119,
				"method": "rhf"
			},
			{
				"type": "unocc",
				"energy": 0.02163,
				"method": "rhf"
			},
			{
				"type": "unocc",
				"energy": 0.07491,
				"method": "rhf"
			},
			{
				"type": "unocc",
				"energy": 0.08393,
				"method": "rhf"
			}
		],
		"cosmo_sigma_profile": { 
			"-0.025": 0.0,
			"-0.024": 0.0,
			"-0.023": 0.0,
			"-0.022": 0.0,
			"-0.021": 0.0,
			"-0.02": 0.0,
			"-0.019": 0.0,
			"-0.018": 0.462122785805,
			"-0.017": 0.841533662215,
			"-0.016": 0.870464054586,
			"-0.015": 0.791609171846,
			"-0.014": 0.80374915305,
			"-0.013": 0.665423269668,
			"-0.012": 2.56068532705,
			"-0.011": 3.59091101012,
			"-0.01": 3.08516078062,
			"-0.009": 4.2090195257,
			"-0.008": 3.47261077424,
			"-0.007": 4.09855059454,
			"-0.006": 7.01784509519,
			"-0.005": 10.9614297382,
			"-0.004": 17.2023033654,
			"-0.003": 18.714903851,
			"-0.002": 16.3050450881,
			"-0.001": 12.9057839653,
			"0.0": 10.4434468814,
			"0.001": 10.1291476284,
			"0.002": 10.0119300472,
			"0.003": 10.0813611386,
			"0.004": 8.68976140226,
			"0.005": 10.4554990966,
			"0.006": 10.7064261318,
			"0.007": 9.31171517932,
			"0.008": 4.62748646906,
			"0.009": 2.82645199239,
			"0.01": 3.69055071299,
			"0.011": 3.72242936186,
			"0.012": 5.95480992735,
			"0.013": 1.8110869294,
			"0.014": 0.783930067545,
			"0.015": 0.360165641138,
			"0.016": 0.0,
			"0.017": 0.0,
			"0.018": 0.0,
			"0.019": 0.0,
			"0.02": 0.0,
			"0.021": 0.0,
			"0.022": 0.0,
			"0.023": 0.0,
			"0.024": 0.0,
			"0.025": 0.0
		}
	}
}
