{
	 "smiles": "CC(C)(C)C1=NON=C1N", 
	 "Tm": 364.15, 
	 "num_atms": 21, 
	 "gaussian": { 
		 "optdone": 1, 
		 "sigma_profile": "yes", 
		 "theory": "DFT", 
		 "functional": "B3LYP", 
		 "basiset": "6-31G**", 
		 "properties": { 
			 "R2extent": 1558.3908, 
			 "electric_dipole_moment_norm": 4.55204406174, 
			 "electric_quadrupole_moment_norm": 11.2713228904, 
			 "total_energy": -474.675017121, 
			 "HOMO_LUMO_gap": 0.21947, 
			 "cosmo_polarized_energy": -12.5, 
			 "cosmo_cavitation_energy": 23.42, 
			 "cosmo_dispersion_energy": -17.03, 
			 "cosmo_repulsion_energy": 1.38, 
			 "cosmo_total_nonelectrostatic_energy": 7.77, 
			 "SMD_solvation_energy": 4.06 
		},
		"coords": [
			{
				"x": -0.0223762339,
				"y": 1.5283531581,
				"z": -0.3408081667,
				"element": "C" 
			},
			{
				"x": -0.7697274428,
				"y": 0.1743396525,
				"z": -0.2993293079,
				"element": "C" 
			},
			{
				"x": -1.029170024,
				"y": -0.3297362969,
				"z": -1.7382767351,
				"element": "C" 
			},
			{
				"x": -2.1155105274,
				"y": 0.3716048442,
				"z": 0.4238274231,
				"element": "C" 
			},
			{
				"x": 0.0741785508,
				"y": -0.8469875287,
				"z": 0.4410420993,
				"element": "C" 
			},
			{
				"x": -0.3187171884,
				"y": -1.4121294591,
				"z": 1.5525228307,
				"element": "N" 
			},
			{
				"x": 0.6685006132,
				"y": -2.2799031094,
				"z": 1.9302706787,
				"element": "O" 
			},
			{
				"x": 1.7252418233,
				"y": -2.2504857818,
				"z": 1.0387326599,
				"element": "N" 
			},
			{
				"x": 1.3751226229,
				"y": -1.3868986669,
				"z": 0.1179341875,
				"element": "C" 
			},
			{
				"x": 2.1523302529,
				"y": -1.1529896304,
				"z": -1.0061544482,
				"element": "N" 
			},
			{
				"x": -0.6334730332,
				"y": 2.275354814,
				"z": -0.8579213491,
				"element": "H" 
			},
			{
				"x": 0.9314208186,
				"y": 1.4676955535,
				"z": -0.8770799809,
				"element": "H" 
			},
			{
				"x": 0.1832699289,
				"y": 1.8960676514,
				"z": 0.6690666731,
				"element": "H" 
			},
			{
				"x": -1.6041058215,
				"y": 0.416528285,
				"z": -2.2967798929,
				"element": "H" 
			},
			{
				"x": -0.0984310846,
				"y": -0.5214908845,
				"z": -2.2797459839,
				"element": "H" 
			},
			{
				"x": -1.6043066202,
				"y": -1.2606310118,
				"z": -1.724489646,
				"element": "H" 
			},
			{
				"x": -2.6743629017,
				"y": -0.5659566244,
				"z": 0.4824601108,
				"element": "H" 
			},
			{
				"x": -2.7210702913,
				"y": 1.1024014888,
				"z": -0.1221407437,
				"element": "H" 
			},
			{
				"x": -1.9709457325,
				"y": 0.7348267311,
				"z": 1.4448081619,
				"element": "H" 
			},
			{
				"x": 3.0726669877,
				"y": -1.5699471497,
				"z": -0.933263926,
				"element": "H" 
			},
			{
				"x": 2.2009653032,
				"y": -0.184516035,
				"z": -1.2917746445,
				"element": "H" 
			}
		],
		 "valence_orbital": [ 
			{
				"type": "occ",
				"energy": -0.34735,
				"method": "rhf"
			},
			{
				"type": "occ",
				"energy": -0.3226,
				"method": "rhf"
			},
			{
				"type": "occ",
				"energy": -0.29926,
				"method": "rhf"
			},
			{
				"type": "occ",
				"energy": -0.29172,
				"method": "rhf"
			},
			{
				"type": "occ",
				"energy": -0.24521,
				"method": "rhf"
			},
			{
				"type": "unocc",
				"energy": -0.02574,
				"method": "rhf"
			},
			{
				"type": "unocc",
				"energy": 0.03989,
				"method": "rhf"
			},
			{
				"type": "unocc",
				"energy": 0.06445,
				"method": "rhf"
			},
			{
				"type": "unocc",
				"energy": 0.0927,
				"method": "rhf"
			},
			{
				"type": "unocc",
				"energy": 0.10331,
				"method": "rhf"
			}
		],
		"cosmo_sigma_profile": { 
			"-0.025": 0.0,
			"-0.024": 0.0,
			"-0.023": 0.0,
			"-0.022": 0.0,
			"-0.021": 0.0,
			"-0.02": 0.0,
			"-0.019": 0.0,
			"-0.018": 0.0,
			"-0.017": 0.0,
			"-0.016": 0.0,
			"-0.015": 0.0,
			"-0.014": 0.868428158158,
			"-0.013": 2.7752188061,
			"-0.012": 2.46922244955,
			"-0.011": 3.71816885027,
			"-0.01": 2.63430453412,
			"-0.009": 1.71231062834,
			"-0.008": 2.1075259751,
			"-0.007": 2.39592070472,
			"-0.006": 2.66075215386,
			"-0.005": 2.15399184306,
			"-0.004": 9.42002986424,
			"-0.003": 21.5246015559,
			"-0.002": 18.9506788669,
			"-0.001": 18.5039031358,
			"0.0": 22.3047879219,
			"0.001": 13.9540768956,
			"0.002": 5.91227631258,
			"0.003": 3.86128397209,
			"0.004": 4.87036672333,
			"0.005": 4.32954911371,
			"0.006": 6.4900184418,
			"0.007": 10.4707073219,
			"0.008": 6.18386354253,
			"0.009": 3.26958003915,
			"0.01": 3.38087723845,
			"0.011": 2.48385822154,
			"0.012": 2.56053870469,
			"0.013": 1.08324001079,
			"0.014": 0.178057218741,
			"0.015": 0.0,
			"0.016": 0.0,
			"0.017": 0.0,
			"0.018": 0.0,
			"0.019": 0.0,
			"0.02": 0.0,
			"0.021": 0.0,
			"0.022": 0.0,
			"0.023": 0.0,
			"0.024": 0.0,
			"0.025": 0.0
		}
	}
}
