{
	 "smiles": "NC1=NC(=O)C2=C(N1)N(CCC(CO)CO)C=N2", 
	 "Tm": 549.15, 
	 "num_atms": 33, 
	 "gaussian": { 
		 "optdone": 1, 
		 "sigma_profile": "yes", 
		 "theory": "DFT", 
		 "functional": "B3LYP", 
		 "basiset": "6-31G**", 
		 "properties": { 
			 "R2extent": 7148.7164, 
			 "electric_dipole_moment_norm": 9.62571472983, 
			 "electric_quadrupole_moment_norm": 68.5025525662, 
			 "total_energy": -889.516506822, 
			 "HOMO_LUMO_gap": 0.20592, 
			 "cosmo_polarized_energy": -47.64, 
			 "cosmo_cavitation_energy": 36.79, 
			 "cosmo_dispersion_energy": -25.67, 
			 "cosmo_repulsion_energy": 2.02, 
			 "cosmo_total_nonelectrostatic_energy": 13.14, 
			 "SMD_solvation_energy": 3.53 
		},
		"coords": [
			{
				"x": 0.6824265528,
				"y": 4.0385943751,
				"z": 3.5652617147,
				"element": "N" 
			},
			{
				"x": 0.668837739,
				"y": 4.0688784617,
				"z": 2.1781706669,
				"element": "C" 
			},
			{
				"x": 0.4255219157,
				"y": 5.1657510317,
				"z": 1.543671849,
				"element": "N" 
			},
			{
				"x": 0.2818474251,
				"y": 5.2173362065,
				"z": 0.1280924371,
				"element": "C" 
			},
			{
				"x": -0.0067372568,
				"y": 6.2583911596,
				"z": -0.4340955623,
				"element": "O" 
			},
			{
				"x": 0.5234853687,
				"y": 3.932334088,
				"z": -0.538232094,
				"element": "C" 
			},
			{
				"x": 0.7869664238,
				"y": 2.8071771284,
				"z": 0.2142512337,
				"element": "C" 
			},
			{
				"x": 0.8999853866,
				"y": 2.8233506644,
				"z": 1.5897846649,
				"element": "N" 
			},
			{
				"x": 0.9720441003,
				"y": 1.7621322674,
				"z": -0.6494861452,
				"element": "N" 
			},
			{
				"x": 1.2342578892,
				"y": 0.3631502251,
				"z": -0.3201893507,
				"element": "C" 
			},
			{
				"x": 0.0085002239,
				"y": -0.3964091051,
				"z": 0.210214149,
				"element": "C" 
			},
			{
				"x": -1.1743931239,
				"y": -0.5119973436,
				"z": -0.768291458,
				"element": "C" 
			},
			{
				"x": -0.8079149563,
				"y": -1.2617776927,
				"z": -2.0535689824,
				"element": "C" 
			},
			{
				"x": -0.1544462813,
				"y": -2.476464908,
				"z": -1.6927178026,
				"element": "O" 
			},
			{
				"x": -2.3676029468,
				"y": -1.1940769366,
				"z": -0.0729153676,
				"element": "C" 
			},
			{
				"x": -3.5273197087,
				"y": -1.2502723139,
				"z": -0.8910728086,
				"element": "O" 
			},
			{
				"x": 0.796078367,
				"y": 2.3220524448,
				"z": -1.9129366973,
				"element": "C" 
			},
			{
				"x": 0.5331853257,
				"y": 3.6013484413,
				"z": -1.8806067376,
				"element": "N" 
			},
			{
				"x": 0.6125478212,
				"y": 4.9745695318,
				"z": 3.944463775,
				"element": "H" 
			},
			{
				"x": 1.43019734,
				"y": 3.500582225,
				"z": 3.9863156025,
				"element": "H" 
			},
			{
				"x": 0.7392564543,
				"y": 1.9904653538,
				"z": 2.139664363,
				"element": "H" 
			},
			{
				"x": 1.6192562749,
				"y": -0.1168140501,
				"z": -1.2230569376,
				"element": "H" 
			},
			{
				"x": 2.0420787449,
				"y": 0.3313724225,
				"z": 0.4203639013,
				"element": "H" 
			},
			{
				"x": -0.3430268221,
				"y": 0.081361483,
				"z": 1.1352270848,
				"element": "H" 
			},
			{
				"x": 0.3435882523,
				"y": -1.4025184099,
				"z": 0.4831916137,
				"element": "H" 
			},
			{
				"x": -1.490588958,
				"y": 0.4999539807,
				"z": -1.0634183988,
				"element": "H" 
			},
			{
				"x": -1.7341272443,
				"y": -1.4508762433,
				"z": -2.6106494419,
				"element": "H" 
			},
			{
				"x": -0.1560901542,
				"y": -0.6419155148,
				"z": -2.6895307691,
				"element": "H" 
			},
			{
				"x": -0.1675707372,
				"y": -3.0673244377,
				"z": -2.4546662338,
				"element": "H" 
			},
			{
				"x": -2.5782198073,
				"y": -0.6908959999,
				"z": 0.8840326664,
				"element": "H" 
			},
			{
				"x": -2.1086542941,
				"y": -2.2339635118,
				"z": 0.1483798018,
				"element": "H" 
			},
			{
				"x": -3.8518675696,
				"y": -0.3481119649,
				"z": -1.0122593803,
				"element": "H" 
			},
			{
				"x": 0.8882982551,
				"y": 1.7115169414,
				"z": -2.8013913561,
				"element": "H" 
			}
		],
		 "valence_orbital": [ 
			{
				"type": "occ",
				"energy": -0.27379,
				"method": "rhf"
			},
			{
				"type": "occ",
				"energy": -0.26762,
				"method": "rhf"
			},
			{
				"type": "occ",
				"energy": -0.25352,
				"method": "rhf"
			},
			{
				"type": "occ",
				"energy": -0.22187,
				"method": "rhf"
			},
			{
				"type": "occ",
				"energy": -0.21573,
				"method": "rhf"
			},
			{
				"type": "unocc",
				"energy": -0.00981,
				"method": "rhf"
			},
			{
				"type": "unocc",
				"energy": 0.01138,
				"method": "rhf"
			},
			{
				"type": "unocc",
				"energy": 0.02721,
				"method": "rhf"
			},
			{
				"type": "unocc",
				"energy": 0.03683,
				"method": "rhf"
			},
			{
				"type": "unocc",
				"energy": 0.0535,
				"method": "rhf"
			}
		],
		"cosmo_sigma_profile": { 
			"-0.025": 0.0,
			"-0.024": 0.0,
			"-0.023": 0.0,
			"-0.022": 0.0,
			"-0.021": 0.0,
			"-0.02": 0.0,
			"-0.019": 0.0,
			"-0.018": 0.0,
			"-0.017": 0.203987389868,
			"-0.016": 1.97948413992,
			"-0.015": 4.24661956235,
			"-0.014": 6.31512927304,
			"-0.013": 5.92482715537,
			"-0.012": 5.83092558684,
			"-0.011": 5.33105705569,
			"-0.01": 4.83967757062,
			"-0.009": 6.80908560172,
			"-0.008": 9.53630131904,
			"-0.007": 9.91974287057,
			"-0.006": 10.7652308497,
			"-0.005": 12.4273140352,
			"-0.004": 18.8361591959,
			"-0.003": 21.3103924127,
			"-0.002": 21.0548118406,
			"-0.001": 15.708970078,
			"0.0": 13.0711476912,
			"0.001": 9.5865486877,
			"0.002": 7.29754406308,
			"0.003": 7.66576747868,
			"0.004": 6.9789170804,
			"0.005": 6.96674460225,
			"0.006": 7.318536671,
			"0.007": 6.61683945715,
			"0.008": 5.76160520097,
			"0.009": 5.73479748311,
			"0.01": 6.07074164996,
			"0.011": 5.90452967984,
			"0.012": 6.82939537556,
			"0.013": 5.93889900637,
			"0.014": 10.4261409827,
			"0.015": 7.24976102285,
			"0.016": 4.82252394414,
			"0.017": 2.96286501153,
			"0.018": 0.231424702487,
			"0.019": 0.0,
			"0.02": 0.0,
			"0.021": 0.0,
			"0.022": 0.0,
			"0.023": 0.0,
			"0.024": 0.0,
			"0.025": 0.0
		}
	}
}
