{
	 "smiles": "CCOC(=O)C1=C(C)SC(NCCC2=CC=CC=C2)=N1", 
	 "Tm": 383.15, 
	 "num_atms": 38, 
	 "gaussian": { 
		 "optdone": 1, 
		 "sigma_profile": "yes", 
		 "theory": "DFT", 
		 "functional": "B3LYP", 
		 "basiset": "6-31G**", 
		 "properties": { 
			 "R2extent": 9932.941, 
			 "electric_dipole_moment_norm": 3.29458067286, 
			 "electric_quadrupole_moment_norm": 12.2534151978, 
			 "total_energy": -1240.60713157, 
			 "HOMO_LUMO_gap": 0.17358, 
			 "cosmo_polarized_energy": -13.9, 
			 "cosmo_cavitation_energy": 43.64, 
			 "cosmo_dispersion_energy": -31.07, 
			 "cosmo_repulsion_energy": 2.42, 
			 "cosmo_total_nonelectrostatic_energy": 14.99, 
			 "SMD_solvation_energy": 5.95 
		},
		"coords": [
			{
				"x": -2.0501677703,
				"y": 4.5901730029,
				"z": 1.0989955456,
				"element": "C" 
			},
			{
				"x": -2.7009004468,
				"y": 4.0236916687,
				"z": -0.1490789823,
				"element": "C" 
			},
			{
				"x": -2.0805561116,
				"y": 2.7486244011,
				"z": -0.4162441438,
				"element": "O" 
			},
			{
				"x": -2.5412491996,
				"y": 2.0960431278,
				"z": -1.5016168706,
				"element": "C" 
			},
			{
				"x": -3.4231755965,
				"y": 2.5426858532,
				"z": -2.2176373099,
				"element": "O" 
			},
			{
				"x": -1.8506580569,
				"y": 0.7952461103,
				"z": -1.7027218937,
				"element": "C" 
			},
			{
				"x": -2.1350315337,
				"y": -0.0661538396,
				"z": -2.7361537917,
				"element": "C" 
			},
			{
				"x": -3.1174130356,
				"y": 0.0303048717,
				"z": -3.8621385032,
				"element": "C" 
			},
			{
				"x": -1.0938937414,
				"y": -1.4747612366,
				"z": -2.5914282476,
				"element": "S" 
			},
			{
				"x": -0.3630938307,
				"y": -0.7456357739,
				"z": -1.1424650765,
				"element": "C" 
			},
			{
				"x": 0.5900721408,
				"y": -1.4227613311,
				"z": -0.4299535658,
				"element": "N" 
			},
			{
				"x": 1.3137350911,
				"y": -0.7328351868,
				"z": 0.6343995332,
				"element": "C" 
			},
			{
				"x": 2.1074468388,
				"y": -1.7358990676,
				"z": 1.4888011025,
				"element": "C" 
			},
			{
				"x": 3.1458156659,
				"y": -2.5083786398,
				"z": 0.6999284406,
				"element": "C" 
			},
			{
				"x": 2.8909210965,
				"y": -3.8144252003,
				"z": 0.2571085827,
				"element": "C" 
			},
			{
				"x": 3.8332389164,
				"y": -4.5120226357,
				"z": -0.5034424124,
				"element": "C" 
			},
			{
				"x": 5.0491156783,
				"y": -3.9126210983,
				"z": -0.8319503247,
				"element": "C" 
			},
			{
				"x": 5.3174002848,
				"y": -2.6128388143,
				"z": -0.3947188188,
				"element": "C" 
			},
			{
				"x": 4.3739926284,
				"y": -1.919230262,
				"z": 0.3623579321,
				"element": "C" 
			},
			{
				"x": -0.8527981521,
				"y": 0.4114960111,
				"z": -0.8182764047,
				"element": "N" 
			},
			{
				"x": -2.1966453558,
				"y": 3.9221780402,
				"z": 1.9525629384,
				"element": "H" 
			},
			{
				"x": -2.4918345175,
				"y": 5.5621777727,
				"z": 1.3406672226,
				"element": "H" 
			},
			{
				"x": -0.9751063632,
				"y": 4.7262466126,
				"z": 0.9507269254,
				"element": "H" 
			},
			{
				"x": -3.7783460104,
				"y": 3.8764918379,
				"z": -0.020789169,
				"element": "H" 
			},
			{
				"x": -2.5632953553,
				"y": 4.6764476742,
				"z": -1.0174106978,
				"element": "H" 
			},
			{
				"x": -3.8316735727,
				"y": -0.8011188039,
				"z": -3.8369736635,
				"element": "H" 
			},
			{
				"x": -2.610176193,
				"y": -0.0042736522,
				"z": -4.8335578887,
				"element": "H" 
			},
			{
				"x": -3.6641468696,
				"y": 0.9686196263,
				"z": -3.7815495373,
				"element": "H" 
			},
			{
				"x": 1.1331316564,
				"y": -2.1042833446,
				"z": -0.9444723279,
				"element": "H" 
			},
			{
				"x": 0.5771962606,
				"y": -0.2095997612,
				"z": 1.2485438236,
				"element": "H" 
			},
			{
				"x": 1.9892713359,
				"y": 0.032960782,
				"z": 0.2237213558,
				"element": "H" 
			},
			{
				"x": 2.5942447641,
				"y": -1.1721917115,
				"z": 2.2930432266,
				"element": "H" 
			},
			{
				"x": 1.4047493949,
				"y": -2.4308446886,
				"z": 1.9608484633,
				"element": "H" 
			},
			{
				"x": 1.9504183219,
				"y": -4.2922716745,
				"z": 0.5214864005,
				"element": "H" 
			},
			{
				"x": 3.6175021321,
				"y": -5.5245747012,
				"z": -0.8327658745,
				"element": "H" 
			},
			{
				"x": 5.7847639516,
				"y": -4.4539805737,
				"z": -1.4195962931,
				"element": "H" 
			},
			{
				"x": 6.2644761544,
				"y": -2.1408733564,
				"z": -0.6408329239,
				"element": "H" 
			},
			{
				"x": 4.5932693996,
				"y": -0.9096120389,
				"z": 0.7021832286,
				"element": "H" 
			}
		],
		 "valence_orbital": [ 
			{
				"type": "occ",
				"energy": -0.27077,
				"method": "rhf"
			},
			{
				"type": "occ",
				"energy": -0.25837,
				"method": "rhf"
			},
			{
				"type": "occ",
				"energy": -0.25545,
				"method": "rhf"
			},
			{
				"type": "occ",
				"energy": -0.25133,
				"method": "rhf"
			},
			{
				"type": "occ",
				"energy": -0.2028,
				"method": "rhf"
			},
			{
				"type": "unocc",
				"energy": -0.02922,
				"method": "rhf"
			},
			{
				"type": "unocc",
				"energy": -0.01194,
				"method": "rhf"
			},
			{
				"type": "unocc",
				"energy": -0.00957,
				"method": "rhf"
			},
			{
				"type": "unocc",
				"energy": 0.00813,
				"method": "rhf"
			},
			{
				"type": "unocc",
				"energy": 0.02626,
				"method": "rhf"
			}
		],
		"cosmo_sigma_profile": { 
			"-0.025": 0.0,
			"-0.024": 0.0,
			"-0.023": 0.0,
			"-0.022": 0.0,
			"-0.021": 0.0,
			"-0.02": 0.0,
			"-0.019": 0.0,
			"-0.018": 0.0,
			"-0.017": 0.0,
			"-0.016": 0.0,
			"-0.015": 0.0,
			"-0.014": 0.0,
			"-0.013": 0.0717976595876,
			"-0.012": 0.859718832518,
			"-0.011": 0.868420517408,
			"-0.01": 1.40672673647,
			"-0.009": 0.947942225263,
			"-0.008": 0.78122335414,
			"-0.007": 1.07452665761,
			"-0.006": 5.16312109113,
			"-0.005": 24.8389430822,
			"-0.004": 42.5245740893,
			"-0.003": 39.8241177832,
			"-0.002": 34.7530535288,
			"-0.001": 31.0863349864,
			"0.0": 28.9846040309,
			"0.001": 25.9352017363,
			"0.002": 23.2606834404,
			"0.003": 17.9921997237,
			"0.004": 16.4497227417,
			"0.005": 13.6935644974,
			"0.006": 10.1256958103,
			"0.007": 3.91516865342,
			"0.008": 4.65414656678,
			"0.009": 3.44383860389,
			"0.01": 2.81201857684,
			"0.011": 3.61419631357,
			"0.012": 3.71715825858,
			"0.013": 2.17568832094,
			"0.014": 1.00656765691,
			"0.015": 0.902888715557,
			"0.016": 0.680553488473,
			"0.017": 0.276378296372,
			"0.018": 0.0,
			"0.019": 0.0,
			"0.02": 0.0,
			"0.021": 0.0,
			"0.022": 0.0,
			"0.023": 0.0,
			"0.024": 0.0,
			"0.025": 0.0
		}
	}
}
