{
	 "smiles": "COC1=CC(CO)=NC=C1", 
	 "Tm": 344.15, 
	 "num_atms": 19, 
	 "gaussian": { 
		 "optdone": 1, 
		 "sigma_profile": "yes", 
		 "theory": "DFT", 
		 "functional": "B3LYP", 
		 "basiset": "6-31G**", 
		 "properties": { 
			 "R2extent": 2105.6957, 
			 "electric_dipole_moment_norm": 4.43121800524, 
			 "electric_quadrupole_moment_norm": 17.3980512366, 
			 "total_energy": -477.347272118, 
			 "HOMO_LUMO_gap": 0.22565, 
			 "cosmo_polarized_energy": -9.83, 
			 "cosmo_cavitation_energy": 22.49, 
			 "cosmo_dispersion_energy": -17.08, 
			 "cosmo_repulsion_energy": 1.4, 
			 "cosmo_total_nonelectrostatic_energy": 6.81, 
			 "SMD_solvation_energy": 3.97 
		},
		"coords": [
			{
				"x": 1.4523153258,
				"y": -0.6206506461,
				"z": -1.397072931,
				"element": "C" 
			},
			{
				"x": 1.4952953963,
				"y": -0.5089889771,
				"z": 0.0212538075,
				"element": "O" 
			},
			{
				"x": 0.3859612024,
				"y": -0.0799970709,
				"z": 0.6681729733,
				"element": "C" 
			},
			{
				"x": -0.8189099275,
				"y": 0.2687467663,
				"z": 0.0537361995,
				"element": "C" 
			},
			{
				"x": -1.8775457018,
				"y": 0.6952711527,
				"z": 0.865112104,
				"element": "C" 
			},
			{
				"x": -3.2239430725,
				"y": 1.0935825012,
				"z": 0.2758750259,
				"element": "C" 
			},
			{
				"x": -4.1377736974,
				"y": 1.4875056189,
				"z": 1.2633644284,
				"element": "O" 
			},
			{
				"x": -1.7945981365,
				"y": 0.785682356,
				"z": 2.1939544314,
				"element": "N" 
			},
			{
				"x": -0.6291842225,
				"y": 0.4470656346,
				"z": 2.7731589103,
				"element": "C" 
			},
			{
				"x": 0.4798662461,
				"y": 0.0130882513,
				"z": 2.0683739411,
				"element": "C" 
			},
			{
				"x": 2.4376414452,
				"y": -0.9774655139,
				"z": -1.6983009958,
				"element": "H" 
			},
			{
				"x": 1.2570245779,
				"y": 0.3494476813,
				"z": -1.8697926453,
				"element": "H" 
			},
			{
				"x": 0.6908017177,
				"y": -1.3409274288,
				"z": -1.7195566418,
				"element": "H" 
			},
			{
				"x": -0.9512167045,
				"y": 0.2175030093,
				"z": -1.0208554396,
				"element": "H" 
			},
			{
				"x": -3.62160516,
				"y": 0.2413823559,
				"z": -0.3007072811,
				"element": "H" 
			},
			{
				"x": -3.0632186916,
				"y": 1.9091434164,
				"z": -0.44928217,
				"element": "H" 
			},
			{
				"x": -3.6481686223,
				"y": 1.3983921073,
				"z": 2.1032295041,
				"element": "H" 
			},
			{
				"x": -0.5896222605,
				"y": 0.5302162294,
				"z": 3.8570784294,
				"element": "H" 
			},
			{
				"x": 1.4059802857,
				"y": -0.2527974438,
				"z": 2.5649583498,
				"element": "H" 
			}
		],
		 "valence_orbital": [ 
			{
				"type": "occ",
				"energy": -0.31671,
				"method": "rhf"
			},
			{
				"type": "occ",
				"energy": -0.27211,
				"method": "rhf"
			},
			{
				"type": "occ",
				"energy": -0.2717,
				"method": "rhf"
			},
			{
				"type": "occ",
				"energy": -0.25381,
				"method": "rhf"
			},
			{
				"type": "occ",
				"energy": -0.24274,
				"method": "rhf"
			},
			{
				"type": "unocc",
				"energy": -0.01709,
				"method": "rhf"
			},
			{
				"type": "unocc",
				"energy": -0.01339,
				"method": "rhf"
			},
			{
				"type": "unocc",
				"energy": 0.08571,
				"method": "rhf"
			},
			{
				"type": "unocc",
				"energy": 0.09599,
				"method": "rhf"
			},
			{
				"type": "unocc",
				"energy": 0.12305,
				"method": "rhf"
			}
		],
		"cosmo_sigma_profile": { 
			"-0.025": 0.0,
			"-0.024": 0.0,
			"-0.023": 0.0,
			"-0.022": 0.0,
			"-0.021": 0.0,
			"-0.02": 0.0,
			"-0.019": 0.0,
			"-0.018": 0.0,
			"-0.017": 0.0,
			"-0.016": 0.0,
			"-0.015": 0.0,
			"-0.014": 0.0,
			"-0.013": 0.0,
			"-0.012": 0.0,
			"-0.011": 0.0,
			"-0.01": 0.0,
			"-0.009": 0.0,
			"-0.008": 0.596313781957,
			"-0.007": 6.63923959342,
			"-0.006": 13.615452491,
			"-0.005": 18.7168276015,
			"-0.004": 18.6355071341,
			"-0.003": 14.5477574388,
			"-0.002": 10.8482685281,
			"-0.001": 8.24332692174,
			"0.0": 8.61298911398,
			"0.001": 11.9984012719,
			"0.002": 18.130462716,
			"0.003": 12.157193596,
			"0.004": 5.1222504818,
			"0.005": 4.49385863412,
			"0.006": 4.6372566299,
			"0.007": 4.61621513067,
			"0.008": 3.84028740277,
			"0.009": 3.06424670189,
			"0.01": 1.42361695549,
			"0.011": 1.13679326908,
			"0.012": 1.71345445305,
			"0.013": 1.63499766902,
			"0.014": 2.24340983387,
			"0.015": 1.75501401282,
			"0.016": 0.0,
			"0.017": 0.0,
			"0.018": 0.0,
			"0.019": 0.0,
			"0.02": 0.0,
			"0.021": 0.0,
			"0.022": 0.0,
			"0.023": 0.0,
			"0.024": 0.0,
			"0.025": 0.0
		}
	}
}
