{
	 "smiles": "OCC1CCCN1CC(O)=O", 
	 "Tm": 420.15, 
	 "num_atms": 24, 
	 "gaussian": { 
		 "optdone": 1, 
		 "sigma_profile": "yes", 
		 "theory": "DFT", 
		 "functional": "B3LYP", 
		 "basiset": "6-31G**", 
		 "properties": { 
			 "R2extent": 2683.2231, 
			 "electric_dipole_moment_norm": 3.39300207486, 
			 "electric_quadrupole_moment_norm": 10.3638369362, 
			 "total_energy": -555.002590884, 
			 "HOMO_LUMO_gap": 0.20473, 
			 "cosmo_polarized_energy": -12.01, 
			 "cosmo_cavitation_energy": 25.38, 
			 "cosmo_dispersion_energy": -18.7, 
			 "cosmo_repulsion_energy": 1.52, 
			 "cosmo_total_nonelectrostatic_energy": 8.19, 
			 "SMD_solvation_energy": 4.74 
		},
		"coords": [
			{
				"x": -0.4907957526,
				"y": -1.2160183234,
				"z": 1.6878510731,
				"element": "O" 
			},
			{
				"x": -0.5398813297,
				"y": 0.1606953595,
				"z": 1.9777485199,
				"element": "C" 
			},
			{
				"x": 0.0556115938,
				"y": 1.0308422637,
				"z": 0.8553613989,
				"element": "C" 
			},
			{
				"x": -0.6594653843,
				"y": 0.8515100417,
				"z": -0.4919179771,
				"element": "C" 
			},
			{
				"x": 0.4177620452,
				"y": 1.2017801735,
				"z": -1.528761288,
				"element": "C" 
			},
			{
				"x": 1.708779472,
				"y": 0.6503605571,
				"z": -0.8970219862,
				"element": "C" 
			},
			{
				"x": 1.4345320195,
				"y": 0.6452593907,
				"z": 0.5417002458,
				"element": "N" 
			},
			{
				"x": 2.4861965806,
				"y": 0.899238846,
				"z": 1.4731702786,
				"element": "C" 
			},
			{
				"x": 2.9509707819,
				"y": -0.3445693432,
				"z": 2.234005685,
				"element": "C" 
			},
			{
				"x": 4.090885406,
				"y": -0.1062583872,
				"z": 2.9173449921,
				"element": "O" 
			},
			{
				"x": 2.3866258537,
				"y": -1.4188063953,
				"z": 2.2637032234,
				"element": "O" 
			},
			{
				"x": 0.4539097942,
				"y": -1.4481762311,
				"z": 1.6538009895,
				"element": "H" 
			},
			{
				"x": -1.5941413511,
				"y": 0.4312482391,
				"z": 2.1141610398,
				"element": "H" 
			},
			{
				"x": -0.0293317633,
				"y": 0.3927521213,
				"z": 2.92909172,
				"element": "H" 
			},
			{
				"x": -0.0015519045,
				"y": 2.088941415,
				"z": 1.1836647931,
				"element": "H" 
			},
			{
				"x": -0.9591851409,
				"y": -0.1975611028,
				"z": -0.5821384713,
				"element": "H" 
			},
			{
				"x": -1.5543761633,
				"y": 1.4755901007,
				"z": -0.5699938922,
				"element": "H" 
			},
			{
				"x": 0.4930951382,
				"y": 2.2898059129,
				"z": -1.6404714255,
				"element": "H" 
			},
			{
				"x": 0.220115893,
				"y": 0.7795759644,
				"z": -2.5182293408,
				"element": "H" 
			},
			{
				"x": 1.9300845103,
				"y": -0.3630364421,
				"z": -1.2652758736,
				"element": "H" 
			},
			{
				"x": 2.5823765878,
				"y": 1.2756187535,
				"z": -1.1360034088,
				"element": "H" 
			},
			{
				"x": 2.1843677532,
				"y": 1.6321552102,
				"z": 2.2392267902,
				"element": "H" 
			},
			{
				"x": 3.3714805218,
				"y": 1.3308322352,
				"z": 0.9851636316,
				"element": "H" 
			},
			{
				"x": 4.3042348384,
				"y": -0.9244803596,
				"z": 3.3973192824,
				"element": "H" 
			}
		],
		 "valence_orbital": [ 
			{
				"type": "occ",
				"energy": -0.32958,
				"method": "rhf"
			},
			{
				"type": "occ",
				"energy": -0.30836,
				"method": "rhf"
			},
			{
				"type": "occ",
				"energy": -0.28476,
				"method": "rhf"
			},
			{
				"type": "occ",
				"energy": -0.24686,
				"method": "rhf"
			},
			{
				"type": "occ",
				"energy": -0.20576,
				"method": "rhf"
			},
			{
				"type": "unocc",
				"energy": -0.00103,
				"method": "rhf"
			},
			{
				"type": "unocc",
				"energy": 0.06874,
				"method": "rhf"
			},
			{
				"type": "unocc",
				"energy": 0.0804,
				"method": "rhf"
			},
			{
				"type": "unocc",
				"energy": 0.10162,
				"method": "rhf"
			},
			{
				"type": "unocc",
				"energy": 0.11465,
				"method": "rhf"
			}
		],
		"cosmo_sigma_profile": { 
			"-0.025": 0.0,
			"-0.024": 0.0,
			"-0.023": 0.0,
			"-0.022": 0.0,
			"-0.021": 0.0,
			"-0.02": 0.0,
			"-0.019": 0.101244784334,
			"-0.018": 0.952868480017,
			"-0.017": 0.871267455593,
			"-0.016": 0.97764444109,
			"-0.015": 0.73990904565,
			"-0.014": 0.58110602331,
			"-0.013": 0.508088111126,
			"-0.012": 0.535906162005,
			"-0.011": 0.77933488626,
			"-0.01": 1.15934286015,
			"-0.009": 0.359651164877,
			"-0.008": 0.580526938417,
			"-0.007": 2.16265550395,
			"-0.006": 6.98785974549,
			"-0.005": 7.9699981873,
			"-0.004": 9.99084880148,
			"-0.003": 19.1168900051,
			"-0.002": 28.0365709539,
			"-0.001": 29.4448548649,
			"0.0": 19.4531358185,
			"0.001": 13.0426158295,
			"0.002": 5.26503451467,
			"0.003": 4.62373606225,
			"0.004": 4.12993264738,
			"0.005": 5.46667850249,
			"0.006": 5.65894397991,
			"0.007": 5.2220705403,
			"0.008": 4.51817771569,
			"0.009": 4.75506466853,
			"0.01": 2.91631644827,
			"0.011": 3.22483301083,
			"0.012": 1.37595252941,
			"0.013": 1.13172678466,
			"0.014": 1.87174719508,
			"0.015": 1.92090949036,
			"0.016": 0.334791545222,
			"0.017": 0.0,
			"0.018": 0.0,
			"0.019": 0.0,
			"0.02": 0.0,
			"0.021": 0.0,
			"0.022": 0.0,
			"0.023": 0.0,
			"0.024": 0.0,
			"0.025": 0.0
		}
	}
}
