{
	 "smiles": "COC1=C(NC2=NCC(C)S2)C=CC=C1", 
	 "Tm": 367.65, 
	 "num_atms": 29, 
	 "gaussian": { 
		 "optdone": 1, 
		 "sigma_profile": "yes", 
		 "theory": "DFT", 
		 "functional": "B3LYP", 
		 "basiset": "6-31G**", 
		 "properties": { 
			 "R2extent": 4754.3045, 
			 "electric_dipole_moment_norm": 1.67476626429, 
			 "electric_quadrupole_moment_norm": 18.9154970529, 
			 "total_energy": -1010.51786878, 
			 "HOMO_LUMO_gap": 0.19466, 
			 "cosmo_polarized_energy": -9.64, 
			 "cosmo_cavitation_energy": 33.05, 
			 "cosmo_dispersion_energy": -24.89, 
			 "cosmo_repulsion_energy": 1.92, 
			 "cosmo_total_nonelectrostatic_energy": 10.08, 
			 "SMD_solvation_energy": 3.53 
		},
		"coords": [
			{
				"x": -1.1624263286,
				"y": -3.3188629497,
				"z": -0.8244758926,
				"element": "C" 
			},
			{
				"x": -0.7264729397,
				"y": -1.9800499952,
				"z": -0.6530546364,
				"element": "O" 
			},
			{
				"x": 0.0452966806,
				"y": -1.6794943803,
				"z": 0.4442030123,
				"element": "C" 
			},
			{
				"x": 0.4349357129,
				"y": -0.3202670363,
				"z": 0.5369670175,
				"element": "C" 
			},
			{
				"x": -0.0114597877,
				"y": 0.5183812448,
				"z": -0.4972382826,
				"element": "N" 
			},
			{
				"x": 0.2178780074,
				"y": 1.8530932642,
				"z": -0.6774361183,
				"element": "C" 
			},
			{
				"x": 0.8154288518,
				"y": 2.649639496,
				"z": 0.124678348,
				"element": "N" 
			},
			{
				"x": 0.9680808955,
				"y": 3.9775656542,
				"z": -0.4487686719,
				"element": "C" 
			},
			{
				"x": -0.1123709364,
				"y": 4.2313172247,
				"z": -1.5381013666,
				"element": "C" 
			},
			{
				"x": -1.4008148641,
				"y": 4.8389751667,
				"z": -0.9821592057,
				"element": "C" 
			},
			{
				"x": -0.3906380831,
				"y": 2.5462824247,
				"z": -2.2443139229,
				"element": "S" 
			},
			{
				"x": 1.2185467635,
				"y": 0.0914892237,
				"z": 1.6174445127,
				"element": "C" 
			},
			{
				"x": 1.6135816763,
				"y": -0.8360242303,
				"z": 2.5872502732,
				"element": "C" 
			},
			{
				"x": 1.2302524124,
				"y": -2.1690940644,
				"z": 2.4912584358,
				"element": "C" 
			},
			{
				"x": 0.4409160006,
				"y": -2.5941734153,
				"z": 1.4150732261,
				"element": "C" 
			},
			{
				"x": -1.7506026268,
				"y": -3.3314105459,
				"z": -1.7433508466,
				"element": "H" 
			},
			{
				"x": -1.7911995364,
				"y": -3.6463937765,
				"z": 0.0129392771,
				"element": "H" 
			},
			{
				"x": -0.3139069572,
				"y": -4.0067270602,
				"z": -0.9279123511,
				"element": "H" 
			},
			{
				"x": -0.5942229085,
				"y": 0.0547945342,
				"z": -1.1791982199,
				"element": "H" 
			},
			{
				"x": 0.8868125059,
				"y": 4.7370126155,
				"z": 0.3380551004,
				"element": "H" 
			},
			{
				"x": 1.9729091301,
				"y": 4.0697969873,
				"z": -0.8861542285,
				"element": "H" 
			},
			{
				"x": 0.2907219564,
				"y": 4.8548799346,
				"z": -2.3405676919,
				"element": "H" 
			},
			{
				"x": -2.171736739,
				"y": 4.9187893303,
				"z": -1.753330507,
				"element": "H" 
			},
			{
				"x": -1.794854282,
				"y": 4.2276271468,
				"z": -0.1648459552,
				"element": "H" 
			},
			{
				"x": -1.2016247192,
				"y": 5.8449384842,
				"z": -0.5929274073,
				"element": "H" 
			},
			{
				"x": 1.5016216587,
				"y": 1.1334287593,
				"z": 1.6816505869,
				"element": "H" 
			},
			{
				"x": 2.2232421894,
				"y": -0.5014171566,
				"z": 3.4210887723,
				"element": "H" 
			},
			{
				"x": 1.5354271591,
				"y": -2.8879963324,
				"z": 3.2454510076,
				"element": "H" 
			},
			{
				"x": 0.1423791083,
				"y": -3.6334005483,
				"z": 1.3425757343,
				"element": "H" 
			}
		],
		 "valence_orbital": [ 
			{
				"type": "occ",
				"energy": -0.28142,
				"method": "rhf"
			},
			{
				"type": "occ",
				"energy": -0.25253,
				"method": "rhf"
			},
			{
				"type": "occ",
				"energy": -0.23059,
				"method": "rhf"
			},
			{
				"type": "occ",
				"energy": -0.22476,
				"method": "rhf"
			},
			{
				"type": "occ",
				"energy": -0.1957,
				"method": "rhf"
			},
			{
				"type": "unocc",
				"energy": -0.00104,
				"method": "rhf"
			},
			{
				"type": "unocc",
				"energy": 0.0091,
				"method": "rhf"
			},
			{
				"type": "unocc",
				"energy": 0.01676,
				"method": "rhf"
			},
			{
				"type": "unocc",
				"energy": 0.05638,
				"method": "rhf"
			},
			{
				"type": "unocc",
				"energy": 0.08515,
				"method": "rhf"
			}
		],
		"cosmo_sigma_profile": { 
			"-0.025": 0.0,
			"-0.024": 0.0,
			"-0.023": 0.0,
			"-0.022": 0.0,
			"-0.021": 0.0,
			"-0.02": 0.0,
			"-0.019": 0.0,
			"-0.018": 0.0,
			"-0.017": 0.0,
			"-0.016": 0.0,
			"-0.015": 0.0,
			"-0.014": 0.0,
			"-0.013": 0.0,
			"-0.012": 0.0,
			"-0.011": 0.523419368586,
			"-0.01": 0.926869280814,
			"-0.009": 1.14764233166,
			"-0.008": 0.893867168183,
			"-0.007": 0.978926522421,
			"-0.006": 9.25355458544,
			"-0.005": 21.0887831944,
			"-0.004": 29.0211618234,
			"-0.003": 29.6322186345,
			"-0.002": 21.4746234532,
			"-0.001": 18.761251028,
			"0.0": 17.5345185968,
			"0.001": 14.9791554999,
			"0.002": 17.261710694,
			"0.003": 18.2194221207,
			"0.004": 17.310575205,
			"0.005": 16.0183643075,
			"0.006": 12.7315653095,
			"0.007": 6.74755611365,
			"0.008": 3.79070006525,
			"0.009": 2.57529222422,
			"0.01": 1.89880362091,
			"0.011": 0.753424019654,
			"0.012": 0.504933941355,
			"0.013": 0.0,
			"0.014": 0.0,
			"0.015": 0.0,
			"0.016": 0.0,
			"0.017": 0.0,
			"0.018": 0.0,
			"0.019": 0.0,
			"0.02": 0.0,
			"0.021": 0.0,
			"0.022": 0.0,
			"0.023": 0.0,
			"0.024": 0.0,
			"0.025": 0.0
		}
	}
}
