{
	 "smiles": "CC1CC(=O)CC2CCC3C4CCC(O)C4(C)CCC3C12C", 
	 "Tm": 477.15, 
	 "num_atms": 54, 
	 "gaussian": { 
		 "optdone": 1, 
		 "sigma_profile": "yes", 
		 "theory": "DFT", 
		 "functional": "B3LYP", 
		 "basiset": "6-31G**", 
		 "properties": { 
			 "R2extent": 7123.1127, 
			 "electric_dipole_moment_norm": 3.06109456404, 
			 "electric_quadrupole_moment_norm": 20.8232610145, 
			 "total_energy": -931.872219115, 
			 "HOMO_LUMO_gap": 0.22337, 
			 "cosmo_polarized_energy": -12.52, 
			 "cosmo_cavitation_energy": 44.02, 
			 "cosmo_dispersion_energy": -31.54, 
			 "cosmo_repulsion_energy": 2.31, 
			 "cosmo_total_nonelectrostatic_energy": 14.79, 
			 "SMD_solvation_energy": 6.78 
		},
		"coords": [
			{
				"x": -0.3062830442,
				"y": -0.7868031879,
				"z": -3.1470599869,
				"element": "C" 
			},
			{
				"x": -1.1194200549,
				"y": 0.3716070925,
				"z": -2.5428128574,
				"element": "C" 
			},
			{
				"x": -0.408618116,
				"y": 1.7173043435,
				"z": -2.8403675864,
				"element": "C" 
			},
			{
				"x": -1.1371622773,
				"y": 2.9133720338,
				"z": -2.2627535796,
				"element": "C" 
			},
			{
				"x": -1.3900850933,
				"y": 3.9096266704,
				"z": -2.9156644717,
				"element": "O" 
			},
			{
				"x": -1.5317430478,
				"y": 2.7652880262,
				"z": -0.8081376632,
				"element": "C" 
			},
			{
				"x": -2.3024848325,
				"y": 1.4483382735,
				"z": -0.5393638856,
				"element": "C" 
			},
			{
				"x": -2.6950578196,
				"y": 1.3541374511,
				"z": 0.9510771553,
				"element": "C" 
			},
			{
				"x": -1.536718521,
				"y": 0.9080980727,
				"z": 1.8554309994,
				"element": "C" 
			},
			{
				"x": -0.9971312105,
				"y": -0.4624107042,
				"z": 1.3948630229,
				"element": "C" 
			},
			{
				"x": 0.0293886424,
				"y": -1.190706979,
				"z": 2.3185630899,
				"element": "C" 
			},
			{
				"x": -0.2776317605,
				"y": -1.0469197686,
				"z": 3.8336317543,
				"element": "C" 
			},
			{
				"x": 0.6355743387,
				"y": 0.1013128975,
				"z": 4.3476056791,
				"element": "C" 
			},
			{
				"x": 1.5630567327,
				"y": 0.4808513984,
				"z": 3.1623594525,
				"element": "C" 
			},
			{
				"x": 2.9109896421,
				"y": 0.754502329,
				"z": 3.5336628083,
				"element": "O" 
			},
			{
				"x": 1.5121134165,
				"y": -0.7349619426,
				"z": 2.2043893121,
				"element": "C" 
			},
			{
				"x": 2.449308967,
				"y": -1.8426706305,
				"z": 2.7348375911,
				"element": "C" 
			},
			{
				"x": 1.9305853633,
				"y": -0.403918939,
				"z": 0.7601096591,
				"element": "C" 
			},
			{
				"x": 0.887329578,
				"y": 0.3640040359,
				"z": -0.0638585571,
				"element": "C" 
			},
			{
				"x": -0.4743155167,
				"y": -0.3683436656,
				"z": -0.0690074919,
				"element": "C" 
			},
			{
				"x": -1.5940311991,
				"y": 0.1467245496,
				"z": -1.0556867669,
				"element": "C" 
			},
			{
				"x": -2.6842924815,
				"y": -0.9602407187,
				"z": -1.1354796932,
				"element": "C" 
			},
			{
				"x": 0.6787730323,
				"y": -0.8888845421,
				"z": -2.6814251473,
				"element": "H" 
			},
			{
				"x": -0.1429559639,
				"y": -0.6087562605,
				"z": -4.2152601288,
				"element": "H" 
			},
			{
				"x": -0.8208328792,
				"y": -1.7468581723,
				"z": -3.0536461392,
				"element": "H" 
			},
			{
				"x": -2.0560851092,
				"y": 0.4217905971,
				"z": -3.117081654,
				"element": "H" 
			},
			{
				"x": 0.608543332,
				"y": 1.7213589818,
				"z": -2.4304436868,
				"element": "H" 
			},
			{
				"x": -0.3187577072,
				"y": 1.8611049811,
				"z": -3.9214523692,
				"element": "H" 
			},
			{
				"x": -2.1465767941,
				"y": 3.6265915796,
				"z": -0.5300564987,
				"element": "H" 
			},
			{
				"x": -0.6162353457,
				"y": 2.807799685,
				"z": -0.2053321846,
				"element": "H" 
			},
			{
				"x": -3.2356620826,
				"y": 1.5346884792,
				"z": -1.1149897213,
				"element": "H" 
			},
			{
				"x": -3.0790650463,
				"y": 2.3273302077,
				"z": 1.2809224655,
				"element": "H" 
			},
			{
				"x": -3.5260124626,
				"y": 0.6482634223,
				"z": 1.0693313821,
				"element": "H" 
			},
			{
				"x": -1.8968170217,
				"y": 0.8528666473,
				"z": 2.8879775899,
				"element": "H" 
			},
			{
				"x": -0.7508723061,
				"y": 1.6714602666,
				"z": 1.8508073269,
				"element": "H" 
			},
			{
				"x": -1.870483449,
				"y": -1.1272310272,
				"z": 1.4007827553,
				"element": "H" 
			},
			{
				"x": -0.0253508858,
				"y": -2.2473781684,
				"z": 2.0256002777,
				"element": "H" 
			},
			{
				"x": -1.338680763,
				"y": -0.8629593737,
				"z": 4.0263305379,
				"element": "H" 
			},
			{
				"x": -0.0333656778,
				"y": -1.9798890705,
				"z": 4.3497766309,
				"element": "H" 
			},
			{
				"x": 1.2588238486,
				"y": -0.2295490118,
				"z": 5.1845007282,
				"element": "H" 
			},
			{
				"x": 0.0588049064,
				"y": 0.9645103901,
				"z": 4.6965854224,
				"element": "H" 
			},
			{
				"x": 1.1527677112,
				"y": 1.3596789494,
				"z": 2.6448839167,
				"element": "H" 
			},
			{
				"x": 2.9175049237,
				"y": 1.569580895,
				"z": 4.0504020202,
				"element": "H" 
			},
			{
				"x": 2.3310573602,
				"y": -2.752660395,
				"z": 2.1363177038,
				"element": "H" 
			},
			{
				"x": 2.249069013,
				"y": -2.0988494251,
				"z": 3.7790290212,
				"element": "H" 
			},
			{
				"x": 3.4920547943,
				"y": -1.5220587354,
				"z": 2.6744869878,
				"element": "H" 
			},
			{
				"x": 2.1450056823,
				"y": -1.3477065925,
				"z": 0.2393479556,
				"element": "H" 
			},
			{
				"x": 2.8759913217,
				"y": 0.151977933,
				"z": 0.7853222815,
				"element": "H" 
			},
			{
				"x": 0.7875933944,
				"y": 1.383915529,
				"z": 0.3216997754,
				"element": "H" 
			},
			{
				"x": 1.2783264091,
				"y": 0.4628007881,
				"z": -1.0783489841,
				"element": "H" 
			},
			{
				"x": -0.2511028699,
				"y": -1.3966348169,
				"z": -0.3910891188,
				"element": "H" 
			},
			{
				"x": -3.4610280291,
				"y": -0.6826547209,
				"z": -1.8559113013,
				"element": "H" 
			},
			{
				"x": -3.1807623149,
				"y": -1.1351764942,
				"z": -0.1799018719,
				"element": "H" 
			},
			{
				"x": -2.2614407267,
				"y": -1.9170631639,
				"z": -1.4551039569,
				"element": "H" 
			}
		],
		 "valence_orbital": [ 
			{
				"type": "occ",
				"energy": -0.288,
				"method": "rhf"
			},
			{
				"type": "occ",
				"energy": -0.27831,
				"method": "rhf"
			},
			{
				"type": "occ",
				"energy": -0.27428,
				"method": "rhf"
			},
			{
				"type": "occ",
				"energy": -0.26065,
				"method": "rhf"
			},
			{
				"type": "occ",
				"energy": -0.23064,
				"method": "rhf"
			},
			{
				"type": "unocc",
				"energy": -0.00727,
				"method": "rhf"
			},
			{
				"type": "unocc",
				"energy": 0.06178,
				"method": "rhf"
			},
			{
				"type": "unocc",
				"energy": 0.06263,
				"method": "rhf"
			},
			{
				"type": "unocc",
				"energy": 0.08243,
				"method": "rhf"
			},
			{
				"type": "unocc",
				"energy": 0.08291,
				"method": "rhf"
			}
		],
		"cosmo_sigma_profile": { 
			"-0.025": 0.0,
			"-0.024": 0.0,
			"-0.023": 0.0,
			"-0.022": 0.0,
			"-0.021": 0.0,
			"-0.02": 0.0,
			"-0.019": 0.0,
			"-0.018": 0.0,
			"-0.017": 0.0,
			"-0.016": 0.0581717667917,
			"-0.015": 0.723072412178,
			"-0.014": 0.910057282173,
			"-0.013": 1.35824305118,
			"-0.012": 0.528992353727,
			"-0.011": 0.568272669472,
			"-0.01": 1.23815516889,
			"-0.009": 0.45404279252,
			"-0.008": 0.498044942755,
			"-0.007": 1.08811281843,
			"-0.006": 3.74676562717,
			"-0.005": 8.12078132032,
			"-0.004": 13.1401551714,
			"-0.003": 32.8438629199,
			"-0.002": 54.0166523931,
			"-0.001": 62.4131393086,
			"0.0": 48.9487068827,
			"0.001": 39.06912132,
			"0.002": 21.3990961966,
			"0.003": 5.48393796398,
			"0.004": 3.20928985935,
			"0.005": 2.26632032318,
			"0.006": 3.92479496421,
			"0.007": 3.79818287752,
			"0.008": 2.99922866268,
			"0.009": 2.60887817111,
			"0.01": 3.3916542239,
			"0.011": 4.26268855599,
			"0.012": 5.99803049796,
			"0.013": 5.34506991023,
			"0.014": 1.90811317164,
			"0.015": 0.00267909238393,
			"0.016": 0.0,
			"0.017": 0.0,
			"0.018": 0.0,
			"0.019": 0.0,
			"0.02": 0.0,
			"0.021": 0.0,
			"0.022": 0.0,
			"0.023": 0.0,
			"0.024": 0.0,
			"0.025": 0.0
		}
	}
}
