{
	 "smiles": "CN(C)C1=NC(=O)N(C2CCCCC2)C(=O)N1C", 
	 "Tm": 389.15, 
	 "num_atms": 38, 
	 "gaussian": { 
		 "optdone": 1, 
		 "sigma_profile": "yes", 
		 "theory": "DFT", 
		 "functional": "B3LYP", 
		 "basiset": "6-31G**", 
		 "properties": { 
			 "R2extent": 5875.4638, 
			 "electric_dipole_moment_norm": 5.29200984504, 
			 "electric_quadrupole_moment_norm": 31.4504845498, 
			 "total_energy": -838.841188005, 
			 "HOMO_LUMO_gap": 0.22113, 
			 "cosmo_polarized_energy": -16.63, 
			 "cosmo_cavitation_energy": 37.59, 
			 "cosmo_dispersion_energy": -27.07, 
			 "cosmo_repulsion_energy": 2.09, 
			 "cosmo_total_nonelectrostatic_energy": 12.61, 
			 "SMD_solvation_energy": 5.73 
		},
		"coords": [
			{
				"x": -1.5378974583,
				"y": -5.2174070993,
				"z": -0.1556398519,
				"element": "C" 
			},
			{
				"x": -1.3894752371,
				"y": -4.2220180663,
				"z": -1.2232854798,
				"element": "N" 
			},
			{
				"x": -2.3524121836,
				"y": -4.408939942,
				"z": -2.3101259478,
				"element": "C" 
			},
			{
				"x": -1.0809607452,
				"y": -2.9143991583,
				"z": -0.9011788466,
				"element": "C" 
			},
			{
				"x": -1.8016663547,
				"y": -1.9502163456,
				"z": -1.3907078153,
				"element": "N" 
			},
			{
				"x": -1.5003380425,
				"y": -0.6354955626,
				"z": -1.1016532531,
				"element": "C" 
			},
			{
				"x": -2.0563629348,
				"y": 0.3042592946,
				"z": -1.6409721891,
				"element": "O" 
			},
			{
				"x": -0.5388800339,
				"y": -0.4076044702,
				"z": -0.0655228216,
				"element": "N" 
			},
			{
				"x": -0.3434286871,
				"y": 0.9929299979,
				"z": 0.3992805967,
				"element": "C" 
			},
			{
				"x": -0.5191820706,
				"y": 1.1367315524,
				"z": 1.9201347344,
				"element": "C" 
			},
			{
				"x": -0.4102905485,
				"y": 2.6157404782,
				"z": 2.3283341911,
				"element": "C" 
			},
			{
				"x": 0.9120593455,
				"y": 3.2363445622,
				"z": 1.8519965323,
				"element": "C" 
			},
			{
				"x": 1.0881918162,
				"y": 3.0717411354,
				"z": 0.3346987717,
				"element": "C" 
			},
			{
				"x": 0.9835328843,
				"y": 1.5976463486,
				"z": -0.0908750224,
				"element": "C" 
			},
			{
				"x": 0.3006890504,
				"y": -1.4018695011,
				"z": 0.3913547704,
				"element": "C" 
			},
			{
				"x": 1.2441928068,
				"y": -1.2244626114,
				"z": 1.1486352938,
				"element": "O" 
			},
			{
				"x": 0.0314748298,
				"y": -2.6975222629,
				"z": -0.1017588457,
				"element": "N" 
			},
			{
				"x": 1.1041133754,
				"y": -3.681324259,
				"z": 0.097807877,
				"element": "C" 
			},
			{
				"x": -0.9546168658,
				"y": -4.9495369135,
				"z": 0.7227264457,
				"element": "H" 
			},
			{
				"x": -2.5907310209,
				"y": -5.2934489443,
				"z": 0.1507889088,
				"element": "H" 
			},
			{
				"x": -1.2088907062,
				"y": -6.1998809662,
				"z": -0.5086129767,
				"element": "H" 
			},
			{
				"x": -2.1141284624,
				"y": -3.7393028942,
				"z": -3.1349099827,
				"element": "H" 
			},
			{
				"x": -3.3817531023,
				"y": -4.2022478913,
				"z": -1.9900395766,
				"element": "H" 
			},
			{
				"x": -2.2828411035,
				"y": -5.4473726227,
				"z": -2.6472436549,
				"element": "H" 
			},
			{
				"x": -1.1565146985,
				"y": 1.5293601382,
				"z": -0.0943748059,
				"element": "H" 
			},
			{
				"x": 0.2489821645,
				"y": 0.5533276561,
				"z": 2.4361348584,
				"element": "H" 
			},
			{
				"x": -1.4949436832,
				"y": 0.7314562097,
				"z": 2.2142868354,
				"element": "H" 
			},
			{
				"x": -0.504642719,
				"y": 2.7055650207,
				"z": 3.4169433047,
				"element": "H" 
			},
			{
				"x": -1.2497915941,
				"y": 3.1778242321,
				"z": 1.8949728474,
				"element": "H" 
			},
			{
				"x": 1.7484585228,
				"y": 2.7455455828,
				"z": 2.3690676714,
				"element": "H" 
			},
			{
				"x": 0.9528102458,
				"y": 4.2975517374,
				"z": 2.1255414579,
				"element": "H" 
			},
			{
				"x": 2.0538458569,
				"y": 3.4809406281,
				"z": 0.015131717,
				"element": "H" 
			},
			{
				"x": 0.3152293807,
				"y": 3.6562419243,
				"z": -0.1841284444,
				"element": "H" 
			},
			{
				"x": 1.8190686904,
				"y": 1.0283771794,
				"z": 0.3283848258,
				"element": "H" 
			},
			{
				"x": 1.0360608702,
				"y": 1.5122229143,
				"z": -1.1825424027,
				"element": "H" 
			},
			{
				"x": 2.0602847197,
				"y": -3.164840263,
				"z": 0.0163629711,
				"element": "H" 
			},
			{
				"x": 1.0205251735,
				"y": -4.4471607828,
				"z": -0.6719863207,
				"element": "H" 
			},
			{
				"x": 1.0571285193,
				"y": -4.1400560356,
				"z": 1.0893736269,
				"element": "H" 
			}
		],
		 "valence_orbital": [ 
			{
				"type": "occ",
				"energy": -0.27892,
				"method": "rhf"
			},
			{
				"type": "occ",
				"energy": -0.27127,
				"method": "rhf"
			},
			{
				"type": "occ",
				"energy": -0.26084,
				"method": "rhf"
			},
			{
				"type": "occ",
				"energy": -0.25379,
				"method": "rhf"
			},
			{
				"type": "occ",
				"energy": -0.24425,
				"method": "rhf"
			},
			{
				"type": "unocc",
				"energy": -0.02312,
				"method": "rhf"
			},
			{
				"type": "unocc",
				"energy": 0.01413,
				"method": "rhf"
			},
			{
				"type": "unocc",
				"energy": 0.0722,
				"method": "rhf"
			},
			{
				"type": "unocc",
				"energy": 0.09238,
				"method": "rhf"
			},
			{
				"type": "unocc",
				"energy": 0.09672,
				"method": "rhf"
			}
		],
		"cosmo_sigma_profile": { 
			"-0.025": 0.0,
			"-0.024": 0.0,
			"-0.023": 0.0,
			"-0.022": 0.0,
			"-0.021": 0.0,
			"-0.02": 0.0,
			"-0.019": 0.0,
			"-0.018": 0.0,
			"-0.017": 0.0,
			"-0.016": 0.0,
			"-0.015": 0.0,
			"-0.014": 0.0,
			"-0.013": 0.0,
			"-0.012": 0.0,
			"-0.011": 0.0,
			"-0.01": 0.0,
			"-0.009": 0.0,
			"-0.008": 1.00360136632,
			"-0.007": 3.31485652293,
			"-0.006": 8.24915545166,
			"-0.005": 22.1818283378,
			"-0.004": 25.9113934705,
			"-0.003": 37.3135736631,
			"-0.002": 41.724593794,
			"-0.001": 35.8485250816,
			"0.0": 32.7030423634,
			"0.001": 23.2547973988,
			"0.002": 6.53818110412,
			"0.003": 5.47409487959,
			"0.004": 4.44450125144,
			"0.005": 4.56855151473,
			"0.006": 3.53916449619,
			"0.007": 3.54070572663,
			"0.008": 4.349775924,
			"0.009": 2.9594362909,
			"0.01": 3.51503388996,
			"0.011": 4.25450510157,
			"0.012": 6.23002174392,
			"0.013": 6.61328124066,
			"0.014": 2.79099287671,
			"0.015": 2.50440708355,
			"0.016": 0.499017340937,
			"0.017": 0.0,
			"0.018": 0.0,
			"0.019": 0.0,
			"0.02": 0.0,
			"0.021": 0.0,
			"0.022": 0.0,
			"0.023": 0.0,
			"0.024": 0.0,
			"0.025": 0.0
		}
	}
}
