{
	 "smiles": "CCCCCCCCC1=CC=C(C=C1)C1=CC=C(C=C1)C#N", 
	 "Tm": 294.15, 
	 "num_atms": 47, 
	 "gaussian": { 
		 "optdone": 1, 
		 "sigma_profile": "yes", 
		 "theory": "DFT", 
		 "functional": "B3LYP", 
		 "basiset": "6-31G**", 
		 "properties": { 
			 "R2extent": 12548.1238, 
			 "electric_dipole_moment_norm": 5.78113090494, 
			 "electric_quadrupole_moment_norm": 41.9739415304, 
			 "total_energy": -870.071548112, 
			 "HOMO_LUMO_gap": 0.17326, 
			 "cosmo_polarized_energy": -10.21, 
			 "cosmo_cavitation_energy": 49.17, 
			 "cosmo_dispersion_energy": -32.88, 
			 "cosmo_repulsion_energy": 2.53, 
			 "cosmo_total_nonelectrostatic_energy": 18.82, 
			 "SMD_solvation_energy": 8.42 
		},
		"coords": [
			{
				"x": -1.3784094453,
				"y": -1.7357744696,
				"z": -5.5612859346,
				"element": "C" 
			},
			{
				"x": -1.3754806815,
				"y": -1.0892931956,
				"z": -4.170954258,
				"element": "C" 
			},
			{
				"x": -0.4348028279,
				"y": -1.7640012774,
				"z": -3.1564959057,
				"element": "C" 
			},
			{
				"x": 1.063013924,
				"y": -1.7533215328,
				"z": -3.5171209458,
				"element": "C" 
			},
			{
				"x": 1.7030798255,
				"y": -0.3597977465,
				"z": -3.6700096703,
				"element": "C" 
			},
			{
				"x": 1.7619635292,
				"y": 0.5456251192,
				"z": -2.4193359096,
				"element": "C" 
			},
			{
				"x": 2.9482121762,
				"y": 0.3162614166,
				"z": -1.4612308481,
				"element": "C" 
			},
			{
				"x": 2.8555265552,
				"y": -0.8789370406,
				"z": -0.4844216893,
				"element": "C" 
			},
			{
				"x": 1.7379732864,
				"y": -0.772422792,
				"z": 0.5336567062,
				"element": "C" 
			},
			{
				"x": 1.741014015,
				"y": 0.2437674409,
				"z": 1.5017588754,
				"element": "C" 
			},
			{
				"x": 0.7228757484,
				"y": 0.3484011388,
				"z": 2.4442853678,
				"element": "C" 
			},
			{
				"x": -0.3473581812,
				"y": -0.5634981269,
				"z": 2.4589532762,
				"element": "C" 
			},
			{
				"x": -0.349689708,
				"y": -1.5835921643,
				"z": 1.4948686387,
				"element": "C" 
			},
			{
				"x": 0.674702643,
				"y": -1.6841025265,
				"z": 0.5544858323,
				"element": "C" 
			},
			{
				"x": -1.4339730513,
				"y": -0.4536758717,
				"z": 3.4617857167,
				"element": "C" 
			},
			{
				"x": -2.7661862193,
				"y": -0.7520242564,
				"z": 3.1211707847,
				"element": "C" 
			},
			{
				"x": -3.7893471769,
				"y": -0.6530070311,
				"z": 4.0560786407,
				"element": "C" 
			},
			{
				"x": -3.5035768317,
				"y": -0.2452504692,
				"z": 5.37009498,
				"element": "C" 
			},
			{
				"x": -2.1783187488,
				"y": 0.0577731464,
				"z": 5.7256291516,
				"element": "C" 
			},
			{
				"x": -1.1640157929,
				"y": -0.0482564606,
				"z": 4.7818502041,
				"element": "C" 
			},
			{
				"x": -4.5542148179,
				"y": -0.1392820902,
				"z": 6.3388194989,
				"element": "C" 
			},
			{
				"x": -5.4073802177,
				"y": -0.053191785,
				"z": 7.125473645,
				"element": "N" 
			},
			{
				"x": -2.115662541,
				"y": -1.2590150538,
				"z": -6.2156430155,
				"element": "H" 
			},
			{
				"x": -1.6285421818,
				"y": -2.801590129,
				"z": -5.500715677,
				"element": "H" 
			},
			{
				"x": -0.403781532,
				"y": -1.6538761626,
				"z": -6.0537168127,
				"element": "H" 
			},
			{
				"x": -1.1239857024,
				"y": -0.0250011446,
				"z": -4.2637633035,
				"element": "H" 
			},
			{
				"x": -2.3940357113,
				"y": -1.1175712695,
				"z": -3.763038954,
				"element": "H" 
			},
			{
				"x": -0.748643673,
				"y": -2.810285587,
				"z": -3.03345258,
				"element": "H" 
			},
			{
				"x": -0.578946889,
				"y": -1.2930032416,
				"z": -2.1761987047,
				"element": "H" 
			},
			{
				"x": 1.2082612026,
				"y": -2.2974844808,
				"z": -4.4591987175,
				"element": "H" 
			},
			{
				"x": 1.6056028022,
				"y": -2.334939785,
				"z": -2.7622005711,
				"element": "H" 
			},
			{
				"x": 2.723655174,
				"y": -0.4848223285,
				"z": -4.0574559968,
				"element": "H" 
			},
			{
				"x": 1.1602196703,
				"y": 0.1802443189,
				"z": -4.4559819728,
				"element": "H" 
			},
			{
				"x": 1.835681334,
				"y": 1.5821326285,
				"z": -2.7714541512,
				"element": "H" 
			},
			{
				"x": 0.8194377481,
				"y": 0.4944242612,
				"z": -1.8602804688,
				"element": "H" 
			},
			{
				"x": 3.086557113,
				"y": 1.2263003777,
				"z": -0.8634912154,
				"element": "H" 
			},
			{
				"x": 3.8671529762,
				"y": 0.2060048545,
				"z": -2.0526466022,
				"element": "H" 
			},
			{
				"x": 3.8128843763,
				"y": -0.9466395465,
				"z": 0.0496513654,
				"element": "H" 
			},
			{
				"x": 2.7528052342,
				"y": -1.8164085323,
				"z": -1.0394977162,
				"element": "H" 
			},
			{
				"x": 2.5525499737,
				"y": 0.9671855138,
				"z": 1.5172838025,
				"element": "H" 
			},
			{
				"x": 0.7440989383,
				"y": 1.1618252763,
				"z": 3.163720692,
				"element": "H" 
			},
			{
				"x": -1.1436348902,
				"y": -2.3247051079,
				"z": 1.4984566593,
				"element": "H" 
			},
			{
				"x": 0.653873541,
				"y": -2.4952850615,
				"z": -0.1682435777,
				"element": "H" 
			},
			{
				"x": -3.0047513073,
				"y": -1.0408581735,
				"z": 2.1025853281,
				"element": "H" 
			},
			{
				"x": -4.8128634018,
				"y": -0.8788441515,
				"z": 3.7758101903,
				"element": "H" 
			},
			{
				"x": -1.9528665586,
				"y": 0.3639792177,
				"z": 6.7417731011,
				"element": "H" 
			},
			{
				"x": -0.141073698,
				"y": 0.1616338816,
				"z": 5.0774427414,
				"element": "H" 
			}
		],
		 "valence_orbital": [ 
			{
				"type": "occ",
				"energy": -0.30489,
				"method": "rhf"
			},
			{
				"type": "occ",
				"energy": -0.27761,
				"method": "rhf"
			},
			{
				"type": "occ",
				"energy": -0.27362,
				"method": "rhf"
			},
			{
				"type": "occ",
				"energy": -0.26023,
				"method": "rhf"
			},
			{
				"type": "occ",
				"energy": -0.23299,
				"method": "rhf"
			},
			{
				"type": "unocc",
				"energy": -0.05973,
				"method": "rhf"
			},
			{
				"type": "unocc",
				"energy": -0.02339,
				"method": "rhf"
			},
			{
				"type": "unocc",
				"energy": -0.01296,
				"method": "rhf"
			},
			{
				"type": "unocc",
				"energy": 0.00032,
				"method": "rhf"
			},
			{
				"type": "unocc",
				"energy": 0.04022,
				"method": "rhf"
			}
		],
		"cosmo_sigma_profile": { 
			"-0.025": 0.0,
			"-0.024": 0.0,
			"-0.023": 0.0,
			"-0.022": 0.0,
			"-0.021": 0.0,
			"-0.02": 0.0,
			"-0.019": 0.0,
			"-0.018": 0.0,
			"-0.017": 0.0,
			"-0.016": 0.0,
			"-0.015": 0.0,
			"-0.014": 0.0,
			"-0.013": 0.0,
			"-0.012": 0.0,
			"-0.011": 0.0,
			"-0.01": 0.0,
			"-0.009": 0.0,
			"-0.008": 2.25235697519,
			"-0.007": 6.51076792551,
			"-0.006": 13.5701443521,
			"-0.005": 15.0447580559,
			"-0.004": 19.8891151927,
			"-0.003": 22.1404664856,
			"-0.002": 39.792262147,
			"-0.001": 54.0044178468,
			"0.0": 60.06389138,
			"0.001": 55.3868272267,
			"0.002": 37.4497969846,
			"0.003": 16.7959088984,
			"0.004": 10.1346671787,
			"0.005": 10.2236695766,
			"0.006": 4.2247501868,
			"0.007": 2.76295789049,
			"0.008": 3.32331873288,
			"0.009": 3.44932528562,
			"0.01": 3.23199762598,
			"0.011": 3.00733118398,
			"0.012": 2.38285918032,
			"0.013": 1.8316646068,
			"0.014": 0.159245739277,
			"0.015": 0.0,
			"0.016": 0.0,
			"0.017": 0.0,
			"0.018": 0.0,
			"0.019": 0.0,
			"0.02": 0.0,
			"0.021": 0.0,
			"0.022": 0.0,
			"0.023": 0.0,
			"0.024": 0.0,
			"0.025": 0.0
		}
	}
}
