{
	 "smiles": "OP(O)(=O)CN(CP(O)(O)=O)CP(O)(O)=O", 
	 "Tm": 363.45, 
	 "num_atms": 28, 
	 "gaussian": { 
		 "optdone": 1, 
		 "sigma_profile": "yes", 
		 "theory": "DFT", 
		 "functional": "B3LYP", 
		 "basiset": "6-31G**", 
		 "properties": { 
			 "R2extent": 5435.277, 
			 "electric_dipole_moment_norm": 3.72974054057, 
			 "electric_quadrupole_moment_norm": 26.5498621057, 
			 "total_energy": -1877.58938577, 
			 "HOMO_LUMO_gap": 0.26397, 
			 "cosmo_polarized_energy": -36.26, 
			 "cosmo_cavitation_energy": 33.97, 
			 "cosmo_dispersion_energy": -25.46, 
			 "cosmo_repulsion_energy": 1.91, 
			 "cosmo_total_nonelectrostatic_energy": 10.41, 
			 "SMD_solvation_energy": 11.47 
		},
		"coords": [
			{
				"x": -0.2646938298,
				"y": 3.4685649166,
				"z": -3.136048642,
				"element": "O" 
			},
			{
				"x": -0.2241488427,
				"y": 1.9287585704,
				"z": -2.6718485073,
				"element": "P" 
			},
			{
				"x": -1.6691680737,
				"y": 1.385887288,
				"z": -3.0711373928,
				"element": "O" 
			},
			{
				"x": 0.943023318,
				"y": 1.1810598749,
				"z": -3.2616700522,
				"element": "O" 
			},
			{
				"x": -0.1562701192,
				"y": 1.9974120728,
				"z": -0.8425539903,
				"element": "C" 
			},
			{
				"x": -0.1218608122,
				"y": 0.6257760242,
				"z": -0.343186873,
				"element": "N" 
			},
			{
				"x": 1.1621001472,
				"y": -0.0677293462,
				"z": -0.3315790822,
				"element": "C" 
			},
			{
				"x": 1.1391360783,
				"y": -1.6802833568,
				"z": -1.2370931885,
				"element": "P" 
			},
			{
				"x": 0.8903028697,
				"y": -1.3482586171,
				"z": -2.7658656723,
				"element": "O" 
			},
			{
				"x": -0.3402507459,
				"y": -2.3037827161,
				"z": -0.7837854673,
				"element": "O" 
			},
			{
				"x": 2.2370915317,
				"y": -2.6108087963,
				"z": -0.880299584,
				"element": "O" 
			},
			{
				"x": -1.0535004872,
				"y": 0.2866637489,
				"z": 0.7211176207,
				"element": "C" 
			},
			{
				"x": -2.7550049381,
				"y": 0.0978945051,
				"z": 0.0489019483,
				"element": "P" 
			},
			{
				"x": -2.5313919999,
				"y": -0.7109670789,
				"z": -1.3479820183,
				"element": "O" 
			},
			{
				"x": -3.3904655941,
				"y": -0.9686888602,
				"z": 1.0948642855,
				"element": "O" 
			},
			{
				"x": -3.5402394102,
				"y": 1.3374406358,
				"z": -0.1584938156,
				"element": "O" 
			},
			{
				"x": 0.2276024193,
				"y": 3.5999368035,
				"z": -3.9596324631,
				"element": "H" 
			},
			{
				"x": -1.976930915,
				"y": 0.5809856484,
				"z": -2.5968021019,
				"element": "H" 
			},
			{
				"x": 0.7104580916,
				"y": 2.5997981285,
				"z": -0.5314082114,
				"element": "H" 
			},
			{
				"x": -1.0625439538,
				"y": 2.4964131292,
				"z": -0.4866896564,
				"element": "H" 
			},
			{
				"x": 1.5231030968,
				"y": -0.2685029368,
				"z": 0.6866887097,
				"element": "H" 
			},
			{
				"x": 1.9201121561,
				"y": 0.546776067,
				"z": -0.8261084437,
				"element": "H" 
			},
			{
				"x": 0.9911208207,
				"y": -0.3821816519,
				"z": -3.0394018802,
				"element": "H" 
			},
			{
				"x": -0.2309503753,
				"y": -3.2365634785,
				"z": -0.546397973,
				"element": "H" 
			},
			{
				"x": -1.0824125606,
				"y": 1.0255459702,
				"z": 1.5369785426,
				"element": "H" 
			},
			{
				"x": -0.7691658618,
				"y": -0.6755936966,
				"z": 1.1512415259,
				"element": "H" 
			},
			{
				"x": -1.8523483825,
				"y": -1.4226077851,
				"z": -1.2668017803,
				"element": "H" 
			},
			{
				"x": -4.3517036273,
				"y": -0.858845063,
				"z": 1.1528941632,
				"element": "H" 
			}
		],
		 "valence_orbital": [ 
			{
				"type": "occ",
				"energy": -0.3078,
				"method": "rhf"
			},
			{
				"type": "occ",
				"energy": -0.30615,
				"method": "rhf"
			},
			{
				"type": "occ",
				"energy": -0.29537,
				"method": "rhf"
			},
			{
				"type": "occ",
				"energy": -0.28955,
				"method": "rhf"
			},
			{
				"type": "occ",
				"energy": -0.24249,
				"method": "rhf"
			},
			{
				"type": "unocc",
				"energy": 0.02148,
				"method": "rhf"
			},
			{
				"type": "unocc",
				"energy": 0.02829,
				"method": "rhf"
			},
			{
				"type": "unocc",
				"energy": 0.04187,
				"method": "rhf"
			},
			{
				"type": "unocc",
				"energy": 0.05621,
				"method": "rhf"
			},
			{
				"type": "unocc",
				"energy": 0.07032,
				"method": "rhf"
			}
		],
		"cosmo_sigma_profile": { 
			"-0.025": 0.0,
			"-0.024": 0.0,
			"-0.023": 0.0,
			"-0.022": 0.0,
			"-0.021": 0.0,
			"-0.02": 0.599125800638,
			"-0.019": 2.44003727096,
			"-0.018": 2.79187063147,
			"-0.017": 2.2756965904,
			"-0.016": 3.11023060151,
			"-0.015": 2.10101077825,
			"-0.014": 1.72225428544,
			"-0.013": 1.25956797621,
			"-0.012": 2.49459080253,
			"-0.011": 3.32969251398,
			"-0.01": 3.7800408625,
			"-0.009": 4.88109027121,
			"-0.008": 10.786285416,
			"-0.007": 17.5344637758,
			"-0.006": 17.2867291349,
			"-0.005": 17.0372555897,
			"-0.004": 15.2420313214,
			"-0.003": 9.00421439075,
			"-0.002": 7.34068413687,
			"-0.001": 7.92510632931,
			"0.0": 8.94809616905,
			"0.001": 8.83081541509,
			"0.002": 7.00114380418,
			"0.003": 7.05206174589,
			"0.004": 8.04891855204,
			"0.005": 7.51833679636,
			"0.006": 7.35880928121,
			"0.007": 8.06912228665,
			"0.008": 10.0121827412,
			"0.009": 9.83748879578,
			"0.01": 8.47207310032,
			"0.011": 5.47990532283,
			"0.012": 4.47268314525,
			"0.013": 5.24062005414,
			"0.014": 10.2396901613,
			"0.015": 8.1636107246,
			"0.016": 0.514552237346,
			"0.017": 0.0,
			"0.018": 0.0,
			"0.019": 0.0,
			"0.02": 0.0,
			"0.021": 0.0,
			"0.022": 0.0,
			"0.023": 0.0,
			"0.024": 0.0,
			"0.025": 0.0
		}
	}
}
