{
	 "smiles": "[O-][N+](=O)C1=CC(=C(C=CC2=CC=CC=C2)C=C1C=CC1=CC=CC=C1)[N+]([O-])=O", 
	 "Tm": 466.15, 
	 "num_atms": 44, 
	 "gaussian": { 
		 "optdone": 1, 
		 "sigma_profile": "yes", 
		 "theory": "DFT", 
		 "functional": "B3LYP", 
		 "basiset": "6-31G**", 
		 "properties": { 
			 "R2extent": 15618.6817, 
			 "electric_dipole_moment_norm": 7.59087548376, 
			 "electric_quadrupole_moment_norm": 14.9795357285, 
			 "total_energy": -1258.15809157, 
			 "HOMO_LUMO_gap": 0.12054, 
			 "cosmo_polarized_energy": -17.28, 
			 "cosmo_cavitation_energy": 50.96, 
			 "cosmo_dispersion_energy": -35.48, 
			 "cosmo_repulsion_energy": 2.63, 
			 "cosmo_total_nonelectrostatic_energy": 18.11, 
			 "SMD_solvation_energy": 12.45 
		},
		"coords": [
			{
				"x": -1.3329626407,
				"y": 2.556247296,
				"z": 2.9438744181,
				"element": "O" 
			},
			{
				"x": -1.6592417012,
				"y": 1.4139685247,
				"z": 3.2734164421,
				"element": "N" 
			},
			{
				"x": -2.2846964069,
				"y": 1.1430959535,
				"z": 4.2979630328,
				"element": "O" 
			},
			{
				"x": -1.301745046,
				"y": 0.2993771807,
				"z": 2.3818274542,
				"element": "C" 
			},
			{
				"x": -1.995868865,
				"y": -0.8841335659,
				"z": 2.5924713499,
				"element": "C" 
			},
			{
				"x": -1.786349824,
				"y": -1.9790845196,
				"z": 1.7654226591,
				"element": "C" 
			},
			{
				"x": -0.8360127949,
				"y": -1.9412605522,
				"z": 0.7116262225,
				"element": "C" 
			},
			{
				"x": -0.5107244228,
				"y": -3.0780381531,
				"z": -0.1535683675,
				"element": "C" 
			},
			{
				"x": -0.0322566757,
				"y": -2.9503974304,
				"z": -1.4101937636,
				"element": "C" 
			},
			{
				"x": 0.3464316531,
				"y": -4.0319484311,
				"z": -2.3208023635,
				"element": "C" 
			},
			{
				"x": 0.3032713062,
				"y": -5.3950811523,
				"z": -1.9653553029,
				"element": "C" 
			},
			{
				"x": 0.6777508385,
				"y": -6.3781985326,
				"z": -2.8747243043,
				"element": "C" 
			},
			{
				"x": 1.1060571532,
				"y": -6.0285499721,
				"z": -4.1598240975,
				"element": "C" 
			},
			{
				"x": 1.1556983735,
				"y": -4.6835555367,
				"z": -4.5283866578,
				"element": "C" 
			},
			{
				"x": 0.7794665443,
				"y": -3.6984160632,
				"z": -3.6180069324,
				"element": "C" 
			},
			{
				"x": -0.1229975633,
				"y": -0.7376851538,
				"z": 0.5785642139,
				"element": "C" 
			},
			{
				"x": -0.3343689835,
				"y": 0.4178637305,
				"z": 1.3497321528,
				"element": "C" 
			},
			{
				"x": 0.4857652905,
				"y": 1.608767647,
				"z": 1.11338681,
				"element": "C" 
			},
			{
				"x": 1.003198593,
				"y": 1.9347420285,
				"z": -0.0909193827,
				"element": "C" 
			},
			{
				"x": 1.8560793024,
				"y": 3.0835330806,
				"z": -0.3995306859,
				"element": "C" 
			},
			{
				"x": 2.2495077002,
				"y": 3.2897413906,
				"z": -1.7352618842,
				"element": "C" 
			},
			{
				"x": 3.0624536608,
				"y": 4.3640298578,
				"z": -2.0900360506,
				"element": "C" 
			},
			{
				"x": 3.5007749109,
				"y": 5.2587026722,
				"z": -1.1129162834,
				"element": "C" 
			},
			{
				"x": 3.1194580569,
				"y": 5.0689674344,
				"z": 0.2196658767,
				"element": "C" 
			},
			{
				"x": 2.3088595887,
				"y": 3.9961826867,
				"z": 0.5743155242,
				"element": "C" 
			},
			{
				"x": -2.6306242583,
				"y": -3.1529809115,
				"z": 2.0378761364,
				"element": "N" 
			},
			{
				"x": -3.2055692129,
				"y": -3.1986325508,
				"z": 3.1248869353,
				"element": "O" 
			},
			{
				"x": -2.733689108,
				"y": -4.0165169997,
				"z": 1.1640599579,
				"element": "O" 
			},
			{
				"x": -2.7203635802,
				"y": -0.9463131876,
				"z": 3.3920651563,
				"element": "H" 
			},
			{
				"x": -0.7061511756,
				"y": -4.0623797985,
				"z": 0.2492757497,
				"element": "H" 
			},
			{
				"x": 0.0664915266,
				"y": -1.9511246444,
				"z": -1.8317375228,
				"element": "H" 
			},
			{
				"x": -0.02602267,
				"y": -5.6880310219,
				"z": -0.9736541694,
				"element": "H" 
			},
			{
				"x": 0.6362148641,
				"y": -7.4233197013,
				"z": -2.5822391972,
				"element": "H" 
			},
			{
				"x": 1.3975380867,
				"y": -6.800232909,
				"z": -4.8661199918,
				"element": "H" 
			},
			{
				"x": 1.4861454941,
				"y": -4.4016828185,
				"z": -5.523805431,
				"element": "H" 
			},
			{
				"x": 0.817899177,
				"y": -2.6518048845,
				"z": -3.9098538678,
				"element": "H" 
			},
			{
				"x": 0.6943152942,
				"y": -0.719448844,
				"z": -0.130940013,
				"element": "H" 
			},
			{
				"x": 0.6410544254,
				"y": 2.2635710835,
				"z": 1.9598598819,
				"element": "H" 
			},
			{
				"x": 0.7538971153,
				"y": 1.3145778291,
				"z": -0.9507253654,
				"element": "H" 
			},
			{
				"x": 1.9087078783,
				"y": 2.5960956106,
				"z": -2.499957842,
				"element": "H" 
			},
			{
				"x": 3.3524790534,
				"y": 4.5027679959,
				"z": -3.1274098706,
				"element": "H" 
			},
			{
				"x": 4.134092739,
				"y": 6.0980150642,
				"z": -1.3845306386,
				"element": "H" 
			},
			{
				"x": 3.4570815195,
				"y": 5.7621017981,
				"z": 0.9846018028,
				"element": "H" 
			},
			{
				"x": 2.0251547835,
				"y": 3.8669684701,
				"z": 1.6138082094,
				"element": "H" 
			}
		],
		 "valence_orbital": [ 
			{
				"type": "occ",
				"energy": -0.28573,
				"method": "rhf"
			},
			{
				"type": "occ",
				"energy": -0.26506,
				"method": "rhf"
			},
			{
				"type": "occ",
				"energy": -0.26505,
				"method": "rhf"
			},
			{
				"type": "occ",
				"energy": -0.23373,
				"method": "rhf"
			},
			{
				"type": "occ",
				"energy": -0.23136,
				"method": "rhf"
			},
			{
				"type": "unocc",
				"energy": -0.11082,
				"method": "rhf"
			},
			{
				"type": "unocc",
				"energy": -0.09327,
				"method": "rhf"
			},
			{
				"type": "unocc",
				"energy": -0.06426,
				"method": "rhf"
			},
			{
				"type": "unocc",
				"energy": -0.0455,
				"method": "rhf"
			},
			{
				"type": "unocc",
				"energy": -0.01609,
				"method": "rhf"
			}
		],
		"cosmo_sigma_profile": { 
			"-0.025": 0.0,
			"-0.024": 0.0,
			"-0.023": 0.0,
			"-0.022": 0.0,
			"-0.021": 0.0,
			"-0.02": 0.0,
			"-0.019": 0.0,
			"-0.018": 0.0,
			"-0.017": 0.0,
			"-0.016": 0.0,
			"-0.015": 0.0,
			"-0.014": 0.0,
			"-0.013": 0.0,
			"-0.012": 0.0,
			"-0.011": 0.0,
			"-0.01": 0.0,
			"-0.009": 1.0418174077,
			"-0.008": 6.72539918469,
			"-0.007": 13.9080155113,
			"-0.006": 28.0049458535,
			"-0.005": 30.5280139174,
			"-0.004": 33.6998127004,
			"-0.003": 26.9591058707,
			"-0.002": 31.5249568087,
			"-0.001": 28.7760204108,
			"0.0": 27.0711169884,
			"0.001": 23.8781907653,
			"0.002": 26.6019390689,
			"0.003": 29.2479030707,
			"0.004": 28.4355430181,
			"0.005": 25.463122768,
			"0.006": 8.47575749895,
			"0.007": 15.4591617638,
			"0.008": 12.214118196,
			"0.009": 8.5132945197,
			"0.01": 4.2805113346,
			"0.011": 0.0653758442761,
			"0.012": 0.0,
			"0.013": 0.0,
			"0.014": 0.0,
			"0.015": 0.0,
			"0.016": 0.0,
			"0.017": 0.0,
			"0.018": 0.0,
			"0.019": 0.0,
			"0.02": 0.0,
			"0.021": 0.0,
			"0.022": 0.0,
			"0.023": 0.0,
			"0.024": 0.0,
			"0.025": 0.0
		}
	}
}
