{
	 "smiles": "CC(=O)NC1=CC=C(C=C1)C(O)=O", 
	 "Tm": 531.15, 
	 "num_atms": 22, 
	 "gaussian": { 
		 "optdone": 1, 
		 "sigma_profile": "yes", 
		 "theory": "DFT", 
		 "functional": "B3LYP", 
		 "basiset": "6-31G**", 
		 "properties": { 
			 "R2extent": 4317.6733, 
			 "electric_dipole_moment_norm": 2.70777588622, 
			 "electric_quadrupole_moment_norm": 30.8664159746, 
			 "total_energy": -628.829562486, 
			 "HOMO_LUMO_gap": 0.18445, 
			 "cosmo_polarized_energy": -21.52, 
			 "cosmo_cavitation_energy": 26.81, 
			 "cosmo_dispersion_energy": -19.67, 
			 "cosmo_repulsion_energy": 1.55, 
			 "cosmo_total_nonelectrostatic_energy": 8.69, 
			 "SMD_solvation_energy": 6.63 
		},
		"coords": [
			{
				"x": 3.0194846628,
				"y": -0.999464453,
				"z": 4.206830806,
				"element": "C" 
			},
			{
				"x": 1.9923984954,
				"y": 0.1009408963,
				"z": 4.3748933738,
				"element": "C" 
			},
			{
				"x": 1.8301150771,
				"y": 0.6802970858,
				"z": 5.4369080058,
				"element": "O" 
			},
			{
				"x": 1.2208627686,
				"y": 0.4892411997,
				"z": 3.2818360215,
				"element": "N" 
			},
			{
				"x": 1.1633060544,
				"y": 0.0671102626,
				"z": 1.9452968105,
				"element": "C" 
			},
			{
				"x": 1.3968679993,
				"y": -1.2583089037,
				"z": 1.5368224019,
				"element": "C" 
			},
			{
				"x": 1.3024843129,
				"y": -1.6028549132,
				"z": 0.1943699634,
				"element": "C" 
			},
			{
				"x": 0.9674029438,
				"y": -0.6527151114,
				"z": -0.7792265271,
				"element": "C" 
			},
			{
				"x": 0.6917261778,
				"y": 0.658442555,
				"z": -0.3639735449,
				"element": "C" 
			},
			{
				"x": 0.7916353124,
				"y": 1.0151594518,
				"z": 0.9746089924,
				"element": "C" 
			},
			{
				"x": 0.8736772768,
				"y": -1.1121117774,
				"z": -2.1995713093,
				"element": "C" 
			},
			{
				"x": 0.9027225598,
				"y": -0.149503719,
				"z": -3.1618549445,
				"element": "O" 
			},
			{
				"x": 0.7767506103,
				"y": -2.2750877159,
				"z": -2.5158206252,
				"element": "O" 
			},
			{
				"x": 3.5160034959,
				"y": -0.9736803829,
				"z": 3.2341426806,
				"element": "H" 
			},
			{
				"x": 3.7524443372,
				"y": -0.8786197456,
				"z": 5.0048070771,
				"element": "H" 
			},
			{
				"x": 2.5500416484,
				"y": -1.9817333226,
				"z": 4.3265273889,
				"element": "H" 
			},
			{
				"x": 0.6752558811,
				"y": 1.3118173773,
				"z": 3.5114468406,
				"element": "H" 
			},
			{
				"x": 1.6199123012,
				"y": -2.0256811324,
				"z": 2.2662128632,
				"element": "H" 
			},
			{
				"x": 1.4695340483,
				"y": -2.6262571019,
				"z": -0.1238968967,
				"element": "H" 
			},
			{
				"x": 0.3667232684,
				"y": 1.414413971,
				"z": -1.0748547568,
				"element": "H" 
			},
			{
				"x": 0.5837392339,
				"y": 2.0369322164,
				"z": 1.2798357891,
				"element": "H" 
			},
			{
				"x": 1.1554115343,
				"y": 0.7014632631,
				"z": -2.7787404102,
				"element": "H" 
			}
		],
		 "valence_orbital": [ 
			{
				"type": "occ",
				"energy": -0.31316,
				"method": "rhf"
			},
			{
				"type": "occ",
				"energy": -0.28279,
				"method": "rhf"
			},
			{
				"type": "occ",
				"energy": -0.27571,
				"method": "rhf"
			},
			{
				"type": "occ",
				"energy": -0.2688,
				"method": "rhf"
			},
			{
				"type": "occ",
				"energy": -0.24302,
				"method": "rhf"
			},
			{
				"type": "unocc",
				"energy": -0.05857,
				"method": "rhf"
			},
			{
				"type": "unocc",
				"energy": -0.03302,
				"method": "rhf"
			},
			{
				"type": "unocc",
				"energy": 0.00759,
				"method": "rhf"
			},
			{
				"type": "unocc",
				"energy": 0.04491,
				"method": "rhf"
			},
			{
				"type": "unocc",
				"energy": 0.05731,
				"method": "rhf"
			}
		],
		"cosmo_sigma_profile": { 
			"-0.025": 0.0,
			"-0.024": 0.0,
			"-0.023": 0.0,
			"-0.022": 0.0,
			"-0.021": 0.0,
			"-0.02": 0.0,
			"-0.019": 0.361512051097,
			"-0.018": 0.581020313959,
			"-0.017": 1.21662835512,
			"-0.016": 0.926808117502,
			"-0.015": 1.35171618396,
			"-0.014": 1.94051205056,
			"-0.013": 1.81804228731,
			"-0.012": 2.39736679173,
			"-0.011": 2.4572171936,
			"-0.01": 2.69234663156,
			"-0.009": 3.19665947319,
			"-0.008": 6.11741650099,
			"-0.007": 7.421437172,
			"-0.006": 11.1051719077,
			"-0.005": 12.360623536,
			"-0.004": 12.4275911612,
			"-0.003": 14.0312778773,
			"-0.002": 13.8598803017,
			"-0.001": 14.2309757989,
			"0.0": 10.7579375856,
			"0.001": 11.3619508874,
			"0.002": 13.5277021143,
			"0.003": 13.8325548774,
			"0.004": 4.2313540515,
			"0.005": 3.20516543022,
			"0.006": 3.79341133373,
			"0.007": 3.53556180648,
			"0.008": 3.87797844513,
			"0.009": 4.16848706347,
			"0.01": 5.86870613532,
			"0.011": 7.37088799574,
			"0.012": 8.60912480845,
			"0.013": 7.39471679955,
			"0.014": 1.71644369496,
			"0.015": 0.0903127472534,
			"0.016": 0.0,
			"0.017": 0.0,
			"0.018": 0.0,
			"0.019": 0.0,
			"0.02": 0.0,
			"0.021": 0.0,
			"0.022": 0.0,
			"0.023": 0.0,
			"0.024": 0.0,
			"0.025": 0.0
		}
	}
}
