{
	 "smiles": "CC1=C(C)C(NC(=O)C=NO)=CC=C1", 
	 "Tm": 384.15, 
	 "num_atms": 26, 
	 "gaussian": { 
		 "optdone": 1, 
		 "sigma_profile": "yes", 
		 "theory": "DFT", 
		 "functional": "B3LYP", 
		 "basiset": "6-31G**", 
		 "properties": { 
			 "R2extent": 3090.2096, 
			 "electric_dipole_moment_norm": 3.95765944215, 
			 "electric_quadrupole_moment_norm": 10.6325437953, 
			 "total_energy": -648.197694648, 
			 "HOMO_LUMO_gap": 0.18311, 
			 "cosmo_polarized_energy": -14.16, 
			 "cosmo_cavitation_energy": 30.37, 
			 "cosmo_dispersion_energy": -21.03, 
			 "cosmo_repulsion_energy": 1.7, 
			 "cosmo_total_nonelectrostatic_energy": 11.04, 
			 "SMD_solvation_energy": 6.97 
		},
		"coords": [
			{
				"x": 2.1408727746,
				"y": -0.1449253465,
				"z": -2.939990392,
				"element": "C" 
			},
			{
				"x": 0.8866834664,
				"y": 0.1361178461,
				"z": -2.1447275858,
				"element": "C" 
			},
			{
				"x": 0.3942915815,
				"y": -0.8101880868,
				"z": -1.2187805505,
				"element": "C" 
			},
			{
				"x": 1.1217425353,
				"y": -2.1144755137,
				"z": -0.993711875,
				"element": "C" 
			},
			{
				"x": -0.7878084386,
				"y": -0.5136385051,
				"z": -0.5155655448,
				"element": "C" 
			},
			{
				"x": -1.3447978652,
				"y": -1.4917247172,
				"z": 0.3653676344,
				"element": "N" 
			},
			{
				"x": -1.8191623561,
				"y": -1.3618219665,
				"z": 1.6497144061,
				"element": "C" 
			},
			{
				"x": -2.5585381265,
				"y": -2.2056023592,
				"z": 2.1456787352,
				"element": "O" 
			},
			{
				"x": -1.3797686819,
				"y": -0.2154129967,
				"z": 2.5020667065,
				"element": "C" 
			},
			{
				"x": -0.2720367188,
				"y": 0.3879748039,
				"z": 2.2974054094,
				"element": "N" 
			},
			{
				"x": -0.023867606,
				"y": 1.336585782,
				"z": 3.2831979045,
				"element": "O" 
			},
			{
				"x": -1.4628244101,
				"y": 0.6962535402,
				"z": -0.7171171385,
				"element": "C" 
			},
			{
				"x": -0.9534933223,
				"y": 1.6335023414,
				"z": -1.6072572628,
				"element": "C" 
			},
			{
				"x": 0.2107085092,
				"y": 1.3474809282,
				"z": -2.3204715222,
				"element": "C" 
			},
			{
				"x": 2.3469156905,
				"y": 0.665760479,
				"z": -3.6435662786,
				"element": "H" 
			},
			{
				"x": 2.0587302253,
				"y": -1.0745576822,
				"z": -3.5151156737,
				"element": "H" 
			},
			{
				"x": 3.019381446,
				"y": -0.2518651741,
				"z": -2.2917175647,
				"element": "H" 
			},
			{
				"x": 0.8153464943,
				"y": -2.5810700853,
				"z": -0.055889017,
				"element": "H" 
			},
			{
				"x": 2.2047390422,
				"y": -1.9640673427,
				"z": -0.9557312122,
				"element": "H" 
			},
			{
				"x": 0.9317224313,
				"y": -2.8319233648,
				"z": -1.8035809668,
				"element": "H" 
			},
			{
				"x": -1.6409235077,
				"y": -2.3698932253,
				"z": -0.0452538241,
				"element": "H" 
			},
			{
				"x": -2.0101313366,
				"y": -0.0084940942,
				"z": 3.367247222,
				"element": "H" 
			},
			{
				"x": 0.8261421863,
				"y": 1.7095483778,
				"z": 3.0107815457,
				"element": "H" 
			},
			{
				"x": -2.3853910456,
				"y": 0.8860803626,
				"z": -0.1782721048,
				"element": "H" 
			},
			{
				"x": -1.4727344396,
				"y": 2.5746673344,
				"z": -1.7622045517,
				"element": "H" 
			},
			{
				"x": 0.6000014722,
				"y": 2.0722886648,
				"z": -3.0307064983,
				"element": "H" 
			}
		],
		 "valence_orbital": [ 
			{
				"type": "occ",
				"energy": -0.28007,
				"method": "rhf"
			},
			{
				"type": "occ",
				"energy": -0.2741,
				"method": "rhf"
			},
			{
				"type": "occ",
				"energy": -0.25575,
				"method": "rhf"
			},
			{
				"type": "occ",
				"energy": -0.24021,
				"method": "rhf"
			},
			{
				"type": "occ",
				"energy": -0.23023,
				"method": "rhf"
			},
			{
				"type": "unocc",
				"energy": -0.04712,
				"method": "rhf"
			},
			{
				"type": "unocc",
				"energy": -0.00407,
				"method": "rhf"
			},
			{
				"type": "unocc",
				"energy": -0.00215,
				"method": "rhf"
			},
			{
				"type": "unocc",
				"energy": 0.06388,
				"method": "rhf"
			},
			{
				"type": "unocc",
				"energy": 0.07667,
				"method": "rhf"
			}
		],
		"cosmo_sigma_profile": { 
			"-0.025": 0.0,
			"-0.024": 0.0,
			"-0.023": 0.0,
			"-0.022": 0.0,
			"-0.021": 0.0,
			"-0.02": 0.0,
			"-0.019": 0.0474974549783,
			"-0.018": 0.92541893558,
			"-0.017": 1.32022687229,
			"-0.016": 0.791575728293,
			"-0.015": 0.860839726566,
			"-0.014": 1.42831444706,
			"-0.013": 1.42243261902,
			"-0.012": 1.34586577577,
			"-0.011": 1.22665105584,
			"-0.01": 2.28282899177,
			"-0.009": 1.77962816082,
			"-0.008": 2.81213279571,
			"-0.007": 3.40072024375,
			"-0.006": 6.54225399175,
			"-0.005": 11.9959049835,
			"-0.004": 19.6326703474,
			"-0.003": 21.9661358825,
			"-0.002": 19.6743948227,
			"-0.001": 20.6224612505,
			"0.0": 22.6964708118,
			"0.001": 15.9223721938,
			"0.002": 10.4014197556,
			"0.003": 11.0472546442,
			"0.004": 10.8240224442,
			"0.005": 9.93512011255,
			"0.006": 8.84431881687,
			"0.007": 5.28889753552,
			"0.008": 3.51193410653,
			"0.009": 5.43670410803,
			"0.01": 3.51169769295,
			"0.011": 2.62812244448,
			"0.012": 2.77640832311,
			"0.013": 5.63439461266,
			"0.014": 1.52793099098,
			"0.015": 0.0,
			"0.016": 0.0,
			"0.017": 0.0,
			"0.018": 0.0,
			"0.019": 0.0,
			"0.02": 0.0,
			"0.021": 0.0,
			"0.022": 0.0,
			"0.023": 0.0,
			"0.024": 0.0,
			"0.025": 0.0
		}
	}
}
