{
	 "smiles": "OC1=CC=C(CC2=CC=C(O)C=C2)C=C1", 
	 "Tm": 435.15, 
	 "num_atms": 27, 
	 "gaussian": { 
		 "optdone": 1, 
		 "sigma_profile": "yes", 
		 "theory": "DFT", 
		 "functional": "B3LYP", 
		 "basiset": "6-31G**", 
		 "properties": { 
			 "R2extent": 4548.6324, 
			 "electric_dipole_moment_norm": 1.28896051918, 
			 "electric_quadrupole_moment_norm": 13.9926694858, 
			 "total_energy": -653.061039839, 
			 "HOMO_LUMO_gap": 0.20367, 
			 "cosmo_polarized_energy": -14.29, 
			 "cosmo_cavitation_energy": 31.28, 
			 "cosmo_dispersion_energy": -22.46, 
			 "cosmo_repulsion_energy": 1.77, 
			 "cosmo_total_nonelectrostatic_energy": 10.58, 
			 "SMD_solvation_energy": 5.69 
		},
		"coords": [
			{
				"x": -5.0258473703,
				"y": 1.6539506237,
				"z": -1.3059825568,
				"element": "O" 
			},
			{
				"x": -3.7454722672,
				"y": 1.1776866594,
				"z": -1.2319637042,
				"element": "C" 
			},
			{
				"x": -2.6332195032,
				"y": 2.0157518739,
				"z": -1.0896212459,
				"element": "C" 
			},
			{
				"x": -1.3539081669,
				"y": 1.4688192254,
				"z": -1.0173173097,
				"element": "C" 
			},
			{
				"x": -1.148478014,
				"y": 0.0845168103,
				"z": -1.0878245792,
				"element": "C" 
			},
			{
				"x": 0.2524804993,
				"y": -0.5033236299,
				"z": -1.0364033576,
				"element": "C" 
			},
			{
				"x": 1.0751374766,
				"y": -0.0921374857,
				"z": 0.173977482,
				"element": "C" 
			},
			{
				"x": 2.3440978811,
				"y": 0.4827995717,
				"z": 0.0281073434,
				"element": "C" 
			},
			{
				"x": 3.1168789131,
				"y": 0.8416194671,
				"z": 1.1314406523,
				"element": "C" 
			},
			{
				"x": 2.6229046643,
				"y": 0.6271681707,
				"z": 2.4205995062,
				"element": "C" 
			},
			{
				"x": 3.4145199127,
				"y": 0.9952012761,
				"z": 3.4739522701,
				"element": "O" 
			},
			{
				"x": 1.3559962909,
				"y": 0.0559831427,
				"z": 2.5892091897,
				"element": "C" 
			},
			{
				"x": 0.5965480886,
				"y": -0.2950955778,
				"z": 1.4752269966,
				"element": "C" 
			},
			{
				"x": -2.2752876872,
				"y": -0.7357088009,
				"z": -1.2279208134,
				"element": "C" 
			},
			{
				"x": -3.5625936919,
				"y": -0.2057271901,
				"z": -1.300222177,
				"element": "C" 
			},
			{
				"x": -5.0064572861,
				"y": 2.6177659805,
				"z": -1.2467955172,
				"element": "H" 
			},
			{
				"x": -2.768928749,
				"y": 3.0943463541,
				"z": -1.033381489,
				"element": "H" 
			},
			{
				"x": -0.5002807395,
				"y": 2.1305356015,
				"z": -0.8962831223,
				"element": "H" 
			},
			{
				"x": 0.8028523716,
				"y": -0.2193729915,
				"z": -1.9428048892,
				"element": "H" 
			},
			{
				"x": 0.171127173,
				"y": -1.5975548749,
				"z": -1.0699545992,
				"element": "H" 
			},
			{
				"x": 2.7405235249,
				"y": 0.6525325004,
				"z": -0.9702608069,
				"element": "H" 
			},
			{
				"x": 4.0986883283,
				"y": 1.2879556726,
				"z": 1.0117383668,
				"element": "H" 
			},
			{
				"x": 2.9545759156,
				"y": 0.7921926534,
				"z": 4.2986108021,
				"element": "H" 
			},
			{
				"x": 0.9641631716,
				"y": -0.1115659477,
				"z": 3.5908769027,
				"element": "H" 
			},
			{
				"x": -0.3896693009,
				"y": -0.728011059,
				"z": 1.6207156923,
				"element": "H" 
			},
			{
				"x": -2.1456083705,
				"y": -1.8139814612,
				"z": -1.2845897186,
				"element": "H" 
			},
			{
				"x": -4.4316430648,
				"y": -0.8466465647,
				"z": -1.407329318,
				"element": "H" 
			}
		],
		 "valence_orbital": [ 
			{
				"type": "occ",
				"energy": -0.31682,
				"method": "rhf"
			},
			{
				"type": "occ",
				"energy": -0.24916,
				"method": "rhf"
			},
			{
				"type": "occ",
				"energy": -0.24741,
				"method": "rhf"
			},
			{
				"type": "occ",
				"energy": -0.2193,
				"method": "rhf"
			},
			{
				"type": "occ",
				"energy": -0.20713,
				"method": "rhf"
			},
			{
				"type": "unocc",
				"energy": -0.00346,
				"method": "rhf"
			},
			{
				"type": "unocc",
				"energy": 0.00246,
				"method": "rhf"
			},
			{
				"type": "unocc",
				"energy": 0.01243,
				"method": "rhf"
			},
			{
				"type": "unocc",
				"energy": 0.02155,
				"method": "rhf"
			},
			{
				"type": "unocc",
				"energy": 0.07275,
				"method": "rhf"
			}
		],
		"cosmo_sigma_profile": { 
			"-0.025": 0.0,
			"-0.024": 0.0,
			"-0.023": 0.0,
			"-0.022": 0.0,
			"-0.021": 0.0,
			"-0.02": 0.0,
			"-0.019": 0.0,
			"-0.018": 0.332638844335,
			"-0.017": 2.2232922842,
			"-0.016": 1.98510479942,
			"-0.015": 1.91937090956,
			"-0.014": 2.59936716148,
			"-0.013": 1.90217919089,
			"-0.012": 1.36961316764,
			"-0.011": 1.63003923978,
			"-0.01": 2.5917400154,
			"-0.009": 1.73402721831,
			"-0.008": 2.65269916785,
			"-0.007": 2.10208694856,
			"-0.006": 5.71502431785,
			"-0.005": 16.3182211813,
			"-0.004": 18.6919101782,
			"-0.003": 17.5473621473,
			"-0.002": 16.26403025,
			"-0.001": 16.3829728943,
			"0.0": 14.7414383405,
			"0.001": 11.900804681,
			"0.002": 13.5694701959,
			"0.003": 14.8200118339,
			"0.004": 19.7655509485,
			"0.005": 21.1450258509,
			"0.006": 18.9435333189,
			"0.007": 4.19356479348,
			"0.008": 2.86513169991,
			"0.009": 3.11702760522,
			"0.01": 3.43667383513,
			"0.011": 3.5617348521,
			"0.012": 2.43574555426,
			"0.013": 0.0,
			"0.014": 0.0,
			"0.015": 0.0,
			"0.016": 0.0,
			"0.017": 0.0,
			"0.018": 0.0,
			"0.019": 0.0,
			"0.02": 0.0,
			"0.021": 0.0,
			"0.022": 0.0,
			"0.023": 0.0,
			"0.024": 0.0,
			"0.025": 0.0
		}
	}
}
