{
	 "smiles": "CC(OC1=CC(CO)=CC=C1)C(O)=O", 
	 "Tm": 369.15, 
	 "num_atms": 26, 
	 "gaussian": { 
		 "optdone": 1, 
		 "sigma_profile": "yes", 
		 "theory": "DFT", 
		 "functional": "B3LYP", 
		 "basiset": "6-31G**", 
		 "properties": { 
			 "R2extent": 3368.0125, 
			 "electric_dipole_moment_norm": 4.98802179125, 
			 "electric_quadrupole_moment_norm": 13.2559714578, 
			 "total_energy": -689.186165212, 
			 "HOMO_LUMO_gap": 0.21835, 
			 "cosmo_polarized_energy": -16.22, 
			 "cosmo_cavitation_energy": 30.07, 
			 "cosmo_dispersion_energy": -21.12, 
			 "cosmo_repulsion_energy": 1.71, 
			 "cosmo_total_nonelectrostatic_energy": 10.66, 
			 "SMD_solvation_energy": 6.49 
		},
		"coords": [
			{
				"x": -0.3884146801,
				"y": -1.2737374316,
				"z": 3.973410429,
				"element": "C" 
			},
			{
				"x": -0.0201035564,
				"y": -0.5541818127,
				"z": 2.6769554888,
				"element": "C" 
			},
			{
				"x": -0.5514183538,
				"y": -1.3263096257,
				"z": 1.5910069324,
				"element": "O" 
			},
			{
				"x": -0.8839110072,
				"y": -0.6900470336,
				"z": 0.4074039713,
				"element": "C" 
			},
			{
				"x": -0.4485436818,
				"y": 0.589133485,
				"z": 0.0552506798,
				"element": "C" 
			},
			{
				"x": -0.8312280628,
				"y": 1.1366183356,
				"z": -1.1777240983,
				"element": "C" 
			},
			{
				"x": -0.3249792373,
				"y": 2.5127475628,
				"z": -1.572783868,
				"element": "C" 
			},
			{
				"x": -0.0888302083,
				"y": 3.3757638918,
				"z": -0.4714166212,
				"element": "O" 
			},
			{
				"x": -1.6419733471,
				"y": 0.399137425,
				"z": -2.0435552886,
				"element": "C" 
			},
			{
				"x": -2.0601651272,
				"y": -0.8853254957,
				"z": -1.6861811519,
				"element": "C" 
			},
			{
				"x": -1.6887022681,
				"y": -1.4342263335,
				"z": -0.4629441222,
				"element": "C" 
			},
			{
				"x": 1.5086104261,
				"y": -0.4213257256,
				"z": 2.5640787702,
				"element": "C" 
			},
			{
				"x": 2.0946958988,
				"y": -1.3176960609,
				"z": 1.7477990014,
				"element": "O" 
			},
			{
				"x": 2.1340746502,
				"y": 0.3894473003,
				"z": 3.2013031193,
				"element": "O" 
			},
			{
				"x": -1.4748773693,
				"y": -1.3238659598,
				"z": 4.0777717279,
				"element": "H" 
			},
			{
				"x": 0.0321688334,
				"y": -0.7316792939,
				"z": 4.8234336286,
				"element": "H" 
			},
			{
				"x": 0.0101018351,
				"y": -2.2924776356,
				"z": 3.9738799253,
				"element": "H" 
			},
			{
				"x": -0.4443929706,
				"y": 0.454037286,
				"z": 2.6738116655,
				"element": "H" 
			},
			{
				"x": 0.1891452468,
				"y": 1.1808996135,
				"z": 0.7022181656,
				"element": "H" 
			},
			{
				"x": -1.017509176,
				"y": 2.9620465064,
				"z": -2.3015670466,
				"element": "H" 
			},
			{
				"x": 0.645264503,
				"y": 2.4195449013,
				"z": -2.0752115104,
				"element": "H" 
			},
			{
				"x": -0.9290500728,
				"y": 3.4978987994,
				"z": -0.0093949582,
				"element": "H" 
			},
			{
				"x": -1.9474257222,
				"y": 0.826377316,
				"z": -2.9950641374,
				"element": "H" 
			},
			{
				"x": -2.6925599389,
				"y": -1.4573299825,
				"z": -2.3589464878,
				"element": "H" 
			},
			{
				"x": -2.0156808212,
				"y": -2.4231844111,
				"z": -0.1593604733,
				"element": "H" 
			},
			{
				"x": 1.3874042076,
				"y": -1.8454656208,
				"z": 1.3358262589,
				"element": "H" 
			}
		],
		 "valence_orbital": [ 
			{
				"type": "occ",
				"energy": -0.31411,
				"method": "rhf"
			},
			{
				"type": "occ",
				"energy": -0.28523,
				"method": "rhf"
			},
			{
				"type": "occ",
				"energy": -0.27071,
				"method": "rhf"
			},
			{
				"type": "occ",
				"energy": -0.25724,
				"method": "rhf"
			},
			{
				"type": "occ",
				"energy": -0.23645,
				"method": "rhf"
			},
			{
				"type": "unocc",
				"energy": -0.0181,
				"method": "rhf"
			},
			{
				"type": "unocc",
				"energy": -0.00517,
				"method": "rhf"
			},
			{
				"type": "unocc",
				"energy": 0.0066,
				"method": "rhf"
			},
			{
				"type": "unocc",
				"energy": 0.07495,
				"method": "rhf"
			},
			{
				"type": "unocc",
				"energy": 0.08008,
				"method": "rhf"
			}
		],
		"cosmo_sigma_profile": { 
			"-0.025": 0.0,
			"-0.024": 0.0,
			"-0.023": 0.0,
			"-0.022": 0.0,
			"-0.021": 0.0,
			"-0.02": 0.0,
			"-0.019": 0.0,
			"-0.018": 0.0,
			"-0.017": 0.0,
			"-0.016": 0.212381063324,
			"-0.015": 1.44033510179,
			"-0.014": 1.96482563522,
			"-0.013": 0.992276638372,
			"-0.012": 1.34967536929,
			"-0.011": 1.70653507554,
			"-0.01": 1.95230967403,
			"-0.009": 2.0467915187,
			"-0.008": 3.03141022817,
			"-0.007": 6.24234763975,
			"-0.006": 10.4871610689,
			"-0.005": 21.6546457245,
			"-0.004": 21.6476911045,
			"-0.003": 19.2126294035,
			"-0.002": 18.0698832149,
			"-0.001": 16.3386302163,
			"0.0": 11.8217196097,
			"0.001": 10.4031351057,
			"0.002": 11.0190990199,
			"0.003": 11.0570531257,
			"0.004": 11.332051299,
			"0.005": 11.7775325054,
			"0.006": 5.54665097584,
			"0.007": 5.16986879323,
			"0.008": 4.04649226404,
			"0.009": 4.67419074829,
			"0.01": 5.81092378425,
			"0.011": 5.98752041994,
			"0.012": 6.09666662847,
			"0.013": 2.68872793426,
			"0.014": 1.68058549139,
			"0.015": 0.0505596572681,
			"0.016": 0.0,
			"0.017": 0.0,
			"0.018": 0.0,
			"0.019": 0.0,
			"0.02": 0.0,
			"0.021": 0.0,
			"0.022": 0.0,
			"0.023": 0.0,
			"0.024": 0.0,
			"0.025": 0.0
		}
	}
}
