{
	 "smiles": "OC(=O)C1=CC(NC(=O)C2=CC(Br)=CC=C2)=CC=C1", 
	 "Tm": 547.15, 
	 "num_atms": 29, 
	 "gaussian": { 
		 "optdone": 1, 
		 "sigma_profile": "yes", 
		 "theory": "DFT", 
		 "functional": "B3LYP", 
		 "basiset": "6-31G**", 
		 "properties": { 
			 "R2extent": 13296.1217, 
			 "electric_dipole_moment_norm": 5.75733211566, 
			 "electric_quadrupole_moment_norm": 23.4898330337, 
			 "total_energy": -3391.38228934, 
			 "HOMO_LUMO_gap": 0.1742, 
			 "cosmo_polarized_energy": -20.76, 
			 "cosmo_cavitation_energy": 37.26, 
			 "cosmo_dispersion_energy": -27.45, 
			 "cosmo_repulsion_energy": 2.09, 
			 "cosmo_total_nonelectrostatic_energy": 11.9, 
			 "SMD_solvation_energy": 6.74 
		},
		"coords": [
			{
				"x": 4.9654018327,
				"y": 2.2777441851,
				"z": 1.7982598706,
				"element": "O" 
			},
			{
				"x": 3.8562585081,
				"y": 1.581952313,
				"z": 2.15950165,
				"element": "C" 
			},
			{
				"x": 3.7738217461,
				"y": 1.0145319365,
				"z": 3.2294734573,
				"element": "O" 
			},
			{
				"x": 2.7926229806,
				"y": 1.6031435526,
				"z": 1.1158628216,
				"element": "C" 
			},
			{
				"x": 1.6105371497,
				"y": 0.9064150997,
				"z": 1.3952217466,
				"element": "C" 
			},
			{
				"x": 0.579289649,
				"y": 0.8962230675,
				"z": 0.4477591931,
				"element": "C" 
			},
			{
				"x": -0.6505572532,
				"y": 0.2355582218,
				"z": 0.6427558515,
				"element": "N" 
			},
			{
				"x": -1.0358794558,
				"y": -0.5755248074,
				"z": 1.6903098097,
				"element": "C" 
			},
			{
				"x": -0.3085696799,
				"y": -0.8681983971,
				"z": 2.6302560663,
				"element": "O" 
			},
			{
				"x": -2.4418260241,
				"y": -1.1089876141,
				"z": 1.592322642,
				"element": "C" 
			},
			{
				"x": -2.7109578171,
				"y": -2.2898866889,
				"z": 2.2970330015,
				"element": "C" 
			},
			{
				"x": -3.9882825678,
				"y": -2.8363111775,
				"z": 2.2540023731,
				"element": "C" 
			},
			{
				"x": -4.3480988088,
				"y": -4.4573025513,
				"z": 3.1977423709,
				"element": "Br" 
			},
			{
				"x": -5.016707696,
				"y": -2.2231613796,
				"z": 1.5366921109,
				"element": "C" 
			},
			{
				"x": -4.7498584748,
				"y": -1.0349403405,
				"z": 0.8567062034,
				"element": "C" 
			},
			{
				"x": -3.4713579037,
				"y": -0.4772871842,
				"z": 0.8809789175,
				"element": "C" 
			},
			{
				"x": 0.7511377514,
				"y": 1.5856546993,
				"z": -0.7651562038,
				"element": "C" 
			},
			{
				"x": 1.9316770208,
				"y": 2.2729964988,
				"z": -1.0305913702,
				"element": "C" 
			},
			{
				"x": 2.9630044161,
				"y": 2.2885797112,
				"z": -0.0932735781,
				"element": "C" 
			},
			{
				"x": 5.5798437256,
				"y": 2.1942672223,
				"z": 2.5457144968,
				"element": "H" 
			},
			{
				"x": 1.5063008297,
				"y": 0.3789201778,
				"z": 2.3322424706,
				"element": "H" 
			},
			{
				"x": -1.2897295972,
				"y": 0.2888029725,
				"z": -0.1363988434,
				"element": "H" 
			},
			{
				"x": -1.9149264894,
				"y": -2.7532248095,
				"z": 2.8671062064,
				"element": "H" 
			},
			{
				"x": -6.0072497829,
				"y": -2.6630266677,
				"z": 1.5191318464,
				"element": "H" 
			},
			{
				"x": -5.5482269568,
				"y": -0.538308688,
				"z": 0.3137273669,
				"element": "H" 
			},
			{
				"x": -3.2995757544,
				"y": 0.4702280487,
				"z": 0.378467509,
				"element": "H" 
			},
			{
				"x": -0.0476649234,
				"y": 1.5809086039,
				"z": -1.5038784039,
				"element": "H" 
			},
			{
				"x": 2.0442167986,
				"y": 2.7982061191,
				"z": -1.97410642,
				"element": "H" 
			},
			{
				"x": 3.8858567768,
				"y": 2.8204278759,
				"z": -0.2900631628,
				"element": "H" 
			}
		],
		 "valence_orbital": [ 
			{
				"type": "occ",
				"energy": -0.27413,
				"method": "rhf"
			},
			{
				"type": "occ",
				"energy": -0.26547,
				"method": "rhf"
			},
			{
				"type": "occ",
				"energy": -0.26263,
				"method": "rhf"
			},
			{
				"type": "occ",
				"energy": -0.25521,
				"method": "rhf"
			},
			{
				"type": "occ",
				"energy": -0.23304,
				"method": "rhf"
			},
			{
				"type": "unocc",
				"energy": -0.05884,
				"method": "rhf"
			},
			{
				"type": "unocc",
				"energy": -0.04722,
				"method": "rhf"
			},
			{
				"type": "unocc",
				"energy": -0.02855,
				"method": "rhf"
			},
			{
				"type": "unocc",
				"energy": -0.0071,
				"method": "rhf"
			},
			{
				"type": "unocc",
				"energy": 0.00114,
				"method": "rhf"
			}
		],
		"cosmo_sigma_profile": { 
			"-0.025": 0.0,
			"-0.024": 0.0,
			"-0.023": 0.0,
			"-0.022": 0.0,
			"-0.021": 0.0,
			"-0.02": 0.0,
			"-0.019": 0.000123676759306,
			"-0.018": 0.704144353159,
			"-0.017": 0.980025432624,
			"-0.016": 1.13128328716,
			"-0.015": 2.83745618325,
			"-0.014": 1.81839011155,
			"-0.013": 1.64363268445,
			"-0.012": 1.96872501798,
			"-0.011": 2.92945473999,
			"-0.01": 2.08568257638,
			"-0.009": 2.23347418761,
			"-0.008": 4.69090320351,
			"-0.007": 10.0739181209,
			"-0.006": 14.863802471,
			"-0.005": 12.8776741505,
			"-0.004": 13.0926895307,
			"-0.003": 13.0423179053,
			"-0.002": 17.4983594619,
			"-0.001": 18.3240098158,
			"0.0": 20.6820083086,
			"0.001": 29.8509726002,
			"0.002": 37.5883560269,
			"0.003": 29.697774742,
			"0.004": 20.126123719,
			"0.005": 8.33323902274,
			"0.006": 4.55572815561,
			"0.007": 5.08927909106,
			"0.008": 4.32300580438,
			"0.009": 2.76743538204,
			"0.01": 3.16453825967,
			"0.011": 6.75985551296,
			"0.012": 6.40960999473,
			"0.013": 1.02883111346,
			"0.014": 0.0,
			"0.015": 0.0,
			"0.016": 0.0,
			"0.017": 0.0,
			"0.018": 0.0,
			"0.019": 0.0,
			"0.02": 0.0,
			"0.021": 0.0,
			"0.022": 0.0,
			"0.023": 0.0,
			"0.024": 0.0,
			"0.025": 0.0
		}
	}
}
