{
	 "smiles": "OC(=O)C=CC1=CC2=C(OCC2)C=C1", 
	 "Tm": 449.15, 
	 "num_atms": 24, 
	 "gaussian": { 
		 "optdone": 1, 
		 "sigma_profile": "yes", 
		 "theory": "DFT", 
		 "functional": "B3LYP", 
		 "basiset": "6-31G**", 
		 "properties": { 
			 "R2extent": 5197.7239, 
			 "electric_dipole_moment_norm": 5.60016499221, 
			 "electric_quadrupole_moment_norm": 41.98550769, 
			 "total_energy": -650.857798051, 
			 "HOMO_LUMO_gap": 0.15438, 
			 "cosmo_polarized_energy": -18.03, 
			 "cosmo_cavitation_energy": 28.64, 
			 "cosmo_dispersion_energy": -21.31, 
			 "cosmo_repulsion_energy": 1.68, 
			 "cosmo_total_nonelectrostatic_energy": 9.0, 
			 "SMD_solvation_energy": 6.18 
		},
		"coords": [
			{
				"x": -4.6891207645,
				"y": -1.2489030661,
				"z": 4.7505277083,
				"element": "O" 
			},
			{
				"x": -3.4831640833,
				"y": -0.6758889411,
				"z": 4.4639543739,
				"element": "C" 
			},
			{
				"x": -2.8223039209,
				"y": -0.2000949479,
				"z": 5.3611703581,
				"element": "O" 
			},
			{
				"x": -3.0875185045,
				"y": -0.6925904825,
				"z": 3.0364060148,
				"element": "C" 
			},
			{
				"x": -1.9111546512,
				"y": -0.1483192187,
				"z": 2.6651781693,
				"element": "C" 
			},
			{
				"x": -1.3282380078,
				"y": -0.0546214956,
				"z": 1.3331838266,
				"element": "C" 
			},
			{
				"x": -0.0681759413,
				"y": 0.5723357574,
				"z": 1.1951869858,
				"element": "C" 
			},
			{
				"x": 0.5234236609,
				"y": 0.6747908778,
				"z": -0.0516775493,
				"element": "C" 
			},
			{
				"x": -0.1320123498,
				"y": 0.1603244952,
				"z": -1.1749598503,
				"element": "C" 
			},
			{
				"x": 0.5563792512,
				"y": 0.3313726443,
				"z": -2.3325563134,
				"element": "O" 
			},
			{
				"x": 1.874206426,
				"y": 0.8454332049,
				"z": -1.9929201057,
				"element": "C" 
			},
			{
				"x": 1.8108994721,
				"y": 1.3173853193,
				"z": -0.5185164217,
				"element": "C" 
			},
			{
				"x": -1.3785236466,
				"y": -0.4593957341,
				"z": -1.0849523867,
				"element": "C" 
			},
			{
				"x": -1.960241334,
				"y": -0.5575249986,
				"z": 0.1754186416,
				"element": "C" 
			},
			{
				"x": -5.0999224121,
				"y": -1.5831203275,
				"z": 3.9414467042,
				"element": "H" 
			},
			{
				"x": -3.7604890711,
				"y": -1.1474655944,
				"z": 2.3122883687,
				"element": "H" 
			},
			{
				"x": -1.3213724836,
				"y": 0.2778476479,
				"z": 3.4760476205,
				"element": "H" 
			},
			{
				"x": 0.4262068128,
				"y": 0.9702336782,
				"z": 2.0778507515,
				"element": "H" 
			},
			{
				"x": 2.5925705073,
				"y": 0.0291608837,
				"z": -2.1280733171,
				"element": "H" 
			},
			{
				"x": 2.1078187836,
				"y": 1.6422617435,
				"z": -2.701857301,
				"element": "H" 
			},
			{
				"x": 2.6887000669,
				"y": 0.9934829406,
				"z": 0.0487082105,
				"element": "H" 
			},
			{
				"x": 1.7579647209,
				"y": 2.4103461733,
				"z": -0.4448577764,
				"element": "H" 
			},
			{
				"x": -1.8666599391,
				"y": -0.8513771295,
				"z": -1.9703353895,
				"element": "H" 
			},
			{
				"x": -2.9279725917,
				"y": -1.0414734299,
				"z": 0.2630386773,
				"element": "H" 
			}
		],
		 "valence_orbital": [ 
			{
				"type": "occ",
				"energy": -0.30484,
				"method": "rhf"
			},
			{
				"type": "occ",
				"energy": -0.28066,
				"method": "rhf"
			},
			{
				"type": "occ",
				"energy": -0.26319,
				"method": "rhf"
			},
			{
				"type": "occ",
				"energy": -0.261,
				"method": "rhf"
			},
			{
				"type": "occ",
				"energy": -0.21534,
				"method": "rhf"
			},
			{
				"type": "unocc",
				"energy": -0.06096,
				"method": "rhf"
			},
			{
				"type": "unocc",
				"energy": -0.01804,
				"method": "rhf"
			},
			{
				"type": "unocc",
				"energy": 0.02974,
				"method": "rhf"
			},
			{
				"type": "unocc",
				"energy": 0.06404,
				"method": "rhf"
			},
			{
				"type": "unocc",
				"energy": 0.08257,
				"method": "rhf"
			}
		],
		"cosmo_sigma_profile": { 
			"-0.025": 0.0,
			"-0.024": 0.0,
			"-0.023": 0.0,
			"-0.022": 0.0,
			"-0.021": 0.0,
			"-0.02": 0.0,
			"-0.019": 0.156502867343,
			"-0.018": 1.18819728243,
			"-0.017": 1.20642243266,
			"-0.016": 1.18964272299,
			"-0.015": 1.23919326775,
			"-0.014": 0.849341671129,
			"-0.013": 0.848429773415,
			"-0.012": 0.659740273617,
			"-0.011": 1.69226153039,
			"-0.01": 1.20977814002,
			"-0.009": 1.49748661538,
			"-0.008": 2.49316206074,
			"-0.007": 5.64166102357,
			"-0.006": 13.7278447365,
			"-0.005": 20.9665933507,
			"-0.004": 18.9881724473,
			"-0.003": 15.9787603604,
			"-0.002": 13.6061344868,
			"-0.001": 10.5085561801,
			"0.0": 11.0809331022,
			"0.001": 10.8342040888,
			"0.002": 16.5632208127,
			"0.003": 17.4751041383,
			"0.004": 16.4226104262,
			"0.005": 5.11538282318,
			"0.006": 3.19126211656,
			"0.007": 3.82564702161,
			"0.008": 3.40136170938,
			"0.009": 4.35521493459,
			"0.01": 4.79208834499,
			"0.011": 6.45206075886,
			"0.012": 5.04027219333,
			"0.013": 4.69932870255,
			"0.014": 1.4599636773,
			"0.015": 0.0321392902661,
			"0.016": 0.0,
			"0.017": 0.0,
			"0.018": 0.0,
			"0.019": 0.0,
			"0.02": 0.0,
			"0.021": 0.0,
			"0.022": 0.0,
			"0.023": 0.0,
			"0.024": 0.0,
			"0.025": 0.0
		}
	}
}
