{
	 "smiles": "O=CC1=CSC(=N1)C1=CC=CS1", 
	 "Tm": 354.15, 
	 "num_atms": 17, 
	 "gaussian": { 
		 "optdone": 1, 
		 "sigma_profile": "yes", 
		 "theory": "DFT", 
		 "functional": "B3LYP", 
		 "basiset": "6-31G**", 
		 "properties": { 
			 "R2extent": 3243.4355, 
			 "electric_dipole_moment_norm": 4.26309907696, 
			 "electric_quadrupole_moment_norm": 11.00719718, 
			 "total_energy": -1234.18218825, 
			 "HOMO_LUMO_gap": 0.15196, 
			 "cosmo_polarized_energy": -9.64, 
			 "cosmo_cavitation_energy": 25.75, 
			 "cosmo_dispersion_energy": -19.9, 
			 "cosmo_repulsion_energy": 1.48, 
			 "cosmo_total_nonelectrostatic_energy": 7.32, 
			 "SMD_solvation_energy": 4.04 
		},
		"coords": [
			{
				"x": -0.4418322157,
				"y": -1.8339839828,
				"z": 4.8543648718,
				"element": "O" 
			},
			{
				"x": -0.8392326407,
				"y": -1.2783402119,
				"z": 3.8478809925,
				"element": "C" 
			},
			{
				"x": -0.1187852368,
				"y": -1.2965596742,
				"z": 2.5581813894,
				"element": "C" 
			},
			{
				"x": 1.0766386671,
				"y": -1.9393204485,
				"z": 2.34731961,
				"element": "C" 
			},
			{
				"x": 1.5853347485,
				"y": -1.7238202954,
				"z": 0.7171027991,
				"element": "S" 
			},
			{
				"x": 0.1201919799,
				"y": -0.7593891632,
				"z": 0.4198593608,
				"element": "C" 
			},
			{
				"x": -0.6452731117,
				"y": -0.6386037696,
				"z": 1.4706350661,
				"element": "N" 
			},
			{
				"x": -0.1654733322,
				"y": -0.1786960676,
				"z": -0.8746624918,
				"element": "C" 
			},
			{
				"x": 0.5638157011,
				"y": -0.2407297803,
				"z": -2.0434490683,
				"element": "C" 
			},
			{
				"x": -0.0456599643,
				"y": 0.4624650132,
				"z": -3.1179504272,
				"element": "C" 
			},
			{
				"x": -1.2295517918,
				"y": 1.0505583247,
				"z": -2.7556204379,
				"element": "C" 
			},
			{
				"x": -1.6253035667,
				"y": 0.758883053,
				"z": -1.0970053313,
				"element": "S" 
			},
			{
				"x": -1.7889600089,
				"y": -0.7062861867,
				"z": 3.8220582224,
				"element": "H" 
			},
			{
				"x": 1.6489336518,
				"y": -2.5074124107,
				"z": 3.0664212876,
				"element": "H" 
			},
			{
				"x": 1.5052321878,
				"y": -0.7723634841,
				"z": -2.130094367,
				"element": "H" 
			},
			{
				"x": 0.3768698399,
				"y": 0.5276975555,
				"z": -4.1136779153,
				"element": "H" 
			},
			{
				"x": -1.8953449074,
				"y": 1.6411015285,
				"z": -3.3700635609,
				"element": "H" 
			}
		],
		 "valence_orbital": [ 
			{
				"type": "occ",
				"energy": -0.29463,
				"method": "rhf"
			},
			{
				"type": "occ",
				"energy": -0.28817,
				"method": "rhf"
			},
			{
				"type": "occ",
				"energy": -0.26605,
				"method": "rhf"
			},
			{
				"type": "occ",
				"energy": -0.2588,
				"method": "rhf"
			},
			{
				"type": "occ",
				"energy": -0.22738,
				"method": "rhf"
			},
			{
				"type": "unocc",
				"energy": -0.07542,
				"method": "rhf"
			},
			{
				"type": "unocc",
				"energy": -0.05551,
				"method": "rhf"
			},
			{
				"type": "unocc",
				"energy": -0.00108,
				"method": "rhf"
			},
			{
				"type": "unocc",
				"energy": 0.01597,
				"method": "rhf"
			},
			{
				"type": "unocc",
				"energy": 0.02143,
				"method": "rhf"
			}
		],
		"cosmo_sigma_profile": { 
			"-0.025": 0.0,
			"-0.024": 0.0,
			"-0.023": 0.0,
			"-0.022": 0.0,
			"-0.021": 0.0,
			"-0.02": 0.0,
			"-0.019": 0.0,
			"-0.018": 0.0,
			"-0.017": 0.0,
			"-0.016": 0.0,
			"-0.015": 0.0,
			"-0.014": 0.0,
			"-0.013": 0.0,
			"-0.012": 0.0,
			"-0.011": 0.304926376045,
			"-0.01": 1.69204183553,
			"-0.009": 3.46250980898,
			"-0.008": 6.06641299693,
			"-0.007": 8.99928122461,
			"-0.006": 10.5639612868,
			"-0.005": 9.69516276905,
			"-0.004": 11.876143457,
			"-0.003": 12.0098730886,
			"-0.002": 12.5620849602,
			"-0.001": 17.3824930013,
			"0.0": 22.4141574658,
			"0.001": 18.548602078,
			"0.002": 18.018632699,
			"0.003": 20.1244284121,
			"0.004": 10.8854470129,
			"0.005": 3.97093633981,
			"0.006": 3.63774591312,
			"0.007": 3.05073732239,
			"0.008": 2.46568848293,
			"0.009": 3.69796824845,
			"0.01": 4.02355045657,
			"0.011": 4.86748098429,
			"0.012": 2.17845098452,
			"0.013": 0.343598888949,
			"0.014": 0.0,
			"0.015": 0.0,
			"0.016": 0.0,
			"0.017": 0.0,
			"0.018": 0.0,
			"0.019": 0.0,
			"0.02": 0.0,
			"0.021": 0.0,
			"0.022": 0.0,
			"0.023": 0.0,
			"0.024": 0.0,
			"0.025": 0.0
		}
	}
}
