{
	 "smiles": "OC(=O)C1CC1C1=C(Cl)C=CC=C1Cl", 
	 "Tm": 418.15, 
	 "num_atms": 22, 
	 "gaussian": { 
		 "optdone": 1, 
		 "sigma_profile": "yes", 
		 "theory": "DFT", 
		 "functional": "B3LYP", 
		 "basiset": "6-31G**", 
		 "properties": { 
			 "R2extent": 3416.9994, 
			 "electric_dipole_moment_norm": 2.55984021767, 
			 "electric_quadrupole_moment_norm": 13.2964294049, 
			 "total_energy": -1456.70005875, 
			 "HOMO_LUMO_gap": 0.22181, 
			 "cosmo_polarized_energy": -11.39, 
			 "cosmo_cavitation_energy": 29.02, 
			 "cosmo_dispersion_energy": -20.79, 
			 "cosmo_repulsion_energy": 1.65, 
			 "cosmo_total_nonelectrostatic_energy": 9.87, 
			 "SMD_solvation_energy": 5.19 
		},
		"coords": [
			{
				"x": -1.9310808024,
				"y": -1.6449554334,
				"z": -1.1848647585,
				"element": "O" 
			},
			{
				"x": -2.8708391514,
				"y": -1.6114709326,
				"z": -0.2044815916,
				"element": "C" 
			},
			{
				"x": -3.5532081284,
				"y": -2.5747308884,
				"z": 0.0718195035,
				"element": "O" 
			},
			{
				"x": -2.9902839624,
				"y": -0.2841973528,
				"z": 0.455309229,
				"element": "C" 
			},
			{
				"x": -2.7726039334,
				"y": 0.9838794234,
				"z": -0.3458140085,
				"element": "C" 
			},
			{
				"x": -1.8003770438,
				"y": 0.6437005428,
				"z": 0.7394087833,
				"element": "C" 
			},
			{
				"x": -0.3678259929,
				"y": 0.2735910608,
				"z": 0.5036188689,
				"element": "C" 
			},
			{
				"x": 0.2381878794,
				"y": -0.7844552912,
				"z": 1.2101892474,
				"element": "C" 
			},
			{
				"x": -0.6946646605,
				"y": -1.692675418,
				"z": 2.3928018367,
				"element": "Cl" 
			},
			{
				"x": 1.5713555614,
				"y": -1.1486445537,
				"z": 1.0370483305,
				"element": "C" 
			},
			{
				"x": 2.3616704177,
				"y": -0.4312288079,
				"z": 0.1428911385,
				"element": "C" 
			},
			{
				"x": 1.8244400135,
				"y": 0.6515150534,
				"z": -0.5461058376,
				"element": "C" 
			},
			{
				"x": 0.4868050614,
				"y": 0.9964556474,
				"z": -0.3503089426,
				"element": "C" 
			},
			{
				"x": -0.0810367911,
				"y": 2.4349166958,
				"z": -1.1941085428,
				"element": "Cl" 
			},
			{
				"x": -1.949410735,
				"y": -2.5504564104,
				"z": -1.5360762604,
				"element": "H" 
			},
			{
				"x": -3.7697406691,
				"y": -0.2904356939,
				"z": 1.2083657394,
				"element": "H" 
			},
			{
				"x": -3.4558587869,
				"y": 1.8117957604,
				"z": -0.1866676086,
				"element": "H" 
			},
			{
				"x": -2.4522648678,
				"y": 0.8471767247,
				"z": -1.3713867635,
				"element": "H" 
			},
			{
				"x": -1.9405376017,
				"y": 1.191189372,
				"z": 1.6709334817,
				"element": "H" 
			},
			{
				"x": 1.9770156578,
				"y": -1.9793987226,
				"z": 1.6026873608,
				"element": "H" 
			},
			{
				"x": 3.401365701,
				"y": -0.7061273016,
				"z": -0.004325662,
				"element": "H" 
			},
			{
				"x": 2.4317928346,
				"y": 1.2393565259,
				"z": -1.2244335437,
				"element": "H" 
			}
		],
		 "valence_orbital": [ 
			{
				"type": "occ",
				"energy": -0.31103,
				"method": "rhf"
			},
			{
				"type": "occ",
				"energy": -0.30329,
				"method": "rhf"
			},
			{
				"type": "occ",
				"energy": -0.26798,
				"method": "rhf"
			},
			{
				"type": "occ",
				"energy": -0.25767,
				"method": "rhf"
			},
			{
				"type": "occ",
				"energy": -0.25161,
				"method": "rhf"
			},
			{
				"type": "unocc",
				"energy": -0.0298,
				"method": "rhf"
			},
			{
				"type": "unocc",
				"energy": -0.02472,
				"method": "rhf"
			},
			{
				"type": "unocc",
				"energy": 0.00537,
				"method": "rhf"
			},
			{
				"type": "unocc",
				"energy": 0.00829,
				"method": "rhf"
			},
			{
				"type": "unocc",
				"energy": 0.05039,
				"method": "rhf"
			}
		],
		"cosmo_sigma_profile": { 
			"-0.025": 0.0,
			"-0.024": 0.0,
			"-0.023": 0.0,
			"-0.022": 0.0,
			"-0.021": 0.0,
			"-0.02": 0.0,
			"-0.019": 0.00101399660362,
			"-0.018": 0.55777753138,
			"-0.017": 1.1843360196,
			"-0.016": 0.907054776408,
			"-0.015": 0.0798780944426,
			"-0.014": 0.871397033806,
			"-0.013": 1.00069784908,
			"-0.012": 0.511448359621,
			"-0.011": 0.539662755689,
			"-0.01": 1.31622022233,
			"-0.009": 0.586871643598,
			"-0.008": 1.5408345142,
			"-0.007": 11.0716078425,
			"-0.006": 15.360801595,
			"-0.005": 11.4080299962,
			"-0.004": 10.04234935,
			"-0.003": 11.3277132725,
			"-0.002": 13.6310958379,
			"-0.001": 17.1049474843,
			"0.0": 18.3189321298,
			"0.001": 23.2922324594,
			"0.002": 23.0950624287,
			"0.003": 23.5104657055,
			"0.004": 18.3992910686,
			"0.005": 7.73168081164,
			"0.006": 3.31330368869,
			"0.007": 3.49680133709,
			"0.008": 1.98021929754,
			"0.009": 1.13351481038,
			"0.01": 1.91854372015,
			"0.011": 2.98740613707,
			"0.012": 5.41760164602,
			"0.013": 1.65323409207,
			"0.014": 0.0203082340994,
			"0.015": 0.0,
			"0.016": 0.0,
			"0.017": 0.0,
			"0.018": 0.0,
			"0.019": 0.0,
			"0.02": 0.0,
			"0.021": 0.0,
			"0.022": 0.0,
			"0.023": 0.0,
			"0.024": 0.0,
			"0.025": 0.0
		}
	}
}
