{
	 "smiles": "OC1=CN=C(Cl)C=C1", 
	 "Tm": 428.15, 
	 "num_atms": 12, 
	 "gaussian": { 
		 "optdone": 1, 
		 "sigma_profile": "yes", 
		 "theory": "DFT", 
		 "functional": "B3LYP", 
		 "basiset": "6-31G**", 
		 "properties": { 
			 "R2extent": 1923.7274, 
			 "electric_dipole_moment_norm": 4.60007275921, 
			 "electric_quadrupole_moment_norm": 9.98220271583, 
			 "total_energy": -783.097265065, 
			 "HOMO_LUMO_gap": 0.19951, 
			 "cosmo_polarized_energy": -12.01, 
			 "cosmo_cavitation_energy": 18.36, 
			 "cosmo_dispersion_energy": -14.1, 
			 "cosmo_repulsion_energy": 1.18, 
			 "cosmo_total_nonelectrostatic_energy": 5.43, 
			 "SMD_solvation_energy": 2.03 
		},
		"coords": [
			{
				"x": -2.8432186725,
				"y": -0.2236227064,
				"z": -0.0592125803,
				"element": "O" 
			},
			{
				"x": -1.759878276,
				"y": 0.1756469476,
				"z": 0.6614639948,
				"element": "C" 
			},
			{
				"x": -0.9405499187,
				"y": 1.1699241276,
				"z": 0.1111366105,
				"element": "C" 
			},
			{
				"x": 0.1466410185,
				"y": 1.6370423854,
				"z": 0.7293044338,
				"element": "N" 
			},
			{
				"x": 0.4552823538,
				"y": 1.1335591359,
				"z": 1.9112077875,
				"element": "C" 
			},
			{
				"x": 1.8972380144,
				"y": 1.7714187765,
				"z": 2.7021691186,
				"element": "Cl" 
			},
			{
				"x": -0.283349288,
				"y": 0.1416179381,
				"z": 2.5585726848,
				"element": "C" 
			},
			{
				"x": -1.4167975406,
				"y": -0.344725712,
				"z": 1.9130989505,
				"element": "C" 
			},
			{
				"x": -3.3230883411,
				"y": -0.9081932205,
				"z": 0.4249556513,
				"element": "H" 
			},
			{
				"x": -1.1862411101,
				"y": 1.5903378771,
				"z": -0.8607622452,
				"element": "H" 
			},
			{
				"x": 0.0182154382,
				"y": -0.2338525329,
				"z": 3.5291028743,
				"element": "H" 
			},
			{
				"x": -2.0235536779,
				"y": -1.1179530164,
				"z": 2.3790627194,
				"element": "H" 
			}
		],
		 "valence_orbital": [ 
			{
				"type": "occ",
				"energy": -0.32223,
				"method": "rhf"
			},
			{
				"type": "occ",
				"energy": -0.31076,
				"method": "rhf"
			},
			{
				"type": "occ",
				"energy": -0.29906,
				"method": "rhf"
			},
			{
				"type": "occ",
				"energy": -0.2752,
				"method": "rhf"
			},
			{
				"type": "occ",
				"energy": -0.23821,
				"method": "rhf"
			},
			{
				"type": "unocc",
				"energy": -0.0387,
				"method": "rhf"
			},
			{
				"type": "unocc",
				"energy": -0.01277,
				"method": "rhf"
			},
			{
				"type": "unocc",
				"energy": 0.03237,
				"method": "rhf"
			},
			{
				"type": "unocc",
				"energy": 0.05698,
				"method": "rhf"
			},
			{
				"type": "unocc",
				"energy": 0.09813,
				"method": "rhf"
			}
		],
		"cosmo_sigma_profile": { 
			"-0.025": 0.0,
			"-0.024": 0.0,
			"-0.023": 0.0,
			"-0.022": 0.0,
			"-0.021": 0.0,
			"-0.02": 0.0,
			"-0.019": 0.51541943646,
			"-0.018": 1.29457418875,
			"-0.017": 1.32247581845,
			"-0.016": 1.21878265114,
			"-0.015": 0.973403103704,
			"-0.014": 0.851174755633,
			"-0.013": 1.05403187869,
			"-0.012": 1.1040883407,
			"-0.011": 1.29718002843,
			"-0.01": 1.36425338424,
			"-0.009": 1.59496544333,
			"-0.008": 4.2299505726,
			"-0.007": 5.87177464155,
			"-0.006": 5.28199186941,
			"-0.005": 4.79445784692,
			"-0.004": 3.87291638697,
			"-0.003": 4.74996666767,
			"-0.002": 5.70514775315,
			"-0.001": 6.39400395202,
			"0.0": 16.4118718334,
			"0.001": 18.3070991153,
			"0.002": 11.1798553515,
			"0.003": 8.77169387888,
			"0.004": 10.5617853349,
			"0.005": 9.77149806706,
			"0.006": 4.41271701529,
			"0.007": 3.3364921894,
			"0.008": 2.7974576672,
			"0.009": 3.19082772008,
			"0.01": 3.08425816676,
			"0.011": 1.48692200052,
			"0.012": 0.77490762315,
			"0.013": 1.24279246005,
			"0.014": 0.705867778036,
			"0.015": 0.276334586575,
			"0.016": 0.0,
			"0.017": 0.0,
			"0.018": 0.0,
			"0.019": 0.0,
			"0.02": 0.0,
			"0.021": 0.0,
			"0.022": 0.0,
			"0.023": 0.0,
			"0.024": 0.0,
			"0.025": 0.0
		}
	}
}
