{
	 "smiles": "CCCCCCCN", 
	 "Tm": 252.65, 
	 "num_atms": 25, 
	 "gaussian": { 
		 "optdone": 1, 
		 "sigma_profile": "yes", 
		 "theory": "DFT", 
		 "functional": "B3LYP", 
		 "basiset": "6-31G**", 
		 "properties": { 
			 "R2extent": 2045.1818, 
			 "electric_dipole_moment_norm": 1.28301220961, 
			 "electric_quadrupole_moment_norm": 8.23206034599, 
			 "total_energy": -331.755254772, 
			 "HOMO_LUMO_gap": 0.30924, 
			 "cosmo_polarized_energy": -4.97, 
			 "cosmo_cavitation_energy": 25.77, 
			 "cosmo_dispersion_energy": -18.64, 
			 "cosmo_repulsion_energy": 1.6, 
			 "cosmo_total_nonelectrostatic_energy": 8.73, 
			 "SMD_solvation_energy": 2.68 
		},
		"coords": [
			{
				"x": -1.702209773,
				"y": 3.3749799669,
				"z": -0.2630252775,
				"element": "C" 
			},
			{
				"x": -1.3086981842,
				"y": 2.5955463408,
				"z": 0.9973010008,
				"element": "C" 
			},
			{
				"x": 0.1832503974,
				"y": 2.2245306654,
				"z": 1.0734916117,
				"element": "C" 
			},
			{
				"x": 0.7055021316,
				"y": 1.2883543966,
				"z": -0.0316390144,
				"element": "C" 
			},
			{
				"x": 0.0722860928,
				"y": -0.1119622938,
				"z": -0.0282444309,
				"element": "C" 
			},
			{
				"x": 0.5980332269,
				"y": -1.0595362975,
				"z": -1.1193067029,
				"element": "C" 
			},
			{
				"x": 2.0535103053,
				"y": -1.5017131367,
				"z": -0.9406452391,
				"element": "C" 
			},
			{
				"x": 2.4135870003,
				"y": -2.4907701523,
				"z": -1.9650229821,
				"element": "N" 
			},
			{
				"x": -1.5537851524,
				"y": 2.784096934,
				"z": -1.1729575238,
				"element": "H" 
			},
			{
				"x": -2.757009384,
				"y": 3.6675411321,
				"z": -0.2323302593,
				"element": "H" 
			},
			{
				"x": -1.1066038301,
				"y": 4.2900665199,
				"z": -0.3634922233,
				"element": "H" 
			},
			{
				"x": -1.5566748911,
				"y": 3.1982575437,
				"z": 1.8804713203,
				"element": "H" 
			},
			{
				"x": -1.9242290194,
				"y": 1.6902816175,
				"z": 1.0740136173,
				"element": "H" 
			},
			{
				"x": 0.3809747882,
				"y": 1.7600372913,
				"z": 2.0494800441,
				"element": "H" 
			},
			{
				"x": 0.7738710341,
				"y": 3.150961827,
				"z": 1.0549039056,
				"element": "H" 
			},
			{
				"x": 1.7923707837,
				"y": 1.1989101735,
				"z": 0.0873501113,
				"element": "H" 
			},
			{
				"x": 0.5513518601,
				"y": 1.7499637048,
				"z": -1.0166491338,
				"element": "H" 
			},
			{
				"x": -1.0136413691,
				"y": -0.0184542163,
				"z": -0.151621409,
				"element": "H" 
			},
			{
				"x": 0.2235546106,
				"y": -0.5752315479,
				"z": 0.9578454355,
				"element": "H" 
			},
			{
				"x": 0.4871069112,
				"y": -0.5769063989,
				"z": -2.1022591179,
				"element": "H" 
			},
			{
				"x": -0.0199759031,
				"y": -1.9643646715,
				"z": -1.1521797558,
				"element": "H" 
			},
			{
				"x": 2.1612443956,
				"y": -1.9835192966,
				"z": 0.0401447165,
				"element": "H" 
			},
			{
				"x": 2.7153464513,
				"y": -0.6181365487,
				"z": -0.9279927385,
				"element": "H" 
			},
			{
				"x": 3.3730677042,
				"y": -2.7992944215,
				"z": -1.8265564239,
				"element": "H" 
			},
			{
				"x": 2.3913698132,
				"y": -2.0509391317,
				"z": -2.8831795309,
				"element": "H" 
			}
		],
		 "valence_orbital": [ 
			{
				"type": "occ",
				"energy": -0.32375,
				"method": "rhf"
			},
			{
				"type": "occ",
				"energy": -0.31301,
				"method": "rhf"
			},
			{
				"type": "occ",
				"energy": -0.30856,
				"method": "rhf"
			},
			{
				"type": "occ",
				"energy": -0.30151,
				"method": "rhf"
			},
			{
				"type": "occ",
				"energy": -0.22744,
				"method": "rhf"
			},
			{
				"type": "unocc",
				"energy": 0.0818,
				"method": "rhf"
			},
			{
				"type": "unocc",
				"energy": 0.08806,
				"method": "rhf"
			},
			{
				"type": "unocc",
				"energy": 0.11337,
				"method": "rhf"
			},
			{
				"type": "unocc",
				"energy": 0.11937,
				"method": "rhf"
			},
			{
				"type": "unocc",
				"energy": 0.12235,
				"method": "rhf"
			}
		],
		"cosmo_sigma_profile": { 
			"-0.025": 0.0,
			"-0.024": 0.0,
			"-0.023": 0.0,
			"-0.022": 0.0,
			"-0.021": 0.0,
			"-0.02": 0.0,
			"-0.019": 0.0,
			"-0.018": 0.0,
			"-0.017": 0.0,
			"-0.016": 0.0,
			"-0.015": 0.0,
			"-0.014": 0.0,
			"-0.013": 0.0,
			"-0.012": 0.0,
			"-0.011": 0.0,
			"-0.01": 0.284791476507,
			"-0.009": 1.97986539389,
			"-0.008": 2.76031508195,
			"-0.007": 2.46182009702,
			"-0.006": 3.06528951809,
			"-0.005": 3.08732671611,
			"-0.004": 2.40590930857,
			"-0.003": 4.96486121151,
			"-0.002": 27.4053241846,
			"-0.001": 39.5711022593,
			"0.0": 42.2122571197,
			"0.001": 37.6133326074,
			"0.002": 14.8990361352,
			"0.003": 1.41634074377,
			"0.004": 0.868997037149,
			"0.005": 1.16051465834,
			"0.006": 1.22407322745,
			"0.007": 0.581973096675,
			"0.008": 0.777769436813,
			"0.009": 0.897353275309,
			"0.01": 1.22481341172,
			"0.011": 0.50499918157,
			"0.012": 0.50522556226,
			"0.013": 0.340743143226,
			"0.014": 0.803179622294,
			"0.015": 0.982783819026,
			"0.016": 0.542696873025,
			"0.017": 0.789001975542,
			"0.018": 0.25896431697,
			"0.019": 0.449530458037,
			"0.02": 0.811607949963,
			"0.021": 0.0,
			"0.022": 0.0,
			"0.023": 0.0,
			"0.024": 0.0,
			"0.025": 0.0
		}
	}
}
