{
	 "smiles": "CCOC(=O)C1=C(OC(=C1)C1=CC=C(Cl)C=C1)C=O", 
	 "Tm": 461.15, 
	 "num_atms": 30, 
	 "gaussian": { 
		 "optdone": 1, 
		 "sigma_profile": "yes", 
		 "theory": "DFT", 
		 "functional": "B3LYP", 
		 "basiset": "6-31G**", 
		 "properties": { 
			 "R2extent": 9198.5853, 
			 "electric_dipole_moment_norm": 5.29470982113, 
			 "electric_quadrupole_moment_norm": 18.5197139613, 
			 "total_energy": -1301.20091936, 
			 "HOMO_LUMO_gap": 0.14266, 
			 "cosmo_polarized_energy": -13.05, 
			 "cosmo_cavitation_energy": 38.31, 
			 "cosmo_dispersion_energy": -27.34, 
			 "cosmo_repulsion_energy": 2.12, 
			 "cosmo_total_nonelectrostatic_energy": 13.08, 
			 "SMD_solvation_energy": 8.8 
		},
		"coords": [
			{
				"x": 0.2618775962,
				"y": 4.9587485768,
				"z": 1.4697106997,
				"element": "C" 
			},
			{
				"x": 0.7629695207,
				"y": 4.5909061125,
				"z": 0.086699175,
				"element": "C" 
			},
			{
				"x": 0.4606885089,
				"y": 3.190217525,
				"z": -0.1270480482,
				"element": "O" 
			},
			{
				"x": 0.8379730017,
				"y": 2.6840754194,
				"z": -1.3181401586,
				"element": "C" 
			},
			{
				"x": 1.3983396721,
				"y": 3.3314084697,
				"z": -2.1827995127,
				"element": "O" 
			},
			{
				"x": 0.4814793584,
				"y": 1.2533937918,
				"z": -1.4274310669,
				"element": "C" 
			},
			{
				"x": 0.7271581699,
				"y": 0.4364351237,
				"z": -2.5189904889,
				"element": "C" 
			},
			{
				"x": 0.2582808247,
				"y": -0.8122144926,
				"z": -2.2530339171,
				"element": "O" 
			},
			{
				"x": -0.2870558014,
				"y": -0.8104643969,
				"z": -1.0026284478,
				"element": "C" 
			},
			{
				"x": -0.1712052954,
				"y": 0.4459962748,
				"z": -0.4547520406,
				"element": "C" 
			},
			{
				"x": -0.8508542387,
				"y": -2.0653006328,
				"z": -0.5233421807,
				"element": "C" 
			},
			{
				"x": -0.8244115729,
				"y": -3.2174679924,
				"z": -1.3286107856,
				"element": "C" 
			},
			{
				"x": -1.3628046042,
				"y": -4.4164832492,
				"z": -0.8713736368,
				"element": "C" 
			},
			{
				"x": -1.9336340728,
				"y": -4.4700248722,
				"z": 0.4005266037,
				"element": "C" 
			},
			{
				"x": -2.6136423449,
				"y": -5.9786491457,
				"z": 0.9819658611,
				"element": "Cl" 
			},
			{
				"x": -1.9719155453,
				"y": -3.3394511612,
				"z": 1.2188810732,
				"element": "C" 
			},
			{
				"x": -1.4317602386,
				"y": -2.1453191053,
				"z": 0.7544441943,
				"element": "C" 
			},
			{
				"x": 1.3602679729,
				"y": 0.6657242992,
				"z": -3.8210640106,
				"element": "C" 
			},
			{
				"x": 1.4818133195,
				"y": -0.2068179377,
				"z": -4.663830402,
				"element": "O" 
			},
			{
				"x": 0.756366315,
				"y": 4.3582373684,
				"z": 2.2386051518,
				"element": "H" 
			},
			{
				"x": -0.817794316,
				"y": 4.8031420909,
				"z": 1.5498960013,
				"element": "H" 
			},
			{
				"x": 0.4725509594,
				"y": 6.0137350533,
				"z": 1.6696864508,
				"element": "H" 
			},
			{
				"x": 1.8430638739,
				"y": 4.7348333816,
				"z": -0.0142365505,
				"element": "H" 
			},
			{
				"x": 0.2772445308,
				"y": 5.1773158403,
				"z": -0.6992338278,
				"element": "H" 
			},
			{
				"x": -0.5043701192,
				"y": 0.7703736858,
				"z": 0.5186074947,
				"element": "H" 
			},
			{
				"x": -0.3793392682,
				"y": -3.1694197655,
				"z": -2.316151115,
				"element": "H" 
			},
			{
				"x": -1.3407032873,
				"y": -5.3030945617,
				"z": -1.4950044829,
				"element": "H" 
			},
			{
				"x": -2.4189933808,
				"y": -3.3970033507,
				"z": 2.2048870937,
				"element": "H" 
			},
			{
				"x": -1.4636906414,
				"y": -1.2688826647,
				"z": 1.3939230992,
				"element": "H" 
			},
			{
				"x": 1.715501103,
				"y": 1.7000503155,
				"z": -3.9656622258,
				"element": "H" 
			}
		],
		 "valence_orbital": [ 
			{
				"type": "occ",
				"energy": -0.29314,
				"method": "rhf"
			},
			{
				"type": "occ",
				"energy": -0.286,
				"method": "rhf"
			},
			{
				"type": "occ",
				"energy": -0.27751,
				"method": "rhf"
			},
			{
				"type": "occ",
				"energy": -0.25504,
				"method": "rhf"
			},
			{
				"type": "occ",
				"energy": -0.22997,
				"method": "rhf"
			},
			{
				"type": "unocc",
				"energy": -0.08731,
				"method": "rhf"
			},
			{
				"type": "unocc",
				"energy": -0.04815,
				"method": "rhf"
			},
			{
				"type": "unocc",
				"energy": -0.0258,
				"method": "rhf"
			},
			{
				"type": "unocc",
				"energy": 0.01511,
				"method": "rhf"
			},
			{
				"type": "unocc",
				"energy": 0.02124,
				"method": "rhf"
			}
		],
		"cosmo_sigma_profile": { 
			"-0.025": 0.0,
			"-0.024": 0.0,
			"-0.023": 0.0,
			"-0.022": 0.0,
			"-0.021": 0.0,
			"-0.02": 0.0,
			"-0.019": 0.0,
			"-0.018": 0.0,
			"-0.017": 0.0,
			"-0.016": 0.0,
			"-0.015": 0.0,
			"-0.014": 0.0,
			"-0.013": 0.0,
			"-0.012": 0.0,
			"-0.011": 0.0,
			"-0.01": 0.679031619566,
			"-0.009": 2.20661007466,
			"-0.008": 4.31919835002,
			"-0.007": 8.10920994876,
			"-0.006": 10.6839128796,
			"-0.005": 16.3801594663,
			"-0.004": 25.459227356,
			"-0.003": 29.2213723294,
			"-0.002": 25.7182908219,
			"-0.001": 32.1439534462,
			"0.0": 29.210434108,
			"0.001": 26.7582371146,
			"0.002": 26.8957418692,
			"0.003": 16.2516820496,
			"0.004": 16.0226298993,
			"0.005": 7.25432383585,
			"0.006": 2.54137405674,
			"0.007": 4.67815751818,
			"0.008": 3.67025699928,
			"0.009": 3.52610542658,
			"0.01": 5.23598402512,
			"0.011": 7.93119793139,
			"0.012": 4.19832669415,
			"0.013": 0.654789934496,
			"0.014": 0.0,
			"0.015": 0.0,
			"0.016": 0.0,
			"0.017": 0.0,
			"0.018": 0.0,
			"0.019": 0.0,
			"0.02": 0.0,
			"0.021": 0.0,
			"0.022": 0.0,
			"0.023": 0.0,
			"0.024": 0.0,
			"0.025": 0.0
		}
	}
}
