{
	 "smiles": "NS(=O)(=O)C1=CC=C(OC(F)(F)F)C=C1", 
	 "Tm": 420.15, 
	 "num_atms": 21, 
	 "gaussian": { 
		 "optdone": 1, 
		 "sigma_profile": "yes", 
		 "theory": "DFT", 
		 "functional": "B3LYP", 
		 "basiset": "6-31G**", 
		 "properties": { 
			 "R2extent": 5463.2407, 
			 "electric_dipole_moment_norm": 2.90630927466, 
			 "electric_quadrupole_moment_norm": 20.2080021729, 
			 "total_energy": -1248.42327298, 
			 "HOMO_LUMO_gap": 0.2211, 
			 "cosmo_polarized_energy": -14.07, 
			 "cosmo_cavitation_energy": 28.77, 
			 "cosmo_dispersion_energy": -21.4, 
			 "cosmo_repulsion_energy": 1.57, 
			 "cosmo_total_nonelectrostatic_energy": 8.94, 
			 "SMD_solvation_energy": 6.14 
		},
		"coords": [
			{
				"x": -2.0337159301,
				"y": -1.1024727003,
				"z": 2.9126806164,
				"element": "N" 
			},
			{
				"x": -2.6386977799,
				"y": 0.2001242751,
				"z": 2.0114882898,
				"element": "S" 
			},
			{
				"x": -2.8849347718,
				"y": 1.3126834693,
				"z": 2.9339145403,
				"element": "O" 
			},
			{
				"x": -3.6851412033,
				"y": -0.3528657345,
				"z": 1.1473636116,
				"element": "O" 
			},
			{
				"x": -1.2572371998,
				"y": 0.6629100784,
				"z": 0.9716617762,
				"element": "C" 
			},
			{
				"x": -1.0427847251,
				"y": -0.0165313091,
				"z": -0.2302423221,
				"element": "C" 
			},
			{
				"x": 0.031461169,
				"y": 0.3459213605,
				"z": -1.0330405515,
				"element": "C" 
			},
			{
				"x": 0.8752649257,
				"y": 1.3844258049,
				"z": -0.6301881164,
				"element": "C" 
			},
			{
				"x": 1.9073822872,
				"y": 1.6499275605,
				"z": -1.523438532,
				"element": "O" 
			},
			{
				"x": 2.8552552161,
				"y": 2.5870788399,
				"z": -1.2555289992,
				"element": "C" 
			},
			{
				"x": 3.5281864238,
				"y": 2.3243462223,
				"z": -0.1199830852,
				"element": "F" 
			},
			{
				"x": 2.3351503509,
				"y": 3.823450746,
				"z": -1.1377197586,
				"element": "F" 
			},
			{
				"x": 3.7126376708,
				"y": 2.5815835278,
				"z": -2.2718390831,
				"element": "F" 
			},
			{
				"x": 0.6575439057,
				"y": 2.0765696881,
				"z": 0.5625203341,
				"element": "C" 
			},
			{
				"x": -0.4217383066,
				"y": 1.7062081586,
				"z": 1.365082619,
				"element": "C" 
			},
			{
				"x": -1.9321677058,
				"y": -0.8285081106,
				"z": 3.8865835306,
				"element": "H" 
			},
			{
				"x": -2.6698140339,
				"y": -1.8898243206,
				"z": 2.8152184929,
				"element": "H" 
			},
			{
				"x": -1.7186825889,
				"y": -0.8069085081,
				"z": -0.5367814722,
				"element": "H" 
			},
			{
				"x": 0.2285775256,
				"y": -0.1564589463,
				"z": -1.9734888102,
				"element": "H" 
			},
			{
				"x": 1.2993701354,
				"y": 2.8917483456,
				"z": 0.8674420134,
				"element": "H" 
			},
			{
				"x": -0.6244153652,
				"y": 2.2392915525,
				"z": 2.2871949061,
				"element": "H" 
			}
		],
		 "valence_orbital": [ 
			{
				"type": "occ",
				"energy": -0.323,
				"method": "rhf"
			},
			{
				"type": "occ",
				"energy": -0.31097,
				"method": "rhf"
			},
			{
				"type": "occ",
				"energy": -0.30314,
				"method": "rhf"
			},
			{
				"type": "occ",
				"energy": -0.28419,
				"method": "rhf"
			},
			{
				"type": "occ",
				"energy": -0.26414,
				"method": "rhf"
			},
			{
				"type": "unocc",
				"energy": -0.04304,
				"method": "rhf"
			},
			{
				"type": "unocc",
				"energy": -0.03374,
				"method": "rhf"
			},
			{
				"type": "unocc",
				"energy": 0.04695,
				"method": "rhf"
			},
			{
				"type": "unocc",
				"energy": 0.07595,
				"method": "rhf"
			},
			{
				"type": "unocc",
				"energy": 0.08082,
				"method": "rhf"
			}
		],
		"cosmo_sigma_profile": { 
			"-0.025": 0.0,
			"-0.024": 0.0,
			"-0.023": 0.0,
			"-0.022": 0.0,
			"-0.021": 0.0,
			"-0.02": 0.0,
			"-0.019": 0.0,
			"-0.018": 0.0,
			"-0.017": 0.0,
			"-0.016": 0.0326766286778,
			"-0.015": 1.1808143922,
			"-0.014": 2.6377351341,
			"-0.013": 2.27792378973,
			"-0.012": 3.04237405902,
			"-0.011": 1.98036697669,
			"-0.01": 1.07864668162,
			"-0.009": 2.63086872981,
			"-0.008": 6.82941180276,
			"-0.007": 9.443125023,
			"-0.006": 7.3778350323,
			"-0.005": 7.2881458106,
			"-0.004": 7.4475957252,
			"-0.003": 8.61203816555,
			"-0.002": 13.3454017911,
			"-0.001": 16.9753208872,
			"0.0": 24.0619633361,
			"0.001": 39.2805924222,
			"0.002": 25.6705189038,
			"0.003": 6.18224228526,
			"0.004": 4.57325748951,
			"0.005": 4.07385071784,
			"0.006": 2.92657304768,
			"0.007": 3.74730286881,
			"0.008": 3.61259389644,
			"0.009": 4.53236354547,
			"0.01": 8.44298124818,
			"0.011": 8.98787953462,
			"0.012": 2.58793476,
			"0.013": 0.0388896215891,
			"0.014": 0.0,
			"0.015": 0.0,
			"0.016": 0.0,
			"0.017": 0.0,
			"0.018": 0.0,
			"0.019": 0.0,
			"0.02": 0.0,
			"0.021": 0.0,
			"0.022": 0.0,
			"0.023": 0.0,
			"0.024": 0.0,
			"0.025": 0.0
		}
	}
}
