{
	 "smiles": "CCCCC(CC)COC(=O)C1=CC=CC=C1C(=O)OCC(CC)CCCC", 
	 "Tm": 220.65, 
	 "num_atms": 66, 
	 "gaussian": { 
		 "optdone": 1, 
		 "sigma_profile": "yes", 
		 "theory": "DFT", 
		 "functional": "B3LYP", 
		 "basiset": "6-31G**", 
		 "properties": { 
			 "R2extent": 13670.6011, 
			 "electric_dipole_moment_norm": 3.04443122767, 
			 "electric_quadrupole_moment_norm": 16.9562249543, 
			 "total_energy": -1238.4196576, 
			 "HOMO_LUMO_gap": 0.20322, 
			 "cosmo_polarized_energy": -12.25, 
			 "cosmo_cavitation_energy": 66.12, 
			 "cosmo_dispersion_energy": -38.75, 
			 "cosmo_repulsion_energy": 3.02, 
			 "cosmo_total_nonelectrostatic_energy": 30.39, 
			 "SMD_solvation_energy": 11.3 
		},
		"coords": [
			{
				"x": 0.3690129276,
				"y": 4.1570675573,
				"z": 3.1892564001,
				"element": "C" 
			},
			{
				"x": 0.6289659343,
				"y": 4.3118590131,
				"z": 1.6873906468,
				"element": "C" 
			},
			{
				"x": 1.2557359622,
				"y": 3.063894807,
				"z": 1.0525466131,
				"element": "C" 
			},
			{
				"x": 1.5445837092,
				"y": 3.2282642083,
				"z": -0.446861369,
				"element": "C" 
			},
			{
				"x": 2.0748875044,
				"y": 1.9524696514,
				"z": -1.1418975846,
				"element": "C" 
			},
			{
				"x": 2.8373202669,
				"y": 2.310856286,
				"z": -2.4336765081,
				"element": "C" 
			},
			{
				"x": 3.4779226355,
				"y": 1.1354915876,
				"z": -3.1810138972,
				"element": "C" 
			},
			{
				"x": 0.9027600755,
				"y": 0.9880785394,
				"z": -1.3929236676,
				"element": "C" 
			},
			{
				"x": 1.3157866682,
				"y": -0.3939447772,
				"z": -1.5351245793,
				"element": "O" 
			},
			{
				"x": 1.4332876473,
				"y": -1.1023462899,
				"z": -0.3885959563,
				"element": "C" 
			},
			{
				"x": 1.1942574711,
				"y": -0.6511556765,
				"z": 0.7138565218,
				"element": "O" 
			},
			{
				"x": 1.9337064009,
				"y": -2.4904249712,
				"z": -0.6411741573,
				"element": "C" 
			},
			{
				"x": 2.8467491537,
				"y": -2.7192102547,
				"z": -1.6783412713,
				"element": "C" 
			},
			{
				"x": 3.4433468729,
				"y": -3.9695487137,
				"z": -1.8384424037,
				"element": "C" 
			},
			{
				"x": 3.1382653125,
				"y": -5.0044837769,
				"z": -0.9544089293,
				"element": "C" 
			},
			{
				"x": 2.2228679019,
				"y": -4.7898440464,
				"z": 0.0755378155,
				"element": "C" 
			},
			{
				"x": 1.6016392072,
				"y": -3.5473302557,
				"z": 0.2310222644,
				"element": "C" 
			},
			{
				"x": 0.5734102679,
				"y": -3.4432079429,
				"z": 1.3193702464,
				"element": "C" 
			},
			{
				"x": 0.7179847266,
				"y": -3.908545611,
				"z": 2.4307173865,
				"element": "O" 
			},
			{
				"x": -0.5575847273,
				"y": -2.8572797277,
				"z": 0.8849949326,
				"element": "O" 
			},
			{
				"x": -1.5738981568,
				"y": -2.6222870823,
				"z": 1.8883685065,
				"element": "C" 
			},
			{
				"x": -2.6978230735,
				"y": -1.7842443827,
				"z": 1.2759985039,
				"element": "C" 
			},
			{
				"x": -3.5241241957,
				"y": -1.119714921,
				"z": 2.4029030305,
				"element": "C" 
			},
			{
				"x": -2.8128530225,
				"y": 0.0158007883,
				"z": 3.1488855539,
				"element": "C" 
			},
			{
				"x": -3.6330759945,
				"y": -2.6018138679,
				"z": 0.3566065395,
				"element": "C" 
			},
			{
				"x": -3.0181382057,
				"y": -3.273475921,
				"z": -0.8839532126,
				"element": "C" 
			},
			{
				"x": -2.4415244732,
				"y": -2.3024165908,
				"z": -1.922965879,
				"element": "C" 
			},
			{
				"x": -1.9407920094,
				"y": -3.0131304345,
				"z": -3.1847999094,
				"element": "C" 
			},
			{
				"x": 1.2994029977,
				"y": 3.960518633,
				"z": 3.733968594,
				"element": "H" 
			},
			{
				"x": -0.3107638079,
				"y": 3.3209068038,
				"z": 3.3889377923,
				"element": "H" 
			},
			{
				"x": -0.0805668171,
				"y": 5.0608526388,
				"z": 3.6136590261,
				"element": "H" 
			},
			{
				"x": 1.2855677915,
				"y": 5.1761475149,
				"z": 1.5160627178,
				"element": "H" 
			},
			{
				"x": -0.3148786733,
				"y": 4.5439622276,
				"z": 1.1746492944,
				"element": "H" 
			},
			{
				"x": 0.6019802915,
				"y": 2.199551358,
				"z": 1.2243381164,
				"element": "H" 
			},
			{
				"x": 2.1955352024,
				"y": 2.8261134247,
				"z": 1.5700076963,
				"element": "H" 
			},
			{
				"x": 0.6359353932,
				"y": 3.5711507044,
				"z": -0.9652806137,
				"element": "H" 
			},
			{
				"x": 2.2786680604,
				"y": 4.0338722326,
				"z": -0.5779302775,
				"element": "H" 
			},
			{
				"x": 2.7686762293,
				"y": 1.4535875549,
				"z": -0.4514378592,
				"element": "H" 
			},
			{
				"x": 3.6210549118,
				"y": 3.0340278157,
				"z": -2.1741734024,
				"element": "H" 
			},
			{
				"x": 2.1511858722,
				"y": 2.8423779394,
				"z": -3.1092705119,
				"element": "H" 
			},
			{
				"x": 4.0410122492,
				"y": 1.4920427091,
				"z": -4.0499391726,
				"element": "H" 
			},
			{
				"x": 2.7304632662,
				"y": 0.4211578653,
				"z": -3.5376222366,
				"element": "H" 
			},
			{
				"x": 4.1758153924,
				"y": 0.5909095964,
				"z": -2.5345586341,
				"element": "H" 
			},
			{
				"x": 0.4026393126,
				"y": 1.2220756734,
				"z": -2.337333628,
				"element": "H" 
			},
			{
				"x": 0.1754698363,
				"y": 1.0389057103,
				"z": -0.5812203208,
				"element": "H" 
			},
			{
				"x": 3.1004530391,
				"y": -1.9027466101,
				"z": -2.3444279856,
				"element": "H" 
			},
			{
				"x": 4.1534054121,
				"y": -4.1292209449,
				"z": -2.644369193,
				"element": "H" 
			},
			{
				"x": 3.6083394291,
				"y": -5.9769731655,
				"z": -1.0662751689,
				"element": "H" 
			},
			{
				"x": 1.9703668551,
				"y": -5.5851771862,
				"z": 0.7689931326,
				"element": "H" 
			},
			{
				"x": -1.0962222854,
				"y": -2.1137963327,
				"z": 2.7290866065,
				"element": "H" 
			},
			{
				"x": -1.9446656053,
				"y": -3.5882088267,
				"z": 2.251824581,
				"element": "H" 
			},
			{
				"x": -2.2217333065,
				"y": -0.9845783506,
				"z": 0.6927972287,
				"element": "H" 
			},
			{
				"x": -3.8447517283,
				"y": -1.8905168067,
				"z": 3.1185161011,
				"element": "H" 
			},
			{
				"x": -4.4469466767,
				"y": -0.7245871266,
				"z": 1.9608119493,
				"element": "H" 
			},
			{
				"x": -3.4719876659,
				"y": 0.4558467101,
				"z": 3.9043670223,
				"element": "H" 
			},
			{
				"x": -2.5178430454,
				"y": 0.8144256034,
				"z": 2.4588763995,
				"element": "H" 
			},
			{
				"x": -1.9086144022,
				"y": -0.3229208583,
				"z": 3.6640944582,
				"element": "H" 
			},
			{
				"x": -4.4405771538,
				"y": -1.9351076914,
				"z": 0.023087443,
				"element": "H" 
			},
			{
				"x": -4.1188436647,
				"y": -3.3742477292,
				"z": 0.9706603454,
				"element": "H" 
			},
			{
				"x": -3.8054961248,
				"y": -3.8721001116,
				"z": -1.3633555857,
				"element": "H" 
			},
			{
				"x": -2.2377637607,
				"y": -3.9816083121,
				"z": -0.5833279086,
				"element": "H" 
			},
			{
				"x": -1.6134574792,
				"y": -1.7369021639,
				"z": -1.4808263281,
				"element": "H" 
			},
			{
				"x": -3.2107584266,
				"y": -1.5663467941,
				"z": -2.1972954746,
				"element": "H" 
			},
			{
				"x": -1.1432493569,
				"y": -3.7251325918,
				"z": -2.9443662739,
				"element": "H" 
			},
			{
				"x": -1.5393233777,
				"y": -2.301085251,
				"z": -3.9135274626,
				"element": "H" 
			},
			{
				"x": -2.747204971,
				"y": -3.5720530564,
				"z": -3.6739761039,
				"element": "H" 
			}
		],
		 "valence_orbital": [ 
			{
				"type": "occ",
				"energy": -0.28669,
				"method": "rhf"
			},
			{
				"type": "occ",
				"energy": -0.2785,
				"method": "rhf"
			},
			{
				"type": "occ",
				"energy": -0.27516,
				"method": "rhf"
			},
			{
				"type": "occ",
				"energy": -0.26294,
				"method": "rhf"
			},
			{
				"type": "occ",
				"energy": -0.2557,
				"method": "rhf"
			},
			{
				"type": "unocc",
				"energy": -0.05248,
				"method": "rhf"
			},
			{
				"type": "unocc",
				"energy": -0.02509,
				"method": "rhf"
			},
			{
				"type": "unocc",
				"energy": 0.03332,
				"method": "rhf"
			},
			{
				"type": "unocc",
				"energy": 0.04724,
				"method": "rhf"
			},
			{
				"type": "unocc",
				"energy": 0.07536,
				"method": "rhf"
			}
		],
		"cosmo_sigma_profile": { 
			"-0.025": 0.0,
			"-0.024": 0.0,
			"-0.023": 0.0,
			"-0.022": 0.0,
			"-0.021": 0.0,
			"-0.02": 0.0,
			"-0.019": 0.0,
			"-0.018": 0.0,
			"-0.017": 0.0,
			"-0.016": 0.0,
			"-0.015": 0.0,
			"-0.014": 0.0,
			"-0.013": 0.0,
			"-0.012": 0.0,
			"-0.011": 0.0,
			"-0.01": 0.0,
			"-0.009": 0.0,
			"-0.008": 0.114251727299,
			"-0.007": 4.50836907989,
			"-0.006": 7.93023879386,
			"-0.005": 13.3774784237,
			"-0.004": 18.2063066541,
			"-0.003": 38.0370330809,
			"-0.002": 76.9571299513,
			"-0.001": 83.7060957368,
			"0.0": 82.670829085,
			"0.001": 74.6499755283,
			"0.002": 49.4785551871,
			"0.003": 18.1814050466,
			"0.004": 7.49008782193,
			"0.005": 6.99553564422,
			"0.006": 6.04528010055,
			"0.007": 5.1908973902,
			"0.008": 3.15562971103,
			"0.009": 2.62022567657,
			"0.01": 3.94511693448,
			"0.011": 4.64849924454,
			"0.012": 4.68804368295,
			"0.013": 0.467594886489,
			"0.014": 0.0,
			"0.015": 0.0,
			"0.016": 0.0,
			"0.017": 0.0,
			"0.018": 0.0,
			"0.019": 0.0,
			"0.02": 0.0,
			"0.021": 0.0,
			"0.022": 0.0,
			"0.023": 0.0,
			"0.024": 0.0,
			"0.025": 0.0
		}
	}
}
