{
	 "smiles": "NC(O)C(Cl)(Cl)Cl", 
	 "Tm": 346.15, 
	 "num_atms": 11, 
	 "gaussian": { 
		 "optdone": 1, 
		 "sigma_profile": "yes", 
		 "theory": "DFT", 
		 "functional": "B3LYP", 
		 "basiset": "6-31G**", 
		 "properties": { 
			 "R2extent": 2592.4685, 
			 "electric_dipole_moment_norm": 2.57225496015, 
			 "electric_quadrupole_moment_norm": 6.8602135907, 
			 "total_energy": -1589.15369717, 
			 "HOMO_LUMO_gap": 0.23461, 
			 "cosmo_polarized_energy": -9.02, 
			 "cosmo_cavitation_energy": 19.53, 
			 "cosmo_dispersion_energy": -14.9, 
			 "cosmo_repulsion_energy": 1.26, 
			 "cosmo_total_nonelectrostatic_energy": 5.89, 
			 "SMD_solvation_energy": 1.44 
		},
		"coords": [
			{
				"x": 0.6931928897,
				"y": 0.2849584601,
				"z": 0.2282762971,
				"element": "N" 
			},
			{
				"x": 1.3238374913,
				"y": 0.379803718,
				"z": -1.0580971785,
				"element": "C" 
			},
			{
				"x": 2.1906975965,
				"y": 1.4783002044,
				"z": -1.0874643429,
				"element": "O" 
			},
			{
				"x": 0.3488047454,
				"y": 0.5614812416,
				"z": -2.2766757215,
				"element": "C" 
			},
			{
				"x": 1.2749706885,
				"y": 0.6524563353,
				"z": -3.8077325125,
				"element": "Cl" 
			},
			{
				"x": -0.7442463009,
				"y": -0.8796539058,
				"z": -2.3395030554,
				"element": "Cl" 
			},
			{
				"x": -0.644981553,
				"y": 2.0472767774,
				"z": -2.0780735062,
				"element": "Cl" 
			},
			{
				"x": 0.0318027136,
				"y": 1.0452428122,
				"z": 0.3688329318,
				"element": "H" 
			},
			{
				"x": 0.2140388593,
				"y": -0.6002447145,
				"z": 0.3556438688,
				"element": "H" 
			},
			{
				"x": 1.8432437381,
				"y": -0.5703493336,
				"z": -1.2574253059,
				"element": "H" 
			},
			{
				"x": 2.5611391316,
				"y": 1.536828405,
				"z": -0.1956814747,
				"element": "H" 
			}
		],
		 "valence_orbital": [ 
			{
				"type": "occ",
				"energy": -0.32494,
				"method": "rhf"
			},
			{
				"type": "occ",
				"energy": -0.32278,
				"method": "rhf"
			},
			{
				"type": "occ",
				"energy": -0.30804,
				"method": "rhf"
			},
			{
				"type": "occ",
				"energy": -0.30225,
				"method": "rhf"
			},
			{
				"type": "occ",
				"energy": -0.2751,
				"method": "rhf"
			},
			{
				"type": "unocc",
				"energy": -0.04049,
				"method": "rhf"
			},
			{
				"type": "unocc",
				"energy": -0.00039,
				"method": "rhf"
			},
			{
				"type": "unocc",
				"energy": 0.00603,
				"method": "rhf"
			},
			{
				"type": "unocc",
				"energy": 0.07723,
				"method": "rhf"
			},
			{
				"type": "unocc",
				"energy": 0.10049,
				"method": "rhf"
			}
		],
		"cosmo_sigma_profile": { 
			"-0.025": 0.0,
			"-0.024": 0.0,
			"-0.023": 0.0,
			"-0.022": 0.0,
			"-0.021": 0.0,
			"-0.02": 0.0,
			"-0.019": 0.0,
			"-0.018": 0.0,
			"-0.017": 0.0,
			"-0.016": 0.38419002747,
			"-0.015": 0.931857162876,
			"-0.014": 0.920862143461,
			"-0.013": 0.427986978552,
			"-0.012": 0.620525222944,
			"-0.011": 2.74752503457,
			"-0.01": 2.64556629336,
			"-0.009": 3.59151466694,
			"-0.008": 3.80428306303,
			"-0.007": 5.15541627054,
			"-0.006": 5.09851851744,
			"-0.005": 5.53081417634,
			"-0.004": 8.19374262617,
			"-0.003": 6.49348011162,
			"-0.002": 7.84586808137,
			"-0.001": 10.1309398337,
			"0.0": 11.1042884331,
			"0.001": 12.3007836386,
			"0.002": 14.4615491422,
			"0.003": 25.9842361299,
			"0.004": 11.84153648,
			"0.005": 3.32045380695,
			"0.006": 1.82553430982,
			"0.007": 2.07072268257,
			"0.008": 2.56819506106,
			"0.009": 2.70157133749,
			"0.01": 2.34480651426,
			"0.011": 2.61108716072,
			"0.012": 1.62155937265,
			"0.013": 0.455239965271,
			"0.014": 0.516473328057,
			"0.015": 0.0,
			"0.016": 0.0,
			"0.017": 0.0,
			"0.018": 0.0,
			"0.019": 0.0,
			"0.02": 0.0,
			"0.021": 0.0,
			"0.022": 0.0,
			"0.023": 0.0,
			"0.024": 0.0,
			"0.025": 0.0
		}
	}
}
