{
	 "smiles": "NC(CC1=CC=CC=C1)(C(O)=O)C1=CC=CC=C1", 
	 "Tm": 538.15, 
	 "num_atms": 33, 
	 "gaussian": { 
		 "optdone": 1, 
		 "sigma_profile": "yes", 
		 "theory": "DFT", 
		 "functional": "B3LYP", 
		 "basiset": "6-31G**", 
		 "properties": { 
			 "R2extent": 4719.5472, 
			 "electric_dipole_moment_norm": 3.70675531564, 
			 "electric_quadrupole_moment_norm": 17.2465761622, 
			 "total_energy": -785.839211236, 
			 "HOMO_LUMO_gap": 0.21097, 
			 "cosmo_polarized_energy": -14.59, 
			 "cosmo_cavitation_energy": 35.29, 
			 "cosmo_dispersion_energy": -24.64, 
			 "cosmo_repulsion_energy": 1.91, 
			 "cosmo_total_nonelectrostatic_energy": 12.55, 
			 "SMD_solvation_energy": 6.4 
		},
		"coords": [
			{
				"x": 1.7870202047,
				"y": -1.0204805358,
				"z": -0.5496721236,
				"element": "N" 
			},
			{
				"x": 0.7759559699,
				"y": -0.0146241505,
				"z": -0.8913418807,
				"element": "C" 
			},
			{
				"x": -0.61585013,
				"y": -0.5150388358,
				"z": -0.379624994,
				"element": "C" 
			},
			{
				"x": -0.8703154643,
				"y": -0.6346284519,
				"z": 1.1156066519,
				"element": "C" 
			},
			{
				"x": -2.0965986418,
				"y": -0.1814409568,
				"z": 1.626838475,
				"element": "C" 
			},
			{
				"x": -2.4102559488,
				"y": -0.313953233,
				"z": 2.9804915751,
				"element": "C" 
			},
			{
				"x": -1.4954374795,
				"y": -0.9041452344,
				"z": 3.8527254846,
				"element": "C" 
			},
			{
				"x": -0.2736085535,
				"y": -1.3620964269,
				"z": 3.3557690324,
				"element": "C" 
			},
			{
				"x": 0.0375675554,
				"y": -1.2357284586,
				"z": 2.0010462,
				"element": "C" 
			},
			{
				"x": 0.5970177222,
				"y": 0.0375756637,
				"z": -2.4476001831,
				"element": "C" 
			},
			{
				"x": -0.0267488037,
				"y": 1.1237082545,
				"z": -2.9542623486,
				"element": "O" 
			},
			{
				"x": 0.9305829479,
				"y": -0.8736343592,
				"z": -3.1676414003,
				"element": "O" 
			},
			{
				"x": 1.2067158082,
				"y": 1.3775820561,
				"z": -0.4079593611,
				"element": "C" 
			},
			{
				"x": 2.4415385939,
				"y": 1.8883996243,
				"z": -0.851655408,
				"element": "C" 
			},
			{
				"x": 2.8726860678,
				"y": 3.159765137,
				"z": -0.4822961582,
				"element": "C" 
			},
			{
				"x": 2.0701232691,
				"y": 3.9617172285,
				"z": 0.3333640255,
				"element": "C" 
			},
			{
				"x": 0.8370191778,
				"y": 3.4789010916,
				"z": 0.7650580277,
				"element": "C" 
			},
			{
				"x": 0.4067488159,
				"y": 2.1994786553,
				"z": 0.3974460159,
				"element": "C" 
			},
			{
				"x": 2.7186462815,
				"y": -0.6200343967,
				"z": -0.6017462795,
				"element": "H" 
			},
			{
				"x": 1.7453692195,
				"y": -1.7479875749,
				"z": -1.263230293,
				"element": "H" 
			},
			{
				"x": -0.7451493936,
				"y": -1.5027008298,
				"z": -0.8413411736,
				"element": "H" 
			},
			{
				"x": -1.3988573372,
				"y": 0.1158002471,
				"z": -0.8160320468,
				"element": "H" 
			},
			{
				"x": -2.8188697018,
				"y": 0.2769346402,
				"z": 0.9541363978,
				"element": "H" 
			},
			{
				"x": -3.3672157211,
				"y": 0.0441455606,
				"z": 3.3500691904,
				"element": "H" 
			},
			{
				"x": -1.7329235583,
				"y": -1.0086331083,
				"z": 4.9076346397,
				"element": "H" 
			},
			{
				"x": 0.4440924627,
				"y": -1.8266475456,
				"z": 4.0267019586,
				"element": "H" 
			},
			{
				"x": 0.9851188868,
				"y": -1.590660936,
				"z": 1.6130794404,
				"element": "H" 
			},
			{
				"x": -0.1177281754,
				"y": 1.793520304,
				"z": -2.2570340146,
				"element": "H" 
			},
			{
				"x": 3.067991377,
				"y": 1.2917988066,
				"z": -1.5109152576,
				"element": "H" 
			},
			{
				"x": 3.8304520452,
				"y": 3.5276185671,
				"z": -0.8385481584,
				"element": "H" 
			},
			{
				"x": 2.4031528756,
				"y": 4.9538960249,
				"z": 0.62311778,
				"element": "H" 
			},
			{
				"x": 0.2023821814,
				"y": 4.0918247512,
				"z": 1.3984812206,
				"element": "H" 
			},
			{
				"x": -0.5451225535,
				"y": 1.8401684213,
				"z": 0.7674349655,
				"element": "H" 
			}
		],
		 "valence_orbital": [ 
			{
				"type": "occ",
				"energy": -0.26748,
				"method": "rhf"
			},
			{
				"type": "occ",
				"energy": -0.26387,
				"method": "rhf"
			},
			{
				"type": "occ",
				"energy": -0.24692,
				"method": "rhf"
			},
			{
				"type": "occ",
				"energy": -0.24323,
				"method": "rhf"
			},
			{
				"type": "occ",
				"energy": -0.23663,
				"method": "rhf"
			},
			{
				"type": "unocc",
				"energy": -0.02566,
				"method": "rhf"
			},
			{
				"type": "unocc",
				"energy": -0.02104,
				"method": "rhf"
			},
			{
				"type": "unocc",
				"energy": -0.00156,
				"method": "rhf"
			},
			{
				"type": "unocc",
				"energy": 0.0016,
				"method": "rhf"
			},
			{
				"type": "unocc",
				"energy": 0.01063,
				"method": "rhf"
			}
		],
		"cosmo_sigma_profile": { 
			"-0.025": 0.0,
			"-0.024": 0.0,
			"-0.023": 0.0,
			"-0.022": 0.0,
			"-0.021": 0.0,
			"-0.02": 0.0,
			"-0.019": 0.0,
			"-0.018": 0.0,
			"-0.017": 0.0,
			"-0.016": 0.00158461296421,
			"-0.015": 0.475805904951,
			"-0.014": 0.418193129016,
			"-0.013": 0.422982690554,
			"-0.012": 1.50168588642,
			"-0.011": 1.863944389,
			"-0.01": 2.56131691441,
			"-0.009": 2.60783785244,
			"-0.008": 4.47859547228,
			"-0.007": 5.04791466227,
			"-0.006": 14.3602306832,
			"-0.005": 23.130903664,
			"-0.004": 25.0876836325,
			"-0.003": 23.3749947815,
			"-0.002": 18.3621461052,
			"-0.001": 16.0218924535,
			"0.0": 15.2702695854,
			"0.001": 14.1515379041,
			"0.002": 15.3945517595,
			"0.003": 18.0922995747,
			"0.004": 20.5499651967,
			"0.005": 18.6178613903,
			"0.006": 10.6652667712,
			"0.007": 5.53137199844,
			"0.008": 4.10188509746,
			"0.009": 4.69477130864,
			"0.01": 5.32801280123,
			"0.011": 4.65486228275,
			"0.012": 3.0119365484,
			"0.013": 0.666967057209,
			"0.014": 0.0,
			"0.015": 0.0,
			"0.016": 0.0,
			"0.017": 0.0,
			"0.018": 0.0,
			"0.019": 0.0,
			"0.02": 0.0,
			"0.021": 0.0,
			"0.022": 0.0,
			"0.023": 0.0,
			"0.024": 0.0,
			"0.025": 0.0
		}
	}
}
