{
	 "smiles": "CC(C)SSC(C)C", 
	 "Tm": 204.15, 
	 "num_atms": 22, 
	 "gaussian": { 
		 "optdone": 1, 
		 "sigma_profile": "yes", 
		 "theory": "DFT", 
		 "functional": "B3LYP", 
		 "basiset": "6-31G**", 
		 "properties": { 
			 "R2extent": 2214.5336, 
			 "electric_dipole_moment_norm": 2.39573912186, 
			 "electric_quadrupole_moment_norm": 5.42667514045, 
			 "total_energy": -1033.47802623, 
			 "HOMO_LUMO_gap": 0.21608, 
			 "cosmo_polarized_energy": -4.91, 
			 "cosmo_cavitation_energy": 26.7, 
			 "cosmo_dispersion_energy": -19.63, 
			 "cosmo_repulsion_energy": 1.56, 
			 "cosmo_total_nonelectrostatic_energy": 8.63, 
			 "SMD_solvation_energy": 3.81 
		},
		"coords": [
			{
				"x": -0.5527278968,
				"y": 1.3940475559,
				"z": 2.9859005657,
				"element": "C" 
			},
			{
				"x": -1.0385069019,
				"y": 0.9707873047,
				"z": 1.6018969478,
				"element": "C" 
			},
			{
				"x": -2.479880847,
				"y": 0.4515394586,
				"z": 1.6153493805,
				"element": "C" 
			},
			{
				"x": 0.0002985184,
				"y": -0.4017143946,
				"z": 0.8786883843,
				"element": "S" 
			},
			{
				"x": 1.8813648298,
				"y": 0.4497974235,
				"z": 0.6321365421,
				"element": "S" 
			},
			{
				"x": 1.8251325105,
				"y": 1.2130819196,
				"z": -1.0708565961,
				"element": "C" 
			},
			{
				"x": 1.6595439152,
				"y": 0.1644537048,
				"z": -2.1678981426,
				"element": "C" 
			},
			{
				"x": 3.1181278131,
				"y": 2.0218264163,
				"z": -1.2173699776,
				"element": "C" 
			},
			{
				"x": -1.1603318417,
				"y": 2.2279760424,
				"z": 3.3581399987,
				"element": "H" 
			},
			{
				"x": 0.4897139894,
				"y": 1.7219472487,
				"z": 2.9558696955,
				"element": "H" 
			},
			{
				"x": -0.6334070616,
				"y": 0.5655181787,
				"z": 3.6969484997,
				"element": "H" 
			},
			{
				"x": -0.9635922106,
				"y": 1.8138660958,
				"z": 0.9069062326,
				"element": "H" 
			},
			{
				"x": -2.574462752,
				"y": -0.432553698,
				"z": 2.2552609222,
				"element": "H" 
			},
			{
				"x": -3.1458739622,
				"y": 1.2241215366,
				"z": 2.0150589866,
				"element": "H" 
			},
			{
				"x": -2.8266222428,
				"y": 0.1879818994,
				"z": 0.6120057492,
				"element": "H" 
			},
			{
				"x": 0.9685495009,
				"y": 1.8954889082,
				"z": -1.0754941399,
				"element": "H" 
			},
			{
				"x": 1.5888958376,
				"y": 0.6536226907,
				"z": -3.1471301276,
				"element": "H" 
			},
			{
				"x": 0.751070123,
				"y": -0.4247846546,
				"z": -2.0176645669,
				"element": "H" 
			},
			{
				"x": 2.5148322864,
				"y": -0.5187218313,
				"z": -2.1856323518,
				"element": "H" 
			},
			{
				"x": 3.136409102,
				"y": 2.512813812,
				"z": -2.196552618,
				"element": "H" 
			},
			{
				"x": 3.9983878004,
				"y": 1.372806665,
				"z": -1.1543518159,
				"element": "H" 
			},
			{
				"x": 3.20457949,
				"y": 2.7935977176,
				"z": -0.4471115686,
				"element": "H" 
			}
		],
		 "valence_orbital": [ 
			{
				"type": "occ",
				"energy": -0.34237,
				"method": "rhf"
			},
			{
				"type": "occ",
				"energy": -0.32343,
				"method": "rhf"
			},
			{
				"type": "occ",
				"energy": -0.30835,
				"method": "rhf"
			},
			{
				"type": "occ",
				"energy": -0.23382,
				"method": "rhf"
			},
			{
				"type": "occ",
				"energy": -0.23099,
				"method": "rhf"
			},
			{
				"type": "unocc",
				"energy": -0.01491,
				"method": "rhf"
			},
			{
				"type": "unocc",
				"energy": 0.04396,
				"method": "rhf"
			},
			{
				"type": "unocc",
				"energy": 0.04914,
				"method": "rhf"
			},
			{
				"type": "unocc",
				"energy": 0.08213,
				"method": "rhf"
			},
			{
				"type": "unocc",
				"energy": 0.113,
				"method": "rhf"
			}
		],
		"cosmo_sigma_profile": { 
			"-0.025": 0.0,
			"-0.024": 0.0,
			"-0.023": 0.0,
			"-0.022": 0.0,
			"-0.021": 0.0,
			"-0.02": 0.0,
			"-0.019": 0.0,
			"-0.018": 0.0,
			"-0.017": 0.0,
			"-0.016": 0.0,
			"-0.015": 0.0,
			"-0.014": 0.0,
			"-0.013": 0.0,
			"-0.012": 0.0,
			"-0.011": 0.0,
			"-0.01": 0.0,
			"-0.009": 0.0,
			"-0.008": 0.0,
			"-0.007": 0.0,
			"-0.006": 0.0,
			"-0.005": 3.5711162465,
			"-0.004": 18.0311553675,
			"-0.003": 28.8544504087,
			"-0.002": 28.4540399875,
			"-0.001": 27.0557077681,
			"0.0": 33.8008550927,
			"0.001": 20.4728639312,
			"0.002": 8.43395134801,
			"0.003": 8.2178111794,
			"0.004": 7.97312718537,
			"0.005": 8.18569814699,
			"0.006": 7.72004816643,
			"0.007": 4.82112223126,
			"0.008": 2.53829725148,
			"0.009": 2.02471306972,
			"0.01": 0.568768307129,
			"0.011": 0.0,
			"0.012": 0.0,
			"0.013": 0.0,
			"0.014": 0.0,
			"0.015": 0.0,
			"0.016": 0.0,
			"0.017": 0.0,
			"0.018": 0.0,
			"0.019": 0.0,
			"0.02": 0.0,
			"0.021": 0.0,
			"0.022": 0.0,
			"0.023": 0.0,
			"0.024": 0.0,
			"0.025": 0.0
		}
	}
}
