{
	 "smiles": "CC(C)NC(=O)NC1=CC=C(C=C1)C#N", 
	 "Tm": 467.15, 
	 "num_atms": 28, 
	 "gaussian": { 
		 "optdone": 1, 
		 "sigma_profile": "yes", 
		 "theory": "DFT", 
		 "functional": "B3LYP", 
		 "basiset": "6-31G**", 
		 "properties": { 
			 "R2extent": 5082.5593, 
			 "electric_dipole_moment_norm": 3.29925864551, 
			 "electric_quadrupole_moment_norm": 36.9758137009, 
			 "total_energy": -666.506921602, 
			 "HOMO_LUMO_gap": 0.18413, 
			 "cosmo_polarized_energy": -18.18, 
			 "cosmo_cavitation_energy": 33.05, 
			 "cosmo_dispersion_energy": -22.78, 
			 "cosmo_repulsion_energy": 1.8, 
			 "cosmo_total_nonelectrostatic_energy": 12.08, 
			 "SMD_solvation_energy": 7.73 
		},
		"coords": [
			{
				"x": -2.2254685982,
				"y": -1.6769316784,
				"z": -1.2463338901,
				"element": "C" 
			},
			{
				"x": -1.7342438792,
				"y": -0.3262698469,
				"z": -1.7718028732,
				"element": "C" 
			},
			{
				"x": -2.7914409347,
				"y": 0.7771967214,
				"z": -1.6318494698,
				"element": "C" 
			},
			{
				"x": -0.4814050538,
				"y": 0.0262234569,
				"z": -1.0869391046,
				"element": "N" 
			},
			{
				"x": 0.3831823964,
				"y": 0.9211408019,
				"z": -1.6634642378,
				"element": "C" 
			},
			{
				"x": 0.2487206718,
				"y": 1.3730488792,
				"z": -2.7935186478,
				"element": "O" 
			},
			{
				"x": 1.4769550817,
				"y": 1.3346886438,
				"z": -0.885676112,
				"element": "N" 
			},
			{
				"x": 2.0230432234,
				"y": 0.8617930756,
				"z": 0.3096312287,
				"element": "C" 
			},
			{
				"x": 2.8049808276,
				"y": 1.7491146562,
				"z": 1.0762484116,
				"element": "C" 
			},
			{
				"x": 3.3998475352,
				"y": 1.3360714431,
				"z": 2.2577503986,
				"element": "C" 
			},
			{
				"x": 3.223809199,
				"y": 0.0185455062,
				"z": 2.7184357636,
				"element": "C" 
			},
			{
				"x": 2.4561170867,
				"y": -0.8726029206,
				"z": 1.951429951,
				"element": "C" 
			},
			{
				"x": 1.8705925254,
				"y": -0.4642914061,
				"z": 0.7589494409,
				"element": "C" 
			},
			{
				"x": 3.8240613569,
				"y": -0.4088875447,
				"z": 3.9454143368,
				"element": "C" 
			},
			{
				"x": 4.31094227,
				"y": -0.7558203834,
				"z": 4.9440390877,
				"element": "N" 
			},
			{
				"x": -1.4691429823,
				"y": -2.4545288467,
				"z": -1.3878872071,
				"element": "H" 
			},
			{
				"x": -3.1353497406,
				"y": -1.9814794936,
				"z": -1.7716066426,
				"element": "H" 
			},
			{
				"x": -2.4671290229,
				"y": -1.6227503976,
				"z": -0.1772533026,
				"element": "H" 
			},
			{
				"x": -1.4702635452,
				"y": -0.4199741258,
				"z": -2.8287173079,
				"element": "H" 
			},
			{
				"x": -2.4089885782,
				"y": 1.7192759578,
				"z": -2.0321044187,
				"element": "H" 
			},
			{
				"x": -3.699342771,
				"y": 0.5134528112,
				"z": -2.1843872834,
				"element": "H" 
			},
			{
				"x": -3.0678314414,
				"y": 0.9259268084,
				"z": -0.5810959422,
				"element": "H" 
			},
			{
				"x": -0.4898191726,
				"y": -0.0285390893,
				"z": -0.0766420118,
				"element": "H" 
			},
			{
				"x": 1.9387220971,
				"y": 2.1223626789,
				"z": -1.3194875627,
				"element": "H" 
			},
			{
				"x": 2.9324653259,
				"y": 2.7734101381,
				"z": 0.7375203535,
				"element": "H" 
			},
			{
				"x": 3.9959356799,
				"y": 2.0322666502,
				"z": 2.8381809874,
				"element": "H" 
			},
			{
				"x": 2.3353554411,
				"y": -1.8977672891,
				"z": 2.2856486365,
				"element": "H" 
			},
			{
				"x": 1.3256950022,
				"y": -1.1809752066,
				"z": 0.1571174181,
				"element": "H" 
			}
		],
		 "valence_orbital": [ 
			{
				"type": "occ",
				"energy": -0.30905,
				"method": "rhf"
			},
			{
				"type": "occ",
				"energy": -0.28374,
				"method": "rhf"
			},
			{
				"type": "occ",
				"energy": -0.27816,
				"method": "rhf"
			},
			{
				"type": "occ",
				"energy": -0.26194,
				"method": "rhf"
			},
			{
				"type": "occ",
				"energy": -0.23643,
				"method": "rhf"
			},
			{
				"type": "unocc",
				"energy": -0.0523,
				"method": "rhf"
			},
			{
				"type": "unocc",
				"energy": -0.03337,
				"method": "rhf"
			},
			{
				"type": "unocc",
				"energy": 0.03593,
				"method": "rhf"
			},
			{
				"type": "unocc",
				"energy": 0.0391,
				"method": "rhf"
			},
			{
				"type": "unocc",
				"energy": 0.06794,
				"method": "rhf"
			}
		],
		"cosmo_sigma_profile": { 
			"-0.025": 0.0,
			"-0.024": 0.0,
			"-0.023": 0.0,
			"-0.022": 0.0,
			"-0.021": 0.0,
			"-0.02": 0.0,
			"-0.019": 0.0,
			"-0.018": 0.0,
			"-0.017": 0.0,
			"-0.016": 0.0,
			"-0.015": 0.436262931683,
			"-0.014": 1.1340852057,
			"-0.013": 1.52375514719,
			"-0.012": 1.52477208433,
			"-0.011": 2.49910173603,
			"-0.01": 2.38434754527,
			"-0.009": 2.7938054219,
			"-0.008": 6.26983820051,
			"-0.007": 9.69837116436,
			"-0.006": 10.9874165755,
			"-0.005": 8.85433744728,
			"-0.004": 13.6148833453,
			"-0.003": 21.9931333245,
			"-0.002": 20.9490325127,
			"-0.001": 25.3562499397,
			"0.0": 29.9557312217,
			"0.001": 24.5719157019,
			"0.002": 19.5228677776,
			"0.003": 9.31932220089,
			"0.004": 4.50601887729,
			"0.005": 2.97021235969,
			"0.006": 4.70232740607,
			"0.007": 3.67808007101,
			"0.008": 4.21478665219,
			"0.009": 5.23300853059,
			"0.01": 4.6307445419,
			"0.011": 4.63820552993,
			"0.012": 4.15824451835,
			"0.013": 5.42544742274,
			"0.014": 5.0797974194,
			"0.015": 0.162907815791,
			"0.016": 0.0,
			"0.017": 0.0,
			"0.018": 0.0,
			"0.019": 0.0,
			"0.02": 0.0,
			"0.021": 0.0,
			"0.022": 0.0,
			"0.023": 0.0,
			"0.024": 0.0,
			"0.025": 0.0
		}
	}
}
