{
	 "smiles": "CCCOC(C)=O", 
	 "Tm": 179.65, 
	 "num_atms": 17, 
	 "gaussian": { 
		 "optdone": 1, 
		 "sigma_profile": "yes", 
		 "theory": "DFT", 
		 "functional": "B3LYP", 
		 "basiset": "6-31G**", 
		 "properties": { 
			 "R2extent": 1519.4124, 
			 "electric_dipole_moment_norm": 2.00492563702, 
			 "electric_quadrupole_moment_norm": 6.75137080673, 
			 "total_energy": -347.02882622, 
			 "HOMO_LUMO_gap": 0.28281, 
			 "cosmo_polarized_energy": -6.3, 
			 "cosmo_cavitation_energy": 20.31, 
			 "cosmo_dispersion_energy": -14.73, 
			 "cosmo_repulsion_energy": 1.29, 
			 "cosmo_total_nonelectrostatic_energy": 6.88, 
			 "SMD_solvation_energy": 4.95 
		},
		"coords": [
			{
				"x": 0.1826107606,
				"y": 1.5195283824,
				"z": -2.6333065692,
				"element": "C" 
			},
			{
				"x": -0.5598103471,
				"y": 0.1802688542,
				"z": -2.5887302045,
				"element": "C" 
			},
			{
				"x": -0.3057240565,
				"y": -0.6163022538,
				"z": -1.3178168434,
				"element": "C" 
			},
			{
				"x": 1.0996537782,
				"y": -0.9562172608,
				"z": -1.2790057297,
				"element": "O" 
			},
			{
				"x": 1.5127217481,
				"y": -1.640827329,
				"z": -0.1878727548,
				"element": "C" 
			},
			{
				"x": 2.9930809445,
				"y": -1.9342459957,
				"z": -0.2651377953,
				"element": "C" 
			},
			{
				"x": 0.7766178826,
				"y": -1.9659658825,
				"z": 0.7180850678,
				"element": "O" 
			},
			{
				"x": 1.2636235552,
				"y": 1.3678325532,
				"z": -2.5677738431,
				"element": "H" 
			},
			{
				"x": -0.0290806721,
				"y": 2.0561066425,
				"z": -3.5632625285,
				"element": "H" 
			},
			{
				"x": -0.1168336879,
				"y": 2.164697429,
				"z": -1.7994147372,
				"element": "H" 
			},
			{
				"x": -1.6421664638,
				"y": 0.3468167424,
				"z": -2.6603743358,
				"element": "H" 
			},
			{
				"x": -0.2808824513,
				"y": -0.434590728,
				"z": -3.4530810673,
				"element": "H" 
			},
			{
				"x": -0.8928603652,
				"y": -1.5400102454,
				"z": -1.2916140725,
				"element": "H" 
			},
			{
				"x": -0.5552179029,
				"y": -0.0410568106,
				"z": -0.4193729486,
				"element": "H" 
			},
			{
				"x": 3.3001359442,
				"y": -2.4845812282,
				"z": 0.6235665591,
				"element": "H" 
			},
			{
				"x": 3.2135968358,
				"y": -2.5207395865,
				"z": -1.1620087535,
				"element": "H" 
			},
			{
				"x": 3.5583344976,
				"y": -1.0005132831,
				"z": -0.3398794434,
				"element": "H" 
			}
		],
		 "valence_orbital": [ 
			{
				"type": "occ",
				"energy": -0.34952,
				"method": "rhf"
			},
			{
				"type": "occ",
				"energy": -0.34414,
				"method": "rhf"
			},
			{
				"type": "occ",
				"energy": -0.33572,
				"method": "rhf"
			},
			{
				"type": "occ",
				"energy": -0.29532,
				"method": "rhf"
			},
			{
				"type": "occ",
				"energy": -0.26616,
				"method": "rhf"
			},
			{
				"type": "unocc",
				"energy": 0.01665,
				"method": "rhf"
			},
			{
				"type": "unocc",
				"energy": 0.093,
				"method": "rhf"
			},
			{
				"type": "unocc",
				"energy": 0.11266,
				"method": "rhf"
			},
			{
				"type": "unocc",
				"energy": 0.13188,
				"method": "rhf"
			},
			{
				"type": "unocc",
				"energy": 0.13875,
				"method": "rhf"
			}
		],
		"cosmo_sigma_profile": { 
			"-0.025": 0.0,
			"-0.024": 0.0,
			"-0.023": 0.0,
			"-0.022": 0.0,
			"-0.021": 0.0,
			"-0.02": 0.0,
			"-0.019": 0.0,
			"-0.018": 0.0,
			"-0.017": 0.0,
			"-0.016": 0.0,
			"-0.015": 0.0,
			"-0.014": 0.0,
			"-0.013": 0.0,
			"-0.012": 0.0,
			"-0.011": 0.0,
			"-0.01": 0.0,
			"-0.009": 0.0,
			"-0.008": 0.0,
			"-0.007": 0.488809690555,
			"-0.006": 4.22357593827,
			"-0.005": 9.10542541813,
			"-0.004": 14.6934581546,
			"-0.003": 22.6427035093,
			"-0.002": 22.5669416636,
			"-0.001": 19.470068253,
			"0.0": 15.3859549063,
			"0.001": 12.6535098938,
			"0.002": 5.78153151029,
			"0.003": 4.16116291481,
			"0.004": 3.92560181786,
			"0.005": 2.1154166192,
			"0.006": 3.32549762007,
			"0.007": 2.34968664657,
			"0.008": 2.07700097972,
			"0.009": 1.90519144408,
			"0.01": 1.60262783475,
			"0.011": 2.70434982968,
			"0.012": 4.67855530671,
			"0.013": 2.38497620657,
			"0.014": 0.141110416194,
			"0.015": 0.0,
			"0.016": 0.0,
			"0.017": 0.0,
			"0.018": 0.0,
			"0.019": 0.0,
			"0.02": 0.0,
			"0.021": 0.0,
			"0.022": 0.0,
			"0.023": 0.0,
			"0.024": 0.0,
			"0.025": 0.0
		}
	}
}
