{
	 "smiles": "ClS(=O)(=O)C1=CC(Br)=C(Br)S1", 
	 "Tm": 350.15, 
	 "num_atms": 12, 
	 "gaussian": { 
		 "optdone": 1, 
		 "sigma_profile": "yes", 
		 "theory": "DFT", 
		 "functional": "B3LYP", 
		 "basiset": "6-31G**", 
		 "properties": { 
			 "R2extent": 5781.9709, 
			 "electric_dipole_moment_norm": 3.44602484176, 
			 "electric_quadrupole_moment_norm": 10.5223110551, 
			 "total_energy": -6702.734515, 
			 "HOMO_LUMO_gap": 0.16302, 
			 "cosmo_polarized_energy": -7.16, 
			 "cosmo_cavitation_energy": 26.9, 
			 "cosmo_dispersion_energy": -21.5, 
			 "cosmo_repulsion_energy": 1.64, 
			 "cosmo_total_nonelectrostatic_energy": 7.05, 
			 "SMD_solvation_energy": 0.82 
		},
		"coords": [
			{
				"x": -2.3631706516,
				"y": -1.1184892842,
				"z": 2.5408140088,
				"element": "Cl" 
			},
			{
				"x": -1.8588703155,
				"y": 0.8683638974,
				"z": 2.0130074806,
				"element": "S" 
			},
			{
				"x": -0.8675052817,
				"y": 1.3286473111,
				"z": 2.9745716439,
				"element": "O" 
			},
			{
				"x": -3.1079359368,
				"y": 1.5877464453,
				"z": 1.8090816417,
				"element": "O" 
			},
			{
				"x": -1.069032907,
				"y": 0.6107580459,
				"z": 0.4374996035,
				"element": "C" 
			},
			{
				"x": -0.8496576335,
				"y": -0.5553908038,
				"z": -0.2407205815,
				"element": "C" 
			},
			{
				"x": -0.1794345825,
				"y": -0.3285402269,
				"z": -1.4782912444,
				"element": "C" 
			},
			{
				"x": 0.2710450869,
				"y": -1.731927798,
				"z": -2.651392077,
				"element": "Br" 
			},
			{
				"x": 0.0918679853,
				"y": 0.9964562928,
				"z": -1.7077711787,
				"element": "C" 
			},
			{
				"x": 0.9485771408,
				"y": 1.7625109569,
				"z": -3.1834349503,
				"element": "Br" 
			},
			{
				"x": -0.4660537267,
				"y": 2.0145318891,
				"z": -0.4121033264,
				"element": "S" 
			},
			{
				"x": -1.1436291778,
				"y": -1.5350667256,
				"z": 0.1086389798,
				"element": "H" 
			}
		],
		 "valence_orbital": [ 
			{
				"type": "occ",
				"energy": -0.3304,
				"method": "rhf"
			},
			{
				"type": "occ",
				"energy": -0.32958,
				"method": "rhf"
			},
			{
				"type": "occ",
				"energy": -0.31468,
				"method": "rhf"
			},
			{
				"type": "occ",
				"energy": -0.29209,
				"method": "rhf"
			},
			{
				"type": "occ",
				"energy": -0.26557,
				"method": "rhf"
			},
			{
				"type": "unocc",
				"energy": -0.10255,
				"method": "rhf"
			},
			{
				"type": "unocc",
				"energy": -0.08036,
				"method": "rhf"
			},
			{
				"type": "unocc",
				"energy": -0.04383,
				"method": "rhf"
			},
			{
				"type": "unocc",
				"energy": -0.03697,
				"method": "rhf"
			},
			{
				"type": "unocc",
				"energy": -0.00639,
				"method": "rhf"
			}
		],
		"cosmo_sigma_profile": { 
			"-0.025": 0.0,
			"-0.024": 0.0,
			"-0.023": 0.0,
			"-0.022": 0.0,
			"-0.021": 0.0,
			"-0.02": 0.0,
			"-0.019": 0.0,
			"-0.018": 0.0,
			"-0.017": 0.0,
			"-0.016": 0.0,
			"-0.015": 0.0,
			"-0.014": 0.0,
			"-0.013": 0.0,
			"-0.012": 0.0,
			"-0.011": 0.0,
			"-0.01": 0.783074944413,
			"-0.009": 2.01819592229,
			"-0.008": 2.21025158228,
			"-0.007": 4.19475865708,
			"-0.006": 6.21179423166,
			"-0.005": 9.48230271858,
			"-0.004": 12.8975424748,
			"-0.003": 17.6463637606,
			"-0.002": 27.4812762248,
			"-0.001": 27.75289357,
			"0.0": 19.7092912706,
			"0.001": 22.4347347256,
			"0.002": 26.4758516347,
			"0.003": 19.4070111235,
			"0.004": 3.21709043462,
			"0.005": 2.58936419851,
			"0.006": 3.69268196707,
			"0.007": 9.80201028117,
			"0.008": 10.1572941957,
			"0.009": 0.848858490021,
			"0.01": 0.0,
			"0.011": 0.0,
			"0.012": 0.0,
			"0.013": 0.0,
			"0.014": 0.0,
			"0.015": 0.0,
			"0.016": 0.0,
			"0.017": 0.0,
			"0.018": 0.0,
			"0.019": 0.0,
			"0.02": 0.0,
			"0.021": 0.0,
			"0.022": 0.0,
			"0.023": 0.0,
			"0.024": 0.0,
			"0.025": 0.0
		}
	}
}
