{
	 "smiles": "OC1=C(NC(=O)C2=C(Cl)C(Cl)=CC(Cl)=C2O)C=C(Cl)C=C1Cl", 
	 "Tm": 483.15, 
	 "num_atms": 28, 
	 "gaussian": { 
		 "optdone": 1, 
		 "sigma_profile": "yes", 
		 "theory": "DFT", 
		 "functional": "B3LYP", 
		 "basiset": "6-31G**", 
		 "properties": { 
			 "R2extent": 10778.1068, 
			 "electric_dipole_moment_norm": 3.93027394465, 
			 "electric_quadrupole_moment_norm": 16.6545055967, 
			 "total_energy": -3080.37736956, 
			 "HOMO_LUMO_gap": 0.18069, 
			 "cosmo_polarized_energy": -16.23, 
			 "cosmo_cavitation_energy": 42.52, 
			 "cosmo_dispersion_energy": -29.21, 
			 "cosmo_repulsion_energy": 2.28, 
			 "cosmo_total_nonelectrostatic_energy": 15.59, 
			 "SMD_solvation_energy": 6.84 
		},
		"coords": [
			{
				"x": -2.9143043285,
				"y": 1.0101634615,
				"z": -1.8906755896,
				"element": "O" 
			},
			{
				"x": -1.974769523,
				"y": 1.8185982379,
				"z": -1.3355892388,
				"element": "C" 
			},
			{
				"x": -1.045872786,
				"y": 1.2168260109,
				"z": -0.4578524254,
				"element": "C" 
			},
			{
				"x": -1.1995527798,
				"y": -0.1610163359,
				"z": -0.2341044202,
				"element": "N" 
			},
			{
				"x": -0.2746396881,
				"y": -1.1637288806,
				"z": -0.0338985679,
				"element": "C" 
			},
			{
				"x": -0.6298343723,
				"y": -2.3213020862,
				"z": 0.1017724744,
				"element": "O" 
			},
			{
				"x": 1.198321136,
				"y": -0.8085098286,
				"z": -0.0305956899,
				"element": "C" 
			},
			{
				"x": 1.9688582849,
				"y": -0.8977392449,
				"z": 1.1360555049,
				"element": "C" 
			},
			{
				"x": 1.1766148338,
				"y": -1.2089514491,
				"z": 2.6561234828,
				"element": "Cl" 
			},
			{
				"x": 3.3575835351,
				"y": -0.7032481991,
				"z": 1.0861239444,
				"element": "C" 
			},
			{
				"x": 4.3496478065,
				"y": -0.7890036235,
				"z": 2.518062738,
				"element": "Cl" 
			},
			{
				"x": 3.9753535697,
				"y": -0.4343349687,
				"z": -0.1344211875,
				"element": "C" 
			},
			{
				"x": 3.2106356306,
				"y": -0.352104191,
				"z": -1.2900059566,
				"element": "C" 
			},
			{
				"x": 3.9781602198,
				"y": -0.0131225499,
				"z": -2.8335339189,
				"element": "Cl" 
			},
			{
				"x": 1.8214164583,
				"y": -0.5378410977,
				"z": -1.2596914963,
				"element": "C" 
			},
			{
				"x": 1.0400822246,
				"y": -0.467945434,
				"z": -2.3607440283,
				"element": "O" 
			},
			{
				"x": -0.085070963,
				"y": 2.0077697045,
				"z": 0.177048055,
				"element": "C" 
			},
			{
				"x": -0.0162216501,
				"y": 3.3721487128,
				"z": -0.1048844449,
				"element": "C" 
			},
			{
				"x": 1.2111706481,
				"y": 4.3457479468,
				"z": 0.6864075452,
				"element": "Cl" 
			},
			{
				"x": -0.9094459903,
				"y": 3.9860236138,
				"z": -0.9764821208,
				"element": "C" 
			},
			{
				"x": -1.8881772124,
				"y": 3.1920821992,
				"z": -1.5717782414,
				"element": "C" 
			},
			{
				"x": -3.0563963722,
				"y": 3.916242083,
				"z": -2.6711002002,
				"element": "Cl" 
			},
			{
				"x": -3.5098158711,
				"y": 1.5437271164,
				"z": -2.4388165133,
				"element": "H" 
			},
			{
				"x": -2.1243613692,
				"y": -0.5311946748,
				"z": -0.4246476864,
				"element": "H" 
			},
			{
				"x": 5.0474890727,
				"y": -0.2877280364,
				"z": -0.1779083017,
				"element": "H" 
			},
			{
				"x": 1.5956496267,
				"y": -0.290354518,
				"z": -3.1355883962,
				"element": "H" 
			},
			{
				"x": 0.5939161465,
				"y": 1.5720386553,
				"z": 0.8964153783,
				"element": "H" 
			},
			{
				"x": -0.8592362875,
				"y": 5.0476573763,
				"z": -1.1813906988,
				"element": "H" 
			}
		],
		 "valence_orbital": [ 
			{
				"type": "occ",
				"energy": -0.28481,
				"method": "rhf"
			},
			{
				"type": "occ",
				"energy": -0.26481,
				"method": "rhf"
			},
			{
				"type": "occ",
				"energy": -0.25632,
				"method": "rhf"
			},
			{
				"type": "occ",
				"energy": -0.24585,
				"method": "rhf"
			},
			{
				"type": "occ",
				"energy": -0.23371,
				"method": "rhf"
			},
			{
				"type": "unocc",
				"energy": -0.05302,
				"method": "rhf"
			},
			{
				"type": "unocc",
				"energy": -0.04023,
				"method": "rhf"
			},
			{
				"type": "unocc",
				"energy": -0.02974,
				"method": "rhf"
			},
			{
				"type": "unocc",
				"energy": -0.0206,
				"method": "rhf"
			},
			{
				"type": "unocc",
				"energy": -0.02019,
				"method": "rhf"
			}
		],
		"cosmo_sigma_profile": { 
			"-0.025": 0.0,
			"-0.024": 0.0,
			"-0.023": 0.0,
			"-0.022": 0.0,
			"-0.021": 0.0,
			"-0.02": 0.0,
			"-0.019": 0.0,
			"-0.018": 0.0,
			"-0.017": 0.234257631839,
			"-0.016": 1.16745834306,
			"-0.015": 1.45404821244,
			"-0.014": 0.773157872937,
			"-0.013": 1.61621411818,
			"-0.012": 2.58743781808,
			"-0.011": 3.48437360674,
			"-0.01": 2.98110093341,
			"-0.009": 4.68654816327,
			"-0.008": 6.25477572511,
			"-0.007": 6.86256269772,
			"-0.006": 9.81545968546,
			"-0.005": 9.16031731982,
			"-0.004": 12.2227394406,
			"-0.003": 19.2646817301,
			"-0.002": 24.8785411032,
			"-0.001": 33.3534463973,
			"0.0": 38.9094223789,
			"0.001": 39.8022986676,
			"0.002": 33.9876114532,
			"0.003": 37.622083056,
			"0.004": 28.3134900708,
			"0.005": 9.79102844449,
			"0.006": 5.12557318644,
			"0.007": 3.5717371292,
			"0.008": 2.48414603949,
			"0.009": 1.58761093878,
			"0.01": 1.92420912586,
			"0.011": 3.75680988206,
			"0.012": 4.76288410483,
			"0.013": 1.08450341908,
			"0.014": 0.0,
			"0.015": 0.0,
			"0.016": 0.0,
			"0.017": 0.0,
			"0.018": 0.0,
			"0.019": 0.0,
			"0.02": 0.0,
			"0.021": 0.0,
			"0.022": 0.0,
			"0.023": 0.0,
			"0.024": 0.0,
			"0.025": 0.0
		}
	}
}
