{
	 "smiles": "CCCCOC1=C(OC)C=CC(C=O)=C1", 
	 "Tm": 313.15, 
	 "num_atms": 31, 
	 "gaussian": { 
		 "optdone": 1, 
		 "sigma_profile": "yes", 
		 "theory": "DFT", 
		 "functional": "B3LYP", 
		 "basiset": "6-31G**", 
		 "properties": { 
			 "R2extent": 5761.026, 
			 "electric_dipole_moment_norm": 3.55599348284, 
			 "electric_quadrupole_moment_norm": 16.7669370399, 
			 "total_energy": -692.567317363, 
			 "HOMO_LUMO_gap": 0.18334, 
			 "cosmo_polarized_energy": -9.43, 
			 "cosmo_cavitation_energy": 34.59, 
			 "cosmo_dispersion_energy": -23.89, 
			 "cosmo_repulsion_energy": 1.91, 
			 "cosmo_total_nonelectrostatic_energy": 12.62, 
			 "SMD_solvation_energy": 7.71 
		},
		"coords": [
			{
				"x": 0.6292638375,
				"y": 3.6167141373,
				"z": 1.1099307118,
				"element": "C" 
			},
			{
				"x": 0.3260668349,
				"y": 2.1756091627,
				"z": 0.6895321754,
				"element": "C" 
			},
			{
				"x": -0.4682310124,
				"y": 1.4000724679,
				"z": 1.7481523991,
				"element": "C" 
			},
			{
				"x": -0.7878362475,
				"y": -0.0342856181,
				"z": 1.3540767179,
				"element": "C" 
			},
			{
				"x": -1.6326508778,
				"y": -0.0041979993,
				"z": 0.1824416233,
				"element": "O" 
			},
			{
				"x": -1.950210673,
				"y": -1.2369937088,
				"z": -0.3375246019,
				"element": "C" 
			},
			{
				"x": -2.8860965006,
				"y": -2.080664935,
				"z": 0.3072484065,
				"element": "C" 
			},
			{
				"x": -3.4756416155,
				"y": -1.7301770257,
				"z": 1.4933440812,
				"element": "O" 
			},
			{
				"x": -4.3487558022,
				"y": -0.5914882133,
				"z": 1.4442571874,
				"element": "C" 
			},
			{
				"x": -3.1872506864,
				"y": -3.3313676453,
				"z": -0.2395862675,
				"element": "C" 
			},
			{
				"x": -2.5874899442,
				"y": -3.7409868068,
				"z": -1.4274254612,
				"element": "C" 
			},
			{
				"x": -1.6849335234,
				"y": -2.8963087939,
				"z": -2.0856976455,
				"element": "C" 
			},
			{
				"x": -1.057336092,
				"y": -3.3257276753,
				"z": -3.3521925072,
				"element": "C" 
			},
			{
				"x": -0.2599972019,
				"y": -2.6652837492,
				"z": -3.9922514255,
				"element": "O" 
			},
			{
				"x": -1.3675351611,
				"y": -1.6473431112,
				"z": -1.5294214984,
				"element": "C" 
			},
			{
				"x": 1.1966987229,
				"y": 4.1456751311,
				"z": 0.3375634115,
				"element": "H" 
			},
			{
				"x": -0.2937582671,
				"y": 4.1805028127,
				"z": 1.2876804889,
				"element": "H" 
			},
			{
				"x": 1.21762013,
				"y": 3.6478160002,
				"z": 2.0344420832,
				"element": "H" 
			},
			{
				"x": -0.236938456,
				"y": 2.1710422173,
				"z": -0.2500952065,
				"element": "H" 
			},
			{
				"x": 1.2668139163,
				"y": 1.6452471984,
				"z": 0.4874822789,
				"element": "H" 
			},
			{
				"x": -1.4075682822,
				"y": 1.9245127835,
				"z": 1.967899161,
				"element": "H" 
			},
			{
				"x": 0.0964988795,
				"y": 1.3668778341,
				"z": 2.6898613452,
				"element": "H" 
			},
			{
				"x": -1.3044366331,
				"y": -0.5625344925,
				"z": 2.1639823171,
				"element": "H" 
			},
			{
				"x": 0.1314553892,
				"y": -0.5866983217,
				"z": 1.1129140477,
				"element": "H" 
			},
			{
				"x": -4.7051041659,
				"y": -0.4413836492,
				"z": 2.4648533398,
				"element": "H" 
			},
			{
				"x": -3.8223531704,
				"y": 0.3009070107,
				"z": 1.0962471192,
				"element": "H" 
			},
			{
				"x": -5.20398468,
				"y": -0.7938719255,
				"z": 0.7879780465,
				"element": "H" 
			},
			{
				"x": -3.8986712536,
				"y": -3.9603092236,
				"z": 0.2856451103,
				"element": "H" 
			},
			{
				"x": -2.8272430889,
				"y": -4.7119821135,
				"z": -1.8537331829,
				"element": "H" 
			},
			{
				"x": -1.3712428763,
				"y": -4.3353029431,
				"z": -3.7013050501,
				"element": "H" 
			},
			{
				"x": -0.656551499,
				"y": -1.0010688048,
				"z": -2.0335992051,
				"element": "H" 
			}
		],
		 "valence_orbital": [ 
			{
				"type": "occ",
				"energy": -0.30496,
				"method": "rhf"
			},
			{
				"type": "occ",
				"energy": -0.27197,
				"method": "rhf"
			},
			{
				"type": "occ",
				"energy": -0.256,
				"method": "rhf"
			},
			{
				"type": "occ",
				"energy": -0.25069,
				"method": "rhf"
			},
			{
				"type": "occ",
				"energy": -0.24174,
				"method": "rhf"
			},
			{
				"type": "unocc",
				"energy": -0.0584,
				"method": "rhf"
			},
			{
				"type": "unocc",
				"energy": -0.01103,
				"method": "rhf"
			},
			{
				"type": "unocc",
				"energy": 0.04254,
				"method": "rhf"
			},
			{
				"type": "unocc",
				"energy": 0.07899,
				"method": "rhf"
			},
			{
				"type": "unocc",
				"energy": 0.09688,
				"method": "rhf"
			}
		],
		"cosmo_sigma_profile": { 
			"-0.025": 0.0,
			"-0.024": 0.0,
			"-0.023": 0.0,
			"-0.022": 0.0,
			"-0.021": 0.0,
			"-0.02": 0.0,
			"-0.019": 0.0,
			"-0.018": 0.0,
			"-0.017": 0.0,
			"-0.016": 0.0,
			"-0.015": 0.0,
			"-0.014": 0.0,
			"-0.013": 0.0,
			"-0.012": 0.0,
			"-0.011": 0.0,
			"-0.01": 0.0,
			"-0.009": 0.0,
			"-0.008": 1.09254311864,
			"-0.007": 5.03092881926,
			"-0.006": 9.11660364594,
			"-0.005": 11.4267285509,
			"-0.004": 16.7354209475,
			"-0.003": 31.4336505808,
			"-0.002": 35.6815430604,
			"-0.001": 31.6509279515,
			"0.0": 27.8521180219,
			"0.001": 28.1271145278,
			"0.002": 21.9535792778,
			"0.003": 13.2273536294,
			"0.004": 5.69617253272,
			"0.005": 4.55759629389,
			"0.006": 4.18898957715,
			"0.007": 3.60108843578,
			"0.008": 3.37154018066,
			"0.009": 4.01733133986,
			"0.01": 3.66292281734,
			"0.011": 5.25916669715,
			"0.012": 3.49106720033,
			"0.013": 1.10696121393,
			"0.014": 0.0240083692965,
			"0.015": 0.0,
			"0.016": 0.0,
			"0.017": 0.0,
			"0.018": 0.0,
			"0.019": 0.0,
			"0.02": 0.0,
			"0.021": 0.0,
			"0.022": 0.0,
			"0.023": 0.0,
			"0.024": 0.0,
			"0.025": 0.0
		}
	}
}
