{
	 "smiles": "NC(=S)NC1=CC=C(Cl)C=C1", 
	 "Tm": 452.15, 
	 "num_atms": 18, 
	 "gaussian": { 
		 "optdone": 1, 
		 "sigma_profile": "yes", 
		 "theory": "DFT", 
		 "functional": "B3LYP", 
		 "basiset": "6-31G**", 
		 "properties": { 
			 "R2extent": 3828.6519, 
			 "electric_dipole_moment_norm": 3.48768703441, 
			 "electric_quadrupole_moment_norm": 34.9272488874, 
			 "total_energy": -1238.86417409, 
			 "HOMO_LUMO_gap": 0.16975, 
			 "cosmo_polarized_energy": -17.29, 
			 "cosmo_cavitation_energy": 25.88, 
			 "cosmo_dispersion_energy": -19.8, 
			 "cosmo_repulsion_energy": 1.56, 
			 "cosmo_total_nonelectrostatic_energy": 7.65, 
			 "SMD_solvation_energy": 3.29 
		},
		"coords": [
			{
				"x": -0.0195170952,
				"y": -1.8883949509,
				"z": 3.4084455555,
				"element": "N" 
			},
			{
				"x": -0.3806261343,
				"y": -0.6110394591,
				"z": 3.7081287496,
				"element": "C" 
			},
			{
				"x": -0.6185226897,
				"y": -0.0886138525,
				"z": 5.2858593586,
				"element": "S" 
			},
			{
				"x": -0.5380525751,
				"y": 0.2543190272,
				"z": 2.6557472333,
				"element": "N" 
			},
			{
				"x": -0.312937431,
				"y": 0.0617825232,
				"z": 1.2733946449,
				"element": "C" 
			},
			{
				"x": 0.7868324259,
				"y": -0.6596406484,
				"z": 0.7819625228,
				"element": "C" 
			},
			{
				"x": 0.9809614174,
				"y": -0.7971418858,
				"z": -0.5919457778,
				"element": "C" 
			},
			{
				"x": 0.0936581491,
				"y": -0.1919115201,
				"z": -1.4803926212,
				"element": "C" 
			},
			{
				"x": 0.3444182954,
				"y": -0.3593922378,
				"z": -3.2092420725,
				"element": "Cl" 
			},
			{
				"x": -0.9887625563,
				"y": 0.5516622424,
				"z": -1.0085191905,
				"element": "C" 
			},
			{
				"x": -1.1922746891,
				"y": 0.6685484198,
				"z": 0.3632376787,
				"element": "C" 
			},
			{
				"x": -0.0506972785,
				"y": -2.5344355363,
				"z": 4.1820262106,
				"element": "H" 
			},
			{
				"x": -0.1784744716,
				"y": -2.2611723099,
				"z": 2.4821297747,
				"element": "H" 
			},
			{
				"x": -0.9117275313,
				"y": 1.1483633009,
				"z": 2.9435416311,
				"element": "H" 
			},
			{
				"x": 1.5060957936,
				"y": -1.0890286321,
				"z": 1.4700117965,
				"element": "H" 
			},
			{
				"x": 1.8317119213,
				"y": -1.3538006528,
				"z": -0.9691175078,
				"element": "H" 
			},
			{
				"x": -1.6713836991,
				"y": 1.0227896495,
				"z": -1.7068881197,
				"element": "H" 
			},
			{
				"x": -2.0449018516,
				"y": 1.229206523,
				"z": 0.7354201333,
				"element": "H" 
			}
		],
		 "valence_orbital": [ 
			{
				"type": "occ",
				"energy": -0.30372,
				"method": "rhf"
			},
			{
				"type": "occ",
				"energy": -0.28391,
				"method": "rhf"
			},
			{
				"type": "occ",
				"energy": -0.25155,
				"method": "rhf"
			},
			{
				"type": "occ",
				"energy": -0.21651,
				"method": "rhf"
			},
			{
				"type": "occ",
				"energy": -0.21145,
				"method": "rhf"
			},
			{
				"type": "unocc",
				"energy": -0.0417,
				"method": "rhf"
			},
			{
				"type": "unocc",
				"energy": -0.03561,
				"method": "rhf"
			},
			{
				"type": "unocc",
				"energy": 0.00714,
				"method": "rhf"
			},
			{
				"type": "unocc",
				"energy": 0.01742,
				"method": "rhf"
			},
			{
				"type": "unocc",
				"energy": 0.06515,
				"method": "rhf"
			}
		],
		"cosmo_sigma_profile": { 
			"-0.025": 0.0,
			"-0.024": 0.0,
			"-0.023": 0.0,
			"-0.022": 0.0,
			"-0.021": 0.0,
			"-0.02": 0.0,
			"-0.019": 0.0,
			"-0.018": 0.0,
			"-0.017": 0.0,
			"-0.016": 0.0,
			"-0.015": 0.844871978429,
			"-0.014": 2.49465914247,
			"-0.013": 3.2778315749,
			"-0.012": 4.39715042071,
			"-0.011": 3.11153485812,
			"-0.01": 2.75184575,
			"-0.009": 2.66918792158,
			"-0.008": 5.31431287026,
			"-0.007": 9.54698990057,
			"-0.006": 11.2290657341,
			"-0.005": 8.61807297366,
			"-0.004": 7.71968461165,
			"-0.003": 8.48528093683,
			"-0.002": 8.29092882032,
			"-0.001": 11.2995134278,
			"0.0": 13.9475999881,
			"0.001": 15.6811244936,
			"0.002": 18.7814819276,
			"0.003": 17.2317235408,
			"0.004": 13.3040206974,
			"0.005": 9.34880403461,
			"0.006": 3.79008412469,
			"0.007": 3.33833868621,
			"0.008": 2.73535566644,
			"0.009": 4.33452915826,
			"0.01": 6.09334559104,
			"0.011": 7.893364067,
			"0.012": 5.08156647762,
			"0.013": 0.524088025176,
			"0.014": 0.0,
			"0.015": 0.0,
			"0.016": 0.0,
			"0.017": 0.0,
			"0.018": 0.0,
			"0.019": 0.0,
			"0.02": 0.0,
			"0.021": 0.0,
			"0.022": 0.0,
			"0.023": 0.0,
			"0.024": 0.0,
			"0.025": 0.0
		}
	}
}
