{
	 "smiles": "CCC(C)C1(CC=C)C(=O)NC(=O)NC1=O", 
	 "Tm": 382.15, 
	 "num_atms": 32, 
	 "gaussian": { 
		 "optdone": 1, 
		 "sigma_profile": "yes", 
		 "theory": "DFT", 
		 "functional": "B3LYP", 
		 "basiset": "6-31G**", 
		 "properties": { 
			 "R2extent": 3567.5469, 
			 "electric_dipole_moment_norm": 0.74276837574, 
			 "electric_quadrupole_moment_norm": 6.83066621787, 
			 "total_energy": -764.023730859, 
			 "HOMO_LUMO_gap": 0.214, 
			 "cosmo_polarized_energy": -15.15, 
			 "cosmo_cavitation_energy": 33.08, 
			 "cosmo_dispersion_energy": -22.85, 
			 "cosmo_repulsion_energy": 1.77, 
			 "cosmo_total_nonelectrostatic_energy": 12.0, 
			 "SMD_solvation_energy": 8.06 
		},
		"coords": [
			{
				"x": 2.0774568413,
				"y": -0.0488922437,
				"z": -1.0346253001,
				"element": "C" 
			},
			{
				"x": 0.9668947281,
				"y": -1.1085900447,
				"z": -1.0644928267,
				"element": "C" 
			},
			{
				"x": -0.5026694157,
				"y": -0.6165875939,
				"z": -1.0801966257,
				"element": "C" 
			},
			{
				"x": -0.7868854682,
				"y": 0.2849499754,
				"z": -2.2903943652,
				"element": "C" 
			},
			{
				"x": -1.0069471645,
				"y": -0.0366942418,
				"z": 0.2992050075,
				"element": "C" 
			},
			{
				"x": -2.5491538571,
				"y": 0.3051920216,
				"z": 0.2539718506,
				"element": "C" 
			},
			{
				"x": -3.456268593,
				"y": -0.7803424741,
				"z": -0.2606651229,
				"element": "C" 
			},
			{
				"x": -4.3489114238,
				"y": -0.5931085518,
				"z": -1.2341707748,
				"element": "C" 
			},
			{
				"x": -0.8159888768,
				"y": -1.1389048612,
				"z": 1.3507829912,
				"element": "C" 
			},
			{
				"x": -1.2429595111,
				"y": -2.2707531046,
				"z": 1.2054729623,
				"element": "O" 
			},
			{
				"x": -0.1468833963,
				"y": -0.8080387098,
				"z": 2.5228545718,
				"element": "N" 
			},
			{
				"x": 0.4658302409,
				"y": 0.3938595419,
				"z": 2.8521448796,
				"element": "C" 
			},
			{
				"x": 1.051866472,
				"y": 0.5734324842,
				"z": 3.8996391718,
				"element": "O" 
			},
			{
				"x": 0.3432296374,
				"y": 1.3704649649,
				"z": 1.8736656428,
				"element": "N" 
			},
			{
				"x": -0.3292325882,
				"y": 1.2925633839,
				"z": 0.6570367434,
				"element": "C" 
			},
			{
				"x": -0.3937713977,
				"y": 2.2803673924,
				"z": -0.0514024868,
				"element": "O" 
			},
			{
				"x": 2.0953913261,
				"y": 0.5192717957,
				"z": -0.0999185461,
				"element": "H" 
			},
			{
				"x": 3.0551354984,
				"y": -0.5319077974,
				"z": -1.1320306699,
				"element": "H" 
			},
			{
				"x": 1.9808878634,
				"y": 0.66779806,
				"z": -1.8551337567,
				"element": "H" 
			},
			{
				"x": 1.1088510696,
				"y": -1.8091260404,
				"z": -0.2324494143,
				"element": "H" 
			},
			{
				"x": 1.094860056,
				"y": -1.7122884246,
				"z": -1.9718427952,
				"element": "H" 
			},
			{
				"x": -1.1123587729,
				"y": -1.5191540311,
				"z": -1.1962462011,
				"element": "H" 
			},
			{
				"x": -0.4348608277,
				"y": -0.2207568282,
				"z": -3.196369728,
				"element": "H" 
			},
			{
				"x": -1.8573096822,
				"y": 0.4628373912,
				"z": -2.4147440263,
				"element": "H" 
			},
			{
				"x": -0.2911186616,
				"y": 1.2534590052,
				"z": -2.2193991717,
				"element": "H" 
			},
			{
				"x": -2.8520193582,
				"y": 0.5733710705,
				"z": 1.2771584635,
				"element": "H" 
			},
			{
				"x": -2.6592440117,
				"y": 1.2096602938,
				"z": -0.3487553864,
				"element": "H" 
			},
			{
				"x": -3.3777874245,
				"y": -1.7500380111,
				"z": 0.223697121,
				"element": "H" 
			},
			{
				"x": -5.0150568852,
				"y": -1.3891724733,
				"z": -1.5534251679,
				"element": "H" 
			},
			{
				"x": -4.4559344827,
				"y": 0.3636151608,
				"z": -1.7408016252,
				"element": "H" 
			},
			{
				"x": -0.0539535792,
				"y": -1.5476138352,
				"z": 3.2096658316,
				"element": "H" 
			},
			{
				"x": 0.7592116452,
				"y": 2.2672267253,
				"z": 2.0973687542,
				"element": "H" 
			}
		],
		 "valence_orbital": [ 
			{
				"type": "occ",
				"energy": -0.30512,
				"method": "rhf"
			},
			{
				"type": "occ",
				"energy": -0.30223,
				"method": "rhf"
			},
			{
				"type": "occ",
				"energy": -0.28952,
				"method": "rhf"
			},
			{
				"type": "occ",
				"energy": -0.2681,
				"method": "rhf"
			},
			{
				"type": "occ",
				"energy": -0.26298,
				"method": "rhf"
			},
			{
				"type": "unocc",
				"energy": -0.04898,
				"method": "rhf"
			},
			{
				"type": "unocc",
				"energy": -0.01134,
				"method": "rhf"
			},
			{
				"type": "unocc",
				"energy": 0.00947,
				"method": "rhf"
			},
			{
				"type": "unocc",
				"energy": 0.05467,
				"method": "rhf"
			},
			{
				"type": "unocc",
				"energy": 0.06963,
				"method": "rhf"
			}
		],
		"cosmo_sigma_profile": { 
			"-0.025": 0.0,
			"-0.024": 0.0,
			"-0.023": 0.0,
			"-0.022": 0.0,
			"-0.021": 0.0,
			"-0.02": 0.0,
			"-0.019": 0.0,
			"-0.018": 0.0,
			"-0.017": 0.0856822596005,
			"-0.016": 1.86801682455,
			"-0.015": 2.08886517629,
			"-0.014": 1.49251908676,
			"-0.013": 1.47009290035,
			"-0.012": 1.0539570155,
			"-0.011": 3.00719473042,
			"-0.01": 2.4567551021,
			"-0.009": 2.51546106479,
			"-0.008": 3.00950337325,
			"-0.007": 3.77396575582,
			"-0.006": 5.08922070972,
			"-0.005": 11.4517069784,
			"-0.004": 14.7504159106,
			"-0.003": 26.6336387457,
			"-0.002": 26.1315283367,
			"-0.001": 26.7611349588,
			"0.0": 24.0535511485,
			"0.001": 21.0486572417,
			"0.002": 12.6111348684,
			"0.003": 9.00604060743,
			"0.004": 8.76913220743,
			"0.005": 7.69494023148,
			"0.006": 4.92447056329,
			"0.007": 3.44827847465,
			"0.008": 4.3427795385,
			"0.009": 5.24318311644,
			"0.01": 5.0334863426,
			"0.011": 12.3696372126,
			"0.012": 6.8366240731,
			"0.013": 0.0648826755645,
			"0.014": 0.0,
			"0.015": 0.0,
			"0.016": 0.0,
			"0.017": 0.0,
			"0.018": 0.0,
			"0.019": 0.0,
			"0.02": 0.0,
			"0.021": 0.0,
			"0.022": 0.0,
			"0.023": 0.0,
			"0.024": 0.0,
			"0.025": 0.0
		}
	}
}
