{
	 "smiles": "CCCCN1C2=C(N(CCC)C(CO)=N2)C(=O)NC1=O", 
	 "Tm": 408.15, 
	 "num_atms": 40, 
	 "gaussian": { 
		 "optdone": 1, 
		 "sigma_profile": "yes", 
		 "theory": "DFT", 
		 "functional": "B3LYP", 
		 "basiset": "6-31G**", 
		 "properties": { 
			 "R2extent": 7299.0509, 
			 "electric_dipole_moment_norm": 2.64496199217, 
			 "electric_quadrupole_moment_norm": 22.223454346, 
			 "total_energy": -952.181280112, 
			 "HOMO_LUMO_gap": 0.18589, 
			 "cosmo_polarized_energy": -17.11, 
			 "cosmo_cavitation_energy": 41.87, 
			 "cosmo_dispersion_energy": -28.7, 
			 "cosmo_repulsion_energy": 2.24, 
			 "cosmo_total_nonelectrostatic_energy": 15.4, 
			 "SMD_solvation_energy": 6.74 
		},
		"coords": [
			{
				"x": -1.2222743241,
				"y": 3.7645055557,
				"z": 2.5776050945,
				"element": "C" 
			},
			{
				"x": 0.2953222372,
				"y": 3.8080506741,
				"z": 2.3580351387,
				"element": "C" 
			},
			{
				"x": 0.8877119631,
				"y": 2.5357304287,
				"z": 1.7308805603,
				"element": "C" 
			},
			{
				"x": 0.7891109646,
				"y": 1.3082910431,
				"z": 2.6455266937,
				"element": "C" 
			},
			{
				"x": 1.4081299042,
				"y": 0.1130047975,
				"z": 2.0526959298,
				"element": "N" 
			},
			{
				"x": 0.6781665312,
				"y": -0.7864085764,
				"z": 1.3058948337,
				"element": "C" 
			},
			{
				"x": 1.24432409,
				"y": -1.9040577173,
				"z": 0.7185318025,
				"element": "C" 
			},
			{
				"x": 0.1922875377,
				"y": -2.5607689418,
				"z": 0.083434741,
				"element": "N" 
			},
			{
				"x": 0.2994217648,
				"y": -3.8085886447,
				"z": -0.6853416054,
				"element": "C" 
			},
			{
				"x": 0.9702453757,
				"y": -3.6294224304,
				"z": -2.0536280941,
				"element": "C" 
			},
			{
				"x": 0.2283098784,
				"y": -2.68963837,
				"z": -3.006823939,
				"element": "C" 
			},
			{
				"x": -0.9123516621,
				"y": -1.8087271049,
				"z": 0.3219682581,
				"element": "C" 
			},
			{
				"x": -2.3090178878,
				"y": -2.0901162586,
				"z": -0.1698864356,
				"element": "C" 
			},
			{
				"x": -3.236689217,
				"y": -1.2275263615,
				"z": 0.439309782,
				"element": "O" 
			},
			{
				"x": -0.6566833243,
				"y": -0.7249815721,
				"z": 1.0570458488,
				"element": "N" 
			},
			{
				"x": 2.6369840322,
				"y": -2.2273887407,
				"z": 0.8433633575,
				"element": "C" 
			},
			{
				"x": 3.2446873614,
				"y": -3.1871845907,
				"z": 0.3787385371,
				"element": "O" 
			},
			{
				"x": 3.2874028639,
				"y": -1.2441099349,
				"z": 1.6140080871,
				"element": "N" 
			},
			{
				"x": 2.7772191308,
				"y": -0.0899602241,
				"z": 2.219038175,
				"element": "C" 
			},
			{
				"x": 3.4917315152,
				"y": 0.6736581885,
				"z": 2.8496137376,
				"element": "O" 
			},
			{
				"x": -1.5143570687,
				"y": 2.9899411892,
				"z": 3.2945903252,
				"element": "H" 
			},
			{
				"x": -1.7511360524,
				"y": 3.5624124589,
				"z": 1.6390901984,
				"element": "H" 
			},
			{
				"x": -1.5889294576,
				"y": 4.7200274905,
				"z": 2.9661694632,
				"element": "H" 
			},
			{
				"x": 0.5372925596,
				"y": 4.6554887388,
				"z": 1.7052684333,
				"element": "H" 
			},
			{
				"x": 0.8010510297,
				"y": 4.009444834,
				"z": 3.3120601516,
				"element": "H" 
			},
			{
				"x": 1.9460571504,
				"y": 2.702550516,
				"z": 1.5022620331,
				"element": "H" 
			},
			{
				"x": 0.3794787983,
				"y": 2.3173492707,
				"z": 0.7827269366,
				"element": "H" 
			},
			{
				"x": -0.2497379236,
				"y": 1.0497075236,
				"z": 2.8565329099,
				"element": "H" 
			},
			{
				"x": 1.307905751,
				"y": 1.4969493935,
				"z": 3.5878706622,
				"element": "H" 
			},
			{
				"x": -0.7138104235,
				"y": -4.2059033563,
				"z": -0.7947316232,
				"element": "H" 
			},
			{
				"x": 0.8791132292,
				"y": -4.5112756493,
				"z": -0.0824750817,
				"element": "H" 
			},
			{
				"x": 1.9963410026,
				"y": -3.2876157576,
				"z": -1.8861129488,
				"element": "H" 
			},
			{
				"x": 1.0482589234,
				"y": -4.6289353375,
				"z": -2.4990746289,
				"element": "H" 
			},
			{
				"x": 0.7540049954,
				"y": -2.616012139,
				"z": -3.9634637773,
				"element": "H" 
			},
			{
				"x": -0.7873474908,
				"y": -3.0460151436,
				"z": -3.2157177839,
				"element": "H" 
			},
			{
				"x": 0.1531074121,
				"y": -1.6767939704,
				"z": -2.5972736908,
				"element": "H" 
			},
			{
				"x": -2.3345657524,
				"y": -1.984589715,
				"z": -1.2677663348,
				"element": "H" 
			},
			{
				"x": -2.5823018621,
				"y": -3.132754798,
				"z": 0.0511053256,
				"element": "H" 
			},
			{
				"x": -2.7180384646,
				"y": -0.530931474,
				"z": 0.8747904303,
				"element": "H" 
			},
			{
				"x": 4.2814749092,
				"y": -1.3777052941,
				"z": 1.7535384967,
				"element": "H" 
			}
		],
		 "valence_orbital": [ 
			{
				"type": "occ",
				"energy": -0.28465,
				"method": "rhf"
			},
			{
				"type": "occ",
				"energy": -0.28249,
				"method": "rhf"
			},
			{
				"type": "occ",
				"energy": -0.2764,
				"method": "rhf"
			},
			{
				"type": "occ",
				"energy": -0.26373,
				"method": "rhf"
			},
			{
				"type": "occ",
				"energy": -0.22221,
				"method": "rhf"
			},
			{
				"type": "unocc",
				"energy": -0.03632,
				"method": "rhf"
			},
			{
				"type": "unocc",
				"energy": 0.01891,
				"method": "rhf"
			},
			{
				"type": "unocc",
				"energy": 0.02784,
				"method": "rhf"
			},
			{
				"type": "unocc",
				"energy": 0.06693,
				"method": "rhf"
			},
			{
				"type": "unocc",
				"energy": 0.08098,
				"method": "rhf"
			}
		],
		"cosmo_sigma_profile": { 
			"-0.025": 0.0,
			"-0.024": 0.0,
			"-0.023": 0.0,
			"-0.022": 0.0,
			"-0.021": 0.0,
			"-0.02": 0.0,
			"-0.019": 0.0,
			"-0.018": 0.0,
			"-0.017": 0.0,
			"-0.016": 0.269304686435,
			"-0.015": 0.856108885632,
			"-0.014": 1.07191075704,
			"-0.013": 0.630030170562,
			"-0.012": 0.131885025566,
			"-0.011": 0.504846393699,
			"-0.01": 1.45051909823,
			"-0.009": 1.95948913454,
			"-0.008": 3.46094109815,
			"-0.007": 5.98963457116,
			"-0.006": 6.76939978674,
			"-0.005": 13.3493751225,
			"-0.004": 25.8007577483,
			"-0.003": 35.8737452061,
			"-0.002": 43.3551396606,
			"-0.001": 48.5947980693,
			"0.0": 35.0424261402,
			"0.001": 25.8061628743,
			"0.002": 11.3627967181,
			"0.003": 6.47152389194,
			"0.004": 6.84999806394,
			"0.005": 5.70437875866,
			"0.006": 5.26619134321,
			"0.007": 5.12933394862,
			"0.008": 3.41449257605,
			"0.009": 2.95468165392,
			"0.01": 4.64470767811,
			"0.011": 4.35361733034,
			"0.012": 7.94850470521,
			"0.013": 10.4099084,
			"0.014": 2.42509547872,
			"0.015": 0.00226049206571,
			"0.016": 0.0,
			"0.017": 0.0,
			"0.018": 0.0,
			"0.019": 0.0,
			"0.02": 0.0,
			"0.021": 0.0,
			"0.022": 0.0,
			"0.023": 0.0,
			"0.024": 0.0,
			"0.025": 0.0
		}
	}
}
