{
	 "smiles": "C1SCC2=C1NN=C2", 
	 "Tm": 405.15, 
	 "num_atms": 14, 
	 "gaussian": { 
		 "optdone": 1, 
		 "sigma_profile": "yes", 
		 "theory": "DFT", 
		 "functional": "B3LYP", 
		 "basiset": "6-31G**", 
		 "properties": { 
			 "R2extent": 1383.7133, 
			 "electric_dipole_moment_norm": 1.35250822548, 
			 "electric_quadrupole_moment_norm": 11.6901228625, 
			 "total_energy": -701.804622281, 
			 "HOMO_LUMO_gap": 0.23837, 
			 "cosmo_polarized_energy": -10.87, 
			 "cosmo_cavitation_energy": 18.75, 
			 "cosmo_dispersion_energy": -15.2, 
			 "cosmo_repulsion_energy": 1.22, 
			 "cosmo_total_nonelectrostatic_energy": 4.77, 
			 "SMD_solvation_energy": 1.77 
		},
		"coords": [
			{
				"x": -0.7870020896,
				"y": 0.3485939951,
				"z": -2.2543295946,
				"element": "C" 
			},
			{
				"x": -0.8593757853,
				"y": 2.2099037605,
				"z": -2.3502330361,
				"element": "S" 
			},
			{
				"x": -0.4973893524,
				"y": 2.5200232897,
				"z": -0.5396741118,
				"element": "C" 
			},
			{
				"x": -0.3375038767,
				"y": 1.1547694454,
				"z": 0.0500717567,
				"element": "C" 
			},
			{
				"x": -0.4846891897,
				"y": 0.0962804485,
				"z": -0.8152100186,
				"element": "C" 
			},
			{
				"x": -0.303200584,
				"y": -1.0345149841,
				"z": -0.0874473927,
				"element": "N" 
			},
			{
				"x": -0.043288967,
				"y": -0.7707531586,
				"z": 1.2181451994,
				"element": "N" 
			},
			{
				"x": -0.0633491199,
				"y": 0.5605197083,
				"z": 1.3043941143,
				"element": "C" 
			},
			{
				"x": -1.7479670085,
				"y": -0.06900178,
				"z": -2.5723566516,
				"element": "H" 
			},
			{
				"x": -0.0074764793,
				"y": -0.0196850251,
				"z": -2.9293759679,
				"element": "H" 
			},
			{
				"x": 0.4065972252,
				"y": 3.1320710065,
				"z": -0.4655826051,
				"element": "H" 
			},
			{
				"x": -1.3316358729,
				"y": 3.0823601915,
				"z": -0.1094449134,
				"element": "H" 
			},
			{
				"x": -0.3379717565,
				"y": -1.9948421355,
				"z": -0.3910346808,
				"element": "H" 
			},
			{
				"x": 0.1193528566,
				"y": 1.0312752377,
				"z": 2.2610779022,
				"element": "H" 
			}
		],
		 "valence_orbital": [ 
			{
				"type": "occ",
				"energy": -0.33428,
				"method": "rhf"
			},
			{
				"type": "occ",
				"energy": -0.28019,
				"method": "rhf"
			},
			{
				"type": "occ",
				"energy": -0.25931,
				"method": "rhf"
			},
			{
				"type": "occ",
				"energy": -0.24204,
				"method": "rhf"
			},
			{
				"type": "occ",
				"energy": -0.22411,
				"method": "rhf"
			},
			{
				"type": "unocc",
				"energy": 0.01426,
				"method": "rhf"
			},
			{
				"type": "unocc",
				"energy": 0.01481,
				"method": "rhf"
			},
			{
				"type": "unocc",
				"energy": 0.04603,
				"method": "rhf"
			},
			{
				"type": "unocc",
				"energy": 0.06446,
				"method": "rhf"
			},
			{
				"type": "unocc",
				"energy": 0.08777,
				"method": "rhf"
			}
		],
		"cosmo_sigma_profile": { 
			"-0.025": 0.0,
			"-0.024": 0.0,
			"-0.023": 0.0,
			"-0.022": 0.0,
			"-0.021": 0.0,
			"-0.02": 0.0,
			"-0.019": 0.0,
			"-0.018": 0.0,
			"-0.017": 0.40640908193,
			"-0.016": 1.63979146587,
			"-0.015": 1.46416186496,
			"-0.014": 1.17905862414,
			"-0.013": 0.739414707285,
			"-0.012": 0.74298527349,
			"-0.011": 1.30646657251,
			"-0.01": 1.43888230367,
			"-0.009": 0.972505157124,
			"-0.008": 0.93260076718,
			"-0.007": 3.98781503001,
			"-0.006": 10.8499302886,
			"-0.005": 10.9889245798,
			"-0.004": 12.0927488397,
			"-0.003": 13.0438761701,
			"-0.002": 8.8159581179,
			"-0.001": 6.39215412074,
			"0.0": 6.03521057856,
			"0.001": 7.86940817404,
			"0.002": 7.20664466076,
			"0.003": 7.89451761779,
			"0.004": 7.92025755513,
			"0.005": 7.64331211294,
			"0.006": 5.65996328887,
			"0.007": 4.49140344971,
			"0.008": 4.51223480325,
			"0.009": 3.30304003869,
			"0.01": 3.26443910523,
			"0.011": 2.84885758534,
			"0.012": 1.33449817936,
			"0.013": 1.31913325877,
			"0.014": 0.898897080893,
			"0.015": 1.24172442577,
			"0.016": 0.940479583408,
			"0.017": 0.0912002794618,
			"0.018": 0.0,
			"0.019": 0.0,
			"0.02": 0.0,
			"0.021": 0.0,
			"0.022": 0.0,
			"0.023": 0.0,
			"0.024": 0.0,
			"0.025": 0.0
		}
	}
}
