{
	 "smiles": "OC(=O)C1=CC(=CC=C1)S(=O)(=O)NCC#C", 
	 "Tm": 443.15, 
	 "num_atms": 25, 
	 "gaussian": { 
		 "optdone": 1, 
		 "sigma_profile": "yes", 
		 "theory": "DFT", 
		 "functional": "B3LYP", 
		 "basiset": "6-31G**", 
		 "properties": { 
			 "R2extent": 4622.1042, 
			 "electric_dipole_moment_norm": 6.19331851999, 
			 "electric_quadrupole_moment_norm": 17.7126724618, 
			 "total_energy": -1140.18600489, 
			 "HOMO_LUMO_gap": 0.2009, 
			 "cosmo_polarized_energy": -21.8, 
			 "cosmo_cavitation_energy": 32.89, 
			 "cosmo_dispersion_energy": -23.09, 
			 "cosmo_repulsion_energy": 1.75, 
			 "cosmo_total_nonelectrostatic_energy": 11.56, 
			 "SMD_solvation_energy": 6.93 
		},
		"coords": [
			{
				"x": -3.6799117827,
				"y": 3.0366009953,
				"z": 0.5427807054,
				"element": "O" 
			},
			{
				"x": -3.1826425289,
				"y": 1.9805180281,
				"z": -0.1443429242,
				"element": "C" 
			},
			{
				"x": -3.8806846509,
				"y": 1.2555329302,
				"z": -0.8227521526,
				"element": "O" 
			},
			{
				"x": -1.7119122654,
				"y": 1.8157171178,
				"z": 0.031211894,
				"element": "C" 
			},
			{
				"x": -1.0885306256,
				"y": 0.7728372361,
				"z": -0.6657440525,
				"element": "C" 
			},
			{
				"x": 0.2840940792,
				"y": 0.585722925,
				"z": -0.5209680379,
				"element": "C" 
			},
			{
				"x": 1.0491724296,
				"y": 1.4300048043,
				"z": 0.2910584406,
				"element": "C" 
			},
			{
				"x": 0.4207390278,
				"y": 2.4694289851,
				"z": 0.9764264111,
				"element": "C" 
			},
			{
				"x": -0.9557234345,
				"y": 2.6620776607,
				"z": 0.8527686128,
				"element": "C" 
			},
			{
				"x": 1.0938458961,
				"y": -0.7753584516,
				"z": -1.3818494783,
				"element": "S" 
			},
			{
				"x": 2.5151276231,
				"y": -0.4433360533,
				"z": -1.4677461372,
				"element": "O" 
			},
			{
				"x": 0.2721920235,
				"y": -1.1013759125,
				"z": -2.5463672472,
				"element": "O" 
			},
			{
				"x": 1.0103845342,
				"y": -2.1084635323,
				"z": -0.3655164837,
				"element": "N" 
			},
			{
				"x": -0.3054252735,
				"y": -2.7110982855,
				"z": -0.0866388208,
				"element": "C" 
			},
			{
				"x": -0.1464696496,
				"y": -3.9177291507,
				"z": 0.72044167,
				"element": "C" 
			},
			{
				"x": -0.0168724867,
				"y": -4.8983852802,
				"z": 1.4111634064,
				"element": "C" 
			},
			{
				"x": -4.6338514568,
				"y": 3.0504268445,
				"z": 0.3595495456,
				"element": "H" 
			},
			{
				"x": -1.6759725171,
				"y": 0.1442539648,
				"z": -1.3254131311,
				"element": "H" 
			},
			{
				"x": 2.121680216,
				"y": 1.281087697,
				"z": 0.3580408354,
				"element": "H" 
			},
			{
				"x": 1.0069476199,
				"y": 3.1350590091,
				"z": 1.6021528124,
				"element": "H" 
			},
			{
				"x": -1.4477019098,
				"y": 3.4691614407,
				"z": 1.3832403514,
				"element": "H" 
			},
			{
				"x": 1.619393763,
				"y": -2.0084274118,
				"z": 0.4413615637,
				"element": "H" 
			},
			{
				"x": -0.9829884145,
				"y": -2.0132271035,
				"z": 0.431036878,
				"element": "H" 
			},
			{
				"x": -0.7607306159,
				"y": -2.953311952,
				"z": -1.0519644995,
				"element": "H" 
			},
			{
				"x": 0.0970403995,
				"y": -5.7753165052,
				"z": 2.0058698381,
				"element": "H" 
			}
		],
		 "valence_orbital": [ 
			{
				"type": "occ",
				"energy": -0.29303,
				"method": "rhf"
			},
			{
				"type": "occ",
				"energy": -0.28731,
				"method": "rhf"
			},
			{
				"type": "occ",
				"energy": -0.2859,
				"method": "rhf"
			},
			{
				"type": "occ",
				"energy": -0.28233,
				"method": "rhf"
			},
			{
				"type": "occ",
				"energy": -0.27296,
				"method": "rhf"
			},
			{
				"type": "unocc",
				"energy": -0.07206,
				"method": "rhf"
			},
			{
				"type": "unocc",
				"energy": -0.04754,
				"method": "rhf"
			},
			{
				"type": "unocc",
				"energy": 0.01659,
				"method": "rhf"
			},
			{
				"type": "unocc",
				"energy": 0.02709,
				"method": "rhf"
			},
			{
				"type": "unocc",
				"energy": 0.04174,
				"method": "rhf"
			}
		],
		"cosmo_sigma_profile": { 
			"-0.025": 0.0,
			"-0.024": 0.0,
			"-0.023": 0.0,
			"-0.022": 0.0,
			"-0.021": 0.0,
			"-0.02": 0.0,
			"-0.019": 0.380338091905,
			"-0.018": 0.907766004846,
			"-0.017": 0.871502812463,
			"-0.016": 1.20753092102,
			"-0.015": 2.040316085,
			"-0.014": 1.2120411587,
			"-0.013": 1.58420466792,
			"-0.012": 3.36559305425,
			"-0.011": 3.56681572091,
			"-0.01": 3.00081462043,
			"-0.009": 2.10392925503,
			"-0.008": 6.51872808136,
			"-0.007": 13.2973676113,
			"-0.006": 15.5490777714,
			"-0.005": 11.767813184,
			"-0.004": 12.2579876943,
			"-0.003": 12.9189322455,
			"-0.002": 14.7491800007,
			"-0.001": 15.9555555213,
			"0.0": 19.4120537657,
			"0.001": 18.418000252,
			"0.002": 11.719607777,
			"0.003": 9.98601056855,
			"0.004": 11.0778401627,
			"0.005": 12.5403057751,
			"0.006": 14.3169435977,
			"0.007": 6.69940483631,
			"0.008": 5.30999136701,
			"0.009": 6.42824403546,
			"0.01": 10.5281525927,
			"0.011": 12.2476724518,
			"0.012": 2.55540365763,
			"0.013": 0.0,
			"0.014": 0.0,
			"0.015": 0.0,
			"0.016": 0.0,
			"0.017": 0.0,
			"0.018": 0.0,
			"0.019": 0.0,
			"0.02": 0.0,
			"0.021": 0.0,
			"0.022": 0.0,
			"0.023": 0.0,
			"0.024": 0.0,
			"0.025": 0.0
		}
	}
}
