{
	 "smiles": "OC(=O)C=CC1=CC=C(C=O)C=C1", 
	 "Tm": 525.15, 
	 "num_atms": 21, 
	 "gaussian": { 
		 "optdone": 1, 
		 "sigma_profile": "yes", 
		 "theory": "DFT", 
		 "functional": "B3LYP", 
		 "basiset": "6-31G**", 
		 "properties": { 
			 "R2extent": 4387.3251, 
			 "electric_dipole_moment_norm": 4.36118232249, 
			 "electric_quadrupole_moment_norm": 26.5635319237, 
			 "total_energy": -611.541678729, 
			 "HOMO_LUMO_gap": 0.15657, 
			 "cosmo_polarized_energy": -20.23, 
			 "cosmo_cavitation_energy": 27.15, 
			 "cosmo_dispersion_energy": -19.49, 
			 "cosmo_repulsion_energy": 1.53, 
			 "cosmo_total_nonelectrostatic_energy": 9.19, 
			 "SMD_solvation_energy": 7.07 
		},
		"coords": [
			{
				"x": 4.3751328655,
				"y": 2.2151581483,
				"z": -0.008972916,
				"element": "O" 
			},
			{
				"x": 3.0457829251,
				"y": 2.3721284056,
				"z": -0.2578578115,
				"element": "C" 
			},
			{
				"x": 2.676350832,
				"y": 3.2076738158,
				"z": -1.0510676464,
				"element": "O" 
			},
			{
				"x": 2.1353502331,
				"y": 1.4686106876,
				"z": 0.4960834916,
				"element": "C" 
			},
			{
				"x": 0.8064201427,
				"y": 1.5594325095,
				"z": 0.3084641958,
				"element": "C" 
			},
			{
				"x": -0.2494422594,
				"y": 0.772131149,
				"z": 0.9448424877,
				"element": "C" 
			},
			{
				"x": 0.0052814631,
				"y": -0.2424565239,
				"z": 1.888999865,
				"element": "C" 
			},
			{
				"x": -1.0418111661,
				"y": -0.9548142444,
				"z": 2.4579895714,
				"element": "C" 
			},
			{
				"x": -2.369425586,
				"y": -0.6749360965,
				"z": 2.1010894312,
				"element": "C" 
			},
			{
				"x": -3.4801113095,
				"y": -1.4404419841,
				"z": 2.7136678251,
				"element": "C" 
			},
			{
				"x": -4.6566432814,
				"y": -1.2638701254,
				"z": 2.4625214612,
				"element": "O" 
			},
			{
				"x": -2.6361563847,
				"y": 0.3321301131,
				"z": 1.1626302034,
				"element": "C" 
			},
			{
				"x": -1.5887844951,
				"y": 1.0435623645,
				"z": 0.5944618924,
				"element": "C" 
			},
			{
				"x": 4.5190440592,
				"y": 1.5151673453,
				"z": 0.6426185885,
				"element": "H" 
			},
			{
				"x": 2.5675015795,
				"y": 0.7487075015,
				"z": 1.1881013238,
				"element": "H" 
			},
			{
				"x": 0.4806471916,
				"y": 2.3136341458,
				"z": -0.4062158376,
				"element": "H" 
			},
			{
				"x": 1.0256519622,
				"y": -0.4735526501,
				"z": 2.1775544004,
				"element": "H" 
			},
			{
				"x": -0.8364510077,
				"y": -1.736273897,
				"z": 3.1859001548,
				"element": "H" 
			},
			{
				"x": -3.1610641313,
				"y": -2.2159294402,
				"z": 3.4450187421,
				"element": "H" 
			},
			{
				"x": -3.6688509726,
				"y": 0.5354111986,
				"z": 0.8980637878,
				"element": "H" 
			},
			{
				"x": -1.7946226602,
				"y": 1.8240275769,
				"z": -0.1327932108,
				"element": "H" 
			}
		],
		 "valence_orbital": [ 
			{
				"type": "occ",
				"energy": -0.31278,
				"method": "rhf"
			},
			{
				"type": "occ",
				"energy": -0.28183,
				"method": "rhf"
			},
			{
				"type": "occ",
				"energy": -0.27825,
				"method": "rhf"
			},
			{
				"type": "occ",
				"energy": -0.26615,
				"method": "rhf"
			},
			{
				"type": "occ",
				"energy": -0.25616,
				"method": "rhf"
			},
			{
				"type": "unocc",
				"energy": -0.09959,
				"method": "rhf"
			},
			{
				"type": "unocc",
				"energy": -0.03794,
				"method": "rhf"
			},
			{
				"type": "unocc",
				"energy": -0.0289,
				"method": "rhf"
			},
			{
				"type": "unocc",
				"energy": 0.03616,
				"method": "rhf"
			},
			{
				"type": "unocc",
				"energy": 0.04895,
				"method": "rhf"
			}
		],
		"cosmo_sigma_profile": { 
			"-0.025": 0.0,
			"-0.024": 0.0,
			"-0.023": 0.0,
			"-0.022": 0.0,
			"-0.021": 0.0,
			"-0.02": 0.0236172650903,
			"-0.019": 1.04466869671,
			"-0.018": 1.41322975008,
			"-0.017": 1.11962763885,
			"-0.016": 1.2653371837,
			"-0.015": 0.874265225807,
			"-0.014": 0.50882583477,
			"-0.013": 1.36185792078,
			"-0.012": 1.37548333091,
			"-0.011": 1.24266563396,
			"-0.01": 1.72152692033,
			"-0.009": 2.56185424218,
			"-0.008": 6.03485499195,
			"-0.007": 12.5554736702,
			"-0.006": 12.7108304198,
			"-0.005": 11.9798359157,
			"-0.004": 9.44388039108,
			"-0.003": 10.788561722,
			"-0.002": 11.1124821509,
			"-0.001": 11.5490159549,
			"0.0": 15.1855224304,
			"0.001": 19.1355007459,
			"0.002": 20.9381681977,
			"0.003": 9.28778319809,
			"0.004": 4.22429289579,
			"0.005": 3.54567216157,
			"0.006": 4.06939355957,
			"0.007": 4.07498706966,
			"0.008": 4.15148567885,
			"0.009": 4.73828128846,
			"0.01": 7.44502998184,
			"0.011": 9.16936586477,
			"0.012": 8.14876007045,
			"0.013": 2.83114878282,
			"0.014": 0.261322348456,
			"0.015": 0.0,
			"0.016": 0.0,
			"0.017": 0.0,
			"0.018": 0.0,
			"0.019": 0.0,
			"0.02": 0.0,
			"0.021": 0.0,
			"0.022": 0.0,
			"0.023": 0.0,
			"0.024": 0.0,
			"0.025": 0.0
		}
	}
}
