{
	 "smiles": "N#CC1=CC(=CC=C1)N1C=CC=N1", 
	 "Tm": 335.15, 
	 "num_atms": 20, 
	 "gaussian": { 
		 "optdone": 1, 
		 "sigma_profile": "yes", 
		 "theory": "DFT", 
		 "functional": "B3LYP", 
		 "basiset": "6-31G**", 
		 "properties": { 
			 "R2extent": 2980.7491, 
			 "electric_dipole_moment_norm": 6.07508570721, 
			 "electric_quadrupole_moment_norm": 19.018038514, 
			 "total_energy": -549.494024514, 
			 "HOMO_LUMO_gap": 0.18381, 
			 "cosmo_polarized_energy": -12.51, 
			 "cosmo_cavitation_energy": 25.82, 
			 "cosmo_dispersion_energy": -18.58, 
			 "cosmo_repulsion_energy": 1.43, 
			 "cosmo_total_nonelectrostatic_energy": 8.67, 
			 "SMD_solvation_energy": 5.77 
		},
		"coords": [
			{
				"x": 0.3885528028,
				"y": -1.2321640024,
				"z": -4.5369676983,
				"element": "N" 
			},
			{
				"x": 0.7648123408,
				"y": -1.141464683,
				"z": -3.4402803907,
				"element": "C" 
			},
			{
				"x": 1.2420972743,
				"y": -1.0303846316,
				"z": -2.0906886885,
				"element": "C" 
			},
			{
				"x": 0.3204566838,
				"y": -0.9566949829,
				"z": -1.0385426973,
				"element": "C" 
			},
			{
				"x": 0.7848406751,
				"y": -0.8485335557,
				"z": 0.2758971712,
				"element": "C" 
			},
			{
				"x": 2.1622344222,
				"y": -0.8147591091,
				"z": 0.5302450593,
				"element": "C" 
			},
			{
				"x": 3.0682680502,
				"y": -0.8889650441,
				"z": -0.5271445653,
				"element": "C" 
			},
			{
				"x": 2.6243682918,
				"y": -0.9969278212,
				"z": -1.8413548301,
				"element": "C" 
			},
			{
				"x": -0.1553166366,
				"y": -0.7746868429,
				"z": 1.3326362944,
				"element": "N" 
			},
			{
				"x": 0.0744361546,
				"y": -0.6665030806,
				"z": 2.6796245657,
				"element": "C" 
			},
			{
				"x": -1.1554058485,
				"y": -0.6303215704,
				"z": 3.2948805958,
				"element": "C" 
			},
			{
				"x": -2.0865137484,
				"y": -0.7231771238,
				"z": 2.2322623672,
				"element": "C" 
			},
			{
				"x": -1.4861195515,
				"y": -0.8098846012,
				"z": 1.0530045014,
				"element": "N" 
			},
			{
				"x": -0.7448680273,
				"y": -0.9819407755,
				"z": -1.2245847558,
				"element": "H" 
			},
			{
				"x": 2.5372955453,
				"y": -0.7312836984,
				"z": 1.543476854,
				"element": "H" 
			},
			{
				"x": 4.132741314,
				"y": -0.8617873126,
				"z": -0.3170566552,
				"element": "H" 
			},
			{
				"x": 3.3254674875,
				"y": -1.0548890211,
				"z": -2.6661529745,
				"element": "H" 
			},
			{
				"x": 1.0687138654,
				"y": -0.6240034906,
				"z": 3.094160812,
				"element": "H" 
			},
			{
				"x": -1.3526866835,
				"y": -0.5490507565,
				"z": 4.3530691618,
				"element": "H" 
			},
			{
				"x": -3.1671744119,
				"y": -0.7300778964,
				"z": 2.2812158728,
				"element": "H" 
			}
		],
		 "valence_orbital": [ 
			{
				"type": "occ",
				"energy": -0.30797,
				"method": "rhf"
			},
			{
				"type": "occ",
				"energy": -0.30253,
				"method": "rhf"
			},
			{
				"type": "occ",
				"energy": -0.2749,
				"method": "rhf"
			},
			{
				"type": "occ",
				"energy": -0.26326,
				"method": "rhf"
			},
			{
				"type": "occ",
				"energy": -0.24187,
				"method": "rhf"
			},
			{
				"type": "unocc",
				"energy": -0.05806,
				"method": "rhf"
			},
			{
				"type": "unocc",
				"energy": -0.04092,
				"method": "rhf"
			},
			{
				"type": "unocc",
				"energy": 0.01706,
				"method": "rhf"
			},
			{
				"type": "unocc",
				"energy": 0.03658,
				"method": "rhf"
			},
			{
				"type": "unocc",
				"energy": 0.05769,
				"method": "rhf"
			}
		],
		"cosmo_sigma_profile": { 
			"-0.025": 0.0,
			"-0.024": 0.0,
			"-0.023": 0.0,
			"-0.022": 0.0,
			"-0.021": 0.0,
			"-0.02": 0.0,
			"-0.019": 0.0,
			"-0.018": 0.0,
			"-0.017": 0.0,
			"-0.016": 0.0,
			"-0.015": 0.0,
			"-0.014": 0.0,
			"-0.013": 0.0,
			"-0.012": 0.339761123921,
			"-0.011": 1.85550572055,
			"-0.01": 1.80763106134,
			"-0.009": 2.52494278276,
			"-0.008": 6.20357481191,
			"-0.007": 11.9580643749,
			"-0.006": 11.2523944402,
			"-0.005": 12.3158517696,
			"-0.004": 10.1014061176,
			"-0.003": 11.2775892034,
			"-0.002": 13.3395188375,
			"-0.001": 14.4691856719,
			"0.0": 16.2867939081,
			"0.001": 22.5017427605,
			"0.002": 16.0459762966,
			"0.003": 10.367798997,
			"0.004": 8.92956917884,
			"0.005": 7.12227811781,
			"0.006": 4.50458309202,
			"0.007": 4.11522330142,
			"0.008": 5.0140494783,
			"0.009": 4.91893214742,
			"0.01": 4.30927919048,
			"0.011": 4.44394616423,
			"0.012": 2.87119923446,
			"0.013": 1.24247133667,
			"0.014": 0.0014042196457,
			"0.015": 0.0,
			"0.016": 0.0,
			"0.017": 0.0,
			"0.018": 0.0,
			"0.019": 0.0,
			"0.02": 0.0,
			"0.021": 0.0,
			"0.022": 0.0,
			"0.023": 0.0,
			"0.024": 0.0,
			"0.025": 0.0
		}
	}
}
