{
	 "smiles": "CCOC(=O)CCCCCCCCCCCCCCCCC(=O)OCC", 
	 "Tm": 327.65, 
	 "num_atms": 68, 
	 "gaussian": { 
		 "optdone": 1, 
		 "sigma_profile": "yes", 
		 "theory": "DFT", 
		 "functional": "B3LYP", 
		 "basiset": "6-31G**", 
		 "properties": { 
			 "R2extent": 28099.654, 
			 "electric_dipole_moment_norm": 2.41318931292, 
			 "electric_quadrupole_moment_norm": 20.8434621263, 
			 "total_energy": -1164.62188391, 
			 "HOMO_LUMO_gap": 0.28, 
			 "cosmo_polarized_energy": -12.15, 
			 "cosmo_cavitation_energy": 66.65, 
			 "cosmo_dispersion_energy": -44.17, 
			 "cosmo_repulsion_energy": 3.53, 
			 "cosmo_total_nonelectrostatic_energy": 26.0, 
			 "SMD_solvation_energy": 11.12 
		},
		"coords": [
			{
				"x": 6.7467785331,
				"y": 5.1548014191,
				"z": -2.0826663689,
				"element": "C" 
			},
			{
				"x": 6.2677580071,
				"y": 3.890118044,
				"z": -1.3855831743,
				"element": "C" 
			},
			{
				"x": 6.5348639585,
				"y": 2.7130920158,
				"z": -2.1850699443,
				"element": "O" 
			},
			{
				"x": 5.6126614708,
				"y": 2.3947099403,
				"z": -3.1230050354,
				"element": "C" 
			},
			{
				"x": 4.5914149326,
				"y": 3.0253632855,
				"z": -3.3058664206,
				"element": "O" 
			},
			{
				"x": 6.0480334865,
				"y": 1.1712705288,
				"z": -3.9085112459,
				"element": "C" 
			},
			{
				"x": 4.9472487762,
				"y": 0.5888897819,
				"z": -4.8039875899,
				"element": "C" 
			},
			{
				"x": 3.7519181954,
				"y": -0.0266862281,
				"z": -4.0562234469,
				"element": "C" 
			},
			{
				"x": 4.0938063269,
				"y": -1.2774553721,
				"z": -3.2299849213,
				"element": "C" 
			},
			{
				"x": 2.8932389936,
				"y": -1.9649924472,
				"z": -2.5427986114,
				"element": "C" 
			},
			{
				"x": 2.529963536,
				"y": -1.4574169007,
				"z": -1.132685388,
				"element": "C" 
			},
			{
				"x": 1.9908277031,
				"y": -0.0206247205,
				"z": -1.0071642597,
				"element": "C" 
			},
			{
				"x": 0.690350549,
				"y": 0.2797148323,
				"z": -1.7742012166,
				"element": "C" 
			},
			{
				"x": -0.5611855714,
				"y": -0.5445490535,
				"z": -1.4112309231,
				"element": "C" 
			},
			{
				"x": -1.1527241091,
				"y": -0.3139521871,
				"z": -0.0029283854,
				"element": "C" 
			},
			{
				"x": -0.5800955995,
				"y": -1.2032917114,
				"z": 1.1136940991,
				"element": "C" 
			},
			{
				"x": -1.2873166631,
				"y": -1.046498689,
				"z": 2.4714092639,
				"element": "C" 
			},
			{
				"x": -1.0990672359,
				"y": 0.3325642683,
				"z": 3.1234134917,
				"element": "C" 
			},
			{
				"x": -1.5718565202,
				"y": 0.4661235313,
				"z": 4.5831460882,
				"element": "C" 
			},
			{
				"x": -3.0905231601,
				"y": 0.3588235309,
				"z": 4.8314799087,
				"element": "C" 
			},
			{
				"x": -3.6165645304,
				"y": -1.0680889898,
				"z": 5.020307923,
				"element": "C" 
			},
			{
				"x": -5.086036828,
				"y": -1.1099063388,
				"z": 5.3940155159,
				"element": "C" 
			},
			{
				"x": -5.7703088742,
				"y": -0.1481341573,
				"z": 5.6745886364,
				"element": "O" 
			},
			{
				"x": -5.543310785,
				"y": -2.3848871992,
				"z": 5.3906050973,
				"element": "O" 
			},
			{
				"x": -6.9309104693,
				"y": -2.5759531644,
				"z": 5.7547832774,
				"element": "C" 
			},
			{
				"x": -7.8481984605,
				"y": -2.4044151069,
				"z": 4.5530442824,
				"element": "C" 
			},
			{
				"x": 7.8099511185,
				"y": 5.0843612503,
				"z": -2.3310810137,
				"element": "H" 
			},
			{
				"x": 6.6041400938,
				"y": 6.0192414443,
				"z": -1.4255413949,
				"element": "H" 
			},
			{
				"x": 6.1784825626,
				"y": 5.3254269977,
				"z": -3.0003183799,
				"element": "H" 
			},
			{
				"x": 5.1964716907,
				"y": 3.9386256154,
				"z": -1.176003119,
				"element": "H" 
			},
			{
				"x": 6.8125422501,
				"y": 3.7157414542,
				"z": -0.4544846125,
				"element": "H" 
			},
			{
				"x": 6.4440251141,
				"y": 0.4340114164,
				"z": -3.2024314236,
				"element": "H" 
			},
			{
				"x": 6.9082346205,
				"y": 1.4804181988,
				"z": -4.5172159576,
				"element": "H" 
			},
			{
				"x": 4.5803952393,
				"y": 1.3858477413,
				"z": -5.4595814433,
				"element": "H" 
			},
			{
				"x": 5.4022877056,
				"y": -0.1711167171,
				"z": -5.4525092321,
				"element": "H" 
			},
			{
				"x": 3.2957534577,
				"y": 0.7455542256,
				"z": -3.4303059013,
				"element": "H" 
			},
			{
				"x": 2.9922250419,
				"y": -0.3021204837,
				"z": -4.8000850773,
				"element": "H" 
			},
			{
				"x": 4.8464961288,
				"y": -1.0383908015,
				"z": -2.4657597778,
				"element": "H" 
			},
			{
				"x": 4.573891898,
				"y": -2.0022195385,
				"z": -3.9023128052,
				"element": "H" 
			},
			{
				"x": 3.1226997679,
				"y": -3.0336845425,
				"z": -2.4445630124,
				"element": "H" 
			},
			{
				"x": 2.0170135739,
				"y": -1.9138253648,
				"z": -3.2031219812,
				"element": "H" 
			},
			{
				"x": 3.4227956543,
				"y": -1.5450935396,
				"z": -0.4977075133,
				"element": "H" 
			},
			{
				"x": 1.7958749634,
				"y": -2.1510418407,
				"z": -0.7029364299,
				"element": "H" 
			},
			{
				"x": 2.7566549944,
				"y": 0.6897819838,
				"z": -1.3419348667,
				"element": "H" 
			},
			{
				"x": 1.8436563681,
				"y": 0.1976542693,
				"z": 0.0580857214,
				"element": "H" 
			},
			{
				"x": 0.8762111908,
				"y": 0.1574662175,
				"z": -2.8487642515,
				"element": "H" 
			},
			{
				"x": 0.4518321714,
				"y": 1.3435182001,
				"z": -1.6384315029,
				"element": "H" 
			},
			{
				"x": -0.366660268,
				"y": -1.6163088856,
				"z": -1.554063432,
				"element": "H" 
			},
			{
				"x": -1.3319642808,
				"y": -0.2878277427,
				"z": -2.1490114475,
				"element": "H" 
			},
			{
				"x": -2.2355971743,
				"y": -0.4965351049,
				"z": -0.0464740592,
				"element": "H" 
			},
			{
				"x": -1.0407180938,
				"y": 0.7459155692,
				"z": 0.2617690236,
				"element": "H" 
			},
			{
				"x": -0.6607886689,
				"y": -2.2520372693,
				"z": 0.7963444524,
				"element": "H" 
			},
			{
				"x": 0.4912828252,
				"y": -1.0092910598,
				"z": 1.2475833231,
				"element": "H" 
			},
			{
				"x": -2.3568854899,
				"y": -1.2553875931,
				"z": 2.3356802049,
				"element": "H" 
			},
			{
				"x": -0.9079920232,
				"y": -1.8176513324,
				"z": 3.1562153458,
				"element": "H" 
			},
			{
				"x": -1.6047324398,
				"y": 1.0991347634,
				"z": 2.5216343568,
				"element": "H" 
			},
			{
				"x": -0.0292154367,
				"y": 0.5835721087,
				"z": 3.091753052,
				"element": "H" 
			},
			{
				"x": -1.0440788284,
				"y": -0.2694745509,
				"z": 5.207556522,
				"element": "H" 
			},
			{
				"x": -1.2418568763,
				"y": 1.4490668656,
				"z": 4.9416257294,
				"element": "H" 
			},
			{
				"x": -3.3512780387,
				"y": 0.9260157286,
				"z": 5.7310012705,
				"element": "H" 
			},
			{
				"x": -3.6370112468,
				"y": 0.8442356787,
				"z": 4.0130950054,
				"element": "H" 
			},
			{
				"x": -3.4792778272,
				"y": -1.6907852112,
				"z": 4.1312177071,
				"element": "H" 
			},
			{
				"x": -3.0642532764,
				"y": -1.5793322102,
				"z": 5.8208115791,
				"element": "H" 
			},
			{
				"x": -6.9720865548,
				"y": -3.5953146801,
				"z": 6.1467429103,
				"element": "H" 
			},
			{
				"x": -7.1886591726,
				"y": -1.8709294557,
				"z": 6.5488824596,
				"element": "H" 
			},
			{
				"x": -7.5595731967,
				"y": -3.080621801,
				"z": 3.7427977619,
				"element": "H" 
			},
			{
				"x": -7.8107266002,
				"y": -1.375611995,
				"z": 4.1867196391,
				"element": "H" 
			},
			{
				"x": -8.8815285998,
				"y": -2.6301069205,
				"z": 4.8373419178,
				"element": "H" 
			}
		],
		 "valence_orbital": [ 
			{
				"type": "occ",
				"energy": -0.29347,
				"method": "rhf"
			},
			{
				"type": "occ",
				"energy": -0.29248,
				"method": "rhf"
			},
			{
				"type": "occ",
				"energy": -0.29088,
				"method": "rhf"
			},
			{
				"type": "occ",
				"energy": -0.26708,
				"method": "rhf"
			},
			{
				"type": "occ",
				"energy": -0.26508,
				"method": "rhf"
			},
			{
				"type": "unocc",
				"energy": 0.01492,
				"method": "rhf"
			},
			{
				"type": "unocc",
				"energy": 0.01867,
				"method": "rhf"
			},
			{
				"type": "unocc",
				"energy": 0.07641,
				"method": "rhf"
			},
			{
				"type": "unocc",
				"energy": 0.08663,
				"method": "rhf"
			},
			{
				"type": "unocc",
				"energy": 0.09168,
				"method": "rhf"
			}
		],
		"cosmo_sigma_profile": { 
			"-0.025": 0.0,
			"-0.024": 0.0,
			"-0.023": 0.0,
			"-0.022": 0.0,
			"-0.021": 0.0,
			"-0.02": 0.0,
			"-0.019": 0.0,
			"-0.018": 0.0,
			"-0.017": 0.0,
			"-0.016": 0.0,
			"-0.015": 0.0,
			"-0.014": 0.0,
			"-0.013": 0.0,
			"-0.012": 0.0,
			"-0.011": 0.0,
			"-0.01": 0.0,
			"-0.009": 0.0,
			"-0.008": 0.0,
			"-0.007": 0.0,
			"-0.006": 3.85401447,
			"-0.005": 14.3357780586,
			"-0.004": 29.0724689416,
			"-0.003": 40.6577160765,
			"-0.002": 70.7488552447,
			"-0.001": 101.552354882,
			"0.0": 100.624186311,
			"0.001": 66.5241749909,
			"0.002": 25.104575042,
			"0.003": 6.09904849115,
			"0.004": 7.49173016379,
			"0.005": 6.96580269536,
			"0.006": 5.18108619707,
			"0.007": 4.55138680555,
			"0.008": 5.83837036204,
			"0.009": 5.77900681915,
			"0.01": 3.73232555723,
			"0.011": 4.39451881813,
			"0.012": 7.63654181764,
			"0.013": 2.83517019003,
			"0.014": 0.00501941516573,
			"0.015": 0.0,
			"0.016": 0.0,
			"0.017": 0.0,
			"0.018": 0.0,
			"0.019": 0.0,
			"0.02": 0.0,
			"0.021": 0.0,
			"0.022": 0.0,
			"0.023": 0.0,
			"0.024": 0.0,
			"0.025": 0.0
		}
	}
}
