{
	 "smiles": "NC1=C(C=CC=C1)C1=NC=CN1", 
	 "Tm": 406.15, 
	 "num_atms": 21, 
	 "gaussian": { 
		 "optdone": 1, 
		 "sigma_profile": "yes", 
		 "theory": "DFT", 
		 "functional": "B3LYP", 
		 "basiset": "6-31G**", 
		 "properties": { 
			 "R2extent": 2714.3425, 
			 "electric_dipole_moment_norm": 3.98103606992, 
			 "electric_quadrupole_moment_norm": 11.9497070223, 
			 "total_energy": -512.642384445, 
			 "HOMO_LUMO_gap": 0.17705, 
			 "cosmo_polarized_energy": -14.33, 
			 "cosmo_cavitation_energy": 24.49, 
			 "cosmo_dispersion_energy": -18.61, 
			 "cosmo_repulsion_energy": 1.46, 
			 "cosmo_total_nonelectrostatic_energy": 7.34, 
			 "SMD_solvation_energy": 3.17 
		},
		"coords": [
			{
				"x": 0.8917182021,
				"y": -0.4311318416,
				"z": -2.2995991061,
				"element": "N" 
			},
			{
				"x": 1.0728915241,
				"y": -1.3579730303,
				"z": -1.234465055,
				"element": "C" 
			},
			{
				"x": -0.0043074758,
				"y": -1.6796001443,
				"z": -0.3746974432,
				"element": "C" 
			},
			{
				"x": 0.2066073314,
				"y": -2.6203679741,
				"z": 0.6467997568,
				"element": "C" 
			},
			{
				"x": 1.4536476435,
				"y": -3.2009660784,
				"z": 0.8530777955,
				"element": "C" 
			},
			{
				"x": 2.524548506,
				"y": -2.8431231496,
				"z": 0.0313251428,
				"element": "C" 
			},
			{
				"x": 2.3274771791,
				"y": -1.9373341873,
				"z": -1.0086976895,
				"element": "C" 
			},
			{
				"x": -1.3295389573,
				"y": -1.0561510445,
				"z": -0.4772290105,
				"element": "C" 
			},
			{
				"x": -2.437441744,
				"y": -1.5143338716,
				"z": 0.0920766501,
				"element": "N" 
			},
			{
				"x": -3.4107856909,
				"y": -0.5903729894,
				"z": -0.188366931,
				"element": "C" 
			},
			{
				"x": -2.8997794635,
				"y": 0.446353741,
				"z": -0.9338217506,
				"element": "C" 
			},
			{
				"x": -1.5734475263,
				"y": 0.1328902646,
				"z": -1.122311495,
				"element": "N" 
			},
			{
				"x": 1.7388419825,
				"y": -0.3264490114,
				"z": -2.8477379514,
				"element": "H" 
			},
			{
				"x": 0.1393779596,
				"y": -0.7155844056,
				"z": -2.9224527422,
				"element": "H" 
			},
			{
				"x": -0.6371141285,
				"y": -2.8654036967,
				"z": 1.2828153101,
				"element": "H" 
			},
			{
				"x": 1.5926264367,
				"y": -3.9169827766,
				"z": 1.6571841731,
				"element": "H" 
			},
			{
				"x": 3.507716066,
				"y": -3.2779913298,
				"z": 0.186137676,
				"element": "H" 
			},
			{
				"x": 3.1523062849,
				"y": -1.681549451,
				"z": -1.6704618895,
				"element": "H" 
			},
			{
				"x": -4.4280569265,
				"y": -0.7217135024,
				"z": 0.1542314456,
				"element": "H" 
			},
			{
				"x": -3.344552193,
				"y": 1.3399657465,
				"z": -1.3438019151,
				"element": "H" 
			},
			{
				"x": -0.8514350101,
				"y": 0.6879187325,
				"z": -1.5645049709,
				"element": "H" 
			}
		],
		 "valence_orbital": [ 
			{
				"type": "occ",
				"energy": -0.27659,
				"method": "rhf"
			},
			{
				"type": "occ",
				"energy": -0.26424,
				"method": "rhf"
			},
			{
				"type": "occ",
				"energy": -0.25826,
				"method": "rhf"
			},
			{
				"type": "occ",
				"energy": -0.22663,
				"method": "rhf"
			},
			{
				"type": "occ",
				"energy": -0.19706,
				"method": "rhf"
			},
			{
				"type": "unocc",
				"energy": -0.02001,
				"method": "rhf"
			},
			{
				"type": "unocc",
				"energy": 0.00878,
				"method": "rhf"
			},
			{
				"type": "unocc",
				"energy": 0.05613,
				"method": "rhf"
			},
			{
				"type": "unocc",
				"energy": 0.07326,
				"method": "rhf"
			},
			{
				"type": "unocc",
				"energy": 0.08724,
				"method": "rhf"
			}
		],
		"cosmo_sigma_profile": { 
			"-0.025": 0.0,
			"-0.024": 0.0,
			"-0.023": 0.0,
			"-0.022": 0.0,
			"-0.021": 0.0,
			"-0.02": 0.0,
			"-0.019": 0.0,
			"-0.018": 0.0,
			"-0.017": 0.0,
			"-0.016": 0.0,
			"-0.015": 0.0,
			"-0.014": 0.0,
			"-0.013": 0.636110021461,
			"-0.012": 3.29737990478,
			"-0.011": 3.36474300008,
			"-0.01": 4.57223321954,
			"-0.009": 4.10858747902,
			"-0.008": 6.19618411627,
			"-0.007": 5.97851420876,
			"-0.006": 8.62380740928,
			"-0.005": 10.7395087747,
			"-0.004": 10.9515043181,
			"-0.003": 13.1180206533,
			"-0.002": 10.4866428319,
			"-0.001": 9.98752064703,
			"0.0": 8.85971166204,
			"0.001": 8.68276983704,
			"0.002": 10.5055337628,
			"0.003": 14.1449646892,
			"0.004": 14.1533762713,
			"0.005": 16.6270006007,
			"0.006": 12.9385033444,
			"0.007": 4.07923231313,
			"0.008": 1.92121257166,
			"0.009": 2.29532295609,
			"0.01": 2.54981058481,
			"0.011": 1.46784120043,
			"0.012": 1.12945071914,
			"0.013": 0.961310790562,
			"0.014": 0.737265581187,
			"0.015": 1.05510513863,
			"0.016": 1.0843298726,
			"0.017": 0.672295757961,
			"0.018": 0.0181195320291,
			"0.019": 0.0,
			"0.02": 0.0,
			"0.021": 0.0,
			"0.022": 0.0,
			"0.023": 0.0,
			"0.024": 0.0,
			"0.025": 0.0
		}
	}
}
