{
	 "smiles": "CCOC(=O)C(O)(C1=CC(OC)=C(N)C=C1)C(F)(F)F", 
	 "Tm": 371.15, 
	 "num_atms": 34, 
	 "gaussian": { 
		 "optdone": 1, 
		 "sigma_profile": "yes", 
		 "theory": "DFT", 
		 "functional": "B3LYP", 
		 "basiset": "6-31G**", 
		 "properties": { 
			 "R2extent": 6207.0848, 
			 "electric_dipole_moment_norm": 4.00947001735, 
			 "electric_quadrupole_moment_norm": 13.9728604924, 
			 "total_energy": -1120.88663658, 
			 "HOMO_LUMO_gap": 0.17637, 
			 "cosmo_polarized_energy": -13.23, 
			 "cosmo_cavitation_energy": 38.56, 
			 "cosmo_dispersion_energy": -26.32, 
			 "cosmo_repulsion_energy": 2.02, 
			 "cosmo_total_nonelectrostatic_energy": 14.26, 
			 "SMD_solvation_energy": 9.37 
		},
		"coords": [
			{
				"x": 4.688018203,
				"y": 0.5752183724,
				"z": 2.0881346658,
				"element": "C" 
			},
			{
				"x": 3.9021283964,
				"y": 0.6170159032,
				"z": 0.7883649187,
				"element": "C" 
			},
			{
				"x": 2.476374538,
				"y": 0.4444376457,
				"z": 1.035982606,
				"element": "O" 
			},
			{
				"x": 2.0258362399,
				"y": -0.8025921713,
				"z": 1.1228074399,
				"element": "C" 
			},
			{
				"x": 2.7081362863,
				"y": -1.8048667402,
				"z": 1.01084214,
				"element": "O" 
			},
			{
				"x": 0.5002974253,
				"y": -0.919920464,
				"z": 1.3710596787,
				"element": "C" 
			},
			{
				"x": 0.2423272087,
				"y": -2.2729106492,
				"z": 1.6566280525,
				"element": "O" 
			},
			{
				"x": -0.2983329342,
				"y": -0.4426148371,
				"z": 0.1489745786,
				"element": "C" 
			},
			{
				"x": -1.1616195105,
				"y": -1.3576468475,
				"z": -0.4750350815,
				"element": "C" 
			},
			{
				"x": -1.9099563164,
				"y": -0.9805170875,
				"z": -1.5826980468,
				"element": "C" 
			},
			{
				"x": -2.7717130145,
				"y": -1.8039266983,
				"z": -2.2662383813,
				"element": "O" 
			},
			{
				"x": -2.9282983483,
				"y": -3.1356713115,
				"z": -1.8044829639,
				"element": "C" 
			},
			{
				"x": -1.8196372766,
				"y": 0.331238312,
				"z": -2.1071212732,
				"element": "C" 
			},
			{
				"x": -2.6228251994,
				"y": 0.6909320598,
				"z": -3.1824710388,
				"element": "N" 
			},
			{
				"x": -0.9512111475,
				"y": 1.2282868812,
				"z": -1.4777746515,
				"element": "C" 
			},
			{
				"x": -0.1986111543,
				"y": 0.8528090794,
				"z": -0.3644634549,
				"element": "C" 
			},
			{
				"x": 0.1170656136,
				"y": -0.1468828898,
				"z": 2.6582651624,
				"element": "C" 
			},
			{
				"x": 0.9194295893,
				"y": -0.5222488692,
				"z": 3.6804330141,
				"element": "F" 
			},
			{
				"x": 0.2358497316,
				"y": 1.1894843562,
				"z": 2.527523082,
				"element": "F" 
			},
			{
				"x": -1.1500143881,
				"y": -0.4126221195,
				"z": 3.0054275116,
				"element": "F" 
			},
			{
				"x": 5.7428320002,
				"y": 0.7873704627,
				"z": 1.8851410431,
				"element": "H" 
			},
			{
				"x": 4.314941749,
				"y": 1.3236273041,
				"z": 2.7926649113,
				"element": "H" 
			},
			{
				"x": 4.6199102733,
				"y": -0.4122989833,
				"z": 2.5505781104,
				"element": "H" 
			},
			{
				"x": 4.2291478335,
				"y": -0.1587433533,
				"z": 0.0930003626,
				"element": "H" 
			},
			{
				"x": 3.9676805872,
				"y": 1.5935526004,
				"z": 0.3049277935,
				"element": "H" 
			},
			{
				"x": 1.0911016894,
				"y": -2.731496862,
				"z": 1.5170119022,
				"element": "H" 
			},
			{
				"x": -1.228658735,
				"y": -2.3573939137,
				"z": -0.0690753326,
				"element": "H" 
			},
			{
				"x": -1.9824532964,
				"y": -3.6912652887,
				"z": -1.8447962591,
				"element": "H" 
			},
			{
				"x": -3.6512614442,
				"y": -3.6059728428,
				"z": -2.4731600601,
				"element": "H" 
			},
			{
				"x": -3.3135862832,
				"y": -3.1622144052,
				"z": -0.7775819864,
				"element": "H" 
			},
			{
				"x": -2.9750792599,
				"y": -0.0900500817,
				"z": -3.7177940988,
				"element": "H" 
			},
			{
				"x": -2.276597058,
				"y": 1.4497953876,
				"z": -3.7514137887,
				"element": "H" 
			},
			{
				"x": -0.871369857,
				"y": 2.2411719133,
				"z": -1.8645912665,
				"element": "H" 
			},
			{
				"x": 0.4598478587,
				"y": 1.5773161379,
				"z": 0.0967307105,
				"element": "H" 
			}
		],
		 "valence_orbital": [ 
			{
				"type": "occ",
				"energy": -0.31293,
				"method": "rhf"
			},
			{
				"type": "occ",
				"energy": -0.29359,
				"method": "rhf"
			},
			{
				"type": "occ",
				"energy": -0.28611,
				"method": "rhf"
			},
			{
				"type": "occ",
				"energy": -0.22942,
				"method": "rhf"
			},
			{
				"type": "occ",
				"energy": -0.19069,
				"method": "rhf"
			},
			{
				"type": "unocc",
				"energy": -0.01432,
				"method": "rhf"
			},
			{
				"type": "unocc",
				"energy": 0.01433,
				"method": "rhf"
			},
			{
				"type": "unocc",
				"energy": 0.02093,
				"method": "rhf"
			},
			{
				"type": "unocc",
				"energy": 0.08647,
				"method": "rhf"
			},
			{
				"type": "unocc",
				"energy": 0.08992,
				"method": "rhf"
			}
		],
		"cosmo_sigma_profile": { 
			"-0.025": 0.0,
			"-0.024": 0.0,
			"-0.023": 0.0,
			"-0.022": 0.0,
			"-0.021": 0.0,
			"-0.02": 0.0,
			"-0.019": 0.0,
			"-0.018": 0.0,
			"-0.017": 0.0,
			"-0.016": 0.0,
			"-0.015": 0.0,
			"-0.014": 0.0,
			"-0.013": 0.466625496639,
			"-0.012": 1.72663382723,
			"-0.011": 2.19495947225,
			"-0.01": 2.90982072488,
			"-0.009": 2.31974684288,
			"-0.008": 3.24676311442,
			"-0.007": 4.44505157068,
			"-0.006": 10.2253346134,
			"-0.005": 23.7619543393,
			"-0.004": 24.924255673,
			"-0.003": 24.8710564713,
			"-0.002": 20.6952046182,
			"-0.001": 21.4669776521,
			"0.0": 17.7915290153,
			"0.001": 15.7622430834,
			"0.002": 31.406737723,
			"0.003": 32.8732385438,
			"0.004": 17.7184774433,
			"0.005": 14.9038688438,
			"0.006": 9.72124958408,
			"0.007": 5.09369020086,
			"0.008": 4.79914060005,
			"0.009": 4.32291311081,
			"0.01": 3.58733432731,
			"0.011": 2.06034056203,
			"0.012": 0.391828704736,
			"0.013": 0.727333790802,
			"0.014": 0.608023557472,
			"0.015": 0.0,
			"0.016": 0.0,
			"0.017": 0.0,
			"0.018": 0.0,
			"0.019": 0.0,
			"0.02": 0.0,
			"0.021": 0.0,
			"0.022": 0.0,
			"0.023": 0.0,
			"0.024": 0.0,
			"0.025": 0.0
		}
	}
}
