{
	 "smiles": "[O-][N+](=O)C1=CC(=C(NN=CC2=C(CCCC2)C#C)C=C1)[N+]([O-])=O", 
	 "Tm": 463.15, 
	 "num_atms": 37, 
	 "gaussian": { 
		 "optdone": 1, 
		 "sigma_profile": "yes", 
		 "theory": "DFT", 
		 "functional": "B3LYP", 
		 "basiset": "6-31G**", 
		 "properties": { 
			 "R2extent": 12067.2427, 
			 "electric_dipole_moment_norm": 7.74122644224, 
			 "electric_quadrupole_moment_norm": 34.7674477201, 
			 "total_energy": -1099.6231861, 
			 "HOMO_LUMO_gap": 0.12183, 
			 "cosmo_polarized_energy": -21.07, 
			 "cosmo_cavitation_energy": 43.64, 
			 "cosmo_dispersion_energy": -29.74, 
			 "cosmo_repulsion_energy": 2.25, 
			 "cosmo_total_nonelectrostatic_energy": 16.15, 
			 "SMD_solvation_energy": 12.5 
		},
		"coords": [
			{
				"x": -7.7202039384,
				"y": -0.2854354118,
				"z": 1.2046322412,
				"element": "O" 
			},
			{
				"x": -6.8693146859,
				"y": -1.1644903869,
				"z": 1.0523567203,
				"element": "N" 
			},
			{
				"x": -7.0906603271,
				"y": -2.3748414594,
				"z": 1.1076119282,
				"element": "O" 
			},
			{
				"x": -5.4995056757,
				"y": -0.7356825088,
				"z": 0.7881400538,
				"element": "C" 
			},
			{
				"x": -4.5116851479,
				"y": -1.6930766332,
				"z": 0.5951793361,
				"element": "C" 
			},
			{
				"x": -3.2128566893,
				"y": -1.2851616766,
				"z": 0.3207865256,
				"element": "C" 
			},
			{
				"x": -2.8567397516,
				"y": 0.0869572856,
				"z": 0.3176311693,
				"element": "C" 
			},
			{
				"x": -1.5752745325,
				"y": 0.5581881093,
				"z": 0.1956132315,
				"element": "N" 
			},
			{
				"x": -0.494538091,
				"y": -0.2269119888,
				"z": 0.4146331132,
				"element": "N" 
			},
			{
				"x": 0.6677865149,
				"y": 0.3199547839,
				"z": 0.288337531,
				"element": "C" 
			},
			{
				"x": 1.8733566312,
				"y": -0.4585547726,
				"z": 0.5047930147,
				"element": "C" 
			},
			{
				"x": 3.0999767714,
				"y": 0.1380922831,
				"z": 0.411990833,
				"element": "C" 
			},
			{
				"x": 4.3966189916,
				"y": -0.6223710459,
				"z": 0.6441047363,
				"element": "C" 
			},
			{
				"x": 4.184171035,
				"y": -1.9790868657,
				"z": 1.3250336575,
				"element": "C" 
			},
			{
				"x": 3.0139568838,
				"y": -2.7249511779,
				"z": 0.6785884529,
				"element": "C" 
			},
			{
				"x": 1.7129496976,
				"y": -1.9287725979,
				"z": 0.8306261392,
				"element": "C" 
			},
			{
				"x": 3.2541386243,
				"y": 1.5151019761,
				"z": 0.0740943489,
				"element": "C" 
			},
			{
				"x": 3.4604408841,
				"y": 2.6764251111,
				"z": -0.2071746623,
				"element": "C" 
			},
			{
				"x": -3.8987578634,
				"y": 1.0269014846,
				"z": 0.5001844105,
				"element": "C" 
			},
			{
				"x": -5.2031056638,
				"y": 0.6299091233,
				"z": 0.7209558441,
				"element": "C" 
			},
			{
				"x": -2.2792854032,
				"y": -2.3520433428,
				"z": -0.0719619795,
				"element": "N" 
			},
			{
				"x": -1.6298805598,
				"y": -2.1775203347,
				"z": -1.0994118631,
				"element": "O" 
			},
			{
				"x": -2.2676345665,
				"y": -3.3703999795,
				"z": 0.6160014065,
				"element": "O" 
			},
			{
				"x": -4.755750943,
				"y": -2.7470314904,
				"z": 0.626219477,
				"element": "H" 
			},
			{
				"x": -1.4492834773,
				"y": 1.5617903434,
				"z": 0.0814315189,
				"element": "H" 
			},
			{
				"x": 0.7797811535,
				"y": 1.3760357639,
				"z": 0.0172139661,
				"element": "H" 
			},
			{
				"x": 4.8910998633,
				"y": -0.7596071592,
				"z": -0.3288113355,
				"element": "H" 
			},
			{
				"x": 5.0737068236,
				"y": 0.0085673274,
				"z": 1.2315756312,
				"element": "H" 
			},
			{
				"x": 5.1066043993,
				"y": -2.5672503216,
				"z": 1.2676267148,
				"element": "H" 
			},
			{
				"x": 3.9726570125,
				"y": -1.8245703794,
				"z": 2.3913521911,
				"element": "H" 
			},
			{
				"x": 3.2269292807,
				"y": -2.8807019419,
				"z": -0.3872760801,
				"element": "H" 
			},
			{
				"x": 2.8906705286,
				"y": -3.7183227167,
				"z": 1.1226741482,
				"element": "H" 
			},
			{
				"x": 1.3343983478,
				"y": -2.0170897428,
				"z": 1.8590105488,
				"element": "H" 
			},
			{
				"x": 0.9236419657,
				"y": -2.3458972166,
				"z": 0.1967662571,
				"element": "H" 
			},
			{
				"x": 3.637724382,
				"y": 3.6963482628,
				"z": -0.4592105182,
				"element": "H" 
			},
			{
				"x": -3.6520921878,
				"y": 2.0848413067,
				"z": 0.4972352364,
				"element": "H" 
			},
			{
				"x": -5.9958402867,
				"y": 1.35235799,
				"z": 0.8687460553,
				"element": "H" 
			}
		],
		 "valence_orbital": [ 
			{
				"type": "occ",
				"energy": -0.29092,
				"method": "rhf"
			},
			{
				"type": "occ",
				"energy": -0.28334,
				"method": "rhf"
			},
			{
				"type": "occ",
				"energy": -0.28067,
				"method": "rhf"
			},
			{
				"type": "occ",
				"energy": -0.26195,
				"method": "rhf"
			},
			{
				"type": "occ",
				"energy": -0.21843,
				"method": "rhf"
			},
			{
				"type": "unocc",
				"energy": -0.0966,
				"method": "rhf"
			},
			{
				"type": "unocc",
				"energy": -0.08254,
				"method": "rhf"
			},
			{
				"type": "unocc",
				"energy": -0.05856,
				"method": "rhf"
			},
			{
				"type": "unocc",
				"energy": -0.03365,
				"method": "rhf"
			},
			{
				"type": "unocc",
				"energy": 0.00208,
				"method": "rhf"
			}
		],
		"cosmo_sigma_profile": { 
			"-0.025": 0.0,
			"-0.024": 0.0,
			"-0.023": 0.0,
			"-0.022": 0.0,
			"-0.021": 0.0,
			"-0.02": 0.0,
			"-0.019": 0.0,
			"-0.018": 0.0,
			"-0.017": 0.494162453786,
			"-0.016": 1.85185716468,
			"-0.015": 2.14322610847,
			"-0.014": 2.04062525843,
			"-0.013": 1.25989671776,
			"-0.012": 2.78141950377,
			"-0.011": 2.68839691095,
			"-0.01": 2.77371403274,
			"-0.009": 3.76508563457,
			"-0.008": 7.1232711171,
			"-0.007": 6.45680967999,
			"-0.006": 7.77081732801,
			"-0.005": 8.47199889376,
			"-0.004": 15.1007465816,
			"-0.003": 26.3877234942,
			"-0.002": 40.2914102566,
			"-0.001": 42.4858184509,
			"0.0": 31.5111920712,
			"0.001": 24.4625202863,
			"0.002": 17.4959771741,
			"0.003": 13.4175724239,
			"0.004": 12.1272594522,
			"0.005": 14.3620575425,
			"0.006": 13.6966755639,
			"0.007": 15.4451463082,
			"0.008": 18.630083759,
			"0.009": 8.45084126055,
			"0.01": 4.57742115081,
			"0.011": 0.590542795871,
			"0.012": 0.0,
			"0.013": 0.0,
			"0.014": 0.0,
			"0.015": 0.0,
			"0.016": 0.0,
			"0.017": 0.0,
			"0.018": 0.0,
			"0.019": 0.0,
			"0.02": 0.0,
			"0.021": 0.0,
			"0.022": 0.0,
			"0.023": 0.0,
			"0.024": 0.0,
			"0.025": 0.0
		}
	}
}
