{
	 "smiles": "NC1=CC=C(CCN2C=C(Br)C=N2)C=C1", 
	 "Tm": 339.15, 
	 "num_atms": 27, 
	 "gaussian": { 
		 "optdone": 1, 
		 "sigma_profile": "yes", 
		 "theory": "DFT", 
		 "functional": "B3LYP", 
		 "basiset": "6-31G**", 
		 "properties": { 
			 "R2extent": 6947.8848, 
			 "electric_dipole_moment_norm": 3.22094243041, 
			 "electric_quadrupole_moment_norm": 17.1831178003, 
			 "total_energy": -3162.042942, 
			 "HOMO_LUMO_gap": 0.20151, 
			 "cosmo_polarized_energy": -13.18, 
			 "cosmo_cavitation_energy": 33.53, 
			 "cosmo_dispersion_energy": -23.49, 
			 "cosmo_repulsion_energy": 1.88, 
			 "cosmo_total_nonelectrostatic_energy": 11.92, 
			 "SMD_solvation_energy": 3.73 
		},
		"coords": [
			{
				"x": -1.8803937438,
				"y": -0.849736068,
				"z": 3.8435150715,
				"element": "N" 
			},
			{
				"x": -1.3726711714,
				"y": -0.4213404669,
				"z": 2.6148435646,
				"element": "C" 
			},
			{
				"x": -1.1679439322,
				"y": -1.330755342,
				"z": 1.5632072504,
				"element": "C" 
			},
			{
				"x": -0.7198175237,
				"y": -0.8903317991,
				"z": 0.3213156416,
				"element": "C" 
			},
			{
				"x": -0.4578845014,
				"y": 0.4648688939,
				"z": 0.0755019139,
				"element": "C" 
			},
			{
				"x": 0.0622253083,
				"y": 0.9324270162,
				"z": -1.2647256402,
				"element": "C" 
			},
			{
				"x": 1.600218991,
				"y": 0.9178106013,
				"z": -1.3841832579,
				"element": "C" 
			},
			{
				"x": 2.1642836634,
				"y": -0.4246576187,
				"z": -1.3136619604,
				"element": "N" 
			},
			{
				"x": 2.8318752936,
				"y": -0.9990488903,
				"z": -0.2800804506,
				"element": "C" 
			},
			{
				"x": 3.1025305513,
				"y": -2.2958441702,
				"z": -0.675327217,
				"element": "C" 
			},
			{
				"x": 4.0238236126,
				"y": -3.6093529244,
				"z": 0.3148879229,
				"element": "Br" 
			},
			{
				"x": 2.5510883805,
				"y": -2.4183448309,
				"z": -1.9656275637,
				"element": "C" 
			},
			{
				"x": 1.9784045353,
				"y": -1.2761539206,
				"z": -2.3467794777,
				"element": "N" 
			},
			{
				"x": -0.6658077725,
				"y": 1.3654292772,
				"z": 1.1289776198,
				"element": "C" 
			},
			{
				"x": -1.1134416938,
				"y": 0.9392083945,
				"z": 2.3765219325,
				"element": "C" 
			},
			{
				"x": -1.6700082151,
				"y": -0.2481561623,
				"z": 4.6280497433,
				"element": "H" 
			},
			{
				"x": -1.7107971977,
				"y": -1.8222285755,
				"z": 4.0609229102,
				"element": "H" 
			},
			{
				"x": -1.368411892,
				"y": -2.3875682254,
				"z": 1.7224040927,
				"element": "H" 
			},
			{
				"x": -0.567687172,
				"y": -1.6152014127,
				"z": -0.4742981155,
				"element": "H" 
			},
			{
				"x": -0.265217647,
				"y": 1.9609964057,
				"z": -1.459172587,
				"element": "H" 
			},
			{
				"x": -0.3388766297,
				"y": 0.3115134486,
				"z": -2.0723563371,
				"element": "H" 
			},
			{
				"x": 2.0553782198,
				"y": 1.5030660832,
				"z": -0.5804368505,
				"element": "H" 
			},
			{
				"x": 1.9055298045,
				"y": 1.3507891209,
				"z": -2.3414259323,
				"element": "H" 
			},
			{
				"x": 3.058129232,
				"y": -0.4697698235,
				"z": 0.6323020889,
				"element": "H" 
			},
			{
				"x": 2.5578551417,
				"y": -3.2783796551,
				"z": -2.6201362795,
				"element": "H" 
			},
			{
				"x": -0.4797679865,
				"y": 2.4261129097,
				"z": 0.9718179613,
				"element": "H" 
			},
			{
				"x": -1.2764156553,
				"y": 1.6632477344,
				"z": 3.1714439557,
				"element": "H" 
			}
		],
		 "valence_orbital": [ 
			{
				"type": "occ",
				"energy": -0.27608,
				"method": "rhf"
			},
			{
				"type": "occ",
				"energy": -0.25697,
				"method": "rhf"
			},
			{
				"type": "occ",
				"energy": -0.24589,
				"method": "rhf"
			},
			{
				"type": "occ",
				"energy": -0.22907,
				"method": "rhf"
			},
			{
				"type": "occ",
				"energy": -0.20007,
				"method": "rhf"
			},
			{
				"type": "unocc",
				"energy": 0.00144,
				"method": "rhf"
			},
			{
				"type": "unocc",
				"energy": 0.01093,
				"method": "rhf"
			},
			{
				"type": "unocc",
				"energy": 0.01633,
				"method": "rhf"
			},
			{
				"type": "unocc",
				"energy": 0.02153,
				"method": "rhf"
			},
			{
				"type": "unocc",
				"energy": 0.0628,
				"method": "rhf"
			}
		],
		"cosmo_sigma_profile": { 
			"-0.025": 0.0,
			"-0.024": 0.0,
			"-0.023": 0.0,
			"-0.022": 0.0,
			"-0.021": 0.0,
			"-0.02": 0.0,
			"-0.019": 0.0,
			"-0.018": 0.0,
			"-0.017": 0.0,
			"-0.016": 0.0,
			"-0.015": 0.0,
			"-0.014": 0.0,
			"-0.013": 0.0685096158722,
			"-0.012": 2.01938287902,
			"-0.011": 2.71983135263,
			"-0.01": 3.55541932189,
			"-0.009": 5.35530465104,
			"-0.008": 6.16575482805,
			"-0.007": 7.37632764003,
			"-0.006": 10.2598311607,
			"-0.005": 15.7279740184,
			"-0.004": 20.3864834805,
			"-0.003": 20.1303186249,
			"-0.002": 17.5351549873,
			"-0.001": 14.3396431026,
			"0.0": 17.0402095641,
			"0.001": 15.0197915949,
			"0.002": 16.2642583185,
			"0.003": 22.7207019745,
			"0.004": 23.553216042,
			"0.005": 16.3685760692,
			"0.006": 9.85644518742,
			"0.007": 9.0048425159,
			"0.008": 3.20668566583,
			"0.009": 1.98741736096,
			"0.01": 1.55320044214,
			"0.011": 1.64993758581,
			"0.012": 1.53752875302,
			"0.013": 1.89736673425,
			"0.014": 1.45514288287,
			"0.015": 0.881259648792,
			"0.016": 0.0333532409273,
			"0.017": 0.0,
			"0.018": 0.0,
			"0.019": 0.0,
			"0.02": 0.0,
			"0.021": 0.0,
			"0.022": 0.0,
			"0.023": 0.0,
			"0.024": 0.0,
			"0.025": 0.0
		}
	}
}
