{
	 "smiles": "COC1=CC=C(C=C1)C(C=C(SC)SC)=C(C#N)C#N", 
	 "Tm": 423.15, 
	 "num_atms": 34, 
	 "gaussian": { 
		 "optdone": 1, 
		 "sigma_profile": "yes", 
		 "theory": "DFT", 
		 "functional": "B3LYP", 
		 "basiset": "6-31G**", 
		 "properties": { 
			 "R2extent": 8440.2162, 
			 "electric_dipole_moment_norm": 8.42669855815, 
			 "electric_quadrupole_moment_norm": 30.8692674089, 
			 "total_energy": -1561.04682058, 
			 "HOMO_LUMO_gap": 0.13525, 
			 "cosmo_polarized_energy": -21.5, 
			 "cosmo_cavitation_energy": 42.96, 
			 "cosmo_dispersion_energy": -29.04, 
			 "cosmo_repulsion_energy": 2.2, 
			 "cosmo_total_nonelectrostatic_energy": 16.12, 
			 "SMD_solvation_energy": 10.68 
		},
		"coords": [
			{
				"x": -2.7464632862,
				"y": 1.6545809526,
				"z": 5.161490253,
				"element": "C" 
			},
			{
				"x": -1.7200901543,
				"y": 0.7507942063,
				"z": 4.7689748841,
				"element": "O" 
			},
			{
				"x": -1.2383312554,
				"y": 0.8258804301,
				"z": 3.5028746905,
				"element": "C" 
			},
			{
				"x": -1.701066988,
				"y": 1.7165556031,
				"z": 2.5238132212,
				"element": "C" 
			},
			{
				"x": -1.1266122696,
				"y": 1.7093138126,
				"z": 1.2556979377,
				"element": "C" 
			},
			{
				"x": -0.0880552678,
				"y": 0.8229785215,
				"z": 0.9242831765,
				"element": "C" 
			},
			{
				"x": 0.3478558122,
				"y": -0.0788427283,
				"z": 1.9191608323,
				"element": "C" 
			},
			{
				"x": -0.207564211,
				"y": -0.0757733707,
				"z": 3.1873076128,
				"element": "C" 
			},
			{
				"x": 0.5189722449,
				"y": 0.7832870315,
				"z": -0.4220270147,
				"element": "C" 
			},
			{
				"x": 0.8378832885,
				"y": -0.546990343,
				"z": -0.9284529535,
				"element": "C" 
			},
			{
				"x": 1.978768124,
				"y": -0.9920302617,
				"z": -1.5313235442,
				"element": "C" 
			},
			{
				"x": 2.2150571081,
				"y": -2.685605042,
				"z": -2.0106400036,
				"element": "S" 
			},
			{
				"x": 0.7144731436,
				"y": -3.5406946844,
				"z": -1.431119831,
				"element": "C" 
			},
			{
				"x": 3.3519011064,
				"y": 0.0621779524,
				"z": -1.930338193,
				"element": "S" 
			},
			{
				"x": 4.8101948275,
				"y": -0.9730458754,
				"z": -1.5203343701,
				"element": "C" 
			},
			{
				"x": 0.7241432549,
				"y": 1.9330931205,
				"z": -1.1659229685,
				"element": "C" 
			},
			{
				"x": 0.6260723435,
				"y": 3.2530164685,
				"z": -0.6171607783,
				"element": "C" 
			},
			{
				"x": 0.573284576,
				"y": 4.3438394916,
				"z": -0.2125681083,
				"element": "N" 
			},
			{
				"x": 0.989354218,
				"y": 1.9012466644,
				"z": -2.5714087953,
				"element": "C" 
			},
			{
				"x": 1.1637905582,
				"y": 1.912763692,
				"z": -3.7230979576,
				"element": "N" 
			},
			{
				"x": -2.9592252281,
				"y": 1.4288266975,
				"z": 6.2069854029,
				"element": "H" 
			},
			{
				"x": -2.4178546012,
				"y": 2.6971666928,
				"z": 5.0745436326,
				"element": "H" 
			},
			{
				"x": -3.6574885422,
				"y": 1.5109001313,
				"z": 4.5676885758,
				"element": "H" 
			},
			{
				"x": -2.506377279,
				"y": 2.4095166571,
				"z": 2.7343929659,
				"element": "H" 
			},
			{
				"x": -1.5129435447,
				"y": 2.3922277658,
				"z": 0.5078250099,
				"element": "H" 
			},
			{
				"x": 1.1536527281,
				"y": -0.7694740597,
				"z": 1.6913457634,
				"element": "H" 
			},
			{
				"x": 0.1401085373,
				"y": -0.7551232991,
				"z": 3.9583526323,
				"element": "H" 
			},
			{
				"x": 0.0848491565,
				"y": -1.2905777363,
				"z": -0.6890204959,
				"element": "H" 
			},
			{
				"x": -0.1777749999,
				"y": -3.1680156375,
				"z": -1.9384933845,
				"element": "H" 
			},
			{
				"x": 0.8642980806,
				"y": -4.5893496825,
				"z": -1.6969846764,
				"element": "H" 
			},
			{
				"x": 0.60047458,
				"y": -3.4613354405,
				"z": -0.3475551731,
				"element": "H" 
			},
			{
				"x": 4.7476447996,
				"y": -1.3615455791,
				"z": -0.5029585828,
				"element": "H" 
			},
			{
				"x": 4.9529307461,
				"y": -1.7866943847,
				"z": -2.231616145,
				"element": "H" 
			},
			{
				"x": 5.6567383931,
				"y": -0.2861677666,
				"z": -1.5926136151,
				"element": "H" 
			}
		],
		 "valence_orbital": [ 
			{
				"type": "occ",
				"energy": -0.28209,
				"method": "rhf"
			},
			{
				"type": "occ",
				"energy": -0.27016,
				"method": "rhf"
			},
			{
				"type": "occ",
				"energy": -0.25133,
				"method": "rhf"
			},
			{
				"type": "occ",
				"energy": -0.23494,
				"method": "rhf"
			},
			{
				"type": "occ",
				"energy": -0.22407,
				"method": "rhf"
			},
			{
				"type": "unocc",
				"energy": -0.08882,
				"method": "rhf"
			},
			{
				"type": "unocc",
				"energy": -0.02586,
				"method": "rhf"
			},
			{
				"type": "unocc",
				"energy": -0.01657,
				"method": "rhf"
			},
			{
				"type": "unocc",
				"energy": 0.00747,
				"method": "rhf"
			},
			{
				"type": "unocc",
				"energy": 0.01817,
				"method": "rhf"
			}
		],
		"cosmo_sigma_profile": { 
			"-0.025": 0.0,
			"-0.024": 0.0,
			"-0.023": 0.0,
			"-0.022": 0.0,
			"-0.021": 0.0,
			"-0.02": 0.0,
			"-0.019": 0.0,
			"-0.018": 0.0,
			"-0.017": 0.0,
			"-0.016": 0.0,
			"-0.015": 0.0,
			"-0.014": 0.0,
			"-0.013": 0.0,
			"-0.012": 0.0,
			"-0.011": 0.0,
			"-0.01": 0.0,
			"-0.009": 0.0148566912049,
			"-0.008": 3.75038708499,
			"-0.007": 16.635261424,
			"-0.006": 27.8209578428,
			"-0.005": 29.3151880722,
			"-0.004": 27.970139,
			"-0.003": 31.0140780105,
			"-0.002": 27.712020906,
			"-0.001": 19.9253521849,
			"0.0": 17.7354697809,
			"0.001": 16.7946910685,
			"0.002": 23.2387934085,
			"0.003": 24.7059008238,
			"0.004": 15.3215346617,
			"0.005": 11.0788446655,
			"0.006": 10.3273514809,
			"0.007": 8.31406267845,
			"0.008": 7.94937372387,
			"0.009": 8.87606461037,
			"0.01": 6.34575989466,
			"0.011": 5.64305629673,
			"0.012": 5.21915865595,
			"0.013": 2.24660013957,
			"0.014": 0.0,
			"0.015": 0.0,
			"0.016": 0.0,
			"0.017": 0.0,
			"0.018": 0.0,
			"0.019": 0.0,
			"0.02": 0.0,
			"0.021": 0.0,
			"0.022": 0.0,
			"0.023": 0.0,
			"0.024": 0.0,
			"0.025": 0.0
		}
	}
}
