{
	 "smiles": "CC1=CC(C=O)=C(C)N1C1=CC(=C(Cl)C=C1)C(F)(F)F", 
	 "Tm": 362.15, 
	 "num_atms": 31, 
	 "gaussian": { 
		 "optdone": 1, 
		 "sigma_profile": "yes", 
		 "theory": "DFT", 
		 "functional": "B3LYP", 
		 "basiset": "6-31G**", 
		 "properties": { 
			 "R2extent": 8613.5626, 
			 "electric_dipole_moment_norm": 4.32331930003, 
			 "electric_quadrupole_moment_norm": 19.7448769437, 
			 "total_energy": -1429.80784609, 
			 "HOMO_LUMO_gap": 0.15719, 
			 "cosmo_polarized_energy": -11.92, 
			 "cosmo_cavitation_energy": 38.55, 
			 "cosmo_dispersion_energy": -25.88, 
			 "cosmo_repulsion_energy": 1.94, 
			 "cosmo_total_nonelectrostatic_energy": 14.61, 
			 "SMD_solvation_energy": 8.6 
		},
		"coords": [
			{
				"x": -2.3672169632,
				"y": 0.3455790787,
				"z": -0.7257313716,
				"element": "C" 
			},
			{
				"x": -0.9362418311,
				"y": 0.1887394625,
				"z": -1.1284079326,
				"element": "C" 
			},
			{
				"x": -0.3188755075,
				"y": 0.3960666295,
				"z": -2.3321463372,
				"element": "C" 
			},
			{
				"x": 1.0816657422,
				"y": 0.1319449766,
				"z": -2.1728694576,
				"element": "C" 
			},
			{
				"x": 2.0786759307,
				"y": 0.2264229568,
				"z": -3.2305559333,
				"element": "C" 
			},
			{
				"x": 3.2771145064,
				"y": 0.001524412,
				"z": -3.1238128059,
				"element": "O" 
			},
			{
				"x": 1.2916374359,
				"y": -0.2339700688,
				"z": -0.844455196,
				"element": "C" 
			},
			{
				"x": 2.550056896,
				"y": -0.6349805301,
				"z": -0.1463882613,
				"element": "C" 
			},
			{
				"x": 0.062152867,
				"y": -0.1974664147,
				"z": -0.2182081249,
				"element": "N" 
			},
			{
				"x": -0.1674394363,
				"y": -0.5171239935,
				"z": 1.1545510253,
				"element": "C" 
			},
			{
				"x": 0.2003937826,
				"y": 0.3866974524,
				"z": 2.1524494536,
				"element": "C" 
			},
			{
				"x": -0.0138262461,
				"y": 0.0931605954,
				"z": 3.5013542957,
				"element": "C" 
			},
			{
				"x": -0.6174077264,
				"y": -1.1284587993,
				"z": 3.8403437461,
				"element": "C" 
			},
			{
				"x": -0.9257229938,
				"y": -1.5715222018,
				"z": 5.5039343191,
				"element": "Cl" 
			},
			{
				"x": -0.9907142005,
				"y": -2.0327964891,
				"z": 2.845485852,
				"element": "C" 
			},
			{
				"x": -0.7629188396,
				"y": -1.7307840824,
				"z": 1.5053355419,
				"element": "C" 
			},
			{
				"x": 0.4030227657,
				"y": 1.105256441,
				"z": 4.5476589625,
				"element": "C" 
			},
			{
				"x": 0.9559017636,
				"y": 2.1974689886,
				"z": 3.9762846958,
				"element": "F" 
			},
			{
				"x": 1.3150787874,
				"y": 0.5959544446,
				"z": 5.3980805068,
				"element": "F" 
			},
			{
				"x": -0.6470710082,
				"y": 1.5272601336,
				"z": 5.2788736054,
				"element": "F" 
			},
			{
				"x": -2.8210784316,
				"y": -0.596338744,
				"z": -0.3952772846,
				"element": "H" 
			},
			{
				"x": -2.491168888,
				"y": 1.0672308577,
				"z": 0.0906519679,
				"element": "H" 
			},
			{
				"x": -2.9421429358,
				"y": 0.7076708832,
				"z": -1.581014975,
				"element": "H" 
			},
			{
				"x": -0.8089363711,
				"y": 0.7123535086,
				"z": -3.2434737798,
				"element": "H" 
			},
			{
				"x": 1.6573145163,
				"y": 0.5360722601,
				"z": -4.2137830256,
				"element": "H" 
			},
			{
				"x": 2.4574551839,
				"y": -1.6236747676,
				"z": 0.3186190811,
				"element": "H" 
			},
			{
				"x": 2.8247023078,
				"y": 0.071109669,
				"z": 0.6463584019,
				"element": "H" 
			},
			{
				"x": 3.3550106545,
				"y": -0.6586708077,
				"z": -0.8807429746,
				"element": "H" 
			},
			{
				"x": 0.6535229536,
				"y": 1.3312798343,
				"z": 1.8783595484,
				"element": "H" 
			},
			{
				"x": -1.4513504843,
				"y": -2.9724664513,
				"z": 3.1279905409,
				"element": "H" 
			},
			{
				"x": -1.0390942301,
				"y": -2.4379392343,
				"z": 0.7300359159,
				"element": "H" 
			}
		],
		 "valence_orbital": [ 
			{
				"type": "occ",
				"energy": -0.2996,
				"method": "rhf"
			},
			{
				"type": "occ",
				"energy": -0.27942,
				"method": "rhf"
			},
			{
				"type": "occ",
				"energy": -0.25401,
				"method": "rhf"
			},
			{
				"type": "occ",
				"energy": -0.239,
				"method": "rhf"
			},
			{
				"type": "occ",
				"energy": -0.21628,
				"method": "rhf"
			},
			{
				"type": "unocc",
				"energy": -0.05909,
				"method": "rhf"
			},
			{
				"type": "unocc",
				"energy": -0.04924,
				"method": "rhf"
			},
			{
				"type": "unocc",
				"energy": -0.03213,
				"method": "rhf"
			},
			{
				"type": "unocc",
				"energy": 0.00724,
				"method": "rhf"
			},
			{
				"type": "unocc",
				"energy": 0.02911,
				"method": "rhf"
			}
		],
		"cosmo_sigma_profile": { 
			"-0.025": 0.0,
			"-0.024": 0.0,
			"-0.023": 0.0,
			"-0.022": 0.0,
			"-0.021": 0.0,
			"-0.02": 0.0,
			"-0.019": 0.0,
			"-0.018": 0.0,
			"-0.017": 0.0,
			"-0.016": 0.0,
			"-0.015": 0.0,
			"-0.014": 0.0,
			"-0.013": 0.0,
			"-0.012": 0.0,
			"-0.011": 0.0,
			"-0.01": 0.0,
			"-0.009": 0.994059081018,
			"-0.008": 5.5224575352,
			"-0.007": 5.47931579313,
			"-0.006": 9.51329264665,
			"-0.005": 18.3650132104,
			"-0.004": 22.7796215244,
			"-0.003": 25.0700176375,
			"-0.002": 23.7035266396,
			"-0.001": 36.2271246736,
			"0.0": 32.1084829864,
			"0.001": 21.7559926402,
			"0.002": 32.6293479981,
			"0.003": 33.503626238,
			"0.004": 14.601506284,
			"0.005": 5.88904427607,
			"0.006": 5.30593910902,
			"0.007": 2.30500290449,
			"0.008": 1.24710568928,
			"0.009": 1.77128092979,
			"0.01": 2.06531698605,
			"0.011": 2.73556123409,
			"0.012": 2.96438371042,
			"0.013": 2.77282122188,
			"0.014": 1.22349750591,
			"0.015": 0.0670461506406,
			"0.016": 0.0,
			"0.017": 0.0,
			"0.018": 0.0,
			"0.019": 0.0,
			"0.02": 0.0,
			"0.021": 0.0,
			"0.022": 0.0,
			"0.023": 0.0,
			"0.024": 0.0,
			"0.025": 0.0
		}
	}
}
