{
	 "smiles": "COC1=CC(Cl)=CC(Cl)=C1", 
	 "Tm": 313.65, 
	 "num_atms": 16, 
	 "gaussian": { 
		 "optdone": 1, 
		 "sigma_profile": "yes", 
		 "theory": "DFT", 
		 "functional": "B3LYP", 
		 "basiset": "6-31G**", 
		 "properties": { 
			 "R2extent": 2627.2034, 
			 "electric_dipole_moment_norm": 2.89098145791, 
			 "electric_quadrupole_moment_norm": 5.05123348797, 
			 "total_energy": -1265.95756236, 
			 "HOMO_LUMO_gap": 0.2147, 
			 "cosmo_polarized_energy": -5.34, 
			 "cosmo_cavitation_energy": 23.82, 
			 "cosmo_dispersion_energy": -17.96, 
			 "cosmo_repulsion_energy": 1.46, 
			 "cosmo_total_nonelectrostatic_energy": 7.32, 
			 "SMD_solvation_energy": 4.36 
		},
		"coords": [
			{
				"x": -1.6978903526,
				"y": 2.1434261523,
				"z": -0.2073740796,
				"element": "C" 
			},
			{
				"x": -1.607326088,
				"y": 0.857104992,
				"z": -0.8059280342,
				"element": "O" 
			},
			{
				"x": -0.5887059943,
				"y": 0.038454802,
				"z": -0.4331994559,
				"element": "C" 
			},
			{
				"x": -0.5633843206,
				"y": -1.2148580264,
				"z": -1.0653997849,
				"element": "C" 
			},
			{
				"x": 0.4450561899,
				"y": -2.110154513,
				"z": -0.7403920969,
				"element": "C" 
			},
			{
				"x": 0.4794956442,
				"y": -3.6786592193,
				"z": -1.5293549166,
				"element": "Cl" 
			},
			{
				"x": 1.4388671979,
				"y": -1.8089673943,
				"z": 0.1955887522,
				"element": "C" 
			},
			{
				"x": 1.3831400929,
				"y": -0.5589969741,
				"z": 0.80216458,
				"element": "C" 
			},
			{
				"x": 2.6117929744,
				"y": -0.1360627886,
				"z": 1.9855345108,
				"element": "Cl" 
			},
			{
				"x": 0.3893465816,
				"y": 0.3770405561,
				"z": 0.509875131,
				"element": "C" 
			},
			{
				"x": -1.8327069364,
				"y": 2.0734473772,
				"z": 0.8791519774,
				"element": "H" 
			},
			{
				"x": -2.5753975578,
				"y": 2.6165476215,
				"z": -0.6492526129,
				"element": "H" 
			},
			{
				"x": -0.8108999274,
				"y": 2.7517192219,
				"z": -0.4238038572,
				"element": "H" 
			},
			{
				"x": -1.3280737493,
				"y": -1.459185397,
				"z": -1.7921077981,
				"element": "H" 
			},
			{
				"x": 2.2183042853,
				"y": -2.5193634154,
				"z": 0.4371891652,
				"element": "H" 
			},
			{
				"x": 0.39338196,
				"y": 1.334907005,
				"z": 1.0114085198,
				"element": "H" 
			}
		],
		 "valence_orbital": [ 
			{
				"type": "occ",
				"energy": -0.32359,
				"method": "rhf"
			},
			{
				"type": "occ",
				"energy": -0.31435,
				"method": "rhf"
			},
			{
				"type": "occ",
				"energy": -0.30279,
				"method": "rhf"
			},
			{
				"type": "occ",
				"energy": -0.25272,
				"method": "rhf"
			},
			{
				"type": "occ",
				"energy": -0.23857,
				"method": "rhf"
			},
			{
				"type": "unocc",
				"energy": -0.02387,
				"method": "rhf"
			},
			{
				"type": "unocc",
				"energy": -0.0107,
				"method": "rhf"
			},
			{
				"type": "unocc",
				"energy": 0.00463,
				"method": "rhf"
			},
			{
				"type": "unocc",
				"energy": 0.05063,
				"method": "rhf"
			},
			{
				"type": "unocc",
				"energy": 0.09159,
				"method": "rhf"
			}
		],
		"cosmo_sigma_profile": { 
			"-0.025": 0.0,
			"-0.024": 0.0,
			"-0.023": 0.0,
			"-0.022": 0.0,
			"-0.021": 0.0,
			"-0.02": 0.0,
			"-0.019": 0.0,
			"-0.018": 0.0,
			"-0.017": 0.0,
			"-0.016": 0.0,
			"-0.015": 0.0,
			"-0.014": 0.0,
			"-0.013": 0.0,
			"-0.012": 0.0,
			"-0.011": 0.0,
			"-0.01": 0.0,
			"-0.009": 0.050849920576,
			"-0.008": 2.70988380189,
			"-0.007": 6.55596828803,
			"-0.006": 10.4063279472,
			"-0.005": 11.871829661,
			"-0.004": 12.2289385211,
			"-0.003": 11.9651897951,
			"-0.002": 10.5683373216,
			"-0.001": 9.52862461091,
			"0.0": 13.646396164,
			"0.001": 23.6892164783,
			"0.002": 30.6666429181,
			"0.003": 16.8632186795,
			"0.004": 21.5143216578,
			"0.005": 7.63472037729,
			"0.006": 1.42685099896,
			"0.007": 1.01168210497,
			"0.008": 1.06569437197,
			"0.009": 1.70327868188,
			"0.01": 0.232573255899,
			"0.011": 0.0,
			"0.012": 0.0,
			"0.013": 0.0,
			"0.014": 0.0,
			"0.015": 0.0,
			"0.016": 0.0,
			"0.017": 0.0,
			"0.018": 0.0,
			"0.019": 0.0,
			"0.02": 0.0,
			"0.021": 0.0,
			"0.022": 0.0,
			"0.023": 0.0,
			"0.024": 0.0,
			"0.025": 0.0
		}
	}
}
