{
	 "smiles": "CC(C)(C)OC(=O)NC1=CC=CC=N1", 
	 "Tm": 366.15, 
	 "num_atms": 28, 
	 "gaussian": { 
		 "optdone": 1, 
		 "sigma_profile": "yes", 
		 "theory": "DFT", 
		 "functional": "B3LYP", 
		 "basiset": "6-31G**", 
		 "properties": { 
			 "R2extent": 5082.2938, 
			 "electric_dipole_moment_norm": 3.40026245164, 
			 "electric_quadrupole_moment_norm": 14.5098310197, 
			 "total_energy": -649.485892915, 
			 "HOMO_LUMO_gap": 0.20677, 
			 "cosmo_polarized_energy": -15.4, 
			 "cosmo_cavitation_energy": 31.31, 
			 "cosmo_dispersion_energy": -22.63, 
			 "cosmo_repulsion_energy": 1.79, 
			 "cosmo_total_nonelectrostatic_energy": 10.47, 
			 "SMD_solvation_energy": 5.5 
		},
		"coords": [
			{
				"x": 2.7141125756,
				"y": -1.0434522753,
				"z": -0.7355001328,
				"element": "C" 
			},
			{
				"x": 1.5523092054,
				"y": -0.6183614369,
				"z": 0.1665266196,
				"element": "C" 
			},
			{
				"x": 1.5817461693,
				"y": 0.8936930251,
				"z": 0.4147377062,
				"element": "C" 
			},
			{
				"x": 1.5553912548,
				"y": -1.4216394439,
				"z": 1.4717617359,
				"element": "C" 
			},
			{
				"x": 0.3750288298,
				"y": -0.9737453001,
				"z": -0.6413378968,
				"element": "O" 
			},
			{
				"x": -0.8833770207,
				"y": -0.7447210383,
				"z": -0.1726894359,
				"element": "C" 
			},
			{
				"x": -1.1780924257,
				"y": -0.254229314,
				"z": 0.8925726587,
				"element": "O" 
			},
			{
				"x": -1.7530925376,
				"y": -1.1868465461,
				"z": -1.1614998193,
				"element": "N" 
			},
			{
				"x": -3.1526870744,
				"y": -1.1814341626,
				"z": -1.1865989301,
				"element": "C" 
			},
			{
				"x": -3.7845709084,
				"y": -1.7012833302,
				"z": -2.335081488,
				"element": "C" 
			},
			{
				"x": -5.1710221243,
				"y": -1.704428786,
				"z": -2.3789540799,
				"element": "C" 
			},
			{
				"x": -5.8893589915,
				"y": -1.1965423135,
				"z": -1.2924293379,
				"element": "C" 
			},
			{
				"x": -5.162249928,
				"y": -0.708316461,
				"z": -0.2101635209,
				"element": "C" 
			},
			{
				"x": -3.8252043055,
				"y": -0.6944943867,
				"z": -0.1445249915,
				"element": "N" 
			},
			{
				"x": 2.6850060131,
				"y": -0.5010201465,
				"z": -1.6851138187,
				"element": "H" 
			},
			{
				"x": 3.6681230401,
				"y": -0.8303232152,
				"z": -0.2442863529,
				"element": "H" 
			},
			{
				"x": 2.666334818,
				"y": -2.1154858017,
				"z": -0.9483614788,
				"element": "H" 
			},
			{
				"x": 2.5170708516,
				"y": 1.1649981557,
				"z": 0.9150688906,
				"element": "H" 
			},
			{
				"x": 1.535383225,
				"y": 1.4356858102,
				"z": -0.5352072676,
				"element": "H" 
			},
			{
				"x": 0.7448477908,
				"y": 1.2044363793,
				"z": 1.040435754,
				"element": "H" 
			},
			{
				"x": 0.7184940868,
				"y": -1.1364261516,
				"z": 2.1095122082,
				"element": "H" 
			},
			{
				"x": 2.4899143436,
				"y": -1.2392761397,
				"z": 2.0123022168,
				"element": "H" 
			},
			{
				"x": 1.4902649828,
				"y": -2.4933483341,
				"z": 1.2584569023,
				"element": "H" 
			},
			{
				"x": -1.2910319584,
				"y": -1.564932448,
				"z": -1.9751555938,
				"element": "H" 
			},
			{
				"x": -3.1975011879,
				"y": -2.0889412661,
				"z": -3.1631716233,
				"element": "H" 
			},
			{
				"x": -5.6856823156,
				"y": -2.0985263733,
				"z": -3.2505931184,
				"element": "H" 
			},
			{
				"x": -6.9738908592,
				"y": -1.1800948303,
				"z": -1.2855403055,
				"element": "H" 
			},
			{
				"x": -5.6761655493,
				"y": -0.3024438692,
				"z": 0.6597344997,
				"element": "H" 
			}
		],
		 "valence_orbital": [ 
			{
				"type": "occ",
				"energy": -0.28813,
				"method": "rhf"
			},
			{
				"type": "occ",
				"energy": -0.28327,
				"method": "rhf"
			},
			{
				"type": "occ",
				"energy": -0.27469,
				"method": "rhf"
			},
			{
				"type": "occ",
				"energy": -0.24077,
				"method": "rhf"
			},
			{
				"type": "occ",
				"energy": -0.22703,
				"method": "rhf"
			},
			{
				"type": "unocc",
				"energy": -0.02026,
				"method": "rhf"
			},
			{
				"type": "unocc",
				"energy": -0.00785,
				"method": "rhf"
			},
			{
				"type": "unocc",
				"energy": 0.06565,
				"method": "rhf"
			},
			{
				"type": "unocc",
				"energy": 0.07762,
				"method": "rhf"
			},
			{
				"type": "unocc",
				"energy": 0.08887,
				"method": "rhf"
			}
		],
		"cosmo_sigma_profile": { 
			"-0.025": 0.0,
			"-0.024": 0.0,
			"-0.023": 0.0,
			"-0.022": 0.0,
			"-0.021": 0.0,
			"-0.02": 0.0,
			"-0.019": 0.0,
			"-0.018": 0.0,
			"-0.017": 0.0,
			"-0.016": 0.0448659489195,
			"-0.015": 0.860242984243,
			"-0.014": 1.17497505668,
			"-0.013": 1.30754857139,
			"-0.012": 0.848319557726,
			"-0.011": 1.18978986423,
			"-0.01": 1.17513078476,
			"-0.009": 0.946181346157,
			"-0.008": 1.68962011376,
			"-0.007": 4.79210055126,
			"-0.006": 7.99263721484,
			"-0.005": 11.2847208968,
			"-0.004": 19.6039448654,
			"-0.003": 20.482881137,
			"-0.002": 20.3947035047,
			"-0.001": 24.2346654981,
			"0.0": 32.9082753714,
			"0.001": 27.3967827197,
			"0.002": 14.8397801071,
			"0.003": 14.8380607745,
			"0.004": 7.61722483356,
			"0.005": 4.98436346381,
			"0.006": 4.4517279857,
			"0.007": 2.33273564412,
			"0.008": 1.80003560246,
			"0.009": 2.62590538907,
			"0.01": 2.18034512026,
			"0.011": 1.27304254283,
			"0.012": 2.15607811828,
			"0.013": 2.24157665309,
			"0.014": 1.61301938455,
			"0.015": 0.985669144343,
			"0.016": 1.81142786374,
			"0.017": 0.889691564438,
			"0.018": 0.924139442553,
			"0.019": 0.817378702131,
			"0.02": 0.327487588552,
			"0.021": 0.0,
			"0.022": 0.0,
			"0.023": 0.0,
			"0.024": 0.0,
			"0.025": 0.0
		}
	}
}
