{
	 "smiles": "CC1=NN(C(OC2=CC=C(F)C=C2)=C1C=O)C1=CC=CC=C1", 
	 "Tm": 379.15, 
	 "num_atms": 35, 
	 "gaussian": { 
		 "optdone": 1, 
		 "sigma_profile": "yes", 
		 "theory": "DFT", 
		 "functional": "B3LYP", 
		 "basiset": "6-31G**", 
		 "properties": { 
			 "R2extent": 7616.9642, 
			 "electric_dipole_moment_norm": 2.73834955767, 
			 "electric_quadrupole_moment_norm": 13.9663848834, 
			 "total_energy": -1015.391384, 
			 "HOMO_LUMO_gap": 0.17998, 
			 "cosmo_polarized_energy": -12.98, 
			 "cosmo_cavitation_energy": 40.91, 
			 "cosmo_dispersion_energy": -27.79, 
			 "cosmo_repulsion_energy": 2.11, 
			 "cosmo_total_nonelectrostatic_energy": 15.23, 
			 "SMD_solvation_energy": 7.82 
		},
		"coords": [
			{
				"x": 3.1819167513,
				"y": -1.8375429446,
				"z": -1.884332308,
				"element": "C" 
			},
			{
				"x": 1.9046795105,
				"y": -1.6207404406,
				"z": -1.1322530078,
				"element": "C" 
			},
			{
				"x": 1.0721422883,
				"y": -2.6304860997,
				"z": -0.9391542012,
				"element": "N" 
			},
			{
				"x": 0.0179236117,
				"y": -2.1157244971,
				"z": -0.2189397442,
				"element": "N" 
			},
			{
				"x": 0.1976728987,
				"y": -0.7902358694,
				"z": 0.0307889265,
				"element": "C" 
			},
			{
				"x": -0.7032088283,
				"y": -0.1028717189,
				"z": 0.7582351974,
				"element": "O" 
			},
			{
				"x": -1.2826067191,
				"y": 1.0591998192,
				"z": 0.2348436018,
				"element": "C" 
			},
			{
				"x": -1.5846927821,
				"y": 1.1914143911,
				"z": -1.1180506285,
				"element": "C" 
			},
			{
				"x": -2.2312827912,
				"y": 2.3460212038,
				"z": -1.5610312729,
				"element": "C" 
			},
			{
				"x": -2.5692318037,
				"y": 3.3276694268,
				"z": -0.6374122788,
				"element": "C" 
			},
			{
				"x": -3.1996688974,
				"y": 4.4417700239,
				"z": -1.0658290374,
				"element": "F" 
			},
			{
				"x": -2.2788762163,
				"y": 3.1939533653,
				"z": 0.7164823998,
				"element": "C" 
			},
			{
				"x": -1.6245474713,
				"y": 2.0454951536,
				"z": 1.1558608581,
				"element": "C" 
			},
			{
				"x": 1.4201327619,
				"y": -0.4153648928,
				"z": -0.5356677104,
				"element": "C" 
			},
			{
				"x": 2.0840653514,
				"y": 0.8763243784,
				"z": -0.4664987814,
				"element": "C" 
			},
			{
				"x": 1.6491091881,
				"y": 1.8667118237,
				"z": 0.1014806447,
				"element": "O" 
			},
			{
				"x": -1.0743015248,
				"y": -2.9683324658,
				"z": 0.1185835333,
				"element": "C" 
			},
			{
				"x": -1.3736904896,
				"y": -4.0327218483,
				"z": -0.739814539,
				"element": "C" 
			},
			{
				"x": -2.4282860245,
				"y": -4.8878813471,
				"z": -0.4293658869,
				"element": "C" 
			},
			{
				"x": -3.1887289374,
				"y": -4.6851995404,
				"z": 0.7245232768,
				"element": "C" 
			},
			{
				"x": -2.8784662136,
				"y": -3.6245312746,
				"z": 1.5762081329,
				"element": "C" 
			},
			{
				"x": -1.8177005344,
				"y": -2.7659862966,
				"z": 1.2866318348,
				"element": "C" 
			},
			{
				"x": 3.2351889543,
				"y": -1.2035501685,
				"z": -2.7759545852,
				"element": "H" 
			},
			{
				"x": 3.2444960858,
				"y": -2.8820107301,
				"z": -2.1965189512,
				"element": "H" 
			},
			{
				"x": 4.0560085304,
				"y": -1.6078961193,
				"z": -1.2656167075,
				"element": "H" 
			},
			{
				"x": -1.3205848988,
				"y": 0.4083458231,
				"z": -1.8203971602,
				"element": "H" 
			},
			{
				"x": -2.479476492,
				"y": 2.4852727366,
				"z": -2.6073717766,
				"element": "H" 
			},
			{
				"x": -2.5545819771,
				"y": 3.984571571,
				"z": 1.4053437947,
				"element": "H" 
			},
			{
				"x": -1.3656268806,
				"y": 1.9105500045,
				"z": 2.1998482563,
				"element": "H" 
			},
			{
				"x": 3.0696209334,
				"y": 0.908198971,
				"z": -0.9804898402,
				"element": "H" 
			},
			{
				"x": -0.7708715369,
				"y": -4.1793002298,
				"z": -1.6275238282,
				"element": "H" 
			},
			{
				"x": -2.6580166164,
				"y": -5.7134606697,
				"z": -1.0963859061,
				"element": "H" 
			},
			{
				"x": -4.0129166161,
				"y": -5.3516254796,
				"z": 0.9600747409,
				"element": "H" 
			},
			{
				"x": -3.4559041747,
				"y": -3.4654158913,
				"z": 2.4819766937,
				"element": "H" 
			},
			{
				"x": -1.5692884397,
				"y": -1.9554201678,
				"z": 1.95892626,
				"element": "H" 
			}
		],
		 "valence_orbital": [ 
			{
				"type": "occ",
				"energy": -0.26206,
				"method": "rhf"
			},
			{
				"type": "occ",
				"energy": -0.25591,
				"method": "rhf"
			},
			{
				"type": "occ",
				"energy": -0.24696,
				"method": "rhf"
			},
			{
				"type": "occ",
				"energy": -0.23636,
				"method": "rhf"
			},
			{
				"type": "occ",
				"energy": -0.2294,
				"method": "rhf"
			},
			{
				"type": "unocc",
				"energy": -0.04942,
				"method": "rhf"
			},
			{
				"type": "unocc",
				"energy": -0.01874,
				"method": "rhf"
			},
			{
				"type": "unocc",
				"energy": -0.01574,
				"method": "rhf"
			},
			{
				"type": "unocc",
				"energy": -0.01117,
				"method": "rhf"
			},
			{
				"type": "unocc",
				"energy": 0.00446,
				"method": "rhf"
			}
		],
		"cosmo_sigma_profile": { 
			"-0.025": 0.0,
			"-0.024": 0.0,
			"-0.023": 0.0,
			"-0.022": 0.0,
			"-0.021": 0.0,
			"-0.02": 0.0,
			"-0.019": 0.0,
			"-0.018": 0.0,
			"-0.017": 0.0,
			"-0.016": 0.0,
			"-0.015": 0.0,
			"-0.014": 0.0,
			"-0.013": 0.0,
			"-0.012": 0.0,
			"-0.011": 0.0,
			"-0.01": 0.0,
			"-0.009": 0.0,
			"-0.008": 3.17668225057,
			"-0.007": 8.27065057886,
			"-0.006": 21.7875530832,
			"-0.005": 29.0827433971,
			"-0.004": 25.3338535714,
			"-0.003": 22.2775203714,
			"-0.002": 21.5789701173,
			"-0.001": 25.7870103101,
			"0.0": 25.842968242,
			"0.001": 25.8147577092,
			"0.002": 26.2468011131,
			"0.003": 23.9338696521,
			"0.004": 28.076927041,
			"0.005": 12.5020596393,
			"0.006": 3.91154675141,
			"0.007": 3.8260102228,
			"0.008": 4.16855273344,
			"0.009": 4.02537637555,
			"0.01": 3.8924981299,
			"0.011": 3.39322968069,
			"0.012": 2.93443739501,
			"0.013": 2.72809376236,
			"0.014": 0.466346266072,
			"0.015": 0.0,
			"0.016": 0.0,
			"0.017": 0.0,
			"0.018": 0.0,
			"0.019": 0.0,
			"0.02": 0.0,
			"0.021": 0.0,
			"0.022": 0.0,
			"0.023": 0.0,
			"0.024": 0.0,
			"0.0": 0.0
		}
	}
}
