{
	 "smiles": "CC(=O)OCC1OC(COC(C)=O)(OC2OC(COC(C)=O)C(OC(C)=O)C(OC(C)=O)C2OC(C)=O)C(OC(C)=O)C1OC(C)=O", 
	 "Tm": 359.65, 
	 "num_atms": 85, 
	 "gaussian": { 
		 "optdone": 1, 
		 "sigma_profile": "yes", 
		 "theory": "DFT", 
		 "functional": "B3LYP", 
		 "basiset": "6-31G**", 
		 "properties": { 
			 "R2extent": 26599.7053, 
			 "electric_dipole_moment_norm": 2.82639531205, 
			 "electric_quadrupole_moment_norm": 22.2974167268, 
			 "total_energy": -2519.21314807, 
			 "HOMO_LUMO_gap": 0.25722, 
			 "cosmo_polarized_energy": -39.31, 
			 "cosmo_cavitation_energy": 87.54, 
			 "cosmo_dispersion_energy": -47.51, 
			 "cosmo_repulsion_energy": 3.67, 
			 "cosmo_total_nonelectrostatic_energy": 43.7, 
			 "SMD_solvation_energy": 21.8 
		},
		"coords": [
			{
				"x": 3.6648604758,
				"y": 4.8961944069,
				"z": 1.4593133422,
				"element": "C" 
			},
			{
				"x": 2.4335533821,
				"y": 4.6086280899,
				"z": 0.6364160028,
				"element": "C" 
			},
			{
				"x": 2.3426923017,
				"y": 4.7415531455,
				"z": -0.5662513588,
				"element": "O" 
			},
			{
				"x": 1.4151885223,
				"y": 4.1892206889,
				"z": 1.4215643598,
				"element": "O" 
			},
			{
				"x": 0.1808135387,
				"y": 3.8913806117,
				"z": 0.7507055281,
				"element": "C" 
			},
			{
				"x": -0.6850633105,
				"y": 3.0683464346,
				"z": 1.6885418581,
				"element": "C" 
			},
			{
				"x": -0.0272114739,
				"y": 1.8113471501,
				"z": 1.949502559,
				"element": "O" 
			},
			{
				"x": -0.9490470725,
				"y": 0.7343952382,
				"z": 1.8570867999,
				"element": "C" 
			},
			{
				"x": -1.6271138298,
				"y": 0.4373952297,
				"z": 3.204324405,
				"element": "C" 
			},
			{
				"x": -0.6343705438,
				"y": 0.2384823983,
				"z": 4.2163472462,
				"element": "O" 
			},
			{
				"x": -0.2989370988,
				"y": 1.3166231084,
				"z": 4.9682624835,
				"element": "C" 
			},
			{
				"x": 0.836571736,
				"y": 0.9713014437,
				"z": 5.8991386518,
				"element": "C" 
			},
			{
				"x": -0.8453082711,
				"y": 2.3967672529,
				"z": 4.8979669663,
				"element": "O" 
			},
			{
				"x": -0.2735832328,
				"y": -0.4494071305,
				"z": 1.5145154475,
				"element": "O" 
			},
			{
				"x": 0.6175746697,
				"y": -0.4295645312,
				"z": 0.4334181189,
				"element": "C" 
			},
			{
				"x": 1.8858592379,
				"y": -0.7426742094,
				"z": 0.9740119011,
				"element": "O" 
			},
			{
				"x": 2.9697039239,
				"y": -0.7886330792,
				"z": 0.0448999467,
				"element": "C" 
			},
			{
				"x": 3.4875528703,
				"y": 0.5995707686,
				"z": -0.3336612022,
				"element": "C" 
			},
			{
				"x": 2.6444312606,
				"y": 1.2891591909,
				"z": -1.2838355208,
				"element": "O" 
			},
			{
				"x": 3.2572560505,
				"y": 1.8358579712,
				"z": -2.3770296365,
				"element": "C" 
			},
			{
				"x": 2.272043901,
				"y": 2.6176550838,
				"z": -3.2043702526,
				"element": "C" 
			},
			{
				"x": 4.4392489686,
				"y": 1.7194924539,
				"z": -2.6109467112,
				"element": "O" 
			},
			{
				"x": 2.6633252426,
				"y": -1.7535237342,
				"z": -1.1392104329,
				"element": "C" 
			},
			{
				"x": 3.554944425,
				"y": -1.528987948,
				"z": -2.2508026237,
				"element": "O" 
			},
			{
				"x": 4.8464004144,
				"y": -1.9301891388,
				"z": -2.1037495212,
				"element": "C" 
			},
			{
				"x": 5.6365428697,
				"y": -1.625050247,
				"z": -3.3499973595,
				"element": "C" 
			},
			{
				"x": 5.2765213252,
				"y": -2.428690512,
				"z": -1.0871867702,
				"element": "O" 
			},
			{
				"x": 1.2547131499,
				"y": -1.5295478773,
				"z": -1.6982729575,
				"element": "C" 
			},
			{
				"x": 0.8633739595,
				"y": -2.3944258415,
				"z": -2.7855518265,
				"element": "O" 
			},
			{
				"x": 1.0803266775,
				"y": -3.7353929242,
				"z": -2.8060356374,
				"element": "C" 
			},
			{
				"x": 0.5220209574,
				"y": -4.3103930368,
				"z": -4.0883962122,
				"element": "C" 
			},
			{
				"x": 1.6374063886,
				"y": -4.3767787326,
				"z": -1.944607284,
				"element": "O" 
			},
			{
				"x": 0.1987963935,
				"y": -1.4936514228,
				"z": -0.5942768208,
				"element": "C" 
			},
			{
				"x": 0.1444373117,
				"y": -2.7702863066,
				"z": 0.0546439813,
				"element": "O" 
			},
			{
				"x": -1.0665304903,
				"y": -3.2722479449,
				"z": 0.3973567997,
				"element": "C" 
			},
			{
				"x": -0.8929300539,
				"y": -4.6036664823,
				"z": 1.0823143533,
				"element": "C" 
			},
			{
				"x": -2.1243784714,
				"y": -2.7249703018,
				"z": 0.1695586837,
				"element": "O" 
			},
			{
				"x": -1.9354973458,
				"y": 1.2344502587,
				"z": 0.778962384,
				"element": "C" 
			},
			{
				"x": -3.1704604802,
				"y": 0.5358665216,
				"z": 0.8053528661,
				"element": "O" 
			},
			{
				"x": -3.5839776799,
				"y": -0.0179899864,
				"z": -0.381878428,
				"element": "C" 
			},
			{
				"x": -4.8236755819,
				"y": -0.8411400726,
				"z": -0.1820220502,
				"element": "C" 
			},
			{
				"x": -2.987469342,
				"y": 0.1317496949,
				"z": -1.4227346535,
				"element": "O" 
			},
			{
				"x": -2.0569203763,
				"y": 2.7399140557,
				"z": 1.0552386218,
				"element": "C" 
			},
			{
				"x": -3.0885582717,
				"y": 3.0249564259,
				"z": 2.0117395614,
				"element": "O" 
			},
			{
				"x": -4.3217865683,
				"y": 3.3294892905,
				"z": 1.5128177011,
				"element": "C" 
			},
			{
				"x": -5.3027572564,
				"y": 3.5426436812,
				"z": 2.6373554765,
				"element": "C" 
			},
			{
				"x": -4.5643868145,
				"y": 3.4140904882,
				"z": 0.3312195731,
				"element": "O" 
			},
			{
				"x": 3.4791060916,
				"y": 5.7572823736,
				"z": 2.1091030018,
				"element": "H" 
			},
			{
				"x": 3.8985318453,
				"y": 4.0461746677,
				"z": 2.1057876491,
				"element": "H" 
			},
			{
				"x": 4.5020284951,
				"y": 5.1121885084,
				"z": 0.7965225162,
				"element": "H" 
			},
			{
				"x": -0.326297243,
				"y": 4.8291358136,
				"z": 0.494258781,
				"element": "H" 
			},
			{
				"x": 0.3906567061,
				"y": 3.3488187955,
				"z": -0.1752030324,
				"element": "H" 
			},
			{
				"x": -0.8344470361,
				"y": 3.587059502,
				"z": 2.6409045776,
				"element": "H" 
			},
			{
				"x": -2.2879778853,
				"y": 1.2579466596,
				"z": 3.4838608515,
				"element": "H" 
			},
			{
				"x": -2.1869134094,
				"y": -0.4944889993,
				"z": 3.123284525,
				"element": "H" 
			},
			{
				"x": 0.6264352951,
				"y": 0.0405309028,
				"z": 6.4322424616,
				"element": "H" 
			},
			{
				"x": 0.9921542562,
				"y": 1.787919294,
				"z": 6.6034546141,
				"element": "H" 
			},
			{
				"x": 1.7458757426,
				"y": 0.8128059338,
				"z": 5.3108811546,
				"element": "H" 
			},
			{
				"x": 0.639269202,
				"y": 0.5564053707,
				"z": -0.0458331941,
				"element": "H" 
			},
			{
				"x": 3.7849643312,
				"y": -1.2443667462,
				"z": 0.6128773862,
				"element": "H" 
			},
			{
				"x": 4.4956965848,
				"y": 0.5357187265,
				"z": -0.7436418789,
				"element": "H" 
			},
			{
				"x": 3.5076285635,
				"y": 1.2040193661,
				"z": 0.5782683815,
				"element": "H" 
			},
			{
				"x": 2.0365721754,
				"y": 3.5430968789,
				"z": -2.6687559925,
				"element": "H" 
			},
			{
				"x": 1.3424403664,
				"y": 2.0594854528,
				"z": -3.3437515199,
				"element": "H" 
			},
			{
				"x": 2.718997326,
				"y": 2.8554855357,
				"z": -4.1692963421,
				"element": "H" 
			},
			{
				"x": 2.7768633525,
				"y": -2.7771979106,
				"z": -0.7893202259,
				"element": "H" 
			},
			{
				"x": 5.6561324375,
				"y": -0.5404495693,
				"z": -3.4970307321,
				"element": "H" 
			},
			{
				"x": 5.1549469524,
				"y": -2.0693932125,
				"z": -4.2254162253,
				"element": "H" 
			},
			{
				"x": 6.6502550934,
				"y": -2.0089709413,
				"z": -3.2411683779,
				"element": "H" 
			},
			{
				"x": 1.2437070879,
				"y": -0.5432706776,
				"z": -2.1689087127,
				"element": "H" 
			},
			{
				"x": 0.6960971374,
				"y": -5.3857427533,
				"z": -4.1069566086,
				"element": "H" 
			},
			{
				"x": 1.001897318,
				"y": -3.8382691954,
				"z": -4.9505546522,
				"element": "H" 
			},
			{
				"x": -0.5494967925,
				"y": -4.1015742863,
				"z": -4.1579010317,
				"element": "H" 
			},
			{
				"x": -0.7808734167,
				"y": -1.2540526805,
				"z": -1.0158437712,
				"element": "H" 
			},
			{
				"x": -0.2504295166,
				"y": -5.249610112,
				"z": 0.4780183964,
				"element": "H" 
			},
			{
				"x": -0.3934047195,
				"y": -4.4539489233,
				"z": 2.0445367163,
				"element": "H" 
			},
			{
				"x": -1.8671315888,
				"y": -5.0653594257,
				"z": 1.2404669405,
				"element": "H" 
			},
			{
				"x": -1.4784964836,
				"y": 1.1064095826,
				"z": -0.204679032,
				"element": "H" 
			},
			{
				"x": -5.3458666579,
				"y": -0.9445963081,
				"z": -1.1331653025,
				"element": "H" 
			},
			{
				"x": -4.5044384509,
				"y": -1.8307756023,
				"z": 0.1604303382,
				"element": "H" 
			},
			{
				"x": -5.4773504988,
				"y": -0.399768891,
				"z": 0.5723769653,
				"element": "H" 
			},
			{
				"x": -2.2697693293,
				"y": 3.2996806004,
				"z": 0.142424987,
				"element": "H" 
			},
			{
				"x": -6.2409492036,
				"y": 3.9208892263,
				"z": 2.2328624968,
				"element": "H" 
			},
			{
				"x": -5.480398825,
				"y": 2.5924268569,
				"z": 3.1508813724,
				"element": "H" 
			},
			{
				"x": -4.8943116919,
				"y": 4.2394365635,
				"z": 3.3738241595,
				"element": "H" 
			}
		],
		 "valence_orbital": [ 
			{
				"type": "occ",
				"energy": -0.27346,
				"method": "rhf"
			},
			{
				"type": "occ",
				"energy": -0.27202,
				"method": "rhf"
			},
			{
				"type": "occ",
				"energy": -0.26888,
				"method": "rhf"
			},
			{
				"type": "occ",
				"energy": -0.26578,
				"method": "rhf"
			},
			{
				"type": "occ",
				"energy": -0.26092,
				"method": "rhf"
			},
			{
				"type": "unocc",
				"energy": -0.0037,
				"method": "rhf"
			},
			{
				"type": "unocc",
				"energy": 0.00047,
				"method": "rhf"
			},
			{
				"type": "unocc",
				"energy": 0.00581,
				"method": "rhf"
			},
			{
				"type": "unocc",
				"energy": 0.00635,
				"method": "rhf"
			},
			{
				"type": "unocc",
				"energy": 0.00743,
				"method": "rhf"
			}
		],
		"cosmo_sigma_profile": { 
			"-0.025": 0.0,
			"-0.024": 0.0,
			"-0.023": 0.0,
			"-0.022": 0.0,
			"-0.021": 0.0,
			"-0.02": 0.0,
			"-0.019": 0.0,
			"-0.018": 0.0,
			"-0.017": 0.0,
			"-0.016": 0.0,
			"-0.015": 0.0,
			"-0.014": 0.0,
			"-0.013": 0.0,
			"-0.012": 0.347919802429,
			"-0.011": 1.73896591466,
			"-0.01": 2.80977881749,
			"-0.009": 5.09125626396,
			"-0.008": 4.98020279333,
			"-0.007": 18.9342417104,
			"-0.006": 49.0912657514,
			"-0.005": 52.2964174043,
			"-0.004": 61.8606484777,
			"-0.003": 68.8641030264,
			"-0.002": 78.8357168745,
			"-0.001": 53.8452902294,
			"0.0": 33.0326173906,
			"0.001": 28.3909368775,
			"0.002": 30.7170560133,
			"0.003": 26.5058929367,
			"0.004": 23.2956900037,
			"0.005": 23.0478966801,
			"0.006": 20.5541397802,
			"0.007": 17.8972865941,
			"0.008": 17.4296517491,
			"0.009": 16.7723881832,
			"0.01": 17.6278505737,
			"0.011": 20.7066231231,
			"0.012": 12.6877879551,
			"0.013": 1.94218669668,
			"0.014": 0.0,
			"0.015": 0.0,
			"0.016": 0.0,
			"0.017": 0.0,
			"0.018": 0.0,
			"0.019": 0.0,
			"0.02": 0.0,
			"0.021": 0.0,
			"0.022": 0.0,
			"0.023": 0.0,
			"0.024": 0.0,
			"0.025": 0.0
		}
	}
}
