{
	 "smiles": "OC(=O)C1=C(C=CS1)S(=O)(=O)N1CCSCC1", 
	 "Tm": 418.15, 
	 "num_atms": 28, 
	 "gaussian": { 
		 "optdone": 1, 
		 "sigma_profile": "yes", 
		 "theory": "DFT", 
		 "functional": "B3LYP", 
		 "basiset": "6-31G**", 
		 "properties": { 
			 "R2extent": 5470.2054, 
			 "electric_dipole_moment_norm": 5.63169376831, 
			 "electric_quadrupole_moment_norm": 16.842437041, 
			 "total_energy": -1899.70558165, 
			 "HOMO_LUMO_gap": 0.13735, 
			 "cosmo_polarized_energy": -21.06, 
			 "cosmo_cavitation_energy": 34.65, 
			 "cosmo_dispersion_energy": -26.27, 
			 "cosmo_repulsion_energy": 1.88, 
			 "cosmo_total_nonelectrostatic_energy": 10.26, 
			 "SMD_solvation_energy": 4.9 
		},
		"coords": [
			{
				"x": 3.411323434,
				"y": 2.0737352209,
				"z": -1.5850055117,
				"element": "O" 
			},
			{
				"x": 2.2478069806,
				"y": 1.5621935571,
				"z": -1.1088312783,
				"element": "C" 
			},
			{
				"x": 1.6568162648,
				"y": 2.1158522585,
				"z": -0.2148044442,
				"element": "O" 
			},
			{
				"x": 1.7483061032,
				"y": 0.3397847373,
				"z": -1.7960270179,
				"element": "C" 
			},
			{
				"x": 1.0060610524,
				"y": -0.7098465617,
				"z": -1.2935606361,
				"element": "C" 
			},
			{
				"x": 0.676424526,
				"y": -1.6914689897,
				"z": -2.274595895,
				"element": "C" 
			},
			{
				"x": 1.1528452518,
				"y": -1.373980917,
				"z": -3.5161131415,
				"element": "C" 
			},
			{
				"x": 2.0177284615,
				"y": 0.1204477329,
				"z": -3.5100195356,
				"element": "S" 
			},
			{
				"x": 0.5597211469,
				"y": -0.9966392995,
				"z": 0.4342288539,
				"element": "S" 
			},
			{
				"x": 1.7111211528,
				"y": -0.6419700475,
				"z": 1.2620133331,
				"element": "O" 
			},
			{
				"x": 0.0094763177,
				"y": -2.3587275509,
				"z": 0.4312622921,
				"element": "O" 
			},
			{
				"x": -0.6757923621,
				"y": 0.0720599605,
				"z": 0.7582226279,
				"element": "N" 
			},
			{
				"x": -2.0622767196,
				"y": -0.3665254271,
				"z": 0.5309034657,
				"element": "C" 
			},
			{
				"x": -2.7177429408,
				"y": -0.9325988609,
				"z": 1.7935057676,
				"element": "C" 
			},
			{
				"x": -2.7586555319,
				"y": 0.2922151836,
				"z": 3.160569904,
				"element": "S" 
			},
			{
				"x": -0.9747464234,
				"y": 0.7342431193,
				"z": 3.1463611713,
				"element": "C" 
			},
			{
				"x": -0.4801087699,
				"y": 1.1387019938,
				"z": 1.7564276473,
				"element": "C" 
			},
			{
				"x": 3.8674131423,
				"y": 1.4303495769,
				"z": -2.1472745633,
				"element": "H" 
			},
			{
				"x": 0.1270025312,
				"y": -2.592556548,
				"z": -2.0368485461,
				"element": "H" 
			},
			{
				"x": 1.0385079749,
				"y": -1.9279384217,
				"z": -4.437765348,
				"element": "H" 
			},
			{
				"x": -2.068420494,
				"y": -1.1223249892,
				"z": -0.257907842,
				"element": "H" 
			},
			{
				"x": -2.6225099122,
				"y": 0.504962438,
				"z": 0.1732278819,
				"element": "H" 
			},
			{
				"x": -3.7607770967,
				"y": -1.1946048457,
				"z": 1.5927902333,
				"element": "H" 
			},
			{
				"x": -2.188664817,
				"y": -1.8350163078,
				"z": 2.113048735,
				"element": "H" 
			},
			{
				"x": -0.3831414435,
				"y": -0.1021547802,
				"z": 3.5318220793,
				"element": "H" 
			},
			{
				"x": -0.8700289242,
				"y": 1.5741525017,
				"z": 3.8393494994,
				"element": "H" 
			},
			{
				"x": 0.5781919367,
				"y": 1.3927925072,
				"z": 1.7833379994,
				"element": "H" 
			},
			{
				"x": -1.0269808416,
				"y": 2.0173627592,
				"z": 1.3975822686,
				"element": "H" 
			}
		],
		 "valence_orbital": [ 
			{
				"type": "occ",
				"energy": -0.3,
				"method": "rhf"
			},
			{
				"type": "occ",
				"energy": -0.29297,
				"method": "rhf"
			},
			{
				"type": "occ",
				"energy": -0.27492,
				"method": "rhf"
			},
			{
				"type": "occ",
				"energy": -0.25686,
				"method": "rhf"
			},
			{
				"type": "occ",
				"energy": -0.21992,
				"method": "rhf"
			},
			{
				"type": "unocc",
				"energy": -0.08257,
				"method": "rhf"
			},
			{
				"type": "unocc",
				"energy": -0.02127,
				"method": "rhf"
			},
			{
				"type": "unocc",
				"energy": -0.0005,
				"method": "rhf"
			},
			{
				"type": "unocc",
				"energy": 0.01951,
				"method": "rhf"
			},
			{
				"type": "unocc",
				"energy": 0.03677,
				"method": "rhf"
			}
		],
		"cosmo_sigma_profile": { 
			"-0.025": 0.0,
			"-0.024": 0.0,
			"-0.023": 0.0,
			"-0.022": 0.0,
			"-0.021": 0.0,
			"-0.02": 0.0,
			"-0.019": 0.330509897757,
			"-0.018": 1.1489606431,
			"-0.017": 1.16867307901,
			"-0.016": 0.670978419968,
			"-0.015": 0.841362604715,
			"-0.014": 0.703915270433,
			"-0.013": 1.02917134244,
			"-0.012": 1.1555273149,
			"-0.011": 1.27507836533,
			"-0.01": 3.45216869987,
			"-0.009": 3.1330655298,
			"-0.008": 3.88878368011,
			"-0.007": 7.29590112918,
			"-0.006": 14.6533694774,
			"-0.005": 24.1238505748,
			"-0.004": 22.8188586839,
			"-0.003": 18.5666499608,
			"-0.002": 19.0174906121,
			"-0.001": 19.3970262235,
			"0.0": 20.3287261021,
			"0.001": 15.5441424987,
			"0.002": 11.3806678278,
			"0.003": 7.36989902339,
			"0.004": 8.59034908466,
			"0.005": 9.46257675665,
			"0.006": 8.88362190659,
			"0.007": 9.73746929065,
			"0.008": 10.9590616299,
			"0.009": 11.3686644047,
			"0.01": 11.8497549669,
			"0.011": 7.87762494605,
			"0.012": 1.54732319191,
			"0.013": 0.0,
			"0.014": 0.0,
			"0.015": 0.0,
			"0.016": 0.0,
			"0.017": 0.0,
			"0.018": 0.0,
			"0.019": 0.0,
			"0.02": 0.0,
			"0.021": 0.0,
			"0.022": 0.0,
			"0.023": 0.0,
			"0.024": 0.0,
			"0.025": 0.0
		}
	}
}
