{
	 "smiles": "ClC1=C2C(SC=C2C2=CC=CS2)=NC(CN2CCCCC2)=N1", 
	 "Tm": 363.15, 
	 "num_atms": 38, 
	 "gaussian": { 
		 "optdone": 1, 
		 "sigma_profile": "yes", 
		 "theory": "DFT", 
		 "functional": "B3LYP", 
		 "basiset": "6-31G**", 
		 "properties": { 
			 "R2extent": 11631.3336, 
			 "electric_dipole_moment_norm": 2.02396014042, 
			 "electric_quadrupole_moment_norm": 19.6726126996, 
			 "total_energy": -2040.14105775, 
			 "HOMO_LUMO_gap": 0.14698, 
			 "cosmo_polarized_energy": -10.18, 
			 "cosmo_cavitation_energy": 45.23, 
			 "cosmo_dispersion_energy": -32.65, 
			 "cosmo_repulsion_energy": 2.45, 
			 "cosmo_total_nonelectrostatic_energy": 15.02, 
			 "SMD_solvation_energy": 1.64 
		},
		"coords": [
			{
				"x": 1.5609121381,
				"y": -2.8830227082,
				"z": 1.4573577448,
				"element": "Cl" 
			},
			{
				"x": 1.1593103408,
				"y": -1.2309755426,
				"z": 1.025112954,
				"element": "C" 
			},
			{
				"x": 2.1699650811,
				"y": -0.2934194386,
				"z": 0.7247798902,
				"element": "C" 
			},
			{
				"x": 1.6497990184,
				"y": 1.0010028014,
				"z": 0.4740518472,
				"element": "C" 
			},
			{
				"x": 2.9270405026,
				"y": 2.1630116789,
				"z": 0.1720293074,
				"element": "S" 
			},
			{
				"x": 4.1229372532,
				"y": 0.9096574232,
				"z": 0.3688423319,
				"element": "C" 
			},
			{
				"x": 3.6191985193,
				"y": -0.3294183287,
				"z": 0.6520973475,
				"element": "C" 
			},
			{
				"x": 4.5059438422,
				"y": -1.493213369,
				"z": 0.8441161188,
				"element": "C" 
			},
			{
				"x": 5.2817121416,
				"y": -1.7878182714,
				"z": 1.9373988461,
				"element": "C" 
			},
			{
				"x": 6.0654248803,
				"y": -2.969315927,
				"z": 1.7748859065,
				"element": "C" 
			},
			{
				"x": 5.8851692326,
				"y": -3.5578362258,
				"z": 0.5537335243,
				"element": "C" 
			},
			{
				"x": 4.7559674404,
				"y": -2.6771890297,
				"z": -0.4210920299,
				"element": "S" 
			},
			{
				"x": 0.360719363,
				"y": 1.337352827,
				"z": 0.4755210588,
				"element": "N" 
			},
			{
				"x": -0.4838802499,
				"y": 0.3389534738,
				"z": 0.7398033239,
				"element": "C" 
			},
			{
				"x": -1.9683547407,
				"y": 0.6296057955,
				"z": 0.7158791933,
				"element": "C" 
			},
			{
				"x": -2.5799600692,
				"y": 0.1902767243,
				"z": -0.5347295848,
				"element": "N" 
			},
			{
				"x": -2.2863378643,
				"y": 1.0573908069,
				"z": -1.6775635417,
				"element": "C" 
			},
			{
				"x": -2.5807794483,
				"y": 0.3003366691,
				"z": -2.9916883057,
				"element": "C" 
			},
			{
				"x": -3.7072143336,
				"y": -0.7365783864,
				"z": -2.7936132626,
				"element": "C" 
			},
			{
				"x": -4.7100732234,
				"y": -0.226220696,
				"z": -1.7528913758,
				"element": "C" 
			},
			{
				"x": -4.0247694537,
				"y": -0.0295685299,
				"z": -0.3818961905,
				"element": "C" 
			},
			{
				"x": -0.119125733,
				"y": -0.9309300867,
				"z": 1.0247488107,
				"element": "N" 
			},
			{
				"x": 5.1704022917,
				"y": 1.1511556602,
				"z": 0.2489692286,
				"element": "H" 
			},
			{
				"x": 5.2770911356,
				"y": -1.1803532365,
				"z": 2.8353464708,
				"element": "H" 
			},
			{
				"x": 6.7309030652,
				"y": -3.3617979763,
				"z": 2.535213569,
				"element": "H" 
			},
			{
				"x": 6.3478138923,
				"y": -4.4552396275,
				"z": 0.1665045735,
				"element": "H" 
			},
			{
				"x": -2.4276641228,
				"y": 0.0615057001,
				"z": 1.5305840358,
				"element": "H" 
			},
			{
				"x": -2.1233075199,
				"y": 1.7048494332,
				"z": 0.9144786168,
				"element": "H" 
			},
			{
				"x": -1.2359854123,
				"y": 1.357009419,
				"z": -1.6352897771,
				"element": "H" 
			},
			{
				"x": -2.8739133039,
				"y": 1.9957699061,
				"z": -1.6268818869,
				"element": "H" 
			},
			{
				"x": -1.6747449304,
				"y": -0.2045191216,
				"z": -3.3437724107,
				"element": "H" 
			},
			{
				"x": -2.8605733627,
				"y": 1.0258544916,
				"z": -3.7652601994,
				"element": "H" 
			},
			{
				"x": -4.209162189,
				"y": -0.9446364909,
				"z": -3.7450437694,
				"element": "H" 
			},
			{
				"x": -3.2788760289,
				"y": -1.682366669,
				"z": -2.4447550675,
				"element": "H" 
			},
			{
				"x": -5.5548839702,
				"y": -0.9146835778,
				"z": -1.6437427248,
				"element": "H" 
			},
			{
				"x": -5.1312938918,
				"y": 0.7258132678,
				"z": -2.0996163714,
				"element": "H" 
			},
			{
				"x": -4.5091352946,
				"y": 0.8123832483,
				"z": 0.1509010875,
				"element": "H" 
			},
			{
				"x": -4.1586749959,
				"y": -0.9213260865,
				"z": 0.2432807106,
				"element": "H" 
			}
		],
		 "valence_orbital": [ 
			{
				"type": "occ",
				"energy": -0.26686,
				"method": "rhf"
			},
			{
				"type": "occ",
				"energy": -0.25451,
				"method": "rhf"
			},
			{
				"type": "occ",
				"energy": -0.24736,
				"method": "rhf"
			},
			{
				"type": "occ",
				"energy": -0.23377,
				"method": "rhf"
			},
			{
				"type": "occ",
				"energy": -0.20531,
				"method": "rhf"
			},
			{
				"type": "unocc",
				"energy": -0.05833,
				"method": "rhf"
			},
			{
				"type": "unocc",
				"energy": -0.04116,
				"method": "rhf"
			},
			{
				"type": "unocc",
				"energy": -0.02438,
				"method": "rhf"
			},
			{
				"type": "unocc",
				"energy": 0.00379,
				"method": "rhf"
			},
			{
				"type": "unocc",
				"energy": 0.01043,
				"method": "rhf"
			}
		],
		"cosmo_sigma_profile": { 
			"-0.025": 0.0,
			"-0.024": 0.0,
			"-0.023": 0.0,
			"-0.022": 0.0,
			"-0.021": 0.0,
			"-0.02": 0.0,
			"-0.019": 0.0,
			"-0.018": 0.0,
			"-0.017": 0.0,
			"-0.016": 0.0,
			"-0.015": 0.0,
			"-0.014": 0.0,
			"-0.013": 0.0,
			"-0.012": 0.0,
			"-0.011": 0.0168176795149,
			"-0.01": 1.59414916982,
			"-0.009": 2.60773888853,
			"-0.008": 3.32896557315,
			"-0.007": 5.99454548755,
			"-0.006": 7.36729676321,
			"-0.005": 9.15948954554,
			"-0.004": 13.6609221748,
			"-0.003": 27.6920463307,
			"-0.002": 50.8341583226,
			"-0.001": 57.7416832618,
			"0.0": 48.7352061605,
			"0.001": 36.0214048588,
			"0.002": 22.9836626897,
			"0.003": 19.9889255152,
			"0.004": 22.2148310615,
			"0.005": 13.8328890147,
			"0.006": 4.63013717038,
			"0.007": 3.27600700836,
			"0.008": 2.49334765601,
			"0.009": 1.68442172178,
			"0.01": 2.2169023412,
			"0.011": 2.38245760692,
			"0.012": 2.61355059065,
			"0.013": 1.80677083788,
			"0.014": 0.567066843667,
			"0.015": 0.119756414465,
			"0.016": 0.0,
			"0.017": 0.0,
			"0.018": 0.0,
			"0.019": 0.0,
			"0.02": 0.0,
			"0.021": 0.0,
			"0.022": 0.0,
			"0.023": 0.0,
			"0.024": 0.0,
			"0.025": 0.0
		}
	}
}
