{
	 "smiles": "CC1(C)OC2CC(=O)OCC22C1CC(=O)C1(C)C2CCC2(C)C(OC(=O)C3OC123)C1=COC=C1", 
	 "Tm": 571.15, 
	 "num_atms": 64, 
	 "gaussian": { 
		 "optdone": 1, 
		 "sigma_profile": "yes", 
		 "theory": "DFT", 
		 "functional": "B3LYP", 
		 "basiset": "6-31G**", 
		 "properties": { 
			 "R2extent": 15530.4298, 
			 "electric_dipole_moment_norm": 4.37309223662, 
			 "electric_quadrupole_moment_norm": 48.5933999542, 
			 "total_energy": -1610.55175599, 
			 "HOMO_LUMO_gap": 0.19452, 
			 "cosmo_polarized_energy": -31.73, 
			 "cosmo_cavitation_energy": 56.74, 
			 "cosmo_dispersion_energy": -38.13, 
			 "cosmo_repulsion_energy": 2.69, 
			 "cosmo_total_nonelectrostatic_energy": 21.3, 
			 "SMD_solvation_energy": 12.32 
		},
		"coords": [
			{
				"x": 0.3765835246,
				"y": -1.510098762,
				"z": 3.1890717287,
				"element": "C" 
			},
			{
				"x": -0.4155164442,
				"y": -0.2299756592,
				"z": 3.4908534035,
				"element": "C" 
			},
			{
				"x": -0.2368959301,
				"y": 0.1388379435,
				"z": 4.9699211328,
				"element": "C" 
			},
			{
				"x": -1.8214634129,
				"y": -0.5010846616,
				"z": 3.2692460249,
				"element": "O" 
			},
			{
				"x": -2.3839862241,
				"y": 0.317346018,
				"z": 2.2555609817,
				"element": "C" 
			},
			{
				"x": -3.3355108335,
				"y": 1.3845285607,
				"z": 2.8249546197,
				"element": "C" 
			},
			{
				"x": -3.9098127867,
				"y": 2.2003450115,
				"z": 1.6818596015,
				"element": "C" 
			},
			{
				"x": -5.0725875029,
				"y": 2.4726389394,
				"z": 1.5250566023,
				"element": "O" 
			},
			{
				"x": -2.9913740039,
				"y": 2.5845726014,
				"z": 0.7428787898,
				"element": "O" 
			},
			{
				"x": -1.5971428012,
				"y": 2.4159753802,
				"z": 1.063579794,
				"element": "C" 
			},
			{
				"x": -1.2107925798,
				"y": 0.9697578456,
				"z": 1.4668133904,
				"element": "C" 
			},
			{
				"x": -0.1147444677,
				"y": 0.988157008,
				"z": 2.5682068036,
				"element": "C" 
			},
			{
				"x": 1.3095974498,
				"y": 1.1178940655,
				"z": 2.0322077803,
				"element": "C" 
			},
			{
				"x": 1.687312966,
				"y": 0.2883355367,
				"z": 0.8107418208,
				"element": "C" 
			},
			{
				"x": 2.847606503,
				"y": -0.0471193684,
				"z": 0.6725749613,
				"element": "O" 
			},
			{
				"x": 0.6248726068,
				"y": 0.1236083618,
				"z": -0.3095898715,
				"element": "C" 
			},
			{
				"x": 0.9210598317,
				"y": 1.3558603807,
				"z": -1.2158503165,
				"element": "C" 
			},
			{
				"x": -0.835764638,
				"y": 0.0497589832,
				"z": 0.2610872864,
				"element": "C" 
			},
			{
				"x": -1.8812365196,
				"y": 0.1112466177,
				"z": -0.8812196271,
				"element": "C" 
			},
			{
				"x": -1.4206297174,
				"y": -0.5459034998,
				"z": -2.1997560984,
				"element": "C" 
			},
			{
				"x": -0.3824143003,
				"y": -1.6733025753,
				"z": -2.026164609,
				"element": "C" 
			},
			{
				"x": -1.0666389405,
				"y": -2.9359744282,
				"z": -1.464076852,
				"element": "C" 
			},
			{
				"x": 0.2477689595,
				"y": -1.9764336671,
				"z": -3.4222044697,
				"element": "C" 
			},
			{
				"x": 1.2660517171,
				"y": -3.0040836513,
				"z": -3.3259951897,
				"element": "O" 
			},
			{
				"x": 2.3166610455,
				"y": -2.7979674807,
				"z": -2.4921369313,
				"element": "C" 
			},
			{
				"x": 3.3273024218,
				"y": -3.4445951185,
				"z": -2.6108016285,
				"element": "O" 
			},
			{
				"x": 2.1304451318,
				"y": -1.7827960475,
				"z": -1.3928699062,
				"element": "C" 
			},
			{
				"x": 1.3268257167,
				"y": -2.286045333,
				"z": -0.3030261215,
				"element": "O" 
			},
			{
				"x": 0.7942291187,
				"y": -1.2139672924,
				"z": -1.0935920517,
				"element": "C" 
			},
			{
				"x": -0.6967591025,
				"y": -2.4493740376,
				"z": -4.4898124745,
				"element": "C" 
			},
			{
				"x": -0.8644622154,
				"y": -3.737217687,
				"z": -4.9098451294,
				"element": "C" 
			},
			{
				"x": -1.7836780559,
				"y": -3.7998546595,
				"z": -5.9115966986,
				"element": "O" 
			},
			{
				"x": -2.2100831261,
				"y": -2.5270959724,
				"z": -6.1414312764,
				"element": "C" 
			},
			{
				"x": -1.5794240404,
				"y": -1.6570888094,
				"z": -5.3076380169,
				"element": "C" 
			},
			{
				"x": 0.3457313294,
				"y": -1.8058404869,
				"z": 2.1386382369,
				"element": "H" 
			},
			{
				"x": -0.0467372388,
				"y": -2.3300107407,
				"z": 3.7761271654,
				"element": "H" 
			},
			{
				"x": 1.427870555,
				"y": -1.4016214134,
				"z": 3.4735347027,
				"element": "H" 
			},
			{
				"x": 0.8058300025,
				"y": 0.3952972382,
				"z": 5.187329776,
				"element": "H" 
			},
			{
				"x": -0.5181079911,
				"y": -0.7040177196,
				"z": 5.607579502,
				"element": "H" 
			},
			{
				"x": -0.8674979962,
				"y": 0.9921484064,
				"z": 5.2370064368,
				"element": "H" 
			},
			{
				"x": -2.9768105509,
				"y": -0.3393753763,
				"z": 1.6083369381,
				"element": "H" 
			},
			{
				"x": -4.1594157789,
				"y": 0.9305152071,
				"z": 3.376618339,
				"element": "H" 
			},
			{
				"x": -2.793351638,
				"y": 2.0442528237,
				"z": 3.5143144435,
				"element": "H" 
			},
			{
				"x": -1.0713154337,
				"y": 2.7476105308,
				"z": 0.1682027684,
				"element": "H" 
			},
			{
				"x": -1.3432361207,
				"y": 3.1149309209,
				"z": 1.8696478583,
				"element": "H" 
			},
			{
				"x": -0.2998789712,
				"y": 1.875004507,
				"z": 3.1864920656,
				"element": "H" 
			},
			{
				"x": 1.4746568184,
				"y": 2.1621930274,
				"z": 1.7279262851,
				"element": "H" 
			},
			{
				"x": 2.0615789049,
				"y": 0.915981347,
				"z": 2.7999907003,
				"element": "H" 
			},
			{
				"x": 0.9538594325,
				"y": 2.2821832545,
				"z": -0.6342436177,
				"element": "H" 
			},
			{
				"x": 0.17977292,
				"y": 1.4954476552,
				"z": -2.0017561553,
				"element": "H" 
			},
			{
				"x": 1.9023258448,
				"y": 1.235430825,
				"z": -1.682685256,
				"element": "H" 
			},
			{
				"x": -0.8957168356,
				"y": -0.9611934633,
				"z": 0.6784271029,
				"element": "H" 
			},
			{
				"x": -2.1683044526,
				"y": 1.1449644058,
				"z": -1.0917046281,
				"element": "H" 
			},
			{
				"x": -2.7978820881,
				"y": -0.3765926213,
				"z": -0.5362457892,
				"element": "H" 
			},
			{
				"x": -2.2908903668,
				"y": -0.9509500761,
				"z": -2.7228188125,
				"element": "H" 
			},
			{
				"x": -1.0112770007,
				"y": 0.2187202163,
				"z": -2.868963489,
				"element": "H" 
			},
			{
				"x": -0.3628591886,
				"y": -3.7625291531,
				"z": -1.3648388205,
				"element": "H" 
			},
			{
				"x": -1.8760946223,
				"y": -3.2432706088,
				"z": -2.1311114392,
				"element": "H" 
			},
			{
				"x": -1.4935721985,
				"y": -2.7495892529,
				"z": -0.4753982988,
				"element": "H" 
			},
			{
				"x": 0.7346448646,
				"y": -1.0529410952,
				"z": -3.7684608215,
				"element": "H" 
			},
			{
				"x": 3.0365347842,
				"y": -1.2791263793,
				"z": -1.0794219542,
				"element": "H" 
			},
			{
				"x": -0.398393506,
				"y": -4.6663010336,
				"z": -4.6257126412,
				"element": "H" 
			},
			{
				"x": -2.9469328489,
				"y": -2.4077769825,
				"z": -6.9202845188,
				"element": "H" 
			},
			{
				"x": -1.7139299787,
				"y": -0.5854285055,
				"z": -5.2822335321,
				"element": "H" 
			}
		],
		 "valence_orbital": [ 
			{
				"type": "occ",
				"energy": -0.27771,
				"method": "rhf"
			},
			{
				"type": "occ",
				"energy": -0.26808,
				"method": "rhf"
			},
			{
				"type": "occ",
				"energy": -0.26069,
				"method": "rhf"
			},
			{
				"type": "occ",
				"energy": -0.25682,
				"method": "rhf"
			},
			{
				"type": "occ",
				"energy": -0.23569,
				"method": "rhf"
			},
			{
				"type": "unocc",
				"energy": -0.04117,
				"method": "rhf"
			},
			{
				"type": "unocc",
				"energy": -0.02082,
				"method": "rhf"
			},
			{
				"type": "unocc",
				"energy": -0.00325,
				"method": "rhf"
			},
			{
				"type": "unocc",
				"energy": 0.00433,
				"method": "rhf"
			},
			{
				"type": "unocc",
				"energy": 0.03727,
				"method": "rhf"
			}
		],
		"cosmo_sigma_profile": { 
			"-0.025": 0.0,
			"-0.024": 0.0,
			"-0.023": 0.0,
			"-0.022": 0.0,
			"-0.021": 0.0,
			"-0.02": 0.0,
			"-0.019": 0.0,
			"-0.018": 0.0,
			"-0.017": 0.0,
			"-0.016": 0.0,
			"-0.015": 0.0,
			"-0.014": 0.0,
			"-0.013": 0.00584454933343,
			"-0.012": 0.0438430454864,
			"-0.011": 0.272674091539,
			"-0.01": 0.677099818571,
			"-0.009": 5.57055400098,
			"-0.008": 12.076834326,
			"-0.007": 22.9428923153,
			"-0.006": 30.4654932339,
			"-0.005": 31.4711369622,
			"-0.004": 32.4362507998,
			"-0.003": 38.7591095519,
			"-0.002": 35.0855870003,
			"-0.001": 30.495183783,
			"0.0": 31.5903466117,
			"0.001": 26.5363362906,
			"0.002": 16.9480493368,
			"0.003": 17.3967970564,
			"0.004": 16.3380299838,
			"0.005": 13.3827813036,
			"0.006": 9.14161398743,
			"0.007": 8.63226426541,
			"0.008": 11.5491964464,
			"0.009": 11.4000783495,
			"0.01": 11.3277464811,
			"0.011": 13.8120353362,
			"0.012": 11.4130727854,
			"0.013": 3.81244247879,
			"0.014": 0.0929723805458,
			"0.015": 0.0,
			"0.016": 0.0,
			"0.017": 0.0,
			"0.018": 0.0,
			"0.019": 0.0,
			"0.02": 0.0,
			"0.021": 0.0,
			"0.022": 0.0,
			"0.023": 0.0,
			"0.024": 0.0,
			"0.025": 0.0
		}
	}
}
