{
	 "smiles": "CC1=C(C=CC=C1)N1C(S)=NN=C1C1=CC=NC=C1", 
	 "Tm": 554.15, 
	 "num_atms": 31, 
	 "gaussian": { 
		 "optdone": 1, 
		 "sigma_profile": "yes", 
		 "theory": "DFT", 
		 "functional": "B3LYP", 
		 "basiset": "6-31G**", 
		 "properties": { 
			 "R2extent": 5879.4557, 
			 "electric_dipole_moment_norm": 5.14428125786, 
			 "electric_quadrupole_moment_norm": 10.1387354867, 
			 "total_energy": -1157.89029377, 
			 "HOMO_LUMO_gap": 0.17658, 
			 "cosmo_polarized_energy": -15.76, 
			 "cosmo_cavitation_energy": 36.77, 
			 "cosmo_dispersion_energy": -25.43, 
			 "cosmo_repulsion_energy": 1.91, 
			 "cosmo_total_nonelectrostatic_energy": 13.25, 
			 "SMD_solvation_energy": 2.72 
		},
		"coords": [
			{
				"x": 0.6439949873,
				"y": 1.9088116759,
				"z": -1.6423791621,
				"element": "C" 
			},
			{
				"x": 0.3172152966,
				"y": 1.3577814489,
				"z": -0.2769440941,
				"element": "C" 
			},
			{
				"x": 0.7450418883,
				"y": 0.0792621321,
				"z": 0.1259311237,
				"element": "C" 
			},
			{
				"x": 0.4526831766,
				"y": -0.4287635459,
				"z": 1.3948084768,
				"element": "C" 
			},
			{
				"x": -0.2931925778,
				"y": 0.3336481433,
				"z": 2.2923294674,
				"element": "C" 
			},
			{
				"x": -0.7396016521,
				"y": 1.5991821825,
				"z": 1.9106113124,
				"element": "C" 
			},
			{
				"x": -0.4341953701,
				"y": 2.0986187579,
				"z": 0.6439341753,
				"element": "C" 
			},
			{
				"x": 1.5306958742,
				"y": -0.7261811227,
				"z": -0.769248633,
				"element": "N" 
			},
			{
				"x": 2.9004825376,
				"y": -0.8416277411,
				"z": -0.7408624538,
				"element": "C" 
			},
			{
				"x": 3.8938629481,
				"y": -0.0510499223,
				"z": 0.4854375328,
				"element": "S" 
			},
			{
				"x": 3.3373953258,
				"y": -1.5893864359,
				"z": -1.7292678799,
				"element": "N" 
			},
			{
				"x": 2.236309922,
				"y": -1.9852015908,
				"z": -2.4444006202,
				"element": "N" 
			},
			{
				"x": 1.1588307825,
				"y": -1.4759521906,
				"z": -1.8817965851,
				"element": "C" 
			},
			{
				"x": -0.1974450967,
				"y": -1.7005043386,
				"z": -2.3971560493,
				"element": "C" 
			},
			{
				"x": -0.3348526425,
				"y": -2.1714135649,
				"z": -3.7145230149,
				"element": "C" 
			},
			{
				"x": -1.6095605558,
				"y": -2.409351814,
				"z": -4.2168703311,
				"element": "C" 
			},
			{
				"x": -2.7405493209,
				"y": -2.213249547,
				"z": -3.5220145904,
				"element": "N" 
			},
			{
				"x": -2.6012476365,
				"y": -1.7714152117,
				"z": -2.2677720752,
				"element": "C" 
			},
			{
				"x": -1.3740111753,
				"y": -1.5043985444,
				"z": -1.6589526966,
				"element": "C" 
			},
			{
				"x": 0.3498639931,
				"y": 2.9584641365,
				"z": -1.7141198304,
				"element": "H" 
			},
			{
				"x": 1.7149477109,
				"y": 1.8393844563,
				"z": -1.8579120093,
				"element": "H" 
			},
			{
				"x": 0.1191753926,
				"y": 1.3586347349,
				"z": -2.431186784,
				"element": "H" 
			},
			{
				"x": 0.8093656502,
				"y": -1.4182191584,
				"z": 1.6629291326,
				"element": "H" 
			},
			{
				"x": -0.5220542589,
				"y": -0.0591537943,
				"z": 3.2778408393,
				"element": "H" 
			},
			{
				"x": -1.3227692245,
				"y": 2.2018990096,
				"z": 2.6004388437,
				"element": "H" 
			},
			{
				"x": -0.7799222141,
				"y": 3.0884103968,
				"z": 0.359086152,
				"element": "H" 
			},
			{
				"x": 5.0343224393,
				"y": -0.5011967282,
				"z": -0.0723600495,
				"element": "H" 
			},
			{
				"x": 0.5484715628,
				"y": -2.3457961914,
				"z": -4.3176376869,
				"element": "H" 
			},
			{
				"x": -1.7309234674,
				"y": -2.7736790821,
				"z": -5.2353496901,
				"element": "H" 
			},
			{
				"x": -3.5222901899,
				"y": -1.6225838693,
				"z": -1.706449654,
				"element": "H" 
			},
			{
				"x": -1.3518441051,
				"y": -1.1665726813,
				"z": -0.6308431659,
				"element": "H" 
			}
		],
		 "valence_orbital": [ 
			{
				"type": "occ",
				"energy": -0.27103,
				"method": "rhf"
			},
			{
				"type": "occ",
				"energy": -0.26436,
				"method": "rhf"
			},
			{
				"type": "occ",
				"energy": -0.25604,
				"method": "rhf"
			},
			{
				"type": "occ",
				"energy": -0.25481,
				"method": "rhf"
			},
			{
				"type": "occ",
				"energy": -0.22897,
				"method": "rhf"
			},
			{
				"type": "unocc",
				"energy": -0.05239,
				"method": "rhf"
			},
			{
				"type": "unocc",
				"energy": -0.03563,
				"method": "rhf"
			},
			{
				"type": "unocc",
				"energy": -0.02795,
				"method": "rhf"
			},
			{
				"type": "unocc",
				"energy": -0.01179,
				"method": "rhf"
			},
			{
				"type": "unocc",
				"energy": 0.00714,
				"method": "rhf"
			}
		],
		"cosmo_sigma_profile": { 
			"-0.025": 0.0,
			"-0.024": 0.0,
			"-0.023": 0.0,
			"-0.022": 0.0,
			"-0.021": 0.0,
			"-0.02": 0.0,
			"-0.019": 0.0,
			"-0.018": 0.0,
			"-0.017": 0.0,
			"-0.016": 0.0,
			"-0.015": 0.0,
			"-0.014": 0.0,
			"-0.013": 0.216192633918,
			"-0.012": 1.58809570685,
			"-0.011": 1.19920244864,
			"-0.01": 1.33252939604,
			"-0.009": 1.33331579131,
			"-0.008": 1.59940342502,
			"-0.007": 7.11332421074,
			"-0.006": 20.1917852554,
			"-0.005": 21.8433635091,
			"-0.004": 23.8701840592,
			"-0.003": 22.737368545,
			"-0.002": 23.2606982248,
			"-0.001": 24.2573332914,
			"0.0": 22.439382309,
			"0.001": 29.2139011605,
			"0.002": 25.5942393565,
			"0.003": 16.1406278166,
			"0.004": 11.9700302654,
			"0.005": 5.08140872222,
			"0.006": 5.47628415369,
			"0.007": 3.7654804416,
			"0.008": 2.9597366243,
			"0.009": 2.27697157521,
			"0.01": 3.97465900046,
			"0.011": 3.38231943465,
			"0.012": 4.44624043628,
			"0.013": 3.49723777435,
			"0.014": 3.36994739247,
			"0.015": 2.56451896264,
			"0.016": 1.07691637038,
			"0.017": 0.0894508142827,
			"0.018": 0.0,
			"0.019": 0.0,
			"0.02": 0.0,
			"0.021": 0.0,
			"0.022": 0.0,
			"0.023": 0.0,
			"0.024": 0.0,
			"0.025": 0.0
		}
	}
}
