{
	 "smiles": "COC1=CC=C(N)C=C1OC", 
	 "Tm": 361.15, 
	 "num_atms": 22, 
	 "gaussian": { 
		 "optdone": 1, 
		 "sigma_profile": "yes", 
		 "theory": "DFT", 
		 "functional": "B3LYP", 
		 "basiset": "6-31G**", 
		 "properties": { 
			 "R2extent": 2420.5165, 
			 "electric_dipole_moment_norm": 1.54816746833, 
			 "electric_quadrupole_moment_norm": 11.7273714045, 
			 "total_energy": -516.646732576, 
			 "HOMO_LUMO_gap": 0.2003, 
			 "cosmo_polarized_energy": -10.21, 
			 "cosmo_cavitation_energy": 25.23, 
			 "cosmo_dispersion_energy": -18.4, 
			 "cosmo_repulsion_energy": 1.5, 
			 "cosmo_total_nonelectrostatic_energy": 8.33, 
			 "SMD_solvation_energy": 5.77 
		},
		"coords": [
			{
				"x": 0.9458940803,
				"y": 1.8757504001,
				"z": -0.9283434668,
				"element": "C" 
			},
			{
				"x": -0.4019082951,
				"y": 1.4743579855,
				"z": -0.6663240511,
				"element": "O" 
			},
			{
				"x": -0.5752729374,
				"y": 0.1057086114,
				"z": -0.5658961013,
				"element": "C" 
			},
			{
				"x": -0.8320484442,
				"y": -0.4676365211,
				"z": 0.6788088306,
				"element": "C" 
			},
			{
				"x": -1.0336329928,
				"y": -1.8397721577,
				"z": 0.8140249111,
				"element": "C" 
			},
			{
				"x": -0.9679981977,
				"y": -2.6796150094,
				"z": -0.3097588903,
				"element": "C" 
			},
			{
				"x": -1.0946871955,
				"y": -4.067530591,
				"z": -0.1780567277,
				"element": "N" 
			},
			{
				"x": -0.7239011297,
				"y": -2.1014607422,
				"z": -1.5660229262,
				"element": "C" 
			},
			{
				"x": -0.5340383262,
				"y": -0.7271989037,
				"z": -1.6988961671,
				"element": "C" 
			},
			{
				"x": -0.2645564542,
				"y": -0.2259796302,
				"z": -2.9543970212,
				"element": "O" 
			},
			{
				"x": -1.2756085148,
				"y": 0.6344219045,
				"z": -3.4905677493,
				"element": "C" 
			},
			{
				"x": 1.3064283712,
				"y": 1.4662110766,
				"z": -1.8780646861,
				"element": "H" 
			},
			{
				"x": 0.9398563421,
				"y": 2.9671946085,
				"z": -0.9778363894,
				"element": "H" 
			},
			{
				"x": 1.6142775256,
				"y": 1.5540678536,
				"z": -0.1191300295,
				"element": "H" 
			},
			{
				"x": -0.8734579248,
				"y": 0.1858130218,
				"z": 1.5449726819,
				"element": "H" 
			},
			{
				"x": -1.2264523279,
				"y": -2.2653777151,
				"z": 1.79531742,
				"element": "H" 
			},
			{
				"x": -1.3987121465,
				"y": -4.5457680406,
				"z": -1.0153159062,
				"element": "H" 
			},
			{
				"x": -1.6231893407,
				"y": -4.3673324937,
				"z": 0.6300573523,
				"element": "H" 
			},
			{
				"x": -0.6724018185,
				"y": -2.7135052308,
				"z": -2.462058691,
				"element": "H" 
			},
			{
				"x": -0.91826623,
				"y": 0.9499457791,
				"z": -4.4732620633,
				"element": "H" 
			},
			{
				"x": -1.4342134947,
				"y": 1.5099706859,
				"z": -2.8541703102,
				"element": "H" 
			},
			{
				"x": -2.2230105484,
				"y": 0.0926351088,
				"z": -3.6083800193,
				"element": "H" 
			}
		],
		 "valence_orbital": [ 
			{
				"type": "occ",
				"energy": -0.29773,
				"method": "rhf"
			},
			{
				"type": "occ",
				"energy": -0.27773,
				"method": "rhf"
			},
			{
				"type": "occ",
				"energy": -0.25397,
				"method": "rhf"
			},
			{
				"type": "occ",
				"energy": -0.23155,
				"method": "rhf"
			},
			{
				"type": "occ",
				"energy": -0.19221,
				"method": "rhf"
			},
			{
				"type": "unocc",
				"energy": 0.00809,
				"method": "rhf"
			},
			{
				"type": "unocc",
				"energy": 0.02411,
				"method": "rhf"
			},
			{
				"type": "unocc",
				"energy": 0.08274,
				"method": "rhf"
			},
			{
				"type": "unocc",
				"energy": 0.09657,
				"method": "rhf"
			},
			{
				"type": "unocc",
				"energy": 0.11745,
				"method": "rhf"
			}
		],
		"cosmo_sigma_profile": { 
			"-0.025": 0.0,
			"-0.024": 0.0,
			"-0.023": 0.0,
			"-0.022": 0.0,
			"-0.021": 0.0,
			"-0.02": 0.0,
			"-0.019": 0.0,
			"-0.018": 0.0,
			"-0.017": 0.0,
			"-0.016": 0.0,
			"-0.015": 0.0,
			"-0.014": 0.0,
			"-0.013": 0.148101422033,
			"-0.012": 2.32023166695,
			"-0.011": 2.64352205401,
			"-0.01": 2.89523176219,
			"-0.009": 3.28324305702,
			"-0.008": 2.51623025187,
			"-0.007": 2.78087982343,
			"-0.006": 6.40484968437,
			"-0.005": 10.9065299273,
			"-0.004": 15.1023540437,
			"-0.003": 20.2964196259,
			"-0.002": 20.5709094775,
			"-0.001": 14.2815680338,
			"0.0": 11.1334658041,
			"0.001": 11.41776386,
			"0.002": 9.88228560867,
			"0.003": 9.03106578626,
			"0.004": 9.83194575104,
			"0.005": 11.3116782677,
			"0.006": 11.7801962427,
			"0.007": 4.50928178979,
			"0.008": 2.77335716432,
			"0.009": 2.78263233846,
			"0.01": 2.86812251664,
			"0.011": 2.53248802487,
			"0.012": 2.64168547369,
			"0.013": 1.40473459299,
			"0.014": 0.570533628414,
			"0.015": 0.424461077753,
			"0.016": 0.015453641532,
			"0.017": 0.0,
			"0.018": 0.0,
			"0.019": 0.0,
			"0.02": 0.0,
			"0.021": 0.0,
			"0.022": 0.0,
			"0.023": 0.0,
			"0.024": 0.0,
			"0.025": 0.0
		}
	}
}
