{
	 "smiles": "OC(=O)CS(O)(=O)=O", 
	 "Tm": 358.15, 
	 "num_atms": 12, 
	 "gaussian": { 
		 "optdone": 1, 
		 "sigma_profile": "yes", 
		 "theory": "DFT", 
		 "functional": "B3LYP", 
		 "basiset": "6-31G**", 
		 "properties": { 
			 "R2extent": 1116.289, 
			 "electric_dipole_moment_norm": 4.43640351862, 
			 "electric_quadrupole_moment_norm": 12.2350690505, 
			 "total_energy": -852.864446702, 
			 "HOMO_LUMO_gap": 0.2847, 
			 "cosmo_polarized_energy": -21.46, 
			 "cosmo_cavitation_energy": 18.63, 
			 "cosmo_dispersion_energy": -14.42, 
			 "cosmo_repulsion_energy": 1.18, 
			 "cosmo_total_nonelectrostatic_energy": 5.39, 
			 "SMD_solvation_energy": 3.7 
		},
		"coords": [
			{
				"x": 1.6679439863,
				"y": -1.9110032711,
				"z": 1.4402386336,
				"element": "O" 
			},
			{
				"x": 0.6531518294,
				"y": -1.0394439798,
				"z": 1.2615910531,
				"element": "C" 
			},
			{
				"x": -0.331916295,
				"y": -0.9918882244,
				"z": 1.9544967272,
				"element": "O" 
			},
			{
				"x": 0.965635857,
				"y": -0.1290262628,
				"z": 0.0864171741,
				"element": "C" 
			},
			{
				"x": -0.488920689,
				"y": 0.8040145081,
				"z": -0.4594585907,
				"element": "S" 
			},
			{
				"x": 0.229643913,
				"y": 1.5116996211,
				"z": -1.7643474986,
				"element": "O" 
			},
			{
				"x": -0.800593624,
				"y": 1.8792034483,
				"z": 0.4765392513,
				"element": "O" 
			},
			{
				"x": -1.4931660074,
				"y": -0.12819515,
				"z": -0.939735703,
				"element": "O" 
			},
			{
				"x": 1.4345609192,
				"y": -2.4538616897,
				"z": 2.2130226564,
				"element": "H" 
			},
			{
				"x": 1.7359693873,
				"y": 0.5937926349,
				"z": 0.3679159512,
				"element": "H" 
			},
			{
				"x": 1.3248612765,
				"y": -0.7053775069,
				"z": -0.7687102665,
				"element": "H" 
			},
			{
				"x": 0.0542294467,
				"y": 2.4649858722,
				"z": -1.686369388,
				"element": "H" 
			}
		],
		 "valence_orbital": [ 
			{
				"type": "occ",
				"energy": -0.34723,
				"method": "rhf"
			},
			{
				"type": "occ",
				"energy": -0.33295,
				"method": "rhf"
			},
			{
				"type": "occ",
				"energy": -0.33085,
				"method": "rhf"
			},
			{
				"type": "occ",
				"energy": -0.31358,
				"method": "rhf"
			},
			{
				"type": "occ",
				"energy": -0.30541,
				"method": "rhf"
			},
			{
				"type": "unocc",
				"energy": -0.02071,
				"method": "rhf"
			},
			{
				"type": "unocc",
				"energy": 0.02588,
				"method": "rhf"
			},
			{
				"type": "unocc",
				"energy": 0.04312,
				"method": "rhf"
			},
			{
				"type": "unocc",
				"energy": 0.05975,
				"method": "rhf"
			},
			{
				"type": "unocc",
				"energy": 0.07856,
				"method": "rhf"
			}
		],
		"cosmo_sigma_profile": { 
			"-0.025": 0.0,
			"-0.024": 0.0,
			"-0.023": 0.0,
			"-0.022": 0.0,
			"-0.021": 0.0510749062844,
			"-0.02": 0.773717286077,
			"-0.019": 1.96429519407,
			"-0.018": 1.52732838098,
			"-0.017": 2.09978043847,
			"-0.016": 1.87033554571,
			"-0.015": 1.0888584378,
			"-0.014": 1.37391119384,
			"-0.013": 1.56679884684,
			"-0.012": 3.71722068738,
			"-0.011": 6.24176803646,
			"-0.01": 3.79229371899,
			"-0.009": 5.29586196911,
			"-0.008": 4.69412967087,
			"-0.007": 4.85548697909,
			"-0.006": 5.19398476791,
			"-0.005": 3.43132101229,
			"-0.004": 3.81057213654,
			"-0.003": 4.39118814271,
			"-0.002": 3.85734989291,
			"-0.001": 3.70575233061,
			"0.0": 4.34744670358,
			"0.001": 3.30903186908,
			"0.002": 2.57294378036,
			"0.003": 4.50907407714,
			"0.004": 4.89901131474,
			"0.005": 5.51548655056,
			"0.006": 7.09187713473,
			"0.007": 7.59437023019,
			"0.008": 8.96351162557,
			"0.009": 16.1835720342,
			"0.01": 15.3879000926,
			"0.011": 1.96055500626,
			"0.012": 0.0,
			"0.013": 0.0,
			"0.014": 0.0,
			"0.015": 0.0,
			"0.016": 0.0,
			"0.017": 0.0,
			"0.018": 0.0,
			"0.019": 0.0,
			"0.02": 0.0,
			"0.021": 0.0,
			"0.022": 0.0,
			"0.023": 0.0,
			"0.024": 0.0,
			"0.025": 0.0
		}
	}
}
