{
	 "smiles": "CNC1CCN(CC1)C1CCOCC1", 
	 "Tm": 306.15, 
	 "num_atms": 36, 
	 "gaussian": { 
		 "optdone": 1, 
		 "sigma_profile": "yes", 
		 "theory": "DFT", 
		 "functional": "B3LYP", 
		 "basiset": "6-31G**", 
		 "properties": { 
			 "R2extent": 4508.9081, 
			 "electric_dipole_moment_norm": 1.52241171173, 
			 "electric_quadrupole_moment_norm": 11.8754313244, 
			 "total_energy": -617.120486183, 
			 "HOMO_LUMO_gap": 0.2743, 
			 "cosmo_polarized_energy": -8.12, 
			 "cosmo_cavitation_energy": 33.79, 
			 "cosmo_dispersion_energy": -24.87, 
			 "cosmo_repulsion_energy": 1.96, 
			 "cosmo_total_nonelectrostatic_energy": 10.88, 
			 "SMD_solvation_energy": 1.34 
		},
		"coords": [
			{
				"x": -3.1769567954,
				"y": 2.7609953896,
				"z": 2.9329775321,
				"element": "C" 
			},
			{
				"x": -2.2094069469,
				"y": 2.8114803157,
				"z": 1.8403824884,
				"element": "N" 
			},
			{
				"x": -1.7289454218,
				"y": 1.494944421,
				"z": 1.4090376995,
				"element": "C" 
			},
			{
				"x": -0.8567879106,
				"y": 0.837046631,
				"z": 2.5061346108,
				"element": "C" 
			},
			{
				"x": 0.2284908049,
				"y": -0.0749594599,
				"z": 1.897176252,
				"element": "C" 
			},
			{
				"x": -0.2760427254,
				"y": -0.7087171818,
				"z": 0.6789578745,
				"element": "N" 
			},
			{
				"x": -0.4564811839,
				"y": 0.2621566184,
				"z": -0.4088016668,
				"element": "C" 
			},
			{
				"x": -0.8912197192,
				"y": 1.6377223168,
				"z": 0.1360056744,
				"element": "C" 
			},
			{
				"x": 0.3894740904,
				"y": -1.9639514416,
				"z": 0.3223282433,
				"element": "C" 
			},
			{
				"x": 1.8281131335,
				"y": -1.8582141658,
				"z": -0.2381266595,
				"element": "C" 
			},
			{
				"x": 2.4525597047,
				"y": -3.2707371111,
				"z": -0.3064498595,
				"element": "C" 
			},
			{
				"x": 1.4723018113,
				"y": -4.3022592462,
				"z": -0.4069887252,
				"element": "O" 
			},
			{
				"x": 0.404201869,
				"y": -3.9356399233,
				"z": -1.2701969562,
				"element": "C" 
			},
			{
				"x": -0.4600831633,
				"y": -2.8167191903,
				"z": -0.6460292724,
				"element": "C" 
			},
			{
				"x": -3.5684084426,
				"y": 3.7659596383,
				"z": 3.1182289333,
				"element": "H" 
			},
			{
				"x": -4.0337877328,
				"y": 2.0859092635,
				"z": 2.7498604458,
				"element": "H" 
			},
			{
				"x": -2.6873846926,
				"y": 2.4271734801,
				"z": 3.853487842,
				"element": "H" 
			},
			{
				"x": -2.6484586605,
				"y": 3.2669340416,
				"z": 1.0432148834,
				"element": "H" 
			},
			{
				"x": -2.5715040907,
				"y": 0.811961359,
				"z": 1.1892473797,
				"element": "H" 
			},
			{
				"x": -1.48826173,
				"y": 0.2545958243,
				"z": 3.1849656674,
				"element": "H" 
			},
			{
				"x": -0.3819038569,
				"y": 1.6313950558,
				"z": 3.0939567919,
				"element": "H" 
			},
			{
				"x": 1.1542384964,
				"y": 0.5052893311,
				"z": 1.7206396328,
				"element": "H" 
			},
			{
				"x": 0.4948488786,
				"y": -0.8615622019,
				"z": 2.6104807661,
				"element": "H" 
			},
			{
				"x": -1.2277120587,
				"y": -0.1166883865,
				"z": -1.0901804443,
				"element": "H" 
			},
			{
				"x": 0.4584121844,
				"y": 0.3993898836,
				"z": -1.0127180929,
				"element": "H" 
			},
			{
				"x": -1.4531669612,
				"y": 2.1692253231,
				"z": -0.642183087,
				"element": "H" 
			},
			{
				"x": -0.0190825853,
				"y": 2.2603286146,
				"z": 0.3672946316,
				"element": "H" 
			},
			{
				"x": 0.4610152856,
				"y": -2.532209153,
				"z": 1.2575775977,
				"element": "H" 
			},
			{
				"x": 2.4494816493,
				"y": -1.2105743302,
				"z": 0.390107197,
				"element": "H" 
			},
			{
				"x": 1.8078296585,
				"y": -1.4032861728,
				"z": -1.235391091,
				"element": "H" 
			},
			{
				"x": 3.1577476284,
				"y": -3.3381959431,
				"z": -1.1511051975,
				"element": "H" 
			},
			{
				"x": 3.0095402666,
				"y": -3.4922882451,
				"z": 0.6099542684,
				"element": "H" 
			},
			{
				"x": -0.1814831648,
				"y": -4.8438683897,
				"z": -1.4376838142,
				"element": "H" 
			},
			{
				"x": 0.8019872692,
				"y": -3.6189859264,
				"z": -2.2487039283,
				"element": "H" 
			},
			{
				"x": -1.3110948058,
				"y": -3.2326358746,
				"z": -0.0976587616,
				"element": "H" 
			},
			{
				"x": -0.8716700822,
				"y": -2.1965151641,
				"z": -1.4499988557,
				"element": "H" 
			}
		],
		 "valence_orbital": [ 
			{
				"type": "occ",
				"energy": -0.30552,
				"method": "rhf"
			},
			{
				"type": "occ",
				"energy": -0.29168,
				"method": "rhf"
			},
			{
				"type": "occ",
				"energy": -0.24294,
				"method": "rhf"
			},
			{
				"type": "occ",
				"energy": -0.2175,
				"method": "rhf"
			},
			{
				"type": "occ",
				"energy": -0.19615,
				"method": "rhf"
			},
			{
				"type": "unocc",
				"energy": 0.07815,
				"method": "rhf"
			},
			{
				"type": "unocc",
				"energy": 0.0828,
				"method": "rhf"
			},
			{
				"type": "unocc",
				"energy": 0.09612,
				"method": "rhf"
			},
			{
				"type": "unocc",
				"energy": 0.10332,
				"method": "rhf"
			},
			{
				"type": "unocc",
				"energy": 0.11519,
				"method": "rhf"
			}
		],
		"cosmo_sigma_profile": { 
			"-0.025": 0.0,
			"-0.024": 0.0,
			"-0.023": 0.0,
			"-0.022": 0.0,
			"-0.021": 0.0,
			"-0.02": 0.0,
			"-0.019": 0.0,
			"-0.018": 0.0,
			"-0.017": 0.0,
			"-0.016": 0.0,
			"-0.015": 0.0,
			"-0.014": 0.0,
			"-0.013": 0.0,
			"-0.012": 0.0,
			"-0.011": 0.0,
			"-0.01": 0.0893970440765,
			"-0.009": 1.1118300755,
			"-0.008": 1.02800930119,
			"-0.007": 1.58281243628,
			"-0.006": 1.89243813809,
			"-0.005": 2.3641284566,
			"-0.004": 10.0173710407,
			"-0.003": 35.4638783724,
			"-0.002": 49.4116563604,
			"-0.001": 51.6440305895,
			"0.0": 42.311773927,
			"0.001": 17.3901488678,
			"0.002": 5.68183641452,
			"0.003": 5.46811529868,
			"0.004": 3.24544026477,
			"0.005": 3.28156822176,
			"0.006": 3.44195042728,
			"0.007": 2.70535019563,
			"0.008": 3.77479218761,
			"0.009": 2.31205332433,
			"0.01": 2.60319806459,
			"0.011": 2.16029353542,
			"0.012": 2.42789881292,
			"0.013": 2.82661608108,
			"0.014": 2.40543936497,
			"0.015": 0.306801572881,
			"0.016": 0.844124181138,
			"0.017": 0.374914951179,
			"0.018": 0.346619452685,
			"0.019": 0.220800816912,
			"0.02": 0.0,
			"0.021": 0.0,
			"0.022": 0.0,
			"0.023": 0.0,
			"0.024": 0.0,
			"0.025": 0.0
		}
	}
}
