{
	 "smiles": "CC1=NN(C(N)=C1)C1=CC=C(OC(F)(F)F)C=C1", 
	 "Tm": 392.15, 
	 "num_atms": 28, 
	 "gaussian": { 
		 "optdone": 1, 
		 "sigma_profile": "yes", 
		 "theory": "DFT", 
		 "functional": "B3LYP", 
		 "basiset": "6-31G**", 
		 "properties": { 
			 "R2extent": 7544.487, 
			 "electric_dipole_moment_norm": 3.77046917372, 
			 "electric_quadrupole_moment_norm": 12.8982759929, 
			 "total_energy": -964.183478588, 
			 "HOMO_LUMO_gap": 0.1904, 
			 "cosmo_polarized_energy": -11.64, 
			 "cosmo_cavitation_energy": 33.93, 
			 "cosmo_dispersion_energy": -24.46, 
			 "cosmo_repulsion_energy": 1.84, 
			 "cosmo_total_nonelectrostatic_energy": 11.3, 
			 "SMD_solvation_energy": 6.79 
		},
		"coords": [
			{
				"x": 0.2619096549,
				"y": -0.266585127,
				"z": -4.1208840695,
				"element": "C" 
			},
			{
				"x": -0.4469510789,
				"y": -0.1642369249,
				"z": -2.8052920872,
				"element": "C" 
			},
			{
				"x": 0.2451915392,
				"y": -0.0133818341,
				"z": -1.6845876274,
				"element": "N" 
			},
			{
				"x": -0.7007864033,
				"y": 0.0661233742,
				"z": -0.6857890536,
				"element": "N" 
			},
			{
				"x": -1.9725993926,
				"y": -0.0700205278,
				"z": -1.1901060337,
				"element": "C" 
			},
			{
				"x": -3.1145268195,
				"y": -0.0171782313,
				"z": -0.3894531869,
				"element": "N" 
			},
			{
				"x": -1.8444254342,
				"y": -0.2085483392,
				"z": -2.5586742182,
				"element": "C" 
			},
			{
				"x": -0.2739074897,
				"y": 0.2052884835,
				"z": 0.6561880587,
				"element": "C" 
			},
			{
				"x": 0.9561749743,
				"y": -0.3476486202,
				"z": 1.0369629033,
				"element": "C" 
			},
			{
				"x": 1.4186365647,
				"y": -0.2114643438,
				"z": 2.3424863784,
				"element": "C" 
			},
			{
				"x": 0.6295007245,
				"y": 0.4597981323,
				"z": 3.277277218,
				"element": "C" 
			},
			{
				"x": 1.0212042317,
				"y": 0.6793945792,
				"z": 4.6049302771,
				"element": "O" 
			},
			{
				"x": 1.6640179331,
				"y": -0.2949461137,
				"z": 5.2914518928,
				"element": "C" 
			},
			{
				"x": 1.0614471921,
				"y": -1.4918129436,
				"z": 5.1770650545,
				"element": "F" 
			},
			{
				"x": 1.6797479891,
				"y": 0.0607474956,
				"z": 6.5759515468,
				"element": "F" 
			},
			{
				"x": 2.9458972824,
				"y": -0.4557359338,
				"z": 4.8904730314,
				"element": "F" 
			},
			{
				"x": -0.5892217489,
				"y": 1.0218946348,
				"z": 2.9115693882,
				"element": "C" 
			},
			{
				"x": -1.0372119463,
				"y": 0.9112439056,
				"z": 1.5966053174,
				"element": "C" 
			},
			{
				"x": 1.3417588402,
				"y": -0.2196406723,
				"z": -3.9646410219,
				"element": "H" 
			},
			{
				"x": 0.0244351579,
				"y": -1.20758228,
				"z": -4.6299202523,
				"element": "H" 
			},
			{
				"x": -0.0267109754,
				"y": 0.5492045916,
				"z": -4.793199625,
				"element": "H" 
			},
			{
				"x": -3.0210617496,
				"y": -0.5165594643,
				"z": 0.4888314986,
				"element": "H" 
			},
			{
				"x": -3.9333909463,
				"y": -0.3400138069,
				"z": -0.8895680569,
				"element": "H" 
			},
			{
				"x": -2.6443908745,
				"y": -0.3375582853,
				"z": -3.273285559,
				"element": "H" 
			},
			{
				"x": 1.5491598808,
				"y": -0.8618484432,
				"z": 0.2909375095,
				"element": "H" 
			},
			{
				"x": 2.3780032403,
				"y": -0.6258655578,
				"z": 2.6246549181,
				"element": "H" 
			},
			{
				"x": -1.1685152557,
				"y": 1.5592529043,
				"z": 3.654488144,
				"element": "H" 
			},
			{
				"x": -1.9659850902,
				"y": 1.3839793482,
				"z": 1.3001276546,
				"element": "H" 
			}
		],
		 "valence_orbital": [ 
			{
				"type": "occ",
				"energy": -0.28118,
				"method": "rhf"
			},
			{
				"type": "occ",
				"energy": -0.27665,
				"method": "rhf"
			},
			{
				"type": "occ",
				"energy": -0.26742,
				"method": "rhf"
			},
			{
				"type": "occ",
				"energy": -0.2205,
				"method": "rhf"
			},
			{
				"type": "occ",
				"energy": -0.21015,
				"method": "rhf"
			},
			{
				"type": "unocc",
				"energy": -0.01975,
				"method": "rhf"
			},
			{
				"type": "unocc",
				"energy": -0.01963,
				"method": "rhf"
			},
			{
				"type": "unocc",
				"energy": 0.04417,
				"method": "rhf"
			},
			{
				"type": "unocc",
				"energy": 0.06829,
				"method": "rhf"
			},
			{
				"type": "unocc",
				"energy": 0.08176,
				"method": "rhf"
			}
		],
		"cosmo_sigma_profile": { 
			"-0.025": 0.0,
			"-0.024": 0.0,
			"-0.023": 0.0,
			"-0.022": 0.0,
			"-0.021": 0.0,
			"-0.02": 0.0,
			"-0.019": 0.0,
			"-0.018": 0.0,
			"-0.017": 0.0,
			"-0.016": 0.0,
			"-0.015": 0.0,
			"-0.014": 0.277527893808,
			"-0.013": 1.80997576161,
			"-0.012": 2.92886683667,
			"-0.011": 2.58706124906,
			"-0.01": 2.62710920953,
			"-0.009": 2.09799779206,
			"-0.008": 3.83468799124,
			"-0.007": 5.40194433156,
			"-0.006": 9.5246274726,
			"-0.005": 10.7551458334,
			"-0.004": 14.2035467759,
			"-0.003": 12.1486499732,
			"-0.002": 18.1812917762,
			"-0.001": 22.306596529,
			"0.0": 23.9785905333,
			"0.001": 31.4754352722,
			"0.002": 45.9615505274,
			"0.003": 19.2633302523,
			"0.004": 9.11481693219,
			"0.005": 9.14267943111,
			"0.006": 7.45875847211,
			"0.007": 4.5600080242,
			"0.008": 2.63676852572,
			"0.009": 2.18364710066,
			"0.01": 1.69008919665,
			"0.011": 1.53479759211,
			"0.012": 1.33339928916,
			"0.013": 0.933018184368,
			"0.014": 1.04228141741,
			"0.015": 0.451011600933,
			"0.016": 0.0624866602156,
			"0.017": 0.0,
			"0.018": 0.0,
			"0.019": 0.0,
			"0.02": 0.0,
			"0.021": 0.0,
			"0.022": 0.0,
			"0.023": 0.0,
			"0.024": 0.0,
			"0.025": 0.0
		}
	}
}
