{
	 "smiles": "CN(CC(O)=O)C(C)=O", 
	 "Tm": 411.15, 
	 "num_atms": 18, 
	 "gaussian": { 
		 "optdone": 1, 
		 "sigma_profile": "yes", 
		 "theory": "DFT", 
		 "functional": "B3LYP", 
		 "basiset": "6-31G**", 
		 "properties": { 
			 "R2extent": 1582.0242, 
			 "electric_dipole_moment_norm": 4.51296724562, 
			 "electric_quadrupole_moment_norm": 8.50784936162, 
			 "total_energy": -476.40231508, 
			 "HOMO_LUMO_gap": 0.2338, 
			 "cosmo_polarized_energy": -16.36, 
			 "cosmo_cavitation_energy": 21.87, 
			 "cosmo_dispersion_energy": -15.63, 
			 "cosmo_repulsion_energy": 1.3, 
			 "cosmo_total_nonelectrostatic_energy": 7.54, 
			 "SMD_solvation_energy": 5.68 
		},
		"coords": [
			{
				"x": -0.2053106357,
				"y": 1.4474275439,
				"z": 0.0239692158,
				"element": "C" 
			},
			{
				"x": 0.1370171108,
				"y": 0.0289182041,
				"z": 0.0604300909,
				"element": "N" 
			},
			{
				"x": 0.6321443196,
				"y": -0.4773735535,
				"z": 1.3158995575,
				"element": "C" 
			},
			{
				"x": 2.113134978,
				"y": -0.1815981947,
				"z": 1.5569430887,
				"element": "C" 
			},
			{
				"x": 2.4540969581,
				"y": -0.4642041444,
				"z": 2.8352819138,
				"element": "O" 
			},
			{
				"x": 2.894678931,
				"y": 0.2261560044,
				"z": 0.730539992,
				"element": "O" 
			},
			{
				"x": 0.2647332351,
				"y": -0.6508772329,
				"z": -1.1401088869,
				"element": "C" 
			},
			{
				"x": 0.7812341264,
				"y": -2.0815051283,
				"z": -1.0785934597,
				"element": "C" 
			},
			{
				"x": -0.0431143069,
				"y": -0.1338914336,
				"z": -2.2054205454,
				"element": "O" 
			},
			{
				"x": 0.6787834003,
				"y": 2.0713064823,
				"z": 0.2045809189,
				"element": "H" 
			},
			{
				"x": -0.5998637763,
				"y": 1.6718862138,
				"z": -0.9652453876,
				"element": "H" 
			},
			{
				"x": -0.9620474313,
				"y": 1.6707086685,
				"z": 0.7842784962,
				"element": "H" 
			},
			{
				"x": 0.4985994131,
				"y": -1.5601863082,
				"z": 1.3925975041,
				"element": "H" 
			},
			{
				"x": 0.0576870219,
				"y": -0.045277573,
				"z": 2.1428227927,
				"element": "H" 
			},
			{
				"x": 3.4060261812,
				"y": -0.2831406095,
				"z": 2.9152083045,
				"element": "H" 
			},
			{
				"x": 0.1475544455,
				"y": -2.7240484628,
				"z": -0.4576891218,
				"element": "H" 
			},
			{
				"x": 1.8009357285,
				"y": -2.1180940348,
				"z": -0.6825016431,
				"element": "H" 
			},
			{
				"x": 0.7823103007,
				"y": -2.4678064412,
				"z": -2.0970928305,
				"element": "H" 
			}
		],
		 "valence_orbital": [ 
			{
				"type": "occ",
				"energy": -0.35147,
				"method": "rhf"
			},
			{
				"type": "occ",
				"energy": -0.33562,
				"method": "rhf"
			},
			{
				"type": "occ",
				"energy": -0.29526,
				"method": "rhf"
			},
			{
				"type": "occ",
				"energy": -0.24725,
				"method": "rhf"
			},
			{
				"type": "occ",
				"energy": -0.24028,
				"method": "rhf"
			},
			{
				"type": "unocc",
				"energy": -0.00648,
				"method": "rhf"
			},
			{
				"type": "unocc",
				"energy": 0.02811,
				"method": "rhf"
			},
			{
				"type": "unocc",
				"energy": 0.06411,
				"method": "rhf"
			},
			{
				"type": "unocc",
				"energy": 0.08145,
				"method": "rhf"
			},
			{
				"type": "unocc",
				"energy": 0.10819,
				"method": "rhf"
			}
		],
		"cosmo_sigma_profile": { 
			"-0.025": 0.0,
			"-0.024": 0.0,
			"-0.023": 0.0,
			"-0.022": 0.0,
			"-0.021": 0.0,
			"-0.02": 0.0,
			"-0.019": 0.23870844499,
			"-0.018": 0.931701531048,
			"-0.017": 1.18292661534,
			"-0.016": 0.423607999494,
			"-0.015": 0.810950742226,
			"-0.014": 1.00553897241,
			"-0.013": 0.558109073968,
			"-0.012": 0.313833048063,
			"-0.011": 1.24299712273,
			"-0.01": 0.577033696076,
			"-0.009": 2.29769778684,
			"-0.008": 5.50176839069,
			"-0.007": 8.94525537795,
			"-0.006": 7.53534228356,
			"-0.005": 11.301084376,
			"-0.004": 12.8693136023,
			"-0.003": 13.4341034307,
			"-0.002": 15.5626136949,
			"-0.001": 13.0635148523,
			"0.0": 8.25985848389,
			"0.001": 6.16930599032,
			"0.002": 5.76705541571,
			"0.003": 5.08483613768,
			"0.004": 4.60873626823,
			"0.005": 5.19216486517,
			"0.006": 4.29001929107,
			"0.007": 3.73282018075,
			"0.008": 5.1076167168,
			"0.009": 3.88680467548,
			"0.01": 3.60231915342,
			"0.011": 6.24782615613,
			"0.012": 3.2654884912,
			"0.013": 3.7773697252,
			"0.014": 4.08383565971,
			"0.015": 0.810689525579,
			"0.016": 0.0,
			"0.017": 0.0,
			"0.018": 0.0,
			"0.019": 0.0,
			"0.02": 0.0,
			"0.021": 0.0,
			"0.022": 0.0,
			"0.023": 0.0,
			"0.024": 0.0,
			"0.025": 0.0
		}
	}
}
