{
	 "smiles": "ClC1=CC2=C(NC(=O)O2)C=C1", 
	 "Tm": 465.15, 
	 "num_atms": 15, 
	 "gaussian": { 
		 "optdone": 1, 
		 "sigma_profile": "yes", 
		 "theory": "DFT", 
		 "functional": "B3LYP", 
		 "basiset": "6-31G**", 
		 "properties": { 
			 "R2extent": 2248.266, 
			 "electric_dipole_moment_norm": 3.74488171509, 
			 "electric_quadrupole_moment_norm": 14.5122773154, 
			 "total_energy": -934.563187808, 
			 "HOMO_LUMO_gap": 0.20164, 
			 "cosmo_polarized_energy": -12.68, 
			 "cosmo_cavitation_energy": 21.84, 
			 "cosmo_dispersion_energy": -16.86, 
			 "cosmo_repulsion_energy": 1.35, 
			 "cosmo_total_nonelectrostatic_energy": 6.33, 
			 "SMD_solvation_energy": 4.72 
		},
		"coords": [
			{
				"x": 1.6424287655,
				"y": -0.4406590181,
				"z": 3.371850768,
				"element": "Cl" 
			},
			{
				"x": 0.9888111268,
				"y": -0.5371144542,
				"z": 1.7440477293,
				"element": "C" 
			},
			{
				"x": 0.0063160156,
				"y": 0.3867522367,
				"z": 1.3609177796,
				"element": "C" 
			},
			{
				"x": -0.46791667,
				"y": 0.2598155546,
				"z": 0.0699349484,
				"element": "C" 
			},
			{
				"x": -0.0091394832,
				"y": -0.7228692958,
				"z": -0.8154186659,
				"element": "C" 
			},
			{
				"x": -0.7250993485,
				"y": -0.5133803002,
				"z": -1.9896900387,
				"element": "N" 
			},
			{
				"x": -1.5957272741,
				"y": 0.5549212041,
				"z": -1.8477149854,
				"element": "C" 
			},
			{
				"x": -2.3662021136,
				"y": 1.0232339626,
				"z": -2.6416554585,
				"element": "O" 
			},
			{
				"x": -1.4231487821,
				"y": 1.0314529175,
				"z": -0.5467810515,
				"element": "O" 
			},
			{
				"x": 0.9635827559,
				"y": -1.6324572383,
				"z": -0.4261281906,
				"element": "C" 
			},
			{
				"x": 1.4627763597,
				"y": -1.526434308,
				"z": 0.8794214666,
				"element": "C" 
			},
			{
				"x": -0.3583251115,
				"y": 1.1520409449,
				"z": 2.0342573294,
				"element": "H" 
			},
			{
				"x": -0.6633005109,
				"y": -1.0307467884,
				"z": -2.8517919232,
				"element": "H" 
			},
			{
				"x": 1.3314177811,
				"y": -2.4006125069,
				"z": -1.0977703056,
				"element": "H" 
			},
			{
				"x": 2.2235264895,
				"y": -2.2163429105,
				"z": 1.2253205982,
				"element": "H" 
			}
		],
		 "valence_orbital": [ 
			{
				"type": "occ",
				"energy": -0.32196,
				"method": "rhf"
			},
			{
				"type": "occ",
				"energy": -0.31098,
				"method": "rhf"
			},
			{
				"type": "occ",
				"energy": -0.30049,
				"method": "rhf"
			},
			{
				"type": "occ",
				"energy": -0.26932,
				"method": "rhf"
			},
			{
				"type": "occ",
				"energy": -0.23248,
				"method": "rhf"
			},
			{
				"type": "unocc",
				"energy": -0.03084,
				"method": "rhf"
			},
			{
				"type": "unocc",
				"energy": -0.01442,
				"method": "rhf"
			},
			{
				"type": "unocc",
				"energy": 0.01749,
				"method": "rhf"
			},
			{
				"type": "unocc",
				"energy": 0.03776,
				"method": "rhf"
			},
			{
				"type": "unocc",
				"energy": 0.06444,
				"method": "rhf"
			}
		],
		"cosmo_sigma_profile": { 
			"-0.025": 0.0,
			"-0.024": 0.0,
			"-0.023": 0.0,
			"-0.022": 0.0,
			"-0.021": 0.0,
			"-0.02": 0.0,
			"-0.019": 0.0,
			"-0.018": 0.42184244648,
			"-0.017": 1.56771490295,
			"-0.016": 1.63443137742,
			"-0.015": 1.13106837173,
			"-0.014": 0.707532276467,
			"-0.013": 1.14442352674,
			"-0.012": 1.2068690938,
			"-0.011": 1.13815107704,
			"-0.01": 1.08704083571,
			"-0.009": 2.48273450157,
			"-0.008": 5.46898933597,
			"-0.007": 6.00622832055,
			"-0.006": 6.5755555661,
			"-0.005": 6.73914787439,
			"-0.004": 7.21556124637,
			"-0.003": 7.95945996126,
			"-0.002": 10.7262200084,
			"-0.001": 12.1034413065,
			"0.0": 13.3079371238,
			"0.001": 16.1013907888,
			"0.002": 17.261150175,
			"0.003": 13.5770365815,
			"0.004": 10.916094232,
			"0.005": 8.18480501059,
			"0.006": 2.77437660824,
			"0.007": 3.46787156756,
			"0.008": 2.63228194226,
			"0.009": 1.78753390886,
			"0.01": 2.66509030127,
			"0.011": 5.23194496265,
			"0.012": 5.14726497119,
			"0.013": 0.319592353918,
			"0.014": 0.0,
			"0.015": 0.0,
			"0.016": 0.0,
			"0.017": 0.0,
			"0.018": 0.0,
			"0.019": 0.0,
			"0.02": 0.0,
			"0.021": 0.0,
			"0.022": 0.0,
			"0.023": 0.0,
			"0.024": 0.0,
			"0.025": 0.0
		}
	}
}
