{
	 "smiles": "CC1=C(N=C(O1)C1=CC(Cl)=C(Cl)C=C1)C(O)=O", 
	 "Tm": 538.15, 
	 "num_atms": 24, 
	 "gaussian": { 
		 "optdone": 1, 
		 "sigma_profile": "yes", 
		 "theory": "DFT", 
		 "functional": "B3LYP", 
		 "basiset": "6-31G**", 
		 "properties": { 
			 "R2extent": 8455.629, 
			 "electric_dipole_moment_norm": 2.36325164128, 
			 "electric_quadrupole_moment_norm": 27.9066099704, 
			 "total_energy": -1624.21243871, 
			 "HOMO_LUMO_gap": 0.17, 
			 "cosmo_polarized_energy": -12.51, 
			 "cosmo_cavitation_energy": 33.65, 
			 "cosmo_dispersion_energy": -24.75, 
			 "cosmo_repulsion_energy": 1.92, 
			 "cosmo_total_nonelectrostatic_energy": 10.82, 
			 "SMD_solvation_energy": 5.79 
		},
		"coords": [
			{
				"x": 2.7955838058,
				"y": 2.6195075772,
				"z": -0.0499512115,
				"element": "C" 
			},
			{
				"x": 1.4283985975,
				"y": 2.1414765443,
				"z": -0.3766322046,
				"element": "C" 
			},
			{
				"x": 0.6863842654,
				"y": 2.0613198892,
				"z": -1.5224132977,
				"element": "C" 
			},
			{
				"x": -0.558726952,
				"y": 1.5186401507,
				"z": -1.239833971,
				"element": "N" 
			},
			{
				"x": -0.5415228481,
				"y": 1.2883601573,
				"z": 0.041401565,
				"element": "C" 
			},
			{
				"x": 0.6434215978,
				"y": 1.6463434398,
				"z": 0.628469856,
				"element": "O" 
			},
			{
				"x": -1.5909096745,
				"y": 0.7201778403,
				"z": 0.8788078944,
				"element": "C" 
			},
			{
				"x": -1.395909096,
				"y": 0.5421266322,
				"z": 2.2542455275,
				"element": "C" 
			},
			{
				"x": -2.4072404059,
				"y": -0.0021802374,
				"z": 3.0439327362,
				"element": "C" 
			},
			{
				"x": -2.114901473,
				"y": -0.2035034041,
				"z": 4.7521673072,
				"element": "Cl" 
			},
			{
				"x": -3.6279215073,
				"y": -0.3746915576,
				"z": 2.4614472098,
				"element": "C" 
			},
			{
				"x": -4.9194954661,
				"y": -1.058612931,
				"z": 3.4096569331,
				"element": "Cl" 
			},
			{
				"x": -3.8195561522,
				"y": -0.1955534803,
				"z": 1.087216132,
				"element": "C" 
			},
			{
				"x": -2.8138218883,
				"y": 0.3462145119,
				"z": 0.2993215995,
				"element": "C" 
			},
			{
				"x": 1.0754215751,
				"y": 2.4673107748,
				"z": -2.887381358,
				"element": "C" 
			},
			{
				"x": 0.1187710971,
				"y": 2.2621151629,
				"z": -3.8169033071,
				"element": "O" 
			},
			{
				"x": 2.1566042606,
				"y": 2.943124094,
				"z": -3.1580272002,
				"element": "O" 
			},
			{
				"x": 3.5433653037,
				"y": 2.0628055835,
				"z": -0.6222220721,
				"element": "H" 
			},
			{
				"x": 2.9939175893,
				"y": 2.5002198621,
				"z": 1.0169503542,
				"element": "H" 
			},
			{
				"x": 2.9094369443,
				"y": 3.672255281,
				"z": -0.3244498099,
				"element": "H" 
			},
			{
				"x": -0.4584041798,
				"y": 0.8254195159,
				"z": 2.7168553454,
				"element": "H" 
			},
			{
				"x": -4.7666931199,
				"y": -0.4868265828,
				"z": 0.6473173743,
				"element": "H" 
			},
			{
				"x": -2.9641841576,
				"y": 0.4842336985,
				"z": -0.765185053,
				"element": "H" 
			},
			{
				"x": -0.655918116,
				"y": 1.8745174775,
				"z": -3.3718903494,
				"element": "H" 
			}
		],
		 "valence_orbital": [ 
			{
				"type": "occ",
				"energy": -0.31568,
				"method": "rhf"
			},
			{
				"type": "occ",
				"energy": -0.293,
				"method": "rhf"
			},
			{
				"type": "occ",
				"energy": -0.27722,
				"method": "rhf"
			},
			{
				"type": "occ",
				"energy": -0.27461,
				"method": "rhf"
			},
			{
				"type": "occ",
				"energy": -0.24312,
				"method": "rhf"
			},
			{
				"type": "unocc",
				"energy": -0.07312,
				"method": "rhf"
			},
			{
				"type": "unocc",
				"energy": -0.043,
				"method": "rhf"
			},
			{
				"type": "unocc",
				"energy": -0.03673,
				"method": "rhf"
			},
			{
				"type": "unocc",
				"energy": -0.00899,
				"method": "rhf"
			},
			{
				"type": "unocc",
				"energy": 0.02494,
				"method": "rhf"
			}
		],
		"cosmo_sigma_profile": { 
			"-0.025": 0.0,
			"-0.024": 0.0,
			"-0.023": 0.0,
			"-0.022": 0.0,
			"-0.021": 0.0,
			"-0.02": 0.0,
			"-0.019": 0.0,
			"-0.018": 0.0,
			"-0.017": 0.0,
			"-0.016": 0.0,
			"-0.015": 0.0944161834848,
			"-0.014": 0.758812325078,
			"-0.013": 0.352491466734,
			"-0.012": 0.536999707241,
			"-0.011": 0.9019059833,
			"-0.01": 0.596153802572,
			"-0.009": 1.01984215015,
			"-0.008": 3.56859236021,
			"-0.007": 7.80262251413,
			"-0.006": 11.6523553727,
			"-0.005": 11.0053515597,
			"-0.004": 16.2226831614,
			"-0.003": 26.7350435595,
			"-0.002": 26.1329590319,
			"-0.001": 25.1322523807,
			"0.0": 29.9890191568,
			"0.001": 24.6437011065,
			"0.002": 17.7924073894,
			"0.003": 20.3281132575,
			"0.004": 16.0939859462,
			"0.005": 6.81925641424,
			"0.006": 3.06511444201,
			"0.007": 2.23803427587,
			"0.008": 3.40315892534,
			"0.009": 3.5565393804,
			"0.01": 4.92285783264,
			"0.011": 4.5367094599,
			"0.012": 3.77466281879,
			"0.013": 1.64835640404,
			"0.014": 0.0733613826142,
			"0.015": 0.0,
			"0.016": 0.0,
			"0.017": 0.0,
			"0.018": 0.0,
			"0.019": 0.0,
			"0.02": 0.0,
			"0.021": 0.0,
			"0.022": 0.0,
			"0.023": 0.0,
			"0.024": 0.0,
			"0.025": 0.0
		}
	}
}
