{
	 "smiles": "OC(=O)CSC=CC1=CC=CC=C1", 
	 "Tm": 355.65, 
	 "num_atms": 23, 
	 "gaussian": { 
		 "optdone": 1, 
		 "sigma_profile": "yes", 
		 "theory": "DFT", 
		 "functional": "B3LYP", 
		 "basiset": "6-31G**", 
		 "properties": { 
			 "R2extent": 4169.7093, 
			 "electric_dipole_moment_norm": 3.72498166036, 
			 "electric_quadrupole_moment_norm": 16.9896361948, 
			 "total_energy": -935.714920724, 
			 "HOMO_LUMO_gap": 0.17734, 
			 "cosmo_polarized_energy": -13.71, 
			 "cosmo_cavitation_energy": 29.07, 
			 "cosmo_dispersion_energy": -21.38, 
			 "cosmo_repulsion_energy": 1.67, 
			 "cosmo_total_nonelectrostatic_energy": 9.36, 
			 "SMD_solvation_energy": 6.24 
		},
		"coords": [
			{
				"x": 2.1212311906,
				"y": 1.5015543036,
				"z": -0.4587189311,
				"element": "O" 
			},
			{
				"x": 1.2432538763,
				"y": 2.5127562124,
				"z": -0.5689513147,
				"element": "C" 
			},
			{
				"x": 1.5369294901,
				"y": 3.5656928954,
				"z": -1.0781157857,
				"element": "O" 
			},
			{
				"x": -0.1527150167,
				"y": 2.2925420524,
				"z": 0.0343488454,
				"element": "C" 
			},
			{
				"x": -0.6733992998,
				"y": 0.5569793028,
				"z": 0.2957607038,
				"element": "S" 
			},
			{
				"x": -0.9875501816,
				"y": 0.0806395479,
				"z": -1.3868490705,
				"element": "C" 
			},
			{
				"x": -1.0527034276,
				"y": -1.1635317773,
				"z": -1.8954013736,
				"element": "C" 
			},
			{
				"x": -0.8747383334,
				"y": -2.4754740232,
				"z": -1.2658749028,
				"element": "C" 
			},
			{
				"x": -0.5929404324,
				"y": -3.5750602139,
				"z": -2.1012706663,
				"element": "C" 
			},
			{
				"x": -0.3900402694,
				"y": -4.8478417164,
				"z": -1.5763900547,
				"element": "C" 
			},
			{
				"x": -0.4777902892,
				"y": -5.0583145739,
				"z": -0.1981199081,
				"element": "C" 
			},
			{
				"x": -0.7779623789,
				"y": -3.9856714376,
				"z": 0.6433637478,
				"element": "C" 
			},
			{
				"x": -0.9780002207,
				"y": -2.7096079496,
				"z": 0.1189638015,
				"element": "C" 
			},
			{
				"x": 1.674027117,
				"y": 0.7298071038,
				"z": -0.0632406356,
				"element": "H" 
			},
			{
				"x": -0.8793366332,
				"y": 2.8272261089,
				"z": -0.5806285753,
				"element": "H" 
			},
			{
				"x": -0.1657258975,
				"y": 2.7545099141,
				"z": 1.027044303,
				"element": "H" 
			},
			{
				"x": -1.1557738573,
				"y": 0.9270116002,
				"z": -2.047615917,
				"element": "H" 
			},
			{
				"x": -1.2484950143,
				"y": -1.2021230126,
				"z": -2.9661037305,
				"element": "H" 
			},
			{
				"x": -0.5234386869,
				"y": -3.4178524313,
				"z": -3.174619301,
				"element": "H" 
			},
			{
				"x": -0.1668071486,
				"y": -5.6766036118,
				"z": -2.2420459299,
				"element": "H" 
			},
			{
				"x": -0.3237611575,
				"y": -6.0508458552,
				"z": 0.2148915193,
				"element": "H" 
			},
			{
				"x": -0.8667147181,
				"y": -4.1431942427,
				"z": 1.71443063,
				"element": "H" 
			},
			{
				"x": -1.2467487109,
				"y": -1.903298196,
				"z": 0.7920425462,
				"element": "H" 
			}
		],
		 "valence_orbital": [ 
			{
				"type": "occ",
				"energy": -0.31646,
				"method": "rhf"
			},
			{
				"type": "occ",
				"energy": -0.28621,
				"method": "rhf"
			},
			{
				"type": "occ",
				"energy": -0.2677,
				"method": "rhf"
			},
			{
				"type": "occ",
				"energy": -0.25876,
				"method": "rhf"
			},
			{
				"type": "occ",
				"energy": -0.2225,
				"method": "rhf"
			},
			{
				"type": "unocc",
				"energy": -0.04516,
				"method": "rhf"
			},
			{
				"type": "unocc",
				"energy": -0.01017,
				"method": "rhf"
			},
			{
				"type": "unocc",
				"energy": -0.00155,
				"method": "rhf"
			},
			{
				"type": "unocc",
				"energy": 0.02034,
				"method": "rhf"
			},
			{
				"type": "unocc",
				"energy": 0.04352,
				"method": "rhf"
			}
		],
		"cosmo_sigma_profile": { 
			"-0.025": 0.0,
			"-0.024": 0.0,
			"-0.023": 0.0,
			"-0.022": 0.0,
			"-0.021": 0.0,
			"-0.02": 0.0,
			"-0.019": 0.0,
			"-0.018": 0.0,
			"-0.017": 0.0,
			"-0.016": 0.0,
			"-0.015": 0.0,
			"-0.014": 0.287281008694,
			"-0.013": 0.738681723015,
			"-0.012": 0.452037772049,
			"-0.011": 0.945536862861,
			"-0.01": 4.08469940633,
			"-0.009": 7.18297418134,
			"-0.008": 6.40403334796,
			"-0.007": 6.61115270746,
			"-0.006": 13.4108341963,
			"-0.005": 16.8388451923,
			"-0.004": 16.3640070241,
			"-0.003": 15.3423895099,
			"-0.002": 13.4422427057,
			"-0.001": 10.7233477312,
			"0.0": 10.7546938298,
			"0.001": 13.5514630839,
			"0.002": 13.2371970822,
			"0.003": 16.8365185145,
			"0.004": 17.0107971758,
			"0.005": 16.5412193567,
			"0.006": 7.47133819019,
			"0.007": 2.52619279636,
			"0.008": 3.36232864096,
			"0.009": 4.55213363745,
			"0.01": 4.51392231227,
			"0.011": 4.74569740319,
			"0.012": 4.91443284457,
			"0.013": 1.13620793298,
			"0.014": 0.0,
			"0.015": 0.0,
			"0.016": 0.0,
			"0.017": 0.0,
			"0.018": 0.0,
			"0.019": 0.0,
			"0.02": 0.0,
			"0.021": 0.0,
			"0.022": 0.0,
			"0.023": 0.0,
			"0.024": 0.0,
			"0.025": 0.0
		}
	}
}
