{
	 "smiles": "CC(C)(C)OC(=O)NC1CCN(CC1)C1=NC=C(C=C1)C#N", 
	 "Tm": 462.15, 
	 "num_atms": 44, 
	 "gaussian": { 
		 "optdone": 1, 
		 "sigma_profile": "yes", 
		 "theory": "DFT", 
		 "functional": "B3LYP", 
		 "basiset": "6-31G**", 
		 "properties": { 
			 "R2extent": 10800.8391, 
			 "electric_dipole_moment_norm": 5.06477962206, 
			 "electric_quadrupole_moment_norm": 51.711809904, 
			 "total_energy": -992.443370723, 
			 "HOMO_LUMO_gap": 0.18051, 
			 "cosmo_polarized_energy": -19.19, 
			 "cosmo_cavitation_energy": 46.33, 
			 "cosmo_dispersion_energy": -31.46, 
			 "cosmo_repulsion_energy": 2.43, 
			 "cosmo_total_nonelectrostatic_energy": 17.31, 
			 "SMD_solvation_energy": 8.46 
		},
		"coords": [
			{
				"x": 2.5429942782,
				"y": 2.8658744769,
				"z": -1.7689356915,
				"element": "C" 
			},
			{
				"x": 1.3739880003,
				"y": 3.4105764563,
				"z": -0.9409455519,
				"element": "C" 
			},
			{
				"x": 0.4200403602,
				"y": 4.2254272142,
				"z": -1.8182524089,
				"element": "C" 
			},
			{
				"x": 1.8482726861,
				"y": 4.2357962393,
				"z": 0.2600402634,
				"element": "C" 
			},
			{
				"x": 0.5200469987,
				"y": 2.302401047,
				"z": -0.4846929428,
				"element": "O" 
			},
			{
				"x": 1.0063632342,
				"y": 1.340429223,
				"z": 0.3365357446,
				"element": "C" 
			},
			{
				"x": 2.1461821961,
				"y": 1.2604602095,
				"z": 0.7702116632,
				"element": "O" 
			},
			{
				"x": 0.0073862247,
				"y": 0.4542321889,
				"z": 0.6386195712,
				"element": "N" 
			},
			{
				"x": 0.286586832,
				"y": -0.7751725895,
				"z": 1.376584391,
				"element": "C" 
			},
			{
				"x": 0.7804122697,
				"y": -1.9036026225,
				"z": 0.4521815372,
				"element": "C" 
			},
			{
				"x": -0.2668116713,
				"y": -2.2503348359,
				"z": -0.6170277213,
				"element": "C" 
			},
			{
				"x": -1.6274201665,
				"y": -2.2030640308,
				"z": -0.0456463795,
				"element": "N" 
			},
			{
				"x": -1.6989833691,
				"y": -2.390709961,
				"z": 1.4021587733,
				"element": "C" 
			},
			{
				"x": -0.9766417668,
				"y": -1.2467603181,
				"z": 2.1403507567,
				"element": "C" 
			},
			{
				"x": -2.7063771197,
				"y": -2.2973434428,
				"z": -0.8889456559,
				"element": "C" 
			},
			{
				"x": -2.412279445,
				"y": -2.3604835947,
				"z": -2.2074579828,
				"element": "N" 
			},
			{
				"x": -3.4032432942,
				"y": -2.4245729152,
				"z": -3.0894157787,
				"element": "C" 
			},
			{
				"x": -4.7621416078,
				"y": -2.4417983245,
				"z": -2.7430333024,
				"element": "C" 
			},
			{
				"x": -5.0707624464,
				"y": -2.374676352,
				"z": -1.3685408848,
				"element": "C" 
			},
			{
				"x": -4.0557042035,
				"y": -2.3005643354,
				"z": -0.4383479242,
				"element": "C" 
			},
			{
				"x": -5.7777872416,
				"y": -2.5216041087,
				"z": -3.7415912739,
				"element": "C" 
			},
			{
				"x": -6.6054366105,
				"y": -2.5861069755,
				"z": -4.5583640199,
				"element": "N" 
			},
			{
				"x": 3.108065085,
				"y": 3.6988682573,
				"z": -2.1996625249,
				"element": "H" 
			},
			{
				"x": 2.1698517131,
				"y": 2.2482127633,
				"z": -2.5921745407,
				"element": "H" 
			},
			{
				"x": 3.2131354764,
				"y": 2.2671496386,
				"z": -1.1516388534,
				"element": "H" 
			},
			{
				"x": 0.9391226529,
				"y": 5.0962203229,
				"z": -2.2295463203,
				"element": "H" 
			},
			{
				"x": 0.0469144102,
				"y": 3.6200276551,
				"z": -2.6494664597,
				"element": "H" 
			},
			{
				"x": -0.4366543864,
				"y": 4.5759801093,
				"z": -1.2353288438,
				"element": "H" 
			},
			{
				"x": 0.9908034197,
				"y": 4.5741491364,
				"z": 0.8504460605,
				"element": "H" 
			},
			{
				"x": 2.5095029808,
				"y": 3.6501047293,
				"z": 0.8991336321,
				"element": "H" 
			},
			{
				"x": 2.3882980766,
				"y": 5.1207679719,
				"z": -0.0920496312,
				"element": "H" 
			},
			{
				"x": -0.8530848425,
				"y": 0.5336462661,
				"z": 0.1161477635,
				"element": "H" 
			},
			{
				"x": 1.0812579036,
				"y": -0.5187216391,
				"z": 2.0800082815,
				"element": "H" 
			},
			{
				"x": 1.0199308306,
				"y": -2.7811250153,
				"z": 1.0652183314,
				"element": "H" 
			},
			{
				"x": 1.7089686887,
				"y": -1.6002381212,
				"z": -0.0393882367,
				"element": "H" 
			},
			{
				"x": -0.0692902911,
				"y": -3.2380698462,
				"z": -1.0549073296,
				"element": "H" 
			},
			{
				"x": -0.223526531,
				"y": -1.5364392455,
				"z": -1.4413872158,
				"element": "H" 
			},
			{
				"x": -2.736104717,
				"y": -2.4519604573,
				"z": 1.7258220871,
				"element": "H" 
			},
			{
				"x": -1.2403584696,
				"y": -3.3564599416,
				"z": 1.6603053735,
				"element": "H" 
			},
			{
				"x": -0.7010710731,
				"y": -1.5959926247,
				"z": 3.1412977061,
				"element": "H" 
			},
			{
				"x": -1.6508019365,
				"y": -0.395014601,
				"z": 2.2763694684,
				"element": "H" 
			},
			{
				"x": -3.1129398105,
				"y": -2.4706514472,
				"z": -4.1373523284,
				"element": "H" 
			},
			{
				"x": -6.1072250099,
				"y": -2.3775010645,
				"z": -1.0467026904,
				"element": "H" 
			},
			{
				"x": -4.3063783075,
				"y": -2.2349554951,
				"z": 0.6123710885,
				"element": "H" 
			}
		],
		 "valence_orbital": [ 
			{
				"type": "occ",
				"energy": -0.28898,
				"method": "rhf"
			},
			{
				"type": "occ",
				"energy": -0.27126,
				"method": "rhf"
			},
			{
				"type": "occ",
				"energy": -0.26754,
				"method": "rhf"
			},
			{
				"type": "occ",
				"energy": -0.25372,
				"method": "rhf"
			},
			{
				"type": "occ",
				"energy": -0.21892,
				"method": "rhf"
			},
			{
				"type": "unocc",
				"energy": -0.03841,
				"method": "rhf"
			},
			{
				"type": "unocc",
				"energy": -0.03401,
				"method": "rhf"
			},
			{
				"type": "unocc",
				"energy": 0.03981,
				"method": "rhf"
			},
			{
				"type": "unocc",
				"energy": 0.04937,
				"method": "rhf"
			},
			{
				"type": "unocc",
				"energy": 0.06129,
				"method": "rhf"
			}
		],
		"cosmo_sigma_profile": { 
			"-0.025": 0.0,
			"-0.024": 0.0,
			"-0.023": 0.0,
			"-0.022": 0.0,
			"-0.021": 0.0,
			"-0.02": 0.0,
			"-0.019": 0.0,
			"-0.018": 0.0,
			"-0.017": 0.0,
			"-0.016": 0.0,
			"-0.015": 0.0,
			"-0.014": 0.0,
			"-0.013": 0.0,
			"-0.012": 0.361329777954,
			"-0.011": 0.620769747046,
			"-0.01": 0.764402162995,
			"-0.009": 3.06394835739,
			"-0.008": 4.73971027764,
			"-0.007": 8.71330642528,
			"-0.006": 9.45627741592,
			"-0.005": 14.5359841774,
			"-0.004": 39.3357614454,
			"-0.003": 42.0885627428,
			"-0.002": 34.5054257042,
			"-0.001": 35.4610334887,
			"0.0": 38.906540246,
			"0.001": 36.2038409798,
			"0.002": 16.5573426799,
			"0.003": 11.5293565179,
			"0.004": 7.63527326599,
			"0.005": 8.57911051332,
			"0.006": 7.34249572825,
			"0.007": 7.43626251152,
			"0.008": 7.02927973764,
			"0.009": 6.00402678784,
			"0.01": 6.0780258086,
			"0.011": 4.5099630544,
			"0.012": 5.92468076153,
			"0.013": 4.99036874702,
			"0.014": 2.2001282206,
			"0.015": 0.0,
			"0.016": 0.0,
			"0.017": 0.0,
			"0.018": 0.0,
			"0.019": 0.0,
			"0.02": 0.0,
			"0.021": 0.0,
			"0.022": 0.0,
			"0.023": 0.0,
			"0.024": 0.0,
			"0.025": 0.0
		}
	}
}
