{
	 "smiles": "O=C1NC2=C(C=CC=C2)S(=O)(=O)N1", 
	 "Tm": 575.15, 
	 "num_atms": 19, 
	 "gaussian": { 
		 "optdone": 1, 
		 "sigma_profile": "yes", 
		 "theory": "DFT", 
		 "functional": "B3LYP", 
		 "basiset": "6-31G**", 
		 "properties": { 
			 "R2extent": 2357.0692, 
			 "electric_dipole_moment_norm": 5.28998944517, 
			 "electric_quadrupole_moment_norm": 9.5383508779, 
			 "total_energy": -1003.67202414, 
			 "HOMO_LUMO_gap": 0.20185, 
			 "cosmo_polarized_energy": -19.01, 
			 "cosmo_cavitation_energy": 24.85, 
			 "cosmo_dispersion_energy": -19.24, 
			 "cosmo_repulsion_energy": 1.45, 
			 "cosmo_total_nonelectrostatic_energy": 7.06, 
			 "SMD_solvation_energy": 4.23 
		},
		"coords": [
			{
				"x": 1.5950727218,
				"y": 1.8938325583,
				"z": -2.8329652923,
				"element": "O" 
			},
			{
				"x": 1.1810166289,
				"y": 1.2403540266,
				"z": -1.8958838886,
				"element": "C" 
			},
			{
				"x": 1.4351614561,
				"y": 1.5800430195,
				"z": -0.5747421928,
				"element": "N" 
			},
			{
				"x": 1.2154984492,
				"y": 0.7916110726,
				"z": 0.5559778165,
				"element": "C" 
			},
			{
				"x": 0.3209206068,
				"y": -0.2900950903,
				"z": 0.5255442062,
				"element": "C" 
			},
			{
				"x": 0.1337179873,
				"y": -1.1185685387,
				"z": 1.632126673,
				"element": "C" 
			},
			{
				"x": 0.8272904213,
				"y": -0.8545635516,
				"z": 2.8094098273,
				"element": "C" 
			},
			{
				"x": 1.6999465928,
				"y": 0.2378039247,
				"z": 2.8630049106,
				"element": "C" 
			},
			{
				"x": 1.9029530557,
				"y": 1.049382714,
				"z": 1.7510552493,
				"element": "C" 
			},
			{
				"x": -0.6835554069,
				"y": -0.5125244995,
				"z": -0.9179821262,
				"element": "S" 
			},
			{
				"x": -1.816886165,
				"y": 0.4109181916,
				"z": -0.8708002164,
				"element": "O" 
			},
			{
				"x": -0.9086981051,
				"y": -1.9273819335,
				"z": -1.2024285565,
				"element": "O" 
			},
			{
				"x": 0.4699549029,
				"y": 0.0452291205,
				"z": -2.0556870895,
				"element": "N" 
			},
			{
				"x": 2.0161433304,
				"y": 2.40212492,
				"z": -0.484479767,
				"element": "H" 
			},
			{
				"x": -0.5499211429,
				"y": -1.9576189795,
				"z": 1.5553820122,
				"element": "H" 
			},
			{
				"x": 0.6899017348,
				"y": -1.4913938351,
				"z": 3.6765044247,
				"element": "H" 
			},
			{
				"x": 2.2418398286,
				"y": 0.4526583858,
				"z": 3.7789219569,
				"element": "H" 
			},
			{
				"x": 2.602266849,
				"y": 1.8795202333,
				"z": 1.7960795464,
				"element": "H" 
			},
			{
				"x": 0.2372762544,
				"y": -0.1674317386,
				"z": -3.0215374938,
				"element": "H" 
			}
		],
		 "valence_orbital": [ 
			{
				"type": "occ",
				"energy": -0.3295,
				"method": "rhf"
			},
			{
				"type": "occ",
				"energy": -0.2993,
				"method": "rhf"
			},
			{
				"type": "occ",
				"energy": -0.28854,
				"method": "rhf"
			},
			{
				"type": "occ",
				"energy": -0.28425,
				"method": "rhf"
			},
			{
				"type": "occ",
				"energy": -0.25214,
				"method": "rhf"
			},
			{
				"type": "unocc",
				"energy": -0.05029,
				"method": "rhf"
			},
			{
				"type": "unocc",
				"energy": -0.03792,
				"method": "rhf"
			},
			{
				"type": "unocc",
				"energy": 0.01616,
				"method": "rhf"
			},
			{
				"type": "unocc",
				"energy": 0.04377,
				"method": "rhf"
			},
			{
				"type": "unocc",
				"energy": 0.05166,
				"method": "rhf"
			}
		],
		"cosmo_sigma_profile": { 
			"-0.025": 0.0,
			"-0.024": 0.0,
			"-0.023": 0.0,
			"-0.022": 0.0,
			"-0.021": 0.0,
			"-0.02": 0.0,
			"-0.019": 0.0,
			"-0.018": 0.207896812322,
			"-0.017": 1.7393356895,
			"-0.016": 2.6536814455,
			"-0.015": 1.99952698228,
			"-0.014": 1.80382731125,
			"-0.013": 2.30635912954,
			"-0.012": 1.99046815598,
			"-0.011": 2.10711162015,
			"-0.01": 2.0471565424,
			"-0.009": 1.99613546035,
			"-0.008": 5.13390805411,
			"-0.007": 10.3216098325,
			"-0.006": 11.4095948005,
			"-0.005": 8.41952409607,
			"-0.004": 7.54186593331,
			"-0.003": 9.19439253315,
			"-0.002": 10.432460813,
			"-0.001": 12.0728412475,
			"0.0": 13.3005550811,
			"0.001": 13.9264265427,
			"0.002": 14.8518703219,
			"0.003": 8.96320506558,
			"0.004": 3.22717482739,
			"0.005": 3.39772388806,
			"0.006": 3.80148334455,
			"0.007": 4.2606363172,
			"0.008": 5.18651040146,
			"0.009": 9.84180446765,
			"0.01": 13.5156718823,
			"0.011": 5.9286867804,
			"0.012": 5.55938774864,
			"0.013": 0.436296292449,
			"0.014": 0.0,
			"0.015": 0.0,
			"0.016": 0.0,
			"0.017": 0.0,
			"0.018": 0.0,
			"0.019": 0.0,
			"0.02": 0.0,
			"0.021": 0.0,
			"0.022": 0.0,
			"0.023": 0.0,
			"0.024": 0.0,
			"0.025": 0.0
		}
	}
}
