{
	 "smiles": "SC1=NN=C(NC2=C(Cl)C=CC=C2)S1", 
	 "Tm": 448.15, 
	 "num_atms": 20, 
	 "gaussian": { 
		 "optdone": 1, 
		 "sigma_profile": "yes", 
		 "theory": "DFT", 
		 "functional": "B3LYP", 
		 "basiset": "6-31G**", 
		 "properties": { 
			 "R2extent": 6192.7058, 
			 "electric_dipole_moment_norm": 1.0597813265, 
			 "electric_quadrupole_moment_norm": 9.48573217891, 
			 "total_energy": -1729.25092896, 
			 "HOMO_LUMO_gap": 0.1763, 
			 "cosmo_polarized_energy": -10.93, 
			 "cosmo_cavitation_energy": 29.96, 
			 "cosmo_dispersion_energy": -23.58, 
			 "cosmo_repulsion_energy": 1.75, 
			 "cosmo_total_nonelectrostatic_energy": 8.14, 
			 "SMD_solvation_energy": 2.4 
		},
		"coords": [
			{
				"x": -3.0478982017,
				"y": 4.4139373885,
				"z": 3.1036926907,
				"element": "S" 
			},
			{
				"x": -2.3099994268,
				"y": 2.9701256166,
				"z": 2.4014866682,
				"element": "C" 
			},
			{
				"x": -2.940480791,
				"y": 2.0860671085,
				"z": 1.6947026943,
				"element": "N" 
			},
			{
				"x": -2.1401114206,
				"y": 1.0578007514,
				"z": 1.264820594,
				"element": "N" 
			},
			{
				"x": -0.9008314633,
				"y": 1.1762901044,
				"z": 1.6548505433,
				"element": "C" 
			},
			{
				"x": 0.1293717606,
				"y": 0.316517104,
				"z": 1.3876335139,
				"element": "N" 
			},
			{
				"x": 0.1132493412,
				"y": -0.8739108171,
				"z": 0.6488892354,
				"element": "C" 
			},
			{
				"x": 1.3175421686,
				"y": -1.595137612,
				"z": 0.5105896556,
				"element": "C" 
			},
			{
				"x": 2.7951621215,
				"y": -0.9830079762,
				"z": 1.2645953728,
				"element": "Cl" 
			},
			{
				"x": 1.3802711348,
				"y": -2.783745774,
				"z": -0.2068749061,
				"element": "C" 
			},
			{
				"x": 0.2280520802,
				"y": -3.2868145201,
				"z": -0.8107695037,
				"element": "C" 
			},
			{
				"x": -0.9714679124,
				"y": -2.5869517096,
				"z": -0.6844512493,
				"element": "C" 
			},
			{
				"x": -1.0378298953,
				"y": -1.3951250476,
				"z": 0.0340695493,
				"element": "C" 
			},
			{
				"x": -0.5915099596,
				"y": 2.6305030199,
				"z": 2.6313904967,
				"element": "S" 
			},
			{
				"x": -4.2667720504,
				"y": 4.1195217607,
				"z": 2.6083780249,
				"element": "H" 
			},
			{
				"x": 1.0321782406,
				"y": 0.5615342376,
				"z": 1.7693246914,
				"element": "H" 
			},
			{
				"x": 2.3280621634,
				"y": -3.3043925032,
				"z": -0.2867548702,
				"element": "H" 
			},
			{
				"x": 0.2740804197,
				"y": -4.2146450729,
				"z": -1.3715531496,
				"element": "H" 
			},
			{
				"x": -1.8753927436,
				"y": -2.9679357498,
				"z": -1.1497838588,
				"element": "H" 
			},
			{
				"x": -1.9675755658,
				"y": -0.8514303092,
				"z": 0.1326638074,
				"element": "H" 
			}
		],
		 "valence_orbital": [ 
			{
				"type": "occ",
				"energy": -0.29869,
				"method": "rhf"
			},
			{
				"type": "occ",
				"energy": -0.27304,
				"method": "rhf"
			},
			{
				"type": "occ",
				"energy": -0.25838,
				"method": "rhf"
			},
			{
				"type": "occ",
				"energy": -0.25488,
				"method": "rhf"
			},
			{
				"type": "occ",
				"energy": -0.21494,
				"method": "rhf"
			},
			{
				"type": "unocc",
				"energy": -0.03864,
				"method": "rhf"
			},
			{
				"type": "unocc",
				"energy": -0.02855,
				"method": "rhf"
			},
			{
				"type": "unocc",
				"energy": -0.01655,
				"method": "rhf"
			},
			{
				"type": "unocc",
				"energy": -0.00178,
				"method": "rhf"
			},
			{
				"type": "unocc",
				"energy": 0.0067,
				"method": "rhf"
			}
		],
		"cosmo_sigma_profile": { 
			"-0.025": 0.0,
			"-0.024": 0.0,
			"-0.023": 0.0,
			"-0.022": 0.0,
			"-0.021": 0.0,
			"-0.02": 0.0,
			"-0.019": 0.0,
			"-0.018": 0.0,
			"-0.017": 0.0,
			"-0.016": 0.0183025839718,
			"-0.015": 0.963053376356,
			"-0.014": 0.922562778162,
			"-0.013": 1.04130016133,
			"-0.012": 2.06059613308,
			"-0.011": 2.70437582583,
			"-0.01": 2.1008229789,
			"-0.009": 2.07945739035,
			"-0.008": 3.119900107,
			"-0.007": 5.23535022316,
			"-0.006": 9.69595872736,
			"-0.005": 11.321307188,
			"-0.004": 12.7206515731,
			"-0.003": 11.9421188471,
			"-0.002": 18.2281038345,
			"-0.001": 20.7375396231,
			"0.0": 22.7935004786,
			"0.001": 25.3078181147,
			"0.002": 24.6281601656,
			"0.003": 21.682687135,
			"0.004": 21.1502577124,
			"0.005": 7.85731694656,
			"0.006": 4.7228419221,
			"0.007": 2.50923280598,
			"0.008": 2.51024271521,
			"0.009": 2.87799480511,
			"0.01": 2.5913288668,
			"0.011": 2.68300987076,
			"0.012": 1.40950603442,
			"0.013": 1.18797902825,
			"0.014": 0.39979292422,
			"0.015": 0.0,
			"0.016": 0.0,
			"0.017": 0.0,
			"0.018": 0.0,
			"0.019": 0.0,
			"0.02": 0.0,
			"0.021": 0.0,
			"0.022": 0.0,
			"0.023": 0.0,
			"0.024": 0.0,
			"0.025": 0.0
		}
	}
}
