{
	 "smiles": "CCC1=CC=CC=C1", 
	 "Tm": 178.15, 
	 "num_atms": 18, 
	 "gaussian": { 
		 "optdone": 1, 
		 "sigma_profile": "yes", 
		 "theory": "DFT", 
		 "functional": "B3LYP", 
		 "basiset": "6-31G**", 
		 "properties": { 
			 "R2extent": 1061.5021, 
			 "electric_dipole_moment_norm": 0.295974542824, 
			 "electric_quadrupole_moment_norm": 5.40409949483, 
			 "total_energy": -310.888560222, 
			 "HOMO_LUMO_gap": 0.24032, 
			 "cosmo_polarized_energy": -3.0, 
			 "cosmo_cavitation_energy": 20.84, 
			 "cosmo_dispersion_energy": -15.28, 
			 "cosmo_repulsion_energy": 1.28, 
			 "cosmo_total_nonelectrostatic_energy": 6.84, 
			 "SMD_solvation_energy": 3.59 
		},
		"coords": [
			{
				"x": 2.4187690733,
				"y": 0.4734019587,
				"z": -1.5646758555,
				"element": "C" 
			},
			{
				"x": 1.933192851,
				"y": 0.2531181431,
				"z": -0.1208803099,
				"element": "C" 
			},
			{
				"x": 0.4246540919,
				"y": 0.16939296,
				"z": -0.013245651,
				"element": "C" 
			},
			{
				"x": -0.2386152994,
				"y": -1.0586120041,
				"z": -0.1426782939,
				"element": "C" 
			},
			{
				"x": -1.6308795376,
				"y": -1.1337173754,
				"z": -0.0820314038,
				"element": "C" 
			},
			{
				"x": -2.3872178221,
				"y": 0.0238455536,
				"z": 0.1108327336,
				"element": "C" 
			},
			{
				"x": -1.740109626,
				"y": 1.2538694946,
				"z": 0.2431234308,
				"element": "C" 
			},
			{
				"x": -0.3475689099,
				"y": 1.3228063358,
				"z": 0.1816607929,
				"element": "C" 
			},
			{
				"x": 3.5117152541,
				"y": 0.52935197,
				"z": -1.6076447471,
				"element": "H" 
			},
			{
				"x": 2.0944614898,
				"y": -0.3445178403,
				"z": -2.216343864,
				"element": "H" 
			},
			{
				"x": 2.0143976589,
				"y": 1.4038694846,
				"z": -1.9764568942,
				"element": "H" 
			},
			{
				"x": 2.3795090742,
				"y": -0.6681001649,
				"z": 0.272672967,
				"element": "H" 
			},
			{
				"x": 2.2999866508,
				"y": 1.0708776407,
				"z": 0.5111539636,
				"element": "H" 
			},
			{
				"x": 0.3438586565,
				"y": -1.9657699226,
				"z": -0.2881563547,
				"element": "H" 
			},
			{
				"x": -2.1245502828,
				"y": -2.0967017588,
				"z": -0.1806632938,
				"element": "H" 
			},
			{
				"x": -3.4708151075,
				"y": -0.0326898973,
				"z": 0.1619397627,
				"element": "H" 
			},
			{
				"x": -2.3192954989,
				"y": 2.1599609226,
				"z": 0.3990710058,
				"element": "H" 
			},
			{
				"x": 0.1494072839,
				"y": 2.2843144999,
				"z": 0.2907220114,
				"element": "H" 
			}
		],
		 "valence_orbital": [ 
			{
				"type": "occ",
				"energy": -0.34479,
				"method": "rhf"
			},
			{
				"type": "occ",
				"energy": -0.32809,
				"method": "rhf"
			},
			{
				"type": "occ",
				"energy": -0.32529,
				"method": "rhf"
			},
			{
				"type": "occ",
				"energy": -0.2441,
				"method": "rhf"
			},
			{
				"type": "occ",
				"energy": -0.23605,
				"method": "rhf"
			},
			{
				"type": "unocc",
				"energy": 0.00427,
				"method": "rhf"
			},
			{
				"type": "unocc",
				"energy": 0.00492,
				"method": "rhf"
			},
			{
				"type": "unocc",
				"energy": 0.09338,
				"method": "rhf"
			},
			{
				"type": "unocc",
				"energy": 0.11455,
				"method": "rhf"
			},
			{
				"type": "unocc",
				"energy": 0.13283,
				"method": "rhf"
			}
		],
		"cosmo_sigma_profile": { 
			"-0.025": 0.0,
			"-0.024": 0.0,
			"-0.023": 0.0,
			"-0.022": 0.0,
			"-0.021": 0.0,
			"-0.02": 0.0,
			"-0.019": 0.0,
			"-0.018": 0.0,
			"-0.017": 0.0,
			"-0.016": 0.0,
			"-0.015": 0.0,
			"-0.014": 0.0,
			"-0.013": 0.0,
			"-0.012": 0.0,
			"-0.011": 0.0,
			"-0.01": 0.0,
			"-0.009": 0.0,
			"-0.008": 0.0,
			"-0.007": 0.0,
			"-0.006": 0.872839680899,
			"-0.005": 8.46635697735,
			"-0.004": 12.1391083805,
			"-0.003": 21.7466724575,
			"-0.002": 18.2007571914,
			"-0.001": 20.1194066399,
			"0.0": 19.1382706836,
			"0.001": 16.3634563106,
			"0.002": 10.5831274503,
			"0.003": 7.48404230783,
			"0.004": 8.01843089395,
			"0.005": 7.55837225494,
			"0.006": 8.38233770326,
			"0.007": 5.39847684155,
			"0.008": 0.0133516714587,
			"0.009": 0.0,
			"0.01": 0.0,
			"0.011": 0.0,
			"0.012": 0.0,
			"0.013": 0.0,
			"0.014": 0.0,
			"0.015": 0.0,
			"0.016": 0.0,
			"0.017": 0.0,
			"0.018": 0.0,
			"0.019": 0.0,
			"0.02": 0.0,
			"0.021": 0.0,
			"0.022": 0.0,
			"0.023": 0.0,
			"0.024": 0.0,
			"0.025": 0.0
		}
	}
}
