{
	 "smiles": "CCCCC=C", 
	 "Tm": 133.15, 
	 "num_atms": 18, 
	 "gaussian": { 
		 "optdone": 1, 
		 "sigma_profile": "yes", 
		 "theory": "DFT", 
		 "functional": "B3LYP", 
		 "basiset": "6-31G**", 
		 "properties": { 
			 "R2extent": 1104.1214, 
			 "electric_dipole_moment_norm": 0.375744607413, 
			 "electric_quadrupole_moment_norm": 1.28750576309, 
			 "total_energy": -235.858632553, 
			 "HOMO_LUMO_gap": 0.275, 
			 "cosmo_polarized_energy": -1.52, 
			 "cosmo_cavitation_energy": 19.92, 
			 "cosmo_dispersion_energy": -14.37, 
			 "cosmo_repulsion_energy": 1.25, 
			 "cosmo_total_nonelectrostatic_energy": 6.8, 
			 "SMD_solvation_energy": 3.9 
		},
		"coords": [
			{
				"x": 2.8088068865,
				"y": -1.0281511622,
				"z": 0.0761786502,
				"element": "C" 
			},
			{
				"x": 1.4743974763,
				"y": -0.3040940096,
				"z": -0.1281482236,
				"element": "C" 
			},
			{
				"x": 0.3933180469,
				"y": -1.203499199,
				"z": -0.7456466136,
				"element": "C" 
			},
			{
				"x": -0.9550531545,
				"y": -0.5050199393,
				"z": -0.9756608455,
				"element": "C" 
			},
			{
				"x": -1.0294550393,
				"y": 0.4945281491,
				"z": -2.1053524611,
				"element": "C" 
			},
			{
				"x": -0.1184673447,
				"y": 0.7172381282,
				"z": -3.0537745408,
				"element": "C" 
			},
			{
				"x": 3.2175157604,
				"y": -1.3838042516,
				"z": -0.8768203205,
				"element": "H" 
			},
			{
				"x": 3.5561050697,
				"y": -0.370284109,
				"z": 0.531978502,
				"element": "H" 
			},
			{
				"x": 2.6920541359,
				"y": -1.9009792849,
				"z": 0.7291814379,
				"element": "H" 
			},
			{
				"x": 1.6263462741,
				"y": 0.5789075767,
				"z": -0.7593124776,
				"element": "H" 
			},
			{
				"x": 1.1113664864,
				"y": 0.0732307992,
				"z": 0.8377617543,
				"element": "H" 
			},
			{
				"x": 0.7570237732,
				"y": -1.6265240764,
				"z": -1.691780182,
				"element": "H" 
			},
			{
				"x": 0.2291235621,
				"y": -2.0617620312,
				"z": -0.0807553868,
				"element": "H" 
			},
			{
				"x": -1.2647828411,
				"y": -0.0031389101,
				"z": -0.0467069473,
				"element": "H" 
			},
			{
				"x": -1.7314780978,
				"y": -1.2645657514,
				"z": -1.1539249012,
				"element": "H" 
			},
			{
				"x": -1.9558767447,
				"y": 1.0700172482,
				"z": -2.1378910257,
				"element": "H" 
			},
			{
				"x": -0.2905014779,
				"y": 1.449397426,
				"z": -3.8371773813,
				"element": "H" 
			},
			{
				"x": 0.8272572284,
				"y": 0.184403397,
				"z": -3.0929490377,
				"element": "H" 
			}
		],
		 "valence_orbital": [ 
			{
				"type": "occ",
				"energy": -0.34492,
				"method": "rhf"
			},
			{
				"type": "occ",
				"energy": -0.32319,
				"method": "rhf"
			},
			{
				"type": "occ",
				"energy": -0.32045,
				"method": "rhf"
			},
			{
				"type": "occ",
				"energy": -0.31581,
				"method": "rhf"
			},
			{
				"type": "occ",
				"energy": -0.24796,
				"method": "rhf"
			},
			{
				"type": "unocc",
				"energy": 0.02704,
				"method": "rhf"
			},
			{
				"type": "unocc",
				"energy": 0.09102,
				"method": "rhf"
			},
			{
				"type": "unocc",
				"energy": 0.10902,
				"method": "rhf"
			},
			{
				"type": "unocc",
				"energy": 0.13299,
				"method": "rhf"
			},
			{
				"type": "unocc",
				"energy": 0.1424,
				"method": "rhf"
			}
		],
		"cosmo_sigma_profile": { 
			"-0.025": 0.0,
			"-0.024": 0.0,
			"-0.023": 0.0,
			"-0.022": 0.0,
			"-0.021": 0.0,
			"-0.02": 0.0,
			"-0.019": 0.0,
			"-0.018": 0.0,
			"-0.017": 0.0,
			"-0.016": 0.0,
			"-0.015": 0.0,
			"-0.014": 0.0,
			"-0.013": 0.0,
			"-0.012": 0.0,
			"-0.011": 0.0,
			"-0.01": 0.0,
			"-0.009": 0.0,
			"-0.008": 0.0,
			"-0.007": 0.0,
			"-0.006": 0.0,
			"-0.005": 0.740857211067,
			"-0.004": 5.20831163264,
			"-0.003": 11.9827904682,
			"-0.002": 24.1520200281,
			"-0.001": 29.4145375153,
			"0.0": 27.362270218,
			"0.001": 23.11857762,
			"0.002": 14.3418631636,
			"0.003": 4.76464168777,
			"0.004": 3.87677239297,
			"0.005": 3.47684804366,
			"0.006": 2.76812344737,
			"0.007": 2.3343178476,
			"0.008": 0.823377729765,
			"0.009": 0.0,
			"0.01": 0.0,
			"0.011": 0.0,
			"0.012": 0.0,
			"0.013": 0.0,
			"0.014": 0.0,
			"0.015": 0.0,
			"0.016": 0.0,
			"0.017": 0.0,
			"0.018": 0.0,
			"0.019": 0.0,
			"0.02": 0.0,
			"0.021": 0.0,
			"0.022": 0.0,
			"0.023": 0.0,
			"0.024": 0.0,
			"0.025": 0.0
		}
	}
}
