{
	 "smiles": "OC(=O)CN1N=NC(=N1)C1=CC=CC=C1", 
	 "Tm": 454.15, 
	 "num_atms": 23, 
	 "gaussian": { 
		 "optdone": 1, 
		 "sigma_profile": "yes", 
		 "theory": "DFT", 
		 "functional": "B3LYP", 
		 "basiset": "6-31G**", 
		 "properties": { 
			 "R2extent": 4465.8827, 
			 "electric_dipole_moment_norm": 4.1467728802, 
			 "electric_quadrupole_moment_norm": 9.98111143861, 
			 "total_energy": -717.196543605, 
			 "HOMO_LUMO_gap": 0.19246, 
			 "cosmo_polarized_energy": -15.11, 
			 "cosmo_cavitation_energy": 28.59, 
			 "cosmo_dispersion_energy": -21.11, 
			 "cosmo_repulsion_energy": 1.64, 
			 "cosmo_total_nonelectrostatic_energy": 9.12, 
			 "SMD_solvation_energy": 4.05 
		},
		"coords": [
			{
				"x": 0.6832085923,
				"y": -0.5761395267,
				"z": -2.0005450848,
				"element": "O" 
			},
			{
				"x": -0.2738657612,
				"y": -1.369929106,
				"z": -2.4901182541,
				"element": "C" 
			},
			{
				"x": -0.1581036242,
				"y": -1.9816676906,
				"z": -3.5219849242,
				"element": "O" 
			},
			{
				"x": -1.6140526144,
				"y": -1.4233213775,
				"z": -1.7264424083,
				"element": "C" 
			},
			{
				"x": -1.530560335,
				"y": -1.1854549709,
				"z": -0.2907854921,
				"element": "N" 
			},
			{
				"x": -2.1677779404,
				"y": -1.9233877188,
				"z": 0.609450223,
				"element": "N" 
			},
			{
				"x": -1.8898697147,
				"y": -1.3988308778,
				"z": 1.775661962,
				"element": "N" 
			},
			{
				"x": -1.0711209952,
				"y": -0.3338132267,
				"z": 1.5509015867,
				"element": "C" 
			},
			{
				"x": -0.8351269685,
				"y": -0.1785622723,
				"z": 0.2425766818,
				"element": "N" 
			},
			{
				"x": -0.5264244104,
				"y": 0.520054626,
				"z": 2.6090131238,
				"element": "C" 
			},
			{
				"x": -0.800500544,
				"y": 0.2168030296,
				"z": 3.951582439,
				"element": "C" 
			},
			{
				"x": -0.286909969,
				"y": 1.021949489,
				"z": 4.9655889024,
				"element": "C" 
			},
			{
				"x": 0.5012686828,
				"y": 2.1316207394,
				"z": 4.6515702933,
				"element": "C" 
			},
			{
				"x": 0.7747554893,
				"y": 2.4365578811,
				"z": 3.3157130154,
				"element": "C" 
			},
			{
				"x": 0.2640449066,
				"y": 1.6366799655,
				"z": 2.2965024767,
				"element": "C" 
			},
			{
				"x": 0.3931847809,
				"y": -0.1603316186,
				"z": -1.158626365,
				"element": "H" 
			},
			{
				"x": -2.052756133,
				"y": -2.4100595884,
				"z": -1.8631250147,
				"element": "H" 
			},
			{
				"x": -2.2814671148,
				"y": -0.6771823105,
				"z": -2.1730292086,
				"element": "H" 
			},
			{
				"x": -1.4128944172,
				"y": -0.6475904438,
				"z": 4.1844094027,
				"element": "H" 
			},
			{
				"x": -0.5015822728,
				"y": 0.7822600845,
				"z": 6.0026528447,
				"element": "H" 
			},
			{
				"x": 0.9007369056,
				"y": 2.7571881663,
				"z": 5.4443735604,
				"element": "H" 
			},
			{
				"x": 1.3856898326,
				"y": 3.2992402553,
				"z": 3.0675759691,
				"element": "H" 
			},
			{
				"x": 0.4717236245,
				"y": 1.8753164918,
				"z": 1.2584842708,
				"element": "H" 
			}
		],
		 "valence_orbital": [ 
			{
				"type": "occ",
				"energy": -0.32367,
				"method": "rhf"
			},
			{
				"type": "occ",
				"energy": -0.31112,
				"method": "rhf"
			},
			{
				"type": "occ",
				"energy": -0.2849,
				"method": "rhf"
			},
			{
				"type": "occ",
				"energy": -0.26872,
				"method": "rhf"
			},
			{
				"type": "occ",
				"energy": -0.25514,
				"method": "rhf"
			},
			{
				"type": "unocc",
				"energy": -0.06268,
				"method": "rhf"
			},
			{
				"type": "unocc",
				"energy": -0.04064,
				"method": "rhf"
			},
			{
				"type": "unocc",
				"energy": -0.01657,
				"method": "rhf"
			},
			{
				"type": "unocc",
				"energy": -0.00493,
				"method": "rhf"
			},
			{
				"type": "unocc",
				"energy": 0.04812,
				"method": "rhf"
			}
		],
		"cosmo_sigma_profile": { 
			"-0.025": 0.0,
			"-0.024": 0.0,
			"-0.023": 0.0,
			"-0.022": 0.0,
			"-0.021": 0.0,
			"-0.02": 0.0,
			"-0.019": 0.0,
			"-0.018": 0.0,
			"-0.017": 0.0,
			"-0.016": 0.0,
			"-0.015": 0.0,
			"-0.014": 0.0,
			"-0.013": 0.0,
			"-0.012": 0.17180709206,
			"-0.011": 3.20327236754,
			"-0.01": 5.56990584571,
			"-0.009": 6.7616997476,
			"-0.008": 6.81302118929,
			"-0.007": 7.70594283554,
			"-0.006": 14.5927571957,
			"-0.005": 15.4281418619,
			"-0.004": 15.555423035,
			"-0.003": 12.1378438158,
			"-0.002": 10.6980749141,
			"-0.001": 13.3271964837,
			"0.0": 13.4737959902,
			"0.001": 13.8446391424,
			"0.002": 11.9503960615,
			"0.003": 14.5817845068,
			"0.004": 16.1707398995,
			"0.005": 6.52905658592,
			"0.006": 4.00454020561,
			"0.007": 6.89693431506,
			"0.008": 5.2167914007,
			"0.009": 7.64987605552,
			"0.01": 7.10143201652,
			"0.011": 6.82953860722,
			"0.012": 3.82664218344,
			"0.013": 0.362856906598,
			"0.014": 0.0,
			"0.015": 0.0,
			"0.016": 0.0,
			"0.017": 0.0,
			"0.018": 0.0,
			"0.019": 0.0,
			"0.02": 0.0,
			"0.021": 0.0,
			"0.022": 0.0,
			"0.023": 0.0,
			"0.024": 0.0,
			"0.025": 0.0
		}
	}
}
