{
	 "smiles": "CC1(NC(=O)NC1=O)C1=C(Cl)C=C(F)C=C1", 
	 "Tm": 488.15, 
	 "num_atms": 24, 
	 "gaussian": { 
		 "optdone": 1, 
		 "sigma_profile": "yes", 
		 "theory": "DFT", 
		 "functional": "B3LYP", 
		 "basiset": "6-31G**", 
		 "properties": { 
			 "R2extent": 5199.3486, 
			 "electric_dipole_moment_norm": 3.4413196277, 
			 "electric_quadrupole_moment_norm": 15.255922762, 
			 "total_energy": -1205.89671646, 
			 "HOMO_LUMO_gap": 0.22279, 
			 "cosmo_polarized_energy": -17.91, 
			 "cosmo_cavitation_energy": 30.23, 
			 "cosmo_dispersion_energy": -21.42, 
			 "cosmo_repulsion_energy": 1.64, 
			 "cosmo_total_nonelectrostatic_energy": 10.45, 
			 "SMD_solvation_energy": 6.8 
		},
		"coords": [
			{
				"x": -1.5248627839,
				"y": -0.6124091549,
				"z": -0.9868348907,
				"element": "C" 
			},
			{
				"x": -0.6680689283,
				"y": -1.4639193605,
				"z": -0.0236434941,
				"element": "C" 
			},
			{
				"x": -1.3322265478,
				"y": -2.7355012437,
				"z": 0.2652316701,
				"element": "N" 
			},
			{
				"x": -0.8373970686,
				"y": -3.7936355446,
				"z": -0.456679155,
				"element": "C" 
			},
			{
				"x": -1.2534574796,
				"y": -4.9310977907,
				"z": -0.513707642,
				"element": "O" 
			},
			{
				"x": 0.2871533121,
				"y": -3.2853523614,
				"z": -1.1413145728,
				"element": "N" 
			},
			{
				"x": 0.5434619257,
				"y": -1.9596497827,
				"z": -0.869976926,
				"element": "C" 
			},
			{
				"x": 1.4675487868,
				"y": -1.2863550165,
				"z": -1.2668628313,
				"element": "O" 
			},
			{
				"x": -0.2482759001,
				"y": -0.7130614597,
				"z": 1.245719997,
				"element": "C" 
			},
			{
				"x": 0.6056089301,
				"y": -1.2641653495,
				"z": 2.2230602533,
				"element": "C" 
			},
			{
				"x": 1.3133599886,
				"y": -2.8611277238,
				"z": 2.0459004117,
				"element": "Cl" 
			},
			{
				"x": 0.9516540876,
				"y": -0.5724439918,
				"z": 3.3825879878,
				"element": "C" 
			},
			{
				"x": 0.4395235165,
				"y": 0.7028886958,
				"z": 3.5785472928,
				"element": "C" 
			},
			{
				"x": 0.7729791919,
				"y": 1.3692570339,
				"z": 4.6977406151,
				"element": "F" 
			},
			{
				"x": -0.3993737331,
				"y": 1.2985966258,
				"z": 2.6491807945,
				"element": "C" 
			},
			{
				"x": -0.7272037997,
				"y": 0.5814538225,
				"z": 1.5006884806,
				"element": "C" 
			},
			{
				"x": -2.4637018359,
				"y": -0.3057744345,
				"z": -0.5166764274,
				"element": "H" 
			},
			{
				"x": -1.7704396801,
				"y": -1.2105996225,
				"z": -1.8678461965,
				"element": "H" 
			},
			{
				"x": -0.9760527464,
				"y": 0.2733833849,
				"z": -1.3151686382,
				"element": "H" 
			},
			{
				"x": -2.2363109602,
				"y": -2.8073498532,
				"z": 0.7063513346,
				"element": "H" 
			},
			{
				"x": 0.9086005738,
				"y": -3.8838796898,
				"z": -1.6662897413,
				"element": "H" 
			},
			{
				"x": 1.6116959911,
				"y": -1.0141530469,
				"z": 4.1188075624,
				"element": "H" 
			},
			{
				"x": -0.7817105166,
				"y": 2.2979103196,
				"z": 2.8225305228,
				"element": "H" 
			},
			{
				"x": -1.3784043238,
				"y": 1.0585855443,
				"z": 0.7799535926,
				"element": "H" 
			}
		],
		 "valence_orbital": [ 
			{
				"type": "occ",
				"energy": -0.29074,
				"method": "rhf"
			},
			{
				"type": "occ",
				"energy": -0.27663,
				"method": "rhf"
			},
			{
				"type": "occ",
				"energy": -0.26835,
				"method": "rhf"
			},
			{
				"type": "occ",
				"energy": -0.26591,
				"method": "rhf"
			},
			{
				"type": "occ",
				"energy": -0.25672,
				"method": "rhf"
			},
			{
				"type": "unocc",
				"energy": -0.03393,
				"method": "rhf"
			},
			{
				"type": "unocc",
				"energy": -0.02797,
				"method": "rhf"
			},
			{
				"type": "unocc",
				"energy": -0.01373,
				"method": "rhf"
			},
			{
				"type": "unocc",
				"energy": 0.0185,
				"method": "rhf"
			},
			{
				"type": "unocc",
				"energy": 0.05901,
				"method": "rhf"
			}
		],
		"cosmo_sigma_profile": { 
			"-0.025": 0.0,
			"-0.024": 0.0,
			"-0.023": 0.0,
			"-0.022": 0.0,
			"-0.021": 0.0,
			"-0.02": 0.0,
			"-0.019": 0.0,
			"-0.018": 0.0,
			"-0.017": 0.408928347896,
			"-0.016": 1.47095841346,
			"-0.015": 2.49734546069,
			"-0.014": 2.5815212321,
			"-0.013": 1.78388668302,
			"-0.012": 1.26023809553,
			"-0.011": 2.1755767844,
			"-0.01": 1.69669358594,
			"-0.009": 2.16663981823,
			"-0.008": 5.97528118964,
			"-0.007": 8.95679893184,
			"-0.006": 12.7868730857,
			"-0.005": 12.5267394228,
			"-0.004": 10.0387931904,
			"-0.003": 12.5391744525,
			"-0.002": 15.0116436293,
			"-0.001": 17.5986826436,
			"0.0": 19.2777604895,
			"0.001": 21.206934693,
			"0.002": 15.5138132964,
			"0.003": 17.8309478487,
			"0.004": 17.7873404437,
			"0.005": 3.53574471041,
			"0.006": 3.00277394365,
			"0.007": 2.70193700115,
			"0.008": 2.12964675246,
			"0.009": 3.29795369506,
			"0.01": 3.54552610277,
			"0.011": 5.87251089466,
			"0.012": 9.59480564494,
			"0.013": 5.88334028078,
			"0.014": 0.416291390756,
			"0.015": 0.0,
			"0.016": 0.0,
			"0.017": 0.0,
			"0.018": 0.0,
			"0.019": 0.0,
			"0.02": 0.0,
			"0.021": 0.0,
			"0.022": 0.0,
			"0.023": 0.0,
			"0.024": 0.0,
			"0.025": 0.0
		}
	}
}
