{
	 "smiles": "CCP(O)(O)=O", 
	 "Tm": 333.95, 
	 "num_atms": 13, 
	 "gaussian": { 
		 "optdone": 1, 
		 "sigma_profile": "yes", 
		 "theory": "DFT", 
		 "functional": "B3LYP", 
		 "basiset": "6-31G**", 
		 "properties": { 
			 "R2extent": 1241.822, 
			 "electric_dipole_moment_norm": 1.40379161915, 
			 "electric_quadrupole_moment_norm": 9.52358635547, 
			 "total_energy": -647.53547139, 
			 "HOMO_LUMO_gap": 0.32864, 
			 "cosmo_polarized_energy": -14.54, 
			 "cosmo_cavitation_energy": 17.92, 
			 "cosmo_dispersion_energy": -13.81, 
			 "cosmo_repulsion_energy": 1.19, 
			 "cosmo_total_nonelectrostatic_energy": 5.3, 
			 "SMD_solvation_energy": 5.73 
		},
		"coords": [
			{
				"x": 0.4261733459,
				"y": 2.6992913634,
				"z": -1.7464311181,
				"element": "C" 
			},
			{
				"x": 0.2869707488,
				"y": 1.1727878119,
				"z": -1.8411986154,
				"element": "C" 
			},
			{
				"x": 1.3348395305,
				"y": 0.2360491447,
				"z": -0.7010591595,
				"element": "P" 
			},
			{
				"x": 2.8185016985,
				"y": 0.8216874492,
				"z": -1.0341925189,
				"element": "O" 
			},
			{
				"x": 0.9400941288,
				"y": 0.8810583152,
				"z": 0.7423522659,
				"element": "O" 
			},
			{
				"x": 1.2638635985,
				"y": -1.2492496418,
				"z": -0.7259966938,
				"element": "O" 
			},
			{
				"x": 0.1630326828,
				"y": 3.0563628988,
				"z": -0.7475340648,
				"element": "H" 
			},
			{
				"x": -0.2394729518,
				"y": 3.1822841448,
				"z": -2.4680152532,
				"element": "H" 
			},
			{
				"x": 1.4500651722,
				"y": 3.014466019,
				"z": -1.9628668119,
				"element": "H" 
			},
			{
				"x": -0.7414336785,
				"y": 0.8563904922,
				"z": -1.6361885031,
				"element": "H" 
			},
			{
				"x": 0.5375264696,
				"y": 0.814802047,
				"z": -2.845598954,
				"element": "H" 
			},
			{
				"x": 3.4740524268,
				"y": 0.1159026084,
				"z": -0.9379690037,
				"element": "H" 
			},
			{
				"x": 0.9729868281,
				"y": 0.1938673472,
				"z": 1.4233984306,
				"element": "H" 
			}
		],
		 "valence_orbital": [ 
			{
				"type": "occ",
				"energy": -0.35812,
				"method": "rhf"
			},
			{
				"type": "occ",
				"energy": -0.34419,
				"method": "rhf"
			},
			{
				"type": "occ",
				"energy": -0.33439,
				"method": "rhf"
			},
			{
				"type": "occ",
				"energy": -0.28593,
				"method": "rhf"
			},
			{
				"type": "occ",
				"energy": -0.28496,
				"method": "rhf"
			},
			{
				"type": "unocc",
				"energy": 0.04368,
				"method": "rhf"
			},
			{
				"type": "unocc",
				"energy": 0.07862,
				"method": "rhf"
			},
			{
				"type": "unocc",
				"energy": 0.0917,
				"method": "rhf"
			},
			{
				"type": "unocc",
				"energy": 0.11173,
				"method": "rhf"
			},
			{
				"type": "unocc",
				"energy": 0.13426,
				"method": "rhf"
			}
		],
		"cosmo_sigma_profile": { 
			"-0.025": 0.0,
			"-0.024": 0.0,
			"-0.023": 0.0,
			"-0.022": 0.0,
			"-0.021": 0.0,
			"-0.02": 0.0,
			"-0.019": 0.348901939157,
			"-0.018": 1.70513656218,
			"-0.017": 1.95844490477,
			"-0.016": 1.80161235192,
			"-0.015": 1.72407634789,
			"-0.014": 1.4546968999,
			"-0.013": 0.683260302934,
			"-0.012": 1.11902005872,
			"-0.011": 1.10670880829,
			"-0.01": 2.75224078018,
			"-0.009": 1.80476090101,
			"-0.008": 1.08913326142,
			"-0.007": 3.26568706027,
			"-0.006": 5.12558895626,
			"-0.005": 6.98500859725,
			"-0.004": 7.27021367835,
			"-0.003": 10.5436749765,
			"-0.002": 12.7735124209,
			"-0.001": 9.73887200135,
			"0.0": 12.0206078226,
			"0.001": 5.27618494288,
			"0.002": 2.61762246406,
			"0.003": 3.45989392714,
			"0.004": 4.60589703322,
			"0.005": 2.80107377506,
			"0.006": 2.83648599605,
			"0.007": 3.7399545643,
			"0.008": 3.92289765214,
			"0.009": 3.80354117094,
			"0.01": 3.11519743494,
			"0.011": 2.43363541135,
			"0.012": 0.884203627254,
			"0.013": 1.63176951197,
			"0.014": 2.50823091323,
			"0.015": 7.09192519782,
			"0.016": 1.31778672377,
			"0.017": 0.0,
			"0.018": 0.0,
			"0.019": 0.0,
			"0.02": 0.0,
			"0.021": 0.0,
			"0.022": 0.0,
			"0.023": 0.0,
			"0.024": 0.0,
			"0.025": 0.0
		}
	}
}
