{
	 "smiles": "CC1(OC(=O)N(NC2=CC=CC=C2)C1=O)C1=CC=C(OC2=CC=CC=C2)C=C1", 
	 "Tm": 415.15, 
	 "num_atms": 46, 
	 "gaussian": { 
		 "optdone": 1, 
		 "sigma_profile": "yes", 
		 "theory": "DFT", 
		 "functional": "B3LYP", 
		 "basiset": "6-31G**", 
		 "properties": { 
			 "R2extent": 14911.2811, 
			 "electric_dipole_moment_norm": 3.84280158999, 
			 "electric_quadrupole_moment_norm": 16.1717965786, 
			 "total_energy": -1259.57945378, 
			 "HOMO_LUMO_gap": 0.19192, 
			 "cosmo_polarized_energy": -17.98, 
			 "cosmo_cavitation_energy": 51.53, 
			 "cosmo_dispersion_energy": -34.94, 
			 "cosmo_repulsion_energy": 2.65, 
			 "cosmo_total_nonelectrostatic_energy": 19.24, 
			 "SMD_solvation_energy": 10.7 
		},
		"coords": [
			{
				"x": -3.4281042954,
				"y": 2.5321483875,
				"z": 1.2149667474,
				"element": "C" 
			},
			{
				"x": -2.6317054423,
				"y": 1.2274699449,
				"z": 1.1198798676,
				"element": "C" 
			},
			{
				"x": -3.1080042024,
				"y": 0.3268265534,
				"z": 2.1621643752,
				"element": "O" 
			},
			{
				"x": -3.6082808864,
				"y": -0.8248041618,
				"z": 1.6430802699,
				"element": "C" 
			},
			{
				"x": -4.0506242299,
				"y": -1.7350380263,
				"z": 2.2852400645,
				"element": "O" 
			},
			{
				"x": -3.4780770397,
				"y": -0.743930626,
				"z": 0.2446960569,
				"element": "N" 
			},
			{
				"x": -4.0083444412,
				"y": -1.6992353811,
				"z": -0.6213092255,
				"element": "N" 
			},
			{
				"x": -3.0933997551,
				"y": -2.6728262424,
				"z": -1.1245145022,
				"element": "C" 
			},
			{
				"x": -2.2175108847,
				"y": -3.3417249048,
				"z": -0.2619894883,
				"element": "C" 
			},
			{
				"x": -1.3794517696,
				"y": -4.3343321671,
				"z": -0.7673844271,
				"element": "C" 
			},
			{
				"x": -1.4211909476,
				"y": -4.684499408,
				"z": -2.1188384083,
				"element": "C" 
			},
			{
				"x": -2.3103733539,
				"y": -4.0262272183,
				"z": -2.969453074,
				"element": "C" 
			},
			{
				"x": -3.139075848,
				"y": -3.0172518088,
				"z": -2.4794976723,
				"element": "C" 
			},
			{
				"x": -2.9692474538,
				"y": 0.4720342034,
				"z": -0.1707900841,
				"element": "C" 
			},
			{
				"x": -2.8780404841,
				"y": 0.8506274014,
				"z": -1.3201250182,
				"element": "O" 
			},
			{
				"x": -1.1289682377,
				"y": 1.4420723373,
				"z": 1.273042631,
				"element": "C" 
			},
			{
				"x": -0.3942659706,
				"y": 2.0253014418,
				"z": 0.2323432134,
				"element": "C" 
			},
			{
				"x": 0.9705122164,
				"y": 2.2701560399,
				"z": 0.3701810799,
				"element": "C" 
			},
			{
				"x": 1.612644314,
				"y": 1.9374632356,
				"z": 1.5674713986,
				"element": "C" 
			},
			{
				"x": 2.9654869848,
				"y": 2.0876103019,
				"z": 1.7710657265,
				"element": "O" 
			},
			{
				"x": 3.6797867837,
				"y": 3.072805369,
				"z": 1.1099426865,
				"element": "C" 
			},
			{
				"x": 3.2602069337,
				"y": 4.406138255,
				"z": 1.0938421565,
				"element": "C" 
			},
			{
				"x": 4.0666149489,
				"y": 5.3654058809,
				"z": 0.4807278441,
				"element": "C" 
			},
			{
				"x": 5.2838868296,
				"y": 5.0035021871,
				"z": -0.1013454691,
				"element": "C" 
			},
			{
				"x": 5.6951377522,
				"y": 3.6695344269,
				"z": -0.0686075759,
				"element": "C" 
			},
			{
				"x": 4.8939259053,
				"y": 2.6985017689,
				"z": 0.5332163604,
				"element": "C" 
			},
			{
				"x": 0.8911075982,
				"y": 1.351940654,
				"z": 2.6107801878,
				"element": "C" 
			},
			{
				"x": -0.4709123709,
				"y": 1.1037256508,
				"z": 2.461546218,
				"element": "C" 
			},
			{
				"x": -4.5019939701,
				"y": 2.337646803,
				"z": 1.1384655577,
				"element": "H" 
			},
			{
				"x": -3.1315487307,
				"y": 3.2016518554,
				"z": 0.4045125563,
				"element": "H" 
			},
			{
				"x": -3.2208345397,
				"y": 3.016815206,
				"z": 2.1718336134,
				"element": "H" 
			},
			{
				"x": -4.4812029171,
				"y": -1.2038451935,
				"z": -1.3719991181,
				"element": "H" 
			},
			{
				"x": -2.2133946912,
				"y": -3.1035934462,
				"z": 0.7959328865,
				"element": "H" 
			},
			{
				"x": -0.698924836,
				"y": -4.8469136508,
				"z": -0.0936464303,
				"element": "H" 
			},
			{
				"x": -0.7697833581,
				"y": -5.4630127426,
				"z": -2.5036258237,
				"element": "H" 
			},
			{
				"x": -2.3517793319,
				"y": -4.2850435318,
				"z": -4.0235063872,
				"element": "H" 
			},
			{
				"x": -3.8147158126,
				"y": -2.4912954577,
				"z": -3.1497625919,
				"element": "H" 
			},
			{
				"x": -0.88503047,
				"y": 2.2648441958,
				"z": -0.7054817928,
				"element": "H" 
			},
			{
				"x": 1.5319324342,
				"y": 2.7068813375,
				"z": -0.4478120248,
				"element": "H" 
			},
			{
				"x": 2.31995722,
				"y": 4.6831350944,
				"z": 1.5588483022,
				"element": "H" 
			},
			{
				"x": 3.7437135874,
				"y": 6.4024367958,
				"z": 0.4672360076,
				"element": "H" 
			},
			{
				"x": 5.9077436962,
				"y": 5.7561244447,
				"z": -0.5735540268,
				"element": "H" 
			},
			{
				"x": 6.6411155597,
				"y": 3.3792341095,
				"z": -0.5163448759,
				"element": "H" 
			},
			{
				"x": 5.1936682263,
				"y": 1.6564218261,
				"z": 0.56973703,
				"element": "H" 
			},
			{
				"x": 1.4109691487,
				"y": 1.0936867748,
				"z": 3.5272737447,
				"element": "H" 
			},
			{
				"x": -1.0260238687,
				"y": 0.6466314845,
				"z": 3.272561434,
				"element": "H" 
			}
		],
		 "valence_orbital": [ 
			{
				"type": "occ",
				"energy": -0.25875,
				"method": "rhf"
			},
			{
				"type": "occ",
				"energy": -0.25457,
				"method": "rhf"
			},
			{
				"type": "occ",
				"energy": -0.25262,
				"method": "rhf"
			},
			{
				"type": "occ",
				"energy": -0.22616,
				"method": "rhf"
			},
			{
				"type": "occ",
				"energy": -0.22257,
				"method": "rhf"
			},
			{
				"type": "unocc",
				"energy": -0.03065,
				"method": "rhf"
			},
			{
				"type": "unocc",
				"energy": -0.01864,
				"method": "rhf"
			},
			{
				"type": "unocc",
				"energy": -0.01106,
				"method": "rhf"
			},
			{
				"type": "unocc",
				"energy": -0.00568,
				"method": "rhf"
			},
			{
				"type": "unocc",
				"energy": -0.00396,
				"method": "rhf"
			}
		],
		"cosmo_sigma_profile": { 
			"-0.025": 0.0,
			"-0.024": 0.0,
			"-0.023": 0.0,
			"-0.022": 0.0,
			"-0.021": 0.0,
			"-0.02": 0.0,
			"-0.019": 0.0,
			"-0.018": 0.0,
			"-0.017": 0.0,
			"-0.016": 0.0,
			"-0.015": 0.0794713935783,
			"-0.014": 0.961275121595,
			"-0.013": 1.50988140906,
			"-0.012": 1.51982284886,
			"-0.011": 1.58396193137,
			"-0.01": 1.75405292774,
			"-0.009": 2.76657546135,
			"-0.008": 2.78310759052,
			"-0.007": 6.52668483714,
			"-0.006": 23.1802549383,
			"-0.005": 36.1477133615,
			"-0.004": 34.9437246798,
			"-0.003": 32.1007188135,
			"-0.002": 29.5144245401,
			"-0.001": 25.1901707245,
			"0.0": 24.753795224,
			"0.001": 25.3990676606,
			"0.002": 27.2098153994,
			"0.003": 31.7666200359,
			"0.004": 33.3745671373,
			"0.005": 24.5569355475,
			"0.006": 10.0622581709,
			"0.007": 5.95187917179,
			"0.008": 6.03029075493,
			"0.009": 6.69855136874,
			"0.01": 8.27267044021,
			"0.011": 7.26933075953,
			"0.012": 1.12045095127,
			"0.013": 0.0,
			"0.014": 0.0,
			"0.015": 0.0,
			"0.016": 0.0,
			"0.017": 0.0,
			"0.018": 0.0,
			"0.019": 0.0,
			"0.02": 0.0,
			"0.021": 0.0,
			"0.022": 0.0,
			"0.023": 0.0,
			"0.024": 0.0,
			"0.025": 0.0
		}
	}
}
