{
	 "smiles": "BrC1=CC=CC=C1C1=CC=C(O1)C=C1C(=O)NC(=O)NC1=O", 
	 "Tm": 528.15, 
	 "num_atms": 31, 
	 "gaussian": { 
		 "optdone": 1, 
		 "sigma_profile": "yes", 
		 "theory": "DFT", 
		 "functional": "B3LYP", 
		 "basiset": "6-31G**", 
		 "properties": { 
			 "R2extent": 13421.3779, 
			 "electric_dipole_moment_norm": 5.03656193648, 
			 "electric_quadrupole_moment_norm": 5.85914049157, 
			 "total_energy": -3558.85731062, 
			 "HOMO_LUMO_gap": 0.122, 
			 "cosmo_polarized_energy": -16.43, 
			 "cosmo_cavitation_energy": 39.44, 
			 "cosmo_dispersion_energy": -29.5, 
			 "cosmo_repulsion_energy": 2.19, 
			 "cosmo_total_nonelectrostatic_energy": 12.13, 
			 "SMD_solvation_energy": 8.1 
		},
		"coords": [
			{
				"x": -4.7070533334,
				"y": 2.5183078061,
				"z": -1.7585087901,
				"element": "Br" 
			},
			{
				"x": -3.1570178208,
				"y": 2.1233401772,
				"z": -2.8097653055,
				"element": "C" 
			},
			{
				"x": -3.2912533281,
				"y": 2.3371612274,
				"z": -4.1814767077,
				"element": "C" 
			},
			{
				"x": -2.2378375052,
				"y": 2.0494133877,
				"z": -5.0457304389,
				"element": "C" 
			},
			{
				"x": -1.0442819547,
				"y": 1.5402412881,
				"z": -4.5318871538,
				"element": "C" 
			},
			{
				"x": -0.9136551391,
				"y": 1.3315198176,
				"z": -3.165978837,
				"element": "C" 
			},
			{
				"x": -1.9599602227,
				"y": 1.6180903553,
				"z": -2.2593018382,
				"element": "C" 
			},
			{
				"x": -1.7120024985,
				"y": 1.3718634726,
				"z": -0.8395356231,
				"element": "C" 
			},
			{
				"x": -2.2775727091,
				"y": 1.7969136899,
				"z": 0.3536465476,
				"element": "C" 
			},
			{
				"x": -1.5180830863,
				"y": 1.2352884725,
				"z": 1.3957367777,
				"element": "C" 
			},
			{
				"x": -0.5107222995,
				"y": 0.4805823419,
				"z": 0.8096093166,
				"element": "C" 
			},
			{
				"x": -0.6462861735,
				"y": 0.5789314202,
				"z": -0.567113767,
				"element": "O" 
			},
			{
				"x": 0.5761161999,
				"y": -0.3357088585,
				"z": 1.2035740767,
				"element": "C" 
			},
			{
				"x": 1.0883465912,
				"y": -0.721794081,
				"z": 2.4178391041,
				"element": "C" 
			},
			{
				"x": 2.2759446169,
				"y": -1.6122212663,
				"z": 2.3433035852,
				"element": "C" 
			},
			{
				"x": 2.7945170916,
				"y": -1.9945469013,
				"z": 1.3040591881,
				"element": "O" 
			},
			{
				"x": 2.801762467,
				"y": -2.014563573,
				"z": 3.5705592833,
				"element": "N" 
			},
			{
				"x": 2.3479481332,
				"y": -1.6804354188,
				"z": 4.8379232058,
				"element": "C" 
			},
			{
				"x": 2.8717126076,
				"y": -2.0795518021,
				"z": 5.8598975069,
				"element": "O" 
			},
			{
				"x": 1.238758718,
				"y": -0.846198084,
				"z": 4.8309429511,
				"element": "N" 
			},
			{
				"x": 0.5563369496,
				"y": -0.3250275305,
				"z": 3.7289257092,
				"element": "C" 
			},
			{
				"x": -0.4095478874,
				"y": 0.4051569124,
				"z": 3.920526789,
				"element": "O" 
			},
			{
				"x": -4.2282893662,
				"y": 2.7232074864,
				"z": -4.5653409348,
				"element": "H" 
			},
			{
				"x": -2.3552047376,
				"y": 2.2207587311,
				"z": -6.1112189662,
				"element": "H" 
			},
			{
				"x": -0.2144164442,
				"y": 1.310107283,
				"z": -5.1924360817,
				"element": "H" 
			},
			{
				"x": 0.0154128539,
				"y": 0.9429607092,
				"z": -2.7667384815,
				"element": "H" 
			},
			{
				"x": -3.1281609615,
				"y": 2.448217485,
				"z": 0.4581665514,
				"element": "H" 
			},
			{
				"x": -1.6548392177,
				"y": 1.3457438017,
				"z": 2.4582139545,
				"element": "H" 
			},
			{
				"x": 1.1274101007,
				"y": -0.748259848,
				"z": 0.3597509493,
				"element": "H" 
			},
			{
				"x": 3.6108028164,
				"y": -2.6220145429,
				"z": 3.53676832,
				"element": "H" 
			},
			{
				"x": 0.8831155398,
				"y": -0.5815839589,
				"z": 5.741089109,
				"element": "H" 
			}
		],
		 "valence_orbital": [ 
			{
				"type": "occ",
				"energy": -0.28973,
				"method": "rhf"
			},
			{
				"type": "occ",
				"energy": -0.28549,
				"method": "rhf"
			},
			{
				"type": "occ",
				"energy": -0.26256,
				"method": "rhf"
			},
			{
				"type": "occ",
				"energy": -0.26071,
				"method": "rhf"
			},
			{
				"type": "occ",
				"energy": -0.22709,
				"method": "rhf"
			},
			{
				"type": "unocc",
				"energy": -0.10509,
				"method": "rhf"
			},
			{
				"type": "unocc",
				"energy": -0.04446,
				"method": "rhf"
			},
			{
				"type": "unocc",
				"energy": -0.02949,
				"method": "rhf"
			},
			{
				"type": "unocc",
				"energy": -0.00967,
				"method": "rhf"
			},
			{
				"type": "unocc",
				"energy": -5e-05,
				"method": "rhf"
			}
		],
		"cosmo_sigma_profile": { 
			"-0.025": 0.0,
			"-0.024": 0.0,
			"-0.023": 0.0,
			"-0.022": 0.0,
			"-0.021": 0.0,
			"-0.02": 0.0,
			"-0.019": 0.0,
			"-0.018": 0.0,
			"-0.017": 0.0449805294778,
			"-0.016": 1.57199580362,
			"-0.015": 1.46809894713,
			"-0.014": 1.67205569594,
			"-0.013": 1.30976945249,
			"-0.012": 1.89044654979,
			"-0.011": 1.8004593658,
			"-0.01": 1.5802620104,
			"-0.009": 1.178491327,
			"-0.008": 3.20085413259,
			"-0.007": 10.0375154713,
			"-0.006": 14.4937117628,
			"-0.005": 17.8004217097,
			"-0.004": 16.6534498862,
			"-0.003": 20.9765244128,
			"-0.002": 26.3796114478,
			"-0.001": 30.1859087647,
			"0.0": 30.7990604202,
			"0.001": 29.5302164545,
			"0.002": 29.4572120677,
			"0.003": 21.9111185816,
			"0.004": 11.5305062142,
			"0.005": 4.5737593426,
			"0.006": 4.34044851399,
			"0.007": 2.71900401331,
			"0.008": 3.24975285658,
			"0.009": 4.6702023147,
			"0.01": 5.35961471053,
			"0.011": 8.34839065176,
			"0.012": 11.65387724,
			"0.013": 1.43633084163,
			"0.014": 0.0,
			"0.015": 0.0,
			"0.016": 0.0,
			"0.017": 0.0,
			"0.018": 0.0,
			"0.019": 0.0,
			"0.02": 0.0,
			"0.021": 0.0,
			"0.022": 0.0,
			"0.023": 0.0,
			"0.024": 0.0,
			"0.025": 0.0
		}
	}
}
