{
	 "smiles": "CC1=NN=C(S)N1CC=C", 
	 "Tm": 538.15, 
	 "num_atms": 19, 
	 "gaussian": { 
		 "optdone": 1, 
		 "sigma_profile": "yes", 
		 "theory": "DFT", 
		 "functional": "B3LYP", 
		 "basiset": "6-31G**", 
		 "properties": { 
			 "R2extent": 2392.063, 
			 "electric_dipole_moment_norm": 5.02337183672, 
			 "electric_quadrupole_moment_norm": 5.98570403044, 
			 "total_energy": -796.456055446, 
			 "HOMO_LUMO_gap": 0.21301, 
			 "cosmo_polarized_energy": -15.77, 
			 "cosmo_cavitation_energy": 24.86, 
			 "cosmo_dispersion_energy": -17.9, 
			 "cosmo_repulsion_energy": 1.41, 
			 "cosmo_total_nonelectrostatic_energy": 8.37, 
			 "SMD_solvation_energy": 2.47 
		},
		"coords": [
			{
				"x": 0.3176197841,
				"y": 0.3569936949,
				"z": -1.2601336217,
				"element": "C" 
			},
			{
				"x": 0.2698218314,
				"y": -0.2926902239,
				"z": 0.0807274143,
				"element": "C" 
			},
			{
				"x": 0.9812662488,
				"y": -1.3291585363,
				"z": 0.4523127607,
				"element": "N" 
			},
			{
				"x": 0.6514663797,
				"y": -1.6283853757,
				"z": 1.7644912421,
				"element": "N" 
			},
			{
				"x": -0.2484046873,
				"y": -0.7522704235,
				"z": 2.1371838577,
				"element": "C" 
			},
			{
				"x": -1.022305591,
				"y": -0.669553821,
				"z": 3.7275001799,
				"element": "S" 
			},
			{
				"x": -0.5347666047,
				"y": 0.1298803205,
				"z": 1.1238402573,
				"element": "N" 
			},
			{
				"x": -1.5083114043,
				"y": 1.2236508782,
				"z": 1.1218198174,
				"element": "C" 
			},
			{
				"x": -2.8217036573,
				"y": 0.8363825386,
				"z": 0.4900592046,
				"element": "C" 
			},
			{
				"x": -3.3991535639,
				"y": 1.5172337283,
				"z": -0.4988907996,
				"element": "C" 
			},
			{
				"x": 1.0237793317,
				"y": -0.1979368892,
				"z": -1.8794335925,
				"element": "H" 
			},
			{
				"x": -0.6627430525,
				"y": 0.3526600461,
				"z": -1.7481832642,
				"element": "H" 
			},
			{
				"x": 0.6572556441,
				"y": 1.3979373425,
				"z": -1.1985859392,
				"element": "H" 
			},
			{
				"x": -0.2494615241,
				"y": -1.6533789712,
				"z": 4.2241390997,
				"element": "H" 
			},
			{
				"x": -1.6558623809,
				"y": 1.525807018,
				"z": 2.1651428402,
				"element": "H" 
			},
			{
				"x": -1.0685869464,
				"y": 2.0799589969,
				"z": 0.6016512803,
				"element": "H" 
			},
			{
				"x": -3.3004179896,
				"y": -0.0506206885,
				"z": 0.9021179945,
				"element": "H" 
			},
			{
				"x": -2.9395241433,
				"y": 2.4053290533,
				"z": -0.9268413536,
				"element": "H" 
			},
			{
				"x": -4.3576676746,
				"y": 1.2181613122,
				"z": -0.911317378,
				"element": "H" 
			}
		],
		 "valence_orbital": [ 
			{
				"type": "occ",
				"energy": -0.30182,
				"method": "rhf"
			},
			{
				"type": "occ",
				"energy": -0.29192,
				"method": "rhf"
			},
			{
				"type": "occ",
				"energy": -0.28096,
				"method": "rhf"
			},
			{
				"type": "occ",
				"energy": -0.24977,
				"method": "rhf"
			},
			{
				"type": "occ",
				"energy": -0.22558,
				"method": "rhf"
			},
			{
				"type": "unocc",
				"energy": -0.01257,
				"method": "rhf"
			},
			{
				"type": "unocc",
				"energy": 0.00589,
				"method": "rhf"
			},
			{
				"type": "unocc",
				"energy": 0.02206,
				"method": "rhf"
			},
			{
				"type": "unocc",
				"energy": 0.051,
				"method": "rhf"
			},
			{
				"type": "unocc",
				"energy": 0.06019,
				"method": "rhf"
			}
		],
		"cosmo_sigma_profile": { 
			"-0.025": 0.0,
			"-0.024": 0.0,
			"-0.023": 0.0,
			"-0.022": 0.0,
			"-0.021": 0.0,
			"-0.02": 0.0,
			"-0.019": 0.0,
			"-0.018": 0.0,
			"-0.017": 0.0,
			"-0.016": 0.0,
			"-0.015": 0.0,
			"-0.014": 0.0,
			"-0.013": 0.00134275564119,
			"-0.012": 1.18647092303,
			"-0.011": 1.40976568589,
			"-0.01": 1.41267331091,
			"-0.009": 0.940763368954,
			"-0.008": 2.68994276852,
			"-0.007": 7.51623858584,
			"-0.006": 13.7474478227,
			"-0.005": 18.0294650209,
			"-0.004": 16.1698753942,
			"-0.003": 15.9875410967,
			"-0.002": 18.6375821409,
			"-0.001": 17.4445270737,
			"0.0": 11.1517954509,
			"0.001": 11.7001034584,
			"0.002": 9.80737132843,
			"0.003": 8.19287456274,
			"0.004": 7.52729435195,
			"0.005": 5.70078354784,
			"0.006": 4.00529950635,
			"0.007": 3.40523417773,
			"0.008": 1.72644615182,
			"0.009": 1.70929344201,
			"0.01": 2.29438506802,
			"0.011": 1.96172065268,
			"0.012": 2.41925900699,
			"0.013": 3.06312584971,
			"0.014": 3.60403904055,
			"0.015": 2.500434148,
			"0.016": 2.7675147141,
			"0.017": 1.40553003043,
			"0.018": 0.116553997528,
			"0.019": 0.0,
			"0.02": 0.0,
			"0.021": 0.0,
			"0.022": 0.0,
			"0.023": 0.0,
			"0.024": 0.0,
			"0.025": 0.0
		}
	}
}
