{
	 "smiles": "ClC1=CC=CC(Cl)=C1COC1=C(C=O)C=CC=C1", 
	 "Tm": 383.15, 
	 "num_atms": 28, 
	 "gaussian": { 
		 "optdone": 1, 
		 "sigma_profile": "yes", 
		 "theory": "DFT", 
		 "functional": "B3LYP", 
		 "basiset": "6-31G**", 
		 "properties": { 
			 "R2extent": 6201.3854, 
			 "electric_dipole_moment_norm": 2.65970436139, 
			 "electric_quadrupole_moment_norm": 22.1836919326, 
			 "total_energy": -1610.32288995, 
			 "HOMO_LUMO_gap": 0.17851, 
			 "cosmo_polarized_energy": -14.68, 
			 "cosmo_cavitation_energy": 36.63, 
			 "cosmo_dispersion_energy": -25.27, 
			 "cosmo_repulsion_energy": 1.95, 
			 "cosmo_total_nonelectrostatic_energy": 13.31, 
			 "SMD_solvation_energy": 6.78 
		},
		"coords": [
			{
				"x": -0.4937415063,
				"y": -0.1938324033,
				"z": 3.6216765128,
				"element": "Cl" 
			},
			{
				"x": -1.8956671571,
				"y": 0.2255887461,
				"z": 2.6454803828,
				"element": "C" 
			},
			{
				"x": -2.9982554649,
				"y": 0.7633103447,
				"z": 3.3065730682,
				"element": "C" 
			},
			{
				"x": -4.1254055168,
				"y": 1.1179388989,
				"z": 2.5696567844,
				"element": "C" 
			},
			{
				"x": -4.1497671715,
				"y": 0.9387676674,
				"z": 1.1888693359,
				"element": "C" 
			},
			{
				"x": -3.0329447436,
				"y": 0.3988982982,
				"z": 0.5539285692,
				"element": "C" 
			},
			{
				"x": -3.1114166913,
				"y": 0.2052248941,
				"z": -1.1927071005,
				"element": "Cl" 
			},
			{
				"x": -1.8763759813,
				"y": 0.0171327975,
				"z": 1.2555542213,
				"element": "C" 
			},
			{
				"x": -0.6736582661,
				"y": -0.5569832359,
				"z": 0.5539935548,
				"element": "C" 
			},
			{
				"x": 0.1712619626,
				"y": 0.5392622768,
				"z": 0.1857008482,
				"element": "O" 
			},
			{
				"x": 1.3278116567,
				"y": 0.2798018363,
				"z": -0.4652062513,
				"element": "C" 
			},
			{
				"x": 2.1364364002,
				"y": 1.394844826,
				"z": -0.8130169313,
				"element": "C" 
			},
			{
				"x": 1.7922975007,
				"y": 2.802273553,
				"z": -0.5090841349,
				"element": "C" 
			},
			{
				"x": 0.8047260217,
				"y": 3.2173923209,
				"z": 0.0629662347,
				"element": "O" 
			},
			{
				"x": 3.343401065,
				"y": 1.1677406889,
				"z": -1.4887960212,
				"element": "C" 
			},
			{
				"x": 3.7693036555,
				"y": -0.1130578797,
				"z": -1.8266262901,
				"element": "C" 
			},
			{
				"x": 2.964951114,
				"y": -1.1981723711,
				"z": -1.4785830396,
				"element": "C" 
			},
			{
				"x": 1.7564219604,
				"y": -1.0114632252,
				"z": -0.80532689,
				"element": "C" 
			},
			{
				"x": -2.9647096808,
				"y": 0.9036788826,
				"z": 4.3805331003,
				"element": "H" 
			},
			{
				"x": -4.9890679352,
				"y": 1.5396146144,
				"z": 3.0742244479,
				"element": "H" 
			},
			{
				"x": -5.0183823262,
				"y": 1.2166227946,
				"z": 0.6036135927,
				"element": "H" 
			},
			{
				"x": -0.1353309795,
				"y": -1.2374607063,
				"z": 1.2207586611,
				"element": "H" 
			},
			{
				"x": -0.9835328191,
				"y": -1.1078342178,
				"z": -0.3393040049,
				"element": "H" 
			},
			{
				"x": 2.5717791001,
				"y": 3.5123808429,
				"z": -0.874596387,
				"element": "H" 
			},
			{
				"x": 3.9528739018,
				"y": 2.0303847333,
				"z": -1.7491142405,
				"element": "H" 
			},
			{
				"x": 4.7075386533,
				"y": -0.264886957,
				"z": -2.3498999452,
				"element": "H" 
			},
			{
				"x": 3.2749919056,
				"y": -2.2084173987,
				"z": -1.7309032151,
				"element": "H" 
			},
			{
				"x": 1.1560613421,
				"y": -1.8757506217,
				"z": -0.5500648629,
				"element": "H" 
			}
		],
		 "valence_orbital": [ 
			{
				"type": "occ",
				"energy": -0.26784,
				"method": "rhf"
			},
			{
				"type": "occ",
				"energy": -0.26295,
				"method": "rhf"
			},
			{
				"type": "occ",
				"energy": -0.25433,
				"method": "rhf"
			},
			{
				"type": "occ",
				"energy": -0.23663,
				"method": "rhf"
			},
			{
				"type": "occ",
				"energy": -0.2309,
				"method": "rhf"
			},
			{
				"type": "unocc",
				"energy": -0.05239,
				"method": "rhf"
			},
			{
				"type": "unocc",
				"energy": -0.03519,
				"method": "rhf"
			},
			{
				"type": "unocc",
				"energy": -0.0268,
				"method": "rhf"
			},
			{
				"type": "unocc",
				"energy": -0.00052,
				"method": "rhf"
			},
			{
				"type": "unocc",
				"energy": 0.00268,
				"method": "rhf"
			}
		],
		"cosmo_sigma_profile": { 
			"-0.025": 0.0,
			"-0.024": 0.0,
			"-0.023": 0.0,
			"-0.022": 0.0,
			"-0.021": 0.0,
			"-0.02": 0.0,
			"-0.019": 0.0,
			"-0.018": 0.0,
			"-0.017": 0.0,
			"-0.016": 0.0,
			"-0.015": 0.0,
			"-0.014": 0.0,
			"-0.013": 0.0,
			"-0.012": 0.0,
			"-0.011": 0.0,
			"-0.01": 0.0,
			"-0.009": 0.0,
			"-0.008": 5.71180602299,
			"-0.007": 15.5222024665,
			"-0.006": 20.4656905667,
			"-0.005": 20.4715579502,
			"-0.004": 16.1762763702,
			"-0.003": 17.5863477741,
			"-0.002": 16.7746120557,
			"-0.001": 18.533320492,
			"0.0": 24.0543521435,
			"0.001": 31.1638844628,
			"0.002": 31.4904062008,
			"0.003": 27.3726604209,
			"0.004": 23.9247670553,
			"0.005": 5.1095339813,
			"0.006": 2.83566467031,
			"0.007": 1.70881114397,
			"0.008": 2.38846187422,
			"0.009": 2.23625411803,
			"0.01": 2.17998899686,
			"0.011": 3.1004321048,
			"0.012": 5.04438297955,
			"0.013": 3.81679927671,
			"0.014": 1.27139698761,
			"0.015": 0.0172390178636,
			"0.016": 0.0,
			"0.017": 0.0,
			"0.018": 0.0,
			"0.019": 0.0,
			"0.02": 0.0,
			"0.021": 0.0,
			"0.022": 0.0,
			"0.023": 0.0,
			"0.024": 0.0,
			"0.025": 0.0
		}
	}
}
