{
	 "smiles": "COCCNC1=C(C=C(C=C1)[N+]([O-])=O)C(O)=O", 
	 "Tm": 478.15, 
	 "num_atms": 29, 
	 "gaussian": { 
		 "optdone": 1, 
		 "sigma_profile": "yes", 
		 "theory": "DFT", 
		 "functional": "B3LYP", 
		 "basiset": "6-31G**", 
		 "properties": { 
			 "R2extent": 4895.6975, 
			 "electric_dipole_moment_norm": 7.57759005885, 
			 "electric_quadrupole_moment_norm": 20.1683885514, 
			 "total_energy": -873.80404214, 
			 "HOMO_LUMO_gap": 0.15561, 
			 "cosmo_polarized_energy": -19.89, 
			 "cosmo_cavitation_energy": 33.01, 
			 "cosmo_dispersion_energy": -23.34, 
			 "cosmo_repulsion_energy": 1.8, 
			 "cosmo_total_nonelectrostatic_energy": 11.47, 
			 "SMD_solvation_energy": 8.31 
		},
		"coords": [
			{
				"x": 3.3345355374,
				"y": 0.0714034678,
				"z": -1.0928012484,
				"element": "C" 
			},
			{
				"x": 1.993863188,
				"y": 0.4778002621,
				"z": -0.8948610606,
				"element": "O" 
			},
			{
				"x": 1.8734694066,
				"y": 1.6325975895,
				"z": -0.0878704891,
				"element": "C" 
			},
			{
				"x": 0.408091623,
				"y": 2.028778097,
				"z": -0.0000484594,
				"element": "C" 
			},
			{
				"x": -0.4569347311,
				"y": 1.2009723123,
				"z": 0.8717415325,
				"element": "N" 
			},
			{
				"x": -1.027932661,
				"y": 0.0120473661,
				"z": 0.3702248146,
				"element": "C" 
			},
			{
				"x": -0.315964171,
				"y": -1.2089656763,
				"z": 0.245405152,
				"element": "C" 
			},
			{
				"x": -0.9452427423,
				"y": -2.3174263662,
				"z": -0.3298450269,
				"element": "C" 
			},
			{
				"x": -2.2794987922,
				"y": -2.2506591286,
				"z": -0.7084287444,
				"element": "C" 
			},
			{
				"x": -3.0247723801,
				"y": -1.0866222994,
				"z": -0.5272542884,
				"element": "C" 
			},
			{
				"x": -2.388404341,
				"y": 0.0273638905,
				"z": -0.0023914433,
				"element": "C" 
			},
			{
				"x": -2.9229852399,
				"y": -3.4308517204,
				"z": -1.292451973,
				"element": "N" 
			},
			{
				"x": -2.2380642364,
				"y": -4.4414646076,
				"z": -1.4466376122,
				"element": "O" 
			},
			{
				"x": -4.1143057749,
				"y": -3.3376075011,
				"z": -1.5945775819,
				"element": "O" 
			},
			{
				"x": 1.0563041896,
				"y": -1.4956894897,
				"z": 0.7690735793,
				"element": "C" 
			},
			{
				"x": 1.4201819957,
				"y": -0.7392537022,
				"z": 1.8297084427,
				"element": "O" 
			},
			{
				"x": 1.7507583356,
				"y": -2.4101670178,
				"z": 0.3704156699,
				"element": "O" 
			},
			{
				"x": 3.3101048352,
				"y": -0.8361849048,
				"z": -1.6976607462,
				"element": "H" 
			},
			{
				"x": 3.8362410253,
				"y": -0.1552498204,
				"z": -0.1399710289,
				"element": "H" 
			},
			{
				"x": 3.9140337961,
				"y": 0.8474049601,
				"z": -1.6159437659,
				"element": "H" 
			},
			{
				"x": 2.2816506832,
				"y": 1.4576983595,
				"z": 0.9175339114,
				"element": "H" 
			},
			{
				"x": 2.4269059366,
				"y": 2.4719440289,
				"z": -0.5433743956,
				"element": "H" 
			},
			{
				"x": 0.3731397844,
				"y": 3.0383268207,
				"z": 0.4220540963,
				"element": "H" 
			},
			{
				"x": 0.0091160313,
				"y": 2.085452535,
				"z": -1.024492721,
				"element": "H" 
			},
			{
				"x": -1.2070613917,
				"y": 1.7950685803,
				"z": 1.2072848057,
				"element": "H" 
			},
			{
				"x": -0.3911451437,
				"y": -3.2397105275,
				"z": -0.4474269467,
				"element": "H" 
			},
			{
				"x": -4.06685972,
				"y": -1.0649464024,
				"z": -0.8208106188,
				"element": "H" 
			},
			{
				"x": -2.9437766656,
				"y": 0.9560058574,
				"z": 0.1009046199,
				"element": "H" 
			},
			{
				"x": 2.2771516229,
				"y": -1.1022649628,
				"z": 2.1110015264,
				"element": "H" 
			}
		],
		 "valence_orbital": [ 
			{
				"type": "occ",
				"energy": -0.28686,
				"method": "rhf"
			},
			{
				"type": "occ",
				"energy": -0.28367,
				"method": "rhf"
			},
			{
				"type": "occ",
				"energy": -0.27273,
				"method": "rhf"
			},
			{
				"type": "occ",
				"energy": -0.26802,
				"method": "rhf"
			},
			{
				"type": "occ",
				"energy": -0.23946,
				"method": "rhf"
			},
			{
				"type": "unocc",
				"energy": -0.08385,
				"method": "rhf"
			},
			{
				"type": "unocc",
				"energy": -0.05037,
				"method": "rhf"
			},
			{
				"type": "unocc",
				"energy": -0.00622,
				"method": "rhf"
			},
			{
				"type": "unocc",
				"energy": 0.04653,
				"method": "rhf"
			},
			{
				"type": "unocc",
				"energy": 0.0562,
				"method": "rhf"
			}
		],
		"cosmo_sigma_profile": { 
			"-0.025": 0.0,
			"-0.024": 0.0,
			"-0.023": 0.0,
			"-0.022": 0.0,
			"-0.021": 0.0,
			"-0.02": 0.0,
			"-0.019": 0.0,
			"-0.018": 0.506087429366,
			"-0.017": 0.652984363826,
			"-0.016": 0.931909673705,
			"-0.015": 0.638508087259,
			"-0.014": 0.589240915774,
			"-0.013": 1.52722828129,
			"-0.012": 2.41618965772,
			"-0.011": 2.70641037472,
			"-0.01": 3.05673639848,
			"-0.009": 1.8396439806,
			"-0.008": 4.24886556152,
			"-0.007": 6.36738603086,
			"-0.006": 9.73115130742,
			"-0.005": 10.9163353689,
			"-0.004": 21.5269473247,
			"-0.003": 28.9381457381,
			"-0.002": 26.8732391452,
			"-0.001": 18.9759743797,
			"0.0": 18.4935608371,
			"0.001": 12.5739263963,
			"0.002": 9.5178083403,
			"0.003": 5.92395807114,
			"0.004": 6.61219739439,
			"0.005": 7.34479948853,
			"0.006": 7.90632528553,
			"0.007": 10.9933680138,
			"0.008": 12.3975885546,
			"0.009": 8.53528920414,
			"0.01": 6.43538562082,
			"0.011": 4.36173446666,
			"0.012": 4.85170691336,
			"0.013": 1.00810756679,
			"0.014": 0.475786618901,
			"0.015": 0.582092993694,
			"0.016": 0.228872412891,
			"0.017": 0.0,
			"0.018": 0.0,
			"0.019": 0.0,
			"0.02": 0.0,
			"0.021": 0.0,
			"0.022": 0.0,
			"0.023": 0.0,
			"0.024": 0.0,
			"0.025": 0.0
		}
	}
}
