{
	 "smiles": "CC1=CC=C(S1)S(=O)(=O)NCCN", 
	 "Tm": 368.15, 
	 "num_atms": 25, 
	 "gaussian": { 
		 "optdone": 1, 
		 "sigma_profile": "yes", 
		 "theory": "DFT", 
		 "functional": "B3LYP", 
		 "basiset": "6-31G**", 
		 "properties": { 
			 "R2extent": 4397.6628, 
			 "electric_dipole_moment_norm": 6.36634454377, 
			 "electric_quadrupole_moment_norm": 15.4751732837, 
			 "total_energy": -1330.21302812, 
			 "HOMO_LUMO_gap": 0.19727, 
			 "cosmo_polarized_energy": -20.02, 
			 "cosmo_cavitation_energy": 31.75, 
			 "cosmo_dispersion_energy": -23.37, 
			 "cosmo_repulsion_energy": 1.81, 
			 "cosmo_total_nonelectrostatic_energy": 10.19, 
			 "SMD_solvation_energy": 2.4 
		},
		"coords": [
			{
				"x": 0.7851848316,
				"y": 2.1083742443,
				"z": -2.3798805473,
				"element": "C" 
			},
			{
				"x": 0.8759582469,
				"y": 1.3104496009,
				"z": -1.1130850553,
				"element": "C" 
			},
			{
				"x": 1.9437345245,
				"y": 0.5877879824,
				"z": -0.6412997947,
				"element": "C" 
			},
			{
				"x": 1.699033713,
				"y": -0.0412873319,
				"z": 0.6129795414,
				"element": "C" 
			},
			{
				"x": 0.4384506853,
				"y": 0.2148508254,
				"z": 1.0858879027,
				"element": "C" 
			},
			{
				"x": -0.4663413167,
				"y": 1.2402214436,
				"z": 0.0025342897,
				"element": "S" 
			},
			{
				"x": -0.2666452025,
				"y": -0.4257433852,
				"z": 2.5839186253,
				"element": "S" 
			},
			{
				"x": -1.2805214366,
				"y": 0.5288908388,
				"z": 3.0291560088,
				"element": "O" 
			},
			{
				"x": 0.8565359624,
				"y": -0.8549803903,
				"z": 3.4154787035,
				"element": "O" 
			},
			{
				"x": -1.1160532507,
				"y": -1.8139155056,
				"z": 2.1788620026,
				"element": "N" 
			},
			{
				"x": -0.4004007837,
				"y": -2.9750500217,
				"z": 1.6412369315,
				"element": "C" 
			},
			{
				"x": -1.3085304354,
				"y": -4.2172562044,
				"z": 1.6606869541,
				"element": "C" 
			},
			{
				"x": -0.6900243035,
				"y": -5.4381007771,
				"z": 1.155136784,
				"element": "N" 
			},
			{
				"x": 0.6000136255,
				"y": 3.1692566205,
				"z": -2.1791666213,
				"element": "H" 
			},
			{
				"x": 1.7248671652,
				"y": 2.0298002041,
				"z": -2.9329264754,
				"element": "H" 
			},
			{
				"x": -0.0204114714,
				"y": 1.7507494304,
				"z": -3.0305236574,
				"element": "H" 
			},
			{
				"x": 2.8845241803,
				"y": 0.5172610507,
				"z": -1.1764857755,
				"element": "H" 
			},
			{
				"x": 2.4181902914,
				"y": -0.6385234009,
				"z": 1.160122848,
				"element": "H" 
			},
			{
				"x": -1.9767680397,
				"y": -1.5705456367,
				"z": 1.6956681698,
				"element": "H" 
			},
			{
				"x": -0.0322625993,
				"y": -2.7980768848,
				"z": 0.6170645215,
				"element": "H" 
			},
			{
				"x": 0.4679148298,
				"y": -3.1431021016,
				"z": 2.2846148055,
				"element": "H" 
			},
			{
				"x": -2.2094863525,
				"y": -4.0196807786,
				"z": 1.0644475692,
				"element": "H" 
			},
			{
				"x": -1.6466685241,
				"y": -4.3905574898,
				"z": 2.6875516331,
				"element": "H" 
			},
			{
				"x": -0.3596823107,
				"y": -5.3048374324,
				"z": 0.2023218823,
				"element": "H" 
			},
			{
				"x": 0.122587971,
				"y": -5.6820849004,
				"z": 1.7159987538,
				"element": "H" 
			}
		],
		 "valence_orbital": [ 
			{
				"type": "occ",
				"energy": -0.30422,
				"method": "rhf"
			},
			{
				"type": "occ",
				"energy": -0.28857,
				"method": "rhf"
			},
			{
				"type": "occ",
				"energy": -0.27024,
				"method": "rhf"
			},
			{
				"type": "occ",
				"energy": -0.24751,
				"method": "rhf"
			},
			{
				"type": "occ",
				"energy": -0.24372,
				"method": "rhf"
			},
			{
				"type": "unocc",
				"energy": -0.04645,
				"method": "rhf"
			},
			{
				"type": "unocc",
				"energy": 0.00979,
				"method": "rhf"
			},
			{
				"type": "unocc",
				"energy": 0.03951,
				"method": "rhf"
			},
			{
				"type": "unocc",
				"energy": 0.05427,
				"method": "rhf"
			},
			{
				"type": "unocc",
				"energy": 0.0667,
				"method": "rhf"
			}
		],
		"cosmo_sigma_profile": { 
			"-0.025": 0.0,
			"-0.024": 0.0,
			"-0.023": 0.0,
			"-0.022": 0.0,
			"-0.021": 0.0,
			"-0.02": 0.0,
			"-0.019": 0.0,
			"-0.018": 0.0,
			"-0.017": 0.0,
			"-0.016": 0.0,
			"-0.015": 0.296160842538,
			"-0.014": 1.05390225202,
			"-0.013": 1.06864004458,
			"-0.012": 0.914603516806,
			"-0.011": 1.96730959935,
			"-0.01": 3.21026184319,
			"-0.009": 4.46518515127,
			"-0.008": 5.30277531014,
			"-0.007": 9.07048625564,
			"-0.006": 13.3807367243,
			"-0.005": 18.7353557023,
			"-0.004": 21.0557654377,
			"-0.003": 19.916166879,
			"-0.002": 18.386786164,
			"-0.001": 17.0762113597,
			"0.0": 12.4535986772,
			"0.001": 13.1208270645,
			"0.002": 15.3998032226,
			"0.003": 14.6449220148,
			"0.004": 8.12218248676,
			"0.005": 4.45247228213,
			"0.006": 4.73011982458,
			"0.007": 5.79769987778,
			"0.008": 6.03858350124,
			"0.009": 4.44778234046,
			"0.01": 9.06116284569,
			"0.011": 9.71807510131,
			"0.012": 3.53748023091,
			"0.013": 0.664607893569,
			"0.014": 0.866378399295,
			"0.015": 0.706047051858,
			"0.016": 0.77615855546,
			"0.017": 0.37696850091,
			"0.018": 0.590506795041,
			"0.019": 0.699097094101,
			"0.02": 0.0156520642422,
			"0.021": 0.0,
			"0.022": 0.0,
			"0.023": 0.0,
			"0.024": 0.0,
			"0.025": 0.0
		}
	}
}
