{
	 "smiles": "CC(C)(C)NC(=O)C1=CC=CC=C1", 
	 "Tm": 407.15, 
	 "num_atms": 28, 
	 "gaussian": { 
		 "optdone": 1, 
		 "sigma_profile": "yes", 
		 "theory": "DFT", 
		 "functional": "B3LYP", 
		 "basiset": "6-31G**", 
		 "properties": { 
			 "R2extent": 3608.7672, 
			 "electric_dipole_moment_norm": 3.55356290081, 
			 "electric_quadrupole_moment_norm": 17.5633084603, 
			 "total_energy": -558.206446575, 
			 "HOMO_LUMO_gap": 0.20853, 
			 "cosmo_polarized_energy": -10.63, 
			 "cosmo_cavitation_energy": 29.84, 
			 "cosmo_dispersion_energy": -20.77, 
			 "cosmo_repulsion_energy": 1.64, 
			 "cosmo_total_nonelectrostatic_energy": 10.71, 
			 "SMD_solvation_energy": 5.34 
		},
		"coords": [
			{
				"x": 1.3844890409,
				"y": 1.1366234327,
				"z": 0.0641853225,
				"element": "C" 
			},
			{
				"x": 0.3038717799,
				"y": 0.928035476,
				"z": -1.0137303643,
				"element": "C" 
			},
			{
				"x": -0.0013139092,
				"y": 2.2743696848,
				"z": -1.6969506003,
				"element": "C" 
			},
			{
				"x": -0.992629155,
				"y": 0.39646042,
				"z": -0.3766095811,
				"element": "C" 
			},
			{
				"x": 0.7950109792,
				"y": 0.0387411376,
				"z": -2.1103695034,
				"element": "N" 
			},
			{
				"x": 1.6397908232,
				"y": -1.0555294493,
				"z": -2.061697493,
				"element": "C" 
			},
			{
				"x": 2.4511435906,
				"y": -1.248894614,
				"z": -2.9633932809,
				"element": "O" 
			},
			{
				"x": 1.5142543445,
				"y": -2.0591029622,
				"z": -0.9493547172,
				"element": "C" 
			},
			{
				"x": 2.686175176,
				"y": -2.5046521741,
				"z": -0.3212892938,
				"element": "C" 
			},
			{
				"x": 2.6288333652,
				"y": -3.4992912074,
				"z": 0.6527290122,
				"element": "C" 
			},
			{
				"x": 1.4046638587,
				"y": -4.0886350825,
				"z": 0.9810856785,
				"element": "C" 
			},
			{
				"x": 0.2401866994,
				"y": -3.6796541688,
				"z": 0.329749281,
				"element": "C" 
			},
			{
				"x": 0.2926046342,
				"y": -2.6650496852,
				"z": -0.6284096607,
				"element": "C" 
			},
			{
				"x": 1.6297901717,
				"y": 0.199954509,
				"z": 0.5708370377,
				"element": "H" 
			},
			{
				"x": 1.0311074528,
				"y": 1.8450466683,
				"z": 0.8208779629,
				"element": "H" 
			},
			{
				"x": 2.3014694217,
				"y": 1.5390730208,
				"z": -0.3783508788,
				"element": "H" 
			},
			{
				"x": -0.7556572869,
				"y": 2.1517843421,
				"z": -2.4816347973,
				"element": "H" 
			},
			{
				"x": -0.3854008874,
				"y": 2.9925297039,
				"z": -0.967367678,
				"element": "H" 
			},
			{
				"x": 0.9017997627,
				"y": 2.7019142318,
				"z": -2.146739974,
				"element": "H" 
			},
			{
				"x": -1.4088945156,
				"y": 1.1494380164,
				"z": 0.3009683167,
				"element": "H" 
			},
			{
				"x": -1.7386739033,
				"y": 0.1785716401,
				"z": -1.1470896832,
				"element": "H" 
			},
			{
				"x": -0.8164754633,
				"y": -0.5108677016,
				"z": 0.2031889389,
				"element": "H" 
			},
			{
				"x": 1.0104947305,
				"y": 0.5498005958,
				"z": -2.9601356852,
				"element": "H" 
			},
			{
				"x": 3.636100862,
				"y": -2.0660697709,
				"z": -0.6099468014,
				"element": "H" 
			},
			{
				"x": 3.5397460765,
				"y": -3.8252578598,
				"z": 1.1465272,
				"element": "H" 
			},
			{
				"x": 1.3616642964,
				"y": -4.8719907824,
				"z": 1.7324078433,
				"element": "H" 
			},
			{
				"x": -0.7092682476,
				"y": -4.1537355405,
				"z": 0.5616807756,
				"element": "H" 
			},
			{
				"x": -0.609083698,
				"y": -2.3634118805,
				"z": -1.1505673771,
				"element": "H" 
			}
		],
		 "valence_orbital": [ 
			{
				"type": "occ",
				"energy": -0.33715,
				"method": "rhf"
			},
			{
				"type": "occ",
				"energy": -0.26184,
				"method": "rhf"
			},
			{
				"type": "occ",
				"energy": -0.25507,
				"method": "rhf"
			},
			{
				"type": "occ",
				"energy": -0.25072,
				"method": "rhf"
			},
			{
				"type": "occ",
				"energy": -0.233,
				"method": "rhf"
			},
			{
				"type": "unocc",
				"energy": -0.02447,
				"method": "rhf"
			},
			{
				"type": "unocc",
				"energy": -0.006,
				"method": "rhf"
			},
			{
				"type": "unocc",
				"energy": 0.04218,
				"method": "rhf"
			},
			{
				"type": "unocc",
				"energy": 0.07203,
				"method": "rhf"
			},
			{
				"type": "unocc",
				"energy": 0.0957,
				"method": "rhf"
			}
		],
		"cosmo_sigma_profile": { 
			"-0.025": 0.0,
			"-0.024": 0.0,
			"-0.023": 0.0,
			"-0.022": 0.0,
			"-0.021": 0.0,
			"-0.02": 0.0,
			"-0.019": 0.0,
			"-0.018": 0.0,
			"-0.017": 0.0,
			"-0.016": 0.0,
			"-0.015": 0.0,
			"-0.014": 0.0,
			"-0.013": 0.0,
			"-0.012": 0.123046209343,
			"-0.011": 0.620869905195,
			"-0.01": 0.406114492281,
			"-0.009": 1.25179378141,
			"-0.008": 1.11896821709,
			"-0.007": 1.58981788811,
			"-0.006": 7.69284858645,
			"-0.005": 12.3817505073,
			"-0.004": 21.86307519,
			"-0.003": 26.5182153433,
			"-0.002": 24.8165217783,
			"-0.001": 26.9187509533,
			"0.0": 27.5084131414,
			"0.001": 21.2675371105,
			"0.002": 9.5932072862,
			"0.003": 9.51437034259,
			"0.004": 10.3515331819,
			"0.005": 9.3710085617,
			"0.006": 1.6917006245,
			"0.007": 1.74291418393,
			"0.008": 1.64936311938,
			"0.009": 1.72809563504,
			"0.01": 1.40531870262,
			"0.011": 1.30179781623,
			"0.012": 1.88549692012,
			"0.013": 4.5113129154,
			"0.014": 4.66644962851,
			"0.015": 0.773435708714,
			"0.016": 0.0,
			"0.017": 0.0,
			"0.018": 0.0,
			"0.019": 0.0,
			"0.02": 0.0,
			"0.021": 0.0,
			"0.022": 0.0,
			"0.023": 0.0,
			"0.024": 0.0,
			"0.025": 0.0
		}
	}
}
