{
	 "smiles": "OC(=O)C1=CC=C(C=C1)S(=O)(=O)C(F)F", 
	 "Tm": 506.15, 
	 "num_atms": 21, 
	 "gaussian": { 
		 "optdone": 1, 
		 "sigma_profile": "yes", 
		 "theory": "DFT", 
		 "functional": "B3LYP", 
		 "basiset": "6-31G**", 
		 "properties": { 
			 "R2extent": 4520.9532, 
			 "electric_dipole_moment_norm": 3.6768540398, 
			 "electric_quadrupole_moment_norm": 19.3280289114, 
			 "total_energy": -1207.14412793, 
			 "HOMO_LUMO_gap": 0.19995, 
			 "cosmo_polarized_energy": -20.97, 
			 "cosmo_cavitation_energy": 28.7, 
			 "cosmo_dispersion_energy": -20.85, 
			 "cosmo_repulsion_energy": 1.55, 
			 "cosmo_total_nonelectrostatic_energy": 9.4, 
			 "SMD_solvation_energy": 6.32 
		},
		"coords": [
			{
				"x": -4.811642668,
				"y": 0.284404417,
				"z": -0.0659015229,
				"element": "O" 
			},
			{
				"x": -3.7605237106,
				"y": -0.5735910236,
				"z": -0.0797139574,
				"element": "C" 
			},
			{
				"x": -3.9453783129,
				"y": -1.7662360252,
				"z": -0.0638566542,
				"element": "O" 
			},
			{
				"x": -2.3851433774,
				"y": 0.0366832891,
				"z": -0.1164042912,
				"element": "C" 
			},
			{
				"x": -1.3165451208,
				"y": -0.7606886543,
				"z": 0.3166084564,
				"element": "C" 
			},
			{
				"x": -0.0180641391,
				"y": -0.2612492827,
				"z": 0.3054473589,
				"element": "C" 
			},
			{
				"x": 0.1981116762,
				"y": 1.0373110316,
				"z": -0.1634157326,
				"element": "C" 
			},
			{
				"x": -0.8451212208,
				"y": 1.8399450206,
				"z": -0.6258321208,
				"element": "C" 
			},
			{
				"x": -2.1419940252,
				"y": 1.3305163321,
				"z": -0.5996957885,
				"element": "C" 
			},
			{
				"x": 1.8676928952,
				"y": 1.6954534244,
				"z": -0.1771712741,
				"element": "S" 
			},
			{
				"x": 2.8238972521,
				"y": 0.5826986655,
				"z": -0.2050202142,
				"element": "O" 
			},
			{
				"x": 1.9338598836,
				"y": 2.8126295453,
				"z": -1.1271631455,
				"element": "O" 
			},
			{
				"x": 2.0148300263,
				"y": 2.4548034007,
				"z": 1.5171808975,
				"element": "C" 
			},
			{
				"x": 1.0593627141,
				"y": 3.398296471,
				"z": 1.6479379049,
				"element": "F" 
			},
			{
				"x": 1.8174717833,
				"y": 1.4893602963,
				"z": 2.4380866142,
				"element": "F" 
			},
			{
				"x": -4.5114944338,
				"y": 1.1912050741,
				"z": 0.0861508086,
				"element": "H" 
			},
			{
				"x": -1.5264538771,
				"y": -1.7695006439,
				"z": 0.6542824927,
				"element": "H" 
			},
			{
				"x": 0.8201985029,
				"y": -0.8659708659,
				"z": 0.6329632815,
				"element": "H" 
			},
			{
				"x": -0.6356719259,
				"y": 2.8292089163,
				"z": -1.0169460799,
				"element": "H" 
			},
			{
				"x": -2.9502634378,
				"y": 1.9377218635,
				"z": -0.9986175035,
				"element": "H" 
			},
			{
				"x": 3.0146715155,
				"y": 2.8918987483,
				"z": 1.6135804702,
				"element": "H" 
			}
		],
		 "valence_orbital": [ 
			{
				"type": "occ",
				"energy": -0.32564,
				"method": "rhf"
			},
			{
				"type": "occ",
				"energy": -0.30856,
				"method": "rhf"
			},
			{
				"type": "occ",
				"energy": -0.30406,
				"method": "rhf"
			},
			{
				"type": "occ",
				"energy": -0.299,
				"method": "rhf"
			},
			{
				"type": "occ",
				"energy": -0.28907,
				"method": "rhf"
			},
			{
				"type": "unocc",
				"energy": -0.08912,
				"method": "rhf"
			},
			{
				"type": "unocc",
				"energy": -0.04939,
				"method": "rhf"
			},
			{
				"type": "unocc",
				"energy": 0.00514,
				"method": "rhf"
			},
			{
				"type": "unocc",
				"energy": 0.03324,
				"method": "rhf"
			},
			{
				"type": "unocc",
				"energy": 0.04892,
				"method": "rhf"
			}
		],
		"cosmo_sigma_profile": { 
			"-0.025": 0.0,
			"-0.024": 0.0,
			"-0.023": 0.0,
			"-0.022": 0.0,
			"-0.021": 0.0,
			"-0.02": 0.237563390853,
			"-0.019": 0.835320111035,
			"-0.018": 1.2065073418,
			"-0.017": 0.65307348365,
			"-0.016": 0.794508627776,
			"-0.015": 1.42932438045,
			"-0.014": 1.87929514829,
			"-0.013": 3.37604619457,
			"-0.012": 3.80506133468,
			"-0.011": 2.87649117431,
			"-0.01": 2.52010921506,
			"-0.009": 4.28426472442,
			"-0.008": 7.62692550671,
			"-0.007": 8.56622860498,
			"-0.006": 6.82388522519,
			"-0.005": 7.96377067783,
			"-0.004": 8.74951242848,
			"-0.003": 10.5143741578,
			"-0.002": 11.329902258,
			"-0.001": 17.0195563174,
			"0.0": 22.7752351323,
			"0.001": 14.2664092792,
			"0.002": 20.013156378,
			"0.003": 8.89193838689,
			"0.004": 4.47832029267,
			"0.005": 5.02561951944,
			"0.006": 4.1220023952,
			"0.007": 6.40437160071,
			"0.008": 7.17432011091,
			"0.009": 10.752927731,
			"0.01": 14.12696009,
			"0.011": 7.57718572939,
			"0.012": 2.42528540352,
			"0.013": 0.3175044573,
			"0.014": 0.0,
			"0.015": 0.0,
			"0.016": 0.0,
			"0.017": 0.0,
			"0.018": 0.0,
			"0.019": 0.0,
			"0.02": 0.0,
			"0.021": 0.0,
			"0.022": 0.0,
			"0.023": 0.0,
			"0.024": 0.0,
			"0.025": 0.0
		}
	}
}
