{
	 "smiles": "SC1=NN=C(N1)SCC1=C(Cl)C=CC=C1", 
	 "Tm": 407.15, 
	 "num_atms": 23, 
	 "gaussian": { 
		 "optdone": 1, 
		 "sigma_profile": "yes", 
		 "theory": "DFT", 
		 "functional": "B3LYP", 
		 "basiset": "6-31G**", 
		 "properties": { 
			 "R2extent": 7024.204, 
			 "electric_dipole_moment_norm": 3.17446405083, 
			 "electric_quadrupole_moment_norm": 14.8334398674, 
			 "total_energy": -1768.56794735, 
			 "HOMO_LUMO_gap": 0.18518, 
			 "cosmo_polarized_energy": -18.53, 
			 "cosmo_cavitation_energy": 33.4, 
			 "cosmo_dispersion_energy": -25.17, 
			 "cosmo_repulsion_energy": 1.89, 
			 "cosmo_total_nonelectrostatic_energy": 10.13, 
			 "SMD_solvation_energy": 2.48 
		},
		"coords": [
			{
				"x": -1.7514423726,
				"y": 4.8615297685,
				"z": 3.4341992415,
				"element": "S" 
			},
			{
				"x": -1.1338432227,
				"y": 3.4529065158,
				"z": 2.5661266303,
				"element": "C" 
			},
			{
				"x": -0.8976787115,
				"y": 2.2654167801,
				"z": 3.0615432916,
				"element": "N" 
			},
			{
				"x": -0.4147526582,
				"y": 1.4757585827,
				"z": 2.022437954,
				"element": "N" 
			},
			{
				"x": -0.3836300709,
				"y": 2.2192465633,
				"z": 0.9432121398,
				"element": "C" 
			},
			{
				"x": -0.8297798243,
				"y": 3.4900515113,
				"z": 1.2269260983,
				"element": "N" 
			},
			{
				"x": 0.1501980612,
				"y": 1.7496146581,
				"z": -0.6676251414,
				"element": "S" 
			},
			{
				"x": 0.2757152392,
				"y": -0.0822968809,
				"z": -0.3825220577,
				"element": "C" 
			},
			{
				"x": 0.823845651,
				"y": -0.7421546175,
				"z": -1.6174487351,
				"element": "C" 
			},
			{
				"x": 0.0090152985,
				"y": -1.2137705565,
				"z": -2.6593252893,
				"element": "C" 
			},
			{
				"x": -1.741557409,
				"y": -1.0487954206,
				"z": -2.5695171319,
				"element": "Cl" 
			},
			{
				"x": 0.5470993534,
				"y": -1.8320551812,
				"z": -3.788547652,
				"element": "C" 
			},
			{
				"x": 1.9283043179,
				"y": -1.9824063579,
				"z": -3.8986874141,
				"element": "C" 
			},
			{
				"x": 2.7638999831,
				"y": -1.5181889039,
				"z": -2.8817109426,
				"element": "C" 
			},
			{
				"x": 2.2106423127,
				"y": -0.9071308269,
				"z": -1.7595314263,
				"element": "C" 
			},
			{
				"x": -1.8543907007,
				"y": 4.1876871814,
				"z": 4.5953128973,
				"element": "H" 
			},
			{
				"x": -0.944082247,
				"y": 4.2601654168,
				"z": 0.5847578508,
				"element": "H" 
			},
			{
				"x": 0.9351644766,
				"y": -0.2270393573,
				"z": 0.4735301928,
				"element": "H" 
			},
			{
				"x": -0.7190593751,
				"y": -0.4426116775,
				"z": -0.122077213,
				"element": "H" 
			},
			{
				"x": -0.1161291907,
				"y": -2.1889883467,
				"z": -4.5685275166,
				"element": "H" 
			},
			{
				"x": 2.3460439267,
				"y": -2.4637035563,
				"z": -4.7777744417,
				"element": "H" 
			},
			{
				"x": 3.8403256098,
				"y": -1.6340085358,
				"z": -2.9604584615,
				"element": "H" 
			},
			{
				"x": 2.8575915526,
				"y": -0.5458267592,
				"z": -0.964792873,
				"element": "H" 
			}
		],
		 "valence_orbital": [ 
			{
				"type": "occ",
				"energy": -0.27071,
				"method": "rhf"
			},
			{
				"type": "occ",
				"energy": -0.26808,
				"method": "rhf"
			},
			{
				"type": "occ",
				"energy": -0.2616,
				"method": "rhf"
			},
			{
				"type": "occ",
				"energy": -0.25258,
				"method": "rhf"
			},
			{
				"type": "occ",
				"energy": -0.21757,
				"method": "rhf"
			},
			{
				"type": "unocc",
				"energy": -0.03239,
				"method": "rhf"
			},
			{
				"type": "unocc",
				"energy": -0.02021,
				"method": "rhf"
			},
			{
				"type": "unocc",
				"energy": -0.00287,
				"method": "rhf"
			},
			{
				"type": "unocc",
				"energy": 0.00791,
				"method": "rhf"
			},
			{
				"type": "unocc",
				"energy": 0.01764,
				"method": "rhf"
			}
		],
		"cosmo_sigma_profile": { 
			"-0.025": 0.0,
			"-0.024": 0.0,
			"-0.023": 0.0,
			"-0.022": 0.0,
			"-0.021": 0.0,
			"-0.02": 0.0,
			"-0.019": 0.17977577282,
			"-0.018": 1.76320092613,
			"-0.017": 1.45706315013,
			"-0.016": 1.50846732594,
			"-0.015": 1.24643595239,
			"-0.014": 1.37539486215,
			"-0.013": 1.51088126525,
			"-0.012": 1.9591855201,
			"-0.011": 2.79436651015,
			"-0.01": 1.95649606642,
			"-0.009": 3.00886532883,
			"-0.008": 2.64250834571,
			"-0.007": 9.69933775255,
			"-0.006": 12.0347914007,
			"-0.005": 13.7893443264,
			"-0.004": 13.25504254,
			"-0.003": 13.5948874536,
			"-0.002": 13.7184122005,
			"-0.001": 18.3326784297,
			"0.0": 19.806184891,
			"0.001": 24.151833881,
			"0.002": 26.0509790557,
			"0.003": 25.6296368127,
			"0.004": 19.4774130505,
			"0.005": 12.9572546664,
			"0.006": 6.11558365853,
			"0.007": 4.2161717068,
			"0.008": 2.18087997187,
			"0.009": 2.13795720551,
			"0.01": 1.9828174213,
			"0.011": 2.27709393232,
			"0.012": 2.18613648537,
			"0.013": 3.74622913133,
			"0.014": 3.20979627147,
			"0.015": 1.8595003268,
			"0.016": 0.848464208609,
			"0.017": 0.0685894553981,
			"0.018": 0.0,
			"0.019": 0.0,
			"0.02": 0.0,
			"0.021": 0.0,
			"0.022": 0.0,
			"0.023": 0.0,
			"0.024": 0.0,
			"0.025": 0.0
		}
	}
}
