{
	 "smiles": "CC1=CC(=C(C)O1)C1=NN=C(CCl)O1", 
	 "Tm": 336.15, 
	 "num_atms": 23, 
	 "gaussian": { 
		 "optdone": 1, 
		 "sigma_profile": "yes", 
		 "theory": "DFT", 
		 "functional": "B3LYP", 
		 "basiset": "6-31G**", 
		 "properties": { 
			 "R2extent": 5053.7907, 
			 "electric_dipole_moment_norm": 3.64276962351, 
			 "electric_quadrupole_moment_norm": 11.8328282832, 
			 "total_energy": -1068.49334171, 
			 "HOMO_LUMO_gap": 0.17435, 
			 "cosmo_polarized_energy": -10.89, 
			 "cosmo_cavitation_energy": 30.08, 
			 "cosmo_dispersion_energy": -22.08, 
			 "cosmo_repulsion_energy": 1.79, 
			 "cosmo_total_nonelectrostatic_energy": 9.78, 
			 "SMD_solvation_energy": 4.18 
		},
		"coords": [
			{
				"x": 2.315932515,
				"y": -2.2942107195,
				"z": 4.6665524191,
				"element": "C" 
			},
			{
				"x": 2.0168400863,
				"y": -1.6152327474,
				"z": 3.3775189996,
				"element": "C" 
			},
			{
				"x": 1.1370626969,
				"y": -1.8499233925,
				"z": 2.3702353295,
				"element": "C" 
			},
			{
				"x": 1.3511860803,
				"y": -0.8139222522,
				"z": 1.3899223177,
				"element": "C" 
			},
			{
				"x": 2.3586129095,
				"y": -0.0127557361,
				"z": 1.876182931,
				"element": "C" 
			},
			{
				"x": 3.0414905062,
				"y": 1.2023014121,
				"z": 1.3617217737,
				"element": "C" 
			},
			{
				"x": 2.7637514821,
				"y": -0.4962488932,
				"z": 3.0819113069,
				"element": "O" 
			},
			{
				"x": 0.6476482746,
				"y": -0.650085693,
				"z": 0.1420017148,
				"element": "C" 
			},
			{
				"x": 0.7958843371,
				"y": 0.2511597817,
				"z": -0.7925468318,
				"element": "N" 
			},
			{
				"x": -0.1286329095,
				"y": -0.0500342603,
				"z": -1.7848040488,
				"element": "N" 
			},
			{
				"x": -0.7708833169,
				"y": -1.1012497933,
				"z": -1.3828215347,
				"element": "C" 
			},
			{
				"x": -1.8682881421,
				"y": -1.8081104142,
				"z": -2.0748338096,
				"element": "C" 
			},
			{
				"x": -1.3618675518,
				"y": -3.4512764025,
				"z": -2.6857604448,
				"element": "Cl" 
			},
			{
				"x": -0.3405493278,
				"y": -1.5438088599,
				"z": -0.1672193412,
				"element": "O" 
			},
			{
				"x": 1.6638617394,
				"y": -3.1620415747,
				"z": 4.7873795948,
				"element": "H" 
			},
			{
				"x": 3.3560198264,
				"y": -2.6372825842,
				"z": 4.706277589,
				"element": "H" 
			},
			{
				"x": 2.1578374877,
				"y": -1.6234723027,
				"z": 5.5187503993,
				"element": "H" 
			},
			{
				"x": 0.420107403,
				"y": -2.6551632851,
				"z": 2.311205515,
				"element": "H" 
			},
			{
				"x": 4.1165039712,
				"y": 1.024704661,
				"z": 1.2418097523,
				"element": "H" 
			},
			{
				"x": 2.6169907463,
				"y": 1.4772387565,
				"z": 0.3953654266,
				"element": "H" 
			},
			{
				"x": 2.9229625821,
				"y": 2.0413153201,
				"z": 2.0571265327,
				"element": "H" 
			},
			{
				"x": -2.1734381772,
				"y": -1.2202396335,
				"z": -2.9384505006,
				"element": "H" 
			},
			{
				"x": -2.716933219,
				"y": -1.982061387,
				"z": -1.4126250905,
				"element": "H" 
			}
		],
		 "valence_orbital": [ 
			{
				"type": "occ",
				"energy": -0.30986,
				"method": "rhf"
			},
			{
				"type": "occ",
				"energy": -0.30703,
				"method": "rhf"
			},
			{
				"type": "occ",
				"energy": -0.28163,
				"method": "rhf"
			},
			{
				"type": "occ",
				"energy": -0.26368,
				"method": "rhf"
			},
			{
				"type": "occ",
				"energy": -0.22104,
				"method": "rhf"
			},
			{
				"type": "unocc",
				"energy": -0.04669,
				"method": "rhf"
			},
			{
				"type": "unocc",
				"energy": -0.01525,
				"method": "rhf"
			},
			{
				"type": "unocc",
				"energy": 0.0199,
				"method": "rhf"
			},
			{
				"type": "unocc",
				"energy": 0.04767,
				"method": "rhf"
			},
			{
				"type": "unocc",
				"energy": 0.09844,
				"method": "rhf"
			}
		],
		"cosmo_sigma_profile": { 
			"-0.025": 0.0,
			"-0.024": 0.0,
			"-0.023": 0.0,
			"-0.022": 0.0,
			"-0.021": 0.0,
			"-0.02": 0.0,
			"-0.019": 0.0,
			"-0.018": 0.0,
			"-0.017": 0.0,
			"-0.016": 0.0,
			"-0.015": 0.0,
			"-0.014": 0.0,
			"-0.013": 0.0,
			"-0.012": 0.0,
			"-0.011": 0.00399806169617,
			"-0.01": 2.82123408898,
			"-0.009": 4.1312941808,
			"-0.008": 4.08903905984,
			"-0.007": 5.80793078441,
			"-0.006": 8.78389288549,
			"-0.005": 16.7768792011,
			"-0.004": 15.5250863653,
			"-0.003": 16.9621286258,
			"-0.002": 21.3932527673,
			"-0.001": 24.8051304673,
			"0.0": 20.8205031045,
			"0.001": 17.4263205416,
			"0.002": 15.4691662898,
			"0.003": 15.5945092413,
			"0.004": 12.2553964922,
			"0.005": 13.0323361365,
			"0.006": 6.84549529529,
			"0.007": 3.419440233,
			"0.008": 3.63469750486,
			"0.009": 1.67806541472,
			"0.01": 2.84289442736,
			"0.011": 3.75091353725,
			"0.012": 2.65161420887,
			"0.013": 1.09464050207,
			"0.014": 1.24429281402,
			"0.015": 0.132662056543,
			"0.016": 0.0,
			"0.017": 0.0,
			"0.018": 0.0,
			"0.019": 0.0,
			"0.02": 0.0,
			"0.021": 0.0,
			"0.022": 0.0,
			"0.023": 0.0,
			"0.024": 0.0,
			"0.025": 0.0
		}
	}
}
