{
	 "smiles": "CC1=C(Br)C=C(Br)C(N)=N1", 
	 "Tm": 418.15, 
	 "num_atms": 16, 
	 "gaussian": { 
		 "optdone": 1, 
		 "sigma_profile": "yes", 
		 "theory": "DFT", 
		 "functional": "B3LYP", 
		 "basiset": "6-31G**", 
		 "properties": { 
			 "R2extent": 4266.0485, 
			 "electric_dipole_moment_norm": 1.75586351691, 
			 "electric_quadrupole_moment_norm": 4.23176168398, 
			 "total_energy": -5484.58017968, 
			 "HOMO_LUMO_gap": 0.1846, 
			 "cosmo_polarized_energy": -6.84, 
			 "cosmo_cavitation_energy": 24.47, 
			 "cosmo_dispersion_energy": -19.11, 
			 "cosmo_repulsion_energy": 1.56, 
			 "cosmo_total_nonelectrostatic_energy": 6.91, 
			 "SMD_solvation_energy": 0.78 
		},
		"coords": [
			{
				"x": -1.885176148,
				"y": 1.4584777138,
				"z": 2.1862010934,
				"element": "C" 
			},
			{
				"x": -1.321129517,
				"y": 0.5576504016,
				"z": 1.1209638153,
				"element": "C" 
			},
			{
				"x": -2.0901593571,
				"y": 0.0621928489,
				"z": 0.0590006008,
				"element": "C" 
			},
			{
				"x": -3.9411750388,
				"y": 0.5047099579,
				"z": -0.1173659897,
				"element": "Br" 
			},
			{
				"x": -1.5035318239,
				"y": -0.7755706524,
				"z": -0.8884887049,
				"element": "C" 
			},
			{
				"x": -0.1624840822,
				"y": -1.0910665008,
				"z": -0.7561718546,
				"element": "C" 
			},
			{
				"x": 0.6810611016,
				"y": -2.242866056,
				"z": -2.0289273657,
				"element": "Br" 
			},
			{
				"x": 0.5707794506,
				"y": -0.5597773567,
				"z": 0.3270194819,
				"element": "C" 
			},
			{
				"x": 1.909558139,
				"y": -0.7888015605,
				"z": 0.4971216971,
				"element": "N" 
			},
			{
				"x": -0.0251784382,
				"y": 0.2345788392,
				"z": 1.2295706234,
				"element": "N" 
			},
			{
				"x": -1.0994835823,
				"y": 1.7027399586,
				"z": 2.9017771372,
				"element": "H" 
			},
			{
				"x": -2.7168284713,
				"y": 0.9767796196,
				"z": 2.711291255,
				"element": "H" 
			},
			{
				"x": -2.2783512033,
				"y": 2.3836839645,
				"z": 1.7515762399,
				"element": "H" 
			},
			{
				"x": -2.0843151877,
				"y": -1.1731551431,
				"z": -1.7117410733,
				"element": "H" 
			},
			{
				"x": 2.3265462594,
				"y": -1.5744287846,
				"z": 0.0228395903,
				"element": "H" 
			},
			{
				"x": 2.2778678994,
				"y": -0.5402472503,
				"z": 1.4025334539,
				"element": "H" 
			}
		],
		 "valence_orbital": [ 
			{
				"type": "occ",
				"energy": -0.29547,
				"method": "rhf"
			},
			{
				"type": "occ",
				"energy": -0.29254,
				"method": "rhf"
			},
			{
				"type": "occ",
				"energy": -0.26909,
				"method": "rhf"
			},
			{
				"type": "occ",
				"energy": -0.26689,
				"method": "rhf"
			},
			{
				"type": "occ",
				"energy": -0.21633,
				"method": "rhf"
			},
			{
				"type": "unocc",
				"energy": -0.03173,
				"method": "rhf"
			},
			{
				"type": "unocc",
				"energy": -0.01395,
				"method": "rhf"
			},
			{
				"type": "unocc",
				"energy": -0.00826,
				"method": "rhf"
			},
			{
				"type": "unocc",
				"energy": 0.02384,
				"method": "rhf"
			},
			{
				"type": "unocc",
				"energy": 0.08796,
				"method": "rhf"
			}
		],
		"cosmo_sigma_profile": { 
			"-0.025": 0.0,
			"-0.024": 0.0,
			"-0.023": 0.0,
			"-0.022": 0.0,
			"-0.021": 0.0,
			"-0.02": 0.0,
			"-0.019": 0.0,
			"-0.018": 0.0,
			"-0.017": 0.0,
			"-0.016": 0.0,
			"-0.015": 0.0,
			"-0.014": 0.187593590501,
			"-0.013": 1.30230160999,
			"-0.012": 1.93438450576,
			"-0.011": 1.73158507071,
			"-0.01": 2.76762713527,
			"-0.009": 1.8945256465,
			"-0.008": 2.5838381389,
			"-0.007": 3.13783212379,
			"-0.006": 3.12620206175,
			"-0.005": 7.06711727231,
			"-0.004": 11.3413187476,
			"-0.003": 11.8076891517,
			"-0.002": 13.116709234,
			"-0.001": 19.3433660966,
			"0.0": 22.2605496564,
			"0.001": 23.2413953687,
			"0.002": 19.772080348,
			"0.003": 16.8157721368,
			"0.004": 18.6359118103,
			"0.005": 7.78907076458,
			"0.006": 2.49373605222,
			"0.007": 1.97064511306,
			"0.008": 2.57780288002,
			"0.009": 1.29226052679,
			"0.01": 1.39486788101,
			"0.011": 0.849686598451,
			"0.012": 0.852690190501,
			"0.013": 0.431703156883,
			"0.014": 0.0,
			"0.015": 0.0,
			"0.016": 0.0,
			"0.017": 0.0,
			"0.018": 0.0,
			"0.019": 0.0,
			"0.02": 0.0,
			"0.021": 0.0,
			"0.022": 0.0,
			"0.023": 0.0,
			"0.024": 0.0,
			"0.025": 0.0
		}
	}
}
