{
	 "smiles": "ClCC(=O)NCC(=O)C1=C(Br)C=CC=C1", 
	 "Tm": 377.15, 
	 "num_atms": 24, 
	 "gaussian": { 
		 "optdone": 1, 
		 "sigma_profile": "yes", 
		 "theory": "DFT", 
		 "functional": "B3LYP", 
		 "basiset": "6-31G**", 
		 "properties": { 
			 "R2extent": 5521.3123, 
			 "electric_dipole_moment_norm": 6.38038239763, 
			 "electric_quadrupole_moment_norm": 7.44786356817, 
			 "total_energy": -3623.28293807, 
			 "HOMO_LUMO_gap": 0.17254, 
			 "cosmo_polarized_energy": -15.18, 
			 "cosmo_cavitation_energy": 32.36, 
			 "cosmo_dispersion_energy": -23.39, 
			 "cosmo_repulsion_energy": 1.84, 
			 "cosmo_total_nonelectrostatic_energy": 10.81, 
			 "SMD_solvation_energy": 4.74 
		},
		"coords": [
			{
				"x": 1.1091933004,
				"y": 2.5396667029,
				"z": -2.8488139897,
				"element": "Cl" 
			},
			{
				"x": 1.6360002912,
				"y": 0.7969895137,
				"z": -2.8233119656,
				"element": "C" 
			},
			{
				"x": 0.4815455679,
				"y": -0.1812229265,
				"z": -3.0380741719,
				"element": "C" 
			},
			{
				"x": 0.4572918401,
				"y": -0.8900440481,
				"z": -4.0325217183,
				"element": "O" 
			},
			{
				"x": -0.5172937337,
				"y": -0.2246690045,
				"z": -2.0994079324,
				"element": "N" 
			},
			{
				"x": -0.4990783746,
				"y": 0.3193574048,
				"z": -0.7591160632,
				"element": "C" 
			},
			{
				"x": 0.3762784648,
				"y": -0.5079703484,
				"z": 0.2052757692,
				"element": "C" 
			},
			{
				"x": 1.2830045631,
				"y": -1.1820472908,
				"z": -0.2550797343,
				"element": "O" 
			},
			{
				"x": 0.0927169156,
				"y": -0.570845125,
				"z": 1.68513438,
				"element": "C" 
			},
			{
				"x": -0.5122028165,
				"y": 0.4032450245,
				"z": 2.4990078971,
				"element": "C" 
			},
			{
				"x": -1.0187993606,
				"y": 2.1395320589,
				"z": 1.8619315114,
				"element": "Br" 
			},
			{
				"x": -0.7242084964,
				"y": 0.178183634,
				"z": 3.8605485828,
				"element": "C" 
			},
			{
				"x": -0.3410378245,
				"y": -1.030741918,
				"z": 4.4367915025,
				"element": "C" 
			},
			{
				"x": 0.2763278145,
				"y": -2.0097664164,
				"z": 3.6564100325,
				"element": "C" 
			},
			{
				"x": 0.494707333,
				"y": -1.7707818352,
				"z": 2.3060160003,
				"element": "C" 
			},
			{
				"x": 2.3268792964,
				"y": 0.6630305308,
				"z": -3.6519132857,
				"element": "H" 
			},
			{
				"x": 2.1411974062,
				"y": 0.6237977541,
				"z": -1.8732996839,
				"element": "H" 
			},
			{
				"x": -1.1797891264,
				"y": -0.9659186113,
				"z": -2.2891189122,
				"element": "H" 
			},
			{
				"x": -0.1272275137,
				"y": 1.3479344339,
				"z": -0.7758628307,
				"element": "H" 
			},
			{
				"x": -1.5257942401,
				"y": 0.3805103107,
				"z": -0.3910226475,
				"element": "H" 
			},
			{
				"x": -1.1808353661,
				"y": 0.9550587476,
				"z": 4.4625703364,
				"element": "H" 
			},
			{
				"x": -0.519118014,
				"y": -1.1980244641,
				"z": 5.4947888231,
				"element": "H" 
			},
			{
				"x": 0.5873075579,
				"y": -2.9509351213,
				"z": 4.0984714857,
				"element": "H" 
			},
			{
				"x": 0.9839345156,
				"y": -2.5106390064,
				"z": 1.6820966147,
				"element": "H" 
			}
		],
		 "valence_orbital": [ 
			{
				"type": "occ",
				"energy": -0.29295,
				"method": "rhf"
			},
			{
				"type": "occ",
				"energy": -0.27818,
				"method": "rhf"
			},
			{
				"type": "occ",
				"energy": -0.2668,
				"method": "rhf"
			},
			{
				"type": "occ",
				"energy": -0.25814,
				"method": "rhf"
			},
			{
				"type": "occ",
				"energy": -0.251,
				"method": "rhf"
			},
			{
				"type": "unocc",
				"energy": -0.07846,
				"method": "rhf"
			},
			{
				"type": "unocc",
				"energy": -0.03446,
				"method": "rhf"
			},
			{
				"type": "unocc",
				"energy": -0.01912,
				"method": "rhf"
			},
			{
				"type": "unocc",
				"energy": -0.01309,
				"method": "rhf"
			},
			{
				"type": "unocc",
				"energy": 0.00576,
				"method": "rhf"
			}
		],
		"cosmo_sigma_profile": { 
			"-0.025": 0.0,
			"-0.024": 0.0,
			"-0.023": 0.0,
			"-0.022": 0.0,
			"-0.021": 0.0,
			"-0.02": 0.0,
			"-0.019": 0.0,
			"-0.018": 0.0,
			"-0.017": 0.0,
			"-0.016": 0.0,
			"-0.015": 0.152884056053,
			"-0.014": 1.6111910622,
			"-0.013": 1.35172834839,
			"-0.012": 1.04278375818,
			"-0.011": 1.29784850892,
			"-0.01": 1.52461739204,
			"-0.009": 2.4291164197,
			"-0.008": 6.34135962731,
			"-0.007": 13.140042822,
			"-0.006": 14.769827498,
			"-0.005": 15.6208492325,
			"-0.004": 13.1058348709,
			"-0.003": 14.8971958406,
			"-0.002": 15.1326646205,
			"-0.001": 16.3796921052,
			"0.0": 18.8686092133,
			"0.001": 21.7344018771,
			"0.002": 25.875910527,
			"0.003": 22.1227713952,
			"0.004": 13.6203927252,
			"0.005": 11.1231888412,
			"0.006": 5.81816229707,
			"0.007": 3.06101539844,
			"0.008": 2.54832770274,
			"0.009": 3.29309831211,
			"0.01": 3.75032380203,
			"0.011": 3.52500942007,
			"0.012": 3.5168908299,
			"0.013": 5.26995789603,
			"0.014": 0.956886060025,
			"0.015": 0.0,
			"0.016": 0.0,
			"0.017": 0.0,
			"0.018": 0.0,
			"0.019": 0.0,
			"0.02": 0.0,
			"0.021": 0.0,
			"0.022": 0.0,
			"0.023": 0.0,
			"0.024": 0.0,
			"0.025": 0.0
		}
	}
}
