{
	 "smiles": "CC1=CN=C(NC2CCCCC2)C=C1", 
	 "Tm": 363.15, 
	 "num_atms": 32, 
	 "gaussian": { 
		 "optdone": 1, 
		 "sigma_profile": "yes", 
		 "theory": "DFT", 
		 "functional": "B3LYP", 
		 "basiset": "6-31G**", 
		 "properties": { 
			 "R2extent": 4617.4411, 
			 "electric_dipole_moment_norm": 1.6935083525, 
			 "electric_quadrupole_moment_norm": 8.13824895785, 
			 "total_energy": -577.647540632, 
			 "HOMO_LUMO_gap": 0.18451, 
			 "cosmo_polarized_energy": -7.66, 
			 "cosmo_cavitation_energy": 32.37, 
			 "cosmo_dispersion_energy": -23.73, 
			 "cosmo_repulsion_energy": 1.89, 
			 "cosmo_total_nonelectrostatic_energy": 10.52, 
			 "SMD_solvation_energy": 3.2 
		},
		"coords": [
			{
				"x": -4.9860020708,
				"y": -2.6751284786,
				"z": -2.8205834869,
				"element": "C" 
			},
			{
				"x": -3.6052834145,
				"y": -2.2698872093,
				"z": -2.3694300633,
				"element": "C" 
			},
			{
				"x": -3.2167643607,
				"y": -2.3334941128,
				"z": -1.0328981764,
				"element": "C" 
			},
			{
				"x": -2.0121606864,
				"y": -1.9858471027,
				"z": -0.5583940435,
				"element": "N" 
			},
			{
				"x": -1.0934790992,
				"y": -1.5489851359,
				"z": -1.432850712,
				"element": "C" 
			},
			{
				"x": 0.1565934746,
				"y": -1.2356131629,
				"z": -0.9485220166,
				"element": "N" 
			},
			{
				"x": 0.4685470768,
				"y": -1.1748724447,
				"z": 0.4800340123,
				"element": "C" 
			},
			{
				"x": -0.1051003684,
				"y": 0.086595863,
				"z": 1.1971565877,
				"element": "C" 
			},
			{
				"x": 0.9247896298,
				"y": 1.2277785299,
				"z": 1.3535635815,
				"element": "C" 
			},
			{
				"x": 1.8952749032,
				"y": 1.2767908625,
				"z": 0.1656532993,
				"element": "C" 
			},
			{
				"x": 2.7309106411,
				"y": -0.0248194505,
				"z": 0.0752872775,
				"element": "C" 
			},
			{
				"x": 1.9905348478,
				"y": -1.2484206099,
				"z": 0.6709531592,
				"element": "C" 
			},
			{
				"x": -1.3750577327,
				"y": -1.4386072579,
				"z": -2.8167478463,
				"element": "C" 
			},
			{
				"x": -2.629980326,
				"y": -1.8005158681,
				"z": -3.2690629966,
				"element": "C" 
			},
			{
				"x": -5.5162955696,
				"y": -1.8458290702,
				"z": -3.3044377991,
				"element": "H" 
			},
			{
				"x": -4.9524022756,
				"y": -3.499508543,
				"z": -3.5432946457,
				"element": "H" 
			},
			{
				"x": -5.5948827102,
				"y": -3.0052310596,
				"z": -1.9735456787,
				"element": "H" 
			},
			{
				"x": -3.9276429197,
				"y": -2.6852425118,
				"z": -0.284224819,
				"element": "H" 
			},
			{
				"x": 0.7658531937,
				"y": -0.7389541145,
				"z": -1.5798994483,
				"element": "H" 
			},
			{
				"x": 0.001433228,
				"y": -2.0585831585,
				"z": 0.9202500018,
				"element": "H" 
			},
			{
				"x": -0.9763450273,
				"y": 0.4326368946,
				"z": 0.6330346284,
				"element": "H" 
			},
			{
				"x": -0.479787236,
				"y": -0.2051430964,
				"z": 2.185169283,
				"element": "H" 
			},
			{
				"x": 1.5036924579,
				"y": 1.0872255418,
				"z": 2.2763684187,
				"element": "H" 
			},
			{
				"x": 0.4062640994,
				"y": 2.1867349242,
				"z": 1.4654466317,
				"element": "H" 
			},
			{
				"x": 2.558880578,
				"y": 2.1454716552,
				"z": 0.2400237714,
				"element": "H" 
			},
			{
				"x": 1.3136854211,
				"y": 1.4186938602,
				"z": -0.7551720087,
				"element": "H" 
			},
			{
				"x": 3.6790227061,
				"y": 0.1041010872,
				"z": 0.6098843449,
				"element": "H" 
			},
			{
				"x": 3.0082626857,
				"y": -0.2172388147,
				"z": -0.9688564178,
				"element": "H" 
			},
			{
				"x": 2.1804406256,
				"y": -1.2973385344,
				"z": 1.7494318307,
				"element": "H" 
			},
			{
				"x": 2.3800687716,
				"y": -2.1779117187,
				"z": 0.2423976595,
				"element": "H" 
			},
			{
				"x": -0.6135621518,
				"y": -1.0814643823,
				"z": -3.50508751,
				"element": "H" 
			},
			{
				"x": -2.8626083917,
				"y": -1.7217933815,
				"z": -4.3290468185,
				"element": "H" 
			}
		],
		 "valence_orbital": [ 
			{
				"type": "occ",
				"energy": -0.29738,
				"method": "rhf"
			},
			{
				"type": "occ",
				"energy": -0.27754,
				"method": "rhf"
			},
			{
				"type": "occ",
				"energy": -0.26711,
				"method": "rhf"
			},
			{
				"type": "occ",
				"energy": -0.24119,
				"method": "rhf"
			},
			{
				"type": "occ",
				"energy": -0.1901,
				"method": "rhf"
			},
			{
				"type": "unocc",
				"energy": -0.00559,
				"method": "rhf"
			},
			{
				"type": "unocc",
				"energy": 0.02207,
				"method": "rhf"
			},
			{
				"type": "unocc",
				"energy": 0.06891,
				"method": "rhf"
			},
			{
				"type": "unocc",
				"energy": 0.08966,
				"method": "rhf"
			},
			{
				"type": "unocc",
				"energy": 0.11113,
				"method": "rhf"
			}
		],
		"cosmo_sigma_profile": { 
			"-0.025": 0.0,
			"-0.024": 0.0,
			"-0.023": 0.0,
			"-0.022": 0.0,
			"-0.021": 0.0,
			"-0.02": 0.0,
			"-0.019": 0.0,
			"-0.018": 0.0,
			"-0.017": 0.0,
			"-0.016": 0.0,
			"-0.015": 0.0,
			"-0.014": 0.0,
			"-0.013": 0.0,
			"-0.012": 0.192441633607,
			"-0.011": 1.29662992668,
			"-0.01": 0.779438186582,
			"-0.009": 1.94689897606,
			"-0.008": 1.80049273004,
			"-0.007": 1.6161677172,
			"-0.006": 4.32880083679,
			"-0.005": 6.2669251256,
			"-0.004": 12.2150991482,
			"-0.003": 18.6713858537,
			"-0.002": 36.3220047882,
			"-0.001": 37.8316613496,
			"0.0": 35.6552322768,
			"0.001": 31.0542871583,
			"0.002": 13.6064014932,
			"0.003": 7.29292717214,
			"0.004": 12.2975288848,
			"0.005": 11.5403295155,
			"0.006": 4.50899124053,
			"0.007": 2.64227247969,
			"0.008": 2.2296584402,
			"0.009": 2.076342847,
			"0.01": 1.67258518746,
			"0.011": 1.29370331931,
			"0.012": 0.854632609128,
			"0.013": 0.842698601065,
			"0.014": 1.0102167084,
			"0.015": 0.290888455233,
			"0.016": 0.00224497988631,
			"0.017": 0.0,
			"0.018": 0.0,
			"0.019": 0.0,
			"0.02": 0.0,
			"0.021": 0.0,
			"0.022": 0.0,
			"0.023": 0.0,
			"0.024": 0.0,
			"0.025": 0.0
		}
	}
}
