{
	 "smiles": "CC1=CC(F)=CC=C1C(O)=O", 
	 "Tm": 443.15, 
	 "num_atms": 18, 
	 "gaussian": { 
		 "optdone": 1, 
		 "sigma_profile": "yes", 
		 "theory": "DFT", 
		 "functional": "B3LYP", 
		 "basiset": "6-31G**", 
		 "properties": { 
			 "R2extent": 2969.4648, 
			 "electric_dipole_moment_norm": 3.83585414087, 
			 "electric_quadrupole_moment_norm": 24.6132706088, 
			 "total_energy": -559.363205312, 
			 "HOMO_LUMO_gap": 0.21071, 
			 "cosmo_polarized_energy": -12.85, 
			 "cosmo_cavitation_energy": 22.56, 
			 "cosmo_dispersion_energy": -16.58, 
			 "cosmo_repulsion_energy": 1.29, 
			 "cosmo_total_nonelectrostatic_energy": 7.27, 
			 "SMD_solvation_energy": 5.49 
		},
		"coords": [
			{
				"x": 1.2016396556,
				"y": 2.447027875,
				"z": -0.077605755,
				"element": "C" 
			},
			{
				"x": 1.3232102462,
				"y": 0.9627158984,
				"z": -0.3648797541,
				"element": "C" 
			},
			{
				"x": 0.4964254543,
				"y": 0.0898543585,
				"z": 0.3530748015,
				"element": "C" 
			},
			{
				"x": 0.5780485523,
				"y": -1.2819149216,
				"z": 0.1532929362,
				"element": "C" 
			},
			{
				"x": -0.2402685953,
				"y": -2.0867170526,
				"z": 0.8557311787,
				"element": "F" 
			},
			{
				"x": 1.4859474274,
				"y": -1.8458433884,
				"z": -0.7353723086,
				"element": "C" 
			},
			{
				"x": 2.3201330137,
				"y": -0.9870940942,
				"z": -1.4388743643,
				"element": "C" 
			},
			{
				"x": 2.2412183636,
				"y": 0.4076359649,
				"z": -1.2878626293,
				"element": "C" 
			},
			{
				"x": 3.2178761617,
				"y": 1.1870432409,
				"z": -2.1234057602,
				"element": "C" 
			},
			{
				"x": 2.8609367399,
				"y": 2.4415424075,
				"z": -2.5130972547,
				"element": "O" 
			},
			{
				"x": 4.2835071423,
				"y": 0.7390122687,
				"z": -2.4763960896,
				"element": "O" 
			},
			{
				"x": 0.7517942242,
				"y": 2.6048569345,
				"z": 0.9054517707,
				"element": "H" 
			},
			{
				"x": 0.5425494231,
				"y": 2.9549285394,
				"z": -0.7970975441,
				"element": "H" 
			},
			{
				"x": 2.1677201985,
				"y": 2.9568110765,
				"z": -0.0907876294,
				"element": "H" 
			},
			{
				"x": -0.2104581497,
				"y": 0.4704501051,
				"z": 1.0831755111,
				"element": "H" 
			},
			{
				"x": 1.5338375679,
				"y": -2.9221841219,
				"z": -0.8558966271,
				"element": "H" 
			},
			{
				"x": 3.0612738538,
				"y": -1.3808113914,
				"z": -2.12551961,
				"element": "H" 
			},
			{
				"x": 1.9373087204,
				"y": 2.6149863008,
				"z": -2.2892308719,
				"element": "H" 
			}
		],
		 "valence_orbital": [ 
			{
				"type": "occ",
				"energy": -0.35894,
				"method": "rhf"
			},
			{
				"type": "occ",
				"energy": -0.31643,
				"method": "rhf"
			},
			{
				"type": "occ",
				"energy": -0.27954,
				"method": "rhf"
			},
			{
				"type": "occ",
				"energy": -0.27072,
				"method": "rhf"
			},
			{
				"type": "occ",
				"energy": -0.25764,
				"method": "rhf"
			},
			{
				"type": "unocc",
				"energy": -0.04693,
				"method": "rhf"
			},
			{
				"type": "unocc",
				"energy": -0.02667,
				"method": "rhf"
			},
			{
				"type": "unocc",
				"energy": 0.03986,
				"method": "rhf"
			},
			{
				"type": "unocc",
				"energy": 0.06198,
				"method": "rhf"
			},
			{
				"type": "unocc",
				"energy": 0.08365,
				"method": "rhf"
			}
		],
		"cosmo_sigma_profile": { 
			"-0.025": 0.0,
			"-0.024": 0.0,
			"-0.023": 0.0,
			"-0.022": 0.0,
			"-0.021": 0.0,
			"-0.02": 0.0,
			"-0.019": 0.0,
			"-0.018": 0.112879331254,
			"-0.017": 0.770179062162,
			"-0.016": 0.691822349463,
			"-0.015": 1.0871274222,
			"-0.014": 0.93386690856,
			"-0.013": 0.96191535516,
			"-0.012": 0.933161079714,
			"-0.011": 1.13903482717,
			"-0.01": 0.872224427871,
			"-0.009": 0.663156140985,
			"-0.008": 2.4992020716,
			"-0.007": 7.06836362876,
			"-0.006": 9.57460223955,
			"-0.005": 11.9887546677,
			"-0.004": 10.1156133587,
			"-0.003": 11.6215886316,
			"-0.002": 12.878205112,
			"-0.001": 12.2516296343,
			"0.0": 13.5762230134,
			"0.001": 12.8650769852,
			"0.002": 15.2157838491,
			"0.003": 12.0216163938,
			"0.004": 11.1271447057,
			"0.005": 2.29408320257,
			"0.006": 2.24809554647,
			"0.007": 2.49266183432,
			"0.008": 2.74578382109,
			"0.009": 2.6953292244,
			"0.01": 4.94914115903,
			"0.011": 4.93942762243,
			"0.012": 5.41182625393,
			"0.013": 1.59813647212,
			"0.014": 0.0609282867222,
			"0.015": 0.0,
			"0.016": 0.0,
			"0.017": 0.0,
			"0.018": 0.0,
			"0.019": 0.0,
			"0.02": 0.0,
			"0.021": 0.0,
			"0.022": 0.0,
			"0.023": 0.0,
			"0.024": 0.0,
			"0.025": 0.0
		}
	}
}
