{
	 "smiles": "CC(C)C1=NOC(=N1)C1=CC=C(Br)C=C1", 
	 "Tm": 303.15, 
	 "num_atms": 26, 
	 "gaussian": { 
		 "optdone": 1, 
		 "sigma_profile": "yes", 
		 "theory": "DFT", 
		 "functional": "B3LYP", 
		 "basiset": "6-31G**", 
		 "properties": { 
			 "R2extent": 9092.5171, 
			 "electric_dipole_moment_norm": 1.1961748409, 
			 "electric_quadrupole_moment_norm": 6.58320637911, 
			 "total_energy": -3181.91341996, 
			 "HOMO_LUMO_gap": 0.18032, 
			 "cosmo_polarized_energy": -7.27, 
			 "cosmo_cavitation_energy": 32.91, 
			 "cosmo_dispersion_energy": -24.14, 
			 "cosmo_repulsion_energy": 1.9, 
			 "cosmo_total_nonelectrostatic_energy": 10.67, 
			 "SMD_solvation_energy": 2.95 
		},
		"coords": [
			{
				"x": -0.5825358962,
				"y": -1.0106384409,
				"z": 3.5157282934,
				"element": "C" 
			},
			{
				"x": -1.685671016,
				"y": -0.9727123902,
				"z": 2.442341191,
				"element": "C" 
			},
			{
				"x": -1.8249675328,
				"y": -2.3290217399,
				"z": 1.7271847125,
				"element": "C" 
			},
			{
				"x": -1.4124730695,
				"y": 0.1196421735,
				"z": 1.4474390695,
				"element": "C" 
			},
			{
				"x": -2.2318992505,
				"y": 1.1292094957,
				"z": 1.2744334157,
				"element": "N" 
			},
			{
				"x": -1.5991771814,
				"y": 1.8922146766,
				"z": 0.2712690118,
				"element": "O" 
			},
			{
				"x": -0.4618094504,
				"y": 1.2446998416,
				"z": -0.0424629788,
				"element": "C" 
			},
			{
				"x": -0.2910651742,
				"y": 0.1481085664,
				"z": 0.6467722479,
				"element": "N" 
			},
			{
				"x": 0.4134076032,
				"y": 1.8085224144,
				"z": -1.0666483219,
				"element": "C" 
			},
			{
				"x": 1.6001657053,
				"y": 1.1364560113,
				"z": -1.3980927371,
				"element": "C" 
			},
			{
				"x": 2.451495038,
				"y": 1.6518099843,
				"z": -2.3698579466,
				"element": "C" 
			},
			{
				"x": 2.1110869999,
				"y": 2.8445645999,
				"z": -3.0105666645,
				"element": "C" 
			},
			{
				"x": 3.2756248172,
				"y": 3.5550982869,
				"z": -4.343549866,
				"element": "Br" 
			},
			{
				"x": 0.9357404521,
				"y": 3.5269224642,
				"z": -2.6946890331,
				"element": "C" 
			},
			{
				"x": 0.0876734506,
				"y": 3.0061447766,
				"z": -1.7212670497,
				"element": "C" 
			},
			{
				"x": -0.7920495624,
				"y": -1.7995729718,
				"z": 4.245008184,
				"element": "H" 
			},
			{
				"x": 0.3916670176,
				"y": -1.2133925837,
				"z": 3.0604826419,
				"element": "H" 
			},
			{
				"x": -0.5166406292,
				"y": -0.059297605,
				"z": 4.0524377966,
				"element": "H" 
			},
			{
				"x": -2.6393964326,
				"y": -0.723215515,
				"z": 2.9210093263,
				"element": "H" 
			},
			{
				"x": -2.0363899989,
				"y": -3.11952462,
				"z": 2.4542199071,
				"element": "H" 
			},
			{
				"x": -0.9000271766,
				"y": -2.5843521574,
				"z": 1.2011511917,
				"element": "H" 
			},
			{
				"x": -2.6391724948,
				"y": -2.3117519269,
				"z": 0.9962772397,
				"element": "H" 
			},
			{
				"x": 1.8430918849,
				"y": 0.211452577,
				"z": -0.8864848882,
				"element": "H" 
			},
			{
				"x": 3.3689962485,
				"y": 1.1365763129,
				"z": -2.6292978087,
				"element": "H" 
			},
			{
				"x": 0.68872024,
				"y": 4.451562599,
				"z": -3.2031234977,
				"element": "H" 
			},
			{
				"x": -0.8287945916,
				"y": 3.5276951705,
				"z": -1.4672134367,
				"element": "H" 
			}
		],
		 "valence_orbital": [ 
			{
				"type": "occ",
				"energy": -0.29836,
				"method": "rhf"
			},
			{
				"type": "occ",
				"energy": -0.29553,
				"method": "rhf"
			},
			{
				"type": "occ",
				"energy": -0.29125,
				"method": "rhf"
			},
			{
				"type": "occ",
				"energy": -0.27847,
				"method": "rhf"
			},
			{
				"type": "occ",
				"energy": -0.24606,
				"method": "rhf"
			},
			{
				"type": "unocc",
				"energy": -0.06574,
				"method": "rhf"
			},
			{
				"type": "unocc",
				"energy": -0.02743,
				"method": "rhf"
			},
			{
				"type": "unocc",
				"energy": -0.00244,
				"method": "rhf"
			},
			{
				"type": "unocc",
				"energy": 0.01213,
				"method": "rhf"
			},
			{
				"type": "unocc",
				"energy": 0.05378,
				"method": "rhf"
			}
		],
		"cosmo_sigma_profile": { 
			"-0.025": 0.0,
			"-0.024": 0.0,
			"-0.023": 0.0,
			"-0.022": 0.0,
			"-0.021": 0.0,
			"-0.02": 0.0,
			"-0.019": 0.0,
			"-0.018": 0.0,
			"-0.017": 0.0,
			"-0.016": 0.0,
			"-0.015": 0.0,
			"-0.014": 0.0,
			"-0.013": 0.0,
			"-0.012": 0.0,
			"-0.011": 0.0,
			"-0.01": 0.0,
			"-0.009": 0.0,
			"-0.008": 2.80555535647,
			"-0.007": 6.29729297446,
			"-0.006": 7.7450042053,
			"-0.005": 7.14514720047,
			"-0.004": 16.1294005741,
			"-0.003": 27.6536982779,
			"-0.002": 29.5735370572,
			"-0.001": 27.4919151007,
			"0.0": 30.9297000368,
			"0.001": 33.2764939864,
			"0.002": 22.9217780531,
			"0.003": 12.7265966383,
			"0.004": 15.1314803778,
			"0.005": 4.6952273407,
			"0.006": 5.31345100882,
			"0.007": 3.80421671198,
			"0.008": 3.13630841943,
			"0.009": 1.94047596018,
			"0.01": 2.39832990439,
			"0.011": 2.04131931332,
			"0.012": 1.17831616752,
			"0.013": 1.29983497534,
			"0.014": 0.141140179232,
			"0.015": 0.0,
			"0.016": 0.0,
			"0.017": 0.0,
			"0.018": 0.0,
			"0.019": 0.0,
			"0.02": 0.0,
			"0.021": 0.0,
			"0.022": 0.0,
			"0.023": 0.0,
			"0.024": 0.0,
			"0.025": 0.0
		}
	}
}
