{
	 "smiles": "O=C(N1CCNCC1)C1=CC=CO1", 
	 "Tm": 341.15, 
	 "num_atms": 25, 
	 "gaussian": { 
		 "optdone": 1, 
		 "sigma_profile": "yes", 
		 "theory": "DFT", 
		 "functional": "B3LYP", 
		 "basiset": "6-31G**", 
		 "properties": { 
			 "R2extent": 3079.0157, 
			 "electric_dipole_moment_norm": 3.71246248331, 
			 "electric_quadrupole_moment_norm": 9.9854238568, 
			 "total_energy": -610.105400677, 
			 "HOMO_LUMO_gap": 0.19275, 
			 "cosmo_polarized_energy": -12.82, 
			 "cosmo_cavitation_energy": 27.42, 
			 "cosmo_dispersion_energy": -20.49, 
			 "cosmo_repulsion_energy": 1.61, 
			 "cosmo_total_nonelectrostatic_energy": 8.54, 
			 "SMD_solvation_energy": 2.68 
		},
		"coords": [
			{
				"x": 0.0193208442,
				"y": 1.0849370679,
				"z": 2.7587460266,
				"element": "O" 
			},
			{
				"x": -0.2759869566,
				"y": 0.4946564366,
				"z": 1.7157143389,
				"element": "C" 
			},
			{
				"x": 0.3860288837,
				"y": -0.6372188895,
				"z": 1.3127812715,
				"element": "N" 
			},
			{
				"x": 1.3980414166,
				"y": -1.1765574968,
				"z": 2.2328004162,
				"element": "C" 
			},
			{
				"x": 1.4513637617,
				"y": -2.698092991,
				"z": 2.1292167747,
				"element": "C" 
			},
			{
				"x": 1.8317317206,
				"y": -3.1223158811,
				"z": 0.7690780846,
				"element": "N" 
			},
			{
				"x": 1.5126577992,
				"y": -2.1332668988,
				"z": -0.264692455,
				"element": "C" 
			},
			{
				"x": 0.2452005186,
				"y": -1.3142796984,
				"z": 0.0131785025,
				"element": "C" 
			},
			{
				"x": -1.3936469257,
				"y": 1.0462503301,
				"z": 0.9135879979,
				"element": "C" 
			},
			{
				"x": -2.0442744841,
				"y": 2.2344186544,
				"z": 1.1122222228,
				"element": "C" 
			},
			{
				"x": -3.0770400279,
				"y": 2.3071164667,
				"z": 0.131093997,
				"element": "C" 
			},
			{
				"x": -2.9898547684,
				"y": 1.1556619298,
				"z": -0.5947846463,
				"element": "C" 
			},
			{
				"x": -1.9744105976,
				"y": 0.3758738596,
				"z": -0.1370529706,
				"element": "O" 
			},
			{
				"x": 2.3860152706,
				"y": -0.7461157667,
				"z": 2.0185946149,
				"element": "H" 
			},
			{
				"x": 1.1274703451,
				"y": -0.8631981513,
				"z": 3.2414160522,
				"element": "H" 
			},
			{
				"x": 0.4688200333,
				"y": -3.0942025123,
				"z": 2.43216911,
				"element": "H" 
			},
			{
				"x": 2.1852486542,
				"y": -3.0751542659,
				"z": 2.8532421415,
				"element": "H" 
			},
			{
				"x": 1.3840471075,
				"y": -4.0056485571,
				"z": 0.5506956887,
				"element": "H" 
			},
			{
				"x": 1.4034208299,
				"y": -2.6482788558,
				"z": -1.2241545628,
				"element": "H" 
			},
			{
				"x": 2.3564250849,
				"y": -1.4400231281,
				"z": -0.3797938883,
				"element": "H" 
			},
			{
				"x": 0.1028870249,
				"y": -0.5754112937,
				"z": -0.7786732483,
				"element": "H" 
			},
			{
				"x": -0.6361533551,
				"y": -1.9702382334,
				"z": 0.0071076703,
				"element": "H" 
			},
			{
				"x": -1.797719834,
				"y": 2.9505746795,
				"z": 1.8808033223,
				"element": "H" 
			},
			{
				"x": -3.790934475,
				"y": 3.1048685403,
				"z": -0.0146097865,
				"element": "H" 
			},
			{
				"x": -3.5483578706,
				"y": 0.7575446547,
				"z": -1.4281866748,
				"element": "H" 
			}
		],
		 "valence_orbital": [ 
			{
				"type": "occ",
				"energy": -0.2845,
				"method": "rhf"
			},
			{
				"type": "occ",
				"energy": -0.24903,
				"method": "rhf"
			},
			{
				"type": "occ",
				"energy": -0.23217,
				"method": "rhf"
			},
			{
				"type": "occ",
				"energy": -0.23128,
				"method": "rhf"
			},
			{
				"type": "occ",
				"energy": -0.21965,
				"method": "rhf"
			},
			{
				"type": "unocc",
				"energy": -0.0269,
				"method": "rhf"
			},
			{
				"type": "unocc",
				"energy": 0.04658,
				"method": "rhf"
			},
			{
				"type": "unocc",
				"energy": 0.07169,
				"method": "rhf"
			},
			{
				"type": "unocc",
				"energy": 0.10093,
				"method": "rhf"
			},
			{
				"type": "unocc",
				"energy": 0.11364,
				"method": "rhf"
			}
		],
		"cosmo_sigma_profile": { 
			"-0.025": 0.0,
			"-0.024": 0.0,
			"-0.023": 0.0,
			"-0.022": 0.0,
			"-0.021": 0.0,
			"-0.02": 0.0,
			"-0.019": 0.0,
			"-0.018": 0.0,
			"-0.017": 0.0,
			"-0.016": 0.0,
			"-0.015": 0.0,
			"-0.014": 0.0,
			"-0.013": 0.0,
			"-0.012": 0.0,
			"-0.011": 0.146072620045,
			"-0.01": 1.56561241721,
			"-0.009": 3.53341178044,
			"-0.008": 3.8450359023,
			"-0.007": 6.14205157204,
			"-0.006": 6.82685263409,
			"-0.005": 10.9790670203,
			"-0.004": 22.2724959143,
			"-0.003": 28.4006795139,
			"-0.002": 20.5240059497,
			"-0.001": 16.5834511876,
			"0.0": 13.9065702682,
			"0.001": 13.8820843591,
			"0.002": 12.8443093787,
			"0.003": 10.6875102883,
			"0.004": 11.3396694735,
			"0.005": 4.43800109866,
			"0.006": 2.69537619174,
			"0.007": 3.00228414614,
			"0.008": 2.10624687051,
			"0.009": 2.10593651248,
			"0.01": 2.31920857689,
			"0.011": 2.15706911514,
			"0.012": 1.67124318623,
			"0.013": 3.65893065051,
			"0.014": 5.64634738895,
			"0.015": 1.37146904248,
			"0.016": 0.387841315677,
			"0.017": 0.659327118363,
			"0.018": 0.478001652485,
			"0.019": 0.0,
			"0.02": 0.0,
			"0.021": 0.0,
			"0.022": 0.0,
			"0.023": 0.0,
			"0.024": 0.0,
			"0.025": 0.0
		}
	}
}
