{
	 "smiles": "NN1C(S)=NN=C1C1=C(Cl)C=C(Cl)C=C1", 
	 "Tm": 364.15, 
	 "num_atms": 21, 
	 "gaussian": { 
		 "optdone": 1, 
		 "sigma_profile": "yes", 
		 "theory": "DFT", 
		 "functional": "B3LYP", 
		 "basiset": "6-31G**", 
		 "properties": { 
			 "R2extent": 5494.5453, 
			 "electric_dipole_moment_norm": 3.85893296262, 
			 "electric_quadrupole_moment_norm": 10.1074721088, 
			 "total_energy": -1845.9815581, 
			 "HOMO_LUMO_gap": 0.17608, 
			 "cosmo_polarized_energy": -17.77, 
			 "cosmo_cavitation_energy": 31.32, 
			 "cosmo_dispersion_energy": -23.36, 
			 "cosmo_repulsion_energy": 1.8, 
			 "cosmo_total_nonelectrostatic_energy": 9.75, 
			 "SMD_solvation_energy": 2.68 
		},
		"coords": [
			{
				"x": 1.3068001402,
				"y": 0.884395129,
				"z": -2.3669521135,
				"element": "N" 
			},
			{
				"x": 1.1069541889,
				"y": -0.4788505668,
				"z": -2.1328963428,
				"element": "N" 
			},
			{
				"x": 1.3948394941,
				"y": -1.4509571936,
				"z": -3.0529934792,
				"element": "C" 
			},
			{
				"x": 1.935077929,
				"y": -1.0459171263,
				"z": -4.6786769562,
				"element": "S" 
			},
			{
				"x": 1.2170042093,
				"y": -2.6458318921,
				"z": -2.5387711737,
				"element": "N" 
			},
			{
				"x": 0.8060791398,
				"y": -2.4658717467,
				"z": -1.2298190271,
				"element": "N" 
			},
			{
				"x": 0.7329060085,
				"y": -1.1757027008,
				"z": -0.9929428465,
				"element": "C" 
			},
			{
				"x": 0.4095023819,
				"y": -0.5906210219,
				"z": 0.3179339922,
				"element": "C" 
			},
			{
				"x": -0.5768562272,
				"y": 0.3840078953,
				"z": 0.5468604144,
				"element": "C" 
			},
			{
				"x": -1.590281015,
				"y": 0.9766881405,
				"z": -0.766350202,
				"element": "Cl" 
			},
			{
				"x": -0.840005135,
				"y": 0.8818321059,
				"z": 1.8220587779,
				"element": "C" 
			},
			{
				"x": -0.1169106143,
				"y": 0.3795020493,
				"z": 2.9020481925,
				"element": "C" 
			},
			{
				"x": -0.4397464834,
				"y": 1.0029641189,
				"z": 4.5060448783,
				"element": "Cl" 
			},
			{
				"x": 0.8464610629,
				"y": -0.6134944259,
				"z": 2.7247030743,
				"element": "C" 
			},
			{
				"x": 1.0983879634,
				"y": -1.0835650541,
				"z": 1.4407760021,
				"element": "C" 
			},
			{
				"x": 0.421610029,
				"y": 1.3724762633,
				"z": -2.2560816269,
				"element": "H" 
			},
			{
				"x": 1.9782234566,
				"y": 1.2460705029,
				"z": -1.6941270456,
				"element": "H" 
			},
			{
				"x": 2.0196651607,
				"y": -2.3434900652,
				"z": -5.032250664,
				"element": "H" 
			},
			{
				"x": -1.6074740134,
				"y": 1.6313299077,
				"z": 1.9697033542,
				"element": "H" 
			},
			{
				"x": 1.3912908037,
				"y": -1.0055510627,
				"z": 3.5755959751,
				"element": "H" 
			},
			{
				"x": 1.8413715202,
				"y": -1.8570132567,
				"z": 1.2806368164,
				"element": "H" 
			}
		],
		 "valence_orbital": [ 
			{
				"type": "occ",
				"energy": -0.302,
				"method": "rhf"
			},
			{
				"type": "occ",
				"energy": -0.28108,
				"method": "rhf"
			},
			{
				"type": "occ",
				"energy": -0.27353,
				"method": "rhf"
			},
			{
				"type": "occ",
				"energy": -0.25558,
				"method": "rhf"
			},
			{
				"type": "occ",
				"energy": -0.23083,
				"method": "rhf"
			},
			{
				"type": "unocc",
				"energy": -0.05475,
				"method": "rhf"
			},
			{
				"type": "unocc",
				"energy": -0.04171,
				"method": "rhf"
			},
			{
				"type": "unocc",
				"energy": -0.01157,
				"method": "rhf"
			},
			{
				"type": "unocc",
				"energy": 0.01305,
				"method": "rhf"
			},
			{
				"type": "unocc",
				"energy": 0.01606,
				"method": "rhf"
			}
		],
		"cosmo_sigma_profile": { 
			"-0.025": 0.0,
			"-0.024": 0.0,
			"-0.023": 0.0,
			"-0.022": 0.0,
			"-0.021": 0.0,
			"-0.02": 0.0,
			"-0.019": 0.0,
			"-0.018": 0.0,
			"-0.017": 0.0,
			"-0.016": 0.0,
			"-0.015": 0.141701729739,
			"-0.014": 1.45186999719,
			"-0.013": 1.78480324116,
			"-0.012": 3.01890531686,
			"-0.011": 4.08960610383,
			"-0.01": 4.02810512091,
			"-0.009": 5.26551597002,
			"-0.008": 8.20738726779,
			"-0.007": 8.83528402983,
			"-0.006": 8.66583391488,
			"-0.005": 8.77482618717,
			"-0.004": 8.85037928972,
			"-0.003": 14.7888327238,
			"-0.002": 13.9700798706,
			"-0.001": 19.0004873767,
			"0.0": 28.744732535,
			"0.001": 24.0369124192,
			"0.002": 19.0752651022,
			"0.003": 20.1488195088,
			"0.004": 15.1825221743,
			"0.005": 7.3022785171,
			"0.006": 5.62852179455,
			"0.007": 4.11555964608,
			"0.008": 3.56995871213,
			"0.009": 1.97956226458,
			"0.01": 3.15992219955,
			"0.011": 2.21903400509,
			"0.012": 2.47984539936,
			"0.013": 3.8317422922,
			"0.014": 2.76906378373,
			"0.015": 2.16033489668,
			"0.016": 1.49739565514,
			"0.017": 0.073303725024,
			"0.018": 0.0,
			"0.019": 0.0,
			"0.02": 0.0,
			"0.021": 0.0,
			"0.022": 0.0,
			"0.023": 0.0,
			"0.024": 0.0,
			"0.025": 0.0
		}
	}
}
