{
	 "smiles": "NNC(=O)CN1C2=CC=CC=C2SC2=C1C=CC=C2", 
	 "Tm": 490.15, 
	 "num_atms": 32, 
	 "gaussian": { 
		 "optdone": 1, 
		 "sigma_profile": "yes", 
		 "theory": "DFT", 
		 "functional": "B3LYP", 
		 "basiset": "6-31G**", 
		 "properties": { 
			 "R2extent": 5216.0638, 
			 "electric_dipole_moment_norm": 2.71605242402, 
			 "electric_quadrupole_moment_norm": 17.0227878901, 
			 "total_energy": -1178.96002039, 
			 "HOMO_LUMO_gap": 0.1752, 
			 "cosmo_polarized_energy": -16.43, 
			 "cosmo_cavitation_energy": 36.39, 
			 "cosmo_dispersion_energy": -25.97, 
			 "cosmo_repulsion_energy": 1.95, 
			 "cosmo_total_nonelectrostatic_energy": 12.37, 
			 "SMD_solvation_energy": 6.89 
		},
		"coords": [
			{
				"x": -2.2374108359,
				"y": 0.2624331063,
				"z": 2.6342671107,
				"element": "N" 
			},
			{
				"x": -2.6072388581,
				"y": 1.5512819822,
				"z": 2.2333472229,
				"element": "N" 
			},
			{
				"x": -1.7671173112,
				"y": 2.3828145462,
				"z": 1.5448623887,
				"element": "C" 
			},
			{
				"x": -2.0876547679,
				"y": 3.5330829809,
				"z": 1.2781128111,
				"element": "O" 
			},
			{
				"x": -0.414857075,
				"y": 1.7847187102,
				"z": 1.1347729247,
				"element": "C" 
			},
			{
				"x": -0.552016124,
				"y": 0.6587885349,
				"z": 0.2160199838,
				"element": "N" 
			},
			{
				"x": -1.2813860102,
				"y": 0.8280774817,
				"z": -0.988192227,
				"element": "C" 
			},
			{
				"x": -1.521305877,
				"y": 2.090971485,
				"z": -1.5504647513,
				"element": "C" 
			},
			{
				"x": -2.2538314343,
				"y": 2.208643094,
				"z": -2.7330735101,
				"element": "C" 
			},
			{
				"x": -2.7310537855,
				"y": 1.0771025,
				"z": -3.3922323247,
				"element": "C" 
			},
			{
				"x": -2.4857745507,
				"y": -0.1855857168,
				"z": -2.8497410303,
				"element": "C" 
			},
			{
				"x": -1.7902126258,
				"y": -0.308541465,
				"z": -1.6472609205,
				"element": "C" 
			},
			{
				"x": -1.6063359691,
				"y": -1.9039838898,
				"z": -0.8688577564,
				"element": "S" 
			},
			{
				"x": 0.0314350577,
				"y": -1.6712761927,
				"z": -0.2038616497,
				"element": "C" 
			},
			{
				"x": 0.3788995724,
				"y": -0.4038897101,
				"z": 0.3033115806,
				"element": "C" 
			},
			{
				"x": 1.6511928711,
				"y": -0.2434164487,
				"z": 0.8733296905,
				"element": "C" 
			},
			{
				"x": 2.5287425592,
				"y": -1.3241981906,
				"z": 0.9737646491,
				"element": "C" 
			},
			{
				"x": 2.1731930121,
				"y": -2.5747768234,
				"z": 0.4713657501,
				"element": "C" 
			},
			{
				"x": 0.9272165324,
				"y": -2.7383801569,
				"z": -0.1362705593,
				"element": "C" 
			},
			{
				"x": -2.6925403036,
				"y": -0.4425209609,
				"z": 2.0582967296,
				"element": "H" 
			},
			{
				"x": -2.4819259286,
				"y": 0.1231765028,
				"z": 3.6099041669,
				"element": "H" 
			},
			{
				"x": -3.5409118736,
				"y": 1.914435089,
				"z": 2.3995674251,
				"element": "H" 
			},
			{
				"x": 0.069765882,
				"y": 1.4069365623,
				"z": 2.0361736131,
				"element": "H" 
			},
			{
				"x": 0.182677358,
				"y": 2.6112796976,
				"z": 0.7302099655,
				"element": "H" 
			},
			{
				"x": -1.1717877834,
				"y": 2.9861219087,
				"z": -1.051241561,
				"element": "H" 
			},
			{
				"x": -2.4406370645,
				"y": 3.1977175276,
				"z": -3.1405200943,
				"element": "H" 
			},
			{
				"x": -3.2907140857,
				"y": 1.1711099319,
				"z": -4.3176406897,
				"element": "H" 
			},
			{
				"x": -2.8472961798,
				"y": -1.0808736935,
				"z": -3.3467251436,
				"element": "H" 
			},
			{
				"x": 1.9652612954,
				"y": 0.729579339,
				"z": 1.2344158588,
				"element": "H" 
			},
			{
				"x": 3.502196909,
				"y": -1.1757010607,
				"z": 1.4318257013,
				"element": "H" 
			},
			{
				"x": 2.8588479711,
				"y": -3.413474841,
				"z": 0.5399718474,
				"element": "H" 
			},
			{
				"x": 0.6366794235,
				"y": -3.6997518304,
				"z": -0.5493372021,
				"element": "H" 
			}
		],
		 "valence_orbital": [ 
			{
				"type": "occ",
				"energy": -0.25256,
				"method": "rhf"
			},
			{
				"type": "occ",
				"energy": -0.25224,
				"method": "rhf"
			},
			{
				"type": "occ",
				"energy": -0.2487,
				"method": "rhf"
			},
			{
				"type": "occ",
				"energy": -0.22226,
				"method": "rhf"
			},
			{
				"type": "occ",
				"energy": -0.18754,
				"method": "rhf"
			},
			{
				"type": "unocc",
				"energy": -0.01234,
				"method": "rhf"
			},
			{
				"type": "unocc",
				"energy": -0.00892,
				"method": "rhf"
			},
			{
				"type": "unocc",
				"energy": 0.00136,
				"method": "rhf"
			},
			{
				"type": "unocc",
				"energy": 0.01209,
				"method": "rhf"
			},
			{
				"type": "unocc",
				"energy": 0.02036,
				"method": "rhf"
			}
		],
		"cosmo_sigma_profile": { 
			"-0.025": 0.0,
			"-0.024": 0.0,
			"-0.023": 0.0,
			"-0.022": 0.0,
			"-0.021": 0.0,
			"-0.02": 0.0,
			"-0.019": 0.0,
			"-0.018": 0.0,
			"-0.017": 0.0,
			"-0.016": 0.0,
			"-0.015": 0.0,
			"-0.014": 0.589553520869,
			"-0.013": 1.70959342322,
			"-0.012": 3.17408255102,
			"-0.011": 2.68175339912,
			"-0.01": 4.21313579474,
			"-0.009": 4.09306133365,
			"-0.008": 3.28837842433,
			"-0.007": 6.83396595117,
			"-0.006": 15.8884208658,
			"-0.005": 22.2644229195,
			"-0.004": 21.6804566703,
			"-0.003": 18.667028548,
			"-0.002": 14.6148227536,
			"-0.001": 15.1637829,
			"0.0": 14.2792158112,
			"0.001": 19.5616762531,
			"0.002": 20.2419695473,
			"0.003": 23.2877712777,
			"0.004": 23.1564271057,
			"0.005": 24.6886628789,
			"0.006": 9.45966707869,
			"0.007": 3.37341659092,
			"0.008": 2.71064620093,
			"0.009": 2.20843051261,
			"0.01": 1.95500449507,
			"0.011": 1.79811975965,
			"0.012": 2.17660383021,
			"0.013": 4.42098100701,
			"0.014": 3.42148423478,
			"0.015": 0.203125455111,
			"0.016": 0.0,
			"0.017": 0.0,
			"0.018": 0.0,
			"0.019": 0.0,
			"0.02": 0.0,
			"0.021": 0.0,
			"0.022": 0.0,
			"0.023": 0.0,
			"0.024": 0.0,
			"0.025": 0.0
		}
	}
}
