{
	 "smiles": "CCNC1=NC(C)=C(S1)C(=O)OCC", 
	 "Tm": 376.15, 
	 "num_atms": 28, 
	 "gaussian": { 
		 "optdone": 1, 
		 "sigma_profile": "yes", 
		 "theory": "DFT", 
		 "functional": "B3LYP", 
		 "basiset": "6-31G**", 
		 "properties": { 
			 "R2extent": 4529.1132, 
			 "electric_dipole_moment_norm": 4.24218009283, 
			 "electric_quadrupole_moment_norm": 14.3622185501, 
			 "total_energy": -1009.56274037, 
			 "HOMO_LUMO_gap": 0.17463, 
			 "cosmo_polarized_energy": -11.6, 
			 "cosmo_cavitation_energy": 32.99, 
			 "cosmo_dispersion_energy": -24.51, 
			 "cosmo_repulsion_energy": 1.95, 
			 "cosmo_total_nonelectrostatic_energy": 10.43, 
			 "SMD_solvation_energy": 4.34 
		},
		"coords": [
			{
				"x": -4.9228853855,
				"y": 2.6143603659,
				"z": -0.4120837978,
				"element": "C" 
			},
			{
				"x": -3.529706161,
				"y": 2.1115390206,
				"z": -0.7788959738,
				"element": "C" 
			},
			{
				"x": -3.2570660169,
				"y": 0.8372544466,
				"z": -0.1302092452,
				"element": "N" 
			},
			{
				"x": -2.0580653935,
				"y": 0.2034360645,
				"z": -0.1648559,
				"element": "C" 
			},
			{
				"x": -1.8973833999,
				"y": -1.0336170968,
				"z": 0.2547382088,
				"element": "N" 
			},
			{
				"x": -0.5892877424,
				"y": -1.4246404578,
				"z": 0.147664978,
				"element": "C" 
			},
			{
				"x": -0.2317486802,
				"y": -2.8113548803,
				"z": 0.5914780449,
				"element": "C" 
			},
			{
				"x": 0.2821947303,
				"y": -0.4832185888,
				"z": -0.3693355904,
				"element": "C" 
			},
			{
				"x": -0.6022766191,
				"y": 0.9996080547,
				"z": -0.7512698308,
				"element": "S" 
			},
			{
				"x": 1.7160132048,
				"y": -0.5905239766,
				"z": -0.6115887222,
				"element": "C" 
			},
			{
				"x": 2.4130055903,
				"y": -1.566471984,
				"z": -0.3829551291,
				"element": "O" 
			},
			{
				"x": 2.2073859387,
				"y": 0.5664290012,
				"z": -1.1384159668,
				"element": "O" 
			},
			{
				"x": 3.6209815684,
				"y": 0.5905306387,
				"z": -1.4342865516,
				"element": "C" 
			},
			{
				"x": 3.9109361267,
				"y": 0.0104510325,
				"z": -2.8109975728,
				"element": "C" 
			},
			{
				"x": -5.6960218421,
				"y": 1.9117424055,
				"z": -0.7427691455,
				"element": "H" 
			},
			{
				"x": -5.1178499436,
				"y": 3.5741891723,
				"z": -0.897552753,
				"element": "H" 
			},
			{
				"x": -5.018729819,
				"y": 2.7487606977,
				"z": 0.6693686387,
				"element": "H" 
			},
			{
				"x": -2.7750072473,
				"y": 2.8361090253,
				"z": -0.4478935863,
				"element": "H" 
			},
			{
				"x": -3.4320233282,
				"y": 2.0246840324,
				"z": -1.8721438784,
				"element": "H" 
			},
			{
				"x": -4.0358057398,
				"y": 0.2285668377,
				"z": 0.085405328,
				"element": "H" 
			},
			{
				"x": -0.4858529641,
				"y": -2.9354767459,
				"z": 1.6500229566,
				"element": "H" 
			},
			{
				"x": 0.8276836863,
				"y": -3.011900921,
				"z": 0.444009236,
				"element": "H" 
			},
			{
				"x": -0.8287674385,
				"y": -3.5409380265,
				"z": 0.0334125984,
				"element": "H" 
			},
			{
				"x": 3.8924018049,
				"y": 1.6478178569,
				"z": -1.3801593056,
				"element": "H" 
			},
			{
				"x": 4.1536576149,
				"y": 0.0387842708,
				"z": -0.6560462653,
				"element": "H" 
			},
			{
				"x": 3.3418342126,
				"y": 0.5365137021,
				"z": -3.5832726939,
				"element": "H" 
			},
			{
				"x": 4.9772438386,
				"y": 0.1104766178,
				"z": -3.0407145309,
				"element": "H" 
			},
			{
				"x": 3.6514394046,
				"y": -1.0505105653,
				"z": -2.8403535501,
				"element": "H" 
			}
		],
		 "valence_orbital": [ 
			{
				"type": "occ",
				"energy": -0.28836,
				"method": "rhf"
			},
			{
				"type": "occ",
				"energy": -0.27107,
				"method": "rhf"
			},
			{
				"type": "occ",
				"energy": -0.26715,
				"method": "rhf"
			},
			{
				"type": "occ",
				"energy": -0.26203,
				"method": "rhf"
			},
			{
				"type": "occ",
				"energy": -0.20613,
				"method": "rhf"
			},
			{
				"type": "unocc",
				"energy": -0.0315,
				"method": "rhf"
			},
			{
				"type": "unocc",
				"energy": 0.02133,
				"method": "rhf"
			},
			{
				"type": "unocc",
				"energy": 0.03761,
				"method": "rhf"
			},
			{
				"type": "unocc",
				"energy": 0.06935,
				"method": "rhf"
			},
			{
				"type": "unocc",
				"energy": 0.09658,
				"method": "rhf"
			}
		],
		"cosmo_sigma_profile": { 
			"-0.025": 0.0,
			"-0.024": 0.0,
			"-0.023": 0.0,
			"-0.022": 0.0,
			"-0.021": 0.0,
			"-0.02": 0.0,
			"-0.019": 0.0,
			"-0.018": 0.0,
			"-0.017": 0.0,
			"-0.016": 0.0,
			"-0.015": 0.00987974299016,
			"-0.014": 0.745319775465,
			"-0.013": 0.980921829462,
			"-0.012": 0.884622536265,
			"-0.011": 0.895245191864,
			"-0.01": 0.841970765075,
			"-0.009": 1.14382325009,
			"-0.008": 0.953428028158,
			"-0.007": 2.05253589412,
			"-0.006": 2.53688604616,
			"-0.005": 12.8502288225,
			"-0.004": 26.5708295889,
			"-0.003": 30.0802021471,
			"-0.002": 26.7485428721,
			"-0.001": 27.076891888,
			"0.0": 29.8364327153,
			"0.001": 19.9229163747,
			"0.002": 16.3368186907,
			"0.003": 12.7208038937,
			"0.004": 12.0958156165,
			"0.005": 8.89259432374,
			"0.006": 5.80903622975,
			"0.007": 4.7840557438,
			"0.008": 1.87014423319,
			"0.009": 2.13937657086,
			"0.01": 2.95073310484,
			"0.011": 3.55501181821,
			"0.012": 3.69864625724,
			"0.013": 1.24878919403,
			"0.014": 0.962177511695,
			"0.015": 0.720402073568,
			"0.016": 0.0,
			"0.017": 0.0,
			"0.018": 0.0,
			"0.019": 0.0,
			"0.02": 0.0,
			"0.021": 0.0,
			"0.022": 0.0,
			"0.023": 0.0,
			"0.024": 0.0,
			"0.025": 0.0
		}
	}
}
