{
	 "smiles": "BrC1=CC2=C(OCCC2=O)C=C1", 
	 "Tm": 347.15, 
	 "num_atms": 19, 
	 "gaussian": { 
		 "optdone": 1, 
		 "sigma_profile": "yes", 
		 "theory": "DFT", 
		 "functional": "B3LYP", 
		 "basiset": "6-31G**", 
		 "properties": { 
			 "R2extent": 5348.4346, 
			 "electric_dipole_moment_norm": 3.53594739073, 
			 "electric_quadrupole_moment_norm": 6.89620558786, 
			 "total_energy": -3069.02465881, 
			 "HOMO_LUMO_gap": 0.16532, 
			 "cosmo_polarized_energy": -9.16, 
			 "cosmo_cavitation_energy": 25.15, 
			 "cosmo_dispersion_energy": -19.37, 
			 "cosmo_repulsion_energy": 1.54, 
			 "cosmo_total_nonelectrostatic_energy": 7.32, 
			 "SMD_solvation_energy": 3.71 
		},
		"coords": [
			{
				"x": -3.9467839114,
				"y": -3.3093459179,
				"z": -1.4331656437,
				"element": "Br" 
			},
			{
				"x": -2.7850178983,
				"y": -2.0755961086,
				"z": -0.5494848689,
				"element": "C" 
			},
			{
				"x": -1.8631486092,
				"y": -1.3458463162,
				"z": -1.2791833625,
				"element": "C" 
			},
			{
				"x": -1.0125550831,
				"y": -0.4393427145,
				"z": -0.6244247706,
				"element": "C" 
			},
			{
				"x": -1.0958771116,
				"y": -0.2936816461,
				"z": 0.7750322994,
				"element": "C" 
			},
			{
				"x": -0.295130116,
				"y": 0.5523143226,
				"z": 1.4763570887,
				"element": "O" 
			},
			{
				"x": 0.9196324036,
				"y": 0.9452386758,
				"z": 0.8164429413,
				"element": "C" 
			},
			{
				"x": 0.6564463036,
				"y": 1.4572066696,
				"z": -0.5945784649,
				"element": "C" 
			},
			{
				"x": -0.0878571398,
				"y": 0.4108781486,
				"z": -1.4148286116,
				"element": "C" 
			},
			{
				"x": 0.0365956002,
				"y": 0.3137142439,
				"z": -2.6246249868,
				"element": "O" 
			},
			{
				"x": -2.0425907617,
				"y": -1.0303148902,
				"z": 1.4998331813,
				"element": "C" 
			},
			{
				"x": -2.8846729872,
				"y": -1.9158530777,
				"z": 0.8400348347,
				"element": "C" 
			},
			{
				"x": -1.7806532681,
				"y": -1.43835019,
				"z": -2.3560931535,
				"element": "H" 
			},
			{
				"x": 1.5963063449,
				"y": 0.0792219395,
				"z": 0.789997944,
				"element": "H" 
			},
			{
				"x": 1.3627077447,
				"y": 1.7117286953,
				"z": 1.4549331562,
				"element": "H" 
			},
			{
				"x": 0.0316184949,
				"y": 2.3598561456,
				"z": -0.5527382707,
				"element": "H" 
			},
			{
				"x": 1.5872123698,
				"y": 1.72118491,
				"z": -1.1039581839,
				"element": "H" 
			},
			{
				"x": -2.0943419672,
				"y": -0.9031761966,
				"z": 2.5757852454,
				"element": "H" 
			},
			{
				"x": -3.6141904082,
				"y": -2.4913366932,
				"z": 1.3988636262,
				"element": "H" 
			}
		],
		 "valence_orbital": [ 
			{
				"type": "occ",
				"energy": -0.29642,
				"method": "rhf"
			},
			{
				"type": "occ",
				"energy": -0.28959,
				"method": "rhf"
			},
			{
				"type": "occ",
				"energy": -0.27389,
				"method": "rhf"
			},
			{
				"type": "occ",
				"energy": -0.25619,
				"method": "rhf"
			},
			{
				"type": "occ",
				"energy": -0.23275,
				"method": "rhf"
			},
			{
				"type": "unocc",
				"energy": -0.06743,
				"method": "rhf"
			},
			{
				"type": "unocc",
				"energy": -0.01489,
				"method": "rhf"
			},
			{
				"type": "unocc",
				"energy": 0.00472,
				"method": "rhf"
			},
			{
				"type": "unocc",
				"energy": 0.02748,
				"method": "rhf"
			},
			{
				"type": "unocc",
				"energy": 0.0915,
				"method": "rhf"
			}
		],
		"cosmo_sigma_profile": { 
			"-0.025": 0.0,
			"-0.024": 0.0,
			"-0.023": 0.0,
			"-0.022": 0.0,
			"-0.021": 0.0,
			"-0.02": 0.0,
			"-0.019": 0.0,
			"-0.018": 0.0,
			"-0.017": 0.0,
			"-0.016": 0.0,
			"-0.015": 0.0,
			"-0.014": 0.0,
			"-0.013": 0.0,
			"-0.012": 0.0,
			"-0.011": 0.0,
			"-0.01": 0.0,
			"-0.009": 0.0,
			"-0.008": 1.83540460934,
			"-0.007": 10.6142655666,
			"-0.006": 18.1175815338,
			"-0.005": 15.812956265,
			"-0.004": 13.7967894107,
			"-0.003": 12.0085637006,
			"-0.002": 10.6065102836,
			"-0.001": 11.1025903095,
			"0.0": 13.3778368634,
			"0.001": 20.7724332011,
			"0.002": 22.3008962579,
			"0.003": 10.7411390957,
			"0.004": 13.4393579235,
			"0.005": 8.07542805595,
			"0.006": 2.57098955228,
			"0.007": 2.98595663649,
			"0.008": 2.65690272183,
			"0.009": 2.60990435855,
			"0.01": 2.93613676962,
			"0.011": 3.59769578567,
			"0.012": 3.54358880535,
			"0.013": 1.03739807776,
			"0.014": 0.0341510079128,
			"0.015": 0.0,
			"0.016": 0.0,
			"0.017": 0.0,
			"0.018": 0.0,
			"0.019": 0.0,
			"0.02": 0.0,
			"0.021": 0.0,
			"0.022": 0.0,
			"0.023": 0.0,
			"0.024": 0.0,
			"0.025": 0.0
		}
	}
}
