{
	 "smiles": "OC(=O)COC(=O)CC1=CC=CC=C1NC1=C(Cl)C=CC=C1Cl", 
	 "Tm": 422.15, 
	 "num_atms": 36, 
	 "gaussian": { 
		 "optdone": 1, 
		 "sigma_profile": "yes", 
		 "theory": "DFT", 
		 "functional": "B3LYP", 
		 "basiset": "6-31G**", 
		 "properties": { 
			 "R2extent": 9653.9895, 
			 "electric_dipole_moment_norm": 1.37211924773, 
			 "electric_quadrupole_moment_norm": 20.0553974426, 
			 "total_energy": -1893.59239912, 
			 "HOMO_LUMO_gap": 0.18172, 
			 "cosmo_polarized_energy": -16.56, 
			 "cosmo_cavitation_energy": 44.57, 
			 "cosmo_dispersion_energy": -30.31, 
			 "cosmo_repulsion_energy": 2.35, 
			 "cosmo_total_nonelectrostatic_energy": 16.62, 
			 "SMD_solvation_energy": 8.76 
		},
		"coords": [
			{
				"x": -1.520837861,
				"y": -0.7422333846,
				"z": 4.0327793462,
				"element": "O" 
			},
			{
				"x": -2.772337219,
				"y": -0.6218766083,
				"z": 3.55226024,
				"element": "C" 
			},
			{
				"x": -3.6649853187,
				"y": -1.4055143585,
				"z": 3.7759639113,
				"element": "O" 
			},
			{
				"x": -2.9831528564,
				"y": 0.6339179725,
				"z": 2.7193323729,
				"element": "C" 
			},
			{
				"x": -1.7914134082,
				"y": 1.3721042479,
				"z": 2.4381947948,
				"element": "O" 
			},
			{
				"x": -0.9933445073,
				"y": 0.8480173924,
				"z": 1.480158549,
				"element": "C" 
			},
			{
				"x": -1.2707026879,
				"y": -0.1725177799,
				"z": 0.8792302252,
				"element": "O" 
			},
			{
				"x": 0.2530835196,
				"y": 1.6803433935,
				"z": 1.2551168549,
				"element": "C" 
			},
			{
				"x": 0.3659020187,
				"y": 2.2002637815,
				"z": -0.1667307627,
				"element": "C" 
			},
			{
				"x": 0.0843673531,
				"y": 3.5413029458,
				"z": -0.4438595796,
				"element": "C" 
			},
			{
				"x": 0.2408647439,
				"y": 4.0683936724,
				"z": -1.725303177,
				"element": "C" 
			},
			{
				"x": 0.6840804243,
				"y": 3.2357619583,
				"z": -2.7531032548,
				"element": "C" 
			},
			{
				"x": 0.951177305,
				"y": 1.8920146026,
				"z": -2.5034858876,
				"element": "C" 
			},
			{
				"x": 0.7942565358,
				"y": 1.3586040908,
				"z": -1.2165790423,
				"element": "C" 
			},
			{
				"x": 1.0386188727,
				"y": -0.0074028389,
				"z": -0.9346390637,
				"element": "N" 
			},
			{
				"x": 1.7739716781,
				"y": -0.8542148648,
				"z": -1.7664936252,
				"element": "C" 
			},
			{
				"x": 1.2180223351,
				"y": -2.0434842591,
				"z": -2.2903471976,
				"element": "C" 
			},
			{
				"x": -0.4629899307,
				"y": -2.4241069834,
				"z": -1.9463409798,
				"element": "Cl" 
			},
			{
				"x": 1.9494946669,
				"y": -2.933891166,
				"z": -3.0714765772,
				"element": "C" 
			},
			{
				"x": 3.2785141786,
				"y": -2.6500214523,
				"z": -3.3762308035,
				"element": "C" 
			},
			{
				"x": 3.8722722823,
				"y": -1.4938824053,
				"z": -2.8740868018,
				"element": "C" 
			},
			{
				"x": 3.1367903222,
				"y": -0.6276787806,
				"z": -2.068782936,
				"element": "C" 
			},
			{
				"x": 3.9687894983,
				"y": 0.7524247275,
				"z": -1.3763808596,
				"element": "Cl" 
			},
			{
				"x": -1.5018862472,
				"y": -1.5750131589,
				"z": 4.5343883404,
				"element": "H" 
			},
			{
				"x": -3.4870954224,
				"y": 0.3350531817,
				"z": 1.7978381244,
				"element": "H" 
			},
			{
				"x": -3.6280775833,
				"y": 1.3131578023,
				"z": 3.2813380292,
				"element": "H" 
			},
			{
				"x": 1.1055594349,
				"y": 1.0229080384,
				"z": 1.4680008391,
				"element": "H" 
			},
			{
				"x": 0.2657782808,
				"y": 2.5067504521,
				"z": 1.9674159433,
				"element": "H" 
			},
			{
				"x": -0.2453425832,
				"y": 4.1849912476,
				"z": 0.3679641702,
				"element": "H" 
			},
			{
				"x": 0.02642512,
				"y": 5.1154340205,
				"z": -1.9152504517,
				"element": "H" 
			},
			{
				"x": 0.811650288,
				"y": 3.627167693,
				"z": -3.7583181011,
				"element": "H" 
			},
			{
				"x": 1.2742705055,
				"y": 1.2425736778,
				"z": -3.3103997534,
				"element": "H" 
			},
			{
				"x": 0.2637982135,
				"y": -0.4513831959,
				"z": -0.4451828918,
				"element": "H" 
			},
			{
				"x": 1.4685148509,
				"y": -3.8308354226,
				"z": -3.4446323599,
				"element": "H" 
			},
			{
				"x": 3.8529031487,
				"y": -3.3320072871,
				"z": -3.9944981524,
				"element": "H" 
			},
			{
				"x": 4.9123600489,
				"y": -1.2670209525,
				"z": -3.0789594821,
				"element": "H" 
			}
		],
		 "valence_orbital": [ 
			{
				"type": "occ",
				"energy": -0.28511,
				"method": "rhf"
			},
			{
				"type": "occ",
				"energy": -0.25422,
				"method": "rhf"
			},
			{
				"type": "occ",
				"energy": -0.24722,
				"method": "rhf"
			},
			{
				"type": "occ",
				"energy": -0.24554,
				"method": "rhf"
			},
			{
				"type": "occ",
				"energy": -0.20492,
				"method": "rhf"
			},
			{
				"type": "unocc",
				"energy": -0.0232,
				"method": "rhf"
			},
			{
				"type": "unocc",
				"energy": -0.01995,
				"method": "rhf"
			},
			{
				"type": "unocc",
				"energy": -0.00858,
				"method": "rhf"
			},
			{
				"type": "unocc",
				"energy": -0.00236,
				"method": "rhf"
			},
			{
				"type": "unocc",
				"energy": 0.00225,
				"method": "rhf"
			}
		],
		"cosmo_sigma_profile": { 
			"-0.025": 0.0,
			"-0.024": 0.0,
			"-0.023": 0.0,
			"-0.022": 0.0,
			"-0.021": 0.0,
			"-0.02": 0.0,
			"-0.019": 0.409553430011,
			"-0.018": 1.21880455641,
			"-0.017": 1.14129040877,
			"-0.016": 0.510601074813,
			"-0.015": 0.430486516822,
			"-0.014": 0.634788092367,
			"-0.013": 0.974792024906,
			"-0.012": 0.930231325032,
			"-0.011": 1.14420812267,
			"-0.01": 1.17783956132,
			"-0.009": 3.55349550337,
			"-0.008": 5.59357711586,
			"-0.007": 12.2199308727,
			"-0.006": 19.729884844,
			"-0.005": 21.0514923649,
			"-0.004": 20.322431685,
			"-0.003": 23.5158606559,
			"-0.002": 21.7617239222,
			"-0.001": 19.9347593753,
			"0.0": 22.6069382471,
			"0.001": 28.517544235,
			"0.002": 31.2825357651,
			"0.003": 30.9804847143,
			"0.004": 30.4499308385,
			"0.005": 21.3658653453,
			"0.006": 15.4516250941,
			"0.007": 5.54151217403,
			"0.008": 5.09424103575,
			"0.009": 3.35963150675,
			"0.01": 2.51379964679,
			"0.011": 5.36640608078,
			"0.012": 1.98096031621,
			"0.013": 0.0,
			"0.014": 0.0,
			"0.015": 0.0,
			"0.016": 0.0,
			"0.017": 0.0,
			"0.018": 0.0,
			"0.019": 0.0,
			"0.02": 0.0,
			"0.021": 0.0,
			"0.022": 0.0,
			"0.023": 0.0,
			"0.024": 0.0,
			"0.025": 0.0
		}
	}
}
