{
	 "smiles": "NC1=C(NS(=O)(=O)C2=CC=C(F)C=C2)C=CC=C1", 
	 "Tm": 396.15, 
	 "num_atms": 29, 
	 "gaussian": { 
		 "optdone": 1, 
		 "sigma_profile": "yes", 
		 "theory": "DFT", 
		 "functional": "B3LYP", 
		 "basiset": "6-31G**", 
		 "properties": { 
			 "R2extent": 5311.9557, 
			 "electric_dipole_moment_norm": 2.94585044766, 
			 "electric_quadrupole_moment_norm": 14.9391685666, 
			 "total_energy": -1221.81379553, 
			 "HOMO_LUMO_gap": 0.1713, 
			 "cosmo_polarized_energy": -14.67, 
			 "cosmo_cavitation_energy": 34.97, 
			 "cosmo_dispersion_energy": -24.73, 
			 "cosmo_repulsion_energy": 1.84, 
			 "cosmo_total_nonelectrostatic_energy": 12.09, 
			 "SMD_solvation_energy": 5.47 
		},
		"coords": [
			{
				"x": -1.9524896753,
				"y": 0.7019080699,
				"z": 2.1987337792,
				"element": "N" 
			},
			{
				"x": -1.5558533493,
				"y": -0.5141030497,
				"z": 1.6399386413,
				"element": "C" 
			},
			{
				"x": -1.0032246491,
				"y": -0.5500846648,
				"z": 0.3374814724,
				"element": "C" 
			},
			{
				"x": -0.8897807541,
				"y": 0.6451468692,
				"z": -0.4565640653,
				"element": "N" 
			},
			{
				"x": 0.3981458208,
				"y": 1.7253209097,
				"z": -0.1926935156,
				"element": "S" 
			},
			{
				"x": 0.7053933191,
				"y": 1.8369489567,
				"z": 1.2457261374,
				"element": "O" 
			},
			{
				"x": 0.0438746273,
				"y": 2.9185556587,
				"z": -0.9664800412,
				"element": "O" 
			},
			{
				"x": 1.7785895568,
				"y": 0.8940987327,
				"z": -0.9648800971,
				"element": "C" 
			},
			{
				"x": 2.7315843953,
				"y": 0.2573983609,
				"z": -0.1679081728,
				"element": "C" 
			},
			{
				"x": 3.8143570135,
				"y": -0.376979954,
				"z": -0.7748985445,
				"element": "C" 
			},
			{
				"x": 3.9106717846,
				"y": -0.351563542,
				"z": -2.1624914672,
				"element": "C" 
			},
			{
				"x": 4.9537380781,
				"y": -0.9624344665,
				"z": -2.7508763871,
				"element": "F" 
			},
			{
				"x": 2.9694550593,
				"y": 0.2874765819,
				"z": -2.9675080722,
				"element": "C" 
			},
			{
				"x": 1.8898716541,
				"y": 0.9200594368,
				"z": -2.358638772,
				"element": "C" 
			},
			{
				"x": -0.6272784921,
				"y": -1.7651991599,
				"z": -0.2387829775,
				"element": "C" 
			},
			{
				"x": -0.801076087,
				"y": -2.9663380298,
				"z": 0.446312725,
				"element": "C" 
			},
			{
				"x": -1.3790790763,
				"y": -2.9421175701,
				"z": 1.7177686194,
				"element": "C" 
			},
			{
				"x": -1.7502358753,
				"y": -1.7360653838,
				"z": 2.3062173587,
				"element": "C" 
			},
			{
				"x": -2.2460744091,
				"y": 0.6217323015,
				"z": 3.1639060486,
				"element": "H" 
			},
			{
				"x": -1.2560243615,
				"y": 1.4345761663,
				"z": 2.0944834076,
				"element": "H" 
			},
			{
				"x": -1.7381128897,
				"y": 1.2127400536,
				"z": -0.4717441092,
				"element": "H" 
			},
			{
				"x": 2.6250385797,
				"y": 0.2714235443,
				"z": 0.9105754954,
				"element": "H" 
			},
			{
				"x": 4.5772698198,
				"y": -0.8818320225,
				"z": -0.1930274225,
				"element": "H" 
			},
			{
				"x": 3.0964307888,
				"y": 0.2867204993,
				"z": -4.044290608,
				"element": "H" 
			},
			{
				"x": 1.1456323868,
				"y": 1.4389910651,
				"z": -2.9525899784,
				"element": "H" 
			},
			{
				"x": -0.2179832677,
				"y": -1.7476866575,
				"z": -1.243837437,
				"element": "H" 
			},
			{
				"x": -0.5081054417,
				"y": -3.9056616352,
				"z": -0.0111318545,
				"element": "H" 
			},
			{
				"x": -1.5350388247,
				"y": -3.868992734,
				"z": 2.2626864575,
				"element": "H" 
			},
			{
				"x": -2.1841957313,
				"y": -1.7281383369,
				"z": 3.3032133794,
				"element": "H" 
			}
		],
		 "valence_orbital": [ 
			{
				"type": "occ",
				"energy": -0.28698,
				"method": "rhf"
			},
			{
				"type": "occ",
				"energy": -0.28294,
				"method": "rhf"
			},
			{
				"type": "occ",
				"energy": -0.26674,
				"method": "rhf"
			},
			{
				"type": "occ",
				"energy": -0.24964,
				"method": "rhf"
			},
			{
				"type": "occ",
				"energy": -0.21261,
				"method": "rhf"
			},
			{
				"type": "unocc",
				"energy": -0.04131,
				"method": "rhf"
			},
			{
				"type": "unocc",
				"energy": -0.03205,
				"method": "rhf"
			},
			{
				"type": "unocc",
				"energy": -0.01266,
				"method": "rhf"
			},
			{
				"type": "unocc",
				"energy": 0.00634,
				"method": "rhf"
			},
			{
				"type": "unocc",
				"energy": 0.05454,
				"method": "rhf"
			}
		],
		"cosmo_sigma_profile": { 
			"-0.025": 0.0,
			"-0.024": 0.0,
			"-0.023": 0.0,
			"-0.022": 0.0,
			"-0.021": 0.0,
			"-0.02": 0.0,
			"-0.019": 0.0,
			"-0.018": 0.0,
			"-0.017": 0.0,
			"-0.016": 0.0,
			"-0.015": 0.0214248944262,
			"-0.014": 0.583761826121,
			"-0.013": 0.693559189015,
			"-0.012": 2.47658727906,
			"-0.011": 2.33694832062,
			"-0.01": 2.23289455264,
			"-0.009": 3.83342635992,
			"-0.008": 9.00143070592,
			"-0.007": 11.859204491,
			"-0.006": 12.7885089735,
			"-0.005": 14.7291636658,
			"-0.004": 14.3873702983,
			"-0.003": 15.5903620524,
			"-0.002": 14.8254836694,
			"-0.001": 22.0116565814,
			"0.0": 22.1558054919,
			"0.001": 23.880349465,
			"0.002": 18.7823223279,
			"0.003": 18.5390728379,
			"0.004": 17.9259281869,
			"0.005": 12.3279608843,
			"0.006": 9.15880301079,
			"0.007": 4.6941437645,
			"0.008": 4.24741549819,
			"0.009": 5.47139086043,
			"0.01": 6.45107662684,
			"0.011": 7.03138440157,
			"0.012": 1.2290048136,
			"0.013": 0.857671371383,
			"0.014": 0.0516292191523,
			"0.015": 0.0,
			"0.016": 0.0,
			"0.017": 0.0,
			"0.018": 0.0,
			"0.019": 0.0,
			"0.02": 0.0,
			"0.021": 0.0,
			"0.022": 0.0,
			"0.023": 0.0,
			"0.024": 0.0,
			"0.025": 0.0
		}
	}
}
