{
	 "smiles": "OC(=O)CCCCC1=CC(O)=CC=C1", 
	 "Tm": 389.15, 
	 "num_atms": 28, 
	 "gaussian": { 
		 "optdone": 1, 
		 "sigma_profile": "yes", 
		 "theory": "DFT", 
		 "functional": "B3LYP", 
		 "basiset": "6-31G**", 
		 "properties": { 
			 "R2extent": 2983.0615, 
			 "electric_dipole_moment_norm": 4.06513611211, 
			 "electric_quadrupole_moment_norm": 6.36221018279, 
			 "total_energy": -653.295596423, 
			 "HOMO_LUMO_gap": 0.21144, 
			 "cosmo_polarized_energy": -17.11, 
			 "cosmo_cavitation_energy": 30.44, 
			 "cosmo_dispersion_energy": -21.19, 
			 "cosmo_repulsion_energy": 1.67, 
			 "cosmo_total_nonelectrostatic_energy": 10.91, 
			 "SMD_solvation_energy": 5.85 
		},
		"coords": [
			{
				"x": -0.9496915984,
				"y": 0.0949942605,
				"z": 2.2432326056,
				"element": "O" 
			},
			{
				"x": -1.7798194457,
				"y": 0.7424079484,
				"z": 1.3781993909,
				"element": "C" 
			},
			{
				"x": -1.7434088985,
				"y": 1.9481523303,
				"z": 1.3164762583,
				"element": "O" 
			},
			{
				"x": -2.6928564244,
				"y": -0.1491172566,
				"z": 0.5501408525,
				"element": "C" 
			},
			{
				"x": -1.9727022777,
				"y": -1.015918064,
				"z": -0.515351489,
				"element": "C" 
			},
			{
				"x": -1.6604437622,
				"y": -0.3061400412,
				"z": -1.8440602197,
				"element": "C" 
			},
			{
				"x": -0.6033897089,
				"y": 0.8202226599,
				"z": -1.797907587,
				"element": "C" 
			},
			{
				"x": 0.7700739018,
				"y": 0.3601938472,
				"z": -1.3460199895,
				"element": "C" 
			},
			{
				"x": 1.2969298598,
				"y": 0.8010782298,
				"z": -0.1267965968,
				"element": "C" 
			},
			{
				"x": 2.5493587209,
				"y": 0.3582437925,
				"z": 0.3142029475,
				"element": "C" 
			},
			{
				"x": 3.0789068694,
				"y": 0.7565020841,
				"z": 1.5089500035,
				"element": "O" 
			},
			{
				"x": 3.301916666,
				"y": -0.5197339183,
				"z": -0.4713866233,
				"element": "C" 
			},
			{
				"x": 2.7841107467,
				"y": -0.9482406161,
				"z": -1.692715481,
				"element": "C" 
			},
			{
				"x": 1.5297703064,
				"y": -0.5200823738,
				"z": -2.130772529,
				"element": "C" 
			},
			{
				"x": -1.0554671085,
				"y": -0.8635107346,
				"z": 2.1619680406,
				"element": "H" 
			},
			{
				"x": -3.2305621483,
				"y": -0.8090468304,
				"z": 1.2440583547,
				"element": "H" 
			},
			{
				"x": -3.4347387157,
				"y": 0.4987399366,
				"z": 0.0770699127,
				"element": "H" 
			},
			{
				"x": -1.0481779193,
				"y": -1.4379903202,
				"z": -0.1002841038,
				"element": "H" 
			},
			{
				"x": -2.6225374668,
				"y": -1.870193137,
				"z": -0.7362017197,
				"element": "H" 
			},
			{
				"x": -2.5933714203,
				"y": 0.1076938521,
				"z": -2.2495420811,
				"element": "H" 
			},
			{
				"x": -1.3300490439,
				"y": -1.0702345565,
				"z": -2.5584417303,
				"element": "H" 
			},
			{
				"x": -0.5287602737,
				"y": 1.2423243409,
				"z": -2.8082573312,
				"element": "H" 
			},
			{
				"x": -0.9529923738,
				"y": 1.6301415828,
				"z": -1.1507472025,
				"element": "H" 
			},
			{
				"x": 0.7281717604,
				"y": 1.4967167987,
				"z": 0.4857330068,
				"element": "H" 
			},
			{
				"x": 2.4328224003,
				"y": 1.3121244778,
				"z": 1.9654325264,
				"element": "H" 
			},
			{
				"x": 4.2729264637,
				"y": -0.8485917505,
				"z": -0.1163677847,
				"element": "H" 
			},
			{
				"x": 3.3688918315,
				"y": -1.6246747358,
				"z": -2.3102336027,
				"element": "H" 
			},
			{
				"x": 1.1452890592,
				"y": -0.8619618065,
				"z": -3.0881778283,
				"element": "H" 
			}
		],
		 "valence_orbital": [ 
			{
				"type": "occ",
				"energy": -0.31746,
				"method": "rhf"
			},
			{
				"type": "occ",
				"energy": -0.31482,
				"method": "rhf"
			},
			{
				"type": "occ",
				"energy": -0.27416,
				"method": "rhf"
			},
			{
				"type": "occ",
				"energy": -0.2403,
				"method": "rhf"
			},
			{
				"type": "occ",
				"energy": -0.21337,
				"method": "rhf"
			},
			{
				"type": "unocc",
				"energy": -0.00193,
				"method": "rhf"
			},
			{
				"type": "unocc",
				"energy": 0.00438,
				"method": "rhf"
			},
			{
				"type": "unocc",
				"energy": 0.01727,
				"method": "rhf"
			},
			{
				"type": "unocc",
				"energy": 0.04716,
				"method": "rhf"
			},
			{
				"type": "unocc",
				"energy": 0.08564,
				"method": "rhf"
			}
		],
		"cosmo_sigma_profile": { 
			"-0.025": 0.0,
			"-0.024": 0.0,
			"-0.023": 0.0,
			"-0.022": 0.0,
			"-0.021": 0.0,
			"-0.02": 0.0,
			"-0.019": 0.116319713551,
			"-0.018": 0.946564213282,
			"-0.017": 1.41562543993,
			"-0.016": 1.90113119781,
			"-0.015": 1.99476144787,
			"-0.014": 1.53709349239,
			"-0.013": 1.87973757844,
			"-0.012": 1.99684727003,
			"-0.011": 1.77518613861,
			"-0.01": 1.93754382834,
			"-0.009": 1.71851570718,
			"-0.008": 2.71755676242,
			"-0.007": 3.44341901033,
			"-0.006": 3.93078435546,
			"-0.005": 10.1942948866,
			"-0.004": 17.3443771123,
			"-0.003": 23.9021936969,
			"-0.002": 22.9571298085,
			"-0.001": 21.0150079608,
			"0.0": 16.2943186659,
			"0.001": 12.2052158551,
			"0.002": 8.85727003293,
			"0.003": 11.3547493178,
			"0.004": 11.9085828667,
			"0.005": 12.3367056053,
			"0.006": 11.8464947922,
			"0.007": 4.98047096016,
			"0.008": 2.97865163563,
			"0.009": 4.64625516783,
			"0.01": 4.87571214566,
			"0.011": 5.44104022736,
			"0.012": 5.93349828223,
			"0.013": 2.21618600481,
			"0.014": 0.0679750456478,
			"0.015": 0.0,
			"0.016": 0.0,
			"0.017": 0.0,
			"0.018": 0.0,
			"0.019": 0.0,
			"0.02": 0.0,
			"0.021": 0.0,
			"0.022": 0.0,
			"0.023": 0.0,
			"0.024": 0.0,
			"0.025": 0.0
		}
	}
}
