{
	 "smiles": "CN(C(C)=O)C1=CC=C(C=C1)S(N)(=O)=O", 
	 "Tm": 427.15, 
	 "num_atms": 27, 
	 "gaussian": { 
		 "optdone": 1, 
		 "sigma_profile": "yes", 
		 "theory": "DFT", 
		 "functional": "B3LYP", 
		 "basiset": "6-31G**", 
		 "properties": { 
			 "R2extent": 5392.114, 
			 "electric_dipole_moment_norm": 3.79082968359, 
			 "electric_quadrupole_moment_norm": 37.1088027336, 
			 "total_energy": -1083.49211617, 
			 "HOMO_LUMO_gap": 0.19084, 
			 "cosmo_polarized_energy": -24.48, 
			 "cosmo_cavitation_energy": 32.21, 
			 "cosmo_dispersion_energy": -23.46, 
			 "cosmo_repulsion_energy": 1.8, 
			 "cosmo_total_nonelectrostatic_energy": 10.54, 
			 "SMD_solvation_energy": 6.06 
		},
		"coords": [
			{
				"x": 2.5995233174,
				"y": -2.5072120065,
				"z": -0.5991751085,
				"element": "C" 
			},
			{
				"x": 1.7687939439,
				"y": -1.3415323699,
				"z": -0.9308750291,
				"element": "N" 
			},
			{
				"x": 2.2434407519,
				"y": -0.5091787981,
				"z": -1.9432277649,
				"element": "C" 
			},
			{
				"x": 1.3537171089,
				"y": 0.614824362,
				"z": -2.4502349813,
				"element": "C" 
			},
			{
				"x": 3.3479477091,
				"y": -0.700128692,
				"z": -2.4327564584,
				"element": "O" 
			},
			{
				"x": 0.5153030975,
				"y": -1.2069505525,
				"z": -0.2805845243,
				"element": "C" 
			},
			{
				"x": 0.1380519938,
				"y": 0.0032786952,
				"z": 0.324343094,
				"element": "C" 
			},
			{
				"x": -1.0850666373,
				"y": 0.1171353854,
				"z": 0.9789427805,
				"element": "C" 
			},
			{
				"x": -1.9317932168,
				"y": -0.9911402168,
				"z": 1.0544282688,
				"element": "C" 
			},
			{
				"x": -1.5558980564,
				"y": -2.2140856416,
				"z": 0.4940064707,
				"element": "C" 
			},
			{
				"x": -0.3397288539,
				"y": -2.3171662414,
				"z": -0.1749137586,
				"element": "C" 
			},
			{
				"x": -3.5144797519,
				"y": -0.8461338391,
				"z": 1.8938353811,
				"element": "S" 
			},
			{
				"x": -4.6430574669,
				"y": -0.3805129474,
				"z": 0.7384257143,
				"element": "N" 
			},
			{
				"x": -3.9105368812,
				"y": -2.1906943537,
				"z": 2.3079374668,
				"element": "O" 
			},
			{
				"x": -3.4134067262,
				"y": 0.2810766182,
				"z": 2.8186802673,
				"element": "O" 
			},
			{
				"x": 3.6441903795,
				"y": -2.2289940403,
				"z": -0.7324981923,
				"element": "H" 
			},
			{
				"x": 2.3897492154,
				"y": -3.3590761635,
				"z": -1.2568656611,
				"element": "H" 
			},
			{
				"x": 2.4160669927,
				"y": -2.7968814312,
				"z": 0.4366138194,
				"element": "H" 
			},
			{
				"x": 0.2873290649,
				"y": 0.3890408334,
				"z": -2.3975029466,
				"element": "H" 
			},
			{
				"x": 1.644574672,
				"y": 0.8021855235,
				"z": -3.4845569512,
				"element": "H" 
			},
			{
				"x": 1.5365909192,
				"y": 1.5334780204,
				"z": -1.8836496406,
				"element": "H" 
			},
			{
				"x": 0.8210363515,
				"y": 0.8449856218,
				"z": 0.3078074478,
				"element": "H" 
			},
			{
				"x": -1.3648960245,
				"y": 1.0431160933,
				"z": 1.4700714797,
				"element": "H" 
			},
			{
				"x": -2.2065773317,
				"y": -3.0762422127,
				"z": 0.5951084134,
				"element": "H" 
			},
			{
				"x": -0.0496370659,
				"y": -3.2626924549,
				"z": -0.6206532391,
				"element": "H" 
			},
			{
				"x": -4.7970829566,
				"y": -1.0849840017,
				"z": 0.0243645451,
				"element": "H" 
			},
			{
				"x": -4.4691545482,
				"y": 0.5452848102,
				"z": 0.3609291072,
				"element": "H" 
			}
		],
		 "valence_orbital": [ 
			{
				"type": "occ",
				"energy": -0.30845,
				"method": "rhf"
			},
			{
				"type": "occ",
				"energy": -0.29436,
				"method": "rhf"
			},
			{
				"type": "occ",
				"energy": -0.28512,
				"method": "rhf"
			},
			{
				"type": "occ",
				"energy": -0.26306,
				"method": "rhf"
			},
			{
				"type": "occ",
				"energy": -0.24301,
				"method": "rhf"
			},
			{
				"type": "unocc",
				"energy": -0.05217,
				"method": "rhf"
			},
			{
				"type": "unocc",
				"energy": -0.0361,
				"method": "rhf"
			},
			{
				"type": "unocc",
				"energy": 0.01432,
				"method": "rhf"
			},
			{
				"type": "unocc",
				"energy": 0.04467,
				"method": "rhf"
			},
			{
				"type": "unocc",
				"energy": 0.06638,
				"method": "rhf"
			}
		],
		"cosmo_sigma_profile": { 
			"-0.025": 0.0,
			"-0.024": 0.0,
			"-0.023": 0.0,
			"-0.022": 0.0,
			"-0.021": 0.0,
			"-0.02": 0.0,
			"-0.019": 0.0,
			"-0.018": 0.0,
			"-0.017": 0.0,
			"-0.016": 0.132887770226,
			"-0.015": 2.31190669405,
			"-0.014": 2.73769930993,
			"-0.013": 2.26955257447,
			"-0.012": 3.05891893317,
			"-0.011": 3.44334096332,
			"-0.01": 1.57804463221,
			"-0.009": 2.03275997478,
			"-0.008": 5.19408048691,
			"-0.007": 10.7788559095,
			"-0.006": 14.3760732141,
			"-0.005": 16.3322052603,
			"-0.004": 17.0820369331,
			"-0.003": 18.9749008561,
			"-0.002": 22.3418532018,
			"-0.001": 18.7304777598,
			"0.0": 12.1663668921,
			"0.001": 14.8430800581,
			"0.002": 13.9047581836,
			"0.003": 5.66505840564,
			"0.004": 4.02696656794,
			"0.005": 4.33263874628,
			"0.006": 4.82159741717,
			"0.007": 5.7857303988,
			"0.008": 6.77215032275,
			"0.009": 5.34422730743,
			"0.01": 9.25720449613,
			"0.011": 12.3227953439,
			"0.012": 7.295165653,
			"0.013": 4.8903688531,
			"0.014": 2.30105184756,
			"0.015": 0.330905627717,
			"0.016": 0.0,
			"0.017": 0.0,
			"0.018": 0.0,
			"0.019": 0.0,
			"0.02": 0.0,
			"0.021": 0.0,
			"0.022": 0.0,
			"0.023": 0.0,
			"0.024": 0.0,
			"0.025": 0.0
		}
	}
}
