{
	 "smiles": "[O-][N+](=O)C1=C(Cl)C=CC(=C1)N=C=S", 
	 "Tm": 339.15, 
	 "num_atms": 16, 
	 "gaussian": { 
		 "optdone": 1, 
		 "sigma_profile": "yes", 
		 "theory": "DFT", 
		 "functional": "B3LYP", 
		 "basiset": "6-31G**", 
		 "properties": { 
			 "R2extent": 4754.0827, 
			 "electric_dipole_moment_norm": 3.60547234908, 
			 "electric_quadrupole_moment_norm": 13.8773887944, 
			 "total_energy": -1386.7593845, 
			 "HOMO_LUMO_gap": 0.14723, 
			 "cosmo_polarized_energy": -10.32, 
			 "cosmo_cavitation_energy": 26.96, 
			 "cosmo_dispersion_energy": -20.08, 
			 "cosmo_repulsion_energy": 1.56, 
			 "cosmo_total_nonelectrostatic_energy": 8.45, 
			 "SMD_solvation_energy": 7.24 
		},
		"coords": [
			{
				"x": -2.5036603577,
				"y": -1.50946937,
				"z": 0.9811416288,
				"element": "O" 
			},
			{
				"x": -1.6114287004,
				"y": -1.9440200193,
				"z": 0.2543988379,
				"element": "N" 
			},
			{
				"x": -1.3851222547,
				"y": -3.1279202825,
				"z": 0.0357744762,
				"element": "O" 
			},
			{
				"x": -0.7747885773,
				"y": -0.9404834462,
				"z": -0.4352820407,
				"element": "C" 
			},
			{
				"x": 0.5741164782,
				"y": -1.1569828568,
				"z": -0.7580813968,
				"element": "C" 
			},
			{
				"x": 1.462918455,
				"y": -2.5816292212,
				"z": -0.3096505657,
				"element": "Cl" 
			},
			{
				"x": 1.2663522034,
				"y": -0.1430893023,
				"z": -1.4310580955,
				"element": "C" 
			},
			{
				"x": 0.6388159458,
				"y": 1.0420390894,
				"z": -1.7882571825,
				"element": "C" 
			},
			{
				"x": -0.7111838547,
				"y": 1.2503486376,
				"z": -1.4538552115,
				"element": "C" 
			},
			{
				"x": -1.4107623422,
				"y": 0.2538530382,
				"z": -0.7638878551,
				"element": "C" 
			},
			{
				"x": -1.3358575383,
				"y": 2.4166243743,
				"z": -1.7949440842,
				"element": "N" 
			},
			{
				"x": -1.8737614252,
				"y": 3.4362840862,
				"z": -2.0868094016,
				"element": "C" 
			},
			{
				"x": -2.5910346652,
				"y": 4.7976612915,
				"z": -2.4795662691,
				"element": "S" 
			},
			{
				"x": 2.3122157208,
				"y": -0.2977059891,
				"z": -1.6701558765,
				"element": "H" 
			},
			{
				"x": 1.1841509646,
				"y": 1.8150738009,
				"z": -2.3180168778,
				"element": "H" 
			},
			{
				"x": -2.4451700522,
				"y": 0.3953161692,
				"z": -0.4785500857,
				"element": "H" 
			}
		],
		 "valence_orbital": [ 
			{
				"type": "occ",
				"energy": -0.31349,
				"method": "rhf"
			},
			{
				"type": "occ",
				"energy": -0.30532,
				"method": "rhf"
			},
			{
				"type": "occ",
				"energy": -0.29669,
				"method": "rhf"
			},
			{
				"type": "occ",
				"energy": -0.27076,
				"method": "rhf"
			},
			{
				"type": "occ",
				"energy": -0.25161,
				"method": "rhf"
			},
			{
				"type": "unocc",
				"energy": -0.10438,
				"method": "rhf"
			},
			{
				"type": "unocc",
				"energy": -0.07432,
				"method": "rhf"
			},
			{
				"type": "unocc",
				"energy": -0.03759,
				"method": "rhf"
			},
			{
				"type": "unocc",
				"energy": -0.01543,
				"method": "rhf"
			},
			{
				"type": "unocc",
				"energy": -0.00215,
				"method": "rhf"
			}
		],
		"cosmo_sigma_profile": { 
			"-0.025": 0.0,
			"-0.024": 0.0,
			"-0.023": 0.0,
			"-0.022": 0.0,
			"-0.021": 0.0,
			"-0.02": 0.0,
			"-0.019": 0.0,
			"-0.018": 0.0,
			"-0.017": 0.0,
			"-0.016": 0.0,
			"-0.015": 0.0,
			"-0.014": 0.0,
			"-0.013": 0.0,
			"-0.012": 0.0,
			"-0.011": 0.0,
			"-0.01": 1.0046843836,
			"-0.009": 6.02652904619,
			"-0.008": 7.83871812602,
			"-0.007": 7.49140502969,
			"-0.006": 6.78553455921,
			"-0.005": 7.78018666739,
			"-0.004": 9.84429809516,
			"-0.003": 17.187260569,
			"-0.002": 26.4382907799,
			"-0.001": 20.8084373309,
			"0.0": 15.4262389047,
			"0.001": 11.2298511995,
			"0.002": 14.5205392268,
			"0.003": 14.2779156678,
			"0.004": 11.2208852636,
			"0.005": 17.4026846888,
			"0.006": 9.2909628262,
			"0.007": 10.9192829084,
			"0.008": 5.92085298058,
			"0.009": 2.81653369055,
			"0.01": 0.281418249931,
			"0.011": 0.0,
			"0.012": 0.0,
			"0.013": 0.0,
			"0.014": 0.0,
			"0.015": 0.0,
			"0.016": 0.0,
			"0.017": 0.0,
			"0.018": 0.0,
			"0.019": 0.0,
			"0.02": 0.0,
			"0.021": 0.0,
			"0.022": 0.0,
			"0.023": 0.0,
			"0.024": 0.0,
			"0.025": 0.0
		}
	}
}
