{
	 "smiles": "O=C(NC1=NN=CS1)C1CCNCC1", 
	 "Tm": 476.15, 
	 "num_atms": 26, 
	 "gaussian": { 
		 "optdone": 1, 
		 "sigma_profile": "yes", 
		 "theory": "DFT", 
		 "functional": "B3LYP", 
		 "basiset": "6-31G**", 
		 "properties": { 
			 "R2extent": 4796.9465, 
			 "electric_dipole_moment_norm": 5.13840497625, 
			 "electric_quadrupole_moment_norm": 22.0623503911, 
			 "total_energy": -1004.45635007, 
			 "HOMO_LUMO_gap": 0.16759, 
			 "cosmo_polarized_energy": -24.76, 
			 "cosmo_cavitation_energy": 30.64, 
			 "cosmo_dispersion_energy": -22.96, 
			 "cosmo_repulsion_energy": 1.76, 
			 "cosmo_total_nonelectrostatic_energy": 9.44, 
			 "SMD_solvation_energy": 1.22 
		},
		"coords": [
			{
				"x": -0.3443597678,
				"y": 0.0288673261,
				"z": -1.4803177731,
				"element": "O" 
			},
			{
				"x": 0.1313142441,
				"y": -0.474506548,
				"z": -0.4863105465,
				"element": "C" 
			},
			{
				"x": 1.0503872409,
				"y": -1.5377204808,
				"z": -0.5323468172,
				"element": "N" 
			},
			{
				"x": 1.58855856,
				"y": -2.1083154298,
				"z": -1.6750187591,
				"element": "C" 
			},
			{
				"x": 1.7985482455,
				"y": -1.4925834249,
				"z": -2.8020412379,
				"element": "N" 
			},
			{
				"x": 2.3336401901,
				"y": -2.3118194327,
				"z": -3.7585259824,
				"element": "N" 
			},
			{
				"x": 2.5369621288,
				"y": -3.5238854252,
				"z": -3.3446836048,
				"element": "C" 
			},
			{
				"x": 2.049468441,
				"y": -3.8183538649,
				"z": -1.6908406849,
				"element": "S" 
			},
			{
				"x": -0.1640085774,
				"y": -0.0109310676,
				"z": 0.9417835679,
				"element": "C" 
			},
			{
				"x": 1.048863626,
				"y": 0.8093885556,
				"z": 1.4794199736,
				"element": "C" 
			},
			{
				"x": 0.5759610198,
				"y": 1.7693268757,
				"z": 2.5811154703,
				"element": "C" 
			},
			{
				"x": -0.4148713656,
				"y": 2.7514432833,
				"z": 2.1151360477,
				"element": "N" 
			},
			{
				"x": -1.1904924935,
				"y": 2.3221852463,
				"z": 0.9370054946,
				"element": "C" 
			},
			{
				"x": -1.4696653167,
				"y": 0.8204338511,
				"z": 1.0060040674,
				"element": "C" 
			},
			{
				"x": 1.3040508894,
				"y": -1.9610876009,
				"z": 0.3482409248,
				"element": "H" 
			},
			{
				"x": 2.9795038185,
				"y": -4.2997831268,
				"z": -3.9563043172,
				"element": "H" 
			},
			{
				"x": -0.2819017132,
				"y": -0.9011457092,
				"z": 1.575226605,
				"element": "H" 
			},
			{
				"x": 1.8306287932,
				"y": 0.1413026058,
				"z": 1.859341683,
				"element": "H" 
			},
			{
				"x": 1.4970355507,
				"y": 1.3889630289,
				"z": 0.6633865486,
				"element": "H" 
			},
			{
				"x": 1.4295729041,
				"y": 2.3059139105,
				"z": 3.0082999624,
				"element": "H" 
			},
			{
				"x": 0.1475090674,
				"y": 1.1752922231,
				"z": 3.4025703507,
				"element": "H" 
			},
			{
				"x": 0.0487288315,
				"y": 3.629387602,
				"z": 1.9072583026,
				"element": "H" 
			},
			{
				"x": -0.6821991523,
				"y": 2.5320677623,
				"z": -0.0178869643,
				"element": "H" 
			},
			{
				"x": -2.1374897873,
				"y": 2.8749546308,
				"z": 0.9195428124,
				"element": "H" 
			},
			{
				"x": -1.9915044358,
				"y": 0.6003232732,
				"z": 1.943776428,
				"element": "H" 
			},
			{
				"x": -2.1287409414,
				"y": 0.535081936,
				"z": 0.1827684482,
				"element": "H" 
			}
		],
		 "valence_orbital": [ 
			{
				"type": "occ",
				"energy": -0.30349,
				"method": "rhf"
			},
			{
				"type": "occ",
				"energy": -0.27521,
				"method": "rhf"
			},
			{
				"type": "occ",
				"energy": -0.25869,
				"method": "rhf"
			},
			{
				"type": "occ",
				"energy": -0.25201,
				"method": "rhf"
			},
			{
				"type": "occ",
				"energy": -0.21292,
				"method": "rhf"
			},
			{
				"type": "unocc",
				"energy": -0.04533,
				"method": "rhf"
			},
			{
				"type": "unocc",
				"energy": -0.01634,
				"method": "rhf"
			},
			{
				"type": "unocc",
				"energy": 0.0042,
				"method": "rhf"
			},
			{
				"type": "unocc",
				"energy": 0.04273,
				"method": "rhf"
			},
			{
				"type": "unocc",
				"energy": 0.05502,
				"method": "rhf"
			}
		],
		"cosmo_sigma_profile": { 
			"-0.025": 0.0,
			"-0.024": 0.0,
			"-0.023": 0.0,
			"-0.022": 0.0,
			"-0.021": 0.0,
			"-0.02": 0.0,
			"-0.019": 0.0,
			"-0.018": 0.0,
			"-0.017": 0.597514496287,
			"-0.016": 1.45753673938,
			"-0.015": 1.09719835263,
			"-0.014": 1.63333634611,
			"-0.013": 1.57482161194,
			"-0.012": 1.68775882308,
			"-0.011": 3.2397667663,
			"-0.01": 4.13673152987,
			"-0.009": 5.12802654407,
			"-0.008": 4.48643859043,
			"-0.007": 4.96015667332,
			"-0.006": 6.51873878473,
			"-0.005": 8.94565628731,
			"-0.004": 13.8536467679,
			"-0.003": 24.370189653,
			"-0.002": 30.3797896979,
			"-0.001": 26.7140805479,
			"0.0": 22.3881871589,
			"0.001": 11.4593112617,
			"0.002": 7.92333435196,
			"0.003": 4.1962473174,
			"0.004": 3.68851118777,
			"0.005": 4.16328582292,
			"0.006": 5.41695959712,
			"0.007": 3.84269376111,
			"0.008": 3.11451604722,
			"0.009": 4.47320083159,
			"0.01": 4.72078187368,
			"0.011": 5.56930906158,
			"0.012": 7.00204758567,
			"0.013": 4.85986934668,
			"0.014": 3.78678509387,
			"0.015": 2.71097623206,
			"0.016": 1.79747196715,
			"0.017": 0.791728788663,
			"0.018": 0.412629318848,
			"0.019": 0.356419161954,
			"0.02": 0.0,
			"0.021": 0.0,
			"0.022": 0.0,
			"0.023": 0.0,
			"0.024": 0.0,
			"0.025": 0.0
		}
	}
}
