{
	 "smiles": "ClCC1=NOC(=C1)C1=CC=CC=C1", 
	 "Tm": 321.65, 
	 "num_atms": 21, 
	 "gaussian": { 
		 "optdone": 1, 
		 "sigma_profile": "yes", 
		 "theory": "DFT", 
		 "functional": "B3LYP", 
		 "basiset": "6-31G**", 
		 "properties": { 
			 "R2extent": 3981.5198, 
			 "electric_dipole_moment_norm": 3.38385543574, 
			 "electric_quadrupole_moment_norm": 12.5892173184, 
			 "total_energy": -976.009881166, 
			 "HOMO_LUMO_gap": 0.18333, 
			 "cosmo_polarized_energy": -9.43, 
			 "cosmo_cavitation_energy": 27.68, 
			 "cosmo_dispersion_energy": -20.5, 
			 "cosmo_repulsion_energy": 1.62, 
			 "cosmo_total_nonelectrostatic_energy": 8.8, 
			 "SMD_solvation_energy": 4.03 
		},
		"coords": [
			{
				"x": -0.0522093819,
				"y": -1.3679518243,
				"z": -4.1337643496,
				"element": "Cl" 
			},
			{
				"x": 0.5714092516,
				"y": -2.0130342219,
				"z": -2.5481023649,
				"element": "C" 
			},
			{
				"x": 0.6881654088,
				"y": -0.9434108984,
				"z": -1.5146132983,
				"element": "C" 
			},
			{
				"x": 1.8744827193,
				"y": -0.6848351864,
				"z": -1.0043338713,
				"element": "N" 
			},
			{
				"x": 1.659787399,
				"y": 0.314305851,
				"z": -0.0608060685,
				"element": "O" 
			},
			{
				"x": 0.3430928117,
				"y": 0.6415524407,
				"z": -0.0289991466,
				"element": "C" 
			},
			{
				"x": -0.3269540456,
				"y": -0.1339365931,
				"z": -0.9370326459,
				"element": "C" 
			},
			{
				"x": -0.0682944859,
				"y": 1.6850218028,
				"z": 0.9080098381,
				"element": "C" 
			},
			{
				"x": 0.8714551572,
				"y": 2.299311821,
				"z": 1.7531716892,
				"element": "C" 
			},
			{
				"x": 0.4696122799,
				"y": 3.2925607507,
				"z": 2.6432855882,
				"element": "C" 
			},
			{
				"x": -0.8688419442,
				"y": 3.686190111,
				"z": 2.7038394223,
				"element": "C" 
			},
			{
				"x": -1.8082830147,
				"y": 3.0797654555,
				"z": 1.8659086324,
				"element": "C" 
			},
			{
				"x": -1.4133373298,
				"y": 2.0867922489,
				"z": 0.9739335585,
				"element": "C" 
			},
			{
				"x": -0.1329702557,
				"y": -2.7890783765,
				"z": -2.2457014721,
				"element": "H" 
			},
			{
				"x": 1.5484298142,
				"y": -2.4545920182,
				"z": -2.7402610973,
				"element": "H" 
			},
			{
				"x": -1.378186792,
				"y": -0.1292211424,
				"z": -1.1773999422,
				"element": "H" 
			},
			{
				"x": 1.9107137914,
				"y": 1.9934602618,
				"z": 1.7058745972,
				"element": "H" 
			},
			{
				"x": 1.2046101832,
				"y": 3.7604328709,
				"z": 3.2914702865,
				"element": "H" 
			},
			{
				"x": -1.1788060198,
				"y": 4.460961778,
				"z": 3.3987737451,
				"element": "H" 
			},
			{
				"x": -2.8505758041,
				"y": 3.3817440536,
				"z": 1.9066723379,
				"element": "H" 
			},
			{
				"x": -2.1495997423,
				"y": 1.6229608155,
				"z": 0.3247745614,
				"element": "H" 
			}
		],
		 "valence_orbital": [ 
			{
				"type": "occ",
				"energy": -0.30319,
				"method": "rhf"
			},
			{
				"type": "occ",
				"energy": -0.30205,
				"method": "rhf"
			},
			{
				"type": "occ",
				"energy": -0.29254,
				"method": "rhf"
			},
			{
				"type": "occ",
				"energy": -0.2651,
				"method": "rhf"
			},
			{
				"type": "occ",
				"energy": -0.23766,
				"method": "rhf"
			},
			{
				"type": "unocc",
				"energy": -0.05433,
				"method": "rhf"
			},
			{
				"type": "unocc",
				"energy": -0.01681,
				"method": "rhf"
			},
			{
				"type": "unocc",
				"energy": -0.01003,
				"method": "rhf"
			},
			{
				"type": "unocc",
				"energy": 0.03836,
				"method": "rhf"
			},
			{
				"type": "unocc",
				"energy": 0.06748,
				"method": "rhf"
			}
		],
		"cosmo_sigma_profile": { 
			"-0.025": 0.0,
			"-0.024": 0.0,
			"-0.023": 0.0,
			"-0.022": 0.0,
			"-0.021": 0.0,
			"-0.02": 0.0,
			"-0.019": 0.0,
			"-0.018": 0.0,
			"-0.017": 0.0,
			"-0.016": 0.0,
			"-0.015": 0.0,
			"-0.014": 0.0,
			"-0.013": 0.0,
			"-0.012": 0.0,
			"-0.011": 0.0,
			"-0.01": 0.00556623449862,
			"-0.009": 3.93904256743,
			"-0.008": 7.11185628566,
			"-0.007": 6.8952941837,
			"-0.006": 15.3562764,
			"-0.005": 15.9622123757,
			"-0.004": 14.2874316964,
			"-0.003": 10.8877267644,
			"-0.002": 9.73275497702,
			"-0.001": 12.5009818454,
			"0.0": 18.6314450445,
			"0.001": 18.4560155519,
			"0.002": 18.5634632806,
			"0.003": 17.0770803242,
			"0.004": 18.5314773564,
			"0.005": 13.7231553256,
			"0.006": 10.3032297343,
			"0.007": 3.76693135651,
			"0.008": 2.19881788337,
			"0.009": 1.26418691253,
			"0.01": 1.70788770423,
			"0.011": 1.2880320397,
			"0.012": 1.13239916091,
			"0.013": 1.11986144125,
			"0.014": 0.361648200925,
			"0.015": 0.0,
			"0.016": 0.0,
			"0.017": 0.0,
			"0.018": 0.0,
			"0.019": 0.0,
			"0.02": 0.0,
			"0.021": 0.0,
			"0.022": 0.0,
			"0.023": 0.0,
			"0.024": 0.0,
			"0.025": 0.0
		}
	}
}
