{
	 "smiles": "COC1CC2N(C)CC3(O)OCC4=C(C=C5OCOC5=C4)C23C=C1", 
	 "Tm": 483.15, 
	 "num_atms": 45, 
	 "gaussian": { 
		 "optdone": 1, 
		 "sigma_profile": "yes", 
		 "theory": "DFT", 
		 "functional": "B3LYP", 
		 "basiset": "6-31G**", 
		 "properties": { 
			 "R2extent": 8597.5674, 
			 "electric_dipole_moment_norm": 1.5298581176, 
			 "electric_quadrupole_moment_norm": 9.12018660116, 
			 "total_energy": -1129.35532749, 
			 "HOMO_LUMO_gap": 0.19212, 
			 "cosmo_polarized_energy": -14.73, 
			 "cosmo_cavitation_energy": 43.23, 
			 "cosmo_dispersion_energy": -30.92, 
			 "cosmo_repulsion_energy": 2.31, 
			 "cosmo_total_nonelectrostatic_energy": 14.63, 
			 "SMD_solvation_energy": 5.93 
		},
		"coords": [
			{
				"x": 1.1413718451,
				"y": 0.7042746259,
				"z": -4.5452950176,
				"element": "C" 
			},
			{
				"x": 1.4224804662,
				"y": -0.6289223263,
				"z": -4.1541097497,
				"element": "O" 
			},
			{
				"x": 0.9648392945,
				"y": -1.0102348909,
				"z": -2.8555390798,
				"element": "C" 
			},
			{
				"x": 1.5889704183,
				"y": -0.2024659526,
				"z": -1.7098352056,
				"element": "C" 
			},
			{
				"x": 1.0020638108,
				"y": -0.64593513,
				"z": -0.3496639328,
				"element": "C" 
			},
			{
				"x": 1.4273269328,
				"y": 0.1237420671,
				"z": 0.8214626789,
				"element": "N" 
			},
			{
				"x": 2.8489992503,
				"y": 0.2586029149,
				"z": 1.058703307,
				"element": "C" 
			},
			{
				"x": 0.662014758,
				"y": 1.3647972694,
				"z": 0.8626585504,
				"element": "C" 
			},
			{
				"x": -0.6651568576,
				"y": 1.0508299358,
				"z": 0.1267792024,
				"element": "C" 
			},
			{
				"x": -0.7147530512,
				"y": 1.9055827069,
				"z": -0.9793242812,
				"element": "O" 
			},
			{
				"x": -1.8463557013,
				"y": 1.3149868829,
				"z": 0.8647507748,
				"element": "O" 
			},
			{
				"x": -1.9941112076,
				"y": 0.5778632014,
				"z": 2.0660739247,
				"element": "C" 
			},
			{
				"x": -1.8481632436,
				"y": -0.9111267719,
				"z": 1.8676208736,
				"element": "C" 
			},
			{
				"x": -1.156881244,
				"y": -1.4043682182,
				"z": 0.7577971733,
				"element": "C" 
			},
			{
				"x": -1.0352536139,
				"y": -2.8025858603,
				"z": 0.5688170802,
				"element": "C" 
			},
			{
				"x": -1.576437152,
				"y": -3.6330222709,
				"z": 1.5231563577,
				"element": "C" 
			},
			{
				"x": -1.6040740946,
				"y": -5.0087491466,
				"z": 1.5470172411,
				"element": "O" 
			},
			{
				"x": -2.1693518623,
				"y": -5.3608340059,
				"z": 2.8141279801,
				"element": "C" 
			},
			{
				"x": -2.7150604274,
				"y": -4.1742248956,
				"z": 3.403383798,
				"element": "O" 
			},
			{
				"x": -2.2461967734,
				"y": -3.1330062523,
				"z": 2.6383743203,
				"element": "C" 
			},
			{
				"x": -2.4058183903,
				"y": -1.779883268,
				"z": 2.8320331869,
				"element": "C" 
			},
			{
				"x": -0.5440323946,
				"y": -0.4715050589,
				"z": -0.2967251976,
				"element": "C" 
			},
			{
				"x": -1.2102286014,
				"y": -0.7516724979,
				"z": -1.6282567325,
				"element": "C" 
			},
			{
				"x": -0.5449086898,
				"y": -1.0003777056,
				"z": -2.7612855493,
				"element": "C" 
			},
			{
				"x": 1.7614796906,
				"y": 1.4391975834,
				"z": -4.0141827408,
				"element": "H" 
			},
			{
				"x": 0.0860487225,
				"y": 0.9708544337,
				"z": -4.3920190589,
				"element": "H" 
			},
			{
				"x": 1.3676064279,
				"y": 0.7674981397,
				"z": -5.612765692,
				"element": "H" 
			},
			{
				"x": 1.3044310951,
				"y": -2.0539013823,
				"z": -2.7778044076,
				"element": "H" 
			},
			{
				"x": 1.3810854913,
				"y": 0.8599612768,
				"z": -1.8611100362,
				"element": "H" 
			},
			{
				"x": 2.6754242494,
				"y": -0.3417908785,
				"z": -1.7196913496,
				"element": "H" 
			},
			{
				"x": 1.2730228072,
				"y": -1.6971198094,
				"z": -0.18572475,
				"element": "H" 
			},
			{
				"x": 3.3227907398,
				"y": -0.7287235067,
				"z": 1.0344506676,
				"element": "H" 
			},
			{
				"x": 3.370766842,
				"y": 0.9079587146,
				"z": 0.3317276709,
				"element": "H" 
			},
			{
				"x": 3.0141565358,
				"y": 0.6823814934,
				"z": 2.0558979768,
				"element": "H" 
			},
			{
				"x": 0.4975756972,
				"y": 1.6853155802,
				"z": 1.8980563985,
				"element": "H" 
			},
			{
				"x": 1.144259668,
				"y": 2.2029992637,
				"z": 0.3339770631,
				"element": "H" 
			},
			{
				"x": -1.4769074209,
				"y": 1.6443582765,
				"z": -1.5168839338,
				"element": "H" 
			},
			{
				"x": -2.9955421675,
				"y": 0.8193606344,
				"z": 2.4369721067,
				"element": "H" 
			},
			{
				"x": -1.277644304,
				"y": 0.9323271419,
				"z": 2.8257756697,
				"element": "H" 
			},
			{
				"x": -0.5402965972,
				"y": -3.2104631868,
				"z": -0.3053310828,
				"element": "H" 
			},
			{
				"x": -2.9682200218,
				"y": -6.0940198225,
				"z": 2.6661945183,
				"element": "H" 
			},
			{
				"x": -1.3834852909,
				"y": -5.7662845003,
				"z": 3.4679264689,
				"element": "H" 
			},
			{
				"x": -2.9474506263,
				"y": -1.3949195023,
				"z": 3.6903926318,
				"element": "H" 
			},
			{
				"x": -2.2983663719,
				"y": -0.8003848291,
				"z": -1.6154270597,
				"element": "H" 
			},
			{
				"x": -1.0830186373,
				"y": -1.2538704726,
				"z": -3.6731527642,
				"element": "H" 
			}
		],
		 "valence_orbital": [ 
			{
				"type": "occ",
				"energy": -0.25199,
				"method": "rhf"
			},
			{
				"type": "occ",
				"energy": -0.24329,
				"method": "rhf"
			},
			{
				"type": "occ",
				"energy": -0.23902,
				"method": "rhf"
			},
			{
				"type": "occ",
				"energy": -0.20875,
				"method": "rhf"
			},
			{
				"type": "occ",
				"energy": -0.20052,
				"method": "rhf"
			},
			{
				"type": "unocc",
				"energy": -0.0084,
				"method": "rhf"
			},
			{
				"type": "unocc",
				"energy": -0.00228,
				"method": "rhf"
			},
			{
				"type": "unocc",
				"energy": 0.02058,
				"method": "rhf"
			},
			{
				"type": "unocc",
				"energy": 0.08255,
				"method": "rhf"
			},
			{
				"type": "unocc",
				"energy": 0.09759,
				"method": "rhf"
			}
		],
		"cosmo_sigma_profile": { 
			"-0.025": 0.0,
			"-0.024": 0.0,
			"-0.023": 0.0,
			"-0.022": 0.0,
			"-0.021": 0.0,
			"-0.02": 0.0,
			"-0.019": 0.0,
			"-0.018": 0.0,
			"-0.017": 0.0,
			"-0.016": 0.0,
			"-0.015": 0.145558374339,
			"-0.014": 0.450464655806,
			"-0.013": 0.497762829842,
			"-0.012": 0.682417517236,
			"-0.011": 0.597020815723,
			"-0.01": 1.28372730141,
			"-0.009": 0.486035476854,
			"-0.008": 2.60858599958,
			"-0.007": 9.19356968547,
			"-0.006": 15.4135792235,
			"-0.005": 20.8687499741,
			"-0.004": 27.8333629612,
			"-0.003": 33.5477414236,
			"-0.002": 40.7043749835,
			"-0.001": 34.5321146364,
			"0.0": 26.6502725886,
			"0.001": 14.92820672,
			"0.002": 16.7923899568,
			"0.003": 18.5773259543,
			"0.004": 15.7894937196,
			"0.005": 9.63282353701,
			"0.006": 5.7743251013,
			"0.007": 7.689270265,
			"0.008": 7.31535371491,
			"0.009": 7.15449895817,
			"0.01": 4.98443266011,
			"0.011": 4.7652059343,
			"0.012": 4.54344827253,
			"0.013": 4.09556318356,
			"0.014": 1.29799487483,
			"0.015": 0.0123284125208,
			"0.016": 0.0,
			"0.017": 0.0,
			"0.018": 0.0,
			"0.019": 0.0,
			"0.02": 0.0,
			"0.021": 0.0,
			"0.022": 0.0,
			"0.023": 0.0,
			"0.024": 0.0,
			"0.025": 0.0
		}
	}
}
