{
	 "smiles": "OC(=O)CN1CCOCCOCCN(CC(O)=O)CCOCCOCC1", 
	 "Tm": 447.15, 
	 "num_atms": 56, 
	 "gaussian": { 
		 "optdone": 1, 
		 "sigma_profile": "yes", 
		 "theory": "DFT", 
		 "functional": "B3LYP", 
		 "basiset": "6-31G**", 
		 "properties": { 
			 "R2extent": 13817.3744, 
			 "electric_dipole_moment_norm": 6.08150587355, 
			 "electric_quadrupole_moment_norm": 41.4829948467, 
			 "total_energy": -1339.00679582, 
			 "HOMO_LUMO_gap": 0.22182, 
			 "cosmo_polarized_energy": -30.51, 
			 "cosmo_cavitation_energy": 55.02, 
			 "cosmo_dispersion_energy": -35.51, 
			 "cosmo_repulsion_energy": 2.7, 
			 "cosmo_total_nonelectrostatic_energy": 22.21, 
			 "SMD_solvation_energy": 10.8 
		},
		"coords": [
			{
				"x": -2.2712990053,
				"y": -4.0278573279,
				"z": 3.2524822155,
				"element": "O" 
			},
			{
				"x": -2.9329791759,
				"y": -4.4152641579,
				"z": 2.1498653729,
				"element": "C" 
			},
			{
				"x": -3.8225589642,
				"y": -5.2305716226,
				"z": 2.1532764245,
				"element": "O" 
			},
			{
				"x": -2.4138945013,
				"y": -3.7471255585,
				"z": 0.8627376355,
				"element": "C" 
			},
			{
				"x": -1.5828048438,
				"y": -2.5749783968,
				"z": 1.1663367636,
				"element": "N" 
			},
			{
				"x": -0.3794827771,
				"y": -2.433933442,
				"z": 0.3328141234,
				"element": "C" 
			},
			{
				"x": 0.7030068095,
				"y": -1.5820881792,
				"z": 0.9996681191,
				"element": "C" 
			},
			{
				"x": 1.6889995103,
				"y": -1.3266281265,
				"z": 0.0174485897,
				"element": "O" 
			},
			{
				"x": 2.7588602856,
				"y": -0.5149371146,
				"z": 0.4790955005,
				"element": "C" 
			},
			{
				"x": 3.5995443384,
				"y": -0.0467572962,
				"z": -0.7022904984,
				"element": "C" 
			},
			{
				"x": 3.0135007323,
				"y": 1.0050112177,
				"z": -1.450493811,
				"element": "O" 
			},
			{
				"x": 2.0286892294,
				"y": 0.6024697719,
				"z": -2.4001159261,
				"element": "C" 
			},
			{
				"x": 1.5408248045,
				"y": 1.8214588056,
				"z": -3.1744718792,
				"element": "C" 
			},
			{
				"x": 0.7671203378,
				"y": 2.7708859469,
				"z": -2.3655108046,
				"element": "N" 
			},
			{
				"x": 1.5631273214,
				"y": 3.7456473701,
				"z": -1.6472843715,
				"element": "C" 
			},
			{
				"x": 2.2221829694,
				"y": 4.8968896503,
				"z": -2.4154522393,
				"element": "C" 
			},
			{
				"x": 2.061334448,
				"y": 4.8245300477,
				"z": -3.7606201876,
				"element": "O" 
			},
			{
				"x": 2.8357892222,
				"y": 5.7931626862,
				"z": -1.8811797041,
				"element": "O" 
			},
			{
				"x": -0.44408656,
				"y": 3.290662672,
				"z": -3.0108362269,
				"element": "C" 
			},
			{
				"x": -1.6427345415,
				"y": 2.3357255635,
				"z": -2.9136208032,
				"element": "C" 
			},
			{
				"x": -2.3656004347,
				"y": 2.3956592712,
				"z": -1.6953390189,
				"element": "O" 
			},
			{
				"x": -1.6799775121,
				"y": 1.9608799999,
				"z": -0.5374210355,
				"element": "C" 
			},
			{
				"x": -2.6942388285,
				"y": 1.635349362,
				"z": 0.5537496853,
				"element": "C" 
			},
			{
				"x": -3.5681995116,
				"y": 0.5425903848,
				"z": 0.2941973404,
				"element": "O" 
			},
			{
				"x": -2.9693056034,
				"y": -0.7204106588,
				"z": 0.0568388338,
				"element": "C" 
			},
			{
				"x": -2.3774099472,
				"y": -1.339419907,
				"z": 1.3412839318,
				"element": "C" 
			},
			{
				"x": -1.6253907106,
				"y": -3.3583726619,
				"z": 2.9250019224,
				"element": "H" 
			},
			{
				"x": -3.277780999,
				"y": -3.5392643191,
				"z": 0.2205984593,
				"element": "H" 
			},
			{
				"x": -1.8116403249,
				"y": -4.498929563,
				"z": 0.3424145365,
				"element": "H" 
			},
			{
				"x": -0.5874768117,
				"y": -2.0016816441,
				"z": -0.6568449758,
				"element": "H" 
			},
			{
				"x": 0.0306890625,
				"y": -3.432450023,
				"z": 0.1571405151,
				"element": "H" 
			},
			{
				"x": 1.1271222688,
				"y": -2.1146002375,
				"z": 1.8663498465,
				"element": "H" 
			},
			{
				"x": 0.2919345628,
				"y": -0.6311048951,
				"z": 1.3723806115,
				"element": "H" 
			},
			{
				"x": 3.3942121395,
				"y": -1.082412179,
				"z": 1.1804835733,
				"element": "H" 
			},
			{
				"x": 2.3730037711,
				"y": 0.3673472806,
				"z": 1.0137740003,
				"element": "H" 
			},
			{
				"x": 4.5446522146,
				"y": 0.3494630023,
				"z": -0.3145248962,
				"element": "H" 
			},
			{
				"x": 3.830343136,
				"y": -0.9074592114,
				"z": -1.3489361669,
				"element": "H" 
			},
			{
				"x": 2.4725151102,
				"y": -0.1195500569,
				"z": -3.106953606,
				"element": "H" 
			},
			{
				"x": 1.1873202472,
				"y": 0.1105355478,
				"z": -1.9003157178,
				"element": "H" 
			},
			{
				"x": 2.396309528,
				"y": 2.3073835287,
				"z": -3.6670725141,
				"element": "H" 
			},
			{
				"x": 0.8956958177,
				"y": 1.4473192535,
				"z": -3.9767394286,
				"element": "H" 
			},
			{
				"x": 0.956314003,
				"y": 4.224411084,
				"z": -0.8691236196,
				"element": "H" 
			},
			{
				"x": 2.3720409598,
				"y": 3.2247638487,
				"z": -1.1268099879,
				"element": "H" 
			},
			{
				"x": 2.5247736948,
				"y": 5.5985433745,
				"z": -4.1245289349,
				"element": "H" 
			},
			{
				"x": -0.267823847,
				"y": 3.5348944367,
				"z": -4.070989022,
				"element": "H" 
			},
			{
				"x": -0.7299032066,
				"y": 4.228823492,
				"z": -2.5223599491,
				"element": "H" 
			},
			{
				"x": -1.3113565179,
				"y": 1.3022228697,
				"z": -3.1120509621,
				"element": "H" 
			},
			{
				"x": -2.3735550386,
				"y": 2.6020843238,
				"z": -3.6849039455,
				"element": "H" 
			},
			{
				"x": -1.0354709133,
				"y": 1.0994737699,
				"z": -0.7643502873,
				"element": "H" 
			},
			{
				"x": -1.0111015115,
				"y": 2.7428569674,
				"z": -0.1448865126,
				"element": "H" 
			},
			{
				"x": -3.3578731977,
				"y": 2.4948355623,
				"z": 0.6861074965,
				"element": "H" 
			},
			{
				"x": -2.1417725518,
				"y": 1.4973416429,
				"z": 1.4971580047,
				"element": "H" 
			},
			{
				"x": -2.2058634947,
				"y": -0.6554282011,
				"z": -0.7286454546,
				"element": "H" 
			},
			{
				"x": -3.7747923048,
				"y": -1.3487440692,
				"z": -0.3349330081,
				"element": "H" 
			},
			{
				"x": -3.1913981014,
				"y": -1.5594304234,
				"z": 2.0396860034,
				"element": "H" 
			},
			{
				"x": -1.7463347872,
				"y": -0.5992234622,
				"z": 1.8396159899,
				"element": "H" 
			}
		],
		 "valence_orbital": [ 
			{
				"type": "occ",
				"energy": -0.26365,
				"method": "rhf"
			},
			{
				"type": "occ",
				"energy": -0.26213,
				"method": "rhf"
			},
			{
				"type": "occ",
				"energy": -0.25976,
				"method": "rhf"
			},
			{
				"type": "occ",
				"energy": -0.23728,
				"method": "rhf"
			},
			{
				"type": "occ",
				"energy": -0.21509,
				"method": "rhf"
			},
			{
				"type": "unocc",
				"energy": 0.00673,
				"method": "rhf"
			},
			{
				"type": "unocc",
				"energy": 0.01549,
				"method": "rhf"
			},
			{
				"type": "unocc",
				"energy": 0.03847,
				"method": "rhf"
			},
			{
				"type": "unocc",
				"energy": 0.06128,
				"method": "rhf"
			},
			{
				"type": "unocc",
				"energy": 0.06574,
				"method": "rhf"
			}
		],
		"cosmo_sigma_profile": { 
			"-0.025": 0.0,
			"-0.024": 0.0,
			"-0.023": 0.0,
			"-0.022": 0.0,
			"-0.021": 0.0,
			"-0.02": 0.0,
			"-0.019": 0.0,
			"-0.018": 0.450034220968,
			"-0.017": 0.978970404091,
			"-0.016": 1.1462612049,
			"-0.015": 0.411658830044,
			"-0.014": 0.480928698399,
			"-0.013": 0.872262762687,
			"-0.012": 1.07808178965,
			"-0.011": 0.866058825636,
			"-0.01": 1.23187657058,
			"-0.009": 1.16292642507,
			"-0.008": 4.6972899582,
			"-0.007": 11.0155747763,
			"-0.006": 19.6248685341,
			"-0.005": 32.9875208886,
			"-0.004": 54.5438959314,
			"-0.003": 58.6653329546,
			"-0.002": 44.9680055437,
			"-0.001": 26.3503534494,
			"0.0": 16.4920342694,
			"0.001": 15.5295627789,
			"0.002": 13.0922737042,
			"0.003": 11.3255313357,
			"0.004": 11.8667053559,
			"0.005": 11.967782018,
			"0.006": 10.299726667,
			"0.007": 10.6446242155,
			"0.008": 8.00226343367,
			"0.009": 7.67486140623,
			"0.01": 10.0789340707,
			"0.011": 11.6885464966,
			"0.012": 14.9210824724,
			"0.013": 9.33921308098,
			"0.014": 2.28649175226,
			"0.015": 0.0224364001514,
			"0.016": 0.0,
			"0.017": 0.0,
			"0.018": 0.0,
			"0.019": 0.0,
			"0.02": 0.0,
			"0.021": 0.0,
			"0.022": 0.0,
			"0.023": 0.0,
			"0.024": 0.0,
			"0.025": 0.0
		}
	}
}
