{
	 "smiles": "NCC1=CC2=C(S1)C=CS2", 
	 "Tm": 332.15, 
	 "num_atms": 17, 
	 "gaussian": { 
		 "optdone": 1, 
		 "sigma_profile": "yes", 
		 "theory": "DFT", 
		 "functional": "B3LYP", 
		 "basiset": "6-31G**", 
		 "properties": { 
			 "R2extent": 2663.074, 
			 "electric_dipole_moment_norm": 1.67990989639, 
			 "electric_quadrupole_moment_norm": 12.1823000895, 
			 "total_energy": -1122.06220557, 
			 "HOMO_LUMO_gap": 0.18326, 
			 "cosmo_polarized_energy": -7.9, 
			 "cosmo_cavitation_energy": 23.76, 
			 "cosmo_dispersion_energy": -18.96, 
			 "cosmo_repulsion_energy": 1.45, 
			 "cosmo_total_nonelectrostatic_energy": 6.25, 
			 "SMD_solvation_energy": 2.5 
		},
		"coords": [
			{
				"x": -2.9373343068,
				"y": -0.9727754149,
				"z": 1.4157731926,
				"element": "N" 
			},
			{
				"x": -1.6290921466,
				"y": -1.562180485,
				"z": 1.7071487508,
				"element": "C" 
			},
			{
				"x": -0.6945741606,
				"y": -1.364256272,
				"z": 0.5413831759,
				"element": "C" 
			},
			{
				"x": -1.026279081,
				"y": -1.1794335301,
				"z": -0.773212066,
				"element": "C" 
			},
			{
				"x": 0.1320103566,
				"y": -1.0595445291,
				"z": -1.5970585263,
				"element": "C" 
			},
			{
				"x": 1.3375182995,
				"y": -1.1535721649,
				"z": -0.9117590717,
				"element": "C" 
			},
			{
				"x": 1.0514628728,
				"y": -1.3879852881,
				"z": 0.7948244621,
				"element": "S" 
			},
			{
				"x": 2.4936455805,
				"y": -1.0325284168,
				"z": -1.7374412599,
				"element": "C" 
			},
			{
				"x": 2.1467991642,
				"y": -0.8457190808,
				"z": -3.0467150832,
				"element": "C" 
			},
			{
				"x": 0.4149573938,
				"y": -0.8134442224,
				"z": -3.3009764266,
				"element": "S" 
			},
			{
				"x": -2.8624792952,
				"y": 0.0413663467,
				"z": 1.3981566335,
				"element": "H" 
			},
			{
				"x": -3.5966188788,
				"y": -1.2116285374,
				"z": 2.1513726142,
				"element": "H" 
			},
			{
				"x": -1.7817994892,
				"y": -2.6374347135,
				"z": 1.874949278,
				"element": "H" 
			},
			{
				"x": -1.1472674918,
				"y": -1.1780844826,
				"z": 2.6239667015,
				"element": "H" 
			},
			{
				"x": -2.0543856956,
				"y": -1.1358769733,
				"z": -1.1085360736,
				"element": "H" 
			},
			{
				"x": 3.517973029,
				"y": -1.0800864102,
				"z": -1.3881713531,
				"element": "H" 
			},
			{
				"x": 2.8070638492,
				"y": -0.7242158255,
				"z": -3.8943049483,
				"element": "H" 
			}
		],
		 "valence_orbital": [ 
			{
				"type": "occ",
				"energy": -0.32172,
				"method": "rhf"
			},
			{
				"type": "occ",
				"energy": -0.27367,
				"method": "rhf"
			},
			{
				"type": "occ",
				"energy": -0.24726,
				"method": "rhf"
			},
			{
				"type": "occ",
				"energy": -0.22432,
				"method": "rhf"
			},
			{
				"type": "occ",
				"energy": -0.2054,
				"method": "rhf"
			},
			{
				"type": "unocc",
				"energy": -0.02214,
				"method": "rhf"
			},
			{
				"type": "unocc",
				"energy": 0.01995,
				"method": "rhf"
			},
			{
				"type": "unocc",
				"energy": 0.03402,
				"method": "rhf"
			},
			{
				"type": "unocc",
				"energy": 0.03914,
				"method": "rhf"
			},
			{
				"type": "unocc",
				"energy": 0.07261,
				"method": "rhf"
			}
		],
		"cosmo_sigma_profile": { 
			"-0.025": 0.0,
			"-0.024": 0.0,
			"-0.023": 0.0,
			"-0.022": 0.0,
			"-0.021": 0.0,
			"-0.02": 0.0,
			"-0.019": 0.0,
			"-0.018": 0.0,
			"-0.017": 0.0,
			"-0.016": 0.0,
			"-0.015": 0.0,
			"-0.014": 0.0,
			"-0.013": 0.0,
			"-0.012": 0.0,
			"-0.011": 0.260381317095,
			"-0.01": 2.4764232968,
			"-0.009": 2.55659671547,
			"-0.008": 5.53055850704,
			"-0.007": 6.76241881125,
			"-0.006": 8.61046568826,
			"-0.005": 12.1968930749,
			"-0.004": 14.3103361976,
			"-0.003": 13.7790492703,
			"-0.002": 13.6320578483,
			"-0.001": 7.43392133345,
			"0.0": 10.0553737073,
			"0.001": 11.141300482,
			"0.002": 13.8721750039,
			"0.003": 15.3612154986,
			"0.004": 25.4371496108,
			"0.005": 19.5706793509,
			"0.006": 3.97579979622,
			"0.007": 0.932329694098,
			"0.008": 0.707616627911,
			"0.009": 1.01527655187,
			"0.01": 0.627153022912,
			"0.011": 0.464038711839,
			"0.012": 0.595595435921,
			"0.013": 0.494956364064,
			"0.014": 0.943167564078,
			"0.015": 0.226406704027,
			"0.016": 0.622841226814,
			"0.017": 0.288715179186,
			"0.018": 0.0,
			"0.019": 0.0,
			"0.02": 0.0,
			"0.021": 0.0,
			"0.022": 0.0,
			"0.023": 0.0,
			"0.024": 0.0,
			"0.025": 0.0
		}
	}
}
