{
	 "smiles": "CC1=NN=C2C=C(Cl)N=CN12", 
	 "Tm": 396.15, 
	 "num_atms": 16, 
	 "gaussian": { 
		 "optdone": 1, 
		 "sigma_profile": "yes", 
		 "theory": "DFT", 
		 "functional": "B3LYP", 
		 "basiset": "6-31G**", 
		 "properties": { 
			 "R2extent": 3963.5312, 
			 "electric_dipole_moment_norm": 3.54800309188, 
			 "electric_quadrupole_moment_norm": 17.4317010251, 
			 "total_energy": -910.817704089, 
			 "HOMO_LUMO_gap": 0.16609, 
			 "cosmo_polarized_energy": -15.72, 
			 "cosmo_cavitation_energy": 22.64, 
			 "cosmo_dispersion_energy": -17.13, 
			 "cosmo_repulsion_energy": 1.36, 
			 "cosmo_total_nonelectrostatic_energy": 6.86, 
			 "SMD_solvation_energy": 0.68 
		},
		"coords": [
			{
				"x": 1.8123349764,
				"y": -1.5595498216,
				"z": 0.8128896359,
				"element": "C" 
			},
			{
				"x": 0.7300305411,
				"y": -2.1438034402,
				"z": -0.0255986471,
				"element": "C" 
			},
			{
				"x": 0.1553574415,
				"y": -3.3151241721,
				"z": 0.14103898,
				"element": "N" 
			},
			{
				"x": -0.8001000053,
				"y": -3.5100291303,
				"z": -0.8273230446,
				"element": "N" 
			},
			{
				"x": -0.7978632289,
				"y": -2.4333923392,
				"z": -1.5896749701,
				"element": "C" 
			},
			{
				"x": -1.5497204917,
				"y": -2.0536217176,
				"z": -2.7303730261,
				"element": "C" 
			},
			{
				"x": -1.2682849841,
				"y": -0.8290861778,
				"z": -3.2743339145,
				"element": "C" 
			},
			{
				"x": -2.1431940554,
				"y": -0.2740744841,
				"z": -4.6819162416,
				"element": "Cl" 
			},
			{
				"x": -0.3258625724,
				"y": 0.0375449969,
				"z": -2.7984826742,
				"element": "N" 
			},
			{
				"x": 0.3575476992,
				"y": -0.3165945575,
				"z": -1.7553053768,
				"element": "C" 
			},
			{
				"x": 0.1633022978,
				"y": -1.5204688187,
				"z": -1.1249688786,
				"element": "N" 
			},
			{
				"x": 2.0545034,
				"y": -2.2737245236,
				"z": 1.6010067166,
				"element": "H" 
			},
			{
				"x": 1.5028802744,
				"y": -0.617799573,
				"z": 1.2810590083,
				"element": "H" 
			},
			{
				"x": 2.7202552003,
				"y": -1.3647373791,
				"z": 0.2301621435,
				"element": "H" 
			},
			{
				"x": -2.303445939,
				"y": -2.7178968709,
				"z": -3.131463635,
				"element": "H" 
			},
			{
				"x": 1.1163594461,
				"y": 0.3431580087,
				"z": -1.3451160755,
				"element": "H" 
			}
		],
		 "valence_orbital": [ 
			{
				"type": "occ",
				"energy": -0.32117,
				"method": "rhf"
			},
			{
				"type": "occ",
				"energy": -0.31031,
				"method": "rhf"
			},
			{
				"type": "occ",
				"energy": -0.3089,
				"method": "rhf"
			},
			{
				"type": "occ",
				"energy": -0.26841,
				"method": "rhf"
			},
			{
				"type": "occ",
				"energy": -0.24084,
				"method": "rhf"
			},
			{
				"type": "unocc",
				"energy": -0.07475,
				"method": "rhf"
			},
			{
				"type": "unocc",
				"energy": -0.03434,
				"method": "rhf"
			},
			{
				"type": "unocc",
				"energy": 0.01977,
				"method": "rhf"
			},
			{
				"type": "unocc",
				"energy": 0.03329,
				"method": "rhf"
			},
			{
				"type": "unocc",
				"energy": 0.07681,
				"method": "rhf"
			}
		],
		"cosmo_sigma_profile": { 
			"-0.025": 0.0,
			"-0.024": 0.0,
			"-0.023": 0.0,
			"-0.022": 0.0,
			"-0.021": 0.0,
			"-0.02": 0.0,
			"-0.019": 0.0,
			"-0.018": 0.0,
			"-0.017": 0.0,
			"-0.016": 0.0,
			"-0.015": 0.0,
			"-0.014": 0.0,
			"-0.013": 0.0,
			"-0.012": 0.320985723975,
			"-0.011": 2.45761441383,
			"-0.01": 4.819485207,
			"-0.009": 4.5534934107,
			"-0.008": 5.12013540147,
			"-0.007": 8.07236917654,
			"-0.006": 12.8097936741,
			"-0.005": 10.6510430659,
			"-0.004": 11.3587854057,
			"-0.003": 12.4330174291,
			"-0.002": 15.1167522319,
			"-0.001": 14.710698239,
			"0.0": 8.41801135545,
			"0.001": 8.06510459236,
			"0.002": 8.21044646012,
			"0.003": 11.5439907024,
			"0.004": 8.80960054777,
			"0.005": 4.36194852307,
			"0.006": 3.3629465413,
			"0.007": 3.47076044859,
			"0.008": 2.8775073228,
			"0.009": 2.7155772546,
			"0.01": 3.43035475296,
			"0.011": 3.15987743085,
			"0.012": 3.52584949334,
			"0.013": 4.22385039079,
			"0.014": 2.52700605452,
			"0.015": 2.3149812065,
			"0.016": 1.63148039986,
			"0.017": 0.0917256545301,
			"0.018": 0.0,
			"0.019": 0.0,
			"0.02": 0.0,
			"0.021": 0.0,
			"0.022": 0.0,
			"0.023": 0.0,
			"0.024": 0.0,
			"0.025": 0.0
		}
	}
}
