{
	 "smiles": "OC(C(O)=O)C1=CC=CC=C1F", 
	 "Tm": 388.15, 
	 "num_atms": 19, 
	 "gaussian": { 
		 "optdone": 1, 
		 "sigma_profile": "yes", 
		 "theory": "DFT", 
		 "functional": "B3LYP", 
		 "basiset": "6-31G**", 
		 "properties": { 
			 "R2extent": 1960.7934, 
			 "electric_dipole_moment_norm": 4.80182885368, 
			 "electric_quadrupole_moment_norm": 7.85270393177, 
			 "total_energy": -634.573804038, 
			 "HOMO_LUMO_gap": 0.22435, 
			 "cosmo_polarized_energy": -14.88, 
			 "cosmo_cavitation_energy": 23.79, 
			 "cosmo_dispersion_energy": -17.2, 
			 "cosmo_repulsion_energy": 1.36, 
			 "cosmo_total_nonelectrostatic_energy": 7.96, 
			 "SMD_solvation_energy": 5.56 
		},
		"coords": [
			{
				"x": 0.940904215,
				"y": -0.0531807115,
				"z": 2.2294827059,
				"element": "O" 
			},
			{
				"x": 0.8720059261,
				"y": 0.3150007817,
				"z": 0.878345129,
				"element": "C" 
			},
			{
				"x": 1.7216200276,
				"y": -0.6649776061,
				"z": 0.0442220397,
				"element": "C" 
			},
			{
				"x": 1.6284924489,
				"y": -0.5637120514,
				"z": -1.2931358702,
				"element": "O" 
			},
			{
				"x": 2.4731711475,
				"y": -1.4498080509,
				"z": 0.5727414204,
				"element": "O" 
			},
			{
				"x": -0.5608885684,
				"y": 0.4022405499,
				"z": 0.3854925065,
				"element": "C" 
			},
			{
				"x": -1.1353464346,
				"y": 1.6138891057,
				"z": -0.0156445605,
				"element": "C" 
			},
			{
				"x": -2.4664568913,
				"y": 1.6795288455,
				"z": -0.4347098975,
				"element": "C" 
			},
			{
				"x": -3.2470472899,
				"y": 0.5230951141,
				"z": -0.4455951705,
				"element": "C" 
			},
			{
				"x": -2.7001802625,
				"y": -0.6997802544,
				"z": -0.0482311622,
				"element": "C" 
			},
			{
				"x": -1.3748068033,
				"y": -0.7359687992,
				"z": 0.3598102676,
				"element": "C" 
			},
			{
				"x": -0.8321082161,
				"y": -1.9174068399,
				"z": 0.7160448217,
				"element": "F" 
			},
			{
				"x": 1.5948873882,
				"y": -0.7748031595,
				"z": 2.2648490986,
				"element": "H" 
			},
			{
				"x": 1.3331440826,
				"y": 1.3078125044,
				"z": 0.7245028804,
				"element": "H" 
			},
			{
				"x": 0.9165375311,
				"y": 0.0552613283,
				"z": -1.5220785221,
				"element": "H" 
			},
			{
				"x": -0.5304481507,
				"y": 2.5167190951,
				"z": 0.0152438635,
				"element": "H" 
			},
			{
				"x": -2.8925830712,
				"y": 2.6300114971,
				"z": -0.7391966269,
				"element": "H" 
			},
			{
				"x": -4.2837159028,
				"y": 0.5661259561,
				"z": -0.7651862443,
				"element": "H" 
			},
			{
				"x": -3.2795811762,
				"y": -1.6165473049,
				"z": -0.0514566789,
				"element": "H" 
			}
		],
		 "valence_orbital": [ 
			{
				"type": "occ",
				"energy": -0.33158,
				"method": "rhf"
			},
			{
				"type": "occ",
				"energy": -0.30113,
				"method": "rhf"
			},
			{
				"type": "occ",
				"energy": -0.28666,
				"method": "rhf"
			},
			{
				"type": "occ",
				"energy": -0.27123,
				"method": "rhf"
			},
			{
				"type": "occ",
				"energy": -0.25792,
				"method": "rhf"
			},
			{
				"type": "unocc",
				"energy": -0.03357,
				"method": "rhf"
			},
			{
				"type": "unocc",
				"energy": -0.02032,
				"method": "rhf"
			},
			{
				"type": "unocc",
				"energy": -0.00145,
				"method": "rhf"
			},
			{
				"type": "unocc",
				"energy": 0.06436,
				"method": "rhf"
			},
			{
				"type": "unocc",
				"energy": 0.07405,
				"method": "rhf"
			}
		],
		"cosmo_sigma_profile": { 
			"-0.025": 0.0,
			"-0.024": 0.0,
			"-0.023": 0.0,
			"-0.022": 0.0,
			"-0.021": 0.0,
			"-0.02": 0.0,
			"-0.019": 0.0,
			"-0.018": 0.0,
			"-0.017": 0.212799557017,
			"-0.016": 1.27340270073,
			"-0.015": 1.1171197828,
			"-0.014": 1.36881661043,
			"-0.013": 1.18123132168,
			"-0.012": 1.03525222111,
			"-0.011": 1.85822595581,
			"-0.01": 1.92587092069,
			"-0.009": 3.65365209095,
			"-0.008": 5.53950570442,
			"-0.007": 9.48731576485,
			"-0.006": 10.9435889113,
			"-0.005": 10.70653565,
			"-0.004": 9.85018721444,
			"-0.003": 8.48128165146,
			"-0.002": 7.8531568696,
			"-0.001": 9.88446626508,
			"0.0": 10.0316653951,
			"0.001": 11.1158920923,
			"0.002": 12.0809809686,
			"0.003": 17.1784050849,
			"0.004": 14.5254713724,
			"0.005": 4.12610310021,
			"0.006": 4.5481928626,
			"0.007": 4.20331410269,
			"0.008": 4.83157221702,
			"0.009": 6.76208063276,
			"0.01": 5.62218772441,
			"0.011": 4.13255182209,
			"0.012": 2.08428996701,
			"0.013": 2.11769027155,
			"0.014": 0.0602115469914,
			"0.015": 0.0,
			"0.016": 0.0,
			"0.017": 0.0,
			"0.018": 0.0,
			"0.019": 0.0,
			"0.02": 0.0,
			"0.021": 0.0,
			"0.022": 0.0,
			"0.023": 0.0,
			"0.024": 0.0,
			"0.025": 0.0
		}
	}
}
