{
	 "smiles": "CC(C)N1C=NC2=C1C=CC(=C2)C(O)=O", 
	 "Tm": 490.15, 
	 "num_atms": 27, 
	 "gaussian": { 
		 "optdone": 1, 
		 "sigma_profile": "yes", 
		 "theory": "DFT", 
		 "functional": "B3LYP", 
		 "basiset": "6-31G**", 
		 "properties": { 
			 "R2extent": 5083.7907, 
			 "electric_dipole_moment_norm": 9.0276672679, 
			 "electric_quadrupole_moment_norm": 27.697397372, 
			 "total_energy": -686.380916733, 
			 "HOMO_LUMO_gap": 0.19904, 
			 "cosmo_polarized_energy": -21.54, 
			 "cosmo_cavitation_energy": 30.8, 
			 "cosmo_dispersion_energy": -22.07, 
			 "cosmo_repulsion_energy": 1.7, 
			 "cosmo_total_nonelectrostatic_energy": 10.43, 
			 "SMD_solvation_energy": 4.58 
		},
		"coords": [
			{
				"x": -2.5993216921,
				"y": 0.0095846553,
				"z": -0.6519413934,
				"element": "C" 
			},
			{
				"x": -1.4289133136,
				"y": -0.9615589382,
				"z": -0.4418858268,
				"element": "C" 
			},
			{
				"x": -1.7713700363,
				"y": -2.0819236724,
				"z": 0.5448415192,
				"element": "C" 
			},
			{
				"x": -0.2147612705,
				"y": -0.2378092093,
				"z": -0.031456374,
				"element": "N" 
			},
			{
				"x": 0.1946056549,
				"y": 0.085434708,
				"z": 1.2490408693,
				"element": "C" 
			},
			{
				"x": 1.2801533021,
				"y": 0.8133839126,
				"z": 1.3039017215,
				"element": "N" 
			},
			{
				"x": 1.6300477054,
				"y": 1.0115403594,
				"z": -0.0234019416,
				"element": "C" 
			},
			{
				"x": 0.699621295,
				"y": 0.3639763332,
				"z": -0.8775085958,
				"element": "C" 
			},
			{
				"x": 0.8100325784,
				"y": 0.4137581189,
				"z": -2.2705306544,
				"element": "C" 
			},
			{
				"x": 1.8935995276,
				"y": 1.1116427938,
				"z": -2.7914110405,
				"element": "C" 
			},
			{
				"x": 2.8422973774,
				"y": 1.75201545,
				"z": -1.9564450627,
				"element": "C" 
			},
			{
				"x": 2.7036228613,
				"y": 1.7182043971,
				"z": -0.5664325365,
				"element": "C" 
			},
			{
				"x": 4.0044542635,
				"y": 2.5154117415,
				"z": -2.5115544633,
				"element": "C" 
			},
			{
				"x": 4.3900972509,
				"y": 2.2018627919,
				"z": -3.7820179877,
				"element": "O" 
			},
			{
				"x": 4.6009380028,
				"y": 3.3701393343,
				"z": -1.8993784797,
				"element": "O" 
			},
			{
				"x": -3.4732193057,
				"y": -0.5252564911,
				"z": -1.0369763966,
				"element": "H" 
			},
			{
				"x": -2.8786055097,
				"y": 0.4872673451,
				"z": 0.2927451191,
				"element": "H" 
			},
			{
				"x": -2.334926519,
				"y": 0.7949388365,
				"z": -1.365408648,
				"element": "H" 
			},
			{
				"x": -1.1784251699,
				"y": -1.425367231,
				"z": -1.4028401188,
				"element": "H" 
			},
			{
				"x": -0.9159848207,
				"y": -2.7431913713,
				"z": 0.7081383948,
				"element": "H" 
			},
			{
				"x": -2.5959670257,
				"y": -2.678506695,
				"z": 0.1449004397,
				"element": "H" 
			},
			{
				"x": -2.0958304368,
				"y": -1.6856342476,
				"z": 1.512247986,
				"element": "H" 
			},
			{
				"x": -0.3542197526,
				"y": -0.2588770402,
				"z": 2.1150463461,
				"element": "H" 
			},
			{
				"x": 0.0833736433,
				"y": -0.0534494485,
				"z": -2.9274970918,
				"element": "H" 
			},
			{
				"x": 1.9734707993,
				"y": 1.2022441545,
				"z": -3.8716055937,
				"element": "H" 
			},
			{
				"x": 3.42190931,
				"y": 2.2310020275,
				"z": 0.0628544271,
				"element": "H" 
			},
			{
				"x": 3.9508212806,
				"y": 1.3887673848,
				"z": -4.0665246172,
				"element": "H" 
			}
		],
		 "valence_orbital": [ 
			{
				"type": "occ",
				"energy": -0.30307,
				"method": "rhf"
			},
			{
				"type": "occ",
				"energy": -0.27931,
				"method": "rhf"
			},
			{
				"type": "occ",
				"energy": -0.26426,
				"method": "rhf"
			},
			{
				"type": "occ",
				"energy": -0.24315,
				"method": "rhf"
			},
			{
				"type": "occ",
				"energy": -0.23633,
				"method": "rhf"
			},
			{
				"type": "unocc",
				"energy": -0.03729,
				"method": "rhf"
			},
			{
				"type": "unocc",
				"energy": -0.0254,
				"method": "rhf"
			},
			{
				"type": "unocc",
				"energy": 0.03751,
				"method": "rhf"
			},
			{
				"type": "unocc",
				"energy": 0.06088,
				"method": "rhf"
			},
			{
				"type": "unocc",
				"energy": 0.06709,
				"method": "rhf"
			}
		],
		"cosmo_sigma_profile": { 
			"-0.025": 0.0,
			"-0.024": 0.0,
			"-0.023": 0.0,
			"-0.022": 0.0,
			"-0.021": 0.0,
			"-0.02": 0.0,
			"-0.019": 0.00319140875501,
			"-0.018": 0.638826462389,
			"-0.017": 0.685032864819,
			"-0.016": 1.06280725439,
			"-0.015": 0.759590106711,
			"-0.014": 0.910030989076,
			"-0.013": 1.00734857244,
			"-0.012": 1.18797454796,
			"-0.011": 1.13212739894,
			"-0.01": 1.09564613443,
			"-0.009": 4.16985917033,
			"-0.008": 4.53067890473,
			"-0.007": 8.0761340695,
			"-0.006": 9.70841936818,
			"-0.005": 13.1172418719,
			"-0.004": 21.5396971918,
			"-0.003": 19.7794927205,
			"-0.002": 20.603382331,
			"-0.001": 20.5928707194,
			"0.0": 21.6288581556,
			"0.001": 11.4194506392,
			"0.002": 11.474366151,
			"0.003": 14.8736479051,
			"0.004": 8.04138759532,
			"0.005": 4.1583640388,
			"0.006": 3.49795487319,
			"0.007": 3.35812501314,
			"0.008": 5.03094804395,
			"0.009": 4.50392182019,
			"0.01": 5.3207969732,
			"0.011": 5.63164123037,
			"0.012": 6.89686308421,
			"0.013": 4.04295178955,
			"0.014": 1.21009727732,
			"0.015": 1.02100093666,
			"0.016": 1.01423672166,
			"0.017": 0.820947701414,
			"0.018": 0.141114082833,
			"0.019": 0.0,
			"0.02": 0.0,
			"0.021": 0.0,
			"0.022": 0.0,
			"0.023": 0.0,
			"0.024": 0.0,
			"0.025": 0.0
		}
	}
}
