{
	 "smiles": "CC1=C2N=CC=CC2=C(Br)C=C1", 
	 "Tm": 308.15, 
	 "num_atms": 20, 
	 "gaussian": { 
		 "optdone": 1, 
		 "sigma_profile": "yes", 
		 "theory": "DFT", 
		 "functional": "B3LYP", 
		 "basiset": "6-31G**", 
		 "properties": { 
			 "R2extent": 4313.0343, 
			 "electric_dipole_moment_norm": 0.344581049972, 
			 "electric_quadrupole_moment_norm": 9.64388711568, 
			 "total_energy": -3012.05501999, 
			 "HOMO_LUMO_gap": 0.16672, 
			 "cosmo_polarized_energy": -5.44, 
			 "cosmo_cavitation_energy": 25.68, 
			 "cosmo_dispersion_energy": -19.62, 
			 "cosmo_repulsion_energy": 1.54, 
			 "cosmo_total_nonelectrostatic_energy": 7.6, 
			 "SMD_solvation_energy": 2.2 
		},
		"coords": [
			{
				"x": -1.6567876468,
				"y": 0.4670179875,
				"z": 1.8900253501,
				"element": "C" 
			},
			{
				"x": -0.6885130986,
				"y": 0.6957247662,
				"z": 0.7607737783,
				"element": "C" 
			},
			{
				"x": 0.4610244221,
				"y": 1.5250490922,
				"z": 0.9658620245,
				"element": "C" 
			},
			{
				"x": 0.6273059766,
				"y": 2.0797511469,
				"z": 2.1999604772,
				"element": "N" 
			},
			{
				"x": 1.6779661133,
				"y": 2.8462354227,
				"z": 2.4114388221,
				"element": "C" 
			},
			{
				"x": 2.6540943357,
				"y": 3.132724174,
				"z": 1.4287809375,
				"element": "C" 
			},
			{
				"x": 2.5097727645,
				"y": 2.5857128924,
				"z": 0.1758573559,
				"element": "C" 
			},
			{
				"x": 1.3960621043,
				"y": 1.754109599,
				"z": -0.10124924,
				"element": "C" 
			},
			{
				"x": 1.1424696463,
				"y": 1.1344165498,
				"z": -1.3565100256,
				"element": "C" 
			},
			{
				"x": 2.3465383,
				"y": 1.3947331553,
				"z": -2.8264934935,
				"element": "Br" 
			},
			{
				"x": 0.0387331348,
				"y": 0.3406644375,
				"z": -1.5466133948,
				"element": "C" 
			},
			{
				"x": -0.8695322058,
				"y": 0.127768559,
				"z": -0.4831867479,
				"element": "C" 
			},
			{
				"x": -1.1564259654,
				"y": 0.012843918,
				"z": 2.7509539229,
				"element": "H" 
			},
			{
				"x": -2.0767719031,
				"y": 1.4131233041,
				"z": 2.2454541533,
				"element": "H" 
			},
			{
				"x": -2.4756708327,
				"y": -0.1850216922,
				"z": 1.5747558758,
				"element": "H" 
			},
			{
				"x": 1.775014098,
				"y": 3.270554098,
				"z": 3.4103437832,
				"element": "H" 
			},
			{
				"x": 3.4968282111,
				"y": 3.7729699011,
				"z": 1.6689489515,
				"element": "H" 
			},
			{
				"x": 3.2340186194,
				"y": 2.7785652354,
				"z": -0.6079193697,
				"element": "H" 
			},
			{
				"x": -0.1381944656,
				"y": -0.1233726172,
				"z": -2.5101327115,
				"element": "H" 
			},
			{
				"x": -1.7346316081,
				"y": -0.5050699295,
				"z": -0.6616504494,
				"element": "H" 
			}
		],
		 "valence_orbital": [ 
			{
				"type": "occ",
				"energy": -0.29044,
				"method": "rhf"
			},
			{
				"type": "occ",
				"energy": -0.2903,
				"method": "rhf"
			},
			{
				"type": "occ",
				"energy": -0.25911,
				"method": "rhf"
			},
			{
				"type": "occ",
				"energy": -0.2589,
				"method": "rhf"
			},
			{
				"type": "occ",
				"energy": -0.22651,
				"method": "rhf"
			},
			{
				"type": "unocc",
				"energy": -0.05979,
				"method": "rhf"
			},
			{
				"type": "unocc",
				"energy": -0.02406,
				"method": "rhf"
			},
			{
				"type": "unocc",
				"energy": 0.00544,
				"method": "rhf"
			},
			{
				"type": "unocc",
				"energy": 0.01618,
				"method": "rhf"
			},
			{
				"type": "unocc",
				"energy": 0.08158,
				"method": "rhf"
			}
		],
		"cosmo_sigma_profile": { 
			"-0.025": 0.0,
			"-0.024": 0.0,
			"-0.023": 0.0,
			"-0.022": 0.0,
			"-0.021": 0.0,
			"-0.02": 0.0,
			"-0.019": 0.0,
			"-0.018": 0.0,
			"-0.017": 0.0,
			"-0.016": 0.0,
			"-0.015": 0.0,
			"-0.014": 0.0,
			"-0.013": 0.0,
			"-0.012": 0.0,
			"-0.011": 0.0,
			"-0.01": 0.0,
			"-0.009": 0.0,
			"-0.008": 0.306063502156,
			"-0.007": 5.48485771685,
			"-0.006": 11.3559155979,
			"-0.005": 11.4719736317,
			"-0.004": 13.4507775857,
			"-0.003": 13.1721602963,
			"-0.002": 13.330741986,
			"-0.001": 15.5937635155,
			"0.0": 22.6123683332,
			"0.001": 28.9751731608,
			"0.002": 28.7703770761,
			"0.003": 17.7749591284,
			"0.004": 12.0427217944,
			"0.005": 5.90408242725,
			"0.006": 1.18937582797,
			"0.007": 1.56329685065,
			"0.008": 1.29531816007,
			"0.009": 1.10469237938,
			"0.01": 1.02499028799,
			"0.011": 1.03639862561,
			"0.012": 0.527113578465,
			"0.013": 1.0203195627,
			"0.014": 0.34723798294,
			"0.015": 0.0,
			"0.016": 0.0,
			"0.017": 0.0,
			"0.018": 0.0,
			"0.019": 0.0,
			"0.02": 0.0,
			"0.021": 0.0,
			"0.022": 0.0,
			"0.023": 0.0,
			"0.024": 0.0,
			"0.025": 0.0
		}
	}
}
