{
	 "smiles": "OC(=O)C1=CC(NC2=CC=C(C=C2)C#N)=CC=C1", 
	 "Tm": 521.15, 
	 "num_atms": 28, 
	 "gaussian": { 
		 "optdone": 1, 
		 "sigma_profile": "yes", 
		 "theory": "DFT", 
		 "functional": "B3LYP", 
		 "basiset": "6-31G**", 
		 "properties": { 
			 "R2extent": 7731.6665, 
			 "electric_dipole_moment_norm": 9.02258443075, 
			 "electric_quadrupole_moment_norm": 26.1861947237, 
			 "total_energy": -799.463807579, 
			 "HOMO_LUMO_gap": 0.15782, 
			 "cosmo_polarized_energy": -25.09, 
			 "cosmo_cavitation_energy": 34.46, 
			 "cosmo_dispersion_energy": -24.32, 
			 "cosmo_repulsion_energy": 1.86, 
			 "cosmo_total_nonelectrostatic_energy": 12.0, 
			 "SMD_solvation_energy": 8.18 
		},
		"coords": [
			{
				"x": 0.6617407643,
				"y": 4.1921717988,
				"z": -4.312809617,
				"element": "O" 
			},
			{
				"x": 1.2565349607,
				"y": 3.2702818631,
				"z": -3.5110194351,
				"element": "C" 
			},
			{
				"x": 2.3272420098,
				"y": 2.8021544543,
				"z": -3.8181061111,
				"element": "O" 
			},
			{
				"x": 0.5143954741,
				"y": 2.8832196259,
				"z": -2.2629298292,
				"element": "C" 
			},
			{
				"x": 0.8863462789,
				"y": 1.6779917817,
				"z": -1.6583002475,
				"element": "C" 
			},
			{
				"x": 0.2418547672,
				"y": 1.2403879392,
				"z": -0.4933935096,
				"element": "C" 
			},
			{
				"x": 0.5803156482,
				"y": 0.0537045042,
				"z": 0.1662760098,
				"element": "N" 
			},
			{
				"x": 1.1461608379,
				"y": -1.1178931595,
				"z": -0.3298380133,
				"element": "C" 
			},
			{
				"x": 1.7283106744,
				"y": -2.0131330374,
				"z": 0.5907855263,
				"element": "C" 
			},
			{
				"x": 2.2698610586,
				"y": -3.2166945386,
				"z": 0.1695587181,
				"element": "C" 
			},
			{
				"x": 2.2556574937,
				"y": -3.5636461568,
				"z": -1.1935210147,
				"element": "C" 
			},
			{
				"x": 1.6703141271,
				"y": -2.6767721691,
				"z": -2.1130436826,
				"element": "C" 
			},
			{
				"x": 1.1172148875,
				"y": -1.4749945428,
				"z": -1.6917338591,
				"element": "C" 
			},
			{
				"x": 2.8202678605,
				"y": -4.8023558684,
				"z": -1.6333835841,
				"element": "C" 
			},
			{
				"x": 3.2776563279,
				"y": -5.8122973266,
				"z": -1.9882752425,
				"element": "N" 
			},
			{
				"x": -0.7520127173,
				"y": 2.0588771837,
				"z": 0.077930347,
				"element": "C" 
			},
			{
				"x": -1.0894092558,
				"y": 3.2757774228,
				"z": -0.5034147136,
				"element": "C" 
			},
			{
				"x": -0.4702847237,
				"y": 3.6933677784,
				"z": -1.6824459596,
				"element": "C" 
			},
			{
				"x": -0.247636401,
				"y": 4.3497908615,
				"z": -4.0235509014,
				"element": "H" 
			},
			{
				"x": 1.6986258654,
				"y": 1.1167305429,
				"z": -2.1023244481,
				"element": "H" 
			},
			{
				"x": 0.3740212589,
				"y": 0.0416020155,
				"z": 1.1543038963,
				"element": "H" 
			},
			{
				"x": 1.7592295642,
				"y": -1.7491050584,
				"z": 1.6446928528,
				"element": "H" 
			},
			{
				"x": 2.7159596262,
				"y": -3.8931632007,
				"z": 0.8908746368,
				"element": "H" 
			},
			{
				"x": 1.6390985052,
				"y": -2.9415979186,
				"z": -3.1646723758,
				"element": "H" 
			},
			{
				"x": 0.6418485832,
				"y": -0.8268164425,
				"z": -2.4168620935,
				"element": "H" 
			},
			{
				"x": -1.2566153424,
				"y": 1.7315173748,
				"z": 0.9834320673,
				"element": "H" 
			},
			{
				"x": -1.8441071102,
				"y": 3.9007989161,
				"z": -0.0360075984,
				"element": "H" 
			},
			{
				"x": -0.7260910234,
				"y": 4.6615953568,
				"z": -2.1037218184,
				"element": "H" 
			}
		],
		 "valence_orbital": [ 
			{
				"type": "occ",
				"energy": -0.28583,
				"method": "rhf"
			},
			{
				"type": "occ",
				"energy": -0.2783,
				"method": "rhf"
			},
			{
				"type": "occ",
				"energy": -0.27622,
				"method": "rhf"
			},
			{
				"type": "occ",
				"energy": -0.27421,
				"method": "rhf"
			},
			{
				"type": "occ",
				"energy": -0.2188,
				"method": "rhf"
			},
			{
				"type": "unocc",
				"energy": -0.06098,
				"method": "rhf"
			},
			{
				"type": "unocc",
				"energy": -0.04969,
				"method": "rhf"
			},
			{
				"type": "unocc",
				"energy": -0.02726,
				"method": "rhf"
			},
			{
				"type": "unocc",
				"energy": -0.01587,
				"method": "rhf"
			},
			{
				"type": "unocc",
				"energy": 0.03735,
				"method": "rhf"
			}
		],
		"cosmo_sigma_profile": { 
			"-0.025": 0.0,
			"-0.024": 0.0,
			"-0.023": 0.0,
			"-0.022": 0.0,
			"-0.021": 0.0,
			"-0.02": 0.0,
			"-0.019": 0.22502379579,
			"-0.018": 0.615084227697,
			"-0.017": 1.00120459126,
			"-0.016": 1.02753673267,
			"-0.015": 2.03841706444,
			"-0.014": 2.10472192615,
			"-0.013": 2.42079847557,
			"-0.012": 3.35350940605,
			"-0.011": 2.39953042115,
			"-0.01": 2.71781452741,
			"-0.009": 3.45110918412,
			"-0.008": 5.39172300614,
			"-0.007": 12.4334680554,
			"-0.006": 15.8077092514,
			"-0.005": 15.4689143238,
			"-0.004": 13.9001614916,
			"-0.003": 14.5742468359,
			"-0.002": 12.381352358,
			"-0.001": 13.9843127742,
			"0.0": 19.6284329003,
			"0.001": 18.7274555079,
			"0.002": 24.5335091236,
			"0.003": 25.6678510184,
			"0.004": 8.94647414509,
			"0.005": 4.63163591079,
			"0.006": 4.42825515404,
			"0.007": 5.34925176886,
			"0.008": 5.04831145485,
			"0.009": 7.58634872612,
			"0.01": 7.7094321834,
			"0.011": 8.62842878667,
			"0.012": 7.58394975627,
			"0.013": 3.68357060509,
			"0.014": 0.725889274839,
			"0.015": 0.0,
			"0.016": 0.0,
			"0.017": 0.0,
			"0.018": 0.0,
			"0.019": 0.0,
			"0.02": 0.0,
			"0.021": 0.0,
			"0.022": 0.0,
			"0.023": 0.0,
			"0.024": 0.0,
			"0.025": 0.0
		}
	}
}
