{
	 "smiles": "[O-][N+](=O)C(Br)C(Br)C1=CC(=CC=C1)C(Br)C(Br)[N+]([O-])=O", 
	 "Tm": 420.15, 
	 "num_atms": 28, 
	 "gaussian": { 
		 "optdone": 1, 
		 "sigma_profile": "yes", 
		 "theory": "DFT", 
		 "functional": "B3LYP", 
		 "basiset": "6-31G**", 
		 "properties": { 
			 "R2extent": 13720.0249, 
			 "electric_dipole_moment_norm": 3.8446189226, 
			 "electric_quadrupole_moment_norm": 9.73084663737, 
			 "total_energy": -11081.6714729, 
			 "HOMO_LUMO_gap": 0.16587, 
			 "cosmo_polarized_energy": -17.52, 
			 "cosmo_cavitation_energy": 42.02, 
			 "cosmo_dispersion_energy": -28.71, 
			 "cosmo_repulsion_energy": 2.22, 
			 "cosmo_total_nonelectrostatic_energy": 15.53, 
			 "SMD_solvation_energy": 6.18 
		},
		"coords": [
			{
				"x": -1.6198260962,
				"y": 2.1681070654,
				"z": -3.8957643369,
				"element": "O" 
			},
			{
				"x": -1.5352112343,
				"y": 1.351018324,
				"z": -2.9986991145,
				"element": "N" 
			},
			{
				"x": -1.2176429136,
				"y": 0.1694886142,
				"z": -3.1080549573,
				"element": "O" 
			},
			{
				"x": -1.7922954763,
				"y": 1.7822522969,
				"z": -1.5538667417,
				"element": "C" 
			},
			{
				"x": -3.0543137942,
				"y": 3.2603536928,
				"z": -1.4909108791,
				"element": "Br" 
			},
			{
				"x": -0.4816241393,
				"y": 2.0939223525,
				"z": -0.7960450181,
				"element": "C" 
			},
			{
				"x": 0.5831683821,
				"y": 3.4829391454,
				"z": -1.720246618,
				"element": "Br" 
			},
			{
				"x": 0.3308689035,
				"y": 0.86042474,
				"z": -0.4615077749,
				"element": "C" 
			},
			{
				"x": 0.1056455357,
				"y": 0.2640728198,
				"z": 0.7840707124,
				"element": "C" 
			},
			{
				"x": 0.7491914018,
				"y": -0.9275076512,
				"z": 1.144561755,
				"element": "C" 
			},
			{
				"x": 1.6580249627,
				"y": -1.5052238388,
				"z": 0.2527246286,
				"element": "C" 
			},
			{
				"x": 1.9073542101,
				"y": -0.8976216018,
				"z": -0.9772305429,
				"element": "C" 
			},
			{
				"x": 1.2464462203,
				"y": 0.2736943614,
				"z": -1.3410936964,
				"element": "C" 
			},
			{
				"x": 0.3669023533,
				"y": -1.5490302168,
				"z": 2.4663496145,
				"element": "C" 
			},
			{
				"x": 1.864102293,
				"y": -2.4561240685,
				"z": 3.3897227273,
				"element": "Br" 
			},
			{
				"x": -0.8256783933,
				"y": -2.5290166517,
				"z": 2.4060964421,
				"element": "C" 
			},
			{
				"x": -0.6048779527,
				"y": -4.0430064206,
				"z": 1.2247823128,
				"element": "Br" 
			},
			{
				"x": -2.0636166294,
				"y": -1.692621521,
				"z": 2.0160642211,
				"element": "N" 
			},
			{
				"x": -2.5831019443,
				"y": -1.8295805448,
				"z": 0.9260885703,
				"element": "O" 
			},
			{
				"x": -2.3934342128,
				"y": -0.8904759014,
				"z": 2.8882567992,
				"element": "O" 
			},
			{
				"x": -2.2748251366,
				"y": 0.9236547781,
				"z": -1.0895411099,
				"element": "H" 
			},
			{
				"x": -0.793969343,
				"y": 2.5796930717,
				"z": 0.1277594574,
				"element": "H" 
			},
			{
				"x": -0.5916842883,
				"y": 0.7259735864,
				"z": 1.4796394199,
				"element": "H" 
			},
			{
				"x": 2.1806584687,
				"y": -2.4135060654,
				"z": 0.5294846719,
				"element": "H" 
			},
			{
				"x": 2.6225872721,
				"y": -1.3438585915,
				"z": -1.6608315286,
				"element": "H" 
			},
			{
				"x": 1.4522212979,
				"y": 0.7392977701,
				"z": -2.2980358905,
				"element": "H" 
			},
			{
				"x": 0.0646913393,
				"y": -0.77404672,
				"z": 3.1712945666,
				"element": "H" 
			},
			{
				"x": -1.0548610861,
				"y": -2.9107728255,
				"z": 3.3982323095,
				"element": "H" 
			}
		],
		 "valence_orbital": [ 
			{
				"type": "occ",
				"energy": -0.29719,
				"method": "rhf"
			},
			{
				"type": "occ",
				"energy": -0.29362,
				"method": "rhf"
			},
			{
				"type": "occ",
				"energy": -0.29149,
				"method": "rhf"
			},
			{
				"type": "occ",
				"energy": -0.2794,
				"method": "rhf"
			},
			{
				"type": "occ",
				"energy": -0.26893,
				"method": "rhf"
			},
			{
				"type": "unocc",
				"energy": -0.10306,
				"method": "rhf"
			},
			{
				"type": "unocc",
				"energy": -0.08704,
				"method": "rhf"
			},
			{
				"type": "unocc",
				"energy": -0.06012,
				"method": "rhf"
			},
			{
				"type": "unocc",
				"energy": -0.04706,
				"method": "rhf"
			},
			{
				"type": "unocc",
				"energy": -0.03081,
				"method": "rhf"
			}
		],
		"cosmo_sigma_profile": { 
			"-0.025": 0.0,
			"-0.024": 0.0,
			"-0.023": 0.0,
			"-0.022": 0.0,
			"-0.021": 0.0,
			"-0.02": 0.0,
			"-0.019": 0.0,
			"-0.018": 0.0,
			"-0.017": 0.0,
			"-0.016": 0.0,
			"-0.015": 0.0,
			"-0.014": 0.0,
			"-0.013": 0.72115716261,
			"-0.012": 4.02987221594,
			"-0.011": 5.56863142816,
			"-0.01": 6.34098232442,
			"-0.009": 8.8839945057,
			"-0.008": 7.56224082628,
			"-0.007": 8.76593457884,
			"-0.006": 13.7964401264,
			"-0.005": 17.4514756333,
			"-0.004": 14.7451074153,
			"-0.003": 17.476059465,
			"-0.002": 15.3451536483,
			"-0.001": 18.3555107408,
			"0.0": 21.2053317471,
			"0.001": 23.5618450501,
			"0.002": 33.6501274222,
			"0.003": 37.850294192,
			"0.004": 28.3208319381,
			"0.005": 16.877055455,
			"0.006": 22.1646996307,
			"0.007": 16.4172458049,
			"0.008": 7.21631613754,
			"0.009": 1.06963046624,
			"0.01": 0.0,
			"0.011": 0.0,
			"0.012": 0.0,
			"0.013": 0.0,
			"0.014": 0.0,
			"0.015": 0.0,
			"0.016": 0.0,
			"0.017": 0.0,
			"0.018": 0.0,
			"0.019": 0.0,
			"0.02": 0.0,
			"0.021": 0.0,
			"0.022": 0.0,
			"0.023": 0.0,
			"0.024": 0.0,
			"0.025": 0.0
		}
	}
}
