{
	 "smiles": "OC1=CC=C(C=C1Cl)C1CCCCC1", 
	 "Tm": 313.65, 
	 "num_atms": 29, 
	 "gaussian": { 
		 "optdone": 1, 
		 "sigma_profile": "yes", 
		 "theory": "DFT", 
		 "functional": "B3LYP", 
		 "basiset": "6-31G**", 
		 "properties": { 
			 "R2extent": 4511.4347, 
			 "electric_dipole_moment_norm": 1.46343539318, 
			 "electric_quadrupole_moment_norm": 2.81192065855, 
			 "total_energy": -1001.74628498, 
			 "HOMO_LUMO_gap": 0.20917, 
			 "cosmo_polarized_energy": -5.51, 
			 "cosmo_cavitation_energy": 31.73, 
			 "cosmo_dispersion_energy": -23.47, 
			 "cosmo_repulsion_energy": 1.86, 
			 "cosmo_total_nonelectrostatic_energy": 10.12, 
			 "SMD_solvation_energy": 4.48 
		},
		"coords": [
			{
				"x": -1.3591381457,
				"y": -1.4726637713,
				"z": -4.2607191674,
				"element": "O" 
			},
			{
				"x": -1.0397500027,
				"y": -1.1398922266,
				"z": -2.9846150493,
				"element": "C" 
			},
			{
				"x": -0.224272114,
				"y": -2.0093707575,
				"z": -2.2496482626,
				"element": "C" 
			},
			{
				"x": 0.130627134,
				"y": -1.7096985788,
				"z": -0.9395982298,
				"element": "C" 
			},
			{
				"x": -0.3116170127,
				"y": -0.5364617518,
				"z": -0.3051515452,
				"element": "C" 
			},
			{
				"x": -1.1267404545,
				"y": 0.3299225102,
				"z": -1.03983881,
				"element": "C" 
			},
			{
				"x": -1.4800954874,
				"y": 0.0303050238,
				"z": -2.3536448783,
				"element": "C" 
			},
			{
				"x": -2.50916327,
				"y": 1.1391711737,
				"z": -3.267389972,
				"element": "Cl" 
			},
			{
				"x": 0.0670612688,
				"y": -0.2097749048,
				"z": 1.1294172426,
				"element": "C" 
			},
			{
				"x": 1.5963675876,
				"y": 0.0258040554,
				"z": 1.2999950709,
				"element": "C" 
			},
			{
				"x": 2.0764454273,
				"y": -0.1741817352,
				"z": 2.7574426558,
				"element": "C" 
			},
			{
				"x": 0.969369407,
				"y": 0.1690767254,
				"z": 3.7619805723,
				"element": "C" 
			},
			{
				"x": -0.2409442697,
				"y": -0.7810803514,
				"z": 3.5970998902,
				"element": "C" 
			},
			{
				"x": -0.4136592121,
				"y": -1.2738940797,
				"z": 2.1398682336,
				"element": "C" 
			},
			{
				"x": -1.9229550694,
				"y": -0.7767025015,
				"z": -4.6314555864,
				"element": "H" 
			},
			{
				"x": 0.1186198138,
				"y": -2.9177641299,
				"z": -2.7341953261,
				"element": "H" 
			},
			{
				"x": 0.765421444,
				"y": -2.4067560601,
				"z": -0.3999229238,
				"element": "H" 
			},
			{
				"x": -1.4939375025,
				"y": 1.2485494777,
				"z": -0.5929778057,
				"element": "H" 
			},
			{
				"x": -0.4466646003,
				"y": 0.7260002195,
				"z": 1.3873445351,
				"element": "H" 
			},
			{
				"x": 2.1469874253,
				"y": -0.6523798453,
				"z": 0.6381636312,
				"element": "H" 
			},
			{
				"x": 1.8332540401,
				"y": 1.0403457222,
				"z": 0.9579534726,
				"element": "H" 
			},
			{
				"x": 2.9708746556,
				"y": 0.4312718069,
				"z": 2.942101382,
				"element": "H" 
			},
			{
				"x": 2.3799468616,
				"y": -1.2183336033,
				"z": 2.9096403099,
				"element": "H" 
			},
			{
				"x": 0.6541791075,
				"y": 1.2086142522,
				"z": 3.6021207007,
				"element": "H" 
			},
			{
				"x": 1.3488913847,
				"y": 0.1221312657,
				"z": 4.7887291139,
				"element": "H" 
			},
			{
				"x": -1.1532407116,
				"y": -0.268724718,
				"z": 3.9250079675,
				"element": "H" 
			},
			{
				"x": -0.1245731619,
				"y": -1.649529547,
				"z": 4.2562861725,
				"element": "H" 
			},
			{
				"x": -1.4604081826,
				"y": -1.5323677173,
				"z": 1.947672086,
				"element": "H" 
			},
			{
				"x": 0.1610136398,
				"y": -2.1962159534,
				"z": 1.9851345197,
				"element": "H" 
			}
		],
		 "valence_orbital": [ 
			{
				"type": "occ",
				"energy": -0.30382,
				"method": "rhf"
			},
			{
				"type": "occ",
				"energy": -0.2986,
				"method": "rhf"
			},
			{
				"type": "occ",
				"energy": -0.29739,
				"method": "rhf"
			},
			{
				"type": "occ",
				"energy": -0.25069,
				"method": "rhf"
			},
			{
				"type": "occ",
				"energy": -0.22004,
				"method": "rhf"
			},
			{
				"type": "unocc",
				"energy": -0.01087,
				"method": "rhf"
			},
			{
				"type": "unocc",
				"energy": 0.00606,
				"method": "rhf"
			},
			{
				"type": "unocc",
				"energy": 0.02242,
				"method": "rhf"
			},
			{
				"type": "unocc",
				"energy": 0.0767,
				"method": "rhf"
			},
			{
				"type": "unocc",
				"energy": 0.09123,
				"method": "rhf"
			}
		],
		"cosmo_sigma_profile": { 
			"-0.025": 0.0,
			"-0.024": 0.0,
			"-0.023": 0.0,
			"-0.022": 0.0,
			"-0.021": 0.0,
			"-0.02": 0.0,
			"-0.019": 0.0,
			"-0.018": 0.0,
			"-0.017": 0.0,
			"-0.016": 0.0,
			"-0.015": 0.300501375124,
			"-0.014": 0.68168567436,
			"-0.013": 0.697873057804,
			"-0.012": 0.526691278195,
			"-0.011": 0.749332904528,
			"-0.01": 0.804338954136,
			"-0.009": 1.04697245621,
			"-0.008": 1.09315472972,
			"-0.007": 1.54111217422,
			"-0.006": 5.0754214935,
			"-0.005": 7.32360024485,
			"-0.004": 10.2644895915,
			"-0.003": 11.8319882279,
			"-0.002": 30.5551807225,
			"-0.001": 38.4483394223,
			"0.0": 34.015182207,
			"0.001": 32.2144682869,
			"0.002": 21.2351654701,
			"0.003": 17.104495424,
			"0.004": 17.0935288918,
			"0.005": 9.19250293909,
			"0.006": 1.05000621616,
			"0.007": 0.956042577188,
			"0.008": 1.8716086446,
			"0.009": 1.77102550049,
			"0.01": 1.44602012419,
			"0.011": 1.54497182785,
			"0.012": 0.00499884282139,
			"0.013": 0.0,
			"0.014": 0.0,
			"0.015": 0.0,
			"0.016": 0.0,
			"0.017": 0.0,
			"0.018": 0.0,
			"0.019": 0.0,
			"0.02": 0.0,
			"0.021": 0.0,
			"0.022": 0.0,
			"0.023": 0.0,
			"0.024": 0.0,
			"0.025": 0.0
		}
	}
}
