{
	 "smiles": "[O-][N+](=O)C1=CC=C(I)C=C1", 
	 "Tm": 447.15, 
	 "num_atms": 14, 
	 "gaussian": { 
		 "optdone": 1, 
		 "sigma_profile": "no", 
		 "theory": "DFT", 
		 "functional": "B3LYP", 
		 "basiset": "6-31G**", 
		 "properties": { 
			 "R2extent": 2084.1821, 
			 "electric_dipole_moment_norm": 3.16750756747, 
			 "electric_quadrupole_moment_norm": 12.549618989, 
			 "total_energy": -447.530388455, 
			 "HOMO_LUMO_gap": 0.16603, 
			 "cosmo_polarized_energy": -98713.75, 
			 "cosmo_cavitation_energy": 22.46, 
			 "cosmo_dispersion_energy": -18.1, 
			 "cosmo_repulsion_energy": 1.42, 
			 "cosmo_total_nonelectrostatic_energy": 5.79, 
			 "SMD_solvation_energy": 5.31 
		},
		"coords": [
			{
				"x": -1.3137001274,
				"y": -3.2233384532,
				"z": 2.2185938792,
				"element": "O" 
			},
			{
				"x": -1.3491184033,
				"y": -2.673648662,
				"z": 1.1185385247,
				"element": "N" 
			},
			{
				"x": -2.1505251559,
				"y": -2.9385430255,
				"z": 0.2234887685,
				"element": "O" 
			},
			{
				"x": -0.3575504167,
				"y": -1.6196033017,
				"z": 0.853085467,
				"element": "C" 
			},
			{
				"x": -0.3703694844,
				"y": -0.9770913205,
				"z": -0.3829520163,
				"element": "C" 
			},
			{
				"x": 0.5683154694,
				"y": 0.0208040243,
				"z": -0.633864913,
				"element": "C" 
			},
			{
				"x": 1.4987085555,
				"y": 0.354174892,
				"z": 0.3562188088,
				"element": "C" 
			},
			{
				"x": 2.9227984099,
				"y": 1.8686858898,
				"z": -0.0250235328,
				"element": "I" 
			},
			{
				"x": 1.5029456522,
				"y": -0.2972726102,
				"z": 1.5942147266,
				"element": "C" 
			},
			{
				"x": 0.5645217764,
				"y": -1.2952693915,
				"z": 1.8457404211,
				"element": "C" 
			},
			{
				"x": -1.1057583773,
				"y": -1.2619027333,
				"z": -1.1250878422,
				"element": "H" 
			},
			{
				"x": 0.5728148822,
				"y": 0.5310283985,
				"z": -1.5899136545,
				"element": "H" 
			},
			{
				"x": 2.227645297,
				"y": -0.0321544234,
				"z": 2.3550788067,
				"element": "H" 
			},
			{
				"x": 0.5373719224,
				"y": -1.8211692833,
				"z": 2.7919825563,
				"element": "H" 
			}
		],
		 "valence_orbital": [ 
			{
				"type": "occ",
				"energy": -0.31468,
				"method": "rhf"
			},
			{
				"type": "occ",
				"energy": -0.29925,
				"method": "rhf"
			},
			{
				"type": "occ",
				"energy": -0.29234,
				"method": "rhf"
			},
			{
				"type": "occ",
				"energy": -0.28644,
				"method": "rhf"
			},
			{
				"type": "occ",
				"energy": -0.26491,
				"method": "rhf"
			},
			{
				"type": "unocc",
				"energy": -0.09888,
				"method": "rhf"
			},
			{
				"type": "unocc",
				"energy": -0.05693,
				"method": "rhf"
			},
			{
				"type": "unocc",
				"energy": -0.0417,
				"method": "rhf"
			},
			{
				"type": "unocc",
				"energy": -0.01529,
				"method": "rhf"
			},
			{
				"type": "unocc",
				"energy": 0.03225,
				"method": "rhf"
			}
		],
		"cosmo_sigma_profile": { 
			"0.0": 0.0,
			"0.0": 0.0,
			"0.0": 0.0,
			"0.0": 0.0,
			"0.0": 0.0,
			"0.0": 0.0,
			"0.0": 0.0,
			"0.0": 0.0,
			"0.0": 0.0,
			"0.0": 0.0,
			"0.0": 0.0,
			"0.0": 0.0,
			"0.0": 0.0,
			"0.0": 0.0,
			"0.0": 0.0,
			"0.0": 0.0,
			"0.0": 0.0,
			"0.0": 0.0,
			"0.0": 0.0,
			"0.0": 0.0,
			"0.0": 0.0,
			"0.0": 0.0,
			"0.0": 0.0,
			"0.0": 0.0,
			"0.0": 0.0,
			"0.0": 0.0,
			"0.0": 0.0,
			"0.0": 0.0,
			"0.0": 0.0,
			"0.0": 0.0,
			"0.0": 0.0,
			"0.0": 0.0,
			"0.0": 0.0,
			"0.0": 0.0,
			"0.0": 0.0,
			"0.0": 0.0,
			"0.0": 0.0,
			"0.0": 0.0,
			"0.0": 0.0,
			"0.0": 0.0,
			"0.0": 0.0,
			"0.0": 0.0,
			"0.0": 0.0,
			"0.0": 0.0,
			"0.0": 0.0,
			"0.0": 0.0,
			"0.0": 0.0,
			"0.0": 0.0,
			"0.0": 0.0,
			"0.0": 0.0,
			"0.0": 0.0
		}
	}
}
