{
	 "smiles": "CC1=CC=C(OCC2=NC(CC(O)=O)=CS2)C=C1", 
	 "Tm": 419.15, 
	 "num_atms": 31, 
	 "gaussian": { 
		 "optdone": 1, 
		 "sigma_profile": "yes", 
		 "theory": "DFT", 
		 "functional": "B3LYP", 
		 "basiset": "6-31G**", 
		 "properties": { 
			 "R2extent": 9500.0476, 
			 "electric_dipole_moment_norm": 1.35463902572, 
			 "electric_quadrupole_moment_norm": 19.0074610877, 
			 "total_energy": -1181.83272249, 
			 "HOMO_LUMO_gap": 0.19516, 
			 "cosmo_polarized_energy": -13.04, 
			 "cosmo_cavitation_energy": 37.69, 
			 "cosmo_dispersion_energy": -28.0, 
			 "cosmo_repulsion_energy": 2.13, 
			 "cosmo_total_nonelectrostatic_energy": 11.82, 
			 "SMD_solvation_energy": 5.96 
		},
		"coords": [
			{
				"x": 0.3809460601,
				"y": 0.0858420628,
				"z": -7.3500447053,
				"element": "C" 
			},
			{
				"x": 0.2715241558,
				"y": 0.0922085186,
				"z": -5.8431557211,
				"element": "C" 
			},
			{
				"x": -0.5818134052,
				"y": 0.9957237642,
				"z": -5.1863391283,
				"element": "C" 
			},
			{
				"x": -0.6919552861,
				"y": 1.0146039426,
				"z": -3.8025402444,
				"element": "C" 
			},
			{
				"x": 0.0579439422,
				"y": 0.1181865324,
				"z": -3.0284108552,
				"element": "C" 
			},
			{
				"x": -0.1220299483,
				"y": 0.209630587,
				"z": -1.6714642514,
				"element": "O" 
			},
			{
				"x": 0.6554569815,
				"y": -0.623926633,
				"z": -0.8309134943,
				"element": "C" 
			},
			{
				"x": 0.3427802309,
				"y": -0.2726105693,
				"z": 0.5955095471,
				"element": "C" 
			},
			{
				"x": 0.6804411828,
				"y": -1.0239179478,
				"z": 1.6010593243,
				"element": "N" 
			},
			{
				"x": 0.3163346457,
				"y": -0.4454125664,
				"z": 2.8043239933,
				"element": "C" 
			},
			{
				"x": 0.6513180451,
				"y": -1.2304116873,
				"z": 4.043967713,
				"element": "C" 
			},
			{
				"x": 0.2771588196,
				"y": -0.621508894,
				"z": 5.3767591295,
				"element": "C" 
			},
			{
				"x": 0.6588237948,
				"y": -1.4402299801,
				"z": 6.3868291,
				"element": "O" 
			},
			{
				"x": -0.2818943671,
				"y": 0.434268138,
				"z": 5.581058624,
				"element": "O" 
			},
			{
				"x": -0.3101543754,
				"y": 0.7646240116,
				"z": 2.6979039577,
				"element": "C" 
			},
			{
				"x": -0.4620709276,
				"y": 1.2201380708,
				"z": 1.0322347642,
				"element": "S" 
			},
			{
				"x": 0.911525146,
				"y": -0.7912682966,
				"z": -3.6558561377,
				"element": "C" 
			},
			{
				"x": 1.0074127607,
				"y": -0.7917058978,
				"z": -5.0525630026,
				"element": "C" 
			},
			{
				"x": 0.7316802467,
				"y": 1.0519250473,
				"z": -7.7319259619,
				"element": "H" 
			},
			{
				"x": 1.0809025152,
				"y": -0.6803293563,
				"z": -7.6951451932,
				"element": "H" 
			},
			{
				"x": -0.5881423223,
				"y": -0.1126220377,
				"z": -7.8228207847,
				"element": "H" 
			},
			{
				"x": -1.1701827391,
				"y": 1.6981990374,
				"z": -5.7720244556,
				"element": "H" 
			},
			{
				"x": -1.3507406498,
				"y": 1.7134737204,
				"z": -3.2973054897,
				"element": "H" 
			},
			{
				"x": 0.4307744377,
				"y": -1.68675647,
				"z": -0.994799615,
				"element": "H" 
			},
			{
				"x": 1.72844253,
				"y": -0.4737824742,
				"z": -1.0243225124,
				"element": "H" 
			},
			{
				"x": 0.1812058936,
				"y": -2.2210551726,
				"z": 3.9927709136,
				"element": "H" 
			},
			{
				"x": 1.7281549999,
				"y": -1.4407127297,
				"z": 4.0686823953,
				"element": "H" 
			},
			{
				"x": 0.3903395255,
				"y": -0.9970383418,
				"z": 7.2091289484,
				"element": "H" 
			},
			{
				"x": -0.688717602,
				"y": 1.3820651224,
				"z": 3.4966650608,
				"element": "H" 
			},
			{
				"x": 1.4985001462,
				"y": -1.4998939636,
				"z": -3.0832442384,
				"element": "H" 
			},
			{
				"x": 1.6756355629,
				"y": -1.5048055369,
				"z": -5.5290176802,
				"element": "H" 
			}
		],
		 "valence_orbital": [ 
			{
				"type": "occ",
				"energy": -0.27772,
				"method": "rhf"
			},
			{
				"type": "occ",
				"energy": -0.27551,
				"method": "rhf"
			},
			{
				"type": "occ",
				"energy": -0.25063,
				"method": "rhf"
			},
			{
				"type": "occ",
				"energy": -0.23589,
				"method": "rhf"
			},
			{
				"type": "occ",
				"energy": -0.21673,
				"method": "rhf"
			},
			{
				"type": "unocc",
				"energy": -0.02157,
				"method": "rhf"
			},
			{
				"type": "unocc",
				"energy": -0.00136,
				"method": "rhf"
			},
			{
				"type": "unocc",
				"energy": 0.00238,
				"method": "rhf"
			},
			{
				"type": "unocc",
				"energy": 0.01215,
				"method": "rhf"
			},
			{
				"type": "unocc",
				"energy": 0.03092,
				"method": "rhf"
			}
		],
		"cosmo_sigma_profile": { 
			"-0.025": 0.0,
			"-0.024": 0.0,
			"-0.023": 0.0,
			"-0.022": 0.0,
			"-0.021": 0.0,
			"-0.02": 0.0,
			"-0.019": 0.0355331562401,
			"-0.018": 0.981050295681,
			"-0.017": 0.563705691538,
			"-0.016": 0.984549279592,
			"-0.015": 1.18720949124,
			"-0.014": 0.601736375714,
			"-0.013": 0.250005023208,
			"-0.012": 0.664388347828,
			"-0.011": 1.00015295423,
			"-0.01": 0.7208857855,
			"-0.009": 0.601187913823,
			"-0.008": 2.39729680886,
			"-0.007": 13.7935441671,
			"-0.006": 14.3715589159,
			"-0.005": 16.6490747923,
			"-0.004": 20.7233671346,
			"-0.003": 22.396375283,
			"-0.002": 20.2262605196,
			"-0.001": 20.1521451968,
			"0.0": 21.1232533659,
			"0.001": 22.4804702685,
			"0.002": 24.7642101551,
			"0.003": 24.315648698,
			"0.004": 18.6463856437,
			"0.005": 16.8063587359,
			"0.006": 11.6673696107,
			"0.007": 5.52826638521,
			"0.008": 4.19254614474,
			"0.009": 3.92690394488,
			"0.01": 3.77693811363,
			"0.011": 3.50292118416,
			"0.012": 1.5895191888,
			"0.013": 0.612661570573,
			"0.014": 0.814133924014,
			"0.015": 0.143728249513,
			"0.016": 0.0,
			"0.017": 0.0,
			"0.018": 0.0,
			"0.019": 0.0,
			"0.02": 0.0,
			"0.021": 0.0,
			"0.022": 0.0,
			"0.023": 0.0,
			"0.024": 0.0,
			"0.025": 0.0
		}
	}
}
