{
	 "smiles": "CCC1=CC=CC=N1", 
	 "Tm": 210.15, 
	 "num_atms": 17, 
	 "gaussian": { 
		 "optdone": 1, 
		 "sigma_profile": "yes", 
		 "theory": "DFT", 
		 "functional": "B3LYP", 
		 "basiset": "6-31G**", 
		 "properties": { 
			 "R2extent": 1260.9821, 
			 "electric_dipole_moment_norm": 1.74259096176, 
			 "electric_quadrupole_moment_norm": 5.76954561209, 
			 "total_energy": -326.92579587, 
			 "HOMO_LUMO_gap": 0.22734, 
			 "cosmo_polarized_energy": -5.26, 
			 "cosmo_cavitation_energy": 20.17, 
			 "cosmo_dispersion_energy": -14.97, 
			 "cosmo_repulsion_energy": 1.26, 
			 "cosmo_total_nonelectrostatic_energy": 6.46, 
			 "SMD_solvation_energy": 2.41 
		},
		"coords": [
			{
				"x": -0.0129349618,
				"y": -0.8780909385,
				"z": -2.4070647361,
				"element": "C" 
			},
			{
				"x": 0.2402899434,
				"y": -1.8732603317,
				"z": -1.2627868676,
				"element": "C" 
			},
			{
				"x": -0.1911728207,
				"y": -1.3288357585,
				"z": 0.0815574253,
				"element": "C" 
			},
			{
				"x": 0.7362633256,
				"y": -1.0085333212,
				"z": 1.081823115,
				"element": "C" 
			},
			{
				"x": 0.2807048436,
				"y": -0.494646116,
				"z": 2.2949415854,
				"element": "C" 
			},
			{
				"x": -1.0893706982,
				"y": -0.3142414268,
				"z": 2.4746246141,
				"element": "C" 
			},
			{
				"x": -1.9383392844,
				"y": -0.6604068314,
				"z": 1.4218671699,
				"element": "C" 
			},
			{
				"x": -1.5137163773,
				"y": -1.1541490377,
				"z": 0.2545837824,
				"element": "N" 
			},
			{
				"x": -1.0698758959,
				"y": -0.5995664656,
				"z": -2.4347209902,
				"element": "H" 
			},
			{
				"x": 0.5753560203,
				"y": 0.036069129,
				"z": -2.2736897227,
				"element": "H" 
			},
			{
				"x": 0.2560326303,
				"y": -1.3166744724,
				"z": -3.3733369874,
				"element": "H" 
			},
			{
				"x": 1.3010522403,
				"y": -2.1461913549,
				"z": -1.2272208355,
				"element": "H" 
			},
			{
				"x": -0.3244121184,
				"y": -2.7926162448,
				"z": -1.457664651,
				"element": "H" 
			},
			{
				"x": 1.797080231,
				"y": -1.1632084726,
				"z": 0.9077168236,
				"element": "H" 
			},
			{
				"x": 0.9829583781,
				"y": -0.2413485794,
				"z": 3.084463547,
				"element": "H" 
			},
			{
				"x": -1.4934114947,
				"y": 0.081044883,
				"z": 3.4012548052,
				"element": "H" 
			},
			{
				"x": -3.0158039614,
				"y": -0.5365446604,
				"z": 1.5236519226,
				"element": "H" 
			}
		],
		 "valence_orbital": [ 
			{
				"type": "occ",
				"energy": -0.34043,
				"method": "rhf"
			},
			{
				"type": "occ",
				"energy": -0.33813,
				"method": "rhf"
			},
			{
				"type": "occ",
				"energy": -0.28046,
				"method": "rhf"
			},
			{
				"type": "occ",
				"energy": -0.2504,
				"method": "rhf"
			},
			{
				"type": "occ",
				"energy": -0.24769,
				"method": "rhf"
			},
			{
				"type": "unocc",
				"energy": -0.02035,
				"method": "rhf"
			},
			{
				"type": "unocc",
				"energy": -0.00477,
				"method": "rhf"
			},
			{
				"type": "unocc",
				"energy": 0.0953,
				"method": "rhf"
			},
			{
				"type": "unocc",
				"energy": 0.11791,
				"method": "rhf"
			},
			{
				"type": "unocc",
				"energy": 0.13667,
				"method": "rhf"
			}
		],
		"cosmo_sigma_profile": { 
			"-0.025": 0.0,
			"-0.024": 0.0,
			"-0.023": 0.0,
			"-0.022": 0.0,
			"-0.021": 0.0,
			"-0.02": 0.0,
			"-0.019": 0.0,
			"-0.018": 0.0,
			"-0.017": 0.0,
			"-0.016": 0.0,
			"-0.015": 0.0,
			"-0.014": 0.0,
			"-0.013": 0.0,
			"-0.012": 0.0,
			"-0.011": 0.0,
			"-0.01": 0.0,
			"-0.009": 0.0,
			"-0.008": 0.0,
			"-0.007": 1.72030576081,
			"-0.006": 8.04217689287,
			"-0.005": 10.1162009554,
			"-0.004": 11.4527283293,
			"-0.003": 13.3313486157,
			"-0.002": 15.4731453547,
			"-0.001": 17.3161994371,
			"0.0": 17.4919540115,
			"0.001": 16.6335202517,
			"0.002": 11.381243712,
			"0.003": 14.2847786692,
			"0.004": 8.34413069781,
			"0.005": 2.43462260393,
			"0.006": 1.48781199414,
			"0.007": 1.71803965443,
			"0.008": 1.69603668487,
			"0.009": 1.3087722544,
			"0.01": 0.676377187628,
			"0.011": 1.15899334758,
			"0.012": 0.655738923561,
			"0.013": 0.828138637011,
			"0.014": 0.698284181676,
			"0.015": 0.633587182551,
			"0.016": 0.643161819846,
			"0.017": 0.190557006421,
			"0.018": 0.0,
			"0.019": 0.0,
			"0.02": 0.0,
			"0.021": 0.0,
			"0.022": 0.0,
			"0.023": 0.0,
			"0.024": 0.0,
			"0.025": 0.0
		}
	}
}
