{
	 "smiles": "COC1=CC(=CC=C1)C1=CSC(=O)N1", 
	 "Tm": 428.15, 
	 "num_atms": 23, 
	 "gaussian": { 
		 "optdone": 1, 
		 "sigma_profile": "yes", 
		 "theory": "DFT", 
		 "functional": "B3LYP", 
		 "basiset": "6-31G**", 
		 "properties": { 
			 "R2extent": 4415.0301, 
			 "electric_dipole_moment_norm": 4.66965865241, 
			 "electric_quadrupole_moment_norm": 24.1037924182, 
			 "total_energy": -989.871846309, 
			 "HOMO_LUMO_gap": 0.16894, 
			 "cosmo_polarized_energy": -13.58, 
			 "cosmo_cavitation_energy": 29.22, 
			 "cosmo_dispersion_energy": -21.97, 
			 "cosmo_repulsion_energy": 1.67, 
			 "cosmo_total_nonelectrostatic_energy": 8.92, 
			 "SMD_solvation_energy": 6.46 
		},
		"coords": [
			{
				"x": -3.1920123223,
				"y": 1.7870166574,
				"z": 1.5260988865,
				"element": "C" 
			},
			{
				"x": -3.1352346169,
				"y": 0.3962316413,
				"z": 1.2464296225,
				"element": "O" 
			},
			{
				"x": -2.0935074526,
				"y": -0.075858645,
				"z": 0.5061848591,
				"element": "C" 
			},
			{
				"x": -1.0558916608,
				"y": 0.7152261153,
				"z": 0.007972924,
				"element": "C" 
			},
			{
				"x": -0.0217136935,
				"y": 0.1299732642,
				"z": -0.7465382622,
				"element": "C" 
			},
			{
				"x": -0.0325044773,
				"y": -1.2518232393,
				"z": -0.9808546426,
				"element": "C" 
			},
			{
				"x": -1.0707604229,
				"y": -2.0346271922,
				"z": -0.4681932691,
				"element": "C" 
			},
			{
				"x": -2.0975326483,
				"y": -1.4606035601,
				"z": 0.2691969245,
				"element": "C" 
			},
			{
				"x": 1.052569781,
				"y": 0.9786857042,
				"z": -1.2849322971,
				"element": "C" 
			},
			{
				"x": 0.9697148886,
				"y": 2.2688992914,
				"z": -1.6895813367,
				"element": "C" 
			},
			{
				"x": 2.4959860138,
				"y": 2.8822271244,
				"z": -2.3023155144,
				"element": "S" 
			},
			{
				"x": 3.3095770639,
				"y": 1.287776929,
				"z": -1.9766321958,
				"element": "C" 
			},
			{
				"x": 4.4753915414,
				"y": 1.0208096394,
				"z": -2.1635963952,
				"element": "O" 
			},
			{
				"x": 2.3356628256,
				"y": 0.4529029176,
				"z": -1.4629166167,
				"element": "N" 
			},
			{
				"x": -2.3256783701,
				"y": 2.1175656782,
				"z": 2.1131738,
				"element": "H" 
			},
			{
				"x": -4.1002792757,
				"y": 1.9390445883,
				"z": 2.1107624492,
				"element": "H" 
			},
			{
				"x": -3.2511307899,
				"y": 2.3823807512,
				"z": 0.6059706029,
				"element": "H" 
			},
			{
				"x": -1.0150913022,
				"y": 1.7766679552,
				"z": 0.217818835,
				"element": "H" 
			},
			{
				"x": 0.7382644902,
				"y": -1.7118393211,
				"z": -1.5912966808,
				"element": "H" 
			},
			{
				"x": -1.0798780763,
				"y": -3.1042530084,
				"z": -0.6557890876,
				"element": "H" 
			},
			{
				"x": -2.9090929301,
				"y": -2.0544569038,
				"z": 0.6757830902,
				"element": "H" 
			},
			{
				"x": 0.0760383697,
				"y": 2.8737580334,
				"z": -1.7180610526,
				"element": "H" 
			},
			{
				"x": 2.6144030646,
				"y": -0.4534044205,
				"z": -1.1140846431,
				"element": "H" 
			}
		],
		 "valence_orbital": [ 
			{
				"type": "occ",
				"energy": -0.29838,
				"method": "rhf"
			},
			{
				"type": "occ",
				"energy": -0.2712,
				"method": "rhf"
			},
			{
				"type": "occ",
				"energy": -0.26803,
				"method": "rhf"
			},
			{
				"type": "occ",
				"energy": -0.23648,
				"method": "rhf"
			},
			{
				"type": "occ",
				"energy": -0.2086,
				"method": "rhf"
			},
			{
				"type": "unocc",
				"energy": -0.03966,
				"method": "rhf"
			},
			{
				"type": "unocc",
				"energy": -0.00659,
				"method": "rhf"
			},
			{
				"type": "unocc",
				"energy": 0.0136,
				"method": "rhf"
			},
			{
				"type": "unocc",
				"energy": 0.01882,
				"method": "rhf"
			},
			{
				"type": "unocc",
				"energy": 0.05233,
				"method": "rhf"
			}
		],
		"cosmo_sigma_profile": { 
			"-0.025": 0.0,
			"-0.024": 0.0,
			"-0.023": 0.0,
			"-0.022": 0.0,
			"-0.021": 0.0,
			"-0.02": 0.0,
			"-0.019": 0.0,
			"-0.018": 0.0,
			"-0.017": 0.0235090886828,
			"-0.016": 0.769176851379,
			"-0.015": 0.805480133938,
			"-0.014": 1.10560482147,
			"-0.013": 1.05908283983,
			"-0.012": 0.899827618827,
			"-0.011": 1.56068384558,
			"-0.01": 0.917188320235,
			"-0.009": 2.52824429189,
			"-0.008": 3.2283717681,
			"-0.007": 6.30416822635,
			"-0.006": 13.3968987313,
			"-0.005": 17.8150260291,
			"-0.004": 16.642258256,
			"-0.003": 15.9669460009,
			"-0.002": 12.2724656883,
			"-0.001": 13.5475721318,
			"0.0": 15.4125445108,
			"0.001": 17.7429646609,
			"0.002": 17.1799385153,
			"0.003": 21.8957681216,
			"0.004": 17.7792507279,
			"0.005": 11.2590164816,
			"0.006": 2.80542283833,
			"0.007": 3.18953057024,
			"0.008": 2.59581492517,
			"0.009": 2.86413339533,
			"0.01": 3.04142055921,
			"0.011": 2.67782008017,
			"0.012": 6.78718239451,
			"0.013": 2.20240516152,
			"0.014": 0.000952368670983,
			"0.015": 0.0,
			"0.016": 0.0,
			"0.017": 0.0,
			"0.018": 0.0,
			"0.019": 0.0,
			"0.02": 0.0,
			"0.021": 0.0,
			"0.022": 0.0,
			"0.023": 0.0,
			"0.024": 0.0,
			"0.025": 0.0
		}
	}
}
