{
	 "smiles": "CC1(C)C(O)C(C)(C)C1O", 
	 "Tm": 403.15, 
	 "num_atms": 26, 
	 "gaussian": { 
		 "optdone": 1, 
		 "sigma_profile": "yes", 
		 "theory": "DFT", 
		 "functional": "B3LYP", 
		 "basiset": "6-31G**", 
		 "properties": { 
			 "R2extent": 1471.3088, 
			 "electric_dipole_moment_norm": 1.82940820212, 
			 "electric_quadrupole_moment_norm": 6.30281639031, 
			 "total_energy": -464.9177151, 
			 "HOMO_LUMO_gap": 0.30001, 
			 "cosmo_polarized_energy": -9.74, 
			 "cosmo_cavitation_energy": 25.93, 
			 "cosmo_dispersion_energy": -18.31, 
			 "cosmo_repulsion_energy": 1.47, 
			 "cosmo_total_nonelectrostatic_energy": 9.09, 
			 "SMD_solvation_energy": 4.52 
		},
		"coords": [
			{
				"x": -1.0556445878,
				"y": -0.2342520051,
				"z": -1.6478331221,
				"element": "C" 
			},
			{
				"x": -0.5195600255,
				"y": 0.7562361635,
				"z": -0.6107251492,
				"element": "C" 
			},
			{
				"x": -1.1264132298,
				"y": 2.143463027,
				"z": -0.8328489031,
				"element": "C" 
			},
			{
				"x": 1.0439912066,
				"y": 0.7273880121,
				"z": -0.4574351289,
				"element": "C" 
			},
			{
				"x": 1.8088696923,
				"y": 0.0502708209,
				"z": -1.4388124412,
				"element": "O" 
			},
			{
				"x": 0.9302799828,
				"y": -0.0524761764,
				"z": 0.8886801866,
				"element": "C" 
			},
			{
				"x": 1.681094126,
				"y": 0.5753044676,
				"z": 2.0656622619,
				"element": "C" 
			},
			{
				"x": 1.2816771375,
				"y": -1.5400195475,
				"z": 0.7746688298,
				"element": "C" 
			},
			{
				"x": -0.6125912507,
				"y": 0.2353447062,
				"z": 0.866977396,
				"element": "C" 
			},
			{
				"x": -1.5194451186,
				"y": -0.7971944853,
				"z": 1.185911459,
				"element": "O" 
			},
			{
				"x": -2.1343654356,
				"y": -0.3698284482,
				"z": -1.5188195107,
				"element": "H" 
			},
			{
				"x": -0.5732131883,
				"y": -1.2136366901,
				"z": -1.5924612372,
				"element": "H" 
			},
			{
				"x": -0.885890885,
				"y": 0.1407208856,
				"z": -2.6631549897,
				"element": "H" 
			},
			{
				"x": -2.2179093658,
				"y": 2.1150188217,
				"z": -0.7349346619,
				"element": "H" 
			},
			{
				"x": -0.7473711267,
				"y": 2.8672151127,
				"z": -0.1021713593,
				"element": "H" 
			},
			{
				"x": -0.8931465665,
				"y": 2.5285280819,
				"z": -1.8336931386,
				"element": "H" 
			},
			{
				"x": 1.4411672356,
				"y": 1.7415145217,
				"z": -0.2954586682,
				"element": "H" 
			},
			{
				"x": 1.828784361,
				"y": 0.597035099,
				"z": -2.2345018629,
				"element": "H" 
			},
			{
				"x": 1.4396965837,
				"y": 1.6389966623,
				"z": 2.1728415841,
				"element": "H" 
			},
			{
				"x": 2.7660991282,
				"y": 0.4902762194,
				"z": 1.9331176294,
				"element": "H" 
			},
			{
				"x": 1.4174015998,
				"y": 0.0785149594,
				"z": 3.0065960042,
				"element": "H" 
			},
			{
				"x": 0.9736628303,
				"y": -2.0675623352,
				"z": 1.6835172072,
				"element": "H" 
			},
			{
				"x": 2.360985072,
				"y": -1.666001299,
				"z": 0.6523978047,
				"element": "H" 
			},
			{
				"x": 0.8141585348,
				"y": -2.0291398251,
				"z": -0.0844085316,
				"element": "H" 
			},
			{
				"x": -0.8683184238,
				"y": 1.0512089051,
				"z": 1.5519474877,
				"element": "H" 
			},
			{
				"x": -1.3135982866,
				"y": -1.5616256541,
				"z": 0.6329408536,
				"element": "H" 
			}
		],
		 "valence_orbital": [ 
			{
				"type": "occ",
				"energy": -0.33232,
				"method": "rhf"
			},
			{
				"type": "occ",
				"energy": -0.3097,
				"method": "rhf"
			},
			{
				"type": "occ",
				"energy": -0.28168,
				"method": "rhf"
			},
			{
				"type": "occ",
				"energy": -0.25111,
				"method": "rhf"
			},
			{
				"type": "occ",
				"energy": -0.24436,
				"method": "rhf"
			},
			{
				"type": "unocc",
				"energy": 0.05565,
				"method": "rhf"
			},
			{
				"type": "unocc",
				"energy": 0.08611,
				"method": "rhf"
			},
			{
				"type": "unocc",
				"energy": 0.09443,
				"method": "rhf"
			},
			{
				"type": "unocc",
				"energy": 0.11563,
				"method": "rhf"
			},
			{
				"type": "unocc",
				"energy": 0.12603,
				"method": "rhf"
			}
		],
		"cosmo_sigma_profile": { 
			"-0.025": 0.0,
			"-0.024": 0.0,
			"-0.023": 0.0,
			"-0.022": 0.0,
			"-0.021": 0.0,
			"-0.02": 0.0,
			"-0.019": 0.0,
			"-0.018": 0.0,
			"-0.017": 0.0,
			"-0.016": 0.0884674903323,
			"-0.015": 0.951160066834,
			"-0.014": 0.985442720576,
			"-0.013": 1.47742416318,
			"-0.012": 2.1394552068,
			"-0.011": 1.35768133312,
			"-0.01": 2.14351272629,
			"-0.009": 1.60757441148,
			"-0.008": 1.42611052647,
			"-0.007": 2.01346341327,
			"-0.006": 2.30039743947,
			"-0.005": 3.2559797758,
			"-0.004": 6.56665859652,
			"-0.003": 21.1804588001,
			"-0.002": 26.7445946288,
			"-0.001": 24.4528862855,
			"0.0": 23.9947809868,
			"0.001": 28.0877196328,
			"0.002": 13.080220375,
			"0.003": 3.04159722742,
			"0.004": 3.76264857609,
			"0.005": 2.22418726976,
			"0.006": 3.61147545759,
			"0.007": 2.32259126998,
			"0.008": 2.89245936966,
			"0.009": 2.43283276581,
			"0.01": 2.24258235239,
			"0.011": 3.04732345246,
			"0.012": 2.21978291328,
			"0.013": 3.93621948135,
			"0.014": 2.54962419291,
			"0.015": 0.548089026242,
			"0.016": 0.0,
			"0.017": 0.0,
			"0.018": 0.0,
			"0.019": 0.0,
			"0.02": 0.0,
			"0.021": 0.0,
			"0.022": 0.0,
			"0.023": 0.0,
			"0.024": 0.0,
			"0.025": 0.0
		}
	}
}
