{
	 "smiles": "CC1=C(C=CC(=C1)C(O)=O)S(N)(=O)=O", 
	 "Tm": 529.15, 
	 "num_atms": 23, 
	 "gaussian": { 
		 "optdone": 1, 
		 "sigma_profile": "yes", 
		 "theory": "DFT", 
		 "functional": "B3LYP", 
		 "basiset": "6-31G**", 
		 "properties": { 
			 "R2extent": 4020.8485, 
			 "electric_dipole_moment_norm": 6.09049719071, 
			 "electric_quadrupole_moment_norm": 27.450169982, 
			 "total_energy": -1064.04917654, 
			 "HOMO_LUMO_gap": 0.19903, 
			 "cosmo_polarized_energy": -27.83, 
			 "cosmo_cavitation_energy": 28.42, 
			 "cosmo_dispersion_energy": -21.48, 
			 "cosmo_repulsion_energy": 1.62, 
			 "cosmo_total_nonelectrostatic_energy": 8.56, 
			 "SMD_solvation_energy": 5.73 
		},
		"coords": [
			{
				"x": 0.0624182239,
				"y": -0.6022361632,
				"z": 1.6861558631,
				"element": "C" 
			},
			{
				"x": 0.3255876868,
				"y": -0.1831305622,
				"z": 0.2587601639,
				"element": "C" 
			},
			{
				"x": 0.4836924362,
				"y": -1.0893831287,
				"z": -0.8099861389,
				"element": "C" 
			},
			{
				"x": 0.7493254951,
				"y": -0.6485818367,
				"z": -2.1102982996,
				"element": "C" 
			},
			{
				"x": 0.8480756614,
				"y": 0.7117627913,
				"z": -2.3809456659,
				"element": "C" 
			},
			{
				"x": 0.6651929143,
				"y": 1.6377896854,
				"z": -1.3500361168,
				"element": "C" 
			},
			{
				"x": 0.4190277853,
				"y": 1.179472278,
				"z": -0.0495949128,
				"element": "C" 
			},
			{
				"x": 0.7858489031,
				"y": 3.0964435196,
				"z": -1.6925391965,
				"element": "C" 
			},
			{
				"x": 0.212975408,
				"y": 3.9790613474,
				"z": -0.8327929929,
				"element": "O" 
			},
			{
				"x": 1.3572462632,
				"y": 3.4935164838,
				"z": -2.6791150897,
				"element": "O" 
			},
			{
				"x": 0.4073964186,
				"y": -2.8870137793,
				"z": -0.5801829143,
				"element": "S" 
			},
			{
				"x": -1.1726085697,
				"y": -3.2661739768,
				"z": -0.1759989147,
				"element": "N" 
			},
			{
				"x": 1.2134731995,
				"y": -3.2360823206,
				"z": 0.5885260232,
				"element": "O" 
			},
			{
				"x": 0.6331729009,
				"y": -3.4865845394,
				"z": -1.8927258628,
				"element": "O" 
			},
			{
				"x": 0.7594240696,
				"y": -1.3770184881,
				"z": 2.0107722671,
				"element": "H" 
			},
			{
				"x": -0.9534048093,
				"y": -1.0019093697,
				"z": 1.803112444,
				"element": "H" 
			},
			{
				"x": 0.1456668004,
				"y": 0.2551683104,
				"z": 2.3580156092,
				"element": "H" 
			},
			{
				"x": 0.8861150083,
				"y": -1.3843996752,
				"z": -2.8942611729,
				"element": "H" 
			},
			{
				"x": 1.0679758822,
				"y": 1.0728261902,
				"z": -3.3793202052,
				"element": "H" 
			},
			{
				"x": 0.3391400217,
				"y": 1.8860371222,
				"z": 0.7736641118,
				"element": "H" 
			},
			{
				"x": -0.3394395083,
				"y": 3.5145746433,
				"z": -0.1891791863,
				"element": "H" 
			},
			{
				"x": -1.4533513722,
				"y": -2.9670804242,
				"z": 0.7506116163,
				"element": "H" 
			},
			{
				"x": -1.8458508189,
				"y": -3.0671581072,
				"z": -0.9078414291,
				"element": "H" 
			}
		],
		 "valence_orbital": [ 
			{
				"type": "occ",
				"energy": -0.31707,
				"method": "rhf"
			},
			{
				"type": "occ",
				"energy": -0.31403,
				"method": "rhf"
			},
			{
				"type": "occ",
				"energy": -0.29083,
				"method": "rhf"
			},
			{
				"type": "occ",
				"energy": -0.28647,
				"method": "rhf"
			},
			{
				"type": "occ",
				"energy": -0.27723,
				"method": "rhf"
			},
			{
				"type": "unocc",
				"energy": -0.0782,
				"method": "rhf"
			},
			{
				"type": "unocc",
				"energy": -0.04042,
				"method": "rhf"
			},
			{
				"type": "unocc",
				"energy": 0.01665,
				"method": "rhf"
			},
			{
				"type": "unocc",
				"energy": 0.03671,
				"method": "rhf"
			},
			{
				"type": "unocc",
				"energy": 0.04349,
				"method": "rhf"
			}
		],
		"cosmo_sigma_profile": { 
			"-0.025": 0.0,
			"-0.024": 0.0,
			"-0.023": 0.0,
			"-0.022": 0.0,
			"-0.021": 0.0,
			"-0.02": 0.0,
			"-0.019": 0.643171031979,
			"-0.018": 0.885511627595,
			"-0.017": 1.07840865846,
			"-0.016": 1.44347802369,
			"-0.015": 2.9302925018,
			"-0.014": 3.25017408095,
			"-0.013": 4.18618244044,
			"-0.012": 4.27078900182,
			"-0.011": 3.86326631678,
			"-0.01": 4.18606201684,
			"-0.009": 3.75202196418,
			"-0.008": 4.6117459692,
			"-0.007": 7.12615579488,
			"-0.006": 8.62946049308,
			"-0.005": 8.40513456881,
			"-0.004": 9.55800277401,
			"-0.003": 12.1021167323,
			"-0.002": 15.3869927203,
			"-0.001": 15.7714783222,
			"0.0": 12.5931658155,
			"0.001": 16.3472457205,
			"0.002": 8.4215899879,
			"0.003": 4.46480584112,
			"0.004": 5.30324300233,
			"0.005": 5.18684855026,
			"0.006": 5.10499982785,
			"0.007": 7.16472983711,
			"0.008": 7.72432157495,
			"0.009": 8.3171151858,
			"0.01": 12.7382621537,
			"0.011": 15.0891395029,
			"0.012": 5.46195782636,
			"0.013": 0.650935896394,
			"0.014": 0.0,
			"0.015": 0.0,
			"0.016": 0.0,
			"0.017": 0.0,
			"0.018": 0.0,
			"0.019": 0.0,
			"0.02": 0.0,
			"0.021": 0.0,
			"0.022": 0.0,
			"0.023": 0.0,
			"0.024": 0.0,
			"0.025": 0.0
		}
	}
}
