{
	 "smiles": "CNC(NC)=CC(=O)C1=C(C)C=CC=C1", 
	 "Tm": 480.15, 
	 "num_atms": 31, 
	 "gaussian": { 
		 "optdone": 1, 
		 "sigma_profile": "yes", 
		 "theory": "DFT", 
		 "functional": "B3LYP", 
		 "basiset": "6-31G**", 
		 "properties": { 
			 "R2extent": 3733.7941, 
			 "electric_dipole_moment_norm": 5.81939236776, 
			 "electric_quadrupole_moment_norm": 11.6540685269, 
			 "total_energy": -651.629851054, 
			 "HOMO_LUMO_gap": 0.16984, 
			 "cosmo_polarized_energy": -17.09, 
			 "cosmo_cavitation_energy": 33.21, 
			 "cosmo_dispersion_energy": -22.98, 
			 "cosmo_repulsion_energy": 1.81, 
			 "cosmo_total_nonelectrostatic_energy": 12.04, 
			 "SMD_solvation_energy": 5.78 
		},
		"coords": [
			{
				"x": -1.0436483219,
				"y": -0.0098578534,
				"z": -1.2533882158,
				"element": "C" 
			},
			{
				"x": -1.2559987504,
				"y": -1.1023294547,
				"z": -0.3231014888,
				"element": "N" 
			},
			{
				"x": -0.9839384183,
				"y": -1.1018257936,
				"z": 1.0184664953,
				"element": "C" 
			},
			{
				"x": -1.7658673919,
				"y": -2.0090338373,
				"z": 1.7367511266,
				"element": "N" 
			},
			{
				"x": -3.2268443504,
				"y": -2.0119835395,
				"z": 1.6334346174,
				"element": "C" 
			},
			{
				"x": -0.0647982439,
				"y": -0.3158795328,
				"z": 1.6807464573,
				"element": "C" 
			},
			{
				"x": 1.1232951066,
				"y": 0.3914972273,
				"z": 1.2156790896,
				"element": "C" 
			},
			{
				"x": 1.6020914825,
				"y": 1.3054870846,
				"z": 1.8968420265,
				"element": "O" 
			},
			{
				"x": 1.8582273827,
				"y": -0.0492778037,
				"z": -0.0299849893,
				"element": "C" 
			},
			{
				"x": 2.4953766411,
				"y": 0.8929597508,
				"z": -0.8729617166,
				"element": "C" 
			},
			{
				"x": 2.4283910417,
				"y": 2.3830295628,
				"z": -0.6285175203,
				"element": "C" 
			},
			{
				"x": 3.2111379973,
				"y": 0.4141190219,
				"z": -1.9778722538,
				"element": "C" 
			},
			{
				"x": 3.3342824629,
				"y": -0.9510353482,
				"z": -2.2412923328,
				"element": "C" 
			},
			{
				"x": 2.726635148,
				"y": -1.8758787483,
				"z": -1.3934245209,
				"element": "C" 
			},
			{
				"x": 1.9900816056,
				"y": -1.419171273,
				"z": -0.3014056465,
				"element": "C" 
			},
			{
				"x": -1.8971052923,
				"y": 0.0529481241,
				"z": -1.9377387016,
				"element": "H" 
			},
			{
				"x": -0.9813643013,
				"y": 0.9251146634,
				"z": -0.6918290861,
				"element": "H" 
			},
			{
				"x": -0.1261029852,
				"y": -0.1186097047,
				"z": -1.8399821815,
				"element": "H" 
			},
			{
				"x": -1.6522131958,
				"y": -1.9540445172,
				"z": -0.6911296631,
				"element": "H" 
			},
			{
				"x": -1.4357182092,
				"y": -2.1016877558,
				"z": 2.6884452979,
				"element": "H" 
			},
			{
				"x": -3.6907898968,
				"y": -1.1142380024,
				"z": 2.06824772,
				"element": "H" 
			},
			{
				"x": -3.6157081096,
				"y": -2.8922737689,
				"z": 2.151605887,
				"element": "H" 
			},
			{
				"x": -3.5369495411,
				"y": -2.0777548918,
				"z": 0.589272358,
				"element": "H" 
			},
			{
				"x": -0.2474476595,
				"y": -0.1635101743,
				"z": 2.7413205574,
				"element": "H" 
			},
			{
				"x": 1.4102239254,
				"y": 2.7187189786,
				"z": -0.4099741024,
				"element": "H" 
			},
			{
				"x": 3.0269811769,
				"y": 2.6599857983,
				"z": 0.2427023749,
				"element": "H" 
			},
			{
				"x": 2.7949806791,
				"y": 2.9303426573,
				"z": -1.5022031342,
				"element": "H" 
			},
			{
				"x": 3.6891374294,
				"y": 1.1311053175,
				"z": -2.641103949,
				"element": "H" 
			},
			{
				"x": 3.9062040593,
				"y": -1.2870483407,
				"z": -3.1020178003,
				"element": "H" 
			},
			{
				"x": 2.8259409193,
				"y": -2.9419857161,
				"z": -1.5775184104,
				"element": "H" 
			},
			{
				"x": 1.5182076097,
				"y": -2.13088213,
				"z": 0.3683317056,
				"element": "H" 
			}
		],
		 "valence_orbital": [ 
			{
				"type": "occ",
				"energy": -0.25267,
				"method": "rhf"
			},
			{
				"type": "occ",
				"energy": -0.23882,
				"method": "rhf"
			},
			{
				"type": "occ",
				"energy": -0.23215,
				"method": "rhf"
			},
			{
				"type": "occ",
				"energy": -0.21399,
				"method": "rhf"
			},
			{
				"type": "occ",
				"energy": -0.19952,
				"method": "rhf"
			},
			{
				"type": "unocc",
				"energy": -0.02968,
				"method": "rhf"
			},
			{
				"type": "unocc",
				"energy": 0.0097,
				"method": "rhf"
			},
			{
				"type": "unocc",
				"energy": 0.01584,
				"method": "rhf"
			},
			{
				"type": "unocc",
				"energy": 0.06499,
				"method": "rhf"
			},
			{
				"type": "unocc",
				"energy": 0.08495,
				"method": "rhf"
			}
		],
		"cosmo_sigma_profile": { 
			"-0.025": 0.0,
			"-0.024": 0.0,
			"-0.023": 0.0,
			"-0.022": 0.0,
			"-0.021": 0.0,
			"-0.02": 0.0,
			"-0.019": 0.0,
			"-0.018": 0.0,
			"-0.017": 0.0,
			"-0.016": 0.0,
			"-0.015": 0.0,
			"-0.014": 0.294250520841,
			"-0.013": 1.56683763327,
			"-0.012": 2.08197944469,
			"-0.011": 2.309236033,
			"-0.01": 1.79135267308,
			"-0.009": 2.15553066264,
			"-0.008": 3.64256773818,
			"-0.007": 2.74115680984,
			"-0.006": 5.18238365334,
			"-0.005": 16.1750455365,
			"-0.004": 21.0614902937,
			"-0.003": 27.6133748723,
			"-0.002": 28.0104906821,
			"-0.001": 24.5485571719,
			"0.0": 20.4057039025,
			"0.001": 19.7387071541,
			"0.002": 14.8475685902,
			"0.003": 12.3601724636,
			"0.004": 12.2025334767,
			"0.005": 11.1540504458,
			"0.006": 6.44437607621,
			"0.007": 2.73009853793,
			"0.008": 2.78620292736,
			"0.009": 2.39379989561,
			"0.01": 2.59053954102,
			"0.011": 1.86128498342,
			"0.012": 1.97030572197,
			"0.013": 2.10405241589,
			"0.014": 3.29608545499,
			"0.015": 3.61578755207,
			"0.016": 1.55582986707,
			"0.017": 0.0966714581431,
			"0.018": 0.0,
			"0.019": 0.0,
			"0.02": 0.0,
			"0.021": 0.0,
			"0.022": 0.0,
			"0.023": 0.0,
			"0.024": 0.0,
			"0.025": 0.0
		}
	}
}
