{
	 "smiles": "CC(CN)N1CCN(CC1)C1=CC=CC=C1", 
	 "Tm": 365.15, 
	 "num_atms": 37, 
	 "gaussian": { 
		 "optdone": 1, 
		 "sigma_profile": "yes", 
		 "theory": "DFT", 
		 "functional": "B3LYP", 
		 "basiset": "6-31G**", 
		 "properties": { 
			 "R2extent": 5402.6012, 
			 "electric_dipole_moment_norm": 1.45070260908, 
			 "electric_quadrupole_moment_norm": 14.8590180382, 
			 "total_energy": -672.26669394, 
			 "HOMO_LUMO_gap": 0.193, 
			 "cosmo_polarized_energy": -10.56, 
			 "cosmo_cavitation_energy": 36.14, 
			 "cosmo_dispersion_energy": -26.13, 
			 "cosmo_repulsion_energy": 2.01, 
			 "cosmo_total_nonelectrostatic_energy": 12.02, 
			 "SMD_solvation_energy": 1.59 
		},
		"coords": [
			{
				"x": -3.1127259866,
				"y": 2.2680064318,
				"z": -0.6245038112,
				"element": "C" 
			},
			{
				"x": -1.7304774167,
				"y": 2.7892762614,
				"z": -0.1823566625,
				"element": "C" 
			},
			{
				"x": -1.8310183185,
				"y": 3.87682079,
				"z": 0.9180018523,
				"element": "C" 
			},
			{
				"x": -2.3947542007,
				"y": 3.5292991503,
				"z": 2.2217841848,
				"element": "N" 
			},
			{
				"x": -0.7467944455,
				"y": 1.7458325596,
				"z": 0.1539666647,
				"element": "N" 
			},
			{
				"x": -1.1486670466,
				"y": 0.6866042804,
				"z": 1.0930097986,
				"element": "C" 
			},
			{
				"x": -1.176932504,
				"y": -0.7199706248,
				"z": 0.477974704,
				"element": "C" 
			},
			{
				"x": 0.1178754275,
				"y": -1.0412884235,
				"z": -0.1049924356,
				"element": "N" 
			},
			{
				"x": 0.8971082052,
				"y": 0.0767524314,
				"z": -0.625971245,
				"element": "C" 
			},
			{
				"x": -0.0218734759,
				"y": 1.2360482709,
				"z": -1.0078580057,
				"element": "C" 
			},
			{
				"x": 0.5625192866,
				"y": -2.3513700401,
				"z": -0.2216795712,
				"element": "C" 
			},
			{
				"x": -0.3147828585,
				"y": -3.4448810743,
				"z": -0.0409584765,
				"element": "C" 
			},
			{
				"x": 0.1454275018,
				"y": -4.7547996478,
				"z": -0.1531015017,
				"element": "C" 
			},
			{
				"x": 1.4800907446,
				"y": -5.0280743602,
				"z": -0.4561723947,
				"element": "C" 
			},
			{
				"x": 2.3534388866,
				"y": -3.955122461,
				"z": -0.6415814876,
				"element": "C" 
			},
			{
				"x": 1.9131873114,
				"y": -2.6390759711,
				"z": -0.5242068716,
				"element": "C" 
			},
			{
				"x": -3.7293895313,
				"y": 3.0903534431,
				"z": -1.0031383576,
				"element": "H" 
			},
			{
				"x": -3.019637819,
				"y": 1.5267557955,
				"z": -1.4245790426,
				"element": "H" 
			},
			{
				"x": -3.6649819851,
				"y": 1.800283632,
				"z": 0.1979790235,
				"element": "H" 
			},
			{
				"x": -1.2987658624,
				"y": 3.3120150779,
				"z": -1.0469042462,
				"element": "H" 
			},
			{
				"x": -2.4247985582,
				"y": 4.7067895563,
				"z": 0.5114515696,
				"element": "H" 
			},
			{
				"x": -0.8212565811,
				"y": 4.2643873624,
				"z": 1.090442081,
				"element": "H" 
			},
			{
				"x": -1.8177815349,
				"y": 2.8395891975,
				"z": 2.6927477852,
				"element": "H" 
			},
			{
				"x": -3.3281290445,
				"y": 3.1371718067,
				"z": 2.1319147142,
				"element": "H" 
			},
			{
				"x": -0.4557293658,
				"y": 0.6636446522,
				"z": 1.9476206795,
				"element": "H" 
			},
			{
				"x": -2.1397179856,
				"y": 0.9002673483,
				"z": 1.5006690969,
				"element": "H" 
			},
			{
				"x": -1.9951096181,
				"y": -0.7968936464,
				"z": -0.2580680293,
				"element": "H" 
			},
			{
				"x": -1.3985717672,
				"y": -1.4354083649,
				"z": 1.2774896545,
				"element": "H" 
			},
			{
				"x": 1.6498009762,
				"y": 0.4293828119,
				"z": 0.0980729265,
				"element": "H" 
			},
			{
				"x": 1.434521379,
				"y": -0.2454639331,
				"z": -1.5244232393,
				"element": "H" 
			},
			{
				"x": -0.6922979294,
				"y": 0.8905823703,
				"z": -1.8181337668,
				"element": "H" 
			},
			{
				"x": 0.5906865433,
				"y": 2.0436624803,
				"z": -1.4280037082,
				"element": "H" 
			},
			{
				"x": -1.3657214691,
				"y": -3.2728337516,
				"z": 0.16152487,
				"element": "H" 
			},
			{
				"x": -0.5580230494,
				"y": -5.5714516891,
				"z": -0.0121549236,
				"element": "H" 
			},
			{
				"x": 1.8308381013,
				"y": -6.0513244854,
				"z": -0.5456416562,
				"element": "H" 
			},
			{
				"x": 3.3999740047,
				"y": -4.1394757754,
				"z": -0.8704202128,
				"element": "H" 
			},
			{
				"x": 2.6282699857,
				"y": -1.8326914616,
				"z": -0.6406999593,
				"element": "H" 
			}
		],
		 "valence_orbital": [ 
			{
				"type": "occ",
				"energy": -0.27451,
				"method": "rhf"
			},
			{
				"type": "occ",
				"energy": -0.23775,
				"method": "rhf"
			},
			{
				"type": "occ",
				"energy": -0.23364,
				"method": "rhf"
			},
			{
				"type": "occ",
				"energy": -0.20302,
				"method": "rhf"
			},
			{
				"type": "occ",
				"energy": -0.1825,
				"method": "rhf"
			},
			{
				"type": "unocc",
				"energy": 0.0105,
				"method": "rhf"
			},
			{
				"type": "unocc",
				"energy": 0.02622,
				"method": "rhf"
			},
			{
				"type": "unocc",
				"energy": 0.06028,
				"method": "rhf"
			},
			{
				"type": "unocc",
				"energy": 0.08733,
				"method": "rhf"
			},
			{
				"type": "unocc",
				"energy": 0.09587,
				"method": "rhf"
			}
		],
		"cosmo_sigma_profile": { 
			"-0.025": 0.0,
			"-0.024": 0.0,
			"-0.023": 0.0,
			"-0.022": 0.0,
			"-0.021": 0.0,
			"-0.02": 0.0,
			"-0.019": 0.0,
			"-0.018": 0.0,
			"-0.017": 0.0,
			"-0.016": 0.0,
			"-0.015": 0.0,
			"-0.014": 0.0,
			"-0.013": 0.0,
			"-0.012": 0.0,
			"-0.011": 0.0,
			"-0.01": 0.0,
			"-0.009": 0.644417470068,
			"-0.008": 2.21948597351,
			"-0.007": 4.13513121815,
			"-0.006": 5.61611860501,
			"-0.005": 12.1072817325,
			"-0.004": 21.9165507484,
			"-0.003": 38.9554842521,
			"-0.002": 49.6152995639,
			"-0.001": 30.0084481191,
			"0.0": 21.218574059,
			"0.001": 16.4409574323,
			"0.002": 12.5412970421,
			"0.003": 9.07509305436,
			"0.004": 9.47981485345,
			"0.005": 10.5590246053,
			"0.006": 9.60764228767,
			"0.007": 9.8737151661,
			"0.008": 6.33494970022,
			"0.009": 1.32689661369,
			"0.01": 1.98250795634,
			"0.011": 1.14567688169,
			"0.012": 0.629735015594,
			"0.013": 1.00834087647,
			"0.014": 0.861980907146,
			"0.015": 1.16627949352,
			"0.016": 0.489114694603,
			"0.017": 0.677614141972,
			"0.018": 0.353024818529,
			"0.019": 0.816700318251,
			"0.02": 0.258881394095,
			"0.021": 0.0,
			"0.022": 0.0,
			"0.023": 0.0,
			"0.024": 0.0,
			"0.025": 0.0
		}
	}
}
