{
	 "smiles": "NNC(=O)C1=CC=CC=C1", 
	 "Tm": 388.15, 
	 "num_atms": 18, 
	 "gaussian": { 
		 "optdone": 1, 
		 "sigma_profile": "yes", 
		 "theory": "DFT", 
		 "functional": "B3LYP", 
		 "basiset": "6-31G**", 
		 "properties": { 
			 "R2extent": 2938.5108, 
			 "electric_dipole_moment_norm": 2.52258305116, 
			 "electric_quadrupole_moment_norm": 9.48173167254, 
			 "total_energy": -456.276435314, 
			 "HOMO_LUMO_gap": 0.21069, 
			 "cosmo_polarized_energy": -11.76, 
			 "cosmo_cavitation_energy": 22.17, 
			 "cosmo_dispersion_energy": -16.55, 
			 "cosmo_repulsion_energy": 1.35, 
			 "cosmo_total_nonelectrostatic_energy": 6.97, 
			 "SMD_solvation_energy": 4.9 
		},
		"coords": [
			{
				"x": 0.2534341882,
				"y": 1.9741670758,
				"z": 4.6030490369,
				"element": "N" 
			},
			{
				"x": 0.356469166,
				"y": 1.475434557,
				"z": 3.2836352203,
				"element": "N" 
			},
			{
				"x": 1.1996906367,
				"y": 2.0956608048,
				"z": 2.3880069811,
				"element": "C" 
			},
			{
				"x": 1.9679767105,
				"y": 2.9843170054,
				"z": 2.7463321488,
				"element": "O" 
			},
			{
				"x": 1.110583298,
				"y": 1.6252696534,
				"z": 0.9674677863,
				"element": "C" 
			},
			{
				"x": 1.5933055753,
				"y": 2.483222364,
				"z": -0.0296839671,
				"element": "C" 
			},
			{
				"x": 1.5356892404,
				"y": 2.1061434969,
				"z": -1.3692980242,
				"element": "C" 
			},
			{
				"x": 1.0061111224,
				"y": 0.8625810828,
				"z": -1.7244261403,
				"element": "C" 
			},
			{
				"x": 0.5409490425,
				"y": -0.0054902186,
				"z": -0.7344986602,
				"element": "C" 
			},
			{
				"x": 0.5934589447,
				"y": 0.3722258356,
				"z": 0.6072801095,
				"element": "C" 
			},
			{
				"x": 0.5357161039,
				"y": 2.9555089863,
				"z": 4.5581702045,
				"element": "H" 
			},
			{
				"x": 0.9778249361,
				"y": 1.5148194115,
				"z": 5.1544423678,
				"element": "H" 
			},
			{
				"x": -0.5035485174,
				"y": 1.0745650202,
				"z": 2.9366280985,
				"element": "H" 
			},
			{
				"x": 2.0105558288,
				"y": 3.4382504359,
				"z": 0.2713393433,
				"element": "H" 
			},
			{
				"x": 1.9055603417,
				"y": 2.7792525176,
				"z": -2.137249722,
				"element": "H" 
			},
			{
				"x": 0.9639587898,
				"y": 0.5671451292,
				"z": -2.7688860822,
				"element": "H" 
			},
			{
				"x": 0.1464913215,
				"y": -0.9803566315,
				"z": -1.0058207696,
				"element": "H" 
			},
			{
				"x": 0.2631732708,
				"y": -0.3239165263,
				"z": 1.3727120685,
				"element": "H" 
			}
		],
		 "valence_orbital": [ 
			{
				"type": "occ",
				"energy": -0.2901,
				"method": "rhf"
			},
			{
				"type": "occ",
				"energy": -0.26482,
				"method": "rhf"
			},
			{
				"type": "occ",
				"energy": -0.26231,
				"method": "rhf"
			},
			{
				"type": "occ",
				"energy": -0.25444,
				"method": "rhf"
			},
			{
				"type": "occ",
				"energy": -0.25018,
				"method": "rhf"
			},
			{
				"type": "unocc",
				"energy": -0.03949,
				"method": "rhf"
			},
			{
				"type": "unocc",
				"energy": -0.0115,
				"method": "rhf"
			},
			{
				"type": "unocc",
				"energy": 0.05382,
				"method": "rhf"
			},
			{
				"type": "unocc",
				"energy": 0.08388,
				"method": "rhf"
			},
			{
				"type": "unocc",
				"energy": 0.09386,
				"method": "rhf"
			}
		],
		"cosmo_sigma_profile": { 
			"-0.025": 0.0,
			"-0.024": 0.0,
			"-0.023": 0.0,
			"-0.022": 0.0,
			"-0.021": 0.0,
			"-0.02": 0.0,
			"-0.019": 0.0,
			"-0.018": 0.0,
			"-0.017": 0.0,
			"-0.016": 0.0,
			"-0.015": 0.0317049504302,
			"-0.014": 0.698051495555,
			"-0.013": 1.08133012034,
			"-0.012": 1.2881648813,
			"-0.011": 2.56376064162,
			"-0.01": 2.6761408848,
			"-0.009": 3.82644139611,
			"-0.008": 4.60234210388,
			"-0.007": 2.91170924305,
			"-0.006": 10.5035233298,
			"-0.005": 13.4994742336,
			"-0.004": 12.449794568,
			"-0.003": 10.6620998187,
			"-0.002": 10.0031111905,
			"-0.001": 8.81060006873,
			"0.0": 9.581924936,
			"0.001": 12.1176252283,
			"0.002": 10.9204196668,
			"0.003": 12.6727232496,
			"0.004": 14.4375514049,
			"0.005": 7.49478852798,
			"0.006": 1.70812044821,
			"0.007": 1.51852788275,
			"0.008": 1.99764677957,
			"0.009": 2.08416526282,
			"0.01": 2.52144568714,
			"0.011": 2.15136094434,
			"0.012": 3.15477842638,
			"0.013": 4.92373339838,
			"0.014": 1.83243207961,
			"0.015": 0.993246970242,
			"0.016": 0.376077981893,
			"0.017": 0.330270177748,
			"0.018": 0.0,
			"0.019": 0.0,
			"0.02": 0.0,
			"0.021": 0.0,
			"0.022": 0.0,
			"0.023": 0.0,
			"0.024": 0.0,
			"0.025": 0.0
		}
	}
}
