{
	 "smiles": "CC(Cl)(Cl)C(O)=O", 
	 "Tm": 268.15, 
	 "num_atms": 11, 
	 "gaussian": { 
		 "optdone": 1, 
		 "sigma_profile": "yes", 
		 "theory": "DFT", 
		 "functional": "B3LYP", 
		 "basiset": "6-31G**", 
		 "properties": { 
			 "R2extent": 1287.4778, 
			 "electric_dipole_moment_norm": 3.07485555596, 
			 "electric_quadrupole_moment_norm": 5.22925499761, 
			 "total_energy": -1187.5670451, 
			 "HOMO_LUMO_gap": 0.24986, 
			 "cosmo_polarized_energy": -9.79, 
			 "cosmo_cavitation_energy": 18.63, 
			 "cosmo_dispersion_energy": -13.84, 
			 "cosmo_repulsion_energy": 1.18, 
			 "cosmo_total_nonelectrostatic_energy": 5.98, 
			 "SMD_solvation_energy": 4.07 
		},
		"coords": [
			{
				"x": 0.3198122163,
				"y": -1.7750067144,
				"z": -0.867918324,
				"element": "C" 
			},
			{
				"x": 0.4026963134,
				"y": -1.0290180762,
				"z": 0.4580067273,
				"element": "C" 
			},
			{
				"x": -0.9694307627,
				"y": -1.5031298588,
				"z": 1.5143048253,
				"element": "Cl" 
			},
			{
				"x": 1.9750148724,
				"y": -1.4445484798,
				"z": 1.288060989,
				"element": "Cl" 
			},
			{
				"x": 0.405806562,
				"y": 0.5101982569,
				"z": 0.2981416516,
				"element": "C" 
			},
			{
				"x": 1.2293452271,
				"y": 0.8665396189,
				"z": -0.7088804458,
				"element": "O" 
			},
			{
				"x": -0.2225355362,
				"y": 1.2901626763,
				"z": 0.9644321424,
				"element": "O" 
			},
			{
				"x": 1.1633776524,
				"y": -1.4984609915,
				"z": -1.5017133332,
				"element": "H" 
			},
			{
				"x": -0.6129933683,
				"y": -1.5133256429,
				"z": -1.3756882155,
				"element": "H" 
			},
			{
				"x": 0.3345785313,
				"y": -2.8506659984,
				"z": -0.6865128085,
				"element": "H" 
			},
			{
				"x": 1.2207282921,
				"y": 1.8380552099,
				"z": -0.7393332087,
				"element": "H" 
			}
		],
		 "valence_orbital": [ 
			{
				"type": "occ",
				"energy": -0.33817,
				"method": "rhf"
			},
			{
				"type": "occ",
				"energy": -0.32912,
				"method": "rhf"
			},
			{
				"type": "occ",
				"energy": -0.31518,
				"method": "rhf"
			},
			{
				"type": "occ",
				"energy": -0.30829,
				"method": "rhf"
			},
			{
				"type": "occ",
				"energy": -0.29662,
				"method": "rhf"
			},
			{
				"type": "unocc",
				"energy": -0.04676,
				"method": "rhf"
			},
			{
				"type": "unocc",
				"energy": -0.00697,
				"method": "rhf"
			},
			{
				"type": "unocc",
				"energy": 0.03477,
				"method": "rhf"
			},
			{
				"type": "unocc",
				"energy": 0.06078,
				"method": "rhf"
			},
			{
				"type": "unocc",
				"energy": 0.11315,
				"method": "rhf"
			}
		],
		"cosmo_sigma_profile": { 
			"-0.025": 0.0,
			"-0.024": 0.0,
			"-0.023": 0.0,
			"-0.022": 0.0,
			"-0.021": 0.0,
			"-0.02": 0.438260762941,
			"-0.019": 0.808156753059,
			"-0.018": 1.00325699042,
			"-0.017": 0.987648296838,
			"-0.016": 1.06181157864,
			"-0.015": 1.01936646428,
			"-0.014": 0.199877815823,
			"-0.013": 0.496171688175,
			"-0.012": 0.709294250259,
			"-0.011": 0.7900510459,
			"-0.01": 0.796050557664,
			"-0.009": 1.85819788312,
			"-0.008": 1.87633235874,
			"-0.007": 2.94820972563,
			"-0.006": 5.50073702262,
			"-0.005": 6.95498455725,
			"-0.004": 7.49036195009,
			"-0.003": 10.9368713337,
			"-0.002": 10.7791854584,
			"-0.001": 8.07395614994,
			"0.0": 9.2350314599,
			"0.001": 9.50409154086,
			"0.002": 10.5294092283,
			"0.003": 14.9063867674,
			"0.004": 18.931496025,
			"0.005": 5.4889709278,
			"0.006": 3.00558611615,
			"0.007": 2.90544495957,
			"0.008": 2.07576058936,
			"0.009": 3.2098736544,
			"0.01": 5.17163561253,
			"0.011": 1.96853891007,
			"0.012": 0.143718357145,
			"0.013": 0.0,
			"0.014": 0.0,
			"0.015": 0.0,
			"0.016": 0.0,
			"0.017": 0.0,
			"0.018": 0.0,
			"0.019": 0.0,
			"0.02": 0.0,
			"0.021": 0.0,
			"0.022": 0.0,
			"0.023": 0.0,
			"0.024": 0.0,
			"0.025": 0.0
		}
	}
}
