{
	 "smiles": "O=C1C=CC(=O)N1C1(CCCC1)C#N", 
	 "Tm": 317.15, 
	 "num_atms": 24, 
	 "gaussian": { 
		 "optdone": 1, 
		 "sigma_profile": "yes", 
		 "theory": "DFT", 
		 "functional": "B3LYP", 
		 "basiset": "6-31G**", 
		 "properties": { 
			 "R2extent": 3028.7722, 
			 "electric_dipole_moment_norm": 4.4582156711, 
			 "electric_quadrupole_moment_norm": 22.2127140044, 
			 "total_energy": -647.015823697, 
			 "HOMO_LUMO_gap": 0.17264, 
			 "cosmo_polarized_energy": -13.7, 
			 "cosmo_cavitation_energy": 27.54, 
			 "cosmo_dispersion_energy": -19.23, 
			 "cosmo_repulsion_energy": 1.5, 
			 "cosmo_total_nonelectrostatic_energy": 9.81, 
			 "SMD_solvation_energy": 7.09 
		},
		"coords": [
			{
				"x": 1.7528632929,
				"y": 2.2460835809,
				"z": -0.7912721811,
				"element": "O" 
			},
			{
				"x": 1.3665360767,
				"y": 1.0958054985,
				"z": -0.7924261639,
				"element": "C" 
			},
			{
				"x": 2.2072749456,
				"y": -0.1142614217,
				"z": -0.5074778333,
				"element": "C" 
			},
			{
				"x": 1.4538727302,
				"y": -1.2093046847,
				"z": -0.6211488813,
				"element": "C" 
			},
			{
				"x": 0.0642109192,
				"y": -0.7935944494,
				"z": -0.9869350245,
				"element": "C" 
			},
			{
				"x": -0.8880788299,
				"y": -1.5113024213,
				"z": -1.2044630825,
				"element": "O" 
			},
			{
				"x": 0.0617043124,
				"y": 0.620467441,
				"z": -1.0421195051,
				"element": "N" 
			},
			{
				"x": -1.1411134692,
				"y": 1.3697076061,
				"z": -1.487202827,
				"element": "C" 
			},
			{
				"x": -0.9961231575,
				"y": 2.9125058099,
				"z": -1.3578506183,
				"element": "C" 
			},
			{
				"x": -1.2243886052,
				"y": 3.2106306493,
				"z": 0.1395435999,
				"element": "C" 
			},
			{
				"x": -2.0348685269,
				"y": 2.0021088869,
				"z": 0.6938009728,
				"element": "C" 
			},
			{
				"x": -2.3340878504,
				"y": 1.1058328193,
				"z": -0.5244184101,
				"element": "C" 
			},
			{
				"x": -1.4376840108,
				"y": 0.9869767293,
				"z": -2.8823572527,
				"element": "C" 
			},
			{
				"x": -1.6781442243,
				"y": 0.7273987862,
				"z": -3.9876993523,
				"element": "N" 
			},
			{
				"x": 3.2561057965,
				"y": -0.0175439845,
				"z": -0.2599525611,
				"element": "H" 
			},
			{
				"x": 1.719694609,
				"y": -2.2502876842,
				"z": -0.4942132987,
				"element": "H" 
			},
			{
				"x": -0.0513723379,
				"y": 3.2884800821,
				"z": -1.7428189123,
				"element": "H" 
			},
			{
				"x": -1.8052714722,
				"y": 3.3355466493,
				"z": -1.9613013175,
				"element": "H" 
			},
			{
				"x": -1.7570540672,
				"y": 4.1572545158,
				"z": 0.2658882716,
				"element": "H" 
			},
			{
				"x": -0.264955787,
				"y": 3.3101045123,
				"z": 0.6531686949,
				"element": "H" 
			},
			{
				"x": -1.4452420736,
				"y": 1.4518845547,
				"z": 1.4337943846,
				"element": "H" 
			},
			{
				"x": -2.9590796957,
				"y": 2.3076949528,
				"z": 1.1917342467,
				"element": "H" 
			},
			{
				"x": -3.2420613364,
				"y": 1.4395836862,
				"z": -1.0376423309,
				"element": "H" 
			},
			{
				"x": -2.4541372382,
				"y": 0.0479278851,
				"z": -0.2948306179,
				"element": "H" 
			}
		],
		 "valence_orbital": [ 
			{
				"type": "occ",
				"energy": -0.32013,
				"method": "rhf"
			},
			{
				"type": "occ",
				"energy": -0.31782,
				"method": "rhf"
			},
			{
				"type": "occ",
				"energy": -0.30467,
				"method": "rhf"
			},
			{
				"type": "occ",
				"energy": -0.29477,
				"method": "rhf"
			},
			{
				"type": "occ",
				"energy": -0.28117,
				"method": "rhf"
			},
			{
				"type": "unocc",
				"energy": -0.10853,
				"method": "rhf"
			},
			{
				"type": "unocc",
				"energy": 0.01812,
				"method": "rhf"
			},
			{
				"type": "unocc",
				"energy": 0.03199,
				"method": "rhf"
			},
			{
				"type": "unocc",
				"energy": 0.04301,
				"method": "rhf"
			},
			{
				"type": "unocc",
				"energy": 0.05504,
				"method": "rhf"
			}
		],
		"cosmo_sigma_profile": { 
			"-0.025": 0.0,
			"-0.024": 0.0,
			"-0.023": 0.0,
			"-0.022": 0.0,
			"-0.021": 0.0,
			"-0.02": 0.0,
			"-0.019": 0.0,
			"-0.018": 0.0,
			"-0.017": 0.0,
			"-0.016": 0.0,
			"-0.015": 0.0,
			"-0.014": 0.0,
			"-0.013": 0.0,
			"-0.012": 0.0,
			"-0.011": 0.0841024139924,
			"-0.01": 2.6941821192,
			"-0.009": 3.51028416224,
			"-0.008": 3.43644987268,
			"-0.007": 5.50681552246,
			"-0.006": 10.1179400963,
			"-0.005": 12.8572503161,
			"-0.004": 21.6560331445,
			"-0.003": 28.1658939073,
			"-0.002": 24.8812114023,
			"-0.001": 19.4403562684,
			"0.0": 15.0478475792,
			"0.001": 5.4607487486,
			"0.002": 5.19337060134,
			"0.003": 5.01918629694,
			"0.004": 4.80754361683,
			"0.005": 5.34134075009,
			"0.006": 4.8339413499,
			"0.007": 8.20540450466,
			"0.008": 6.46588812361,
			"0.009": 7.82891669462,
			"0.01": 9.18681181435,
			"0.011": 6.32041115625,
			"0.012": 2.6231190208,
			"0.013": 0.904842439325,
			"0.014": 0.0,
			"0.015": 0.0,
			"0.016": 0.0,
			"0.017": 0.0,
			"0.018": 0.0,
			"0.019": 0.0,
			"0.02": 0.0,
			"0.021": 0.0,
			"0.022": 0.0,
			"0.023": 0.0,
			"0.024": 0.0,
			"0.025": 0.0
		}
	}
}
