{
	 "smiles": "CC1=C(N)C=C(C=C1)N1C=NN=N1", 
	 "Tm": 445.15, 
	 "num_atms": 22, 
	 "gaussian": { 
		 "optdone": 1, 
		 "sigma_profile": "yes", 
		 "theory": "DFT", 
		 "functional": "B3LYP", 
		 "basiset": "6-31G**", 
		 "properties": { 
			 "R2extent": 2960.8752, 
			 "electric_dipole_moment_norm": 6.88895338205, 
			 "electric_quadrupole_moment_norm": 15.5115017893, 
			 "total_energy": -583.983416944, 
			 "HOMO_LUMO_gap": 0.17989, 
			 "cosmo_polarized_energy": -17.51, 
			 "cosmo_cavitation_energy": 26.42, 
			 "cosmo_dispersion_energy": -19.54, 
			 "cosmo_repulsion_energy": 1.51, 
			 "cosmo_total_nonelectrostatic_energy": 8.4, 
			 "SMD_solvation_energy": 3.15 
		},
		"coords": [
			{
				"x": 1.500571396,
				"y": 1.6520355968,
				"z": -3.6760951256,
				"element": "C" 
			},
			{
				"x": 1.1060542245,
				"y": 0.793257903,
				"z": -2.5016371529,
				"element": "C" 
			},
			{
				"x": 0.8500779642,
				"y": 1.3852690847,
				"z": -1.2397409796,
				"element": "C" 
			},
			{
				"x": 0.9184581687,
				"y": 2.766341707,
				"z": -1.0862303256,
				"element": "N" 
			},
			{
				"x": 0.459474708,
				"y": 0.5809137018,
				"z": -0.1598585549,
				"element": "C" 
			},
			{
				"x": 0.3411648161,
				"y": -0.7969396302,
				"z": -0.3264421267,
				"element": "C" 
			},
			{
				"x": 0.6066087191,
				"y": -1.4047030863,
				"z": -1.5538174893,
				"element": "C" 
			},
			{
				"x": 0.9782302966,
				"y": -0.5904815487,
				"z": -2.6239229461,
				"element": "C" 
			},
			{
				"x": -0.0595662831,
				"y": -1.5906140267,
				"z": 0.7871593823,
				"element": "N" 
			},
			{
				"x": -0.7242549248,
				"y": -2.7679859993,
				"z": 0.8325355698,
				"element": "C" 
			},
			{
				"x": -0.8852371447,
				"y": -3.1261564005,
				"z": 2.0885586013,
				"element": "N" 
			},
			{
				"x": -0.305430583,
				"y": -2.1393189723,
				"z": 2.8272850801,
				"element": "N" 
			},
			{
				"x": 0.1906797105,
				"y": -1.2171040467,
				"z": 2.0704100473,
				"element": "N" 
			},
			{
				"x": 2.457805159,
				"y": 2.1658469558,
				"z": -3.5077293388,
				"element": "H" 
			},
			{
				"x": 1.6127554567,
				"y": 1.0517174129,
				"z": -4.5820179784,
				"element": "H" 
			},
			{
				"x": 0.7501222532,
				"y": 2.4270708211,
				"z": -3.8756090935,
				"element": "H" 
			},
			{
				"x": 0.980706233,
				"y": 3.0964168449,
				"z": -0.1334794356,
				"element": "H" 
			},
			{
				"x": 1.54778197,
				"y": 3.2550337245,
				"z": -1.7061625682,
				"element": "H" 
			},
			{
				"x": 0.2493652089,
				"y": 1.019287635,
				"z": 0.8093767884,
				"element": "H" 
			},
			{
				"x": 0.5525052134,
				"y": -2.4810823075,
				"z": -1.6706519896,
				"element": "H" 
			},
			{
				"x": 1.1860773602,
				"y": -1.0495489113,
				"z": -3.5866928063,
				"element": "H" 
			},
			{
				"x": -1.0786499227,
				"y": -3.3007564582,
				"z": -0.035437558,
				"element": "H" 
			}
		],
		 "valence_orbital": [ 
			{
				"type": "occ",
				"energy": -0.29965,
				"method": "rhf"
			},
			{
				"type": "occ",
				"energy": -0.29319,
				"method": "rhf"
			},
			{
				"type": "occ",
				"energy": -0.28086,
				"method": "rhf"
			},
			{
				"type": "occ",
				"energy": -0.25131,
				"method": "rhf"
			},
			{
				"type": "occ",
				"energy": -0.21985,
				"method": "rhf"
			},
			{
				"type": "unocc",
				"energy": -0.03996,
				"method": "rhf"
			},
			{
				"type": "unocc",
				"energy": -0.00761,
				"method": "rhf"
			},
			{
				"type": "unocc",
				"energy": 0.01536,
				"method": "rhf"
			},
			{
				"type": "unocc",
				"energy": 0.02945,
				"method": "rhf"
			},
			{
				"type": "unocc",
				"energy": 0.06288,
				"method": "rhf"
			}
		],
		"cosmo_sigma_profile": { 
			"-0.025": 0.0,
			"-0.024": 0.0,
			"-0.023": 0.0,
			"-0.022": 0.0,
			"-0.021": 0.0,
			"-0.02": 0.0,
			"-0.019": 0.0,
			"-0.018": 0.0,
			"-0.017": 0.0,
			"-0.016": 0.0,
			"-0.015": 0.0,
			"-0.014": 0.032064874056,
			"-0.013": 0.960831334829,
			"-0.012": 4.02340590152,
			"-0.011": 5.41180378164,
			"-0.01": 4.94887081199,
			"-0.009": 5.54864876388,
			"-0.008": 5.03357071131,
			"-0.007": 5.63525591739,
			"-0.006": 7.80018432799,
			"-0.005": 10.8775702367,
			"-0.004": 15.3453260467,
			"-0.003": 13.9645765392,
			"-0.002": 11.864980895,
			"-0.001": 14.0449885573,
			"0.0": 13.7632172422,
			"0.001": 9.45694220978,
			"0.002": 9.79769696677,
			"0.003": 9.89292652544,
			"0.004": 14.1177035539,
			"0.005": 9.93548270241,
			"0.006": 3.63526857521,
			"0.007": 4.49555589549,
			"0.008": 6.38003244394,
			"0.009": 5.54456512811,
			"0.01": 5.30941175108,
			"0.011": 4.52813938557,
			"0.012": 3.25175525272,
			"0.013": 3.27965581931,
			"0.014": 1.72108521402,
			"0.015": 0.595067853424,
			"0.016": 0.000452524098928,
			"0.017": 0.0,
			"0.018": 0.0,
			"0.019": 0.0,
			"0.02": 0.0,
			"0.021": 0.0,
			"0.022": 0.0,
			"0.023": 0.0,
			"0.024": 0.0,
			"0.025": 0.0
		}
	}
}
