{
	 "smiles": "CCOC=C(C#N)S(=O)(=O)C1=CC2=CC=CC=C2C=C1", 
	 "Tm": 364.35, 
	 "num_atms": 33, 
	 "gaussian": { 
		 "optdone": 1, 
		 "sigma_profile": "yes", 
		 "theory": "DFT", 
		 "functional": "B3LYP", 
		 "basiset": "6-31G**", 
		 "properties": { 
			 "R2extent": 6576.7275, 
			 "electric_dipole_moment_norm": 9.33760355873, 
			 "electric_quadrupole_moment_norm": 39.4881821353, 
			 "total_energy": -1257.93269298, 
			 "HOMO_LUMO_gap": 0.16805, 
			 "cosmo_polarized_energy": -24.2, 
			 "cosmo_cavitation_energy": 40.41, 
			 "cosmo_dispersion_energy": -27.0, 
			 "cosmo_repulsion_energy": 2.04, 
			 "cosmo_total_nonelectrostatic_energy": 15.44, 
			 "SMD_solvation_energy": 8.05 
		},
		"coords": [
			{
				"x": 0.7960561741,
				"y": -1.0462485775,
				"z": -3.536396763,
				"element": "C" 
			},
			{
				"x": -0.4276143988,
				"y": -0.1549260808,
				"z": -3.5919589264,
				"element": "C" 
			},
			{
				"x": -0.4174426423,
				"y": 0.6825726863,
				"z": -2.4103518457,
				"element": "O" 
			},
			{
				"x": -1.5038670909,
				"y": 1.4065840331,
				"z": -2.1785114186,
				"element": "C" 
			},
			{
				"x": -1.5895847217,
				"y": 2.3311349936,
				"z": -1.1889049185,
				"element": "C" 
			},
			{
				"x": -2.819386592,
				"y": 3.0005745425,
				"z": -0.9550221269,
				"element": "C" 
			},
			{
				"x": -3.8406322812,
				"y": 3.5302743691,
				"z": -0.7721818689,
				"element": "N" 
			},
			{
				"x": -0.1814550065,
				"y": 2.7677551749,
				"z": -0.1235643341,
				"element": "S" 
			},
			{
				"x": -0.6232786024,
				"y": 3.923292601,
				"z": 0.6642537489,
				"element": "O" 
			},
			{
				"x": 1.0216760262,
				"y": 2.8184883822,
				"z": -0.9617465911,
				"element": "O" 
			},
			{
				"x": -0.040564046,
				"y": 1.3599279059,
				"z": 0.981179844,
				"element": "C" 
			},
			{
				"x": 0.9100977809,
				"y": 0.3989753257,
				"z": 0.723220306,
				"element": "C" 
			},
			{
				"x": 1.0342848618,
				"y": -0.718493775,
				"z": 1.5900086729,
				"element": "C" 
			},
			{
				"x": 2.0033391494,
				"y": -1.734709787,
				"z": 1.3706144375,
				"element": "C" 
			},
			{
				"x": 2.0984017166,
				"y": -2.8098764594,
				"z": 2.2248719615,
				"element": "C" 
			},
			{
				"x": 1.2291435356,
				"y": -2.915787518,
				"z": 3.3387002823,
				"element": "C" 
			},
			{
				"x": 0.2821656529,
				"y": -1.9454570265,
				"z": 3.5803622547,
				"element": "C" 
			},
			{
				"x": 0.1564553582,
				"y": -0.8230784698,
				"z": 2.7192579882,
				"element": "C" 
			},
			{
				"x": -0.8050416589,
				"y": 0.201286293,
				"z": 2.9456867784,
				"element": "C" 
			},
			{
				"x": -0.9078362721,
				"y": 1.2798387888,
				"z": 2.0999982429,
				"element": "C" 
			},
			{
				"x": 0.7712530425,
				"y": -1.6837550967,
				"z": -2.6485018765,
				"element": "H" 
			},
			{
				"x": 1.7083725963,
				"y": -0.4447262766,
				"z": -3.511740189,
				"element": "H" 
			},
			{
				"x": 0.8258748934,
				"y": -1.6862624101,
				"z": -4.423106444,
				"element": "H" 
			},
			{
				"x": -1.3546030954,
				"y": -0.7415834601,
				"z": -3.6021124947,
				"element": "H" 
			},
			{
				"x": -0.411514575,
				"y": 0.4935055212,
				"z": -4.4752806674,
				"element": "H" 
			},
			{
				"x": -2.3719118599,
				"y": 1.2186351209,
				"z": -2.8122492194,
				"element": "H" 
			},
			{
				"x": 1.5672892674,
				"y": 0.5052844279,
				"z": -0.133353882,
				"element": "H" 
			},
			{
				"x": 2.6705467706,
				"y": -1.6457689672,
				"z": 0.5173947742,
				"element": "H" 
			},
			{
				"x": 2.8426468622,
				"y": -3.5810532723,
				"z": 2.0497994727,
				"element": "H" 
			},
			{
				"x": 1.3151719922,
				"y": -3.7685514115,
				"z": 4.0057056814,
				"element": "H" 
			},
			{
				"x": -0.3819224553,
				"y": -2.0253312322,
				"z": 4.4368150869,
				"element": "H" 
			},
			{
				"x": -1.4584845242,
				"y": 0.124334461,
				"z": 3.8103772746,
				"element": "H" 
			},
			{
				"x": -1.623635858,
				"y": 2.0738451934,
				"z": 2.2824367591,
				"element": "H" 
			}
		],
		 "valence_orbital": [ 
			{
				"type": "occ",
				"energy": -0.3001,
				"method": "rhf"
			},
			{
				"type": "occ",
				"energy": -0.29118,
				"method": "rhf"
			},
			{
				"type": "occ",
				"energy": -0.27025,
				"method": "rhf"
			},
			{
				"type": "occ",
				"energy": -0.25589,
				"method": "rhf"
			},
			{
				"type": "occ",
				"energy": -0.2352,
				"method": "rhf"
			},
			{
				"type": "unocc",
				"energy": -0.06715,
				"method": "rhf"
			},
			{
				"type": "unocc",
				"energy": -0.05069,
				"method": "rhf"
			},
			{
				"type": "unocc",
				"energy": -0.03601,
				"method": "rhf"
			},
			{
				"type": "unocc",
				"energy": 0.00305,
				"method": "rhf"
			},
			{
				"type": "unocc",
				"energy": 0.01369,
				"method": "rhf"
			}
		],
		"cosmo_sigma_profile": { 
			"-0.025": 0.0,
			"-0.024": 0.0,
			"-0.023": 0.0,
			"-0.022": 0.0,
			"-0.021": 0.0,
			"-0.02": 0.0,
			"-0.019": 0.0,
			"-0.018": 0.0,
			"-0.017": 0.0,
			"-0.016": 0.0,
			"-0.015": 0.0,
			"-0.014": 0.0,
			"-0.013": 0.0,
			"-0.012": 1.93859274474,
			"-0.011": 3.30866954641,
			"-0.01": 2.8869196636,
			"-0.009": 2.81594643357,
			"-0.008": 4.21800780591,
			"-0.007": 15.9247933959,
			"-0.006": 21.3269941256,
			"-0.005": 25.1557928792,
			"-0.004": 24.3507241548,
			"-0.003": 20.6807191782,
			"-0.002": 21.0347031547,
			"-0.001": 20.4844688994,
			"0.0": 17.8501894484,
			"0.001": 20.1029323786,
			"0.002": 27.6696632173,
			"0.003": 19.8667122812,
			"0.004": 12.8318907124,
			"0.005": 4.87167477344,
			"0.006": 5.55039155125,
			"0.007": 7.90725841109,
			"0.008": 7.46979879673,
			"0.009": 8.10737725358,
			"0.01": 12.3346363843,
			"0.011": 11.11557686,
			"0.012": 3.33676138337,
			"0.013": 1.27633614595,
			"0.014": 0.0096293925148,
			"0.015": 0.0,
			"0.016": 0.0,
			"0.017": 0.0,
			"0.018": 0.0,
			"0.019": 0.0,
			"0.02": 0.0,
			"0.021": 0.0,
			"0.022": 0.0,
			"0.023": 0.0,
			"0.024": 0.0,
			"0.025": 0.0
		}
	}
}
