{
	 "smiles": "CCCCC(O)CC", 
	 "Tm": 203.15, 
	 "num_atms": 24, 
	 "gaussian": { 
		 "optdone": 1, 
		 "sigma_profile": "yes", 
		 "theory": "DFT", 
		 "functional": "B3LYP", 
		 "basiset": "6-31G**", 
		 "properties": { 
			 "R2extent": 1572.5648, 
			 "electric_dipole_moment_norm": 1.39885575382, 
			 "electric_quadrupole_moment_norm": 4.14913734528, 
			 "total_energy": -351.625776035, 
			 "HOMO_LUMO_gap": 0.32017, 
			 "cosmo_polarized_energy": -5.3, 
			 "cosmo_cavitation_energy": 24.84, 
			 "cosmo_dispersion_energy": -17.81, 
			 "cosmo_repulsion_energy": 1.51, 
			 "cosmo_total_nonelectrostatic_energy": 8.54, 
			 "SMD_solvation_energy": 3.99 
		},
		"coords": [
			{
				"x": -2.0895980171,
				"y": -1.7644611172,
				"z": 0.448195353,
				"element": "C" 
			},
			{
				"x": -1.437874536,
				"y": -1.4048010528,
				"z": -0.8921330255,
				"element": "C" 
			},
			{
				"x": -1.1545048069,
				"y": 0.0976947716,
				"z": -1.0738490684,
				"element": "C" 
			},
			{
				"x": -0.1460203988,
				"y": 0.7430995799,
				"z": -0.1046383146,
				"element": "C" 
			},
			{
				"x": 1.3174602296,
				"y": 0.3043519264,
				"z": -0.2667857948,
				"element": "C" 
			},
			{
				"x": 1.5102620033,
				"y": -1.078905254,
				"z": 0.0574396643,
				"element": "O" 
			},
			{
				"x": 2.2806384568,
				"y": 1.1918880184,
				"z": 0.5382356152,
				"element": "C" 
			},
			{
				"x": 3.7518328962,
				"y": 0.8088352367,
				"z": 0.3576193272,
				"element": "C" 
			},
			{
				"x": -3.0184000788,
				"y": -1.2031616708,
				"z": 0.6064396876,
				"element": "H" 
			},
			{
				"x": -1.4287950641,
				"y": -1.5492519377,
				"z": 1.2952761939,
				"element": "H" 
			},
			{
				"x": -2.3346458389,
				"y": -2.8308052642,
				"z": 0.4928959382,
				"element": "H" 
			},
			{
				"x": -0.5066364228,
				"y": -1.966725053,
				"z": -1.0069952603,
				"element": "H" 
			},
			{
				"x": -2.1050205073,
				"y": -1.7229485181,
				"z": -1.7039687118,
				"element": "H" 
			},
			{
				"x": -0.8021219312,
				"y": 0.2684694173,
				"z": -2.1004667911,
				"element": "H" 
			},
			{
				"x": -2.1040134886,
				"y": 0.6446429965,
				"z": -0.988391888,
				"element": "H" 
			},
			{
				"x": -0.4508398517,
				"y": 0.5728924043,
				"z": 0.9387681827,
				"element": "H" 
			},
			{
				"x": -0.1859420491,
				"y": 1.8312211216,
				"z": -0.2468682927,
				"element": "H" 
			},
			{
				"x": 1.5893004316,
				"y": 0.3677173843,
				"z": -1.3295751249,
				"element": "H" 
			},
			{
				"x": 1.2543539227,
				"y": -1.1953499012,
				"z": 0.9831214304,
				"element": "H" 
			},
			{
				"x": 2.0055556923,
				"y": 1.1297173924,
				"z": 1.6023987546,
				"element": "H" 
			},
			{
				"x": 2.125508801,
				"y": 2.2386590835,
				"z": 0.2468084777,
				"element": "H" 
			},
			{
				"x": 4.0684659272,
				"y": 0.9463543491,
				"z": -0.6825753253,
				"element": "H" 
			},
			{
				"x": 3.9097169838,
				"y": -0.2422296845,
				"z": 0.6132627688,
				"element": "H" 
			},
			{
				"x": 4.4030176469,
				"y": 1.4217957714,
				"z": 0.9887862035,
				"element": "H" 
			}
		],
		 "valence_orbital": [ 
			{
				"type": "occ",
				"energy": -0.32616,
				"method": "rhf"
			},
			{
				"type": "occ",
				"energy": -0.3213,
				"method": "rhf"
			},
			{
				"type": "occ",
				"energy": -0.31657,
				"method": "rhf"
			},
			{
				"type": "occ",
				"energy": -0.30267,
				"method": "rhf"
			},
			{
				"type": "occ",
				"energy": -0.2574,
				"method": "rhf"
			},
			{
				"type": "unocc",
				"energy": 0.06277,
				"method": "rhf"
			},
			{
				"type": "unocc",
				"energy": 0.10149,
				"method": "rhf"
			},
			{
				"type": "unocc",
				"energy": 0.11017,
				"method": "rhf"
			},
			{
				"type": "unocc",
				"energy": 0.12887,
				"method": "rhf"
			},
			{
				"type": "unocc",
				"energy": 0.13705,
				"method": "rhf"
			}
		],
		"cosmo_sigma_profile": { 
			"-0.025": 0.0,
			"-0.024": 0.0,
			"-0.023": 0.0,
			"-0.022": 0.0,
			"-0.021": 0.0,
			"-0.02": 0.0,
			"-0.019": 0.0,
			"-0.018": 0.0,
			"-0.017": 0.0,
			"-0.016": 0.0,
			"-0.015": 0.0,
			"-0.014": 0.33836448825,
			"-0.013": 0.640221197977,
			"-0.012": 0.834261190395,
			"-0.011": 0.760248768238,
			"-0.01": 1.11208706795,
			"-0.009": 1.21145288005,
			"-0.008": 1.00495149071,
			"-0.007": 0.895334276231,
			"-0.006": 2.18740976202,
			"-0.005": 2.35356152711,
			"-0.004": 2.97361666477,
			"-0.003": 10.6211051772,
			"-0.002": 27.7917091189,
			"-0.001": 28.6602860377,
			"0.0": 33.5649975935,
			"0.001": 35.8201756492,
			"0.002": 20.7588805229,
			"0.003": 3.52594969284,
			"0.004": 1.3108622942,
			"0.005": 2.0686075056,
			"0.006": 1.09285089732,
			"0.007": 1.65111386058,
			"0.008": 1.52317437751,
			"0.009": 1.59306010407,
			"0.01": 0.499734373541,
			"0.011": 1.12659457171,
			"0.012": 1.52299827928,
			"0.013": 0.479415396262,
			"0.014": 1.31292051543,
			"0.015": 0.828076792045,
			"0.016": 0.00567500254856,
			"0.017": 0.0,
			"0.018": 0.0,
			"0.019": 0.0,
			"0.02": 0.0,
			"0.021": 0.0,
			"0.022": 0.0,
			"0.023": 0.0,
			"0.024": 0.0,
			"0.025": 0.0
		}
	}
}
