{
	 "smiles": "CC1=C(OC2=C1C=CC=C2)C(=O)NN", 
	 "Tm": 413.15, 
	 "num_atms": 24, 
	 "gaussian": { 
		 "optdone": 1, 
		 "sigma_profile": "yes", 
		 "theory": "DFT", 
		 "functional": "B3LYP", 
		 "basiset": "6-31G**", 
		 "properties": { 
			 "R2extent": 3624.0893, 
			 "electric_dipole_moment_norm": 2.04849874298, 
			 "electric_quadrupole_moment_norm": 3.86664751432, 
			 "total_energy": -647.025012318, 
			 "HOMO_LUMO_gap": 0.17635, 
			 "cosmo_polarized_energy": -11.42, 
			 "cosmo_cavitation_energy": 28.45, 
			 "cosmo_dispersion_energy": -20.96, 
			 "cosmo_repulsion_energy": 1.65, 
			 "cosmo_total_nonelectrostatic_energy": 9.15, 
			 "SMD_solvation_energy": 6.1 
		},
		"coords": [
			{
				"x": 1.9547490754,
				"y": 0.2382427449,
				"z": -0.3209670821,
				"element": "C" 
			},
			{
				"x": 0.5223232323,
				"y": 0.050836708,
				"z": -0.7196598221,
				"element": "C" 
			},
			{
				"x": -0.4449682044,
				"y": 1.0113268809,
				"z": -0.827849904,
				"element": "C" 
			},
			{
				"x": -1.6670926246,
				"y": 0.4833450734,
				"z": -1.2217244738,
				"element": "O" 
			},
			{
				"x": -1.4686352124,
				"y": -0.8595353184,
				"z": -1.3685450615,
				"element": "C" 
			},
			{
				"x": -0.1325931276,
				"y": -1.1887352594,
				"z": -1.0723886724,
				"element": "C" 
			},
			{
				"x": 0.2712440459,
				"y": -2.5308354146,
				"z": -1.1663665863,
				"element": "C" 
			},
			{
				"x": -0.6701055109,
				"y": -3.4800675533,
				"z": -1.549355493,
				"element": "C" 
			},
			{
				"x": -2.0003910269,
				"y": -3.116017629,
				"z": -1.8387001186,
				"element": "C" 
			},
			{
				"x": -2.4260276759,
				"y": -1.7917797789,
				"z": -1.7529836159,
				"element": "C" 
			},
			{
				"x": -0.3692917617,
				"y": 2.4623744864,
				"z": -0.591582767,
				"element": "C" 
			},
			{
				"x": 0.6713760171,
				"y": 3.008716007,
				"z": -0.2235505232,
				"element": "O" 
			},
			{
				"x": -1.5281997085,
				"y": 3.1546857825,
				"z": -0.808396305,
				"element": "N" 
			},
			{
				"x": -1.6286656049,
				"y": 4.5284186507,
				"z": -0.5249417911,
				"element": "N" 
			},
			{
				"x": 2.4874761657,
				"y": -0.7162302292,
				"z": -0.3248476201,
				"element": "H" 
			},
			{
				"x": 2.0305948409,
				"y": 0.6778060236,
				"z": 0.6774420983,
				"element": "H" 
			},
			{
				"x": 2.4654227481,
				"y": 0.926795275,
				"z": -0.9999010932,
				"element": "H" 
			},
			{
				"x": 1.293894744,
				"y": -2.8216000154,
				"z": -0.9455125371,
				"element": "H" 
			},
			{
				"x": -0.3784364398,
				"y": -4.5229769336,
				"z": -1.6281459962,
				"element": "H" 
			},
			{
				"x": -2.7094166315,
				"y": -3.8831464647,
				"z": -2.1349224869,
				"element": "H" 
			},
			{
				"x": -3.4462579538,
				"y": -1.4969368519,
				"z": -1.9727787809,
				"element": "H" 
			},
			{
				"x": -2.3946176722,
				"y": 2.6731334606,
				"z": -0.9963226939,
				"element": "H" 
			},
			{
				"x": -1.0476298918,
				"y": 5.0242844096,
				"z": -1.2010442634,
				"element": "H" 
			},
			{
				"x": -1.1770518224,
				"y": 4.6832959455,
				"z": 0.3771455894,
				"element": "H" 
			}
		],
		 "valence_orbital": [ 
			{
				"type": "occ",
				"energy": -0.28095,
				"method": "rhf"
			},
			{
				"type": "occ",
				"energy": -0.25945,
				"method": "rhf"
			},
			{
				"type": "occ",
				"energy": -0.25754,
				"method": "rhf"
			},
			{
				"type": "occ",
				"energy": -0.2443,
				"method": "rhf"
			},
			{
				"type": "occ",
				"energy": -0.22457,
				"method": "rhf"
			},
			{
				"type": "unocc",
				"energy": -0.04822,
				"method": "rhf"
			},
			{
				"type": "unocc",
				"energy": 0.00288,
				"method": "rhf"
			},
			{
				"type": "unocc",
				"energy": 0.02416,
				"method": "rhf"
			},
			{
				"type": "unocc",
				"energy": 0.08407,
				"method": "rhf"
			},
			{
				"type": "unocc",
				"energy": 0.09249,
				"method": "rhf"
			}
		],
		"cosmo_sigma_profile": { 
			"-0.025": 0.0,
			"-0.024": 0.0,
			"-0.023": 0.0,
			"-0.022": 0.0,
			"-0.021": 0.0,
			"-0.02": 0.0,
			"-0.019": 0.0,
			"-0.018": 0.0,
			"-0.017": 0.0,
			"-0.016": 0.0,
			"-0.015": 0.0,
			"-0.014": 0.0346424492895,
			"-0.013": 0.701906324272,
			"-0.012": 0.83145630658,
			"-0.011": 2.85542103498,
			"-0.01": 3.10754779372,
			"-0.009": 3.65848431225,
			"-0.008": 3.26957185897,
			"-0.007": 3.93741681771,
			"-0.006": 10.7917258956,
			"-0.005": 12.8284055882,
			"-0.004": 17.0711564957,
			"-0.003": 13.4469441414,
			"-0.002": 15.3065846916,
			"-0.001": 18.6167146754,
			"0.0": 21.6111013722,
			"0.001": 20.5523679561,
			"0.002": 16.568898897,
			"0.003": 14.5464726505,
			"0.004": 12.9746026449,
			"0.005": 9.66783450064,
			"0.006": 2.27276734351,
			"0.007": 2.08815363794,
			"0.008": 2.25960636269,
			"0.009": 2.63436769499,
			"0.01": 2.10999671694,
			"0.011": 1.63873434529,
			"0.012": 2.92744475612,
			"0.013": 4.24071414212,
			"0.014": 2.56309578917,
			"0.015": 0.90592955327,
			"0.016": 0.396207233927,
			"0.017": 0.101153255061,
			"0.018": 0.0,
			"0.019": 0.0,
			"0.02": 0.0,
			"0.021": 0.0,
			"0.022": 0.0,
			"0.023": 0.0,
			"0.024": 0.0,
			"0.025": 0.0
		}
	}
}
