{
	 "smiles": "COC(=O)C1=C(C)NC(C)=C(C1C1=CC=CC(OC)=C1O)C(=O)OC", 
	 "Tm": 464.15, 
	 "num_atms": 46, 
	 "gaussian": { 
		 "optdone": 1, 
		 "sigma_profile": "yes", 
		 "theory": "DFT", 
		 "functional": "B3LYP", 
		 "basiset": "6-31G**", 
		 "properties": { 
			 "R2extent": 8935.8904, 
			 "electric_dipole_moment_norm": 3.21568017222, 
			 "electric_quadrupole_moment_norm": 31.2916068889, 
			 "total_energy": -1204.6607513, 
			 "HOMO_LUMO_gap": 0.15176, 
			 "cosmo_polarized_energy": -25.77, 
			 "cosmo_cavitation_energy": 48.1, 
			 "cosmo_dispersion_energy": -32.5, 
			 "cosmo_repulsion_energy": 2.51, 
			 "cosmo_total_nonelectrostatic_energy": 18.11, 
			 "SMD_solvation_energy": 12.13 
		},
		"coords": [
			{
				"x": -3.2371515638,
				"y": -1.2633080256,
				"z": 1.585641793,
				"element": "C" 
			},
			{
				"x": -2.376677888,
				"y": -0.6034110952,
				"z": 0.6539647036,
				"element": "O" 
			},
			{
				"x": -2.216160128,
				"y": -1.2245186854,
				"z": -0.5398726823,
				"element": "C" 
			},
			{
				"x": -2.7811044611,
				"y": -2.277996047,
				"z": -0.8032016843,
				"element": "O" 
			},
			{
				"x": -1.3131717209,
				"y": -0.466051354,
				"z": -1.420618666,
				"element": "C" 
			},
			{
				"x": -1.0616030492,
				"y": -0.9269471158,
				"z": -2.6763743551,
				"element": "C" 
			},
			{
				"x": -1.5654179382,
				"y": -2.2098533545,
				"z": -3.286493677,
				"element": "C" 
			},
			{
				"x": -0.2882478725,
				"y": -0.1552437842,
				"z": -3.5310862614,
				"element": "N" 
			},
			{
				"x": 0.0433374459,
				"y": 1.171991314,
				"z": -3.2949397662,
				"element": "C" 
			},
			{
				"x": 0.6001771736,
				"y": 1.8739033566,
				"z": -4.5105409167,
				"element": "C" 
			},
			{
				"x": -0.1800764761,
				"y": 1.6914306465,
				"z": -2.0557210119,
				"element": "C" 
			},
			{
				"x": -0.6372176089,
				"y": 0.801406407,
				"z": -0.8965752724,
				"element": "C" 
			},
			{
				"x": 0.5335431223,
				"y": 0.4711140515,
				"z": 0.0401783391,
				"element": "C" 
			},
			{
				"x": 1.6621205627,
				"y": -0.2196593617,
				"z": -0.4322594161,
				"element": "C" 
			},
			{
				"x": 2.7391489613,
				"y": -0.5116730458,
				"z": 0.3954564914,
				"element": "C" 
			},
			{
				"x": 2.7210864215,
				"y": -0.1154236658,
				"z": 1.7393507011,
				"element": "C" 
			},
			{
				"x": 1.6102339404,
				"y": 0.5640800959,
				"z": 2.2242030949,
				"element": "C" 
			},
			{
				"x": 1.4435820713,
				"y": 1.0169187532,
				"z": 3.5161687421,
				"element": "O" 
			},
			{
				"x": 2.5066769174,
				"y": 0.825350258,
				"z": 4.4331236105,
				"element": "C" 
			},
			{
				"x": 0.5127406341,
				"y": 0.8577523894,
				"z": 1.3843525467,
				"element": "C" 
			},
			{
				"x": -0.5565339315,
				"y": 1.5148221113,
				"z": 1.9078287658,
				"element": "O" 
			},
			{
				"x": 0.003114217,
				"y": 3.1065687992,
				"z": -1.6941261816,
				"element": "C" 
			},
			{
				"x": -0.2238344845,
				"y": 3.5570204672,
				"z": -0.5848705886,
				"element": "O" 
			},
			{
				"x": 0.4382953552,
				"y": 3.9066574622,
				"z": -2.712614915,
				"element": "O" 
			},
			{
				"x": 0.6100120948,
				"y": 5.2847650681,
				"z": -2.3582371152,
				"element": "C" 
			},
			{
				"x": -3.2293042708,
				"y": -0.6394685574,
				"z": 2.4795224236,
				"element": "H" 
			},
			{
				"x": -2.8670330036,
				"y": -2.266666327,
				"z": 1.81383139,
				"element": "H" 
			},
			{
				"x": -4.2517087669,
				"y": -1.3501304376,
				"z": 1.1862849269,
				"element": "H" 
			},
			{
				"x": -1.087241099,
				"y": -2.3896046544,
				"z": -4.2559473798,
				"element": "H" 
			},
			{
				"x": -1.3770361563,
				"y": -3.0587836709,
				"z": -2.629151303,
				"element": "H" 
			},
			{
				"x": -2.6486050379,
				"y": -2.1751282509,
				"z": -3.4317026136,
				"element": "H" 
			},
			{
				"x": -0.1460347758,
				"y": -0.5074040696,
				"z": -4.4647643881,
				"element": "H" 
			},
			{
				"x": 1.5107859363,
				"y": 2.4215025972,
				"z": -4.269657857,
				"element": "H" 
			},
			{
				"x": -0.1125580882,
				"y": 2.6027522187,
				"z": -4.9060156945,
				"element": "H" 
			},
			{
				"x": 0.8256228935,
				"y": 1.149737211,
				"z": -5.3005825866,
				"element": "H" 
			},
			{
				"x": -1.3563723756,
				"y": 1.3689798056,
				"z": -0.3056734554,
				"element": "H" 
			},
			{
				"x": 1.6882789546,
				"y": -0.5269488208,
				"z": -1.473375809,
				"element": "H" 
			},
			{
				"x": 3.6006145127,
				"y": -1.0460875581,
				"z": 0.0065908268,
				"element": "H" 
			},
			{
				"x": 3.5616172114,
				"y": -0.3398656016,
				"z": 2.3861289822,
				"element": "H" 
			},
			{
				"x": 3.4240193187,
				"y": 1.3229783917,
				"z": 4.0933002949,
				"element": "H" 
			},
			{
				"x": 2.1828620368,
				"y": 1.2697882676,
				"z": 5.3757831079,
				"element": "H" 
			},
			{
				"x": 2.7146825739,
				"y": -0.2410457549,
				"z": 4.5890395466,
				"element": "H" 
			},
			{
				"x": -0.3225045839,
				"y": 1.7494295872,
				"z": 2.8185915538,
				"element": "H" 
			},
			{
				"x": 1.3420843458,
				"y": 5.3920317407,
				"z": -1.553521917,
				"element": "H" 
			},
			{
				"x": 0.962679557,
				"y": 5.780284834,
				"z": -3.2638445584,
				"element": "H" 
			},
			{
				"x": -0.3354209774,
				"y": 5.7221534044,
				"z": -2.0267717688,
				"element": "H" 
			}
		],
		 "valence_orbital": [ 
			{
				"type": "occ",
				"energy": -0.25463,
				"method": "rhf"
			},
			{
				"type": "occ",
				"energy": -0.24685,
				"method": "rhf"
			},
			{
				"type": "occ",
				"energy": -0.21659,
				"method": "rhf"
			},
			{
				"type": "occ",
				"energy": -0.19539,
				"method": "rhf"
			},
			{
				"type": "occ",
				"energy": -0.19142,
				"method": "rhf"
			},
			{
				"type": "unocc",
				"energy": -0.03966,
				"method": "rhf"
			},
			{
				"type": "unocc",
				"energy": 0.01333,
				"method": "rhf"
			},
			{
				"type": "unocc",
				"energy": 0.0224,
				"method": "rhf"
			},
			{
				"type": "unocc",
				"energy": 0.03162,
				"method": "rhf"
			},
			{
				"type": "unocc",
				"energy": 0.06401,
				"method": "rhf"
			}
		],
		"cosmo_sigma_profile": { 
			"-0.025": 0.0,
			"-0.024": 0.0,
			"-0.023": 0.0,
			"-0.022": 0.0,
			"-0.021": 0.0,
			"-0.02": 0.0,
			"-0.019": 0.0,
			"-0.018": 0.0,
			"-0.017": 0.0,
			"-0.016": 0.276188265177,
			"-0.015": 1.28659084074,
			"-0.014": 1.40800560295,
			"-0.013": 1.65390998924,
			"-0.012": 2.16986159898,
			"-0.011": 2.10864798353,
			"-0.01": 1.57566905101,
			"-0.009": 2.37466651795,
			"-0.008": 2.35612417844,
			"-0.007": 2.6923227629,
			"-0.006": 12.9326179743,
			"-0.005": 29.8021815255,
			"-0.004": 33.7970903448,
			"-0.003": 44.5174839709,
			"-0.002": 34.4498238339,
			"-0.001": 31.2548211762,
			"0.0": 25.6811259353,
			"0.001": 20.5332587902,
			"0.002": 20.7841852463,
			"0.003": 20.6417360598,
			"0.004": 16.7090067449,
			"0.005": 14.4451330819,
			"0.006": 13.2651422491,
			"0.007": 8.55849372498,
			"0.008": 4.13720816174,
			"0.009": 4.73066428044,
			"0.01": 4.80257943081,
			"0.011": 4.55644260995,
			"0.012": 5.33732155647,
			"0.013": 7.20636531155,
			"0.014": 2.61205541174,
			"0.015": 1.08409997571,
			"0.016": 0.2465816328,
			"0.017": 0.0,
			"0.018": 0.0,
			"0.019": 0.0,
			"0.02": 0.0,
			"0.021": 0.0,
			"0.022": 0.0,
			"0.023": 0.0,
			"0.024": 0.0,
			"0.025": 0.0
		}
	}
}
