{
	 "smiles": "CC1=CC=C(C=C1Br)C(O)=O", 
	 "Tm": 481.65, 
	 "num_atms": 18, 
	 "gaussian": { 
		 "optdone": 1, 
		 "sigma_profile": "yes", 
		 "theory": "DFT", 
		 "functional": "B3LYP", 
		 "basiset": "6-31G**", 
		 "properties": { 
			 "R2extent": 3825.8639, 
			 "electric_dipole_moment_norm": 4.04621776231, 
			 "electric_quadrupole_moment_norm": 17.078073334, 
			 "total_energy": -3030.9374161, 
			 "HOMO_LUMO_gap": 0.19892, 
			 "cosmo_polarized_energy": -13.0, 
			 "cosmo_cavitation_energy": 24.62, 
			 "cosmo_dispersion_energy": -18.5, 
			 "cosmo_repulsion_energy": 1.47, 
			 "cosmo_total_nonelectrostatic_energy": 7.6, 
			 "SMD_solvation_energy": 4.38 
		},
		"coords": [
			{
				"x": -0.4813641372,
				"y": -2.1584032974,
				"z": -0.1023627812,
				"element": "C" 
			},
			{
				"x": 0.0445901048,
				"y": -0.8442948551,
				"z": 0.4093151076,
				"element": "C" 
			},
			{
				"x": 1.1056437099,
				"y": -0.1926090279,
				"z": -0.2400188428,
				"element": "C" 
			},
			{
				"x": 1.6145060066,
				"y": 1.0191658861,
				"z": 0.2120581637,
				"element": "C" 
			},
			{
				"x": 1.0575568753,
				"y": 1.6388228336,
				"z": 1.3366182526,
				"element": "C" 
			},
			{
				"x": 0.0070947058,
				"y": 1.0050125817,
				"z": 2.0116060669,
				"element": "C" 
			},
			{
				"x": -0.4812708124,
				"y": -0.2131728235,
				"z": 1.5469631937,
				"element": "C" 
			},
			{
				"x": -1.9112605689,
				"y": -1.0320166963,
				"z": 2.5227211554,
				"element": "Br" 
			},
			{
				"x": 1.6454349164,
				"y": 2.9436492521,
				"z": 1.7854234634,
				"element": "C" 
			},
			{
				"x": 0.8749787745,
				"y": 3.7209264366,
				"z": 2.5918682467,
				"element": "O" 
			},
			{
				"x": 2.7486739443,
				"y": 3.3147584332,
				"z": 1.4616376872,
				"element": "O" 
			},
			{
				"x": -1.5458076654,
				"y": -2.088891141,
				"z": -0.3503701383,
				"element": "H" 
			},
			{
				"x": -0.3852033601,
				"y": -2.9439742212,
				"z": 0.65466441,
				"element": "H" 
			},
			{
				"x": 0.0623721576,
				"y": -2.4717865213,
				"z": -0.996425696,
				"element": "H" 
			},
			{
				"x": 1.5381425724,
				"y": -0.6590214343,
				"z": -1.120700761,
				"element": "H" 
			},
			{
				"x": 2.442620586,
				"y": 1.5050316431,
				"z": -0.291798497,
				"element": "H" 
			},
			{
				"x": -0.4172854769,
				"y": 1.4212422926,
				"z": 2.9197207598,
				"element": "H" 
			},
			{
				"x": -0.0303223328,
				"y": 3.382260659,
				"z": 2.6232802094,
				"element": "H" 
			}
		],
		 "valence_orbital": [ 
			{
				"type": "occ",
				"energy": -0.31792,
				"method": "rhf"
			},
			{
				"type": "occ",
				"energy": -0.30205,
				"method": "rhf"
			},
			{
				"type": "occ",
				"energy": -0.28034,
				"method": "rhf"
			},
			{
				"type": "occ",
				"energy": -0.27382,
				"method": "rhf"
			},
			{
				"type": "occ",
				"energy": -0.25668,
				"method": "rhf"
			},
			{
				"type": "unocc",
				"energy": -0.05776,
				"method": "rhf"
			},
			{
				"type": "unocc",
				"energy": -0.03287,
				"method": "rhf"
			},
			{
				"type": "unocc",
				"energy": -0.00687,
				"method": "rhf"
			},
			{
				"type": "unocc",
				"energy": 0.03997,
				"method": "rhf"
			},
			{
				"type": "unocc",
				"energy": 0.06297,
				"method": "rhf"
			}
		],
		"cosmo_sigma_profile": { 
			"-0.025": 0.0,
			"-0.024": 0.0,
			"-0.023": 0.0,
			"-0.022": 0.0,
			"-0.021": 0.0,
			"-0.02": 0.101087216267,
			"-0.019": 0.583713743388,
			"-0.018": 0.992308153079,
			"-0.017": 0.994177147573,
			"-0.016": 0.660300232632,
			"-0.015": 0.559588463636,
			"-0.014": 0.988122132184,
			"-0.013": 1.60598010147,
			"-0.012": 1.27183877365,
			"-0.011": 1.08061483754,
			"-0.01": 1.29361531809,
			"-0.009": 1.3686805072,
			"-0.008": 1.47238922547,
			"-0.007": 4.1681478477,
			"-0.006": 6.3441393993,
			"-0.005": 10.3300662323,
			"-0.004": 11.583817774,
			"-0.003": 14.2535618611,
			"-0.002": 14.9039464584,
			"-0.001": 18.3273983408,
			"0.0": 15.7271380649,
			"0.001": 16.923460792,
			"0.002": 19.6897724159,
			"0.003": 13.4241355493,
			"0.004": 10.5887260851,
			"0.005": 3.88896368486,
			"0.006": 2.42731754214,
			"0.007": 2.4702368174,
			"0.008": 2.72085033129,
			"0.009": 3.09657265489,
			"0.01": 5.26923057547,
			"0.011": 4.9279686771,
			"0.012": 4.6290872947,
			"0.013": 1.22381055348,
			"0.014": 0.0224901996761,
			"0.015": 0.0,
			"0.016": 0.0,
			"0.017": 0.0,
			"0.018": 0.0,
			"0.019": 0.0,
			"0.02": 0.0,
			"0.021": 0.0,
			"0.022": 0.0,
			"0.023": 0.0,
			"0.024": 0.0,
			"0.025": 0.0
		}
	}
}
