{
	 "smiles": "COC1=C(C=CC=C1)N(C)S(=O)(=O)C1=CC(C(O)=O)=C(C)C=C1", 
	 "Tm": 427.15, 
	 "num_atms": 40, 
	 "gaussian": { 
		 "optdone": 1, 
		 "sigma_profile": "yes", 
		 "theory": "DFT", 
		 "functional": "B3LYP", 
		 "basiset": "6-31G**", 
		 "properties": { 
			 "R2extent": 7600.9196, 
			 "electric_dipole_moment_norm": 5.10124290051, 
			 "electric_quadrupole_moment_norm": 33.9578598463, 
			 "total_energy": -1448.92930457, 
			 "HOMO_LUMO_gap": 0.17993, 
			 "cosmo_polarized_energy": -21.43, 
			 "cosmo_cavitation_energy": 43.91, 
			 "cosmo_dispersion_energy": -29.68, 
			 "cosmo_repulsion_energy": 2.19, 
			 "cosmo_total_nonelectrostatic_energy": 16.42, 
			 "SMD_solvation_energy": 8.37 
		},
		"coords": [
			{
				"x": -2.7722269164,
				"y": -3.5972266078,
				"z": 0.8682405419,
				"element": "C" 
			},
			{
				"x": -2.1423517124,
				"y": -2.3677233763,
				"z": 1.2070537218,
				"element": "O" 
			},
			{
				"x": -0.7958148509,
				"y": -2.2713036978,
				"z": 1.1003575521,
				"element": "C" 
			},
			{
				"x": -0.2477972008,
				"y": -0.9730281559,
				"z": 1.238763086,
				"element": "C" 
			},
			{
				"x": 1.1377715086,
				"y": -0.8061908004,
				"z": 1.1864556066,
				"element": "C" 
			},
			{
				"x": 1.9908189583,
				"y": -1.8912066429,
				"z": 0.9631953574,
				"element": "C" 
			},
			{
				"x": 1.4400922779,
				"y": -3.1628712222,
				"z": 0.8017088161,
				"element": "C" 
			},
			{
				"x": 0.059601651,
				"y": -3.3585212849,
				"z": 0.8761375151,
				"element": "C" 
			},
			{
				"x": -1.0785199137,
				"y": 0.1824992219,
				"z": 1.4175199347,
				"element": "N" 
			},
			{
				"x": -1.8625026033,
				"y": 0.2936443533,
				"z": 2.6609780109,
				"element": "C" 
			},
			{
				"x": -1.7658419206,
				"y": 0.8321192614,
				"z": -0.0064508416,
				"element": "S" 
			},
			{
				"x": -2.146672436,
				"y": -0.2304885188,
				"z": -0.9426499893,
				"element": "O" 
			},
			{
				"x": -2.7327276407,
				"y": 1.8422748044,
				"z": 0.434671509,
				"element": "O" 
			},
			{
				"x": -0.3584023557,
				"y": 1.6705906859,
				"z": -0.7376690066,
				"element": "C" 
			},
			{
				"x": 0.512403303,
				"y": 0.9471816078,
				"z": -1.5473728515,
				"element": "C" 
			},
			{
				"x": 1.6545290647,
				"y": 1.5577566136,
				"z": -2.0794822896,
				"element": "C" 
			},
			{
				"x": 2.5945336667,
				"y": 0.7325624345,
				"z": -2.911523613,
				"element": "C" 
			},
			{
				"x": 2.6994987097,
				"y": -0.5779321696,
				"z": -2.5644818609,
				"element": "O" 
			},
			{
				"x": 3.2371277074,
				"y": 1.1608964154,
				"z": -3.8418157387,
				"element": "O" 
			},
			{
				"x": 1.8979175881,
				"y": 2.9329099754,
				"z": -1.8472811259,
				"element": "C" 
			},
			{
				"x": 3.0859374217,
				"y": 3.6585535204,
				"z": -2.4281623792,
				"element": "C" 
			},
			{
				"x": 0.9892953424,
				"y": 3.6321677131,
				"z": -1.0395674463,
				"element": "C" 
			},
			{
				"x": -0.1269876435,
				"y": 3.018637929,
				"z": -0.4736403245,
				"element": "C" 
			},
			{
				"x": -2.5186028122,
				"y": -3.9029751427,
				"z": -0.1530656781,
				"element": "H" 
			},
			{
				"x": -3.8440714943,
				"y": -3.4089492648,
				"z": 0.9332091624,
				"element": "H" 
			},
			{
				"x": -2.5013816988,
				"y": -4.3964421188,
				"z": 1.5694363659,
				"element": "H" 
			},
			{
				"x": 1.5325500074,
				"y": 0.195504645,
				"z": 1.3219869811,
				"element": "H" 
			},
			{
				"x": 3.0665167442,
				"y": -1.7471976291,
				"z": 0.9360013856,
				"element": "H" 
			},
			{
				"x": 2.0861519533,
				"y": -4.0180635786,
				"z": 0.6260369822,
				"element": "H" 
			},
			{
				"x": -0.3451761413,
				"y": -4.3563410807,
				"z": 0.7572179163,
				"element": "H" 
			},
			{
				"x": -1.1612425261,
				"y": 0.2306073693,
				"z": 3.4974189024,
				"element": "H" 
			},
			{
				"x": -2.6125462733,
				"y": -0.4973561658,
				"z": 2.7539073991,
				"element": "H" 
			},
			{
				"x": -2.3540358004,
				"y": 1.2657866665,
				"z": 2.6801720689,
				"element": "H" 
			},
			{
				"x": 0.2734709669,
				"y": -0.0847349402,
				"z": -1.7809609581,
				"element": "H" 
			},
			{
				"x": 2.2606854109,
				"y": -0.7501353458,
				"z": -1.7170684372,
				"element": "H" 
			},
			{
				"x": 3.0101981553,
				"y": 3.7162448117,
				"z": -3.5170834381,
				"element": "H" 
			},
			{
				"x": 4.0232955444,
				"y": 3.1348678811,
				"z": -2.2199543296,
				"element": "H" 
			},
			{
				"x": 3.1513614273,
				"y": 4.6706213529,
				"z": -2.0209205797,
				"element": "H" 
			},
			{
				"x": 1.1659503631,
				"y": 4.6868451184,
				"z": -0.8487359439,
				"element": "H" 
			},
			{
				"x": -0.819205832,
				"y": 3.5745153624,
				"z": 0.1495180165,
				"element": "H" 
			}
		],
		 "valence_orbital": [ 
			{
				"type": "occ",
				"energy": -0.27954,
				"method": "rhf"
			},
			{
				"type": "occ",
				"energy": -0.27046,
				"method": "rhf"
			},
			{
				"type": "occ",
				"energy": -0.26758,
				"method": "rhf"
			},
			{
				"type": "occ",
				"energy": -0.24869,
				"method": "rhf"
			},
			{
				"type": "occ",
				"energy": -0.23749,
				"method": "rhf"
			},
			{
				"type": "unocc",
				"energy": -0.05756,
				"method": "rhf"
			},
			{
				"type": "unocc",
				"energy": -0.03989,
				"method": "rhf"
			},
			{
				"type": "unocc",
				"energy": -0.0299,
				"method": "rhf"
			},
			{
				"type": "unocc",
				"energy": -0.01008,
				"method": "rhf"
			},
			{
				"type": "unocc",
				"energy": 0.03061,
				"method": "rhf"
			}
		],
		"cosmo_sigma_profile": { 
			"-0.025": 0.0,
			"-0.024": 0.0,
			"-0.023": 0.0,
			"-0.022": 0.0,
			"-0.021": 0.0,
			"-0.02": 0.0,
			"-0.019": 0.0,
			"-0.018": 0.0,
			"-0.017": 0.0,
			"-0.016": 0.0,
			"-0.015": 0.0,
			"-0.014": 0.0,
			"-0.013": 0.175531071996,
			"-0.012": 0.841986256295,
			"-0.011": 0.947687750571,
			"-0.01": 1.77156237698,
			"-0.009": 1.71052629043,
			"-0.008": 2.68718700651,
			"-0.007": 10.2213516966,
			"-0.006": 23.1383254436,
			"-0.005": 29.8992658525,
			"-0.004": 30.5446342381,
			"-0.003": 29.9329763564,
			"-0.002": 27.5816278459,
			"-0.001": 26.7273644468,
			"0.0": 27.1187167304,
			"0.001": 24.3123048609,
			"0.002": 18.4589000808,
			"0.003": 14.2828453166,
			"0.004": 13.5003488805,
			"0.005": 8.14845560363,
			"0.006": 5.49892786296,
			"0.007": 7.22111384619,
			"0.008": 5.81313207401,
			"0.009": 9.14454191658,
			"0.01": 11.8769786814,
			"0.011": 12.2107694873,
			"0.012": 4.55869986039,
			"0.013": 1.00220451667,
			"0.014": 0.0,
			"0.015": 0.0,
			"0.016": 0.0,
			"0.017": 0.0,
			"0.018": 0.0,
			"0.019": 0.0,
			"0.02": 0.0,
			"0.021": 0.0,
			"0.022": 0.0,
			"0.023": 0.0,
			"0.024": 0.0,
			"0.0": 0.0
		}
	}
}
