{
	 "smiles": "OC1=CC=CC=C1CC1=CC=CC=C1", 
	 "Tm": 325.15, 
	 "num_atms": 26, 
	 "gaussian": { 
		 "optdone": 1, 
		 "sigma_profile": "yes", 
		 "theory": "DFT", 
		 "functional": "B3LYP", 
		 "basiset": "6-31G**", 
		 "properties": { 
			 "R2extent": 3340.0947, 
			 "electric_dipole_moment_norm": 1.89322231394, 
			 "electric_quadrupole_moment_norm": 9.0922333527, 
			 "total_energy": -577.844459738, 
			 "HOMO_LUMO_gap": 0.20065, 
			 "cosmo_polarized_energy": -7.53, 
			 "cosmo_cavitation_energy": 29.11, 
			 "cosmo_dispersion_energy": -20.98, 
			 "cosmo_repulsion_energy": 1.64, 
			 "cosmo_total_nonelectrostatic_energy": 9.77, 
			 "SMD_solvation_energy": 4.82 
		},
		"coords": [
			{
				"x": 0.6209143016,
				"y": -0.0986585024,
				"z": -2.5964218359,
				"element": "O" 
			},
			{
				"x": 0.5000587946,
				"y": 1.1071658085,
				"z": -1.9642721469,
				"element": "C" 
			},
			{
				"x": -0.3346824133,
				"y": 2.0562275695,
				"z": -2.5621891732,
				"element": "C" 
			},
			{
				"x": -0.4904114539,
				"y": 3.3145563991,
				"z": -1.9849379785,
				"element": "C" 
			},
			{
				"x": 0.1785945482,
				"y": 3.6317483189,
				"z": -0.8014780547,
				"element": "C" 
			},
			{
				"x": 1.0130487436,
				"y": 2.6805986108,
				"z": -0.2133525559,
				"element": "C" 
			},
			{
				"x": 1.1983524039,
				"y": 1.413322271,
				"z": -0.7781470787,
				"element": "C" 
			},
			{
				"x": 2.1603898485,
				"y": 0.4135803307,
				"z": -0.1637893526,
				"element": "C" 
			},
			{
				"x": 1.5471456101,
				"y": -0.9250976835,
				"z": 0.2332978169,
				"element": "C" 
			},
			{
				"x": 0.3555057891,
				"y": -0.9802631282,
				"z": 0.9736492864,
				"element": "C" 
			},
			{
				"x": -0.1850445306,
				"y": -2.2044286177,
				"z": 1.3628440375,
				"element": "C" 
			},
			{
				"x": 0.4513609478,
				"y": -3.3992429069,
				"z": 1.0139191377,
				"element": "C" 
			},
			{
				"x": 1.6318901458,
				"y": -3.3596086853,
				"z": 0.273258668,
				"element": "C" 
			},
			{
				"x": 2.1746206589,
				"y": -2.1305551911,
				"z": -0.1129150047,
				"element": "C" 
			},
			{
				"x": 0.9599160784,
				"y": -0.7604929496,
				"z": -1.9756884233,
				"element": "H" 
			},
			{
				"x": -0.8518578076,
				"y": 1.7829758756,
				"z": -3.4763134367,
				"element": "H" 
			},
			{
				"x": -1.1417737813,
				"y": 4.0439708962,
				"z": -2.458044116,
				"element": "H" 
			},
			{
				"x": 0.0568699141,
				"y": 4.6082814799,
				"z": -0.3430924396,
				"element": "H" 
			},
			{
				"x": 1.5468181016,
				"y": 2.9249260233,
				"z": 0.7023425634,
				"element": "H" 
			},
			{
				"x": 2.987835529,
				"y": 0.2225781851,
				"z": -0.8605366756,
				"element": "H" 
			},
			{
				"x": 2.6154532281,
				"y": 0.8730894208,
				"z": 0.7220383683,
				"element": "H" 
			},
			{
				"x": -0.1491686697,
				"y": -0.0547724979,
				"z": 1.2367597402,
				"element": "H" 
			},
			{
				"x": -1.1072322697,
				"y": -2.2277893126,
				"z": 1.9366541956,
				"element": "H" 
			},
			{
				"x": 0.0261335894,
				"y": -4.3523681282,
				"z": 1.314448639,
				"element": "H" 
			},
			{
				"x": 2.1329768399,
				"y": -4.2819192576,
				"z": -0.0065585524,
				"element": "H" 
			},
			{
				"x": 3.1003858536,
				"y": -2.1058243283,
				"z": -0.6836756285,
				"element": "H" 
			}
		],
		 "valence_orbital": [ 
			{
				"type": "occ",
				"energy": -0.31993,
				"method": "rhf"
			},
			{
				"type": "occ",
				"energy": -0.25804,
				"method": "rhf"
			},
			{
				"type": "occ",
				"energy": -0.25302,
				"method": "rhf"
			},
			{
				"type": "occ",
				"energy": -0.24,
				"method": "rhf"
			},
			{
				"type": "occ",
				"energy": -0.21345,
				"method": "rhf"
			},
			{
				"type": "unocc",
				"energy": -0.0128,
				"method": "rhf"
			},
			{
				"type": "unocc",
				"energy": -0.01149,
				"method": "rhf"
			},
			{
				"type": "unocc",
				"energy": 0.00674,
				"method": "rhf"
			},
			{
				"type": "unocc",
				"energy": 0.01648,
				"method": "rhf"
			},
			{
				"type": "unocc",
				"energy": 0.08953,
				"method": "rhf"
			}
		],
		"cosmo_sigma_profile": { 
			"-0.025": 0.0,
			"-0.024": 0.0,
			"-0.023": 0.0,
			"-0.022": 0.0,
			"-0.021": 0.0,
			"-0.02": 0.0,
			"-0.019": 0.0,
			"-0.018": 0.0,
			"-0.017": 0.0,
			"-0.016": 0.0,
			"-0.015": 0.0,
			"-0.014": 0.0,
			"-0.013": 0.0,
			"-0.012": 0.0,
			"-0.011": 0.0,
			"-0.01": 0.0,
			"-0.009": 0.0735438766291,
			"-0.008": 1.49502404744,
			"-0.007": 2.19079697614,
			"-0.006": 10.0290326842,
			"-0.005": 23.7312503963,
			"-0.004": 21.5693570238,
			"-0.003": 23.1362575408,
			"-0.002": 18.1262000699,
			"-0.001": 17.8923607751,
			"0.0": 13.2094151314,
			"0.001": 13.109820266,
			"0.002": 16.0928663452,
			"0.003": 14.5412672079,
			"0.004": 17.1934286221,
			"0.005": 17.2545157324,
			"0.006": 11.4805936806,
			"0.007": 3.50031877996,
			"0.008": 1.34276459096,
			"0.009": 1.50912164288,
			"0.01": 1.86453030272,
			"0.011": 1.57118174134,
			"0.012": 1.32652034325,
			"0.013": 0.0,
			"0.014": 0.0,
			"0.015": 0.0,
			"0.016": 0.0,
			"0.017": 0.0,
			"0.018": 0.0,
			"0.019": 0.0,
			"0.02": 0.0,
			"0.021": 0.0,
			"0.022": 0.0,
			"0.023": 0.0,
			"0.024": 0.0,
			"0.025": 0.0
		}
	}
}
