{
	 "smiles": "CC1=CC(=CC=C1)C(=O)NC(CCS(C)(=O)=O)C(O)=O", 
	 "Tm": 510.15, 
	 "num_atms": 37, 
	 "gaussian": { 
		 "optdone": 1, 
		 "sigma_profile": "yes", 
		 "theory": "DFT", 
		 "functional": "B3LYP", 
		 "basiset": "6-31G**", 
		 "properties": { 
			 "R2extent": 8338.1924, 
			 "electric_dipole_moment_norm": 6.08272618733, 
			 "electric_quadrupole_moment_norm": 26.0583159868, 
			 "total_energy": -1334.6675108, 
			 "HOMO_LUMO_gap": 0.21105, 
			 "cosmo_polarized_energy": -27.68, 
			 "cosmo_cavitation_energy": 42.63, 
			 "cosmo_dispersion_energy": -29.45, 
			 "cosmo_repulsion_energy": 2.24, 
			 "cosmo_total_nonelectrostatic_energy": 15.42, 
			 "SMD_solvation_energy": 7.65 
		},
		"coords": [
			{
				"x": 1.0003795047,
				"y": -5.5111961973,
				"z": -0.764237214,
				"element": "C" 
			},
			{
				"x": -0.1973785049,
				"y": -4.5934815597,
				"z": -0.6919076467,
				"element": "C" 
			},
			{
				"x": -0.0385525283,
				"y": -3.2115720968,
				"z": -0.5627892388,
				"element": "C" 
			},
			{
				"x": -1.145005794,
				"y": -2.3596791289,
				"z": -0.4537273856,
				"element": "C" 
			},
			{
				"x": -2.4395660731,
				"y": -2.8916707912,
				"z": -0.5159803081,
				"element": "C" 
			},
			{
				"x": -2.6110716483,
				"y": -4.2686511616,
				"z": -0.6611338248,
				"element": "C" 
			},
			{
				"x": -1.5019232561,
				"y": -5.1097185429,
				"z": -0.7380299441,
				"element": "C" 
			},
			{
				"x": -0.8876258997,
				"y": -0.8855753285,
				"z": -0.3328232964,
				"element": "C" 
			},
			{
				"x": 0.0900124684,
				"y": -0.355623792,
				"z": -0.8568804529,
				"element": "O" 
			},
			{
				"x": -1.781723297,
				"y": -0.2013608877,
				"z": 0.4635945257,
				"element": "N" 
			},
			{
				"x": -2.0474480874,
				"y": 1.2294757033,
				"z": 0.3986006279,
				"element": "C" 
			},
			{
				"x": -0.7976965689,
				"y": 2.1306270746,
				"z": 0.3069162082,
				"element": "C" 
			},
			{
				"x": 0.1982279493,
				"y": 1.8359676511,
				"z": 1.4246512169,
				"element": "C" 
			},
			{
				"x": 1.693293234,
				"y": 2.8683195525,
				"z": 1.3433705958,
				"element": "S" 
			},
			{
				"x": 2.5737777895,
				"y": 2.2544199579,
				"z": -0.1117211521,
				"element": "C" 
			},
			{
				"x": 2.503578289,
				"y": 2.5427262664,
				"z": 2.5283369817,
				"element": "O" 
			},
			{
				"x": 1.2836865663,
				"y": 4.2582227684,
				"z": 1.0774200607,
				"element": "O" 
			},
			{
				"x": -3.048427264,
				"y": 1.5195359427,
				"z": -0.7325301198,
				"element": "C" 
			},
			{
				"x": -3.2964619779,
				"y": 2.8403031742,
				"z": -0.8510837334,
				"element": "O" 
			},
			{
				"x": -3.5898267353,
				"y": 0.6767025905,
				"z": -1.410963254,
				"element": "O" 
			},
			{
				"x": 1.2039036748,
				"y": -5.9731851368,
				"z": 0.2097414517,
				"element": "H" 
			},
			{
				"x": 1.9009190338,
				"y": -4.9685501793,
				"z": -1.064292364,
				"element": "H" 
			},
			{
				"x": 0.8386687783,
				"y": -6.3235881984,
				"z": -1.4797426526,
				"element": "H" 
			},
			{
				"x": 0.9536196214,
				"y": -2.7706561974,
				"z": -0.5477704041,
				"element": "H" 
			},
			{
				"x": -3.3044059908,
				"y": -2.2340526335,
				"z": -0.5158291222,
				"element": "H" 
			},
			{
				"x": -3.6120597822,
				"y": -4.6846479971,
				"z": -0.7289338645,
				"element": "H" 
			},
			{
				"x": -1.6474647732,
				"y": -6.1815029956,
				"z": -0.8495317191,
				"element": "H" 
			},
			{
				"x": -2.5575519414,
				"y": -0.7509284294,
				"z": 0.8032758343,
				"element": "H" 
			},
			{
				"x": -2.5725862998,
				"y": 1.4919911548,
				"z": 1.3276556318,
				"element": "H" 
			},
			{
				"x": -1.1248463349,
				"y": 3.1704478173,
				"z": 0.3702026192,
				"element": "H" 
			},
			{
				"x": -0.3249528952,
				"y": 1.9781780839,
				"z": -0.6632636818,
				"element": "H" 
			},
			{
				"x": 0.5410468911,
				"y": 0.8002110982,
				"z": 1.4086698057,
				"element": "H" 
			},
			{
				"x": -0.2086519738,
				"y": 2.0565287524,
				"z": 2.41717007,
				"element": "H" 
			},
			{
				"x": 3.5191867941,
				"y": 2.799366249,
				"z": -0.136087052,
				"element": "H" 
			},
			{
				"x": 2.7494816463,
				"y": 1.183699214,
				"z": -0.0034664092,
				"element": "H" 
			},
			{
				"x": 1.9933407941,
				"y": 2.461499981,
				"z": -1.0108570866,
				"element": "H" 
			},
			{
				"x": -3.9510954089,
				"y": 2.9395182223,
				"z": -1.5632237026,
				"element": "H" 
			}
		],
		 "valence_orbital": [ 
			{
				"type": "occ",
				"energy": -0.27923,
				"method": "rhf"
			},
			{
				"type": "occ",
				"energy": -0.27302,
				"method": "rhf"
			},
			{
				"type": "occ",
				"energy": -0.26978,
				"method": "rhf"
			},
			{
				"type": "occ",
				"energy": -0.2554,
				"method": "rhf"
			},
			{
				"type": "occ",
				"energy": -0.25398,
				"method": "rhf"
			},
			{
				"type": "unocc",
				"energy": -0.04293,
				"method": "rhf"
			},
			{
				"type": "unocc",
				"energy": -0.01361,
				"method": "rhf"
			},
			{
				"type": "unocc",
				"energy": -0.01263,
				"method": "rhf"
			},
			{
				"type": "unocc",
				"energy": 0.03985,
				"method": "rhf"
			},
			{
				"type": "unocc",
				"energy": 0.05878,
				"method": "rhf"
			}
		],
		"cosmo_sigma_profile": { 
			"-0.025": 0.0,
			"-0.024": 0.0,
			"-0.023": 0.0,
			"-0.022": 0.0,
			"-0.021": 0.0,
			"-0.02": 0.00290567472691,
			"-0.019": 0.596830180037,
			"-0.018": 1.05874242558,
			"-0.017": 1.03905351508,
			"-0.016": 0.38490485829,
			"-0.015": 0.825919389403,
			"-0.014": 1.06102366527,
			"-0.013": 2.13046511114,
			"-0.012": 2.91161984995,
			"-0.011": 2.13809689781,
			"-0.01": 2.27026584112,
			"-0.009": 6.65318278172,
			"-0.008": 14.8196076825,
			"-0.007": 9.94849163778,
			"-0.006": 14.3317627491,
			"-0.005": 19.2975676092,
			"-0.004": 27.6996603655,
			"-0.003": 22.3574179734,
			"-0.002": 21.1950141088,
			"-0.001": 20.0796070342,
			"0.0": 21.7368329875,
			"0.001": 17.5812337667,
			"0.002": 16.0357869727,
			"0.003": 17.6933413635,
			"0.004": 17.9329099427,
			"0.005": 11.761747392,
			"0.006": 6.81256849257,
			"0.007": 5.94054237718,
			"0.008": 6.0523478371,
			"0.009": 6.51378083228,
			"0.01": 6.36563244518,
			"0.011": 11.5276171963,
			"0.012": 13.8850079597,
			"0.013": 5.23011976125,
			"0.014": 0.787072332717,
			"0.015": 0.0,
			"0.016": 0.0,
			"0.017": 0.0,
			"0.018": 0.0,
			"0.019": 0.0,
			"0.02": 0.0,
			"0.021": 0.0,
			"0.022": 0.0,
			"0.023": 0.0,
			"0.024": 0.0,
			"0.025": 0.0
		}
	}
}
