{
	 "smiles": "NC1=C(C=C(O1)C1=CC=CC=C1)C#N", 
	 "Tm": 469.15, 
	 "num_atms": 22, 
	 "gaussian": { 
		 "optdone": 1, 
		 "sigma_profile": "yes", 
		 "theory": "DFT", 
		 "functional": "B3LYP", 
		 "basiset": "6-31G**", 
		 "properties": { 
			 "R2extent": 3520.9459, 
			 "electric_dipole_moment_norm": 4.32177406166, 
			 "electric_quadrupole_moment_norm": 24.7046626336, 
			 "total_energy": -608.692363425, 
			 "HOMO_LUMO_gap": 0.1625, 
			 "cosmo_polarized_energy": -14.79, 
			 "cosmo_cavitation_energy": 28.28, 
			 "cosmo_dispersion_energy": -20.13, 
			 "cosmo_repulsion_energy": 1.58, 
			 "cosmo_total_nonelectrostatic_energy": 9.72, 
			 "SMD_solvation_energy": 6.55 
		},
		"coords": [
			{
				"x": -0.9833001436,
				"y": 3.4216509252,
				"z": -0.0115001356,
				"element": "N" 
			},
			{
				"x": -0.5150281274,
				"y": 2.2061406115,
				"z": 0.3947785631,
				"element": "C" 
			},
			{
				"x": -0.642295243,
				"y": 1.5082512508,
				"z": 1.5837818875,
				"element": "C" 
			},
			{
				"x": 0.007792171,
				"y": 0.2416131763,
				"z": 1.3593709505,
				"element": "C" 
			},
			{
				"x": 0.4848747735,
				"y": 0.2485002624,
				"z": 0.0835583054,
				"element": "C" 
			},
			{
				"x": 0.154175174,
				"y": 1.4720632555,
				"z": -0.5103736267,
				"element": "O" 
			},
			{
				"x": 1.2242503343,
				"y": -0.6986947529,
				"z": -0.7356835452,
				"element": "C" 
			},
			{
				"x": 1.6253385822,
				"y": -1.938111183,
				"z": -0.201328718,
				"element": "C" 
			},
			{
				"x": 2.3308361128,
				"y": -2.8496535496,
				"z": -0.9800252348,
				"element": "C" 
			},
			{
				"x": 2.6541384345,
				"y": -2.5472245483,
				"z": -2.3059850297,
				"element": "C" 
			},
			{
				"x": 2.2617342929,
				"y": -1.3206037468,
				"z": -2.8440458698,
				"element": "C" 
			},
			{
				"x": 1.5534764744,
				"y": -0.4029558438,
				"z": -2.0707968481,
				"element": "C" 
			},
			{
				"x": -1.2744325036,
				"y": 2.0006948853,
				"z": 2.7477535397,
				"element": "C" 
			},
			{
				"x": -1.7986372948,
				"y": 2.4415109621,
				"z": 3.6916161237,
				"element": "N" 
			},
			{
				"x": -0.4711893291,
				"y": 3.8671904971,
				"z": -0.7599948916,
				"element": "H" 
			},
			{
				"x": -1.2789402329,
				"y": 4.0424852027,
				"z": 0.7287395139,
				"element": "H" 
			},
			{
				"x": 0.0968206899,
				"y": -0.5560511363,
				"z": 2.0810130216,
				"element": "H" 
			},
			{
				"x": 1.3839679146,
				"y": -2.1865409688,
				"z": 0.8278030145,
				"element": "H" 
			},
			{
				"x": 2.6310882245,
				"y": -3.8006767293,
				"z": -0.5496332101,
				"element": "H" 
			},
			{
				"x": 3.2054695175,
				"y": -3.2604643075,
				"z": -2.9112317339,
				"element": "H" 
			},
			{
				"x": 2.5065870481,
				"y": -1.0746164767,
				"z": -3.873412516,
				"element": "H" 
			},
			{
				"x": 1.24987313,
				"y": 0.5466922139,
				"z": -2.4972035605,
				"element": "H" 
			}
		],
		 "valence_orbital": [ 
			{
				"type": "occ",
				"energy": -0.32386,
				"method": "rhf"
			},
			{
				"type": "occ",
				"energy": -0.29305,
				"method": "rhf"
			},
			{
				"type": "occ",
				"energy": -0.2651,
				"method": "rhf"
			},
			{
				"type": "occ",
				"energy": -0.25683,
				"method": "rhf"
			},
			{
				"type": "occ",
				"energy": -0.19869,
				"method": "rhf"
			},
			{
				"type": "unocc",
				"energy": -0.03619,
				"method": "rhf"
			},
			{
				"type": "unocc",
				"energy": -0.0086,
				"method": "rhf"
			},
			{
				"type": "unocc",
				"energy": -0.00154,
				"method": "rhf"
			},
			{
				"type": "unocc",
				"energy": 0.02834,
				"method": "rhf"
			},
			{
				"type": "unocc",
				"energy": 0.05926,
				"method": "rhf"
			}
		],
		"cosmo_sigma_profile": { 
			"-0.025": 0.0,
			"-0.024": 0.0,
			"-0.023": 0.0,
			"-0.022": 0.0,
			"-0.021": 0.0,
			"-0.02": 0.0,
			"-0.019": 0.0,
			"-0.018": 0.0,
			"-0.017": 0.0,
			"-0.016": 0.0880533808326,
			"-0.015": 2.03330287041,
			"-0.014": 2.7119463653,
			"-0.013": 2.53263694681,
			"-0.012": 2.61108958334,
			"-0.011": 1.84243952676,
			"-0.01": 2.05581378532,
			"-0.009": 2.53090787741,
			"-0.008": 4.73212713338,
			"-0.007": 4.76375986936,
			"-0.006": 8.49848066054,
			"-0.005": 13.5133944329,
			"-0.004": 14.8446670867,
			"-0.003": 12.471446053,
			"-0.002": 11.8514531045,
			"-0.001": 11.1692949782,
			"0.0": 14.9611742111,
			"0.001": 18.5677010289,
			"0.002": 19.9386913763,
			"0.003": 19.5476966025,
			"0.004": 13.7675770833,
			"0.005": 12.5489188568,
			"0.006": 6.9290962102,
			"0.007": 3.55040005663,
			"0.008": 2.64100111864,
			"0.009": 4.21711356397,
			"0.01": 3.64530264254,
			"0.011": 3.27397571326,
			"0.012": 2.95406357554,
			"0.013": 2.3713803983,
			"0.014": 1.05606651116,
			"0.015": 0.0,
			"0.016": 0.0,
			"0.017": 0.0,
			"0.018": 0.0,
			"0.019": 0.0,
			"0.02": 0.0,
			"0.021": 0.0,
			"0.022": 0.0,
			"0.023": 0.0,
			"0.024": 0.0,
			"0.025": 0.0
		}
	}
}
