{
	 "smiles": "CCOC(=O)CC1=NC2=C(N1)C=CC=C2", 
	 "Tm": 453.15, 
	 "num_atms": 27, 
	 "gaussian": { 
		 "optdone": 1, 
		 "sigma_profile": "yes", 
		 "theory": "DFT", 
		 "functional": "B3LYP", 
		 "basiset": "6-31G**", 
		 "properties": { 
			 "R2extent": 4088.0327, 
			 "electric_dipole_moment_norm": 4.49183786996, 
			 "electric_quadrupole_moment_norm": 7.02426882957, 
			 "total_energy": -686.385614118, 
			 "HOMO_LUMO_gap": 0.20305, 
			 "cosmo_polarized_energy": -14.78, 
			 "cosmo_cavitation_energy": 31.22, 
			 "cosmo_dispersion_energy": -22.44, 
			 "cosmo_repulsion_energy": 1.78, 
			 "cosmo_total_nonelectrostatic_energy": 10.56, 
			 "SMD_solvation_energy": 4.0 
		},
		"coords": [
			{
				"x": -0.8393104452,
				"y": 3.2248126287,
				"z": 0.649554264,
				"element": "C" 
			},
			{
				"x": 0.6799628677,
				"y": 3.1696884612,
				"z": 0.6707376889,
				"element": "C" 
			},
			{
				"x": 1.1658351888,
				"y": 1.8166494088,
				"z": 0.4563659972,
				"element": "O" 
			},
			{
				"x": 1.2343631541,
				"y": 1.0168504263,
				"z": 1.5540928344,
				"element": "C" 
			},
			{
				"x": 0.942964176,
				"y": 1.378891347,
				"z": 2.6693561804,
				"element": "O" 
			},
			{
				"x": 1.7700829149,
				"y": -0.3617906141,
				"z": 1.1945956202,
				"element": "C" 
			},
			{
				"x": 0.9859798234,
				"y": -1.1050205442,
				"z": 0.151201808,
				"element": "C" 
			},
			{
				"x": 0.5940411104,
				"y": -2.3503357219,
				"z": 0.2751825305,
				"element": "N" 
			},
			{
				"x": -0.0413131771,
				"y": -2.6465559865,
				"z": -0.9244238554,
				"element": "C" 
			},
			{
				"x": -0.0196799791,
				"y": -1.5210496696,
				"z": -1.7850039177,
				"element": "C" 
			},
			{
				"x": 0.658151827,
				"y": -0.5508784541,
				"z": -1.0678449949,
				"element": "N" 
			},
			{
				"x": -0.5976252635,
				"y": -1.5361818191,
				"z": -3.0559154456,
				"element": "C" 
			},
			{
				"x": -1.2043705459,
				"y": -2.7254558595,
				"z": -3.4535113576,
				"element": "C" 
			},
			{
				"x": -1.2326489614,
				"y": -3.8560742109,
				"z": -2.6121406874,
				"element": "C" 
			},
			{
				"x": -0.6561676184,
				"y": -3.832200653,
				"z": -1.345982508,
				"element": "C" 
			},
			{
				"x": -1.1716452965,
				"y": 4.2637615975,
				"z": 0.7445634172,
				"element": "H" 
			},
			{
				"x": -1.2568363937,
				"y": 2.6545936661,
				"z": 1.4826153805,
				"element": "H" 
			},
			{
				"x": -1.2357042185,
				"y": 2.8240609525,
				"z": -0.288242254,
				"element": "H" 
			},
			{
				"x": 1.0763280023,
				"y": 3.5311551613,
				"z": 1.6219086736,
				"element": "H" 
			},
			{
				"x": 1.11782812,
				"y": 3.7454967109,
				"z": -0.1479646671,
				"element": "H" 
			},
			{
				"x": 2.8059830874,
				"y": -0.2285265095,
				"z": 0.8520393837,
				"element": "H" 
			},
			{
				"x": 1.784438604,
				"y": -0.9661504398,
				"z": 2.1005024784,
				"element": "H" 
			},
			{
				"x": 0.806579465,
				"y": 0.4173427218,
				"z": -1.3086602344,
				"element": "H" 
			},
			{
				"x": -0.5763616337,
				"y": -0.6678669168,
				"z": -3.7077792109,
				"element": "H" 
			},
			{
				"x": -1.6653293229,
				"y": -2.7826685491,
				"z": -4.4352336346,
				"element": "H" 
			},
			{
				"x": -1.7159486365,
				"y": -4.7628948361,
				"z": -2.9635758037,
				"element": "H" 
			},
			{
				"x": -0.6760968486,
				"y": -4.6988522975,
				"z": -0.693137686,
				"element": "H" 
			}
		],
		 "valence_orbital": [ 
			{
				"type": "occ",
				"energy": -0.30213,
				"method": "rhf"
			},
			{
				"type": "occ",
				"energy": -0.28709,
				"method": "rhf"
			},
			{
				"type": "occ",
				"energy": -0.26863,
				"method": "rhf"
			},
			{
				"type": "occ",
				"energy": -0.22426,
				"method": "rhf"
			},
			{
				"type": "occ",
				"energy": -0.21976,
				"method": "rhf"
			},
			{
				"type": "unocc",
				"energy": -0.01671,
				"method": "rhf"
			},
			{
				"type": "unocc",
				"energy": 0.00017,
				"method": "rhf"
			},
			{
				"type": "unocc",
				"energy": 0.02478,
				"method": "rhf"
			},
			{
				"type": "unocc",
				"energy": 0.05679,
				"method": "rhf"
			},
			{
				"type": "unocc",
				"energy": 0.07785,
				"method": "rhf"
			}
		],
		"cosmo_sigma_profile": { 
			"-0.025": 0.0,
			"-0.024": 0.0,
			"-0.023": 0.0,
			"-0.022": 0.0,
			"-0.021": 0.0,
			"-0.02": 0.0,
			"-0.019": 0.0,
			"-0.018": 0.0,
			"-0.017": 0.0,
			"-0.016": 0.0,
			"-0.015": 0.00403371367345,
			"-0.014": 0.727788357122,
			"-0.013": 0.687452420126,
			"-0.012": 0.910012207279,
			"-0.011": 0.927129977945,
			"-0.01": 0.882173697262,
			"-0.009": 1.72984068794,
			"-0.008": 4.10621599432,
			"-0.007": 5.46634583071,
			"-0.006": 10.7259609215,
			"-0.005": 18.3419064353,
			"-0.004": 26.198017244,
			"-0.003": 25.8508750487,
			"-0.002": 19.3227677881,
			"-0.001": 18.115578034,
			"0.0": 16.9330958367,
			"0.001": 11.3144652481,
			"0.002": 12.3811722428,
			"0.003": 10.2827365906,
			"0.004": 13.2951471818,
			"0.005": 12.6265379288,
			"0.006": 10.9642176182,
			"0.007": 4.05888829211,
			"0.008": 3.00201580154,
			"0.009": 3.14323915478,
			"0.01": 3.36290325469,
			"0.011": 5.00764667609,
			"0.012": 3.24745230177,
			"0.013": 1.07614605959,
			"0.014": 1.0410187149,
			"0.015": 0.767836537431,
			"0.016": 0.888925747859,
			"0.017": 0.929458345434,
			"0.018": 0.103012343737,
			"0.019": 0.0,
			"0.02": 0.0,
			"0.021": 0.0,
			"0.022": 0.0,
			"0.023": 0.0,
			"0.024": 0.0,
			"0.0": 0.0
		}
	}
}
