{
	 "smiles": "ClC1=CC=C(C=C1)C(=O)C1=CC=CC=C1Cl", 
	 "Tm": 339.15, 
	 "num_atms": 24, 
	 "gaussian": { 
		 "optdone": 1, 
		 "sigma_profile": "yes", 
		 "theory": "DFT", 
		 "functional": "B3LYP", 
		 "basiset": "6-31G**", 
		 "properties": { 
			 "R2extent": 5580.4524, 
			 "electric_dipole_moment_norm": 3.04643495745, 
			 "electric_quadrupole_moment_norm": 9.79789636912, 
			 "total_energy": -1495.81085267, 
			 "HOMO_LUMO_gap": 0.1817, 
			 "cosmo_polarized_energy": -8.82, 
			 "cosmo_cavitation_energy": 32.43, 
			 "cosmo_dispersion_energy": -23.22, 
			 "cosmo_repulsion_energy": 1.81, 
			 "cosmo_total_nonelectrostatic_energy": 11.01, 
			 "SMD_solvation_energy": 5.4 
		},
		"coords": [
			{
				"x": 2.532643273,
				"y": 5.3128408674,
				"z": -0.5765997016,
				"element": "Cl" 
			},
			{
				"x": 2.1389057438,
				"y": 3.6184046379,
				"z": -0.352815284,
				"element": "C" 
			},
			{
				"x": 2.994688486,
				"y": 2.811173865,
				"z": 0.4017154047,
				"element": "C" 
			},
			{
				"x": 2.6782004431,
				"y": 1.4684986707,
				"z": 0.5702450721,
				"element": "C" 
			},
			{
				"x": 1.5105803638,
				"y": 0.9293263955,
				"z": 0.0074174087,
				"element": "C" 
			},
			{
				"x": 0.6692766828,
				"y": 1.759061251,
				"z": -0.7471739751,
				"element": "C" 
			},
			{
				"x": 0.9797654984,
				"y": 3.1039348681,
				"z": -0.9345041118,
				"element": "C" 
			},
			{
				"x": 1.2553714492,
				"y": -0.5313532438,
				"z": 0.1843458547,
				"element": "C" 
			},
			{
				"x": 2.1357421353,
				"y": -1.2797954674,
				"z": 0.5851049694,
				"element": "O" 
			},
			{
				"x": -0.0744065498,
				"y": -1.1263605099,
				"z": -0.2226282248,
				"element": "C" 
			},
			{
				"x": -0.0452452804,
				"y": -2.152732872,
				"z": -1.180279668,
				"element": "C" 
			},
			{
				"x": -1.2130036333,
				"y": -2.7809578689,
				"z": -1.6030458246,
				"element": "C" 
			},
			{
				"x": -2.4387755803,
				"y": -2.4083931742,
				"z": -1.0478240501,
				"element": "C" 
			},
			{
				"x": -2.4909088114,
				"y": -1.4176952775,
				"z": -0.0687462247,
				"element": "C" 
			},
			{
				"x": -1.31424992,
				"y": -0.7844817673,
				"z": 0.3350462857,
				"element": "C" 
			},
			{
				"x": -1.4268058831,
				"y": 0.4105293641,
				"z": 1.6234068976,
				"element": "Cl" 
			},
			{
				"x": 3.8909269561,
				"y": 3.2333861862,
				"z": 0.8423116341,
				"element": "H" 
			},
			{
				"x": 3.3284612806,
				"y": 0.8124879983,
				"z": 1.138950595,
				"element": "H" 
			},
			{
				"x": -0.2294347432,
				"y": 1.3541210489,
				"z": -1.200264974,
				"element": "H" 
			},
			{
				"x": 0.3344724179,
				"y": 3.7472756927,
				"z": -1.5218450807,
				"element": "H" 
			},
			{
				"x": 0.9171362844,
				"y": -2.4473081028,
				"z": -1.5865968096,
				"element": "H" 
			},
			{
				"x": -1.1665417588,
				"y": -3.5628995182,
				"z": -2.354467974,
				"element": "H" 
			},
			{
				"x": -3.3561541386,
				"y": -2.8954025892,
				"z": -1.3644149721,
				"element": "H" 
			},
			{
				"x": -3.4318447153,
				"y": -1.1386604547,
				"z": 0.3923627531,
				"element": "H" 
			}
		],
		 "valence_orbital": [ 
			{
				"type": "occ",
				"energy": -0.27845,
				"method": "rhf"
			},
			{
				"type": "occ",
				"energy": -0.27359,
				"method": "rhf"
			},
			{
				"type": "occ",
				"energy": -0.26048,
				"method": "rhf"
			},
			{
				"type": "occ",
				"energy": -0.25628,
				"method": "rhf"
			},
			{
				"type": "occ",
				"energy": -0.25462,
				"method": "rhf"
			},
			{
				"type": "unocc",
				"energy": -0.07292,
				"method": "rhf"
			},
			{
				"type": "unocc",
				"energy": -0.02764,
				"method": "rhf"
			},
			{
				"type": "unocc",
				"energy": -0.02553,
				"method": "rhf"
			},
			{
				"type": "unocc",
				"energy": -0.01998,
				"method": "rhf"
			},
			{
				"type": "unocc",
				"energy": 0.02066,
				"method": "rhf"
			}
		],
		"cosmo_sigma_profile": { 
			"-0.025": 0.0,
			"-0.024": 0.0,
			"-0.023": 0.0,
			"-0.022": 0.0,
			"-0.021": 0.0,
			"-0.02": 0.0,
			"-0.019": 0.0,
			"-0.018": 0.0,
			"-0.017": 0.0,
			"-0.016": 0.0,
			"-0.015": 0.0,
			"-0.014": 0.0,
			"-0.013": 0.0,
			"-0.012": 0.0,
			"-0.011": 0.0,
			"-0.01": 0.0,
			"-0.009": 0.0,
			"-0.008": 2.84456725901,
			"-0.007": 12.5136273203,
			"-0.006": 16.8174895162,
			"-0.005": 15.6782306803,
			"-0.004": 14.2648719031,
			"-0.003": 13.9027057611,
			"-0.002": 14.5503071713,
			"-0.001": 17.7263643906,
			"0.0": 24.9331631712,
			"0.001": 29.5565093265,
			"0.002": 32.9338502381,
			"0.003": 28.3206857923,
			"0.004": 21.6019789235,
			"0.005": 4.32995891063,
			"0.006": 2.32882567842,
			"0.007": 1.74091005526,
			"0.008": 1.45082955028,
			"0.009": 2.01249585283,
			"0.01": 2.49075947161,
			"0.011": 3.99524720582,
			"0.012": 1.61556502083,
			"0.013": 0.150126886938,
			"0.014": 0.0,
			"0.015": 0.0,
			"0.016": 0.0,
			"0.017": 0.0,
			"0.018": 0.0,
			"0.019": 0.0,
			"0.02": 0.0,
			"0.021": 0.0,
			"0.022": 0.0,
			"0.023": 0.0,
			"0.024": 0.0,
			"0.025": 0.0
		}
	}
}
