{
	 "smiles": "CC1=CC(=CC=C1NC(=O)C1=CC=CC(I)=C1C(=O)NC(C)(C)CS(C)(=O)=O)C(F)(C(F)(F)F)C(F)(F)F", 
	 "Tm": 491.15, 
	 "num_atms": 60, 
	 "gaussian": { 
		 "optdone": 1, 
		 "sigma_profile": "no", 
		 "theory": "DFT", 
		 "functional": "B3LYP", 
		 "basiset": "6-31G**", 
		 "properties": { 
			 "R2extent": 27963.4996, 
			 "electric_dipole_moment_norm": 2.67094219331, 
			 "electric_quadrupole_moment_norm": 37.4305326731, 
			 "total_energy": -2408.54060169, 
			 "HOMO_LUMO_gap": 0.19338, 
			 "cosmo_polarized_energy": -81239.58, 
			 "cosmo_cavitation_energy": 67.87, 
			 "cosmo_dispersion_energy": -42.79, 
			 "cosmo_repulsion_energy": 3.01, 
			 "cosmo_total_nonelectrostatic_energy": 28.08, 
			 "SMD_solvation_energy": 12.93 
		},
		"coords": [
			{
				"x": -1.3122413249,
				"y": -2.4434086686,
				"z": -0.800543398,
				"element": "C" 
			},
			{
				"x": -2.4433329767,
				"y": -1.8796547225,
				"z": 0.0224973046,
				"element": "C" 
			},
			{
				"x": -3.1190063418,
				"y": -2.681273912,
				"z": 0.9461918217,
				"element": "C" 
			},
			{
				"x": -4.1513700049,
				"y": -2.1778756705,
				"z": 1.7416895335,
				"element": "C" 
			},
			{
				"x": -4.5360991828,
				"y": -0.8409561836,
				"z": 1.6002694624,
				"element": "C" 
			},
			{
				"x": -3.888391025,
				"y": -0.0336867709,
				"z": 0.669762571,
				"element": "C" 
			},
			{
				"x": -2.8356600009,
				"y": -0.5315293979,
				"z": -0.1015009025,
				"element": "C" 
			},
			{
				"x": -2.1877215389,
				"y": 0.2892987016,
				"z": -1.0737170284,
				"element": "N" 
			},
			{
				"x": -1.346862109,
				"y": 1.3620020007,
				"z": -0.8852431462,
				"element": "C" 
			},
			{
				"x": -0.6092883507,
				"y": 1.7372613588,
				"z": -1.7914534573,
				"element": "O" 
			},
			{
				"x": -1.41889346,
				"y": 2.1143614901,
				"z": 0.425233806,
				"element": "C" 
			},
			{
				"x": -2.4751120424,
				"y": 3.001847149,
				"z": 0.6351765895,
				"element": "C" 
			},
			{
				"x": -2.5329361803,
				"y": 3.7590462625,
				"z": 1.8037897925,
				"element": "C" 
			},
			{
				"x": -1.5462367596,
				"y": 3.6156466991,
				"z": 2.7752743244,
				"element": "C" 
			},
			{
				"x": -0.470376076,
				"y": 2.749925819,
				"z": 2.5519296002,
				"element": "C" 
			},
			{
				"x": 0.9129212162,
				"y": 2.5484551678,
				"z": 4.158217484,
				"element": "I" 
			},
			{
				"x": -0.3681488799,
				"y": 2.0134262269,
				"z": 1.362377563,
				"element": "C" 
			},
			{
				"x": 0.7790738571,
				"y": 1.1016633741,
				"z": 0.9727413724,
				"element": "C" 
			},
			{
				"x": 0.5444116079,
				"y": -0.0443515183,
				"z": 0.587733493,
				"element": "O" 
			},
			{
				"x": 2.0081012192,
				"y": 1.677597802,
				"z": 1.0155932991,
				"element": "N" 
			},
			{
				"x": 3.2241506303,
				"y": 1.1443113292,
				"z": 0.3635231236,
				"element": "C" 
			},
			{
				"x": 4.4236921436,
				"y": 1.9418994541,
				"z": 0.9081623784,
				"element": "C" 
			},
			{
				"x": 3.4388461133,
				"y": -0.3453886792,
				"z": 0.6904984882,
				"element": "C" 
			},
			{
				"x": 3.0596800255,
				"y": 1.2888288533,
				"z": -1.1752357019,
				"element": "C" 
			},
			{
				"x": 3.1055845891,
				"y": 3.0244708138,
				"z": -1.7726826923,
				"element": "S" 
			},
			{
				"x": 2.047666174,
				"y": 2.9969719548,
				"z": -3.2312721184,
				"element": "C" 
			},
			{
				"x": 2.4521938891,
				"y": 3.8952232621,
				"z": -0.7698833878,
				"element": "O" 
			},
			{
				"x": 4.4852401232,
				"y": 3.3230029437,
				"z": -2.1941159581,
				"element": "O" 
			},
			{
				"x": -4.8299229745,
				"y": -3.1046024312,
				"z": 2.7377174105,
				"element": "C" 
			},
			{
				"x": -4.264964661,
				"y": -4.3682194036,
				"z": 2.6785630101,
				"element": "F" 
			},
			{
				"x": -4.6180190636,
				"y": -2.6461457043,
				"z": 4.2031527244,
				"element": "C" 
			},
			{
				"x": -5.1065760319,
				"y": -3.5433604072,
				"z": 5.0707535465,
				"element": "F" 
			},
			{
				"x": -3.3075564647,
				"y": -2.5031997276,
				"z": 4.4448260664,
				"element": "F" 
			},
			{
				"x": -5.2257637889,
				"y": -1.4667629959,
				"z": 4.4363314459,
				"element": "F" 
			},
			{
				"x": -6.3271602641,
				"y": -3.3282107843,
				"z": 2.4057778433,
				"element": "C" 
			},
			{
				"x": -6.4480328165,
				"y": -3.7544209474,
				"z": 1.1396490142,
				"element": "F" 
			},
			{
				"x": -6.874190751,
				"y": -4.2507981053,
				"z": 3.2088124336,
				"element": "F" 
			},
			{
				"x": -7.0321885915,
				"y": -2.1880894086,
				"z": 2.5390817157,
				"element": "F" 
			},
			{
				"x": -1.5421438194,
				"y": -2.4387978698,
				"z": -1.8746588726,
				"element": "H" 
			},
			{
				"x": -1.1109266601,
				"y": -3.4799641333,
				"z": -0.5202997834,
				"element": "H" 
			},
			{
				"x": -0.4028031086,
				"y": -1.855879049,
				"z": -0.6461867561,
				"element": "H" 
			},
			{
				"x": -2.822517696,
				"y": -3.7173886696,
				"z": 1.0568140884,
				"element": "H" 
			},
			{
				"x": -5.3431372632,
				"y": -0.4289326325,
				"z": 2.1918771592,
				"element": "H" 
			},
			{
				"x": -4.2090842419,
				"y": 0.9915845161,
				"z": 0.5372138474,
				"element": "H" 
			},
			{
				"x": -1.9811084226,
				"y": -0.1608985857,
				"z": -1.9590261183,
				"element": "H" 
			},
			{
				"x": -3.2467223012,
				"y": 3.1062643266,
				"z": -0.1215089177,
				"element": "H" 
			},
			{
				"x": -3.353272396,
				"y": 4.4509647827,
				"z": 1.968057992,
				"element": "H" 
			},
			{
				"x": -1.6094413444,
				"y": 4.1729875961,
				"z": 3.7025876202,
				"element": "H" 
			},
			{
				"x": 2.0082471288,
				"y": 2.6896203003,
				"z": 1.0807822129,
				"element": "H" 
			},
			{
				"x": 5.3364125025,
				"y": 1.6594485465,
				"z": 0.376997994,
				"element": "H" 
			},
			{
				"x": 4.287049408,
				"y": 3.019093291,
				"z": 0.7915168565,
				"element": "H" 
			},
			{
				"x": 4.5554020619,
				"y": 1.7211538768,
				"z": 1.9711333174,
				"element": "H" 
			},
			{
				"x": 2.662642717,
				"y": -0.9755335444,
				"z": 0.2603756701,
				"element": "H" 
			},
			{
				"x": 3.4301341041,
				"y": -0.4862187476,
				"z": 1.7752786406,
				"element": "H" 
			},
			{
				"x": 4.4175603855,
				"y": -0.6572294681,
				"z": 0.3125122145,
				"element": "H" 
			},
			{
				"x": 2.0978636004,
				"y": 0.8645305455,
				"z": -1.4759903993,
				"element": "H" 
			},
			{
				"x": 3.868030014,
				"y": 0.7847299547,
				"z": -1.7110112433,
				"element": "H" 
			},
			{
				"x": 2.4626210718,
				"y": 2.2973164681,
				"z": -3.9592735428,
				"element": "H" 
			},
			{
				"x": 2.0731095881,
				"y": 4.0121252403,
				"z": -3.6324855677,
				"element": "H" 
			},
			{
				"x": 1.0380747446,
				"y": 2.7187180316,
				"z": -2.9249858393,
				"element": "H" 
			}
		],
		 "valence_orbital": [ 
			{
				"type": "occ",
				"energy": -0.2669,
				"method": "rhf"
			},
			{
				"type": "occ",
				"energy": -0.26071,
				"method": "rhf"
			},
			{
				"type": "occ",
				"energy": -0.25672,
				"method": "rhf"
			},
			{
				"type": "occ",
				"energy": -0.25168,
				"method": "rhf"
			},
			{
				"type": "occ",
				"energy": -0.24574,
				"method": "rhf"
			},
			{
				"type": "unocc",
				"energy": -0.05236,
				"method": "rhf"
			},
			{
				"type": "unocc",
				"energy": -0.04821,
				"method": "rhf"
			},
			{
				"type": "unocc",
				"energy": -0.03895,
				"method": "rhf"
			},
			{
				"type": "unocc",
				"energy": -0.03371,
				"method": "rhf"
			},
			{
				"type": "unocc",
				"energy": -0.01855,
				"method": "rhf"
			}
		],
		"cosmo_sigma_profile": { 
			"0.0": 0.0,
			"0.0": 0.0,
			"0.0": 0.0,
			"0.0": 0.0,
			"0.0": 0.0,
			"0.0": 0.0,
			"0.0": 0.0,
			"0.0": 0.0,
			"0.0": 0.0,
			"0.0": 0.0,
			"0.0": 0.0,
			"0.0": 0.0,
			"0.0": 0.0,
			"0.0": 0.0,
			"0.0": 0.0,
			"0.0": 0.0,
			"0.0": 0.0,
			"0.0": 0.0,
			"0.0": 0.0,
			"0.0": 0.0,
			"0.0": 0.0,
			"0.0": 0.0,
			"0.0": 0.0,
			"0.0": 0.0,
			"0.0": 0.0,
			"0.0": 0.0,
			"0.0": 0.0,
			"0.0": 0.0,
			"0.0": 0.0,
			"0.0": 0.0,
			"0.0": 0.0,
			"0.0": 0.0,
			"0.0": 0.0,
			"0.0": 0.0,
			"0.0": 0.0,
			"0.0": 0.0,
			"0.0": 0.0,
			"0.0": 0.0,
			"0.0": 0.0,
			"0.0": 0.0,
			"0.0": 0.0,
			"0.0": 0.0,
			"0.0": 0.0,
			"0.0": 0.0,
			"0.0": 0.0,
			"0.0": 0.0,
			"0.0": 0.0,
			"0.0": 0.0,
			"0.0": 0.0,
			"0.0": 0.0,
			"0.0": 0.0
		}
	}
}
