{
	 "smiles": "ClC1=CC(Cl)=NC=C1", 
	 "Tm": 272.15, 
	 "num_atms": 11, 
	 "gaussian": { 
		 "optdone": 1, 
		 "sigma_profile": "yes", 
		 "theory": "DFT", 
		 "functional": "B3LYP", 
		 "basiset": "6-31G**", 
		 "properties": { 
			 "R2extent": 2094.5278, 
			 "electric_dipole_moment_norm": 2.10134259463, 
			 "electric_quadrupole_moment_norm": 6.36995290563, 
			 "total_energy": -1167.46963962, 
			 "HOMO_LUMO_gap": 0.22373, 
			 "cosmo_polarized_energy": -5.64, 
			 "cosmo_cavitation_energy": 19.2, 
			 "cosmo_dispersion_energy": -14.77, 
			 "cosmo_repulsion_energy": 1.23, 
			 "cosmo_total_nonelectrostatic_energy": 5.67, 
			 "SMD_solvation_energy": 1.48 
		},
		"coords": [
			{
				"x": -3.1556338209,
				"y": -0.6619840413,
				"z": -1.2126611288,
				"element": "Cl" 
			},
			{
				"x": -1.4337574325,
				"y": -0.5794899525,
				"z": -0.925421256,
				"element": "C" 
			},
			{
				"x": -0.549623354,
				"y": -0.8015006082,
				"z": -1.9765799727,
				"element": "C" 
			},
			{
				"x": 0.8124394875,
				"y": -0.7190156808,
				"z": -1.6709750191,
				"element": "C" 
			},
			{
				"x": 1.9672914474,
				"y": -0.9924041825,
				"z": -2.969270208,
				"element": "Cl" 
			},
			{
				"x": 1.3101622529,
				"y": -0.4503492001,
				"z": -0.4777308635,
				"element": "N" 
			},
			{
				"x": 0.432476261,
				"y": -0.2414060217,
				"z": 0.5137934194,
				"element": "C" 
			},
			{
				"x": -0.9499268104,
				"y": -0.2924807129,
				"z": 0.3516910849,
				"element": "C" 
			},
			{
				"x": -0.8945342961,
				"y": -1.0260220045,
				"z": -2.9773400414,
				"element": "H" 
			},
			{
				"x": 0.8593755946,
				"y": -0.0215124095,
				"z": 1.4894946885,
				"element": "H" 
			},
			{
				"x": -1.6218693294,
				"y": -0.1166351859,
				"z": 1.1828992967,
				"element": "H" 
			}
		],
		 "valence_orbital": [ 
			{
				"type": "occ",
				"energy": -0.33619,
				"method": "rhf"
			},
			{
				"type": "occ",
				"energy": -0.3222,
				"method": "rhf"
			},
			{
				"type": "occ",
				"energy": -0.2907,
				"method": "rhf"
			},
			{
				"type": "occ",
				"energy": -0.2884,
				"method": "rhf"
			},
			{
				"type": "occ",
				"energy": -0.27359,
				"method": "rhf"
			},
			{
				"type": "unocc",
				"energy": -0.04986,
				"method": "rhf"
			},
			{
				"type": "unocc",
				"energy": -0.039,
				"method": "rhf"
			},
			{
				"type": "unocc",
				"energy": -0.00114,
				"method": "rhf"
			},
			{
				"type": "unocc",
				"energy": 0.04327,
				"method": "rhf"
			},
			{
				"type": "unocc",
				"energy": 0.11347,
				"method": "rhf"
			}
		],
		"cosmo_sigma_profile": { 
			"-0.025": 0.0,
			"-0.024": 0.0,
			"-0.023": 0.0,
			"-0.022": 0.0,
			"-0.021": 0.0,
			"-0.02": 0.0,
			"-0.019": 0.0,
			"-0.018": 0.0,
			"-0.017": 0.0,
			"-0.016": 0.0,
			"-0.015": 0.0,
			"-0.014": 0.0,
			"-0.013": 0.0,
			"-0.012": 0.0,
			"-0.011": 0.0,
			"-0.01": 0.18665263945,
			"-0.009": 2.85414573621,
			"-0.008": 5.41864378077,
			"-0.007": 5.96615705968,
			"-0.006": 5.21964055514,
			"-0.005": 4.72799701621,
			"-0.004": 5.09062308273,
			"-0.003": 7.30341300952,
			"-0.002": 12.8848536295,
			"-0.001": 23.5387679028,
			"0.0": 18.3287709389,
			"0.001": 11.2307574338,
			"0.002": 12.1237788677,
			"0.003": 17.2408805344,
			"0.004": 13.3241407827,
			"0.005": 3.72784798474,
			"0.006": 1.94544506751,
			"0.007": 1.95226627001,
			"0.008": 1.44949090686,
			"0.009": 0.704004952797,
			"0.01": 1.25317125571,
			"0.011": 1.09670031524,
			"0.012": 0.889676389227,
			"0.013": 0.848714713543,
			"0.014": 0.552640095845,
			"0.015": 0.0,
			"0.016": 0.0,
			"0.017": 0.0,
			"0.018": 0.0,
			"0.019": 0.0,
			"0.02": 0.0,
			"0.021": 0.0,
			"0.022": 0.0,
			"0.023": 0.0,
			"0.024": 0.0,
			"0.025": 0.0
		}
	}
}
