{
	 "smiles": "CCCCC(=O)C1=CC2=C(OCCOCCOC3=C(OCCOCCO2)C=C(C=C3)C(=O)CCCC)C=C1", 
	 "Tm": 398.15, 
	 "num_atms": 78, 
	 "gaussian": { 
		 "optdone": 1, 
		 "sigma_profile": "yes", 
		 "theory": "DFT", 
		 "functional": "B3LYP", 
		 "basiset": "6-31G**", 
		 "properties": { 
			 "R2extent": 42314.1025, 
			 "electric_dipole_moment_norm": 1.50216798661, 
			 "electric_quadrupole_moment_norm": 37.3370940377, 
			 "total_energy": -1769.03703332, 
			 "HOMO_LUMO_gap": 0.17898, 
			 "cosmo_polarized_energy": -23.13, 
			 "cosmo_cavitation_energy": 77.62, 
			 "cosmo_dispersion_energy": -51.66, 
			 "cosmo_repulsion_energy": 3.88, 
			 "cosmo_total_nonelectrostatic_energy": 29.85, 
			 "SMD_solvation_energy": 13.0 
		},
		"coords": [
			{
				"x": -9.0382190078,
				"y": 6.4988309307,
				"z": 4.2645463564,
				"element": "C" 
			},
			{
				"x": -7.8054837735,
				"y": 6.1644862411,
				"z": 3.4191981715,
				"element": "C" 
			},
			{
				"x": -6.5181584497,
				"y": 6.7900090306,
				"z": 3.9735737767,
				"element": "C" 
			},
			{
				"x": -5.2700503881,
				"y": 6.4863988365,
				"z": 3.1375385908,
				"element": "C" 
			},
			{
				"x": -4.7662367831,
				"y": 5.0509467362,
				"z": 3.2735343447,
				"element": "C" 
			},
			{
				"x": -5.2748504235,
				"y": 4.2780473543,
				"z": 4.0740168766,
				"element": "O" 
			},
			{
				"x": -3.6163198304,
				"y": 4.6068179868,
				"z": 2.4198588644,
				"element": "C" 
			},
			{
				"x": -3.1711583817,
				"y": 3.2827482487,
				"z": 2.5586869483,
				"element": "C" 
			},
			{
				"x": -2.1084333751,
				"y": 2.7988031317,
				"z": 1.8055952824,
				"element": "C" 
			},
			{
				"x": -1.472691738,
				"y": 3.6466429631,
				"z": 0.8735607371,
				"element": "C" 
			},
			{
				"x": -0.4163658756,
				"y": 3.2198348379,
				"z": 0.1092644232,
				"element": "O" 
			},
			{
				"x": -0.7282981152,
				"y": 2.2177784853,
				"z": -0.8787265465,
				"element": "C" 
			},
			{
				"x": 0.4980185954,
				"y": 2.0777070807,
				"z": -1.777632719,
				"element": "C" 
			},
			{
				"x": 0.1496448615,
				"y": 1.3382847345,
				"z": -2.9420557227,
				"element": "O" 
			},
			{
				"x": 0.6965841045,
				"y": 0.0362290589,
				"z": -3.0607714776,
				"element": "C" 
			},
			{
				"x": 0.0085483631,
				"y": -0.9598626762,
				"z": -2.121465009,
				"element": "C" 
			},
			{
				"x": 0.2957825819,
				"y": -2.3234226511,
				"z": -2.4923056493,
				"element": "O" 
			},
			{
				"x": 1.5729981182,
				"y": -2.8016538544,
				"z": -2.3689845729,
				"element": "C" 
			},
			{
				"x": 2.3054613553,
				"y": -2.7777359845,
				"z": -1.1603194322,
				"element": "C" 
			},
			{
				"x": 1.8066059908,
				"y": -2.1958810698,
				"z": -0.0160401566,
				"element": "O" 
			},
			{
				"x": 0.701360399,
				"y": -2.8737047975,
				"z": 0.5981596216,
				"element": "C" 
			},
			{
				"x": 0.4156548819,
				"y": -2.1912209949,
				"z": 1.9178378222,
				"element": "C" 
			},
			{
				"x": -0.0005645163,
				"y": -0.8596225129,
				"z": 1.6844457799,
				"element": "O" 
			},
			{
				"x": -0.2083234112,
				"y": -0.141264651,
				"z": 2.8863175282,
				"element": "C" 
			},
			{
				"x": -0.4299201761,
				"y": 1.3243910103,
				"z": 2.5873713481,
				"element": "C" 
			},
			{
				"x": -1.7150021819,
				"y": 1.4890684223,
				"z": 1.9683148992,
				"element": "O" 
			},
			{
				"x": 3.5846761009,
				"y": -3.318958131,
				"z": -1.1236058633,
				"element": "C" 
			},
			{
				"x": 4.1624300201,
				"y": -3.9155727575,
				"z": -2.2550074422,
				"element": "C" 
			},
			{
				"x": 3.4132082987,
				"y": -3.9699267069,
				"z": -3.4407504732,
				"element": "C" 
			},
			{
				"x": 2.1375969394,
				"y": -3.4165368942,
				"z": -3.4921811687,
				"element": "C" 
			},
			{
				"x": 5.5443323784,
				"y": -4.4759286856,
				"z": -2.119553816,
				"element": "C" 
			},
			{
				"x": 6.1528984242,
				"y": -4.3694883021,
				"z": -1.0610003132,
				"element": "O" 
			},
			{
				"x": 6.1793993412,
				"y": -5.2172600379,
				"z": -3.2885505197,
				"element": "C" 
			},
			{
				"x": 5.7180173319,
				"y": -6.6928660505,
				"z": -3.3871480191,
				"element": "C" 
			},
			{
				"x": 5.9657060539,
				"y": -7.5422640221,
				"z": -2.1289447697,
				"element": "C" 
			},
			{
				"x": 7.4338489172,
				"y": -7.6237951558,
				"z": -1.6959544779,
				"element": "C" 
			},
			{
				"x": -1.8988245777,
				"y": 4.9707250157,
				"z": 0.7471334997,
				"element": "C" 
			},
			{
				"x": -2.9580749629,
				"y": 5.451580038,
				"z": 1.5135790434,
				"element": "C" 
			},
			{
				"x": -9.9438556369,
				"y": 6.0473301784,
				"z": 3.8463484633,
				"element": "H" 
			},
			{
				"x": -8.925333179,
				"y": 6.1278391125,
				"z": 5.2894411446,
				"element": "H" 
			},
			{
				"x": -9.2021627817,
				"y": 7.5815119067,
				"z": 4.3209750793,
				"element": "H" 
			},
			{
				"x": -7.6800494897,
				"y": 5.0777690781,
				"z": 3.3670621433,
				"element": "H" 
			},
			{
				"x": -7.9625514965,
				"y": 6.5141935221,
				"z": 2.3888503635,
				"element": "H" 
			},
			{
				"x": -6.3537982364,
				"y": 6.4326939521,
				"z": 4.9963267288,
				"element": "H" 
			},
			{
				"x": -6.6418706957,
				"y": 7.8792397263,
				"z": 4.0315570114,
				"element": "H" 
			},
			{
				"x": -4.4432154093,
				"y": 7.1498854619,
				"z": 3.4286093593,
				"element": "H" 
			},
			{
				"x": -5.4553265413,
				"y": 6.6994297206,
				"z": 2.0759610315,
				"element": "H" 
			},
			{
				"x": -3.665325162,
				"y": 2.6299909403,
				"z": 3.2698185064,
				"element": "H" 
			},
			{
				"x": -1.5778792277,
				"y": 2.5513224451,
				"z": -1.4870688513,
				"element": "H" 
			},
			{
				"x": -0.9903777735,
				"y": 1.2726620237,
				"z": -0.3924117877,
				"element": "H" 
			},
			{
				"x": 0.8188676296,
				"y": 3.0785642864,
				"z": -2.0906321707,
				"element": "H" 
			},
			{
				"x": 1.330338903,
				"y": 1.6119832479,
				"z": -1.2338470778,
				"element": "H" 
			},
			{
				"x": 1.7828791632,
				"y": 0.0460494449,
				"z": -2.8867838533,
				"element": "H" 
			},
			{
				"x": 0.522885077,
				"y": -0.2725661986,
				"z": -4.0964475111,
				"element": "H" 
			},
			{
				"x": -1.0737350961,
				"y": -0.866007508,
				"z": -2.2385112778,
				"element": "H" 
			},
			{
				"x": 0.2739582857,
				"y": -0.7734121451,
				"z": -1.0776998766,
				"element": "H" 
			},
			{
				"x": -0.1809044962,
				"y": -2.8462785782,
				"z": -0.0513938705,
				"element": "H" 
			},
			{
				"x": 0.9637726701,
				"y": -3.9240991817,
				"z": 0.7842070822,
				"element": "H" 
			},
			{
				"x": -0.3640496066,
				"y": -2.7630970074,
				"z": 2.4490552885,
				"element": "H" 
			},
			{
				"x": 1.3254185295,
				"y": -2.2055961185,
				"z": 2.5396472953,
				"element": "H" 
			},
			{
				"x": 0.6765456125,
				"y": -0.2237804615,
				"z": 3.5397508358,
				"element": "H" 
			},
			{
				"x": -1.0726895267,
				"y": -0.5432298355,
				"z": 3.4388540393,
				"element": "H" 
			},
			{
				"x": 0.3627105652,
				"y": 1.7029856582,
				"z": 1.9324927664,
				"element": "H" 
			},
			{
				"x": -0.4046415628,
				"y": 1.8859672445,
				"z": 3.5314472331,
				"element": "H" 
			},
			{
				"x": 4.1490900261,
				"y": -3.2865888649,
				"z": -0.1981071768,
				"element": "H" 
			},
			{
				"x": 3.8213201154,
				"y": -4.4295755666,
				"z": -4.3340959884,
				"element": "H" 
			},
			{
				"x": 1.5508711404,
				"y": -3.4385692861,
				"z": -4.4047940031,
				"element": "H" 
			},
			{
				"x": 7.2599046608,
				"y": -5.1734242972,
				"z": -3.131274187,
				"element": "H" 
			},
			{
				"x": 5.9642811952,
				"y": -4.7099266283,
				"z": -4.2352855881,
				"element": "H" 
			},
			{
				"x": 6.2420449193,
				"y": -7.1463464905,
				"z": -4.238670716,
				"element": "H" 
			},
			{
				"x": 4.6491024043,
				"y": -6.7219989718,
				"z": -3.6316979764,
				"element": "H" 
			},
			{
				"x": 5.5848960694,
				"y": -8.5523746553,
				"z": -2.3271217174,
				"element": "H" 
			},
			{
				"x": 5.3682010812,
				"y": -7.1497170829,
				"z": -1.2969783805,
				"element": "H" 
			},
			{
				"x": 7.7982066386,
				"y": -6.6513515582,
				"z": -1.3532917892,
				"element": "H" 
			},
			{
				"x": 8.0751002848,
				"y": -7.9619535811,
				"z": -2.5190479111,
				"element": "H" 
			},
			{
				"x": 7.5562406611,
				"y": -8.3313491781,
				"z": -0.8694230849,
				"element": "H" 
			},
			{
				"x": -1.3858376202,
				"y": 5.6061576798,
				"z": 0.0324136153,
				"element": "H" 
			},
			{
				"x": -3.2702291838,
				"y": 6.4829033585,
				"z": 1.3910310429,
				"element": "H" 
			}
		],
		 "valence_orbital": [ 
			{
				"type": "occ",
				"energy": -0.25055,
				"method": "rhf"
			},
			{
				"type": "occ",
				"energy": -0.24656,
				"method": "rhf"
			},
			{
				"type": "occ",
				"energy": -0.24256,
				"method": "rhf"
			},
			{
				"type": "occ",
				"energy": -0.24005,
				"method": "rhf"
			},
			{
				"type": "occ",
				"energy": -0.23244,
				"method": "rhf"
			},
			{
				"type": "unocc",
				"energy": -0.05346,
				"method": "rhf"
			},
			{
				"type": "unocc",
				"energy": -0.05312,
				"method": "rhf"
			},
			{
				"type": "unocc",
				"energy": -0.01015,
				"method": "rhf"
			},
			{
				"type": "unocc",
				"energy": -0.00931,
				"method": "rhf"
			},
			{
				"type": "unocc",
				"energy": 0.03977,
				"method": "rhf"
			}
		],
		"cosmo_sigma_profile": { 
			"-0.025": 0.0,
			"-0.024": 0.0,
			"-0.023": 0.0,
			"-0.022": 0.0,
			"-0.021": 0.0,
			"-0.02": 0.0,
			"-0.019": 0.0,
			"-0.018": 0.0,
			"-0.017": 0.0,
			"-0.016": 0.0,
			"-0.015": 0.0,
			"-0.014": 0.0,
			"-0.013": 0.0,
			"-0.012": 0.0,
			"-0.011": 0.0,
			"-0.01": 0.0,
			"-0.009": 0.0,
			"-0.008": 0.217214338761,
			"-0.007": 4.72656205795,
			"-0.006": 19.0398521759,
			"-0.005": 47.642883592,
			"-0.004": 54.5897750701,
			"-0.003": 57.3945298671,
			"-0.002": 69.1661965865,
			"-0.001": 67.9340249672,
			"0.0": 59.0471702358,
			"0.001": 54.3142911363,
			"0.002": 44.2891285926,
			"0.003": 32.5178916642,
			"0.004": 17.2938442818,
			"0.005": 10.4736337151,
			"0.006": 10.8062664347,
			"0.007": 9.11736168818,
			"0.008": 8.58289412338,
			"0.009": 9.61762464754,
			"0.01": 9.35487773608,
			"0.011": 8.65875307102,
			"0.012": 9.86664709155,
			"0.013": 2.59713301623,
			"0.014": 0.0,
			"0.015": 0.0,
			"0.016": 0.0,
			"0.017": 0.0,
			"0.018": 0.0,
			"0.019": 0.0,
			"0.02": 0.0,
			"0.021": 0.0,
			"0.022": 0.0,
			"0.023": 0.0,
			"0.024": 0.0,
			"0.025": 0.0
		}
	}
}
