{
	 "smiles": "CC1=NC2=C(S1)C(O)CCC2", 
	 "Tm": 354.15, 
	 "num_atms": 22, 
	 "gaussian": { 
		 "optdone": 1, 
		 "sigma_profile": "yes", 
		 "theory": "DFT", 
		 "functional": "B3LYP", 
		 "basiset": "6-31G**", 
		 "properties": { 
			 "R2extent": 2403.435, 
			 "electric_dipole_moment_norm": 1.28967913064, 
			 "electric_quadrupole_moment_norm": 8.75085620154, 
			 "total_energy": -839.647084598, 
			 "HOMO_LUMO_gap": 0.20559, 
			 "cosmo_polarized_energy": -8.71, 
			 "cosmo_cavitation_energy": 25.51, 
			 "cosmo_dispersion_energy": -19.68, 
			 "cosmo_repulsion_energy": 1.55, 
			 "cosmo_total_nonelectrostatic_energy": 7.38, 
			 "SMD_solvation_energy": 1.78 
		},
		"coords": [
			{
				"x": -2.5741064173,
				"y": 1.2284936263,
				"z": 2.8145404921,
				"element": "C" 
			},
			{
				"x": -1.3925604485,
				"y": 1.0240798374,
				"z": 1.91640915,
				"element": "C" 
			},
			{
				"x": -1.4668930305,
				"y": 0.6035199324,
				"z": 0.6880816151,
				"element": "N" 
			},
			{
				"x": -0.2188728207,
				"y": 0.5010549143,
				"z": 0.1050078746,
				"element": "C" 
			},
			{
				"x": 0.8414983513,
				"y": 0.8599211401,
				"z": 0.8916393552,
				"element": "C" 
			},
			{
				"x": 0.2560668125,
				"y": 1.3523788907,
				"z": 2.4648471456,
				"element": "S" 
			},
			{
				"x": 2.2898097969,
				"y": 0.8129059882,
				"z": 0.4835050407,
				"element": "C" 
			},
			{
				"x": 2.9648282698,
				"y": -0.3447944065,
				"z": 0.9949889903,
				"element": "O" 
			},
			{
				"x": 2.378209316,
				"y": 0.7360967239,
				"z": -1.0480487363,
				"element": "C" 
			},
			{
				"x": 1.4113385255,
				"y": -0.3139255405,
				"z": -1.6157637248,
				"element": "C" 
			},
			{
				"x": -0.0546832445,
				"y": 0.0469260957,
				"z": -1.3196949769,
				"element": "C" 
			},
			{
				"x": -3.4780892472,
				"y": 0.9753016854,
				"z": 2.2575439181,
				"element": "H" 
			},
			{
				"x": -2.518562519,
				"y": 0.5923589013,
				"z": 3.704435859,
				"element": "H" 
			},
			{
				"x": -2.64760278,
				"y": 2.2673467541,
				"z": 3.1535183512,
				"element": "H" 
			},
			{
				"x": 2.8061951879,
				"y": 1.7205520061,
				"z": 0.8329401292,
				"element": "H" 
			},
			{
				"x": 2.7011432105,
				"y": -0.4657575808,
				"z": 1.9162063381,
				"element": "H" 
			},
			{
				"x": 2.1533341456,
				"y": 1.7261697781,
				"z": -1.4643920297,
				"element": "H" 
			},
			{
				"x": 3.4126081406,
				"y": 0.494340198,
				"z": -1.3121838022,
				"element": "H" 
			},
			{
				"x": 1.5591910832,
				"y": -0.4210487461,
				"z": -2.6955207241,
				"element": "H" 
			},
			{
				"x": 1.649865568,
				"y": -1.280506016,
				"z": -1.1585569972,
				"element": "H" 
			},
			{
				"x": -0.3946894668,
				"y": 0.849322529,
				"z": -1.9906964076,
				"element": "H" 
			},
			{
				"x": -0.7165284332,
				"y": -0.8056367114,
				"z": -1.5086068604,
				"element": "H" 
			}
		],
		 "valence_orbital": [ 
			{
				"type": "occ",
				"energy": -0.31489,
				"method": "rhf"
			},
			{
				"type": "occ",
				"energy": -0.278,
				"method": "rhf"
			},
			{
				"type": "occ",
				"energy": -0.27583,
				"method": "rhf"
			},
			{
				"type": "occ",
				"energy": -0.26272,
				"method": "rhf"
			},
			{
				"type": "occ",
				"energy": -0.22906,
				"method": "rhf"
			},
			{
				"type": "unocc",
				"energy": -0.02347,
				"method": "rhf"
			},
			{
				"type": "unocc",
				"energy": 0.01297,
				"method": "rhf"
			},
			{
				"type": "unocc",
				"energy": 0.04777,
				"method": "rhf"
			},
			{
				"type": "unocc",
				"energy": 0.08744,
				"method": "rhf"
			},
			{
				"type": "unocc",
				"energy": 0.0956,
				"method": "rhf"
			}
		],
		"cosmo_sigma_profile": { 
			"-0.025": 0.0,
			"-0.024": 0.0,
			"-0.023": 0.0,
			"-0.022": 0.0,
			"-0.021": 0.0,
			"-0.02": 0.0,
			"-0.019": 0.0,
			"-0.018": 0.0,
			"-0.017": 0.0,
			"-0.016": 0.0,
			"-0.015": 0.108197417327,
			"-0.014": 0.713458208321,
			"-0.013": 0.797661540515,
			"-0.012": 0.956531820453,
			"-0.011": 1.16261978798,
			"-0.01": 1.27029558098,
			"-0.009": 0.752571337668,
			"-0.008": 1.20034574303,
			"-0.007": 0.784605789251,
			"-0.006": 3.77453197322,
			"-0.005": 9.87786072102,
			"-0.004": 16.2890215635,
			"-0.003": 22.8249148842,
			"-0.002": 25.0544317894,
			"-0.001": 25.7044258865,
			"0.0": 18.3223917855,
			"0.001": 12.7396672504,
			"0.002": 13.0625514088,
			"0.003": 11.7458764956,
			"0.004": 7.25688118885,
			"0.005": 3.65232562275,
			"0.006": 3.28760755853,
			"0.007": 3.52061674332,
			"0.008": 2.26812602842,
			"0.009": 2.34563883435,
			"0.01": 2.4174151809,
			"0.011": 2.53021320655,
			"0.012": 1.99859187937,
			"0.013": 2.17738034055,
			"0.014": 2.22830519032,
			"0.015": 0.931229431099,
			"0.016": 0.298576331497,
			"0.017": 0.0,
			"0.018": 0.0,
			"0.019": 0.0,
			"0.02": 0.0,
			"0.021": 0.0,
			"0.022": 0.0,
			"0.023": 0.0,
			"0.024": 0.0,
			"0.025": 0.0
		}
	}
}
