{
	 "smiles": "CCCN(CCC)C(=O)C1C2CC(C=C2)C1C(O)=O", 
	 "Tm": 387.15, 
	 "num_atms": 42, 
	 "gaussian": { 
		 "optdone": 1, 
		 "sigma_profile": "yes", 
		 "theory": "DFT", 
		 "functional": "B3LYP", 
		 "basiset": "6-31G**", 
		 "properties": { 
			 "R2extent": 6044.329, 
			 "electric_dipole_moment_norm": 7.13309634731, 
			 "electric_quadrupole_moment_norm": 25.7241696237, 
			 "total_energy": -865.870340523, 
			 "HOMO_LUMO_gap": 0.23438, 
			 "cosmo_polarized_energy": -16.26, 
			 "cosmo_cavitation_energy": 40.12, 
			 "cosmo_dispersion_energy": -27.74, 
			 "cosmo_repulsion_energy": 2.13, 
			 "cosmo_total_nonelectrostatic_energy": 14.51, 
			 "SMD_solvation_energy": 7.28 
		},
		"coords": [
			{
				"x": 2.6049958752,
				"y": 0.5101154408,
				"z": -2.8415683251,
				"element": "C" 
			},
			{
				"x": 1.7772480799,
				"y": -0.2409524436,
				"z": -1.793091958,
				"element": "C" 
			},
			{
				"x": 1.6256919461,
				"y": 0.5729263865,
				"z": -0.5020159565,
				"element": "C" 
			},
			{
				"x": 0.8405862304,
				"y": -0.077174872,
				"z": 0.5550922387,
				"element": "N" 
			},
			{
				"x": 1.5665649238,
				"y": -1.0370461728,
				"z": 1.4239836821,
				"element": "C" 
			},
			{
				"x": 1.0246952932,
				"y": -2.4749677149,
				"z": 1.4422676864,
				"element": "C" 
			},
			{
				"x": 1.0749391323,
				"y": -3.2186758261,
				"z": 0.1056848262,
				"element": "C" 
			},
			{
				"x": -0.4027432264,
				"y": 0.2862303922,
				"z": 0.9728266051,
				"element": "C" 
			},
			{
				"x": -0.8463418975,
				"y": -0.2243698234,
				"z": 2.0228961438,
				"element": "O" 
			},
			{
				"x": -1.4105710627,
				"y": 1.1022073244,
				"z": 0.1477080546,
				"element": "C" 
			},
			{
				"x": -1.1058924749,
				"y": 1.9807091778,
				"z": -1.1244947789,
				"element": "C" 
			},
			{
				"x": -2.5442229571,
				"y": 2.4837273604,
				"z": -1.4053658346,
				"element": "C" 
			},
			{
				"x": -2.660947167,
				"y": 3.2123328689,
				"z": -0.0511952001,
				"element": "C" 
			},
			{
				"x": -1.3752952433,
				"y": 4.0266762044,
				"z": -0.0746123065,
				"element": "C" 
			},
			{
				"x": -0.4498071416,
				"y": 3.2949510468,
				"z": -0.7074899186,
				"element": "C" 
			},
			{
				"x": -2.4196123843,
				"y": 2.040187719,
				"z": 0.9608754172,
				"element": "C" 
			},
			{
				"x": -2.1162404326,
				"y": 2.6094935287,
				"z": 2.3646768422,
				"element": "C" 
			},
			{
				"x": -1.8390679502,
				"y": 1.7399709053,
				"z": 3.3355476459,
				"element": "O" 
			},
			{
				"x": -2.2429539196,
				"y": 3.7942088192,
				"z": 2.5996870888,
				"element": "O" 
			},
			{
				"x": 2.1359056688,
				"y": 1.4612681357,
				"z": -3.1175583119,
				"element": "H" 
			},
			{
				"x": 2.7140702013,
				"y": -0.0826026696,
				"z": -3.7544148228,
				"element": "H" 
			},
			{
				"x": 3.611217644,
				"y": 0.7334416191,
				"z": -2.469330321,
				"element": "H" 
			},
			{
				"x": 2.248929636,
				"y": -1.2034333617,
				"z": -1.5685095729,
				"element": "H" 
			},
			{
				"x": 0.7819802876,
				"y": -0.4719066315,
				"z": -2.1925622961,
				"element": "H" 
			},
			{
				"x": 2.6194704687,
				"y": 0.7805227067,
				"z": -0.0856428682,
				"element": "H" 
			},
			{
				"x": 1.1893887726,
				"y": 1.5410908272,
				"z": -0.7218877291,
				"element": "H" 
			},
			{
				"x": 1.5504808793,
				"y": -0.6440884371,
				"z": 2.4454057218,
				"element": "H" 
			},
			{
				"x": 2.6049971785,
				"y": -1.0392162949,
				"z": 1.0793025334,
				"element": "H" 
			},
			{
				"x": 0.0028737807,
				"y": -2.4563346836,
				"z": 1.8276154237,
				"element": "H" 
			},
			{
				"x": 1.6256076647,
				"y": -3.0188220379,
				"z": 2.1828914099,
				"element": "H" 
			},
			{
				"x": 0.4576991151,
				"y": -2.728051543,
				"z": -0.6533602884,
				"element": "H" 
			},
			{
				"x": 2.0976589035,
				"y": -3.285775434,
				"z": -0.2844111284,
				"element": "H" 
			},
			{
				"x": 0.7010824915,
				"y": -4.2410740462,
				"z": 0.2207943007,
				"element": "H" 
			},
			{
				"x": -2.0321556259,
				"y": 0.2744487447,
				"z": -0.2213602487,
				"element": "H" 
			},
			{
				"x": -0.6303881525,
				"y": 1.4289747222,
				"z": -1.9370090224,
				"element": "H" 
			},
			{
				"x": -2.585102931,
				"y": 3.1685002857,
				"z": -2.2560173475,
				"element": "H" 
			},
			{
				"x": -3.2731451662,
				"y": 1.677267618,
				"z": -1.5479650263,
				"element": "H" 
			},
			{
				"x": -3.5750021867,
				"y": 3.7686353432,
				"z": 0.1537301296,
				"element": "H" 
			},
			{
				"x": -1.2417752527,
				"y": 4.9734374337,
				"z": 0.4305798309,
				"element": "H" 
			},
			{
				"x": 0.596300442,
				"y": 3.5487078089,
				"z": -0.8402210993,
				"element": "H" 
			},
			{
				"x": -3.3495353244,
				"y": 1.4727851652,
				"z": 1.0936813536,
				"element": "H" 
			},
			{
				"x": -1.6178841185,
				"y": 0.8568744078,
				"z": 2.9367374264,
				"element": "H" 
			}
		],
		 "valence_orbital": [ 
			{
				"type": "occ",
				"energy": -0.28364,
				"method": "rhf"
			},
			{
				"type": "occ",
				"energy": -0.26874,
				"method": "rhf"
			},
			{
				"type": "occ",
				"energy": -0.25885,
				"method": "rhf"
			},
			{
				"type": "occ",
				"energy": -0.24575,
				"method": "rhf"
			},
			{
				"type": "occ",
				"energy": -0.24064,
				"method": "rhf"
			},
			{
				"type": "unocc",
				"energy": -0.00626,
				"method": "rhf"
			},
			{
				"type": "unocc",
				"energy": 0.01264,
				"method": "rhf"
			},
			{
				"type": "unocc",
				"energy": 0.02944,
				"method": "rhf"
			},
			{
				"type": "unocc",
				"energy": 0.06145,
				"method": "rhf"
			},
			{
				"type": "unocc",
				"energy": 0.07967,
				"method": "rhf"
			}
		],
		"cosmo_sigma_profile": { 
			"-0.025": 0.0,
			"-0.024": 0.0,
			"-0.023": 0.0,
			"-0.022": 0.0,
			"-0.021": 0.0,
			"-0.02": 0.0,
			"-0.019": 0.0,
			"-0.018": 0.0,
			"-0.017": 0.0,
			"-0.016": 0.0,
			"-0.015": 0.0,
			"-0.014": 0.0,
			"-0.013": 0.0,
			"-0.012": 0.0,
			"-0.011": 0.0,
			"-0.01": 0.0,
			"-0.009": 0.0,
			"-0.008": 0.0,
			"-0.007": 1.84057241069,
			"-0.006": 12.2806036847,
			"-0.005": 17.0459657155,
			"-0.004": 25.7647917739,
			"-0.003": 40.8791779838,
			"-0.002": 40.1384806431,
			"-0.001": 36.7160314838,
			"0.0": 38.6613618298,
			"0.001": 28.9753062248,
			"0.002": 11.5810838026,
			"0.003": 7.08144607328,
			"0.004": 6.12425463287,
			"0.005": 5.05885553987,
			"0.006": 5.60232863069,
			"0.007": 4.995139781,
			"0.008": 3.32622174574,
			"0.009": 3.85295584106,
			"0.01": 5.04561360841,
			"0.011": 5.03693092231,
			"0.012": 5.44399755689,
			"0.013": 4.56300231664,
			"0.014": 1.9423966198,
			"0.015": 0.270655906928,
			"0.016": 0.0,
			"0.017": 0.0,
			"0.018": 0.0,
			"0.019": 0.0,
			"0.02": 0.0,
			"0.021": 0.0,
			"0.022": 0.0,
			"0.023": 0.0,
			"0.024": 0.0,
			"0.025": 0.0
		}
	}
}
