{
	 "smiles": "CC(C)C(C)(C)C(C)C", 
	 "Tm": 171.15, 
	 "num_atms": 29, 
	 "gaussian": { 
		 "optdone": 1, 
		 "sigma_profile": "yes", 
		 "theory": "DFT", 
		 "functional": "B3LYP", 
		 "basiset": "6-31G**", 
		 "properties": { 
			 "R2extent": 1680.7635, 
			 "electric_dipole_moment_norm": 0.0650775691003, 
			 "electric_quadrupole_moment_norm": 0.683591647111, 
			 "total_energy": -355.027716849, 
			 "HOMO_LUMO_gap": 0.35483, 
			 "cosmo_polarized_energy": -0.87, 
			 "cosmo_cavitation_energy": 26.35, 
			 "cosmo_dispersion_energy": -18.97, 
			 "cosmo_repulsion_energy": 1.49, 
			 "cosmo_total_nonelectrostatic_energy": 8.87, 
			 "SMD_solvation_energy": 4.77 
		},
		"coords": [
			{
				"x": -1.4546034107,
				"y": -1.2175557193,
				"z": -1.8070538907,
				"element": "C" 
			},
			{
				"x": -2.0128068928,
				"y": -0.3124731115,
				"z": -0.6896339331,
				"element": "C" 
			},
			{
				"x": -2.0339603402,
				"y": 1.1421397432,
				"z": -1.1942677502,
				"element": "C" 
			},
			{
				"x": -1.4085641848,
				"y": -0.5221357884,
				"z": 0.7528486017,
				"element": "C" 
			},
			{
				"x": -2.4231356959,
				"y": 0.0540284782,
				"z": 1.7710006085,
				"element": "C" 
			},
			{
				"x": -1.3343495458,
				"y": -2.0404013302,
				"z": 1.047889889,
				"element": "C" 
			},
			{
				"x": 0.0149229631,
				"y": 0.0898453494,
				"z": 1.0511602189,
				"element": "C" 
			},
			{
				"x": 1.1198191689,
				"y": -0.2795852171,
				"z": 0.0441808997,
				"element": "C" 
			},
			{
				"x": 0.0689466572,
				"y": 1.6091956248,
				"z": 1.3119377013,
				"element": "C" 
			},
			{
				"x": -2.0473057052,
				"y": -1.0745943561,
				"z": -2.7177779099,
				"element": "H" 
			},
			{
				"x": -1.5075813186,
				"y": -2.2789534966,
				"z": -1.5524049597,
				"element": "H" 
			},
			{
				"x": -0.4172588794,
				"y": -0.9835739384,
				"z": -2.0588562851,
				"element": "H" 
			},
			{
				"x": -3.0657150158,
				"y": -0.6115750104,
				"z": -0.572739238,
				"element": "H" 
			},
			{
				"x": -2.670189884,
				"y": 1.216281361,
				"z": -2.0833943255,
				"element": "H" 
			},
			{
				"x": -2.4270190142,
				"y": 1.8438586535,
				"z": -0.4537225705,
				"element": "H" 
			},
			{
				"x": -1.0360537077,
				"y": 1.4848599395,
				"z": -1.4860028628,
				"element": "H" 
			},
			{
				"x": -2.0362606988,
				"y": -0.018643509,
				"z": 2.7939304806,
				"element": "H" 
			},
			{
				"x": -3.3607066649,
				"y": -0.5117797368,
				"z": 1.7335825046,
				"element": "H" 
			},
			{
				"x": -2.6667352544,
				"y": 1.1030474825,
				"z": 1.5846198134,
				"element": "H" 
			},
			{
				"x": -1.1307704019,
				"y": -2.2105323608,
				"z": 2.1109958387,
				"element": "H" 
			},
			{
				"x": -2.2851139281,
				"y": -2.5324050465,
				"z": 0.8126873831,
				"element": "H" 
			},
			{
				"x": -0.5511190286,
				"y": -2.5484929547,
				"z": 0.4797235365,
				"element": "H" 
			},
			{
				"x": 0.3008958514,
				"y": -0.3788408482,
				"z": 2.0052455171,
				"element": "H" 
			},
			{
				"x": 1.1468812925,
				"y": -1.3482656998,
				"z": -0.1849950936,
				"element": "H" 
			},
			{
				"x": 2.0995018646,
				"y": -0.0092783391,
				"z": 0.4540492714,
				"element": "H" 
			},
			{
				"x": 1.0074754433,
				"y": 0.2640875027,
				"z": -0.8993617643,
				"element": "H" 
			},
			{
				"x": -0.1482094887,
				"y": 2.1972084595,
				"z": 0.4167923139,
				"element": "H" 
			},
			{
				"x": -0.6224748089,
				"y": 1.924517199,
				"z": 2.0972492186,
				"element": "H" 
			},
			{
				"x": 1.0775906284,
				"y": 1.8838166696,
				"z": 1.6411167861,
				"element": "H" 
			}
		],
		 "valence_orbital": [ 
			{
				"type": "occ",
				"energy": -0.32639,
				"method": "rhf"
			},
			{
				"type": "occ",
				"energy": -0.32371,
				"method": "rhf"
			},
			{
				"type": "occ",
				"energy": -0.298,
				"method": "rhf"
			},
			{
				"type": "occ",
				"energy": -0.29712,
				"method": "rhf"
			},
			{
				"type": "occ",
				"energy": -0.28287,
				"method": "rhf"
			},
			{
				"type": "unocc",
				"energy": 0.07196,
				"method": "rhf"
			},
			{
				"type": "unocc",
				"energy": 0.10575,
				"method": "rhf"
			},
			{
				"type": "unocc",
				"energy": 0.11696,
				"method": "rhf"
			},
			{
				"type": "unocc",
				"energy": 0.12367,
				"method": "rhf"
			},
			{
				"type": "unocc",
				"energy": 0.12395,
				"method": "rhf"
			}
		],
		"cosmo_sigma_profile": { 
			"-0.025": 0.0,
			"-0.024": 0.0,
			"-0.023": 0.0,
			"-0.022": 0.0,
			"-0.021": 0.0,
			"-0.02": 0.0,
			"-0.019": 0.0,
			"-0.018": 0.0,
			"-0.017": 0.0,
			"-0.016": 0.0,
			"-0.015": 0.0,
			"-0.014": 0.0,
			"-0.013": 0.0,
			"-0.012": 0.0,
			"-0.011": 0.0,
			"-0.01": 0.0,
			"-0.009": 0.0,
			"-0.008": 0.0,
			"-0.007": 0.0,
			"-0.006": 0.0,
			"-0.005": 0.0,
			"-0.004": 0.00356698534479,
			"-0.003": 5.62612104695,
			"-0.002": 30.4742119871,
			"-0.001": 46.1584685326,
			"0.0": 41.7275627366,
			"0.001": 36.0081234001,
			"0.002": 35.4680484725,
			"0.003": 5.41224848862,
			"0.004": 0.0,
			"0.005": 0.0,
			"0.006": 0.0,
			"0.007": 0.0,
			"0.008": 0.0,
			"0.009": 0.0,
			"0.01": 0.0,
			"0.011": 0.0,
			"0.012": 0.0,
			"0.013": 0.0,
			"0.014": 0.0,
			"0.015": 0.0,
			"0.016": 0.0,
			"0.017": 0.0,
			"0.018": 0.0,
			"0.019": 0.0,
			"0.02": 0.0,
			"0.021": 0.0,
			"0.022": 0.0,
			"0.023": 0.0,
			"0.024": 0.0,
			"0.025": 0.0
		}
	}
}
