{
	 "smiles": "CC(C)CN1N=CC(C(O)=O)=C1C(F)F", 
	 "Tm": 373.15, 
	 "num_atms": 27, 
	 "gaussian": { 
		 "optdone": 1, 
		 "sigma_profile": "yes", 
		 "theory": "DFT", 
		 "functional": "B3LYP", 
		 "basiset": "6-31G**", 
		 "properties": { 
			 "R2extent": 3611.2719, 
			 "electric_dipole_moment_norm": 3.62026267279, 
			 "electric_quadrupole_moment_norm": 12.4903892577, 
			 "total_energy": -809.817952434, 
			 "HOMO_LUMO_gap": 0.22847, 
			 "cosmo_polarized_energy": -14.25, 
			 "cosmo_cavitation_energy": 30.78, 
			 "cosmo_dispersion_energy": -21.51, 
			 "cosmo_repulsion_energy": 1.65, 
			 "cosmo_total_nonelectrostatic_energy": 10.92, 
			 "SMD_solvation_energy": 6.53 
		},
		"coords": [
			{
				"x": -0.6567433888,
				"y": -3.7109818174,
				"z": -0.5698123772,
				"element": "C" 
			},
			{
				"x": 0.0778939086,
				"y": -2.3793421365,
				"z": -0.3546414792,
				"element": "C" 
			},
			{
				"x": 1.5972905575,
				"y": -2.5556169626,
				"z": -0.4674069169,
				"element": "C" 
			},
			{
				"x": -0.4728304906,
				"y": -1.3443454862,
				"z": -1.3559000642,
				"element": "C" 
			},
			{
				"x": 0.0189310078,
				"y": 0.0215093428,
				"z": -1.1408583222,
				"element": "N" 
			},
			{
				"x": 1.1501433113,
				"y": 0.4257999993,
				"z": -1.7629414185,
				"element": "N" 
			},
			{
				"x": 1.3484153647,
				"y": 1.6728805824,
				"z": -1.3530699056,
				"element": "C" 
			},
			{
				"x": 0.3394567979,
				"y": 2.098124669,
				"z": -0.4542137924,
				"element": "C" 
			},
			{
				"x": 0.15255836,
				"y": 3.395090489,
				"z": 0.2270599985,
				"element": "C" 
			},
			{
				"x": 1.1287026858,
				"y": 4.3214036304,
				"z": 0.0468936522,
				"element": "O" 
			},
			{
				"x": -0.8047147584,
				"y": 3.66674926,
				"z": 0.9205597951,
				"element": "O" 
			},
			{
				"x": -0.5051010835,
				"y": 0.9899582752,
				"z": -0.3489165962,
				"element": "C" 
			},
			{
				"x": -1.7648023168,
				"y": 0.8274604746,
				"z": 0.443072265,
				"element": "C" 
			},
			{
				"x": -1.6302886566,
				"y": -0.1959900791,
				"z": 1.3503381588,
				"element": "F" 
			},
			{
				"x": -2.8004340728,
				"y": 0.4776288711,
				"z": -0.390262251,
				"element": "F" 
			},
			{
				"x": -1.7387239738,
				"y": -3.6015939524,
				"z": -0.4395064022,
				"element": "H" 
			},
			{
				"x": -0.3080062806,
				"y": -4.462260427,
				"z": 0.1452881226,
				"element": "H" 
			},
			{
				"x": -0.4755270356,
				"y": -4.1050562552,
				"z": -1.5772199611,
				"element": "H" 
			},
			{
				"x": -0.1650386762,
				"y": -2.0113602577,
				"z": 0.6487896498,
				"element": "H" 
			},
			{
				"x": 1.9549839591,
				"y": -3.2667612969,
				"z": 0.2843785554,
				"element": "H" 
			},
			{
				"x": 2.1301925351,
				"y": -1.6123131733,
				"z": -0.3237595417,
				"element": "H" 
			},
			{
				"x": 1.8746534418,
				"y": -2.9437224645,
				"z": -1.4546909913,
				"element": "H" 
			},
			{
				"x": -1.5614672303,
				"y": -1.3016486175,
				"z": -1.2978025087,
				"element": "H" 
			},
			{
				"x": -0.1885606727,
				"y": -1.6066741673,
				"z": -2.3784189268,
				"element": "H" 
			},
			{
				"x": 2.2025794347,
				"y": 2.2171256824,
				"z": -1.7380461335,
				"element": "H" 
			},
			{
				"x": 1.85036138,
				"y": 3.9663751951,
				"z": -0.4895751205,
				"element": "H" 
			},
			{
				"x": -2.0196241076,
				"y": 1.7467606223,
				"z": 0.9701625116,
				"element": "H" 
			}
		],
		 "valence_orbital": [ 
			{
				"type": "occ",
				"energy": -0.32507,
				"method": "rhf"
			},
			{
				"type": "occ",
				"energy": -0.31663,
				"method": "rhf"
			},
			{
				"type": "occ",
				"energy": -0.28187,
				"method": "rhf"
			},
			{
				"type": "occ",
				"energy": -0.28037,
				"method": "rhf"
			},
			{
				"type": "occ",
				"energy": -0.27537,
				"method": "rhf"
			},
			{
				"type": "unocc",
				"energy": -0.0469,
				"method": "rhf"
			},
			{
				"type": "unocc",
				"energy": -0.00939,
				"method": "rhf"
			},
			{
				"type": "unocc",
				"energy": 0.04774,
				"method": "rhf"
			},
			{
				"type": "unocc",
				"energy": 0.08171,
				"method": "rhf"
			},
			{
				"type": "unocc",
				"energy": 0.09274,
				"method": "rhf"
			}
		],
		"cosmo_sigma_profile": { 
			"-0.025": 0.0,
			"-0.024": 0.0,
			"-0.023": 0.0,
			"-0.022": 0.0,
			"-0.021": 0.0,
			"-0.02": 0.0262323373878,
			"-0.019": 0.766781198937,
			"-0.018": 1.31516885242,
			"-0.017": 1.13933266285,
			"-0.016": 0.861719817872,
			"-0.015": 1.1562812606,
			"-0.014": 1.05921247913,
			"-0.013": 1.21479258357,
			"-0.012": 1.54960608355,
			"-0.011": 0.824595854215,
			"-0.01": 1.31175287351,
			"-0.009": 1.90998371291,
			"-0.008": 2.29352205131,
			"-0.007": 2.914056251,
			"-0.006": 4.56902654281,
			"-0.005": 7.56008293308,
			"-0.004": 12.2106505907,
			"-0.003": 22.2867832941,
			"-0.002": 25.6261872136,
			"-0.001": 28.9780184433,
			"0.0": 23.8296284647,
			"0.001": 23.2772774576,
			"0.002": 10.9948020432,
			"0.003": 12.9382623465,
			"0.004": 15.653676349,
			"0.005": 5.0040176501,
			"0.006": 4.11021478716,
			"0.007": 3.1336414061,
			"0.008": 3.96023167969,
			"0.009": 4.30580042223,
			"0.01": 5.91700418331,
			"0.011": 4.50011502502,
			"0.012": 3.79639063451,
			"0.013": 1.89400454923,
			"0.014": 0.497443388791,
			"0.015": 0.0,
			"0.016": 0.0,
			"0.017": 0.0,
			"0.018": 0.0,
			"0.019": 0.0,
			"0.02": 0.0,
			"0.021": 0.0,
			"0.022": 0.0,
			"0.023": 0.0,
			"0.024": 0.0,
			"0.025": 0.0
		}
	}
}
