{
	 "smiles": "ClC[Si]12OCCN(CCO1)CCO2", 
	 "Tm": 494.15, 
	 "num_atms": 27, 
	 "gaussian": { 
		 "optdone": 1, 
		 "sigma_profile": "yes", 
		 "theory": "DFT", 
		 "functional": "B3LYP", 
		 "basiset": "6-31G**", 
		 "properties": { 
			 "R2extent": 3699.7122, 
			 "electric_dipole_moment_norm": 7.03979921163, 
			 "electric_quadrupole_moment_norm": 17.2001588112, 
			 "total_energy": -1305.40059737, 
			 "HOMO_LUMO_gap": 0.28437, 
			 "cosmo_polarized_energy": -15.85, 
			 "cosmo_cavitation_energy": 29.27, 
			 "cosmo_dispersion_energy": -20.85, 
			 "cosmo_repulsion_energy": 1.74, 
			 "cosmo_total_nonelectrostatic_energy": 10.15, 
			 "SMD_solvation_energy": 4.56 
		},
		"coords": [
			{
				"x": -3.2274429011,
				"y": 3.1039569456,
				"z": -1.9398362253,
				"element": "Cl" 
			},
			{
				"x": -2.6300993858,
				"y": 1.3952631544,
				"z": -2.154152605,
				"element": "C" 
			},
			{
				"x": -1.5634173311,
				"y": 0.7789131874,
				"z": -0.7189327776,
				"element": "Si" 
			},
			{
				"x": -1.1578433674,
				"y": -0.7528445381,
				"z": -1.2733200066,
				"element": "O" 
			},
			{
				"x": -0.7646157284,
				"y": -1.8228658875,
				"z": -0.4379256393,
				"element": "C" 
			},
			{
				"x": 0.2453157285,
				"y": -1.344281435,
				"z": 0.6225411483,
				"element": "C" 
			},
			{
				"x": -0.1627320258,
				"y": -0.0428365565,
				"z": 1.1556639559,
				"element": "N" 
			},
			{
				"x": 0.8756262489,
				"y": 0.993569864,
				"z": 1.1659673926,
				"element": "C" 
			},
			{
				"x": 0.9852969385,
				"y": 1.5819957857,
				"z": -0.2450663765,
				"element": "C" 
			},
			{
				"x": -0.3012929815,
				"y": 1.8728575857,
				"z": -0.7472954203,
				"element": "O" 
			},
			{
				"x": -1.1295222944,
				"y": -0.0433811551,
				"z": 2.2543787567,
				"element": "C" 
			},
			{
				"x": -2.5641290525,
				"y": -0.0396822896,
				"z": 1.6884286456,
				"element": "C" 
			},
			{
				"x": -2.6519400293,
				"y": 0.7897418315,
				"z": 0.5499698582,
				"element": "O" 
			},
			{
				"x": -3.5177640949,
				"y": 0.7712875462,
				"z": -2.2734575758,
				"element": "H" 
			},
			{
				"x": -2.0710190468,
				"y": 1.3783064243,
				"z": -3.0917176596,
				"element": "H" 
			},
			{
				"x": -0.3065628287,
				"y": -2.600342448,
				"z": -1.060305885,
				"element": "H" 
			},
			{
				"x": -1.6443362587,
				"y": -2.2723372648,
				"z": 0.0432231097,
				"element": "H" 
			},
			{
				"x": 1.2223064077,
				"y": -1.2217895174,
				"z": 0.1459737,
				"element": "H" 
			},
			{
				"x": 0.357650037,
				"y": -2.0978619922,
				"z": 1.4168370583,
				"element": "H" 
			},
			{
				"x": 1.8491542673,
				"y": 0.6169135601,
				"z": 1.5144325349,
				"element": "H" 
			},
			{
				"x": 0.5578051862,
				"y": 1.7842207813,
				"z": 1.8498738032,
				"element": "H" 
			},
			{
				"x": 1.5038336407,
				"y": 0.8802616112,
				"z": -0.9157745135,
				"element": "H" 
			},
			{
				"x": 1.5706911795,
				"y": 2.5079170008,
				"z": -0.2238916376,
				"element": "H" 
			},
			{
				"x": -0.9800940792,
				"y": 0.8687852313,
				"z": 2.8371177526,
				"element": "H" 
			},
			{
				"x": -0.9850780875,
				"y": -0.8971898309,
				"z": 2.9331296108,
				"element": "H" 
			},
			{
				"x": -3.2587808587,
				"y": 0.3379305395,
				"z": 2.4473696973,
				"element": "H" 
			},
			{
				"x": -2.8855092826,
				"y": -1.060608134,
				"z": 1.4383692978,
				"element": "H" 
			}
		],
		 "valence_orbital": [ 
			{
				"type": "occ",
				"energy": -0.28504,
				"method": "rhf"
			},
			{
				"type": "occ",
				"energy": -0.26966,
				"method": "rhf"
			},
			{
				"type": "occ",
				"energy": -0.26505,
				"method": "rhf"
			},
			{
				"type": "occ",
				"energy": -0.25984,
				"method": "rhf"
			},
			{
				"type": "occ",
				"energy": -0.24682,
				"method": "rhf"
			},
			{
				"type": "unocc",
				"energy": 0.03755,
				"method": "rhf"
			},
			{
				"type": "unocc",
				"energy": 0.0608,
				"method": "rhf"
			},
			{
				"type": "unocc",
				"energy": 0.0765,
				"method": "rhf"
			},
			{
				"type": "unocc",
				"energy": 0.08503,
				"method": "rhf"
			},
			{
				"type": "unocc",
				"energy": 0.09186,
				"method": "rhf"
			}
		],
		"cosmo_sigma_profile": { 
			"-0.025": 0.0,
			"-0.024": 0.0,
			"-0.023": 0.0,
			"-0.022": 0.0,
			"-0.021": 0.0,
			"-0.02": 0.0,
			"-0.019": 0.0,
			"-0.018": 0.0,
			"-0.017": 0.0,
			"-0.016": 0.0,
			"-0.015": 0.0,
			"-0.014": 0.0,
			"-0.013": 0.0,
			"-0.012": 0.0,
			"-0.011": 0.0,
			"-0.01": 0.0,
			"-0.009": 0.0,
			"-0.008": 0.0,
			"-0.007": 1.7388766868,
			"-0.006": 11.4123401874,
			"-0.005": 32.4909647942,
			"-0.004": 36.9710206462,
			"-0.003": 25.7668896731,
			"-0.002": 19.5198088051,
			"-0.001": 10.9020433192,
			"0.0": 6.76944829203,
			"0.001": 7.40591752025,
			"0.002": 6.54869020422,
			"0.003": 5.53195663337,
			"0.004": 7.7306372481,
			"0.005": 6.44773338762,
			"0.006": 8.87221115469,
			"0.007": 11.5767530142,
			"0.008": 7.32298228076,
			"0.009": 4.92518222968,
			"0.01": 4.40512444956,
			"0.011": 3.69340749671,
			"0.012": 4.78297433727,
			"0.013": 2.73936800228,
			"0.014": 0.0954398363529,
			"0.015": 0.0,
			"0.016": 0.0,
			"0.017": 0.0,
			"0.018": 0.0,
			"0.019": 0.0,
			"0.02": 0.0,
			"0.021": 0.0,
			"0.022": 0.0,
			"0.023": 0.0,
			"0.024": 0.0,
			"0.025": 0.0
		}
	}
}
