{
	 "smiles": "CN(CCC#N)C1=CC=C(C=O)C=C1", 
	 "Tm": 345.15, 
	 "num_atms": 26, 
	 "gaussian": { 
		 "optdone": 1, 
		 "sigma_profile": "yes", 
		 "theory": "DFT", 
		 "functional": "B3LYP", 
		 "basiset": "6-31G**", 
		 "properties": { 
			 "R2extent": 4258.4094, 
			 "electric_dipole_moment_norm": 4.15278059738, 
			 "electric_quadrupole_moment_norm": 34.5659114651, 
			 "total_energy": -611.101130818, 
			 "HOMO_LUMO_gap": 0.165, 
			 "cosmo_polarized_energy": -18.31, 
			 "cosmo_cavitation_energy": 30.44, 
			 "cosmo_dispersion_energy": -20.99, 
			 "cosmo_repulsion_energy": 1.63, 
			 "cosmo_total_nonelectrostatic_energy": 11.08, 
			 "SMD_solvation_energy": 7.1 
		},
		"coords": [
			{
				"x": -0.0541908744,
				"y": -1.2416016292,
				"z": -1.8093925597,
				"element": "C" 
			},
			{
				"x": -0.9877913363,
				"y": -0.6213801439,
				"z": -0.8744243286,
				"element": "N" 
			},
			{
				"x": -1.6949820175,
				"y": -1.4754457687,
				"z": 0.0606208606,
				"element": "C" 
			},
			{
				"x": -1.0097412615,
				"y": -1.620169098,
				"z": 1.4471425369,
				"element": "C" 
			},
			{
				"x": 0.2912789989,
				"y": -2.286160529,
				"z": 1.3616948336,
				"element": "C" 
			},
			{
				"x": 1.3161056437,
				"y": -2.8223689622,
				"z": 1.2625451199,
				"element": "N" 
			},
			{
				"x": -1.0589321319,
				"y": 0.7590629878,
				"z": -0.7838297786,
				"element": "C" 
			},
			{
				"x": -0.279492972,
				"y": 1.5795644287,
				"z": -1.6366856714,
				"element": "C" 
			},
			{
				"x": -0.3672940148,
				"y": 2.9621277332,
				"z": -1.5635983619,
				"element": "C" 
			},
			{
				"x": -1.2190456403,
				"y": 3.592874658,
				"z": -0.6469826322,
				"element": "C" 
			},
			{
				"x": -1.3013579812,
				"y": 5.0581358366,
				"z": -0.5774979941,
				"element": "C" 
			},
			{
				"x": -2.0134614079,
				"y": 5.6831937831,
				"z": 0.1907353895,
				"element": "O" 
			},
			{
				"x": -1.9889475608,
				"y": 2.7864616088,
				"z": 0.2069489642,
				"element": "C" 
			},
			{
				"x": -1.9135387618,
				"y": 1.406247733,
				"z": 0.1493465256,
				"element": "C" 
			},
			{
				"x": -0.2724487643,
				"y": -0.9401299112,
				"z": -2.8408402768,
				"element": "H" 
			},
			{
				"x": -0.1520735385,
				"y": -2.3252383554,
				"z": -1.7447870119,
				"element": "H" 
			},
			{
				"x": 0.9889629189,
				"y": -0.9880424261,
				"z": -1.5846490715,
				"element": "H" 
			},
			{
				"x": -1.7996189594,
				"y": -2.4649914401,
				"z": -0.3905731654,
				"element": "H" 
			},
			{
				"x": -2.7096327811,
				"y": -1.0994572069,
				"z": 0.2216689513,
				"element": "H" 
			},
			{
				"x": -1.6569443708,
				"y": -2.1984248078,
				"z": 2.1175459615,
				"element": "H" 
			},
			{
				"x": -0.8706464839,
				"y": -0.6325077949,
				"z": 1.8993674876,
				"element": "H" 
			},
			{
				"x": 0.3960063409,
				"y": 1.1343803368,
				"z": -2.3554352309,
				"element": "H" 
			},
			{
				"x": 0.2415034531,
				"y": 3.5682669661,
				"z": -2.231272558,
				"element": "H" 
			},
			{
				"x": -0.6442480604,
				"y": 5.5906327388,
				"z": -1.302825873,
				"element": "H" 
			},
			{
				"x": -2.6469657124,
				"y": 3.2738778663,
				"z": 0.9199518725,
				"element": "H" 
			},
			{
				"x": -2.526102724,
				"y": 0.8280913963,
				"z": 0.830426011,
				"element": "H" 
			}
		],
		 "valence_orbital": [ 
			{
				"type": "occ",
				"energy": -0.33417,
				"method": "rhf"
			},
			{
				"type": "occ",
				"energy": -0.29981,
				"method": "rhf"
			},
			{
				"type": "occ",
				"energy": -0.26535,
				"method": "rhf"
			},
			{
				"type": "occ",
				"energy": -0.24338,
				"method": "rhf"
			},
			{
				"type": "occ",
				"energy": -0.21381,
				"method": "rhf"
			},
			{
				"type": "unocc",
				"energy": -0.04881,
				"method": "rhf"
			},
			{
				"type": "unocc",
				"energy": -0.01422,
				"method": "rhf"
			},
			{
				"type": "unocc",
				"energy": 0.01861,
				"method": "rhf"
			},
			{
				"type": "unocc",
				"energy": 0.02844,
				"method": "rhf"
			},
			{
				"type": "unocc",
				"energy": 0.05004,
				"method": "rhf"
			}
		],
		"cosmo_sigma_profile": { 
			"-0.025": 0.0,
			"-0.024": 0.0,
			"-0.023": 0.0,
			"-0.022": 0.0,
			"-0.021": 0.0,
			"-0.02": 0.0,
			"-0.019": 0.0,
			"-0.018": 0.0,
			"-0.017": 0.0,
			"-0.016": 0.0,
			"-0.015": 0.0,
			"-0.014": 0.0,
			"-0.013": 0.0,
			"-0.012": 0.0,
			"-0.011": 0.0,
			"-0.01": 0.0628625761196,
			"-0.009": 2.60105197918,
			"-0.008": 10.1204326895,
			"-0.007": 14.135831264,
			"-0.006": 17.755638962,
			"-0.005": 23.1109676351,
			"-0.004": 19.679366232,
			"-0.003": 15.6735184191,
			"-0.002": 17.3143975309,
			"-0.001": 11.4281330057,
			"0.0": 9.80270027178,
			"0.001": 10.3040324788,
			"0.002": 11.4717191969,
			"0.003": 14.0610624831,
			"0.004": 13.654390975,
			"0.005": 9.76355784148,
			"0.006": 4.93617346124,
			"0.007": 3.1364751901,
			"0.008": 4.94834964072,
			"0.009": 4.81911592061,
			"0.01": 5.07507953273,
			"0.011": 5.10973454682,
			"0.012": 7.218058883,
			"0.013": 5.32861642733,
			"0.014": 1.29154017986,
			"0.015": 0.00782501289274,
			"0.016": 0.0,
			"0.017": 0.0,
			"0.018": 0.0,
			"0.019": 0.0,
			"0.02": 0.0,
			"0.021": 0.0,
			"0.022": 0.0,
			"0.023": 0.0,
			"0.024": 0.0,
			"0.025": 0.0
		}
	}
}
