{
	 "smiles": "NC1=C(Cl)C=C(C=C1)S(N)(=O)=O", 
	 "Tm": 430.15, 
	 "num_atms": 19, 
	 "gaussian": { 
		 "optdone": 1, 
		 "sigma_profile": "yes", 
		 "theory": "DFT", 
		 "functional": "B3LYP", 
		 "basiset": "6-31G**", 
		 "properties": { 
			 "R2extent": 4467.8861, 
			 "electric_dipole_moment_norm": 6.8373805591, 
			 "electric_quadrupole_moment_norm": 25.5908335429, 
			 "total_energy": -1351.12315512, 
			 "HOMO_LUMO_gap": 0.1984, 
			 "cosmo_polarized_energy": -22.12, 
			 "cosmo_cavitation_energy": 26.43, 
			 "cosmo_dispersion_energy": -20.27, 
			 "cosmo_repulsion_energy": 1.58, 
			 "cosmo_total_nonelectrostatic_energy": 7.74, 
			 "SMD_solvation_energy": 3.88 
		},
		"coords": [
			{
				"x": -1.8359375013,
				"y": -1.4104382493,
				"z": 1.6514876915,
				"element": "N" 
			},
			{
				"x": -0.6482465485,
				"y": -1.2358586441,
				"z": 0.9819192716,
				"element": "C" 
			},
			{
				"x": 0.3731722178,
				"y": -2.2124435307,
				"z": 1.0134439206,
				"element": "C" 
			},
			{
				"x": 0.1444836139,
				"y": -3.6520144897,
				"z": 2.0019530456,
				"element": "Cl" 
			},
			{
				"x": 1.5551412848,
				"y": -2.0613514076,
				"z": 0.3026360914,
				"element": "C" 
			},
			{
				"x": 1.7429042718,
				"y": -0.9154682468,
				"z": -0.4731883684,
				"element": "C" 
			},
			{
				"x": 0.7599375691,
				"y": 0.0782631483,
				"z": -0.5172715353,
				"element": "C" 
			},
			{
				"x": -0.4156617677,
				"y": -0.0842185827,
				"z": 0.2003344446,
				"element": "C" 
			},
			{
				"x": 3.2509998341,
				"y": -0.7294296494,
				"z": -1.4197934834,
				"element": "S" 
			},
			{
				"x": 2.9800752107,
				"y": -1.4127955782,
				"z": -2.9353900787,
				"element": "N" 
			},
			{
				"x": 4.2685709431,
				"y": -1.5713212788,
				"z": -0.7924122049,
				"element": "O" 
			},
			{
				"x": 3.4344327086,
				"y": 0.700070228,
				"z": -1.6668673357,
				"element": "O" 
			},
			{
				"x": -1.8571864178,
				"y": -2.1037593273,
				"z": 2.3845572034,
				"element": "H" 
			},
			{
				"x": -2.392785787,
				"y": -0.5877185023,
				"z": 1.8240920847,
				"element": "H" 
			},
			{
				"x": 2.3343537964,
				"y": -2.811994813,
				"z": 0.3702781637,
				"element": "H" 
			},
			{
				"x": 0.9334659872,
				"y": 0.9813867417,
				"z": -1.0923530841,
				"element": "H" 
			},
			{
				"x": -1.1789837378,
				"y": 0.6885864981,
				"z": 0.1713893565,
				"element": "H" 
			},
			{
				"x": 2.8177283548,
				"y": -2.4139398714,
				"z": -2.8885262815,
				"element": "H" 
			},
			{
				"x": 2.2651359679,
				"y": -0.9217544448,
				"z": -3.4630889018,
				"element": "H" 
			}
		],
		 "valence_orbital": [ 
			{
				"type": "occ",
				"energy": -0.30421,
				"method": "rhf"
			},
			{
				"type": "occ",
				"energy": -0.30147,
				"method": "rhf"
			},
			{
				"type": "occ",
				"energy": -0.30076,
				"method": "rhf"
			},
			{
				"type": "occ",
				"energy": -0.26951,
				"method": "rhf"
			},
			{
				"type": "occ",
				"energy": -0.23045,
				"method": "rhf"
			},
			{
				"type": "unocc",
				"energy": -0.03205,
				"method": "rhf"
			},
			{
				"type": "unocc",
				"energy": -0.0289,
				"method": "rhf"
			},
			{
				"type": "unocc",
				"energy": 0.01225,
				"method": "rhf"
			},
			{
				"type": "unocc",
				"energy": 0.05698,
				"method": "rhf"
			},
			{
				"type": "unocc",
				"energy": 0.06421,
				"method": "rhf"
			}
		],
		"cosmo_sigma_profile": { 
			"-0.025": 0.0,
			"-0.024": 0.0,
			"-0.023": 0.0,
			"-0.022": 0.0,
			"-0.021": 0.0,
			"-0.02": 0.0,
			"-0.019": 0.0,
			"-0.018": 0.0,
			"-0.017": 0.0,
			"-0.016": 0.0389577066603,
			"-0.015": 1.97501712931,
			"-0.014": 3.97452678287,
			"-0.013": 4.39412934758,
			"-0.012": 5.62266846765,
			"-0.011": 4.70025399602,
			"-0.01": 5.14542582936,
			"-0.009": 4.22034844916,
			"-0.008": 5.96464966789,
			"-0.007": 6.48513784429,
			"-0.006": 8.11512525807,
			"-0.005": 7.89253090991,
			"-0.004": 6.16361904716,
			"-0.003": 6.94964062778,
			"-0.002": 8.65156189022,
			"-0.001": 8.61101481221,
			"0.0": 10.9689426184,
			"0.001": 15.9992434289,
			"0.002": 19.6960753856,
			"0.003": 16.2738927087,
			"0.004": 11.2511606222,
			"0.005": 6.05190436643,
			"0.006": 3.30002599356,
			"0.007": 4.31104271671,
			"0.008": 5.6515245577,
			"0.009": 4.99819671036,
			"0.01": 7.3931224489,
			"0.011": 10.6992148916,
			"0.012": 6.86229987013,
			"0.013": 0.480053862705,
			"0.014": 0.0,
			"0.015": 0.0,
			"0.016": 0.0,
			"0.017": 0.0,
			"0.018": 0.0,
			"0.019": 0.0,
			"0.02": 0.0,
			"0.021": 0.0,
			"0.022": 0.0,
			"0.023": 0.0,
			"0.024": 0.0,
			"0.025": 0.0
		}
	}
}
