{
	 "smiles": "OC(=O)CC1=C(Cl)C=CC=C1Cl", 
	 "Tm": 433.15, 
	 "num_atms": 18, 
	 "gaussian": { 
		 "optdone": 1, 
		 "sigma_profile": "yes", 
		 "theory": "DFT", 
		 "functional": "B3LYP", 
		 "basiset": "6-31G**", 
		 "properties": { 
			 "R2extent": 2840.574, 
			 "electric_dipole_moment_norm": 3.93829610111, 
			 "electric_quadrupole_moment_norm": 22.2540280504, 
			 "total_energy": -1379.30568905, 
			 "HOMO_LUMO_gap": 0.22483, 
			 "cosmo_polarized_energy": -16.13, 
			 "cosmo_cavitation_energy": 26.16, 
			 "cosmo_dispersion_energy": -18.87, 
			 "cosmo_repulsion_energy": 1.52, 
			 "cosmo_total_nonelectrostatic_energy": 8.81, 
			 "SMD_solvation_energy": 5.09 
		},
		"coords": [
			{
				"x": 2.2366464405,
				"y": -0.4825263595,
				"z": 3.3494916881,
				"element": "O" 
			},
			{
				"x": 1.8632140698,
				"y": -0.0211162316,
				"z": 2.1262683194,
				"element": "C" 
			},
			{
				"x": 2.6861443234,
				"y": 0.3657577128,
				"z": 1.3407409869,
				"element": "O" 
			},
			{
				"x": 0.3489025206,
				"y": -0.0496365016,
				"z": 1.8771798768,
				"element": "C" 
			},
			{
				"x": -0.0355309254,
				"y": 0.4660404976,
				"z": 0.5170138956,
				"element": "C" 
			},
			{
				"x": -0.1263045949,
				"y": -0.3788517381,
				"z": -0.6019002023,
				"element": "C" 
			},
			{
				"x": 0.2171043081,
				"y": -2.0973656753,
				"z": -0.432063482,
				"element": "Cl" 
			},
			{
				"x": -0.4787543116,
				"y": 0.0838936264,
				"z": -1.8679488881,
				"element": "C" 
			},
			{
				"x": -0.7503044561,
				"y": 1.4381695276,
				"z": -2.0449916133,
				"element": "C" 
			},
			{
				"x": -0.6680214217,
				"y": 2.3168916794,
				"z": -0.9678520625,
				"element": "C" 
			},
			{
				"x": -0.3129849196,
				"y": 1.8238662685,
				"z": 0.2859861264,
				"element": "C" 
			},
			{
				"x": -0.212859538,
				"y": 2.9765125393,
				"z": 1.6131673634,
				"element": "Cl" 
			},
			{
				"x": 1.4625982516,
				"y": -0.7552826018,
				"z": 3.8623967991,
				"element": "H" 
			},
			{
				"x": -0.1339732635,
				"y": 0.5483350193,
				"z": 2.6570025505,
				"element": "H" 
			},
			{
				"x": 0.0047826446,
				"y": -1.0818194799,
				"z": 1.9997640064,
				"element": "H" 
			},
			{
				"x": -0.5337797279,
				"y": -0.6114176759,
				"z": -2.6973089555,
				"element": "H" 
			},
			{
				"x": -1.0244981772,
				"y": 1.8107092163,
				"z": -3.02686719,
				"element": "H" 
			},
			{
				"x": -0.871581223,
				"y": 3.3741401767,
				"z": -1.0907792185,
				"element": "H" 
			}
		],
		 "valence_orbital": [ 
			{
				"type": "occ",
				"energy": -0.32181,
				"method": "rhf"
			},
			{
				"type": "occ",
				"energy": -0.31927,
				"method": "rhf"
			},
			{
				"type": "occ",
				"energy": -0.27855,
				"method": "rhf"
			},
			{
				"type": "occ",
				"energy": -0.26438,
				"method": "rhf"
			},
			{
				"type": "occ",
				"energy": -0.25635,
				"method": "rhf"
			},
			{
				"type": "unocc",
				"energy": -0.03152,
				"method": "rhf"
			},
			{
				"type": "unocc",
				"energy": -0.02847,
				"method": "rhf"
			},
			{
				"type": "unocc",
				"energy": -0.001,
				"method": "rhf"
			},
			{
				"type": "unocc",
				"energy": 0.00848,
				"method": "rhf"
			},
			{
				"type": "unocc",
				"energy": 0.04443,
				"method": "rhf"
			}
		],
		"cosmo_sigma_profile": { 
			"-0.025": 0.0,
			"-0.024": 0.0,
			"-0.023": 0.0,
			"-0.022": 0.0,
			"-0.021": 0.0,
			"-0.02": 0.0771451275084,
			"-0.019": 1.07734677269,
			"-0.018": 1.23361610392,
			"-0.017": 1.38367526706,
			"-0.016": 1.22489147133,
			"-0.015": 1.03857562075,
			"-0.014": 1.01517877957,
			"-0.013": 1.11330843619,
			"-0.012": 1.55884184917,
			"-0.011": 1.47235516998,
			"-0.01": 0.577257374502,
			"-0.009": 1.17649805228,
			"-0.008": 4.47630682437,
			"-0.007": 9.32564348401,
			"-0.006": 9.8474197242,
			"-0.005": 8.2641599382,
			"-0.004": 8.37656763467,
			"-0.003": 9.73543921933,
			"-0.002": 11.4083344562,
			"-0.001": 11.829058911,
			"0.0": 16.3745393763,
			"0.001": 21.0242579225,
			"0.002": 21.3686554598,
			"0.003": 20.5526676157,
			"0.004": 15.2533007273,
			"0.005": 4.10300870603,
			"0.006": 3.75333560255,
			"0.007": 2.66167332945,
			"0.008": 2.9985427835,
			"0.009": 3.86390504692,
			"0.01": 5.32542970682,
			"0.011": 5.56924357283,
			"0.012": 3.94315376097,
			"0.013": 0.771863573422,
			"0.014": 0.0,
			"0.015": 0.0,
			"0.016": 0.0,
			"0.017": 0.0,
			"0.018": 0.0,
			"0.019": 0.0,
			"0.02": 0.0,
			"0.021": 0.0,
			"0.022": 0.0,
			"0.023": 0.0,
			"0.024": 0.0,
			"0.025": 0.0
		}
	}
}
