{
	 "smiles": "CN1NC2=C(CCC2)C1=N", 
	 "Tm": 408.15, 
	 "num_atms": 21, 
	 "gaussian": { 
		 "optdone": 1, 
		 "sigma_profile": "yes", 
		 "theory": "DFT", 
		 "functional": "B3LYP", 
		 "basiset": "6-31G**", 
		 "properties": { 
			 "R2extent": 1780.2812, 
			 "electric_dipole_moment_norm": 3.74687842477, 
			 "electric_quadrupole_moment_norm": 9.26176126393, 
			 "total_energy": -437.571897168, 
			 "HOMO_LUMO_gap": 0.19196, 
			 "cosmo_polarized_energy": -13.55, 
			 "cosmo_cavitation_energy": 23.25, 
			 "cosmo_dispersion_energy": -17.54, 
			 "cosmo_repulsion_energy": 1.45, 
			 "cosmo_total_nonelectrostatic_energy": 7.15, 
			 "SMD_solvation_energy": 1.75 
		},
		"coords": [
			{
				"x": 0.7482849398,
				"y": -2.1822561347,
				"z": -1.0259818347,
				"element": "C" 
			},
			{
				"x": 0.451110593,
				"y": -0.9403749114,
				"z": -0.3268085182,
				"element": "N" 
			},
			{
				"x": -0.8895838828,
				"y": -0.4644309001,
				"z": -0.5806145493,
				"element": "N" 
			},
			{
				"x": -1.2660298487,
				"y": 0.1504340302,
				"z": 0.6116875325,
				"element": "C" 
			},
			{
				"x": -0.3959168007,
				"y": -0.0794288121,
				"z": 1.6093399054,
				"element": "C" 
			},
			{
				"x": -0.8306605673,
				"y": 0.5410617471,
				"z": 2.9022072765,
				"element": "C" 
			},
			{
				"x": -2.2886617566,
				"y": 1.0072813582,
				"z": 2.5615411573,
				"element": "C" 
			},
			{
				"x": -2.4331136003,
				"y": 1.0039473489,
				"z": 1.0008282033,
				"element": "C" 
			},
			{
				"x": 0.7207887772,
				"y": -0.8428444838,
				"z": 1.0816135796,
				"element": "C" 
			},
			{
				"x": 1.7156238522,
				"y": -1.3216833849,
				"z": 1.738595301,
				"element": "N" 
			},
			{
				"x": 0.6385355074,
				"y": -2.0313198512,
				"z": -2.1033463741,
				"element": "H" 
			},
			{
				"x": 1.7889142308,
				"y": -2.45125656,
				"z": -0.8332193394,
				"element": "H" 
			},
			{
				"x": 0.0983107509,
				"y": -3.0105774394,
				"z": -0.7125059887,
				"element": "H" 
			},
			{
				"x": -0.8849928594,
				"y": 0.1518238017,
				"z": -1.3936826901,
				"element": "H" 
			},
			{
				"x": -0.8115551475,
				"y": -0.1541829845,
				"z": 3.7482518458,
				"element": "H" 
			},
			{
				"x": -0.1837219842,
				"y": 1.3843930377,
				"z": 3.1775613796,
				"element": "H" 
			},
			{
				"x": -3.0026639229,
				"y": 0.2927123443,
				"z": 2.9821102668,
				"element": "H" 
			},
			{
				"x": -2.5232934486,
				"y": 1.9854787553,
				"z": 2.9897206384,
				"element": "H" 
			},
			{
				"x": -3.3976683118,
				"y": 0.6036594458,
				"z": 0.6690092942,
				"element": "H" 
			},
			{
				"x": -2.3458492323,
				"y": 2.0145828764,
				"z": 0.5771921683,
				"element": "H" 
			},
			{
				"x": 2.3732427119,
				"y": -1.8126192834,
				"z": 1.1301007458,
				"element": "H" 
			}
		],
		 "valence_orbital": [ 
			{
				"type": "occ",
				"energy": -0.33499,
				"method": "rhf"
			},
			{
				"type": "occ",
				"energy": -0.30895,
				"method": "rhf"
			},
			{
				"type": "occ",
				"energy": -0.2492,
				"method": "rhf"
			},
			{
				"type": "occ",
				"energy": -0.23851,
				"method": "rhf"
			},
			{
				"type": "occ",
				"energy": -0.18896,
				"method": "rhf"
			},
			{
				"type": "unocc",
				"energy": 0.003,
				"method": "rhf"
			},
			{
				"type": "unocc",
				"energy": 0.07596,
				"method": "rhf"
			},
			{
				"type": "unocc",
				"energy": 0.09378,
				"method": "rhf"
			},
			{
				"type": "unocc",
				"energy": 0.09537,
				"method": "rhf"
			},
			{
				"type": "unocc",
				"energy": 0.10178,
				"method": "rhf"
			}
		],
		"cosmo_sigma_profile": { 
			"-0.025": 0.0,
			"-0.024": 0.0,
			"-0.023": 0.0,
			"-0.022": 0.0,
			"-0.021": 0.0,
			"-0.02": 0.0,
			"-0.019": 0.0,
			"-0.018": 0.0,
			"-0.017": 0.0,
			"-0.016": 0.0,
			"-0.015": 0.0,
			"-0.014": 1.1097486571,
			"-0.013": 1.24977849764,
			"-0.012": 1.77305610084,
			"-0.011": 0.649885085735,
			"-0.01": 1.38479361816,
			"-0.009": 2.93510602779,
			"-0.008": 2.2800052324,
			"-0.007": 3.65383021649,
			"-0.006": 4.07482639334,
			"-0.005": 7.760157771,
			"-0.004": 14.121461352,
			"-0.003": 22.2570495817,
			"-0.002": 26.5671541087,
			"-0.001": 19.5941360882,
			"0.0": 14.5248912382,
			"0.001": 7.92057590577,
			"0.002": 5.34266876756,
			"0.003": 6.22234425739,
			"0.004": 7.17128729515,
			"0.005": 3.41434453004,
			"0.006": 3.76155197883,
			"0.007": 2.67665632915,
			"0.008": 2.27271667435,
			"0.009": 3.26463725947,
			"0.01": 2.86790613125,
			"0.011": 2.19668518586,
			"0.012": 1.50884566085,
			"0.013": 1.10886820885,
			"0.014": 1.11613966454,
			"0.015": 1.56779050501,
			"0.016": 1.40498264482,
			"0.017": 1.21226712345,
			"0.018": 1.17939769934,
			"0.019": 1.42258189312,
			"0.02": 0.676718402962,
			"0.021": 0.0,
			"0.022": 0.0,
			"0.023": 0.0,
			"0.024": 0.0,
			"0.025": 0.0
		}
	}
}
