{
	 "smiles": "CC(C)(C)OC(=O)NC(C(N)=NO)C1=C(OC(F)(F)F)C=CC=C1", 
	 "Tm": 393.15, 
	 "num_atms": 42, 
	 "gaussian": { 
		 "optdone": 1, 
		 "sigma_profile": "yes", 
		 "theory": "DFT", 
		 "functional": "B3LYP", 
		 "basiset": "6-31G**", 
		 "properties": { 
			 "R2extent": 9223.3633, 
			 "electric_dipole_moment_norm": 1.48171643711, 
			 "electric_quadrupole_moment_norm": 15.1661689556, 
			 "total_energy": -1309.00184866, 
			 "HOMO_LUMO_gap": 0.1869, 
			 "cosmo_polarized_energy": -14.17, 
			 "cosmo_cavitation_energy": 46.12, 
			 "cosmo_dispersion_energy": -30.66, 
			 "cosmo_repulsion_energy": 2.33, 
			 "cosmo_total_nonelectrostatic_energy": 17.79, 
			 "SMD_solvation_energy": 9.81 
		},
		"coords": [
			{
				"x": -1.8631959543,
				"y": -3.5588905534,
				"z": 2.3288221417,
				"element": "C" 
			},
			{
				"x": -0.4984156659,
				"y": -2.8662188359,
				"z": 2.3585099351,
				"element": "C" 
			},
			{
				"x": -0.3388087434,
				"y": -2.0335931068,
				"z": 3.6348291561,
				"element": "C" 
			},
			{
				"x": 0.6336582013,
				"y": -3.8829618721,
				"z": 2.1806141142,
				"element": "C" 
			},
			{
				"x": -0.5670358408,
				"y": -1.9816840159,
				"z": 1.1819814925,
				"element": "O" 
			},
			{
				"x": 0.4584629068,
				"y": -1.1685384713,
				"z": 0.8545649548,
				"element": "C" 
			},
			{
				"x": 1.5307780315,
				"y": -1.0782402908,
				"z": 1.4503864155,
				"element": "O" 
			},
			{
				"x": 0.1418876386,
				"y": -0.4512566758,
				"z": -0.2590672743,
				"element": "N" 
			},
			{
				"x": 1.0615963094,
				"y": 0.5464491447,
				"z": -0.81262177,
				"element": "C" 
			},
			{
				"x": 0.9492365379,
				"y": 1.8816007989,
				"z": -0.0790847489,
				"element": "C" 
			},
			{
				"x": 1.5263655703,
				"y": 1.9246980529,
				"z": 1.1610162438,
				"element": "N" 
			},
			{
				"x": 0.3492533067,
				"y": 2.8585865532,
				"z": -0.667709192,
				"element": "N" 
			},
			{
				"x": 0.3183072635,
				"y": 3.9865276628,
				"z": 0.2078464674,
				"element": "O" 
			},
			{
				"x": 0.9428681211,
				"y": 0.6590816119,
				"z": -2.3246820823,
				"element": "C" 
			},
			{
				"x": -0.2735981046,
				"y": 0.8164883968,
				"z": -3.0004149427,
				"element": "C" 
			},
			{
				"x": -1.4348875369,
				"y": 0.7932814277,
				"z": -2.2103315704,
				"element": "O" 
			},
			{
				"x": -2.4487311244,
				"y": 1.6667070401,
				"z": -2.4471188363,
				"element": "C" 
			},
			{
				"x": -3.2116413511,
				"y": 1.277096488,
				"z": -3.4969156852,
				"element": "F" 
			},
			{
				"x": -2.0278008718,
				"y": 2.9085861994,
				"z": -2.7047635757,
				"element": "F" 
			},
			{
				"x": -3.2265410983,
				"y": 1.6771245682,
				"z": -1.3636134379,
				"element": "F" 
			},
			{
				"x": -0.3452839321,
				"y": 0.9096831341,
				"z": -4.387771389,
				"element": "C" 
			},
			{
				"x": 0.8324078358,
				"y": 0.8727662753,
				"z": -5.1342359572,
				"element": "C" 
			},
			{
				"x": 2.0602766819,
				"y": 0.7204856601,
				"z": -4.4928408623,
				"element": "C" 
			},
			{
				"x": 2.1042157543,
				"y": 0.6063215089,
				"z": -3.1037202203,
				"element": "C" 
			},
			{
				"x": -2.6708018438,
				"y": -2.8257806293,
				"z": 2.4112119481,
				"element": "H" 
			},
			{
				"x": -1.9944129251,
				"y": -4.1128859967,
				"z": 1.3949454681,
				"element": "H" 
			},
			{
				"x": -1.9454502978,
				"y": -4.2611482415,
				"z": 3.1636076917,
				"element": "H" 
			},
			{
				"x": 0.6278808554,
				"y": -1.5299766802,
				"z": 3.6565989977,
				"element": "H" 
			},
			{
				"x": -1.1335625207,
				"y": -1.2838439158,
				"z": 3.7016706199,
				"element": "H" 
			},
			{
				"x": -0.4148145509,
				"y": -2.6868943695,
				"z": 4.5100049594,
				"element": "H" 
			},
			{
				"x": 1.6056835957,
				"y": -3.3890801306,
				"z": 2.1763283402,
				"element": "H" 
			},
			{
				"x": 0.608468415,
				"y": -4.6076357081,
				"z": 3.0009367842,
				"element": "H" 
			},
			{
				"x": 0.50849912,
				"y": -4.429628448,
				"z": 1.2406912053,
				"element": "H" 
			},
			{
				"x": -0.8208559579,
				"y": -0.4375966725,
				"z": -0.5629562166,
				"element": "H" 
			},
			{
				"x": 2.0624473711,
				"y": 0.1642000591,
				"z": -0.5908792228,
				"element": "H" 
			},
			{
				"x": 1.2624589618,
				"y": 2.7065593433,
				"z": 1.7418919552,
				"element": "H" 
			},
			{
				"x": 1.7283292373,
				"y": 1.0387651729,
				"z": 1.6083040984,
				"element": "H" 
			},
			{
				"x": -0.1625191759,
				"y": 4.6321238465,
				"z": -0.3236544697,
				"element": "H" 
			},
			{
				"x": -1.308073784,
				"y": 1.0056004527,
				"z": -4.8739881803,
				"element": "H" 
			},
			{
				"x": 0.7815487968,
				"y": 0.9520301112,
				"z": -6.2157763963,
				"element": "H" 
			},
			{
				"x": 2.9796292727,
				"y": 0.6820785219,
				"z": -5.0685955358,
				"element": "H" 
			},
			{
				"x": 3.0609714948,
				"y": 0.4826125831,
				"z": -2.6041214234,
				"element": "H" 
			}
		],
		 "valence_orbital": [ 
			{
				"type": "occ",
				"energy": -0.26877,
				"method": "rhf"
			},
			{
				"type": "occ",
				"energy": -0.26183,
				"method": "rhf"
			},
			{
				"type": "occ",
				"energy": -0.25821,
				"method": "rhf"
			},
			{
				"type": "occ",
				"energy": -0.24973,
				"method": "rhf"
			},
			{
				"type": "occ",
				"energy": -0.20397,
				"method": "rhf"
			},
			{
				"type": "unocc",
				"energy": -0.01707,
				"method": "rhf"
			},
			{
				"type": "unocc",
				"energy": -0.01198,
				"method": "rhf"
			},
			{
				"type": "unocc",
				"energy": 0.03512,
				"method": "rhf"
			},
			{
				"type": "unocc",
				"energy": 0.05246,
				"method": "rhf"
			},
			{
				"type": "unocc",
				"energy": 0.07783,
				"method": "rhf"
			}
		],
		"cosmo_sigma_profile": { 
			"-0.025": 0.0,
			"-0.024": 0.0,
			"-0.023": 0.0,
			"-0.022": 0.0,
			"-0.021": 0.0,
			"-0.02": 0.0,
			"-0.019": 0.0,
			"-0.018": 0.0,
			"-0.017": 0.0228837233798,
			"-0.016": 1.23755984552,
			"-0.015": 0.453661542708,
			"-0.014": 0.670032857781,
			"-0.013": 0.728406346302,
			"-0.012": 1.12125782445,
			"-0.011": 1.24386362361,
			"-0.01": 1.07973458652,
			"-0.009": 2.99486943956,
			"-0.008": 4.44941592496,
			"-0.007": 8.59461589459,
			"-0.006": 11.2285866869,
			"-0.005": 13.8587208173,
			"-0.004": 23.7409280591,
			"-0.003": 27.168416772,
			"-0.002": 28.7610283439,
			"-0.001": 31.9986061677,
			"0.0": 39.8023470596,
			"0.001": 41.8757466908,
			"0.002": 40.3826394073,
			"0.003": 20.5960139408,
			"0.004": 16.1459593619,
			"0.005": 8.86007827797,
			"0.006": 7.29361322567,
			"0.007": 7.41104891606,
			"0.008": 5.86371231902,
			"0.009": 4.97487367316,
			"0.01": 4.49144468305,
			"0.011": 3.98972134759,
			"0.012": 2.68052937056,
			"0.013": 0.39878365709,
			"0.014": 0.0,
			"0.015": 0.0,
			"0.016": 0.0,
			"0.017": 0.0,
			"0.018": 0.0,
			"0.019": 0.0,
			"0.02": 0.0,
			"0.021": 0.0,
			"0.022": 0.0,
			"0.023": 0.0,
			"0.024": 0.0,
			"0.025": 0.0
		}
	}
}
