{
	 "smiles": "CC=NNC1=CC=C(C=C1[N+]([O-])=O)[N+]([O-])=O", 
	 "Tm": 439.15, 
	 "num_atms": 24, 
	 "gaussian": { 
		 "optdone": 1, 
		 "sigma_profile": "yes", 
		 "theory": "DFT", 
		 "functional": "B3LYP", 
		 "basiset": "6-31G**", 
		 "properties": { 
			 "R2extent": 5641.7608, 
			 "electric_dipole_moment_norm": 7.49034990771, 
			 "electric_quadrupole_moment_norm": 14.6567921477, 
			 "total_energy": -829.345213656, 
			 "HOMO_LUMO_gap": 0.13494, 
			 "cosmo_polarized_energy": -14.49, 
			 "cosmo_cavitation_energy": 30.48, 
			 "cosmo_dispersion_energy": -22.27, 
			 "cosmo_repulsion_energy": 1.74, 
			 "cosmo_total_nonelectrostatic_energy": 9.96, 
			 "SMD_solvation_energy": 9.54 
		},
		"coords": [
			{
				"x": -2.0104399953,
				"y": -3.4748693319,
				"z": -0.8278662369,
				"element": "C" 
			},
			{
				"x": -2.0065371466,
				"y": -2.1683093928,
				"z": -0.1042548683,
				"element": "C" 
			},
			{
				"x": -1.2026107251,
				"y": -1.2314758582,
				"z": -0.4473576574,
				"element": "N" 
			},
			{
				"x": -1.2734523699,
				"y": -0.0735794811,
				"z": 0.2741545985,
				"element": "N" 
			},
			{
				"x": -0.459592067,
				"y": 0.9763703124,
				"z": -0.0163675422,
				"element": "C" 
			},
			{
				"x": 0.4800877111,
				"y": 0.8850514145,
				"z": -1.0792827434,
				"element": "C" 
			},
			{
				"x": 1.3134105344,
				"y": 1.9344350896,
				"z": -1.3915660356,
				"element": "C" 
			},
			{
				"x": 1.2432603572,
				"y": 3.1266710439,
				"z": -0.6510525311,
				"element": "C" 
			},
			{
				"x": 0.347948564,
				"y": 3.2656985953,
				"z": 0.3909846991,
				"element": "C" 
			},
			{
				"x": -0.5009746194,
				"y": 2.2050372928,
				"z": 0.7137394575,
				"element": "C" 
			},
			{
				"x": -1.4159081913,
				"y": 2.4249926029,
				"z": 1.8219820556,
				"element": "N" 
			},
			{
				"x": -1.3901635664,
				"y": 3.5075764848,
				"z": 2.3993657739,
				"element": "O" 
			},
			{
				"x": -2.1938438691,
				"y": 1.5051291931,
				"z": 2.1452845755,
				"element": "O" 
			},
			{
				"x": 2.1295126208,
				"y": 4.2382307456,
				"z": -0.9858226395,
				"element": "N" 
			},
			{
				"x": 2.9138678917,
				"y": 4.0740778364,
				"z": -1.9225706638,
				"element": "O" 
			},
			{
				"x": 2.0400668607,
				"y": 5.2671856189,
				"z": -0.3154903017,
				"element": "O" 
			},
			{
				"x": -1.2658224755,
				"y": -3.4710355283,
				"z": -1.6260726477,
				"element": "H" 
			},
			{
				"x": -2.9983214746,
				"y": -3.6750546817,
				"z": -1.2603511483,
				"element": "H" 
			},
			{
				"x": -1.7928334502,
				"y": -4.2999225746,
				"z": -0.1387087745,
				"element": "H" 
			},
			{
				"x": -2.7118950334,
				"y": -2.0382554517,
				"z": 0.7273043493,
				"element": "H" 
			},
			{
				"x": -1.9266009697,
				"y": 0.0519933411,
				"z": 1.0481802081,
				"element": "H" 
			},
			{
				"x": 0.5171906719,
				"y": -0.0413589894,
				"z": -1.6358336905,
				"element": "H" 
			},
			{
				"x": 2.0276101968,
				"y": 1.8601354972,
				"z": -2.2023482638,
				"element": "H" 
			},
			{
				"x": 0.2970405448,
				"y": 4.1845762214,
				"z": 0.9585500272,
				"element": "H" 
			}
		],
		 "valence_orbital": [ 
			{
				"type": "occ",
				"energy": -0.3081,
				"method": "rhf"
			},
			{
				"type": "occ",
				"energy": -0.29915,
				"method": "rhf"
			},
			{
				"type": "occ",
				"energy": -0.29833,
				"method": "rhf"
			},
			{
				"type": "occ",
				"energy": -0.29121,
				"method": "rhf"
			},
			{
				"type": "occ",
				"energy": -0.23933,
				"method": "rhf"
			},
			{
				"type": "unocc",
				"energy": -0.10439,
				"method": "rhf"
			},
			{
				"type": "unocc",
				"energy": -0.09024,
				"method": "rhf"
			},
			{
				"type": "unocc",
				"energy": -0.03633,
				"method": "rhf"
			},
			{
				"type": "unocc",
				"energy": -0.01142,
				"method": "rhf"
			},
			{
				"type": "unocc",
				"energy": 0.01458,
				"method": "rhf"
			}
		],
		"cosmo_sigma_profile": { 
			"-0.025": 0.0,
			"-0.024": 0.0,
			"-0.023": 0.0,
			"-0.022": 0.0,
			"-0.021": 0.0,
			"-0.02": 0.0,
			"-0.019": 0.0,
			"-0.018": 0.0,
			"-0.017": 0.0,
			"-0.016": 0.0,
			"-0.015": 0.0,
			"-0.014": 0.06517646346,
			"-0.013": 0.714751952683,
			"-0.012": 1.21531709849,
			"-0.011": 0.887656635122,
			"-0.01": 1.0688196242,
			"-0.009": 1.17006937233,
			"-0.008": 4.38759699205,
			"-0.007": 7.48006566516,
			"-0.006": 11.627308204,
			"-0.005": 17.8595833781,
			"-0.004": 18.6115798267,
			"-0.003": 21.583920264,
			"-0.002": 26.2715233081,
			"-0.001": 23.1808574748,
			"0.0": 16.711937991,
			"0.001": 12.2509730845,
			"0.002": 7.02574765901,
			"0.003": 6.70115374331,
			"0.004": 6.12715833715,
			"0.005": 8.4791171064,
			"0.006": 9.05657217215,
			"0.007": 12.9162031079,
			"0.008": 14.5339254512,
			"0.009": 8.79914966871,
			"0.01": 5.5687377201,
			"0.011": 0.504395494374,
			"0.012": 0.0,
			"0.013": 0.0,
			"0.014": 0.0,
			"0.015": 0.0,
			"0.016": 0.0,
			"0.017": 0.0,
			"0.018": 0.0,
			"0.019": 0.0,
			"0.02": 0.0,
			"0.021": 0.0,
			"0.022": 0.0,
			"0.023": 0.0,
			"0.024": 0.0,
			"0.025": 0.0
		}
	}
}
