{
	 "smiles": "CC(C)NC(=O)C(=CN(C)C)C#N", 
	 "Tm": 387.15, 
	 "num_atms": 28, 
	 "gaussian": { 
		 "optdone": 1, 
		 "sigma_profile": "yes", 
		 "theory": "DFT", 
		 "functional": "B3LYP", 
		 "basiset": "6-31G**", 
		 "properties": { 
			 "R2extent": 3224.6246, 
			 "electric_dipole_moment_norm": 4.02377164486, 
			 "electric_quadrupole_moment_norm": 22.9878242231, 
			 "total_energy": -591.459999128, 
			 "HOMO_LUMO_gap": 0.18859, 
			 "cosmo_polarized_energy": -16.65, 
			 "cosmo_cavitation_energy": 30.58, 
			 "cosmo_dispersion_energy": -21.41, 
			 "cosmo_repulsion_energy": 1.72, 
			 "cosmo_total_nonelectrostatic_energy": 10.89, 
			 "SMD_solvation_energy": 6.8 
		},
		"coords": [
			{
				"x": 1.4531227643,
				"y": -3.0364163937,
				"z": -2.1311733681,
				"element": "C" 
			},
			{
				"x": 0.6214441101,
				"y": -3.3195132322,
				"z": -0.8717147434,
				"element": "C" 
			},
			{
				"x": -0.8894057969,
				"y": -3.3373823933,
				"z": -1.1389445105,
				"element": "C" 
			},
			{
				"x": 1.0324208348,
				"y": -2.4803101056,
				"z": 0.2827616523,
				"element": "N" 
			},
			{
				"x": 0.4822716369,
				"y": -1.4056099715,
				"z": 0.9438125862,
				"element": "C" 
			},
			{
				"x": 0.7059769399,
				"y": -1.2763428425,
				"z": 2.1519840564,
				"element": "O" 
			},
			{
				"x": -0.3266513297,
				"y": -0.3678569124,
				"z": 0.2219319184,
				"element": "C" 
			},
			{
				"x": -1.0415731113,
				"y": 0.4603300289,
				"z": 1.0665113914,
				"element": "C" 
			},
			{
				"x": -1.8597162698,
				"y": 1.5051105789,
				"z": 0.8567553208,
				"element": "N" 
			},
			{
				"x": -2.20722379,
				"y": 2.0777664725,
				"z": -0.4400350444,
				"element": "C" 
			},
			{
				"x": -2.4163009584,
				"y": 2.2242732502,
				"z": 1.9980202587,
				"element": "C" 
			},
			{
				"x": -0.2221474552,
				"y": -0.1725990204,
				"z": -1.1763480745,
				"element": "C" 
			},
			{
				"x": -0.1216577148,
				"y": 0.001631618,
				"z": -2.3276087052,
				"element": "N" 
			},
			{
				"x": 1.2316063459,
				"y": -3.7859200608,
				"z": -2.8991562754,
				"element": "H" 
			},
			{
				"x": 1.2383397956,
				"y": -2.0494824359,
				"z": -2.5439906121,
				"element": "H" 
			},
			{
				"x": 2.5217334044,
				"y": -3.0918226694,
				"z": -1.9017099905,
				"element": "H" 
			},
			{
				"x": 0.8832286978,
				"y": -4.3331319041,
				"z": -0.5421683757,
				"element": "H" 
			},
			{
				"x": -1.2458826697,
				"y": -2.4110371734,
				"z": -1.591136761,
				"element": "H" 
			},
			{
				"x": -1.4483795566,
				"y": -3.5204984147,
				"z": -0.2161759593,
				"element": "H" 
			},
			{
				"x": -1.1141994608,
				"y": -4.1492242751,
				"z": -1.8382513866,
				"element": "H" 
			},
			{
				"x": 1.6025272499,
				"y": -2.9815868489,
				"z": 0.9525415932,
				"element": "H" 
			},
			{
				"x": -0.9033781583,
				"y": 0.2053093876,
				"z": 2.1139560134,
				"element": "H" 
			},
			{
				"x": -1.733910982,
				"y": 3.059878578,
				"z": -0.5640927938,
				"element": "H" 
			},
			{
				"x": -1.8894494302,
				"y": 1.4330261839,
				"z": -1.2540047606,
				"element": "H" 
			},
			{
				"x": -3.2934640743,
				"y": 2.2112207833,
				"z": -0.4945693146,
				"element": "H" 
			},
			{
				"x": -2.1251404198,
				"y": 1.7360715855,
				"z": 2.9285653642,
				"element": "H" 
			},
			{
				"x": -2.0530615166,
				"y": 3.2595147319,
				"z": 2.016190179,
				"element": "H" 
			},
			{
				"x": -3.5109290854,
				"y": 2.2469014551,
				"z": 1.9369503417,
				"element": "H" 
			}
		],
		 "valence_orbital": [ 
			{
				"type": "occ",
				"energy": -0.32385,
				"method": "rhf"
			},
			{
				"type": "occ",
				"energy": -0.31223,
				"method": "rhf"
			},
			{
				"type": "occ",
				"energy": -0.25101,
				"method": "rhf"
			},
			{
				"type": "occ",
				"energy": -0.23425,
				"method": "rhf"
			},
			{
				"type": "occ",
				"energy": -0.21551,
				"method": "rhf"
			},
			{
				"type": "unocc",
				"energy": -0.02692,
				"method": "rhf"
			},
			{
				"type": "unocc",
				"energy": 0.02896,
				"method": "rhf"
			},
			{
				"type": "unocc",
				"energy": 0.04057,
				"method": "rhf"
			},
			{
				"type": "unocc",
				"energy": 0.0717,
				"method": "rhf"
			},
			{
				"type": "unocc",
				"energy": 0.0816,
				"method": "rhf"
			}
		],
		"cosmo_sigma_profile": { 
			"-0.025": 0.0,
			"-0.024": 0.0,
			"-0.023": 0.0,
			"-0.022": 0.0,
			"-0.021": 0.0,
			"-0.02": 0.0,
			"-0.019": 0.0,
			"-0.018": 0.0,
			"-0.017": 0.0,
			"-0.016": 0.0,
			"-0.015": 0.0,
			"-0.014": 0.0,
			"-0.013": 0.10114163711,
			"-0.012": 1.02338886765,
			"-0.011": 1.30669479994,
			"-0.01": 1.08230381697,
			"-0.009": 2.21387713542,
			"-0.008": 3.45636990485,
			"-0.007": 4.12995448482,
			"-0.006": 14.1468773219,
			"-0.005": 15.4536662131,
			"-0.004": 20.7221399088,
			"-0.003": 33.2961707523,
			"-0.002": 18.9124849988,
			"-0.001": 19.0964722204,
			"0.0": 18.2817055087,
			"0.001": 19.6327694261,
			"0.002": 11.7892205829,
			"0.003": 8.37537858508,
			"0.004": 5.92966620108,
			"0.005": 4.02917784563,
			"0.006": 4.67929500872,
			"0.007": 3.14028861135,
			"0.008": 3.25620265451,
			"0.009": 2.42087144798,
			"0.01": 3.87963009838,
			"0.011": 3.41413310653,
			"0.012": 3.96941369947,
			"0.013": 4.80008293791,
			"0.014": 6.9336281748,
			"0.015": 1.41224248277,
			"0.016": 0.0,
			"0.017": 0.0,
			"0.018": 0.0,
			"0.019": 0.0,
			"0.02": 0.0,
			"0.021": 0.0,
			"0.022": 0.0,
			"0.023": 0.0,
			"0.024": 0.0,
			"0.025": 0.0
		}
	}
}
