{
	 "smiles": "CC(C)C1=CC=C(C=C1)S(=O)(=O)NCCC(O)=O", 
	 "Tm": 473.15, 
	 "num_atms": 35, 
	 "gaussian": { 
		 "optdone": 1, 
		 "sigma_profile": "yes", 
		 "theory": "DFT", 
		 "functional": "B3LYP", 
		 "basiset": "6-31G**", 
		 "properties": { 
			 "R2extent": 7803.6782, 
			 "electric_dipole_moment_norm": 6.24517644987, 
			 "electric_quadrupole_moment_norm": 24.7995992603, 
			 "total_energy": -1221.32181164, 
			 "HOMO_LUMO_gap": 0.21906, 
			 "cosmo_polarized_energy": -19.56, 
			 "cosmo_cavitation_energy": 39.94, 
			 "cosmo_dispersion_energy": -28.08, 
			 "cosmo_repulsion_energy": 2.19, 
			 "cosmo_total_nonelectrostatic_energy": 14.04, 
			 "SMD_solvation_energy": 6.47 
		},
		"coords": [
			{
				"x": -4.9484443363,
				"y": 0.7698276011,
				"z": 0.8227943264,
				"element": "C" 
			},
			{
				"x": -3.7832578439,
				"y": 1.431320539,
				"z": 1.583322754,
				"element": "C" 
			},
			{
				"x": -3.6916050302,
				"y": 2.9349161361,
				"z": 1.2604124059,
				"element": "C" 
			},
			{
				"x": -2.4639704182,
				"y": 0.7169804371,
				"z": 1.3249773447,
				"element": "C" 
			},
			{
				"x": -1.7736419203,
				"y": 0.0950476311,
				"z": 2.3721101957,
				"element": "C" 
			},
			{
				"x": -0.5641789442,
				"y": -0.5675476484,
				"z": 2.1524095591,
				"element": "C" 
			},
			{
				"x": -0.0365312054,
				"y": -0.6029294423,
				"z": 0.8635213289,
				"element": "C" 
			},
			{
				"x": -0.7060612151,
				"y": 0.0025968246,
				"z": -0.2041851625,
				"element": "C" 
			},
			{
				"x": -1.9095195151,
				"y": 0.6572780849,
				"z": 0.0339218196,
				"element": "C" 
			},
			{
				"x": 1.4997937622,
				"y": -1.4742746127,
				"z": 0.5595728817,
				"element": "S" 
			},
			{
				"x": 1.3827884265,
				"y": -2.2409194038,
				"z": -0.684115602,
				"element": "O" 
			},
			{
				"x": 1.8858010725,
				"y": -2.1245841246,
				"z": 1.8198325486,
				"element": "O" 
			},
			{
				"x": 2.5553846134,
				"y": -0.2063916809,
				"z": 0.1864294018,
				"element": "N" 
			},
			{
				"x": 3.2220260203,
				"y": 0.4568785408,
				"z": 1.3166262884,
				"element": "C" 
			},
			{
				"x": 3.9431702233,
				"y": 1.7169786675,
				"z": 0.8361998762,
				"element": "C" 
			},
			{
				"x": 5.0583671377,
				"y": 1.4262286388,
				"z": -0.1446723933,
				"element": "C" 
			},
			{
				"x": 5.861810327,
				"y": 2.4950828495,
				"z": -0.3251067316,
				"element": "O" 
			},
			{
				"x": 5.2296735208,
				"y": 0.3751069562,
				"z": -0.7297527497,
				"element": "O" 
			},
			{
				"x": -5.0365973614,
				"y": -0.291071273,
				"z": 1.0757739615,
				"element": "H" 
			},
			{
				"x": -4.8102857184,
				"y": 0.8443590662,
				"z": -0.2613236245,
				"element": "H" 
			},
			{
				"x": -5.8957830811,
				"y": 1.2601466948,
				"z": 1.0710780124,
				"element": "H" 
			},
			{
				"x": -3.9939919352,
				"y": 1.3367826062,
				"z": 2.6564302091,
				"element": "H" 
			},
			{
				"x": -3.498551977,
				"y": 3.1029258458,
				"z": 0.1952550293,
				"element": "H" 
			},
			{
				"x": -2.8867363534,
				"y": 3.4149023603,
				"z": 1.8257158488,
				"element": "H" 
			},
			{
				"x": -4.6312838138,
				"y": 3.4388721446,
				"z": 1.5103730854,
				"element": "H" 
			},
			{
				"x": -2.1893523194,
				"y": 0.1233109705,
				"z": 3.3760465219,
				"element": "H" 
			},
			{
				"x": -0.0369207069,
				"y": -1.0632481375,
				"z": 2.9601205415,
				"element": "H" 
			},
			{
				"x": -0.2892876665,
				"y": -0.0491768295,
				"z": -1.20437098,
				"element": "H" 
			},
			{
				"x": -2.4279235419,
				"y": 1.1245894638,
				"z": -0.7985051715,
				"element": "H" 
			},
			{
				"x": 3.2332001178,
				"y": -0.5507495017,
				"z": -0.4950907897,
				"element": "H" 
			},
			{
				"x": 3.921091487,
				"y": -0.2130224228,
				"z": 1.8318663255,
				"element": "H" 
			},
			{
				"x": 2.4559471842,
				"y": 0.7491559817,
				"z": 2.0407366907,
				"element": "H" 
			},
			{
				"x": 3.2361996832,
				"y": 2.3933572474,
				"z": 0.3402077138,
				"element": "H" 
			},
			{
				"x": 4.3617056207,
				"y": 2.2674596151,
				"z": 1.6852324335,
				"element": "H" 
			},
			{
				"x": 6.526265707,
				"y": 2.2327101742,
				"z": -0.9850438996,
				"element": "H" 
			}
		],
		 "valence_orbital": [ 
			{
				"type": "occ",
				"energy": -0.29234,
				"method": "rhf"
			},
			{
				"type": "occ",
				"energy": -0.29108,
				"method": "rhf"
			},
			{
				"type": "occ",
				"energy": -0.27486,
				"method": "rhf"
			},
			{
				"type": "occ",
				"energy": -0.26515,
				"method": "rhf"
			},
			{
				"type": "occ",
				"energy": -0.25106,
				"method": "rhf"
			},
			{
				"type": "unocc",
				"energy": -0.032,
				"method": "rhf"
			},
			{
				"type": "unocc",
				"energy": -0.01628,
				"method": "rhf"
			},
			{
				"type": "unocc",
				"energy": -0.00826,
				"method": "rhf"
			},
			{
				"type": "unocc",
				"energy": 0.06406,
				"method": "rhf"
			},
			{
				"type": "unocc",
				"energy": 0.06833,
				"method": "rhf"
			}
		],
		"cosmo_sigma_profile": { 
			"-0.025": 0.0,
			"-0.024": 0.0,
			"-0.023": 0.0,
			"-0.022": 0.0,
			"-0.021": 0.0,
			"-0.02": 0.0,
			"-0.019": 0.090090088853,
			"-0.018": 1.06198478637,
			"-0.017": 0.671333035272,
			"-0.016": 0.727390604187,
			"-0.015": 1.02338211087,
			"-0.014": 1.09124854073,
			"-0.013": 0.408427573361,
			"-0.012": 0.51735530765,
			"-0.011": 1.06081916379,
			"-0.01": 0.698898319375,
			"-0.009": 0.331966507861,
			"-0.008": 1.70272637121,
			"-0.007": 8.44722966221,
			"-0.006": 19.1522334596,
			"-0.005": 21.7988423447,
			"-0.004": 22.2356160258,
			"-0.003": 27.2243058518,
			"-0.002": 26.0799300407,
			"-0.001": 27.858252044,
			"0.0": 23.8934440443,
			"0.001": 28.6335392325,
			"0.002": 15.6101381215,
			"0.003": 17.2626088652,
			"0.004": 10.3676337309,
			"0.005": 5.6220829785,
			"0.006": 5.66848701688,
			"0.007": 5.09809658979,
			"0.008": 6.84464344031,
			"0.009": 6.85911816562,
			"0.01": 8.65961320966,
			"0.011": 11.582632565,
			"0.012": 5.93883752134,
			"0.013": 0.0174740330279,
			"0.014": 0.0,
			"0.015": 0.0,
			"0.016": 0.0,
			"0.017": 0.0,
			"0.018": 0.0,
			"0.019": 0.0,
			"0.02": 0.0,
			"0.021": 0.0,
			"0.022": 0.0,
			"0.023": 0.0,
			"0.024": 0.0,
			"0.025": 0.0
		}
	}
}
