{
	 "smiles": "ClC1=CC(C#N)=C(CS(Cl)(=O)=O)C=C1", 
	 "Tm": 380.15, 
	 "num_atms": 19, 
	 "gaussian": { 
		 "optdone": 1, 
		 "sigma_profile": "yes", 
		 "theory": "DFT", 
		 "functional": "B3LYP", 
		 "basiset": "6-31G**", 
		 "properties": { 
			 "R2extent": 4940.4622, 
			 "electric_dipole_moment_norm": 4.91419234565, 
			 "electric_quadrupole_moment_norm": 8.95705068312, 
			 "total_energy": -1831.55179433, 
			 "HOMO_LUMO_gap": 0.17934, 
			 "cosmo_polarized_energy": -15.48, 
			 "cosmo_cavitation_energy": 30.48, 
			 "cosmo_dispersion_energy": -21.53, 
			 "cosmo_repulsion_energy": 1.66, 
			 "cosmo_total_nonelectrostatic_energy": 10.61, 
			 "SMD_solvation_energy": 4.65 
		},
		"coords": [
			{
				"x": -1.8268212523,
				"y": -2.5699007782,
				"z": 4.5150977133,
				"element": "Cl" 
			},
			{
				"x": -1.1967624247,
				"y": -1.6382336529,
				"z": 3.1781852733,
				"element": "C" 
			},
			{
				"x": -2.0686327818,
				"y": -1.1816980531,
				"z": 2.1941102738,
				"element": "C" 
			},
			{
				"x": -1.560916047,
				"y": -0.4339992309,
				"z": 1.121229194,
				"element": "C" 
			},
			{
				"x": -2.4736275753,
				"y": 0.0447102879,
				"z": 0.1232817161,
				"element": "C" 
			},
			{
				"x": -3.2107969431,
				"y": 0.4514687223,
				"z": -0.6790226267,
				"element": "N" 
			},
			{
				"x": -0.1825295735,
				"y": -0.1337568511,
				"z": 1.0400605844,
				"element": "C" 
			},
			{
				"x": 0.3751868352,
				"y": 0.6594043987,
				"z": -0.1061458223,
				"element": "C" 
			},
			{
				"x": 1.2637537893,
				"y": -0.4503106983,
				"z": -1.2782919886,
				"element": "S" 
			},
			{
				"x": 1.8081617639,
				"y": 0.9936736806,
				"z": -2.7435599914,
				"element": "Cl" 
			},
			{
				"x": 2.4987142589,
				"y": -0.9106681932,
				"z": -0.6526813868,
				"element": "O" 
			},
			{
				"x": 0.3226278112,
				"y": -1.3733340654,
				"z": -1.8959869631,
				"element": "O" 
			},
			{
				"x": 0.6636320276,
				"y": -0.6121149294,
				"z": 2.0468704851,
				"element": "C" 
			},
			{
				"x": 0.16974722,
				"y": -1.3594599388,
				"z": 3.1128885151,
				"element": "C" 
			},
			{
				"x": -3.1284075448,
				"y": -1.398655976,
				"z": 2.2514273515,
				"element": "H" 
			},
			{
				"x": 1.1293923622,
				"y": 1.3847824998,
				"z": 0.20592891,
				"element": "H" 
			},
			{
				"x": -0.394247731,
				"y": 1.1547686175,
				"z": -0.7003756324,
				"element": "H" 
			},
			{
				"x": 1.7276084023,
				"y": -0.4068154549,
				"z": 1.9886116675,
				"element": "H" 
			},
			{
				"x": 0.8360174029,
				"y": -1.7241603846,
				"z": 3.8862727272,
				"element": "H" 
			}
		],
		 "valence_orbital": [ 
			{
				"type": "occ",
				"energy": -0.34304,
				"method": "rhf"
			},
			{
				"type": "occ",
				"energy": -0.34081,
				"method": "rhf"
			},
			{
				"type": "occ",
				"energy": -0.32514,
				"method": "rhf"
			},
			{
				"type": "occ",
				"energy": -0.29922,
				"method": "rhf"
			},
			{
				"type": "occ",
				"energy": -0.28351,
				"method": "rhf"
			},
			{
				"type": "unocc",
				"energy": -0.10417,
				"method": "rhf"
			},
			{
				"type": "unocc",
				"energy": -0.07736,
				"method": "rhf"
			},
			{
				"type": "unocc",
				"energy": -0.05392,
				"method": "rhf"
			},
			{
				"type": "unocc",
				"energy": -0.00559,
				"method": "rhf"
			},
			{
				"type": "unocc",
				"energy": 0.01395,
				"method": "rhf"
			}
		],
		"cosmo_sigma_profile": { 
			"-0.025": 0.0,
			"-0.024": 0.0,
			"-0.023": 0.0,
			"-0.022": 0.0,
			"-0.021": 0.0,
			"-0.02": 0.0,
			"-0.019": 0.0,
			"-0.018": 0.0,
			"-0.017": 0.0,
			"-0.016": 0.0,
			"-0.015": 0.0,
			"-0.014": 0.0,
			"-0.013": 0.0,
			"-0.012": 0.466361332755,
			"-0.011": 2.80870513283,
			"-0.01": 4.81779481083,
			"-0.009": 8.39157277262,
			"-0.008": 10.5564085806,
			"-0.007": 10.0022500631,
			"-0.006": 7.02144267416,
			"-0.005": 7.68201989128,
			"-0.004": 9.29553252073,
			"-0.003": 13.5688397353,
			"-0.002": 18.1531597043,
			"-0.001": 25.7473085326,
			"0.0": 17.6758806339,
			"0.001": 14.2732133574,
			"0.002": 17.9995189602,
			"0.003": 24.7160729628,
			"0.004": 11.9537497259,
			"0.005": 5.70922804402,
			"0.006": 4.78882384573,
			"0.007": 9.55862845073,
			"0.008": 11.9216867347,
			"0.009": 7.39594505178,
			"0.01": 2.28408338847,
			"0.011": 2.57194207835,
			"0.012": 1.70918286128,
			"0.013": 0.106177557585,
			"0.014": 0.0,
			"0.015": 0.0,
			"0.016": 0.0,
			"0.017": 0.0,
			"0.018": 0.0,
			"0.019": 0.0,
			"0.02": 0.0,
			"0.021": 0.0,
			"0.022": 0.0,
			"0.023": 0.0,
			"0.024": 0.0,
			"0.025": 0.0
		}
	}
}
