{
	 "smiles": "ClC1=CC=C(C=C1)S(=O)(=O)N1CCNCC1", 
	 "Tm": 374.15, 
	 "num_atms": 29, 
	 "gaussian": { 
		 "optdone": 1, 
		 "sigma_profile": "yes", 
		 "theory": "DFT", 
		 "functional": "B3LYP", 
		 "basiset": "6-31G**", 
		 "properties": { 
			 "R2extent": 5956.115, 
			 "electric_dipole_moment_norm": 3.14943844201, 
			 "electric_quadrupole_moment_norm": 9.89981669325, 
			 "total_energy": -1507.13898847, 
			 "HOMO_LUMO_gap": 0.17869, 
			 "cosmo_polarized_energy": -14.01, 
			 "cosmo_cavitation_energy": 34.29, 
			 "cosmo_dispersion_energy": -25.25, 
			 "cosmo_repulsion_energy": 1.93, 
			 "cosmo_total_nonelectrostatic_energy": 10.96, 
			 "SMD_solvation_energy": 1.18 
		},
		"coords": [
			{
				"x": 3.529731009,
				"y": -4.860223746,
				"z": -1.1896986026,
				"element": "Cl" 
			},
			{
				"x": 2.3221325656,
				"y": -3.5896422455,
				"z": -1.1425773395,
				"element": "C" 
			},
			{
				"x": 2.6552113103,
				"y": -2.3153702068,
				"z": -1.6108003457,
				"element": "C" 
			},
			{
				"x": 1.6973646203,
				"y": -1.3063486489,
				"z": -1.5712219657,
				"element": "C" 
			},
			{
				"x": 0.4250828081,
				"y": -1.5843949901,
				"z": -1.0647599667,
				"element": "C" 
			},
			{
				"x": 0.0926230307,
				"y": -2.859957714,
				"z": -0.6095367957,
				"element": "C" 
			},
			{
				"x": 1.0507888537,
				"y": -3.8740748221,
				"z": -0.6453989275,
				"element": "C" 
			},
			{
				"x": -0.8083982344,
				"y": -0.2789806958,
				"z": -1.026779055,
				"element": "S" 
			},
			{
				"x": -2.0956958893,
				"y": -0.9231915295,
				"z": -0.7305927285,
				"element": "O" 
			},
			{
				"x": -0.6363801957,
				"y": 0.5457942681,
				"z": -2.2279602914,
				"element": "O" 
			},
			{
				"x": -0.3010900493,
				"y": 0.6538291388,
				"z": 0.2838923333,
				"element": "N" 
			},
			{
				"x": -0.2791736025,
				"y": 2.1274787784,
				"z": 0.1317965139,
				"element": "C" 
			},
			{
				"x": -1.3436294365,
				"y": 2.7919563846,
				"z": 1.0021433535,
				"element": "C" 
			},
			{
				"x": -1.1060327198,
				"y": 2.4870172219,
				"z": 2.4255985026,
				"element": "N" 
			},
			{
				"x": -0.3871333845,
				"y": 1.2291517403,
				"z": 2.6559789052,
				"element": "C" 
			},
			{
				"x": -0.6927218915,
				"y": 0.1432480938,
				"z": 1.6172619802,
				"element": "C" 
			},
			{
				"x": 3.6473603981,
				"y": -2.1230442551,
				"z": -2.0031415961,
				"element": "H" 
			},
			{
				"x": 1.9295288658,
				"y": -0.3140884911,
				"z": -1.9425284234,
				"element": "H" 
			},
			{
				"x": -0.9104780813,
				"y": -3.0553185215,
				"z": -0.2472068371,
				"element": "H" 
			},
			{
				"x": 0.8127535224,
				"y": -4.8731232076,
				"z": -0.2981916393,
				"element": "H" 
			},
			{
				"x": 0.7156271668,
				"y": 2.492138819,
				"z": 0.4147385754,
				"element": "H" 
			},
			{
				"x": -0.4334579631,
				"y": 2.3695362053,
				"z": -0.9195672853,
				"element": "H" 
			},
			{
				"x": -1.3035050584,
				"y": 3.8781375085,
				"z": 0.8461884369,
				"element": "H" 
			},
			{
				"x": -2.3324258824,
				"y": 2.4524099483,
				"z": 0.6554659208,
				"element": "H" 
			},
			{
				"x": -1.9911812476,
				"y": 2.4712624435,
				"z": 2.920247991,
				"element": "H" 
			},
			{
				"x": -0.6419118033,
				"y": 0.854141424,
				"z": 3.651693141,
				"element": "H" 
			},
			{
				"x": 0.6945441048,
				"y": 1.4168487014,
				"z": 2.6623927115,
				"element": "H" 
			},
			{
				"x": -0.1226848376,
				"y": -0.7685489548,
				"z": 1.8348951267,
				"element": "H" 
			},
			{
				"x": -1.7596479783,
				"y": -0.112142647,
				"z": 1.6410683072,
				"element": "H" 
			}
		],
		 "valence_orbital": [ 
			{
				"type": "occ",
				"energy": -0.30273,
				"method": "rhf"
			},
			{
				"type": "occ",
				"energy": -0.28216,
				"method": "rhf"
			},
			{
				"type": "occ",
				"energy": -0.27138,
				"method": "rhf"
			},
			{
				"type": "occ",
				"energy": -0.24589,
				"method": "rhf"
			},
			{
				"type": "occ",
				"energy": -0.22539,
				"method": "rhf"
			},
			{
				"type": "unocc",
				"energy": -0.0467,
				"method": "rhf"
			},
			{
				"type": "unocc",
				"energy": -0.0316,
				"method": "rhf"
			},
			{
				"type": "unocc",
				"energy": 0.01696,
				"method": "rhf"
			},
			{
				"type": "unocc",
				"energy": 0.05764,
				"method": "rhf"
			},
			{
				"type": "unocc",
				"energy": 0.06633,
				"method": "rhf"
			}
		],
		"cosmo_sigma_profile": { 
			"-0.025": 0.0,
			"-0.024": 0.0,
			"-0.023": 0.0,
			"-0.022": 0.0,
			"-0.021": 0.0,
			"-0.02": 0.0,
			"-0.019": 0.0,
			"-0.018": 0.0,
			"-0.017": 0.0,
			"-0.016": 0.0,
			"-0.015": 0.0,
			"-0.014": 0.0,
			"-0.013": 0.0,
			"-0.012": 0.0,
			"-0.011": 0.305703437047,
			"-0.01": 1.24691636234,
			"-0.009": 1.94065246076,
			"-0.008": 6.76327030747,
			"-0.007": 8.75532856576,
			"-0.006": 9.32085289049,
			"-0.005": 14.6657415015,
			"-0.004": 28.0114572792,
			"-0.003": 28.6046335783,
			"-0.002": 24.1329028739,
			"-0.001": 18.4978805441,
			"0.0": 20.1217831557,
			"0.001": 25.9051975582,
			"0.002": 16.8863031873,
			"0.003": 13.0897022735,
			"0.004": 13.8198214295,
			"0.005": 4.45645972535,
			"0.006": 3.16338706084,
			"0.007": 3.70404359315,
			"0.008": 4.73610335588,
			"0.009": 3.61814915602,
			"0.01": 7.398767756,
			"0.011": 7.99526920341,
			"0.012": 3.58479855731,
			"0.013": 0.00159785679811,
			"0.014": 0.275488067527,
			"0.015": 1.33483870184,
			"0.016": 0.320001687115,
			"0.017": 0.568181986323,
			"0.018": 0.311073261897,
			"0.019": 0.0591775652972,
			"0.02": 0.0,
			"0.021": 0.0,
			"0.022": 0.0,
			"0.023": 0.0,
			"0.024": 0.0,
			"0.025": 0.0
		}
	}
}
