{
	 "smiles": "COCCOC1=C(C=CC=N1)C(O)=O", 
	 "Tm": 332.15, 
	 "num_atms": 25, 
	 "gaussian": { 
		 "optdone": 1, 
		 "sigma_profile": "yes", 
		 "theory": "DFT", 
		 "functional": "B3LYP", 
		 "basiset": "6-31G**", 
		 "properties": { 
			 "R2extent": 3353.5571, 
			 "electric_dipole_moment_norm": 5.99909832642, 
			 "electric_quadrupole_moment_norm": 19.1624080303, 
			 "total_energy": -705.226010991, 
			 "HOMO_LUMO_gap": 0.19786, 
			 "cosmo_polarized_energy": -14.74, 
			 "cosmo_cavitation_energy": 29.33, 
			 "cosmo_dispersion_energy": -20.99, 
			 "cosmo_repulsion_energy": 1.66, 
			 "cosmo_total_nonelectrostatic_energy": 10.0, 
			 "SMD_solvation_energy": 6.11 
		},
		"coords": [
			{
				"x": -3.0215512032,
				"y": 1.777089039,
				"z": -1.220685583,
				"element": "C" 
			},
			{
				"x": -2.9085360575,
				"y": 1.4221629444,
				"z": 0.1460025219,
				"element": "O" 
			},
			{
				"x": -2.9512855797,
				"y": 0.0323709012,
				"z": 0.3990246217,
				"element": "C" 
			},
			{
				"x": -1.667760123,
				"y": -0.699560913,
				"z": 0.0295561314,
				"element": "C" 
			},
			{
				"x": -0.6057489676,
				"y": -0.0357800182,
				"z": 0.735650083,
				"element": "O" 
			},
			{
				"x": 0.6627514921,
				"y": -0.5125001173,
				"z": 0.6299695639,
				"element": "C" 
			},
			{
				"x": 1.6962861624,
				"y": 0.2732051969,
				"z": 1.1901260076,
				"element": "C" 
			},
			{
				"x": 2.9847081165,
				"y": -0.2554064052,
				"z": 1.106990751,
				"element": "C" 
			},
			{
				"x": 3.2019435409,
				"y": -1.4839208273,
				"z": 0.4836758893,
				"element": "C" 
			},
			{
				"x": 2.101825621,
				"y": -2.1484634837,
				"z": -0.0487617593,
				"element": "C" 
			},
			{
				"x": 0.8480561271,
				"y": -1.6756671495,
				"z": 0.0220925291,
				"element": "N" 
			},
			{
				"x": 1.5356134582,
				"y": 1.6230951777,
				"z": 1.8432221109,
				"element": "C" 
			},
			{
				"x": 0.3201169997,
				"y": 2.1926316203,
				"z": 1.8319324395,
				"element": "O" 
			},
			{
				"x": 2.4824566025,
				"y": 2.1870195545,
				"z": 2.3498762826,
				"element": "O" 
			},
			{
				"x": -2.1606147419,
				"y": 1.4455730436,
				"z": -1.818737051,
				"element": "H" 
			},
			{
				"x": -3.0690891072,
				"y": 2.8673141507,
				"z": -1.2601008687,
				"element": "H" 
			},
			{
				"x": -3.9377897014,
				"y": 1.3633793363,
				"z": -1.6691898299,
				"element": "H" 
			},
			{
				"x": -3.1262541752,
				"y": -0.0695126812,
				"z": 1.4747218715,
				"element": "H" 
			},
			{
				"x": -3.7898911966,
				"y": -0.4484503041,
				"z": -0.1313455955,
				"element": "H" 
			},
			{
				"x": -1.7206330739,
				"y": -1.7498449353,
				"z": 0.3311017228,
				"element": "H" 
			},
			{
				"x": -1.456402797,
				"y": -0.6715564436,
				"z": -1.0443098156,
				"element": "H" 
			},
			{
				"x": 3.7939033115,
				"y": 0.326468432,
				"z": 1.5356143396,
				"element": "H" 
			},
			{
				"x": 4.1960136518,
				"y": -1.9101087401,
				"z": 0.4060043506,
				"element": "H" 
			},
			{
				"x": 2.2187427226,
				"y": -3.1036287975,
				"z": -0.5565215017,
				"element": "H" 
			},
			{
				"x": -0.3347610822,
				"y": 1.6143914194,
				"z": 1.3949907882,
				"element": "H" 
			}
		],
		 "valence_orbital": [ 
			{
				"type": "occ",
				"energy": -0.29255,
				"method": "rhf"
			},
			{
				"type": "occ",
				"energy": -0.29146,
				"method": "rhf"
			},
			{
				"type": "occ",
				"energy": -0.2735,
				"method": "rhf"
			},
			{
				"type": "occ",
				"energy": -0.26092,
				"method": "rhf"
			},
			{
				"type": "occ",
				"energy": -0.254,
				"method": "rhf"
			},
			{
				"type": "unocc",
				"energy": -0.05614,
				"method": "rhf"
			},
			{
				"type": "unocc",
				"energy": -0.02077,
				"method": "rhf"
			},
			{
				"type": "unocc",
				"energy": 0.05144,
				"method": "rhf"
			},
			{
				"type": "unocc",
				"energy": 0.06799,
				"method": "rhf"
			},
			{
				"type": "unocc",
				"energy": 0.09468,
				"method": "rhf"
			}
		],
		"cosmo_sigma_profile": { 
			"-0.025": 0.0,
			"-0.024": 0.0,
			"-0.023": 0.0,
			"-0.022": 0.0,
			"-0.021": 0.0,
			"-0.02": 0.0,
			"-0.019": 0.0,
			"-0.018": 0.0,
			"-0.017": 0.0,
			"-0.016": 0.0,
			"-0.015": 0.0,
			"-0.014": 0.0,
			"-0.013": 0.0,
			"-0.012": 0.0,
			"-0.011": 0.0,
			"-0.01": 0.0,
			"-0.009": 0.0,
			"-0.008": 1.22290917166,
			"-0.007": 7.29804311567,
			"-0.006": 17.1277864973,
			"-0.005": 23.6599264885,
			"-0.004": 21.6454068233,
			"-0.003": 20.7287189674,
			"-0.002": 22.153812325,
			"-0.001": 18.7566248293,
			"0.0": 16.8251223,
			"0.001": 16.6228424453,
			"0.002": 10.4318688036,
			"0.003": 5.96049857685,
			"0.004": 5.69160266524,
			"0.005": 3.88803132122,
			"0.006": 4.85688112186,
			"0.007": 5.24464010644,
			"0.008": 4.19075246808,
			"0.009": 4.1927346769,
			"0.01": 5.66898387924,
			"0.011": 7.03707296965,
			"0.012": 6.59678907955,
			"0.013": 2.92608549861,
			"0.014": 0.403537819265,
			"0.015": 0.0,
			"0.016": 0.0,
			"0.017": 0.0,
			"0.018": 0.0,
			"0.019": 0.0,
			"0.02": 0.0,
			"0.021": 0.0,
			"0.022": 0.0,
			"0.023": 0.0,
			"0.024": 0.0,
			"0.025": 0.0
		}
	}
}
