{
	 "smiles": "CCN(CC)C(N)=S", 
	 "Tm": 373.15, 
	 "num_atms": 20, 
	 "gaussian": { 
		 "optdone": 1, 
		 "sigma_profile": "yes", 
		 "theory": "DFT", 
		 "functional": "B3LYP", 
		 "basiset": "6-31G**", 
		 "properties": { 
			 "R2extent": 1553.9384, 
			 "electric_dipole_moment_norm": 5.5521608271, 
			 "electric_quadrupole_moment_norm": 14.371540543, 
			 "total_energy": -705.474436805, 
			 "HOMO_LUMO_gap": 0.19828, 
			 "cosmo_polarized_energy": -15.97, 
			 "cosmo_cavitation_energy": 23.2, 
			 "cosmo_dispersion_energy": -17.37, 
			 "cosmo_repulsion_energy": 1.4, 
			 "cosmo_total_nonelectrostatic_energy": 7.22, 
			 "SMD_solvation_energy": 3.2 
		},
		"coords": [
			{
				"x": -1.1163858762,
				"y": 1.4145486433,
				"z": 1.6465927328,
				"element": "C" 
			},
			{
				"x": -1.1640281227,
				"y": 1.4948920015,
				"z": 0.1186643512,
				"element": "C" 
			},
			{
				"x": -0.1575246939,
				"y": 0.6587100816,
				"z": -0.5566352834,
				"element": "N" 
			},
			{
				"x": -0.5664970097,
				"y": -0.6743654368,
				"z": -1.0174911581,
				"element": "C" 
			},
			{
				"x": -0.2994459953,
				"y": -1.8131488762,
				"z": -0.0220203863,
				"element": "C" 
			},
			{
				"x": 1.0970651929,
				"y": 1.1413962793,
				"z": -0.7803762696,
				"element": "C" 
			},
			{
				"x": 1.9804383473,
				"y": 0.2816091808,
				"z": -1.3908414994,
				"element": "N" 
			},
			{
				"x": 1.601358922,
				"y": 2.7133829156,
				"z": -0.4144589364,
				"element": "S" 
			},
			{
				"x": -1.3081279433,
				"y": 0.4002021003,
				"z": 2.0104145721,
				"element": "H" 
			},
			{
				"x": -0.1393610387,
				"y": 1.741411845,
				"z": 2.010553135,
				"element": "H" 
			},
			{
				"x": -1.8776393655,
				"y": 2.0753586801,
				"z": 2.0747791249,
				"element": "H" 
			},
			{
				"x": -0.9989947208,
				"y": 2.5260943753,
				"z": -0.1991591576,
				"element": "H" 
			},
			{
				"x": -2.1441188815,
				"y": 1.1760382377,
				"z": -0.251006769,
				"element": "H" 
			},
			{
				"x": -1.6379929208,
				"y": -0.627745093,
				"z": -1.2331727664,
				"element": "H" 
			},
			{
				"x": -0.0723055047,
				"y": -0.8763856013,
				"z": -1.9733641662,
				"element": "H" 
			},
			{
				"x": 0.7601961812,
				"y": -1.8857703261,
				"z": 0.2452883904,
				"element": "H" 
			},
			{
				"x": -0.8600855072,
				"y": -1.6675551551,
				"z": 0.9049301427,
				"element": "H" 
			},
			{
				"x": -0.6045098021,
				"y": -2.7708902761,
				"z": -0.4568062244,
				"element": "H" 
			},
			{
				"x": 2.9218506142,
				"y": 0.6415483189,
				"z": -1.4361357489,
				"element": "H" 
			},
			{
				"x": 1.900008125,
				"y": -0.7159318948,
				"z": -1.2584540833,
				"element": "H" 
			}
		],
		 "valence_orbital": [ 
			{
				"type": "occ",
				"energy": -0.35032,
				"method": "rhf"
			},
			{
				"type": "occ",
				"energy": -0.34198,
				"method": "rhf"
			},
			{
				"type": "occ",
				"energy": -0.25949,
				"method": "rhf"
			},
			{
				"type": "occ",
				"energy": -0.2043,
				"method": "rhf"
			},
			{
				"type": "occ",
				"energy": -0.19498,
				"method": "rhf"
			},
			{
				"type": "unocc",
				"energy": 0.0033,
				"method": "rhf"
			},
			{
				"type": "unocc",
				"energy": 0.06037,
				"method": "rhf"
			},
			{
				"type": "unocc",
				"energy": 0.08674,
				"method": "rhf"
			},
			{
				"type": "unocc",
				"energy": 0.09493,
				"method": "rhf"
			},
			{
				"type": "unocc",
				"energy": 0.11034,
				"method": "rhf"
			}
		],
		"cosmo_sigma_profile": { 
			"-0.025": 0.0,
			"-0.024": 0.0,
			"-0.023": 0.0,
			"-0.022": 0.0,
			"-0.021": 0.0,
			"-0.02": 0.0,
			"-0.019": 0.0,
			"-0.018": 0.0,
			"-0.017": 0.0,
			"-0.016": 0.0,
			"-0.015": 0.0,
			"-0.014": 0.444333123027,
			"-0.013": 2.07664838005,
			"-0.012": 1.93329519553,
			"-0.011": 3.21552052908,
			"-0.01": 2.79673471006,
			"-0.009": 1.21656622836,
			"-0.008": 2.42439288557,
			"-0.007": 3.76996464733,
			"-0.006": 5.82615698237,
			"-0.005": 9.65761824282,
			"-0.004": 15.8363750136,
			"-0.003": 17.7522490188,
			"-0.002": 18.0508020296,
			"-0.001": 16.2820856255,
			"0.0": 16.1779442338,
			"0.001": 12.1523025837,
			"0.002": 5.19038367343,
			"0.003": 2.96448275944,
			"0.004": 3.61441900542,
			"0.005": 4.11558534432,
			"0.006": 5.15675075196,
			"0.007": 4.43699198706,
			"0.008": 5.04206188984,
			"0.009": 4.26171276208,
			"0.01": 4.62167021156,
			"0.011": 6.47196182846,
			"0.012": 6.27597986378,
			"0.013": 1.96689907255,
			"0.014": 0.0,
			"0.015": 0.0,
			"0.016": 0.0,
			"0.017": 0.0,
			"0.018": 0.0,
			"0.019": 0.0,
			"0.02": 0.0,
			"0.021": 0.0,
			"0.022": 0.0,
			"0.023": 0.0,
			"0.024": 0.0,
			"0.025": 0.0
		}
	}
}
