{
	 "smiles": "NC1=CC(CS(=O)(=O)CC2=CC=CC=C2)=CC=C1", 
	 "Tm": 394.15, 
	 "num_atms": 33, 
	 "gaussian": { 
		 "optdone": 1, 
		 "sigma_profile": "yes", 
		 "theory": "DFT", 
		 "functional": "B3LYP", 
		 "basiset": "6-31G**", 
		 "properties": { 
			 "R2extent": 4762.4974, 
			 "electric_dipole_moment_norm": 6.15141319861, 
			 "electric_quadrupole_moment_norm": 12.8369578032, 
			 "total_energy": -1145.86296093, 
			 "HOMO_LUMO_gap": 0.18717, 
			 "cosmo_polarized_energy": -22.38, 
			 "cosmo_cavitation_energy": 37.48, 
			 "cosmo_dispersion_energy": -25.35, 
			 "cosmo_repulsion_energy": 1.93, 
			 "cosmo_total_nonelectrostatic_energy": 14.06, 
			 "SMD_solvation_energy": 5.15 
		},
		"coords": [
			{
				"x": -0.5831123681,
				"y": 2.7345986147,
				"z": 3.1589020219,
				"element": "N" 
			},
			{
				"x": -0.0075165061,
				"y": 1.5653313942,
				"z": 2.6598163282,
				"element": "C" 
			},
			{
				"x": 0.9937710912,
				"y": 1.6233962761,
				"z": 1.6758096008,
				"element": "C" 
			},
			{
				"x": 1.6282522809,
				"y": 0.4627114936,
				"z": 1.2206025509,
				"element": "C" 
			},
			{
				"x": 2.722128695,
				"y": 0.5836480488,
				"z": 0.1939649773,
				"element": "C" 
			},
			{
				"x": 2.4635966231,
				"y": -0.262548271,
				"z": -1.4174492327,
				"element": "S" 
			},
			{
				"x": 3.5320074488,
				"y": 0.2363414833,
				"z": -2.3024704844,
				"element": "O" 
			},
			{
				"x": 2.3226521731,
				"y": -1.708662986,
				"z": -1.1728772878,
				"element": "O" 
			},
			{
				"x": 0.8869551567,
				"y": 0.3884457776,
				"z": -2.1296647519,
				"element": "C" 
			},
			{
				"x": -0.3923625135,
				"y": -0.2584681592,
				"z": -1.6775551292,
				"element": "C" 
			},
			{
				"x": -1.3407523961,
				"y": 0.4711951311,
				"z": -0.9501251331,
				"element": "C" 
			},
			{
				"x": -2.5494285476,
				"y": -0.1128125486,
				"z": -0.5709473046,
				"element": "C" 
			},
			{
				"x": -2.8227055955,
				"y": -1.4377142949,
				"z": -0.9128627805,
				"element": "C" 
			},
			{
				"x": -1.8814487645,
				"y": -2.17408655,
				"z": -1.6358641652,
				"element": "C" 
			},
			{
				"x": -0.6760124889,
				"y": -1.5891037159,
				"z": -2.0194551388,
				"element": "C" 
			},
			{
				"x": 1.263766562,
				"y": -0.7837857084,
				"z": 1.747128298,
				"element": "C" 
			},
			{
				"x": 0.2619320232,
				"y": -0.8449386076,
				"z": 2.7149075907,
				"element": "C" 
			},
			{
				"x": -0.3703576773,
				"y": 0.3086288571,
				"z": 3.1723236264,
				"element": "C" 
			},
			{
				"x": -0.5480431874,
				"y": 3.5355116639,
				"z": 2.5438970378,
				"element": "H" 
			},
			{
				"x": -1.4926150233,
				"y": 2.6217302777,
				"z": 3.5843815853,
				"element": "H" 
			},
			{
				"x": 1.2927466431,
				"y": 2.5922533763,
				"z": 1.2800381496,
				"element": "H" 
			},
			{
				"x": 2.9380270262,
				"y": 1.62297051,
				"z": -0.0646102313,
				"element": "H" 
			},
			{
				"x": 3.656488907,
				"y": 0.1173893257,
				"z": 0.525109426,
				"element": "H" 
			},
			{
				"x": 1.0764303719,
				"y": 0.2279268423,
				"z": -3.1959815265,
				"element": "H" 
			},
			{
				"x": 0.9025464653,
				"y": 1.466734168,
				"z": -1.9491717823,
				"element": "H" 
			},
			{
				"x": -1.1290780594,
				"y": 1.5007565324,
				"z": -0.6755584617,
				"element": "H" 
			},
			{
				"x": -3.2762935114,
				"y": 0.4672284206,
				"z": -0.0096202816,
				"element": "H" 
			},
			{
				"x": -3.7638211724,
				"y": -1.8939968847,
				"z": -0.6194923187,
				"element": "H" 
			},
			{
				"x": -2.0873479567,
				"y": -3.2060227695,
				"z": -1.9049618558,
				"element": "H" 
			},
			{
				"x": 0.0576262795,
				"y": -2.1668934453,
				"z": -2.5718721613,
				"element": "H" 
			},
			{
				"x": 1.7421208237,
				"y": -1.6863120433,
				"z": 1.3839446517,
				"element": "H" 
			},
			{
				"x": -0.0326855906,
				"y": -1.8080183934,
				"z": 3.121879385,
				"element": "H" 
			},
			{
				"x": -1.141767212,
				"y": 0.2436661845,
				"z": 3.9357347977,
				"element": "H" 
			}
		],
		 "valence_orbital": [ 
			{
				"type": "occ",
				"energy": -0.28585,
				"method": "rhf"
			},
			{
				"type": "occ",
				"energy": -0.25685,
				"method": "rhf"
			},
			{
				"type": "occ",
				"energy": -0.25161,
				"method": "rhf"
			},
			{
				"type": "occ",
				"energy": -0.23897,
				"method": "rhf"
			},
			{
				"type": "occ",
				"energy": -0.20944,
				"method": "rhf"
			},
			{
				"type": "unocc",
				"energy": -0.02227,
				"method": "rhf"
			},
			{
				"type": "unocc",
				"energy": -0.00655,
				"method": "rhf"
			},
			{
				"type": "unocc",
				"energy": -0.00381,
				"method": "rhf"
			},
			{
				"type": "unocc",
				"energy": 0.0062,
				"method": "rhf"
			},
			{
				"type": "unocc",
				"energy": 0.06284,
				"method": "rhf"
			}
		],
		"cosmo_sigma_profile": { 
			"-0.025": 0.0,
			"-0.024": 0.0,
			"-0.023": 0.0,
			"-0.022": 0.0,
			"-0.021": 0.0,
			"-0.02": 0.0,
			"-0.019": 0.0,
			"-0.018": 0.0,
			"-0.017": 0.0,
			"-0.016": 0.0,
			"-0.015": 0.0,
			"-0.014": 0.0,
			"-0.013": 0.325723329486,
			"-0.012": 2.42634448485,
			"-0.011": 3.63149402877,
			"-0.01": 3.9268971653,
			"-0.009": 6.52386401786,
			"-0.008": 10.5961196121,
			"-0.007": 11.8948514159,
			"-0.006": 17.5357895986,
			"-0.005": 21.6464191256,
			"-0.004": 24.2456778355,
			"-0.003": 19.9627645511,
			"-0.002": 16.398323408,
			"-0.001": 12.8526494435,
			"0.0": 13.8805261962,
			"0.001": 11.6809975026,
			"0.002": 13.1503831506,
			"0.003": 14.2087966582,
			"0.004": 15.4993455352,
			"0.005": 18.0113845781,
			"0.006": 16.0083565108,
			"0.007": 7.48518258567,
			"0.008": 4.969461159,
			"0.009": 5.00374910016,
			"0.01": 4.35159723227,
			"0.011": 7.58703487447,
			"0.012": 9.92913287497,
			"0.013": 2.90767769607,
			"0.014": 0.502838534713,
			"0.015": 0.0940684573493,
			"0.016": 0.0,
			"0.017": 0.0,
			"0.018": 0.0,
			"0.019": 0.0,
			"0.02": 0.0,
			"0.021": 0.0,
			"0.022": 0.0,
			"0.023": 0.0,
			"0.024": 0.0,
			"0.025": 0.0
		}
	}
}
