{
	 "smiles": "CC1=CC(=CC(Cl)=C1)N(=O)=O", 
	 "Tm": 334.15, 
	 "num_atms": 17, 
	 "gaussian": { 
		 "optdone": 1, 
		 "sigma_profile": "yes", 
		 "theory": "DFT", 
		 "functional": "B3LYP", 
		 "basiset": "6-31G**", 
		 "properties": { 
			 "R2extent": 2498.1654, 
			 "electric_dipole_moment_norm": 4.31800179365, 
			 "electric_quadrupole_moment_norm": 6.05384005157, 
			 "total_energy": -935.658719044, 
			 "HOMO_LUMO_gap": 0.17247, 
			 "cosmo_polarized_energy": -7.51, 
			 "cosmo_cavitation_energy": 23.86, 
			 "cosmo_dispersion_energy": -17.61, 
			 "cosmo_repulsion_energy": 1.42, 
			 "cosmo_total_nonelectrostatic_energy": 7.67, 
			 "SMD_solvation_energy": 6.21 
		},
		"coords": [
			{
				"x": 2.9258126495,
				"y": 0.4871370484,
				"z": -1.2776736608,
				"element": "C" 
			},
			{
				"x": 1.6202275107,
				"y": 0.7165234701,
				"z": -0.5540429035,
				"element": "C" 
			},
			{
				"x": 0.4389165399,
				"y": 0.1123718312,
				"z": -0.9954159932,
				"element": "C" 
			},
			{
				"x": -0.7415818067,
				"y": 0.3252741148,
				"z": -0.2891317121,
				"element": "C" 
			},
			{
				"x": -0.8083934129,
				"y": 1.1225781539,
				"z": 0.8496081279,
				"element": "C" 
			},
			{
				"x": 0.3749883371,
				"y": 1.7190172122,
				"z": 1.2747913722,
				"element": "C" 
			},
			{
				"x": 0.3542563305,
				"y": 2.7394786709,
				"z": 2.7005549666,
				"element": "Cl" 
			},
			{
				"x": 1.5752781932,
				"y": 1.5263595149,
				"z": 0.5899710633,
				"element": "C" 
			},
			{
				"x": -1.9814426805,
				"y": -0.3166594498,
				"z": -0.7667332663,
				"element": "N" 
			},
			{
				"x": -1.9075326944,
				"y": -1.0142353952,
				"z": -1.7768217838,
				"element": "O" 
			},
			{
				"x": -3.0105919882,
				"y": -0.1146203305,
				"z": -0.1250062508,
				"element": "O" 
			},
			{
				"x": 3.5300489838,
				"y": 1.3985673257,
				"z": -1.308551435,
				"element": "H" 
			},
			{
				"x": 3.5216146746,
				"y": -0.2830593314,
				"z": -0.773506575,
				"element": "H" 
			},
			{
				"x": 2.7571602547,
				"y": 0.1539939759,
				"z": -2.3047487353,
				"element": "H" 
			},
			{
				"x": 0.4198283417,
				"y": -0.5175130766,
				"z": -1.8761927894,
				"element": "H" 
			},
			{
				"x": -1.7473047272,
				"y": 1.2645346948,
				"z": 1.3672268746,
				"element": "H" 
			},
			{
				"x": 2.476915494,
				"y": 2.0112515705,
				"z": 0.9500727007,
				"element": "H" 
			}
		],
		 "valence_orbital": [ 
			{
				"type": "occ",
				"energy": -0.31583,
				"method": "rhf"
			},
			{
				"type": "occ",
				"energy": -0.31241,
				"method": "rhf"
			},
			{
				"type": "occ",
				"energy": -0.2973,
				"method": "rhf"
			},
			{
				"type": "occ",
				"energy": -0.28457,
				"method": "rhf"
			},
			{
				"type": "occ",
				"energy": -0.26865,
				"method": "rhf"
			},
			{
				"type": "unocc",
				"energy": -0.09618,
				"method": "rhf"
			},
			{
				"type": "unocc",
				"energy": -0.03557,
				"method": "rhf"
			},
			{
				"type": "unocc",
				"energy": -0.00979,
				"method": "rhf"
			},
			{
				"type": "unocc",
				"energy": 0.01276,
				"method": "rhf"
			},
			{
				"type": "unocc",
				"energy": 0.0879,
				"method": "rhf"
			}
		],
		"cosmo_sigma_profile": { 
			"-0.025": 0.0,
			"-0.024": 0.0,
			"-0.023": 0.0,
			"-0.022": 0.0,
			"-0.021": 0.0,
			"-0.02": 0.0,
			"-0.019": 0.0,
			"-0.018": 0.0,
			"-0.017": 0.0,
			"-0.016": 0.0,
			"-0.015": 0.0,
			"-0.014": 0.0,
			"-0.013": 0.0,
			"-0.012": 0.0,
			"-0.011": 0.0,
			"-0.01": 0.0,
			"-0.009": 0.126340368128,
			"-0.008": 2.59537446595,
			"-0.007": 5.60287609312,
			"-0.006": 8.2236938877,
			"-0.005": 11.4446399607,
			"-0.004": 13.4284246024,
			"-0.003": 13.8629602332,
			"-0.002": 18.7110176447,
			"-0.001": 21.5446749948,
			"0.0": 24.0213567693,
			"0.001": 14.9816604347,
			"0.002": 8.25193695466,
			"0.003": 9.80868712744,
			"0.004": 11.9992902824,
			"0.005": 3.20966085281,
			"0.006": 4.2912099053,
			"0.007": 9.18950408704,
			"0.008": 6.22020029825,
			"0.009": 4.07781819576,
			"0.01": 1.82427330773,
			"0.011": 0.00325921188718,
			"0.012": 0.0,
			"0.013": 0.0,
			"0.014": 0.0,
			"0.015": 0.0,
			"0.016": 0.0,
			"0.017": 0.0,
			"0.018": 0.0,
			"0.019": 0.0,
			"0.02": 0.0,
			"0.021": 0.0,
			"0.022": 0.0,
			"0.023": 0.0,
			"0.024": 0.0,
			"0.025": 0.0
		}
	}
}
