{
	 "smiles": "COC(=O)CBr", 
	 "Tm": 223.15, 
	 "num_atms": 11, 
	 "gaussian": { 
		 "optdone": 1, 
		 "sigma_profile": "yes", 
		 "theory": "DFT", 
		 "functional": "B3LYP", 
		 "basiset": "6-31G**", 
		 "properties": { 
			 "R2extent": 1833.7109, 
			 "electric_dipole_moment_norm": 3.26559554446, 
			 "electric_quadrupole_moment_norm": 1.65421487722, 
			 "total_energy": -2839.1841589, 
			 "HOMO_LUMO_gap": 0.27514, 
			 "cosmo_polarized_energy": -8.95, 
			 "cosmo_cavitation_energy": 17.54, 
			 "cosmo_dispersion_energy": -13.51, 
			 "cosmo_repulsion_energy": 1.19, 
			 "cosmo_total_nonelectrostatic_energy": 5.22, 
			 "SMD_solvation_energy": 3.75 
		},
		"coords": [
			{
				"x": -1.0973380474,
				"y": -0.994623354,
				"z": -1.5201056087,
				"element": "C" 
			},
			{
				"x": -0.1964781872,
				"y": 0.128708406,
				"z": -1.5014343902,
				"element": "O" 
			},
			{
				"x": 0.2777781176,
				"y": 0.4652300838,
				"z": -0.2819987816,
				"element": "C" 
			},
			{
				"x": -0.0037515284,
				"y": -0.1029686328,
				"z": 0.74298221,
				"element": "O" 
			},
			{
				"x": 1.2046128015,
				"y": 1.6611572005,
				"z": -0.4531355701,
				"element": "C" 
			},
			{
				"x": 1.9783054209,
				"y": 2.2733598882,
				"z": 1.2271401435,
				"element": "Br" 
			},
			{
				"x": -0.6002859253,
				"y": -1.8896853259,
				"z": -1.1386070448,
				"element": "H" 
			},
			{
				"x": -1.3789747022,
				"y": -1.1267782968,
				"z": -2.5643289463,
				"element": "H" 
			},
			{
				"x": -1.9775902129,
				"y": -0.7890174741,
				"z": -0.9064163785,
				"element": "H" 
			},
			{
				"x": 0.6549390836,
				"y": 2.4954598054,
				"z": -0.889695155,
				"element": "H" 
			},
			{
				"x": 2.0253831799,
				"y": 1.4001576996,
				"z": -1.1217004784,
				"element": "H" 
			}
		],
		 "valence_orbital": [ 
			{
				"type": "occ",
				"energy": -0.3714,
				"method": "rhf"
			},
			{
				"type": "occ",
				"energy": -0.3156,
				"method": "rhf"
			},
			{
				"type": "occ",
				"energy": -0.28784,
				"method": "rhf"
			},
			{
				"type": "occ",
				"energy": -0.27919,
				"method": "rhf"
			},
			{
				"type": "occ",
				"energy": -0.27788,
				"method": "rhf"
			},
			{
				"type": "unocc",
				"energy": -0.00274,
				"method": "rhf"
			},
			{
				"type": "unocc",
				"energy": -0.0015,
				"method": "rhf"
			},
			{
				"type": "unocc",
				"energy": 0.09627,
				"method": "rhf"
			},
			{
				"type": "unocc",
				"energy": 0.11189,
				"method": "rhf"
			},
			{
				"type": "unocc",
				"energy": 0.12792,
				"method": "rhf"
			}
		],
		"cosmo_sigma_profile": { 
			"-0.025": 0.0,
			"-0.024": 0.0,
			"-0.023": 0.0,
			"-0.022": 0.0,
			"-0.021": 0.0,
			"-0.02": 0.0,
			"-0.019": 0.0,
			"-0.018": 0.0,
			"-0.017": 0.0,
			"-0.016": 0.0,
			"-0.015": 0.0,
			"-0.014": 0.0,
			"-0.013": 0.0,
			"-0.012": 0.0,
			"-0.011": 0.0,
			"-0.01": 1.54971915508,
			"-0.009": 4.8140164479,
			"-0.008": 3.81613926954,
			"-0.007": 5.39993931643,
			"-0.006": 9.66475251551,
			"-0.005": 10.1221837692,
			"-0.004": 13.753000519,
			"-0.003": 11.3871161465,
			"-0.002": 7.14621910911,
			"-0.001": 6.5327189647,
			"0.0": 5.66360542589,
			"0.001": 5.49187776066,
			"0.002": 6.42506150508,
			"0.003": 6.57444564582,
			"0.004": 6.75080548758,
			"0.005": 11.8252479295,
			"0.006": 6.18792144588,
			"0.007": 3.3947710846,
			"0.008": 2.8810781617,
			"0.009": 2.52791198255,
			"0.01": 2.50503487787,
			"0.011": 5.39456779656,
			"0.012": 2.3413213592,
			"0.013": 0.183692464234,
			"0.014": 0.0,
			"0.015": 0.0,
			"0.016": 0.0,
			"0.017": 0.0,
			"0.018": 0.0,
			"0.019": 0.0,
			"0.02": 0.0,
			"0.021": 0.0,
			"0.022": 0.0,
			"0.023": 0.0,
			"0.024": 0.0,
			"0.025": 0.0
		}
	}
}
