{
	 "smiles": "[O-][N+](=O)C1=C(NC(=O)CCl)C=C2OCOC2=C1", 
	 "Tm": 416.15, 
	 "num_atms": 24, 
	 "gaussian": { 
		 "optdone": 1, 
		 "sigma_profile": "yes", 
		 "theory": "DFT", 
		 "functional": "B3LYP", 
		 "basiset": "6-31G**", 
		 "properties": { 
			 "R2extent": 5236.8198, 
			 "electric_dipole_moment_norm": 4.31391426549, 
			 "electric_quadrupole_moment_norm": 17.5989520106, 
			 "total_energy": -1292.88077368, 
			 "HOMO_LUMO_gap": 0.13416, 
			 "cosmo_polarized_energy": -13.71, 
			 "cosmo_cavitation_energy": 30.85, 
			 "cosmo_dispersion_energy": -23.44, 
			 "cosmo_repulsion_energy": 1.79, 
			 "cosmo_total_nonelectrostatic_energy": 9.2, 
			 "SMD_solvation_energy": 8.17 
		},
		"coords": [
			{
				"x": 1.4176953357,
				"y": -2.6453963903,
				"z": -0.9391328649,
				"element": "O" 
			},
			{
				"x": 2.1374492304,
				"y": -1.6337829523,
				"z": -0.8297865817,
				"element": "N" 
			},
			{
				"x": 3.3445292109,
				"y": -1.6562190193,
				"z": -1.066323421,
				"element": "O" 
			},
			{
				"x": 1.5423443084,
				"y": -0.3768783636,
				"z": -0.4087220074,
				"element": "C" 
			},
			{
				"x": 0.1563895573,
				"y": -0.2340495291,
				"z": -0.1091765143,
				"element": "C" 
			},
			{
				"x": -0.7130441791,
				"y": -1.3233696735,
				"z": -0.2094816648,
				"element": "N" 
			},
			{
				"x": -2.0584269603,
				"y": -1.3457333545,
				"z": 0.0407196522,
				"element": "C" 
			},
			{
				"x": -2.7479878252,
				"y": -0.4019388985,
				"z": 0.4022865765,
				"element": "O" 
			},
			{
				"x": -2.7834252091,
				"y": -2.6822294486,
				"z": -0.1475855511,
				"element": "C" 
			},
			{
				"x": -1.803128337,
				"y": -4.1003032251,
				"z": -0.6832934609,
				"element": "Cl" 
			},
			{
				"x": -0.3226140927,
				"y": 1.0366342203,
				"z": 0.2929337743,
				"element": "C" 
			},
			{
				"x": 0.5829676952,
				"y": 2.0698259686,
				"z": 0.3726188672,
				"element": "C" 
			},
			{
				"x": 0.3345432247,
				"y": 3.3560979552,
				"z": 0.7353486377,
				"element": "O" 
			},
			{
				"x": 1.5920110134,
				"y": 4.0514653361,
				"z": 0.6589463013,
				"element": "C" 
			},
			{
				"x": 2.5898112674,
				"y": 3.1119350339,
				"z": 0.2457429509,
				"element": "O" 
			},
			{
				"x": 1.9405508179,
				"y": 1.917004006,
				"z": 0.0761245688,
				"element": "C" 
			},
			{
				"x": 2.4461805416,
				"y": 0.7089576102,
				"z": -0.3157170218,
				"element": "C" 
			},
			{
				"x": -0.2532447042,
				"y": -2.185624786,
				"z": -0.5077779114,
				"element": "H" 
			},
			{
				"x": -3.5715602555,
				"y": -2.5289991299,
				"z": -0.8857392521,
				"element": "H" 
			},
			{
				"x": -3.2470837339,
				"y": -2.9433086821,
				"z": 0.8044749648,
				"element": "H" 
			},
			{
				"x": -1.3685560013,
				"y": 1.1673728117,
				"z": 0.524496163,
				"element": "H" 
			},
			{
				"x": 1.84436681,
				"y": 4.4480041842,
				"z": 1.6485893445,
				"element": "H" 
			},
			{
				"x": 1.5131987762,
				"y": 4.8569006371,
				"z": -0.0798750951,
				"element": "H" 
			},
			{
				"x": 3.4889335093,
				"y": 0.5541356896,
				"z": -0.5523704549,
				"element": "H" 
			}
		],
		 "valence_orbital": [ 
			{
				"type": "occ",
				"energy": -0.30325,
				"method": "rhf"
			},
			{
				"type": "occ",
				"energy": -0.29653,
				"method": "rhf"
			},
			{
				"type": "occ",
				"energy": -0.27583,
				"method": "rhf"
			},
			{
				"type": "occ",
				"energy": -0.26811,
				"method": "rhf"
			},
			{
				"type": "occ",
				"energy": -0.2296,
				"method": "rhf"
			},
			{
				"type": "unocc",
				"energy": -0.09544,
				"method": "rhf"
			},
			{
				"type": "unocc",
				"energy": -0.03466,
				"method": "rhf"
			},
			{
				"type": "unocc",
				"energy": -0.0024,
				"method": "rhf"
			},
			{
				"type": "unocc",
				"energy": 0.01331,
				"method": "rhf"
			},
			{
				"type": "unocc",
				"energy": 0.02747,
				"method": "rhf"
			}
		],
		"cosmo_sigma_profile": { 
			"-0.025": 0.0,
			"-0.024": 0.0,
			"-0.023": 0.0,
			"-0.022": 0.0,
			"-0.021": 0.0,
			"-0.02": 0.0,
			"-0.019": 0.0,
			"-0.018": 0.0,
			"-0.017": 0.0,
			"-0.016": 0.0,
			"-0.015": 0.0,
			"-0.014": 0.0,
			"-0.013": 0.0,
			"-0.012": 0.0,
			"-0.011": 0.0,
			"-0.01": 1.09139573676,
			"-0.009": 7.54730441323,
			"-0.008": 12.3840978725,
			"-0.007": 12.2256698575,
			"-0.006": 12.5307933137,
			"-0.005": 12.5473703572,
			"-0.004": 13.3825160429,
			"-0.003": 13.3235569699,
			"-0.002": 17.1139057186,
			"-0.001": 21.2420664034,
			"0.0": 21.0356002749,
			"0.001": 14.3893865872,
			"0.002": 10.7743358641,
			"0.003": 10.7930429428,
			"0.004": 13.5272202349,
			"0.005": 12.9743247222,
			"0.006": 7.33582985963,
			"0.007": 10.5349423052,
			"0.008": 9.12185147614,
			"0.009": 6.31483644341,
			"0.01": 5.35746736032,
			"0.011": 3.2467878656,
			"0.012": 1.82246461234,
			"0.013": 0.165836301625,
			"0.014": 0.0,
			"0.015": 0.0,
			"0.016": 0.0,
			"0.017": 0.0,
			"0.018": 0.0,
			"0.019": 0.0,
			"0.02": 0.0,
			"0.021": 0.0,
			"0.022": 0.0,
			"0.023": 0.0,
			"0.024": 0.0,
			"0.025": 0.0
		}
	}
}
