{
	 "smiles": "COC1=C2C=CC=CC2=C(S)C=C1", 
	 "Tm": 416.15, 
	 "num_atms": 23, 
	 "gaussian": { 
		 "optdone": 1, 
		 "sigma_profile": "yes", 
		 "theory": "DFT", 
		 "functional": "B3LYP", 
		 "basiset": "6-31G**", 
		 "properties": { 
			 "R2extent": 2847.6343, 
			 "electric_dipole_moment_norm": 2.51982455937, 
			 "electric_quadrupole_moment_norm": 15.4764809421, 
			 "total_energy": -898.603758589, 
			 "HOMO_LUMO_gap": 0.16459, 
			 "cosmo_polarized_energy": -7.5, 
			 "cosmo_cavitation_energy": 27.73, 
			 "cosmo_dispersion_energy": -21.19, 
			 "cosmo_repulsion_energy": 1.6, 
			 "cosmo_total_nonelectrostatic_energy": 8.15, 
			 "SMD_solvation_energy": 4.85 
		},
		"coords": [
			{
				"x": -3.527500392,
				"y": -0.1419927957,
				"z": -2.3043964094,
				"element": "C" 
			},
			{
				"x": -2.1182689183,
				"y": -0.2397142443,
				"z": -2.1668745589,
				"element": "O" 
			},
			{
				"x": -1.5747527405,
				"y": -0.0543833384,
				"z": -0.9318662925,
				"element": "C" 
			},
			{
				"x": -0.1461813763,
				"y": -0.1718572592,
				"z": -0.8731369786,
				"element": "C" 
			},
			{
				"x": 0.6137954639,
				"y": -0.4596376683,
				"z": -2.0351990544,
				"element": "C" 
			},
			{
				"x": 1.9840987853,
				"y": -0.5877286348,
				"z": -1.967151979,
				"element": "C" 
			},
			{
				"x": 2.645858192,
				"y": -0.4405240418,
				"z": -0.7286828753,
				"element": "C" 
			},
			{
				"x": 1.9318470011,
				"y": -0.1568508228,
				"z": 0.4158014108,
				"element": "C" 
			},
			{
				"x": 0.5206359223,
				"y": -0.0047186526,
				"z": 0.3852169408,
				"element": "C" 
			},
			{
				"x": -0.2608439943,
				"y": 0.3131000017,
				"z": 1.546402857,
				"element": "C" 
			},
			{
				"x": 0.4681294661,
				"y": 0.4930602207,
				"z": 3.1800309615,
				"element": "S" 
			},
			{
				"x": -1.6301565787,
				"y": 0.4208902542,
				"z": 1.4383603878,
				"element": "C" 
			},
			{
				"x": -2.2997057704,
				"y": 0.2274262974,
				"z": 0.207618114,
				"element": "C" 
			},
			{
				"x": -4.0436979141,
				"y": -0.8931788213,
				"z": -1.6935334042,
				"element": "H" 
			},
			{
				"x": -3.8899584665,
				"y": 0.8564155313,
				"z": -2.0290842953,
				"element": "H" 
			},
			{
				"x": -3.7407383763,
				"y": -0.3253533103,
				"z": -3.3584095946,
				"element": "H" 
			},
			{
				"x": 0.0922015368,
				"y": -0.5781191415,
				"z": -2.9776308545,
				"element": "H" 
			},
			{
				"x": 2.5552033439,
				"y": -0.8081391567,
				"z": -2.8642790852,
				"element": "H" 
			},
			{
				"x": 3.7247843511,
				"y": -0.555834302,
				"z": -0.6761099771,
				"element": "H" 
			},
			{
				"x": 2.4438134894,
				"y": -0.060549876,
				"z": 1.3666107138,
				"element": "H" 
			},
			{
				"x": 1.2598334863,
				"y": 1.5575427048,
				"z": 2.9230647562,
				"element": "H" 
			},
			{
				"x": -2.2144238383,
				"y": 0.6675616249,
				"z": 2.3188756154,
				"element": "H" 
			},
			{
				"x": -3.3782726724,
				"y": 0.3205854306,
				"z": 0.1792736015,
				"element": "H" 
			}
		],
		 "valence_orbital": [ 
			{
				"type": "occ",
				"energy": -0.31322,
				"method": "rhf"
			},
			{
				"type": "occ",
				"energy": -0.2647,
				"method": "rhf"
			},
			{
				"type": "occ",
				"energy": -0.24569,
				"method": "rhf"
			},
			{
				"type": "occ",
				"energy": -0.24403,
				"method": "rhf"
			},
			{
				"type": "occ",
				"energy": -0.20196,
				"method": "rhf"
			},
			{
				"type": "unocc",
				"energy": -0.03737,
				"method": "rhf"
			},
			{
				"type": "unocc",
				"energy": -0.0116,
				"method": "rhf"
			},
			{
				"type": "unocc",
				"energy": 0.02814,
				"method": "rhf"
			},
			{
				"type": "unocc",
				"energy": 0.04812,
				"method": "rhf"
			},
			{
				"type": "unocc",
				"energy": 0.07288,
				"method": "rhf"
			}
		],
		"cosmo_sigma_profile": { 
			"-0.025": 0.0,
			"-0.024": 0.0,
			"-0.023": 0.0,
			"-0.022": 0.0,
			"-0.021": 0.0,
			"-0.02": 0.0,
			"-0.019": 0.0,
			"-0.018": 0.0,
			"-0.017": 0.0,
			"-0.016": 0.0,
			"-0.015": 0.0,
			"-0.014": 0.0,
			"-0.013": 0.0,
			"-0.012": 0.0,
			"-0.011": 0.0,
			"-0.01": 0.170812395816,
			"-0.009": 1.93458005837,
			"-0.008": 2.11132968949,
			"-0.007": 2.93497945237,
			"-0.006": 12.9820071214,
			"-0.005": 19.9937247815,
			"-0.004": 21.2713684626,
			"-0.003": 17.9387452076,
			"-0.002": 11.9035557843,
			"-0.001": 11.2136109493,
			"0.0": 12.00338627,
			"0.001": 11.161085616,
			"0.002": 17.0758436958,
			"0.003": 23.7781607908,
			"0.004": 26.7315886042,
			"0.005": 16.8924168166,
			"0.006": 5.52462635765,
			"0.007": 4.28602780426,
			"0.008": 2.52492794845,
			"0.009": 1.5563715325,
			"0.01": 0.203942156092,
			"0.011": 0.0,
			"0.012": 0.0,
			"0.013": 0.0,
			"0.014": 0.0,
			"0.015": 0.0,
			"0.016": 0.0,
			"0.017": 0.0,
			"0.018": 0.0,
			"0.019": 0.0,
			"0.02": 0.0,
			"0.021": 0.0,
			"0.022": 0.0,
			"0.023": 0.0,
			"0.024": 0.0,
			"0.025": 0.0
		}
	}
}
