{
	 "smiles": "CN1C(CC(O)C2=CC=CC=C2)CCCC1CC(=O)C1=CC=CC=C1", 
	 "Tm": 403.15, 
	 "num_atms": 52, 
	 "gaussian": { 
		 "optdone": 1, 
		 "sigma_profile": "yes", 
		 "theory": "DFT", 
		 "functional": "B3LYP", 
		 "basiset": "6-31G**", 
		 "properties": { 
			 "R2extent": 10474.4524, 
			 "electric_dipole_moment_norm": 3.28767596487, 
			 "electric_quadrupole_moment_norm": 10.9663438187, 
			 "total_energy": -1059.79831305, 
			 "HOMO_LUMO_gap": 0.13961, 
			 "cosmo_polarized_energy": -14.31, 
			 "cosmo_cavitation_energy": 50.47, 
			 "cosmo_dispersion_energy": -33.38, 
			 "cosmo_repulsion_energy": 2.51, 
			 "cosmo_total_nonelectrostatic_energy": 19.6, 
			 "SMD_solvation_energy": 6.05 
		},
		"coords": [
			{
				"x": -3.6397657709,
				"y": 1.0346204838,
				"z": 0.8821187899,
				"element": "C" 
			},
			{
				"x": -2.5637055006,
				"y": 0.3394787178,
				"z": 0.1763109379,
				"element": "N" 
			},
			{
				"x": -2.7633019609,
				"y": 0.3635594447,
				"z": -1.2917613678,
				"element": "C" 
			},
			{
				"x": -2.3596655984,
				"y": -0.9460709133,
				"z": -2.0161670233,
				"element": "C" 
			},
			{
				"x": -0.8909938675,
				"y": -1.3951276085,
				"z": -2.2071872871,
				"element": "C" 
			},
			{
				"x": -0.8791006938,
				"y": -2.0125863281,
				"z": -3.5080184587,
				"element": "O" 
			},
			{
				"x": -0.3730137539,
				"y": -2.3895849849,
				"z": -1.1758128409,
				"element": "C" 
			},
			{
				"x": -0.9975999302,
				"y": -3.6395900219,
				"z": -1.0354714789,
				"element": "C" 
			},
			{
				"x": -0.5080203788,
				"y": -4.584201178,
				"z": -0.1362103536,
				"element": "C" 
			},
			{
				"x": 0.6223064425,
				"y": -4.2993020671,
				"z": 0.6365615384,
				"element": "C" 
			},
			{
				"x": 1.2609827541,
				"y": -3.068439949,
				"z": 0.4937460409,
				"element": "C" 
			},
			{
				"x": 0.7716357875,
				"y": -2.1253414497,
				"z": -0.415140754,
				"element": "C" 
			},
			{
				"x": -2.268600347,
				"y": 1.6801120546,
				"z": -1.9589547209,
				"element": "C" 
			},
			{
				"x": -0.9019850112,
				"y": 2.184927599,
				"z": -1.4672526435,
				"element": "C" 
			},
			{
				"x": -0.822423127,
				"y": 2.1596243547,
				"z": 0.0653532514,
				"element": "C" 
			},
			{
				"x": -1.1997682957,
				"y": 0.7537821647,
				"z": 0.570451556,
				"element": "C" 
			},
			{
				"x": -0.9780359845,
				"y": 0.5659821553,
				"z": 2.075529384,
				"element": "C" 
			},
			{
				"x": 0.4911629347,
				"y": 0.4605597663,
				"z": 2.4723738541,
				"element": "C" 
			},
			{
				"x": 1.3847565674,
				"y": 0.4724123637,
				"z": 1.6352723732,
				"element": "O" 
			},
			{
				"x": 0.8303164913,
				"y": 0.3340498832,
				"z": 3.9299341968,
				"element": "C" 
			},
			{
				"x": -0.1433485843,
				"y": 0.2510898201,
				"z": 4.9374026458,
				"element": "C" 
			},
			{
				"x": 0.2339304796,
				"y": 0.1307514205,
				"z": 6.2748651637,
				"element": "C" 
			},
			{
				"x": 1.58629185,
				"y": 0.0950514561,
				"z": 6.6197870777,
				"element": "C" 
			},
			{
				"x": 2.5635257168,
				"y": 0.1771254559,
				"z": 5.6230668044,
				"element": "C" 
			},
			{
				"x": 2.1874976495,
				"y": 0.2940411412,
				"z": 4.2886015571,
				"element": "C" 
			},
			{
				"x": -3.5370407672,
				"y": 0.897417407,
				"z": 1.9619753078,
				"element": "H" 
			},
			{
				"x": -4.5979116284,
				"y": 0.5902784054,
				"z": 0.594619326,
				"element": "H" 
			},
			{
				"x": -3.7071770295,
				"y": 2.1207278136,
				"z": 0.691112894,
				"element": "H" 
			},
			{
				"x": -3.85206235,
				"y": 0.3640980492,
				"z": -1.423483815,
				"element": "H" 
			},
			{
				"x": -2.7526644897,
				"y": -0.8534063987,
				"z": -3.0353200503,
				"element": "H" 
			},
			{
				"x": -2.9150356229,
				"y": -1.7604140914,
				"z": -1.5397069686,
				"element": "H" 
			},
			{
				"x": -0.2230466709,
				"y": -0.5226008923,
				"z": -2.2163052108,
				"element": "H" 
			},
			{
				"x": -0.0319288839,
				"y": -2.4688764684,
				"z": -3.6012116628,
				"element": "H" 
			},
			{
				"x": -1.8638707577,
				"y": -3.8723247043,
				"z": -1.648105651,
				"element": "H" 
			},
			{
				"x": -1.0052188005,
				"y": -5.5455491296,
				"z": -0.0387577275,
				"element": "H" 
			},
			{
				"x": 1.0024547518,
				"y": -5.035131746,
				"z": 1.3397449254,
				"element": "H" 
			},
			{
				"x": 2.1424030296,
				"y": -2.8349787948,
				"z": 1.0839035717,
				"element": "H" 
			},
			{
				"x": 1.2814367043,
				"y": -1.1711999343,
				"z": -0.5130985549,
				"element": "H" 
			},
			{
				"x": -3.0105350096,
				"y": 2.4602712651,
				"z": -1.74258913,
				"element": "H" 
			},
			{
				"x": -2.2654701013,
				"y": 1.558903022,
				"z": -3.0487822148,
				"element": "H" 
			},
			{
				"x": -0.7272130518,
				"y": 3.1983460245,
				"z": -1.8483702331,
				"element": "H" 
			},
			{
				"x": -0.0930706294,
				"y": 1.5642428109,
				"z": -1.8724116571,
				"element": "H" 
			},
			{
				"x": 0.1897266761,
				"y": 2.4096070891,
				"z": 0.3971562225,
				"element": "H" 
			},
			{
				"x": -1.4999343393,
				"y": 2.9110794439,
				"z": 0.4946195476,
				"element": "H" 
			},
			{
				"x": -0.5221477787,
				"y": 0.0514299217,
				"z": 0.0817550078,
				"element": "H" 
			},
			{
				"x": -1.4305604118,
				"y": 1.3791222205,
				"z": 2.6576144043,
				"element": "H" 
			},
			{
				"x": -1.4810772265,
				"y": -0.3571913565,
				"z": 2.3943323591,
				"element": "H" 
			},
			{
				"x": -1.1981747839,
				"y": 0.2744093847,
				"z": 4.6850537001,
				"element": "H" 
			},
			{
				"x": -0.527065423,
				"y": 0.0646746554,
				"z": 7.0468878713,
				"element": "H" 
			},
			{
				"x": 1.8784394569,
				"y": 0.0030831007,
				"z": 7.6620771948,
				"element": "H" 
			},
			{
				"x": 3.6160907879,
				"y": 0.1495696811,
				"z": 5.8898130673,
				"element": "H" 
			},
			{
				"x": 2.9268764809,
				"y": 0.3577894405,
				"z": 3.4973792335,
				"element": "H" 
			}
		],
		 "valence_orbital": [ 
			{
				"type": "occ",
				"energy": -0.25939,
				"method": "rhf"
			},
			{
				"type": "occ",
				"energy": -0.25093,
				"method": "rhf"
			},
			{
				"type": "occ",
				"energy": -0.242,
				"method": "rhf"
			},
			{
				"type": "occ",
				"energy": -0.23349,
				"method": "rhf"
			},
			{
				"type": "occ",
				"energy": -0.19665,
				"method": "rhf"
			},
			{
				"type": "unocc",
				"energy": -0.05704,
				"method": "rhf"
			},
			{
				"type": "unocc",
				"energy": -0.01079,
				"method": "rhf"
			},
			{
				"type": "unocc",
				"energy": -8e-05,
				"method": "rhf"
			},
			{
				"type": "unocc",
				"energy": 0.00615,
				"method": "rhf"
			},
			{
				"type": "unocc",
				"energy": 0.03786,
				"method": "rhf"
			}
		],
		"cosmo_sigma_profile": { 
			"-0.025": 0.0,
			"-0.024": 0.0,
			"-0.023": 0.0,
			"-0.022": 0.0,
			"-0.021": 0.0,
			"-0.02": 0.0,
			"-0.019": 0.0,
			"-0.018": 0.0,
			"-0.017": 0.0,
			"-0.016": 0.0,
			"-0.015": 0.334513257389,
			"-0.014": 0.923795543879,
			"-0.013": 0.671307702832,
			"-0.012": 0.564501534264,
			"-0.011": 0.773834701939,
			"-0.01": 0.914762105892,
			"-0.009": 0.890368978569,
			"-0.008": 0.572500999604,
			"-0.007": 2.28822620669,
			"-0.006": 14.302298853,
			"-0.005": 26.4814774798,
			"-0.004": 30.5745467195,
			"-0.003": 34.6207364798,
			"-0.002": 46.1978061892,
			"-0.001": 41.0665833996,
			"0.0": 37.8540823986,
			"0.001": 32.30361225,
			"0.002": 24.3162551725,
			"0.003": 22.7458093889,
			"0.004": 24.5939331126,
			"0.005": 14.7911110628,
			"0.006": 12.3038274587,
			"0.007": 4.18746739259,
			"0.008": 3.70024425011,
			"0.009": 4.4940895613,
			"0.01": 2.99292229829,
			"0.011": 2.77693614101,
			"0.012": 3.50646297354,
			"0.013": 2.13588322301,
			"0.014": 1.89818001753,
			"0.015": 0.446485760513,
			"0.016": 0.0,
			"0.017": 0.0,
			"0.018": 0.0,
			"0.019": 0.0,
			"0.02": 0.0,
			"0.021": 0.0,
			"0.022": 0.0,
			"0.023": 0.0,
			"0.024": 0.0,
			"0.025": 0.0
		}
	}
}
