{
	 "smiles": "CCOC(=O)NC1=CC=C(Br)C=C1", 
	 "Tm": 353.15, 
	 "num_atms": 23, 
	 "gaussian": { 
		 "optdone": 1, 
		 "sigma_profile": "yes", 
		 "theory": "DFT", 
		 "functional": "B3LYP", 
		 "basiset": "6-31G**", 
		 "properties": { 
			 "R2extent": 6110.8595, 
			 "electric_dipole_moment_norm": 1.24618156382, 
			 "electric_quadrupole_moment_norm": 15.051399625, 
			 "total_energy": -3125.61506266, 
			 "HOMO_LUMO_gap": 0.20361, 
			 "cosmo_polarized_energy": -10.18, 
			 "cosmo_cavitation_energy": 29.67, 
			 "cosmo_dispersion_energy": -22.08, 
			 "cosmo_repulsion_energy": 1.77, 
			 "cosmo_total_nonelectrostatic_energy": 9.35, 
			 "SMD_solvation_energy": 5.21 
		},
		"coords": [
			{
				"x": -3.2076884453,
				"y": 0.369615571,
				"z": -3.2074593794,
				"element": "C" 
			},
			{
				"x": -1.7070053417,
				"y": 0.4051588234,
				"z": -3.4472453403,
				"element": "C" 
			},
			{
				"x": -0.9691921314,
				"y": 0.328674342,
				"z": -2.2003473028,
				"element": "O" 
			},
			{
				"x": -0.7679448792,
				"y": -0.9151798605,
				"z": -1.7175758746,
				"element": "C" 
			},
			{
				"x": -1.1422683177,
				"y": -1.9418171097,
				"z": -2.2557699802,
				"element": "O" 
			},
			{
				"x": -0.0754748598,
				"y": -0.9332574138,
				"z": -0.5250629644,
				"element": "N" 
			},
			{
				"x": 0.4721444213,
				"y": 0.0646251987,
				"z": 0.3034519017,
				"element": "C" 
			},
			{
				"x": 1.1291044156,
				"y": -0.3761681952,
				"z": 1.4657930405,
				"element": "C" 
			},
			{
				"x": 1.7047918198,
				"y": 0.5258370574,
				"z": 2.35389301,
				"element": "C" 
			},
			{
				"x": 1.6286337017,
				"y": 1.8911689474,
				"z": 2.0860521352,
				"element": "C" 
			},
			{
				"x": 2.4155201513,
				"y": 3.141650412,
				"z": 3.2986277007,
				"element": "Br" 
			},
			{
				"x": 0.982450838,
				"y": 2.3472551176,
				"z": 0.9406495931,
				"element": "C" 
			},
			{
				"x": 0.4047725557,
				"y": 1.4432589567,
				"z": 0.0495292245,
				"element": "C" 
			},
			{
				"x": -3.5038118086,
				"y": -0.5929959859,
				"z": -2.7841087582,
				"element": "H" 
			},
			{
				"x": -3.5144329589,
				"y": 1.1691015828,
				"z": -2.5265730649,
				"element": "H" 
			},
			{
				"x": -3.7365725419,
				"y": 0.5049936887,
				"z": -4.1567812153,
				"element": "H" 
			},
			{
				"x": -1.3903536216,
				"y": 1.3550778494,
				"z": -3.8840295655,
				"element": "H" 
			},
			{
				"x": -1.3883390215,
				"y": -0.4165338506,
				"z": -4.0916557587,
				"element": "H" 
			},
			{
				"x": 0.0511175692,
				"y": -1.8844060997,
				"z": -0.2087601682,
				"element": "H" 
			},
			{
				"x": 1.1905856319,
				"y": -1.4408112388,
				"z": 1.6778828846,
				"element": "H" 
			},
			{
				"x": 2.2074602531,
				"y": 0.1681576987,
				"z": 3.2451668255,
				"element": "H" 
			},
			{
				"x": 0.9255767031,
				"y": 3.4105411176,
				"z": 0.7364051686,
				"element": "H" 
			},
			{
				"x": -0.0944741331,
				"y": 1.8087533908,
				"z": -0.8352821117,
				"element": "H" 
			}
		],
		 "valence_orbital": [ 
			{
				"type": "occ",
				"energy": -0.2863,
				"method": "rhf"
			},
			{
				"type": "occ",
				"energy": -0.28596,
				"method": "rhf"
			},
			{
				"type": "occ",
				"energy": -0.28425,
				"method": "rhf"
			},
			{
				"type": "occ",
				"energy": -0.26655,
				"method": "rhf"
			},
			{
				"type": "occ",
				"energy": -0.22022,
				"method": "rhf"
			},
			{
				"type": "unocc",
				"energy": -0.01661,
				"method": "rhf"
			},
			{
				"type": "unocc",
				"energy": -0.01593,
				"method": "rhf"
			},
			{
				"type": "unocc",
				"energy": 0.00838,
				"method": "rhf"
			},
			{
				"type": "unocc",
				"energy": 0.05496,
				"method": "rhf"
			},
			{
				"type": "unocc",
				"energy": 0.07735,
				"method": "rhf"
			}
		],
		"cosmo_sigma_profile": { 
			"-0.025": 0.0,
			"-0.024": 0.0,
			"-0.023": 0.0,
			"-0.022": 0.0,
			"-0.021": 0.0,
			"-0.02": 0.0,
			"-0.019": 0.0,
			"-0.018": 0.0,
			"-0.017": 0.0,
			"-0.016": 0.0701011123261,
			"-0.015": 0.862652696544,
			"-0.014": 1.20419747217,
			"-0.013": 1.16167268247,
			"-0.012": 1.22422125869,
			"-0.011": 1.20553144194,
			"-0.01": 0.847113653111,
			"-0.009": 1.12699170823,
			"-0.008": 1.95679909675,
			"-0.007": 4.66869009812,
			"-0.006": 8.23175563833,
			"-0.005": 11.4360373828,
			"-0.004": 17.8739882373,
			"-0.003": 17.9324887741,
			"-0.002": 18.6553377173,
			"-0.001": 20.5736053405,
			"0.0": 21.3962938723,
			"0.001": 18.5257395348,
			"0.002": 20.8258241982,
			"0.003": 22.6072142262,
			"0.004": 20.6959620609,
			"0.005": 10.6505635792,
			"0.006": 1.84236828652,
			"0.007": 1.0414086191,
			"0.008": 0.989572450302,
			"0.009": 1.70067070253,
			"0.01": 1.16539505384,
			"0.011": 1.659051158,
			"0.012": 3.70530490642,
			"0.013": 3.7240586685,
			"0.014": 0.067254828553,
			"0.015": 0.0,
			"0.016": 0.0,
			"0.017": 0.0,
			"0.018": 0.0,
			"0.019": 0.0,
			"0.02": 0.0,
			"0.021": 0.0,
			"0.022": 0.0,
			"0.023": 0.0,
			"0.024": 0.0,
			"0.025": 0.0
		}
	}
}
