{
	 "smiles": "OC(=O)C1=C(C=CC=C1)C(=O)N1CCCCC1", 
	 "Tm": 383.15, 
	 "num_atms": 32, 
	 "gaussian": { 
		 "optdone": 1, 
		 "sigma_profile": "yes", 
		 "theory": "DFT", 
		 "functional": "B3LYP", 
		 "basiset": "6-31G**", 
		 "properties": { 
			 "R2extent": 4803.5301, 
			 "electric_dipole_moment_norm": 3.73051881244, 
			 "electric_quadrupole_moment_norm": 10.9524087921, 
			 "total_energy": -784.87755597, 
			 "HOMO_LUMO_gap": 0.17309, 
			 "cosmo_polarized_energy": -16.4, 
			 "cosmo_cavitation_energy": 34.1, 
			 "cosmo_dispersion_energy": -24.15, 
			 "cosmo_repulsion_energy": 1.89, 
			 "cosmo_total_nonelectrostatic_energy": 11.84, 
			 "SMD_solvation_energy": 5.95 
		},
		"coords": [
			{
				"x": -2.0841254741,
				"y": 3.6788302189,
				"z": 0.1297035355,
				"element": "O" 
			},
			{
				"x": -1.4137641024,
				"y": 2.5216264034,
				"z": 0.3516871429,
				"element": "C" 
			},
			{
				"x": -1.8133925343,
				"y": 1.4578164559,
				"z": -0.0825231119,
				"element": "O" 
			},
			{
				"x": -0.1950848602,
				"y": 2.7049398141,
				"z": 1.1839603934,
				"element": "C" 
			},
			{
				"x": 0.7736297517,
				"y": 1.682282295,
				"z": 1.2388814979,
				"element": "C" 
			},
			{
				"x": 1.8801133329,
				"y": 1.8454896641,
				"z": 2.0790664703,
				"element": "C" 
			},
			{
				"x": 2.0282456068,
				"y": 2.9962112701,
				"z": 2.8538276185,
				"element": "C" 
			},
			{
				"x": 1.0719894903,
				"y": 4.0111588818,
				"z": 2.7901752147,
				"element": "C" 
			},
			{
				"x": -0.0328808089,
				"y": 3.8651937582,
				"z": 1.9554913415,
				"element": "C" 
			},
			{
				"x": 0.7754082439,
				"y": 0.4989940279,
				"z": 0.2869091932,
				"element": "C" 
			},
			{
				"x": 1.2444810327,
				"y": 0.6480582221,
				"z": -0.8383231279,
				"element": "O" 
			},
			{
				"x": 0.3651063274,
				"y": -0.7121725788,
				"z": 0.7581715688,
				"element": "N" 
			},
			{
				"x": 0.4014328975,
				"y": -1.8285273578,
				"z": -0.2033139869,
				"element": "C" 
			},
			{
				"x": -0.0100028396,
				"y": -3.1325986892,
				"z": 0.479422895,
				"element": "C" 
			},
			{
				"x": -1.432083084,
				"y": -3.0502806887,
				"z": 1.072952133,
				"element": "C" 
			},
			{
				"x": -1.7187665616,
				"y": -1.6499639704,
				"z": 1.6737416733,
				"element": "C" 
			},
			{
				"x": -0.4219090162,
				"y": -0.8926413798,
				"z": 1.9831395122,
				"element": "C" 
			},
			{
				"x": -2.8620297229,
				"y": 3.4340942256,
				"z": -0.3980639001,
				"element": "H" 
			},
			{
				"x": 2.6369292542,
				"y": 1.0673560283,
				"z": 2.1126784955,
				"element": "H" 
			},
			{
				"x": 2.8942099307,
				"y": 3.1023655402,
				"z": 3.5010038313,
				"element": "H" 
			},
			{
				"x": 1.1855982799,
				"y": 4.9105139454,
				"z": 3.387626409,
				"element": "H" 
			},
			{
				"x": -0.7852120732,
				"y": 4.6435340807,
				"z": 1.8993546728,
				"element": "H" 
			},
			{
				"x": 1.4112291112,
				"y": -1.8942344316,
				"z": -0.6184201125,
				"element": "H" 
			},
			{
				"x": -0.266606071,
				"y": -1.6025053582,
				"z": -1.0458513322,
				"element": "H" 
			},
			{
				"x": 0.0570275832,
				"y": -3.9502906047,
				"z": -0.2458507693,
				"element": "H" 
			},
			{
				"x": 0.7142332626,
				"y": -3.3638446417,
				"z": 1.2703504082,
				"element": "H" 
			},
			{
				"x": -1.5493032478,
				"y": -3.8285089805,
				"z": 1.8354638641,
				"element": "H" 
			},
			{
				"x": -2.1708688689,
				"y": -3.2684390376,
				"z": 0.2936372494,
				"element": "H" 
			},
			{
				"x": -2.3171301235,
				"y": -1.732557427,
				"z": 2.5878922096,
				"element": "H" 
			},
			{
				"x": -2.2913470496,
				"y": -1.0394217226,
				"z": 0.9687532553,
				"element": "H" 
			},
			{
				"x": -0.6450835928,
				"y": 0.089870677,
				"z": 2.3997501358,
				"element": "H" 
			},
			{
				"x": 0.1681559261,
				"y": -1.4353486399,
				"z": 2.7358056193,
				"element": "H" 
			}
		],
		 "valence_orbital": [ 
			{
				"type": "occ",
				"energy": -0.28022,
				"method": "rhf"
			},
			{
				"type": "occ",
				"energy": -0.26783,
				"method": "rhf"
			},
			{
				"type": "occ",
				"energy": -0.26509,
				"method": "rhf"
			},
			{
				"type": "occ",
				"energy": -0.23404,
				"method": "rhf"
			},
			{
				"type": "occ",
				"energy": -0.22411,
				"method": "rhf"
			},
			{
				"type": "unocc",
				"energy": -0.05102,
				"method": "rhf"
			},
			{
				"type": "unocc",
				"energy": -0.0146,
				"method": "rhf"
			},
			{
				"type": "unocc",
				"energy": 0.03817,
				"method": "rhf"
			},
			{
				"type": "unocc",
				"energy": 0.05033,
				"method": "rhf"
			},
			{
				"type": "unocc",
				"energy": 0.07519,
				"method": "rhf"
			}
		],
		"cosmo_sigma_profile": { 
			"-0.025": 0.0,
			"-0.024": 0.0,
			"-0.023": 0.0,
			"-0.022": 0.0,
			"-0.021": 0.0,
			"-0.02": 0.0,
			"-0.019": 0.0946758996426,
			"-0.018": 0.779179927385,
			"-0.017": 0.897307410111,
			"-0.016": 1.05509133182,
			"-0.015": 0.516748692306,
			"-0.014": 0.73954985018,
			"-0.013": 1.07000800222,
			"-0.012": 0.187058765209,
			"-0.011": 0.797926865875,
			"-0.01": 1.11395431532,
			"-0.009": 0.333386954068,
			"-0.008": 0.471676235779,
			"-0.007": 5.01523372457,
			"-0.006": 10.1947880443,
			"-0.005": 9.97211789978,
			"-0.004": 17.939540197,
			"-0.003": 29.3367621289,
			"-0.002": 38.9122383383,
			"-0.001": 28.342899815,
			"0.0": 23.9561051826,
			"0.001": 17.5403879341,
			"0.002": 13.9264464316,
			"0.003": 15.1551699951,
			"0.004": 7.60121764818,
			"0.005": 5.21674852763,
			"0.006": 5.25110308681,
			"0.007": 4.1127546467,
			"0.008": 4.65226724217,
			"0.009": 3.26010249009,
			"0.01": 3.99833973195,
			"0.011": 3.29118816213,
			"0.012": 2.76387119831,
			"0.013": 2.79261161091,
			"0.014": 5.54863672888,
			"0.015": 1.53760299671,
			"0.016": 0.0172621023241,
			"0.017": 0.0,
			"0.018": 0.0,
			"0.019": 0.0,
			"0.02": 0.0,
			"0.021": 0.0,
			"0.022": 0.0,
			"0.023": 0.0,
			"0.024": 0.0,
			"0.025": 0.0
		}
	}
}
