{
	 "smiles": "CC(=N/C1=CC=C(O)C(C)=C1)C1=C(O)C2=CC=CC=C2N(C2=CC=CC=C2)C1=O", 
	 "Tm": 505.15, 
	 "num_atms": 49, 
	 "gaussian": { 
		 "optdone": 1, 
		 "sigma_profile": "yes", 
		 "theory": "DFT", 
		 "functional": "B3LYP", 
		 "basiset": "6-31G**", 
		 "properties": { 
			 "R2extent": 15956.3547, 
			 "electric_dipole_moment_norm": 2.51816679749, 
			 "electric_quadrupole_moment_norm": 27.4842066207, 
			 "total_energy": -1261.82564731, 
			 "HOMO_LUMO_gap": 0.15146, 
			 "cosmo_polarized_energy": -19.46, 
			 "cosmo_cavitation_energy": 52.14, 
			 "cosmo_dispersion_energy": -36.61, 
			 "cosmo_repulsion_energy": 2.7, 
			 "cosmo_total_nonelectrostatic_energy": 18.24, 
			 "SMD_solvation_energy": 9.38 
		},
		"coords": [
			{
				"x": 0.1714805999,
				"y": 0.0998804461,
				"z": 1.9785390594,
				"element": "C" 
			},
			{
				"x": 0.460753462,
				"y": 0.9392212939,
				"z": 0.7642786328,
				"element": "C" 
			},
			{
				"x": 0.9337145161,
				"y": 2.1799420896,
				"z": 0.9376033982,
				"element": "N" 
			},
			{
				"x": 1.3404757022,
				"y": 2.8334174541,
				"z": 2.1306547043,
				"element": "C" 
			},
			{
				"x": 0.8770587377,
				"y": 4.1329735658,
				"z": 2.3725705505,
				"element": "C" 
			},
			{
				"x": 1.3099081422,
				"y": 4.8323422705,
				"z": 3.4928866453,
				"element": "C" 
			},
			{
				"x": 2.210094558,
				"y": 4.2432433758,
				"z": 4.3853789274,
				"element": "C" 
			},
			{
				"x": 2.5860395589,
				"y": 4.9871148511,
				"z": 5.4681156972,
				"element": "O" 
			},
			{
				"x": 2.7008136423,
				"y": 2.944256631,
				"z": 4.1552239521,
				"element": "C" 
			},
			{
				"x": 3.6914759805,
				"y": 2.3207153749,
				"z": 5.1099718739,
				"element": "C" 
			},
			{
				"x": 2.2616786313,
				"y": 2.2627896388,
				"z": 3.0173606579,
				"element": "C" 
			},
			{
				"x": 0.2068482388,
				"y": 0.50281753,
				"z": -0.569718541,
				"element": "C" 
			},
			{
				"x": 0.3957302037,
				"y": 1.4155162811,
				"z": -1.6811861919,
				"element": "C" 
			},
			{
				"x": 0.8022601579,
				"y": 2.6010134776,
				"z": -1.5459655039,
				"element": "O" 
			},
			{
				"x": 0.0789230039,
				"y": 0.9258462185,
				"z": -3.0323884527,
				"element": "C" 
			},
			{
				"x": 0.2317478531,
				"y": 1.7860800548,
				"z": -4.1316943571,
				"element": "C" 
			},
			{
				"x": -0.0623855468,
				"y": 1.3610544984,
				"z": -5.4180292178,
				"element": "C" 
			},
			{
				"x": -0.5191430372,
				"y": 0.0505071602,
				"z": -5.6129012028,
				"element": "C" 
			},
			{
				"x": -0.6781797287,
				"y": -0.8201203807,
				"z": -4.5420560433,
				"element": "C" 
			},
			{
				"x": -0.3793976613,
				"y": -0.3922093207,
				"z": -3.2334960091,
				"element": "C" 
			},
			{
				"x": -0.5247303775,
				"y": -1.2455409488,
				"z": -2.1358603016,
				"element": "N" 
			},
			{
				"x": -0.9659625188,
				"y": -2.605222514,
				"z": -2.3345816836,
				"element": "C" 
			},
			{
				"x": -2.32828644,
				"y": -2.9062239748,
				"z": -2.289822669,
				"element": "C" 
			},
			{
				"x": -2.7554660052,
				"y": -4.217980266,
				"z": -2.4991690304,
				"element": "C" 
			},
			{
				"x": -1.8234602741,
				"y": -5.2263240827,
				"z": -2.7529327185,
				"element": "C" 
			},
			{
				"x": -0.4614592884,
				"y": -4.9209956157,
				"z": -2.7957346417,
				"element": "C" 
			},
			{
				"x": -0.0306987641,
				"y": -3.6104871264,
				"z": -2.5868151187,
				"element": "C" 
			},
			{
				"x": -0.2390982221,
				"y": -0.8749856574,
				"z": -0.8021835969,
				"element": "C" 
			},
			{
				"x": -0.3736310988,
				"y": -1.7310349258,
				"z": 0.0737320192,
				"element": "O" 
			},
			{
				"x": -0.7979616853,
				"y": -0.384476153,
				"z": 1.8691018147,
				"element": "H" 
			},
			{
				"x": 0.890045771,
				"y": -0.7195504434,
				"z": 2.0680367939,
				"element": "H" 
			},
			{
				"x": 0.1978512339,
				"y": 0.7091113957,
				"z": 2.8820989094,
				"element": "H" 
			},
			{
				"x": 0.1718403037,
				"y": 4.5863653304,
				"z": 1.6828770638,
				"element": "H" 
			},
			{
				"x": 0.9575255419,
				"y": 5.8376980821,
				"z": 3.6973092776,
				"element": "H" 
			},
			{
				"x": 3.2062184191,
				"y": 4.4833576632,
				"z": 6.0096586314,
				"element": "H" 
			},
			{
				"x": 3.9815468061,
				"y": 1.3221619804,
				"z": 4.7756553149,
				"element": "H" 
			},
			{
				"x": 4.6129507906,
				"y": 2.9131480597,
				"z": 5.1915199009,
				"element": "H" 
			},
			{
				"x": 3.2762211858,
				"y": 2.2128430752,
				"z": 6.1213610439,
				"element": "H" 
			},
			{
				"x": 2.6595776083,
				"y": 1.2743950983,
				"z": 2.8092980949,
				"element": "H" 
			},
			{
				"x": 1.0044821223,
				"y": 2.6931594461,
				"z": 0.0259748961,
				"element": "H" 
			},
			{
				"x": 0.5871029837,
				"y": 2.7904395126,
				"z": -3.9290599233,
				"element": "H" 
			},
			{
				"x": 0.0583772071,
				"y": 2.0326383227,
				"z": -6.2621518355,
				"element": "H" 
			},
			{
				"x": -0.7552163724,
				"y": -0.2992127941,
				"z": -6.6142064999,
				"element": "H" 
			},
			{
				"x": -1.0315489543,
				"y": -1.8292526524,
				"z": -4.7114078638,
				"element": "H" 
			},
			{
				"x": -3.041587218,
				"y": -2.1134684733,
				"z": -2.0877383448,
				"element": "H" 
			},
			{
				"x": -3.8154524122,
				"y": -4.4516146683,
				"z": -2.4619428429,
				"element": "H" 
			},
			{
				"x": -2.1572627763,
				"y": -6.2470765281,
				"z": -2.9151946705,
				"element": "H" 
			},
			{
				"x": 0.2669886692,
				"y": -5.7029212227,
				"z": -2.9894274172,
				"element": "H" 
			},
			{
				"x": 1.0250967503,
				"y": -3.3601524302,
				"z": -2.6130431818,
				"element": "H" 
			}
		],
		 "valence_orbital": [ 
			{
				"type": "occ",
				"energy": -0.24811,
				"method": "rhf"
			},
			{
				"type": "occ",
				"energy": -0.23755,
				"method": "rhf"
			},
			{
				"type": "occ",
				"energy": -0.2329,
				"method": "rhf"
			},
			{
				"type": "occ",
				"energy": -0.21094,
				"method": "rhf"
			},
			{
				"type": "occ",
				"energy": -0.20654,
				"method": "rhf"
			},
			{
				"type": "unocc",
				"energy": -0.05508,
				"method": "rhf"
			},
			{
				"type": "unocc",
				"energy": -0.0141,
				"method": "rhf"
			},
			{
				"type": "unocc",
				"energy": -0.01217,
				"method": "rhf"
			},
			{
				"type": "unocc",
				"energy": -0.00584,
				"method": "rhf"
			},
			{
				"type": "unocc",
				"energy": -0.00209,
				"method": "rhf"
			}
		],
		"cosmo_sigma_profile": { 
			"-0.025": 0.0,
			"-0.024": 0.0,
			"-0.023": 0.0,
			"-0.022": 0.0,
			"-0.021": 0.0,
			"-0.02": 0.0,
			"-0.019": 0.0,
			"-0.018": 0.0,
			"-0.017": 0.00692274105491,
			"-0.016": 0.511857907896,
			"-0.015": 1.02372890976,
			"-0.014": 0.900144637238,
			"-0.013": 0.844447216604,
			"-0.012": 0.692601772455,
			"-0.011": 1.20354575813,
			"-0.01": 1.84117955433,
			"-0.009": 1.8514765536,
			"-0.008": 0.850726173409,
			"-0.007": 5.28690639354,
			"-0.006": 25.4051888186,
			"-0.005": 31.8014389166,
			"-0.004": 33.539901144,
			"-0.003": 29.9263635022,
			"-0.002": 33.0307958813,
			"-0.001": 37.026680856,
			"0.0": 36.0892947806,
			"0.001": 29.617230934,
			"0.002": 27.1779618431,
			"0.003": 29.0172555138,
			"0.004": 30.4898647309,
			"0.005": 17.3871479946,
			"0.006": 5.20570900992,
			"0.007": 6.16595785569,
			"0.008": 4.27634743855,
			"0.009": 4.77474609573,
			"0.01": 5.23612056756,
			"0.011": 4.88510598003,
			"0.012": 4.88067829552,
			"0.013": 3.13805647936,
			"0.014": 2.80412512024,
			"0.015": 0.461837648589,
			"0.016": 0.0,
			"0.017": 0.0,
			"0.018": 0.0,
			"0.019": 0.0,
			"0.02": 0.0,
			"0.021": 0.0,
			"0.022": 0.0,
			"0.023": 0.0,
			"0.024": 0.0,
			"0.025": 0.0
		}
	}
}
