{
	 "smiles": "CC1(C)CC2=C(C(=NO2)C(=O)C2=CC=C(Cl)C=C2)C(=O)C1", 
	 "Tm": 399.15, 
	 "num_atms": 35, 
	 "gaussian": { 
		 "optdone": 1, 
		 "sigma_profile": "yes", 
		 "theory": "DFT", 
		 "functional": "B3LYP", 
		 "basiset": "6-31G**", 
		 "properties": { 
			 "R2extent": 9820.7919, 
			 "electric_dipole_moment_norm": 4.78451482389, 
			 "electric_quadrupole_moment_norm": 14.6225075562, 
			 "total_energy": -1358.71489994, 
			 "HOMO_LUMO_gap": 0.17154, 
			 "cosmo_polarized_energy": -16.29, 
			 "cosmo_cavitation_energy": 40.66, 
			 "cosmo_dispersion_energy": -28.77, 
			 "cosmo_repulsion_energy": 2.18, 
			 "cosmo_total_nonelectrostatic_energy": 14.08, 
			 "SMD_solvation_energy": 7.44 
		},
		"coords": [
			{
				"x": -2.2519972621,
				"y": 3.0184663172,
				"z": -3.6558859253,
				"element": "C" 
			},
			{
				"x": -1.5085871873,
				"y": 1.9915175991,
				"z": -2.7854815685,
				"element": "C" 
			},
			{
				"x": -0.3683453522,
				"y": 1.3592981155,
				"z": -3.6093350118,
				"element": "C" 
			},
			{
				"x": -2.5148195197,
				"y": 0.8887376886,
				"z": -2.3384022745,
				"element": "C" 
			},
			{
				"x": -1.9526963386,
				"y": 0.1136587453,
				"z": -1.1991821894,
				"element": "C" 
			},
			{
				"x": -0.9684581372,
				"y": 0.5035544634,
				"z": -0.3325794128,
				"element": "C" 
			},
			{
				"x": -0.8385891934,
				"y": -0.6170645693,
				"z": 0.5530889605,
				"element": "C" 
			},
			{
				"x": -1.6752992761,
				"y": -1.5798681176,
				"z": 0.2375073268,
				"element": "N" 
			},
			{
				"x": -2.39048718,
				"y": -1.1133021227,
				"z": -0.8893840995,
				"element": "O" 
			},
			{
				"x": -0.0067512957,
				"y": -0.6895040367,
				"z": 1.8109942369,
				"element": "C" 
			},
			{
				"x": -0.0060962305,
				"y": 0.292856252,
				"z": 2.5348226312,
				"element": "O" 
			},
			{
				"x": 0.7655219059,
				"y": -1.9191323897,
				"z": 2.138880019,
				"element": "C" 
			},
			{
				"x": 1.4973004268,
				"y": -1.9170465611,
				"z": 3.339028514,
				"element": "C" 
			},
			{
				"x": 2.2550914502,
				"y": -3.0190437524,
				"z": 3.7123010063,
				"element": "C" 
			},
			{
				"x": 2.2821369418,
				"y": -4.1368248561,
				"z": 2.8728062606,
				"element": "C" 
			},
			{
				"x": 3.2369027058,
				"y": -5.5327971911,
				"z": 3.3345424315,
				"element": "Cl" 
			},
			{
				"x": 1.5664242627,
				"y": -4.1636929205,
				"z": 1.6760421515,
				"element": "C" 
			},
			{
				"x": 0.8107706412,
				"y": -3.0513862293,
				"z": 1.3110252016,
				"element": "C" 
			},
			{
				"x": -0.2545830955,
				"y": 1.7801581768,
				"z": -0.5109934511,
				"element": "C" 
			},
			{
				"x": 0.7658482835,
				"y": 2.0816477334,
				"z": 0.080835192,
				"element": "O" 
			},
			{
				"x": -0.9245564978,
				"y": 2.7046110074,
				"z": -1.5333620066,
				"element": "C" 
			},
			{
				"x": -3.0582184371,
				"y": 3.5074908167,
				"z": -3.0981071936,
				"element": "H" 
			},
			{
				"x": -2.6935521033,
				"y": 2.5390014416,
				"z": -4.5367943258,
				"element": "H" 
			},
			{
				"x": -1.5675082526,
				"y": 3.7967273797,
				"z": -4.0086323668,
				"element": "H" 
			},
			{
				"x": 0.3553072877,
				"y": 2.1231140017,
				"z": -3.9115317343,
				"element": "H" 
			},
			{
				"x": 0.1742335677,
				"y": 0.5944888618,
				"z": -3.0450207997,
				"element": "H" 
			},
			{
				"x": -0.7600547709,
				"y": 0.8904699203,
				"z": -4.5185328132,
				"element": "H" 
			},
			{
				"x": -3.4575464046,
				"y": 1.352372442,
				"z": -2.0148297116,
				"element": "H" 
			},
			{
				"x": -2.7638161539,
				"y": 0.2226934003,
				"z": -3.1719019966,
				"element": "H" 
			},
			{
				"x": 1.4564616554,
				"y": -1.0331056221,
				"z": 3.9662350376,
				"element": "H" 
			},
			{
				"x": 2.8205237963,
				"y": -3.0206502101,
				"z": 4.6373909814,
				"element": "H" 
			},
			{
				"x": 1.6018130142,
				"y": -5.0418933424,
				"z": 1.041412618,
				"element": "H" 
			},
			{
				"x": 0.2453575552,
				"y": -3.0737891926,
				"z": 0.3874340703,
				"element": "H" 
			},
			{
				"x": -1.7354540675,
				"y": 3.2288617441,
				"z": -1.0059098947,
				"element": "H" 
			},
			{
				"x": -0.1908767383,
				"y": 3.4609750069,
				"z": -1.8262798635,
				"element": "H" 
			}
		],
		 "valence_orbital": [ 
			{
				"type": "occ",
				"energy": -0.27621,
				"method": "rhf"
			},
			{
				"type": "occ",
				"energy": -0.27329,
				"method": "rhf"
			},
			{
				"type": "occ",
				"energy": -0.26812,
				"method": "rhf"
			},
			{
				"type": "occ",
				"energy": -0.25744,
				"method": "rhf"
			},
			{
				"type": "occ",
				"energy": -0.25074,
				"method": "rhf"
			},
			{
				"type": "unocc",
				"energy": -0.0792,
				"method": "rhf"
			},
			{
				"type": "unocc",
				"energy": -0.04957,
				"method": "rhf"
			},
			{
				"type": "unocc",
				"energy": -0.02897,
				"method": "rhf"
			},
			{
				"type": "unocc",
				"energy": -0.01985,
				"method": "rhf"
			},
			{
				"type": "unocc",
				"energy": 0.02423,
				"method": "rhf"
			}
		],
		"cosmo_sigma_profile": { 
			"-0.025": 0.0,
			"-0.024": 0.0,
			"-0.023": 0.0,
			"-0.022": 0.0,
			"-0.021": 0.0,
			"-0.02": 0.0,
			"-0.019": 0.0,
			"-0.018": 0.0,
			"-0.017": 0.0,
			"-0.016": 0.0,
			"-0.015": 0.0,
			"-0.014": 0.0,
			"-0.013": 0.0,
			"-0.012": 0.0,
			"-0.011": 0.0,
			"-0.01": 0.0,
			"-0.009": 0.0246208575513,
			"-0.008": 2.51564220362,
			"-0.007": 11.5869389702,
			"-0.006": 17.2006369247,
			"-0.005": 18.3077089058,
			"-0.004": 30.2356065965,
			"-0.003": 32.5798764735,
			"-0.002": 26.929747209,
			"-0.001": 27.0837681136,
			"0.0": 32.3671760751,
			"0.001": 30.9124029023,
			"0.002": 20.1317741695,
			"0.003": 12.827596126,
			"0.004": 13.9171473834,
			"0.005": 6.33109630438,
			"0.006": 6.70911635778,
			"0.007": 4.73301619688,
			"0.008": 4.11968330053,
			"0.009": 4.86110075295,
			"0.01": 6.70776771442,
			"0.011": 8.46973638542,
			"0.012": 5.87039096102,
			"0.013": 1.28283744004,
			"0.014": 0.0518539887305,
			"0.015": 0.0,
			"0.016": 0.0,
			"0.017": 0.0,
			"0.018": 0.0,
			"0.019": 0.0,
			"0.02": 0.0,
			"0.021": 0.0,
			"0.022": 0.0,
			"0.023": 0.0,
			"0.024": 0.0,
			"0.025": 0.0
		}
	}
}
