{
	 "smiles": "CC1=CC(NC2=NC3=C(N2)C=CC=C3)=NC=C1", 
	 "Tm": 553.15, 
	 "num_atms": 29, 
	 "gaussian": { 
		 "optdone": 1, 
		 "sigma_profile": "yes", 
		 "theory": "DFT", 
		 "functional": "B3LYP", 
		 "basiset": "6-31G**", 
		 "properties": { 
			 "R2extent": 5768.6883, 
			 "electric_dipole_moment_norm": 1.73487949437, 
			 "electric_quadrupole_moment_norm": 16.2974498346, 
			 "total_energy": -721.65201814, 
			 "HOMO_LUMO_gap": 0.17813, 
			 "cosmo_polarized_energy": -16.4, 
			 "cosmo_cavitation_energy": 33.21, 
			 "cosmo_dispersion_energy": -24.85, 
			 "cosmo_repulsion_energy": 1.91, 
			 "cosmo_total_nonelectrostatic_energy": 10.27, 
			 "SMD_solvation_energy": 2.71 
		},
		"coords": [
			{
				"x": -0.6350886476,
				"y": 5.0488765751,
				"z": 1.4828022511,
				"element": "C" 
			},
			{
				"x": -1.5734161364,
				"y": 4.1043679832,
				"z": 0.7731175105,
				"element": "C" 
			},
			{
				"x": -1.2534221511,
				"y": 2.7552515474,
				"z": 0.625804229,
				"element": "C" 
			},
			{
				"x": -2.1688577118,
				"y": 1.9245062425,
				"z": -0.040235915,
				"element": "C" 
			},
			{
				"x": -1.9643120837,
				"y": 0.5567618807,
				"z": -0.2517352847,
				"element": "N" 
			},
			{
				"x": -0.9045706277,
				"y": -0.2347527956,
				"z": 0.1120369903,
				"element": "C" 
			},
			{
				"x": 0.1794438872,
				"y": 0.1309643102,
				"z": 0.7563921539,
				"element": "N" 
			},
			{
				"x": 0.9319388279,
				"y": -1.0330433487,
				"z": 0.875363484,
				"element": "C" 
			},
			{
				"x": 0.2606709657,
				"y": -2.1254593584,
				"z": 0.2758613465,
				"element": "C" 
			},
			{
				"x": -0.9240536765,
				"y": -1.5813682781,
				"z": -0.2104620329,
				"element": "N" 
			},
			{
				"x": 0.7884727953,
				"y": -3.4127046327,
				"z": 0.250459901,
				"element": "C" 
			},
			{
				"x": 2.0360932007,
				"y": -3.5931581922,
				"z": 0.8529735432,
				"element": "C" 
			},
			{
				"x": 2.7183504341,
				"y": -2.5213397295,
				"z": 1.4532306126,
				"element": "C" 
			},
			{
				"x": 2.1792662921,
				"y": -1.2347383247,
				"z": 1.4726170772,
				"element": "C" 
			},
			{
				"x": -3.3349664745,
				"y": 2.350897569,
				"z": -0.5447890589,
				"element": "N" 
			},
			{
				"x": -3.6246943903,
				"y": 3.6486090673,
				"z": -0.3942514365,
				"element": "C" 
			},
			{
				"x": -2.7930463393,
				"y": 4.5594016155,
				"z": 0.2469021135,
				"element": "C" 
			},
			{
				"x": 0.2852669968,
				"y": 4.545062247,
				"z": 1.7875055553,
				"element": "H" 
			},
			{
				"x": -0.3657861855,
				"y": 5.8929787801,
				"z": 0.8381715482,
				"element": "H" 
			},
			{
				"x": -1.1062380072,
				"y": 5.4674492163,
				"z": 2.3795837042,
				"element": "H" 
			},
			{
				"x": -0.3304499648,
				"y": 2.3363442799,
				"z": 1.0056786459,
				"element": "H" 
			},
			{
				"x": -2.7355034821,
				"y": 0.1333656624,
				"z": -0.7491821739,
				"element": "H" 
			},
			{
				"x": -1.654831917,
				"y": -2.0746907529,
				"z": -0.6983268384,
				"element": "H" 
			},
			{
				"x": 0.2616045397,
				"y": -4.2414317521,
				"z": -0.213422956,
				"element": "H" 
			},
			{
				"x": 2.4851532264,
				"y": -4.5817992252,
				"z": 0.8560654778,
				"element": "H" 
			},
			{
				"x": 3.6864936137,
				"y": -2.7006103371,
				"z": 1.911584378,
				"element": "H" 
			},
			{
				"x": 2.7039444007,
				"y": -0.4051726815,
				"z": 1.9354634182,
				"element": "H" 
			},
			{
				"x": -4.576611539,
				"y": 3.9711352898,
				"z": -0.8127375269,
				"element": "H" 
			},
			{
				"x": -3.086549846,
				"y": 5.6010971425,
				"z": 0.335429283,
				"element": "H" 
			}
		],
		 "valence_orbital": [ 
			{
				"type": "occ",
				"energy": -0.26703,
				"method": "rhf"
			},
			{
				"type": "occ",
				"energy": -0.26202,
				"method": "rhf"
			},
			{
				"type": "occ",
				"energy": -0.24267,
				"method": "rhf"
			},
			{
				"type": "occ",
				"energy": -0.22261,
				"method": "rhf"
			},
			{
				"type": "occ",
				"energy": -0.19506,
				"method": "rhf"
			},
			{
				"type": "unocc",
				"energy": -0.01693,
				"method": "rhf"
			},
			{
				"type": "unocc",
				"energy": -0.00886,
				"method": "rhf"
			},
			{
				"type": "unocc",
				"energy": 0.0157,
				"method": "rhf"
			},
			{
				"type": "unocc",
				"energy": 0.02799,
				"method": "rhf"
			},
			{
				"type": "unocc",
				"energy": 0.05897,
				"method": "rhf"
			}
		],
		"cosmo_sigma_profile": { 
			"-0.025": 0.0,
			"-0.024": 0.0,
			"-0.023": 0.0,
			"-0.022": 0.0,
			"-0.021": 0.0,
			"-0.02": 0.0,
			"-0.019": 0.194797859975,
			"-0.018": 1.24302224326,
			"-0.017": 1.83688552256,
			"-0.016": 2.55296633502,
			"-0.015": 1.66314438356,
			"-0.014": 1.86802176316,
			"-0.013": 1.91824635921,
			"-0.012": 1.06828970437,
			"-0.011": 1.58560905097,
			"-0.01": 1.07696823801,
			"-0.009": 1.2090829637,
			"-0.008": 1.54051174115,
			"-0.007": 1.9360818176,
			"-0.006": 6.56872580247,
			"-0.005": 15.4817553556,
			"-0.004": 20.7441678603,
			"-0.003": 18.6962827755,
			"-0.002": 19.7621961818,
			"-0.001": 16.7631616551,
			"0.0": 18.6627919166,
			"0.001": 17.7471169386,
			"0.002": 21.2724209252,
			"0.003": 22.0452667866,
			"0.004": 18.8065240498,
			"0.005": 14.0893554637,
			"0.006": 11.8904575734,
			"0.007": 7.76150191747,
			"0.008": 4.17021485778,
			"0.009": 2.85753202167,
			"0.01": 1.76085009988,
			"0.011": 2.94365613749,
			"0.012": 2.44494207875,
			"0.013": 0.786894971695,
			"0.014": 0.772950774479,
			"0.015": 0.298287880598,
			"0.016": 0.0,
			"0.017": 0.0,
			"0.018": 0.0,
			"0.019": 0.0,
			"0.02": 0.0,
			"0.021": 0.0,
			"0.022": 0.0,
			"0.023": 0.0,
			"0.024": 0.0,
			"0.025": 0.0
		}
	}
}
