{
	 "smiles": "COC1=CC=CC(CO)=C1O", 
	 "Tm": 334.15, 
	 "num_atms": 21, 
	 "gaussian": { 
		 "optdone": 1, 
		 "sigma_profile": "yes", 
		 "theory": "DFT", 
		 "functional": "B3LYP", 
		 "basiset": "6-31G**", 
		 "properties": { 
			 "R2extent": 2687.0498, 
			 "electric_dipole_moment_norm": 3.84055517211, 
			 "electric_quadrupole_moment_norm": 8.20430777823, 
			 "total_energy": -536.524215552, 
			 "HOMO_LUMO_gap": 0.21347, 
			 "cosmo_polarized_energy": -10.56, 
			 "cosmo_cavitation_energy": 24.27, 
			 "cosmo_dispersion_energy": -18.28, 
			 "cosmo_repulsion_energy": 1.48, 
			 "cosmo_total_nonelectrostatic_energy": 7.48, 
			 "SMD_solvation_energy": 5.22 
		},
		"coords": [
			{
				"x": 0.891250568,
				"y": 3.1345925476,
				"z": -2.0721073925,
				"element": "C" 
			},
			{
				"x": 0.6833584696,
				"y": 3.0167967673,
				"z": -0.6736733735,
				"element": "O" 
			},
			{
				"x": 0.5742968483,
				"y": 1.7529213039,
				"z": -0.1382030815,
				"element": "C" 
			},
			{
				"x": 0.6425362118,
				"y": 0.5539303064,
				"z": -0.8425716729,
				"element": "C" 
			},
			{
				"x": 0.5143651133,
				"y": -0.6535852301,
				"z": -0.1449956234,
				"element": "C" 
			},
			{
				"x": 0.3232929526,
				"y": -0.6547530016,
				"z": 1.2335458944,
				"element": "C" 
			},
			{
				"x": 0.2588849014,
				"y": 0.5467491042,
				"z": 1.9530997666,
				"element": "C" 
			},
			{
				"x": 0.0521154636,
				"y": 0.5634717699,
				"z": 3.4558815257,
				"element": "C" 
			},
			{
				"x": 0.3569054593,
				"y": -0.6748893393,
				"z": 4.0830317718,
				"element": "O" 
			},
			{
				"x": 0.3806380607,
				"y": 1.7506851695,
				"z": 1.256599833,
				"element": "C" 
			},
			{
				"x": 0.3109444512,
				"y": 2.9349199025,
				"z": 1.9350111575,
				"element": "O" 
			},
			{
				"x": 0.0581908842,
				"y": 2.6991630314,
				"z": -2.6380696,
				"element": "H" 
			},
			{
				"x": 1.8267763159,
				"y": 2.6505828235,
				"z": -2.3795943765,
				"element": "H" 
			},
			{
				"x": 0.9512634653,
				"y": 4.2032989416,
				"z": -2.2836549211,
				"element": "H" 
			},
			{
				"x": 0.7909147961,
				"y": 0.5497283276,
				"z": -1.9163533849,
				"element": "H" 
			},
			{
				"x": 0.5628045285,
				"y": -1.5913529975,
				"z": -0.6899395742,
				"element": "H" 
			},
			{
				"x": 0.2204065504,
				"y": -1.5861677304,
				"z": 1.7800536103,
				"element": "H" 
			},
			{
				"x": -1.0018901156,
				"y": 0.7571004986,
				"z": 3.6882084086,
				"element": "H" 
			},
			{
				"x": 0.6235868354,
				"y": 1.3935020929,
				"z": 3.8953149642,
				"element": "H" 
			},
			{
				"x": 1.2944970286,
				"y": -0.8516662279,
				"z": 3.9288334758,
				"element": "H" 
			},
			{
				"x": 0.4393612113,
				"y": 3.6402719401,
				"z": 1.2821825924,
				"element": "H" 
			}
		],
		 "valence_orbital": [ 
			{
				"type": "occ",
				"energy": -0.32488,
				"method": "rhf"
			},
			{
				"type": "occ",
				"energy": -0.31486,
				"method": "rhf"
			},
			{
				"type": "occ",
				"energy": -0.26776,
				"method": "rhf"
			},
			{
				"type": "occ",
				"energy": -0.22993,
				"method": "rhf"
			},
			{
				"type": "occ",
				"energy": -0.20513,
				"method": "rhf"
			},
			{
				"type": "unocc",
				"energy": 0.00834,
				"method": "rhf"
			},
			{
				"type": "unocc",
				"energy": 0.01846,
				"method": "rhf"
			},
			{
				"type": "unocc",
				"energy": 0.07531,
				"method": "rhf"
			},
			{
				"type": "unocc",
				"energy": 0.09117,
				"method": "rhf"
			},
			{
				"type": "unocc",
				"energy": 0.09383,
				"method": "rhf"
			}
		],
		"cosmo_sigma_profile": { 
			"-0.025": 0.0,
			"-0.024": 0.0,
			"-0.023": 0.0,
			"-0.022": 0.0,
			"-0.021": 0.0,
			"-0.02": 0.0,
			"-0.019": 0.0,
			"-0.018": 0.0,
			"-0.017": 0.0,
			"-0.016": 0.156455897963,
			"-0.015": 0.707199903596,
			"-0.014": 1.63819433465,
			"-0.013": 1.11841321252,
			"-0.012": 0.562448533365,
			"-0.011": 2.33684972021,
			"-0.01": 1.48554894293,
			"-0.009": 0.957315228256,
			"-0.008": 1.63702524125,
			"-0.007": 2.11433817035,
			"-0.006": 7.9501650302,
			"-0.005": 15.5314067572,
			"-0.004": 18.5024626175,
			"-0.003": 18.4705176604,
			"-0.002": 12.7896432564,
			"-0.001": 10.756066439,
			"0.0": 8.19585516956,
			"0.001": 10.201673576,
			"0.002": 11.7390075321,
			"0.003": 13.6469046392,
			"0.004": 10.7176226593,
			"0.005": 10.8172037253,
			"0.006": 9.18734893496,
			"0.007": 5.32573129017,
			"0.008": 2.9074729602,
			"0.009": 2.70906585495,
			"0.01": 2.59496809696,
			"0.011": 1.55671012874,
			"0.012": 1.59954877366,
			"0.013": 1.82013264688,
			"0.014": 1.74870594572,
			"0.015": 0.16299075543,
			"0.016": 0.0,
			"0.017": 0.0,
			"0.018": 0.0,
			"0.019": 0.0,
			"0.02": 0.0,
			"0.021": 0.0,
			"0.022": 0.0,
			"0.023": 0.0,
			"0.024": 0.0,
			"0.025": 0.0
		}
	}
}
