{
	 "smiles": "CCC(C)(CC)C1=NOC(NC(=O)C2=C(OC)C=CC=C2OC)=C1", 
	 "Tm": 451.15, 
	 "num_atms": 48, 
	 "gaussian": { 
		 "optdone": 1, 
		 "sigma_profile": "yes", 
		 "theory": "DFT", 
		 "functional": "B3LYP", 
		 "basiset": "6-31G**", 
		 "properties": { 
			 "R2extent": 11062.4053, 
			 "electric_dipole_moment_norm": 4.61289148041, 
			 "electric_quadrupole_moment_norm": 19.7718649295, 
			 "total_energy": -1110.7284415, 
			 "HOMO_LUMO_gap": 0.17034, 
			 "cosmo_polarized_energy": -14.73, 
			 "cosmo_cavitation_energy": 49.81, 
			 "cosmo_dispersion_energy": -33.64, 
			 "cosmo_repulsion_energy": 2.58, 
			 "cosmo_total_nonelectrostatic_energy": 18.75, 
			 "SMD_solvation_energy": 10.36 
		},
		"coords": [
			{
				"x": -0.3878644361,
				"y": -4.5585624831,
				"z": -2.1673655666,
				"element": "C" 
			},
			{
				"x": -0.3806262641,
				"y": -5.0820909508,
				"z": -0.727068924,
				"element": "C" 
			},
			{
				"x": 0.3653762318,
				"y": -4.204667436,
				"z": 0.3216494424,
				"element": "C" 
			},
			{
				"x": 1.8522433027,
				"y": -4.0687239251,
				"z": -0.055605095,
				"element": "C" 
			},
			{
				"x": 0.2205419818,
				"y": -4.9097775508,
				"z": 1.7034759078,
				"element": "C" 
			},
			{
				"x": 0.8611331888,
				"y": -4.1974796462,
				"z": 2.8996813641,
				"element": "C" 
			},
			{
				"x": -0.2933690099,
				"y": -2.8312105389,
				"z": 0.3889260819,
				"element": "C" 
			},
			{
				"x": -1.5777215983,
				"y": -2.747204184,
				"z": 0.6744287186,
				"element": "N" 
			},
			{
				"x": -1.8769293568,
				"y": -1.3663239265,
				"z": 0.6643875348,
				"element": "O" 
			},
			{
				"x": -0.7520121896,
				"y": -0.6884322793,
				"z": 0.3709676058,
				"element": "C" 
			},
			{
				"x": -0.9088785603,
				"y": 0.6816670237,
				"z": 0.3384399168,
				"element": "N" 
			},
			{
				"x": 0.0846379579,
				"y": 1.5665473026,
				"z": -0.0431264044,
				"element": "C" 
			},
			{
				"x": 1.2017023191,
				"y": 1.1809821553,
				"z": -0.3600222258,
				"element": "O" 
			},
			{
				"x": -0.3038841659,
				"y": 3.021250961,
				"z": -0.0210837778,
				"element": "C" 
			},
			{
				"x": 0.670386714,
				"y": 3.9909751901,
				"z": 0.31912883,
				"element": "C" 
			},
			{
				"x": 1.8978863286,
				"y": 3.6140679863,
				"z": 0.788523191,
				"element": "O" 
			},
			{
				"x": 2.9716214015,
				"y": 3.6498032946,
				"z": -0.1580496768,
				"element": "C" 
			},
			{
				"x": 0.3638493601,
				"y": 5.354134053,
				"z": 0.2773663272,
				"element": "C" 
			},
			{
				"x": -0.9099403982,
				"y": 5.7809686744,
				"z": -0.0882446814,
				"element": "C" 
			},
			{
				"x": -1.8959959657,
				"y": 4.8466733865,
				"z": -0.3969514777,
				"element": "C" 
			},
			{
				"x": -1.5962141775,
				"y": 3.4860194455,
				"z": -0.3487329839,
				"element": "C" 
			},
			{
				"x": -2.6191090066,
				"y": 2.581201683,
				"z": -0.5867153338,
				"element": "O" 
			},
			{
				"x": -2.9140542215,
				"y": 2.3418998491,
				"z": -1.9692085374,
				"element": "C" 
			},
			{
				"x": 0.2946939064,
				"y": -1.5472397795,
				"z": 0.1820766254,
				"element": "C" 
			},
			{
				"x": -0.9797548692,
				"y": -5.221375272,
				"z": -2.8071501581,
				"element": "H" 
			},
			{
				"x": 0.6180654787,
				"y": -4.5066601552,
				"z": -2.5959011455,
				"element": "H" 
			},
			{
				"x": -0.8315792482,
				"y": -3.5597839764,
				"z": -2.2268577723,
				"element": "H" 
			},
			{
				"x": 0.072515356,
				"y": -6.0822564558,
				"z": -0.7064142252,
				"element": "H" 
			},
			{
				"x": -1.4156318515,
				"y": -5.198419154,
				"z": -0.3877134961,
				"element": "H" 
			},
			{
				"x": 2.4064867775,
				"y": -3.4768024085,
				"z": 0.6778563305,
				"element": "H" 
			},
			{
				"x": 2.315254931,
				"y": -5.0602768925,
				"z": -0.1040403966,
				"element": "H" 
			},
			{
				"x": 1.9835475773,
				"y": -3.5901513201,
				"z": -1.0299928474,
				"element": "H" 
			},
			{
				"x": -0.8494804478,
				"y": -5.0388397694,
				"z": 1.8998064181,
				"element": "H" 
			},
			{
				"x": 0.6477553701,
				"y": -5.9171260033,
				"z": 1.6088416296,
				"element": "H" 
			},
			{
				"x": 1.94871802,
				"y": -4.1193482321,
				"z": 2.8033281432,
				"element": "H" 
			},
			{
				"x": 0.6557650825,
				"y": -4.75037065,
				"z": 3.8221768848,
				"element": "H" 
			},
			{
				"x": 0.4607646825,
				"y": -3.1866283934,
				"z": 3.0249852044,
				"element": "H" 
			},
			{
				"x": -1.8524033977,
				"y": 1.0418155493,
				"z": 0.437305467,
				"element": "H" 
			},
			{
				"x": 3.0686040834,
				"y": 4.6459487344,
				"z": -0.6091124993,
				"element": "H" 
			},
			{
				"x": 3.8779205003,
				"y": 3.4197980346,
				"z": 0.404869272,
				"element": "H" 
			},
			{
				"x": 2.8180488005,
				"y": 2.8938517313,
				"z": -0.932422112,
				"element": "H" 
			},
			{
				"x": 1.1323824935,
				"y": 6.0625549835,
				"z": 0.5684343884,
				"element": "H" 
			},
			{
				"x": -1.1426045875,
				"y": 6.8413954914,
				"z": -0.1084633054,
				"element": "H" 
			},
			{
				"x": -2.9067182642,
				"y": 5.1514285727,
				"z": -0.6473196178,
				"element": "H" 
			},
			{
				"x": -3.1836061761,
				"y": 3.2743871707,
				"z": -2.4777005518,
				"element": "H" 
			},
			{
				"x": -2.0588698201,
				"y": 1.8850984858,
				"z": -2.4816496804,
				"element": "H" 
			},
			{
				"x": -3.7622444101,
				"y": 1.6558801805,
				"z": -1.9899267888,
				"element": "H" 
			},
			{
				"x": 1.3068905767,
				"y": -1.2851985563,
				"z": -0.0658160026,
				"element": "H" 
			}
		],
		 "valence_orbital": [ 
			{
				"type": "occ",
				"energy": -0.2718,
				"method": "rhf"
			},
			{
				"type": "occ",
				"energy": -0.26798,
				"method": "rhf"
			},
			{
				"type": "occ",
				"energy": -0.26065,
				"method": "rhf"
			},
			{
				"type": "occ",
				"energy": -0.24789,
				"method": "rhf"
			},
			{
				"type": "occ",
				"energy": -0.22007,
				"method": "rhf"
			},
			{
				"type": "unocc",
				"energy": -0.04973,
				"method": "rhf"
			},
			{
				"type": "unocc",
				"energy": -0.01468,
				"method": "rhf"
			},
			{
				"type": "unocc",
				"energy": 0.00452,
				"method": "rhf"
			},
			{
				"type": "unocc",
				"energy": 0.04279,
				"method": "rhf"
			},
			{
				"type": "unocc",
				"energy": 0.07608,
				"method": "rhf"
			}
		],
		"cosmo_sigma_profile": { 
			"-0.025": 0.0,
			"-0.024": 0.0,
			"-0.023": 0.0,
			"-0.022": 0.0,
			"-0.021": 0.0,
			"-0.02": 0.0,
			"-0.019": 0.0,
			"-0.018": 0.0,
			"-0.017": 0.0,
			"-0.016": 0.0,
			"-0.015": 0.0,
			"-0.014": 0.0,
			"-0.013": 0.0,
			"-0.012": 0.0,
			"-0.011": 0.408165572817,
			"-0.01": 0.68659823481,
			"-0.009": 0.460893821648,
			"-0.008": 1.61757299913,
			"-0.007": 5.01171668095,
			"-0.006": 13.042836805,
			"-0.005": 22.648805167,
			"-0.004": 25.0259638196,
			"-0.003": 42.6895396413,
			"-0.002": 45.1249198914,
			"-0.001": 39.7165070003,
			"0.0": 47.2690003444,
			"0.001": 41.3021875372,
			"0.002": 27.4061847153,
			"0.003": 19.6345068698,
			"0.004": 9.95693408942,
			"0.005": 7.31199779086,
			"0.006": 6.04678881751,
			"0.007": 6.12638002939,
			"0.008": 8.7135986599,
			"0.009": 5.51927195746,
			"0.01": 5.94084695749,
			"0.011": 5.27665685795,
			"0.012": 2.59210842475,
			"0.013": 1.20112515216,
			"0.014": 0.662392147553,
			"0.015": 0.467683932965,
			"0.016": 0.0,
			"0.017": 0.0,
			"0.018": 0.0,
			"0.019": 0.0,
			"0.02": 0.0,
			"0.021": 0.0,
			"0.022": 0.0,
			"0.023": 0.0,
			"0.024": 0.0,
			"0.025": 0.0
		}
	}
}
