{
	 "smiles": "[O-][S+](CC1=CC=CC=C1)CC1=CC=CC=C1", 
	 "Tm": 407.15, 
	 "num_atms": 30, 
	 "gaussian": { 
		 "optdone": 1, 
		 "sigma_profile": "yes", 
		 "theory": "DFT", 
		 "functional": "B3LYP", 
		 "basiset": "6-31G**", 
		 "properties": { 
			 "R2extent": 4943.5639, 
			 "electric_dipole_moment_norm": 3.7001653936, 
			 "electric_quadrupole_moment_norm": 10.9736477736, 
			 "total_energy": -1015.29783997, 
			 "HOMO_LUMO_gap": 0.1984, 
			 "cosmo_polarized_energy": -12.91, 
			 "cosmo_cavitation_energy": 34.36, 
			 "cosmo_dispersion_energy": -24.23, 
			 "cosmo_repulsion_energy": 1.83, 
			 "cosmo_total_nonelectrostatic_energy": 11.96, 
			 "SMD_solvation_energy": 4.88 
		},
		"coords": [
			{
				"x": 1.771290687,
				"y": 1.1937067298,
				"z": -2.4458171856,
				"element": "O" 
			},
			{
				"x": 1.3601363387,
				"y": 0.3586148794,
				"z": -1.2512369653,
				"element": "S" 
			},
			{
				"x": 1.6180327108,
				"y": 1.3980100024,
				"z": 0.2881057161,
				"element": "C" 
			},
			{
				"x": 0.9772660762,
				"y": 2.7556414405,
				"z": 0.2736995778,
				"element": "C" 
			},
			{
				"x": 0.0181315856,
				"y": 3.0994258879,
				"z": 1.2385244129,
				"element": "C" 
			},
			{
				"x": -0.574186735,
				"y": 4.3632445308,
				"z": 1.2385986678,
				"element": "C" 
			},
			{
				"x": -0.2215399802,
				"y": 5.299530043,
				"z": 0.2653260821,
				"element": "C" 
			},
			{
				"x": 0.7280996287,
				"y": 4.9651238157,
				"z": -0.7026875963,
				"element": "C" 
			},
			{
				"x": 1.3298988318,
				"y": 3.7066347902,
				"z": -0.6992435221,
				"element": "C" 
			},
			{
				"x": -0.5068367607,
				"y": 0.3061180342,
				"z": -1.2587077308,
				"element": "C" 
			},
			{
				"x": -1.0707184264,
				"y": -0.5754930647,
				"z": -0.1799947278,
				"element": "C" 
			},
			{
				"x": -1.8720900336,
				"y": -0.0426064219,
				"z": 0.8401316474,
				"element": "C" 
			},
			{
				"x": -2.3934540879,
				"y": -0.8641442812,
				"z": 1.8408832808,
				"element": "C" 
			},
			{
				"x": -2.1144031618,
				"y": -2.2317721007,
				"z": 1.8418491132,
				"element": "C" 
			},
			{
				"x": -1.3157790817,
				"y": -2.7739969718,
				"z": 0.8324542057,
				"element": "C" 
			},
			{
				"x": -0.8000262639,
				"y": -1.9533711297,
				"z": -0.1701393481,
				"element": "C" 
			},
			{
				"x": 1.2790222045,
				"y": 0.7823904925,
				"z": 1.1265341929,
				"element": "H" 
			},
			{
				"x": 2.7100204654,
				"y": 1.4636915789,
				"z": 0.3300985622,
				"element": "H" 
			},
			{
				"x": -0.2546366473,
				"y": 2.3752970864,
				"z": 2.0018310199,
				"element": "H" 
			},
			{
				"x": -1.306852778,
				"y": 4.6159032629,
				"z": 2.0000034155,
				"element": "H" 
			},
			{
				"x": -0.6805957379,
				"y": 6.2840167423,
				"z": 0.2632468877,
				"element": "H" 
			},
			{
				"x": 1.0065004098,
				"y": 5.6892957333,
				"z": -1.4630664053,
				"element": "H" 
			},
			{
				"x": 2.0550500583,
				"y": 3.4421799845,
				"z": -1.4605660929,
				"element": "H" 
			},
			{
				"x": -0.863790708,
				"y": 1.3371767365,
				"z": -1.2049916718,
				"element": "H" 
			},
			{
				"x": -0.7139844146,
				"y": -0.0790025371,
				"z": -2.2619419112,
				"element": "H" 
			},
			{
				"x": -2.0949478637,
				"y": 1.0204895362,
				"z": 0.8403871329,
				"element": "H" 
			},
			{
				"x": -3.0199540364,
				"y": -0.4352474252,
				"z": 2.6178734963,
				"element": "H" 
			},
			{
				"x": -2.5195449801,
				"y": -2.8716238159,
				"z": 2.6203391828,
				"element": "H" 
			},
			{
				"x": -1.0975600689,
				"y": -3.8380503567,
				"z": 0.822983131,
				"element": "H" 
			},
			{
				"x": -0.1850472308,
				"y": -2.3839832021,
				"z": -0.9561765678,
				"element": "H" 
			}
		],
		 "valence_orbital": [ 
			{
				"type": "occ",
				"energy": -0.26154,
				"method": "rhf"
			},
			{
				"type": "occ",
				"energy": -0.2569,
				"method": "rhf"
			},
			{
				"type": "occ",
				"energy": -0.25032,
				"method": "rhf"
			},
			{
				"type": "occ",
				"energy": -0.23804,
				"method": "rhf"
			},
			{
				"type": "occ",
				"energy": -0.21851,
				"method": "rhf"
			},
			{
				"type": "unocc",
				"energy": -0.02011,
				"method": "rhf"
			},
			{
				"type": "unocc",
				"energy": -0.01378,
				"method": "rhf"
			},
			{
				"type": "unocc",
				"energy": -0.01288,
				"method": "rhf"
			},
			{
				"type": "unocc",
				"energy": -0.00302,
				"method": "rhf"
			},
			{
				"type": "unocc",
				"energy": 0.04596,
				"method": "rhf"
			}
		],
		"cosmo_sigma_profile": { 
			"-0.025": 0.0,
			"-0.024": 0.0,
			"-0.023": 0.0,
			"-0.022": 0.0,
			"-0.021": 0.0,
			"-0.02": 0.0,
			"-0.019": 0.0,
			"-0.018": 0.0,
			"-0.017": 0.0,
			"-0.016": 0.0,
			"-0.015": 0.0,
			"-0.014": 0.0,
			"-0.013": 0.0,
			"-0.012": 0.0,
			"-0.011": 0.0,
			"-0.01": 0.0,
			"-0.009": 0.0,
			"-0.008": 0.886172200507,
			"-0.007": 5.70468544361,
			"-0.006": 15.3129538548,
			"-0.005": 25.9058579118,
			"-0.004": 29.586247819,
			"-0.003": 31.0010924309,
			"-0.002": 21.5854066923,
			"-0.001": 16.6994649498,
			"0.0": 15.2039980202,
			"0.001": 17.0722914185,
			"0.002": 15.4752500286,
			"0.003": 16.969010127,
			"0.004": 17.644126862,
			"0.005": 18.1751552801,
			"0.006": 8.51940621027,
			"0.007": 1.53128514537,
			"0.008": 1.3893936837,
			"0.009": 1.3546111423,
			"0.01": 1.60895169516,
			"0.011": 1.50686140211,
			"0.012": 0.952988269533,
			"0.013": 2.27602371234,
			"0.014": 3.16422137552,
			"0.015": 3.82734756473,
			"0.016": 1.20884242197,
			"0.017": 0.0,
			"0.018": 0.0,
			"0.019": 0.0,
			"0.02": 0.0,
			"0.021": 0.0,
			"0.022": 0.0,
			"0.023": 0.0,
			"0.024": 0.0,
			"0.025": 0.0
		}
	}
}
