{
	 "smiles": "NCC1=C(C=CC=C1)C1=CC=C(CN2CCCC2=O)C=C1", 
	 "Tm": 356.15, 
	 "num_atms": 41, 
	 "gaussian": { 
		 "optdone": 1, 
		 "sigma_profile": "yes", 
		 "theory": "DFT", 
		 "functional": "B3LYP", 
		 "basiset": "6-31G**", 
		 "properties": { 
			 "R2extent": 8969.7812, 
			 "electric_dipole_moment_norm": 3.56593260172, 
			 "electric_quadrupole_moment_norm": 22.5261490679, 
			 "total_energy": -882.721127742, 
			 "HOMO_LUMO_gap": 0.20354, 
			 "cosmo_polarized_energy": -16.39, 
			 "cosmo_cavitation_energy": 43.44, 
			 "cosmo_dispersion_energy": -29.98, 
			 "cosmo_repulsion_energy": 2.33, 
			 "cosmo_total_nonelectrostatic_energy": 15.79, 
			 "SMD_solvation_energy": 5.63 
		},
		"coords": [
			{
				"x": -3.1009650726,
				"y": -2.5092428124,
				"z": -1.79397675,
				"element": "N" 
			},
			{
				"x": -2.1317353355,
				"y": -1.9582981313,
				"z": -0.8507364436,
				"element": "C" 
			},
			{
				"x": -2.5991922171,
				"y": -1.6748812813,
				"z": 0.5812340579,
				"element": "C" 
			},
			{
				"x": -1.8459260147,
				"y": -0.8436427344,
				"z": 1.4447922492,
				"element": "C" 
			},
			{
				"x": -2.3386034084,
				"y": -0.5642014121,
				"z": 2.7284760261,
				"element": "C" 
			},
			{
				"x": -3.5434505319,
				"y": -1.1025556648,
				"z": 3.1792637171,
				"element": "C" 
			},
			{
				"x": -4.2786710342,
				"y": -1.931696538,
				"z": 2.3354960986,
				"element": "C" 
			},
			{
				"x": -3.8058796432,
				"y": -2.2036726295,
				"z": 1.0506628473,
				"element": "C" 
			},
			{
				"x": -0.547209868,
				"y": -0.2296185663,
				"z": 1.0357572512,
				"element": "C" 
			},
			{
				"x": -0.3893999862,
				"y": 1.1637102098,
				"z": 1.0460665035,
				"element": "C" 
			},
			{
				"x": 0.8284032227,
				"y": 1.7505702298,
				"z": 0.6964157147,
				"element": "C" 
			},
			{
				"x": 1.925601563,
				"y": 0.9643350205,
				"z": 0.3348567832,
				"element": "C" 
			},
			{
				"x": 3.2561153378,
				"y": 1.5881283143,
				"z": -0.0443962078,
				"element": "C" 
			},
			{
				"x": 3.65399923,
				"y": 1.3006018309,
				"z": -1.4127010159,
				"element": "N" 
			},
			{
				"x": 2.996181793,
				"y": 1.8899472237,
				"z": -2.5714933131,
				"element": "C" 
			},
			{
				"x": 3.5831217671,
				"y": 1.0904796422,
				"z": -3.7562364124,
				"element": "C" 
			},
			{
				"x": 4.9418640754,
				"y": 0.5952510734,
				"z": -3.2341942282,
				"element": "C" 
			},
			{
				"x": 4.7743094092,
				"y": 0.5645334038,
				"z": -1.7139869343,
				"element": "C" 
			},
			{
				"x": 5.4998732777,
				"y": 0.0120384666,
				"z": -0.8999581483,
				"element": "O" 
			},
			{
				"x": 1.7763345862,
				"y": -0.4299523071,
				"z": 0.3328581372,
				"element": "C" 
			},
			{
				"x": 0.5619306328,
				"y": -1.015998987,
				"z": 0.6768465988,
				"element": "C" 
			},
			{
				"x": -3.3933584457,
				"y": -3.4405942478,
				"z": -1.5111776372,
				"element": "H" 
			},
			{
				"x": -3.9399549823,
				"y": -1.9347476872,
				"z": -1.8195870359,
				"element": "H" 
			},
			{
				"x": -1.7373455565,
				"y": -1.0283146203,
				"z": -1.2762203329,
				"element": "H" 
			},
			{
				"x": -1.2785064647,
				"y": -2.6466183177,
				"z": -0.8300864404,
				"element": "H" 
			},
			{
				"x": -1.7532601325,
				"y": 0.075541664,
				"z": 3.3832170344,
				"element": "H" 
			},
			{
				"x": -3.8996456478,
				"y": -0.8767242603,
				"z": 4.1802122742,
				"element": "H" 
			},
			{
				"x": -5.2191610746,
				"y": -2.3615159441,
				"z": 2.6688478641,
				"element": "H" 
			},
			{
				"x": -4.3979455698,
				"y": -2.8296185539,
				"z": 0.3895512711,
				"element": "H" 
			},
			{
				"x": -1.2336641695,
				"y": 1.79125786,
				"z": 1.3174574933,
				"element": "H" 
			},
			{
				"x": 0.9240259066,
				"y": 2.8340746604,
				"z": 0.7065609272,
				"element": "H" 
			},
			{
				"x": 4.0601354225,
				"y": 1.191078537,
				"z": 0.5836575296,
				"element": "H" 
			},
			{
				"x": 3.2140546473,
				"y": 2.6754641814,
				"z": 0.1051725644,
				"element": "H" 
			},
			{
				"x": 3.2275211722,
				"y": 2.9642624766,
				"z": -2.6451442495,
				"element": "H" 
			},
			{
				"x": 1.9083922187,
				"y": 1.7898432719,
				"z": -2.4933493003,
				"element": "H" 
			},
			{
				"x": 2.9342429057,
				"y": 0.2370735941,
				"z": -3.9762941103,
				"element": "H" 
			},
			{
				"x": 3.6563337342,
				"y": 1.6951749936,
				"z": -4.6631407308,
				"element": "H" 
			},
			{
				"x": 5.2385629509,
				"y": -0.3878281573,
				"z": -3.6055835646,
				"element": "H" 
			},
			{
				"x": 5.7559453805,
				"y": 1.2923878875,
				"z": -3.4684577595,
				"element": "H" 
			},
			{
				"x": 2.6262368163,
				"y": -1.0548513993,
				"z": 0.0708916927,
				"element": "H" 
			},
			{
				"x": 0.4765891055,
				"y": -2.0985802893,
				"z": 0.6947259793,
				"element": "H" 
			}
		],
		 "valence_orbital": [ 
			{
				"type": "occ",
				"energy": -0.24765,
				"method": "rhf"
			},
			{
				"type": "occ",
				"energy": -0.24245,
				"method": "rhf"
			},
			{
				"type": "occ",
				"energy": -0.23817,
				"method": "rhf"
			},
			{
				"type": "occ",
				"energy": -0.23533,
				"method": "rhf"
			},
			{
				"type": "occ",
				"energy": -0.22645,
				"method": "rhf"
			},
			{
				"type": "unocc",
				"energy": -0.02291,
				"method": "rhf"
			},
			{
				"type": "unocc",
				"energy": -0.00717,
				"method": "rhf"
			},
			{
				"type": "unocc",
				"energy": 0.00318,
				"method": "rhf"
			},
			{
				"type": "unocc",
				"energy": 0.01395,
				"method": "rhf"
			},
			{
				"type": "unocc",
				"energy": 0.03507,
				"method": "rhf"
			}
		],
		"cosmo_sigma_profile": { 
			"-0.025": 0.0,
			"-0.024": 0.0,
			"-0.023": 0.0,
			"-0.022": 0.0,
			"-0.021": 0.0,
			"-0.02": 0.0,
			"-0.019": 0.0,
			"-0.018": 0.0,
			"-0.017": 0.0,
			"-0.016": 0.0,
			"-0.015": 0.0,
			"-0.014": 0.0,
			"-0.013": 0.0,
			"-0.012": 0.0,
			"-0.011": 0.0,
			"-0.01": 1.11862926339,
			"-0.009": 2.54281014724,
			"-0.008": 2.91235508995,
			"-0.007": 4.21926215845,
			"-0.006": 9.89135415874,
			"-0.005": 25.0233635815,
			"-0.004": 39.8212613466,
			"-0.003": 44.3443711571,
			"-0.002": 35.2053336141,
			"-0.001": 30.4197014788,
			"0.0": 22.3258366904,
			"0.001": 18.6092505039,
			"0.002": 16.6326998757,
			"0.003": 17.7878572175,
			"0.004": 15.2309324721,
			"0.005": 16.3114849953,
			"0.006": 11.5408377825,
			"0.007": 3.67568575163,
			"0.008": 1.96279666761,
			"0.009": 2.15781574188,
			"0.01": 1.96173239538,
			"0.011": 1.79100652083,
			"0.012": 2.06279180336,
			"0.013": 3.5019060873,
			"0.014": 6.30281972625,
			"0.015": 2.58188200248,
			"0.016": 0.898990912419,
			"0.017": 0.53245635241,
			"0.018": 0.811991609517,
			"0.019": 0.487809962193,
			"0.02": 0.0557965544585,
			"0.021": 0.0,
			"0.022": 0.0,
			"0.023": 0.0,
			"0.024": 0.0,
			"0.025": 0.0
		}
	}
}
