{
	 "smiles": "CC(C)COC1=CC=C(C=C1)C1=NN(C=C1C=O)C1=CC=CC=C1", 
	 "Tm": 374.15, 
	 "num_atms": 44, 
	 "gaussian": { 
		 "optdone": 1, 
		 "sigma_profile": "yes", 
		 "theory": "DFT", 
		 "functional": "B3LYP", 
		 "basiset": "6-31G**", 
		 "properties": { 
			 "R2extent": 14347.8524, 
			 "electric_dipole_moment_norm": 3.92891790955, 
			 "electric_quadrupole_moment_norm": 29.0376539342, 
			 "total_energy": -1034.11816155, 
			 "HOMO_LUMO_gap": 0.15949, 
			 "cosmo_polarized_energy": -14.08, 
			 "cosmo_cavitation_energy": 48.36, 
			 "cosmo_dispersion_energy": -34.09, 
			 "cosmo_repulsion_energy": 2.57, 
			 "cosmo_total_nonelectrostatic_energy": 16.83, 
			 "SMD_solvation_energy": 8.71 
		},
		"coords": [
			{
				"x": 0.7904963538,
				"y": 6.7960419502,
				"z": -0.4586265775,
				"element": "C" 
			},
			{
				"x": -0.646097323,
				"y": 6.3155402349,
				"z": -0.2146693975,
				"element": "C" 
			},
			{
				"x": -1.359806068,
				"y": 7.1736409976,
				"z": 0.8395135537,
				"element": "C" 
			},
			{
				"x": -0.6823608291,
				"y": 4.8461667593,
				"z": 0.205594036,
				"element": "C" 
			},
			{
				"x": -0.1313520661,
				"y": 4.061039424,
				"z": -0.8516829434,
				"element": "O" 
			},
			{
				"x": -0.038263049,
				"y": 2.7119507503,
				"z": -0.6945738881,
				"element": "C" 
			},
			{
				"x": -0.4632190759,
				"y": 2.0086331553,
				"z": 0.441180258,
				"element": "C" 
			},
			{
				"x": -0.3232488265,
				"y": 0.6225394152,
				"z": 0.4879587002,
				"element": "C" 
			},
			{
				"x": 0.2342887763,
				"y": -0.0941453077,
				"z": -0.5798246886,
				"element": "C" 
			},
			{
				"x": 0.6685309342,
				"y": 0.6295919579,
				"z": -1.7061420846,
				"element": "C" 
			},
			{
				"x": 0.5323327792,
				"y": 2.0092201801,
				"z": -1.766888452,
				"element": "C" 
			},
			{
				"x": 0.3783442452,
				"y": -1.5564781262,
				"z": -0.4939768983,
				"element": "C" 
			},
			{
				"x": 0.6417036193,
				"y": -2.1317010872,
				"z": 0.6790292556,
				"element": "N" 
			},
			{
				"x": 0.7132943614,
				"y": -3.4718025697,
				"z": 0.4249258432,
				"element": "N" 
			},
			{
				"x": 0.5005483778,
				"y": -3.7523212935,
				"z": -0.8809094743,
				"element": "C" 
			},
			{
				"x": 0.2742642842,
				"y": -2.5463577233,
				"z": -1.5288583065,
				"element": "C" 
			},
			{
				"x": -0.1073985181,
				"y": -2.4302562627,
				"z": -2.9350010522,
				"element": "C" 
			},
			{
				"x": -0.1308519541,
				"y": -3.374615349,
				"z": -3.7098724609,
				"element": "O" 
			},
			{
				"x": 0.9837681754,
				"y": -4.3800144378,
				"z": 1.4854905336,
				"element": "C" 
			},
			{
				"x": 0.7476337448,
				"y": -3.9811342019,
				"z": 2.8052995359,
				"element": "C" 
			},
			{
				"x": 0.9996244719,
				"y": -4.8739612126,
				"z": 3.8447152433,
				"element": "C" 
			},
			{
				"x": 1.478232114,
				"y": -6.1588205676,
				"z": 3.5790675632,
				"element": "C" 
			},
			{
				"x": 1.716593326,
				"y": -6.5449286181,
				"z": 2.2590937235,
				"element": "C" 
			},
			{
				"x": 1.4798792176,
				"y": -5.658794866,
				"z": 1.2091765258,
				"element": "C" 
			},
			{
				"x": 1.3776141603,
				"y": 6.7554760734,
				"z": 0.4673221966,
				"element": "H" 
			},
			{
				"x": 1.2915486224,
				"y": 6.1734036427,
				"z": -1.2038371082,
				"element": "H" 
			},
			{
				"x": 0.7997474106,
				"y": 7.8318822758,
				"z": -0.8132805485,
				"element": "H" 
			},
			{
				"x": -1.2022489384,
				"y": 6.3896891565,
				"z": -1.1591075069,
				"element": "H" 
			},
			{
				"x": -0.8502361049,
				"y": 7.1144646118,
				"z": 1.8089402384,
				"element": "H" 
			},
			{
				"x": -1.3710482684,
				"y": 8.2256194786,
				"z": 0.5381911457,
				"element": "H" 
			},
			{
				"x": -2.3984382121,
				"y": 6.8572898864,
				"z": 0.9861384857,
				"element": "H" 
			},
			{
				"x": -1.7159814649,
				"y": 4.5284338679,
				"z": 0.4042836545,
				"element": "H" 
			},
			{
				"x": -0.0985932651,
				"y": 4.6975769416,
				"z": 1.1268798114,
				"element": "H" 
			},
			{
				"x": -0.906110408,
				"y": 2.5259394485,
				"z": 1.2836720574,
				"element": "H" 
			},
			{
				"x": -0.6565683694,
				"y": 0.0792263104,
				"z": 1.3659229571,
				"element": "H" 
			},
			{
				"x": 1.1474381742,
				"y": 0.1110236229,
				"z": -2.5305780639,
				"element": "H" 
			},
			{
				"x": 0.8728271778,
				"y": 2.5698835052,
				"z": -2.6311019707,
				"element": "H" 
			},
			{
				"x": 0.4729694147,
				"y": -4.7558629152,
				"z": -1.2747435478,
				"element": "H" 
			},
			{
				"x": -0.4040215592,
				"y": -1.4158431318,
				"z": -3.2692970691,
				"element": "H" 
			},
			{
				"x": 0.3763043849,
				"y": -2.9817907979,
				"z": 2.994001206,
				"element": "H" 
			},
			{
				"x": 0.8152849914,
				"y": -4.5624203297,
				"z": 4.8685477859,
				"element": "H" 
			},
			{
				"x": 1.6697483018,
				"y": -6.8508282739,
				"z": 4.3933117403,
				"element": "H" 
			},
			{
				"x": 2.1016893924,
				"y": -7.5363796951,
				"z": 2.0406828487,
				"element": "H" 
			},
			{
				"x": 1.7003374888,
				"y": -5.9566168799,
				"z": 0.1898331392,
				"element": "H" 
			}
		],
		 "valence_orbital": [ 
			{
				"type": "occ",
				"energy": -0.26097,
				"method": "rhf"
			},
			{
				"type": "occ",
				"energy": -0.2566,
				"method": "rhf"
			},
			{
				"type": "occ",
				"energy": -0.24332,
				"method": "rhf"
			},
			{
				"type": "occ",
				"energy": -0.24189,
				"method": "rhf"
			},
			{
				"type": "occ",
				"energy": -0.21065,
				"method": "rhf"
			},
			{
				"type": "unocc",
				"energy": -0.05116,
				"method": "rhf"
			},
			{
				"type": "unocc",
				"energy": -0.03115,
				"method": "rhf"
			},
			{
				"type": "unocc",
				"energy": -0.01425,
				"method": "rhf"
			},
			{
				"type": "unocc",
				"energy": -0.00574,
				"method": "rhf"
			},
			{
				"type": "unocc",
				"energy": 0.01009,
				"method": "rhf"
			}
		],
		"cosmo_sigma_profile": { 
			"-0.025": 0.0,
			"-0.024": 0.0,
			"-0.023": 0.0,
			"-0.022": 0.0,
			"-0.021": 0.0,
			"-0.02": 0.0,
			"-0.019": 0.0,
			"-0.018": 0.0,
			"-0.017": 0.0,
			"-0.016": 0.0,
			"-0.015": 0.0,
			"-0.014": 0.0,
			"-0.013": 0.0,
			"-0.012": 0.0,
			"-0.011": 0.869025745866,
			"-0.01": 1.91797538473,
			"-0.009": 2.0810283509,
			"-0.008": 2.13989984374,
			"-0.007": 6.68309169109,
			"-0.006": 17.1707971087,
			"-0.005": 23.3709386042,
			"-0.004": 30.2709732964,
			"-0.003": 32.0128125231,
			"-0.002": 34.9400264413,
			"-0.001": 32.6342191767,
			"0.0": 34.5891649389,
			"0.001": 38.0260788222,
			"0.002": 27.5241125518,
			"0.003": 24.0146470105,
			"0.004": 28.9737690781,
			"0.005": 16.6441726061,
			"0.006": 6.17838786677,
			"0.007": 3.12369402752,
			"0.008": 3.81472331243,
			"0.009": 3.56322228041,
			"0.01": 2.88295355084,
			"0.011": 4.21275631533,
			"0.012": 5.13804231102,
			"0.013": 1.92951351716,
			"0.014": 0.271872517378,
			"0.015": 0.0,
			"0.016": 0.0,
			"0.017": 0.0,
			"0.018": 0.0,
			"0.019": 0.0,
			"0.02": 0.0,
			"0.021": 0.0,
			"0.022": 0.0,
			"0.023": 0.0,
			"0.024": 0.0,
			"0.025": 0.0
		}
	}
}
