{
	 "smiles": "COC1=CC=C(C=C1)N1C(S)=NC2=C(C3=C(CCCC3)S2)C1=O", 
	 "Tm": 586.15, 
	 "num_atms": 39, 
	 "gaussian": { 
		 "optdone": 1, 
		 "sigma_profile": "yes", 
		 "theory": "DFT", 
		 "functional": "B3LYP", 
		 "basiset": "6-31G**", 
		 "properties": { 
			 "R2extent": 12288.5373, 
			 "electric_dipole_moment_norm": 1.97878296435, 
			 "electric_quadrupole_moment_norm": 21.5143778072, 
			 "total_energy": -1713.79152382, 
			 "HOMO_LUMO_gap": 0.16562, 
			 "cosmo_polarized_energy": -14.1, 
			 "cosmo_cavitation_energy": 44.75, 
			 "cosmo_dispersion_energy": -32.95, 
			 "cosmo_repulsion_energy": 2.43, 
			 "cosmo_total_nonelectrostatic_energy": 14.24, 
			 "SMD_solvation_energy": 5.77 
		},
		"coords": [
			{
				"x": -6.0030251878,
				"y": -0.2241135409,
				"z": 2.8919373813,
				"element": "C" 
			},
			{
				"x": -5.5999436621,
				"y": -0.9580688691,
				"z": 1.7447174538,
				"element": "O" 
			},
			{
				"x": -4.2702883301,
				"y": -1.161376568,
				"z": 1.5396502519,
				"element": "C" 
			},
			{
				"x": -3.2555289722,
				"y": -0.7073393368,
				"z": 2.3923387846,
				"element": "C" 
			},
			{
				"x": -1.9221317285,
				"y": -0.9757827135,
				"z": 2.0802705847,
				"element": "C" 
			},
			{
				"x": -1.597847684,
				"y": -1.69770444,
				"z": 0.9343827289,
				"element": "C" 
			},
			{
				"x": -2.6112387111,
				"y": -2.1429168797,
				"z": 0.0775788978,
				"element": "C" 
			},
			{
				"x": -3.9389771581,
				"y": -1.8806398218,
				"z": 0.3795769389,
				"element": "C" 
			},
			{
				"x": -0.2151467795,
				"y": -1.9611538698,
				"z": 0.6137703097,
				"element": "N" 
			},
			{
				"x": 0.4150961431,
				"y": -3.0961707912,
				"z": 1.0779031,
				"element": "C" 
			},
			{
				"x": -0.5721725415,
				"y": -4.192297531,
				"z": 2.0812167755,
				"element": "S" 
			},
			{
				"x": 1.6558804334,
				"y": -3.4071512122,
				"z": 0.8339995813,
				"element": "N" 
			},
			{
				"x": 2.3356563985,
				"y": -2.5195872301,
				"z": 0.0610831987,
				"element": "C" 
			},
			{
				"x": 1.836648101,
				"y": -1.3403449783,
				"z": -0.479262528,
				"element": "C" 
			},
			{
				"x": 2.807375316,
				"y": -0.6112526264,
				"z": -1.253198403,
				"element": "C" 
			},
			{
				"x": 4.0158877022,
				"y": -1.2520991965,
				"z": -1.2895052883,
				"element": "C" 
			},
			{
				"x": 5.2430284123,
				"y": -0.7585280946,
				"z": -2.0058520731,
				"element": "C" 
			},
			{
				"x": 4.8629265151,
				"y": 0.3504208329,
				"z": -3.0053725642,
				"element": "C" 
			},
			{
				"x": 3.8957272188,
				"y": 1.3624609687,
				"z": -2.3739275467,
				"element": "C" 
			},
			{
				"x": 2.5700151161,
				"y": 0.6994587338,
				"z": -1.9646337578,
				"element": "C" 
			},
			{
				"x": 4.0102193175,
				"y": -2.7579958547,
				"z": -0.3757725794,
				"element": "S" 
			},
			{
				"x": 0.4609188011,
				"y": -0.9857392779,
				"z": -0.2113342218,
				"element": "C" 
			},
			{
				"x": -0.1417650473,
				"y": 0.0051984229,
				"z": -0.5964306475,
				"element": "O" 
			},
			{
				"x": -5.5990336555,
				"y": 0.7959957068,
				"z": 2.8809170947,
				"element": "H" 
			},
			{
				"x": -7.0921919001,
				"y": -0.1795561675,
				"z": 2.8521754564,
				"element": "H" 
			},
			{
				"x": -5.6958548813,
				"y": -0.723527353,
				"z": 3.8195727909,
				"element": "H" 
			},
			{
				"x": -3.4870681071,
				"y": -0.1467630907,
				"z": 3.2895383691,
				"element": "H" 
			},
			{
				"x": -1.13015996,
				"y": -0.6204350294,
				"z": 2.7315668819,
				"element": "H" 
			},
			{
				"x": -2.3508594501,
				"y": -2.6918269289,
				"z": -0.8214883786,
				"element": "H" 
			},
			{
				"x": -4.7410603178,
				"y": -2.217579943,
				"z": -0.2680584604,
				"element": "H" 
			},
			{
				"x": 0.4521241144,
				"y": -5.0545661115,
				"z": 2.2317309925,
				"element": "H" 
			},
			{
				"x": 5.969527992,
				"y": -0.369750888,
				"z": -1.2772793473,
				"element": "H" 
			},
			{
				"x": 5.7463036757,
				"y": -1.5823714992,
				"z": -2.5267719849,
				"element": "H" 
			},
			{
				"x": 5.7713477985,
				"y": 0.8514032784,
				"z": -3.357887907,
				"element": "H" 
			},
			{
				"x": 4.3882397666,
				"y": -0.1038691876,
				"z": -3.884769776,
				"element": "H" 
			},
			{
				"x": 3.6978824426,
				"y": 2.1847720051,
				"z": -3.0703000959,
				"element": "H" 
			},
			{
				"x": 4.3698184843,
				"y": 1.8069918782,
				"z": -1.4884740314,
				"element": "H" 
			},
			{
				"x": 1.9490164374,
				"y": 0.5179065997,
				"z": -2.852961958,
				"element": "H" 
			},
			{
				"x": 1.9749538874,
				"y": 1.3624006049,
				"z": -1.3300460232,
				"element": "H" 
			}
		],
		 "valence_orbital": [ 
			{
				"type": "occ",
				"energy": -0.26144,
				"method": "rhf"
			},
			{
				"type": "occ",
				"energy": -0.25694,
				"method": "rhf"
			},
			{
				"type": "occ",
				"energy": -0.24626,
				"method": "rhf"
			},
			{
				"type": "occ",
				"energy": -0.23,
				"method": "rhf"
			},
			{
				"type": "occ",
				"energy": -0.20237,
				"method": "rhf"
			},
			{
				"type": "unocc",
				"energy": -0.03675,
				"method": "rhf"
			},
			{
				"type": "unocc",
				"energy": -0.01366,
				"method": "rhf"
			},
			{
				"type": "unocc",
				"energy": -0.01028,
				"method": "rhf"
			},
			{
				"type": "unocc",
				"energy": -0.00098,
				"method": "rhf"
			},
			{
				"type": "unocc",
				"energy": 0.0152,
				"method": "rhf"
			}
		],
		"cosmo_sigma_profile": { 
			"-0.025": 0.0,
			"-0.024": 0.0,
			"-0.023": 0.0,
			"-0.022": 0.0,
			"-0.021": 0.0,
			"-0.02": 0.0,
			"-0.019": 0.0,
			"-0.018": 0.0,
			"-0.017": 0.0,
			"-0.016": 0.0,
			"-0.015": 0.0,
			"-0.014": 0.0,
			"-0.013": 0.0,
			"-0.012": 0.331537773957,
			"-0.011": 1.60938941271,
			"-0.01": 0.996561904829,
			"-0.009": 1.47648839796,
			"-0.008": 1.46842151424,
			"-0.007": 8.55925262871,
			"-0.006": 15.737779756,
			"-0.005": 20.8960034343,
			"-0.004": 25.5395312878,
			"-0.003": 33.2358640611,
			"-0.002": 35.7968076946,
			"-0.001": 33.1997066405,
			"0.0": 29.2688977351,
			"0.001": 27.6489528975,
			"0.002": 29.4945759736,
			"0.003": 29.8808037016,
			"0.004": 20.1884233713,
			"0.005": 9.98975173696,
			"0.006": 6.13558957447,
			"0.007": 5.47408029856,
			"0.008": 4.84902572641,
			"0.009": 4.40038708578,
			"0.01": 3.63248865945,
			"0.011": 3.07390999035,
			"0.012": 3.41427324034,
			"0.013": 3.71873398564,
			"0.014": 0.183155649346,
			"0.015": 0.0,
			"0.016": 0.0,
			"0.017": 0.0,
			"0.018": 0.0,
			"0.019": 0.0,
			"0.02": 0.0,
			"0.021": 0.0,
			"0.022": 0.0,
			"0.023": 0.0,
			"0.024": 0.0,
			"0.025": 0.0
		}
	}
}
