{
	 "smiles": "CN1C=C(C=CC1=O)C(O)=O", 
	 "Tm": 510.15, 
	 "num_atms": 18, 
	 "gaussian": { 
		 "optdone": 1, 
		 "sigma_profile": "yes", 
		 "theory": "DFT", 
		 "functional": "B3LYP", 
		 "basiset": "6-31G**", 
		 "properties": { 
			 "R2extent": 2174.6864, 
			 "electric_dipole_moment_norm": 4.1522099393, 
			 "electric_quadrupole_moment_norm": 24.6818481658, 
			 "total_energy": -551.395991579, 
			 "HOMO_LUMO_gap": 0.17649, 
			 "cosmo_polarized_energy": -21.68, 
			 "cosmo_cavitation_energy": 22.73, 
			 "cosmo_dispersion_energy": -16.78, 
			 "cosmo_repulsion_energy": 1.33, 
			 "cosmo_total_nonelectrostatic_energy": 7.28, 
			 "SMD_solvation_energy": 6.12 
		},
		"coords": [
			{
				"x": -3.3201057516,
				"y": -1.6563327531,
				"z": -1.2825178649,
				"element": "C" 
			},
			{
				"x": -2.222355309,
				"y": -0.8343511211,
				"z": -0.7687260534,
				"element": "N" 
			},
			{
				"x": -0.9718177799,
				"y": -1.337295376,
				"z": -0.6144923336,
				"element": "C" 
			},
			{
				"x": 0.063960292,
				"y": -0.5822768115,
				"z": -0.1190166268,
				"element": "C" 
			},
			{
				"x": -0.2234833289,
				"y": 0.7631679471,
				"z": 0.2757977863,
				"element": "C" 
			},
			{
				"x": -1.4682751381,
				"y": 1.2873375992,
				"z": 0.1143296985,
				"element": "C" 
			},
			{
				"x": -2.5650925977,
				"y": 0.5132050592,
				"z": -0.4349661704,
				"element": "C" 
			},
			{
				"x": -3.7140433325,
				"y": 0.8987437099,
				"z": -0.6184732066,
				"element": "O" 
			},
			{
				"x": 1.4293494284,
				"y": -1.1235042841,
				"z": 0.1084727145,
				"element": "C" 
			},
			{
				"x": 1.7786931221,
				"y": -2.2450573857,
				"z": -0.5882274991,
				"element": "O" 
			},
			{
				"x": 2.2167043649,
				"y": -0.6228663728,
				"z": 0.8768825654,
				"element": "O" 
			},
			{
				"x": -2.9514652733,
				"y": -2.6621499702,
				"z": -1.4872276099,
				"element": "H" 
			},
			{
				"x": -3.7203780709,
				"y": -1.2090473957,
				"z": -2.1948200206,
				"element": "H" 
			},
			{
				"x": -4.1273844113,
				"y": -1.6945003124,
				"z": -0.5482320159,
				"element": "H" 
			},
			{
				"x": -0.8592084179,
				"y": -2.3860672199,
				"z": -0.8727818869,
				"element": "H" 
			},
			{
				"x": 0.5853993311,
				"y": 1.345900065,
				"z": 0.7046388761,
				"element": "H" 
			},
			{
				"x": -1.7063807967,
				"y": 2.3065624805,
				"z": 0.3952964977,
				"element": "H" 
			},
			{
				"x": 1.1810836694,
				"y": -2.3737678584,
				"z": -1.3371368505,
				"element": "H" 
			}
		],
		 "valence_orbital": [ 
			{
				"type": "occ",
				"energy": -0.32601,
				"method": "rhf"
			},
			{
				"type": "occ",
				"energy": -0.31066,
				"method": "rhf"
			},
			{
				"type": "occ",
				"energy": -0.28194,
				"method": "rhf"
			},
			{
				"type": "occ",
				"energy": -0.26723,
				"method": "rhf"
			},
			{
				"type": "occ",
				"energy": -0.23731,
				"method": "rhf"
			},
			{
				"type": "unocc",
				"energy": -0.06082,
				"method": "rhf"
			},
			{
				"type": "unocc",
				"energy": -0.03904,
				"method": "rhf"
			},
			{
				"type": "unocc",
				"energy": 0.04181,
				"method": "rhf"
			},
			{
				"type": "unocc",
				"energy": 0.05,
				"method": "rhf"
			},
			{
				"type": "unocc",
				"energy": 0.08012,
				"method": "rhf"
			}
		],
		"cosmo_sigma_profile": { 
			"-0.025": 0.0,
			"-0.024": 0.0,
			"-0.023": 0.0,
			"-0.022": 0.0,
			"-0.021": 0.0,
			"-0.02": 0.123395185095,
			"-0.019": 1.10350163669,
			"-0.018": 1.11996821674,
			"-0.017": 1.16046873402,
			"-0.016": 0.688345027589,
			"-0.015": 0.79751205689,
			"-0.014": 1.38630629528,
			"-0.013": 1.77347217352,
			"-0.012": 1.98334380901,
			"-0.011": 2.95730408954,
			"-0.01": 2.28798215893,
			"-0.009": 1.93155286017,
			"-0.008": 2.67216642569,
			"-0.007": 6.9068367012,
			"-0.006": 9.50943848552,
			"-0.005": 11.4233151206,
			"-0.004": 14.6299278254,
			"-0.003": 16.4338562841,
			"-0.002": 10.6009799136,
			"-0.001": 8.76142232239,
			"0.0": 9.10598108857,
			"0.001": 9.18973427953,
			"0.002": 7.79968973185,
			"0.003": 5.08036349806,
			"0.004": 3.16239836901,
			"0.005": 3.31238896789,
			"0.006": 3.15078405122,
			"0.007": 4.21105616479,
			"0.008": 3.99996541987,
			"0.009": 3.98922978896,
			"0.01": 6.18540228137,
			"0.011": 6.76985839512,
			"0.012": 7.39258293059,
			"0.013": 6.18641444835,
			"0.014": 3.26765323432,
			"0.015": 0.470148304522,
			"0.016": 0.0,
			"0.017": 0.0,
			"0.018": 0.0,
			"0.019": 0.0,
			"0.02": 0.0,
			"0.021": 0.0,
			"0.022": 0.0,
			"0.023": 0.0,
			"0.024": 0.0,
			"0.025": 0.0
		}
	}
}
