{
	 "smiles": "NC(=S)NC1=CC=C(OC(F)(F)F)C=C1", 
	 "Tm": 410.15, 
	 "num_atms": 22, 
	 "gaussian": { 
		 "optdone": 1, 
		 "sigma_profile": "yes", 
		 "theory": "DFT", 
		 "functional": "B3LYP", 
		 "basiset": "6-31G**", 
		 "properties": { 
			 "R2extent": 6489.9086, 
			 "electric_dipole_moment_norm": 3.45685048129, 
			 "electric_quadrupole_moment_norm": 26.5035450253, 
			 "total_energy": -1191.52287549, 
			 "HOMO_LUMO_gap": 0.17214, 
			 "cosmo_polarized_energy": -17.17, 
			 "cosmo_cavitation_energy": 30.01, 
			 "cosmo_dispersion_energy": -22.12, 
			 "cosmo_repulsion_energy": 1.65, 
			 "cosmo_total_nonelectrostatic_energy": 9.54, 
			 "SMD_solvation_energy": 5.8 
		},
		"coords": [
			{
				"x": -0.9595024955,
				"y": 2.3206768475,
				"z": -1.9322450844,
				"element": "N" 
			},
			{
				"x": -1.5047143822,
				"y": 1.0748291609,
				"z": -1.9802385776,
				"element": "C" 
			},
			{
				"x": -2.6564023627,
				"y": 0.6388221095,
				"z": -3.1216275112,
				"element": "S" 
			},
			{
				"x": -1.0800774906,
				"y": 0.174166452,
				"z": -1.0377577998,
				"element": "N" 
			},
			{
				"x": -0.1855316943,
				"y": 0.3448470856,
				"z": 0.0452079743,
				"element": "C" 
			},
			{
				"x": 0.712218518,
				"y": -0.6915475095,
				"z": 0.3451208693,
				"element": "C" 
			},
			{
				"x": 1.5789591171,
				"y": -0.5845544983,
				"z": 1.4264039725,
				"element": "C" 
			},
			{
				"x": 1.5622311275,
				"y": 0.5656265431,
				"z": 2.2141763491,
				"element": "C" 
			},
			{
				"x": 2.4555917251,
				"y": 0.5571072953,
				"z": 3.288088004,
				"element": "O" 
			},
			{
				"x": 2.9315373354,
				"y": 1.7203549082,
				"z": 3.7983350962,
				"element": "C" 
			},
			{
				"x": 3.4149322998,
				"y": 2.5390640922,
				"z": 2.8472439177,
				"element": "F" 
			},
			{
				"x": 3.9107017212,
				"y": 1.4141481547,
				"z": 4.6458819943,
				"element": "F" 
			},
			{
				"x": 1.9888608648,
				"y": 2.4108373148,
				"z": 4.4770787827,
				"element": "F" 
			},
			{
				"x": 0.6696112767,
				"y": 1.6013471844,
				"z": 1.943989552,
				"element": "C" 
			},
			{
				"x": -0.2066933993,
				"y": 1.4829826787,
				"z": 0.8646895885,
				"element": "C" 
			},
			{
				"x": -1.1781914165,
				"y": 2.9146257181,
				"z": -2.7171455702,
				"element": "H" 
			},
			{
				"x": -0.0800982431,
				"y": 2.4767387453,
				"z": -1.4583498025,
				"element": "H" 
			},
			{
				"x": -1.4476778634,
				"y": -0.7541030772,
				"z": -1.1953730737,
				"element": "H" 
			},
			{
				"x": 0.7368784071,
				"y": -1.5779970755,
				"z": -0.2816967974,
				"element": "H" 
			},
			{
				"x": 2.2808104031,
				"y": -1.3767699441,
				"z": 1.6627623991,
				"element": "H" 
			},
			{
				"x": 0.6277614196,
				"y": 2.4790225065,
				"z": 2.5757279474,
				"element": "H" 
			},
			{
				"x": -0.9312048679,
				"y": 2.2681753079,
				"z": 0.6809277695,
				"element": "H" 
			}
		],
		 "valence_orbital": [ 
			{
				"type": "occ",
				"energy": -0.30826,
				"method": "rhf"
			},
			{
				"type": "occ",
				"energy": -0.28533,
				"method": "rhf"
			},
			{
				"type": "occ",
				"energy": -0.25258,
				"method": "rhf"
			},
			{
				"type": "occ",
				"energy": -0.21584,
				"method": "rhf"
			},
			{
				"type": "occ",
				"energy": -0.21073,
				"method": "rhf"
			},
			{
				"type": "unocc",
				"energy": -0.03859,
				"method": "rhf"
			},
			{
				"type": "unocc",
				"energy": -0.03718,
				"method": "rhf"
			},
			{
				"type": "unocc",
				"energy": 0.00869,
				"method": "rhf"
			},
			{
				"type": "unocc",
				"energy": 0.06131,
				"method": "rhf"
			},
			{
				"type": "unocc",
				"energy": 0.07405,
				"method": "rhf"
			}
		],
		"cosmo_sigma_profile": { 
			"-0.025": 0.0,
			"-0.024": 0.0,
			"-0.023": 0.0,
			"-0.022": 0.0,
			"-0.021": 0.0,
			"-0.02": 0.0,
			"-0.019": 0.0,
			"-0.018": 0.0,
			"-0.017": 0.0,
			"-0.016": 0.0,
			"-0.015": 0.753935529608,
			"-0.014": 2.61207361527,
			"-0.013": 3.49500621406,
			"-0.012": 3.45802077223,
			"-0.011": 2.82397281716,
			"-0.01": 3.31398126366,
			"-0.009": 3.12391760653,
			"-0.008": 4.5527445183,
			"-0.007": 9.79129520411,
			"-0.006": 10.6211316681,
			"-0.005": 8.06079848833,
			"-0.004": 7.40074570902,
			"-0.003": 9.04206008058,
			"-0.002": 10.7266192744,
			"-0.001": 15.169349886,
			"0.0": 20.4227574166,
			"0.001": 30.7514034863,
			"0.002": 40.3456132167,
			"0.003": 11.6626573014,
			"0.004": 5.36380150761,
			"0.005": 4.83689809973,
			"0.006": 4.99454336538,
			"0.007": 2.77070915566,
			"0.008": 3.20661050496,
			"0.009": 4.71335908591,
			"0.01": 5.34082496241,
			"0.011": 7.7882962033,
			"0.012": 5.4940010259,
			"0.013": 0.716937979932,
			"0.014": 0.0,
			"0.015": 0.0,
			"0.016": 0.0,
			"0.017": 0.0,
			"0.018": 0.0,
			"0.019": 0.0,
			"0.02": 0.0,
			"0.021": 0.0,
			"0.022": 0.0,
			"0.023": 0.0,
			"0.024": 0.0,
			"0.025": 0.0
		}
	}
}
