{
	 "smiles": "CC1=CC(=CC(C)=C1CC1=NCCN1)C(C)(C)C", 
	 "Tm": 404.15, 
	 "num_atms": 42, 
	 "gaussian": { 
		 "optdone": 1, 
		 "sigma_profile": "yes", 
		 "theory": "DFT", 
		 "functional": "B3LYP", 
		 "basiset": "6-31G**", 
		 "properties": { 
			 "R2extent": 6472.841, 
			 "electric_dipole_moment_norm": 2.47868826196, 
			 "electric_quadrupole_moment_norm": 10.6350000818, 
			 "total_energy": -733.694244746, 
			 "HOMO_LUMO_gap": 0.21133, 
			 "cosmo_polarized_energy": -9.61, 
			 "cosmo_cavitation_energy": 41.01, 
			 "cosmo_dispersion_energy": -28.29, 
			 "cosmo_repulsion_energy": 2.21, 
			 "cosmo_total_nonelectrostatic_energy": 14.93, 
			 "SMD_solvation_energy": 2.55 
		},
		"coords": [
			{
				"x": -0.9606452067,
				"y": -3.1402922578,
				"z": -1.3013650146,
				"element": "C" 
			},
			{
				"x": -0.5686070255,
				"y": -1.7897017953,
				"z": -0.7348521827,
				"element": "C" 
			},
			{
				"x": -0.8661443574,
				"y": -0.6354762927,
				"z": -1.4750950245,
				"element": "C" 
			},
			{
				"x": -0.5528867483,
				"y": 0.6473055198,
				"z": -1.0184774303,
				"element": "C" 
			},
			{
				"x": 0.0804361772,
				"y": 0.741056189,
				"z": 0.229301873,
				"element": "C" 
			},
			{
				"x": 0.3953294725,
				"y": -0.3808830027,
				"z": 0.998731842,
				"element": "C" 
			},
			{
				"x": 1.0608315922,
				"y": -0.1967166972,
				"z": 2.3455614529,
				"element": "C" 
			},
			{
				"x": 0.0699416781,
				"y": -1.6670618397,
				"z": 0.5142272196,
				"element": "C" 
			},
			{
				"x": 0.4310376292,
				"y": -2.8964961725,
				"z": 1.3344179345,
				"element": "C" 
			},
			{
				"x": 1.8725374628,
				"y": -3.324837473,
				"z": 1.1856491125,
				"element": "C" 
			},
			{
				"x": 2.6306739642,
				"y": -3.6342041683,
				"z": 2.174718974,
				"element": "N" 
			},
			{
				"x": 3.9127095427,
				"y": -4.0691848097,
				"z": 1.5908874033,
				"element": "C" 
			},
			{
				"x": 3.8685499171,
				"y": -3.6333788926,
				"z": 0.1007849733,
				"element": "C" 
			},
			{
				"x": 2.4190671411,
				"y": -3.4723310053,
				"z": -0.0932869382,
				"element": "N" 
			},
			{
				"x": -0.871575751,
				"y": 1.9240546342,
				"z": -1.8184751069,
				"element": "C" 
			},
			{
				"x": -1.5647644527,
				"y": 1.6185390262,
				"z": -3.1598483513,
				"element": "C" 
			},
			{
				"x": -1.8104021108,
				"y": 2.8310614752,
				"z": -0.9875897455,
				"element": "C" 
			},
			{
				"x": 0.4416337945,
				"y": 2.6857086272,
				"z": -2.1179688638,
				"element": "C" 
			},
			{
				"x": -1.3646918025,
				"y": -3.0320902429,
				"z": -2.3113683885,
				"element": "H" 
			},
			{
				"x": -0.113166831,
				"y": -3.8322875639,
				"z": -1.3524154355,
				"element": "H" 
			},
			{
				"x": -1.732717035,
				"y": -3.6262560113,
				"z": -0.6919045333,
				"element": "H" 
			},
			{
				"x": -1.3585540797,
				"y": -0.7647933144,
				"z": -2.4326502301,
				"element": "H" 
			},
			{
				"x": 0.342512399,
				"y": 1.7183778968,
				"z": 0.6260171286,
				"element": "H" 
			},
			{
				"x": 0.3792472106,
				"y": -0.456911363,
				"z": 3.1656017735,
				"element": "H" 
			},
			{
				"x": 1.3636837449,
				"y": 0.8437700843,
				"z": 2.4901378353,
				"element": "H" 
			},
			{
				"x": 1.9444451389,
				"y": -0.8314106894,
				"z": 2.4629495022,
				"element": "H" 
			},
			{
				"x": -0.2002661827,
				"y": -3.7420938172,
				"z": 1.0432795887,
				"element": "H" 
			},
			{
				"x": 0.2622987379,
				"y": -2.7300265781,
				"z": 2.4002531391,
				"element": "H" 
			},
			{
				"x": 3.9928506882,
				"y": -5.1612908198,
				"z": 1.6796927589,
				"element": "H" 
			},
			{
				"x": 4.7575252346,
				"y": -3.6369073565,
				"z": 2.136062593,
				"element": "H" 
			},
			{
				"x": 4.2861609426,
				"y": -4.3802242158,
				"z": -0.5806160398,
				"element": "H" 
			},
			{
				"x": 4.4017359342,
				"y": -2.6847963226,
				"z": -0.0588230972,
				"element": "H" 
			},
			{
				"x": 2.111597409,
				"y": -2.7998957623,
				"z": -0.7856749633,
				"element": "H" 
			},
			{
				"x": -0.9379826846,
				"y": 1.0009904852,
				"z": -3.8116630781,
				"element": "H" 
			},
			{
				"x": -2.5206224174,
				"y": 1.1039736322,
				"z": -3.0168425159,
				"element": "H" 
			},
			{
				"x": -1.7702360482,
				"y": 2.5541267185,
				"z": -3.6902255864,
				"element": "H" 
			},
			{
				"x": -2.7530398206,
				"y": 2.319743247,
				"z": -0.7663315209,
				"element": "H" 
			},
			{
				"x": -1.3575745746,
				"y": 3.1218217866,
				"z": -0.0351810803,
				"element": "H" 
			},
			{
				"x": -2.0427559704,
				"y": 3.7485524344,
				"z": -1.5403303616,
				"element": "H" 
			},
			{
				"x": 1.1234885892,
				"y": 2.0705095842,
				"z": -2.7145172454,
				"element": "H" 
			},
			{
				"x": 0.2318139724,
				"y": 3.6027449044,
				"z": -2.6803632374,
				"element": "H" 
			},
			{
				"x": 0.9654247259,
				"y": 2.9703122189,
				"z": -1.2007091327,
				"element": "H" 
			}
		],
		 "valence_orbital": [ 
			{
				"type": "occ",
				"energy": -0.30569,
				"method": "rhf"
			},
			{
				"type": "occ",
				"energy": -0.25304,
				"method": "rhf"
			},
			{
				"type": "occ",
				"energy": -0.23325,
				"method": "rhf"
			},
			{
				"type": "occ",
				"energy": -0.22863,
				"method": "rhf"
			},
			{
				"type": "occ",
				"energy": -0.21343,
				"method": "rhf"
			},
			{
				"type": "unocc",
				"energy": -0.0021,
				"method": "rhf"
			},
			{
				"type": "unocc",
				"energy": 0.00581,
				"method": "rhf"
			},
			{
				"type": "unocc",
				"energy": 0.03795,
				"method": "rhf"
			},
			{
				"type": "unocc",
				"energy": 0.08219,
				"method": "rhf"
			},
			{
				"type": "unocc",
				"energy": 0.08558,
				"method": "rhf"
			}
		],
		"cosmo_sigma_profile": { 
			"-0.025": 0.0,
			"-0.024": 0.0,
			"-0.023": 0.0,
			"-0.022": 0.0,
			"-0.021": 0.0,
			"-0.02": 0.0,
			"-0.019": 0.0,
			"-0.018": 0.0,
			"-0.017": 0.0,
			"-0.016": 0.0,
			"-0.015": 0.0,
			"-0.014": 0.0,
			"-0.013": 0.0,
			"-0.012": 0.0272882328669,
			"-0.011": 0.522905168381,
			"-0.01": 0.810452853943,
			"-0.009": 0.685684550906,
			"-0.008": 1.20203728951,
			"-0.007": 1.00814510299,
			"-0.006": 1.34225266929,
			"-0.005": 7.77490762817,
			"-0.004": 26.6515361569,
			"-0.003": 38.2798709732,
			"-0.002": 47.8050530097,
			"-0.001": 41.7826888861,
			"0.0": 38.2023290502,
			"0.001": 38.5391664485,
			"0.002": 20.8016748334,
			"0.003": 9.86628106378,
			"0.004": 8.81400190311,
			"0.005": 8.4505451289,
			"0.006": 8.19051971345,
			"0.007": 5.26020573439,
			"0.008": 1.08177336556,
			"0.009": 1.86505159889,
			"0.01": 1.45764024313,
			"0.011": 1.57300169841,
			"0.012": 1.26561402933,
			"0.013": 0.991755471463,
			"0.014": 1.00565957323,
			"0.015": 0.620493712615,
			"0.016": 0.623391516774,
			"0.017": 1.32387987333,
			"0.018": 0.83193006088,
			"0.019": 0.529005381655,
			"0.02": 0.0,
			"0.021": 0.0,
			"0.022": 0.0,
			"0.023": 0.0,
			"0.024": 0.0,
			"0.025": 0.0
		}
	}
}
