{
	 "smiles": "CC1=C(C)C2=C(C=CC=C2)C=C1", 
	 "Tm": 274.75, 
	 "num_atms": 24, 
	 "gaussian": { 
		 "optdone": 1, 
		 "sigma_profile": "yes", 
		 "theory": "DFT", 
		 "functional": "B3LYP", 
		 "basiset": "6-31G**", 
		 "properties": { 
			 "R2extent": 2341.1524, 
			 "electric_dipole_moment_norm": 0.627152748539, 
			 "electric_quadrupole_moment_norm": 7.39363757835, 
			 "total_energy": -464.532315987, 
			 "HOMO_LUMO_gap": 0.17095, 
			 "cosmo_polarized_energy": -4.53, 
			 "cosmo_cavitation_energy": 26.09, 
			 "cosmo_dispersion_energy": -19.44, 
			 "cosmo_repulsion_energy": 1.51, 
			 "cosmo_total_nonelectrostatic_energy": 8.15, 
			 "SMD_solvation_energy": 4.17 
		},
		"coords": [
			{
				"x": 2.1938916094,
				"y": 2.0527283942,
				"z": 2.0281631309,
				"element": "C" 
			},
			{
				"x": 1.5824827204,
				"y": 0.8079237292,
				"z": 1.4178341175,
				"element": "C" 
			},
			{
				"x": 1.3284657713,
				"y": 0.6941263629,
				"z": 0.0547847464,
				"element": "C" 
			},
			{
				"x": 1.6517731215,
				"y": 1.8187742237,
				"z": -0.9039092635,
				"element": "C" 
			},
			{
				"x": 0.747320248,
				"y": -0.5129385542,
				"z": -0.4608209109,
				"element": "C" 
			},
			{
				"x": 0.4327660701,
				"y": -1.5915262056,
				"z": 0.43008464,
				"element": "C" 
			},
			{
				"x": -0.1421731488,
				"y": -2.7830411209,
				"z": -0.0873464091,
				"element": "C" 
			},
			{
				"x": -0.4028149583,
				"y": -2.9199461272,
				"z": -1.4315289478,
				"element": "C" 
			},
			{
				"x": -0.0953882541,
				"y": -1.860476839,
				"z": -2.3170580097,
				"element": "C" 
			},
			{
				"x": 0.4629093935,
				"y": -0.6924997627,
				"z": -1.8446251568,
				"element": "C" 
			},
			{
				"x": 0.706439271,
				"y": -1.4375281607,
				"z": 1.8129290405,
				"element": "C" 
			},
			{
				"x": 1.262457826,
				"y": -0.274477549,
				"z": 2.2832055791,
				"element": "C" 
			},
			{
				"x": 1.5743297567,
				"y": 2.9411697583,
				"z": 1.8603136299,
				"element": "H" 
			},
			{
				"x": 2.3088735656,
				"y": 1.9351304647,
				"z": 3.1089117557,
				"element": "H" 
			},
			{
				"x": 3.1860160425,
				"y": 2.2694386179,
				"z": 1.6157539696,
				"element": "H" 
			},
			{
				"x": 2.3649604267,
				"y": 1.4973547635,
				"z": -1.6724016677,
				"element": "H" 
			},
			{
				"x": 0.7545081506,
				"y": 2.1678396014,
				"z": -1.4288640762,
				"element": "H" 
			},
			{
				"x": 2.0868531367,
				"y": 2.6793215847,
				"z": -0.3959401421,
				"element": "H" 
			},
			{
				"x": -0.3734843666,
				"y": -3.5895010562,
				"z": 0.604322034,
				"element": "H" 
			},
			{
				"x": -0.8426951899,
				"y": -3.8360994072,
				"z": -1.8149028893,
				"element": "H" 
			},
			{
				"x": -0.3015903506,
				"y": -1.9696724952,
				"z": -3.3781445028,
				"element": "H" 
			},
			{
				"x": 0.6893583547,
				"y": 0.1048683603,
				"z": -2.543844486,
				"element": "H" 
			},
			{
				"x": 0.4699592379,
				"y": -2.2520480452,
				"z": 2.4928523078,
				"element": "H" 
			},
			{
				"x": 1.4680815656,
				"y": -0.1672205376,
				"z": 3.3452315106,
				"element": "H" 
			}
		],
		 "valence_orbital": [ 
			{
				"type": "occ",
				"energy": -0.31775,
				"method": "rhf"
			},
			{
				"type": "occ",
				"energy": -0.31169,
				"method": "rhf"
			},
			{
				"type": "occ",
				"energy": -0.26876,
				"method": "rhf"
			},
			{
				"type": "occ",
				"energy": -0.23269,
				"method": "rhf"
			},
			{
				"type": "occ",
				"energy": -0.20457,
				"method": "rhf"
			},
			{
				"type": "unocc",
				"energy": -0.03362,
				"method": "rhf"
			},
			{
				"type": "unocc",
				"energy": -0.00082,
				"method": "rhf"
			},
			{
				"type": "unocc",
				"energy": 0.04001,
				"method": "rhf"
			},
			{
				"type": "unocc",
				"energy": 0.09584,
				"method": "rhf"
			},
			{
				"type": "unocc",
				"energy": 0.09919,
				"method": "rhf"
			}
		],
		"cosmo_sigma_profile": { 
			"-0.025": 0.0,
			"-0.024": 0.0,
			"-0.023": 0.0,
			"-0.022": 0.0,
			"-0.021": 0.0,
			"-0.02": 0.0,
			"-0.019": 0.0,
			"-0.018": 0.0,
			"-0.017": 0.0,
			"-0.016": 0.0,
			"-0.015": 0.0,
			"-0.014": 0.0,
			"-0.013": 0.0,
			"-0.012": 0.0,
			"-0.011": 0.0,
			"-0.01": 0.0,
			"-0.009": 0.0,
			"-0.008": 0.0,
			"-0.007": 0.0,
			"-0.006": 2.74998708567,
			"-0.005": 13.4383036564,
			"-0.004": 21.0709738372,
			"-0.003": 25.9491017047,
			"-0.002": 20.2930655827,
			"-0.001": 18.0340459267,
			"0.0": 21.4469633466,
			"0.001": 15.7734874114,
			"0.002": 10.7020346779,
			"0.003": 10.5581264209,
			"0.004": 14.0690673936,
			"0.005": 21.2770603908,
			"0.006": 11.6445726338,
			"0.007": 0.179948206765,
			"0.008": 0.0,
			"0.009": 0.0,
			"0.01": 0.0,
			"0.011": 0.0,
			"0.012": 0.0,
			"0.013": 0.0,
			"0.014": 0.0,
			"0.015": 0.0,
			"0.016": 0.0,
			"0.017": 0.0,
			"0.018": 0.0,
			"0.019": 0.0,
			"0.02": 0.0,
			"0.021": 0.0,
			"0.022": 0.0,
			"0.023": 0.0,
			"0.024": 0.0,
			"0.025": 0.0
		}
	}
}
