{
	 "smiles": "OC(=O)C1CCCN1C(=O)CC1=CC=CS1", 
	 "Tm": 413.15, 
	 "num_atms": 29, 
	 "gaussian": { 
		 "optdone": 1, 
		 "sigma_profile": "yes", 
		 "theory": "DFT", 
		 "functional": "B3LYP", 
		 "basiset": "6-31G**", 
		 "properties": { 
			 "R2extent": 5018.5398, 
			 "electric_dipole_moment_norm": 3.9626454661, 
			 "electric_quadrupole_moment_norm": 15.8658329293, 
			 "total_energy": -1105.62937504, 
			 "HOMO_LUMO_gap": 0.21255, 
			 "cosmo_polarized_energy": -19.26, 
			 "cosmo_cavitation_energy": 33.74, 
			 "cosmo_dispersion_energy": -23.66, 
			 "cosmo_repulsion_energy": 1.82, 
			 "cosmo_total_nonelectrostatic_energy": 11.9, 
			 "SMD_solvation_energy": 6.16 
		},
		"coords": [
			{
				"x": -4.465190958,
				"y": -0.622147101,
				"z": 2.2090263974,
				"element": "O" 
			},
			{
				"x": -3.359998539,
				"y": -0.6361387727,
				"z": 1.4319963916,
				"element": "C" 
			},
			{
				"x": -2.9141666719,
				"y": -1.6411991847,
				"z": 0.92651352,
				"element": "O" 
			},
			{
				"x": -2.822183831,
				"y": 0.7787003785,
				"z": 1.2134583639,
				"element": "C" 
			},
			{
				"x": -3.3541446683,
				"y": 1.368990807,
				"z": -0.1125444399,
				"element": "C" 
			},
			{
				"x": -2.3293314637,
				"y": 0.8770205457,
				"z": -1.1483181611,
				"element": "C" 
			},
			{
				"x": -0.9907012346,
				"y": 0.9652799372,
				"z": -0.3976977218,
				"element": "C" 
			},
			{
				"x": -1.3764900652,
				"y": 0.7627311041,
				"z": 1.0080843918,
				"element": "N" 
			},
			{
				"x": -0.571036305,
				"y": 0.4032755184,
				"z": 2.0488555731,
				"element": "C" 
			},
			{
				"x": -1.0382101056,
				"y": 0.1203496567,
				"z": 3.1495211675,
				"element": "O" 
			},
			{
				"x": 0.9393598443,
				"y": 0.355091193,
				"z": 1.7957019556,
				"element": "C" 
			},
			{
				"x": 1.3995521751,
				"y": -0.9872308051,
				"z": 1.2899472383,
				"element": "C" 
			},
			{
				"x": 2.1431108943,
				"y": -1.254780015,
				"z": 0.1680502744,
				"element": "C" 
			},
			{
				"x": 2.4287326619,
				"y": -2.6433382103,
				"z": -0.0078662159,
				"element": "C" 
			},
			{
				"x": 1.896597246,
				"y": -3.416101685,
				"z": 0.9858932319,
				"element": "C" 
			},
			{
				"x": 1.0349724411,
				"y": -2.4630835999,
				"z": 2.1509456691,
				"element": "S" 
			},
			{
				"x": -4.7634516874,
				"y": -1.5449947667,
				"z": 2.2756830842,
				"element": "H" 
			},
			{
				"x": -3.0845632052,
				"y": 1.3819200372,
				"z": 2.0849714755,
				"element": "H" 
			},
			{
				"x": -4.3785527702,
				"y": 1.0558760772,
				"z": -0.3292870049,
				"element": "H" 
			},
			{
				"x": -3.3453728027,
				"y": 2.4620979731,
				"z": -0.0444537829,
				"element": "H" 
			},
			{
				"x": -2.534599248,
				"y": -0.1655293131,
				"z": -1.4064987808,
				"element": "H" 
			},
			{
				"x": -2.3308924906,
				"y": 1.4683320473,
				"z": -2.0676924616,
				"element": "H" 
			},
			{
				"x": -0.2815468143,
				"y": 0.1998629667,
				"z": -0.7224786575,
				"element": "H" 
			},
			{
				"x": -0.5238803156,
				"y": 1.9513363292,
				"z": -0.5326137899,
				"element": "H" 
			},
			{
				"x": 1.2534388267,
				"y": 1.1207463655,
				"z": 1.0793922598,
				"element": "H" 
			},
			{
				"x": 1.4034396053,
				"y": 0.5871934777,
				"z": 2.7595772942,
				"element": "H" 
			},
			{
				"x": 2.4879514495,
				"y": -0.4769044098,
				"z": -0.5057143213,
				"element": "H" 
			},
			{
				"x": 3.0021909574,
				"y": -3.0428285924,
				"z": -0.8366621295,
				"element": "H" 
			},
			{
				"x": 1.9490670749,
				"y": -4.4899279587,
				"z": 1.101209179,
				"element": "H" 
			}
		],
		 "valence_orbital": [ 
			{
				"type": "occ",
				"energy": -0.27418,
				"method": "rhf"
			},
			{
				"type": "occ",
				"energy": -0.252,
				"method": "rhf"
			},
			{
				"type": "occ",
				"energy": -0.24386,
				"method": "rhf"
			},
			{
				"type": "occ",
				"energy": -0.24203,
				"method": "rhf"
			},
			{
				"type": "occ",
				"energy": -0.22151,
				"method": "rhf"
			},
			{
				"type": "unocc",
				"energy": -0.00896,
				"method": "rhf"
			},
			{
				"type": "unocc",
				"energy": 0.00972,
				"method": "rhf"
			},
			{
				"type": "unocc",
				"energy": 0.02393,
				"method": "rhf"
			},
			{
				"type": "unocc",
				"energy": 0.04318,
				"method": "rhf"
			},
			{
				"type": "unocc",
				"energy": 0.06935,
				"method": "rhf"
			}
		],
		"cosmo_sigma_profile": { 
			"-0.025": 0.0,
			"-0.024": 0.0,
			"-0.023": 0.0,
			"-0.022": 0.0,
			"-0.021": 0.0,
			"-0.02": 0.0,
			"-0.019": 0.0867790547734,
			"-0.018": 0.862647793799,
			"-0.017": 1.18001778626,
			"-0.016": 0.566267342852,
			"-0.015": 0.56474228378,
			"-0.014": 0.781341628518,
			"-0.013": 1.29839416599,
			"-0.012": 0.217457779194,
			"-0.011": 0.63348474721,
			"-0.01": 0.883750952185,
			"-0.009": 1.00984983825,
			"-0.008": 1.79200817437,
			"-0.007": 6.18672632245,
			"-0.006": 15.9541999745,
			"-0.005": 22.1571737678,
			"-0.004": 26.9301434628,
			"-0.003": 27.9995994393,
			"-0.002": 21.9253353747,
			"-0.001": 16.233046173,
			"0.0": 11.7600390177,
			"0.001": 9.90084838683,
			"0.002": 10.4835640425,
			"0.003": 13.2872380163,
			"0.004": 14.1400094083,
			"0.005": 13.8584741671,
			"0.006": 10.5733225757,
			"0.007": 7.75686088802,
			"0.008": 5.77526463537,
			"0.009": 4.5653133556,
			"0.01": 3.19191759637,
			"0.011": 5.14113352329,
			"0.012": 4.42066987451,
			"0.013": 3.59662153849,
			"0.014": 2.34337901598,
			"0.015": 0.267455187375,
			"0.016": 0.0,
			"0.017": 0.0,
			"0.018": 0.0,
			"0.019": 0.0,
			"0.02": 0.0,
			"0.021": 0.0,
			"0.022": 0.0,
			"0.023": 0.0,
			"0.024": 0.0,
			"0.025": 0.0
		}
	}
}
