{
	 "smiles": "NC1=C(NC(=O)C2=CC=NC=C2)C=CC=C1", 
	 "Tm": 453.15, 
	 "num_atms": 27, 
	 "gaussian": { 
		 "optdone": 1, 
		 "sigma_profile": "yes", 
		 "theory": "DFT", 
		 "functional": "B3LYP", 
		 "basiset": "6-31G**", 
		 "properties": { 
			 "R2extent": 4400.2721, 
			 "electric_dipole_moment_norm": 4.30723119068, 
			 "electric_quadrupole_moment_norm": 17.7317526686, 
			 "total_energy": -703.390826438, 
			 "HOMO_LUMO_gap": 0.16433, 
			 "cosmo_polarized_energy": -16.33, 
			 "cosmo_cavitation_energy": 31.2, 
			 "cosmo_dispersion_energy": -21.93, 
			 "cosmo_repulsion_energy": 1.72, 
			 "cosmo_total_nonelectrostatic_energy": 10.98, 
			 "SMD_solvation_energy": 4.71 
		},
		"coords": [
			{
				"x": -1.3236605905,
				"y": -2.0859745402,
				"z": -0.8801527332,
				"element": "N" 
			},
			{
				"x": -0.8654451458,
				"y": -0.9409368557,
				"z": -1.5163055759,
				"element": "C" 
			},
			{
				"x": -0.144177844,
				"y": 0.0447069918,
				"z": -0.803044518,
				"element": "C" 
			},
			{
				"x": 0.1915048556,
				"y": -0.1693599328,
				"z": 0.5713714686,
				"element": "N" 
			},
			{
				"x": -0.6123037603,
				"y": -0.2595293308,
				"z": 1.6907295918,
				"element": "C" 
			},
			{
				"x": -0.1402934493,
				"y": -0.6615951835,
				"z": 2.7493123919,
				"element": "O" 
			},
			{
				"x": -2.0614923006,
				"y": 0.1416027864,
				"z": 1.6084918183,
				"element": "C" 
			},
			{
				"x": -2.5719038329,
				"y": 1.1490802323,
				"z": 0.7832426519,
				"element": "C" 
			},
			{
				"x": -3.9301601417,
				"y": 1.4613204669,
				"z": 0.8739188337,
				"element": "C" 
			},
			{
				"x": -4.7867455045,
				"y": 0.8496425288,
				"z": 1.6993103071,
				"element": "N" 
			},
			{
				"x": -4.2846305336,
				"y": -0.1068291961,
				"z": 2.4931051454,
				"element": "C" 
			},
			{
				"x": -2.9445922618,
				"y": -0.4849135874,
				"z": 2.4956157381,
				"element": "C" 
			},
			{
				"x": 0.3089967357,
				"y": 1.1944660599,
				"z": -1.4561832316,
				"element": "C" 
			},
			{
				"x": 0.0394816082,
				"y": 1.4086380674,
				"z": -2.80635334,
				"element": "C" 
			},
			{
				"x": -0.7013901983,
				"y": 0.452550034,
				"z": -3.5069881992,
				"element": "C" 
			},
			{
				"x": -1.1463686236,
				"y": -0.7033704917,
				"z": -2.8742915401,
				"element": "C" 
			},
			{
				"x": -1.5586362119,
				"y": -2.8581975268,
				"z": -1.4867087179,
				"element": "H" 
			},
			{
				"x": -0.8041319165,
				"y": -2.3678636602,
				"z": -0.0604660901,
				"element": "H" 
			},
			{
				"x": 1.1576619958,
				"y": -0.3827052872,
				"z": 0.7947073741,
				"element": "H" 
			},
			{
				"x": -1.9405059168,
				"y": 1.6911677815,
				"z": 0.0909182255,
				"element": "H" 
			},
			{
				"x": -4.3472225888,
				"y": 2.2469620848,
				"z": 0.2462068831,
				"element": "H" 
			},
			{
				"x": -4.9905707747,
				"y": -0.5908660445,
				"z": 3.1656332171,
				"element": "H" 
			},
			{
				"x": -2.5736839556,
				"y": -1.2441410024,
				"z": 3.1748529695,
				"element": "H" 
			},
			{
				"x": 0.8743032227,
				"y": 1.9222521696,
				"z": -0.8805519353,
				"element": "H" 
			},
			{
				"x": 0.3958084774,
				"y": 2.3060949884,
				"z": -3.3010557594,
				"element": "H" 
			},
			{
				"x": -0.9285823782,
				"y": 0.6030638543,
				"z": -4.5584920031,
				"element": "H" 
			},
			{
				"x": -1.7112589658,
				"y": -1.4463654067,
				"z": -3.4317229723,
				"element": "H" 
			}
		],
		 "valence_orbital": [ 
			{
				"type": "occ",
				"energy": -0.26419,
				"method": "rhf"
			},
			{
				"type": "occ",
				"energy": -0.25828,
				"method": "rhf"
			},
			{
				"type": "occ",
				"energy": -0.25323,
				"method": "rhf"
			},
			{
				"type": "occ",
				"energy": -0.24771,
				"method": "rhf"
			},
			{
				"type": "occ",
				"energy": -0.21389,
				"method": "rhf"
			},
			{
				"type": "unocc",
				"energy": -0.04956,
				"method": "rhf"
			},
			{
				"type": "unocc",
				"energy": -0.01735,
				"method": "rhf"
			},
			{
				"type": "unocc",
				"energy": -0.00565,
				"method": "rhf"
			},
			{
				"type": "unocc",
				"energy": 0.00375,
				"method": "rhf"
			},
			{
				"type": "unocc",
				"energy": 0.04811,
				"method": "rhf"
			}
		],
		"cosmo_sigma_profile": { 
			"-0.025": 0.0,
			"-0.024": 0.0,
			"-0.023": 0.0,
			"-0.022": 0.0,
			"-0.021": 0.0,
			"-0.02": 0.0,
			"-0.019": 0.0,
			"-0.018": 0.0,
			"-0.017": 0.0,
			"-0.016": 0.0,
			"-0.015": 0.0270314894521,
			"-0.014": 0.686242641613,
			"-0.013": 1.85504698063,
			"-0.012": 2.9193134114,
			"-0.011": 2.88304455757,
			"-0.01": 3.92120159325,
			"-0.009": 3.94692001884,
			"-0.008": 3.4339828085,
			"-0.007": 6.6971303987,
			"-0.006": 15.3792088482,
			"-0.005": 17.2537343951,
			"-0.004": 16.9466537843,
			"-0.003": 18.4254055321,
			"-0.002": 13.2116420755,
			"-0.001": 14.1314049868,
			"0.0": 13.7194050288,
			"0.001": 18.785402544,
			"0.002": 19.1551259291,
			"0.003": 11.4312246343,
			"0.004": 13.2275423585,
			"0.005": 11.5426812862,
			"0.006": 8.14509818486,
			"0.007": 4.41208257079,
			"0.008": 3.73174132541,
			"0.009": 2.7856358626,
			"0.01": 3.43021389563,
			"0.011": 3.10344785163,
			"0.012": 4.47070160272,
			"0.013": 5.96965188176,
			"0.014": 2.10854336776,
			"0.015": 0.704865152841,
			"0.016": 0.922864668738,
			"0.017": 0.00849564745122,
			"0.018": 0.0,
			"0.019": 0.0,
			"0.02": 0.0,
			"0.021": 0.0,
			"0.022": 0.0,
			"0.023": 0.0,
			"0.024": 0.0,
			"0.025": 0.0
		}
	}
}
