{
	 "smiles": "S=C(SC(=S)N1CCCCC1)N1CCCCC1", 
	 "Tm": 383.15, 
	 "num_atms": 37, 
	 "gaussian": { 
		 "optdone": 1, 
		 "sigma_profile": "yes", 
		 "theory": "DFT", 
		 "functional": "B3LYP", 
		 "basiset": "6-31G**", 
		 "properties": { 
			 "R2extent": 6920.6552, 
			 "electric_dipole_moment_norm": 5.54524813151, 
			 "electric_quadrupole_moment_norm": 23.6747805817, 
			 "total_energy": -1773.40211343, 
			 "HOMO_LUMO_gap": 0.15528, 
			 "cosmo_polarized_energy": -16.92, 
			 "cosmo_cavitation_energy": 40.26, 
			 "cosmo_dispersion_energy": -29.66, 
			 "cosmo_repulsion_energy": 2.21, 
			 "cosmo_total_nonelectrostatic_energy": 12.82, 
			 "SMD_solvation_energy": 2.91 
		},
		"coords": [
			{
				"x": -0.1345743689,
				"y": 1.4563431884,
				"z": -1.1032820872,
				"element": "S" 
			},
			{
				"x": 0.4687494785,
				"y": 0.7819404919,
				"z": 0.3025023948,
				"element": "C" 
			},
			{
				"x": -0.6001040511,
				"y": -0.0132048471,
				"z": 1.5408573304,
				"element": "S" 
			},
			{
				"x": -2.2843859459,
				"y": 0.0482817601,
				"z": 0.841201297,
				"element": "C" 
			},
			{
				"x": -3.39422234,
				"y": 0.9658677805,
				"z": 1.6781959279,
				"element": "S" 
			},
			{
				"x": -2.5579639603,
				"y": -0.7234902092,
				"z": -0.2252308264,
				"element": "N" 
			},
			{
				"x": -3.9040080431,
				"y": -0.6198679398,
				"z": -0.8325612313,
				"element": "C" 
			},
			{
				"x": -3.926268194,
				"y": -1.2340858392,
				"z": -2.2317307626,
				"element": "C" 
			},
			{
				"x": -3.5275541303,
				"y": -2.7212874601,
				"z": -2.2234230518,
				"element": "C" 
			},
			{
				"x": -2.3870784241,
				"y": -2.9788231574,
				"z": -1.2079422765,
				"element": "C" 
			},
			{
				"x": -1.6366290069,
				"y": -1.6923265946,
				"z": -0.8475388255,
				"element": "C" 
			},
			{
				"x": 1.7713188826,
				"y": 0.806636754,
				"z": 0.6772335054,
				"element": "N" 
			},
			{
				"x": 2.3105664923,
				"y": 0.2949876321,
				"z": 1.948297894,
				"element": "C" 
			},
			{
				"x": 2.7832345866,
				"y": 1.4525866114,
				"z": 2.8398321602,
				"element": "C" 
			},
			{
				"x": 3.8113807829,
				"y": 2.324088597,
				"z": 2.1026175677,
				"element": "C" 
			},
			{
				"x": 3.2787293892,
				"y": 2.7606403827,
				"z": 0.7293550285,
				"element": "C" 
			},
			{
				"x": 2.7839330304,
				"y": 1.5581875813,
				"z": -0.0862102937,
				"element": "C" 
			},
			{
				"x": -4.174749829,
				"y": 0.4387807487,
				"z": -0.8578684807,
				"element": "H" 
			},
			{
				"x": -4.6294751152,
				"y": -1.1092655181,
				"z": -0.1687968227,
				"element": "H" 
			},
			{
				"x": -3.2492270974,
				"y": -0.6633876863,
				"z": -2.8774833965,
				"element": "H" 
			},
			{
				"x": -4.9310102746,
				"y": -1.1036037655,
				"z": -2.6468092489,
				"element": "H" 
			},
			{
				"x": -3.2216264289,
				"y": -3.0206902031,
				"z": -3.2315037785,
				"element": "H" 
			},
			{
				"x": -4.3943167177,
				"y": -3.3398512034,
				"z": -1.965752589,
				"element": "H" 
			},
			{
				"x": -1.6644673307,
				"y": -3.7007253537,
				"z": -1.6028805327,
				"element": "H" 
			},
			{
				"x": -2.7885278493,
				"y": -3.4126987082,
				"z": -0.2851276396,
				"element": "H" 
			},
			{
				"x": -1.1775652176,
				"y": -1.235026274,
				"z": -1.7312507495,
				"element": "H" 
			},
			{
				"x": -0.8367118871,
				"y": -1.9032804374,
				"z": -0.1389796269,
				"element": "H" 
			},
			{
				"x": 1.5689067585,
				"y": -0.319912589,
				"z": 2.4566364121,
				"element": "H" 
			},
			{
				"x": 3.1579420566,
				"y": -0.3598199526,
				"z": 1.7023831448,
				"element": "H" 
			},
			{
				"x": 3.2105588525,
				"y": 1.0416917333,
				"z": 3.7618366522,
				"element": "H" 
			},
			{
				"x": 1.9114460631,
				"y": 2.0532636677,
				"z": 3.125945201,
				"element": "H" 
			},
			{
				"x": 4.7380507543,
				"y": 1.7487271167,
				"z": 1.9652081575,
				"element": "H" 
			},
			{
				"x": 4.0729181717,
				"y": 3.1985035009,
				"z": 2.7084628876,
				"element": "H" 
			},
			{
				"x": 4.0574863939,
				"y": 3.2805661765,
				"z": 0.1595217197,
				"element": "H" 
			},
			{
				"x": 2.4458786448,
				"y": 3.4636005834,
				"z": 0.8524737511,
				"element": "H" 
			},
			{
				"x": 3.6146805438,
				"y": 0.8698556347,
				"z": -0.2945628635,
				"element": "H" 
			},
			{
				"x": 2.3399853303,
				"y": 1.8645977974,
				"z": -1.0313259483,
				"element": "H" 
			}
		],
		 "valence_orbital": [ 
			{
				"type": "occ",
				"energy": -0.25805,
				"method": "rhf"
			},
			{
				"type": "occ",
				"energy": -0.22275,
				"method": "rhf"
			},
			{
				"type": "occ",
				"energy": -0.2203,
				"method": "rhf"
			},
			{
				"type": "occ",
				"energy": -0.20794,
				"method": "rhf"
			},
			{
				"type": "occ",
				"energy": -0.19735,
				"method": "rhf"
			},
			{
				"type": "unocc",
				"energy": -0.04207,
				"method": "rhf"
			},
			{
				"type": "unocc",
				"energy": -0.02647,
				"method": "rhf"
			},
			{
				"type": "unocc",
				"energy": 0.02493,
				"method": "rhf"
			},
			{
				"type": "unocc",
				"energy": 0.0556,
				"method": "rhf"
			},
			{
				"type": "unocc",
				"energy": 0.07225,
				"method": "rhf"
			}
		],
		"cosmo_sigma_profile": { 
			"-0.025": 0.0,
			"-0.024": 0.0,
			"-0.023": 0.0,
			"-0.022": 0.0,
			"-0.021": 0.0,
			"-0.02": 0.0,
			"-0.019": 0.0,
			"-0.018": 0.0,
			"-0.017": 0.0,
			"-0.016": 0.0,
			"-0.015": 0.0,
			"-0.014": 0.0,
			"-0.013": 0.0,
			"-0.012": 0.0,
			"-0.011": 0.0,
			"-0.01": 0.0,
			"-0.009": 0.0,
			"-0.008": 0.0,
			"-0.007": 0.851611545861,
			"-0.006": 6.60876623567,
			"-0.005": 15.1282034594,
			"-0.004": 39.3104609357,
			"-0.003": 59.0066810566,
			"-0.002": 43.0755561935,
			"-0.001": 33.3322002325,
			"0.0": 24.1923083075,
			"0.001": 9.08522671334,
			"0.002": 8.10268122219,
			"0.003": 10.1363386695,
			"0.004": 8.43432404631,
			"0.005": 9.01198138995,
			"0.006": 9.75062284942,
			"0.007": 10.1975157274,
			"0.008": 13.6937126011,
			"0.009": 11.9587004094,
			"0.01": 5.4283819799,
			"0.011": 1.98866133306,
			"0.012": 1.44290666262,
			"0.013": 0.0919662341495,
			"0.014": 0.0,
			"0.015": 0.0,
			"0.016": 0.0,
			"0.017": 0.0,
			"0.018": 0.0,
			"0.019": 0.0,
			"0.02": 0.0,
			"0.021": 0.0,
			"0.022": 0.0,
			"0.023": 0.0,
			"0.024": 0.0,
			"0.025": 0.0
		}
	}
}
