{
	 "smiles": "CC1=NN(C=C1C(O)=O)C1=CC=CC=C1", 
	 "Tm": 466.15, 
	 "num_atms": 25, 
	 "gaussian": { 
		 "optdone": 1, 
		 "sigma_profile": "yes", 
		 "theory": "DFT", 
		 "functional": "B3LYP", 
		 "basiset": "6-31G**", 
		 "properties": { 
			 "R2extent": 3967.3682, 
			 "electric_dipole_moment_norm": 5.46275501007, 
			 "electric_quadrupole_moment_norm": 14.0902987165, 
			 "total_energy": -685.143887919, 
			 "HOMO_LUMO_gap": 0.18544, 
			 "cosmo_polarized_energy": -18.54, 
			 "cosmo_cavitation_energy": 29.67, 
			 "cosmo_dispersion_energy": -21.86, 
			 "cosmo_repulsion_energy": 1.69, 
			 "cosmo_total_nonelectrostatic_energy": 9.49, 
			 "SMD_solvation_energy": 5.72 
		},
		"coords": [
			{
				"x": 3.234359054,
				"y": 0.261717652,
				"z": -0.811743608,
				"element": "C" 
			},
			{
				"x": 1.797245549,
				"y": 0.4199278247,
				"z": -0.4325984016,
				"element": "C" 
			},
			{
				"x": 1.0899981323,
				"y": -0.6174134724,
				"z": -0.0088446182,
				"element": "N" 
			},
			{
				"x": -0.1632316917,
				"y": -0.1390203819,
				"z": 0.2494789753,
				"element": "N" 
			},
			{
				"x": -0.2505672835,
				"y": 1.1901783867,
				"z": -0.0080786797,
				"element": "C" 
			},
			{
				"x": 0.9952541291,
				"y": 1.6054422286,
				"z": -0.454246956,
				"element": "C" 
			},
			{
				"x": 1.4578143915,
				"y": 2.9405555027,
				"z": -0.8708996785,
				"element": "C" 
			},
			{
				"x": 0.550779576,
				"y": 3.9593276473,
				"z": -0.8277553557,
				"element": "O" 
			},
			{
				"x": 2.5869918996,
				"y": 3.1686320009,
				"z": -1.2438514246,
				"element": "O" 
			},
			{
				"x": -1.1719715545,
				"y": -1.0224434017,
				"z": 0.7272250216,
				"element": "C" 
			},
			{
				"x": -0.8554689775,
				"y": -2.3717223465,
				"z": 0.9239755253,
				"element": "C" 
			},
			{
				"x": -1.834842026,
				"y": -3.245292418,
				"z": 1.3912435199,
				"element": "C" 
			},
			{
				"x": -3.1260130842,
				"y": -2.79021109,
				"z": 1.6648146935,
				"element": "C" 
			},
			{
				"x": -3.4329671375,
				"y": -1.4436803493,
				"z": 1.4658925045,
				"element": "C" 
			},
			{
				"x": -2.463972709,
				"y": -0.5568978598,
				"z": 0.9987827211,
				"element": "C" 
			},
			{
				"x": 3.3978121514,
				"y": 0.5590150144,
				"z": -1.85140834,
				"element": "H" 
			},
			{
				"x": 3.5361891268,
				"y": -0.7788352609,
				"z": -0.6770289503,
				"element": "H" 
			},
			{
				"x": 3.8712283421,
				"y": 0.909755205,
				"z": -0.2031059374,
				"element": "H" 
			},
			{
				"x": -1.172534085,
				"y": 1.7316767957,
				"z": 0.1417933593,
				"element": "H" 
			},
			{
				"x": -0.3081666647,
				"y": 3.6468252278,
				"z": -0.5150253225,
				"element": "H" 
			},
			{
				"x": 0.1492748393,
				"y": -2.7108533271,
				"z": 0.7079384844,
				"element": "H" 
			},
			{
				"x": -1.5824735518,
				"y": -4.2907263031,
				"z": 1.5416504419,
				"element": "H" 
			},
			{
				"x": -3.8845348907,
				"y": -3.4761473152,
				"z": 2.0287093522,
				"element": "H" 
			},
			{
				"x": -4.4325878743,
				"y": -1.0742209438,
				"z": 1.6740125126,
				"element": "H" 
			},
			{
				"x": -2.7272156607,
				"y": 0.484710984,
				"z": 0.8522701606,
				"element": "H" 
			}
		],
		 "valence_orbital": [ 
			{
				"type": "occ",
				"energy": -0.29777,
				"method": "rhf"
			},
			{
				"type": "occ",
				"energy": -0.27391,
				"method": "rhf"
			},
			{
				"type": "occ",
				"energy": -0.27163,
				"method": "rhf"
			},
			{
				"type": "occ",
				"energy": -0.26589,
				"method": "rhf"
			},
			{
				"type": "occ",
				"energy": -0.23543,
				"method": "rhf"
			},
			{
				"type": "unocc",
				"energy": -0.04999,
				"method": "rhf"
			},
			{
				"type": "unocc",
				"energy": -0.01952,
				"method": "rhf"
			},
			{
				"type": "unocc",
				"energy": -0.00651,
				"method": "rhf"
			},
			{
				"type": "unocc",
				"energy": 0.02948,
				"method": "rhf"
			},
			{
				"type": "unocc",
				"energy": 0.04206,
				"method": "rhf"
			}
		],
		"cosmo_sigma_profile": { 
			"-0.025": 0.0,
			"-0.024": 0.0,
			"-0.023": 0.0,
			"-0.022": 0.0,
			"-0.021": 0.0,
			"-0.02": 0.404204574578,
			"-0.019": 1.0499756191,
			"-0.018": 0.901671291153,
			"-0.017": 1.24737686992,
			"-0.016": 1.00328910271,
			"-0.015": 1.39598305084,
			"-0.014": 0.686913340385,
			"-0.013": 1.42038218457,
			"-0.012": 2.81867950803,
			"-0.011": 2.20639994162,
			"-0.01": 1.33845102185,
			"-0.009": 1.97676781165,
			"-0.008": 2.44593108075,
			"-0.007": 3.69464424764,
			"-0.006": 8.7082271335,
			"-0.005": 12.4049839133,
			"-0.004": 17.5482668449,
			"-0.003": 13.6184567451,
			"-0.002": 14.1041875016,
			"-0.001": 20.8334665134,
			"0.0": 20.6313960594,
			"0.001": 17.7258045133,
			"0.002": 14.8853830631,
			"0.003": 14.2996227893,
			"0.004": 15.1869863897,
			"0.005": 10.0671715852,
			"0.006": 3.91063044091,
			"0.007": 3.97247774704,
			"0.008": 4.21328800068,
			"0.009": 4.49033156688,
			"0.01": 5.37688221649,
			"0.011": 5.84783964595,
			"0.012": 4.64056203971,
			"0.013": 2.34708576722,
			"0.014": 0.43571086532,
			"0.015": 0.0,
			"0.016": 0.0,
			"0.017": 0.0,
			"0.018": 0.0,
			"0.019": 0.0,
			"0.02": 0.0,
			"0.021": 0.0,
			"0.022": 0.0,
			"0.023": 0.0,
			"0.024": 0.0,
			"0.025": 0.0
		}
	}
}
