{
	 "smiles": "CC1CCC(=O)C1", 
	 "Tm": 215.15, 
	 "num_atms": 17, 
	 "gaussian": { 
		 "optdone": 1, 
		 "sigma_profile": "yes", 
		 "theory": "DFT", 
		 "functional": "B3LYP", 
		 "basiset": "6-31G**", 
		 "properties": { 
			 "R2extent": 1556.6884, 
			 "electric_dipole_moment_norm": 2.95043546108, 
			 "electric_quadrupole_moment_norm": 12.9369107974, 
			 "total_energy": -309.89690546, 
			 "HOMO_LUMO_gap": 0.22146, 
			 "cosmo_polarized_energy": -6.59, 
			 "cosmo_cavitation_energy": 19.04, 
			 "cosmo_dispersion_energy": -14.25, 
			 "cosmo_repulsion_energy": 1.23, 
			 "cosmo_total_nonelectrostatic_energy": 6.02, 
			 "SMD_solvation_energy": 3.68 
		},
		"coords": [
			{
				"x": -0.004887221,
				"y": -0.0828102871,
				"z": -1.3006944024,
				"element": "C" 
			},
			{
				"x": 0.6246530255,
				"y": 1.1886502927,
				"z": -0.7339841032,
				"element": "C" 
			},
			{
				"x": -0.3166668007,
				"y": 2.0098127039,
				"z": 0.1828504925,
				"element": "C" 
			},
			{
				"x": 0.6190140768,
				"y": 2.9559189976,
				"z": 0.9506849396,
				"element": "C" 
			},
			{
				"x": 1.9454955819,
				"y": 2.1915033493,
				"z": 1.0579481861,
				"element": "C" 
			},
			{
				"x": 2.8929517004,
				"y": 2.5108111532,
				"z": 1.7415991553,
				"element": "O" 
			},
			{
				"x": 1.8637458507,
				"y": 0.9588939997,
				"z": 0.1514512264,
				"element": "C" 
			},
			{
				"x": -0.8957914669,
				"y": 0.1475771999,
				"z": -1.8953719959,
				"element": "H" 
			},
			{
				"x": -0.3081200508,
				"y": -0.7610761987,
				"z": -0.4940400108,
				"element": "H" 
			},
			{
				"x": 0.6950460579,
				"y": -0.6242266573,
				"z": -1.9460365525,
				"element": "H" 
			},
			{
				"x": 0.9229065594,
				"y": 1.8357906154,
				"z": -1.5719371548,
				"element": "H" 
			},
			{
				"x": -0.8211477687,
				"y": 1.3308934525,
				"z": 0.88334843,
				"element": "H" 
			},
			{
				"x": -1.0966569499,
				"y": 2.5309459934,
				"z": -0.3804013029,
				"element": "H" 
			},
			{
				"x": 0.2664679535,
				"y": 3.2666341628,
				"z": 1.938044443,
				"element": "H" 
			},
			{
				"x": 0.816994995,
				"y": 3.8733911605,
				"z": 0.3795059109,
				"element": "H" 
			},
			{
				"x": 2.8024526256,
				"y": 0.7991558828,
				"z": -0.386349812,
				"element": "H" 
			},
			{
				"x": 1.7133418311,
				"y": 0.0844341794,
				"z": 0.8026825508,
				"element": "H" 
			}
		],
		 "valence_orbital": [ 
			{
				"type": "occ",
				"energy": -0.34966,
				"method": "rhf"
			},
			{
				"type": "occ",
				"energy": -0.33537,
				"method": "rhf"
			},
			{
				"type": "occ",
				"energy": -0.33148,
				"method": "rhf"
			},
			{
				"type": "occ",
				"energy": -0.32677,
				"method": "rhf"
			},
			{
				"type": "occ",
				"energy": -0.23517,
				"method": "rhf"
			},
			{
				"type": "unocc",
				"energy": -0.01371,
				"method": "rhf"
			},
			{
				"type": "unocc",
				"energy": 0.07873,
				"method": "rhf"
			},
			{
				"type": "unocc",
				"energy": 0.11509,
				"method": "rhf"
			},
			{
				"type": "unocc",
				"energy": 0.11682,
				"method": "rhf"
			},
			{
				"type": "unocc",
				"energy": 0.14085,
				"method": "rhf"
			}
		],
		"cosmo_sigma_profile": { 
			"-0.025": 0.0,
			"-0.024": 0.0,
			"-0.023": 0.0,
			"-0.022": 0.0,
			"-0.021": 0.0,
			"-0.02": 0.0,
			"-0.019": 0.0,
			"-0.018": 0.0,
			"-0.017": 0.0,
			"-0.016": 0.0,
			"-0.015": 0.0,
			"-0.014": 0.0,
			"-0.013": 0.0,
			"-0.012": 0.0,
			"-0.011": 0.0,
			"-0.01": 0.0,
			"-0.009": 0.0,
			"-0.008": 0.0,
			"-0.007": 0.0,
			"-0.006": 1.61478611635,
			"-0.005": 10.5337339089,
			"-0.004": 11.8463463714,
			"-0.003": 23.6722225919,
			"-0.002": 22.8617960796,
			"-0.001": 21.486632486,
			"0.0": 16.3300728916,
			"0.001": 11.5846881158,
			"0.002": 3.23237271221,
			"0.003": 1.71499899251,
			"0.004": 1.45358593284,
			"0.005": 1.13100162216,
			"0.006": 1.42084856646,
			"0.007": 1.5192183377,
			"0.008": 2.02162955702,
			"0.009": 1.54257931926,
			"0.01": 1.86346799999,
			"0.011": 3.05383409168,
			"0.012": 4.99796619175,
			"0.013": 3.36897039587,
			"0.014": 0.612669216877,
			"0.015": 0.0,
			"0.016": 0.0,
			"0.017": 0.0,
			"0.018": 0.0,
			"0.019": 0.0,
			"0.02": 0.0,
			"0.021": 0.0,
			"0.022": 0.0,
			"0.023": 0.0,
			"0.024": 0.0,
			"0.025": 0.0
		}
	}
}
