{
	 "smiles": "CC1=NN(CC2=CC=CC=C2)C(=O)C1", 
	 "Tm": 449.15, 
	 "num_atms": 26, 
	 "gaussian": { 
		 "optdone": 1, 
		 "sigma_profile": "yes", 
		 "theory": "DFT", 
		 "functional": "B3LYP", 
		 "basiset": "6-31G**", 
		 "properties": { 
			 "R2extent": 3492.3163, 
			 "electric_dipole_moment_norm": 2.7069419665, 
			 "electric_quadrupole_moment_norm": 16.2407045986, 
			 "total_energy": -611.118987713, 
			 "HOMO_LUMO_gap": 0.20119, 
			 "cosmo_polarized_energy": -12.15, 
			 "cosmo_cavitation_energy": 30.16, 
			 "cosmo_dispersion_energy": -21.36, 
			 "cosmo_repulsion_energy": 1.71, 
			 "cosmo_total_nonelectrostatic_energy": 10.51, 
			 "SMD_solvation_energy": 4.63 
		},
		"coords": [
			{
				"x": 1.1973959619,
				"y": -1.3604214928,
				"z": -4.4038440318,
				"element": "C" 
			},
			{
				"x": 0.2905111641,
				"y": -0.5629764522,
				"z": -3.5262144524,
				"element": "C" 
			},
			{
				"x": -0.041331496,
				"y": -0.9638754837,
				"z": -2.3455971842,
				"element": "N" 
			},
			{
				"x": -0.9025994501,
				"y": -0.0158285445,
				"z": -1.7944983326,
				"element": "N" 
			},
			{
				"x": -1.3708331665,
				"y": -0.1593736151,
				"z": -0.4231887593,
				"element": "C" 
			},
			{
				"x": -0.3550112321,
				"y": 0.2786924989,
				"z": 0.6153361394,
				"element": "C" 
			},
			{
				"x": 0.4052097448,
				"y": -0.6625512683,
				"z": 1.3169669167,
				"element": "C" 
			},
			{
				"x": 1.3481985353,
				"y": -0.2512265031,
				"z": 2.2613891729,
				"element": "C" 
			},
			{
				"x": 1.5401543559,
				"y": 1.1083972849,
				"z": 2.5102251992,
				"element": "C" 
			},
			{
				"x": 0.7863147179,
				"y": 2.0550369834,
				"z": 1.8112467781,
				"element": "C" 
			},
			{
				"x": -0.1565613928,
				"y": 1.6430911188,
				"z": 0.8699396962,
				"element": "C" 
			},
			{
				"x": -1.1235887992,
				"y": 1.0779362579,
				"z": -2.6041466893,
				"element": "C" 
			},
			{
				"x": -1.797367837,
				"y": 2.0572419182,
				"z": -2.3277918577,
				"element": "O" 
			},
			{
				"x": -0.3393314058,
				"y": 0.7589993239,
				"z": -3.8797874823,
				"element": "C" 
			},
			{
				"x": 2.0922828688,
				"y": -0.7857754154,
				"z": -4.672132067,
				"element": "H" 
			},
			{
				"x": 0.6999824164,
				"y": -1.6338580221,
				"z": -5.3424997647,
				"element": "H" 
			},
			{
				"x": 1.5059640974,
				"y": -2.2731589577,
				"z": -3.8898768463,
				"element": "H" 
			},
			{
				"x": -2.2737090322,
				"y": 0.4538926195,
				"z": -0.3565803697,
				"element": "H" 
			},
			{
				"x": -1.6488709736,
				"y": -1.2065166332,
				"z": -0.2760889385,
				"element": "H" 
			},
			{
				"x": 0.2594926602,
				"y": -1.7217619719,
				"z": 1.1206987166,
				"element": "H" 
			},
			{
				"x": 1.9309782299,
				"y": -0.9920513755,
				"z": 2.8016723645,
				"element": "H" 
			},
			{
				"x": 2.2715695864,
				"y": 1.4298670091,
				"z": 3.2463800227,
				"element": "H" 
			},
			{
				"x": 0.9299584873,
				"y": 3.1146536835,
				"z": 2.0035727789,
				"element": "H" 
			},
			{
				"x": -0.7427080376,
				"y": 2.3758595755,
				"z": 0.3214774641,
				"element": "H" 
			},
			{
				"x": 0.3921239524,
				"y": 1.5463331422,
				"z": -4.0938592404,
				"element": "H" 
			},
			{
				"x": -1.0104239557,
				"y": 0.7003743197,
				"z": -4.7445992332,
				"element": "H" 
			}
		],
		 "valence_orbital": [ 
			{
				"type": "occ",
				"energy": -0.30937,
				"method": "rhf"
			},
			{
				"type": "occ",
				"energy": -0.25275,
				"method": "rhf"
			},
			{
				"type": "occ",
				"energy": -0.24691,
				"method": "rhf"
			},
			{
				"type": "occ",
				"energy": -0.24303,
				"method": "rhf"
			},
			{
				"type": "occ",
				"energy": -0.22424,
				"method": "rhf"
			},
			{
				"type": "unocc",
				"energy": -0.02305,
				"method": "rhf"
			},
			{
				"type": "unocc",
				"energy": -0.00253,
				"method": "rhf"
			},
			{
				"type": "unocc",
				"energy": 0.00209,
				"method": "rhf"
			},
			{
				"type": "unocc",
				"energy": 0.04422,
				"method": "rhf"
			},
			{
				"type": "unocc",
				"energy": 0.09248,
				"method": "rhf"
			}
		],
		"cosmo_sigma_profile": { 
			"-0.025": 0.0,
			"-0.024": 0.0,
			"-0.023": 0.0,
			"-0.022": 0.0,
			"-0.021": 0.0,
			"-0.02": 0.0,
			"-0.019": 0.0,
			"-0.018": 0.0,
			"-0.017": 0.0,
			"-0.016": 0.0,
			"-0.015": 0.0,
			"-0.014": 0.0,
			"-0.013": 0.0,
			"-0.012": 0.0,
			"-0.011": 0.0,
			"-0.01": 0.0,
			"-0.009": 0.175741669613,
			"-0.008": 4.04300551921,
			"-0.007": 5.5325470628,
			"-0.006": 14.1827259274,
			"-0.005": 24.6718472398,
			"-0.004": 23.1586449212,
			"-0.003": 23.7368632749,
			"-0.002": 19.0911879067,
			"-0.001": 17.6473528023,
			"0.0": 12.9976823175,
			"0.001": 12.9672366586,
			"0.002": 10.9740615898,
			"0.003": 11.057704687,
			"0.004": 12.7696841811,
			"0.005": 12.3176223627,
			"0.006": 10.4446072815,
			"0.007": 2.86591998958,
			"0.008": 3.04643643342,
			"0.009": 2.41248383977,
			"0.01": 2.49091470145,
			"0.011": 2.0706052429,
			"0.012": 3.46923910384,
			"0.013": 5.31765389961,
			"0.014": 2.29719883914,
			"0.015": 0.0611631592199,
			"0.016": 0.0,
			"0.017": 0.0,
			"0.018": 0.0,
			"0.019": 0.0,
			"0.02": 0.0,
			"0.021": 0.0,
			"0.022": 0.0,
			"0.023": 0.0,
			"0.024": 0.0,
			"0.025": 0.0
		}
	}
}
