{
	 "smiles": "CCOC(=O)C(=CNC1=C(OCC)C=CC=C1)C#N", 
	 "Tm": 415.15, 
	 "num_atms": 35, 
	 "gaussian": { 
		 "optdone": 1, 
		 "sigma_profile": "yes", 
		 "theory": "DFT", 
		 "functional": "B3LYP", 
		 "basiset": "6-31G**", 
		 "properties": { 
			 "R2extent": 6868.4909, 
			 "electric_dipole_moment_norm": 10.0742725881, 
			 "electric_quadrupole_moment_norm": 46.1698369795, 
			 "total_energy": -878.300067903, 
			 "HOMO_LUMO_gap": 0.15463, 
			 "cosmo_polarized_energy": -19.79, 
			 "cosmo_cavitation_energy": 40.54, 
			 "cosmo_dispersion_energy": -26.8, 
			 "cosmo_repulsion_energy": 2.07, 
			 "cosmo_total_nonelectrostatic_energy": 15.81, 
			 "SMD_solvation_energy": 9.64 
		},
		"coords": [
			{
				"x": 3.6540106185,
				"y": 2.5423674244,
				"z": 1.5413528759,
				"element": "C" 
			},
			{
				"x": 2.964837014,
				"y": 2.4754116961,
				"z": 0.1872854509,
				"element": "C" 
			},
			{
				"x": 1.521592128,
				"y": 2.4712510739,
				"z": 0.3273016229,
				"element": "O" 
			},
			{
				"x": 0.9232910785,
				"y": 3.6993919495,
				"z": 0.4432700955,
				"element": "C" 
			},
			{
				"x": 1.5459892415,
				"y": 4.7408317054,
				"z": 0.4189665983,
				"element": "O" 
			},
			{
				"x": -0.5379682572,
				"y": 3.5937829911,
				"z": 0.5922522684,
				"element": "C" 
			},
			{
				"x": -1.2851156351,
				"y": 2.4332752524,
				"z": 0.6375955394,
				"element": "C" 
			},
			{
				"x": -0.8402754607,
				"y": 1.1687586835,
				"z": 0.54626878,
				"element": "N" 
			},
			{
				"x": -1.6109434737,
				"y": -0.0054464114,
				"z": 0.6190206616,
				"element": "C" 
			},
			{
				"x": -0.9438560211,
				"y": -1.2189882865,
				"z": 0.3237489513,
				"element": "C" 
			},
			{
				"x": 0.3796162624,
				"y": -1.0850143054,
				"z": 0.006932636,
				"element": "O" 
			},
			{
				"x": 1.1390150335,
				"y": -2.2570300184,
				"z": -0.3021827077,
				"element": "C" 
			},
			{
				"x": 2.558710827,
				"y": -1.8185188322,
				"z": -0.6122787376,
				"element": "C" 
			},
			{
				"x": -1.6388618441,
				"y": -2.4265519259,
				"z": 0.3708264146,
				"element": "C" 
			},
			{
				"x": -2.9959437979,
				"y": -2.4403621658,
				"z": 0.7096695615,
				"element": "C" 
			},
			{
				"x": -3.6540882939,
				"y": -1.250989744,
				"z": 1.0074556143,
				"element": "C" 
			},
			{
				"x": -2.9625829533,
				"y": -0.0383093049,
				"z": 0.9676102861,
				"element": "C" 
			},
			{
				"x": -1.250896492,
				"y": 4.8260922124,
				"z": 0.703261616,
				"element": "C" 
			},
			{
				"x": -1.8689033777,
				"y": 5.808512508,
				"z": 0.7980034706,
				"element": "N" 
			},
			{
				"x": 3.4293667707,
				"y": 3.4890764557,
				"z": 2.0378273056,
				"element": "H" 
			},
			{
				"x": 4.7389192017,
				"y": 2.4732699588,
				"z": 1.4083745548,
				"element": "H" 
			},
			{
				"x": 3.333677162,
				"y": 1.7182409601,
				"z": 2.1860600426,
				"element": "H" 
			},
			{
				"x": 3.2486800569,
				"y": 3.320846649,
				"z": -0.44254873,
				"element": "H" 
			},
			{
				"x": 3.187516411,
				"y": 1.5411237213,
				"z": -0.3336715384,
				"element": "H" 
			},
			{
				"x": -2.3571702182,
				"y": 2.5475323751,
				"z": 0.7537664002,
				"element": "H" 
			},
			{
				"x": 0.1563090365,
				"y": 1.0446322235,
				"z": 0.3920828263,
				"element": "H" 
			},
			{
				"x": 1.1171242676,
				"y": -2.9457450336,
				"z": 0.5531866249,
				"element": "H" 
			},
			{
				"x": 0.688835818,
				"y": -2.7693942099,
				"z": -1.1630246613,
				"element": "H" 
			},
			{
				"x": 3.0042049602,
				"y": -1.312917135,
				"z": 0.2492328591,
				"element": "H" 
			},
			{
				"x": 3.1738195466,
				"y": -2.6897005813,
				"z": -0.8565581459,
				"element": "H" 
			},
			{
				"x": 2.5741033223,
				"y": -1.1350585677,
				"z": -1.4659932704,
				"element": "H" 
			},
			{
				"x": -1.1324928047,
				"y": -3.3567049841,
				"z": 0.1435159324,
				"element": "H" 
			},
			{
				"x": -3.5278120789,
				"y": -3.3858851461,
				"z": 0.7421088923,
				"element": "H" 
			},
			{
				"x": -4.7045953891,
				"y": -1.2567495123,
				"z": 1.2791750913,
				"element": "H" 
			},
			{
				"x": -3.4850126594,
				"y": 0.8774683243,
				"z": 1.2215048184,
				"element": "H" 
			}
		],
		 "valence_orbital": [ 
			{
				"type": "occ",
				"energy": -0.30336,
				"method": "rhf"
			},
			{
				"type": "occ",
				"energy": -0.27666,
				"method": "rhf"
			},
			{
				"type": "occ",
				"energy": -0.27375,
				"method": "rhf"
			},
			{
				"type": "occ",
				"energy": -0.24926,
				"method": "rhf"
			},
			{
				"type": "occ",
				"energy": -0.21139,
				"method": "rhf"
			},
			{
				"type": "unocc",
				"energy": -0.05676,
				"method": "rhf"
			},
			{
				"type": "unocc",
				"energy": -0.00837,
				"method": "rhf"
			},
			{
				"type": "unocc",
				"energy": 0.00544,
				"method": "rhf"
			},
			{
				"type": "unocc",
				"energy": 0.03885,
				"method": "rhf"
			},
			{
				"type": "unocc",
				"energy": 0.04898,
				"method": "rhf"
			}
		],
		"cosmo_sigma_profile": { 
			"-0.025": 0.0,
			"-0.024": 0.0,
			"-0.023": 0.0,
			"-0.022": 0.0,
			"-0.021": 0.0,
			"-0.02": 0.0,
			"-0.019": 0.0,
			"-0.018": 0.0,
			"-0.017": 0.0,
			"-0.016": 0.0,
			"-0.015": 0.0,
			"-0.014": 0.0,
			"-0.013": 0.0176647754064,
			"-0.012": 0.94303277854,
			"-0.011": 2.02537286173,
			"-0.01": 1.3494133994,
			"-0.009": 2.23032258053,
			"-0.008": 2.18244316791,
			"-0.007": 4.05826011908,
			"-0.006": 9.68348189387,
			"-0.005": 20.4269563477,
			"-0.004": 32.67206758,
			"-0.003": 33.3665718042,
			"-0.002": 36.5150822317,
			"-0.001": 34.9747878615,
			"0.0": 31.3267478643,
			"0.001": 18.6871367035,
			"0.002": 13.9301348811,
			"0.003": 12.4405927288,
			"0.004": 12.389115398,
			"0.005": 11.1852143128,
			"0.006": 4.70537982075,
			"0.007": 4.22068708306,
			"0.008": 4.8272980957,
			"0.009": 5.57423862082,
			"0.01": 5.70566285616,
			"0.011": 6.21973204179,
			"0.012": 7.17379918112,
			"0.013": 3.18532815426,
			"0.014": 1.36976231568,
			"0.015": 0.0120074376072,
			"0.016": 0.0,
			"0.017": 0.0,
			"0.018": 0.0,
			"0.019": 0.0,
			"0.02": 0.0,
			"0.021": 0.0,
			"0.022": 0.0,
			"0.023": 0.0,
			"0.024": 0.0,
			"0.025": 0.0
		}
	}
}
