{
	 "smiles": "CC1=CC=C(Cl)C(Cl)=C1Cl", 
	 "Tm": 316.65, 
	 "num_atms": 15, 
	 "gaussian": { 
		 "optdone": 1, 
		 "sigma_profile": "yes", 
		 "theory": "DFT", 
		 "functional": "B3LYP", 
		 "basiset": "6-31G**", 
		 "properties": { 
			 "R2extent": 2681.5262, 
			 "electric_dipole_moment_norm": 3.12729867458, 
			 "electric_quadrupole_moment_norm": 3.21677735164, 
			 "total_energy": -1650.33510754, 
			 "HOMO_LUMO_gap": 0.21972, 
			 "cosmo_polarized_energy": -4.38, 
			 "cosmo_cavitation_energy": 23.89, 
			 "cosmo_dispersion_energy": -18.17, 
			 "cosmo_repulsion_energy": 1.46, 
			 "cosmo_total_nonelectrostatic_energy": 7.19, 
			 "SMD_solvation_energy": 3.41 
		},
		"coords": [
			{
				"x": -1.9531356035,
				"y": -1.4321552618,
				"z": 1.3577220832,
				"element": "C" 
			},
			{
				"x": -1.1009391812,
				"y": -0.7466331505,
				"z": 0.3208103187,
				"element": "C" 
			},
			{
				"x": -1.5337055722,
				"y": 0.431696826,
				"z": -0.2959840282,
				"element": "C" 
			},
			{
				"x": -0.7662765542,
				"y": 1.0829479657,
				"z": -1.2550748252,
				"element": "C" 
			},
			{
				"x": 0.4713971282,
				"y": 0.5617517137,
				"z": -1.6248046475,
				"element": "C" 
			},
			{
				"x": 1.4087328997,
				"y": 1.4059064804,
				"z": -2.8327029063,
				"element": "Cl" 
			},
			{
				"x": 0.9451433434,
				"y": -0.6190957044,
				"z": -1.031302706,
				"element": "C" 
			},
			{
				"x": 2.489078201,
				"y": -1.2752347311,
				"z": -1.4880238775,
				"element": "Cl" 
			},
			{
				"x": 0.1497283773,
				"y": -1.2587303791,
				"z": -0.0637299826,
				"element": "C" 
			},
			{
				"x": 0.7200057963,
				"y": -2.7315755542,
				"z": 0.6891228789,
				"element": "Cl" 
			},
			{
				"x": -2.2057603364,
				"y": -2.4534245657,
				"z": 1.0541995234,
				"element": "H" 
			},
			{
				"x": -2.8825446558,
				"y": -0.8799944943,
				"z": 1.514918847,
				"element": "H" 
			},
			{
				"x": -1.4302907654,
				"y": -1.5075511276,
				"z": 2.3168298779,
				"element": "H" 
			},
			{
				"x": -2.4969346776,
				"y": 0.8471300576,
				"z": -0.0155437734,
				"element": "H" 
			},
			{
				"x": -1.1177983996,
				"y": 1.9954619252,
				"z": -1.7226367825,
				"element": "H" 
			}
		],
		 "valence_orbital": [ 
			{
				"type": "occ",
				"energy": -0.32796,
				"method": "rhf"
			},
			{
				"type": "occ",
				"energy": -0.32592,
				"method": "rhf"
			},
			{
				"type": "occ",
				"energy": -0.30495,
				"method": "rhf"
			},
			{
				"type": "occ",
				"energy": -0.25737,
				"method": "rhf"
			},
			{
				"type": "occ",
				"energy": -0.25177,
				"method": "rhf"
			},
			{
				"type": "unocc",
				"energy": -0.03205,
				"method": "rhf"
			},
			{
				"type": "unocc",
				"energy": -0.02861,
				"method": "rhf"
			},
			{
				"type": "unocc",
				"energy": -0.0171,
				"method": "rhf"
			},
			{
				"type": "unocc",
				"energy": 0.04764,
				"method": "rhf"
			},
			{
				"type": "unocc",
				"energy": 0.06186,
				"method": "rhf"
			}
		],
		"cosmo_sigma_profile": { 
			"-0.025": 0.0,
			"-0.024": 0.0,
			"-0.023": 0.0,
			"-0.022": 0.0,
			"-0.021": 0.0,
			"-0.02": 0.0,
			"-0.019": 0.0,
			"-0.018": 0.0,
			"-0.017": 0.0,
			"-0.016": 0.0,
			"-0.015": 0.0,
			"-0.014": 0.0,
			"-0.013": 0.0,
			"-0.012": 0.0,
			"-0.011": 0.0,
			"-0.01": 0.0,
			"-0.009": 0.0593526179664,
			"-0.008": 2.05997009288,
			"-0.007": 4.8804934961,
			"-0.006": 5.81186054232,
			"-0.005": 6.96658591589,
			"-0.004": 8.65078246918,
			"-0.003": 12.6267214521,
			"-0.002": 14.5655039276,
			"-0.001": 22.1728777962,
			"0.0": 27.6458604278,
			"0.001": 22.6940584708,
			"0.002": 21.4419447703,
			"0.003": 20.0177067882,
			"0.004": 21.4403851331,
			"0.005": 6.74456823583,
			"0.006": 0.108437874676,
			"0.007": 0.0,
			"0.008": 0.0,
			"0.009": 0.0,
			"0.01": 0.0,
			"0.011": 0.0,
			"0.012": 0.0,
			"0.013": 0.0,
			"0.014": 0.0,
			"0.015": 0.0,
			"0.016": 0.0,
			"0.017": 0.0,
			"0.018": 0.0,
			"0.019": 0.0,
			"0.02": 0.0,
			"0.021": 0.0,
			"0.022": 0.0,
			"0.023": 0.0,
			"0.024": 0.0,
			"0.025": 0.0
		}
	}
}
