{
	 "smiles": "O=CC1=CN=C(S1)C1=CC=CC=C1", 
	 "Tm": 361.15, 
	 "num_atms": 20, 
	 "gaussian": { 
		 "optdone": 1, 
		 "sigma_profile": "yes", 
		 "theory": "DFT", 
		 "functional": "B3LYP", 
		 "basiset": "6-31G**", 
		 "properties": { 
			 "R2extent": 3741.4869, 
			 "electric_dipole_moment_norm": 3.2583512794, 
			 "electric_quadrupole_moment_norm": 16.6128450875, 
			 "total_energy": -913.432891353, 
			 "HOMO_LUMO_gap": 0.14999, 
			 "cosmo_polarized_energy": -9.66, 
			 "cosmo_cavitation_energy": 26.7, 
			 "cosmo_dispersion_energy": -20.15, 
			 "cosmo_repulsion_energy": 1.52, 
			 "cosmo_total_nonelectrostatic_energy": 8.07, 
			 "SMD_solvation_energy": 4.15 
		},
		"coords": [
			{
				"x": -3.5903562617,
				"y": -1.0060399941,
				"z": -4.2445359812,
				"element": "O" 
			},
			{
				"x": -2.3759382628,
				"y": -1.0028923533,
				"z": -4.3502905056,
				"element": "C" 
			},
			{
				"x": -1.449361375,
				"y": -0.6430522275,
				"z": -3.2861081863,
				"element": "C" 
			},
			{
				"x": -0.0717718594,
				"y": -0.6173382282,
				"z": -3.3344746229,
				"element": "C" 
			},
			{
				"x": 0.5700688998,
				"y": -0.2431915281,
				"z": -2.1976352385,
				"element": "N" 
			},
			{
				"x": -0.2895844259,
				"y": 0.0320417379,
				"z": -1.2350562989,
				"element": "C" 
			},
			{
				"x": -1.9769240739,
				"y": -0.162156995,
				"z": -1.696309623,
				"element": "S" 
			},
			{
				"x": 0.1194978517,
				"y": 0.463052674,
				"z": 0.1059482922,
				"element": "C" 
			},
			{
				"x": -0.8161544921,
				"y": 0.7502255089,
				"z": 1.1143234687,
				"element": "C" 
			},
			{
				"x": -0.3905044382,
				"y": 1.1569448508,
				"z": 2.3759564296,
				"element": "C" 
			},
			{
				"x": 0.9736262427,
				"y": 1.2829220525,
				"z": 2.6495612277,
				"element": "C" 
			},
			{
				"x": 1.9109497406,
				"y": 0.9993398942,
				"z": 1.6525522787,
				"element": "C" 
			},
			{
				"x": 1.4915532357,
				"y": 0.5924417903,
				"z": 0.389741845,
				"element": "C" 
			},
			{
				"x": -1.8753903564,
				"y": -1.2854022678,
				"z": -5.3014240764,
				"element": "H" 
			},
			{
				"x": 0.5088351671,
				"y": -0.8750252227,
				"z": -4.214596212,
				"element": "H" 
			},
			{
				"x": -1.8802201467,
				"y": 0.6565844854,
				"z": 0.9157881386,
				"element": "H" 
			},
			{
				"x": -1.1239889665,
				"y": 1.3756937859,
				"z": 3.1460767785,
				"element": "H" 
			},
			{
				"x": 1.303815943,
				"y": 1.6002929657,
				"z": 3.6342654867,
				"element": "H" 
			},
			{
				"x": 2.9724846915,
				"y": 1.0958537311,
				"z": 1.8605779051,
				"element": "H" 
			},
			{
				"x": 2.2071628867,
				"y": 0.36910534,
				"z": -0.393361106,
				"element": "H" 
			}
		],
		 "valence_orbital": [ 
			{
				"type": "occ",
				"energy": -0.29429,
				"method": "rhf"
			},
			{
				"type": "occ",
				"energy": -0.29409,
				"method": "rhf"
			},
			{
				"type": "occ",
				"energy": -0.26612,
				"method": "rhf"
			},
			{
				"type": "occ",
				"energy": -0.25936,
				"method": "rhf"
			},
			{
				"type": "occ",
				"energy": -0.23784,
				"method": "rhf"
			},
			{
				"type": "unocc",
				"energy": -0.08785,
				"method": "rhf"
			},
			{
				"type": "unocc",
				"energy": -0.02942,
				"method": "rhf"
			},
			{
				"type": "unocc",
				"energy": -0.01481,
				"method": "rhf"
			},
			{
				"type": "unocc",
				"energy": 0.01179,
				"method": "rhf"
			},
			{
				"type": "unocc",
				"energy": 0.03416,
				"method": "rhf"
			}
		],
		"cosmo_sigma_profile": { 
			"-0.025": 0.0,
			"-0.024": 0.0,
			"-0.023": 0.0,
			"-0.022": 0.0,
			"-0.021": 0.0,
			"-0.02": 0.0,
			"-0.019": 0.0,
			"-0.018": 0.0,
			"-0.017": 0.0,
			"-0.016": 0.0,
			"-0.015": 0.0,
			"-0.014": 0.0,
			"-0.013": 0.0,
			"-0.012": 0.0,
			"-0.011": 0.0,
			"-0.01": 0.3359363484,
			"-0.009": 3.60020004087,
			"-0.008": 4.28168703186,
			"-0.007": 8.3106197599,
			"-0.006": 12.53478436,
			"-0.005": 14.3952577324,
			"-0.004": 13.6705216345,
			"-0.003": 12.062480679,
			"-0.002": 13.5026336307,
			"-0.001": 18.8524629786,
			"0.0": 20.1517121627,
			"0.001": 19.3247100488,
			"0.002": 18.9637516708,
			"0.003": 14.2884518048,
			"0.004": 14.8925406181,
			"0.005": 4.10783629633,
			"0.006": 2.77123654511,
			"0.007": 2.7517655894,
			"0.008": 2.74593680311,
			"0.009": 3.56634464817,
			"0.01": 3.95856229405,
			"0.011": 5.22968995879,
			"0.012": 2.9690023761,
			"0.013": 0.60959882557,
			"0.014": 0.0,
			"0.015": 0.0,
			"0.016": 0.0,
			"0.017": 0.0,
			"0.018": 0.0,
			"0.019": 0.0,
			"0.02": 0.0,
			"0.021": 0.0,
			"0.022": 0.0,
			"0.023": 0.0,
			"0.024": 0.0,
			"0.025": 0.0
		}
	}
}
