{
	 "smiles": "O=CC1=CSC2=C1C=CC=C2", 
	 "Tm": 330.15, 
	 "num_atms": 17, 
	 "gaussian": { 
		 "optdone": 1, 
		 "sigma_profile": "yes", 
		 "theory": "DFT", 
		 "functional": "B3LYP", 
		 "basiset": "6-31G**", 
		 "properties": { 
			 "R2extent": 1945.2744, 
			 "electric_dipole_moment_norm": 3.21084728693, 
			 "electric_quadrupole_moment_norm": 7.73868655393, 
			 "total_energy": -819.973866888, 
			 "HOMO_LUMO_gap": 0.16705, 
			 "cosmo_polarized_energy": -8.05, 
			 "cosmo_cavitation_energy": 23.08, 
			 "cosmo_dispersion_energy": -17.61, 
			 "cosmo_repulsion_energy": 1.33, 
			 "cosmo_total_nonelectrostatic_energy": 6.8, 
			 "SMD_solvation_energy": 4.68 
		},
		"coords": [
			{
				"x": -2.8703552039,
				"y": 0.2978961043,
				"z": -1.8379340993,
				"element": "O" 
			},
			{
				"x": -1.6587118651,
				"y": 0.178905992,
				"z": -1.7861804211,
				"element": "C" 
			},
			{
				"x": -0.8702694094,
				"y": 0.2597789912,
				"z": -0.5448067996,
				"element": "C" 
			},
			{
				"x": -1.4640342506,
				"y": 0.4813875847,
				"z": 0.6688417323,
				"element": "C" 
			},
			{
				"x": -0.3467918045,
				"y": 0.5381740337,
				"z": 1.9883298777,
				"element": "S" 
			},
			{
				"x": 1.0107820582,
				"y": 0.2533877175,
				"z": 0.9010611148,
				"element": "C" 
			},
			{
				"x": 0.5715398219,
				"y": 0.1230319342,
				"z": -0.4392033816,
				"element": "C" 
			},
			{
				"x": 1.5344352741,
				"y": -0.1091290682,
				"z": -1.4397035237,
				"element": "C" 
			},
			{
				"x": 2.8756204966,
				"y": -0.2036628724,
				"z": -1.0929856131,
				"element": "C" 
			},
			{
				"x": 3.2885662501,
				"y": -0.0709203979,
				"z": 0.2445580639,
				"element": "C" 
			},
			{
				"x": 2.3601715285,
				"y": 0.1587648354,
				"z": 1.2536010752,
				"element": "C" 
			},
			{
				"x": -1.071078007,
				"y": -0.0048410396,
				"z": -2.7106065832,
				"element": "H" 
			},
			{
				"x": -2.5250382511,
				"y": 0.6138555548,
				"z": 0.8332878646,
				"element": "H" 
			},
			{
				"x": 1.2334854194,
				"y": -0.2141580904,
				"z": -2.4774176941,
				"element": "H" 
			},
			{
				"x": 3.6176080701,
				"y": -0.3827495948,
				"z": -1.8652268801,
				"element": "H" 
			},
			{
				"x": 4.3427085013,
				"y": -0.1484262535,
				"z": 0.4926726642,
				"element": "H" 
			},
			{
				"x": 2.6757613714,
				"y": 0.2617045692,
				"z": 2.287212603,
				"element": "H" 
			}
		],
		 "valence_orbital": [ 
			{
				"type": "occ",
				"energy": -0.34093,
				"method": "rhf"
			},
			{
				"type": "occ",
				"energy": -0.29425,
				"method": "rhf"
			},
			{
				"type": "occ",
				"energy": -0.25512,
				"method": "rhf"
			},
			{
				"type": "occ",
				"energy": -0.25103,
				"method": "rhf"
			},
			{
				"type": "occ",
				"energy": -0.23256,
				"method": "rhf"
			},
			{
				"type": "unocc",
				"energy": -0.06551,
				"method": "rhf"
			},
			{
				"type": "unocc",
				"energy": -0.02127,
				"method": "rhf"
			},
			{
				"type": "unocc",
				"energy": -0.01287,
				"method": "rhf"
			},
			{
				"type": "unocc",
				"energy": 0.00936,
				"method": "rhf"
			},
			{
				"type": "unocc",
				"energy": 0.07973,
				"method": "rhf"
			}
		],
		"cosmo_sigma_profile": { 
			"-0.025": 0.0,
			"-0.024": 0.0,
			"-0.023": 0.0,
			"-0.022": 0.0,
			"-0.021": 0.0,
			"-0.02": 0.0,
			"-0.019": 0.0,
			"-0.018": 0.0,
			"-0.017": 0.0,
			"-0.016": 0.0,
			"-0.015": 0.0,
			"-0.014": 0.0,
			"-0.013": 0.0,
			"-0.012": 0.0,
			"-0.011": 0.0,
			"-0.01": 0.554477032986,
			"-0.009": 1.79716309236,
			"-0.008": 4.03207790105,
			"-0.007": 8.58123084019,
			"-0.006": 11.8329063327,
			"-0.005": 11.9948517439,
			"-0.004": 13.5722045531,
			"-0.003": 10.7972782428,
			"-0.002": 8.95865034246,
			"-0.001": 12.0794503981,
			"0.0": 13.8817667202,
			"0.001": 20.2859356169,
			"0.002": 18.1581020282,
			"0.003": 15.3028242848,
			"0.004": 12.0620767778,
			"0.005": 7.12234473214,
			"0.006": 1.88163816724,
			"0.007": 1.1364250325,
			"0.008": 1.78993290118,
			"0.009": 1.83832279731,
			"0.01": 2.51257513739,
			"0.011": 4.04684746101,
			"0.012": 3.23303069647,
			"0.013": 1.13767326164,
			"0.014": 0.0367945335288,
			"0.015": 0.0,
			"0.016": 0.0,
			"0.017": 0.0,
			"0.018": 0.0,
			"0.019": 0.0,
			"0.02": 0.0,
			"0.021": 0.0,
			"0.022": 0.0,
			"0.023": 0.0,
			"0.024": 0.0,
			"0.025": 0.0
		}
	}
}
