{
	 "smiles": "SC1=NC(=CC=N1)C1=CC=CO1", 
	 "Tm": 473.15, 
	 "num_atms": 18, 
	 "gaussian": { 
		 "optdone": 1, 
		 "sigma_profile": "yes", 
		 "theory": "DFT", 
		 "functional": "B3LYP", 
		 "basiset": "6-31G**", 
		 "properties": { 
			 "R2extent": 2794.2555, 
			 "electric_dipole_moment_norm": 4.00525037794, 
			 "electric_quadrupole_moment_norm": 7.85882392792, 
			 "total_energy": -891.354406359, 
			 "HOMO_LUMO_gap": 0.16595, 
			 "cosmo_polarized_energy": -8.91, 
			 "cosmo_cavitation_energy": 25.04, 
			 "cosmo_dispersion_energy": -19.13, 
			 "cosmo_repulsion_energy": 1.46, 
			 "cosmo_total_nonelectrostatic_energy": 7.37, 
			 "SMD_solvation_energy": 2.15 
		},
		"coords": [
			{
				"x": 2.2288116761,
				"y": 3.3283748373,
				"z": 0.1978649056,
				"element": "S" 
			},
			{
				"x": 1.8802847576,
				"y": 1.6039402649,
				"z": -0.0772146485,
				"element": "C" 
			},
			{
				"x": 0.6985940648,
				"y": 1.1274051828,
				"z": 0.3143400268,
				"element": "N" 
			},
			{
				"x": 0.4790125202,
				"y": -0.1832614805,
				"z": 0.0858369862,
				"element": "C" 
			},
			{
				"x": 1.4477927992,
				"y": -0.9903214193,
				"z": -0.5303809598,
				"element": "C" 
			},
			{
				"x": 2.6363703725,
				"y": -0.3656961549,
				"z": -0.8883179056,
				"element": "C" 
			},
			{
				"x": 2.8754830127,
				"y": 0.9329587242,
				"z": -0.6712038829,
				"element": "N" 
			},
			{
				"x": -0.808179071,
				"y": -0.7016647126,
				"z": 0.5125213349,
				"element": "C" 
			},
			{
				"x": -1.8867740343,
				"y": -0.1145065246,
				"z": 1.122197626,
				"element": "C" 
			},
			{
				"x": -2.8642937562,
				"y": -1.1393782574,
				"z": 1.2905599392,
				"element": "C" 
			},
			{
				"x": -2.3141821551,
				"y": -2.2764799819,
				"z": 0.7728775565,
				"element": "C" 
			},
			{
				"x": -1.0663071367,
				"y": -2.0312992084,
				"z": 0.2956952596,
				"element": "O" 
			},
			{
				"x": 1.041770226,
				"y": 3.5956500982,
				"z": 0.7748165965,
				"element": "H" 
			},
			{
				"x": 1.2728279972,
				"y": -2.0425885964,
				"z": -0.7143781403,
				"element": "H" 
			},
			{
				"x": 3.4357353469,
				"y": -0.9254680634,
				"z": -1.3705566535,
				"element": "H" 
			},
			{
				"x": -1.9531560067,
				"y": 0.9243081781,
				"z": 1.4071260738,
				"element": "H" 
			},
			{
				"x": -3.8440087322,
				"y": -1.0454649061,
				"z": 1.7359176243,
				"element": "H" 
			},
			{
				"x": -2.6647818812,
				"y": -3.29220798,
				"z": 0.6732982613,
				"element": "H" 
			}
		],
		 "valence_orbital": [ 
			{
				"type": "occ",
				"energy": -0.30519,
				"method": "rhf"
			},
			{
				"type": "occ",
				"energy": -0.29305,
				"method": "rhf"
			},
			{
				"type": "occ",
				"energy": -0.25868,
				"method": "rhf"
			},
			{
				"type": "occ",
				"energy": -0.24453,
				"method": "rhf"
			},
			{
				"type": "occ",
				"energy": -0.22904,
				"method": "rhf"
			},
			{
				"type": "unocc",
				"energy": -0.06309,
				"method": "rhf"
			},
			{
				"type": "unocc",
				"energy": -0.02757,
				"method": "rhf"
			},
			{
				"type": "unocc",
				"energy": 0.02394,
				"method": "rhf"
			},
			{
				"type": "unocc",
				"energy": 0.02494,
				"method": "rhf"
			},
			{
				"type": "unocc",
				"energy": 0.06829,
				"method": "rhf"
			}
		],
		"cosmo_sigma_profile": { 
			"-0.025": 0.0,
			"-0.024": 0.0,
			"-0.023": 0.0,
			"-0.022": 0.0,
			"-0.021": 0.0,
			"-0.02": 0.0,
			"-0.019": 0.0,
			"-0.018": 0.0,
			"-0.017": 0.0,
			"-0.016": 0.0,
			"-0.015": 0.0,
			"-0.014": 0.0,
			"-0.013": 0.0,
			"-0.012": 0.0,
			"-0.011": 0.66316527747,
			"-0.01": 2.50992335682,
			"-0.009": 3.03386292494,
			"-0.008": 6.11070149784,
			"-0.007": 10.439859094,
			"-0.006": 8.91578515075,
			"-0.005": 9.80251822794,
			"-0.004": 7.52405635379,
			"-0.003": 9.1231833212,
			"-0.002": 11.1802195226,
			"-0.001": 16.7365602171,
			"0.0": 20.029610805,
			"0.001": 18.3482686533,
			"0.002": 18.6169875444,
			"0.003": 16.8092737946,
			"0.004": 14.1927113826,
			"0.005": 10.3801282145,
			"0.006": 5.72947529338,
			"0.007": 5.98766622104,
			"0.008": 3.34043047459,
			"0.009": 1.73042835306,
			"0.01": 0.808357193888,
			"0.011": 0.494582651202,
			"0.012": 0.836799362914,
			"0.013": 0.969733283125,
			"0.014": 0.806695739883,
			"0.015": 0.0532719828616,
			"0.016": 0.0,
			"0.017": 0.0,
			"0.018": 0.0,
			"0.019": 0.0,
			"0.02": 0.0,
			"0.021": 0.0,
			"0.022": 0.0,
			"0.023": 0.0,
			"0.024": 0.0,
			"0.025": 0.0
		}
	}
}
