{
	 "smiles": "OC1=CC(O)=CC(O)=C1", 
	 "Tm": 491.15, 
	 "num_atms": 15, 
	 "gaussian": { 
		 "optdone": 1, 
		 "sigma_profile": "yes", 
		 "theory": "DFT", 
		 "functional": "B3LYP", 
		 "basiset": "6-31G**", 
		 "properties": { 
			 "R2extent": 1876.2906, 
			 "electric_dipole_moment_norm": 2.66998899436, 
			 "electric_quadrupole_moment_norm": 10.3815472705, 
			 "total_energy": -457.911206146, 
			 "HOMO_LUMO_gap": 0.23382, 
			 "cosmo_polarized_energy": -17.08, 
			 "cosmo_cavitation_energy": 19.41, 
			 "cosmo_dispersion_energy": -14.8, 
			 "cosmo_repulsion_energy": 1.22, 
			 "cosmo_total_nonelectrostatic_energy": 5.83, 
			 "SMD_solvation_energy": 4.45 
		},
		"coords": [
			{
				"x": -0.6662752666,
				"y": 2.7548907949,
				"z": -2.0212168316,
				"element": "O" 
			},
			{
				"x": -0.9229224261,
				"y": 1.4644965936,
				"z": -1.6577496366,
				"element": "C" 
			},
			{
				"x": -1.2896364151,
				"y": 0.4945393835,
				"z": -2.5964306332,
				"element": "C" 
			},
			{
				"x": -1.5381788989,
				"y": -0.8073469691,
				"z": -2.1578870659,
				"element": "C" 
			},
			{
				"x": -1.8934188246,
				"y": -1.7227117486,
				"z": -3.1080247919,
				"element": "O" 
			},
			{
				"x": -1.4251633209,
				"y": -1.145710007,
				"z": -0.8056660968,
				"element": "C" 
			},
			{
				"x": -1.0561059671,
				"y": -0.1532138554,
				"z": 0.1120554364,
				"element": "C" 
			},
			{
				"x": -0.9281647983,
				"y": -0.4178772496,
				"z": 1.4458242563,
				"element": "O" 
			},
			{
				"x": -0.8025791222,
				"y": 1.1541948383,
				"z": -0.3011865395,
				"element": "C" 
			},
			{
				"x": -0.7823820149,
				"y": 2.8413023483,
				"z": -2.9760639677,
				"element": "H" 
			},
			{
				"x": -1.3853829689,
				"y": 0.7274527132,
				"z": -3.6525526573,
				"element": "H" 
			},
			{
				"x": -2.0373159507,
				"y": -2.5783837224,
				"z": -2.6844713077,
				"element": "H" 
			},
			{
				"x": -1.6208294261,
				"y": -2.1633980674,
				"z": -0.4722028564,
				"element": "H" 
			},
			{
				"x": -1.1281304089,
				"y": -1.3488670035,
				"z": 1.6055758805,
				"element": "H" 
			},
			{
				"x": -0.5180141909,
				"y": 1.913531951,
				"z": 0.4162968115,
				"element": "H" 
			}
		],
		 "valence_orbital": [ 
			{
				"type": "occ",
				"energy": -0.35705,
				"method": "rhf"
			},
			{
				"type": "occ",
				"energy": -0.34853,
				"method": "rhf"
			},
			{
				"type": "occ",
				"energy": -0.28439,
				"method": "rhf"
			},
			{
				"type": "occ",
				"energy": -0.21666,
				"method": "rhf"
			},
			{
				"type": "occ",
				"energy": -0.21226,
				"method": "rhf"
			},
			{
				"type": "unocc",
				"energy": 0.02156,
				"method": "rhf"
			},
			{
				"type": "unocc",
				"energy": 0.02171,
				"method": "rhf"
			},
			{
				"type": "unocc",
				"energy": 0.06242,
				"method": "rhf"
			},
			{
				"type": "unocc",
				"energy": 0.0693,
				"method": "rhf"
			},
			{
				"type": "unocc",
				"energy": 0.08046,
				"method": "rhf"
			}
		],
		"cosmo_sigma_profile": { 
			"-0.025": 0.0,
			"-0.024": 0.0,
			"-0.023": 0.0,
			"-0.022": 0.0,
			"-0.021": 0.0,
			"-0.02": 0.0,
			"-0.019": 0.0,
			"-0.018": 1.25302849636,
			"-0.017": 3.05683759545,
			"-0.016": 3.27817232842,
			"-0.015": 2.82169109686,
			"-0.014": 3.27739877359,
			"-0.013": 3.0890407976,
			"-0.012": 1.85676537574,
			"-0.011": 2.18528381043,
			"-0.01": 3.42356328213,
			"-0.009": 4.63723743333,
			"-0.008": 2.87282116161,
			"-0.007": 2.84643545272,
			"-0.006": 4.1034619977,
			"-0.005": 5.59548911064,
			"-0.004": 4.219688232,
			"-0.003": 3.10983002047,
			"-0.002": 4.52038708807,
			"-0.001": 4.00630233348,
			"0.0": 4.33744675569,
			"0.001": 5.43846691849,
			"0.002": 6.73900003479,
			"0.003": 6.80749591111,
			"0.004": 12.2674424299,
			"0.005": 21.279812627,
			"0.006": 10.3569213395,
			"0.007": 4.21887293947,
			"0.008": 3.73064143729,
			"0.009": 5.63413945006,
			"0.01": 4.12899489134,
			"0.011": 6.50783410013,
			"0.012": 2.21765038555,
			"0.013": 0.0,
			"0.014": 0.0,
			"0.015": 0.0,
			"0.016": 0.0,
			"0.017": 0.0,
			"0.018": 0.0,
			"0.019": 0.0,
			"0.02": 0.0,
			"0.021": 0.0,
			"0.022": 0.0,
			"0.023": 0.0,
			"0.024": 0.0,
			"0.025": 0.0
		}
	}
}
