{
	 "smiles": "COC1=C(OC)C=C(C(=C1)C(=O)C1=CC=CC=C1Cl)[N+]([O-])=O", 
	 "Tm": 395.15, 
	 "num_atms": 34, 
	 "gaussian": { 
		 "optdone": 1, 
		 "sigma_profile": "yes", 
		 "theory": "DFT", 
		 "functional": "B3LYP", 
		 "basiset": "6-31G**", 
		 "properties": { 
			 "R2extent": 8597.5569, 
			 "electric_dipole_moment_norm": 6.09598805773, 
			 "electric_quadrupole_moment_norm": 28.2248907844, 
			 "total_energy": -1469.74586932, 
			 "HOMO_LUMO_gap": 0.15701, 
			 "cosmo_polarized_energy": -18.51, 
			 "cosmo_cavitation_energy": 41.17, 
			 "cosmo_dispersion_energy": -28.28, 
			 "cosmo_repulsion_energy": 2.17, 
			 "cosmo_total_nonelectrostatic_energy": 15.06, 
			 "SMD_solvation_energy": 10.85 
		},
		"coords": [
			{
				"x": 4.5534840641,
				"y": 1.4377141987,
				"z": 1.4192334765,
				"element": "C" 
			},
			{
				"x": 3.5921513822,
				"y": 0.544613175,
				"z": 1.9774802815,
				"element": "O" 
			},
			{
				"x": 2.4565211435,
				"y": 0.2957366051,
				"z": 1.2833059907,
				"element": "C" 
			},
			{
				"x": 1.5357726002,
				"y": -0.5977825163,
				"z": 1.8897107082,
				"element": "C" 
			},
			{
				"x": 1.7565887702,
				"y": -1.1389986469,
				"z": 3.1227511265,
				"element": "O" 
			},
			{
				"x": 2.848180616,
				"y": -2.0624264717,
				"z": 3.2372301668,
				"element": "C" 
			},
			{
				"x": 0.3464828861,
				"y": -0.8883271969,
				"z": 1.2368939237,
				"element": "C" 
			},
			{
				"x": 0.0546803783,
				"y": -0.3010779541,
				"z": 0.0038631017,
				"element": "C" 
			},
			{
				"x": 0.9376931806,
				"y": 0.59582554,
				"z": -0.608088271,
				"element": "C" 
			},
			{
				"x": 2.1453751841,
				"y": 0.8673337007,
				"z": 0.0457814476,
				"element": "C" 
			},
			{
				"x": 0.7213891024,
				"y": 1.3211603916,
				"z": -1.92569279,
				"element": "C" 
			},
			{
				"x": 1.6030043588,
				"y": 1.2712087366,
				"z": -2.7637463007,
				"element": "O" 
			},
			{
				"x": -0.4807596865,
				"y": 2.2077947729,
				"z": -2.0653079275,
				"element": "C" 
			},
			{
				"x": -0.996858019,
				"y": 2.8312602187,
				"z": -0.9167000309,
				"element": "C" 
			},
			{
				"x": -2.0541570696,
				"y": 3.7343566657,
				"z": -0.9860173583,
				"element": "C" 
			},
			{
				"x": -2.6313133469,
				"y": 4.0202447566,
				"z": -2.2225113923,
				"element": "C" 
			},
			{
				"x": -2.1464173226,
				"y": 3.4079679325,
				"z": -3.3776451557,
				"element": "C" 
			},
			{
				"x": -1.0747927585,
				"y": 2.5177465356,
				"z": -3.3043641375,
				"element": "C" 
			},
			{
				"x": -0.5568442443,
				"y": 1.7715356215,
				"z": -4.7994804778,
				"element": "Cl" 
			},
			{
				"x": -1.1708727868,
				"y": -0.72606861,
				"z": -0.6732700387,
				"element": "N" 
			},
			{
				"x": -1.251644372,
				"y": -0.5162177133,
				"z": -1.8858233609,
				"element": "O" 
			},
			{
				"x": -2.0378319199,
				"y": -1.2841539042,
				"z": -0.0008148724,
				"element": "O" 
			},
			{
				"x": 5.3682523708,
				"y": 1.4836956287,
				"z": 2.1420228052,
				"element": "H" 
			},
			{
				"x": 4.9345051755,
				"y": 1.0671783667,
				"z": 0.4606893611,
				"element": "H" 
			},
			{
				"x": 4.1316818839,
				"y": 2.4400196365,
				"z": 1.2820399213,
				"element": "H" 
			},
			{
				"x": 3.8070318038,
				"y": -1.5779986185,
				"z": 3.0366285053,
				"element": "H" 
			},
			{
				"x": 2.8260971275,
				"y": -2.4218845017,
				"z": 4.2671486222,
				"element": "H" 
			},
			{
				"x": 2.7104546476,
				"y": -2.9098194525,
				"z": 2.5546149257,
				"element": "H" 
			},
			{
				"x": -0.353552502,
				"y": -1.5824610508,
				"z": 1.6838901011,
				"element": "H" 
			},
			{
				"x": 2.8354271448,
				"y": 1.5469918116,
				"z": -0.4378967229,
				"element": "H" 
			},
			{
				"x": -0.5454460659,
				"y": 2.6103139434,
				"z": 0.0451650387,
				"element": "H" 
			},
			{
				"x": -2.4247690493,
				"y": 4.2066724035,
				"z": -0.0818351669,
				"element": "H" 
			},
			{
				"x": -3.462446675,
				"y": 4.7153328663,
				"z": -2.2945588052,
				"element": "H" 
			},
			{
				"x": -2.5962680023,
				"y": 3.6124131291,
				"z": -4.3427966953,
				"element": "H" 
			}
		],
		 "valence_orbital": [ 
			{
				"type": "occ",
				"energy": -0.27516,
				"method": "rhf"
			},
			{
				"type": "occ",
				"energy": -0.26707,
				"method": "rhf"
			},
			{
				"type": "occ",
				"energy": -0.25571,
				"method": "rhf"
			},
			{
				"type": "occ",
				"energy": -0.24773,
				"method": "rhf"
			},
			{
				"type": "occ",
				"energy": -0.24557,
				"method": "rhf"
			},
			{
				"type": "unocc",
				"energy": -0.08856,
				"method": "rhf"
			},
			{
				"type": "unocc",
				"energy": -0.06132,
				"method": "rhf"
			},
			{
				"type": "unocc",
				"energy": -0.03111,
				"method": "rhf"
			},
			{
				"type": "unocc",
				"energy": -0.01752,
				"method": "rhf"
			},
			{
				"type": "unocc",
				"energy": 0.00144,
				"method": "rhf"
			}
		],
		"cosmo_sigma_profile": { 
			"-0.025": 0.0,
			"-0.024": 0.0,
			"-0.023": 0.0,
			"-0.022": 0.0,
			"-0.021": 0.0,
			"-0.02": 0.0,
			"-0.019": 0.0,
			"-0.018": 0.0,
			"-0.017": 0.0,
			"-0.016": 0.0,
			"-0.015": 0.0,
			"-0.014": 0.0,
			"-0.013": 0.0,
			"-0.012": 0.0,
			"-0.011": 0.0,
			"-0.01": 0.0,
			"-0.009": 0.241967109382,
			"-0.008": 3.60070850313,
			"-0.007": 16.1719125371,
			"-0.006": 23.0312469798,
			"-0.005": 27.1280591452,
			"-0.004": 27.6057918037,
			"-0.003": 26.9354768132,
			"-0.002": 22.0568684382,
			"-0.001": 23.4550871596,
			"0.0": 20.5140579068,
			"0.001": 20.3710830742,
			"0.002": 21.7837422849,
			"0.003": 18.5545713003,
			"0.004": 15.8245112253,
			"0.005": 11.8240073136,
			"0.006": 9.89396902812,
			"0.007": 11.2431874743,
			"0.008": 10.0002129793,
			"0.009": 8.268484496,
			"0.01": 7.07230721894,
			"0.011": 5.2288791743,
			"0.012": 1.1089007576,
			"0.013": 0.0,
			"0.014": 0.0,
			"0.015": 0.0,
			"0.016": 0.0,
			"0.017": 0.0,
			"0.018": 0.0,
			"0.019": 0.0,
			"0.02": 0.0,
			"0.021": 0.0,
			"0.022": 0.0,
			"0.023": 0.0,
			"0.024": 0.0,
			"0.025": 0.0
		}
	}
}
