{
	 "smiles": "OC(=O)C1=C(C=C(Br)C=C1)[N+]([O-])=O", 
	 "Tm": 440.15, 
	 "num_atms": 17, 
	 "gaussian": { 
		 "optdone": 1, 
		 "sigma_profile": "yes", 
		 "theory": "DFT", 
		 "functional": "B3LYP", 
		 "basiset": "6-31G**", 
		 "properties": { 
			 "R2extent": 4597.3909, 
			 "electric_dipole_moment_norm": 4.1461694249, 
			 "electric_quadrupole_moment_norm": 12.2172930848, 
			 "total_energy": -3196.10295995, 
			 "HOMO_LUMO_gap": 0.15028, 
			 "cosmo_polarized_energy": -12.38, 
			 "cosmo_cavitation_energy": 25.0, 
			 "cosmo_dispersion_energy": -19.05, 
			 "cosmo_repulsion_energy": 1.49, 
			 "cosmo_total_nonelectrostatic_energy": 7.44, 
			 "SMD_solvation_energy": 6.42 
		},
		"coords": [
			{
				"x": 2.0475757083,
				"y": 2.384679479,
				"z": 1.0907243482,
				"element": "O" 
			},
			{
				"x": 0.7331354625,
				"y": 2.5654141246,
				"z": 1.1289852667,
				"element": "C" 
			},
			{
				"x": 0.2327552595,
				"y": 3.4180587685,
				"z": 1.8295122791,
				"element": "O" 
			},
			{
				"x": -0.187915198,
				"y": 1.6462093039,
				"z": 0.3150179565,
				"element": "C" 
			},
			{
				"x": 0.0256003861,
				"y": 0.9211790548,
				"z": -0.8789943125,
				"element": "C" 
			},
			{
				"x": -0.9993820303,
				"y": 0.2135043341,
				"z": -1.51456569,
				"element": "C" 
			},
			{
				"x": -2.2651842251,
				"y": 0.1815806338,
				"z": -0.945469448,
				"element": "C" 
			},
			{
				"x": -3.6464575034,
				"y": -0.8127843563,
				"z": -1.7876834432,
				"element": "Br" 
			},
			{
				"x": -2.522209289,
				"y": 0.8817519003,
				"z": 0.2319687666,
				"element": "C" 
			},
			{
				"x": -1.4970249079,
				"y": 1.6094207991,
				"z": 0.8238645431,
				"element": "C" 
			},
			{
				"x": 1.3174476972,
				"y": 0.827269044,
				"z": -1.5951484902,
				"element": "N" 
			},
			{
				"x": 2.3732276871,
				"y": 0.8179749948,
				"z": -0.9420682149,
				"element": "O" 
			},
			{
				"x": 1.2843734135,
				"y": 0.7062723202,
				"z": -2.8095815037,
				"element": "O" 
			},
			{
				"x": 2.2854670166,
				"y": 1.6703452275,
				"z": 0.458347044,
				"element": "H" 
			},
			{
				"x": -0.7901196245,
				"y": -0.3023106514,
				"z": -2.4416419793,
				"element": "H" 
			},
			{
				"x": -3.511769952,
				"y": 0.868164464,
				"z": 0.6739076793,
				"element": "H" 
			},
			{
				"x": -1.6899199005,
				"y": 2.1977705591,
				"z": 1.7130251983,
				"element": "H" 
			}
		],
		 "valence_orbital": [ 
			{
				"type": "occ",
				"energy": -0.31989,
				"method": "rhf"
			},
			{
				"type": "occ",
				"energy": -0.31832,
				"method": "rhf"
			},
			{
				"type": "occ",
				"energy": -0.30812,
				"method": "rhf"
			},
			{
				"type": "occ",
				"energy": -0.29076,
				"method": "rhf"
			},
			{
				"type": "occ",
				"energy": -0.27903,
				"method": "rhf"
			},
			{
				"type": "unocc",
				"energy": -0.12875,
				"method": "rhf"
			},
			{
				"type": "unocc",
				"energy": -0.07361,
				"method": "rhf"
			},
			{
				"type": "unocc",
				"energy": -0.04582,
				"method": "rhf"
			},
			{
				"type": "unocc",
				"energy": -0.02376,
				"method": "rhf"
			},
			{
				"type": "unocc",
				"energy": 0.02255,
				"method": "rhf"
			}
		],
		"cosmo_sigma_profile": { 
			"-0.025": 0.0,
			"-0.024": 0.0,
			"-0.023": 0.0,
			"-0.022": 0.0,
			"-0.021": 0.0,
			"-0.02": 0.0,
			"-0.019": 0.0,
			"-0.018": 0.0,
			"-0.017": 0.0,
			"-0.016": 0.0,
			"-0.015": 0.0117597173501,
			"-0.014": 0.213258746819,
			"-0.013": 0.60379439622,
			"-0.012": 0.642825632353,
			"-0.011": 0.835218568163,
			"-0.01": 1.64179582638,
			"-0.009": 5.42620087437,
			"-0.008": 7.71604257563,
			"-0.007": 8.38263040931,
			"-0.006": 8.19076146032,
			"-0.005": 9.97384467462,
			"-0.004": 12.5455033936,
			"-0.003": 13.1369540357,
			"-0.002": 17.9114108651,
			"-0.001": 19.6530534806,
			"0.0": 11.8419234951,
			"0.001": 9.9822091441,
			"0.002": 11.3894102196,
			"0.003": 15.4839091215,
			"0.004": 6.73153694611,
			"0.005": 7.4115112275,
			"0.006": 8.1070464238,
			"0.007": 5.90853884152,
			"0.008": 4.64951189388,
			"0.009": 3.21050761438,
			"0.01": 5.21045430335,
			"0.011": 5.31106029267,
			"0.012": 2.75653415884,
			"0.013": 0.811909804086,
			"0.014": 0.0,
			"0.015": 0.0,
			"0.016": 0.0,
			"0.017": 0.0,
			"0.018": 0.0,
			"0.019": 0.0,
			"0.02": 0.0,
			"0.021": 0.0,
			"0.022": 0.0,
			"0.023": 0.0,
			"0.024": 0.0,
			"0.025": 0.0
		}
	}
}
