{
	 "smiles": "CC1=CC(=C(CN)C=C1)S(C)(=O)=O", 
	 "Tm": 306.15, 
	 "num_atms": 26, 
	 "gaussian": { 
		 "optdone": 1, 
		 "sigma_profile": "yes", 
		 "theory": "DFT", 
		 "functional": "B3LYP", 
		 "basiset": "6-31G**", 
		 "properties": { 
			 "R2extent": 3653.9876, 
			 "electric_dipole_moment_norm": 5.83266842963, 
			 "electric_quadrupole_moment_norm": 23.9022469335, 
			 "total_energy": -954.120985017, 
			 "HOMO_LUMO_gap": 0.21786, 
			 "cosmo_polarized_energy": -15.48, 
			 "cosmo_cavitation_energy": 29.36, 
			 "cosmo_dispersion_energy": -21.85, 
			 "cosmo_repulsion_energy": 1.7, 
			 "cosmo_total_nonelectrostatic_energy": 9.2, 
			 "SMD_solvation_energy": 4.68 
		},
		"coords": [
			{
				"x": 2.90174708,
				"y": -1.3935247708,
				"z": 2.2909533554,
				"element": "C" 
			},
			{
				"x": 1.5435233137,
				"y": -0.7508734492,
				"z": 2.1420418176,
				"element": "C" 
			},
			{
				"x": 1.3877415218,
				"y": 0.424626676,
				"z": 1.3950169253,
				"element": "C" 
			},
			{
				"x": 0.1436372798,
				"y": 1.0412478437,
				"z": 1.2676267565,
				"element": "C" 
			},
			{
				"x": -1.0066841462,
				"y": 0.5181731697,
				"z": 1.8960985512,
				"element": "C" 
			},
			{
				"x": -2.3948871049,
				"y": 1.1260888601,
				"z": 1.8108341405,
				"element": "C" 
			},
			{
				"x": -3.0238510871,
				"y": 0.8242910528,
				"z": 0.5109099453,
				"element": "N" 
			},
			{
				"x": -0.8330700351,
				"y": -0.656173478,
				"z": 2.6362867072,
				"element": "C" 
			},
			{
				"x": 0.408078334,
				"y": -1.2831016616,
				"z": 2.7567879553,
				"element": "C" 
			},
			{
				"x": 0.1410298016,
				"y": 2.573521535,
				"z": 0.2869380561,
				"element": "S" 
			},
			{
				"x": -0.6032593897,
				"y": 2.0929768066,
				"z": -1.2829016307,
				"element": "C" 
			},
			{
				"x": 1.5488020382,
				"y": 2.9260705332,
				"z": 0.031487398,
				"element": "O" 
			},
			{
				"x": -0.7477920101,
				"y": 3.5552385856,
				"z": 0.9352434163,
				"element": "O" 
			},
			{
				"x": 3.4329725459,
				"y": -1.4311568079,
				"z": 1.3346050651,
				"element": "H" 
			},
			{
				"x": 3.5314780132,
				"y": -0.8264731747,
				"z": 2.9869482212,
				"element": "H" 
			},
			{
				"x": 2.8204914501,
				"y": -2.4141421035,
				"z": 2.6750518256,
				"element": "H" 
			},
			{
				"x": 2.2431903754,
				"y": 0.8855849379,
				"z": 0.9114444816,
				"element": "H" 
			},
			{
				"x": -2.9752889631,
				"y": 0.754433239,
				"z": 2.6700458656,
				"element": "H" 
			},
			{
				"x": -2.327109306,
				"y": 2.2115436328,
				"z": 1.899097133,
				"element": "H" 
			},
			{
				"x": -3.2223211036,
				"y": -0.1716618776,
				"z": 0.4448754008,
				"element": "H" 
			},
			{
				"x": -3.9166541083,
				"y": 1.3074577287,
				"z": 0.4454647395,
				"element": "H" 
			},
			{
				"x": -1.6960199523,
				"y": -1.0854251802,
				"z": 3.1399389829,
				"element": "H" 
			},
			{
				"x": 0.49175759,
				"y": -2.1943113764,
				"z": 3.3437777724,
				"element": "H" 
			},
			{
				"x": -1.5848909969,
				"y": 1.6615066701,
				"z": -1.0671179987,
				"element": "H" 
			},
			{
				"x": -0.6796494236,
				"y": 3.0093293025,
				"z": -1.8724418361,
				"element": "H" 
			},
			{
				"x": 0.0582282831,
				"y": 1.377853306,
				"z": -1.7745130466,
				"element": "H" 
			}
		],
		 "valence_orbital": [ 
			{
				"type": "occ",
				"energy": -0.28331,
				"method": "rhf"
			},
			{
				"type": "occ",
				"energy": -0.27796,
				"method": "rhf"
			},
			{
				"type": "occ",
				"energy": -0.26553,
				"method": "rhf"
			},
			{
				"type": "occ",
				"energy": -0.25374,
				"method": "rhf"
			},
			{
				"type": "occ",
				"energy": -0.25152,
				"method": "rhf"
			},
			{
				"type": "unocc",
				"energy": -0.03366,
				"method": "rhf"
			},
			{
				"type": "unocc",
				"energy": -0.0168,
				"method": "rhf"
			},
			{
				"type": "unocc",
				"energy": 0.07381,
				"method": "rhf"
			},
			{
				"type": "unocc",
				"energy": 0.07649,
				"method": "rhf"
			},
			{
				"type": "unocc",
				"energy": 0.09284,
				"method": "rhf"
			}
		],
		"cosmo_sigma_profile": { 
			"-0.025": 0.0,
			"-0.024": 0.0,
			"-0.023": 0.0,
			"-0.022": 0.0,
			"-0.021": 0.0,
			"-0.02": 0.0,
			"-0.019": 0.0,
			"-0.018": 0.0,
			"-0.017": 0.0,
			"-0.016": 0.0,
			"-0.015": 0.0,
			"-0.014": 0.0,
			"-0.013": 0.0,
			"-0.012": 0.0,
			"-0.011": 0.31678343264,
			"-0.01": 2.25789957126,
			"-0.009": 3.09348447299,
			"-0.008": 5.66122264725,
			"-0.007": 7.20283927921,
			"-0.006": 11.7227036084,
			"-0.005": 17.6852550427,
			"-0.004": 20.165356324,
			"-0.003": 19.1471832509,
			"-0.002": 19.7357647865,
			"-0.001": 19.0644261592,
			"0.0": 16.9262454128,
			"0.001": 11.1046156084,
			"0.002": 11.7425725337,
			"0.003": 14.1203029778,
			"0.004": 10.6143913201,
			"0.005": 5.48987464946,
			"0.006": 4.44918584728,
			"0.007": 2.80814514161,
			"0.008": 2.15606149366,
			"0.009": 3.16534576163,
			"0.01": 4.45783187533,
			"0.011": 6.33370621376,
			"0.012": 8.77780030832,
			"0.013": 3.5222552251,
			"0.014": 0.0,
			"0.015": 0.0,
			"0.016": 0.0,
			"0.017": 0.0,
			"0.018": 0.0,
			"0.019": 0.0,
			"0.02": 0.0,
			"0.021": 0.0,
			"0.022": 0.0,
			"0.023": 0.0,
			"0.024": 0.0,
			"0.025": 0.0
		}
	}
}
