{
	 "smiles": "COC(=O)CC1=CC=C(OCC2=CC=CC=C2)C=C1", 
	 "Tm": 328.65, 
	 "num_atms": 35, 
	 "gaussian": { 
		 "optdone": 1, 
		 "sigma_profile": "yes", 
		 "theory": "DFT", 
		 "functional": "B3LYP", 
		 "basiset": "6-31G**", 
		 "properties": { 
			 "R2extent": 8241.6133, 
			 "electric_dipole_moment_norm": 2.72870376186, 
			 "electric_quadrupole_moment_norm": 9.24141811737, 
			 "total_energy": -845.019208721, 
			 "HOMO_LUMO_gap": 0.20582, 
			 "cosmo_polarized_energy": -11.66, 
			 "cosmo_cavitation_energy": 39.5, 
			 "cosmo_dispersion_energy": -27.66, 
			 "cosmo_repulsion_energy": 2.16, 
			 "cosmo_total_nonelectrostatic_energy": 14.0, 
			 "SMD_solvation_energy": 8.17 
		},
		"coords": [
			{
				"x": -3.5211704051,
				"y": -4.7673137878,
				"z": -1.2995578963,
				"element": "C" 
			},
			{
				"x": -3.0523698582,
				"y": -3.4486745037,
				"z": -1.6275647963,
				"element": "O" 
			},
			{
				"x": -1.8851777489,
				"y": -3.4055266179,
				"z": -2.3058837461,
				"element": "C" 
			},
			{
				"x": -1.2692497735,
				"y": -4.3945199751,
				"z": -2.643439614,
				"element": "O" 
			},
			{
				"x": -1.4359438218,
				"y": -1.9755201226,
				"z": -2.5553931782,
				"element": "C" 
			},
			{
				"x": -0.3772698197,
				"y": -1.5433354443,
				"z": -1.5527073217,
				"element": "C" 
			},
			{
				"x": 0.8568613226,
				"y": -2.2096531543,
				"z": -1.4798359987,
				"element": "C" 
			},
			{
				"x": 1.8278883345,
				"y": -1.8143743215,
				"z": -0.5695285972,
				"element": "C" 
			},
			{
				"x": 1.5889411422,
				"y": -0.7359464271,
				"z": 0.2953270063,
				"element": "C" 
			},
			{
				"x": 2.6122153057,
				"y": -0.4361631822,
				"z": 1.1569822181,
				"element": "O" 
			},
			{
				"x": 2.4002291721,
				"y": 0.5365865537,
				"z": 2.1761172969,
				"element": "C" 
			},
			{
				"x": 2.4908979289,
				"y": 1.9737172476,
				"z": 1.6974839166,
				"element": "C" 
			},
			{
				"x": 3.3208140978,
				"y": 2.3216093686,
				"z": 0.6256098166,
				"element": "C" 
			},
			{
				"x": 3.4385589135,
				"y": 3.6538701133,
				"z": 0.2287752493,
				"element": "C" 
			},
			{
				"x": 2.7352380713,
				"y": 4.6544227084,
				"z": 0.9032670341,
				"element": "C" 
			},
			{
				"x": 1.907844917,
				"y": 4.3145394051,
				"z": 1.9748477175,
				"element": "C" 
			},
			{
				"x": 1.7840160951,
				"y": 2.9802057903,
				"z": 2.3658488369,
				"element": "C" 
			},
			{
				"x": 0.3674062343,
				"y": -0.0590230653,
				"z": 0.2338313106,
				"element": "C" 
			},
			{
				"x": -0.6019491835,
				"y": -0.4739184529,
				"z": -0.6849929249,
				"element": "C" 
			},
			{
				"x": -4.460591325,
				"y": -4.6221019839,
				"z": -0.766253969,
				"element": "H" 
			},
			{
				"x": -2.7965424241,
				"y": -5.286228065,
				"z": -0.6670313126,
				"element": "H" 
			},
			{
				"x": -3.6810104584,
				"y": -5.3560945432,
				"z": -2.2063103968,
				"element": "H" 
			},
			{
				"x": -1.0306140073,
				"y": -1.9457372774,
				"z": -3.5724535096,
				"element": "H" 
			},
			{
				"x": -2.2981233719,
				"y": -1.3070160063,
				"z": -2.5058449106,
				"element": "H" 
			},
			{
				"x": 1.0444675994,
				"y": -3.0553568968,
				"z": -2.134816023,
				"element": "H" 
			},
			{
				"x": 2.7808635281,
				"y": -2.3295341306,
				"z": -0.5046139911,
				"element": "H" 
			},
			{
				"x": 3.1958202446,
				"y": 0.336357936,
				"z": 2.9026211487,
				"element": "H" 
			},
			{
				"x": 1.4425944304,
				"y": 0.3589105112,
				"z": 2.6836352652,
				"element": "H" 
			},
			{
				"x": 3.863486189,
				"y": 1.5414415043,
				"z": 0.1010975911,
				"element": "H" 
			},
			{
				"x": 4.0811511879,
				"y": 3.9113735012,
				"z": -0.6085182919,
				"element": "H" 
			},
			{
				"x": 2.8283375404,
				"y": 5.6912603846,
				"z": 0.5932565017,
				"element": "H" 
			},
			{
				"x": 1.3523777582,
				"y": 5.0855234476,
				"z": 2.5014071084,
				"element": "H" 
			},
			{
				"x": 1.1316921229,
				"y": 2.7197555635,
				"z": 3.196827599,
				"element": "H" 
			},
			{
				"x": 0.1676638843,
				"y": 0.7949314172,
				"z": 0.8692941785,
				"element": "H" 
			},
			{
				"x": -1.5478538226,
				"y": 0.0603325053,
				"z": -0.7250833174,
				"element": "H" 
			}
		],
		 "valence_orbital": [ 
			{
				"type": "occ",
				"energy": -0.26835,
				"method": "rhf"
			},
			{
				"type": "occ",
				"energy": -0.25288,
				"method": "rhf"
			},
			{
				"type": "occ",
				"energy": -0.25044,
				"method": "rhf"
			},
			{
				"type": "occ",
				"energy": -0.24409,
				"method": "rhf"
			},
			{
				"type": "occ",
				"energy": -0.21436,
				"method": "rhf"
			},
			{
				"type": "unocc",
				"energy": -0.00854,
				"method": "rhf"
			},
			{
				"type": "unocc",
				"energy": -0.00561,
				"method": "rhf"
			},
			{
				"type": "unocc",
				"energy": 0.00194,
				"method": "rhf"
			},
			{
				"type": "unocc",
				"energy": 0.00278,
				"method": "rhf"
			},
			{
				"type": "unocc",
				"energy": 0.02824,
				"method": "rhf"
			}
		],
		"cosmo_sigma_profile": { 
			"-0.025": 0.0,
			"-0.024": 0.0,
			"-0.023": 0.0,
			"-0.022": 0.0,
			"-0.021": 0.0,
			"-0.02": 0.0,
			"-0.019": 0.0,
			"-0.018": 0.0,
			"-0.017": 0.0,
			"-0.016": 0.0,
			"-0.015": 0.0,
			"-0.014": 0.0,
			"-0.013": 0.0,
			"-0.012": 0.0,
			"-0.011": 0.0,
			"-0.01": 0.0,
			"-0.009": 0.0,
			"-0.008": 0.0,
			"-0.007": 1.80137318174,
			"-0.006": 20.553897586,
			"-0.005": 31.7341404676,
			"-0.004": 35.3936508375,
			"-0.003": 32.6578855569,
			"-0.002": 21.0655433463,
			"-0.001": 19.6499312344,
			"0.0": 16.8696160971,
			"0.001": 16.3123074285,
			"0.002": 19.3014695128,
			"0.003": 20.472507824,
			"0.004": 22.2050591971,
			"0.005": 22.6672031569,
			"0.006": 12.1028630441,
			"0.007": 4.18323793234,
			"0.008": 3.81580932984,
			"0.009": 3.09972664866,
			"0.01": 2.84750128422,
			"0.011": 2.73449580884,
			"0.012": 4.31626262237,
			"0.013": 0.398747648732,
			"0.014": 0.0,
			"0.015": 0.0,
			"0.016": 0.0,
			"0.017": 0.0,
			"0.018": 0.0,
			"0.019": 0.0,
			"0.02": 0.0,
			"0.021": 0.0,
			"0.022": 0.0,
			"0.023": 0.0,
			"0.024": 0.0,
			"0.025": 0.0
		}
	}
}
