{
	 "smiles": "OC(=O)C=CC1=C(C=C(F)C=C1)[N+]([O-])=O", 
	 "Tm": 450.15, 
	 "num_atms": 21, 
	 "gaussian": { 
		 "optdone": 1, 
		 "sigma_profile": "yes", 
		 "theory": "DFT", 
		 "functional": "B3LYP", 
		 "basiset": "6-31G**", 
		 "properties": { 
			 "R2extent": 3511.2493, 
			 "electric_dipole_moment_norm": 3.66320929923, 
			 "electric_quadrupole_moment_norm": 14.1964864037, 
			 "total_energy": -801.93855303, 
			 "HOMO_LUMO_gap": 0.16038, 
			 "cosmo_polarized_energy": -14.06, 
			 "cosmo_cavitation_energy": 27.75, 
			 "cosmo_dispersion_energy": -19.59, 
			 "cosmo_repulsion_energy": 1.53, 
			 "cosmo_total_nonelectrostatic_energy": 9.7, 
			 "SMD_solvation_energy": 8.72 
		},
		"coords": [
			{
				"x": 1.5854470641,
				"y": 1.6519227525,
				"z": -1.9927192688,
				"element": "O" 
			},
			{
				"x": 0.535505052,
				"y": 2.1311426656,
				"z": -2.7063565703,
				"element": "C" 
			},
			{
				"x": 0.6873029189,
				"y": 2.7141487822,
				"z": -3.7620854284,
				"element": "O" 
			},
			{
				"x": -0.7979258055,
				"y": 1.863487163,
				"z": -2.1242171517,
				"element": "C" 
			},
			{
				"x": -1.1313955434,
				"y": 1.3432763298,
				"z": -0.9295013844,
				"element": "C" 
			},
			{
				"x": -0.2571251856,
				"y": 1.062547464,
				"z": 0.2309997544,
				"element": "C" 
			},
			{
				"x": -0.2429134273,
				"y": -0.1540301248,
				"z": 0.9404335667,
				"element": "C" 
			},
			{
				"x": 0.527592818,
				"y": -0.3503486889,
				"z": 2.0866255642,
				"element": "C" 
			},
			{
				"x": 1.2987681581,
				"y": 0.7036842159,
				"z": 2.5458774768,
				"element": "C" 
			},
			{
				"x": 2.0443227669,
				"y": 0.5351103083,
				"z": 3.6503410352,
				"element": "F" 
			},
			{
				"x": 1.3193765626,
				"y": 1.9319614531,
				"z": 1.8912950912,
				"element": "C" 
			},
			{
				"x": 0.5444431995,
				"y": 2.0958626825,
				"z": 0.749119221,
				"element": "C" 
			},
			{
				"x": -1.0329198497,
				"y": -1.3131728785,
				"z": 0.4832072424,
				"element": "N" 
			},
			{
				"x": -1.6927112443,
				"y": -1.1913128873,
				"z": -0.5493481879,
				"element": "O" 
			},
			{
				"x": -0.9890835995,
				"y": -2.3376329624,
				"z": 1.1611646111,
				"element": "O" 
			},
			{
				"x": 2.3753826718,
				"y": 1.8789123541,
				"z": -2.511601063,
				"element": "H" 
			},
			{
				"x": -1.5942785415,
				"y": 2.1040433639,
				"z": -2.8207572423,
				"element": "H" 
			},
			{
				"x": -2.1883110473,
				"y": 1.1529598225,
				"z": -0.7657873088,
				"element": "H" 
			},
			{
				"x": 0.5188220822,
				"y": -1.3061690493,
				"z": 2.5926433081,
				"element": "H" 
			},
			{
				"x": 1.9303291837,
				"y": 2.7386896035,
				"z": 2.2810074757,
				"element": "H" 
			},
			{
				"x": 0.5416717664,
				"y": 3.05231763,
				"z": 0.2399592588,
				"element": "H" 
			}
		],
		 "valence_orbital": [ 
			{
				"type": "occ",
				"energy": -0.31055,
				"method": "rhf"
			},
			{
				"type": "occ",
				"energy": -0.29769,
				"method": "rhf"
			},
			{
				"type": "occ",
				"energy": -0.29073,
				"method": "rhf"
			},
			{
				"type": "occ",
				"energy": -0.28259,
				"method": "rhf"
			},
			{
				"type": "occ",
				"energy": -0.26507,
				"method": "rhf"
			},
			{
				"type": "unocc",
				"energy": -0.10469,
				"method": "rhf"
			},
			{
				"type": "unocc",
				"energy": -0.06465,
				"method": "rhf"
			},
			{
				"type": "unocc",
				"energy": -0.02675,
				"method": "rhf"
			},
			{
				"type": "unocc",
				"energy": -0.00849,
				"method": "rhf"
			},
			{
				"type": "unocc",
				"energy": 0.06501,
				"method": "rhf"
			}
		],
		"cosmo_sigma_profile": { 
			"-0.025": 0.0,
			"-0.024": 0.0,
			"-0.023": 0.0,
			"-0.022": 0.0,
			"-0.021": 0.0,
			"-0.02": 0.0,
			"-0.019": 0.0,
			"-0.018": 0.571757417577,
			"-0.017": 0.848388007585,
			"-0.016": 0.883546090991,
			"-0.015": 0.850287364498,
			"-0.014": 1.01966572311,
			"-0.013": 0.665738985667,
			"-0.012": 0.320827195574,
			"-0.011": 0.704921920727,
			"-0.01": 0.971042870786,
			"-0.009": 2.71640909512,
			"-0.008": 6.7823053371,
			"-0.007": 11.8896153435,
			"-0.006": 11.4618823791,
			"-0.005": 10.1025079676,
			"-0.004": 9.56724097098,
			"-0.003": 11.9867514063,
			"-0.002": 18.9487214466,
			"-0.001": 23.4977957623,
			"0.0": 14.5971733256,
			"0.001": 10.3193140132,
			"0.002": 10.5270903393,
			"0.003": 15.1309808348,
			"0.004": 8.90157123014,
			"0.005": 6.20373872961,
			"0.006": 7.41112723933,
			"0.007": 10.9103838582,
			"0.008": 7.55911660488,
			"0.009": 4.99058380231,
			"0.01": 3.26319620256,
			"0.011": 3.52348737181,
			"0.012": 5.01022418869,
			"0.013": 0.90049702643,
			"0.014": 0.0,
			"0.015": 0.0,
			"0.016": 0.0,
			"0.017": 0.0,
			"0.018": 0.0,
			"0.019": 0.0,
			"0.02": 0.0,
			"0.021": 0.0,
			"0.022": 0.0,
			"0.023": 0.0,
			"0.024": 0.0,
			"0.025": 0.0
		}
	}
}
