{
	 "smiles": "OC(=O)C(NC1=CC=CC=C1)C1=C(F)C=CC=C1", 
	 "Tm": 389.15, 
	 "num_atms": 30, 
	 "gaussian": { 
		 "optdone": 1, 
		 "sigma_profile": "yes", 
		 "theory": "DFT", 
		 "functional": "B3LYP", 
		 "basiset": "6-31G**", 
		 "properties": { 
			 "R2extent": 4575.8195, 
			 "electric_dipole_moment_norm": 2.09353346522, 
			 "electric_quadrupole_moment_norm": 14.0604641342, 
			 "total_energy": -845.756993918, 
			 "HOMO_LUMO_gap": 0.17428, 
			 "cosmo_polarized_energy": -17.26, 
			 "cosmo_cavitation_energy": 34.03, 
			 "cosmo_dispersion_energy": -23.66, 
			 "cosmo_repulsion_energy": 1.83, 
			 "cosmo_total_nonelectrostatic_energy": 12.19, 
			 "SMD_solvation_energy": 6.58 
		},
		"coords": [
			{
				"x": -0.8610153401,
				"y": -2.9645538508,
				"z": -0.8297098307,
				"element": "O" 
			},
			{
				"x": -1.958814484,
				"y": -2.2062814867,
				"z": -0.6582714014,
				"element": "C" 
			},
			{
				"x": -2.8980119109,
				"y": -2.2095315225,
				"z": -1.4216904581,
				"element": "O" 
			},
			{
				"x": -1.9539914027,
				"y": -1.3802530201,
				"z": 0.6397730739,
				"element": "C" 
			},
			{
				"x": -0.8922166541,
				"y": -1.7038758421,
				"z": 1.5833668114,
				"element": "N" 
			},
			{
				"x": 0.4044804673,
				"y": -1.1752938827,
				"z": 1.5996621817,
				"element": "C" 
			},
			{
				"x": 1.0654720945,
				"y": -0.7175444883,
				"z": 0.4478831985,
				"element": "C" 
			},
			{
				"x": 2.3734090713,
				"y": -0.2401759988,
				"z": 0.5362842363,
				"element": "C" 
			},
			{
				"x": 3.0559530034,
				"y": -0.2156219896,
				"z": 1.75258488,
				"element": "C" 
			},
			{
				"x": 2.4042586941,
				"y": -0.6787847662,
				"z": 2.8979112108,
				"element": "C" 
			},
			{
				"x": 1.0957853614,
				"y": -1.1462859447,
				"z": 2.8260469969,
				"element": "C" 
			},
			{
				"x": -2.1797095446,
				"y": 0.1143636238,
				"z": 0.3848521444,
				"element": "C" 
			},
			{
				"x": -1.7581996351,
				"y": 0.7936333797,
				"z": -0.7579871951,
				"element": "C" 
			},
			{
				"x": -1.1247470991,
				"y": 0.1099848758,
				"z": -1.7438704195,
				"element": "F" 
			},
			{
				"x": -1.9550282101,
				"y": 2.1568431026,
				"z": -0.9452228226,
				"element": "C" 
			},
			{
				"x": -2.5998682891,
				"y": 2.8883589864,
				"z": 0.0497014693,
				"element": "C" 
			},
			{
				"x": -3.0370156141,
				"y": 2.2466953132,
				"z": 1.2109723698,
				"element": "C" 
			},
			{
				"x": -2.828080631,
				"y": 0.8781204769,
				"z": 1.36569236,
				"element": "C" 
			},
			{
				"x": -0.9974638174,
				"y": -3.4415564959,
				"z": -1.6660843195,
				"element": "H" 
			},
			{
				"x": -2.873467313,
				"y": -1.7280251144,
				"z": 1.123576906,
				"element": "H" 
			},
			{
				"x": -1.2434979969,
				"y": -1.9010952711,
				"z": 2.5083955598,
				"element": "H" 
			},
			{
				"x": 0.5732404166,
				"y": -0.7466008113,
				"z": -0.5141390614,
				"element": "H" 
			},
			{
				"x": 2.8638944859,
				"y": 0.1110796687,
				"z": -0.3677156935,
				"element": "H" 
			},
			{
				"x": 4.0747328026,
				"y": 0.1549711346,
				"z": 1.8082380898,
				"element": "H" 
			},
			{
				"x": 2.9131216109,
				"y": -0.67014878,
				"z": 3.8580654413,
				"element": "H" 
			},
			{
				"x": 0.5968381341,
				"y": -1.4969796714,
				"z": 3.7275472731,
				"element": "H" 
			},
			{
				"x": -1.6009443627,
				"y": 2.617079881,
				"z": -1.8611794565,
				"element": "H" 
			},
			{
				"x": -2.760683023,
				"y": 3.9536404698,
				"z": -0.0839035095,
				"element": "H" 
			},
			{
				"x": -3.5452863449,
				"y": 2.8082477599,
				"z": 1.9884158916,
				"element": "H" 
			},
			{
				"x": -3.1742444692,
				"y": 0.3812902642,
				"z": 2.2689040731,
				"element": "H" 
			}
		],
		 "valence_orbital": [ 
			{
				"type": "occ",
				"energy": -0.27246,
				"method": "rhf"
			},
			{
				"type": "occ",
				"energy": -0.26169,
				"method": "rhf"
			},
			{
				"type": "occ",
				"energy": -0.25147,
				"method": "rhf"
			},
			{
				"type": "occ",
				"energy": -0.23815,
				"method": "rhf"
			},
			{
				"type": "occ",
				"energy": -0.19559,
				"method": "rhf"
			},
			{
				"type": "unocc",
				"energy": -0.02131,
				"method": "rhf"
			},
			{
				"type": "unocc",
				"energy": -0.00627,
				"method": "rhf"
			},
			{
				"type": "unocc",
				"energy": 0.00685,
				"method": "rhf"
			},
			{
				"type": "unocc",
				"energy": 0.01138,
				"method": "rhf"
			},
			{
				"type": "unocc",
				"energy": 0.02448,
				"method": "rhf"
			}
		],
		"cosmo_sigma_profile": { 
			"-0.025": 0.0,
			"-0.024": 0.0,
			"-0.023": 0.0,
			"-0.022": 0.0,
			"-0.021": 0.0,
			"-0.02": 0.0,
			"-0.019": 0.147559796646,
			"-0.018": 1.02369765274,
			"-0.017": 0.940998368238,
			"-0.016": 0.71787100162,
			"-0.015": 0.594633960721,
			"-0.014": 1.2308023223,
			"-0.013": 2.4000593074,
			"-0.012": 2.66134439302,
			"-0.011": 2.56687958957,
			"-0.01": 3.17130511109,
			"-0.009": 3.92338486053,
			"-0.008": 4.13031729434,
			"-0.007": 8.23050318219,
			"-0.006": 11.1543205219,
			"-0.005": 17.2401195882,
			"-0.004": 17.5138266174,
			"-0.003": 16.829265937,
			"-0.002": 15.0151119716,
			"-0.001": 13.2822887193,
			"0.0": 13.0872052307,
			"0.001": 17.5152580277,
			"0.002": 17.6230855284,
			"0.003": 19.859772079,
			"0.004": 23.3297221958,
			"0.005": 13.1372315828,
			"0.006": 10.8696231655,
			"0.007": 11.8622492336,
			"0.008": 4.45744540142,
			"0.009": 2.76285166407,
			"0.01": 3.56262491938,
			"0.011": 5.1719047232,
			"0.012": 4.88907800255,
			"0.013": 0.710368382003,
			"0.014": 0.0,
			"0.015": 0.0,
			"0.016": 0.0,
			"0.017": 0.0,
			"0.018": 0.0,
			"0.019": 0.0,
			"0.02": 0.0,
			"0.021": 0.0,
			"0.022": 0.0,
			"0.023": 0.0,
			"0.024": 0.0,
			"0.025": 0.0
		}
	}
}
