{
	 "smiles": "OC(=O)C1=C(NC2=C(F)C=CC=C2)N=CC=C1", 
	 "Tm": 489.15, 
	 "num_atms": 26, 
	 "gaussian": { 
		 "optdone": 1, 
		 "sigma_profile": "yes", 
		 "theory": "DFT", 
		 "functional": "B3LYP", 
		 "basiset": "6-31G**", 
		 "properties": { 
			 "R2extent": 4169.9788, 
			 "electric_dipole_moment_norm": 2.58938223907, 
			 "electric_quadrupole_moment_norm": 17.3887945361, 
			 "total_energy": -822.488535995, 
			 "HOMO_LUMO_gap": 0.16578, 
			 "cosmo_polarized_energy": -17.69, 
			 "cosmo_cavitation_energy": 30.75, 
			 "cosmo_dispersion_energy": -22.08, 
			 "cosmo_repulsion_energy": 1.68, 
			 "cosmo_total_nonelectrostatic_energy": 10.35, 
			 "SMD_solvation_energy": 5.03 
		},
		"coords": [
			{
				"x": -2.4816247879,
				"y": 0.610224537,
				"z": -0.5320488938,
				"element": "O" 
			},
			{
				"x": -1.52939526,
				"y": -0.1750190616,
				"z": -1.1120425543,
				"element": "C" 
			},
			{
				"x": -1.3982139453,
				"y": -1.3229083629,
				"z": -0.7590902456,
				"element": "O" 
			},
			{
				"x": -0.7523741841,
				"y": 0.4573439295,
				"z": -2.219351828,
				"element": "C" 
			},
			{
				"x": 0.6007244008,
				"y": 0.1286349679,
				"z": -2.5122185492,
				"element": "C" 
			},
			{
				"x": 1.4437445116,
				"y": -0.6442290711,
				"z": -1.7402530558,
				"element": "N" 
			},
			{
				"x": 1.4728908727,
				"y": -0.9712979467,
				"z": -0.3743617387,
				"element": "C" 
			},
			{
				"x": 1.039278205,
				"y": -0.1083301551,
				"z": 0.6386562431,
				"element": "C" 
			},
			{
				"x": 0.5029146671,
				"y": 1.0882869893,
				"z": 0.2887121208,
				"element": "F" 
			},
			{
				"x": 1.1354645336,
				"y": -0.4280024003,
				"z": 1.9837570685,
				"element": "C" 
			},
			{
				"x": 1.7225463668,
				"y": -1.637113053,
				"z": 2.3569467775,
				"element": "C" 
			},
			{
				"x": 2.191494913,
				"y": -2.5083154119,
				"z": 1.371636814,
				"element": "C" 
			},
			{
				"x": 2.0606265429,
				"y": -2.1808870836,
				"z": 0.0243094106,
				"element": "C" 
			},
			{
				"x": 1.1983127819,
				"y": 0.5438855296,
				"z": -3.6476085816,
				"element": "N" 
			},
			{
				"x": 0.5238203444,
				"y": 1.3157695143,
				"z": -4.4959717834,
				"element": "C" 
			},
			{
				"x": -0.7815579287,
				"y": 1.7545515005,
				"z": -4.2742262643,
				"element": "C" 
			},
			{
				"x": -1.4134631914,
				"y": 1.2991951668,
				"z": -3.1222920894,
				"element": "C" 
			},
			{
				"x": -2.3100263066,
				"y": 1.5370223085,
				"z": -0.7503898089,
				"element": "H" 
			},
			{
				"x": 2.2848407103,
				"y": -0.8670264961,
				"z": -2.2576470204,
				"element": "H" 
			},
			{
				"x": 0.7655249866,
				"y": 0.2822020655,
				"z": 2.715337504,
				"element": "H" 
			},
			{
				"x": 1.8097755309,
				"y": -1.8934926436,
				"z": 3.407718602,
				"element": "H" 
			},
			{
				"x": 2.64885149,
				"y": -3.4525103562,
				"z": 1.6499148349,
				"element": "H" 
			},
			{
				"x": 2.4014405053,
				"y": -2.8679720789,
				"z": -0.7447739394,
				"element": "H" 
			},
			{
				"x": 1.0572641493,
				"y": 1.6001508226,
				"z": -5.4016086347,
				"element": "H" 
			},
			{
				"x": -1.2887045934,
				"y": 2.3936626427,
				"z": -4.9878309994,
				"element": "H" 
			},
			{
				"x": -2.4546553147,
				"y": 1.5525741467,
				"z": -2.9408733885,
				"element": "H" 
			}
		],
		 "valence_orbital": [ 
			{
				"type": "occ",
				"energy": -0.27709,
				"method": "rhf"
			},
			{
				"type": "occ",
				"energy": -0.26451,
				"method": "rhf"
			},
			{
				"type": "occ",
				"energy": -0.26411,
				"method": "rhf"
			},
			{
				"type": "occ",
				"energy": -0.24878,
				"method": "rhf"
			},
			{
				"type": "occ",
				"energy": -0.21164,
				"method": "rhf"
			},
			{
				"type": "unocc",
				"energy": -0.04586,
				"method": "rhf"
			},
			{
				"type": "unocc",
				"energy": -0.02908,
				"method": "rhf"
			},
			{
				"type": "unocc",
				"energy": -0.00368,
				"method": "rhf"
			},
			{
				"type": "unocc",
				"energy": 0.01051,
				"method": "rhf"
			},
			{
				"type": "unocc",
				"energy": 0.03793,
				"method": "rhf"
			}
		],
		"cosmo_sigma_profile": { 
			"-0.025": 0.0,
			"-0.024": 0.0,
			"-0.023": 0.0,
			"-0.022": 0.0,
			"-0.021": 0.0,
			"-0.02": 0.0,
			"-0.019": 0.259137134387,
			"-0.018": 0.57716187645,
			"-0.017": 0.985059028851,
			"-0.016": 0.555260898886,
			"-0.015": 0.600379959472,
			"-0.014": 0.888013642927,
			"-0.013": 2.16206979606,
			"-0.012": 2.03804110375,
			"-0.011": 2.29279481611,
			"-0.01": 2.3989095326,
			"-0.009": 2.28633899274,
			"-0.008": 3.30658391116,
			"-0.007": 10.8646584759,
			"-0.006": 15.5068256899,
			"-0.005": 15.6669004186,
			"-0.004": 14.6722897091,
			"-0.003": 11.9508654913,
			"-0.002": 11.3314541727,
			"-0.001": 10.0624577035,
			"0.0": 15.6653979443,
			"0.001": 22.3156258552,
			"0.002": 21.1648799601,
			"0.003": 17.2502630501,
			"0.004": 14.0887759598,
			"0.005": 8.28305205798,
			"0.006": 5.55481339165,
			"0.007": 4.23327379743,
			"0.008": 4.85405138678,
			"0.009": 5.33510259699,
			"0.01": 6.06853391849,
			"0.011": 5.93262365087,
			"0.012": 5.10090678899,
			"0.013": 2.30583760603,
			"0.014": 0.17306420782,
			"0.015": 0.0,
			"0.016": 0.0,
			"0.017": 0.0,
			"0.018": 0.0,
			"0.019": 0.0,
			"0.02": 0.0,
			"0.021": 0.0,
			"0.022": 0.0,
			"0.023": 0.0,
			"0.024": 0.0,
			"0.025": 0.0
		}
	}
}
