{
	 "smiles": "ClC1=C(Cl)N=CC(=C1)S(Cl)(=O)=O", 
	 "Tm": 320.15, 
	 "num_atms": 14, 
	 "gaussian": { 
		 "optdone": 1, 
		 "sigma_profile": "yes", 
		 "theory": "DFT", 
		 "functional": "B3LYP", 
		 "basiset": "6-31G**", 
		 "properties": { 
			 "R2extent": 4210.9167, 
			 "electric_dipole_moment_norm": 2.15856660773, 
			 "electric_quadrupole_moment_norm": 6.88464386951, 
			 "total_energy": -2175.61192291, 
			 "HOMO_LUMO_gap": 0.18283, 
			 "cosmo_polarized_energy": -8.79, 
			 "cosmo_cavitation_energy": 26.43, 
			 "cosmo_dispersion_energy": -20.21, 
			 "cosmo_repulsion_energy": 1.58, 
			 "cosmo_total_nonelectrostatic_energy": 7.8, 
			 "SMD_solvation_energy": 1.4 
		},
		"coords": [
			{
				"x": -2.4512504089,
				"y": -1.7238505532,
				"z": 0.6653983659,
				"element": "Cl" 
			},
			{
				"x": -0.7771581239,
				"y": -1.6163887601,
				"z": 0.2234547249,
				"element": "C" 
			},
			{
				"x": -0.0847709096,
				"y": -2.6830646844,
				"z": -0.3899084923,
				"element": "C" 
			},
			{
				"x": -0.9049900653,
				"y": -4.1740633437,
				"z": -0.7475378911,
				"element": "Cl" 
			},
			{
				"x": 1.1953116605,
				"y": -2.6214409403,
				"z": -0.7210290305,
				"element": "N" 
			},
			{
				"x": 1.8795996895,
				"y": -1.5018236117,
				"z": -0.4791628648,
				"element": "C" 
			},
			{
				"x": 1.2701718648,
				"y": -0.3971720929,
				"z": 0.1139224633,
				"element": "C" 
			},
			{
				"x": -0.0739914039,
				"y": -0.4436050478,
				"z": 0.4790241258,
				"element": "C" 
			},
			{
				"x": 2.2213496274,
				"y": 1.0792727366,
				"z": 0.4453197616,
				"element": "S" 
			},
			{
				"x": 1.8900698038,
				"y": 2.1851500154,
				"z": -1.33609633,
				"element": "Cl" 
			},
			{
				"x": 3.63435491,
				"y": 0.7298025639,
				"z": 0.462697891,
				"element": "O" 
			},
			{
				"x": 1.5755643294,
				"y": 1.8205887694,
				"z": 1.5197005095,
				"element": "O" 
			},
			{
				"x": 2.9298888629,
				"y": -1.4886175854,
				"z": -0.753446095,
				"element": "H" 
			},
			{
				"x": -0.5562498367,
				"y": 0.4020125341,
				"z": 0.9560628616,
				"element": "H" 
			}
		],
		 "valence_orbital": [ 
			{
				"type": "occ",
				"energy": -0.34162,
				"method": "rhf"
			},
			{
				"type": "occ",
				"energy": -0.33141,
				"method": "rhf"
			},
			{
				"type": "occ",
				"energy": -0.32751,
				"method": "rhf"
			},
			{
				"type": "occ",
				"energy": -0.31184,
				"method": "rhf"
			},
			{
				"type": "occ",
				"energy": -0.29377,
				"method": "rhf"
			},
			{
				"type": "unocc",
				"energy": -0.11094,
				"method": "rhf"
			},
			{
				"type": "unocc",
				"energy": -0.08144,
				"method": "rhf"
			},
			{
				"type": "unocc",
				"energy": -0.07171,
				"method": "rhf"
			},
			{
				"type": "unocc",
				"energy": -0.02081,
				"method": "rhf"
			},
			{
				"type": "unocc",
				"energy": 0.0239,
				"method": "rhf"
			}
		],
		"cosmo_sigma_profile": { 
			"-0.025": 0.0,
			"-0.024": 0.0,
			"-0.023": 0.0,
			"-0.022": 0.0,
			"-0.021": 0.0,
			"-0.02": 0.0,
			"-0.019": 0.0,
			"-0.018": 0.0,
			"-0.017": 0.0,
			"-0.016": 0.0,
			"-0.015": 0.0,
			"-0.014": 0.0,
			"-0.013": 0.0,
			"-0.012": 0.0,
			"-0.011": 0.721197683711,
			"-0.01": 2.85613093745,
			"-0.009": 3.50138238923,
			"-0.008": 4.53887050111,
			"-0.007": 4.41803743739,
			"-0.006": 6.51210688265,
			"-0.005": 13.4973063367,
			"-0.004": 18.2299192984,
			"-0.003": 15.359550956,
			"-0.002": 13.8489808574,
			"-0.001": 12.5960741299,
			"0.0": 16.315884248,
			"0.001": 18.0466399816,
			"0.002": 28.8248090886,
			"0.003": 23.258258249,
			"0.004": 6.72734097878,
			"0.005": 4.95785385409,
			"0.006": 5.46379529499,
			"0.007": 9.58971234116,
			"0.008": 8.49087743325,
			"0.009": 1.34314602253,
			"0.01": 1.12823322271,
			"0.011": 0.674711416211,
			"0.012": 0.278085901053,
			"0.013": 0.0,
			"0.014": 0.0,
			"0.015": 0.0,
			"0.016": 0.0,
			"0.017": 0.0,
			"0.018": 0.0,
			"0.019": 0.0,
			"0.02": 0.0,
			"0.021": 0.0,
			"0.022": 0.0,
			"0.023": 0.0,
			"0.024": 0.0,
			"0.025": 0.0
		}
	}
}
