{
	 "smiles": "O=CC1=CC=CC=C1C1=CC=CN=C1", 
	 "Tm": 341.65, 
	 "num_atms": 23, 
	 "gaussian": { 
		 "optdone": 1, 
		 "sigma_profile": "yes", 
		 "theory": "DFT", 
		 "functional": "B3LYP", 
		 "basiset": "6-31G**", 
		 "properties": { 
			 "R2extent": 2919.4398, 
			 "electric_dipole_moment_norm": 2.51724293226, 
			 "electric_quadrupole_moment_norm": 16.6131805296, 
			 "total_energy": -592.662821407, 
			 "HOMO_LUMO_gap": 0.17798, 
			 "cosmo_polarized_energy": -10.67, 
			 "cosmo_cavitation_energy": 27.56, 
			 "cosmo_dispersion_energy": -19.86, 
			 "cosmo_repulsion_energy": 1.54, 
			 "cosmo_total_nonelectrostatic_energy": 9.24, 
			 "SMD_solvation_energy": 4.13 
		},
		"coords": [
			{
				"x": 2.365735447,
				"y": 1.519755017,
				"z": 1.3268199838,
				"element": "O" 
			},
			{
				"x": 1.2705114656,
				"y": 1.1227311214,
				"z": 0.970028607,
				"element": "C" 
			},
			{
				"x": 1.0717534241,
				"y": -0.0215499414,
				"z": 0.0419492765,
				"element": "C" 
			},
			{
				"x": 2.1985966671,
				"y": -0.7980200766,
				"z": -0.2738156262,
				"element": "C" 
			},
			{
				"x": 2.0826153954,
				"y": -1.9410887119,
				"z": -1.0543671548,
				"element": "C" 
			},
			{
				"x": 0.8235171227,
				"y": -2.3239699042,
				"z": -1.5273017421,
				"element": "C" 
			},
			{
				"x": -0.300655834,
				"y": -1.5553591138,
				"z": -1.232397382,
				"element": "C" 
			},
			{
				"x": -0.2016263351,
				"y": -0.3888469709,
				"z": -0.456057264,
				"element": "C" 
			},
			{
				"x": -1.4310533888,
				"y": 0.4136249028,
				"z": -0.2182514294,
				"element": "C" 
			},
			{
				"x": -1.5093229538,
				"y": 1.7829133928,
				"z": -0.5133538369,
				"element": "C" 
			},
			{
				"x": -2.7083949234,
				"y": 2.4589304768,
				"z": -0.3030808529,
				"element": "C" 
			},
			{
				"x": -3.8008873264,
				"y": 1.7440662851,
				"z": 0.1898481509,
				"element": "C" 
			},
			{
				"x": -3.7555577676,
				"y": 0.4369451485,
				"z": 0.4763238047,
				"element": "N" 
			},
			{
				"x": -2.5979697529,
				"y": -0.1978535502,
				"z": 0.2734907555,
				"element": "C" 
			},
			{
				"x": 0.3483249089,
				"y": 1.5971167571,
				"z": 1.3569725577,
				"element": "H" 
			},
			{
				"x": 3.1553062711,
				"y": -0.4814812034,
				"z": 0.1293604252,
				"element": "H" 
			},
			{
				"x": 2.9603194228,
				"y": -2.5354311323,
				"z": -1.2896875524,
				"element": "H" 
			},
			{
				"x": 0.7179383263,
				"y": -3.2173562076,
				"z": -2.1361283492,
				"element": "H" 
			},
			{
				"x": -1.2697028739,
				"y": -1.8408551096,
				"z": -1.6306709886,
				"element": "H" 
			},
			{
				"x": -0.6469426842,
				"y": 2.3021200812,
				"z": -0.9219792696,
				"element": "H" 
			},
			{
				"x": -2.7991957592,
				"y": 3.5172817497,
				"z": -0.5262455531,
				"element": "H" 
			},
			{
				"x": -4.7544656666,
				"y": 2.2405834802,
				"z": 0.3595985008,
				"element": "H" 
			},
			{
				"x": -2.5804431851,
				"y": -1.2566564907,
				"z": 0.5274449389,
				"element": "H" 
			}
		],
		 "valence_orbital": [ 
			{
				"type": "occ",
				"energy": -0.28393,
				"method": "rhf"
			},
			{
				"type": "occ",
				"energy": -0.26739,
				"method": "rhf"
			},
			{
				"type": "occ",
				"energy": -0.26306,
				"method": "rhf"
			},
			{
				"type": "occ",
				"energy": -0.25671,
				"method": "rhf"
			},
			{
				"type": "occ",
				"energy": -0.24778,
				"method": "rhf"
			},
			{
				"type": "unocc",
				"energy": -0.0698,
				"method": "rhf"
			},
			{
				"type": "unocc",
				"energy": -0.04147,
				"method": "rhf"
			},
			{
				"type": "unocc",
				"energy": -0.02782,
				"method": "rhf"
			},
			{
				"type": "unocc",
				"energy": -0.00213,
				"method": "rhf"
			},
			{
				"type": "unocc",
				"energy": 0.03264,
				"method": "rhf"
			}
		],
		"cosmo_sigma_profile": { 
			"-0.025": 0.0,
			"-0.024": 0.0,
			"-0.023": 0.0,
			"-0.022": 0.0,
			"-0.021": 0.0,
			"-0.02": 0.0,
			"-0.019": 0.0,
			"-0.018": 0.0,
			"-0.017": 0.0,
			"-0.016": 0.0,
			"-0.015": 0.0,
			"-0.014": 0.0,
			"-0.013": 0.0,
			"-0.012": 0.0,
			"-0.011": 0.0,
			"-0.01": 0.0,
			"-0.009": 0.0,
			"-0.008": 1.05721508012,
			"-0.007": 8.80184176136,
			"-0.006": 18.4528912634,
			"-0.005": 21.7860228822,
			"-0.004": 18.1216810759,
			"-0.003": 14.2722306676,
			"-0.002": 14.4347082977,
			"-0.001": 13.9917329136,
			"0.0": 15.1357898011,
			"0.001": 18.2020484655,
			"0.002": 22.1282233299,
			"0.003": 17.1171036566,
			"0.004": 6.31604732384,
			"0.005": 3.46323756648,
			"0.006": 2.57282917239,
			"0.007": 3.24188321414,
			"0.008": 3.01441967743,
			"0.009": 3.49950543175,
			"0.01": 3.74932102287,
			"0.011": 4.99137894758,
			"0.012": 3.33751971175,
			"0.013": 1.44737946337,
			"0.014": 1.30976464005,
			"0.015": 0.828401634567,
			"0.016": 0.647677127623,
			"0.017": 0.235728112022,
			"0.018": 0.0,
			"0.019": 0.0,
			"0.02": 0.0,
			"0.021": 0.0,
			"0.022": 0.0,
			"0.023": 0.0,
			"0.024": 0.0,
			"0.025": 0.0
		}
	}
}
