{
	 "smiles": "COC1=C(Br)N=C(C=C1)C(O)=O", 
	 "Tm": 506.15, 
	 "num_atms": 18, 
	 "gaussian": { 
		 "optdone": 1, 
		 "sigma_profile": "yes", 
		 "theory": "DFT", 
		 "functional": "B3LYP", 
		 "basiset": "6-31G**", 
		 "properties": { 
			 "R2extent": 4577.0872, 
			 "electric_dipole_moment_norm": 6.55679930301, 
			 "electric_quadrupole_moment_norm": 11.942389477, 
			 "total_energy": -3122.18573842, 
			 "HOMO_LUMO_gap": 0.18911, 
			 "cosmo_polarized_energy": -14.24, 
			 "cosmo_cavitation_energy": 25.42, 
			 "cosmo_dispersion_energy": -19.24, 
			 "cosmo_repulsion_energy": 1.55, 
			 "cosmo_total_nonelectrostatic_energy": 7.72, 
			 "SMD_solvation_energy": 4.66 
		},
		"coords": [
			{
				"x": -0.7402189121,
				"y": 0.7019922594,
				"z": 2.9978918605,
				"element": "C" 
			},
			{
				"x": 0.4593110633,
				"y": 0.0542630704,
				"z": 2.5803035305,
				"element": "O" 
			},
			{
				"x": 0.5480569697,
				"y": -0.3819185421,
				"z": 1.3104642782,
				"element": "C" 
			},
			{
				"x": 1.7509050133,
				"y": -1.0225647381,
				"z": 0.9210286342,
				"element": "C" 
			},
			{
				"x": 3.1515271458,
				"y": -1.2251166155,
				"z": 2.2013092806,
				"element": "Br" 
			},
			{
				"x": 1.9580438991,
				"y": -1.4906985614,
				"z": -0.2875344502,
				"element": "N" 
			},
			{
				"x": 0.9918648972,
				"y": -1.3656255949,
				"z": -1.2175515755,
				"element": "C" 
			},
			{
				"x": -0.2262211798,
				"y": -0.7549897162,
				"z": -0.94497045,
				"element": "C" 
			},
			{
				"x": -0.4504440216,
				"y": -0.2564041653,
				"z": 0.3374410066,
				"element": "C" 
			},
			{
				"x": 1.3005880351,
				"y": -1.9250918215,
				"z": -2.5775785288,
				"element": "C" 
			},
			{
				"x": 2.5184705069,
				"y": -2.4819319417,
				"z": -2.6786486411,
				"element": "O" 
			},
			{
				"x": 0.5180867304,
				"y": -1.8769179289,
				"z": -3.5003103825,
				"element": "O" 
			},
			{
				"x": -0.9228514371,
				"y": 1.614075386,
				"z": 2.4177113197,
				"element": "H" 
			},
			{
				"x": -0.5838058513,
				"y": 0.9625532,
				"z": 4.0444109519,
				"element": "H" 
			},
			{
				"x": -1.6042595762,
				"y": 0.0325613406,
				"z": 2.9132973349,
				"element": "H" 
			},
			{
				"x": -0.9704567139,
				"y": -0.6798616196,
				"z": -1.7290431247,
				"element": "H" 
			},
			{
				"x": -1.3919468945,
				"y": 0.2241057436,
				"z": 0.5756935889,
				"element": "H" 
			},
			{
				"x": 2.9463503257,
				"y": -2.3921297548,
				"z": -1.8037146333,
				"element": "H" 
			}
		],
		 "valence_orbital": [ 
			{
				"type": "occ",
				"energy": -0.30828,
				"method": "rhf"
			},
			{
				"type": "occ",
				"energy": -0.29618,
				"method": "rhf"
			},
			{
				"type": "occ",
				"energy": -0.29396,
				"method": "rhf"
			},
			{
				"type": "occ",
				"energy": -0.26915,
				"method": "rhf"
			},
			{
				"type": "occ",
				"energy": -0.25279,
				"method": "rhf"
			},
			{
				"type": "unocc",
				"energy": -0.06368,
				"method": "rhf"
			},
			{
				"type": "unocc",
				"energy": -0.05007,
				"method": "rhf"
			},
			{
				"type": "unocc",
				"energy": -0.00302,
				"method": "rhf"
			},
			{
				"type": "unocc",
				"energy": 0.04947,
				"method": "rhf"
			},
			{
				"type": "unocc",
				"energy": 0.07278,
				"method": "rhf"
			}
		],
		"cosmo_sigma_profile": { 
			"-0.025": 0.0,
			"-0.024": 0.0,
			"-0.023": 0.0,
			"-0.022": 0.0,
			"-0.021": 0.0,
			"-0.02": 0.0,
			"-0.019": 0.0,
			"-0.018": 0.0,
			"-0.017": 0.0,
			"-0.016": 0.0,
			"-0.015": 0.0,
			"-0.014": 0.119783817608,
			"-0.013": 0.622224787552,
			"-0.012": 0.522020629708,
			"-0.011": 0.850967018307,
			"-0.01": 0.660996612179,
			"-0.009": 3.02255191973,
			"-0.008": 5.4367344294,
			"-0.007": 11.6399678988,
			"-0.006": 12.3226867566,
			"-0.005": 11.9962449984,
			"-0.004": 14.5313229737,
			"-0.003": 13.5915320985,
			"-0.002": 16.5180587043,
			"-0.001": 17.4057307735,
			"0.0": 12.9278994392,
			"0.001": 9.19267542437,
			"0.002": 8.63473366492,
			"0.003": 11.5765117303,
			"0.004": 13.8433413775,
			"0.005": 7.51888104199,
			"0.006": 5.58296364593,
			"0.007": 3.92095439276,
			"0.008": 4.4556264227,
			"0.009": 4.60172724176,
			"0.01": 5.485633613,
			"0.011": 4.51622373996,
			"0.012": 4.47639272161,
			"0.013": 1.32595878724,
			"0.014": 0.0472857314184,
			"0.015": 0.0,
			"0.016": 0.0,
			"0.017": 0.0,
			"0.018": 0.0,
			"0.019": 0.0,
			"0.02": 0.0,
			"0.021": 0.0,
			"0.022": 0.0,
			"0.023": 0.0,
			"0.024": 0.0,
			"0.025": 0.0
		}
	}
}
