{
	 "smiles": "CC1=C(NCC(=O)N2CCCCC2)C=CC=C1", 
	 "Tm": 352.15, 
	 "num_atms": 37, 
	 "gaussian": { 
		 "optdone": 1, 
		 "sigma_profile": "yes", 
		 "theory": "DFT", 
		 "functional": "B3LYP", 
		 "basiset": "6-31G**", 
		 "properties": { 
			 "R2extent": 6704.8713, 
			 "electric_dipole_moment_norm": 4.6758628562, 
			 "electric_quadrupole_moment_norm": 4.8232043695, 
			 "total_energy": -730.304056881, 
			 "HOMO_LUMO_gap": 0.19532, 
			 "cosmo_polarized_energy": -11.64, 
			 "cosmo_cavitation_energy": 37.53, 
			 "cosmo_dispersion_energy": -27.27, 
			 "cosmo_repulsion_energy": 2.11, 
			 "cosmo_total_nonelectrostatic_energy": 12.37, 
			 "SMD_solvation_energy": 4.71 
		},
		"coords": [
			{
				"x": -3.1319176096,
				"y": -3.2073405308,
				"z": -1.8289221284,
				"element": "C" 
			},
			{
				"x": -2.0561811035,
				"y": -2.813467534,
				"z": -2.8106892726,
				"element": "C" 
			},
			{
				"x": -1.0811667723,
				"y": -1.8447043304,
				"z": -2.4499032475,
				"element": "C" 
			},
			{
				"x": -1.1434149786,
				"y": -1.2554325931,
				"z": -1.1986781929,
				"element": "N" 
			},
			{
				"x": -0.0767199985,
				"y": -0.4658164713,
				"z": -0.6520158788,
				"element": "C" 
			},
			{
				"x": -0.3094075512,
				"y": -0.3214455552,
				"z": 0.8611913147,
				"element": "C" 
			},
			{
				"x": -1.2288982298,
				"y": -0.9374208119,
				"z": 1.4002363026,
				"element": "O" 
			},
			{
				"x": 0.5342613348,
				"y": 0.4964558074,
				"z": 1.5574633766,
				"element": "N" 
			},
			{
				"x": 0.3581105962,
				"y": 0.6479258406,
				"z": 3.0060547153,
				"element": "C" 
			},
			{
				"x": 0.2531618398,
				"y": 2.1292152767,
				"z": 3.3892255523,
				"element": "C" 
			},
			{
				"x": 1.4498008399,
				"y": 2.9270495794,
				"z": 2.849834127,
				"element": "C" 
			},
			{
				"x": 1.6125662088,
				"y": 2.7083342965,
				"z": 1.3384441287,
				"element": "C" 
			},
			{
				"x": 1.684210617,
				"y": 1.2109628636,
				"z": 1.0025204859,
				"element": "C" 
			},
			{
				"x": -0.0938125025,
				"y": -1.4868723797,
				"z": -3.3868093446,
				"element": "C" 
			},
			{
				"x": -0.0642899391,
				"y": -2.0750443419,
				"z": -4.6519119857,
				"element": "C" 
			},
			{
				"x": -1.0128031063,
				"y": -3.0290558926,
				"z": -5.0101377069,
				"element": "C" 
			},
			{
				"x": -1.9970488094,
				"y": -3.3825937174,
				"z": -4.0816338284,
				"element": "C" 
			},
			{
				"x": -2.7147931533,
				"y": -3.6579721225,
				"z": -0.9175748668,
				"element": "H" 
			},
			{
				"x": -3.7284744667,
				"y": -2.3425112003,
				"z": -1.5107019952,
				"element": "H" 
			},
			{
				"x": -3.8144225269,
				"y": -3.9381902642,
				"z": -2.2701827782,
				"element": "H" 
			},
			{
				"x": -1.7104748039,
				"y": -1.6851899819,
				"z": -0.4786795104,
				"element": "H" 
			},
			{
				"x": 0.9132050829,
				"y": -0.9280508064,
				"z": -0.8164371052,
				"element": "H" 
			},
			{
				"x": -0.0340281532,
				"y": 0.529180758,
				"z": -1.1205869154,
				"element": "H" 
			},
			{
				"x": 1.2207540981,
				"y": 0.1913561615,
				"z": 3.5151911786,
				"element": "H" 
			},
			{
				"x": -0.5343296357,
				"y": 0.0889046822,
				"z": 3.2851636261,
				"element": "H" 
			},
			{
				"x": 0.1906367938,
				"y": 2.2158624815,
				"z": 4.4800981436,
				"element": "H" 
			},
			{
				"x": -0.6797701364,
				"y": 2.5361576343,
				"z": 2.979130047,
				"element": "H" 
			},
			{
				"x": 1.3325512257,
				"y": 3.9939545306,
				"z": 3.0696055496,
				"element": "H" 
			},
			{
				"x": 2.3654674655,
				"y": 2.5994700606,
				"z": 3.3626271994,
				"element": "H" 
			},
			{
				"x": 2.5180470226,
				"y": 3.203358645,
				"z": 0.9686322452,
				"element": "H" 
			},
			{
				"x": 0.760415327,
				"y": 3.1493101778,
				"z": 0.8056287991,
				"element": "H" 
			},
			{
				"x": 2.6047133121,
				"y": 0.7832750401,
				"z": 1.4297364008,
				"element": "H" 
			},
			{
				"x": 1.734700536,
				"y": 1.0633129964,
				"z": -0.0757186759,
				"element": "H" 
			},
			{
				"x": 0.6485542349,
				"y": -0.7377391307,
				"z": -3.1317568776,
				"element": "H" 
			},
			{
				"x": 0.7088052807,
				"y": -1.7792637184,
				"z": -5.356278369,
				"element": "H" 
			},
			{
				"x": -0.9941842103,
				"y": -3.490207589,
				"z": -5.992719313,
				"element": "H" 
			},
			{
				"x": -2.7456241281,
				"y": -4.1249678602,
				"z": -4.3498452,
				"element": "H" 
			}
		],
		 "valence_orbital": [ 
			{
				"type": "occ",
				"energy": -0.28263,
				"method": "rhf"
			},
			{
				"type": "occ",
				"energy": -0.26174,
				"method": "rhf"
			},
			{
				"type": "occ",
				"energy": -0.24552,
				"method": "rhf"
			},
			{
				"type": "occ",
				"energy": -0.22651,
				"method": "rhf"
			},
			{
				"type": "occ",
				"energy": -0.18053,
				"method": "rhf"
			},
			{
				"type": "unocc",
				"energy": 0.01479,
				"method": "rhf"
			},
			{
				"type": "unocc",
				"energy": 0.02345,
				"method": "rhf"
			},
			{
				"type": "unocc",
				"energy": 0.03384,
				"method": "rhf"
			},
			{
				"type": "unocc",
				"energy": 0.07258,
				"method": "rhf"
			},
			{
				"type": "unocc",
				"energy": 0.09653,
				"method": "rhf"
			}
		],
		"cosmo_sigma_profile": { 
			"-0.025": 0.0,
			"-0.024": 0.0,
			"-0.023": 0.0,
			"-0.022": 0.0,
			"-0.021": 0.0,
			"-0.02": 0.0,
			"-0.019": 0.0,
			"-0.018": 0.0,
			"-0.017": 0.0,
			"-0.016": 0.0,
			"-0.015": 0.0,
			"-0.014": 0.0,
			"-0.013": 0.0,
			"-0.012": 0.0,
			"-0.011": 0.0,
			"-0.01": 0.0,
			"-0.009": 0.0,
			"-0.008": 0.142996452243,
			"-0.007": 2.5782997181,
			"-0.006": 7.40320253689,
			"-0.005": 13.5759355251,
			"-0.004": 28.8385418413,
			"-0.003": 41.2944999953,
			"-0.002": 42.3266149573,
			"-0.001": 32.4473710438,
			"0.0": 29.5951937858,
			"0.001": 17.6141494821,
			"0.002": 9.96824174308,
			"0.003": 9.91669968442,
			"0.004": 7.78729794392,
			"0.005": 10.7832700731,
			"0.006": 9.4532722605,
			"0.007": 9.54833162972,
			"0.008": 7.97367679919,
			"0.009": 2.21700545751,
			"0.01": 1.57365922967,
			"0.011": 2.05420752094,
			"0.012": 1.92694215412,
			"0.013": 3.7768054403,
			"0.014": 0.996535411578,
			"0.015": 0.0,
			"0.016": 0.0,
			"0.017": 0.0,
			"0.018": 0.0,
			"0.019": 0.0,
			"0.02": 0.0,
			"0.021": 0.0,
			"0.022": 0.0,
			"0.023": 0.0,
			"0.024": 0.0,
			"0.025": 0.0
		}
	}
}
