{
	 "smiles": "CC(C)C(OC1=CC=C(Br)C=C1)C(O)=O", 
	 "Tm": 379.15, 
	 "num_atms": 28, 
	 "gaussian": { 
		 "optdone": 1, 
		 "sigma_profile": "yes", 
		 "theory": "DFT", 
		 "functional": "B3LYP", 
		 "basiset": "6-31G**", 
		 "properties": { 
			 "R2extent": 8003.1187, 
			 "electric_dipole_moment_norm": 3.25782266399, 
			 "electric_quadrupole_moment_norm": 8.32213603049, 
			 "total_energy": -3224.09033332, 
			 "HOMO_LUMO_gap": 0.20471, 
			 "cosmo_polarized_energy": -13.14, 
			 "cosmo_cavitation_energy": 33.88, 
			 "cosmo_dispersion_energy": -24.05, 
			 "cosmo_repulsion_energy": 1.91, 
			 "cosmo_total_nonelectrostatic_energy": 11.73, 
			 "SMD_solvation_energy": 5.99 
		},
		"coords": [
			{
				"x": -1.1238152238,
				"y": 1.7334902688,
				"z": 1.8521179576,
				"element": "C" 
			},
			{
				"x": -0.7378313719,
				"y": 0.3746453477,
				"z": 1.2512917382,
				"element": "C" 
			},
			{
				"x": -0.9946880159,
				"y": -0.7837225986,
				"z": 2.2251156299,
				"element": "C" 
			},
			{
				"x": 0.7191375211,
				"y": 0.3644741739,
				"z": 0.7084564569,
				"element": "C" 
			},
			{
				"x": 0.9822675172,
				"y": -0.8224911955,
				"z": -0.0315424377,
				"element": "O" 
			},
			{
				"x": 0.6397973896,
				"y": -0.9002924178,
				"z": -1.3526983684,
				"element": "C" 
			},
			{
				"x": 0.9762234894,
				"y": -2.1101053684,
				"z": -1.9791279943,
				"element": "C" 
			},
			{
				"x": 0.6940559296,
				"y": -2.3109213967,
				"z": -3.3246054038,
				"element": "C" 
			},
			{
				"x": 0.0699200422,
				"y": -1.297816823,
				"z": -4.0558777572,
				"element": "C" 
			},
			{
				"x": -0.3215203716,
				"y": -1.5702099534,
				"z": -5.907875267,
				"element": "Br" 
			},
			{
				"x": -0.2711412928,
				"y": -0.0954702421,
				"z": -3.4476999954,
				"element": "C" 
			},
			{
				"x": 0.0101940543,
				"y": 0.1076739786,
				"z": -2.0930865574,
				"element": "C" 
			},
			{
				"x": 1.7596240541,
				"y": 0.3853738347,
				"z": 1.8273948294,
				"element": "C" 
			},
			{
				"x": 2.0065194109,
				"y": 1.6588400219,
				"z": 2.2234119557,
				"element": "O" 
			},
			{
				"x": 2.28628315,
				"y": -0.576992896,
				"z": 2.328933244,
				"element": "O" 
			},
			{
				"x": -2.182586185,
				"y": 1.7319860494,
				"z": 2.1291697431,
				"element": "H" 
			},
			{
				"x": -0.9650687776,
				"y": 2.552306894,
				"z": 1.1416833035,
				"element": "H" 
			},
			{
				"x": -0.5418550247,
				"y": 1.9585210602,
				"z": 2.7505483099,
				"element": "H" 
			},
			{
				"x": -1.3622790744,
				"y": 0.2108805859,
				"z": 0.3635301449,
				"element": "H" 
			},
			{
				"x": -0.6779024877,
				"y": -1.7370957896,
				"z": 1.7952838548,
				"element": "H" 
			},
			{
				"x": -2.0617969429,
				"y": -0.8483127435,
				"z": 2.4595541823,
				"element": "H" 
			},
			{
				"x": -0.4529988374,
				"y": -0.6453279053,
				"z": 3.1668478389,
				"element": "H" 
			},
			{
				"x": 0.8883741839,
				"y": 1.2525930454,
				"z": 0.0885926534,
				"element": "H" 
			},
			{
				"x": 1.4650267793,
				"y": -2.8787228622,
				"z": -1.3899662278,
				"element": "H" 
			},
			{
				"x": 0.9584208915,
				"y": -3.2466278886,
				"z": -3.8039771413,
				"element": "H" 
			},
			{
				"x": -0.7587745005,
				"y": 0.68585014,
				"z": -4.0196273049,
				"element": "H" 
			},
			{
				"x": -0.2736488675,
				"y": 1.0501857714,
				"z": -1.640690869,
				"element": "H" 
			},
			{
				"x": 2.6391625605,
				"y": 1.5957889089,
				"z": 2.9595434814,
				"element": "H" 
			}
		],
		 "valence_orbital": [ 
			{
				"type": "occ",
				"energy": -0.29159,
				"method": "rhf"
			},
			{
				"type": "occ",
				"energy": -0.28424,
				"method": "rhf"
			},
			{
				"type": "occ",
				"energy": -0.28272,
				"method": "rhf"
			},
			{
				"type": "occ",
				"energy": -0.26525,
				"method": "rhf"
			},
			{
				"type": "occ",
				"energy": -0.22149,
				"method": "rhf"
			},
			{
				"type": "unocc",
				"energy": -0.01678,
				"method": "rhf"
			},
			{
				"type": "unocc",
				"energy": -0.00834,
				"method": "rhf"
			},
			{
				"type": "unocc",
				"energy": 0.00015,
				"method": "rhf"
			},
			{
				"type": "unocc",
				"energy": 0.01009,
				"method": "rhf"
			},
			{
				"type": "unocc",
				"energy": 0.06361,
				"method": "rhf"
			}
		],
		"cosmo_sigma_profile": { 
			"-0.025": 0.0,
			"-0.024": 0.0,
			"-0.023": 0.0,
			"-0.022": 0.0,
			"-0.021": 0.0,
			"-0.02": 0.0,
			"-0.019": 0.2179820152,
			"-0.018": 0.897226265603,
			"-0.017": 1.07526007803,
			"-0.016": 0.931758592546,
			"-0.015": 0.497651371406,
			"-0.014": 0.627515738782,
			"-0.013": 0.397517535909,
			"-0.012": 1.19049442368,
			"-0.011": 1.02298282304,
			"-0.01": 0.606720348823,
			"-0.009": 1.5926395951,
			"-0.008": 3.37778937806,
			"-0.007": 8.46275193391,
			"-0.006": 10.1458057497,
			"-0.005": 11.0753887289,
			"-0.004": 14.6260469772,
			"-0.003": 22.3104459589,
			"-0.002": 21.7317927751,
			"-0.001": 21.0849745091,
			"0.0": 23.7109558583,
			"0.001": 23.9598019374,
			"0.002": 20.4574430877,
			"0.003": 22.9826519923,
			"0.004": 20.2382083482,
			"0.005": 12.9595621191,
			"0.006": 3.54058666684,
			"0.007": 2.68816857999,
			"0.008": 3.60581171559,
			"0.009": 2.26227640543,
			"0.01": 2.79784914978,
			"0.011": 5.07991520795,
			"0.012": 3.04538810929,
			"0.013": 1.34170961219,
			"0.014": 0.475786288823,
			"0.015": 0.0,
			"0.016": 0.0,
			"0.017": 0.0,
			"0.018": 0.0,
			"0.019": 0.0,
			"0.02": 0.0,
			"0.021": 0.0,
			"0.022": 0.0,
			"0.023": 0.0,
			"0.024": 0.0,
			"0.025": 0.0
		}
	}
}
