{
	 "smiles": "NNC(=O)C1=CC=C(C=C1)[N+]([O-])=O", 
	 "Tm": 485.15, 
	 "num_atms": 20, 
	 "gaussian": { 
		 "optdone": 1, 
		 "sigma_profile": "yes", 
		 "theory": "DFT", 
		 "functional": "B3LYP", 
		 "basiset": "6-31G**", 
		 "properties": { 
			 "R2extent": 3222.3252, 
			 "electric_dipole_moment_norm": 6.64529847411, 
			 "electric_quadrupole_moment_norm": 20.5683972587, 
			 "total_energy": -660.763021237, 
			 "HOMO_LUMO_gap": 0.16847, 
			 "cosmo_polarized_energy": -17.34, 
			 "cosmo_cavitation_energy": 25.63, 
			 "cosmo_dispersion_energy": -18.92, 
			 "cosmo_repulsion_energy": 1.52, 
			 "cosmo_total_nonelectrostatic_energy": 8.23, 
			 "SMD_solvation_energy": 8.15 
		},
		"coords": [
			{
				"x": -1.8622236039,
				"y": -3.1026955732,
				"z": -0.2980670377,
				"element": "N" 
			},
			{
				"x": -2.8323499313,
				"y": -2.2770859132,
				"z": 0.29085564,
				"element": "N" 
			},
			{
				"x": -2.5365620045,
				"y": -1.1811571884,
				"z": 1.0745664153,
				"element": "C" 
			},
			{
				"x": -3.4010613995,
				"y": -0.737312289,
				"z": 1.8224316931,
				"element": "O" 
			},
			{
				"x": -1.186897686,
				"y": -0.5206691198,
				"z": 0.9834633257,
				"element": "C" 
			},
			{
				"x": -0.801799122,
				"y": 0.2319125437,
				"z": 2.1041477611,
				"element": "C" 
			},
			{
				"x": 0.398928894,
				"y": 0.9321800387,
				"z": 2.1135718492,
				"element": "C" 
			},
			{
				"x": 1.200071763,
				"y": 0.890299233,
				"z": 0.9740296208,
				"element": "C" 
			},
			{
				"x": 0.8336632154,
				"y": 0.1738442709,
				"z": -0.1629109234,
				"element": "C" 
			},
			{
				"x": -0.3631335932,
				"y": -0.537378228,
				"z": -0.1523745513,
				"element": "C" 
			},
			{
				"x": 2.4731852324,
				"y": 1.6317830038,
				"z": 0.9687826154,
				"element": "N" 
			},
			{
				"x": 3.1588259537,
				"y": 1.5813518515,
				"z": -0.0518671386,
				"element": "O" 
			},
			{
				"x": 2.7737211934,
				"y": 2.2556495912,
				"z": 1.985645511,
				"element": "O" 
			},
			{
				"x": -1.7470173185,
				"y": -3.9607126302,
				"z": 0.238147875,
				"element": "H" 
			},
			{
				"x": -2.1556512081,
				"y": -3.3448925305,
				"z": -1.24019385,
				"element": "H" 
			},
			{
				"x": -3.7506448135,
				"y": -2.6565741135,
				"z": 0.5079433032,
				"element": "H" 
			},
			{
				"x": -1.46746053,
				"y": 0.2621818306,
				"z": 2.9591422745,
				"element": "H" 
			},
			{
				"x": 0.7190763744,
				"y": 1.5089231264,
				"z": 2.9720003651,
				"element": "H" 
			},
			{
				"x": 1.4829908535,
				"y": 0.181675295,
				"z": -1.0291364135,
				"element": "H" 
			},
			{
				"x": -0.6518622692,
				"y": -1.1092231991,
				"z": -1.0229783351,
				"element": "H" 
			}
		],
		 "valence_orbital": [ 
			{
				"type": "occ",
				"energy": -0.29048,
				"method": "rhf"
			},
			{
				"type": "occ",
				"energy": -0.28328,
				"method": "rhf"
			},
			{
				"type": "occ",
				"energy": -0.27882,
				"method": "rhf"
			},
			{
				"type": "occ",
				"energy": -0.27318,
				"method": "rhf"
			},
			{
				"type": "occ",
				"energy": -0.26269,
				"method": "rhf"
			},
			{
				"type": "unocc",
				"energy": -0.09422,
				"method": "rhf"
			},
			{
				"type": "unocc",
				"energy": -0.0266,
				"method": "rhf"
			},
			{
				"type": "unocc",
				"energy": -0.02412,
				"method": "rhf"
			},
			{
				"type": "unocc",
				"energy": 0.04369,
				"method": "rhf"
			},
			{
				"type": "unocc",
				"energy": 0.05291,
				"method": "rhf"
			}
		],
		"cosmo_sigma_profile": { 
			"-0.025": 0.0,
			"-0.024": 0.0,
			"-0.023": 0.0,
			"-0.022": 0.0,
			"-0.021": 0.0,
			"-0.02": 0.0,
			"-0.019": 0.0,
			"-0.018": 0.0,
			"-0.017": 0.0,
			"-0.016": 0.0,
			"-0.015": 0.0,
			"-0.014": 0.312001636564,
			"-0.013": 1.60805972008,
			"-0.012": 4.716948111,
			"-0.011": 5.49835074965,
			"-0.01": 4.97115957014,
			"-0.009": 4.25306835641,
			"-0.008": 4.25895512756,
			"-0.007": 6.52091050116,
			"-0.006": 11.0843054517,
			"-0.005": 7.63489177578,
			"-0.004": 9.98845687901,
			"-0.003": 10.3639744747,
			"-0.002": 13.5596670025,
			"-0.001": 13.9658637209,
			"0.0": 13.5588269312,
			"0.001": 17.0502391709,
			"0.002": 9.90854645492,
			"0.003": 6.63625304879,
			"0.004": 5.80207578835,
			"0.005": 5.60312386402,
			"0.006": 5.27205074076,
			"0.007": 11.7435425122,
			"0.008": 8.8932939056,
			"0.009": 6.25376060994,
			"0.01": 3.83663586598,
			"0.011": 2.03789931478,
			"0.012": 3.01065634369,
			"0.013": 5.12634490451,
			"0.014": 1.08926554828,
			"0.015": 0.0,
			"0.016": 0.0,
			"0.017": 0.0,
			"0.018": 0.0,
			"0.019": 0.0,
			"0.02": 0.0,
			"0.021": 0.0,
			"0.022": 0.0,
			"0.023": 0.0,
			"0.024": 0.0,
			"0.025": 0.0
		}
	}
}
