{
	 "smiles": "OC(=O)C1=C(NC(=O)CCl)C=C2C=CC=CC2=C1", 
	 "Tm": 497.15, 
	 "num_atms": 28, 
	 "gaussian": { 
		 "optdone": 1, 
		 "sigma_profile": "yes", 
		 "theory": "DFT", 
		 "functional": "B3LYP", 
		 "basiset": "6-31G**", 
		 "properties": { 
			 "R2extent": 5640.8495, 
			 "electric_dipole_moment_norm": 5.00257067316, 
			 "electric_quadrupole_moment_norm": 11.9129380818, 
			 "total_energy": -1242.05450242, 
			 "HOMO_LUMO_gap": 0.16795, 
			 "cosmo_polarized_energy": -20.98, 
			 "cosmo_cavitation_energy": 34.61, 
			 "cosmo_dispersion_energy": -24.14, 
			 "cosmo_repulsion_energy": 1.85, 
			 "cosmo_total_nonelectrostatic_energy": 12.32, 
			 "SMD_solvation_energy": 7.54 
		},
		"coords": [
			{
				"x": 3.3955937847,
				"y": 0.9222079855,
				"z": -0.4389617853,
				"element": "O" 
			},
			{
				"x": 2.4562753438,
				"y": 0.8005175392,
				"z": 0.5158137422,
				"element": "C" 
			},
			{
				"x": 2.7365805976,
				"y": 0.9620358233,
				"z": 1.6830219612,
				"element": "O" 
			},
			{
				"x": 1.0480809157,
				"y": 0.4536322826,
				"z": 0.0782071208,
				"element": "C" 
			},
			{
				"x": 0.6170339185,
				"y": 0.2051952212,
				"z": -1.2652117662,
				"element": "C" 
			},
			{
				"x": 1.5493843125,
				"y": 0.305309181,
				"z": -2.3719774369,
				"element": "N" 
			},
			{
				"x": 1.9840198428,
				"y": -0.7783501352,
				"z": -3.1482201355,
				"element": "C" 
			},
			{
				"x": 2.4030772664,
				"y": -0.6131663699,
				"z": -4.2748787829,
				"element": "O" 
			},
			{
				"x": 1.9809201785,
				"y": -2.1456180882,
				"z": -2.4697138698,
				"element": "C" 
			},
			{
				"x": 0.578909634,
				"y": -3.1312802438,
				"z": -3.0514941304,
				"element": "Cl" 
			},
			{
				"x": -0.6997947543,
				"y": -0.1016324176,
				"z": -1.5323915801,
				"element": "C" 
			},
			{
				"x": -1.6656901067,
				"y": -0.1857904545,
				"z": -0.4976328451,
				"element": "C" 
			},
			{
				"x": -3.0263154959,
				"y": -0.5023957873,
				"z": -0.7520184353,
				"element": "C" 
			},
			{
				"x": -3.9300025614,
				"y": -0.5721392609,
				"z": 0.2844918111,
				"element": "C" 
			},
			{
				"x": -3.5165754663,
				"y": -0.3296606558,
				"z": 1.6188543617,
				"element": "C" 
			},
			{
				"x": -2.2043416327,
				"y": -0.0215213312,
				"z": 1.8961534398,
				"element": "C" 
			},
			{
				"x": -1.2459017742,
				"y": 0.0586256226,
				"z": 0.8491439986,
				"element": "C" 
			},
			{
				"x": 0.1116996743,
				"y": 0.3716200759,
				"z": 1.0933334763,
				"element": "C" 
			},
			{
				"x": 2.9861960994,
				"y": 0.7685320424,
				"z": -1.3151913752,
				"element": "H" 
			},
			{
				"x": 1.45397843,
				"y": 1.1365018203,
				"z": -2.9516313778,
				"element": "H" 
			},
			{
				"x": 2.8849389721,
				"y": -2.6728581638,
				"z": -2.7711625596,
				"element": "H" 
			},
			{
				"x": 1.9106761535,
				"y": -2.088201156,
				"z": -1.384403735,
				"element": "H" 
			},
			{
				"x": -1.004491395,
				"y": -0.287669825,
				"z": -2.558128416,
				"element": "H" 
			},
			{
				"x": -3.3418427855,
				"y": -0.6905260048,
				"z": -1.774452146,
				"element": "H" 
			},
			{
				"x": -4.9688745346,
				"y": -0.8155685261,
				"z": 0.0827472066,
				"element": "H" 
			},
			{
				"x": -4.243426751,
				"y": -0.3893181459,
				"z": 2.4232654625,
				"element": "H" 
			},
			{
				"x": -1.8817095878,
				"y": 0.1645142477,
				"z": 2.9166346211,
				"element": "H" 
			},
			{
				"x": 0.4537017214,
				"y": 0.5595047244,
				"z": 2.1060031751,
				"element": "H" 
			}
		],
		 "valence_orbital": [ 
			{
				"type": "occ",
				"energy": -0.30316,
				"method": "rhf"
			},
			{
				"type": "occ",
				"energy": -0.28647,
				"method": "rhf"
			},
			{
				"type": "occ",
				"energy": -0.27471,
				"method": "rhf"
			},
			{
				"type": "occ",
				"energy": -0.26997,
				"method": "rhf"
			},
			{
				"type": "occ",
				"energy": -0.24231,
				"method": "rhf"
			},
			{
				"type": "unocc",
				"energy": -0.07436,
				"method": "rhf"
			},
			{
				"type": "unocc",
				"energy": -0.05618,
				"method": "rhf"
			},
			{
				"type": "unocc",
				"energy": -0.04572,
				"method": "rhf"
			},
			{
				"type": "unocc",
				"energy": 0.00246,
				"method": "rhf"
			},
			{
				"type": "unocc",
				"energy": 0.02508,
				"method": "rhf"
			}
		],
		"cosmo_sigma_profile": { 
			"-0.025": 0.0,
			"-0.024": 0.0,
			"-0.023": 0.0,
			"-0.022": 0.0,
			"-0.021": 0.0,
			"-0.02": 0.0,
			"-0.019": 0.0,
			"-0.018": 0.0,
			"-0.017": 0.0,
			"-0.016": 0.45198934842,
			"-0.015": 1.53082312538,
			"-0.014": 1.18916900854,
			"-0.013": 2.03706113713,
			"-0.012": 2.47917542249,
			"-0.011": 2.32503296671,
			"-0.01": 4.14601114528,
			"-0.009": 5.41540508237,
			"-0.008": 7.9694799079,
			"-0.007": 14.7965219607,
			"-0.006": 17.1950983534,
			"-0.005": 16.3059375563,
			"-0.004": 13.9569505766,
			"-0.003": 10.8514789729,
			"-0.002": 13.1511778194,
			"-0.001": 13.0502223872,
			"0.0": 14.9716250063,
			"0.001": 21.9246105221,
			"0.002": 22.5748200461,
			"0.003": 21.0636783618,
			"0.004": 15.0777259244,
			"0.005": 11.3136520196,
			"0.006": 6.16594779874,
			"0.007": 2.99725059717,
			"0.008": 3.94151987697,
			"0.009": 4.53619415967,
			"0.01": 6.37954967774,
			"0.011": 10.4218092247,
			"0.012": 8.47730016051,
			"0.013": 2.57569203517,
			"0.014": 0.315904596175,
			"0.015": 0.0,
			"0.016": 0.0,
			"0.017": 0.0,
			"0.018": 0.0,
			"0.019": 0.0,
			"0.02": 0.0,
			"0.021": 0.0,
			"0.022": 0.0,
			"0.023": 0.0,
			"0.024": 0.0,
			"0.025": 0.0
		}
	}
}
