{
	 "smiles": "ClCC(=O)NCCC1=CNC2=C1C=CC=C2", 
	 "Tm": 356.15, 
	 "num_atms": 29, 
	 "gaussian": { 
		 "optdone": 1, 
		 "sigma_profile": "yes", 
		 "theory": "DFT", 
		 "functional": "B3LYP", 
		 "basiset": "6-31G**", 
		 "properties": { 
			 "R2extent": 4186.509, 
			 "electric_dipole_moment_norm": 2.61338128294, 
			 "electric_quadrupole_moment_norm": 14.3488446904, 
			 "total_energy": -1110.05793608, 
			 "HOMO_LUMO_gap": 0.19026, 
			 "cosmo_polarized_energy": -16.61, 
			 "cosmo_cavitation_energy": 34.3, 
			 "cosmo_dispersion_energy": -23.27, 
			 "cosmo_repulsion_energy": 1.83, 
			 "cosmo_total_nonelectrostatic_energy": 12.85, 
			 "SMD_solvation_energy": 5.4 
		},
		"coords": [
			{
				"x": 3.036361985,
				"y": 0.5170176177,
				"z": 1.620716374,
				"element": "Cl" 
			},
			{
				"x": 1.4201023899,
				"y": -0.2367644196,
				"z": 1.9905693277,
				"element": "C" 
			},
			{
				"x": 1.0286607555,
				"y": -1.4645533781,
				"z": 1.1646998944,
				"element": "C" 
			},
			{
				"x": 0.0704850084,
				"y": -2.118629649,
				"z": 1.5566896036,
				"element": "O" 
			},
			{
				"x": 1.7421938743,
				"y": -1.7192026462,
				"z": 0.0413071026,
				"element": "N" 
			},
			{
				"x": 1.370109289,
				"y": -2.7587076667,
				"z": -0.9051905326,
				"element": "C" 
			},
			{
				"x": 0.7981260086,
				"y": -2.2046815358,
				"z": -2.229975924,
				"element": "C" 
			},
			{
				"x": -0.486398884,
				"y": -1.4382684053,
				"z": -2.0854132847,
				"element": "C" 
			},
			{
				"x": -1.7535772089,
				"y": -1.955550927,
				"z": -2.1987430887,
				"element": "C" 
			},
			{
				"x": -2.6936722409,
				"y": -0.9689789214,
				"z": -1.9717746042,
				"element": "N" 
			},
			{
				"x": -2.0482058973,
				"y": 0.2192426282,
				"z": -1.702839084,
				"element": "C" 
			},
			{
				"x": -0.6497662987,
				"y": -0.0383878097,
				"z": -1.7686012003,
				"element": "C" 
			},
			{
				"x": 0.2400628762,
				"y": 1.0281309089,
				"z": -1.5424773431,
				"element": "C" 
			},
			{
				"x": -0.268681969,
				"y": 2.2891468352,
				"z": -1.2558090502,
				"element": "C" 
			},
			{
				"x": -1.6593288426,
				"y": 2.5159828987,
				"z": -1.1905666297,
				"element": "C" 
			},
			{
				"x": -2.5659596053,
				"y": 1.486777322,
				"z": -1.414998008,
				"element": "C" 
			},
			{
				"x": 1.427439198,
				"y": -0.5165098508,
				"z": 3.0426342836,
				"element": "H" 
			},
			{
				"x": 0.6712070823,
				"y": 0.53897275,
				"z": 1.8234284733,
				"element": "H" 
			},
			{
				"x": 2.5154775468,
				"y": -1.1068335803,
				"z": -0.1768244466,
				"element": "H" 
			},
			{
				"x": 2.2490127438,
				"y": -3.3799270389,
				"z": -1.1186929035,
				"element": "H" 
			},
			{
				"x": 0.6253331248,
				"y": -3.3798600099,
				"z": -0.4032493574,
				"element": "H" 
			},
			{
				"x": 1.5591342025,
				"y": -1.5758210104,
				"z": -2.7113750192,
				"element": "H" 
			},
			{
				"x": 0.6467025718,
				"y": -3.0600431482,
				"z": -2.9003329167,
				"element": "H" 
			},
			{
				"x": -2.0645794031,
				"y": -2.9657042484,
				"z": -2.4273985273,
				"element": "H" 
			},
			{
				"x": -3.6912159433,
				"y": -1.1027435911,
				"z": -1.9835548753,
				"element": "H" 
			},
			{
				"x": 1.3139445152,
				"y": 0.8721666517,
				"z": -1.5901018881,
				"element": "H" 
			},
			{
				"x": 0.4135584753,
				"y": 3.1159136215,
				"z": -1.0808912584,
				"element": "H" 
			},
			{
				"x": -2.0279183017,
				"y": 3.5119644401,
				"z": -0.9632446201,
				"element": "H" 
			},
			{
				"x": -3.6374070526,
				"y": 1.6608521632,
				"z": -1.3670904967,
				"element": "H" 
			}
		],
		 "valence_orbital": [ 
			{
				"type": "occ",
				"energy": -0.2708,
				"method": "rhf"
			},
			{
				"type": "occ",
				"energy": -0.25579,
				"method": "rhf"
			},
			{
				"type": "occ",
				"energy": -0.25028,
				"method": "rhf"
			},
			{
				"type": "occ",
				"energy": -0.21908,
				"method": "rhf"
			},
			{
				"type": "occ",
				"energy": -0.19831,
				"method": "rhf"
			},
			{
				"type": "unocc",
				"energy": -0.00805,
				"method": "rhf"
			},
			{
				"type": "unocc",
				"energy": 0.01351,
				"method": "rhf"
			},
			{
				"type": "unocc",
				"energy": 0.02853,
				"method": "rhf"
			},
			{
				"type": "unocc",
				"energy": 0.03402,
				"method": "rhf"
			},
			{
				"type": "unocc",
				"energy": 0.06018,
				"method": "rhf"
			}
		],
		"cosmo_sigma_profile": { 
			"-0.025": 0.0,
			"-0.024": 0.0,
			"-0.023": 0.0,
			"-0.022": 0.0,
			"-0.021": 0.0,
			"-0.02": 0.0,
			"-0.019": 0.0,
			"-0.018": 0.0,
			"-0.017": 0.0,
			"-0.016": 0.165908755202,
			"-0.015": 1.42879943798,
			"-0.014": 1.29695277506,
			"-0.013": 1.50945527599,
			"-0.012": 2.01711697165,
			"-0.011": 1.8766023873,
			"-0.01": 1.83477674869,
			"-0.009": 3.12208764973,
			"-0.008": 5.92309306064,
			"-0.007": 7.51362495175,
			"-0.006": 11.1028502679,
			"-0.005": 15.5469333164,
			"-0.004": 22.7716617935,
			"-0.003": 22.2309420632,
			"-0.002": 19.763108057,
			"-0.001": 18.6955286321,
			"0.0": 16.1327113043,
			"0.001": 13.5670309411,
			"0.002": 16.3237408082,
			"0.003": 14.102830635,
			"0.004": 13.7960016569,
			"0.005": 18.8315336228,
			"0.006": 16.6375809191,
			"0.007": 8.79894562642,
			"0.008": 3.44439163691,
			"0.009": 2.14531310571,
			"0.01": 1.57417755396,
			"0.011": 1.93375141998,
			"0.012": 1.99409567624,
			"0.013": 5.16184027368,
			"0.014": 2.71493800343,
			"0.015": 0.087919604103,
			"0.016": 0.0,
			"0.017": 0.0,
			"0.018": 0.0,
			"0.019": 0.0,
			"0.02": 0.0,
			"0.021": 0.0,
			"0.022": 0.0,
			"0.023": 0.0,
			"0.024": 0.0,
			"0.025": 0.0
		}
	}
}
