{
	 "smiles": "COC(=O)CCC(C)C1CCC2=C3CCC4CC(CCC4(C)C3CC(OC(C)=O)C12C)OC(C)=O", 
	 "Tm": 507.15, 
	 "num_atms": 79, 
	 "gaussian": { 
		 "optdone": 1, 
		 "sigma_profile": "yes", 
		 "theory": "DFT", 
		 "functional": "B3LYP", 
		 "basiset": "6-31G**", 
		 "properties": { 
			 "R2extent": 21965.4082, 
			 "electric_dipole_moment_norm": 4.92798092326, 
			 "electric_quadrupole_moment_norm": 29.9251598447, 
			 "total_energy": -1582.99707152, 
			 "HOMO_LUMO_gap": 0.2304, 
			 "cosmo_polarized_energy": -16.95, 
			 "cosmo_cavitation_energy": 70.36, 
			 "cosmo_dispersion_energy": -45.24, 
			 "cosmo_repulsion_energy": 3.36, 
			 "cosmo_total_nonelectrostatic_energy": 28.47, 
			 "SMD_solvation_energy": 13.75 
		},
		"coords": [
			{
				"x": 4.5088272752,
				"y": 2.3054312987,
				"z": 4.8268107964,
				"element": "C" 
			},
			{
				"x": 3.9673757921,
				"y": 3.024923003,
				"z": 3.7061487587,
				"element": "O" 
			},
			{
				"x": 3.8232337142,
				"y": 2.3061829394,
				"z": 2.5713912115,
				"element": "C" 
			},
			{
				"x": 4.1121325144,
				"y": 1.1280721489,
				"z": 2.4946018249,
				"element": "O" 
			},
			{
				"x": 3.2941494443,
				"y": 3.1531365843,
				"z": 1.4316596263,
				"element": "C" 
			},
			{
				"x": 2.2630496582,
				"y": 2.3858216785,
				"z": 0.5905287216,
				"element": "C" 
			},
			{
				"x": 1.8162845422,
				"y": 3.0917479305,
				"z": -0.7083268363,
				"element": "C" 
			},
			{
				"x": 3.0012502783,
				"y": 3.4208956512,
				"z": -1.6298764877,
				"element": "C" 
			},
			{
				"x": 0.6256430314,
				"y": 2.3397324924,
				"z": -1.3797809347,
				"element": "C" 
			},
			{
				"x": -0.3236083419,
				"y": 3.3207070601,
				"z": -2.134151546,
				"element": "C" 
			},
			{
				"x": -1.2142816883,
				"y": 2.453190694,
				"z": -3.0744359519,
				"element": "C" 
			},
			{
				"x": -0.7486217637,
				"y": 1.0405937015,
				"z": -2.7697907984,
				"element": "C" 
			},
			{
				"x": -1.5152667642,
				"y": -0.0576137077,
				"z": -2.6346468827,
				"element": "C" 
			},
			{
				"x": -2.9016778961,
				"y": -0.1290983472,
				"z": -3.2463074658,
				"element": "C" 
			},
			{
				"x": -3.9298488841,
				"y": -0.920121693,
				"z": -2.4308383646,
				"element": "C" 
			},
			{
				"x": -3.3543214934,
				"y": -2.2640249782,
				"z": -1.9723671285,
				"element": "C" 
			},
			{
				"x": -4.4436778933,
				"y": -3.1299411606,
				"z": -1.3038041988,
				"element": "C" 
			},
			{
				"x": -3.9080904495,
				"y": -4.3935961286,
				"z": -0.6053678816,
				"element": "C" 
			},
			{
				"x": -2.4629890341,
				"y": -4.6776115687,
				"z": -1.0037227927,
				"element": "C" 
			},
			{
				"x": -1.5205179203,
				"y": -3.4968452078,
				"z": -0.7036001238,
				"element": "C" 
			},
			{
				"x": -2.0777490697,
				"y": -2.079927446,
				"z": -1.098910425,
				"element": "C" 
			},
			{
				"x": -2.4132255097,
				"y": -1.2846975986,
				"z": 0.1852785363,
				"element": "C" 
			},
			{
				"x": -0.9908017637,
				"y": -1.3248267656,
				"z": -1.9563265832,
				"element": "C" 
			},
			{
				"x": 0.2665726843,
				"y": -1.0006215914,
				"z": -1.1247086022,
				"element": "C" 
			},
			{
				"x": 1.2596439457,
				"y": -0.2299048749,
				"z": -1.9777164512,
				"element": "C" 
			},
			{
				"x": 2.5390006686,
				"y": -0.0707181889,
				"z": -1.3097540216,
				"element": "O" 
			},
			{
				"x": 3.3830413323,
				"y": -1.1353300896,
				"z": -1.3174537359,
				"element": "C" 
			},
			{
				"x": 4.6636488743,
				"y": -0.8111468054,
				"z": -0.586044018,
				"element": "C" 
			},
			{
				"x": 3.1271349417,
				"y": -2.1910588219,
				"z": -1.8557056405,
				"element": "O" 
			},
			{
				"x": 0.7395950133,
				"y": 1.1507001758,
				"z": -2.4155183395,
				"element": "C" 
			},
			{
				"x": 1.5210815257,
				"y": 1.526917351,
				"z": -3.7065125064,
				"element": "C" 
			},
			{
				"x": -3.98711213,
				"y": -4.1575605976,
				"z": 0.836081829,
				"element": "O" 
			},
			{
				"x": -4.1000068011,
				"y": -5.2443288211,
				"z": 1.6342675135,
				"element": "C" 
			},
			{
				"x": -4.1778519351,
				"y": -4.8336317479,
				"z": 3.0871559497,
				"element": "C" 
			},
			{
				"x": -4.1379033816,
				"y": -6.3864912066,
				"z": 1.2290167841,
				"element": "O" 
			},
			{
				"x": 4.557627879,
				"y": 3.0257203132,
				"z": 5.6433739564,
				"element": "H" 
			},
			{
				"x": 3.8626256355,
				"y": 1.4654662061,
				"z": 5.0935362669,
				"element": "H" 
			},
			{
				"x": 5.5050831677,
				"y": 1.9211022992,
				"z": 4.5937605146,
				"element": "H" 
			},
			{
				"x": 4.1684728911,
				"y": 3.4131819743,
				"z": 0.8216842286,
				"element": "H" 
			},
			{
				"x": 2.8935667099,
				"y": 4.0907680896,
				"z": 1.8283649852,
				"element": "H" 
			},
			{
				"x": 1.376252592,
				"y": 2.2084407898,
				"z": 1.2136005822,
				"element": "H" 
			},
			{
				"x": 2.6717660099,
				"y": 1.4055347237,
				"z": 0.34918219,
				"element": "H" 
			},
			{
				"x": 1.3808216109,
				"y": 4.0570512961,
				"z": -0.4025876884,
				"element": "H" 
			},
			{
				"x": 3.6674680884,
				"y": 4.1546574201,
				"z": -1.1652119403,
				"element": "H" 
			},
			{
				"x": 3.5913415685,
				"y": 2.5272208054,
				"z": -1.8523113213,
				"element": "H" 
			},
			{
				"x": 2.6702650504,
				"y": 3.8539812062,
				"z": -2.5776879842,
				"element": "H" 
			},
			{
				"x": 0.0382827253,
				"y": 1.9269139385,
				"z": -0.5491613428,
				"element": "H" 
			},
			{
				"x": 0.2575685189,
				"y": 4.0527648385,
				"z": -2.7054071883,
				"element": "H" 
			},
			{
				"x": -0.9246585746,
				"y": 3.892078846,
				"z": -1.4197166437,
				"element": "H" 
			},
			{
				"x": -2.2783051557,
				"y": 2.5879835845,
				"z": -2.8652498699,
				"element": "H" 
			},
			{
				"x": -1.0629113362,
				"y": 2.7314734226,
				"z": -4.124661098,
				"element": "H" 
			},
			{
				"x": -2.7938354502,
				"y": -0.631001811,
				"z": -4.2217285716,
				"element": "H" 
			},
			{
				"x": -3.2793746219,
				"y": 0.8720390891,
				"z": -3.4748402703,
				"element": "H" 
			},
			{
				"x": -4.8265341301,
				"y": -1.0897265582,
				"z": -3.0408221598,
				"element": "H" 
			},
			{
				"x": -4.2584302584,
				"y": -0.3389318959,
				"z": -1.5608458123,
				"element": "H" 
			},
			{
				"x": -3.0307286808,
				"y": -2.7956812865,
				"z": -2.881212053,
				"element": "H" 
			},
			{
				"x": -5.0079517438,
				"y": -2.5429603325,
				"z": -0.5714588817,
				"element": "H" 
			},
			{
				"x": -5.1648891316,
				"y": -3.4242087006,
				"z": -2.075447634,
				"element": "H" 
			},
			{
				"x": -4.5334299649,
				"y": -5.264321343,
				"z": -0.8139676807,
				"element": "H" 
			},
			{
				"x": -2.4611247975,
				"y": -4.9052128527,
				"z": -2.0773101068,
				"element": "H" 
			},
			{
				"x": -2.1126776635,
				"y": -5.582491269,
				"z": -0.4982381804,
				"element": "H" 
			},
			{
				"x": -0.5739451404,
				"y": -3.6867122158,
				"z": -1.2209845692,
				"element": "H" 
			},
			{
				"x": -1.2840944126,
				"y": -3.5042227528,
				"z": 0.3652553474,
				"element": "H" 
			},
			{
				"x": -2.6494258614,
				"y": -0.2374665245,
				"z": -0.0264630738,
				"element": "H" 
			},
			{
				"x": -1.5698485668,
				"y": -1.2943927692,
				"z": 0.8809798708,
				"element": "H" 
			},
			{
				"x": -3.2595338893,
				"y": -1.7304877501,
				"z": 0.7129789087,
				"element": "H" 
			},
			{
				"x": -0.6971538454,
				"y": -2.0410176294,
				"z": -2.743029131,
				"element": "H" 
			},
			{
				"x": 0.7368973486,
				"y": -1.9212423332,
				"z": -0.7719256436,
				"element": "H" 
			},
			{
				"x": 0.0022760355,
				"y": -0.4020441259,
				"z": -0.2482721317,
				"element": "H" 
			},
			{
				"x": 1.4521311037,
				"y": -0.820088593,
				"z": -2.8802143795,
				"element": "H" 
			},
			{
				"x": 5.2266357285,
				"y": -0.0594865411,
				"z": -1.1497683899,
				"element": "H" 
			},
			{
				"x": 4.4561841711,
				"y": -0.3894787428,
				"z": 0.4022035695,
				"element": "H" 
			},
			{
				"x": 5.263883851,
				"y": -1.7165162088,
				"z": -0.4973007925,
				"element": "H" 
			},
			{
				"x": 1.3229938536,
				"y": 2.5435551576,
				"z": -4.0510843355,
				"element": "H" 
			},
			{
				"x": 1.2406638317,
				"y": 0.8434326481,
				"z": -4.5149189433,
				"element": "H" 
			},
			{
				"x": 2.5973264954,
				"y": 1.4322368062,
				"z": -3.5483539742,
				"element": "H" 
			},
			{
				"x": -4.2897904527,
				"y": -5.7212302191,
				"z": 3.7090356383,
				"element": "H" 
			},
			{
				"x": -3.2711800956,
				"y": -4.2915352032,
				"z": 3.372141289,
				"element": "H" 
			},
			{
				"x": -5.0237236095,
				"y": -4.1577011585,
				"z": 3.2430106089,
				"element": "H" 
			}
		],
		 "valence_orbital": [ 
			{
				"type": "occ",
				"energy": -0.27408,
				"method": "rhf"
			},
			{
				"type": "occ",
				"energy": -0.27255,
				"method": "rhf"
			},
			{
				"type": "occ",
				"energy": -0.26352,
				"method": "rhf"
			},
			{
				"type": "occ",
				"energy": -0.26033,
				"method": "rhf"
			},
			{
				"type": "occ",
				"energy": -0.21946,
				"method": "rhf"
			},
			{
				"type": "unocc",
				"energy": 0.01094,
				"method": "rhf"
			},
			{
				"type": "unocc",
				"energy": 0.0158,
				"method": "rhf"
			},
			{
				"type": "unocc",
				"energy": 0.01793,
				"method": "rhf"
			},
			{
				"type": "unocc",
				"energy": 0.02038,
				"method": "rhf"
			},
			{
				"type": "unocc",
				"energy": 0.07248,
				"method": "rhf"
			}
		],
		"cosmo_sigma_profile": { 
			"-0.025": 0.0,
			"-0.024": 0.0,
			"-0.023": 0.0,
			"-0.022": 0.0,
			"-0.021": 0.0,
			"-0.02": 0.0,
			"-0.019": 0.0,
			"-0.018": 0.0,
			"-0.017": 0.0,
			"-0.016": 0.0,
			"-0.015": 0.0,
			"-0.014": 0.0,
			"-0.013": 0.0,
			"-0.012": 0.0,
			"-0.011": 0.0,
			"-0.01": 0.0,
			"-0.009": 0.0,
			"-0.008": 0.0,
			"-0.007": 0.840091751669,
			"-0.006": 10.7402594525,
			"-0.005": 19.6700601856,
			"-0.004": 31.2280832805,
			"-0.003": 60.8243717452,
			"-0.002": 98.0026181371,
			"-0.001": 85.7342144277,
			"0.0": 65.1317997074,
			"0.001": 49.3540614202,
			"0.002": 29.6606010596,
			"0.003": 17.8538522603,
			"0.004": 13.2384932613,
			"0.005": 9.83647181744,
			"0.006": 7.08167499066,
			"0.007": 6.58144392447,
			"0.008": 6.05907073761,
			"0.009": 5.75972940066,
			"0.01": 4.17288582804,
			"0.011": 6.89527403167,
			"0.012": 10.4685280102,
			"0.013": 4.53167700803,
			"0.014": 0.167508360111,
			"0.015": 0.0,
			"0.016": 0.0,
			"0.017": 0.0,
			"0.018": 0.0,
			"0.019": 0.0,
			"0.02": 0.0,
			"0.021": 0.0,
			"0.022": 0.0,
			"0.023": 0.0,
			"0.024": 0.0,
			"0.025": 0.0
		}
	}
}
