{
	 "smiles": "CC(=O)NC1=CC=CC=C1[N+]([O-])=O", 
	 "Tm": 366.15, 
	 "num_atms": 21, 
	 "gaussian": { 
		 "optdone": 1, 
		 "sigma_profile": "yes", 
		 "theory": "DFT", 
		 "functional": "B3LYP", 
		 "basiset": "6-31G**", 
		 "properties": { 
			 "R2extent": 2937.4459, 
			 "electric_dipole_moment_norm": 1.28614349899, 
			 "electric_quadrupole_moment_norm": 17.745244297, 
			 "total_energy": -644.771290398, 
			 "HOMO_LUMO_gap": 0.14504, 
			 "cosmo_polarized_energy": -10.49, 
			 "cosmo_cavitation_energy": 25.68, 
			 "cosmo_dispersion_energy": -19.02, 
			 "cosmo_repulsion_energy": 1.49, 
			 "cosmo_total_nonelectrostatic_energy": 8.15, 
			 "SMD_solvation_energy": 7.21 
		},
		"coords": [
			{
				"x": 0.6867167047,
				"y": -0.1238886102,
				"z": -4.507803761,
				"element": "C" 
			},
			{
				"x": -0.0990769825,
				"y": -0.4572452326,
				"z": -3.2502714837,
				"element": "C" 
			},
			{
				"x": -0.9445544763,
				"y": -1.3370221952,
				"z": -3.2168431729,
				"element": "O" 
			},
			{
				"x": 0.239527912,
				"y": 0.3517035854,
				"z": -2.1731762838,
				"element": "N" 
			},
			{
				"x": -0.2834977897,
				"y": 0.356359352,
				"z": -0.8855039618,
				"element": "C" 
			},
			{
				"x": -1.3007024412,
				"y": -0.5385942956,
				"z": -0.4892689818,
				"element": "C" 
			},
			{
				"x": -1.8087397284,
				"y": -0.5172352229,
				"z": 0.8016360988,
				"element": "C" 
			},
			{
				"x": -1.333247732,
				"y": 0.3895452479,
				"z": 1.757010026,
				"element": "C" 
			},
			{
				"x": -0.3362643537,
				"y": 1.2789931858,
				"z": 1.3979287274,
				"element": "C" 
			},
			{
				"x": 0.1897414245,
				"y": 1.2725267414,
				"z": 0.0979410775,
				"element": "C" 
			},
			{
				"x": 1.2376481796,
				"y": 2.2553928679,
				"z": -0.16713452,
				"element": "N" 
			},
			{
				"x": 1.7531823665,
				"y": 2.3086463441,
				"z": -1.3011153837,
				"element": "O" 
			},
			{
				"x": 1.5805793678,
				"y": 3.004397987,
				"z": 0.7432782827,
				"element": "O" 
			},
			{
				"x": 0.5077003213,
				"y": -0.9049677848,
				"z": -5.2460046496,
				"element": "H" 
			},
			{
				"x": 1.7597890031,
				"y": -0.0459396391,
				"z": -4.3062649214,
				"element": "H" 
			},
			{
				"x": 0.353312239,
				"y": 0.8359058913,
				"z": -4.9180808696,
				"element": "H" 
			},
			{
				"x": 0.9626918532,
				"y": 1.0538527674,
				"z": -2.3083938029,
				"element": "H" 
			},
			{
				"x": -1.6689608058,
				"y": -1.2392739876,
				"z": -1.2239936569,
				"element": "H" 
			},
			{
				"x": -2.5911023743,
				"y": -1.2226713861,
				"z": 1.0661932284,
				"element": "H" 
			},
			{
				"x": -1.7357085797,
				"y": 0.3996083876,
				"z": 2.7641379769,
				"element": "H" 
			},
			{
				"x": 0.0630658918,
				"y": 1.9980059965,
				"z": 2.1009300313,
				"element": "H" 
			}
		],
		 "valence_orbital": [ 
			{
				"type": "occ",
				"energy": -0.31762,
				"method": "rhf"
			},
			{
				"type": "occ",
				"energy": -0.30142,
				"method": "rhf"
			},
			{
				"type": "occ",
				"energy": -0.28235,
				"method": "rhf"
			},
			{
				"type": "occ",
				"energy": -0.26641,
				"method": "rhf"
			},
			{
				"type": "occ",
				"energy": -0.24356,
				"method": "rhf"
			},
			{
				"type": "unocc",
				"energy": -0.09852,
				"method": "rhf"
			},
			{
				"type": "unocc",
				"energy": -0.03076,
				"method": "rhf"
			},
			{
				"type": "unocc",
				"energy": -0.00375,
				"method": "rhf"
			},
			{
				"type": "unocc",
				"energy": 0.02664,
				"method": "rhf"
			},
			{
				"type": "unocc",
				"energy": 0.08031,
				"method": "rhf"
			}
		],
		"cosmo_sigma_profile": { 
			"-0.025": 0.0,
			"-0.024": 0.0,
			"-0.023": 0.0,
			"-0.022": 0.0,
			"-0.021": 0.0,
			"-0.02": 0.0,
			"-0.019": 0.0,
			"-0.018": 0.0,
			"-0.017": 0.0,
			"-0.016": 0.0,
			"-0.015": 0.0,
			"-0.014": 0.0,
			"-0.013": 0.0,
			"-0.012": 0.0,
			"-0.011": 0.0459159383064,
			"-0.01": 0.427580804519,
			"-0.009": 0.895775349238,
			"-0.008": 2.63804821266,
			"-0.007": 10.5726253838,
			"-0.006": 14.7414078637,
			"-0.005": 15.2738163858,
			"-0.004": 15.5295050897,
			"-0.003": 14.0641495074,
			"-0.002": 16.5524451265,
			"-0.001": 17.7832675121,
			"0.0": 14.7134170003,
			"0.001": 13.2603223379,
			"0.002": 15.4028494024,
			"0.003": 9.51135051123,
			"0.004": 4.38191153975,
			"0.005": 3.9591115019,
			"0.006": 5.40653686558,
			"0.007": 7.11539462662,
			"0.008": 6.56428098607,
			"0.009": 5.62739589755,
			"0.01": 4.462733285,
			"0.011": 2.46008873403,
			"0.012": 2.82426965236,
			"0.013": 1.63902608556,
			"0.014": 0.26625089605,
			"0.015": 0.0,
			"0.016": 0.0,
			"0.017": 0.0,
			"0.018": 0.0,
			"0.019": 0.0,
			"0.02": 0.0,
			"0.021": 0.0,
			"0.022": 0.0,
			"0.023": 0.0,
			"0.024": 0.0,
			"0.025": 0.0
		}
	}
}
