{
	 "smiles": "COC(=O)C(CCC(O)=O)NC(=O)OCC1=CC=CC=C1", 
	 "Tm": 342.15, 
	 "num_atms": 38, 
	 "gaussian": { 
		 "optdone": 1, 
		 "sigma_profile": "yes", 
		 "theory": "DFT", 
		 "functional": "B3LYP", 
		 "basiset": "6-31G**", 
		 "properties": { 
			 "R2extent": 7484.689, 
			 "electric_dipole_moment_norm": 2.42083110935, 
			 "electric_quadrupole_moment_norm": 14.1466343633, 
			 "total_energy": -1049.87710091, 
			 "HOMO_LUMO_gap": 0.23797, 
			 "cosmo_polarized_energy": -19.26, 
			 "cosmo_cavitation_energy": 42.65, 
			 "cosmo_dispersion_energy": -28.32, 
			 "cosmo_repulsion_energy": 2.22, 
			 "cosmo_total_nonelectrostatic_energy": 16.56, 
			 "SMD_solvation_energy": 10.19 
		},
		"coords": [
			{
				"x": -1.2647723047,
				"y": -2.4162232397,
				"z": 3.1979834912,
				"element": "C" 
			},
			{
				"x": -1.0635757606,
				"y": -2.5937202856,
				"z": 1.7849240067,
				"element": "O" 
			},
			{
				"x": -1.4304236335,
				"y": -1.556044001,
				"z": 1.0126241696,
				"element": "C" 
			},
			{
				"x": -1.9253907481,
				"y": -0.5372065396,
				"z": 1.4516921078,
				"element": "O" 
			},
			{
				"x": -1.2023627821,
				"y": -1.8595345187,
				"z": -0.4759476761,
				"element": "C" 
			},
			{
				"x": -1.401423286,
				"y": -0.620641745,
				"z": -1.3729908361,
				"element": "C" 
			},
			{
				"x": -2.8357951131,
				"y": -0.0835280907,
				"z": -1.4419764882,
				"element": "C" 
			},
			{
				"x": -3.8251722223,
				"y": -1.0331794608,
				"z": -2.0773592614,
				"element": "C" 
			},
			{
				"x": -5.0137944696,
				"y": -0.4308727265,
				"z": -2.3126511603,
				"element": "O" 
			},
			{
				"x": -3.6305418241,
				"y": -2.2014213252,
				"z": -2.3513198767,
				"element": "O" 
			},
			{
				"x": 0.0802459264,
				"y": -2.5149222425,
				"z": -0.7082988182,
				"element": "N" 
			},
			{
				"x": 1.301695955,
				"y": -2.0857110439,
				"z": -0.2674991034,
				"element": "C" 
			},
			{
				"x": 2.3341054675,
				"y": -2.7218164457,
				"z": -0.3649866182,
				"element": "O" 
			},
			{
				"x": 1.2102925362,
				"y": -0.8433176425,
				"z": 0.2815689771,
				"element": "O" 
			},
			{
				"x": 2.4445524543,
				"y": -0.3084549419,
				"z": 0.799696766,
				"element": "C" 
			},
			{
				"x": 2.2590508915,
				"y": 1.1531038754,
				"z": 1.1259702446,
				"element": "C" 
			},
			{
				"x": 3.3493643064,
				"y": 2.0218685833,
				"z": 0.9955574559,
				"element": "C" 
			},
			{
				"x": 3.2330807681,
				"y": 3.3680520724,
				"z": 1.3442063869,
				"element": "C" 
			},
			{
				"x": 2.0172064328,
				"y": 3.8641711326,
				"z": 1.816918567,
				"element": "C" 
			},
			{
				"x": 0.9232045062,
				"y": 3.005358728,
				"z": 1.9403744032,
				"element": "C" 
			},
			{
				"x": 1.0410747635,
				"y": 1.6561402365,
				"z": 1.6026571724,
				"element": "C" 
			},
			{
				"x": -0.6699483772,
				"y": -1.5768715718,
				"z": 3.5662989948,
				"element": "H" 
			},
			{
				"x": -2.3184849196,
				"y": -2.2258021684,
				"z": 3.415643228,
				"element": "H" 
			},
			{
				"x": -0.9381468727,
				"y": -3.3476631612,
				"z": 3.6594117954,
				"element": "H" 
			},
			{
				"x": -1.9632315258,
				"y": -2.5947378116,
				"z": -0.7565498515,
				"element": "H" 
			},
			{
				"x": -1.0729015125,
				"y": -0.908058231,
				"z": -2.3764075578,
				"element": "H" 
			},
			{
				"x": -0.7414741756,
				"y": 0.1781874303,
				"z": -1.0276579545,
				"element": "H" 
			},
			{
				"x": -2.8617663479,
				"y": 0.8506684037,
				"z": -2.0139858955,
				"element": "H" 
			},
			{
				"x": -3.2018685812,
				"y": 0.1699035691,
				"z": -0.4414861245,
				"element": "H" 
			},
			{
				"x": -5.5905715938,
				"y": -1.1110870203,
				"z": -2.6996640758,
				"element": "H" 
			},
			{
				"x": 0.0837304297,
				"y": -3.4709441707,
				"z": -1.0275274824,
				"element": "H" 
			},
			{
				"x": 3.2384184235,
				"y": -0.4569637594,
				"z": 0.0630312658,
				"element": "H" 
			},
			{
				"x": 2.7215714261,
				"y": -0.8855789835,
				"z": 1.6912003264,
				"element": "H" 
			},
			{
				"x": 4.2954090626,
				"y": 1.643093383,
				"z": 0.6157924431,
				"element": "H" 
			},
			{
				"x": 4.0882676946,
				"y": 4.0292217483,
				"z": 1.2362110688,
				"element": "H" 
			},
			{
				"x": 1.9214956853,
				"y": 4.9132192642,
				"z": 2.082209202,
				"element": "H" 
			},
			{
				"x": -0.0283549613,
				"y": 3.3851276285,
				"z": 2.3018544204,
				"element": "H" 
			},
			{
				"x": 0.1820342819,
				"y": 0.999685072,
				"z": 1.6959822875,
				"element": "H" 
			}
		],
		 "valence_orbital": [ 
			{
				"type": "occ",
				"energy": -0.27774,
				"method": "rhf"
			},
			{
				"type": "occ",
				"energy": -0.27183,
				"method": "rhf"
			},
			{
				"type": "occ",
				"energy": -0.25263,
				"method": "rhf"
			},
			{
				"type": "occ",
				"energy": -0.24843,
				"method": "rhf"
			},
			{
				"type": "occ",
				"energy": -0.24315,
				"method": "rhf"
			},
			{
				"type": "unocc",
				"energy": -0.00518,
				"method": "rhf"
			},
			{
				"type": "unocc",
				"energy": -0.00193,
				"method": "rhf"
			},
			{
				"type": "unocc",
				"energy": -0.00062,
				"method": "rhf"
			},
			{
				"type": "unocc",
				"energy": 0.00689,
				"method": "rhf"
			},
			{
				"type": "unocc",
				"energy": 0.05274,
				"method": "rhf"
			}
		],
		"cosmo_sigma_profile": { 
			"-0.025": 0.0,
			"-0.024": 0.0,
			"-0.023": 0.0,
			"-0.022": 0.0,
			"-0.021": 0.0,
			"-0.02": 0.0,
			"-0.019": 0.0,
			"-0.018": 0.664106933308,
			"-0.017": 0.815394642011,
			"-0.016": 1.00866051779,
			"-0.015": 1.58162760283,
			"-0.014": 1.97930104056,
			"-0.013": 1.47090374436,
			"-0.012": 2.10936100253,
			"-0.011": 1.44742404087,
			"-0.01": 1.69437412579,
			"-0.009": 1.07730130892,
			"-0.008": 1.85039007191,
			"-0.007": 5.49305196262,
			"-0.006": 19.4483012782,
			"-0.005": 26.5976315721,
			"-0.004": 32.6345202976,
			"-0.003": 28.3762185683,
			"-0.002": 22.1613622224,
			"-0.001": 21.4387933069,
			"0.0": 21.3291228752,
			"0.001": 19.7287075733,
			"0.002": 17.9807793119,
			"0.003": 18.5806736077,
			"0.004": 17.0419052004,
			"0.005": 14.168251302,
			"0.006": 12.944188121,
			"0.007": 7.2149912208,
			"0.008": 6.32621443179,
			"0.009": 5.54299932988,
			"0.01": 5.46085435887,
			"0.011": 6.91302274651,
			"0.012": 5.73797524043,
			"0.013": 5.77459965559,
			"0.014": 0.59291467065,
			"0.015": 0.0,
			"0.016": 0.0,
			"0.017": 0.0,
			"0.018": 0.0,
			"0.019": 0.0,
			"0.02": 0.0,
			"0.021": 0.0,
			"0.022": 0.0,
			"0.023": 0.0,
			"0.024": 0.0,
			"0.025": 0.0
		}
	}
}
