{
	 "smiles": "NC(=S)NN=C1/C2CCCC1C1(O)CCCCC1C2", 
	 "Tm": 457.15, 
	 "num_atms": 42, 
	 "gaussian": { 
		 "optdone": 1, 
		 "sigma_profile": "yes", 
		 "theory": "DFT", 
		 "functional": "B3LYP", 
		 "basiset": "6-31G**", 
		 "properties": { 
			 "R2extent": 6107.4285, 
			 "electric_dipole_moment_norm": 5.9958631939, 
			 "electric_quadrupole_moment_norm": 30.4550350949, 
			 "total_energy": -1185.01142926, 
			 "HOMO_LUMO_gap": 0.17773, 
			 "cosmo_polarized_energy": -19.69, 
			 "cosmo_cavitation_energy": 40.21, 
			 "cosmo_dispersion_energy": -28.88, 
			 "cosmo_repulsion_energy": 2.2, 
			 "cosmo_total_nonelectrostatic_energy": 13.53, 
			 "SMD_solvation_energy": 4.15 
		},
		"coords": [
			{
				"x": -0.0775526193,
				"y": 0.5757483493,
				"z": 4.5619068083,
				"element": "N" 
			},
			{
				"x": 1.0574125521,
				"y": 1.0217466003,
				"z": 3.9903665561,
				"element": "C" 
			},
			{
				"x": 2.2548772409,
				"y": 1.8861655808,
				"z": 4.7932228405,
				"element": "S" 
			},
			{
				"x": 1.1924341514,
				"y": 0.726384364,
				"z": 2.6587960823,
				"element": "N" 
			},
			{
				"x": 0.2373092322,
				"y": -0.0000032259,
				"z": 1.99879558,
				"element": "N" 
			},
			{
				"x": 0.3850881703,
				"y": -0.2503607363,
				"z": 0.7464424274,
				"element": "C" 
			},
			{
				"x": 1.5433580976,
				"y": 0.0854379535,
				"z": -0.169395571,
				"element": "C" 
			},
			{
				"x": 2.3829147834,
				"y": -1.2270162508,
				"z": -0.3139570165,
				"element": "C" 
			},
			{
				"x": 1.5227343007,
				"y": -2.4822479033,
				"z": -0.0404775355,
				"element": "C" 
			},
			{
				"x": 0.0856084459,
				"y": -2.3349701066,
				"z": -0.5688380105,
				"element": "C" 
			},
			{
				"x": -0.6500583322,
				"y": -1.080896191,
				"z": 0.0350102662,
				"element": "C" 
			},
			{
				"x": -1.3879722194,
				"y": -0.1905599638,
				"z": -1.0589672197,
				"element": "C" 
			},
			{
				"x": -1.5591211666,
				"y": -0.9238097288,
				"z": -2.2840960279,
				"element": "O" 
			},
			{
				"x": -2.7921609154,
				"y": 0.2482309672,
				"z": -0.5879536236,
				"element": "C" 
			},
			{
				"x": -2.8099391802,
				"y": 1.4243968463,
				"z": 0.3943134777,
				"element": "C" 
			},
			{
				"x": -2.1140167241,
				"y": 2.6324356114,
				"z": -0.2433711962,
				"element": "C" 
			},
			{
				"x": -0.660820637,
				"y": 2.2918364367,
				"z": -0.5933119333,
				"element": "C" 
			},
			{
				"x": -0.5000395165,
				"y": 1.0242632512,
				"z": -1.4686301653,
				"element": "C" 
			},
			{
				"x": 0.9747062576,
				"y": 0.5835010927,
				"z": -1.5432349822,
				"element": "C" 
			},
			{
				"x": -0.2125959034,
				"y": 0.7423290089,
				"z": 5.5442726025,
				"element": "H" 
			},
			{
				"x": -0.7299020312,
				"y": 0.0303420735,
				"z": 4.0165110041,
				"element": "H" 
			},
			{
				"x": 2.0512063222,
				"y": 1.0382214645,
				"z": 2.2206105974,
				"element": "H" 
			},
			{
				"x": 2.1758133874,
				"y": 0.8748928675,
				"z": 0.2471675483,
				"element": "H" 
			},
			{
				"x": 3.2286121331,
				"y": -1.2100515873,
				"z": 0.3817574628,
				"element": "H" 
			},
			{
				"x": 2.8080520332,
				"y": -1.2619072553,
				"z": -1.3234442299,
				"element": "H" 
			},
			{
				"x": 1.9954017353,
				"y": -3.3638233838,
				"z": -0.4873943677,
				"element": "H" 
			},
			{
				"x": 1.4911408252,
				"y": -2.6641620582,
				"z": 1.0407186148,
				"element": "H" 
			},
			{
				"x": 0.0955182317,
				"y": -2.2578776178,
				"z": -1.6577802424,
				"element": "H" 
			},
			{
				"x": -0.4863228834,
				"y": -3.2377357112,
				"z": -0.3274378228,
				"element": "H" 
			},
			{
				"x": -1.3850656583,
				"y": -1.4126973824,
				"z": 0.7742829279,
				"element": "H" 
			},
			{
				"x": -2.1667496556,
				"y": -1.6562694967,
				"z": -2.1103794481,
				"element": "H" 
			},
			{
				"x": -3.343624072,
				"y": 0.5418094489,
				"z": -1.4902719346,
				"element": "H" 
			},
			{
				"x": -3.3146059487,
				"y": -0.6232457953,
				"z": -0.1681278342,
				"element": "H" 
			},
			{
				"x": -3.8470576106,
				"y": 1.6678356098,
				"z": 0.6530771203,
				"element": "H" 
			},
			{
				"x": -2.3045088309,
				"y": 1.1548452812,
				"z": 1.3300800091,
				"element": "H" 
			},
			{
				"x": -2.1384076086,
				"y": 3.4957191015,
				"z": 0.4315137564,
				"element": "H" 
			},
			{
				"x": -2.6608909876,
				"y": 2.9257033718,
				"z": -1.1505878507,
				"element": "H" 
			},
			{
				"x": -0.1029542706,
				"y": 2.1876032933,
				"z": 0.3435032469,
				"element": "H" 
			},
			{
				"x": -0.1922779203,
				"y": 3.127276261,
				"z": -1.1287101496,
				"element": "H" 
			},
			{
				"x": -0.8323028828,
				"y": 1.2787349547,
				"z": -2.4823626497,
				"element": "H" 
			},
			{
				"x": 1.0613919216,
				"y": -0.2137615333,
				"z": -2.2871110209,
				"element": "H" 
			},
			{
				"x": 1.5926677529,
				"y": 1.4123361377,
				"z": -1.9060080966,
				"element": "H" 
			}
		],
		 "valence_orbital": [ 
			{
				"type": "occ",
				"energy": -0.2858,
				"method": "rhf"
			},
			{
				"type": "occ",
				"energy": -0.27219,
				"method": "rhf"
			},
			{
				"type": "occ",
				"energy": -0.24516,
				"method": "rhf"
			},
			{
				"type": "occ",
				"energy": -0.20198,
				"method": "rhf"
			},
			{
				"type": "occ",
				"energy": -0.20061,
				"method": "rhf"
			},
			{
				"type": "unocc",
				"energy": -0.02288,
				"method": "rhf"
			},
			{
				"type": "unocc",
				"energy": 0.03291,
				"method": "rhf"
			},
			{
				"type": "unocc",
				"energy": 0.05462,
				"method": "rhf"
			},
			{
				"type": "unocc",
				"energy": 0.06578,
				"method": "rhf"
			},
			{
				"type": "unocc",
				"energy": 0.07893,
				"method": "rhf"
			}
		],
		"cosmo_sigma_profile": { 
			"-0.025": 0.0,
			"-0.024": 0.0,
			"-0.023": 0.0,
			"-0.022": 0.0,
			"-0.021": 0.0,
			"-0.02": 0.0,
			"-0.019": 0.0,
			"-0.018": 0.0,
			"-0.017": 0.0,
			"-0.016": 0.0,
			"-0.015": 0.763201850587,
			"-0.014": 2.1015150627,
			"-0.013": 3.03706468093,
			"-0.012": 3.97378789801,
			"-0.011": 3.58338322512,
			"-0.01": 3.6289413733,
			"-0.009": 3.87840684967,
			"-0.008": 4.07739320766,
			"-0.007": 3.66929892334,
			"-0.006": 4.35254482272,
			"-0.005": 4.27681953827,
			"-0.004": 8.99057179619,
			"-0.003": 26.9957837179,
			"-0.002": 39.7848030585,
			"-0.001": 46.9485290591,
			"0.0": 43.8149589116,
			"0.001": 30.0965117032,
			"0.002": 12.4551097845,
			"0.003": 7.95408029367,
			"0.004": 6.50231460644,
			"0.005": 6.28226518238,
			"0.006": 4.88076959833,
			"0.007": 5.12510121464,
			"0.008": 4.91980883601,
			"0.009": 4.87788813483,
			"0.01": 4.9304386987,
			"0.011": 7.76452696761,
			"0.012": 9.67130474444,
			"0.013": 3.16830298909,
			"0.014": 0.841306422586,
			"0.015": 0.0,
			"0.016": 0.0,
			"0.017": 0.0,
			"0.018": 0.0,
			"0.019": 0.0,
			"0.02": 0.0,
			"0.021": 0.0,
			"0.022": 0.0,
			"0.023": 0.0,
			"0.024": 0.0,
			"0.025": 0.0
		}
	}
}
