{
	 "smiles": "FC1=C(F)C=C2N=CNC2=C1", 
	 "Tm": 433.15, 
	 "num_atms": 15, 
	 "gaussian": { 
		 "optdone": 1, 
		 "sigma_profile": "yes", 
		 "theory": "DFT", 
		 "functional": "B3LYP", 
		 "basiset": "6-31G**", 
		 "properties": { 
			 "R2extent": 2903.2627, 
			 "electric_dipole_moment_norm": 4.59145950979, 
			 "electric_quadrupole_moment_norm": 13.1934519694, 
			 "total_energy": -578.322546408, 
			 "HOMO_LUMO_gap": 0.20168, 
			 "cosmo_polarized_energy": -12.87, 
			 "cosmo_cavitation_energy": 20.6, 
			 "cosmo_dispersion_energy": -15.41, 
			 "cosmo_repulsion_energy": 1.18, 
			 "cosmo_total_nonelectrostatic_energy": 6.36, 
			 "SMD_solvation_energy": 2.82 
		},
		"coords": [
			{
				"x": 2.1873569112,
				"y": 2.3930334951,
				"z": 0.0393165155,
				"element": "F" 
			},
			{
				"x": 2.1452766485,
				"y": 1.0577818716,
				"z": -0.1237035329,
				"element": "C" 
			},
			{
				"x": 2.5285315627,
				"y": 0.5303138328,
				"z": -1.3726123041,
				"element": "C" 
			},
			{
				"x": 2.9139300643,
				"y": 1.3991973906,
				"z": -2.3271676881,
				"element": "F" 
			},
			{
				"x": 2.515181901,
				"y": -0.828335385,
				"z": -1.6256180862,
				"element": "C" 
			},
			{
				"x": 2.1025908126,
				"y": -1.674433159,
				"z": -0.5857435878,
				"element": "C" 
			},
			{
				"x": 1.9942161357,
				"y": -3.0574546993,
				"z": -0.562621859,
				"element": "N" 
			},
			{
				"x": 1.5673617034,
				"y": -3.3357718362,
				"z": 0.6417461153,
				"element": "C" 
			},
			{
				"x": 1.3810471723,
				"y": -2.2233654547,
				"z": 1.4331423319,
				"element": "N" 
			},
			{
				"x": 1.7207886625,
				"y": -1.1253003236,
				"z": 0.6634129727,
				"element": "C" 
			},
			{
				"x": 1.7334727566,
				"y": 0.2478610403,
				"z": 0.9216385141,
				"element": "C" 
			},
			{
				"x": 2.8141972815,
				"y": -1.2120720045,
				"z": -2.5939107641,
				"element": "H" 
			},
			{
				"x": 1.3681384657,
				"y": -4.3311764631,
				"z": 1.0173816191,
				"element": "H" 
			},
			{
				"x": 1.0591096911,
				"y": -2.2158202499,
				"z": 2.3882231159,
				"element": "H" 
			},
			{
				"x": 1.445900231,
				"y": 0.6901419448,
				"z": 1.8687166377,
				"element": "H" 
			}
		],
		 "valence_orbital": [ 
			{
				"type": "occ",
				"energy": -0.33438,
				"method": "rhf"
			},
			{
				"type": "occ",
				"energy": -0.31628,
				"method": "rhf"
			},
			{
				"type": "occ",
				"energy": -0.28162,
				"method": "rhf"
			},
			{
				"type": "occ",
				"energy": -0.23778,
				"method": "rhf"
			},
			{
				"type": "occ",
				"energy": -0.22861,
				"method": "rhf"
			},
			{
				"type": "unocc",
				"energy": -0.02693,
				"method": "rhf"
			},
			{
				"type": "unocc",
				"energy": 0.01693,
				"method": "rhf"
			},
			{
				"type": "unocc",
				"energy": 0.04563,
				"method": "rhf"
			},
			{
				"type": "unocc",
				"energy": 0.06476,
				"method": "rhf"
			},
			{
				"type": "unocc",
				"energy": 0.07684,
				"method": "rhf"
			}
		],
		"cosmo_sigma_profile": { 
			"-0.025": 0.0,
			"-0.024": 0.0,
			"-0.023": 0.0,
			"-0.022": 0.0,
			"-0.021": 0.0,
			"-0.02": 0.0,
			"-0.019": 0.0,
			"-0.018": 0.0523136203906,
			"-0.017": 1.30652554859,
			"-0.016": 1.79749202311,
			"-0.015": 1.21906266026,
			"-0.014": 1.49686613859,
			"-0.013": 1.11702681943,
			"-0.012": 1.6021955893,
			"-0.011": 1.64003570741,
			"-0.01": 2.77785110944,
			"-0.009": 4.4896982684,
			"-0.008": 5.18621640958,
			"-0.007": 4.77223684965,
			"-0.006": 4.39966097021,
			"-0.005": 4.95263960426,
			"-0.004": 3.79157113165,
			"-0.003": 4.33063932185,
			"-0.002": 4.17818680375,
			"-0.001": 8.29426189537,
			"0.0": 12.2180603661,
			"0.001": 21.2126871919,
			"0.002": 17.7297410638,
			"0.003": 15.3113231448,
			"0.004": 22.38633773,
			"0.005": 6.13382868955,
			"0.006": 1.62707420542,
			"0.007": 1.3378099904,
			"0.008": 1.83386280145,
			"0.009": 1.15134298232,
			"0.01": 0.71748315138,
			"0.011": 1.38400567902,
			"0.012": 1.01413560878,
			"0.013": 1.5848796995,
			"0.014": 0.913807089268,
			"0.015": 0.646202613944,
			"0.016": 1.29118539575,
			"0.017": 0.781632649782,
			"0.018": 0.0905373686282,
			"0.019": 0.0,
			"0.02": 0.0,
			"0.021": 0.0,
			"0.022": 0.0,
			"0.023": 0.0,
			"0.024": 0.0,
			"0.025": 0.0
		}
	}
}
