{
	 "smiles": "OC(=O)C=CC1=C(OCC2=CC=C(Cl)C=C2)C=CC(Cl)=C1", 
	 "Tm": 436.15, 
	 "num_atms": 33, 
	 "gaussian": { 
		 "optdone": 1, 
		 "sigma_profile": "yes", 
		 "theory": "DFT", 
		 "functional": "B3LYP", 
		 "basiset": "6-31G**", 
		 "properties": { 
			 "R2extent": 11109.06, 
			 "electric_dipole_moment_norm": 2.28482180706, 
			 "electric_quadrupole_moment_norm": 25.1098809991, 
			 "total_energy": -1762.98532174, 
			 "HOMO_LUMO_gap": 0.16287, 
			 "cosmo_polarized_energy": -14.06, 
			 "cosmo_cavitation_energy": 42.73, 
			 "cosmo_dispersion_energy": -29.62, 
			 "cosmo_repulsion_energy": 2.26, 
			 "cosmo_total_nonelectrostatic_energy": 15.37, 
			 "SMD_solvation_energy": 7.81 
		},
		"coords": [
			{
				"x": -2.1696970759,
				"y": -1.4966497243,
				"z": 3.6539832557,
				"element": "O" 
			},
			{
				"x": -1.3393631853,
				"y": -1.0285858354,
				"z": 2.68988057,
				"element": "C" 
			},
			{
				"x": -0.5696560804,
				"y": -0.1043392548,
				"z": 2.8880690693,
				"element": "O" 
			},
			{
				"x": -1.5108447414,
				"y": -1.7613519349,
				"z": 1.4206540671,
				"element": "C" 
			},
			{
				"x": -0.6923425545,
				"y": -1.4881899116,
				"z": 0.3886970877,
				"element": "C" 
			},
			{
				"x": -0.7178424995,
				"y": -2.0647491894,
				"z": -0.9529278884,
				"element": "C" 
			},
			{
				"x": -0.0112874535,
				"y": -1.4059743524,
				"z": -1.986194562,
				"element": "C" 
			},
			{
				"x": 0.7005570934,
				"y": -0.2614105551,
				"z": -1.7142981223,
				"element": "O" 
			},
			{
				"x": -0.0698142654,
				"y": 0.9670811042,
				"z": -1.7315464804,
				"element": "C" 
			},
			{
				"x": 0.7775596498,
				"y": 2.0743181289,
				"z": -1.1662190461,
				"element": "C" 
			},
			{
				"x": 0.8502366174,
				"y": 2.2803759917,
				"z": 0.2184421215,
				"element": "C" 
			},
			{
				"x": 1.6543233864,
				"y": 3.2887015865,
				"z": 0.7477712862,
				"element": "C" 
			},
			{
				"x": 2.3892408827,
				"y": 4.0971969436,
				"z": -0.1194734783,
				"element": "C" 
			},
			{
				"x": 3.3993090375,
				"y": 5.3760770137,
				"z": 0.5398039961,
				"element": "Cl" 
			},
			{
				"x": 2.3351762986,
				"y": 3.912612489,
				"z": -1.5003109928,
				"element": "C" 
			},
			{
				"x": 1.5281601753,
				"y": 2.8974260485,
				"z": -2.0127879321,
				"element": "C" 
			},
			{
				"x": 0.0067762474,
				"y": -1.9300655517,
				"z": -3.2796789729,
				"element": "C" 
			},
			{
				"x": -0.6697543449,
				"y": -3.1117025966,
				"z": -3.5733294402,
				"element": "C" 
			},
			{
				"x": -1.3721571973,
				"y": -3.7617919186,
				"z": -2.5552631481,
				"element": "C" 
			},
			{
				"x": -2.2231939281,
				"y": -5.2567121228,
				"z": -2.9149836549,
				"element": "Cl" 
			},
			{
				"x": -1.3980685085,
				"y": -3.2562794796,
				"z": -1.2616062129,
				"element": "C" 
			},
			{
				"x": -1.9963946453,
				"y": -0.9571334902,
				"z": 4.4432938753,
				"element": "H" 
			},
			{
				"x": -2.3180215191,
				"y": -2.4850468216,
				"z": 1.372748046,
				"element": "H" 
			},
			{
				"x": 0.0764020782,
				"y": -0.739681967,
				"z": 0.5569541121,
				"element": "H" 
			},
			{
				"x": -0.9803580103,
				"y": 0.8307286651,
				"z": -1.1353083488,
				"element": "H" 
			},
			{
				"x": -0.3688552722,
				"y": 1.1859221382,
				"z": -2.7649569281,
				"element": "H" 
			},
			{
				"x": 0.2808224863,
				"y": 1.6523941148,
				"z": 0.8993660979,
				"element": "H" 
			},
			{
				"x": 1.7086720574,
				"y": 3.4474798608,
				"z": 1.8188876273,
				"element": "H" 
			},
			{
				"x": 2.9127921466,
				"y": 4.5517347784,
				"z": -2.1587195518,
				"element": "H" 
			},
			{
				"x": 1.4831354,
				"y": 2.746675605,
				"z": -3.088190886,
				"element": "H" 
			},
			{
				"x": 0.5676283931,
				"y": -1.4066118526,
				"z": -4.0469753684,
				"element": "H" 
			},
			{
				"x": -0.6523806121,
				"y": -3.527811943,
				"z": -4.5743717579,
				"element": "H" 
			},
			{
				"x": -1.9262600567,
				"y": -3.7980359668,
				"z": -0.4852084396,
				"element": "H" 
			}
		],
		 "valence_orbital": [ 
			{
				"type": "occ",
				"energy": -0.28266,
				"method": "rhf"
			},
			{
				"type": "occ",
				"energy": -0.26511,
				"method": "rhf"
			},
			{
				"type": "occ",
				"energy": -0.2616,
				"method": "rhf"
			},
			{
				"type": "occ",
				"energy": -0.24953,
				"method": "rhf"
			},
			{
				"type": "occ",
				"energy": -0.24264,
				"method": "rhf"
			},
			{
				"type": "unocc",
				"energy": -0.07977,
				"method": "rhf"
			},
			{
				"type": "unocc",
				"energy": -0.02768,
				"method": "rhf"
			},
			{
				"type": "unocc",
				"energy": -0.01837,
				"method": "rhf"
			},
			{
				"type": "unocc",
				"energy": -0.01641,
				"method": "rhf"
			},
			{
				"type": "unocc",
				"energy": 0.00318,
				"method": "rhf"
			}
		],
		"cosmo_sigma_profile": { 
			"-0.025": 0.0,
			"-0.024": 0.0,
			"-0.023": 0.0,
			"-0.022": 0.0,
			"-0.021": 0.0,
			"-0.02": 0.0,
			"-0.019": 0.0320484118267,
			"-0.018": 0.624309491189,
			"-0.017": 0.855118566732,
			"-0.016": 0.882160804416,
			"-0.015": 0.861251647717,
			"-0.014": 1.1043539483,
			"-0.013": 0.457483567823,
			"-0.012": 0.220595681894,
			"-0.011": 0.953227128235,
			"-0.01": 1.06128341509,
			"-0.009": 1.68694488246,
			"-0.008": 5.01185444339,
			"-0.007": 12.8587919371,
			"-0.006": 16.2609355916,
			"-0.005": 19.0091817633,
			"-0.004": 17.4804163004,
			"-0.003": 17.7165716878,
			"-0.002": 21.4018073981,
			"-0.001": 22.6121318066,
			"0.0": 29.5408382488,
			"0.001": 39.3344372052,
			"0.002": 37.914333936,
			"0.003": 29.7803857865,
			"0.004": 29.0796813294,
			"0.005": 15.6187716195,
			"0.006": 3.68284317967,
			"0.007": 3.0811179613,
			"0.008": 5.0030370515,
			"0.009": 4.07558557802,
			"0.01": 3.18983834416,
			"0.011": 3.195298609,
			"0.012": 2.43626339268,
			"0.013": 0.434745223389,
			"0.014": 0.0,
			"0.015": 0.0,
			"0.016": 0.0,
			"0.017": 0.0,
			"0.018": 0.0,
			"0.019": 0.0,
			"0.02": 0.0,
			"0.021": 0.0,
			"0.022": 0.0,
			"0.023": 0.0,
			"0.024": 0.0,
			"0.025": 0.0
		}
	}
}
