{
	 "smiles": "CCC1=CC2=C(NC(=O)C2=O)C=C1", 
	 "Tm": 388.15, 
	 "num_atms": 22, 
	 "gaussian": { 
		 "optdone": 1, 
		 "sigma_profile": "yes", 
		 "theory": "DFT", 
		 "functional": "B3LYP", 
		 "basiset": "6-31G**", 
		 "properties": { 
			 "R2extent": 3192.2476, 
			 "electric_dipole_moment_norm": 6.15533550264, 
			 "electric_quadrupole_moment_norm": 19.2551768192, 
			 "total_energy": -591.6984095, 
			 "HOMO_LUMO_gap": 0.13824, 
			 "cosmo_polarized_energy": -15.15, 
			 "cosmo_cavitation_energy": 26.85, 
			 "cosmo_dispersion_energy": -19.37, 
			 "cosmo_repulsion_energy": 1.54, 
			 "cosmo_total_nonelectrostatic_energy": 9.02, 
			 "SMD_solvation_energy": 5.87 
		},
		"coords": [
			{
				"x": -1.0113341689,
				"y": 3.1120069585,
				"z": -1.9380567196,
				"element": "C" 
			},
			{
				"x": 0.2060384,
				"y": 3.3268677193,
				"z": -1.0208561771,
				"element": "C" 
			},
			{
				"x": 0.4743820109,
				"y": 2.1487635552,
				"z": -0.1073866809,
				"element": "C" 
			},
			{
				"x": 1.2967270659,
				"y": 1.0893217253,
				"z": -0.5158979935,
				"element": "C" 
			},
			{
				"x": 1.4939057829,
				"y": 0.0036511453,
				"z": 0.3317208046,
				"element": "C" 
			},
			{
				"x": 0.8794762931,
				"y": -0.0485399781,
				"z": 1.5978670785,
				"element": "C" 
			},
			{
				"x": 1.2329635764,
				"y": -1.2328514005,
				"z": 2.263162601,
				"element": "N" 
			},
			{
				"x": 2.0824391298,
				"y": -2.0235858324,
				"z": 1.5042477668,
				"element": "C" 
			},
			{
				"x": 2.5528727184,
				"y": -3.0954281037,
				"z": 1.8103657668,
				"element": "O" 
			},
			{
				"x": 2.2944369476,
				"y": -1.2206870269,
				"z": 0.169727277,
				"element": "C" 
			},
			{
				"x": 2.9853993113,
				"y": -1.5950812349,
				"z": -0.7525896886,
				"element": "O" 
			},
			{
				"x": 0.0618206875,
				"y": 0.9870933847,
				"z": 2.0295508626,
				"element": "C" 
			},
			{
				"x": -0.1248872578,
				"y": 2.0712304866,
				"z": 1.161765768,
				"element": "C" 
			},
			{
				"x": -1.9218950075,
				"y": 2.9504093033,
				"z": -1.3517478687,
				"element": "H" 
			},
			{
				"x": -1.1728705273,
				"y": 3.9817347993,
				"z": -2.5831535203,
				"element": "H" 
			},
			{
				"x": -0.8702800785,
				"y": 2.2356896619,
				"z": -2.5789548798,
				"element": "H" 
			},
			{
				"x": 1.0928075826,
				"y": 3.5175499409,
				"z": -1.6365884207,
				"element": "H" 
			},
			{
				"x": 0.0495836991,
				"y": 4.2286388683,
				"z": -0.4169907726,
				"element": "H" 
			},
			{
				"x": 1.7878681081,
				"y": 1.1045776812,
				"z": -1.4854673087,
				"element": "H" 
			},
			{
				"x": 0.9192273883,
				"y": -1.4972907554,
				"z": 3.1854352841,
				"element": "H" 
			},
			{
				"x": -0.4152937567,
				"y": 0.967713161,
				"z": 3.0045623797,
				"element": "H" 
			},
			{
				"x": -0.7593879051,
				"y": 2.891515941,
				"z": 1.4890844415,
				"element": "H" 
			}
		],
		 "valence_orbital": [ 
			{
				"type": "occ",
				"energy": -0.31872,
				"method": "rhf"
			},
			{
				"type": "occ",
				"energy": -0.30751,
				"method": "rhf"
			},
			{
				"type": "occ",
				"energy": -0.27579,
				"method": "rhf"
			},
			{
				"type": "occ",
				"energy": -0.24418,
				"method": "rhf"
			},
			{
				"type": "occ",
				"energy": -0.23306,
				"method": "rhf"
			},
			{
				"type": "unocc",
				"energy": -0.09482,
				"method": "rhf"
			},
			{
				"type": "unocc",
				"energy": -0.02041,
				"method": "rhf"
			},
			{
				"type": "unocc",
				"energy": 0.00876,
				"method": "rhf"
			},
			{
				"type": "unocc",
				"energy": 0.07592,
				"method": "rhf"
			},
			{
				"type": "unocc",
				"energy": 0.08201,
				"method": "rhf"
			}
		],
		"cosmo_sigma_profile": { 
			"-0.025": 0.0,
			"-0.024": 0.0,
			"-0.023": 0.0,
			"-0.022": 0.0,
			"-0.021": 0.0,
			"-0.02": 0.0,
			"-0.019": 0.0,
			"-0.018": 0.0,
			"-0.017": 0.26714366459,
			"-0.016": 1.52169280306,
			"-0.015": 1.19370491193,
			"-0.014": 1.49982938031,
			"-0.013": 0.872314516823,
			"-0.012": 0.911776761253,
			"-0.011": 1.5421727959,
			"-0.01": 1.21620365153,
			"-0.009": 1.15274208288,
			"-0.008": 2.02843132267,
			"-0.007": 5.08682520532,
			"-0.006": 9.86675669022,
			"-0.005": 9.56397779653,
			"-0.004": 12.3528837019,
			"-0.003": 17.9230185594,
			"-0.002": 18.7919152597,
			"-0.001": 22.4985761605,
			"0.0": 20.7191231403,
			"0.001": 18.9353289855,
			"0.002": 13.0924323712,
			"0.003": 11.5943650416,
			"0.004": 3.72339737796,
			"0.005": 2.4599619696,
			"0.006": 2.23480052687,
			"0.007": 2.90913388271,
			"0.008": 3.14194196895,
			"0.009": 4.73569070854,
			"0.01": 7.42323723502,
			"0.011": 9.43031215666,
			"0.012": 4.76488193007,
			"0.013": 0.533854923535,
			"0.014": 0.0,
			"0.015": 0.0,
			"0.016": 0.0,
			"0.017": 0.0,
			"0.018": 0.0,
			"0.019": 0.0,
			"0.02": 0.0,
			"0.021": 0.0,
			"0.022": 0.0,
			"0.023": 0.0,
			"0.024": 0.0,
			"0.025": 0.0
		}
	}
}
