{
	 "smiles": "OC(=O)C1=CC=C(Cl)S1", 
	 "Tm": 424.15, 
	 "num_atms": 12, 
	 "gaussian": { 
		 "optdone": 1, 
		 "sigma_profile": "yes", 
		 "theory": "DFT", 
		 "functional": "B3LYP", 
		 "basiset": "6-31G**", 
		 "properties": { 
			 "R2extent": 2853.909, 
			 "electric_dipole_moment_norm": 3.28659476206, 
			 "electric_quadrupole_moment_norm": 9.80926153133, 
			 "total_energy": -1201.14930655, 
			 "HOMO_LUMO_gap": 0.18347, 
			 "cosmo_polarized_energy": -11.83, 
			 "cosmo_cavitation_energy": 20.5, 
			 "cosmo_dispersion_energy": -16.01, 
			 "cosmo_repulsion_energy": 1.27, 
			 "cosmo_total_nonelectrostatic_energy": 5.76, 
			 "SMD_solvation_energy": 4.36 
		},
		"coords": [
			{
				"x": -1.2108616894,
				"y": -1.7272336998,
				"z": 1.1638729808,
				"element": "O" 
			},
			{
				"x": -1.20539143,
				"y": -0.504804492,
				"z": 0.571308558,
				"element": "C" 
			},
			{
				"x": -1.6023364359,
				"y": 0.4629350915,
				"z": 1.1769764248,
				"element": "O" 
			},
			{
				"x": -0.7058483822,
				"y": -0.4047455985,
				"z": -0.8209601039,
				"element": "C" 
			},
			{
				"x": -0.6488099907,
				"y": 0.7703973489,
				"z": -1.5308867092,
				"element": "C" 
			},
			{
				"x": -0.1343025526,
				"y": 0.6223438383,
				"z": -2.8456585293,
				"element": "C" 
			},
			{
				"x": 0.1974263674,
				"y": -0.6784013714,
				"z": -3.1229794441,
				"element": "C" 
			},
			{
				"x": 0.8530253442,
				"y": -1.2906417442,
				"z": -4.5976927018,
				"element": "Cl" 
			},
			{
				"x": -0.1124270249,
				"y": -1.7450493501,
				"z": -1.7844361992,
				"element": "S" 
			},
			{
				"x": -0.871549754,
				"y": -2.421600457,
				"z": 0.5816387921,
				"element": "H" 
			},
			{
				"x": -0.9752025482,
				"y": 1.7070235819,
				"z": -1.0955120773,
				"element": "H" 
			},
			{
				"x": -0.0115219036,
				"y": 1.4286768524,
				"z": -3.5576709909,
				"element": "H" 
			}
		],
		 "valence_orbital": [ 
			{
				"type": "occ",
				"energy": -0.34369,
				"method": "rhf"
			},
			{
				"type": "occ",
				"energy": -0.32473,
				"method": "rhf"
			},
			{
				"type": "occ",
				"energy": -0.28752,
				"method": "rhf"
			},
			{
				"type": "occ",
				"energy": -0.28524,
				"method": "rhf"
			},
			{
				"type": "occ",
				"energy": -0.25619,
				"method": "rhf"
			},
			{
				"type": "unocc",
				"energy": -0.07272,
				"method": "rhf"
			},
			{
				"type": "unocc",
				"energy": -0.0275,
				"method": "rhf"
			},
			{
				"type": "unocc",
				"energy": 0.00605,
				"method": "rhf"
			},
			{
				"type": "unocc",
				"energy": 0.01148,
				"method": "rhf"
			},
			{
				"type": "unocc",
				"energy": 0.0538,
				"method": "rhf"
			}
		],
		"cosmo_sigma_profile": { 
			"-0.025": 0.0,
			"-0.024": 0.0,
			"-0.023": 0.0,
			"-0.022": 0.0,
			"-0.021": 0.0,
			"-0.02": 0.0,
			"-0.019": 0.436495429794,
			"-0.018": 0.633710142599,
			"-0.017": 0.729087380381,
			"-0.016": 1.08583896158,
			"-0.015": 1.17817712535,
			"-0.014": 0.907927975992,
			"-0.013": 0.837046639906,
			"-0.012": 0.90419064122,
			"-0.011": 1.10652003533,
			"-0.01": 1.11081644139,
			"-0.009": 2.62566820578,
			"-0.008": 4.49151893866,
			"-0.007": 3.84505499928,
			"-0.006": 5.27612788051,
			"-0.005": 5.19578862351,
			"-0.004": 5.49255691536,
			"-0.003": 10.6337181518,
			"-0.002": 10.5930230733,
			"-0.001": 15.2665729512,
			"0.0": 19.7504332678,
			"0.001": 20.9611167816,
			"0.002": 17.0773660781,
			"0.003": 8.8904728786,
			"0.004": 2.05031439002,
			"0.005": 2.1167424718,
			"0.006": 2.63805026422,
			"0.007": 2.33778531407,
			"0.008": 2.66867771935,
			"0.009": 3.73788165762,
			"0.01": 5.21773499464,
			"0.011": 5.06219213008,
			"0.012": 4.09707627284,
			"0.013": 0.786455589193,
			"0.014": 0.0,
			"0.015": 0.0,
			"0.016": 0.0,
			"0.017": 0.0,
			"0.018": 0.0,
			"0.019": 0.0,
			"0.02": 0.0,
			"0.021": 0.0,
			"0.022": 0.0,
			"0.023": 0.0,
			"0.024": 0.0,
			"0.025": 0.0
		}
	}
}
