{
	 "smiles": "C[C@]12CCC(=O)C=C1CC[C@H]1[C@@H]3CC[C@H](C(=O)CO)[C@]3(C[C@H](O)[C@H]21)C=O", 
	 "Tm": 440.15, 
	 "num_atms": 54, 
	 "gaussian": { 
		 "optdone": 1, 
		 "sigma_profile": "yes", 
		 "theory": "DFT", 
		 "functional": "B3LYP", 
		 "basiset": "6-31G**", 
		 "properties": { 
			 "R2extent": 9949.5513, 
			 "electric_dipole_moment_norm": 2.17686704693, 
			 "electric_quadrupole_moment_norm": 47.5734690003, 
			 "total_energy": -1193.19342362, 
			 "HOMO_LUMO_gap": 0.18705, 
			 "cosmo_polarized_energy": -24.01, 
			 "cosmo_cavitation_energy": 48.13, 
			 "cosmo_dispersion_energy": -33.33, 
			 "cosmo_repulsion_energy": 2.44, 
			 "cosmo_total_nonelectrostatic_energy": 17.25, 
			 "SMD_solvation_energy": 8.68 
		},
		"coords": [
			{
				"x": 3.0418166703,
				"y": 0.5375329921,
				"z": 0.9880483083,
				"element": "C" 
			},
			{
				"x": 2.2724603055,
				"y": 0.6379993792,
				"z": -0.3558893905,
				"element": "C" 
			},
			{
				"x": 3.0294328126,
				"y": -0.2662212834,
				"z": -1.3629047832,
				"element": "C" 
			},
			{
				"x": 2.7336225142,
				"y": 0.0256444935,
				"z": -2.8362205212,
				"element": "C" 
			},
			{
				"x": 2.9926290733,
				"y": 1.4890831479,
				"z": -3.1643315005,
				"element": "C" 
			},
			{
				"x": 3.3729566818,
				"y": 1.8560978973,
				"z": -4.2677364941,
				"element": "O" 
			},
			{
				"x": 2.6694225337,
				"y": 2.4455288827,
				"z": -2.0899146836,
				"element": "C" 
			},
			{
				"x": 2.2881587334,
				"y": 2.0865965052,
				"z": -0.8458120524,
				"element": "C" 
			},
			{
				"x": 1.6835410964,
				"y": 3.0876606013,
				"z": 0.101546337,
				"element": "C" 
			},
			{
				"x": 0.1939194838,
				"y": 2.7257342343,
				"z": 0.2963037235,
				"element": "C" 
			},
			{
				"x": -0.0287919187,
				"y": 1.2575532314,
				"z": 0.7083106704,
				"element": "C" 
			},
			{
				"x": -1.5253380944,
				"y": 0.9031100509,
				"z": 0.6662562929,
				"element": "C" 
			},
			{
				"x": -2.5357009854,
				"y": 1.7197540194,
				"z": 1.4874370149,
				"element": "C" 
			},
			{
				"x": -3.8309515767,
				"y": 0.8654852217,
				"z": 1.434291058,
				"element": "C" 
			},
			{
				"x": -3.4176842193,
				"y": -0.5525037719,
				"z": 0.9432177896,
				"element": "C" 
			},
			{
				"x": -4.15521449,
				"y": -1.6698054667,
				"z": 1.683446027,
				"element": "C" 
			},
			{
				"x": -4.7678837495,
				"y": -1.4764077869,
				"z": 2.7160866481,
				"element": "O" 
			},
			{
				"x": -4.1306674718,
				"y": -3.0828572118,
				"z": 1.1065930766,
				"element": "C" 
			},
			{
				"x": -3.7899700391,
				"y": -3.0640729542,
				"z": -0.2731544775,
				"element": "O" 
			},
			{
				"x": -1.8427015413,
				"y": -0.5632193163,
				"z": 1.0474182331,
				"element": "C" 
			},
			{
				"x": -1.0786979374,
				"y": -1.5039140376,
				"z": 0.0996187376,
				"element": "C" 
			},
			{
				"x": 0.4312344464,
				"y": -1.1969421667,
				"z": 0.1492893775,
				"element": "C" 
			},
			{
				"x": 0.9464108219,
				"y": -1.4341823788,
				"z": 1.464081747,
				"element": "O" 
			},
			{
				"x": 0.7415938451,
				"y": 0.2703684211,
				"z": -0.2208731842,
				"element": "C" 
			},
			{
				"x": -1.4525910051,
				"y": -0.9111134634,
				"z": 2.4917290606,
				"element": "C" 
			},
			{
				"x": -1.6148731644,
				"y": -2.0234159906,
				"z": 2.9569207792,
				"element": "O" 
			},
			{
				"x": 4.0233861494,
				"y": 1.0131300572,
				"z": 0.8852870687,
				"element": "H" 
			},
			{
				"x": 3.1867509627,
				"y": -0.5090547152,
				"z": 1.258772758,
				"element": "H" 
			},
			{
				"x": 2.5231137426,
				"y": 1.0125491059,
				"z": 1.8220221794,
				"element": "H" 
			},
			{
				"x": 2.850236875,
				"y": -1.3208156362,
				"z": -1.1315729772,
				"element": "H" 
			},
			{
				"x": 4.102358341,
				"y": -0.1066381879,
				"z": -1.1973183588,
				"element": "H" 
			},
			{
				"x": 1.6818220316,
				"y": -0.1835980463,
				"z": -3.0790828419,
				"element": "H" 
			},
			{
				"x": 3.338992661,
				"y": -0.5943422745,
				"z": -3.5035760577,
				"element": "H" 
			},
			{
				"x": 2.6792014705,
				"y": 3.4931598009,
				"z": -2.3837570387,
				"element": "H" 
			},
			{
				"x": 2.1944276273,
				"y": 3.075479086,
				"z": 1.0712428005,
				"element": "H" 
			},
			{
				"x": 1.772734803,
				"y": 4.1018324112,
				"z": -0.3001865272,
				"element": "H" 
			},
			{
				"x": -0.3307621122,
				"y": 2.9116048174,
				"z": -0.6512153763,
				"element": "H" 
			},
			{
				"x": -0.2533009302,
				"y": 3.393672109,
				"z": 1.0410351365,
				"element": "H" 
			},
			{
				"x": 0.3419514351,
				"y": 1.1260657529,
				"z": 1.7321923246,
				"element": "H" 
			},
			{
				"x": -1.8314942232,
				"y": 1.0001307187,
				"z": -0.3884846496,
				"element": "H" 
			},
			{
				"x": -2.685332993,
				"y": 2.7270870665,
				"z": 1.0893127945,
				"element": "H" 
			},
			{
				"x": -2.1905675677,
				"y": 1.8381587936,
				"z": 2.5223786409,
				"element": "H" 
			},
			{
				"x": -4.5631065146,
				"y": 1.2990721392,
				"z": 0.7468030751,
				"element": "H" 
			},
			{
				"x": -4.3126134419,
				"y": 0.7898927274,
				"z": 2.4113338617,
				"element": "H" 
			},
			{
				"x": -3.6459143522,
				"y": -0.6808532752,
				"z": -0.1204172869,
				"element": "H" 
			},
			{
				"x": -5.1204467748,
				"y": -3.5233754475,
				"z": 1.2882737809,
				"element": "H" 
			},
			{
				"x": -3.394422096,
				"y": -3.6379256948,
				"z": 1.7068343872,
				"element": "H" 
			},
			{
				"x": -3.7212555006,
				"y": -3.9765711478,
				"z": -0.578462298,
				"element": "H" 
			},
			{
				"x": -1.2504676064,
				"y": -2.5514658058,
				"z": 0.3663626953,
				"element": "H" 
			},
			{
				"x": -1.4510017557,
				"y": -1.3783896831,
				"z": -0.9231733367,
				"element": "H" 
			},
			{
				"x": 0.931943461,
				"y": -1.8609048045,
				"z": -0.5701051001,
				"element": "H" 
			},
			{
				"x": 0.6403742565,
				"y": -2.3009897438,
				"z": 1.7646913023,
				"element": "H" 
			},
			{
				"x": 0.3176912083,
				"y": 0.4005916544,
				"z": -1.2281503035,
				"element": "H" 
			},
			{
				"x": -1.0413319818,
				"y": -0.0975950275,
				"z": 3.1221015529,
				"element": "H" 
			}
		],
		 "valence_orbital": [ 
			{
				"type": "occ",
				"energy": -0.28079,
				"method": "rhf"
			},
			{
				"type": "occ",
				"energy": -0.25788,
				"method": "rhf"
			},
			{
				"type": "occ",
				"energy": -0.25374,
				"method": "rhf"
			},
			{
				"type": "occ",
				"energy": -0.24709,
				"method": "rhf"
			},
			{
				"type": "occ",
				"energy": -0.23136,
				"method": "rhf"
			},
			{
				"type": "unocc",
				"energy": -0.04431,
				"method": "rhf"
			},
			{
				"type": "unocc",
				"energy": -0.03778,
				"method": "rhf"
			},
			{
				"type": "unocc",
				"energy": -0.01519,
				"method": "rhf"
			},
			{
				"type": "unocc",
				"energy": 0.0484,
				"method": "rhf"
			},
			{
				"type": "unocc",
				"energy": 0.05649,
				"method": "rhf"
			}
		],
		"cosmo_sigma_profile": { 
			"-0.025": 0.0,
			"-0.024": 0.0,
			"-0.023": 0.0,
			"-0.022": 0.0,
			"-0.021": 0.0,
			"-0.02": 0.0,
			"-0.019": 0.0,
			"-0.018": 0.0,
			"-0.017": 0.237365881915,
			"-0.016": 1.02473251983,
			"-0.015": 1.05054808973,
			"-0.014": 1.75492993218,
			"-0.013": 1.54032983045,
			"-0.012": 1.74252732543,
			"-0.011": 1.09425974726,
			"-0.01": 1.85474124673,
			"-0.009": 2.53967007419,
			"-0.008": 1.51977498673,
			"-0.007": 1.64417909019,
			"-0.006": 8.24336167991,
			"-0.005": 20.3210577067,
			"-0.004": 39.8830126739,
			"-0.003": 48.1944160905,
			"-0.002": 45.504650331,
			"-0.001": 40.6149957135,
			"0.0": 28.3120651542,
			"0.001": 20.9139281363,
			"0.002": 13.5352808104,
			"0.003": 10.2779845991,
			"0.004": 8.93561703427,
			"0.005": 8.11427104596,
			"0.006": 6.57785719248,
			"0.007": 7.44556774597,
			"0.008": 8.40222296256,
			"0.009": 6.48032890312,
			"0.01": 6.71437476007,
			"0.011": 7.94750076353,
			"0.012": 9.18107559546,
			"0.013": 6.10390156673,
			"0.014": 3.13189971474,
			"0.015": 0.650634021924,
			"0.016": 0.0,
			"0.017": 0.0,
			"0.018": 0.0,
			"0.019": 0.0,
			"0.02": 0.0,
			"0.021": 0.0,
			"0.022": 0.0,
			"0.023": 0.0,
			"0.024": 0.0,
			"0.025": 0.0
		}
	}
}
