{
	 "smiles": "CC(C)(C)C1=CC=C(OC2=NC=C(C=C2)C(O)=O)C=C1", 
	 "Tm": 417.15, 
	 "num_atms": 37, 
	 "gaussian": { 
		 "optdone": 1, 
		 "sigma_profile": "yes", 
		 "theory": "DFT", 
		 "functional": "B3LYP", 
		 "basiset": "6-31G**", 
		 "properties": { 
			 "R2extent": 10279.2128, 
			 "electric_dipole_moment_norm": 7.45707167727, 
			 "electric_quadrupole_moment_norm": 38.4608363313, 
			 "total_energy": -900.381861829, 
			 "HOMO_LUMO_gap": 0.19747, 
			 "cosmo_polarized_energy": -19.69, 
			 "cosmo_cavitation_energy": 40.61, 
			 "cosmo_dispersion_energy": -28.57, 
			 "cosmo_repulsion_energy": 2.17, 
			 "cosmo_total_nonelectrostatic_energy": 14.22, 
			 "SMD_solvation_energy": 6.89 
		},
		"coords": [
			{
				"x": -0.8622661876,
				"y": -1.8129246355,
				"z": 3.1744916499,
				"element": "C" 
			},
			{
				"x": -1.5255517527,
				"y": -0.4206141265,
				"z": 3.0475759884,
				"element": "C" 
			},
			{
				"x": -3.0593580248,
				"y": -0.5684094649,
				"z": 3.1898743964,
				"element": "C" 
			},
			{
				"x": -1.0183592127,
				"y": 0.4603602115,
				"z": 4.2050414955,
				"element": "C" 
			},
			{
				"x": -1.1953075099,
				"y": 0.1796230577,
				"z": 1.6685026148,
				"element": "C" 
			},
			{
				"x": -1.5859443351,
				"y": -0.4964507068,
				"z": 0.4985055921,
				"element": "C" 
			},
			{
				"x": -1.3126309045,
				"y": 0.0093321054,
				"z": -0.7700516372,
				"element": "C" 
			},
			{
				"x": -0.6308286601,
				"y": 1.2195535357,
				"z": -0.8882212259,
				"element": "C" 
			},
			{
				"x": -0.422625504,
				"y": 1.7720558529,
				"z": -2.1503749925,
				"element": "O" 
			},
			{
				"x": 0.7166772575,
				"y": 1.4897170236,
				"z": -2.8377472045,
				"element": "C" 
			},
			{
				"x": 0.7695418941,
				"y": 2.0869405899,
				"z": -4.0283306616,
				"element": "N" 
			},
			{
				"x": 1.8462072769,
				"y": 1.8733039451,
				"z": -4.7814203038,
				"element": "C" 
			},
			{
				"x": 2.9331029988,
				"y": 1.0760283155,
				"z": -4.3920864726,
				"element": "C" 
			},
			{
				"x": 2.8452008443,
				"y": 0.449481182,
				"z": -3.1409417626,
				"element": "C" 
			},
			{
				"x": 1.7280561838,
				"y": 0.6489822197,
				"z": -2.3421413258,
				"element": "C" 
			},
			{
				"x": 4.072620443,
				"y": 0.9203564,
				"z": -5.3426167224,
				"element": "C" 
			},
			{
				"x": 5.2501887676,
				"y": 0.47289221,
				"z": -4.8228792267,
				"element": "O" 
			},
			{
				"x": 3.992075426,
				"y": 1.1684137666,
				"z": -6.5227851632,
				"element": "O" 
			},
			{
				"x": -0.2326399463,
				"y": 1.9189529886,
				"z": 0.2455569313,
				"element": "C" 
			},
			{
				"x": -0.5158507892,
				"y": 1.3957894318,
				"z": 1.5099921147,
				"element": "C" 
			},
			{
				"x": -1.2134997106,
				"y": -2.5045629745,
				"z": 2.4029186194,
				"element": "H" 
			},
			{
				"x": -1.0938316679,
				"y": -2.2572489198,
				"z": 4.148876368,
				"element": "H" 
			},
			{
				"x": 0.2266752925,
				"y": -1.7383227689,
				"z": 3.0862174379,
				"element": "H" 
			},
			{
				"x": -3.5559644218,
				"y": 0.4039769061,
				"z": 3.1092966618,
				"element": "H" 
			},
			{
				"x": -3.4797139748,
				"y": -1.2224735498,
				"z": 2.4201977753,
				"element": "H" 
			},
			{
				"x": -3.3109545624,
				"y": -0.9989922764,
				"z": 4.1654980195,
				"element": "H" 
			},
			{
				"x": -1.4764415149,
				"y": 1.4548127034,
				"z": 4.1925633545,
				"element": "H" 
			},
			{
				"x": 0.0695465454,
				"y": 0.582916359,
				"z": 4.1791040981,
				"element": "H" 
			},
			{
				"x": -1.2735983549,
				"y": -0.0067219056,
				"z": 5.1615105313,
				"element": "H" 
			},
			{
				"x": -2.1212817547,
				"y": -1.438141144,
				"z": 0.5721834943,
				"element": "H" 
			},
			{
				"x": -1.6310775785,
				"y": -0.5158453791,
				"z": -1.6648863696,
				"element": "H" 
			},
			{
				"x": 1.8710439908,
				"y": 2.357249298,
				"z": -5.754360023,
				"element": "H" 
			},
			{
				"x": 3.6243947124,
				"y": -0.2238724914,
				"z": -2.7904526528,
				"element": "H" 
			},
			{
				"x": 1.6322421197,
				"y": 0.1678321261,
				"z": -1.3773641842,
				"element": "H" 
			},
			{
				"x": 5.220556867,
				"y": 0.4874313476,
				"z": -3.8566868628,
				"element": "H" 
			},
			{
				"x": 0.2822639904,
				"y": 2.868118685,
				"z": 0.1362234454,
				"element": "H" 
			},
			{
				"x": -0.1988682427,
				"y": 1.9610600821,
				"z": 2.3784162025,
				"element": "H" 
			}
		],
		 "valence_orbital": [ 
			{
				"type": "occ",
				"energy": -0.28397,
				"method": "rhf"
			},
			{
				"type": "occ",
				"energy": -0.27003,
				"method": "rhf"
			},
			{
				"type": "occ",
				"energy": -0.26745,
				"method": "rhf"
			},
			{
				"type": "occ",
				"energy": -0.2519,
				"method": "rhf"
			},
			{
				"type": "occ",
				"energy": -0.24978,
				"method": "rhf"
			},
			{
				"type": "unocc",
				"energy": -0.05231,
				"method": "rhf"
			},
			{
				"type": "unocc",
				"energy": -0.03947,
				"method": "rhf"
			},
			{
				"type": "unocc",
				"energy": -0.01752,
				"method": "rhf"
			},
			{
				"type": "unocc",
				"energy": -0.01299,
				"method": "rhf"
			},
			{
				"type": "unocc",
				"energy": 0.04533,
				"method": "rhf"
			}
		],
		"cosmo_sigma_profile": { 
			"-0.025": 0.0,
			"-0.024": 0.0,
			"-0.023": 0.0,
			"-0.022": 0.0,
			"-0.021": 0.0,
			"-0.02": 0.0357386186129,
			"-0.019": 0.797941716913,
			"-0.018": 0.705830996282,
			"-0.017": 1.30226133558,
			"-0.016": 0.916711567663,
			"-0.015": 0.939453582854,
			"-0.014": 1.02332473254,
			"-0.013": 1.14546791158,
			"-0.012": 1.05149578374,
			"-0.011": 2.01477575407,
			"-0.01": 1.3807695922,
			"-0.009": 1.65813705913,
			"-0.008": 2.6990274936,
			"-0.007": 6.53821052895,
			"-0.006": 10.5652657715,
			"-0.005": 13.4592335646,
			"-0.004": 16.6757617335,
			"-0.003": 28.2575190604,
			"-0.002": 33.5361577774,
			"-0.001": 34.2229902006,
			"0.0": 33.4154792929,
			"0.001": 34.7291700044,
			"0.002": 18.6267217913,
			"0.003": 13.8832975404,
			"0.004": 11.4045602651,
			"0.005": 7.49987677143,
			"0.006": 4.83732442907,
			"0.007": 4.51904921789,
			"0.008": 4.55051470967,
			"0.009": 4.36242498806,
			"0.01": 7.8696627262,
			"0.011": 7.14806485898,
			"0.012": 5.46341207244,
			"0.013": 2.66366065161,
			"0.014": 1.13821925676,
			"0.015": 0.760877514955,
			"0.016": 0.11782301922,
			"0.017": 0.0,
			"0.018": 0.0,
			"0.019": 0.0,
			"0.02": 0.0,
			"0.021": 0.0,
			"0.022": 0.0,
			"0.023": 0.0,
			"0.024": 0.0,
			"0.025": 0.0
		}
	}
}
