{
	 "smiles": "CC(O)CNC(=O)C1=CC(O)=CC=C1", 
	 "Tm": 390.15, 
	 "num_atms": 27, 
	 "gaussian": { 
		 "optdone": 1, 
		 "sigma_profile": "yes", 
		 "theory": "DFT", 
		 "functional": "B3LYP", 
		 "basiset": "6-31G**", 
		 "properties": { 
			 "R2extent": 4154.7173, 
			 "electric_dipole_moment_norm": 4.06786205518, 
			 "electric_quadrupole_moment_norm": 14.9192142119, 
			 "total_energy": -669.340158648, 
			 "HOMO_LUMO_gap": 0.19043, 
			 "cosmo_polarized_energy": -18.38, 
			 "cosmo_cavitation_energy": 30.14, 
			 "cosmo_dispersion_energy": -22.02, 
			 "cosmo_repulsion_energy": 1.74, 
			 "cosmo_total_nonelectrostatic_energy": 9.86, 
			 "SMD_solvation_energy": 5.39 
		},
		"coords": [
			{
				"x": 1.3954121465,
				"y": 1.8236512746,
				"z": 2.5455863312,
				"element": "C" 
			},
			{
				"x": 0.4962493292,
				"y": 2.81774483,
				"z": 1.8025887934,
				"element": "C" 
			},
			{
				"x": -0.8700282585,
				"y": 2.4712940244,
				"z": 1.9086164442,
				"element": "O" 
			},
			{
				"x": 0.9281500564,
				"y": 3.0390338469,
				"z": 0.3346981561,
				"element": "C" 
			},
			{
				"x": 1.2301574478,
				"y": 1.8341764607,
				"z": -0.4447684953,
				"element": "N" 
			},
			{
				"x": 0.2928826115,
				"y": 0.9300368344,
				"z": -0.8337940054,
				"element": "C" 
			},
			{
				"x": -0.8801226622,
				"y": 0.9818845523,
				"z": -0.4416568555,
				"element": "O" 
			},
			{
				"x": 0.7483905937,
				"y": -0.1592129948,
				"z": -1.7609804732,
				"element": "C" 
			},
			{
				"x": -0.0321368181,
				"y": -1.3204552601,
				"z": -1.7980759704,
				"element": "C" 
			},
			{
				"x": 0.3259649815,
				"y": -2.3808788663,
				"z": -2.631180989,
				"element": "C" 
			},
			{
				"x": -0.3924831504,
				"y": -3.5373918366,
				"z": -2.7005858094,
				"element": "O" 
			},
			{
				"x": 1.4657745254,
				"y": -2.2821602952,
				"z": -3.4406034684,
				"element": "C" 
			},
			{
				"x": 2.2289353299,
				"y": -1.1185884047,
				"z": -3.4137786337,
				"element": "C" 
			},
			{
				"x": 1.8800361054,
				"y": -0.0533780028,
				"z": -2.5804011058,
				"element": "C" 
			},
			{
				"x": 1.0637234681,
				"y": 1.7405970714,
				"z": 3.5835728893,
				"element": "H" 
			},
			{
				"x": 2.4450402353,
				"y": 2.1430049988,
				"z": 2.5418766039,
				"element": "H" 
			},
			{
				"x": 1.3367686571,
				"y": 0.8293287283,
				"z": 2.09154031,
				"element": "H" 
			},
			{
				"x": 0.5950568218,
				"y": 3.8002135886,
				"z": 2.2875158884,
				"element": "H" 
			},
			{
				"x": -1.0730439002,
				"y": 1.8675847149,
				"z": 1.16826188,
				"element": "H" 
			},
			{
				"x": 0.1287359983,
				"y": 3.5932833692,
				"z": -0.1689090305,
				"element": "H" 
			},
			{
				"x": 1.8329562361,
				"y": 3.6537265794,
				"z": 0.3081338714,
				"element": "H" 
			},
			{
				"x": 2.1937562177,
				"y": 1.6405921761,
				"z": -0.6670992524,
				"element": "H" 
			},
			{
				"x": -0.9178031915,
				"y": -1.3673034722,
				"z": -1.1704559219,
				"element": "H" 
			},
			{
				"x": -1.1550613821,
				"y": -3.4741468966,
				"z": -2.1104041787,
				"element": "H" 
			},
			{
				"x": 1.7264997503,
				"y": -3.1165216615,
				"z": -4.0831478288,
				"element": "H" 
			},
			{
				"x": 3.1002297946,
				"y": -1.0369251426,
				"z": -4.0567867457,
				"element": "H" 
			},
			{
				"x": 2.4639590564,
				"y": 0.8612097834,
				"z": -2.609262404,
				"element": "H" 
			}
		],
		 "valence_orbital": [ 
			{
				"type": "occ",
				"energy": -0.27572,
				"method": "rhf"
			},
			{
				"type": "occ",
				"energy": -0.2641,
				"method": "rhf"
			},
			{
				"type": "occ",
				"energy": -0.25681,
				"method": "rhf"
			},
			{
				"type": "occ",
				"energy": -0.24213,
				"method": "rhf"
			},
			{
				"type": "occ",
				"energy": -0.23596,
				"method": "rhf"
			},
			{
				"type": "unocc",
				"energy": -0.04553,
				"method": "rhf"
			},
			{
				"type": "unocc",
				"energy": -0.00666,
				"method": "rhf"
			},
			{
				"type": "unocc",
				"energy": 0.05123,
				"method": "rhf"
			},
			{
				"type": "unocc",
				"energy": 0.062,
				"method": "rhf"
			},
			{
				"type": "unocc",
				"energy": 0.06664,
				"method": "rhf"
			}
		],
		"cosmo_sigma_profile": { 
			"-0.025": 0.0,
			"-0.024": 0.0,
			"-0.023": 0.0,
			"-0.022": 0.0,
			"-0.021": 0.0,
			"-0.02": 0.0,
			"-0.019": 0.0293152294253,
			"-0.018": 0.784763946077,
			"-0.017": 1.0233421313,
			"-0.016": 1.03544677891,
			"-0.015": 1.4499140677,
			"-0.014": 2.05928269499,
			"-0.013": 1.93464471857,
			"-0.012": 1.54092218315,
			"-0.011": 2.92185813088,
			"-0.01": 2.66542160215,
			"-0.009": 2.98939161668,
			"-0.008": 2.68140915161,
			"-0.007": 4.00929050403,
			"-0.006": 9.11743750373,
			"-0.005": 11.6952949099,
			"-0.004": 16.0893159304,
			"-0.003": 17.8146866147,
			"-0.002": 18.500311365,
			"-0.001": 16.514463994,
			"0.0": 16.1779302715,
			"0.001": 17.2693556389,
			"0.002": 14.0246636675,
			"0.003": 15.2412996563,
			"0.004": 16.3557066784,
			"0.005": 7.6760522997,
			"0.006": 3.84033489113,
			"0.007": 4.11545629644,
			"0.008": 3.59529067532,
			"0.009": 4.96948020907,
			"0.01": 4.39758164865,
			"0.011": 3.96659314792,
			"0.012": 3.3191241659,
			"0.013": 2.66675855283,
			"0.014": 1.92900520385,
			"0.015": 1.97318408917,
			"0.016": 1.22727698321,
			"0.017": 0.0,
			"0.018": 0.0,
			"0.019": 0.0,
			"0.02": 0.0,
			"0.021": 0.0,
			"0.022": 0.0,
			"0.023": 0.0,
			"0.024": 0.0,
			"0.025": 0.0
		}
	}
}
