{
	 "smiles": "CC1CC=CC1=NNC1=CC=C(C=C1[N+]([O-])=O)[N+]([O-])=O", 
	 "Tm": 453.15, 
	 "num_atms": 32, 
	 "gaussian": { 
		 "optdone": 1, 
		 "sigma_profile": "yes", 
		 "theory": "DFT", 
		 "functional": "B3LYP", 
		 "basiset": "6-31G**", 
		 "properties": { 
			 "R2extent": 8639.2887, 
			 "electric_dipole_moment_norm": 9.17566294608, 
			 "electric_quadrupole_moment_norm": 14.303666322, 
			 "total_energy": -984.175894026, 
			 "HOMO_LUMO_gap": 0.12345, 
			 "cosmo_polarized_energy": -14.83, 
			 "cosmo_cavitation_energy": 37.58, 
			 "cosmo_dispersion_energy": -26.92, 
			 "cosmo_repulsion_energy": 2.05, 
			 "cosmo_total_nonelectrostatic_energy": 12.71, 
			 "SMD_solvation_energy": 9.92 
		},
		"coords": [
			{
				"x": -1.2634883034,
				"y": 0.769370874,
				"z": -3.6460536706,
				"element": "C" 
			},
			{
				"x": -1.4833535625,
				"y": 1.9711344516,
				"z": -2.718240737,
				"element": "C" 
			},
			{
				"x": -1.4836391352,
				"y": 3.3440502796,
				"z": -3.4483457324,
				"element": "C" 
			},
			{
				"x": -0.4445400658,
				"y": 4.1572644489,
				"z": -2.7252140356,
				"element": "C" 
			},
			{
				"x": 0.1630579985,
				"y": 3.4710464528,
				"z": -1.7406519104,
				"element": "C" 
			},
			{
				"x": -0.3877114642,
				"y": 2.1168053087,
				"z": -1.6621287208,
				"element": "C" 
			},
			{
				"x": -0.0954285106,
				"y": 1.126009278,
				"z": -0.8885574926,
				"element": "N" 
			},
			{
				"x": 0.8957570139,
				"y": 1.3221890162,
				"z": 0.0330150215,
				"element": "N" 
			},
			{
				"x": 1.2509410194,
				"y": 0.3356341314,
				"z": 0.892561911,
				"element": "C" 
			},
			{
				"x": 0.5903437598,
				"y": -0.9245782867,
				"z": 0.8597372995,
				"element": "C" 
			},
			{
				"x": 0.9361887842,
				"y": -1.9369087682,
				"z": 1.7230604681,
				"element": "C" 
			},
			{
				"x": 1.9627450156,
				"y": -1.7350850734,
				"z": 2.6638503256,
				"element": "C" 
			},
			{
				"x": 2.6341651425,
				"y": -0.5307055376,
				"z": 2.7372634505,
				"element": "C" 
			},
			{
				"x": 2.2898040865,
				"y": 0.5033340039,
				"z": 1.8640730574,
				"element": "C" 
			},
			{
				"x": 3.0376649997,
				"y": 1.7389281151,
				"z": 1.9995361946,
				"element": "N" 
			},
			{
				"x": 2.7635414798,
				"y": 2.691841905,
				"z": 1.2390428849,
				"element": "O" 
			},
			{
				"x": 3.9147067098,
				"y": 1.8078530319,
				"z": 2.8562852729,
				"element": "O" 
			},
			{
				"x": 2.3258050715,
				"y": -2.8125763942,
				"z": 3.5777911961,
				"element": "N" 
			},
			{
				"x": 3.2287961586,
				"y": -2.6013824451,
				"z": 4.3887228181,
				"element": "O" 
			},
			{
				"x": 1.7026437149,
				"y": -3.8725104219,
				"z": 3.4804157833,
				"element": "O" 
			},
			{
				"x": -2.0832647795,
				"y": 0.6793237223,
				"z": -4.3660622335,
				"element": "H" 
			},
			{
				"x": -1.2070258531,
				"y": -0.1558796144,
				"z": -3.0670326726,
				"element": "H" 
			},
			{
				"x": -0.3281439757,
				"y": 0.8752040801,
				"z": -4.2062305547,
				"element": "H" 
			},
			{
				"x": -2.4378454647,
				"y": 1.8345336585,
				"z": -2.1950885841,
				"element": "H" 
			},
			{
				"x": -1.2252311842,
				"y": 3.2403387233,
				"z": -4.5112777629,
				"element": "H" 
			},
			{
				"x": -2.4651663538,
				"y": 3.8336723256,
				"z": -3.4227024923,
				"element": "H" 
			},
			{
				"x": -0.2159526203,
				"y": 5.1850201368,
				"z": -2.9905540532,
				"element": "H" 
			},
			{
				"x": 0.9463380343,
				"y": 3.8701228184,
				"z": -1.1055489373,
				"element": "H" 
			},
			{
				"x": 1.4162873696,
				"y": 2.1932734017,
				"z": 0.1181121109,
				"element": "H" 
			},
			{
				"x": -0.1956032812,
				"y": -1.0556493545,
				"z": 0.1287587861,
				"element": "H" 
			},
			{
				"x": 0.4311380095,
				"y": -2.8945554299,
				"z": 1.6949334515,
				"element": "H" 
			},
			{
				"x": 3.4221701863,
				"y": -0.3798188382,
				"z": 3.4620295584,
				"element": "H" 
			}
		],
		 "valence_orbital": [ 
			{
				"type": "occ",
				"energy": -0.29427,
				"method": "rhf"
			},
			{
				"type": "occ",
				"energy": -0.28944,
				"method": "rhf"
			},
			{
				"type": "occ",
				"energy": -0.28631,
				"method": "rhf"
			},
			{
				"type": "occ",
				"energy": -0.28518,
				"method": "rhf"
			},
			{
				"type": "occ",
				"energy": -0.22377,
				"method": "rhf"
			},
			{
				"type": "unocc",
				"energy": -0.10032,
				"method": "rhf"
			},
			{
				"type": "unocc",
				"energy": -0.0866,
				"method": "rhf"
			},
			{
				"type": "unocc",
				"energy": -0.05516,
				"method": "rhf"
			},
			{
				"type": "unocc",
				"energy": -0.01401,
				"method": "rhf"
			},
			{
				"type": "unocc",
				"energy": 0.01228,
				"method": "rhf"
			}
		],
		"cosmo_sigma_profile": { 
			"-0.025": 0.0,
			"-0.024": 0.0,
			"-0.023": 0.0,
			"-0.022": 0.0,
			"-0.021": 0.0,
			"-0.02": 0.0,
			"-0.019": 0.0,
			"-0.018": 0.0,
			"-0.017": 0.0,
			"-0.016": 0.0,
			"-0.015": 0.0,
			"-0.014": 0.0,
			"-0.013": 0.0,
			"-0.012": 0.0,
			"-0.011": 0.0,
			"-0.01": 0.337992151051,
			"-0.009": 1.08990450267,
			"-0.008": 3.43232278512,
			"-0.007": 8.04433394857,
			"-0.006": 11.9060359497,
			"-0.005": 17.8394329395,
			"-0.004": 25.0931134332,
			"-0.003": 32.4682130902,
			"-0.002": 36.3834758619,
			"-0.001": 30.0730571243,
			"0.0": 23.9099305262,
			"0.001": 20.4912385283,
			"0.002": 12.1039808786,
			"0.003": 9.48790893442,
			"0.004": 7.28873309437,
			"0.005": 8.6761694317,
			"0.006": 7.78053439275,
			"0.007": 12.6309095622,
			"0.008": 14.8720727686,
			"0.009": 8.98606557196,
			"0.01": 6.70363800065,
			"0.011": 0.956327646004,
			"0.012": 0.0,
			"0.013": 0.0,
			"0.014": 0.0,
			"0.015": 0.0,
			"0.016": 0.0,
			"0.017": 0.0,
			"0.018": 0.0,
			"0.019": 0.0,
			"0.02": 0.0,
			"0.021": 0.0,
			"0.022": 0.0,
			"0.023": 0.0,
			"0.024": 0.0,
			"0.025": 0.0
		}
	}
}
