{
	 "smiles": "OC(=O)C=CC1=CC(F)=CC=C1", 
	 "Tm": 440.15, 
	 "num_atms": 19, 
	 "gaussian": { 
		 "optdone": 1, 
		 "sigma_profile": "yes", 
		 "theory": "DFT", 
		 "functional": "B3LYP", 
		 "basiset": "6-31G**", 
		 "properties": { 
			 "R2extent": 3471.5931, 
			 "electric_dipole_moment_norm": 5.17213456321, 
			 "electric_quadrupole_moment_norm": 10.8632594367, 
			 "total_energy": -597.4510667, 
			 "HOMO_LUMO_gap": 0.16973, 
			 "cosmo_polarized_energy": -16.1, 
			 "cosmo_cavitation_energy": 25.0, 
			 "cosmo_dispersion_energy": -18.06, 
			 "cosmo_repulsion_energy": 1.41, 
			 "cosmo_total_nonelectrostatic_energy": 8.35, 
			 "SMD_solvation_energy": 6.17 
		},
		"coords": [
			{
				"x": -2.0433580025,
				"y": -2.1259846921,
				"z": 2.2255501935,
				"element": "O" 
			},
			{
				"x": -1.7068140577,
				"y": -2.1334963036,
				"z": 0.9051660538,
				"element": "C" 
			},
			{
				"x": -2.1706752377,
				"y": -2.9775005646,
				"z": 0.1723319546,
				"element": "O" 
			},
			{
				"x": -0.7674059372,
				"y": -1.065668186,
				"z": 0.4728237252,
				"element": "C" 
			},
			{
				"x": -0.3832582092,
				"y": -1.001074066,
				"z": -0.8145297219,
				"element": "C" 
			},
			{
				"x": 0.5249195413,
				"y": -0.037434216,
				"z": -1.4377004146,
				"element": "C" 
			},
			{
				"x": 0.7821445314,
				"y": -0.1668182088,
				"z": -2.8140049861,
				"element": "C" 
			},
			{
				"x": 1.6383712487,
				"y": 0.7288903457,
				"z": -3.4397175386,
				"element": "C" 
			},
			{
				"x": 1.8729996836,
				"y": 0.5892997213,
				"z": -4.7594748158,
				"element": "F" 
			},
			{
				"x": 2.2598666934,
				"y": 1.7627599862,
				"z": -2.749786824,
				"element": "C" 
			},
			{
				"x": 2.0046030111,
				"y": 1.8920705113,
				"z": -1.3813192282,
				"element": "C" 
			},
			{
				"x": 1.1506318239,
				"y": 1.0078252582,
				"z": -0.7299277292,
				"element": "C" 
			},
			{
				"x": -1.5989284168,
				"y": -1.3994796812,
				"z": 2.6836862078,
				"element": "H" 
			},
			{
				"x": -0.4078147388,
				"y": -0.3535936941,
				"z": 1.2127490441,
				"element": "H" 
			},
			{
				"x": -0.802456458,
				"y": -1.7621351323,
				"z": -1.470883334,
				"element": "H" 
			},
			{
				"x": 0.3210215241,
				"y": -0.9575586273,
				"z": -3.3966232301,
				"element": "H" 
			},
			{
				"x": 2.9217697966,
				"y": 2.4405268497,
				"z": -3.2774189399,
				"element": "H" 
			},
			{
				"x": 2.4800909901,
				"y": 2.6930802786,
				"z": -0.8236307496,
				"element": "H" 
			},
			{
				"x": 0.9691922137,
				"y": 1.129890421,
				"z": 0.3326103331,
				"element": "H" 
			}
		],
		 "valence_orbital": [ 
			{
				"type": "occ",
				"energy": -0.32469,
				"method": "rhf"
			},
			{
				"type": "occ",
				"energy": -0.30744,
				"method": "rhf"
			},
			{
				"type": "occ",
				"energy": -0.27267,
				"method": "rhf"
			},
			{
				"type": "occ",
				"energy": -0.26591,
				"method": "rhf"
			},
			{
				"type": "occ",
				"energy": -0.24779,
				"method": "rhf"
			},
			{
				"type": "unocc",
				"energy": -0.07806,
				"method": "rhf"
			},
			{
				"type": "unocc",
				"energy": -0.01827,
				"method": "rhf"
			},
			{
				"type": "unocc",
				"energy": 0.01302,
				"method": "rhf"
			},
			{
				"type": "unocc",
				"energy": 0.05405,
				"method": "rhf"
			},
			{
				"type": "unocc",
				"energy": 0.07553,
				"method": "rhf"
			}
		],
		"cosmo_sigma_profile": { 
			"-0.025": 0.0,
			"-0.024": 0.0,
			"-0.023": 0.0,
			"-0.022": 0.0,
			"-0.021": 0.0,
			"-0.02": 0.0,
			"-0.019": 0.854057646939,
			"-0.018": 1.23514349715,
			"-0.017": 1.24157321861,
			"-0.016": 1.43556179597,
			"-0.015": 0.588380779399,
			"-0.014": 0.83673552411,
			"-0.013": 0.945616561257,
			"-0.012": 1.13202376897,
			"-0.011": 1.5628591471,
			"-0.01": 1.39135520244,
			"-0.009": 2.72810218498,
			"-0.008": 4.59055150451,
			"-0.007": 10.0598896568,
			"-0.006": 9.2788349278,
			"-0.005": 10.0250360193,
			"-0.004": 7.96759266866,
			"-0.003": 7.91811029866,
			"-0.002": 8.37887736357,
			"-0.001": 10.9703302062,
			"0.0": 14.6519662963,
			"0.001": 18.5867462031,
			"0.002": 20.2066478092,
			"0.003": 17.441045082,
			"0.004": 13.8875981871,
			"0.005": 4.65354436411,
			"0.006": 2.0750323568,
			"0.007": 2.11335274086,
			"0.008": 2.95289120981,
			"0.009": 2.70168935158,
			"0.01": 4.07523012602,
			"0.011": 5.25250332475,
			"0.012": 5.717663135,
			"0.013": 2.80262060895,
			"0.014": 0.548149057004,
			"0.015": 0.0,
			"0.016": 0.0,
			"0.017": 0.0,
			"0.018": 0.0,
			"0.019": 0.0,
			"0.02": 0.0,
			"0.021": 0.0,
			"0.022": 0.0,
			"0.023": 0.0,
			"0.024": 0.0,
			"0.025": 0.0
		}
	}
}
