{
	 "smiles": "CC1=C(C=CC=C1)C1=NN=C(CCl)O1", 
	 "Tm": 373.15, 
	 "num_atms": 23, 
	 "gaussian": { 
		 "optdone": 1, 
		 "sigma_profile": "yes", 
		 "theory": "DFT", 
		 "functional": "B3LYP", 
		 "basiset": "6-31G**", 
		 "properties": { 
			 "R2extent": 4266.4456, 
			 "electric_dipole_moment_norm": 3.11194737263, 
			 "electric_quadrupole_moment_norm": 9.88751604297, 
			 "total_energy": -1031.38892895, 
			 "HOMO_LUMO_gap": 0.18353, 
			 "cosmo_polarized_energy": -10.5, 
			 "cosmo_cavitation_energy": 29.31, 
			 "cosmo_dispersion_energy": -21.64, 
			 "cosmo_repulsion_energy": 1.71, 
			 "cosmo_total_nonelectrostatic_energy": 9.38, 
			 "SMD_solvation_energy": 3.36 
		},
		"coords": [
			{
				"x": -1.4896097107,
				"y": 2.3521687636,
				"z": -0.9370039177,
				"element": "C" 
			},
			{
				"x": -0.7083196233,
				"y": 2.375867598,
				"z": 0.3525995515,
				"element": "C" 
			},
			{
				"x": 0.3656688633,
				"y": 1.4913629201,
				"z": 0.6284325849,
				"element": "C" 
			},
			{
				"x": 1.0484516002,
				"y": 1.5706996043,
				"z": 1.856730765,
				"element": "C" 
			},
			{
				"x": 0.6883686439,
				"y": 2.5100078092,
				"z": 2.8153216286,
				"element": "C" 
			},
			{
				"x": -0.3656267863,
				"y": 3.3860490582,
				"z": 2.5542874418,
				"element": "C" 
			},
			{
				"x": -1.0452713928,
				"y": 3.3106328421,
				"z": 1.3396386787,
				"element": "C" 
			},
			{
				"x": 0.7978605814,
				"y": 0.4803246912,
				"z": -0.3325927075,
				"element": "C" 
			},
			{
				"x": 0.3322816092,
				"y": 0.1786094623,
				"z": -1.5154482072,
				"element": "N" 
			},
			{
				"x": 1.1054292023,
				"y": -0.8689596337,
				"z": -2.0003530871,
				"element": "N" 
			},
			{
				"x": 1.9858986477,
				"y": -1.1263545929,
				"z": -1.0850594064,
				"element": "C" 
			},
			{
				"x": 3.0548947782,
				"y": -2.1471382112,
				"z": -1.1245518758,
				"element": "C" 
			},
			{
				"x": 2.7631184579,
				"y": -3.500899777,
				"z": 0.060286224,
				"element": "Cl" 
			},
			{
				"x": 1.8635945319,
				"y": -0.3175817507,
				"z": -0.0001061691,
				"element": "O" 
			},
			{
				"x": -0.8420638408,
				"y": 2.5098916456,
				"z": -1.8044160621,
				"element": "H" 
			},
			{
				"x": -1.967617288,
				"y": 1.3819371624,
				"z": -1.1005413968,
				"element": "H" 
			},
			{
				"x": -2.2598434884,
				"y": 3.1277466912,
				"z": -0.9256387697,
				"element": "H" 
			},
			{
				"x": 1.8644621833,
				"y": 0.8842237125,
				"z": 2.0523395544,
				"element": "H" 
			},
			{
				"x": 1.2255563172,
				"y": 2.5560545086,
				"z": 3.7574907359,
				"element": "H" 
			},
			{
				"x": -0.6595309726,
				"y": 4.1259180599,
				"z": 3.2931711083,
				"element": "H" 
			},
			{
				"x": -1.8654896779,
				"y": 3.9955150563,
				"z": 1.1431470266,
				"element": "H" 
			},
			{
				"x": 3.0833633449,
				"y": -2.5847424484,
				"z": -2.120704573,
				"element": "H" 
			},
			{
				"x": 4.0258240193,
				"y": -1.7227331715,
				"z": -0.8669291272,
				"element": "H" 
			}
		],
		 "valence_orbital": [ 
			{
				"type": "occ",
				"energy": -0.30998,
				"method": "rhf"
			},
			{
				"type": "occ",
				"energy": -0.30651,
				"method": "rhf"
			},
			{
				"type": "occ",
				"energy": -0.28309,
				"method": "rhf"
			},
			{
				"type": "occ",
				"energy": -0.25728,
				"method": "rhf"
			},
			{
				"type": "occ",
				"energy": -0.24416,
				"method": "rhf"
			},
			{
				"type": "unocc",
				"energy": -0.06063,
				"method": "rhf"
			},
			{
				"type": "unocc",
				"energy": -0.02321,
				"method": "rhf"
			},
			{
				"type": "unocc",
				"energy": -0.01037,
				"method": "rhf"
			},
			{
				"type": "unocc",
				"energy": 0.03998,
				"method": "rhf"
			},
			{
				"type": "unocc",
				"energy": 0.05449,
				"method": "rhf"
			}
		],
		"cosmo_sigma_profile": { 
			"-0.025": 0.0,
			"-0.024": 0.0,
			"-0.023": 0.0,
			"-0.022": 0.0,
			"-0.021": 0.0,
			"-0.02": 0.0,
			"-0.019": 0.0,
			"-0.018": 0.0,
			"-0.017": 0.0,
			"-0.016": 0.0,
			"-0.015": 0.0,
			"-0.014": 0.0,
			"-0.013": 0.0,
			"-0.012": 0.0,
			"-0.011": 0.0929667738728,
			"-0.01": 3.27131568902,
			"-0.009": 3.871027276,
			"-0.008": 3.86625763568,
			"-0.007": 5.46447339468,
			"-0.006": 12.4598903387,
			"-0.005": 14.4152978593,
			"-0.004": 15.58383867,
			"-0.003": 14.6636478707,
			"-0.002": 17.2493528036,
			"-0.001": 21.201028585,
			"0.0": 21.4075424234,
			"0.001": 17.6472698371,
			"0.002": 15.7792657034,
			"0.003": 16.5519965023,
			"0.004": 18.4742649816,
			"0.005": 12.7859229031,
			"0.006": 5.19496241711,
			"0.007": 1.7684910484,
			"0.008": 2.1849215924,
			"0.009": 2.38564368036,
			"0.01": 2.81981004913,
			"0.011": 2.81143421448,
			"0.012": 2.63364129254,
			"0.013": 1.49699232324,
			"0.014": 0.956429979747,
			"0.015": 0.177167158086,
			"0.016": 0.0,
			"0.017": 0.0,
			"0.018": 0.0,
			"0.019": 0.0,
			"0.02": 0.0,
			"0.021": 0.0,
			"0.022": 0.0,
			"0.023": 0.0,
			"0.024": 0.0,
			"0.025": 0.0
		}
	}
}
