{
	 "smiles": "CC12CC(C([C@H](O1)C1=C(N2)C=CC=C1)[N+]([O-])=O)C1=CC=CC=C1", 
	 "Tm": 467.15, 
	 "num_atms": 41, 
	 "gaussian": { 
		 "optdone": 1, 
		 "sigma_profile": "yes", 
		 "theory": "DFT", 
		 "functional": "B3LYP", 
		 "basiset": "6-31G**", 
		 "properties": { 
			 "R2extent": 6952.0231, 
			 "electric_dipole_moment_norm": 4.51106800436, 
			 "electric_quadrupole_moment_norm": 19.4239547485, 
			 "total_energy": -1031.84081449, 
			 "HOMO_LUMO_gap": 0.13703, 
			 "cosmo_polarized_energy": -14.65, 
			 "cosmo_cavitation_energy": 41.38, 
			 "cosmo_dispersion_energy": -28.31, 
			 "cosmo_repulsion_energy": 2.12, 
			 "cosmo_total_nonelectrostatic_energy": 15.19, 
			 "SMD_solvation_energy": 7.56 
		},
		"coords": [
			{
				"x": -2.7582703748,
				"y": -2.3646952408,
				"z": 1.6498360931,
				"element": "C" 
			},
			{
				"x": -1.9799757062,
				"y": -1.0988264687,
				"z": 1.3007471824,
				"element": "C" 
			},
			{
				"x": -1.9461013529,
				"y": -0.1232458053,
				"z": 2.4920453401,
				"element": "C" 
			},
			{
				"x": -1.3987219187,
				"y": 1.2954983045,
				"z": 2.1646816402,
				"element": "C" 
			},
			{
				"x": -1.8862557569,
				"y": 1.7645367779,
				"z": 0.7812083398,
				"element": "C" 
			},
			{
				"x": -2.0076897611,
				"y": 0.6522482419,
				"z": -0.298475129,
				"element": "C" 
			},
			{
				"x": -2.6995862809,
				"y": -0.4773040708,
				"z": 0.2333135252,
				"element": "O" 
			},
			{
				"x": -0.6858681973,
				"y": 0.2116711663,
				"z": -0.8746353736,
				"element": "C" 
			},
			{
				"x": -0.064396948,
				"y": -0.9014233961,
				"z": -0.2772232593,
				"element": "C" 
			},
			{
				"x": -0.6283156006,
				"y": -1.4689727017,
				"z": 0.8549152434,
				"element": "N" 
			},
			{
				"x": 1.1302014153,
				"y": -1.3952915485,
				"z": -0.8302143896,
				"element": "C" 
			},
			{
				"x": 1.696452888,
				"y": -0.7761252308,
				"z": -1.9397466135,
				"element": "C" 
			},
			{
				"x": 1.0846346045,
				"y": 0.3344494852,
				"z": -2.5314382125,
				"element": "C" 
			},
			{
				"x": -0.1124155948,
				"y": 0.8109355358,
				"z": -1.9976815041,
				"element": "C" 
			},
			{
				"x": -3.2772636961,
				"y": 2.4130902971,
				"z": 0.8841304665,
				"element": "N" 
			},
			{
				"x": -3.9121647353,
				"y": 2.326938023,
				"z": 1.92954644,
				"element": "O" 
			},
			{
				"x": -3.6675994604,
				"y": 2.984383772,
				"z": -0.1301504219,
				"element": "O" 
			},
			{
				"x": 0.0993787628,
				"y": 1.4722236289,
				"z": 2.4363162386,
				"element": "C" 
			},
			{
				"x": 1.0622688845,
				"y": 1.8049873869,
				"z": 1.4770520162,
				"element": "C" 
			},
			{
				"x": 2.4010035236,
				"y": 1.991503893,
				"z": 1.8367019776,
				"element": "C" 
			},
			{
				"x": 2.8048510662,
				"y": 1.853106335,
				"z": 3.1621891995,
				"element": "C" 
			},
			{
				"x": 1.8537327762,
				"y": 1.5310960405,
				"z": 4.1336209181,
				"element": "C" 
			},
			{
				"x": 0.5214852557,
				"y": 1.3495182236,
				"z": 3.7719281877,
				"element": "C" 
			},
			{
				"x": -2.2607096411,
				"y": -2.9107488017,
				"z": 2.4580267807,
				"element": "H" 
			},
			{
				"x": -2.8294806541,
				"y": -3.0079941093,
				"z": 0.7687466516,
				"element": "H" 
			},
			{
				"x": -3.7680129548,
				"y": -2.1079364728,
				"z": 1.9766606562,
				"element": "H" 
			},
			{
				"x": -1.3626964584,
				"y": -0.5654257213,
				"z": 3.3039419977,
				"element": "H" 
			},
			{
				"x": -2.977773226,
				"y": -0.0109973761,
				"z": 2.8385825492,
				"element": "H" 
			},
			{
				"x": -1.8947422333,
				"y": 1.9608588395,
				"z": 2.8777204118,
				"element": "H" 
			},
			{
				"x": -1.2765356734,
				"y": 2.577818257,
				"z": 0.384402703,
				"element": "H" 
			},
			{
				"x": -2.645931283,
				"y": 1.0434452339,
				"z": -1.0940201518,
				"element": "H" 
			},
			{
				"x": -0.3572152493,
				"y": -2.4231205849,
				"z": 1.0443131218,
				"element": "H" 
			},
			{
				"x": 1.6134719488,
				"y": -2.2566882944,
				"z": -0.3757648015,
				"element": "H" 
			},
			{
				"x": 2.6230882727,
				"y": -1.1677026865,
				"z": -2.3500816363,
				"element": "H" 
			},
			{
				"x": 1.5247706951,
				"y": 0.8081846548,
				"z": -3.4028454653,
				"element": "H" 
			},
			{
				"x": -0.618158822,
				"y": 1.6552126831,
				"z": -2.4617501027,
				"element": "H" 
			},
			{
				"x": 0.7922767305,
				"y": 1.9057835789,
				"z": 0.4327994773,
				"element": "H" 
			},
			{
				"x": 3.1263637384,
				"y": 2.2429622855,
				"z": 1.0681631989,
				"element": "H" 
			},
			{
				"x": 3.8449981066,
				"y": 1.9989511765,
				"z": 3.4387765174,
				"element": "H" 
			},
			{
				"x": 2.1473332822,
				"y": 1.4315752407,
				"z": 5.1749417272,
				"element": "H" 
			},
			{
				"x": -0.2098303718,
				"y": 1.1189194481,
				"z": 4.5433184598,
				"element": "H" 
			}
		],
		 "valence_orbital": [ 
			{
				"type": "occ",
				"energy": -0.27437,
				"method": "rhf"
			},
			{
				"type": "occ",
				"energy": -0.25088,
				"method": "rhf"
			},
			{
				"type": "occ",
				"energy": -0.24958,
				"method": "rhf"
			},
			{
				"type": "occ",
				"energy": -0.24078,
				"method": "rhf"
			},
			{
				"type": "occ",
				"energy": -0.20368,
				"method": "rhf"
			},
			{
				"type": "unocc",
				"energy": -0.06665,
				"method": "rhf"
			},
			{
				"type": "unocc",
				"energy": -0.00997,
				"method": "rhf"
			},
			{
				"type": "unocc",
				"energy": -0.00339,
				"method": "rhf"
			},
			{
				"type": "unocc",
				"energy": -0.00107,
				"method": "rhf"
			},
			{
				"type": "unocc",
				"energy": 0.01178,
				"method": "rhf"
			}
		],
		"cosmo_sigma_profile": { 
			"-0.025": 0.0,
			"-0.024": 0.0,
			"-0.023": 0.0,
			"-0.022": 0.0,
			"-0.021": 0.0,
			"-0.02": 0.0,
			"-0.019": 0.0,
			"-0.018": 0.0,
			"-0.017": 0.0,
			"-0.016": 0.0,
			"-0.015": 0.0,
			"-0.014": 0.00987237520004,
			"-0.013": 0.674155135493,
			"-0.012": 1.26987524162,
			"-0.011": 1.01868309939,
			"-0.01": 2.01842524704,
			"-0.009": 3.27986101447,
			"-0.008": 4.04568615961,
			"-0.007": 6.15649723656,
			"-0.006": 13.9959269125,
			"-0.005": 26.6018340467,
			"-0.004": 29.9140653207,
			"-0.003": 32.0376320611,
			"-0.002": 23.6264553147,
			"-0.001": 24.8180824405,
			"0.0": 18.1757847451,
			"0.001": 14.2466425925,
			"0.002": 17.4659194694,
			"0.003": 15.980484831,
			"0.004": 17.6757760518,
			"0.005": 20.6482849443,
			"0.006": 19.7875948194,
			"0.007": 13.6234511826,
			"0.008": 10.0478323597,
			"0.009": 5.90786980717,
			"0.01": 2.87538213852,
			"0.011": 1.26122427968,
			"0.012": 0.241775240203,
			"0.013": 0.0,
			"0.014": 0.0,
			"0.015": 0.0,
			"0.016": 0.0,
			"0.017": 0.0,
			"0.018": 0.0,
			"0.019": 0.0,
			"0.02": 0.0,
			"0.021": 0.0,
			"0.022": 0.0,
			"0.023": 0.0,
			"0.024": 0.0,
			"0.025": 0.0
		}
	}
}
