{
	 "smiles": "COC1OC(COC(C)=O)C(OC2OC(COC(C)=O)C(OC(C)=O)C(OC(C)=O)C2OC(C)=O)C(OC(C)=O)C1OC(C)=O", 
	 "Tm": 404.15, 
	 "num_atms": 83, 
	 "gaussian": { 
		 "optdone": 1, 
		 "sigma_profile": "yes", 
		 "theory": "DFT", 
		 "functional": "B3LYP", 
		 "basiset": "6-31G**", 
		 "properties": { 
			 "R2extent": 24344.8185, 
			 "electric_dipole_moment_norm": 4.4699436294, 
			 "electric_quadrupole_moment_norm": 13.7868237647, 
			 "total_energy": -2405.84649251, 
			 "HOMO_LUMO_gap": 0.2481, 
			 "cosmo_polarized_energy": -34.96, 
			 "cosmo_cavitation_energy": 83.44, 
			 "cosmo_dispersion_energy": -46.93, 
			 "cosmo_repulsion_energy": 3.56, 
			 "cosmo_total_nonelectrostatic_energy": 40.07, 
			 "SMD_solvation_energy": 20.51 
		},
		"coords": [
			{
				"x": 0.7205612811,
				"y": -3.4814546235,
				"z": 4.3775075849,
				"element": "C" 
			},
			{
				"x": 0.2099081034,
				"y": -2.1953736506,
				"z": 4.0459555297,
				"element": "O" 
			},
			{
				"x": 1.2001481239,
				"y": -1.1966214454,
				"z": 3.9668672507,
				"element": "C" 
			},
			{
				"x": 2.1202117851,
				"y": -1.4325804922,
				"z": 2.9262131233,
				"element": "O" 
			},
			{
				"x": 1.5895056173,
				"y": -1.4788334901,
				"z": 1.5880710951,
				"element": "C" 
			},
			{
				"x": 2.798512484,
				"y": -1.1103574058,
				"z": 0.7204534562,
				"element": "C" 
			},
			{
				"x": 2.6185235047,
				"y": -1.5908982543,
				"z": -0.6203163108,
				"element": "O" 
			},
			{
				"x": 2.7427368267,
				"y": -0.6997412355,
				"z": -1.6293348349,
				"element": "C" 
			},
			{
				"x": 2.4993073314,
				"y": -1.3569477007,
				"z": -2.9629783131,
				"element": "C" 
			},
			{
				"x": 3.0562152875,
				"y": 0.4650685012,
				"z": -1.4720019589,
				"element": "O" 
			},
			{
				"x": 0.3349657019,
				"y": -0.5778913472,
				"z": 1.4436226085,
				"element": "C" 
			},
			{
				"x": 0.1968448908,
				"y": -0.1777043485,
				"z": 0.0840143945,
				"element": "O" 
			},
			{
				"x": -1.0175618667,
				"y": -0.4371194796,
				"z": -0.5610119848,
				"element": "C" 
			},
			{
				"x": -0.6504298466,
				"y": -0.8891159093,
				"z": -1.8460246643,
				"element": "O" 
			},
			{
				"x": -1.7657513381,
				"y": -1.0609278634,
				"z": -2.7173629695,
				"element": "C" 
			},
			{
				"x": -1.2931062639,
				"y": -1.8276022735,
				"z": -3.9438700508,
				"element": "C" 
			},
			{
				"x": -0.7634451383,
				"y": -3.1250905411,
				"z": -3.611929,
				"element": "O" 
			},
			{
				"x": -1.6616879329,
				"y": -4.1214126255,
				"z": -3.4217310973,
				"element": "C" 
			},
			{
				"x": -0.9587737102,
				"y": -5.4199705875,
				"z": -3.1073736109,
				"element": "C" 
			},
			{
				"x": -2.8619070713,
				"y": -3.9711042869,
				"z": -3.5033366233,
				"element": "O" 
			},
			{
				"x": -2.3560246114,
				"y": 0.3091595713,
				"z": -3.118543217,
				"element": "C" 
			},
			{
				"x": -3.7920713349,
				"y": 0.1287300674,
				"z": -3.1391745967,
				"element": "O" 
			},
			{
				"x": -4.5031542267,
				"y": 0.9695243312,
				"z": -3.9352194831,
				"element": "C" 
			},
			{
				"x": -5.9687348491,
				"y": 0.6110826727,
				"z": -3.9078830048,
				"element": "C" 
			},
			{
				"x": -4.0067681334,
				"y": 1.8746597993,
				"z": -4.5683935874,
				"element": "O" 
			},
			{
				"x": -1.9974582412,
				"y": 1.397490515,
				"z": -2.0788357597,
				"element": "C" 
			},
			{
				"x": -0.782764814,
				"y": 2.1492665045,
				"z": -2.2797227157,
				"element": "O" 
			},
			{
				"x": 0.1894255654,
				"y": 1.9079749872,
				"z": -3.1899575576,
				"element": "C" 
			},
			{
				"x": 1.3299754378,
				"y": 2.8760793648,
				"z": -3.0018014182,
				"element": "C" 
			},
			{
				"x": 0.1668389489,
				"y": 1.0401507637,
				"z": -4.0386964505,
				"element": "O" 
			},
			{
				"x": -1.9134292363,
				"y": 0.8385139437,
				"z": -0.648393748,
				"element": "C" 
			},
			{
				"x": -3.2834156221,
				"y": 0.5367861219,
				"z": -0.2882084317,
				"element": "O" 
			},
			{
				"x": -3.5490060474,
				"y": 0.3234714963,
				"z": 1.0214522739,
				"element": "C" 
			},
			{
				"x": -5.0274500621,
				"y": 0.131557973,
				"z": 1.2482847267,
				"element": "C" 
			},
			{
				"x": -2.6970746036,
				"y": 0.3011698888,
				"z": 1.8847279811,
				"element": "O" 
			},
			{
				"x": 0.4017895622,
				"y": 0.6429978325,
				"z": 2.3671898768,
				"element": "C" 
			},
			{
				"x": 1.5758925934,
				"y": 1.4179669114,
				"z": 2.0612295823,
				"element": "O" 
			},
			{
				"x": 1.4092623265,
				"y": 2.5322227756,
				"z": 1.2947288989,
				"element": "C" 
			},
			{
				"x": 2.7499969474,
				"y": 3.1156444801,
				"z": 0.9294156225,
				"element": "C" 
			},
			{
				"x": 0.335289087,
				"y": 2.9687760593,
				"z": 0.9448048723,
				"element": "O" 
			},
			{
				"x": 0.4597491298,
				"y": 0.1476694911,
				"z": 3.8270813177,
				"element": "C" 
			},
			{
				"x": 1.1379719716,
				"y": 1.0821064,
				"z": 4.6825496932,
				"element": "O" 
			},
			{
				"x": 0.4110175828,
				"y": 2.1424904397,
				"z": 5.1251645676,
				"element": "C" 
			},
			{
				"x": 1.2585608707,
				"y": 3.0339373298,
				"z": 5.9998180141,
				"element": "C" 
			},
			{
				"x": -0.7511976202,
				"y": 2.3238294086,
				"z": 4.8437391661,
				"element": "O" 
			},
			{
				"x": 1.2175288235,
				"y": -3.4669659517,
				"z": 5.3582629894,
				"element": "H" 
			},
			{
				"x": 1.4353500779,
				"y": -3.8410362014,
				"z": 3.6286964065,
				"element": "H" 
			},
			{
				"x": -0.1350933757,
				"y": -4.1580010805,
				"z": 4.4204807142,
				"element": "H" 
			},
			{
				"x": 1.8165566795,
				"y": -1.1822304572,
				"z": 4.8753681335,
				"element": "H" 
			},
			{
				"x": 1.3001644645,
				"y": -2.5105950077,
				"z": 1.3453514023,
				"element": "H" 
			},
			{
				"x": 3.6656916426,
				"y": -1.6286625624,
				"z": 1.1404613983,
				"element": "H" 
			},
			{
				"x": 2.9843312639,
				"y": -0.0403770114,
				"z": 0.7171867882,
				"element": "H" 
			},
			{
				"x": 3.4240680901,
				"y": -1.8444009335,
				"z": -3.2922311955,
				"element": "H" 
			},
			{
				"x": 1.7170143576,
				"y": -2.1125671502,
				"z": -2.8832607898,
				"element": "H" 
			},
			{
				"x": 2.2163428292,
				"y": -0.5962195714,
				"z": -3.690305322,
				"element": "H" 
			},
			{
				"x": -0.5413351401,
				"y": -1.1545541387,
				"z": 1.757935867,
				"element": "H" 
			},
			{
				"x": -1.578658705,
				"y": -1.2270817933,
				"z": -0.0337323358,
				"element": "H" 
			},
			{
				"x": -2.5537444724,
				"y": -1.6346725289,
				"z": -2.2102376756,
				"element": "H" 
			},
			{
				"x": -2.1321336023,
				"y": -1.9389963516,
				"z": -4.6358650907,
				"element": "H" 
			},
			{
				"x": -0.4735759383,
				"y": -1.2880005454,
				"z": -4.4164214488,
				"element": "H" 
			},
			{
				"x": -1.6985557945,
				"y": -6.1993661491,
				"z": -2.9279428417,
				"element": "H" 
			},
			{
				"x": -0.3119666634,
				"y": -5.7054823689,
				"z": -3.9423782602,
				"element": "H" 
			},
			{
				"x": -0.3192763277,
				"y": -5.2973479883,
				"z": -2.2285250361,
				"element": "H" 
			},
			{
				"x": -2.0332487065,
				"y": 0.6299469089,
				"z": -4.1050580559,
				"element": "H" 
			},
			{
				"x": -6.3441019233,
				"y": 0.6524627164,
				"z": -2.8812593047,
				"element": "H" 
			},
			{
				"x": -6.1093915951,
				"y": -0.4135041451,
				"z": -4.2646186338,
				"element": "H" 
			},
			{
				"x": -6.5238370456,
				"y": 1.3056693431,
				"z": -4.5373649418,
				"element": "H" 
			},
			{
				"x": -2.7900540767,
				"y": 2.1482838619,
				"z": -2.1064880547,
				"element": "H" 
			},
			{
				"x": 2.1801515307,
				"y": 2.305249183,
				"z": -2.6143507337,
				"element": "H" 
			},
			{
				"x": 1.608990656,
				"y": 3.2876197225,
				"z": -3.9748089842,
				"element": "H" 
			},
			{
				"x": 1.0737454608,
				"y": 3.6727337788,
				"z": -2.3038607847,
				"element": "H" 
			},
			{
				"x": -1.5097174888,
				"y": 1.6039820416,
				"z": 0.01740219,
				"element": "H" 
			},
			{
				"x": -5.5435835786,
				"y": 1.0864326033,
				"z": 1.1051807688,
				"element": "H" 
			},
			{
				"x": -5.1953574542,
				"y": -0.2200426049,
				"z": 2.2656750904,
				"element": "H" 
			},
			{
				"x": -5.4371071509,
				"y": -0.5768162203,
				"z": 0.5238351503,
				"element": "H" 
			},
			{
				"x": -0.4784233628,
				"y": 1.2665438809,
				"z": 2.2285229034,
				"element": "H" 
			},
			{
				"x": 2.6200329276,
				"y": 4.1414685456,
				"z": 0.5844107589,
				"element": "H" 
			},
			{
				"x": 3.4392826437,
				"y": 3.0769291957,
				"z": 1.7759930362,
				"element": "H" 
			},
			{
				"x": 3.1728113226,
				"y": 2.5098622581,
				"z": 0.1199568836,
				"element": "H" 
			},
			{
				"x": -0.5672812312,
				"y": 0.0196994676,
				"z": 4.1765498098,
				"element": "H" 
			},
			{
				"x": 0.6481306302,
				"y": 3.8508566069,
				"z": 6.3828833282,
				"element": "H" 
			},
			{
				"x": 1.6829624933,
				"y": 2.459371738,
				"z": 6.8280483171,
				"element": "H" 
			},
			{
				"x": 2.0946893485,
				"y": 3.4348288402,
				"z": 5.4191173061,
				"element": "H" 
			}
		],
		 "valence_orbital": [ 
			{
				"type": "occ",
				"energy": -0.26972,
				"method": "rhf"
			},
			{
				"type": "occ",
				"energy": -0.26837,
				"method": "rhf"
			},
			{
				"type": "occ",
				"energy": -0.26596,
				"method": "rhf"
			},
			{
				"type": "occ",
				"energy": -0.26204,
				"method": "rhf"
			},
			{
				"type": "occ",
				"energy": -0.25118,
				"method": "rhf"
			},
			{
				"type": "unocc",
				"energy": -0.00308,
				"method": "rhf"
			},
			{
				"type": "unocc",
				"energy": 0.00648,
				"method": "rhf"
			},
			{
				"type": "unocc",
				"energy": 0.00875,
				"method": "rhf"
			},
			{
				"type": "unocc",
				"energy": 0.01011,
				"method": "rhf"
			},
			{
				"type": "unocc",
				"energy": 0.01392,
				"method": "rhf"
			}
		],
		"cosmo_sigma_profile": { 
			"-0.025": 0.0,
			"-0.024": 0.0,
			"-0.023": 0.0,
			"-0.022": 0.0,
			"-0.021": 0.0,
			"-0.02": 0.0,
			"-0.019": 0.0,
			"-0.018": 0.0,
			"-0.017": 0.0,
			"-0.016": 0.0,
			"-0.015": 0.0,
			"-0.014": 0.0,
			"-0.013": 0.0,
			"-0.012": 0.0,
			"-0.011": 0.0,
			"-0.01": 0.0,
			"-0.009": 0.555898261197,
			"-0.008": 4.47098889951,
			"-0.007": 16.6000582366,
			"-0.006": 42.5782539444,
			"-0.005": 52.9640580476,
			"-0.004": 60.1544231247,
			"-0.003": 70.4434297326,
			"-0.002": 74.806059699,
			"-0.001": 54.3993572922,
			"0.0": 36.1724765724,
			"0.001": 29.8435308751,
			"0.002": 29.1699230389,
			"0.003": 28.6680969468,
			"0.004": 24.2124187403,
			"0.005": 23.3621123512,
			"0.006": 20.5592979019,
			"0.007": 19.0477820955,
			"0.008": 16.2893367908,
			"0.009": 12.6186535643,
			"0.01": 13.0939400806,
			"0.011": 14.6276262038,
			"0.012": 10.1576613221,
			"0.013": 1.52036306066,
			"0.014": 0.0,
			"0.015": 0.0,
			"0.016": 0.0,
			"0.017": 0.0,
			"0.018": 0.0,
			"0.019": 0.0,
			"0.02": 0.0,
			"0.021": 0.0,
			"0.022": 0.0,
			"0.023": 0.0,
			"0.024": 0.0,
			"0.025": 0.0
		}
	}
}
