{
	 "smiles": "CC1=C(C)C(C)=C(O)C(C)=C1C", 
	 "Tm": 401.15, 
	 "num_atms": 28, 
	 "gaussian": { 
		 "optdone": 1, 
		 "sigma_profile": "yes", 
		 "theory": "DFT", 
		 "functional": "B3LYP", 
		 "basiset": "6-31G**", 
		 "properties": { 
			 "R2extent": 2870.1163, 
			 "electric_dipole_moment_norm": 1.41402425368, 
			 "electric_quadrupole_moment_norm": 7.05444326365, 
			 "total_energy": -504.057539496, 
			 "HOMO_LUMO_gap": 0.20998, 
			 "cosmo_polarized_energy": -6.75, 
			 "cosmo_cavitation_energy": 28.13, 
			 "cosmo_dispersion_energy": -21.0, 
			 "cosmo_repulsion_energy": 1.65, 
			 "cosmo_total_nonelectrostatic_energy": 8.78, 
			 "SMD_solvation_energy": 4.93 
		},
		"coords": [
			{
				"x": -0.2398637686,
				"y": 2.9685050039,
				"z": -0.0299505843,
				"element": "C" 
			},
			{
				"x": -0.1469767168,
				"y": 1.6389397158,
				"z": 0.6942133181,
				"element": "C" 
			},
			{
				"x": 0.9799912132,
				"y": 1.3644566272,
				"z": 1.4970371438,
				"element": "C" 
			},
			{
				"x": 2.0432779679,
				"y": 2.4329193915,
				"z": 1.6653573172,
				"element": "C" 
			},
			{
				"x": 1.1033692266,
				"y": 0.1140324713,
				"z": 2.1303737412,
				"element": "C" 
			},
			{
				"x": 2.311434053,
				"y": -0.2916315999,
				"z": 2.9507674531,
				"element": "C" 
			},
			{
				"x": 0.0632818233,
				"y": -0.8196520073,
				"z": 1.9862346845,
				"element": "C" 
			},
			{
				"x": 0.1291939471,
				"y": -2.0484673207,
				"z": 2.6034746203,
				"element": "O" 
			},
			{
				"x": -1.0794635932,
				"y": -0.5594871902,
				"z": 1.2173832301,
				"element": "C" 
			},
			{
				"x": -2.1551602743,
				"y": -1.6194624592,
				"z": 1.1080185565,
				"element": "C" 
			},
			{
				"x": -1.1777165558,
				"y": 0.6852379827,
				"z": 0.5686121216,
				"element": "C" 
			},
			{
				"x": -2.4055023684,
				"y": 1.0041424297,
				"z": -0.2625795248,
				"element": "C" 
			},
			{
				"x": 0.7264147019,
				"y": 3.2701782118,
				"z": -0.4448109094,
				"element": "H" 
			},
			{
				"x": -0.5674454857,
				"y": 3.7806454571,
				"z": 0.6345098233,
				"element": "H" 
			},
			{
				"x": -0.9451202703,
				"y": 2.9331950127,
				"z": -0.8611763813,
				"element": "H" 
			},
			{
				"x": 2.6310699199,
				"y": 2.2959800959,
				"z": 2.5741809061,
				"element": "H" 
			},
			{
				"x": 1.5968773635,
				"y": 3.4287761787,
				"z": 1.7269030329,
				"element": "H" 
			},
			{
				"x": 2.74622455,
				"y": 2.4516109973,
				"z": 0.8212800643,
				"element": "H" 
			},
			{
				"x": 3.1506431383,
				"y": 0.3912933321,
				"z": 2.8253003584,
				"element": "H" 
			},
			{
				"x": 2.0936301981,
				"y": -0.3359336414,
				"z": 4.0278963505,
				"element": "H" 
			},
			{
				"x": 2.6820573913,
				"y": -1.281194572,
				"z": 2.6491224748,
				"element": "H" 
			},
			{
				"x": 0.9189711333,
				"y": -2.0844833691,
				"z": 3.1547500572,
				"element": "H" 
			},
			{
				"x": -2.3539780742,
				"y": -1.8873512151,
				"z": 0.0642291555,
				"element": "H" 
			},
			{
				"x": -1.8582250269,
				"y": -2.5258171204,
				"z": 1.6345372755,
				"element": "H" 
			},
			{
				"x": -3.1042760059,
				"y": -1.2802891254,
				"z": 1.5405269548,
				"element": "H" 
			},
			{
				"x": -2.1713508884,
				"y": 1.0438894055,
				"z": -1.3342677654,
				"element": "H" 
			},
			{
				"x": -3.1909963142,
				"y": 0.2597260572,
				"z": -0.1335770366,
				"element": "H" 
			},
			{
				"x": -2.8321612846,
				"y": 1.9761412504,
				"z": 0.005953562,
				"element": "H" 
			}
		],
		 "valence_orbital": [ 
			{
				"type": "occ",
				"energy": -0.32324,
				"method": "rhf"
			},
			{
				"type": "occ",
				"energy": -0.31232,
				"method": "rhf"
			},
			{
				"type": "occ",
				"energy": -0.29575,
				"method": "rhf"
			},
			{
				"type": "occ",
				"energy": -0.21582,
				"method": "rhf"
			},
			{
				"type": "occ",
				"energy": -0.19654,
				"method": "rhf"
			},
			{
				"type": "unocc",
				"energy": 0.01344,
				"method": "rhf"
			},
			{
				"type": "unocc",
				"energy": 0.02538,
				"method": "rhf"
			},
			{
				"type": "unocc",
				"energy": 0.07187,
				"method": "rhf"
			},
			{
				"type": "unocc",
				"energy": 0.1019,
				"method": "rhf"
			},
			{
				"type": "unocc",
				"energy": 0.11855,
				"method": "rhf"
			}
		],
		"cosmo_sigma_profile": { 
			"-0.025": 0.0,
			"-0.024": 0.0,
			"-0.023": 0.0,
			"-0.022": 0.0,
			"-0.021": 0.0,
			"-0.02": 0.0,
			"-0.019": 0.0,
			"-0.018": 0.0,
			"-0.017": 0.0,
			"-0.016": 0.0,
			"-0.015": 0.383367547948,
			"-0.014": 0.882228676759,
			"-0.013": 0.638795792837,
			"-0.012": 0.952243671691,
			"-0.011": 1.15722819534,
			"-0.01": 0.909812807792,
			"-0.009": 1.11267850791,
			"-0.008": 1.1736300544,
			"-0.007": 1.65774809941,
			"-0.006": 1.2218898668,
			"-0.005": 3.81045154611,
			"-0.004": 9.89540976002,
			"-0.003": 25.6569808714,
			"-0.002": 28.5008928423,
			"-0.001": 29.6045700139,
			"0.0": 29.6968952388,
			"0.001": 24.4890529189,
			"0.002": 11.4225968524,
			"0.003": 7.68800608054,
			"0.004": 7.12683129581,
			"0.005": 8.5545833865,
			"0.006": 6.86405616715,
			"0.007": 7.74113605059,
			"0.008": 3.85260864658,
			"0.009": 2.23243760625,
			"0.01": 1.87143956617,
			"0.011": 0.878941903576,
			"0.012": 0.0161346962062,
			"0.013": 0.0,
			"0.014": 0.0,
			"0.015": 0.0,
			"0.016": 0.0,
			"0.017": 0.0,
			"0.018": 0.0,
			"0.019": 0.0,
			"0.02": 0.0,
			"0.021": 0.0,
			"0.022": 0.0,
			"0.023": 0.0,
			"0.024": 0.0,
			"0.025": 0.0
		}
	}
}
