{
	 "smiles": "O=C(OC1=NC=CC=C1)OC1=NC=CC=C1", 
	 "Tm": 363.15, 
	 "num_atms": 24, 
	 "gaussian": { 
		 "optdone": 1, 
		 "sigma_profile": "yes", 
		 "theory": "DFT", 
		 "functional": "B3LYP", 
		 "basiset": "6-31G**", 
		 "properties": { 
			 "R2extent": 4176.5274, 
			 "electric_dipole_moment_norm": 3.14478756357, 
			 "electric_quadrupole_moment_norm": 21.859545998, 
			 "total_energy": -759.159847668, 
			 "HOMO_LUMO_gap": 0.21953, 
			 "cosmo_polarized_energy": -13.49, 
			 "cosmo_cavitation_energy": 30.35, 
			 "cosmo_dispersion_energy": -21.9, 
			 "cosmo_repulsion_energy": 1.72, 
			 "cosmo_total_nonelectrostatic_energy": 10.17, 
			 "SMD_solvation_energy": 4.42 
		},
		"coords": [
			{
				"x": 1.5923833148,
				"y": -1.3500743078,
				"z": 2.1777358123,
				"element": "O" 
			},
			{
				"x": 0.7472642769,
				"y": -1.264424668,
				"z": 1.3307038517,
				"element": "C" 
			},
			{
				"x": -0.3184644294,
				"y": -2.1032391489,
				"z": 1.2902566159,
				"element": "O" 
			},
			{
				"x": -1.4973838603,
				"y": -1.74835805,
				"z": 0.6452157462,
				"element": "C" 
			},
			{
				"x": -2.036621363,
				"y": -0.5824885027,
				"z": 0.9585334269,
				"element": "N" 
			},
			{
				"x": -3.2129427442,
				"y": -0.2863078685,
				"z": 0.3883522564,
				"element": "C" 
			},
			{
				"x": -3.8810299342,
				"y": -1.1444651277,
				"z": -0.483320924,
				"element": "C" 
			},
			{
				"x": -3.2903688087,
				"y": -2.3743371137,
				"z": -0.783007525,
				"element": "C" 
			},
			{
				"x": -2.062708763,
				"y": -2.6936683513,
				"z": -0.2098744956,
				"element": "C" 
			},
			{
				"x": 0.7366112707,
				"y": -0.4310168622,
				"z": 0.2640045283,
				"element": "O" 
			},
			{
				"x": 1.6986607108,
				"y": 0.5705907736,
				"z": 0.1383365491,
				"element": "C" 
			},
			{
				"x": 2.0977415582,
				"y": 0.7402890638,
				"z": -1.1093898271,
				"element": "N" 
			},
			{
				"x": 2.9691665188,
				"y": 1.7317745445,
				"z": -1.3431605385,
				"element": "C" 
			},
			{
				"x": 3.4615822895,
				"y": 2.5704121643,
				"z": -0.3463837972,
				"element": "C" 
			},
			{
				"x": 3.0180283197,
				"y": 2.3659643458,
				"z": 0.9622846743,
				"element": "C" 
			},
			{
				"x": 2.1102019867,
				"y": 1.3448768819,
				"z": 1.2259958707,
				"element": "C" 
			},
			{
				"x": -3.6383691469,
				"y": 0.6796432842,
				"z": 0.6515473032,
				"element": "H" 
			},
			{
				"x": -4.8351619343,
				"y": -0.8573893913,
				"z": -0.9120138999,
				"element": "H" 
			},
			{
				"x": -3.7756861674,
				"y": -3.0733555203,
				"z": -1.4574428477,
				"element": "H" 
			},
			{
				"x": -1.5504348668,
				"y": -3.6279709528,
				"z": -0.4069531814,
				"element": "H" 
			},
			{
				"x": 3.2831458325,
				"y": 1.8526939668,
				"z": -2.3777788049,
				"element": "H" 
			},
			{
				"x": 4.1684279735,
				"y": 3.3572547847,
				"z": -0.5873865958,
				"element": "H" 
			},
			{
				"x": 3.3718302785,
				"y": 2.9962422644,
				"z": 1.7726472251,
				"element": "H" 
			},
			{
				"x": 1.7471276876,
				"y": 1.1447537912,
				"z": 2.2247985769,
				"element": "H" 
			}
		],
		 "valence_orbital": [ 
			{
				"type": "occ",
				"energy": -0.28922,
				"method": "rhf"
			},
			{
				"type": "occ",
				"energy": -0.27883,
				"method": "rhf"
			},
			{
				"type": "occ",
				"energy": -0.27305,
				"method": "rhf"
			},
			{
				"type": "occ",
				"energy": -0.26419,
				"method": "rhf"
			},
			{
				"type": "occ",
				"energy": -0.25487,
				"method": "rhf"
			},
			{
				"type": "unocc",
				"energy": -0.03534,
				"method": "rhf"
			},
			{
				"type": "unocc",
				"energy": -0.03002,
				"method": "rhf"
			},
			{
				"type": "unocc",
				"energy": -0.02467,
				"method": "rhf"
			},
			{
				"type": "unocc",
				"energy": -0.01102,
				"method": "rhf"
			},
			{
				"type": "unocc",
				"energy": 0.03178,
				"method": "rhf"
			}
		],
		"cosmo_sigma_profile": { 
			"-0.025": 0.0,
			"-0.024": 0.0,
			"-0.023": 0.0,
			"-0.022": 0.0,
			"-0.021": 0.0,
			"-0.02": 0.0,
			"-0.019": 0.0,
			"-0.018": 0.0,
			"-0.017": 0.0,
			"-0.016": 0.0,
			"-0.015": 0.0,
			"-0.014": 0.0,
			"-0.013": 0.0,
			"-0.012": 0.0,
			"-0.011": 0.0,
			"-0.01": 0.0,
			"-0.009": 0.0754330263983,
			"-0.008": 6.30023373001,
			"-0.007": 18.1686781529,
			"-0.006": 19.0483850487,
			"-0.005": 16.35434788,
			"-0.004": 13.6141006122,
			"-0.003": 13.3810768961,
			"-0.002": 11.2476603159,
			"-0.001": 14.8616953036,
			"0.0": 22.1465552504,
			"0.001": 25.9011007704,
			"0.002": 23.3483199749,
			"0.003": 9.53168585728,
			"0.004": 5.85308592795,
			"0.005": 6.42225069912,
			"0.006": 6.47224276814,
			"0.007": 7.17008958311,
			"0.008": 4.90746910222,
			"0.009": 4.71292884836,
			"0.01": 7.60294240108,
			"0.011": 3.58454129624,
			"0.012": 1.87854218962,
			"0.013": 1.45101628058,
			"0.014": 0.887563435974,
			"0.015": 0.631342572878,
			"0.016": 0.0,
			"0.017": 0.0,
			"0.018": 0.0,
			"0.019": 0.0,
			"0.02": 0.0,
			"0.021": 0.0,
			"0.022": 0.0,
			"0.023": 0.0,
			"0.024": 0.0,
			"0.025": 0.0
		}
	}
}
