{
	 "smiles": "COC1=CC=C(NC(=O)CSCC(O)=O)C=C1", 
	 "Tm": 386.15, 
	 "num_atms": 30, 
	 "gaussian": { 
		 "optdone": 1, 
		 "sigma_profile": "yes", 
		 "theory": "DFT", 
		 "functional": "B3LYP", 
		 "basiset": "6-31G**", 
		 "properties": { 
			 "R2extent": 6563.562, 
			 "electric_dipole_moment_norm": 5.84806720721, 
			 "electric_quadrupole_moment_norm": 17.5471676999, 
			 "total_energy": -1180.84338597, 
			 "HOMO_LUMO_gap": 0.2011, 
			 "cosmo_polarized_energy": -23.49, 
			 "cosmo_cavitation_energy": 36.75, 
			 "cosmo_dispersion_energy": -26.17, 
			 "cosmo_repulsion_energy": 2.04, 
			 "cosmo_total_nonelectrostatic_energy": 12.62, 
			 "SMD_solvation_energy": 8.63 
		},
		"coords": [
			{
				"x": -2.3310382534,
				"y": 2.5147256124,
				"z": 3.4025693035,
				"element": "C" 
			},
			{
				"x": -1.8728493699,
				"y": 1.2428681673,
				"z": 3.8342620865,
				"element": "O" 
			},
			{
				"x": -1.0486257822,
				"y": 0.5388675883,
				"z": 3.0066795467,
				"element": "C" 
			},
			{
				"x": -0.6231104675,
				"y": 0.970346722,
				"z": 1.7454128574,
				"element": "C" 
			},
			{
				"x": 0.2375942345,
				"y": 0.1715631375,
				"z": 0.9869487914,
				"element": "C" 
			},
			{
				"x": 0.6512292067,
				"y": -1.0778344553,
				"z": 1.4565054669,
				"element": "C" 
			},
			{
				"x": 1.5410518377,
				"y": -1.904604362,
				"z": 0.7172939879,
				"element": "N" 
			},
			{
				"x": 1.5083057219,
				"y": -2.3258855232,
				"z": -0.593900407,
				"element": "C" 
			},
			{
				"x": 2.4121406766,
				"y": -3.0091292577,
				"z": -1.0525015231,
				"element": "O" 
			},
			{
				"x": 0.295067732,
				"y": -1.9469444004,
				"z": -1.4382854646,
				"element": "C" 
			},
			{
				"x": 0.7649058139,
				"y": -0.6172307185,
				"z": -2.6246667725,
				"element": "S" 
			},
			{
				"x": -0.897552359,
				"y": -0.3552872491,
				"z": -3.3358753432,
				"element": "C" 
			},
			{
				"x": -0.8554730775,
				"y": 0.7487018884,
				"z": -4.3718474854,
				"element": "C" 
			},
			{
				"x": -2.0741472465,
				"y": 0.917456076,
				"z": -4.9368503734,
				"element": "O" 
			},
			{
				"x": 0.1119722513,
				"y": 1.4076059712,
				"z": -4.6724097776,
				"element": "O" 
			},
			{
				"x": 0.2175268765,
				"y": -1.5043317828,
				"z": 2.7227079341,
				"element": "C" 
			},
			{
				"x": -0.6130707722,
				"y": -0.7038593444,
				"z": 3.4932858226,
				"element": "C" 
			},
			{
				"x": -2.9227466297,
				"y": 2.4408304787,
				"z": 2.4808909183,
				"element": "H" 
			},
			{
				"x": -1.4985809879,
				"y": 3.211096575,
				"z": 3.2390834576,
				"element": "H" 
			},
			{
				"x": -2.964427541,
				"y": 2.8952052381,
				"z": 4.2051937561,
				"element": "H" 
			},
			{
				"x": -0.929991027,
				"y": 1.9316242342,
				"z": 1.3508507751,
				"element": "H" 
			},
			{
				"x": 0.5956476682,
				"y": 0.5297682962,
				"z": 0.0265022566,
				"element": "H" 
			},
			{
				"x": 2.3375980848,
				"y": -2.2880998599,
				"z": 1.2125529761,
				"element": "H" 
			},
			{
				"x": 0.0150309029,
				"y": -2.843642663,
				"z": -1.9968493585,
				"element": "H" 
			},
			{
				"x": -0.5450319921,
				"y": -1.6124998353,
				"z": -0.8254758507,
				"element": "H" 
			},
			{
				"x": -1.6216474587,
				"y": -0.077021683,
				"z": -2.5613394224,
				"element": "H" 
			},
			{
				"x": -1.2693013135,
				"y": -1.2686429035,
				"z": -3.8132688354,
				"element": "H" 
			},
			{
				"x": -1.9752258869,
				"y": 1.6336847993,
				"z": -5.5868373504,
				"element": "H" 
			},
			{
				"x": 0.5341342925,
				"y": -2.4740419671,
				"z": 3.0965676514,
				"element": "H" 
			},
			{
				"x": -0.9495851344,
				"y": -1.0238887794,
				"z": 4.473800376,
				"element": "H" 
			}
		],
		 "valence_orbital": [ 
			{
				"type": "occ",
				"energy": -0.27623,
				"method": "rhf"
			},
			{
				"type": "occ",
				"energy": -0.26375,
				"method": "rhf"
			},
			{
				"type": "occ",
				"energy": -0.25394,
				"method": "rhf"
			},
			{
				"type": "occ",
				"energy": -0.23169,
				"method": "rhf"
			},
			{
				"type": "occ",
				"energy": -0.21642,
				"method": "rhf"
			},
			{
				"type": "unocc",
				"energy": -0.01532,
				"method": "rhf"
			},
			{
				"type": "unocc",
				"energy": -0.01212,
				"method": "rhf"
			},
			{
				"type": "unocc",
				"energy": -0.00261,
				"method": "rhf"
			},
			{
				"type": "unocc",
				"energy": 0.01617,
				"method": "rhf"
			},
			{
				"type": "unocc",
				"energy": 0.02759,
				"method": "rhf"
			}
		],
		"cosmo_sigma_profile": { 
			"-0.025": 0.0,
			"-0.024": 0.0,
			"-0.023": 0.0,
			"-0.022": 0.0,
			"-0.021": 0.0,
			"-0.02": 0.0,
			"-0.019": 0.25286383813,
			"-0.018": 0.942691760092,
			"-0.017": 0.990909224777,
			"-0.016": 0.977419790202,
			"-0.015": 0.774969174609,
			"-0.014": 1.4089532547,
			"-0.013": 1.51172309061,
			"-0.012": 1.86998081568,
			"-0.011": 1.96812869761,
			"-0.01": 1.81682639259,
			"-0.009": 2.18959122086,
			"-0.008": 8.08032329218,
			"-0.007": 11.9603885064,
			"-0.006": 19.3493073349,
			"-0.005": 22.6151147598,
			"-0.004": 22.1530319565,
			"-0.003": 21.7987531605,
			"-0.002": 15.926437733,
			"-0.001": 14.4090629679,
			"0.0": 12.9180808068,
			"0.001": 13.4426411851,
			"0.002": 13.7674723754,
			"0.003": 15.1441889003,
			"0.004": 16.5938148499,
			"0.005": 10.8947093737,
			"0.006": 8.17209476202,
			"0.007": 8.96592010561,
			"0.008": 7.5237316017,
			"0.009": 8.81074238559,
			"0.01": 6.4226745858,
			"0.011": 7.42785498489,
			"0.012": 3.29728562255,
			"0.013": 5.67205536544,
			"0.014": 2.87998155549,
			"0.015": 0.210093895758,
			"0.016": 0.0,
			"0.017": 0.0,
			"0.018": 0.0,
			"0.019": 0.0,
			"0.02": 0.0,
			"0.021": 0.0,
			"0.022": 0.0,
			"0.023": 0.0,
			"0.024": 0.0,
			"0.025": 0.0
		}
	}
}
