{
	 "smiles": "NC(=O)C1=CC(F)=CC=C1", 
	 "Tm": 403.65, 
	 "num_atms": 16, 
	 "gaussian": { 
		 "optdone": 1, 
		 "sigma_profile": "yes", 
		 "theory": "DFT", 
		 "functional": "B3LYP", 
		 "basiset": "6-31G**", 
		 "properties": { 
			 "R2extent": 2051.7936, 
			 "electric_dipole_moment_norm": 2.39433073948, 
			 "electric_quadrupole_moment_norm": 20.4999002922, 
			 "total_energy": -500.188029227, 
			 "HOMO_LUMO_gap": 0.20446, 
			 "cosmo_polarized_energy": -12.26, 
			 "cosmo_cavitation_energy": 21.03, 
			 "cosmo_dispersion_energy": -15.51, 
			 "cosmo_repulsion_energy": 1.24, 
			 "cosmo_total_nonelectrostatic_energy": 6.75, 
			 "SMD_solvation_energy": 4.99 
		},
		"coords": [
			{
				"x": -2.3211224905,
				"y": 1.7838095213,
				"z": 2.467315897,
				"element": "N" 
			},
			{
				"x": -1.8410741283,
				"y": 2.4317186543,
				"z": 1.3544714261,
				"element": "C" 
			},
			{
				"x": -2.2282826071,
				"y": 3.5493147235,
				"z": 1.0385766203,
				"element": "O" 
			},
			{
				"x": -0.793628159,
				"y": 1.7010190996,
				"z": 0.5586825602,
				"element": "C" 
			},
			{
				"x": -0.0506145693,
				"y": 0.6327256142,
				"z": 1.0793794835,
				"element": "C" 
			},
			{
				"x": 0.8988784254,
				"y": 0.0200109621,
				"z": 0.2713648615,
				"element": "C" 
			},
			{
				"x": 1.6184668698,
				"y": -1.0031491812,
				"z": 0.7784640521,
				"element": "F" 
			},
			{
				"x": 1.1372521974,
				"y": 0.4297860718,
				"z": -1.0355645301,
				"element": "C" 
			},
			{
				"x": 0.398534366,
				"y": 1.5018370464,
				"z": -1.5411233183,
				"element": "C" 
			},
			{
				"x": -0.5559930327,
				"y": 2.1389251945,
				"z": -0.7504397334,
				"element": "C" 
			},
			{
				"x": -3.1027164029,
				"y": 2.2318862268,
				"z": 2.9237475285,
				"element": "H" 
			},
			{
				"x": -2.2652494989,
				"y": 0.7799780497,
				"z": 2.5396953691,
				"element": "H" 
			},
			{
				"x": -0.1634768906,
				"y": 0.292311827,
				"z": 2.1029127194,
				"element": "H" 
			},
			{
				"x": 1.8893404114,
				"y": -0.0803783328,
				"z": -1.6275793858,
				"element": "H" 
			},
			{
				"x": 0.5743863375,
				"y": 1.840084406,
				"z": -2.5577322957,
				"element": "H" 
			},
			{
				"x": -1.129800828,
				"y": 2.9802201168,
				"z": -1.1220712544,
				"element": "H" 
			}
		],
		 "valence_orbital": [ 
			{
				"type": "occ",
				"energy": -0.36023,
				"method": "rhf"
			},
			{
				"type": "occ",
				"energy": -0.27727,
				"method": "rhf"
			},
			{
				"type": "occ",
				"energy": -0.26986,
				"method": "rhf"
			},
			{
				"type": "occ",
				"energy": -0.2583,
				"method": "rhf"
			},
			{
				"type": "occ",
				"energy": -0.24962,
				"method": "rhf"
			},
			{
				"type": "unocc",
				"energy": -0.04516,
				"method": "rhf"
			},
			{
				"type": "unocc",
				"energy": -0.00974,
				"method": "rhf"
			},
			{
				"type": "unocc",
				"energy": 0.05389,
				"method": "rhf"
			},
			{
				"type": "unocc",
				"energy": 0.07156,
				"method": "rhf"
			},
			{
				"type": "unocc",
				"energy": 0.0995,
				"method": "rhf"
			}
		],
		"cosmo_sigma_profile": { 
			"-0.025": 0.0,
			"-0.024": 0.0,
			"-0.023": 0.0,
			"-0.022": 0.0,
			"-0.021": 0.0,
			"-0.02": 0.0,
			"-0.019": 0.0,
			"-0.018": 0.0,
			"-0.017": 0.0,
			"-0.016": 0.0,
			"-0.015": 0.237173741491,
			"-0.014": 1.69904137576,
			"-0.013": 2.92031027806,
			"-0.012": 2.42116152631,
			"-0.011": 2.05691233213,
			"-0.01": 2.6751000081,
			"-0.009": 2.96635926521,
			"-0.008": 3.2236147697,
			"-0.007": 6.68165484406,
			"-0.006": 5.8978808278,
			"-0.005": 8.8387120238,
			"-0.004": 6.87975540314,
			"-0.003": 7.68997893131,
			"-0.002": 6.89618044087,
			"-0.001": 8.68857431191,
			"0.0": 14.5282906379,
			"0.001": 13.532517928,
			"0.002": 15.1756554139,
			"0.003": 15.0635183492,
			"0.004": 15.3832182806,
			"0.005": 3.98870375791,
			"0.006": 1.38798321241,
			"0.007": 2.68857172343,
			"0.008": 2.63169523556,
			"0.009": 0.596768978413,
			"0.01": 1.37590944261,
			"0.011": 1.95579990553,
			"0.012": 2.02445972585,
			"0.013": 5.21867223538,
			"0.014": 2.91689260528,
			"0.015": 0.114721906311,
			"0.016": 0.0,
			"0.017": 0.0,
			"0.018": 0.0,
			"0.019": 0.0,
			"0.02": 0.0,
			"0.021": 0.0,
			"0.022": 0.0,
			"0.023": 0.0,
			"0.024": 0.0,
			"0.025": 0.0
		}
	}
}
