{
	 "smiles": "CC1=CC(OCCC(O)=O)=CC=C1", 
	 "Tm": 373.15, 
	 "num_atms": 25, 
	 "gaussian": { 
		 "optdone": 1, 
		 "sigma_profile": "yes", 
		 "theory": "DFT", 
		 "functional": "B3LYP", 
		 "basiset": "6-31G**", 
		 "properties": { 
			 "R2extent": 3608.6058, 
			 "electric_dipole_moment_norm": 5.42955866899, 
			 "electric_quadrupole_moment_norm": 22.3470817339, 
			 "total_energy": -613.979987547, 
			 "HOMO_LUMO_gap": 0.22527, 
			 "cosmo_polarized_energy": -13.9, 
			 "cosmo_cavitation_energy": 28.82, 
			 "cosmo_dispersion_energy": -20.92, 
			 "cosmo_repulsion_energy": 1.67, 
			 "cosmo_total_nonelectrostatic_energy": 9.57, 
			 "SMD_solvation_energy": 6.26 
		},
		"coords": [
			{
				"x": 0.3946403854,
				"y": 2.4380657071,
				"z": -3.6613292454,
				"element": "C" 
			},
			{
				"x": -0.1611185008,
				"y": 1.8939135592,
				"z": -2.3662583277,
				"element": "C" 
			},
			{
				"x": 0.5098073515,
				"y": 0.8917734482,
				"z": -1.6663038884,
				"element": "C" 
			},
			{
				"x": -0.0001241144,
				"y": 0.396348932,
				"z": -0.4597707251,
				"element": "C" 
			},
			{
				"x": 0.7510748401,
				"y": -0.5959686001,
				"z": 0.1373504944,
				"element": "O" 
			},
			{
				"x": 0.3016646905,
				"y": -1.1571859447,
				"z": 1.3774548833,
				"element": "C" 
			},
			{
				"x": 1.3129894897,
				"y": -2.2204284816,
				"z": 1.7985099835,
				"element": "C" 
			},
			{
				"x": 2.7109759789,
				"y": -1.7015910284,
				"z": 2.1489945011,
				"element": "C" 
			},
			{
				"x": 3.2058905069,
				"y": -0.7476636895,
				"z": 1.3316568789,
				"element": "O" 
			},
			{
				"x": 3.3538671654,
				"y": -2.1295350323,
				"z": 3.0763225029,
				"element": "O" 
			},
			{
				"x": -1.192972037,
				"y": 0.8939063852,
				"z": 0.0650425116,
				"element": "C" 
			},
			{
				"x": -1.8659161204,
				"y": 1.8982601548,
				"z": -0.6404630399,
				"element": "C" 
			},
			{
				"x": -1.3632518299,
				"y": 2.3948985739,
				"z": -1.8376009604,
				"element": "C" 
			},
			{
				"x": 1.2678959969,
				"y": 1.8709918333,
				"z": -3.9941079249,
				"element": "H" 
			},
			{
				"x": 0.6992856556,
				"y": 3.4853698354,
				"z": -3.5505668458,
				"element": "H" 
			},
			{
				"x": -0.354636226,
				"y": 2.404142926,
				"z": -4.4597214719,
				"element": "H" 
			},
			{
				"x": 1.4377255505,
				"y": 0.4753588336,
				"z": -2.0475723099,
				"element": "H" 
			},
			{
				"x": 0.2164888128,
				"y": -0.3679311105,
				"z": 2.1361268289,
				"element": "H" 
			},
			{
				"x": -0.6873613601,
				"y": -1.610511434,
				"z": 1.2397683827,
				"element": "H" 
			},
			{
				"x": 0.9409996591,
				"y": -2.7552283424,
				"z": 2.6747973824,
				"element": "H" 
			},
			{
				"x": 1.4141260706,
				"y": -2.9505628934,
				"z": 0.9855404192,
				"element": "H" 
			},
			{
				"x": 2.540231496,
				"y": -0.5231301457,
				"z": 0.653405729,
				"element": "H" 
			},
			{
				"x": -1.602170378,
				"y": 0.5220877364,
				"z": 0.9963806733,
				"element": "H" 
			},
			{
				"x": -2.7958678443,
				"y": 2.2911134624,
				"z": -0.2394723341,
				"element": "H" 
			},
			{
				"x": -1.9012452392,
				"y": 3.1745053152,
				"z": -2.3699840975,
				"element": "H" 
			}
		],
		 "valence_orbital": [ 
			{
				"type": "occ",
				"energy": -0.32877,
				"method": "rhf"
			},
			{
				"type": "occ",
				"energy": -0.30304,
				"method": "rhf"
			},
			{
				"type": "occ",
				"energy": -0.26114,
				"method": "rhf"
			},
			{
				"type": "occ",
				"energy": -0.25516,
				"method": "rhf"
			},
			{
				"type": "occ",
				"energy": -0.2361,
				"method": "rhf"
			},
			{
				"type": "unocc",
				"energy": -0.01083,
				"method": "rhf"
			},
			{
				"type": "unocc",
				"energy": -0.00318,
				"method": "rhf"
			},
			{
				"type": "unocc",
				"energy": 0.01596,
				"method": "rhf"
			},
			{
				"type": "unocc",
				"energy": 0.07958,
				"method": "rhf"
			},
			{
				"type": "unocc",
				"energy": 0.08497,
				"method": "rhf"
			}
		],
		"cosmo_sigma_profile": { 
			"-0.025": 0.0,
			"-0.024": 0.0,
			"-0.023": 0.0,
			"-0.022": 0.0,
			"-0.021": 0.0,
			"-0.02": 0.0,
			"-0.019": 0.0,
			"-0.018": 0.0,
			"-0.017": 0.0,
			"-0.016": 0.0,
			"-0.015": 0.0,
			"-0.014": 0.0,
			"-0.013": 0.0,
			"-0.012": 0.0,
			"-0.011": 0.0,
			"-0.01": 0.0,
			"-0.009": 0.48668676732,
			"-0.008": 1.8363178836,
			"-0.007": 11.9138204075,
			"-0.006": 21.4643241068,
			"-0.005": 19.5683402029,
			"-0.004": 20.948668634,
			"-0.003": 17.9990925151,
			"-0.002": 15.8843944673,
			"-0.001": 14.1055001633,
			"0.0": 14.599108043,
			"0.001": 11.4522575903,
			"0.002": 8.43487457243,
			"0.003": 9.32198756719,
			"0.004": 11.7468878913,
			"0.005": 11.4760296049,
			"0.006": 8.95770807024,
			"0.007": 2.61605530468,
			"0.008": 2.69457370656,
			"0.009": 2.65504590428,
			"0.01": 4.21812692338,
			"0.011": 5.62377437889,
			"0.012": 6.25069559473,
			"0.013": 3.46512967733,
			"0.014": 0.429720822035,
			"0.015": 0.0,
			"0.016": 0.0,
			"0.017": 0.0,
			"0.018": 0.0,
			"0.019": 0.0,
			"0.02": 0.0,
			"0.021": 0.0,
			"0.022": 0.0,
			"0.023": 0.0,
			"0.024": 0.0,
			"0.0": 0.0
		}
	}
}
