{
	 "smiles": "C[Si](C)(C)O[Si](C)(C)O[Si](C)(C)O[Si](C)(C)O[Si](C)(C)O[Si](C)(C)O[Si](C)(C)C", 
	 "Tm": 195.15, 
	 "num_atms": 77, 
	 "gaussian": { 
		 "optdone": 1, 
		 "sigma_profile": "yes", 
		 "theory": "DFT", 
		 "functional": "B3LYP", 
		 "basiset": "6-31G**", 
		 "properties": { 
			 "R2extent": 24801.0322, 
			 "electric_dipole_moment_norm": 1.60093881832, 
			 "electric_quadrupole_moment_norm": 7.51741041649, 
			 "total_energy": -3117.27135672, 
			 "HOMO_LUMO_gap": 0.29901, 
			 "cosmo_polarized_energy": -9.46, 
			 "cosmo_cavitation_energy": 91.83, 
			 "cosmo_dispersion_energy": -38.26, 
			 "cosmo_repulsion_energy": 3.52, 
			 "cosmo_total_nonelectrostatic_energy": 57.1, 
			 "SMD_solvation_energy": 22.04 
		},
		"coords": [
			{
				"x": 1.7136005368,
				"y": 6.9968263279,
				"z": 1.1554024759,
				"element": "C" 
			},
			{
				"x": 2.0443386721,
				"y": 5.3937876648,
				"z": 2.0939248801,
				"element": "Si" 
			},
			{
				"x": 3.7253323034,
				"y": 4.6936397867,
				"z": 1.6037448615,
				"element": "C" 
			},
			{
				"x": 1.9784237162,
				"y": 5.699052841,
				"z": 3.9511477117,
				"element": "C" 
			},
			{
				"x": 0.8616494623,
				"y": 4.2821314993,
				"z": 1.7304487044,
				"element": "O" 
			},
			{
				"x": -0.1545548537,
				"y": 3.4333500851,
				"z": 0.7403043941,
				"element": "Si" 
			},
			{
				"x": 0.5414350789,
				"y": 3.3657171921,
				"z": -1.0007169921,
				"element": "C" 
			},
			{
				"x": -1.8532412299,
				"y": 4.227484021,
				"z": 0.7920553689,
				"element": "C" 
			},
			{
				"x": -0.2701028923,
				"y": 1.8819997624,
				"z": 1.3039937535,
				"element": "O" 
			},
			{
				"x": -0.0767541913,
				"y": 0.8437568155,
				"z": 2.5841651129,
				"element": "Si" 
			},
			{
				"x": -0.5179310003,
				"y": 1.7187367138,
				"z": 4.1862074242,
				"element": "C" 
			},
			{
				"x": 1.6813539998,
				"y": 0.1958552834,
				"z": 2.5931173904,
				"element": "C" 
			},
			{
				"x": -1.0846486672,
				"y": -0.4440188399,
				"z": 2.3618879829,
				"element": "O" 
			},
			{
				"x": -2.5530561033,
				"y": -1.1553639533,
				"z": 2.0808262003,
				"element": "Si" 
			},
			{
				"x": -3.9367630577,
				"y": -0.0485241273,
				"z": 2.6972605266,
				"element": "C" 
			},
			{
				"x": -2.5322053881,
				"y": -2.8264049108,
				"z": 2.9285564012,
				"element": "C" 
			},
			{
				"x": -2.7927977666,
				"y": -1.3631803939,
				"z": 0.4561548122,
				"element": "O" 
			},
			{
				"x": -2.1314393157,
				"y": -1.7860165311,
				"z": -1.0009490786,
				"element": "Si" 
			},
			{
				"x": -1.4379860137,
				"y": -0.2506624699,
				"z": -1.8254305471,
				"element": "C" 
			},
			{
				"x": -3.4794557539,
				"y": -2.5984860632,
				"z": -2.0185772116,
				"element": "C" 
			},
			{
				"x": -0.9170942332,
				"y": -2.8795225431,
				"z": -0.7180740519,
				"element": "O" 
			},
			{
				"x": 0.4213897657,
				"y": -3.6798573415,
				"z": -1.2633031364,
				"element": "Si" 
			},
			{
				"x": 0.3328702194,
				"y": -5.4439951345,
				"z": -0.6323783698,
				"element": "C" 
			},
			{
				"x": 1.956661078,
				"y": -2.7890332497,
				"z": -0.6538632109,
				"element": "C" 
			},
			{
				"x": 0.4050973873,
				"y": -3.6699584469,
				"z": -2.9146086464,
				"element": "O" 
			},
			{
				"x": 0.8359029051,
				"y": -4.0404273226,
				"z": -4.4753791842,
				"element": "Si" 
			},
			{
				"x": 2.2342563235,
				"y": -5.307671446,
				"z": -4.4665751665,
				"element": "C" 
			},
			{
				"x": -0.6750971954,
				"y": -4.7465765469,
				"z": -5.3520640175,
				"element": "C" 
			},
			{
				"x": 1.4036738074,
				"y": -2.4557803225,
				"z": -5.3229620013,
				"element": "C" 
			},
			{
				"x": 0.7317907911,
				"y": 7.4109100093,
				"z": 1.4097149198,
				"element": "H" 
			},
			{
				"x": 2.4659343152,
				"y": 7.7575104217,
				"z": 1.393956711,
				"element": "H" 
			},
			{
				"x": 1.7382701955,
				"y": 6.8386855396,
				"z": 0.071425128,
				"element": "H" 
			},
			{
				"x": 3.9248836044,
				"y": 3.7469610403,
				"z": 2.1176592792,
				"element": "H" 
			},
			{
				"x": 3.779507251,
				"y": 4.5041496579,
				"z": 0.5260988855,
				"element": "H" 
			},
			{
				"x": 4.5347931844,
				"y": 5.3873459719,
				"z": 1.8590272536,
				"element": "H" 
			},
			{
				"x": 2.7374441296,
				"y": 6.4256203987,
				"z": 4.2631711747,
				"element": "H" 
			},
			{
				"x": 1.0001222826,
				"y": 6.0884136647,
				"z": 4.2526564962,
				"element": "H" 
			},
			{
				"x": 2.1545353188,
				"y": 4.7737719913,
				"z": 4.5104804501,
				"element": "H" 
			},
			{
				"x": -0.0915232434,
				"y": 2.7559393207,
				"z": -1.6538158693,
				"element": "H" 
			},
			{
				"x": 1.5432301695,
				"y": 2.9231354417,
				"z": -1.0023493549,
				"element": "H" 
			},
			{
				"x": 0.6145405631,
				"y": 4.3660685022,
				"z": -1.4419576369,
				"element": "H" 
			},
			{
				"x": -2.2262388845,
				"y": 4.2763744592,
				"z": 1.8205492302,
				"element": "H" 
			},
			{
				"x": -2.5749471308,
				"y": 3.6548173985,
				"z": 0.1997904244,
				"element": "H" 
			},
			{
				"x": -1.8288712198,
				"y": 5.2492365724,
				"z": 0.3974436972,
				"element": "H" 
			},
			{
				"x": -1.5592764849,
				"y": 2.0583291906,
				"z": 4.1738991758,
				"element": "H" 
			},
			{
				"x": -0.3938063031,
				"y": 1.0549910896,
				"z": 5.0488111164,
				"element": "H" 
			},
			{
				"x": 0.1164124673,
				"y": 2.5980782563,
				"z": 4.3400595024,
				"element": "H" 
			},
			{
				"x": 1.9113511593,
				"y": -0.3053948746,
				"z": 1.6474018464,
				"element": "H" 
			},
			{
				"x": 2.4021579903,
				"y": 1.0098573735,
				"z": 2.727279435,
				"element": "H" 
			},
			{
				"x": 1.833167635,
				"y": -0.5269041193,
				"z": 3.4019515624,
				"element": "H" 
			},
			{
				"x": -4.9156549664,
				"y": -0.5014866316,
				"z": 2.5072100936,
				"element": "H" 
			},
			{
				"x": -3.8543345109,
				"y": 0.1354471512,
				"z": 3.7739807584,
				"element": "H" 
			},
			{
				"x": -3.9142395487,
				"y": 0.9196563863,
				"z": 2.1858766552,
				"element": "H" 
			},
			{
				"x": -1.7274284561,
				"y": -3.446612573,
				"z": 2.5209955181,
				"element": "H" 
			},
			{
				"x": -2.3686872525,
				"y": -2.7257822756,
				"z": 4.006901809,
				"element": "H" 
			},
			{
				"x": -3.4766591466,
				"y": -3.3597902541,
				"z": 2.7768582801,
				"element": "H" 
			},
			{
				"x": -0.7388108467,
				"y": 0.2571000445,
				"z": -1.1530908748,
				"element": "H" 
			},
			{
				"x": -0.9101805182,
				"y": -0.4967642414,
				"z": -2.7532229103,
				"element": "H" 
			},
			{
				"x": -2.2393101098,
				"y": 0.4561192934,
				"z": -2.0684702547,
				"element": "H" 
			},
			{
				"x": -3.8611504366,
				"y": -3.4900679681,
				"z": -1.5104277077,
				"element": "H" 
			},
			{
				"x": -4.3214921229,
				"y": -1.9166246515,
				"z": -2.1784001022,
				"element": "H" 
			},
			{
				"x": -3.1011360548,
				"y": -2.9070096051,
				"z": -2.9991756181,
				"element": "H" 
			},
			{
				"x": 1.2017048097,
				"y": -6.0289629623,
				"z": -0.9537981912,
				"element": "H" 
			},
			{
				"x": -0.566892593,
				"y": -5.9439965178,
				"z": -1.0058549092,
				"element": "H" 
			},
			{
				"x": 0.2979981289,
				"y": -5.4689629957,
				"z": 0.4620677939,
				"element": "H" 
			},
			{
				"x": 1.9943482739,
				"y": -1.7695698152,
				"z": -1.0525253776,
				"element": "H" 
			},
			{
				"x": 1.9635677251,
				"y": -2.7217393786,
				"z": 0.4392926669,
				"element": "H" 
			},
			{
				"x": 2.872014553,
				"y": -3.3044284635,
				"z": -0.9655482622,
				"element": "H" 
			},
			{
				"x": 3.1211125794,
				"y": -4.9208627588,
				"z": -3.952382695,
				"element": "H" 
			},
			{
				"x": 2.5342540797,
				"y": -5.5715613135,
				"z": -5.4873427577,
				"element": "H" 
			},
			{
				"x": 1.9325051448,
				"y": -6.2321910626,
				"z": -3.9620935656,
				"element": "H" 
			},
			{
				"x": -1.5052049723,
				"y": -4.0317919274,
				"z": -5.3448763055,
				"element": "H" 
			},
			{
				"x": -1.0230967203,
				"y": -5.6637845821,
				"z": -4.8647858533,
				"element": "H" 
			},
			{
				"x": -0.4533831922,
				"y": -4.9884549879,
				"z": -6.3979421677,
				"element": "H" 
			},
			{
				"x": 2.2759580884,
				"y": -2.0269217588,
				"z": -4.8178724459,
				"element": "H" 
			},
			{
				"x": 0.6116488479,
				"y": -1.6990223921,
				"z": -5.3171436509,
				"element": "H" 
			},
			{
				"x": 1.680813833,
				"y": -2.6392894146,
				"z": -6.3674997398,
				"element": "H" 
			}
		],
		 "valence_orbital": [ 
			{
				"type": "occ",
				"energy": -0.27571,
				"method": "rhf"
			},
			{
				"type": "occ",
				"energy": -0.27183,
				"method": "rhf"
			},
			{
				"type": "occ",
				"energy": -0.26668,
				"method": "rhf"
			},
			{
				"type": "occ",
				"energy": -0.2619,
				"method": "rhf"
			},
			{
				"type": "occ",
				"energy": -0.25793,
				"method": "rhf"
			},
			{
				"type": "unocc",
				"energy": 0.04108,
				"method": "rhf"
			},
			{
				"type": "unocc",
				"energy": 0.05285,
				"method": "rhf"
			},
			{
				"type": "unocc",
				"energy": 0.06972,
				"method": "rhf"
			},
			{
				"type": "unocc",
				"energy": 0.07348,
				"method": "rhf"
			},
			{
				"type": "unocc",
				"energy": 0.07862,
				"method": "rhf"
			}
		],
		"cosmo_sigma_profile": { 
			"-0.025": 0.0,
			"-0.024": 0.0,
			"-0.023": 0.0,
			"-0.022": 0.0,
			"-0.021": 0.0,
			"-0.02": 0.0,
			"-0.019": 0.0,
			"-0.018": 0.0,
			"-0.017": 0.0,
			"-0.016": 0.0,
			"-0.015": 0.0,
			"-0.014": 0.0,
			"-0.013": 0.0,
			"-0.012": 0.0,
			"-0.011": 0.0,
			"-0.01": 0.0,
			"-0.009": 0.0,
			"-0.008": 0.0,
			"-0.007": 0.0,
			"-0.006": 0.0,
			"-0.005": 0.161985232336,
			"-0.004": 27.4290784356,
			"-0.003": 76.9308963358,
			"-0.002": 95.9565691485,
			"-0.001": 109.928099844,
			"0.0": 100.672155423,
			"0.001": 112.645689523,
			"0.002": 69.1639429114,
			"0.003": 38.3729823394,
			"0.004": 18.0023503358,
			"0.005": 12.3648953583,
			"0.006": 7.80570713553,
			"0.007": 5.39696337131,
			"0.008": 3.2271056956,
			"0.009": 1.56820590661,
			"0.01": 0.94037027709,
			"0.011": 0.0,
			"0.012": 0.0,
			"0.013": 0.0,
			"0.014": 0.0,
			"0.015": 0.0,
			"0.016": 0.0,
			"0.017": 0.0,
			"0.018": 0.0,
			"0.019": 0.0,
			"0.02": 0.0,
			"0.021": 0.0,
			"0.022": 0.0,
			"0.023": 0.0,
			"0.024": 0.0,
			"0.025": 0.0
		}
	}
}
