{
	 "smiles": "FC(F)(F)C1=C(C=CC(Cl)=C1)C1=CC=C(S1)C=O", 
	 "Tm": 332.15, 
	 "num_atms": 24, 
	 "gaussian": { 
		 "optdone": 1, 
		 "sigma_profile": "yes", 
		 "theory": "DFT", 
		 "functional": "B3LYP", 
		 "basiset": "6-31G**", 
		 "properties": { 
			 "R2extent": 7619.3864, 
			 "electric_dipole_moment_norm": 3.13938617089, 
			 "electric_quadrupole_moment_norm": 22.1933097613, 
			 "total_energy": -1694.00176364, 
			 "HOMO_LUMO_gap": 0.15897, 
			 "cosmo_polarized_energy": -9.19, 
			 "cosmo_cavitation_energy": 33.8, 
			 "cosmo_dispersion_energy": -24.3, 
			 "cosmo_repulsion_energy": 1.77, 
			 "cosmo_total_nonelectrostatic_energy": 11.26, 
			 "SMD_solvation_energy": 7.08 
		},
		"coords": [
			{
				"x": 0.9523741819,
				"y": -0.7326946265,
				"z": 0.5669613321,
				"element": "F" 
			},
			{
				"x": 0.7011202796,
				"y": 0.5595198219,
				"z": 0.8996194207,
				"element": "C" 
			},
			{
				"x": 1.6185690278,
				"y": 0.8987254263,
				"z": 1.8300336205,
				"element": "F" 
			},
			{
				"x": -0.5029544362,
				"y": 0.5929353153,
				"z": 1.4993119961,
				"element": "F" 
			},
			{
				"x": 0.7696373676,
				"y": 1.4699318663,
				"z": -0.3085696846,
				"element": "C" 
			},
			{
				"x": -0.2503618054,
				"y": 1.5088042259,
				"z": -1.2893036232,
				"element": "C" 
			},
			{
				"x": -0.0972946579,
				"y": 2.4206246711,
				"z": -2.3494402146,
				"element": "C" 
			},
			{
				"x": 1.0142545814,
				"y": 3.2494770098,
				"z": -2.4614283071,
				"element": "C" 
			},
			{
				"x": 2.0108609724,
				"y": 3.1738863636,
				"z": -1.4922965958,
				"element": "C" 
			},
			{
				"x": 3.4255709294,
				"y": 4.1984215493,
				"z": -1.6124160175,
				"element": "Cl" 
			},
			{
				"x": 1.8918568045,
				"y": 2.2935634224,
				"z": -0.4202972861,
				"element": "C" 
			},
			{
				"x": -1.461637739,
				"y": 0.6644013593,
				"z": -1.2620849453,
				"element": "C" 
			},
			{
				"x": -1.5820742415,
				"y": -0.7024839583,
				"z": -1.0936169052,
				"element": "C" 
			},
			{
				"x": -2.9136812085,
				"y": -1.164190412,
				"z": -1.1921860656,
				"element": "C" 
			},
			{
				"x": -3.82338361,
				"y": -0.1557058644,
				"z": -1.4343085964,
				"element": "C" 
			},
			{
				"x": -3.0235292479,
				"y": 1.3918941131,
				"z": -1.5405208054,
				"element": "S" 
			},
			{
				"x": -5.2738471016,
				"y": -0.2899295481,
				"z": -1.5865808594,
				"element": "C" 
			},
			{
				"x": -5.858288439,
				"y": -1.3567151443,
				"z": -1.5168246172,
				"element": "O" 
			},
			{
				"x": -0.8633129363,
				"y": 2.4613233631,
				"z": -3.1167631023,
				"element": "H" 
			},
			{
				"x": 1.1093054963,
				"y": 3.9373421945,
				"z": -3.2940457961,
				"element": "H" 
			},
			{
				"x": 2.6621559221,
				"y": 2.2598471904,
				"z": 0.3388804028,
				"element": "H" 
			},
			{
				"x": -0.7311527595,
				"y": -1.3452715938,
				"z": -0.9140865963,
				"element": "H" 
			},
			{
				"x": -3.2204395664,
				"y": -2.1990792593,
				"z": -1.0986639691,
				"element": "H" 
			},
			{
				"x": -5.8249478137,
				"y": 0.6565725145,
				"z": -1.7741727852,
				"element": "H" 
			}
		],
		 "valence_orbital": [ 
			{
				"type": "occ",
				"energy": -0.29408,
				"method": "rhf"
			},
			{
				"type": "occ",
				"energy": -0.28421,
				"method": "rhf"
			},
			{
				"type": "occ",
				"energy": -0.27554,
				"method": "rhf"
			},
			{
				"type": "occ",
				"energy": -0.26237,
				"method": "rhf"
			},
			{
				"type": "occ",
				"energy": -0.24384,
				"method": "rhf"
			},
			{
				"type": "unocc",
				"energy": -0.08487,
				"method": "rhf"
			},
			{
				"type": "unocc",
				"energy": -0.05013,
				"method": "rhf"
			},
			{
				"type": "unocc",
				"energy": -0.04218,
				"method": "rhf"
			},
			{
				"type": "unocc",
				"energy": 0.00527,
				"method": "rhf"
			},
			{
				"type": "unocc",
				"energy": 0.01193,
				"method": "rhf"
			}
		],
		"cosmo_sigma_profile": { 
			"-0.025": 0.0,
			"-0.024": 0.0,
			"-0.023": 0.0,
			"-0.022": 0.0,
			"-0.021": 0.0,
			"-0.02": 0.0,
			"-0.019": 0.0,
			"-0.018": 0.0,
			"-0.017": 0.0,
			"-0.016": 0.0,
			"-0.015": 0.0,
			"-0.014": 0.0,
			"-0.013": 0.0,
			"-0.012": 0.0,
			"-0.011": 0.0,
			"-0.01": 0.0,
			"-0.009": 0.507797528327,
			"-0.008": 7.2012122745,
			"-0.007": 10.5314811609,
			"-0.006": 11.1903206923,
			"-0.005": 12.1444621184,
			"-0.004": 13.0505416138,
			"-0.003": 15.3389995982,
			"-0.002": 18.9883736157,
			"-0.001": 23.343127021,
			"0.0": 32.6638963323,
			"0.001": 35.9851245095,
			"0.002": 41.0887751231,
			"0.003": 24.9622300467,
			"0.004": 10.7520707268,
			"0.005": 2.5869378412,
			"0.006": 1.24216387189,
			"0.007": 1.3445930551,
			"0.008": 1.43049596099,
			"0.009": 2.06037589898,
			"0.01": 3.00066639207,
			"0.011": 4.06414338821,
			"0.012": 3.36941419936,
			"0.013": 0.699103119654,
			"0.014": 0.0,
			"0.015": 0.0,
			"0.016": 0.0,
			"0.017": 0.0,
			"0.018": 0.0,
			"0.019": 0.0,
			"0.02": 0.0,
			"0.021": 0.0,
			"0.022": 0.0,
			"0.023": 0.0,
			"0.024": 0.0,
			"0.025": 0.0
		}
	}
}
