{
	 "smiles": "COC1=C(O)C=CC(C=C(C#N)C(O)=O)=C1", 
	 "Tm": 473.15, 
	 "num_atms": 25, 
	 "gaussian": { 
		 "optdone": 1, 
		 "sigma_profile": "yes", 
		 "theory": "DFT", 
		 "functional": "B3LYP", 
		 "basiset": "6-31G**", 
		 "properties": { 
			 "R2extent": 5622.9791, 
			 "electric_dipole_moment_norm": 6.12684169699, 
			 "electric_quadrupole_moment_norm": 4.36937966993, 
			 "total_energy": -780.213832166, 
			 "HOMO_LUMO_gap": 0.13723, 
			 "cosmo_polarized_energy": -18.17, 
			 "cosmo_cavitation_energy": 31.42, 
			 "cosmo_dispersion_energy": -22.37, 
			 "cosmo_repulsion_energy": 1.74, 
			 "cosmo_total_nonelectrostatic_energy": 10.78, 
			 "SMD_solvation_energy": 8.98 
		},
		"coords": [
			{
				"x": 1.5425405098,
				"y": 2.8410966448,
				"z": 1.4124561943,
				"element": "C" 
			},
			{
				"x": 0.3418131981,
				"y": 2.5553400365,
				"z": 0.7057381102,
				"element": "O" 
			},
			{
				"x": 0.1296049123,
				"y": 1.2695308524,
				"z": 0.2797999906,
				"element": "C" 
			},
			{
				"x": -1.0924423752,
				"y": 1.1011621709,
				"z": -0.4124131157,
				"element": "C" 
			},
			{
				"x": -1.9162601925,
				"y": 2.1554617883,
				"z": -0.5951889672,
				"element": "O" 
			},
			{
				"x": -1.4412858023,
				"y": -0.1568728411,
				"z": -0.9041871045,
				"element": "C" 
			},
			{
				"x": -0.5958503212,
				"y": -1.2438199736,
				"z": -0.7179366014,
				"element": "C" 
			},
			{
				"x": 0.6269764077,
				"y": -1.0958102225,
				"z": -0.0302429001,
				"element": "C" 
			},
			{
				"x": 1.5749610394,
				"y": -2.1582168276,
				"z": 0.2167442048,
				"element": "C" 
			},
			{
				"x": 1.5760342657,
				"y": -3.4860968079,
				"z": -0.1052129686,
				"element": "C" 
			},
			{
				"x": 0.537625521,
				"y": -4.1532836696,
				"z": -0.8205857155,
				"element": "C" 
			},
			{
				"x": -0.3151238565,
				"y": -4.6898448111,
				"z": -1.4052651562,
				"element": "N" 
			},
			{
				"x": 2.7565968091,
				"y": -4.2839629489,
				"z": 0.3300306777,
				"element": "C" 
			},
			{
				"x": 2.6618920407,
				"y": -5.5804550116,
				"z": -0.035110778,
				"element": "O" 
			},
			{
				"x": 3.7069274392,
				"y": -3.838855488,
				"z": 0.9443735097,
				"element": "O" 
			},
			{
				"x": 0.9724772936,
				"y": 0.1890168141,
				"z": 0.4662237312,
				"element": "C" 
			},
			{
				"x": 2.4248266143,
				"y": 2.6346816003,
				"z": 0.7946604612,
				"element": "H" 
			},
			{
				"x": 1.604007196,
				"y": 2.2602250575,
				"z": 2.3406397038,
				"element": "H" 
			},
			{
				"x": 1.5082598926,
				"y": 3.9043944019,
				"z": 1.6518556724,
				"element": "H" 
			},
			{
				"x": -1.4956764651,
				"y": 2.9276586941,
				"z": -0.183452968,
				"element": "H" 
			},
			{
				"x": -2.3829730347,
				"y": -0.2626206342,
				"z": -1.4318176396,
				"element": "H" 
			},
			{
				"x": -0.8898859894,
				"y": -2.2088366902,
				"z": -1.1093286527,
				"element": "H" 
			},
			{
				"x": 2.4686162166,
				"y": -1.8637125658,
				"z": 0.76436795,
				"element": "H" 
			},
			{
				"x": 3.4685205904,
				"y": -6.0133488901,
				"z": 0.2895020406,
				"element": "H" 
			},
			{
				"x": 1.9107180907,
				"y": 0.3106693215,
				"z": 0.995850321,
				"element": "H" 
			}
		],
		 "valence_orbital": [ 
			{
				"type": "occ",
				"energy": -0.32508,
				"method": "rhf"
			},
			{
				"type": "occ",
				"energy": -0.28852,
				"method": "rhf"
			},
			{
				"type": "occ",
				"energy": -0.28259,
				"method": "rhf"
			},
			{
				"type": "occ",
				"energy": -0.25815,
				"method": "rhf"
			},
			{
				"type": "occ",
				"energy": -0.22319,
				"method": "rhf"
			},
			{
				"type": "unocc",
				"energy": -0.08596,
				"method": "rhf"
			},
			{
				"type": "unocc",
				"energy": -0.01246,
				"method": "rhf"
			},
			{
				"type": "unocc",
				"energy": 0.01645,
				"method": "rhf"
			},
			{
				"type": "unocc",
				"energy": 0.0291,
				"method": "rhf"
			},
			{
				"type": "unocc",
				"energy": 0.03232,
				"method": "rhf"
			}
		],
		"cosmo_sigma_profile": { 
			"-0.025": 0.0,
			"-0.024": 0.0,
			"-0.023": 0.0,
			"-0.022": 0.0,
			"-0.021": 0.0,
			"-0.02": 0.0,
			"-0.019": 0.352729394109,
			"-0.018": 1.06999381373,
			"-0.017": 0.946939707882,
			"-0.016": 0.675907567178,
			"-0.015": 1.31564536861,
			"-0.014": 1.40674711472,
			"-0.013": 1.58606032455,
			"-0.012": 0.872348069006,
			"-0.011": 1.50706766685,
			"-0.01": 1.5198133025,
			"-0.009": 2.94958137579,
			"-0.008": 4.55483946174,
			"-0.007": 8.09958694833,
			"-0.006": 13.4384698703,
			"-0.005": 14.1317946187,
			"-0.004": 15.5875741876,
			"-0.003": 16.0567448185,
			"-0.002": 16.1454025433,
			"-0.001": 20.4451549,
			"0.0": 18.9949415892,
			"0.001": 17.9529668633,
			"0.002": 19.3393688344,
			"0.003": 11.3465376042,
			"0.004": 7.91970604685,
			"0.005": 6.96277590029,
			"0.006": 4.79621980978,
			"0.007": 7.96924763935,
			"0.008": 7.73131030741,
			"0.009": 6.94533095498,
			"0.01": 6.66274822461,
			"0.011": 7.66325893635,
			"0.012": 4.09988926748,
			"0.013": 1.41118637541,
			"0.014": 0.0220925861239,
			"0.015": 0.0,
			"0.016": 0.0,
			"0.017": 0.0,
			"0.018": 0.0,
			"0.019": 0.0,
			"0.02": 0.0,
			"0.021": 0.0,
			"0.022": 0.0,
			"0.023": 0.0,
			"0.024": 0.0,
			"0.025": 0.0
		}
	}
}
