{
	 "smiles": "COC1=C(OC)C=C(C=C1)C1=CC=C(C#N)C(=O)N1", 
	 "Tm": 546.15, 
	 "num_atms": 31, 
	 "gaussian": { 
		 "optdone": 1, 
		 "sigma_profile": "yes", 
		 "theory": "DFT", 
		 "functional": "B3LYP", 
		 "basiset": "6-31G**", 
		 "properties": { 
			 "R2extent": 8263.5424, 
			 "electric_dipole_moment_norm": 10.4924301423, 
			 "electric_quadrupole_moment_norm": 50.4925215488, 
			 "total_energy": -875.860976735, 
			 "HOMO_LUMO_gap": 0.14167, 
			 "cosmo_polarized_energy": -24.17, 
			 "cosmo_cavitation_energy": 36.98, 
			 "cosmo_dispersion_energy": -25.88, 
			 "cosmo_repulsion_energy": 1.99, 
			 "cosmo_total_nonelectrostatic_energy": 13.09, 
			 "SMD_solvation_energy": 9.84 
		},
		"coords": [
			{
				"x": -3.5174103377,
				"y": 0.4646398361,
				"z": -1.9884960984,
				"element": "C" 
			},
			{
				"x": -2.9865074349,
				"y": 0.9302767975,
				"z": -0.7409690232,
				"element": "O" 
			},
			{
				"x": -1.8635435113,
				"y": 0.316763514,
				"z": -0.2669109717,
				"element": "C" 
			},
			{
				"x": -0.6259941407,
				"y": 0.3508143298,
				"z": -0.9591437917,
				"element": "C" 
			},
			{
				"x": -0.6230137956,
				"y": 1.0122151272,
				"z": -2.1494919136,
				"element": "O" 
			},
			{
				"x": 0.6014351252,
				"y": 1.1173474723,
				"z": -2.8642312518,
				"element": "C" 
			},
			{
				"x": 0.4961496216,
				"y": -0.2478389369,
				"z": -0.3883659667,
				"element": "C" 
			},
			{
				"x": 0.4232177217,
				"y": -0.8686320182,
				"z": 0.8735771521,
				"element": "C" 
			},
			{
				"x": -0.79790726,
				"y": -0.8780931296,
				"z": 1.5599289276,
				"element": "C" 
			},
			{
				"x": -1.9250374045,
				"y": -0.294776285,
				"z": 0.983054269,
				"element": "C" 
			},
			{
				"x": 1.6274301297,
				"y": -1.4945474746,
				"z": 1.450615655,
				"element": "C" 
			},
			{
				"x": 2.5977128293,
				"y": -2.1412826058,
				"z": 0.7102784354,
				"element": "C" 
			},
			{
				"x": 3.7006076788,
				"y": -2.7202331785,
				"z": 1.3726749071,
				"element": "C" 
			},
			{
				"x": 3.8378918991,
				"y": -2.6684279622,
				"z": 2.7461748314,
				"element": "C" 
			},
			{
				"x": 4.9591446396,
				"y": -3.2597429558,
				"z": 3.3996684233,
				"element": "C" 
			},
			{
				"x": 5.8858449735,
				"y": -3.7533161894,
				"z": 3.9018962355,
				"element": "N" 
			},
			{
				"x": 2.8355389288,
				"y": -1.9937942063,
				"z": 3.5713507339,
				"element": "C" 
			},
			{
				"x": 2.8425153121,
				"y": -1.8635146435,
				"z": 4.786167354,
				"element": "O" 
			},
			{
				"x": 1.7804360407,
				"y": -1.44503836,
				"z": 2.8082488327,
				"element": "N" 
			},
			{
				"x": -2.8339188266,
				"y": 0.6626909233,
				"z": -2.8170791317,
				"element": "H" 
			},
			{
				"x": -4.4480214082,
				"y": 1.0146803319,
				"z": -2.1375874225,
				"element": "H" 
			},
			{
				"x": -3.7367966883,
				"y": -0.6090851099,
				"z": -1.9383089817,
				"element": "H" 
			},
			{
				"x": 0.3728030085,
				"y": 1.686856721,
				"z": -3.765620821,
				"element": "H" 
			},
			{
				"x": 0.9897144392,
				"y": 0.1309714402,
				"z": -3.1475231633,
				"element": "H" 
			},
			{
				"x": 1.3608606455,
				"y": 1.652321713,
				"z": -2.2810371724,
				"element": "H" 
			},
			{
				"x": 1.4525398289,
				"y": -0.1986315354,
				"z": -0.8932024995,
				"element": "H" 
			},
			{
				"x": -0.8919124244,
				"y": -1.3846564656,
				"z": 2.5155457158,
				"element": "H" 
			},
			{
				"x": -2.8830839213,
				"y": -0.3056555786,
				"z": 1.4919073898,
				"element": "H" 
			},
			{
				"x": 2.4838080902,
				"y": -2.2389801392,
				"z": -0.3608584149,
				"element": "H" 
			},
			{
				"x": 4.4605927185,
				"y": -3.2328969233,
				"z": 0.7904244946,
				"element": "H" 
			},
			{
				"x": 1.1136035228,
				"y": -0.9231345087,
				"z": 3.3649132669,
				"element": "H" 
			}
		],
		 "valence_orbital": [ 
			{
				"type": "occ",
				"energy": -0.29974,
				"method": "rhf"
			},
			{
				"type": "occ",
				"energy": -0.2694,
				"method": "rhf"
			},
			{
				"type": "occ",
				"energy": -0.26493,
				"method": "rhf"
			},
			{
				"type": "occ",
				"energy": -0.24575,
				"method": "rhf"
			},
			{
				"type": "occ",
				"energy": -0.22308,
				"method": "rhf"
			},
			{
				"type": "unocc",
				"energy": -0.08141,
				"method": "rhf"
			},
			{
				"type": "unocc",
				"energy": -0.02631,
				"method": "rhf"
			},
			{
				"type": "unocc",
				"energy": -0.01839,
				"method": "rhf"
			},
			{
				"type": "unocc",
				"energy": 0.00735,
				"method": "rhf"
			},
			{
				"type": "unocc",
				"energy": 0.04311,
				"method": "rhf"
			}
		],
		"cosmo_sigma_profile": { 
			"-0.025": 0.0,
			"-0.024": 0.0,
			"-0.023": 0.0,
			"-0.022": 0.0,
			"-0.021": 0.0,
			"-0.02": 0.0,
			"-0.019": 0.0,
			"-0.018": 0.0,
			"-0.017": 0.0,
			"-0.016": 0.0422393263137,
			"-0.015": 0.843706908298,
			"-0.014": 1.08472798034,
			"-0.013": 1.25492867083,
			"-0.012": 1.20181697147,
			"-0.011": 1.40195894775,
			"-0.01": 1.15163781694,
			"-0.009": 3.46537862809,
			"-0.008": 6.70410421551,
			"-0.007": 11.4566150126,
			"-0.006": 17.3415354963,
			"-0.005": 20.2308331951,
			"-0.004": 22.4393268883,
			"-0.003": 27.468699919,
			"-0.002": 23.4365266903,
			"-0.001": 19.9949425981,
			"0.0": 20.8263440329,
			"0.001": 17.7624836354,
			"0.002": 14.9145400539,
			"0.003": 14.6975082836,
			"0.004": 7.93782279413,
			"0.005": 4.87300274454,
			"0.006": 5.85115044026,
			"0.007": 8.09701467539,
			"0.008": 6.67847401828,
			"0.009": 7.91063678434,
			"0.01": 6.80142249043,
			"0.011": 6.36201165844,
			"0.012": 4.87428113902,
			"0.013": 8.41548457437,
			"0.014": 1.55333850178,
			"0.015": 0.0,
			"0.016": 0.0,
			"0.017": 0.0,
			"0.018": 0.0,
			"0.019": 0.0,
			"0.02": 0.0,
			"0.021": 0.0,
			"0.022": 0.0,
			"0.023": 0.0,
			"0.024": 0.0,
			"0.025": 0.0
		}
	}
}
