{
	 "smiles": "OC(=O)COCC(O)=O", 
	 "Tm": 419.15, 
	 "num_atms": 15, 
	 "gaussian": { 
		 "optdone": 1, 
		 "sigma_profile": "yes", 
		 "theory": "DFT", 
		 "functional": "B3LYP", 
		 "basiset": "6-31G**", 
		 "properties": { 
			 "R2extent": 2333.5746, 
			 "electric_dipole_moment_norm": 2.79067076345, 
			 "electric_quadrupole_moment_norm": 16.8832505321, 
			 "total_energy": -532.154388783, 
			 "HOMO_LUMO_gap": 0.25853, 
			 "cosmo_polarized_energy": -20.15, 
			 "cosmo_cavitation_energy": 20.06, 
			 "cosmo_dispersion_energy": -14.81, 
			 "cosmo_repulsion_energy": 1.26, 
			 "cosmo_total_nonelectrostatic_energy": 6.51, 
			 "SMD_solvation_energy": 6.2 
		},
		"coords": [
			{
				"x": 0.6225656871,
				"y": 2.8438594112,
				"z": -3.7112550071,
				"element": "O" 
			},
			{
				"x": -0.1384595519,
				"y": 2.1878100137,
				"z": -2.795693929,
				"element": "C" 
			},
			{
				"x": -1.3357276949,
				"y": 2.1406072067,
				"z": -2.9141755355,
				"element": "O" 
			},
			{
				"x": 0.6606738509,
				"y": 1.527600788,
				"z": -1.6682360164,
				"element": "C" 
			},
			{
				"x": -0.1425848964,
				"y": 0.9427219786,
				"z": -0.67405645,
				"element": "O" 
			},
			{
				"x": -0.8496669738,
				"y": -0.2178195677,
				"z": -1.0503294283,
				"element": "C" 
			},
			{
				"x": 0.0482513654,
				"y": -1.4332703682,
				"z": -1.2325394024,
				"element": "C" 
			},
			{
				"x": -0.6948496161,
				"y": -2.5552981193,
				"z": -1.3559326865,
				"element": "O" 
			},
			{
				"x": 1.2581549586,
				"y": -1.4279329704,
				"z": -1.2877657763,
				"element": "O" 
			},
			{
				"x": 1.5618300482,
				"y": 2.7898391043,
				"z": -3.4798227475,
				"element": "H" 
			},
			{
				"x": 1.2525519395,
				"y": 2.300226625,
				"z": -1.162520374,
				"element": "H" 
			},
			{
				"x": 1.3670068297,
				"y": 0.8041600895,
				"z": -2.1002111964,
				"element": "H" 
			},
			{
				"x": -1.4367651063,
				"y": -0.0670748849,
				"z": -1.9651166345,
				"element": "H" 
			},
			{
				"x": -1.5590783176,
				"y": -0.4274297204,
				"z": -0.244744029,
				"element": "H" 
			},
			{
				"x": -0.0710025224,
				"y": -3.2875995862,
				"z": -1.4966007873,
				"element": "H" 
			}
		],
		 "valence_orbital": [ 
			{
				"type": "occ",
				"energy": -0.33329,
				"method": "rhf"
			},
			{
				"type": "occ",
				"energy": -0.3253,
				"method": "rhf"
			},
			{
				"type": "occ",
				"energy": -0.30979,
				"method": "rhf"
			},
			{
				"type": "occ",
				"energy": -0.29054,
				"method": "rhf"
			},
			{
				"type": "occ",
				"energy": -0.26301,
				"method": "rhf"
			},
			{
				"type": "unocc",
				"energy": -0.00448,
				"method": "rhf"
			},
			{
				"type": "unocc",
				"energy": 0.00418,
				"method": "rhf"
			},
			{
				"type": "unocc",
				"energy": 0.04408,
				"method": "rhf"
			},
			{
				"type": "unocc",
				"energy": 0.06619,
				"method": "rhf"
			},
			{
				"type": "unocc",
				"energy": 0.09014,
				"method": "rhf"
			}
		],
		"cosmo_sigma_profile": { 
			"-0.025": 0.0,
			"-0.024": 0.0,
			"-0.023": 0.0,
			"-0.022": 0.0,
			"-0.021": 0.0,
			"-0.02": 0.760972581168,
			"-0.019": 1.27463110417,
			"-0.018": 2.5757361434,
			"-0.017": 1.86241127757,
			"-0.016": 1.50160922286,
			"-0.015": 2.46995832801,
			"-0.014": 1.70066447879,
			"-0.013": 1.45965839677,
			"-0.012": 2.2133683853,
			"-0.011": 2.56497426723,
			"-0.01": 2.35416074663,
			"-0.009": 3.60915820096,
			"-0.008": 6.47173060223,
			"-0.007": 7.37002166438,
			"-0.006": 7.62944896966,
			"-0.005": 6.95039253416,
			"-0.004": 5.34267922423,
			"-0.003": 6.10015629653,
			"-0.002": 5.87011283425,
			"-0.001": 4.96959816456,
			"0.0": 4.67823432196,
			"0.001": 4.00365230952,
			"0.002": 5.83028833632,
			"0.003": 4.91810462931,
			"0.004": 4.576693125,
			"0.005": 5.39116597983,
			"0.006": 6.36242945113,
			"0.007": 5.14119499734,
			"0.008": 7.91529116942,
			"0.009": 9.00447580984,
			"0.01": 10.3637499689,
			"0.011": 11.070455745,
			"0.012": 3.70210668839,
			"0.013": 0.393635707068,
			"0.014": 0.0,
			"0.015": 0.0,
			"0.016": 0.0,
			"0.017": 0.0,
			"0.018": 0.0,
			"0.019": 0.0,
			"0.02": 0.0,
			"0.021": 0.0,
			"0.022": 0.0,
			"0.023": 0.0,
			"0.024": 0.0,
			"0.025": 0.0
		}
	}
}
