{
	 "smiles": "OC1=CC=C(CNC2CCCCC2)C=C1", 
	 "Tm": 379.15, 
	 "num_atms": 34, 
	 "gaussian": { 
		 "optdone": 1, 
		 "sigma_profile": "yes", 
		 "theory": "DFT", 
		 "functional": "B3LYP", 
		 "basiset": "6-31G**", 
		 "properties": { 
			 "R2extent": 4753.3096, 
			 "electric_dipole_moment_norm": 1.94896227773, 
			 "electric_quadrupole_moment_norm": 10.9285769307, 
			 "total_energy": -636.805583912, 
			 "HOMO_LUMO_gap": 0.21144, 
			 "cosmo_polarized_energy": -10.16, 
			 "cosmo_cavitation_energy": 34.11, 
			 "cosmo_dispersion_energy": -24.57, 
			 "cosmo_repulsion_energy": 1.95, 
			 "cosmo_total_nonelectrostatic_energy": 11.48, 
			 "SMD_solvation_energy": 3.84 
		},
		"coords": [
			{
				"x": -4.6018659774,
				"y": -0.2308540413,
				"z": 2.854596373,
				"element": "O" 
			},
			{
				"x": -3.8356979597,
				"y": -0.507194596,
				"z": 1.7542408829,
				"element": "C" 
			},
			{
				"x": -4.0453131194,
				"y": 0.1006498146,
				"z": 0.5136147006,
				"element": "C" 
			},
			{
				"x": -3.2214296412,
				"y": -0.2248146585,
				"z": -0.5660822862,
				"element": "C" 
			},
			{
				"x": -2.1862638624,
				"y": -1.1542710612,
				"z": -0.4359612567,
				"element": "C" 
			},
			{
				"x": -1.3424015957,
				"y": -1.5537464245,
				"z": -1.6374701344,
				"element": "C" 
			},
			{
				"x": 0.0565057612,
				"y": -1.8479935235,
				"z": -1.3117902408,
				"element": "N" 
			},
			{
				"x": 1.0335326605,
				"y": -0.7474209811,
				"z": -1.3908306582,
				"element": "C" 
			},
			{
				"x": 0.7073610609,
				"y": 0.4124006072,
				"z": -0.4402370803,
				"element": "C" 
			},
			{
				"x": 1.9113622386,
				"y": 1.3777956655,
				"z": -0.3157538653,
				"element": "C" 
			},
			{
				"x": 2.7391453169,
				"y": 1.4786883555,
				"z": -1.6206786837,
				"element": "C" 
			},
			{
				"x": 1.8601758213,
				"y": 1.2236699049,
				"z": -2.8517660026,
				"element": "C" 
			},
			{
				"x": 1.2807324943,
				"y": -0.2102474396,
				"z": -2.8317199742,
				"element": "C" 
			},
			{
				"x": -1.9907573136,
				"y": -1.7529311381,
				"z": 0.81680265,
				"element": "C" 
			},
			{
				"x": -2.8000446316,
				"y": -1.4373821961,
				"z": 1.9035852717,
				"element": "C" 
			},
			{
				"x": -5.2727794604,
				"y": 0.4206802926,
				"z": 2.613451654,
				"element": "H" 
			},
			{
				"x": -4.8427940707,
				"y": 0.8315060516,
				"z": 0.3919795025,
				"element": "H" 
			},
			{
				"x": -3.3922960436,
				"y": 0.2591215689,
				"z": -1.5254821488,
				"element": "H" 
			},
			{
				"x": -1.7664843662,
				"y": -2.4723382673,
				"z": -2.0651362503,
				"element": "H" 
			},
			{
				"x": -1.4592299226,
				"y": -0.7846277573,
				"z": -2.4198591697,
				"element": "H" 
			},
			{
				"x": 0.3821947054,
				"y": -2.604817543,
				"z": -1.9049004382,
				"element": "H" 
			},
			{
				"x": 1.9749240426,
				"y": -1.1898857296,
				"z": -1.0357039477,
				"element": "H" 
			},
			{
				"x": 0.4278771268,
				"y": 0.019994875,
				"z": 0.5413551432,
				"element": "H" 
			},
			{
				"x": -0.1701233979,
				"y": 0.9546275256,
				"z": -0.8132568704,
				"element": "H" 
			},
			{
				"x": 2.5637694847,
				"y": 1.0499791745,
				"z": 0.5023962422,
				"element": "H" 
			},
			{
				"x": 1.542269541,
				"y": 2.3703197545,
				"z": -0.0320912043,
				"element": "H" 
			},
			{
				"x": 3.5514780923,
				"y": 0.7399137288,
				"z": -1.6072282197,
				"element": "H" 
			},
			{
				"x": 3.2233892377,
				"y": 2.4595658011,
				"z": -1.6863237781,
				"element": "H" 
			},
			{
				"x": 1.0411583097,
				"y": 1.9548352945,
				"z": -2.8597277094,
				"element": "H" 
			},
			{
				"x": 2.4257358454,
				"y": 1.3904278183,
				"z": -3.7757230059,
				"element": "H" 
			},
			{
				"x": 0.3415564516,
				"y": -0.2283195569,
				"z": -3.3973541724,
				"element": "H" 
			},
			{
				"x": 1.9634194677,
				"y": -0.8976009002,
				"z": -3.3484162928,
				"element": "H" 
			},
			{
				"x": -1.1769298332,
				"y": -2.4623881894,
				"z": 0.9297233068,
				"element": "H" 
			},
			{
				"x": -2.6469764628,
				"y": -1.8979422295,
				"z": 2.8744476633,
				"element": "H" 
			}
		],
		 "valence_orbital": [ 
			{
				"type": "occ",
				"energy": -0.29778,
				"method": "rhf"
			},
			{
				"type": "occ",
				"energy": -0.29122,
				"method": "rhf"
			},
			{
				"type": "occ",
				"energy": -0.24297,
				"method": "rhf"
			},
			{
				"type": "occ",
				"energy": -0.21523,
				"method": "rhf"
			},
			{
				"type": "occ",
				"energy": -0.20651,
				"method": "rhf"
			},
			{
				"type": "unocc",
				"energy": 0.00493,
				"method": "rhf"
			},
			{
				"type": "unocc",
				"energy": 0.01949,
				"method": "rhf"
			},
			{
				"type": "unocc",
				"energy": 0.0762,
				"method": "rhf"
			},
			{
				"type": "unocc",
				"energy": 0.0784,
				"method": "rhf"
			},
			{
				"type": "unocc",
				"energy": 0.09391,
				"method": "rhf"
			}
		],
		"cosmo_sigma_profile": { 
			"-0.025": 0.0,
			"-0.024": 0.0,
			"-0.023": 0.0,
			"-0.022": 0.0,
			"-0.021": 0.0,
			"-0.02": 0.0,
			"-0.019": 0.0,
			"-0.018": 0.0599437876571,
			"-0.017": 0.853515702735,
			"-0.016": 1.29939661504,
			"-0.015": 0.951907434964,
			"-0.014": 0.784432014043,
			"-0.013": 1.07962860962,
			"-0.012": 1.05901707701,
			"-0.011": 0.777158231797,
			"-0.01": 1.27790611812,
			"-0.009": 2.81852353063,
			"-0.008": 2.21628330685,
			"-0.007": 2.08308315964,
			"-0.006": 3.99789260756,
			"-0.005": 7.94983719659,
			"-0.004": 9.51715007172,
			"-0.003": 15.2832724936,
			"-0.002": 32.2837709122,
			"-0.001": 39.2443669045,
			"0.0": 35.9026345537,
			"0.001": 26.3981474375,
			"0.002": 18.9512384068,
			"0.003": 9.75147573784,
			"0.004": 11.5589048206,
			"0.005": 11.6248816125,
			"0.006": 10.5742429078,
			"0.007": 4.00066006197,
			"0.008": 1.9247472877,
			"0.009": 2.56183934001,
			"0.01": 2.51259086974,
			"0.011": 2.30136826961,
			"0.012": 2.49620235201,
			"0.013": 0.475661940113,
			"0.014": 0.250645446872,
			"0.015": 0.0,
			"0.016": 0.0,
			"0.017": 0.0,
			"0.018": 0.0,
			"0.019": 0.0,
			"0.02": 0.0,
			"0.021": 0.0,
			"0.022": 0.0,
			"0.023": 0.0,
			"0.024": 0.0,
			"0.025": 0.0
		}
	}
}
