{
	 "smiles": "[O-][N+](=O)C1=CC=C(SSC2=CC=C(C=C2)[N+]([O-])=O)C=C1", 
	 "Tm": 455.15, 
	 "num_atms": 28, 
	 "gaussian": { 
		 "optdone": 1, 
		 "sigma_profile": "yes", 
		 "theory": "DFT", 
		 "functional": "B3LYP", 
		 "basiset": "6-31G**", 
		 "properties": { 
			 "R2extent": 10365.2903, 
			 "electric_dipole_moment_norm": 4.39185226186, 
			 "electric_quadrupole_moment_norm": 30.6163436115, 
			 "total_energy": -1668.66798104, 
			 "HOMO_LUMO_gap": 0.16149, 
			 "cosmo_polarized_energy": -15.09, 
			 "cosmo_cavitation_energy": 38.14, 
			 "cosmo_dispersion_energy": -28.08, 
			 "cosmo_repulsion_energy": 2.05, 
			 "cosmo_total_nonelectrostatic_energy": 12.11, 
			 "SMD_solvation_energy": 9.99 
		},
		"coords": [
			{
				"x": -2.3003034274,
				"y": -5.6915644794,
				"z": 2.0252681739,
				"element": "O" 
			},
			{
				"x": -1.8367145225,
				"y": -4.5674598536,
				"z": 2.2153761859,
				"element": "N" 
			},
			{
				"x": -1.9218074286,
				"y": -3.9404680827,
				"z": 3.2708354843,
				"element": "O" 
			},
			{
				"x": -1.1297399419,
				"y": -3.9264360033,
				"z": 1.0986420306,
				"element": "C" 
			},
			{
				"x": -0.5923865012,
				"y": -2.654087579,
				"z": 1.2777199276,
				"element": "C" 
			},
			{
				"x": 0.0753346565,
				"y": -2.0446775689,
				"z": 0.2191143503,
				"element": "C" 
			},
			{
				"x": 0.2038246429,
				"y": -2.7164048568,
				"z": -1.0014542455,
				"element": "C" 
			},
			{
				"x": 1.0077924093,
				"y": -2.0375603426,
				"z": -2.4589195058,
				"element": "S" 
			},
			{
				"x": 2.0815279473,
				"y": -0.3886138738,
				"z": -1.8117732589,
				"element": "S" 
			},
			{
				"x": 0.9748704065,
				"y": 1.0204307565,
				"z": -1.9580640104,
				"element": "C" 
			},
			{
				"x": -0.407832697,
				"y": 0.9270886211,
				"z": -2.1501546532,
				"element": "C" 
			},
			{
				"x": -1.1764339428,
				"y": 2.0854884847,
				"z": -2.2226307988,
				"element": "C" 
			},
			{
				"x": -0.5515643084,
				"y": 3.3235813891,
				"z": -2.0948899685,
				"element": "C" 
			},
			{
				"x": 0.8247418613,
				"y": 3.4355201338,
				"z": -1.9016427101,
				"element": "C" 
			},
			{
				"x": 1.5899468996,
				"y": 2.2773672412,
				"z": -1.8371763702,
				"element": "C" 
			},
			{
				"x": -1.3639249366,
				"y": 4.5452340449,
				"z": -2.1682888742,
				"element": "N" 
			},
			{
				"x": -0.7821381892,
				"y": 5.6234599869,
				"z": -2.0515468722,
				"element": "O" 
			},
			{
				"x": -2.5752630485,
				"y": 4.4144003511,
				"z": -2.3412366614,
				"element": "O" 
			},
			{
				"x": -0.3389336428,
				"y": -4.0017117247,
				"z": -1.1632089175,
				"element": "C" 
			},
			{
				"x": -1.0127601023,
				"y": -4.6098978355,
				"z": -0.1110026164,
				"element": "C" 
			},
			{
				"x": -0.705411242,
				"y": -2.1583770571,
				"z": 2.2338614186,
				"element": "H" 
			},
			{
				"x": 0.500206444,
				"y": -1.0557566957,
				"z": 0.3483159439,
				"element": "H" 
			},
			{
				"x": -0.8832569419,
				"y": -0.0418679489,
				"z": -2.2515803902,
				"element": "H" 
			},
			{
				"x": -2.2481461726,
				"y": 2.0431638282,
				"z": -2.372151179,
				"element": "H" 
			},
			{
				"x": 1.2734870159,
				"y": 4.4169494108,
				"z": -1.8131796871,
				"element": "H" 
			},
			{
				"x": 2.6645850664,
				"y": 2.3510219157,
				"z": -1.6989394805,
				"element": "H" 
			},
			{
				"x": -0.2299787734,
				"y": -4.5282258631,
				"z": -2.1067513526,
				"element": "H" 
			},
			{
				"x": -1.4390215308,
				"y": -5.600496399,
				"z": -0.2080419625,
				"element": "H" 
			}
		],
		 "valence_orbital": [ 
			{
				"type": "occ",
				"energy": -0.29853,
				"method": "rhf"
			},
			{
				"type": "occ",
				"energy": -0.29603,
				"method": "rhf"
			},
			{
				"type": "occ",
				"energy": -0.29399,
				"method": "rhf"
			},
			{
				"type": "occ",
				"energy": -0.26593,
				"method": "rhf"
			},
			{
				"type": "occ",
				"energy": -0.26079,
				"method": "rhf"
			},
			{
				"type": "unocc",
				"energy": -0.0993,
				"method": "rhf"
			},
			{
				"type": "unocc",
				"energy": -0.0992,
				"method": "rhf"
			},
			{
				"type": "unocc",
				"energy": -0.06803,
				"method": "rhf"
			},
			{
				"type": "unocc",
				"energy": -0.04736,
				"method": "rhf"
			},
			{
				"type": "unocc",
				"energy": -0.04112,
				"method": "rhf"
			}
		],
		"cosmo_sigma_profile": { 
			"-0.025": 0.0,
			"-0.024": 0.0,
			"-0.023": 0.0,
			"-0.022": 0.0,
			"-0.021": 0.0,
			"-0.02": 0.0,
			"-0.019": 0.0,
			"-0.018": 0.0,
			"-0.017": 0.0,
			"-0.016": 0.0,
			"-0.015": 0.0,
			"-0.014": 0.0,
			"-0.013": 0.0,
			"-0.012": 0.0,
			"-0.011": 0.0,
			"-0.01": 0.0,
			"-0.009": 2.1074475822,
			"-0.008": 10.4435792135,
			"-0.007": 14.946885887,
			"-0.006": 15.6789078045,
			"-0.005": 15.3393637245,
			"-0.004": 15.0993778566,
			"-0.003": 18.1493989761,
			"-0.002": 26.9432525732,
			"-0.001": 30.353839954,
			"0.0": 36.315941289,
			"0.001": 34.1293912244,
			"0.002": 14.6750748087,
			"0.003": 9.85122896561,
			"0.004": 8.29386244069,
			"0.005": 6.7988745318,
			"0.006": 7.38996694283,
			"0.007": 15.08690087,
			"0.008": 15.6941401835,
			"0.009": 9.08098291392,
			"0.01": 5.19187949113,
			"0.011": 0.269737822946,
			"0.012": 0.0,
			"0.013": 0.0,
			"0.014": 0.0,
			"0.015": 0.0,
			"0.016": 0.0,
			"0.017": 0.0,
			"0.018": 0.0,
			"0.019": 0.0,
			"0.02": 0.0,
			"0.021": 0.0,
			"0.022": 0.0,
			"0.023": 0.0,
			"0.024": 0.0,
			"0.025": 0.0
		}
	}
}
