{
	 "smiles": "COC1=CC=C(C=C1)N1C(S)=NC2=C1C=CC=C2", 
	 "Tm": 487.15, 
	 "num_atms": 30, 
	 "gaussian": { 
		 "optdone": 1, 
		 "sigma_profile": "yes", 
		 "theory": "DFT", 
		 "functional": "B3LYP", 
		 "basiset": "6-31G**", 
		 "properties": { 
			 "R2extent": 7144.1652, 
			 "electric_dipole_moment_norm": 4.29778563681, 
			 "electric_quadrupole_moment_norm": 13.3107108653, 
			 "total_energy": -1123.62997365, 
			 "HOMO_LUMO_gap": 0.18707, 
			 "cosmo_polarized_energy": -11.8, 
			 "cosmo_cavitation_energy": 35.91, 
			 "cosmo_dispersion_energy": -26.1, 
			 "cosmo_repulsion_energy": 1.97, 
			 "cosmo_total_nonelectrostatic_energy": 11.78, 
			 "SMD_solvation_energy": 4.5 
		},
		"coords": [
			{
				"x": -0.4433861074,
				"y": 5.6873082313,
				"z": 1.3232873456,
				"element": "C" 
			},
			{
				"x": 0.7351204516,
				"y": 5.0158569533,
				"z": 0.9016674812,
				"element": "O" 
			},
			{
				"x": 0.6052537763,
				"y": 3.8543725192,
				"z": 0.2044980429,
				"element": "C" 
			},
			{
				"x": 1.8071667932,
				"y": 3.2426300549,
				"z": -0.1863027944,
				"element": "C" 
			},
			{
				"x": 1.7872595568,
				"y": 2.0491622987,
				"z": -0.8940844892,
				"element": "C" 
			},
			{
				"x": 0.564322716,
				"y": 1.4574869349,
				"z": -1.2416131459,
				"element": "C" 
			},
			{
				"x": -0.6308157433,
				"y": 2.0668527769,
				"z": -0.8565921488,
				"element": "C" 
			},
			{
				"x": -0.6182045925,
				"y": 3.2578877365,
				"z": -0.1289555797,
				"element": "C" 
			},
			{
				"x": 0.5374908468,
				"y": 0.2306386042,
				"z": -1.9709000434,
				"element": "N" 
			},
			{
				"x": 0.9448897175,
				"y": 0.0100296715,
				"z": -3.2783141923,
				"element": "C" 
			},
			{
				"x": 1.5946353089,
				"y": 1.3374230166,
				"z": -4.2539930652,
				"element": "S" 
			},
			{
				"x": 0.7848359926,
				"y": -1.2199963768,
				"z": -3.6930341327,
				"element": "N" 
			},
			{
				"x": 0.229397648,
				"y": -1.8867578141,
				"z": -2.6070967924,
				"element": "C" 
			},
			{
				"x": 0.0618634331,
				"y": -1.00255643,
				"z": -1.5170714822,
				"element": "C" 
			},
			{
				"x": -0.4646503291,
				"y": -1.4085326924,
				"z": -0.2915501377,
				"element": "C" 
			},
			{
				"x": -0.8360307813,
				"y": -2.7484103994,
				"z": -0.1836058898,
				"element": "C" 
			},
			{
				"x": -0.6814368424,
				"y": -3.6431749308,
				"z": -1.2598513166,
				"element": "C" 
			},
			{
				"x": -0.1487619495,
				"y": -3.2281458614,
				"z": -2.4778789025,
				"element": "C" 
			},
			{
				"x": -1.0406050901,
				"y": 5.066846148,
				"z": 2.0034695214,
				"element": "H" 
			},
			{
				"x": -0.1070690663,
				"y": 6.5792577309,
				"z": 1.8534191244,
				"element": "H" 
			},
			{
				"x": -1.0646495486,
				"y": 5.9871395439,
				"z": 0.4699245894,
				"element": "H" 
			},
			{
				"x": 2.743102547,
				"y": 3.7177752051,
				"z": 0.0871511639,
				"element": "H" 
			},
			{
				"x": 2.716206332,
				"y": 1.5669411193,
				"z": -1.18026753,
				"element": "H" 
			},
			{
				"x": -1.5755412914,
				"y": 1.6089259619,
				"z": -1.1317786435,
				"element": "H" 
			},
			{
				"x": -1.5585348182,
				"y": 3.7114341131,
				"z": 0.1596097465,
				"element": "H" 
			},
			{
				"x": 1.7196174185,
				"y": 0.5519033699,
				"z": -5.3398755263,
				"element": "H" 
			},
			{
				"x": -0.5790619456,
				"y": -0.7173781346,
				"z": 0.5371407923,
				"element": "H" 
			},
			{
				"x": -1.2521350504,
				"y": -3.108915794,
				"z": 0.7525147779,
				"element": "H" 
			},
			{
				"x": -0.9835907152,
				"y": -4.6787019203,
				"z": -1.1336741871,
				"element": "H" 
			},
			{
				"x": -0.0229886669,
				"y": -3.9134016364,
				"z": -3.3098425858,
				"element": "H" 
			}
		],
		 "valence_orbital": [ 
			{
				"type": "occ",
				"energy": -0.27325,
				"method": "rhf"
			},
			{
				"type": "occ",
				"energy": -0.26752,
				"method": "rhf"
			},
			{
				"type": "occ",
				"energy": -0.23776,
				"method": "rhf"
			},
			{
				"type": "occ",
				"energy": -0.21686,
				"method": "rhf"
			},
			{
				"type": "occ",
				"energy": -0.20822,
				"method": "rhf"
			},
			{
				"type": "unocc",
				"energy": -0.02115,
				"method": "rhf"
			},
			{
				"type": "unocc",
				"energy": -0.01302,
				"method": "rhf"
			},
			{
				"type": "unocc",
				"energy": -0.0063,
				"method": "rhf"
			},
			{
				"type": "unocc",
				"energy": 0.02101,
				"method": "rhf"
			},
			{
				"type": "unocc",
				"energy": 0.02721,
				"method": "rhf"
			}
		],
		"cosmo_sigma_profile": { 
			"-0.025": 0.0,
			"-0.024": 0.0,
			"-0.023": 0.0,
			"-0.022": 0.0,
			"-0.021": 0.0,
			"-0.02": 0.0,
			"-0.019": 0.0,
			"-0.018": 0.0,
			"-0.017": 0.0,
			"-0.016": 0.0,
			"-0.015": 0.0,
			"-0.014": 0.0,
			"-0.013": 0.0,
			"-0.012": 0.605890353604,
			"-0.011": 1.61825959851,
			"-0.01": 1.21535983526,
			"-0.009": 1.11685399581,
			"-0.008": 1.42989559668,
			"-0.007": 6.12903133576,
			"-0.006": 17.6614883752,
			"-0.005": 24.8405504558,
			"-0.004": 24.5592354477,
			"-0.003": 24.2994125388,
			"-0.002": 17.5753783886,
			"-0.001": 17.6910624681,
			"0.0": 17.6836902509,
			"0.001": 16.5030611314,
			"0.002": 25.3158817304,
			"0.003": 26.1344619518,
			"0.004": 20.8900019144,
			"0.005": 15.8228167615,
			"0.006": 11.4406504558,
			"0.007": 4.23038766791,
			"0.008": 3.07013062741,
			"0.009": 2.64420957429,
			"0.01": 2.1634514798,
			"0.011": 0.94865198293,
			"0.012": 0.981021192265,
			"0.013": 1.19409272342,
			"0.014": 1.03974831347,
			"0.015": 0.61084810996,
			"0.016": 0.670441161794,
			"0.017": 0.173742721671,
			"0.018": 0.0,
			"0.019": 0.0,
			"0.02": 0.0,
			"0.021": 0.0,
			"0.022": 0.0,
			"0.023": 0.0,
			"0.024": 0.0,
			"0.025": 0.0
		}
	}
}
