{
	 "smiles": "OC(=O)C1=CC=C(SC2CCOC2=O)C=C1", 
	 "Tm": 443.15, 
	 "num_atms": 26, 
	 "gaussian": { 
		 "optdone": 1, 
		 "sigma_profile": "yes", 
		 "theory": "DFT", 
		 "functional": "B3LYP", 
		 "basiset": "6-31G**", 
		 "properties": { 
			 "R2extent": 6672.7483, 
			 "electric_dipole_moment_norm": 1.56748233164, 
			 "electric_quadrupole_moment_norm": 42.3218169368, 
			 "total_energy": -1124.28521995, 
			 "HOMO_LUMO_gap": 0.17729, 
			 "cosmo_polarized_energy": -23.17, 
			 "cosmo_cavitation_energy": 32.46, 
			 "cosmo_dispersion_energy": -23.51, 
			 "cosmo_repulsion_energy": 1.8, 
			 "cosmo_total_nonelectrostatic_energy": 10.75, 
			 "SMD_solvation_energy": 7.17 
		},
		"coords": [
			{
				"x": -3.1155641323,
				"y": -0.0393514186,
				"z": 3.0313845061,
				"element": "O" 
			},
			{
				"x": -2.5966564053,
				"y": -0.9236718629,
				"z": 2.1391367217,
				"element": "C" 
			},
			{
				"x": -2.5479503514,
				"y": -2.0999884326,
				"z": 2.4100110527,
				"element": "O" 
			},
			{
				"x": -2.1013025056,
				"y": -0.3620451236,
				"z": 0.8386606795,
				"element": "C" 
			},
			{
				"x": -1.7271324051,
				"y": 0.9803844543,
				"z": 0.6760636429,
				"element": "C" 
			},
			{
				"x": -1.2626247614,
				"y": 1.4409411081,
				"z": -0.5532567242,
				"element": "C" 
			},
			{
				"x": -1.1463057915,
				"y": 0.5588632514,
				"z": -1.6371359386,
				"element": "C" 
			},
			{
				"x": -0.6066163867,
				"y": 1.139595562,
				"z": -3.2454574092,
				"element": "S" 
			},
			{
				"x": 1.1517765246,
				"y": 1.6091524849,
				"z": -2.8615442366,
				"element": "C" 
			},
			{
				"x": 2.0661963943,
				"y": 0.429817357,
				"z": -2.5247227101,
				"element": "C" 
			},
			{
				"x": 2.5620120139,
				"y": -0.0027962908,
				"z": -3.9110141265,
				"element": "C" 
			},
			{
				"x": 2.576635395,
				"y": 1.2046116156,
				"z": -4.7024871635,
				"element": "O" 
			},
			{
				"x": 1.7591230338,
				"y": 2.1499859778,
				"z": -4.1672845507,
				"element": "C" 
			},
			{
				"x": 1.5752996381,
				"y": 3.2238390053,
				"z": -4.6740291266,
				"element": "O" 
			},
			{
				"x": -1.5092202987,
				"y": -0.786099141,
				"z": -1.4733928118,
				"element": "C" 
			},
			{
				"x": -1.9795075783,
				"y": -1.2411984932,
				"z": -0.2442995228,
				"element": "C" 
			},
			{
				"x": -3.2467585693,
				"y": 0.8234299687,
				"z": 2.6145146196,
				"element": "H" 
			},
			{
				"x": -1.7694561077,
				"y": 1.6755825657,
				"z": 1.5111532291,
				"element": "H" 
			},
			{
				"x": -0.9947667805,
				"y": 2.4858588326,
				"z": -0.67423323,
				"element": "H" 
			},
			{
				"x": 1.1399469771,
				"y": 2.4020431272,
				"z": -2.1130610808,
				"element": "H" 
			},
			{
				"x": 2.9063957609,
				"y": 0.7892092634,
				"z": -1.9196359828,
				"element": "H" 
			},
			{
				"x": 1.5721197136,
				"y": -0.3744832457,
				"z": -1.9763221682,
				"element": "H" 
			},
			{
				"x": 3.5742754562,
				"y": -0.4109454207,
				"z": -3.9099356678,
				"element": "H" 
			},
			{
				"x": 1.8843677594,
				"y": -0.7196113653,
				"z": -4.3864042417,
				"element": "H" 
			},
			{
				"x": -1.4183845314,
				"y": -1.4697395034,
				"z": -2.3112151685,
				"element": "H" 
			},
			{
				"x": -2.2510020617,
				"y": -2.2813842764,
				"z": -0.0996925913,
				"element": "H" 
			}
		],
		 "valence_orbital": [ 
			{
				"type": "occ",
				"energy": -0.29364,
				"method": "rhf"
			},
			{
				"type": "occ",
				"energy": -0.28808,
				"method": "rhf"
			},
			{
				"type": "occ",
				"energy": -0.28141,
				"method": "rhf"
			},
			{
				"type": "occ",
				"energy": -0.27697,
				"method": "rhf"
			},
			{
				"type": "occ",
				"energy": -0.24992,
				"method": "rhf"
			},
			{
				"type": "unocc",
				"energy": -0.07263,
				"method": "rhf"
			},
			{
				"type": "unocc",
				"energy": -0.04094,
				"method": "rhf"
			},
			{
				"type": "unocc",
				"energy": -0.01643,
				"method": "rhf"
			},
			{
				"type": "unocc",
				"energy": 0.01164,
				"method": "rhf"
			},
			{
				"type": "unocc",
				"energy": 0.03918,
				"method": "rhf"
			}
		],
		"cosmo_sigma_profile": { 
			"-0.025": 0.0,
			"-0.024": 0.0,
			"-0.023": 0.0,
			"-0.022": 0.0,
			"-0.021": 0.0,
			"-0.02": 0.0,
			"-0.019": 0.534564462466,
			"-0.018": 0.69665422943,
			"-0.017": 1.22484430894,
			"-0.016": 1.09787565645,
			"-0.015": 0.548111388269,
			"-0.014": 0.87395849419,
			"-0.013": 1.46677062635,
			"-0.012": 1.33147732243,
			"-0.011": 1.18857016061,
			"-0.01": 0.940601436455,
			"-0.009": 1.30464279679,
			"-0.008": 7.48431190491,
			"-0.007": 14.7863059911,
			"-0.006": 18.7888120579,
			"-0.005": 19.0059922318,
			"-0.004": 16.9168075273,
			"-0.003": 17.2684869936,
			"-0.002": 15.6265335711,
			"-0.001": 13.3095154989,
			"0.0": 12.1845911991,
			"0.001": 14.9994982971,
			"0.002": 18.4552791505,
			"0.003": 8.44695044604,
			"0.004": 5.60159867468,
			"0.005": 7.9501940141,
			"0.006": 7.4669069136,
			"0.007": 7.49474723737,
			"0.008": 6.5701246472,
			"0.009": 8.27082030653,
			"0.01": 8.78436160559,
			"0.011": 11.3760234771,
			"0.012": 7.4109948492,
			"0.013": 1.26987025151,
			"0.014": 0.00346854534635,
			"0.015": 0.0,
			"0.016": 0.0,
			"0.017": 0.0,
			"0.018": 0.0,
			"0.019": 0.0,
			"0.02": 0.0,
			"0.021": 0.0,
			"0.022": 0.0,
			"0.023": 0.0,
			"0.024": 0.0,
			"0.025": 0.0
		}
	}
}
