{
	 "smiles": "CCOC(O)[C@H](OC(C)=O)[C@@H](OC(C)=O)[C@@H](OC(C)=O)[C@@H](COC(C)=O)OC(C)=O", 
	 "Tm": 405.15, 
	 "num_atms": 58, 
	 "gaussian": { 
		 "optdone": 1, 
		 "sigma_profile": "yes", 
		 "theory": "DFT", 
		 "functional": "B3LYP", 
		 "basiset": "6-31G**", 
		 "properties": { 
			 "R2extent": 11552.5925, 
			 "electric_dipole_moment_norm": 6.23462607459, 
			 "electric_quadrupole_moment_norm": 30.133021758, 
			 "total_energy": -1605.52791518, 
			 "HOMO_LUMO_gap": 0.24763, 
			 "cosmo_polarized_energy": -26.18, 
			 "cosmo_cavitation_energy": 60.03, 
			 "cosmo_dispersion_energy": -35.29, 
			 "cosmo_repulsion_energy": 2.71, 
			 "cosmo_total_nonelectrostatic_energy": 27.45, 
			 "SMD_solvation_energy": 14.83 
		},
		"coords": [
			{
				"x": -2.8087687984,
				"y": 1.7071761552,
				"z": -3.691049302,
				"element": "C" 
			},
			{
				"x": -2.2725476277,
				"y": 0.3026024451,
				"z": -3.4732800329,
				"element": "C" 
			},
			{
				"x": -1.1645350463,
				"y": 0.3912717775,
				"z": -2.5704018528,
				"element": "O" 
			},
			{
				"x": -0.4364468614,
				"y": -0.7885147694,
				"z": -2.4180238097,
				"element": "C" 
			},
			{
				"x": -1.2122700227,
				"y": -1.7335254648,
				"z": -1.7312924423,
				"element": "O" 
			},
			{
				"x": 0.8991548747,
				"y": -0.3799012212,
				"z": -1.7418635066,
				"element": "C" 
			},
			{
				"x": 1.9825442192,
				"y": -1.2525079862,
				"z": -2.1942573941,
				"element": "O" 
			},
			{
				"x": 2.0168026074,
				"y": -2.5508098941,
				"z": -1.8572580418,
				"element": "C" 
			},
			{
				"x": 3.3157119243,
				"y": -3.1874203432,
				"z": -2.2830222485,
				"element": "C" 
			},
			{
				"x": 1.1225222504,
				"y": -3.1460676345,
				"z": -1.2772264136,
				"element": "O" 
			},
			{
				"x": 0.955578564,
				"y": -0.2598468667,
				"z": -0.1971791392,
				"element": "C" 
			},
			{
				"x": 2.3397705935,
				"y": -0.1567064056,
				"z": 0.2090080553,
				"element": "O" 
			},
			{
				"x": 3.0956072083,
				"y": 0.8926906021,
				"z": -0.1869570256,
				"element": "C" 
			},
			{
				"x": 4.4942510122,
				"y": 0.7550551692,
				"z": 0.3637313475,
				"element": "C" 
			},
			{
				"x": 2.7010703476,
				"y": 1.8104238995,
				"z": -0.8744425982,
				"element": "O" 
			},
			{
				"x": 0.0551382984,
				"y": 0.8548087244,
				"z": 0.3946198919,
				"element": "C" 
			},
			{
				"x": -1.2561801954,
				"y": 0.2628284488,
				"z": 0.4375313322,
				"element": "O" 
			},
			{
				"x": -2.3285624985,
				"y": 1.0383834144,
				"z": 0.1123501107,
				"element": "C" 
			},
			{
				"x": -3.5787578587,
				"y": 0.1972520834,
				"z": 0.1114792663,
				"element": "C" 
			},
			{
				"x": -2.2572343101,
				"y": 2.2237433301,
				"z": -0.1159600762,
				"element": "O" 
			},
			{
				"x": 0.3323600837,
				"y": 1.3283878621,
				"z": 1.8445177734,
				"element": "C" 
			},
			{
				"x": 0.2043849226,
				"y": 0.2844882791,
				"z": 2.9417118765,
				"element": "C" 
			},
			{
				"x": 1.1423433359,
				"y": -0.7863116822,
				"z": 2.7370748006,
				"element": "O" 
			},
			{
				"x": 0.9923775356,
				"y": -1.8657043556,
				"z": 3.5451357943,
				"element": "C" 
			},
			{
				"x": 1.9859039173,
				"y": -2.9432310331,
				"z": 3.1820802198,
				"element": "C" 
			},
			{
				"x": 0.1594818744,
				"y": -1.9328730031,
				"z": 4.4210275907,
				"element": "O" 
			},
			{
				"x": 1.6122000572,
				"y": 1.9854797662,
				"z": 1.9162994677,
				"element": "O" 
			},
			{
				"x": 1.6150478715,
				"y": 3.3066869228,
				"z": 2.2683331334,
				"element": "C" 
			},
			{
				"x": 3.0015339935,
				"y": 3.8816451798,
				"z": 2.1319745206,
				"element": "C" 
			},
			{
				"x": 0.6316015382,
				"y": 3.9102622552,
				"z": 2.6272481212,
				"element": "O" 
			},
			{
				"x": -2.048129221,
				"y": 2.3429104251,
				"z": -4.1533982436,
				"element": "H" 
			},
			{
				"x": -3.0944638828,
				"y": 2.159924698,
				"z": -2.7379601656,
				"element": "H" 
			},
			{
				"x": -3.6845953377,
				"y": 1.6789416081,
				"z": -4.3471592679,
				"element": "H" 
			},
			{
				"x": -3.0418948956,
				"y": -0.3590946769,
				"z": -3.057191256,
				"element": "H" 
			},
			{
				"x": -1.9303989558,
				"y": -0.142227568,
				"z": -4.4212819781,
				"element": "H" 
			},
			{
				"x": -0.1582091587,
				"y": -1.177613272,
				"z": -3.4183772981,
				"element": "H" 
			},
			{
				"x": -0.6127234519,
				"y": -2.4578263302,
				"z": -1.4753435662,
				"element": "H" 
			},
			{
				"x": 1.1773832783,
				"y": 0.5768947783,
				"z": -2.1791833301,
				"element": "H" 
			},
			{
				"x": 3.232226989,
				"y": -4.2712425186,
				"z": -2.2098796997,
				"element": "H" 
			},
			{
				"x": 4.1182714812,
				"y": -2.8400326294,
				"z": -1.6242246847,
				"element": "H" 
			},
			{
				"x": 3.5740674122,
				"y": -2.8882559877,
				"z": -3.3014744993,
				"element": "H" 
			},
			{
				"x": 0.640151664,
				"y": -1.1987048406,
				"z": 0.2523363559,
				"element": "H" 
			},
			{
				"x": 4.9207815909,
				"y": -0.2127232654,
				"z": 0.0859869479,
				"element": "H" 
			},
			{
				"x": 4.4536237919,
				"y": 0.79536235,
				"z": 1.4559942295,
				"element": "H" 
			},
			{
				"x": 5.1189551657,
				"y": 1.5620257233,
				"z": -0.0180201418,
				"element": "H" 
			},
			{
				"x": 0.0373418816,
				"y": 1.7362802066,
				"z": -0.2483093219,
				"element": "H" 
			},
			{
				"x": -4.4197285127,
				"y": 0.7901019412,
				"z": -0.247266605,
				"element": "H" 
			},
			{
				"x": -3.7883549198,
				"y": -0.1547093072,
				"z": 1.1268216685,
				"element": "H" 
			},
			{
				"x": -3.417435449,
				"y": -0.6829428598,
				"z": -0.5156826255,
				"element": "H" 
			},
			{
				"x": -0.4346339326,
				"y": 2.0818752515,
				"z": 2.0503639498,
				"element": "H" 
			},
			{
				"x": -0.8107250791,
				"y": -0.1188696513,
				"z": 2.9508380793,
				"element": "H" 
			},
			{
				"x": 0.3911007566,
				"y": 0.7533928481,
				"z": 3.9127504985,
				"element": "H" 
			},
			{
				"x": 1.9117691645,
				"y": -3.7610028819,
				"z": 3.89814607,
				"element": "H" 
			},
			{
				"x": 3.0008121574,
				"y": -2.5365087252,
				"z": 3.1746852597,
				"element": "H" 
			},
			{
				"x": 1.7755538149,
				"y": -3.3145050929,
				"z": 2.1737748252,
				"element": "H" 
			},
			{
				"x": 2.9986358068,
				"y": 4.9180584545,
				"z": 2.4673505107,
				"element": "H" 
			},
			{
				"x": 3.3092609661,
				"y": 3.8250009824,
				"z": 1.0833489123,
				"element": "H" 
			},
			{
				"x": 3.7155730653,
				"y": 3.2991246847,
				"z": 2.7213459579,
				"element": "H" 
			}
		],
		 "valence_orbital": [ 
			{
				"type": "occ",
				"energy": -0.27609,
				"method": "rhf"
			},
			{
				"type": "occ",
				"energy": -0.2747,
				"method": "rhf"
			},
			{
				"type": "occ",
				"energy": -0.27208,
				"method": "rhf"
			},
			{
				"type": "occ",
				"energy": -0.27107,
				"method": "rhf"
			},
			{
				"type": "occ",
				"energy": -0.26561,
				"method": "rhf"
			},
			{
				"type": "unocc",
				"energy": -0.01798,
				"method": "rhf"
			},
			{
				"type": "unocc",
				"energy": 0.00102,
				"method": "rhf"
			},
			{
				"type": "unocc",
				"energy": 0.00837,
				"method": "rhf"
			},
			{
				"type": "unocc",
				"energy": 0.01096,
				"method": "rhf"
			},
			{
				"type": "unocc",
				"energy": 0.01463,
				"method": "rhf"
			}
		],
		"cosmo_sigma_profile": { 
			"-0.025": 0.0,
			"-0.024": 0.0,
			"-0.023": 0.0,
			"-0.022": 0.0,
			"-0.021": 0.0,
			"-0.02": 0.0,
			"-0.019": 0.0,
			"-0.018": 0.0,
			"-0.017": 0.0,
			"-0.016": 0.0,
			"-0.015": 0.0,
			"-0.014": 0.0,
			"-0.013": 0.0,
			"-0.012": 0.0,
			"-0.011": 0.0,
			"-0.01": 0.0,
			"-0.009": 0.0,
			"-0.008": 0.712550217226,
			"-0.007": 8.70814098736,
			"-0.006": 26.0762301657,
			"-0.005": 40.0889673193,
			"-0.004": 49.0673812182,
			"-0.003": 57.1105278827,
			"-0.002": 64.0259557395,
			"-0.001": 39.7188612918,
			"0.0": 25.0936526986,
			"0.001": 22.4264963903,
			"0.002": 16.371143541,
			"0.003": 14.5937794822,
			"0.004": 10.4908488573,
			"0.005": 13.0692698938,
			"0.006": 12.5662174958,
			"0.007": 11.0692490119,
			"0.008": 10.5554476746,
			"0.009": 11.0428637749,
			"0.01": 10.5081986316,
			"0.011": 14.4349596072,
			"0.012": 10.8051285287,
			"0.013": 1.46119113162,
			"0.014": 0.00201596968755,
			"0.015": 0.0,
			"0.016": 0.0,
			"0.017": 0.0,
			"0.018": 0.0,
			"0.019": 0.0,
			"0.02": 0.0,
			"0.021": 0.0,
			"0.022": 0.0,
			"0.023": 0.0,
			"0.024": 0.0,
			"0.025": 0.0
		}
	}
}
