{
	 "smiles": "FC(F)(Cl)C(F)(F)Cl", 
	 "Tm": 179.15, 
	 "num_atms": 8, 
	 "gaussian": { 
		 "optdone": 1, 
		 "sigma_profile": "yes", 
		 "theory": "DFT", 
		 "functional": "B3LYP", 
		 "basiset": "6-31G**", 
		 "properties": { 
			 "R2extent": 1316.9776, 
			 "electric_dipole_moment_norm": 0.16005611516, 
			 "electric_quadrupole_moment_norm": 0.925738856266, 
			 "total_energy": -1395.93082491, 
			 "HOMO_LUMO_gap": 0.32515, 
			 "cosmo_polarized_energy": -0.85, 
			 "cosmo_cavitation_energy": 17.72, 
			 "cosmo_dispersion_energy": -12.77, 
			 "cosmo_repulsion_energy": 1.0, 
			 "cosmo_total_nonelectrostatic_energy": 5.95, 
			 "SMD_solvation_energy": 4.05 
		},
		"coords": [
			{
				"x": 1.1731703872,
				"y": -1.0689119689,
				"z": 0.8993082741,
				"element": "F" 
			},
			{
				"x": 0.4968414161,
				"y": 0.0910505611,
				"z": 0.8919082867,
				"element": "C" 
			},
			{
				"x": 0.755323051,
				"y": 0.7449734154,
				"z": 2.0316285672,
				"element": "F" 
			},
			{
				"x": -1.2470321997,
				"y": -0.245048064,
				"z": 0.7667387707,
				"element": "Cl" 
			},
			{
				"x": 1.033746176,
				"y": 0.9269235662,
				"z": -0.3093916708,
				"element": "C" 
			},
			{
				"x": 2.3665298541,
				"y": 1.0094334991,
				"z": -0.1684884618,
				"element": "F" 
			},
			{
				"x": 0.7627579111,
				"y": 0.2797792259,
				"z": -1.4500744767,
				"element": "F" 
			},
			{
				"x": 0.3447634042,
				"y": 2.5676997652,
				"z": -0.3637292893,
				"element": "Cl" 
			}
		],
		 "valence_orbital": [ 
			{
				"type": "occ",
				"energy": -0.38482,
				"method": "rhf"
			},
			{
				"type": "occ",
				"energy": -0.35903,
				"method": "rhf"
			},
			{
				"type": "occ",
				"energy": -0.35581,
				"method": "rhf"
			},
			{
				"type": "occ",
				"energy": -0.34644,
				"method": "rhf"
			},
			{
				"type": "occ",
				"energy": -0.34183,
				"method": "rhf"
			},
			{
				"type": "unocc",
				"energy": -0.01668,
				"method": "rhf"
			},
			{
				"type": "unocc",
				"energy": -0.0094,
				"method": "rhf"
			},
			{
				"type": "unocc",
				"energy": 0.07532,
				"method": "rhf"
			},
			{
				"type": "unocc",
				"energy": 0.09538,
				"method": "rhf"
			},
			{
				"type": "unocc",
				"energy": 0.15336,
				"method": "rhf"
			}
		],
		"cosmo_sigma_profile": { 
			"-0.025": 0.0,
			"-0.024": 0.0,
			"-0.023": 0.0,
			"-0.022": 0.0,
			"-0.021": 0.0,
			"-0.02": 0.0,
			"-0.019": 0.0,
			"-0.018": 0.0,
			"-0.017": 0.0,
			"-0.016": 0.0,
			"-0.015": 0.0,
			"-0.014": 0.0,
			"-0.013": 0.0,
			"-0.012": 0.0,
			"-0.011": 0.0,
			"-0.01": 0.0,
			"-0.009": 0.0,
			"-0.008": 0.0,
			"-0.007": 0.0,
			"-0.006": 0.0635216036551,
			"-0.005": 2.04712200172,
			"-0.004": 3.93433821201,
			"-0.003": 7.50232554998,
			"-0.002": 12.6981375895,
			"-0.001": 16.643189156,
			"0.0": 32.6157952962,
			"0.001": 53.6125763551,
			"0.002": 17.9310717918,
			"0.003": 0.0,
			"0.004": 0.0,
			"0.005": 0.0,
			"0.006": 0.0,
			"0.007": 0.0,
			"0.008": 0.0,
			"0.009": 0.0,
			"0.01": 0.0,
			"0.011": 0.0,
			"0.012": 0.0,
			"0.013": 0.0,
			"0.014": 0.0,
			"0.015": 0.0,
			"0.016": 0.0,
			"0.017": 0.0,
			"0.018": 0.0,
			"0.019": 0.0,
			"0.02": 0.0,
			"0.021": 0.0,
			"0.022": 0.0,
			"0.023": 0.0,
			"0.024": 0.0,
			"0.025": 0.0
		}
	}
}
