{
	 "smiles": "CCCCOC1=CC=C(NC(C)=O)C=C1", 
	 "Tm": 384.15, 
	 "num_atms": 32, 
	 "gaussian": { 
		 "optdone": 1, 
		 "sigma_profile": "yes", 
		 "theory": "DFT", 
		 "functional": "B3LYP", 
		 "basiset": "6-31G**", 
		 "properties": { 
			 "R2extent": 5831.289, 
			 "electric_dipole_moment_norm": 4.58455191267, 
			 "electric_quadrupole_moment_norm": 26.452715747, 
			 "total_energy": -672.740377865, 
			 "HOMO_LUMO_gap": 0.19844, 
			 "cosmo_polarized_energy": -12.6, 
			 "cosmo_cavitation_energy": 34.98, 
			 "cosmo_dispersion_energy": -24.8, 
			 "cosmo_repulsion_energy": 1.98, 
			 "cosmo_total_nonelectrostatic_energy": 12.17, 
			 "SMD_solvation_energy": 6.86 
		},
		"coords": [
			{
				"x": 0.8220334278,
				"y": 3.9160801464,
				"z": 1.1258433003,
				"element": "C" 
			},
			{
				"x": -0.2466512621,
				"y": 3.8392429028,
				"z": 2.2227831721,
				"element": "C" 
			},
			{
				"x": -1.6078320132,
				"y": 3.2736941819,
				"z": 1.7809029726,
				"element": "C" 
			},
			{
				"x": -1.6517587133,
				"y": 1.7759807304,
				"z": 1.4970946186,
				"element": "C" 
			},
			{
				"x": -0.957778657,
				"y": 1.5044618109,
				"z": 0.2782651404,
				"element": "O" 
			},
			{
				"x": -0.8955022325,
				"y": 0.2164477588,
				"z": -0.1670632797,
				"element": "C" 
			},
			{
				"x": -0.224674513,
				"y": 0.0219886287,
				"z": -1.3848647955,
				"element": "C" 
			},
			{
				"x": -0.0920897784,
				"y": -1.2523138261,
				"z": -1.9168528113,
				"element": "C" 
			},
			{
				"x": -0.6426075834,
				"y": -2.3671648564,
				"z": -1.2620874242,
				"element": "C" 
			},
			{
				"x": -0.5245329744,
				"y": -3.6491087518,
				"z": -1.8579877509,
				"element": "N" 
			},
			{
				"x": -0.1074151562,
				"y": -4.8557368805,
				"z": -1.3270049173,
				"element": "C" 
			},
			{
				"x": 0.2993643642,
				"y": -4.8943624429,
				"z": 0.1352909784,
				"element": "C" 
			},
			{
				"x": -0.0691329011,
				"y": -5.8514958078,
				"z": -2.0367518875,
				"element": "O" 
			},
			{
				"x": -1.3350798859,
				"y": -2.1629903194,
				"z": -0.0657904611,
				"element": "C" 
			},
			{
				"x": -1.447651964,
				"y": -0.8869627891,
				"z": 0.4934468253,
				"element": "C" 
			},
			{
				"x": 0.4728598012,
				"y": 4.521294725,
				"z": 0.2815015837,
				"element": "H" 
			},
			{
				"x": 1.0732197356,
				"y": 2.926815013,
				"z": 0.7373246773,
				"element": "H" 
			},
			{
				"x": 1.7377823934,
				"y": 4.3779365835,
				"z": 1.5100429287,
				"element": "H" 
			},
			{
				"x": 0.1299641053,
				"y": 3.2408856915,
				"z": 3.0642483968,
				"element": "H" 
			},
			{
				"x": -0.4156265269,
				"y": 4.8464313163,
				"z": 2.6246059771,
				"element": "H" 
			},
			{
				"x": -2.3414997783,
				"y": 3.4601205947,
				"z": 2.5759744272,
				"element": "H" 
			},
			{
				"x": -1.9707143698,
				"y": 3.8066357861,
				"z": 0.8928548548,
				"element": "H" 
			},
			{
				"x": -1.1908320932,
				"y": 1.213397948,
				"z": 2.3230424702,
				"element": "H" 
			},
			{
				"x": -2.6947917953,
				"y": 1.4408712453,
				"z": 1.4037767731,
				"element": "H" 
			},
			{
				"x": 0.1950539285,
				"y": 0.8858846578,
				"z": -1.8896354976,
				"element": "H" 
			},
			{
				"x": 0.4486266357,
				"y": -1.3955405887,
				"z": -2.8483109278,
				"element": "H" 
			},
			{
				"x": -0.6789593349,
				"y": -3.7124925472,
				"z": -2.8570424886,
				"element": "H" 
			},
			{
				"x": -0.5705906318,
				"y": -5.1154806285,
				"z": 0.762822101,
				"element": "H" 
			},
			{
				"x": 1.0109701141,
				"y": -5.7125550404,
				"z": 0.2526321807,
				"element": "H" 
			},
			{
				"x": 0.7389860779,
				"y": -3.9573561719,
				"z": 0.4834518916,
				"element": "H" 
			},
			{
				"x": -1.806929238,
				"y": -3.0030676894,
				"z": 0.4322916357,
				"element": "H" 
			},
			{
				"x": -1.9843091811,
				"y": -0.768341381,
				"z": 1.426795336,
				"element": "H" 
			}
		],
		 "valence_orbital": [ 
			{
				"type": "occ",
				"energy": -0.31555,
				"method": "rhf"
			},
			{
				"type": "occ",
				"energy": -0.27009,
				"method": "rhf"
			},
			{
				"type": "occ",
				"energy": -0.26067,
				"method": "rhf"
			},
			{
				"type": "occ",
				"energy": -0.24461,
				"method": "rhf"
			},
			{
				"type": "occ",
				"energy": -0.21078,
				"method": "rhf"
			},
			{
				"type": "unocc",
				"energy": -0.01234,
				"method": "rhf"
			},
			{
				"type": "unocc",
				"energy": -0.00344,
				"method": "rhf"
			},
			{
				"type": "unocc",
				"energy": 0.03995,
				"method": "rhf"
			},
			{
				"type": "unocc",
				"energy": 0.08283,
				"method": "rhf"
			},
			{
				"type": "unocc",
				"energy": 0.08354,
				"method": "rhf"
			}
		],
		"cosmo_sigma_profile": { 
			"-0.025": 0.0,
			"-0.024": 0.0,
			"-0.023": 0.0,
			"-0.022": 0.0,
			"-0.021": 0.0,
			"-0.02": 0.0,
			"-0.019": 0.0,
			"-0.018": 0.0,
			"-0.017": 0.0,
			"-0.016": 0.0,
			"-0.015": 0.0,
			"-0.014": 0.36044429749,
			"-0.013": 0.907368257937,
			"-0.012": 0.94523195646,
			"-0.011": 0.946034089559,
			"-0.01": 1.04563721851,
			"-0.009": 1.09930225815,
			"-0.008": 1.12450154447,
			"-0.007": 4.7673679978,
			"-0.006": 10.9740686331,
			"-0.005": 14.0840009509,
			"-0.004": 21.4109196301,
			"-0.003": 25.1531386479,
			"-0.002": 29.3696482173,
			"-0.001": 30.3279210313,
			"0.0": 27.4346026896,
			"0.001": 22.5370486773,
			"0.002": 18.0167823305,
			"0.003": 13.7859347406,
			"0.004": 13.6274071396,
			"0.005": 11.3543396092,
			"0.006": 2.41030046588,
			"0.007": 2.24516496985,
			"0.008": 2.84308098084,
			"0.009": 1.83340643492,
			"0.01": 1.35315459011,
			"0.011": 1.65770088545,
			"0.012": 2.22435766497,
			"0.013": 3.66672198524,
			"0.014": 5.30239911303,
			"0.015": 1.69307889792,
			"0.016": 0.000956547077773,
			"0.017": 0.0,
			"0.018": 0.0,
			"0.019": 0.0,
			"0.02": 0.0,
			"0.021": 0.0,
			"0.022": 0.0,
			"0.023": 0.0,
			"0.024": 0.0,
			"0.025": 0.0
		}
	}
}
