{
	 "smiles": "CC(CC(O)=O)C1=C(C)NN=C1C", 
	 "Tm": 469.15, 
	 "num_atms": 27, 
	 "gaussian": { 
		 "optdone": 1, 
		 "sigma_profile": "yes", 
		 "theory": "DFT", 
		 "functional": "B3LYP", 
		 "basiset": "6-31G**", 
		 "properties": { 
			 "R2extent": 3067.1779, 
			 "electric_dipole_moment_norm": 3.60086853689, 
			 "electric_quadrupole_moment_norm": 12.1068942748, 
			 "total_energy": -611.359946267, 
			 "HOMO_LUMO_gap": 0.22937, 
			 "cosmo_polarized_energy": -15.54, 
			 "cosmo_cavitation_energy": 29.28, 
			 "cosmo_dispersion_energy": -20.44, 
			 "cosmo_repulsion_energy": 1.64, 
			 "cosmo_total_nonelectrostatic_energy": 10.48, 
			 "SMD_solvation_energy": 5.09 
		},
		"coords": [
			{
				"x": -1.4394044774,
				"y": 1.6310259391,
				"z": 1.7271979888,
				"element": "C" 
			},
			{
				"x": -0.544656062,
				"y": 0.8023268782,
				"z": 0.7902216082,
				"element": "C" 
			},
			{
				"x": -1.3747624791,
				"y": -0.0778226847,
				"z": -0.1908353415,
				"element": "C" 
			},
			{
				"x": -2.0673483096,
				"y": -1.2547038607,
				"z": 0.4622557541,
				"element": "C" 
			},
			{
				"x": -1.771656813,
				"y": -2.4241852352,
				"z": -0.1525676959,
				"element": "O" 
			},
			{
				"x": -2.8201082584,
				"y": -1.2019891575,
				"z": 1.413974318,
				"element": "O" 
			},
			{
				"x": 0.5383667201,
				"y": 0.0069104972,
				"z": 1.4904065263,
				"element": "C" 
			},
			{
				"x": 1.78749127,
				"y": -0.26760449,
				"z": 0.9417502747,
				"element": "C" 
			},
			{
				"x": 2.4021205622,
				"y": 0.091147097,
				"z": -0.3748258835,
				"element": "C" 
			},
			{
				"x": 2.4475092347,
				"y": -1.0119375983,
				"z": 1.8670024093,
				"element": "N" 
			},
			{
				"x": 1.7270781845,
				"y": -1.2440917529,
				"z": 2.9853386956,
				"element": "N" 
			},
			{
				"x": 0.5606510984,
				"y": -0.6313374517,
				"z": 2.7719133421,
				"element": "C" 
			},
			{
				"x": -0.4804750478,
				"y": -0.6876416623,
				"z": 3.8530632337,
				"element": "C" 
			},
			{
				"x": -0.8285323982,
				"y": 2.2474640601,
				"z": 2.3937444159,
				"element": "H" 
			},
			{
				"x": -2.0916310692,
				"y": 0.9991496251,
				"z": 2.3302889991,
				"element": "H" 
			},
			{
				"x": -2.078079845,
				"y": 2.3000575488,
				"z": 1.1398089786,
				"element": "H" 
			},
			{
				"x": -0.0308796416,
				"y": 1.5211163813,
				"z": 0.136563842,
				"element": "H" 
			},
			{
				"x": -0.7336001512,
				"y": -0.4528669364,
				"z": -0.9916808417,
				"element": "H" 
			},
			{
				"x": -2.1569355712,
				"y": 0.5392088251,
				"z": -0.6517145556,
				"element": "H" 
			},
			{
				"x": -2.2609956216,
				"y": -3.1122991914,
				"z": 0.3304742505,
				"element": "H" 
			},
			{
				"x": 2.151229056,
				"y": -0.6329964821,
				"z": -1.1597611675,
				"element": "H" 
			},
			{
				"x": 2.0562279116,
				"y": 1.072483056,
				"z": -0.7128652051,
				"element": "H" 
			},
			{
				"x": 3.4941284423,
				"y": 0.1350809496,
				"z": -0.3038431278,
				"element": "H" 
			},
			{
				"x": 3.3839639433,
				"y": -1.3793873439,
				"z": 1.8021783615,
				"element": "H" 
			},
			{
				"x": -0.6755107403,
				"y": 0.3022558161,
				"z": 4.2798962354,
				"element": "H" 
			},
			{
				"x": -1.4320789817,
				"y": -1.0777982989,
				"z": 3.4823392148,
				"element": "H" 
			},
			{
				"x": -0.1193109559,
				"y": -1.3363645277,
				"z": 4.65447537,
				"element": "H" 
			}
		],
		 "valence_orbital": [ 
			{
				"type": "occ",
				"energy": -0.31487,
				"method": "rhf"
			},
			{
				"type": "occ",
				"energy": -0.27379,
				"method": "rhf"
			},
			{
				"type": "occ",
				"energy": -0.26799,
				"method": "rhf"
			},
			{
				"type": "occ",
				"energy": -0.23153,
				"method": "rhf"
			},
			{
				"type": "occ",
				"energy": -0.22321,
				"method": "rhf"
			},
			{
				"type": "unocc",
				"energy": 0.00616,
				"method": "rhf"
			},
			{
				"type": "unocc",
				"energy": 0.03113,
				"method": "rhf"
			},
			{
				"type": "unocc",
				"energy": 0.06714,
				"method": "rhf"
			},
			{
				"type": "unocc",
				"energy": 0.07546,
				"method": "rhf"
			},
			{
				"type": "unocc",
				"energy": 0.0833,
				"method": "rhf"
			}
		],
		"cosmo_sigma_profile": { 
			"-0.025": 0.0,
			"-0.024": 0.0,
			"-0.023": 0.0,
			"-0.022": 0.0,
			"-0.021": 0.0,
			"-0.02": 0.0,
			"-0.019": 0.0,
			"-0.018": 0.379760417472,
			"-0.017": 1.04660421369,
			"-0.016": 1.33703167925,
			"-0.015": 1.95897449315,
			"-0.014": 2.44616682843,
			"-0.013": 1.32523753456,
			"-0.012": 1.2684289669,
			"-0.011": 1.65925152138,
			"-0.01": 2.56360226152,
			"-0.009": 1.80978750565,
			"-0.008": 1.58756083369,
			"-0.007": 1.80560981624,
			"-0.006": 5.21270336319,
			"-0.005": 10.3552635466,
			"-0.004": 15.4383542231,
			"-0.003": 23.8625667349,
			"-0.002": 21.0830350369,
			"-0.001": 21.2772678436,
			"0.0": 20.6377806912,
			"0.001": 17.5958969339,
			"0.002": 11.6430762034,
			"0.003": 8.13288319828,
			"0.004": 8.08177778784,
			"0.005": 7.05546140488,
			"0.006": 7.21269641905,
			"0.007": 6.263194415,
			"0.008": 4.41685509517,
			"0.009": 4.55380322552,
			"0.01": 3.44238874279,
			"0.011": 4.49249123226,
			"0.012": 3.73283487328,
			"0.013": 1.58818828787,
			"0.014": 0.931504528758,
			"0.015": 0.930009670382,
			"0.016": 0.952029999888,
			"0.017": 0.863912890945,
			"0.018": 0.0733359334618,
			"0.019": 0.0,
			"0.02": 0.0,
			"0.021": 0.0,
			"0.022": 0.0,
			"0.023": 0.0,
			"0.024": 0.0,
			"0.025": 0.0
		}
	}
}
