{
	 "smiles": "OC(=O)C1=C2NC3=C(CCCCC3)C2=CC=C1", 
	 "Tm": 499.15, 
	 "num_atms": 32, 
	 "gaussian": { 
		 "optdone": 1, 
		 "sigma_profile": "yes", 
		 "theory": "DFT", 
		 "functional": "B3LYP", 
		 "basiset": "6-31G**", 
		 "properties": { 
			 "R2extent": 5316.9951, 
			 "electric_dipole_moment_norm": 1.09851684557, 
			 "electric_quadrupole_moment_norm": 5.67866529917, 
			 "total_energy": -747.781295599, 
			 "HOMO_LUMO_gap": 0.15363, 
			 "cosmo_polarized_energy": -9.2, 
			 "cosmo_cavitation_energy": 33.4, 
			 "cosmo_dispersion_energy": -24.95, 
			 "cosmo_repulsion_energy": 1.92, 
			 "cosmo_total_nonelectrostatic_energy": 10.37, 
			 "SMD_solvation_energy": 5.2 
		},
		"coords": [
			{
				"x": -3.2994309301,
				"y": 2.3844482907,
				"z": -4.1494088106,
				"element": "O" 
			},
			{
				"x": -2.9721483081,
				"y": 1.5547274422,
				"z": -3.1297984986,
				"element": "C" 
			},
			{
				"x": -3.6554485131,
				"y": 0.5711696951,
				"z": -2.8682444179,
				"element": "O" 
			},
			{
				"x": -1.7585314446,
				"y": 1.9447908468,
				"z": -2.4004152203,
				"element": "C" 
			},
			{
				"x": -1.3280718062,
				"y": 1.1529553916,
				"z": -1.3187879723,
				"element": "C" 
			},
			{
				"x": -1.8687084088,
				"y": 0.0163908535,
				"z": -0.7889438372,
				"element": "N" 
			},
			{
				"x": -1.0937782542,
				"y": -0.4183592591,
				"z": 0.2796690884,
				"element": "C" 
			},
			{
				"x": -0.0328454695,
				"y": 0.4458880268,
				"z": 0.4524035109,
				"element": "C" 
			},
			{
				"x": 1.0291695484,
				"y": 0.3841109819,
				"z": 1.5205116008,
				"element": "C" 
			},
			{
				"x": 0.5311964334,
				"y": -0.2318772692,
				"z": 2.8417642182,
				"element": "C" 
			},
			{
				"x": 0.3961826231,
				"y": -1.767628144,
				"z": 2.8451519535,
				"element": "C" 
			},
			{
				"x": -0.223777422,
				"y": -2.4032289553,
				"z": 1.585526667,
				"element": "C" 
			},
			{
				"x": -1.4568254575,
				"y": -1.674003944,
				"z": 1.0209580978,
				"element": "C" 
			},
			{
				"x": -0.1613267268,
				"y": 1.4623504521,
				"z": -0.563599317,
				"element": "C" 
			},
			{
				"x": 0.5800392438,
				"y": 2.5990729195,
				"z": -0.9136416135,
				"element": "C" 
			},
			{
				"x": 0.1606305613,
				"y": 3.3921650636,
				"z": -1.9835382325,
				"element": "C" 
			},
			{
				"x": -0.9890590666,
				"y": 3.0724810084,
				"z": -2.7182705427,
				"element": "C" 
			},
			{
				"x": -4.1082354351,
				"y": 2.0138220641,
				"z": -4.5386048469,
				"element": "H" 
			},
			{
				"x": -2.7052613939,
				"y": -0.4071512849,
				"z": -1.1656602934,
				"element": "H" 
			},
			{
				"x": 1.9178096362,
				"y": -0.1617205317,
				"z": 1.1680157839,
				"element": "H" 
			},
			{
				"x": 1.3748738365,
				"y": 1.4062023317,
				"z": 1.7196471271,
				"element": "H" 
			},
			{
				"x": -0.4359412885,
				"y": 0.2256273451,
				"z": 3.0839484615,
				"element": "H" 
			},
			{
				"x": 1.21171585,
				"y": 0.0507791116,
				"z": 3.6542334889,
				"element": "H" 
			},
			{
				"x": 1.3868245925,
				"y": -2.2168943069,
				"z": 2.9932722917,
				"element": "H" 
			},
			{
				"x": -0.1978250534,
				"y": -2.0540513638,
				"z": 3.7230330321,
				"element": "H" 
			},
			{
				"x": -0.4972841789,
				"y": -3.4387101927,
				"z": 1.8207049061,
				"element": "H" 
			},
			{
				"x": 0.5282763478,
				"y": -2.459972966,
				"z": 0.7897188235,
				"element": "H" 
			},
			{
				"x": -1.9856409594,
				"y": -2.3429304241,
				"z": 0.3296938134,
				"element": "H" 
			},
			{
				"x": -2.1699968028,
				"y": -1.4572866174,
				"z": 1.8305456621,
				"element": "H" 
			},
			{
				"x": 1.477106248,
				"y": 2.8641148077,
				"z": -0.3602505365,
				"element": "H" 
			},
			{
				"x": 0.7348290605,
				"y": 4.2726654721,
				"z": -2.2552084892,
				"element": "H" 
			},
			{
				"x": -1.2974170618,
				"y": 3.6996531546,
				"z": -3.5470258982,
				"element": "H" 
			}
		],
		 "valence_orbital": [ 
			{
				"type": "occ",
				"energy": -0.31436,
				"method": "rhf"
			},
			{
				"type": "occ",
				"energy": -0.27616,
				"method": "rhf"
			},
			{
				"type": "occ",
				"energy": -0.26913,
				"method": "rhf"
			},
			{
				"type": "occ",
				"energy": -0.21886,
				"method": "rhf"
			},
			{
				"type": "occ",
				"energy": -0.19709,
				"method": "rhf"
			},
			{
				"type": "unocc",
				"energy": -0.04346,
				"method": "rhf"
			},
			{
				"type": "unocc",
				"energy": 0.02587,
				"method": "rhf"
			},
			{
				"type": "unocc",
				"energy": 0.0404,
				"method": "rhf"
			},
			{
				"type": "unocc",
				"energy": 0.07785,
				"method": "rhf"
			},
			{
				"type": "unocc",
				"energy": 0.08219,
				"method": "rhf"
			}
		],
		"cosmo_sigma_profile": { 
			"-0.025": 0.0,
			"-0.024": 0.0,
			"-0.023": 0.0,
			"-0.022": 0.0,
			"-0.021": 0.0,
			"-0.02": 0.0,
			"-0.019": 0.0,
			"-0.018": 0.52073140117,
			"-0.017": 0.821363941447,
			"-0.016": 0.96548699997,
			"-0.015": 0.670472414789,
			"-0.014": 0.780679866787,
			"-0.013": 0.848648698489,
			"-0.012": 0.874399824032,
			"-0.011": 1.13873440904,
			"-0.01": 1.68967040364,
			"-0.009": 1.44388195612,
			"-0.008": 1.39728337223,
			"-0.007": 2.10468728366,
			"-0.006": 4.08834853577,
			"-0.005": 7.91541053694,
			"-0.004": 11.8665850872,
			"-0.003": 17.5185700079,
			"-0.002": 32.7297398743,
			"-0.001": 38.2392638946,
			"0.0": 30.520087996,
			"0.001": 24.5590285607,
			"0.002": 14.7178128207,
			"0.003": 14.0413181199,
			"0.004": 15.5107081353,
			"0.005": 15.7491520756,
			"0.006": 7.54820819688,
			"0.007": 3.75496067853,
			"0.008": 3.30596360975,
			"0.009": 1.09904755094,
			"0.01": 1.93314160212,
			"0.011": 2.10980783457,
			"0.012": 1.92420984728,
			"0.013": 0.365645167663,
			"0.014": 0.0,
			"0.015": 0.0,
			"0.016": 0.0,
			"0.017": 0.0,
			"0.018": 0.0,
			"0.019": 0.0,
			"0.02": 0.0,
			"0.021": 0.0,
			"0.022": 0.0,
			"0.023": 0.0,
			"0.024": 0.0,
			"0.025": 0.0
		}
	}
}
