{
	 "smiles": "CN1N=C(CCNC(=O)C2=CC(=CC(=C2)[N+]([O-])=O)[N+]([O-])=O)C2=C1N=CN=C2N", 
	 "Tm": 554.15, 
	 "num_atms": 42, 
	 "gaussian": { 
		 "optdone": 1, 
		 "sigma_profile": "yes", 
		 "theory": "DFT", 
		 "functional": "B3LYP", 
		 "basiset": "6-31G**", 
		 "properties": { 
			 "R2extent": 8618.8219, 
			 "electric_dipole_moment_norm": 6.94340439626, 
			 "electric_quadrupole_moment_norm": 18.1735116348, 
			 "total_energy": -1393.97825553, 
			 "HOMO_LUMO_gap": 0.12543, 
			 "cosmo_polarized_energy": -30.3, 
			 "cosmo_cavitation_energy": 48.69, 
			 "cosmo_dispersion_energy": -29.54, 
			 "cosmo_repulsion_energy": 2.19, 
			 "cosmo_total_nonelectrostatic_energy": 21.34, 
			 "SMD_solvation_energy": 8.59 
		},
		"coords": [
			{
				"x": 0.0282677793,
				"y": -0.977422399,
				"z": 3.3546137191,
				"element": "C" 
			},
			{
				"x": -0.6453266777,
				"y": -0.4464644353,
				"z": 2.1831239031,
				"element": "N" 
			},
			{
				"x": -1.8464962369,
				"y": -0.9467387012,
				"z": 1.7750136767,
				"element": "N" 
			},
			{
				"x": -2.220724607,
				"y": -0.2476911515,
				"z": 0.7108783005,
				"element": "C" 
			},
			{
				"x": -3.4763947891,
				"y": -0.6067523672,
				"z": -0.0267355521,
				"element": "C" 
			},
			{
				"x": -3.2179103071,
				"y": -1.3431185977,
				"z": -1.3657640781,
				"element": "C" 
			},
			{
				"x": -2.7534498472,
				"y": -2.7192325945,
				"z": -1.2117378826,
				"element": "N" 
			},
			{
				"x": -1.4940632795,
				"y": -3.1777947609,
				"z": -0.9062947698,
				"element": "C" 
			},
			{
				"x": -1.3204865239,
				"y": -4.2622567432,
				"z": -0.3653347445,
				"element": "O" 
			},
			{
				"x": -0.2985411814,
				"y": -2.3479522114,
				"z": -1.303651388,
				"element": "C" 
			},
			{
				"x": 0.7695938114,
				"y": -2.3032136279,
				"z": -0.4000185913,
				"element": "C" 
			},
			{
				"x": 1.9149992021,
				"y": -1.5898343716,
				"z": -0.7334864309,
				"element": "C" 
			},
			{
				"x": 2.0673697456,
				"y": -0.9528572338,
				"z": -1.9611026697,
				"element": "C" 
			},
			{
				"x": 1.0076334054,
				"y": -1.0496739847,
				"z": -2.8540650827,
				"element": "C" 
			},
			{
				"x": -0.1722509711,
				"y": -1.7279166725,
				"z": -2.5494648047,
				"element": "C" 
			},
			{
				"x": 1.1330017072,
				"y": -0.4024335969,
				"z": -4.1745440479,
				"element": "N" 
			},
			{
				"x": 2.1864209864,
				"y": 0.1763619614,
				"z": -4.4237849014,
				"element": "O" 
			},
			{
				"x": 0.1712736632,
				"y": -0.4856359827,
				"z": -4.9366719141,
				"element": "O" 
			},
			{
				"x": 3.0128956337,
				"y": -1.5027146807,
				"z": 0.2503828897,
				"element": "N" 
			},
			{
				"x": 4.0361199731,
				"y": -0.9206432078,
				"z": -0.0963882976,
				"element": "O" 
			},
			{
				"x": 2.8272252448,
				"y": -2.02015445,
				"z": 1.3498852055,
				"element": "O" 
			},
			{
				"x": -1.2423547699,
				"y": 0.7533197878,
				"z": 0.4096302868,
				"element": "C" 
			},
			{
				"x": -0.2407923491,
				"y": 0.5808787458,
				"z": 1.3889407366,
				"element": "C" 
			},
			{
				"x": 0.9035843536,
				"y": 1.2783121099,
				"z": 1.4933143296,
				"element": "N" 
			},
			{
				"x": 1.018352264,
				"y": 2.1941565034,
				"z": 0.535835173,
				"element": "C" 
			},
			{
				"x": 0.1541469509,
				"y": 2.4827915632,
				"z": -0.4571154642,
				"element": "N" 
			},
			{
				"x": -0.980608004,
				"y": 1.7759795118,
				"z": -0.5353115093,
				"element": "C" 
			},
			{
				"x": -1.8165862717,
				"y": 2.061869214,
				"z": -1.5809743583,
				"element": "N" 
			},
			{
				"x": -0.4331738641,
				"y": -0.600267054,
				"z": 4.2724846681,
				"element": "H" 
			},
			{
				"x": -0.0359645343,
				"y": -2.06644823,
				"z": 3.3404397574,
				"element": "H" 
			},
			{
				"x": 1.0723058566,
				"y": -0.6665828,
				"z": 3.3122821341,
				"element": "H" 
			},
			{
				"x": -4.09430058,
				"y": -1.2347898153,
				"z": 0.6227220912,
				"element": "H" 
			},
			{
				"x": -4.0641037105,
				"y": 0.2960459935,
				"z": -0.2431304046,
				"element": "H" 
			},
			{
				"x": -2.5016443296,
				"y": -0.7768255805,
				"z": -1.9636592237,
				"element": "H" 
			},
			{
				"x": -4.1492364087,
				"y": -1.3811100291,
				"z": -1.9407243671,
				"element": "H" 
			},
			{
				"x": -3.4505672639,
				"y": -3.3737438441,
				"z": -0.8728201441,
				"element": "H" 
			},
			{
				"x": 0.7017769585,
				"y": -2.8171273895,
				"z": 0.549545078,
				"element": "H" 
			},
			{
				"x": 2.9687049796,
				"y": -0.4096335289,
				"z": -2.2092859423,
				"element": "H" 
			},
			{
				"x": -0.9549648604,
				"y": -1.7768365574,
				"z": -3.2957785643,
				"element": "H" 
			},
			{
				"x": 1.9249581892,
				"y": 2.7956559181,
				"z": 0.5516950314,
				"element": "H" 
			},
			{
				"x": -1.587053079,
				"y": 2.9059279776,
				"z": -2.0878587882,
				"element": "H" 
			},
			{
				"x": -2.7972362586,
				"y": 1.8465673132,
				"z": -1.4944830596,
				"element": "H" 
			}
		],
		 "valence_orbital": [ 
			{
				"type": "occ",
				"energy": -0.28215,
				"method": "rhf"
			},
			{
				"type": "occ",
				"energy": -0.26875,
				"method": "rhf"
			},
			{
				"type": "occ",
				"energy": -0.26858,
				"method": "rhf"
			},
			{
				"type": "occ",
				"energy": -0.26473,
				"method": "rhf"
			},
			{
				"type": "occ",
				"energy": -0.23699,
				"method": "rhf"
			},
			{
				"type": "unocc",
				"energy": -0.11156,
				"method": "rhf"
			},
			{
				"type": "unocc",
				"energy": -0.10234,
				"method": "rhf"
			},
			{
				"type": "unocc",
				"energy": -0.05561,
				"method": "rhf"
			},
			{
				"type": "unocc",
				"energy": -0.04413,
				"method": "rhf"
			},
			{
				"type": "unocc",
				"energy": -0.00933,
				"method": "rhf"
			}
		],
		"cosmo_sigma_profile": { 
			"-0.025": 0.0,
			"-0.024": 0.0,
			"-0.023": 0.0,
			"-0.022": 0.0,
			"-0.021": 0.0,
			"-0.02": 0.0,
			"-0.019": 0.0,
			"-0.018": 0.0,
			"-0.017": 0.0,
			"-0.016": 0.0,
			"-0.015": 0.00421328818282,
			"-0.014": 1.94271574683,
			"-0.013": 4.10908634012,
			"-0.012": 3.60225392449,
			"-0.011": 4.42984710489,
			"-0.01": 4.08008855896,
			"-0.009": 3.67186647469,
			"-0.008": 7.01732334514,
			"-0.007": 12.5831423658,
			"-0.006": 20.7992140604,
			"-0.005": 23.1203758032,
			"-0.004": 26.9944104088,
			"-0.003": 37.1745630686,
			"-0.002": 33.2629809985,
			"-0.001": 24.5330998832,
			"0.0": 21.1260195506,
			"0.001": 17.7939183915,
			"0.002": 17.0574935405,
			"0.003": 15.0332249687,
			"0.004": 13.3857258885,
			"0.005": 11.8704129161,
			"0.006": 18.6648549204,
			"0.007": 18.1190127967,
			"0.008": 12.777376873,
			"0.009": 9.88569552017,
			"0.01": 4.69123042012,
			"0.011": 4.03929493336,
			"0.012": 5.4860103663,
			"0.013": 7.48074993457,
			"0.014": 2.22702312915,
			"0.015": 0.896025446697,
			"0.016": 0.0268258249298,
			"0.017": 0.0,
			"0.018": 0.0,
			"0.019": 0.0,
			"0.02": 0.0,
			"0.021": 0.0,
			"0.022": 0.0,
			"0.023": 0.0,
			"0.024": 0.0,
			"0.025": 0.0
		}
	}
}
