{
	 "smiles": "COC1=C(OCC(F)(F)F)C=C(C(C=O)=C1)[N+]([O-])=O", 
	 "Tm": 424.15, 
	 "num_atms": 27, 
	 "gaussian": { 
		 "optdone": 1, 
		 "sigma_profile": "yes", 
		 "theory": "DFT", 
		 "functional": "B3LYP", 
		 "basiset": "6-31G**", 
		 "properties": { 
			 "R2extent": 5629.8759, 
			 "electric_dipole_moment_norm": 6.11101445015, 
			 "electric_quadrupole_moment_norm": 9.84707570246, 
			 "total_energy": -1116.13538435, 
			 "HOMO_LUMO_gap": 0.15376, 
			 "cosmo_polarized_energy": -13.86, 
			 "cosmo_cavitation_energy": 34.35, 
			 "cosmo_dispersion_energy": -23.39, 
			 "cosmo_repulsion_energy": 1.76, 
			 "cosmo_total_nonelectrostatic_energy": 12.71, 
			 "SMD_solvation_energy": 11.23 
		},
		"coords": [
			{
				"x": 2.4529968986,
				"y": -0.4465576518,
				"z": 2.9103398929,
				"element": "C" 
			},
			{
				"x": 2.1854064871,
				"y": -0.2994377387,
				"z": 1.515003915,
				"element": "O" 
			},
			{
				"x": 0.9004624973,
				"y": -0.1308012101,
				"z": 1.1188115264,
				"element": "C" 
			},
			{
				"x": 0.6895346003,
				"y": 0.0557234723,
				"z": -0.2701857767,
				"element": "C" 
			},
			{
				"x": 1.7281924833,
				"y": 0.1406507391,
				"z": -1.1607157796,
				"element": "O" 
			},
			{
				"x": 2.59699568,
				"y": -0.9751603624,
				"z": -1.311157437,
				"element": "C" 
			},
			{
				"x": 2.0098652034,
				"y": -2.0016865057,
				"z": -2.2680057914,
				"element": "C" 
			},
			{
				"x": 1.7373123393,
				"y": -1.4705184233,
				"z": -3.4712887413,
				"element": "F" 
			},
			{
				"x": 0.8665299383,
				"y": -2.5303084393,
				"z": -1.783089164,
				"element": "F" 
			},
			{
				"x": 2.8939948125,
				"y": -3.0077107554,
				"z": -2.4402527407,
				"element": "F" 
			},
			{
				"x": -0.5942465428,
				"y": 0.2784510031,
				"z": -0.7455291286,
				"element": "C" 
			},
			{
				"x": -1.6767335574,
				"y": 0.3163067913,
				"z": 0.1335467015,
				"element": "C" 
			},
			{
				"x": -1.5041202068,
				"y": 0.0926828698,
				"z": 1.5104653288,
				"element": "C" 
			},
			{
				"x": -2.5876922861,
				"y": -0.0150030811,
				"z": 2.5449662648,
				"element": "C" 
			},
			{
				"x": -2.3247563985,
				"y": -0.1145664961,
				"z": 3.7292223653,
				"element": "O" 
			},
			{
				"x": -0.2002329964,
				"y": -0.1319724716,
				"z": 1.9732949802,
				"element": "C" 
			},
			{
				"x": -2.9854120781,
				"y": 0.6268599968,
				"z": -0.4584756498,
				"element": "N" 
			},
			{
				"x": -3.8653281247,
				"y": 1.0704517588,
				"z": 0.2832328805,
				"element": "O" 
			},
			{
				"x": -3.1204610908,
				"y": 0.4453017497,
				"z": -1.6669511258,
				"element": "O" 
			},
			{
				"x": 1.9797648717,
				"y": -1.3487893895,
				"z": 3.3135597216,
				"element": "H" 
			},
			{
				"x": 3.5362165846,
				"y": -0.5333761928,
				"z": 2.994907184,
				"element": "H" 
			},
			{
				"x": 2.1097975571,
				"y": 0.4292714593,
				"z": 3.4715587426,
				"element": "H" 
			},
			{
				"x": 2.8198383592,
				"y": -1.4623589998,
				"z": -0.3602360907,
				"element": "H" 
			},
			{
				"x": 3.5220593748,
				"y": -0.5920991832,
				"z": -1.7462497389,
				"element": "H" 
			},
			{
				"x": -0.7492697181,
				"y": 0.4333328856,
				"z": -1.8051917306,
				"element": "H" 
			},
			{
				"x": -3.6238790559,
				"y": -0.0271334697,
				"z": 2.1821946671,
				"element": "H" 
			},
			{
				"x": -0.0926356319,
				"y": -0.2997523554,
				"z": 3.0380247246,
				"element": "H" 
			}
		],
		 "valence_orbital": [ 
			{
				"type": "occ",
				"energy": -0.31628,
				"method": "rhf"
			},
			{
				"type": "occ",
				"energy": -0.302,
				"method": "rhf"
			},
			{
				"type": "occ",
				"energy": -0.28012,
				"method": "rhf"
			},
			{
				"type": "occ",
				"energy": -0.26816,
				"method": "rhf"
			},
			{
				"type": "occ",
				"energy": -0.25715,
				"method": "rhf"
			},
			{
				"type": "unocc",
				"energy": -0.10339,
				"method": "rhf"
			},
			{
				"type": "unocc",
				"energy": -0.06788,
				"method": "rhf"
			},
			{
				"type": "unocc",
				"energy": -0.01305,
				"method": "rhf"
			},
			{
				"type": "unocc",
				"energy": 0.01889,
				"method": "rhf"
			},
			{
				"type": "unocc",
				"energy": 0.05526,
				"method": "rhf"
			}
		],
		"cosmo_sigma_profile": { 
			"-0.025": 0.0,
			"-0.024": 0.0,
			"-0.023": 0.0,
			"-0.022": 0.0,
			"-0.021": 0.0,
			"-0.02": 0.0,
			"-0.019": 0.0,
			"-0.018": 0.0,
			"-0.017": 0.0,
			"-0.016": 0.0,
			"-0.015": 0.0,
			"-0.014": 0.0,
			"-0.013": 0.0,
			"-0.012": 0.0,
			"-0.011": 0.0,
			"-0.01": 0.863103929927,
			"-0.009": 3.64653517718,
			"-0.008": 5.74921051846,
			"-0.007": 15.871098887,
			"-0.006": 17.0563405322,
			"-0.005": 16.2484378546,
			"-0.004": 16.7789399697,
			"-0.003": 15.7060997038,
			"-0.002": 18.8947147448,
			"-0.001": 21.2421022777,
			"0.0": 18.3713220908,
			"0.001": 14.1274352171,
			"0.002": 29.1111242113,
			"0.003": 24.923128976,
			"0.004": 7.92598187829,
			"0.005": 6.1488698406,
			"0.006": 7.754442857,
			"0.007": 11.1171838817,
			"0.008": 8.07871762826,
			"0.009": 7.36643534251,
			"0.01": 4.89919226877,
			"0.011": 2.6424475683,
			"0.012": 0.948093509186,
			"0.013": 0.0,
			"0.014": 0.0,
			"0.015": 0.0,
			"0.016": 0.0,
			"0.017": 0.0,
			"0.018": 0.0,
			"0.019": 0.0,
			"0.02": 0.0,
			"0.021": 0.0,
			"0.022": 0.0,
			"0.023": 0.0,
			"0.024": 0.0,
			"0.025": 0.0
		}
	}
}
