{
	 "smiles": "CNC1=C(N=CS1)C(O)=O", 
	 "Tm": 373.15, 
	 "num_atms": 16, 
	 "gaussian": { 
		 "optdone": 1, 
		 "sigma_profile": "yes", 
		 "theory": "DFT", 
		 "functional": "B3LYP", 
		 "basiset": "6-31G**", 
		 "properties": { 
			 "R2extent": 1786.4843, 
			 "electric_dipole_moment_norm": 5.46121449863, 
			 "electric_quadrupole_moment_norm": 12.0865599213, 
			 "total_energy": -852.284788192, 
			 "HOMO_LUMO_gap": 0.18586, 
			 "cosmo_polarized_energy": -16.88, 
			 "cosmo_cavitation_energy": 22.0, 
			 "cosmo_dispersion_energy": -17.16, 
			 "cosmo_repulsion_energy": 1.35, 
			 "cosmo_total_nonelectrostatic_energy": 6.19, 
			 "SMD_solvation_energy": 3.3 
		},
		"coords": [
			{
				"x": -3.0530979824,
				"y": -0.4653846303,
				"z": 0.600426492,
				"element": "C" 
			},
			{
				"x": -1.9966363656,
				"y": -0.2184614572,
				"z": -0.3585474153,
				"element": "N" 
			},
			{
				"x": -0.6855467901,
				"y": -0.4449567753,
				"z": -0.1234428012,
				"element": "C" 
			},
			{
				"x": 0.4178212474,
				"y": -0.2423436437,
				"z": -0.9659993847,
				"element": "C" 
			},
			{
				"x": 1.6395512383,
				"y": -0.5790580591,
				"z": -0.4164692283,
				"element": "N" 
			},
			{
				"x": 1.5286435967,
				"y": -1.021850197,
				"z": 0.7843101401,
				"element": "C" 
			},
			{
				"x": -0.132642723,
				"y": -1.0845494428,
				"z": 1.4126828731,
				"element": "S" 
			},
			{
				"x": 0.3788915599,
				"y": 0.2783578966,
				"z": -2.3301446829,
				"element": "C" 
			},
			{
				"x": -0.9100059919,
				"y": 0.5692327233,
				"z": -2.7390358361,
				"element": "O" 
			},
			{
				"x": 1.3187099352,
				"y": 0.46051073,
				"z": -3.0729324623,
				"element": "O" 
			},
			{
				"x": -2.9223319554,
				"y": 0.1343725086,
				"z": 1.5108242985,
				"element": "H" 
			},
			{
				"x": -4.0077516369,
				"y": -0.1943639601,
				"z": 0.1466221732,
				"element": "H" 
			},
			{
				"x": -3.0979567515,
				"y": -1.5236487965,
				"z": 0.8895258337,
				"element": "H" 
			},
			{
				"x": -2.210755069,
				"y": 0.152993352,
				"z": -1.2740821355,
				"element": "H" 
			},
			{
				"x": 2.3490212786,
				"y": -1.3459835978,
				"z": 1.4124899999,
				"element": "H" 
			},
			{
				"x": -0.8162135904,
				"y": 0.9027333496,
				"z": -3.6458278642,
				"element": "H" 
			}
		],
		 "valence_orbital": [ 
			{
				"type": "occ",
				"energy": -0.31284,
				"method": "rhf"
			},
			{
				"type": "occ",
				"energy": -0.27888,
				"method": "rhf"
			},
			{
				"type": "occ",
				"energy": -0.2731,
				"method": "rhf"
			},
			{
				"type": "occ",
				"energy": -0.26607,
				"method": "rhf"
			},
			{
				"type": "occ",
				"energy": -0.20965,
				"method": "rhf"
			},
			{
				"type": "unocc",
				"energy": -0.02379,
				"method": "rhf"
			},
			{
				"type": "unocc",
				"energy": -0.00128,
				"method": "rhf"
			},
			{
				"type": "unocc",
				"energy": 0.00242,
				"method": "rhf"
			},
			{
				"type": "unocc",
				"energy": 0.06424,
				"method": "rhf"
			},
			{
				"type": "unocc",
				"energy": 0.08076,
				"method": "rhf"
			}
		],
		"cosmo_sigma_profile": { 
			"-0.025": 0.0,
			"-0.024": 0.0,
			"-0.023": 0.0,
			"-0.022": 0.0,
			"-0.021": 0.0,
			"-0.02": 0.0,
			"-0.019": 0.0,
			"-0.018": 0.495992755545,
			"-0.017": 0.692357051469,
			"-0.016": 1.15490611154,
			"-0.015": 0.769366635578,
			"-0.014": 0.303343072783,
			"-0.013": 0.82629919254,
			"-0.012": 1.29103582422,
			"-0.011": 1.48409636351,
			"-0.01": 2.4345969071,
			"-0.009": 4.50956774579,
			"-0.008": 4.06702510805,
			"-0.007": 4.7658774881,
			"-0.006": 6.62624952518,
			"-0.005": 10.0576977692,
			"-0.004": 11.7707638586,
			"-0.003": 13.2448018804,
			"-0.002": 10.7659761279,
			"-0.001": 10.2116689012,
			"0.0": 16.6885359597,
			"0.001": 18.1727157869,
			"0.002": 11.5448163976,
			"0.003": 7.65604077053,
			"0.004": 4.91465275224,
			"0.005": 3.33731925609,
			"0.006": 1.99358217331,
			"0.007": 2.18883689279,
			"0.008": 2.32847198582,
			"0.009": 2.10360020424,
			"0.01": 2.80080542937,
			"0.011": 2.68249463551,
			"0.012": 6.2702541882,
			"0.013": 3.94761888216,
			"0.014": 1.98476587511,
			"0.015": 2.28481273743,
			"0.016": 1.22164220762,
			"0.017": 0.222311841626,
			"0.018": 0.0,
			"0.019": 0.0,
			"0.02": 0.0,
			"0.021": 0.0,
			"0.022": 0.0,
			"0.023": 0.0,
			"0.024": 0.0,
			"0.025": 0.0
		}
	}
}
