{
	 "smiles": "BrC1=CC(=CC=C1)S(=O)(=O)C=C", 
	 "Tm": 324.15, 
	 "num_atms": 19, 
	 "gaussian": { 
		 "optdone": 1, 
		 "sigma_profile": "yes", 
		 "theory": "DFT", 
		 "functional": "B3LYP", 
		 "basiset": "6-31G**", 
		 "properties": { 
			 "R2extent": 4645.1139, 
			 "electric_dipole_moment_norm": 4.48857017323, 
			 "electric_quadrupole_moment_norm": 16.3454577666, 
			 "total_energy": -3429.01003344, 
			 "HOMO_LUMO_gap": 0.19988, 
			 "cosmo_polarized_energy": -13.11, 
			 "cosmo_cavitation_energy": 27.58, 
			 "cosmo_dispersion_energy": -20.51, 
			 "cosmo_repulsion_energy": 1.59, 
			 "cosmo_total_nonelectrostatic_energy": 8.66, 
			 "SMD_solvation_energy": 3.96 
		},
		"coords": [
			{
				"x": 2.9493569596,
				"y": -3.0285846863,
				"z": 1.095414949,
				"element": "Br" 
			},
			{
				"x": 2.3534251202,
				"y": -1.2162431751,
				"z": 1.0435322467,
				"element": "C" 
			},
			{
				"x": 1.6202232893,
				"y": -0.7699773491,
				"z": -0.0527462829,
				"element": "C" 
			},
			{
				"x": 1.1990655275,
				"y": 0.5611250267,
				"z": -0.0634974946,
				"element": "C" 
			},
			{
				"x": 1.5037412677,
				"y": 1.4413984765,
				"z": 0.9752271106,
				"element": "C" 
			},
			{
				"x": 2.2414175901,
				"y": 0.9674062443,
				"z": 2.0608650786,
				"element": "C" 
			},
			{
				"x": 2.6660170149,
				"y": -0.3615377497,
				"z": 2.1024948774,
				"element": "C" 
			},
			{
				"x": 0.2415182046,
				"y": 1.1581758715,
				"z": -1.4699724668,
				"element": "S" 
			},
			{
				"x": 0.5841203108,
				"y": 0.3245509756,
				"z": -2.6325734223,
				"element": "O" 
			},
			{
				"x": 0.3768479923,
				"y": 2.6226285013,
				"z": -1.4996835918,
				"element": "O" 
			},
			{
				"x": -1.4483380287,
				"y": 0.7937729836,
				"z": -1.0033279508,
				"element": "C" 
			},
			{
				"x": -2.1706187054,
				"y": -0.067226099,
				"z": -1.7125751443,
				"element": "C" 
			},
			{
				"x": 1.3947650805,
				"y": -1.4244798263,
				"z": -0.8861111485,
				"element": "H" 
			},
			{
				"x": 1.1859537372,
				"y": 2.4763565088,
				"z": 0.9148911859,
				"element": "H" 
			},
			{
				"x": 2.4947260684,
				"y": 1.6356042759,
				"z": 2.8781345507,
				"element": "H" 
			},
			{
				"x": 3.2402114668,
				"y": -0.7317894224,
				"z": 2.9441265299,
				"element": "H" 
			},
			{
				"x": -1.8127517065,
				"y": 1.3677968225,
				"z": -0.1568130987,
				"element": "H" 
			},
			{
				"x": -3.2115954899,
				"y": -0.257835861,
				"z": -1.4692914031,
				"element": "H" 
			},
			{
				"x": -1.7356856994,
				"y": -0.5911415179,
				"z": -2.5583945251,
				"element": "H" 
			}
		],
		 "valence_orbital": [ 
			{
				"type": "occ",
				"energy": -0.30393,
				"method": "rhf"
			},
			{
				"type": "occ",
				"energy": -0.29964,
				"method": "rhf"
			},
			{
				"type": "occ",
				"energy": -0.2944,
				"method": "rhf"
			},
			{
				"type": "occ",
				"energy": -0.28213,
				"method": "rhf"
			},
			{
				"type": "occ",
				"energy": -0.26159,
				"method": "rhf"
			},
			{
				"type": "unocc",
				"energy": -0.06171,
				"method": "rhf"
			},
			{
				"type": "unocc",
				"energy": -0.03526,
				"method": "rhf"
			},
			{
				"type": "unocc",
				"energy": -0.02374,
				"method": "rhf"
			},
			{
				"type": "unocc",
				"energy": -0.00874,
				"method": "rhf"
			},
			{
				"type": "unocc",
				"energy": 0.0668,
				"method": "rhf"
			}
		],
		"cosmo_sigma_profile": { 
			"-0.025": 0.0,
			"-0.024": 0.0,
			"-0.023": 0.0,
			"-0.022": 0.0,
			"-0.021": 0.0,
			"-0.02": 0.0,
			"-0.019": 0.0,
			"-0.018": 0.0,
			"-0.017": 0.0,
			"-0.016": 0.0,
			"-0.015": 0.0,
			"-0.014": 0.0,
			"-0.013": 0.0,
			"-0.012": 0.0,
			"-0.011": 0.0,
			"-0.01": 1.00102800392,
			"-0.009": 3.07829198157,
			"-0.008": 8.17297437925,
			"-0.007": 12.5753284643,
			"-0.006": 12.2210416008,
			"-0.005": 12.0943899737,
			"-0.004": 13.1162779727,
			"-0.003": 12.3523339361,
			"-0.002": 14.2038698508,
			"-0.001": 14.4966747369,
			"0.0": 22.1938838871,
			"0.001": 25.679356676,
			"0.002": 16.9598734872,
			"0.003": 10.3156503709,
			"0.004": 12.5375177831,
			"0.005": 3.45755237496,
			"0.006": 2.44077555345,
			"0.007": 2.77635875964,
			"0.008": 3.36827003509,
			"0.009": 3.45197337722,
			"0.01": 6.10365063322,
			"0.011": 8.15141665013,
			"0.012": 4.63920017315,
			"0.013": 0.0,
			"0.014": 0.0,
			"0.015": 0.0,
			"0.016": 0.0,
			"0.017": 0.0,
			"0.018": 0.0,
			"0.019": 0.0,
			"0.02": 0.0,
			"0.021": 0.0,
			"0.022": 0.0,
			"0.023": 0.0,
			"0.024": 0.0,
			"0.025": 0.0
		}
	}
}
