{
	 "smiles": "N#CCC1=CSC2=CC=CC=C12", 
	 "Tm": 337.15, 
	 "num_atms": 19, 
	 "gaussian": { 
		 "optdone": 1, 
		 "sigma_profile": "yes", 
		 "theory": "DFT", 
		 "functional": "B3LYP", 
		 "basiset": "6-31G**", 
		 "properties": { 
			 "R2extent": 3266.0779, 
			 "electric_dipole_moment_norm": 3.4289863021, 
			 "electric_quadrupole_moment_norm": 14.0891116881, 
			 "total_energy": -838.204615548, 
			 "HOMO_LUMO_gap": 0.1907, 
			 "cosmo_polarized_energy": -11.5, 
			 "cosmo_cavitation_energy": 25.53, 
			 "cosmo_dispersion_energy": -18.64, 
			 "cosmo_repulsion_energy": 1.43, 
			 "cosmo_total_nonelectrostatic_energy": 8.32, 
			 "SMD_solvation_energy": 5.28 
		},
		"coords": [
			{
				"x": -0.7463751796,
				"y": -2.1867079751,
				"z": -0.648607879,
				"element": "N" 
			},
			{
				"x": -1.33361561,
				"y": -1.2071916994,
				"z": -0.4424806318,
				"element": "C" 
			},
			{
				"x": -2.0748333383,
				"y": 0.0339534807,
				"z": -0.1723902319,
				"element": "C" 
			},
			{
				"x": -1.3876684697,
				"y": 1.2765648785,
				"z": -0.695671982,
				"element": "C" 
			},
			{
				"x": -1.9085736404,
				"y": 2.0690506142,
				"z": -1.6704832743,
				"element": "C" 
			},
			{
				"x": -0.9218127261,
				"y": 3.4602582768,
				"z": -2.0449357003,
				"element": "S" 
			},
			{
				"x": 0.2629689104,
				"y": 2.9748438345,
				"z": -0.8409690838,
				"element": "C" 
			},
			{
				"x": 1.4491436124,
				"y": 3.6376999529,
				"z": -0.5107449581,
				"element": "C" 
			},
			{
				"x": 2.2577594691,
				"y": 3.0893706983,
				"z": 0.4787413401,
				"element": "C" 
			},
			{
				"x": 1.8924278395,
				"y": 1.8969868657,
				"z": 1.1289046928,
				"element": "C" 
			},
			{
				"x": 0.7148487804,
				"y": 1.2394336382,
				"z": 0.8001105004,
				"element": "C" 
			},
			{
				"x": -0.1236786754,
				"y": 1.7748816947,
				"z": -0.1956317546,
				"element": "C" 
			},
			{
				"x": -2.2212951617,
				"y": 0.10590364,
				"z": 0.9135504286,
				"element": "H" 
			},
			{
				"x": -3.0710119267,
				"y": -0.0600106088,
				"z": -0.6170911297,
				"element": "H" 
			},
			{
				"x": -2.8368024217,
				"y": 1.9201806796,
				"z": -2.2067704433,
				"element": "H" 
			},
			{
				"x": 1.7325258609,
				"y": 4.5568098226,
				"z": -1.0141716513,
				"element": "H" 
			},
			{
				"x": 3.1837810532,
				"y": 3.5875743095,
				"z": 0.7495146349,
				"element": "H" 
			},
			{
				"x": 2.5421442086,
				"y": 1.4838806554,
				"z": 1.894386136,
				"element": "H" 
			},
			{
				"x": 0.4500674151,
				"y": 0.3115172418,
				"z": 1.2981409874,
				"element": "H" 
			}
		],
		 "valence_orbital": [ 
			{
				"type": "occ",
				"energy": -0.32687,
				"method": "rhf"
			},
			{
				"type": "occ",
				"energy": -0.32568,
				"method": "rhf"
			},
			{
				"type": "occ",
				"energy": -0.28898,
				"method": "rhf"
			},
			{
				"type": "occ",
				"energy": -0.24569,
				"method": "rhf"
			},
			{
				"type": "occ",
				"energy": -0.22755,
				"method": "rhf"
			},
			{
				"type": "unocc",
				"energy": -0.03685,
				"method": "rhf"
			},
			{
				"type": "unocc",
				"energy": -0.01039,
				"method": "rhf"
			},
			{
				"type": "unocc",
				"energy": 0.01136,
				"method": "rhf"
			},
			{
				"type": "unocc",
				"energy": 0.02382,
				"method": "rhf"
			},
			{
				"type": "unocc",
				"energy": 0.03452,
				"method": "rhf"
			}
		],
		"cosmo_sigma_profile": { 
			"-0.025": 0.0,
			"-0.024": 0.0,
			"-0.023": 0.0,
			"-0.022": 0.0,
			"-0.021": 0.0,
			"-0.02": 0.0,
			"-0.019": 0.0,
			"-0.018": 0.0,
			"-0.017": 0.0,
			"-0.016": 0.0,
			"-0.015": 0.0,
			"-0.014": 0.0,
			"-0.013": 0.0,
			"-0.012": 0.0,
			"-0.011": 0.0,
			"-0.01": 0.628726469496,
			"-0.009": 7.89478608684,
			"-0.008": 7.7177899778,
			"-0.007": 9.73008168377,
			"-0.006": 13.4702677976,
			"-0.005": 11.9852783988,
			"-0.004": 13.4338127387,
			"-0.003": 10.2818797441,
			"-0.002": 9.21587646397,
			"-0.001": 9.05283127005,
			"0.0": 9.96185705002,
			"0.001": 13.7092707065,
			"0.002": 18.7760055288,
			"0.003": 19.7245542849,
			"0.004": 17.0001132315,
			"0.005": 12.7998401284,
			"0.006": 3.40915182566,
			"0.007": 2.62577373032,
			"0.008": 3.23781018166,
			"0.009": 3.37142129146,
			"0.01": 3.13044583942,
			"0.011": 2.98983447997,
			"0.012": 2.34139932896,
			"0.013": 1.85418499754,
			"0.014": 0.187407766793,
			"0.015": 0.0,
			"0.016": 0.0,
			"0.017": 0.0,
			"0.018": 0.0,
			"0.019": 0.0,
			"0.02": 0.0,
			"0.021": 0.0,
			"0.022": 0.0,
			"0.023": 0.0,
			"0.024": 0.0,
			"0.025": 0.0
		}
	}
}
