{
	 "smiles": "CNS(=O)(=O)C1=C(N)N=CC(Br)=C1", 
	 "Tm": 453.15, 
	 "num_atms": 21, 
	 "gaussian": { 
		 "optdone": 1, 
		 "sigma_profile": "yes", 
		 "theory": "DFT", 
		 "functional": "B3LYP", 
		 "basiset": "6-31G**", 
		 "properties": { 
			 "R2extent": 4702.6654, 
			 "electric_dipole_moment_norm": 3.10741608736, 
			 "electric_quadrupole_moment_norm": 13.3559548386, 
			 "total_energy": -3517.68447516, 
			 "HOMO_LUMO_gap": 0.17026, 
			 "cosmo_polarized_energy": -14.66, 
			 "cosmo_cavitation_energy": 28.66, 
			 "cosmo_dispersion_energy": -22.04, 
			 "cosmo_repulsion_energy": 1.72, 
			 "cosmo_total_nonelectrostatic_energy": 8.34, 
			 "SMD_solvation_energy": 1.86 
		},
		"coords": [
			{
				"x": -2.8420633144,
				"y": -0.3299665265,
				"z": 1.8913044436,
				"element": "C" 
			},
			{
				"x": -1.5477578315,
				"y": 0.1442467373,
				"z": 1.3697417937,
				"element": "N" 
			},
			{
				"x": -0.5419978862,
				"y": -1.0326120285,
				"z": 0.6893862704,
				"element": "S" 
			},
			{
				"x": -1.4203278191,
				"y": -1.938728394,
				"z": -0.0530380586,
				"element": "O" 
			},
			{
				"x": 0.3729494485,
				"y": -1.588009345,
				"z": 1.7095728724,
				"element": "O" 
			},
			{
				"x": 0.4431892622,
				"y": -0.0398233967,
				"z": -0.4237540476,
				"element": "C" 
			},
			{
				"x": 1.8435178682,
				"y": -0.2465490728,
				"z": -0.5989852958,
				"element": "C" 
			},
			{
				"x": 2.5650286931,
				"y": -1.1610653715,
				"z": 0.0889374608,
				"element": "N" 
			},
			{
				"x": 2.5313360631,
				"y": 0.4834087636,
				"z": -1.5065439492,
				"element": "N" 
			},
			{
				"x": 1.895414087,
				"y": 1.381310195,
				"z": -2.2479971836,
				"element": "C" 
			},
			{
				"x": 0.5235800714,
				"y": 1.6294226255,
				"z": -2.1436064935,
				"element": "C" 
			},
			{
				"x": -0.3042794002,
				"y": 2.9443299138,
				"z": -3.2456614091,
				"element": "Br" 
			},
			{
				"x": -0.2113370991,
				"y": 0.9010522975,
				"z": -1.2191609123,
				"element": "C" 
			},
			{
				"x": -3.4279424927,
				"y": 0.5508205542,
				"z": 2.1646067945,
				"element": "H" 
			},
			{
				"x": -2.7470491104,
				"y": -0.986373317,
				"z": 2.764386591,
				"element": "H" 
			},
			{
				"x": -3.3611259303,
				"y": -0.8672230771,
				"z": 1.0977461711,
				"element": "H" 
			},
			{
				"x": -1.0117215714,
				"y": 0.6682195745,
				"z": 2.058488951,
				"element": "H" 
			},
			{
				"x": 2.1544760468,
				"y": -1.6359762254,
				"z": 0.8813583806,
				"element": "H" 
			},
			{
				"x": 3.5607566354,
				"y": -1.1563219256,
				"z": -0.0638310906,
				"element": "H" 
			},
			{
				"x": 2.4988148357,
				"y": 1.9391540119,
				"z": -2.9605702286,
				"element": "H" 
			},
			{
				"x": -1.2749605561,
				"y": 1.0645840065,
				"z": -1.0949810602,
				"element": "H" 
			}
		],
		 "valence_orbital": [ 
			{
				"type": "occ",
				"energy": -0.3004,
				"method": "rhf"
			},
			{
				"type": "occ",
				"energy": -0.29692,
				"method": "rhf"
			},
			{
				"type": "occ",
				"energy": -0.27675,
				"method": "rhf"
			},
			{
				"type": "occ",
				"energy": -0.27601,
				"method": "rhf"
			},
			{
				"type": "occ",
				"energy": -0.22557,
				"method": "rhf"
			},
			{
				"type": "unocc",
				"energy": -0.05531,
				"method": "rhf"
			},
			{
				"type": "unocc",
				"energy": -0.01681,
				"method": "rhf"
			},
			{
				"type": "unocc",
				"energy": -0.00193,
				"method": "rhf"
			},
			{
				"type": "unocc",
				"energy": 0.05434,
				"method": "rhf"
			},
			{
				"type": "unocc",
				"energy": 0.06136,
				"method": "rhf"
			}
		],
		"cosmo_sigma_profile": { 
			"-0.025": 0.0,
			"-0.024": 0.0,
			"-0.023": 0.0,
			"-0.022": 0.0,
			"-0.021": 0.0,
			"-0.02": 0.0,
			"-0.019": 0.0,
			"-0.018": 0.0,
			"-0.017": 0.0,
			"-0.016": 0.0283956047615,
			"-0.015": 1.05351969894,
			"-0.014": 2.24437461441,
			"-0.013": 1.99191565747,
			"-0.012": 2.1378125147,
			"-0.011": 1.93077889933,
			"-0.01": 3.24877289765,
			"-0.009": 3.18976700664,
			"-0.008": 3.99555070901,
			"-0.007": 5.60868124744,
			"-0.006": 8.84295868648,
			"-0.005": 11.5565147757,
			"-0.004": 13.4793305527,
			"-0.003": 16.3834724923,
			"-0.002": 17.4264727887,
			"-0.001": 17.4368414058,
			"0.0": 19.3913681091,
			"0.001": 16.5725260029,
			"0.002": 12.7796545833,
			"0.003": 13.4505483093,
			"0.004": 15.5595365971,
			"0.005": 7.36983925716,
			"0.006": 5.38329655257,
			"0.007": 3.69839443931,
			"0.008": 3.43623800942,
			"0.009": 5.57079469386,
			"0.01": 6.86295940388,
			"0.011": 8.13285866,
			"0.012": 2.46983243079,
			"0.013": 0.794733930922,
			"0.014": 0.0584304024139,
			"0.015": 0.0,
			"0.016": 0.0,
			"0.017": 0.0,
			"0.018": 0.0,
			"0.019": 0.0,
			"0.02": 0.0,
			"0.021": 0.0,
			"0.022": 0.0,
			"0.023": 0.0,
			"0.024": 0.0,
			"0.025": 0.0
		}
	}
}
