{
	 "smiles": "FC1=C(C=CC=C1)C1=NCC(=S)N(CC(F)(F)F)C2=C1C=C(Cl)C=C2", 
	 "Tm": 411.15, 
	 "num_atms": 36, 
	 "gaussian": { 
		 "optdone": 1, 
		 "sigma_profile": "yes", 
		 "theory": "DFT", 
		 "functional": "B3LYP", 
		 "basiset": "6-31G**", 
		 "properties": { 
			 "R2extent": 9079.9612, 
			 "electric_dipole_moment_norm": 3.83698025275, 
			 "electric_quadrupole_moment_norm": 30.1290752747, 
			 "total_energy": -2021.66504056, 
			 "HOMO_LUMO_gap": 0.14785, 
			 "cosmo_polarized_energy": -15.7, 
			 "cosmo_cavitation_energy": 44.03, 
			 "cosmo_dispersion_energy": -29.94, 
			 "cosmo_repulsion_energy": 2.16, 
			 "cosmo_total_nonelectrostatic_energy": 16.25, 
			 "SMD_solvation_energy": 4.79 
		},
		"coords": [
			{
				"x": 0.5681818613,
				"y": -1.4244547647,
				"z": 1.712070721,
				"element": "F" 
			},
			{
				"x": -0.2524036253,
				"y": -0.6014319074,
				"z": 2.3992463729,
				"element": "C" 
			},
			{
				"x": -1.0551857723,
				"y": 0.312285462,
				"z": 1.703997132,
				"element": "C" 
			},
			{
				"x": -1.9240966663,
				"y": 1.1128689442,
				"z": 2.4655316209,
				"element": "C" 
			},
			{
				"x": -1.964546963,
				"y": 1.0173057135,
				"z": 3.8528871009,
				"element": "C" 
			},
			{
				"x": -1.1383553893,
				"y": 0.1029801356,
				"z": 4.5137208298,
				"element": "C" 
			},
			{
				"x": -0.2785285222,
				"y": -0.7162974208,
				"z": 3.7842081677,
				"element": "C" 
			},
			{
				"x": -1.0618944054,
				"y": 0.4137471931,
				"z": 0.2176729347,
				"element": "C" 
			},
			{
				"x": -2.1773292768,
				"y": 0.709384371,
				"z": -0.3489013984,
				"element": "N" 
			},
			{
				"x": -2.2067190386,
				"y": 0.8407535433,
				"z": -1.8046395183,
				"element": "C" 
			},
			{
				"x": -2.1150130123,
				"y": -0.5436734516,
				"z": -2.4300320513,
				"element": "C" 
			},
			{
				"x": -3.4242383367,
				"y": -1.24890737,
				"z": -3.1615811924,
				"element": "S" 
			},
			{
				"x": -0.8782087136,
				"y": -1.1321270974,
				"z": -2.2836248707,
				"element": "N" 
			},
			{
				"x": -0.6900092202,
				"y": -2.5385081444,
				"z": -2.6351046753,
				"element": "C" 
			},
			{
				"x": -0.7228649468,
				"y": -3.4376673741,
				"z": -1.4044515512,
				"element": "C" 
			},
			{
				"x": -1.8654649807,
				"y": -3.3038765753,
				"z": -0.7128775027,
				"element": "F" 
			},
			{
				"x": 0.2975345914,
				"y": -3.1697409809,
				"z": -0.5608440958,
				"element": "F" 
			},
			{
				"x": -0.6070397217,
				"y": -4.7254287279,
				"z": -1.7916114416,
				"element": "F" 
			},
			{
				"x": 0.259771145,
				"y": -0.4245928523,
				"z": -1.768670119,
				"element": "C" 
			},
			{
				"x": 0.2125044028,
				"y": 0.2601984396,
				"z": -0.5383495723,
				"element": "C" 
			},
			{
				"x": 1.3760702034,
				"y": 0.8804851831,
				"z": -0.0581376737,
				"element": "C" 
			},
			{
				"x": 2.5538833811,
				"y": 0.8326932509,
				"z": -0.7914326124,
				"element": "C" 
			},
			{
				"x": 3.9920107113,
				"y": 1.6245733074,
				"z": -0.1767433016,
				"element": "Cl" 
			},
			{
				"x": 2.6044931516,
				"y": 0.1674879561,
				"z": -2.0179241787,
				"element": "C" 
			},
			{
				"x": 1.4579424667,
				"y": -0.4547538981,
				"z": -2.4960894772,
				"element": "C" 
			},
			{
				"x": -2.5658596162,
				"y": 1.8070191303,
				"z": 1.9341756755,
				"element": "H" 
			},
			{
				"x": -2.6373703469,
				"y": 1.653178373,
				"z": 4.4193649124,
				"element": "H" 
			},
			{
				"x": -1.1650564291,
				"y": 0.022864982,
				"z": 5.5962142845,
				"element": "H" 
			},
			{
				"x": 0.3629721883,
				"y": -1.4484230144,
				"z": 4.262259483,
				"element": "H" 
			},
			{
				"x": -1.3862746562,
				"y": 1.4724078829,
				"z": -2.180899295,
				"element": "H" 
			},
			{
				"x": -3.1554197013,
				"y": 1.2853759104,
				"z": -2.0976452801,
				"element": "H" 
			},
			{
				"x": -1.5023382002,
				"y": -2.835428253,
				"z": -3.2998146357,
				"element": "H" 
			},
			{
				"x": 0.2657249432,
				"y": -2.6945274753,
				"z": -3.1356207126,
				"element": "H" 
			},
			{
				"x": 1.3485247642,
				"y": 1.4045652147,
				"z": 0.8902770263,
				"element": "H" 
			},
			{
				"x": 3.5238675749,
				"y": 0.1464278052,
				"z": -2.5918426237,
				"element": "H" 
			},
			{
				"x": 1.4921361558,
				"y": -0.9567634908,
				"z": -3.4570884821,
				"element": "H" 
			}
		],
		 "valence_orbital": [ 
			{
				"type": "occ",
				"energy": -0.26912,
				"method": "rhf"
			},
			{
				"type": "occ",
				"energy": -0.25938,
				"method": "rhf"
			},
			{
				"type": "occ",
				"energy": -0.25353,
				"method": "rhf"
			},
			{
				"type": "occ",
				"energy": -0.23488,
				"method": "rhf"
			},
			{
				"type": "occ",
				"energy": -0.21889,
				"method": "rhf"
			},
			{
				"type": "unocc",
				"energy": -0.07104,
				"method": "rhf"
			},
			{
				"type": "unocc",
				"energy": -0.05631,
				"method": "rhf"
			},
			{
				"type": "unocc",
				"energy": -0.03503,
				"method": "rhf"
			},
			{
				"type": "unocc",
				"energy": -0.03111,
				"method": "rhf"
			},
			{
				"type": "unocc",
				"energy": -0.0098,
				"method": "rhf"
			}
		],
		"cosmo_sigma_profile": { 
			"-0.025": 0.0,
			"-0.024": 0.0,
			"-0.023": 0.0,
			"-0.022": 0.0,
			"-0.021": 0.0,
			"-0.02": 0.0,
			"-0.019": 0.0,
			"-0.018": 0.0,
			"-0.017": 0.0,
			"-0.016": 0.0,
			"-0.015": 0.0,
			"-0.014": 0.0,
			"-0.013": 0.0,
			"-0.012": 0.0680012136079,
			"-0.011": 1.81584228399,
			"-0.01": 3.15931051751,
			"-0.009": 3.08648392486,
			"-0.008": 6.98412304659,
			"-0.007": 13.4164310672,
			"-0.006": 19.1799024508,
			"-0.005": 21.0806834356,
			"-0.004": 18.9040544308,
			"-0.003": 18.139006536,
			"-0.002": 20.4449822673,
			"-0.001": 21.7944407159,
			"0.0": 26.3345595218,
			"0.001": 32.6342960662,
			"0.002": 39.6300953044,
			"0.003": 41.5102265068,
			"0.004": 30.6385969011,
			"0.005": 10.4818694862,
			"0.006": 8.20391726846,
			"0.007": 8.93296810677,
			"0.008": 4.47554227921,
			"0.009": 2.92846896858,
			"0.01": 2.11039081602,
			"0.011": 1.43900992541,
			"0.012": 0.600586053611,
			"0.013": 0.726793978188,
			"0.014": 0.25784281106,
			"0.015": 0.0,
			"0.016": 0.0,
			"0.017": 0.0,
			"0.018": 0.0,
			"0.019": 0.0,
			"0.02": 0.0,
			"0.021": 0.0,
			"0.022": 0.0,
			"0.023": 0.0,
			"0.024": 0.0,
			"0.025": 0.0
		}
	}
}
