{
	 "smiles": "CN1C2=NN=C(CCl)N2C2=C(SC=C2)C1=O", 
	 "Tm": 518.15, 
	 "num_atms": 23, 
	 "gaussian": { 
		 "optdone": 1, 
		 "sigma_profile": "yes", 
		 "theory": "DFT", 
		 "functional": "B3LYP", 
		 "basiset": "6-31G**", 
		 "properties": { 
			 "R2extent": 5304.6576, 
			 "electric_dipole_moment_norm": 3.89739754323, 
			 "electric_quadrupole_moment_norm": 23.080398632, 
			 "total_energy": -1499.77192759, 
			 "HOMO_LUMO_gap": 0.17079, 
			 "cosmo_polarized_energy": -17.6, 
			 "cosmo_cavitation_energy": 30.37, 
			 "cosmo_dispersion_energy": -23.05, 
			 "cosmo_repulsion_energy": 1.7, 
			 "cosmo_total_nonelectrostatic_energy": 9.02, 
			 "SMD_solvation_energy": 3.45 
		},
		"coords": [
			{
				"x": 1.0070755291,
				"y": -0.8858485558,
				"z": -1.9487834887,
				"element": "C" 
			},
			{
				"x": 1.0519395321,
				"y": -0.1328418369,
				"z": -0.6914603061,
				"element": "N" 
			},
			{
				"x": -0.1063020093,
				"y": 0.4758081316,
				"z": -0.2692584161,
				"element": "C" 
			},
			{
				"x": -1.2678910717,
				"y": 0.4731377527,
				"z": -0.8869457641,
				"element": "N" 
			},
			{
				"x": -2.123286885,
				"y": 1.2160496598,
				"z": -0.1063414449,
				"element": "N" 
			},
			{
				"x": -1.4765008305,
				"y": 1.6513070645,
				"z": 0.9483446106,
				"element": "C" 
			},
			{
				"x": -2.0816085018,
				"y": 2.5228675001,
				"z": 1.9757535143,
				"element": "C" 
			},
			{
				"x": -2.3716540314,
				"y": 1.6759127563,
				"z": 3.5795270872,
				"element": "Cl" 
			},
			{
				"x": -0.1591296667,
				"y": 1.2004696978,
				"z": 0.9052065502,
				"element": "N" 
			},
			{
				"x": 0.9745051991,
				"y": 1.333293158,
				"z": 1.7089084076,
				"element": "C" 
			},
			{
				"x": 2.1358375178,
				"y": 0.7340091099,
				"z": 1.2552450198,
				"element": "C" 
			},
			{
				"x": 3.4501761582,
				"y": 0.995700784,
				"z": 2.3522871598,
				"element": "S" 
			},
			{
				"x": 2.419144065,
				"y": 1.9023940092,
				"z": 3.4053961293,
				"element": "C" 
			},
			{
				"x": 1.1296073234,
				"y": 2.0075180902,
				"z": 2.9540051765,
				"element": "C" 
			},
			{
				"x": 2.2594228251,
				"y": -0.0411075252,
				"z": 0.0261721857,
				"element": "C" 
			},
			{
				"x": 3.2927320507,
				"y": -0.5709187378,
				"z": -0.3591273287,
				"element": "O" 
			},
			{
				"x": 0.7119295102,
				"y": -0.2249569351,
				"z": -2.7669449301,
				"element": "H" 
			},
			{
				"x": 2.0051062748,
				"y": -1.2848430421,
				"z": -2.1175506041,
				"element": "H" 
			},
			{
				"x": 0.2762166511,
				"y": -1.6938604522,
				"z": -1.870726678,
				"element": "H" 
			},
			{
				"x": -3.0574391125,
				"y": 2.8374168712,
				"z": 1.6109590037,
				"element": "H" 
			},
			{
				"x": -1.4715007783,
				"y": 3.3961775031,
				"z": 2.2097477377,
				"element": "H" 
			},
			{
				"x": 2.8191566696,
				"y": 2.3104865186,
				"z": 4.3235571102,
				"element": "H" 
			},
			{
				"x": 0.3384635812,
				"y": 2.5033284782,
				"z": 3.4987292684,
				"element": "H" 
			}
		],
		 "valence_orbital": [ 
			{
				"type": "occ",
				"energy": -0.28505,
				"method": "rhf"
			},
			{
				"type": "occ",
				"energy": -0.27922,
				"method": "rhf"
			},
			{
				"type": "occ",
				"energy": -0.27236,
				"method": "rhf"
			},
			{
				"type": "occ",
				"energy": -0.25988,
				"method": "rhf"
			},
			{
				"type": "occ",
				"energy": -0.24314,
				"method": "rhf"
			},
			{
				"type": "unocc",
				"energy": -0.07235,
				"method": "rhf"
			},
			{
				"type": "unocc",
				"energy": -0.03787,
				"method": "rhf"
			},
			{
				"type": "unocc",
				"energy": 0.00367,
				"method": "rhf"
			},
			{
				"type": "unocc",
				"energy": 0.00838,
				"method": "rhf"
			},
			{
				"type": "unocc",
				"energy": 0.0139,
				"method": "rhf"
			}
		],
		"cosmo_sigma_profile": { 
			"-0.025": 0.0,
			"-0.024": 0.0,
			"-0.023": 0.0,
			"-0.022": 0.0,
			"-0.021": 0.0,
			"-0.02": 0.0,
			"-0.019": 0.0,
			"-0.018": 0.0,
			"-0.017": 0.0,
			"-0.016": 0.0,
			"-0.015": 0.0,
			"-0.014": 0.0,
			"-0.013": 0.0,
			"-0.012": 0.0,
			"-0.011": 0.961839683996,
			"-0.01": 6.45876513749,
			"-0.009": 6.14630721801,
			"-0.008": 7.12078142639,
			"-0.007": 9.21391170111,
			"-0.006": 12.9764743529,
			"-0.005": 15.9009307154,
			"-0.004": 18.298922877,
			"-0.003": 17.5417581682,
			"-0.002": 13.5201214697,
			"-0.001": 17.8003908392,
			"0.0": 17.8442479008,
			"0.001": 19.7698733168,
			"0.002": 16.9355898194,
			"0.003": 9.51960743113,
			"0.004": 8.38416478473,
			"0.005": 9.7960027041,
			"0.006": 6.34255195458,
			"0.007": 2.97067302762,
			"0.008": 4.14810800022,
			"0.009": 3.46255957918,
			"0.01": 3.32586014974,
			"0.011": 5.11699856135,
			"0.012": 8.4943539311,
			"0.013": 3.17831182995,
			"0.014": 2.17026002779,
			"0.015": 1.68936956453,
			"0.016": 0.106844413555,
			"0.017": 0.0,
			"0.018": 0.0,
			"0.019": 0.0,
			"0.02": 0.0,
			"0.021": 0.0,
			"0.022": 0.0,
			"0.023": 0.0,
			"0.024": 0.0,
			"0.025": 0.0
		}
	}
}
