{
	 "smiles": "O=C1NCCNC1C1=CC=CC=C1", 
	 "Tm": 413.15, 
	 "num_atms": 25, 
	 "gaussian": { 
		 "optdone": 1, 
		 "sigma_profile": "yes", 
		 "theory": "DFT", 
		 "functional": "B3LYP", 
		 "basiset": "6-31G**", 
		 "properties": { 
			 "R2extent": 3199.2255, 
			 "electric_dipole_moment_norm": 3.87418873185, 
			 "electric_quadrupole_moment_norm": 12.6846675727, 
			 "total_energy": -573.025910039, 
			 "HOMO_LUMO_gap": 0.21709, 
			 "cosmo_polarized_energy": -13.92, 
			 "cosmo_cavitation_energy": 27.24, 
			 "cosmo_dispersion_energy": -20.42, 
			 "cosmo_repulsion_energy": 1.62, 
			 "cosmo_total_nonelectrostatic_energy": 8.43, 
			 "SMD_solvation_energy": 2.71 
		},
		"coords": [
			{
				"x": -2.2183755004,
				"y": 0.7468146655,
				"z": 2.1205248097,
				"element": "O" 
			},
			{
				"x": -1.0845706636,
				"y": 0.5922240504,
				"z": 1.6774704811,
				"element": "C" 
			},
			{
				"x": -0.1839697611,
				"y": 1.6221742488,
				"z": 1.6780336214,
				"element": "N" 
			},
			{
				"x": 1.2064355855,
				"y": 1.5847402871,
				"z": 1.2400656655,
				"element": "C" 
			},
			{
				"x": 1.696073934,
				"y": 0.1357234443,
				"z": 1.254646751,
				"element": "C" 
			},
			{
				"x": 0.771438549,
				"y": -0.7624870693,
				"z": 0.5745283224,
				"element": "N" 
			},
			{
				"x": -0.57066897,
				"y": -0.7772527674,
				"z": 1.1867658029,
				"element": "C" 
			},
			{
				"x": -1.5239013423,
				"y": -1.5311321558,
				"z": 0.2565326465,
				"element": "C" 
			},
			{
				"x": -2.763269999,
				"y": -1.038354113,
				"z": -0.1684739356,
				"element": "C" 
			},
			{
				"x": -3.5557735618,
				"y": -1.7842074002,
				"z": -1.0453276307,
				"element": "C" 
			},
			{
				"x": -3.1286299264,
				"y": -3.0289669017,
				"z": -1.5055660709,
				"element": "C" 
			},
			{
				"x": -1.8964869346,
				"y": -3.5306582228,
				"z": -1.0804412734,
				"element": "C" 
			},
			{
				"x": -1.1024415018,
				"y": -2.7874544099,
				"z": -0.2089744249,
				"element": "C" 
			},
			{
				"x": -0.5696191246,
				"y": 2.4900999534,
				"z": 2.0275364123,
				"element": "H" 
			},
			{
				"x": 1.8108746486,
				"y": 2.2104632666,
				"z": 1.908458412,
				"element": "H" 
			},
			{
				"x": 1.3076800677,
				"y": 2.0010951576,
				"z": 0.2256159186,
				"element": "H" 
			},
			{
				"x": 1.8053659871,
				"y": -0.2060107256,
				"z": 2.2917534089,
				"element": "H" 
			},
			{
				"x": 2.6811986656,
				"y": 0.0686358149,
				"z": 0.781342151,
				"element": "H" 
			},
			{
				"x": 0.6836077277,
				"y": -0.4976442209,
				"z": -0.4047136837,
				"element": "H" 
			},
			{
				"x": -0.4865339896,
				"y": -1.3629839951,
				"z": 2.1170091907,
				"element": "H" 
			},
			{
				"x": -3.1210184417,
				"y": -0.0880227848,
				"z": 0.2066452122,
				"element": "H" 
			},
			{
				"x": -4.5151247816,
				"y": -1.3861213506,
				"z": -1.3643631381,
				"element": "H" 
			},
			{
				"x": -3.7503455068,
				"y": -3.6056387092,
				"z": -2.1847431299,
				"element": "H" 
			},
			{
				"x": -1.5529134136,
				"y": -4.5017106973,
				"z": -1.4264579872,
				"element": "H" 
			},
			{
				"x": -0.1384317465,
				"y": -3.1708253651,
				"z": 0.1108324683,
				"element": "H" 
			}
		],
		 "valence_orbital": [ 
			{
				"type": "occ",
				"energy": -0.26991,
				"method": "rhf"
			},
			{
				"type": "occ",
				"energy": -0.25199,
				"method": "rhf"
			},
			{
				"type": "occ",
				"energy": -0.24068,
				"method": "rhf"
			},
			{
				"type": "occ",
				"energy": -0.24031,
				"method": "rhf"
			},
			{
				"type": "occ",
				"energy": -0.21614,
				"method": "rhf"
			},
			{
				"type": "unocc",
				"energy": 0.00095,
				"method": "rhf"
			},
			{
				"type": "unocc",
				"energy": 0.00596,
				"method": "rhf"
			},
			{
				"type": "unocc",
				"energy": 0.02806,
				"method": "rhf"
			},
			{
				"type": "unocc",
				"energy": 0.07297,
				"method": "rhf"
			},
			{
				"type": "unocc",
				"energy": 0.10179,
				"method": "rhf"
			}
		],
		"cosmo_sigma_profile": { 
			"-0.025": 0.0,
			"-0.024": 0.0,
			"-0.023": 0.0,
			"-0.022": 0.0,
			"-0.021": 0.0,
			"-0.02": 0.0,
			"-0.019": 0.0,
			"-0.018": 0.0,
			"-0.017": 0.0,
			"-0.016": 0.0,
			"-0.015": 0.0,
			"-0.014": 0.252476265886,
			"-0.013": 1.09771558505,
			"-0.012": 1.00026820301,
			"-0.011": 1.4966437207,
			"-0.01": 1.83077206463,
			"-0.009": 2.31788648777,
			"-0.008": 2.46172353517,
			"-0.007": 3.43797691445,
			"-0.006": 7.46853523921,
			"-0.005": 20.6997670617,
			"-0.004": 24.2700652554,
			"-0.003": 22.3857109558,
			"-0.002": 16.4806362273,
			"-0.001": 13.2958196543,
			"0.0": 10.4135390643,
			"0.001": 9.92453629823,
			"0.002": 10.5797683843,
			"0.003": 9.46983468055,
			"0.004": 10.9618531026,
			"0.005": 10.3696832894,
			"0.006": 10.8704569646,
			"0.007": 2.74903661364,
			"0.008": 2.75264305507,
			"0.009": 1.89663385327,
			"0.01": 2.17008055883,
			"0.011": 2.18692985761,
			"0.012": 1.72275011322,
			"0.013": 3.18502498943,
			"0.014": 5.73304712905,
			"0.015": 1.38057509674,
			"0.016": 0.0,
			"0.017": 0.0,
			"0.018": 0.0,
			"0.019": 0.0,
			"0.02": 0.0,
			"0.021": 0.0,
			"0.022": 0.0,
			"0.023": 0.0,
			"0.024": 0.0,
			"0.025": 0.0
		}
	}
}
