{
	 "smiles": "COC1=C(OC)C=C(C=C1)C1=NC2=C(C=CC=C2)C(=C1)C(O)=O", 
	 "Tm": 508.15, 
	 "num_atms": 38, 
	 "gaussian": { 
		 "optdone": 1, 
		 "sigma_profile": "yes", 
		 "theory": "DFT", 
		 "functional": "B3LYP", 
		 "basiset": "6-31G**", 
		 "properties": { 
			 "R2extent": 9887.192, 
			 "electric_dipole_moment_norm": 5.15651146222, 
			 "electric_quadrupole_moment_norm": 18.6047461893, 
			 "total_energy": -1050.59324065, 
			 "HOMO_LUMO_gap": 0.13267, 
			 "cosmo_polarized_energy": -17.63, 
			 "cosmo_cavitation_energy": 42.35, 
			 "cosmo_dispersion_energy": -30.37, 
			 "cosmo_repulsion_energy": 2.28, 
			 "cosmo_total_nonelectrostatic_energy": 14.26, 
			 "SMD_solvation_energy": 8.49 
		},
		"coords": [
			{
				"x": -5.6413716338,
				"y": 0.0699707107,
				"z": -2.6591342274,
				"element": "C" 
			},
			{
				"x": -4.4170448322,
				"y": 0.3302151836,
				"z": -3.3534486968,
				"element": "O" 
			},
			{
				"x": -3.2643302177,
				"y": 0.2706681717,
				"z": -2.618179152,
				"element": "C" 
			},
			{
				"x": -2.8067712371,
				"y": -0.9287207451,
				"z": -2.0180886643,
				"element": "C" 
			},
			{
				"x": -3.6045645486,
				"y": -2.0251066194,
				"z": -2.1826290811,
				"element": "O" 
			},
			{
				"x": -3.169250168,
				"y": -3.2578339713,
				"z": -1.6277592271,
				"element": "C" 
			},
			{
				"x": -1.5979269323,
				"y": -0.9334497376,
				"z": -1.3290110532,
				"element": "C" 
			},
			{
				"x": -0.8067408567,
				"y": 0.2275887857,
				"z": -1.2349568192,
				"element": "C" 
			},
			{
				"x": -1.2606402476,
				"y": 1.4042367175,
				"z": -1.8443473455,
				"element": "C" 
			},
			{
				"x": -2.4801266395,
				"y": 1.4169218759,
				"z": -2.5205821849,
				"element": "C" 
			},
			{
				"x": 0.4757191353,
				"y": 0.1607453251,
				"z": -0.4903256809,
				"element": "C" 
			},
			{
				"x": 0.7116765842,
				"y": -0.9305294599,
				"z": 0.2263062821,
				"element": "N" 
			},
			{
				"x": 1.86076842,
				"y": -1.0278156815,
				"z": 0.9454552064,
				"element": "C" 
			},
			{
				"x": 2.8713767265,
				"y": -0.0088940548,
				"z": 0.9559915226,
				"element": "C" 
			},
			{
				"x": 4.0014933622,
				"y": -0.1802010662,
				"z": 1.8027626067,
				"element": "C" 
			},
			{
				"x": 4.1450952587,
				"y": -1.3224454869,
				"z": 2.5626802479,
				"element": "C" 
			},
			{
				"x": 3.1684131394,
				"y": -2.3443008302,
				"z": 2.5184557224,
				"element": "C" 
			},
			{
				"x": 2.0484833383,
				"y": -2.196208926,
				"z": 1.7324758776,
				"element": "C" 
			},
			{
				"x": 2.6238152294,
				"y": 1.1283416571,
				"z": 0.1207683217,
				"element": "C" 
			},
			{
				"x": 1.4323936188,
				"y": 1.215742365,
				"z": -0.5611689919,
				"element": "C" 
			},
			{
				"x": 3.597560433,
				"y": 2.2585839905,
				"z": -0.0931670351,
				"element": "C" 
			},
			{
				"x": 4.9130577191,
				"y": 1.9230443272,
				"z": -0.1623946088,
				"element": "O" 
			},
			{
				"x": 3.2557551767,
				"y": 3.4062751912,
				"z": -0.2414415205,
				"element": "O" 
			},
			{
				"x": -5.6832671879,
				"y": -0.9560584448,
				"z": -2.2854757043,
				"element": "H" 
			},
			{
				"x": -5.7710541489,
				"y": 0.7711570067,
				"z": -1.8247500847,
				"element": "H" 
			},
			{
				"x": -6.4382958008,
				"y": 0.2293249045,
				"z": -3.3881324213,
				"element": "H" 
			},
			{
				"x": -2.2081422447,
				"y": -3.5723901137,
				"z": -2.0528775179,
				"element": "H" 
			},
			{
				"x": -3.0758760507,
				"y": -3.2003206829,
				"z": -0.5359932098,
				"element": "H" 
			},
			{
				"x": -3.935545667,
				"y": -3.9898827378,
				"z": -1.8869740195,
				"element": "H" 
			},
			{
				"x": -1.2268632687,
				"y": -1.8312065481,
				"z": -0.8530946295,
				"element": "H" 
			},
			{
				"x": -0.6930507879,
				"y": 2.3253490923,
				"z": -1.7782842983,
				"element": "H" 
			},
			{
				"x": -2.8488833177,
				"y": 2.322102297,
				"z": -2.9918382866,
				"element": "H" 
			},
			{
				"x": 4.7411810019,
				"y": 0.6095733867,
				"z": 1.8855137156,
				"element": "H" 
			},
			{
				"x": 5.0102983179,
				"y": -1.4317968078,
				"z": 3.2095966137,
				"element": "H" 
			},
			{
				"x": 3.2983920486,
				"y": -3.2388779537,
				"z": 3.120168418,
				"element": "H" 
			},
			{
				"x": 1.2698268507,
				"y": -2.9508460588,
				"z": 1.6956563406,
				"element": "H" 
			},
			{
				"x": 1.2594587371,
				"y": 2.088814955,
				"z": -1.1771001372,
				"element": "H" 
			},
			{
				"x": 5.01198069,
				"y": 0.9597299833,
				"z": -0.1373762775,
				"element": "H" 
			}
		],
		 "valence_orbital": [ 
			{
				"type": "occ",
				"energy": -0.26835,
				"method": "rhf"
			},
			{
				"type": "occ",
				"energy": -0.26513,
				"method": "rhf"
			},
			{
				"type": "occ",
				"energy": -0.25006,
				"method": "rhf"
			},
			{
				"type": "occ",
				"energy": -0.23594,
				"method": "rhf"
			},
			{
				"type": "occ",
				"energy": -0.21335,
				"method": "rhf"
			},
			{
				"type": "unocc",
				"energy": -0.08068,
				"method": "rhf"
			},
			{
				"type": "unocc",
				"energy": -0.04239,
				"method": "rhf"
			},
			{
				"type": "unocc",
				"energy": -0.01691,
				"method": "rhf"
			},
			{
				"type": "unocc",
				"energy": 0.00118,
				"method": "rhf"
			},
			{
				"type": "unocc",
				"energy": 0.00934,
				"method": "rhf"
			}
		],
		"cosmo_sigma_profile": { 
			"-0.025": 0.0,
			"-0.024": 0.0,
			"-0.023": 0.0,
			"-0.022": 0.0,
			"-0.021": 0.0,
			"-0.02": 0.0,
			"-0.019": 0.0,
			"-0.018": 0.113141232687,
			"-0.017": 0.940539937762,
			"-0.016": 0.949004732613,
			"-0.015": 0.814444770526,
			"-0.014": 0.708305000667,
			"-0.013": 0.769152671391,
			"-0.012": 1.20666256913,
			"-0.011": 0.966962852229,
			"-0.01": 0.523354376214,
			"-0.009": 1.97831533723,
			"-0.008": 2.86692307189,
			"-0.007": 6.99975348904,
			"-0.006": 19.4284034143,
			"-0.005": 26.5490023531,
			"-0.004": 28.467889349,
			"-0.003": 27.4389796952,
			"-0.002": 22.9943922235,
			"-0.001": 20.9264666356,
			"0.0": 23.177077501,
			"0.001": 21.9338240619,
			"0.002": 26.2350502733,
			"0.003": 27.8069164282,
			"0.004": 19.2742432322,
			"0.005": 10.2640540305,
			"0.006": 7.37940965283,
			"0.007": 5.40166697476,
			"0.008": 7.22730390488,
			"0.009": 7.42081313048,
			"0.01": 7.9234398489,
			"0.011": 7.50474759188,
			"0.012": 3.20830627273,
			"0.013": 0.195870352375,
			"0.014": 0.0,
			"0.015": 0.0,
			"0.016": 0.0,
			"0.017": 0.0,
			"0.018": 0.0,
			"0.019": 0.0,
			"0.02": 0.0,
			"0.021": 0.0,
			"0.022": 0.0,
			"0.023": 0.0,
			"0.024": 0.0,
			"0.0": 0.0
		}
	}
}
