{
	 "smiles": "CCOC(=O)C(=O)C=CC1=CSC=C1", 
	 "Tm": 327.15, 
	 "num_atms": 24, 
	 "gaussian": { 
		 "optdone": 1, 
		 "sigma_profile": "yes", 
		 "theory": "DFT", 
		 "functional": "B3LYP", 
		 "basiset": "6-31G**", 
		 "properties": { 
			 "R2extent": 3256.9328, 
			 "electric_dipole_moment_norm": 3.37131569124, 
			 "electric_quadrupole_moment_norm": 14.5612021097, 
			 "total_energy": -1010.90878158, 
			 "HOMO_LUMO_gap": 0.16143, 
			 "cosmo_polarized_energy": -12.74, 
			 "cosmo_cavitation_energy": 31.01, 
			 "cosmo_dispersion_energy": -21.26, 
			 "cosmo_repulsion_energy": 1.67, 
			 "cosmo_total_nonelectrostatic_energy": 11.42, 
			 "SMD_solvation_energy": 7.0 
		},
		"coords": [
			{
				"x": -0.9728924249,
				"y": 1.9556080705,
				"z": -3.2948670562,
				"element": "C" 
			},
			{
				"x": 0.0328186224,
				"y": 1.0768936477,
				"z": -2.5773364841,
				"element": "C" 
			},
			{
				"x": 0.3217102422,
				"y": 1.7005878901,
				"z": -1.3000393423,
				"element": "O" 
			},
			{
				"x": 1.2143485916,
				"y": 1.0631051481,
				"z": -0.5314243466,
				"element": "C" 
			},
			{
				"x": 1.77873383,
				"y": 0.0304488336,
				"z": -0.8179720538,
				"element": "O" 
			},
			{
				"x": 1.5511823826,
				"y": 1.8735293249,
				"z": 0.7356810326,
				"element": "C" 
			},
			{
				"x": 1.8441385323,
				"y": 3.0518017637,
				"z": 0.6076679951,
				"element": "O" 
			},
			{
				"x": 1.6943275707,
				"y": 1.1675976849,
				"z": 2.0248767671,
				"element": "C" 
			},
			{
				"x": 1.0140983155,
				"y": 0.0900147217,
				"z": 2.4680742153,
				"element": "C" 
			},
			{
				"x": -0.1292171547,
				"y": -0.5798779119,
				"z": 1.8496139719,
				"element": "C" 
			},
			{
				"x": -1.1467738647,
				"y": 0.0505032045,
				"z": 1.1641487025,
				"element": "C" 
			},
			{
				"x": -2.3495046896,
				"y": -1.0620719152,
				"z": 0.6177589101,
				"element": "S" 
			},
			{
				"x": -1.4990336298,
				"y": -2.4023517684,
				"z": 1.3238906212,
				"element": "C" 
			},
			{
				"x": -0.3590311189,
				"y": -1.9968717086,
				"z": 1.9511538425,
				"element": "C" 
			},
			{
				"x": -1.899020028,
				"y": 2.0426981096,
				"z": -2.7194205059,
				"element": "H" 
			},
			{
				"x": -1.2140459609,
				"y": 1.5209446796,
				"z": -4.2699248394,
				"element": "H" 
			},
			{
				"x": -0.5702206747,
				"y": 2.9597143149,
				"z": -3.4538567174,
				"element": "H" 
			},
			{
				"x": 0.9688428051,
				"y": 0.9785775586,
				"z": -3.135195457,
				"element": "H" 
			},
			{
				"x": -0.3528436514,
				"y": 0.0689687829,
				"z": -2.3937916439,
				"element": "H" 
			},
			{
				"x": 2.4327133161,
				"y": 1.6264407151,
				"z": 2.6779309229,
				"element": "H" 
			},
			{
				"x": 1.3251269839,
				"y": -0.3270712889,
				"z": 3.4257749176,
				"element": "H" 
			},
			{
				"x": -1.2710657151,
				"y": 1.1091551008,
				"z": 0.986560977,
				"element": "H" 
			},
			{
				"x": -1.8935970717,
				"y": -3.4043540476,
				"z": 1.2299469946,
				"element": "H" 
			},
			{
				"x": 0.322104792,
				"y": -2.6748909106,
				"z": 2.4529485763,
				"element": "H" 
			}
		],
		 "valence_orbital": [ 
			{
				"type": "occ",
				"energy": -0.30629,
				"method": "rhf"
			},
			{
				"type": "occ",
				"energy": -0.29984,
				"method": "rhf"
			},
			{
				"type": "occ",
				"energy": -0.25852,
				"method": "rhf"
			},
			{
				"type": "occ",
				"energy": -0.2493,
				"method": "rhf"
			},
			{
				"type": "occ",
				"energy": -0.23627,
				"method": "rhf"
			},
			{
				"type": "unocc",
				"energy": -0.07484,
				"method": "rhf"
			},
			{
				"type": "unocc",
				"energy": -0.03395,
				"method": "rhf"
			},
			{
				"type": "unocc",
				"energy": 0.00162,
				"method": "rhf"
			},
			{
				"type": "unocc",
				"energy": 0.01882,
				"method": "rhf"
			},
			{
				"type": "unocc",
				"energy": 0.05052,
				"method": "rhf"
			}
		],
		"cosmo_sigma_profile": { 
			"-0.025": 0.0,
			"-0.024": 0.0,
			"-0.023": 0.0,
			"-0.022": 0.0,
			"-0.021": 0.0,
			"-0.02": 0.0,
			"-0.019": 0.0,
			"-0.018": 0.0,
			"-0.017": 0.0,
			"-0.016": 0.0,
			"-0.015": 0.0,
			"-0.014": 0.0,
			"-0.013": 0.0,
			"-0.012": 0.0,
			"-0.011": 0.0,
			"-0.01": 0.0274376401422,
			"-0.009": 2.46793725182,
			"-0.008": 6.14726012146,
			"-0.007": 11.6233590873,
			"-0.006": 11.816485262,
			"-0.005": 15.0320857433,
			"-0.004": 20.5686516204,
			"-0.003": 19.7872389093,
			"-0.002": 22.1239518261,
			"-0.001": 19.5329384767,
			"0.0": 18.1664980963,
			"0.001": 17.4365877314,
			"0.002": 16.7891815817,
			"0.003": 16.1336112235,
			"0.004": 8.3774501752,
			"0.005": 6.22640566283,
			"0.006": 4.29912022245,
			"0.007": 4.76895865332,
			"0.008": 3.99647500203,
			"0.009": 5.02330514779,
			"0.01": 7.25440821966,
			"0.011": 9.08221852378,
			"0.012": 2.66943889667,
			"0.013": 0.0,
			"0.014": 0.0,
			"0.015": 0.0,
			"0.016": 0.0,
			"0.017": 0.0,
			"0.018": 0.0,
			"0.019": 0.0,
			"0.02": 0.0,
			"0.021": 0.0,
			"0.022": 0.0,
			"0.023": 0.0,
			"0.024": 0.0,
			"0.025": 0.0
		}
	}
}
