{
	 "smiles": "FC(F)(F)C(=O)NC1CCN(CC2=CC=CC=C2)C1", 
	 "Tm": 344.15, 
	 "num_atms": 34, 
	 "gaussian": { 
		 "optdone": 1, 
		 "sigma_profile": "yes", 
		 "theory": "DFT", 
		 "functional": "B3LYP", 
		 "basiset": "6-31G**", 
		 "properties": { 
			 "R2extent": 5898.7918, 
			 "electric_dipole_moment_norm": 3.9123255041, 
			 "electric_quadrupole_moment_norm": 17.4599835097, 
			 "total_energy": -988.67092112, 
			 "HOMO_LUMO_gap": 0.21261, 
			 "cosmo_polarized_energy": -13.85, 
			 "cosmo_cavitation_energy": 38.02, 
			 "cosmo_dispersion_energy": -25.09, 
			 "cosmo_repulsion_energy": 1.88, 
			 "cosmo_total_nonelectrostatic_energy": 14.81, 
			 "SMD_solvation_energy": 4.9 
		},
		"coords": [
			{
				"x": -0.9605039842,
				"y": 1.9214996578,
				"z": -1.3334705713,
				"element": "F" 
			},
			{
				"x": -1.1778878068,
				"y": 1.2959122412,
				"z": -2.5270611183,
				"element": "C" 
			},
			{
				"x": -2.3794077724,
				"y": 1.6964364671,
				"z": -2.9747733325,
				"element": "F" 
			},
			{
				"x": -0.2439840335,
				"y": 1.7157868372,
				"z": -3.3829952084,
				"element": "F" 
			},
			{
				"x": -1.1339675844,
				"y": -0.2445656948,
				"z": -2.382301171,
				"element": "C" 
			},
			{
				"x": -0.9768983947,
				"y": -0.9446433268,
				"z": -3.3684596766,
				"element": "O" 
			},
			{
				"x": -1.3210653016,
				"y": -0.6794841022,
				"z": -1.1152623444,
				"element": "N" 
			},
			{
				"x": -1.2467960198,
				"y": -2.0999896632,
				"z": -0.7680213652,
				"element": "C" 
			},
			{
				"x": -1.9370943617,
				"y": -2.3835519834,
				"z": 0.5926883184,
				"element": "C" 
			},
			{
				"x": -0.8130730663,
				"y": -3.0114173666,
				"z": 1.4677957775,
				"element": "C" 
			},
			{
				"x": 0.4663889929,
				"y": -2.5574415097,
				"z": 0.9053720431,
				"element": "N" 
			},
			{
				"x": 0.8806662899,
				"y": -1.2409704277,
				"z": 1.4215357808,
				"element": "C" 
			},
			{
				"x": 2.2088390017,
				"y": -0.7836273893,
				"z": 0.8562503531,
				"element": "C" 
			},
			{
				"x": 3.3604544842,
				"y": -1.5605681567,
				"z": 1.0472364134,
				"element": "C" 
			},
			{
				"x": 4.5910116107,
				"y": -1.1379807251,
				"z": 0.5482255751,
				"element": "C" 
			},
			{
				"x": 4.6884844131,
				"y": 0.0681099784,
				"z": -0.1524000043,
				"element": "C" 
			},
			{
				"x": 3.5473869471,
				"y": 0.8434997138,
				"z": -0.3552662403,
				"element": "C" 
			},
			{
				"x": 2.3141477546,
				"y": 0.4170508036,
				"z": 0.14521002,
				"element": "C" 
			},
			{
				"x": 0.2161215506,
				"y": -2.5943647059,
				"z": -0.54058133,
				"element": "C" 
			},
			{
				"x": -1.359920962,
				"y": 0.008330709,
				"z": -0.3771027631,
				"element": "H" 
			},
			{
				"x": -1.7081153221,
				"y": -2.6398569174,
				"z": -1.5978473313,
				"element": "H" 
			},
			{
				"x": -2.7969052707,
				"y": -3.0494538,
				"z": 0.4844751015,
				"element": "H" 
			},
			{
				"x": -2.3136879879,
				"y": -1.4541999152,
				"z": 1.0338700195,
				"element": "H" 
			},
			{
				"x": -0.8922679812,
				"y": -2.7497813803,
				"z": 2.5264478713,
				"element": "H" 
			},
			{
				"x": -0.8550843946,
				"y": -4.105153849,
				"z": 1.3926591625,
				"element": "H" 
			},
			{
				"x": 0.1335562062,
				"y": -0.4422516108,
				"z": 1.2570585149,
				"element": "H" 
			},
			{
				"x": 0.9676130527,
				"y": -1.3490336233,
				"z": 2.5100973773,
				"element": "H" 
			},
			{
				"x": 3.2784795575,
				"y": -2.5027205707,
				"z": 1.5816366396,
				"element": "H" 
			},
			{
				"x": 5.4762356112,
				"y": -1.748008857,
				"z": 0.7053437096,
				"element": "H" 
			},
			{
				"x": 5.6480604364,
				"y": 0.397104876,
				"z": -0.5408567998,
				"element": "H" 
			},
			{
				"x": 3.6123681822,
				"y": 1.7771171188,
				"z": -0.9066679469,
				"element": "H" 
			},
			{
				"x": 1.4251673482,
				"y": 1.0189243049,
				"z": -0.0297205004,
				"element": "H" 
			},
			{
				"x": 0.286129146,
				"y": -3.6371677253,
				"z": -0.8746084495,
				"element": "H" 
			},
			{
				"x": 0.9522496586,
				"y": -2.0139394073,
				"z": -1.097906524,
				"element": "H" 
			}
		],
		 "valence_orbital": [ 
			{
				"type": "occ",
				"energy": -0.28037,
				"method": "rhf"
			},
			{
				"type": "occ",
				"energy": -0.27162,
				"method": "rhf"
			},
			{
				"type": "occ",
				"energy": -0.25169,
				"method": "rhf"
			},
			{
				"type": "occ",
				"energy": -0.2466,
				"method": "rhf"
			},
			{
				"type": "occ",
				"energy": -0.22157,
				"method": "rhf"
			},
			{
				"type": "unocc",
				"energy": -0.00896,
				"method": "rhf"
			},
			{
				"type": "unocc",
				"energy": -0.00651,
				"method": "rhf"
			},
			{
				"type": "unocc",
				"energy": -0.00169,
				"method": "rhf"
			},
			{
				"type": "unocc",
				"energy": 0.0521,
				"method": "rhf"
			},
			{
				"type": "unocc",
				"energy": 0.08293,
				"method": "rhf"
			}
		],
		"cosmo_sigma_profile": { 
			"-0.025": 0.0,
			"-0.024": 0.0,
			"-0.023": 0.0,
			"-0.022": 0.0,
			"-0.021": 0.0,
			"-0.02": 0.0,
			"-0.019": 0.0,
			"-0.018": 0.0,
			"-0.017": 0.0,
			"-0.016": 0.0,
			"-0.015": 0.0,
			"-0.014": 0.0679525116704,
			"-0.013": 1.1525032482,
			"-0.012": 1.18352723356,
			"-0.011": 0.995717475051,
			"-0.01": 1.77542934815,
			"-0.009": 1.46140767471,
			"-0.008": 1.41560837781,
			"-0.007": 2.79642720322,
			"-0.006": 4.86180900533,
			"-0.005": 17.8091258778,
			"-0.004": 30.3082331457,
			"-0.003": 35.3126998811,
			"-0.002": 27.6445833158,
			"-0.001": 26.8834809031,
			"0.0": 18.7990770284,
			"0.001": 23.2132170615,
			"0.002": 34.5485306328,
			"0.003": 15.4376572779,
			"0.004": 11.814526577,
			"0.005": 11.0606935542,
			"0.006": 10.5018153082,
			"0.007": 3.14249282189,
			"0.008": 2.28901551397,
			"0.009": 1.98955300605,
			"0.01": 2.88033477418,
			"0.011": 3.10237474775,
			"0.012": 5.63797641501,
			"0.013": 1.9960730438,
			"0.014": 0.447823628078,
			"0.015": 0.198165884179,
			"0.016": 0.0,
			"0.017": 0.0,
			"0.018": 0.0,
			"0.019": 0.0,
			"0.02": 0.0,
			"0.021": 0.0,
			"0.022": 0.0,
			"0.023": 0.0,
			"0.024": 0.0,
			"0.025": 0.0
		}
	}
}
