{
	 "smiles": "CC(N)C1=CC=C(OCC2=CC=C(F)C=C2)C=C1", 
	 "Tm": 326.15, 
	 "num_atms": 34, 
	 "gaussian": { 
		 "optdone": 1, 
		 "sigma_profile": "yes", 
		 "theory": "DFT", 
		 "functional": "B3LYP", 
		 "basiset": "6-31G**", 
		 "properties": { 
			 "R2extent": 6900.9092, 
			 "electric_dipole_moment_norm": 1.61341212962, 
			 "electric_quadrupole_moment_norm": 14.4795759634, 
			 "total_energy": -811.040966392, 
			 "HOMO_LUMO_gap": 0.19592, 
			 "cosmo_polarized_energy": -10.46, 
			 "cosmo_cavitation_energy": 37.62, 
			 "cosmo_dispersion_energy": -26.53, 
			 "cosmo_repulsion_energy": 2.05, 
			 "cosmo_total_nonelectrostatic_energy": 13.14, 
			 "SMD_solvation_energy": 6.15 
		},
		"coords": [
			{
				"x": 0.5198222936,
				"y": -0.3073623717,
				"z": -4.3107445276,
				"element": "C" 
			},
			{
				"x": -0.7976503457,
				"y": 0.2750968372,
				"z": -3.7733992359,
				"element": "C" 
			},
			{
				"x": -1.0667133573,
				"y": 1.6468932947,
				"z": -4.2428654292,
				"element": "N" 
			},
			{
				"x": -0.9207381494,
				"y": 0.2408538528,
				"z": -2.250732249,
				"element": "C" 
			},
			{
				"x": -1.976220789,
				"y": 0.9354293364,
				"z": -1.6319841647,
				"element": "C" 
			},
			{
				"x": -2.1484995495,
				"y": 0.9121990124,
				"z": -0.255130264,
				"element": "C" 
			},
			{
				"x": -1.2607161846,
				"y": 0.1894508673,
				"z": 0.5549069787,
				"element": "C" 
			},
			{
				"x": -1.527410839,
				"y": 0.226321089,
				"z": 1.9015457872,
				"element": "O" 
			},
			{
				"x": -0.7702763801,
				"y": -0.5969791047,
				"z": 2.7815254171,
				"element": "C" 
			},
			{
				"x": 0.6000745253,
				"y": -0.042974923,
				"z": 3.1255963542,
				"element": "C" 
			},
			{
				"x": 0.8263682853,
				"y": 1.3383426551,
				"z": 3.1580649871,
				"element": "C" 
			},
			{
				"x": 2.0696294232,
				"y": 1.8500350276,
				"z": 3.5271233263,
				"element": "C" 
			},
			{
				"x": 3.083022877,
				"y": 0.9625522279,
				"z": 3.872466507,
				"element": "C" 
			},
			{
				"x": 4.289023112,
				"y": 1.4515979622,
				"z": 4.2315886512,
				"element": "F" 
			},
			{
				"x": 2.8920671924,
				"y": -0.4139183235,
				"z": 3.8532733339,
				"element": "C" 
			},
			{
				"x": 1.6438575291,
				"y": -0.9085736297,
				"z": 3.4731025113,
				"element": "C" 
			},
			{
				"x": -0.1998825426,
				"y": -0.5000434596,
				"z": -0.035313095,
				"element": "C" 
			},
			{
				"x": -0.0443698466,
				"y": -0.468467039,
				"z": -1.4265530924,
				"element": "C" 
			},
			{
				"x": 0.5395020487,
				"y": -0.2295538261,
				"z": -5.403089728,
				"element": "H" 
			},
			{
				"x": 0.6422821956,
				"y": -1.3658296148,
				"z": -4.0571631774,
				"element": "H" 
			},
			{
				"x": 1.3845665973,
				"y": 0.2400191359,
				"z": -3.9176976371,
				"element": "H" 
			},
			{
				"x": -1.614133736,
				"y": -0.3399372619,
				"z": -4.1820690761,
				"element": "H" 
			},
			{
				"x": -0.3297532967,
				"y": 2.2664372827,
				"z": -3.909315565,
				"element": "H" 
			},
			{
				"x": -1.0286707547,
				"y": 1.671590403,
				"z": -5.2598843877,
				"element": "H" 
			},
			{
				"x": -2.6571514163,
				"y": 1.5071475105,
				"z": -2.2537150201,
				"element": "H" 
			},
			{
				"x": -2.9675237279,
				"y": 1.444077925,
				"z": 0.2188965575,
				"element": "H" 
			},
			{
				"x": -0.6835016795,
				"y": -1.615253747,
				"z": 2.3791557868,
				"element": "H" 
			},
			{
				"x": -1.3861358437,
				"y": -0.6558728729,
				"z": 3.6861611769,
				"element": "H" 
			},
			{
				"x": 0.0231011441,
				"y": 2.0132006567,
				"z": 2.8808089317,
				"element": "H" 
			},
			{
				"x": 2.2619263754,
				"y": 2.9173284007,
				"z": 3.5506626928,
				"element": "H" 
			},
			{
				"x": 3.7099115351,
				"y": -1.0734728312,
				"z": 4.1226184029,
				"element": "H" 
			},
			{
				"x": 1.4853306186,
				"y": -1.9842306377,
				"z": 3.4470770833,
				"element": "H" 
			},
			{
				"x": 0.5215822518,
				"y": -1.0395156041,
				"z": 0.5661605623,
				"element": "H" 
			},
			{
				"x": 0.7913804341,
				"y": -1.0116882303,
				"z": -1.8548783989,
				"element": "H" 
			}
		],
		 "valence_orbital": [ 
			{
				"type": "occ",
				"energy": -0.26223,
				"method": "rhf"
			},
			{
				"type": "occ",
				"energy": -0.24584,
				"method": "rhf"
			},
			{
				"type": "occ",
				"energy": -0.23951,
				"method": "rhf"
			},
			{
				"type": "occ",
				"energy": -0.23432,
				"method": "rhf"
			},
			{
				"type": "occ",
				"energy": -0.21057,
				"method": "rhf"
			},
			{
				"type": "unocc",
				"energy": -0.01465,
				"method": "rhf"
			},
			{
				"type": "unocc",
				"energy": -0.00453,
				"method": "rhf"
			},
			{
				"type": "unocc",
				"energy": 0.00729,
				"method": "rhf"
			},
			{
				"type": "unocc",
				"energy": 0.01518,
				"method": "rhf"
			},
			{
				"type": "unocc",
				"energy": 0.08515,
				"method": "rhf"
			}
		],
		"cosmo_sigma_profile": { 
			"-0.025": 0.0,
			"-0.024": 0.0,
			"-0.023": 0.0,
			"-0.022": 0.0,
			"-0.021": 0.0,
			"-0.02": 0.0,
			"-0.019": 0.0,
			"-0.018": 0.0,
			"-0.017": 0.0,
			"-0.016": 0.0,
			"-0.015": 0.0,
			"-0.014": 0.0,
			"-0.013": 0.0,
			"-0.012": 0.0,
			"-0.011": 0.0,
			"-0.01": 0.300679590729,
			"-0.009": 2.35132526067,
			"-0.008": 2.50612304252,
			"-0.007": 7.4877281013,
			"-0.006": 15.3890428095,
			"-0.005": 20.1630024561,
			"-0.004": 23.4329240827,
			"-0.003": 25.3619034243,
			"-0.002": 22.8254451049,
			"-0.001": 21.7150710511,
			"0.0": 19.2808109164,
			"0.001": 25.9925345901,
			"0.002": 20.3235586165,
			"0.003": 19.603411096,
			"0.004": 29.9480680696,
			"0.005": 17.6309630201,
			"0.006": 10.5861986454,
			"0.007": 3.04868365734,
			"0.008": 1.8707940144,
			"0.009": 1.86449916651,
			"0.01": 1.89963299303,
			"0.011": 1.01391199057,
			"0.012": 0.765460125415,
			"0.013": 0.288081002793,
			"0.014": 0.613533050318,
			"0.015": 0.849922358776,
			"0.016": 0.559517243826,
			"0.017": 0.181565399259,
			"0.018": 0.0,
			"0.019": 0.0,
			"0.02": 0.0,
			"0.021": 0.0,
			"0.022": 0.0,
			"0.023": 0.0,
			"0.024": 0.0,
			"0.025": 0.0
		}
	}
}
