{
	 "smiles": "ClCC(=O)NCC1=CC=C(C=C1)C(=O)N1CCOCC1", 
	 "Tm": 416.15, 
	 "num_atms": 37, 
	 "gaussian": { 
		 "optdone": 1, 
		 "sigma_profile": "yes", 
		 "theory": "DFT", 
		 "functional": "B3LYP", 
		 "basiset": "6-31G**", 
		 "properties": { 
			 "R2extent": 10805.6721, 
			 "electric_dipole_moment_norm": 2.64928676817, 
			 "electric_quadrupole_moment_norm": 44.6376384137, 
			 "total_energy": -1339.10038668, 
			 "HOMO_LUMO_gap": 0.20047, 
			 "cosmo_polarized_energy": -26.21, 
			 "cosmo_cavitation_energy": 41.6, 
			 "cosmo_dispersion_energy": -29.38, 
			 "cosmo_repulsion_energy": 2.31, 
			 "cosmo_total_nonelectrostatic_energy": 14.53, 
			 "SMD_solvation_energy": 6.53 
		},
		"coords": [
			{
				"x": -5.3725202056,
				"y": -2.5651950082,
				"z": 2.78131519,
				"element": "Cl" 
			},
			{
				"x": -3.8777141396,
				"y": -3.3075641274,
				"z": 2.1406065344,
				"element": "C" 
			},
			{
				"x": -4.1210038656,
				"y": -4.0899280687,
				"z": 0.8413765927,
				"element": "C" 
			},
			{
				"x": -5.221430474,
				"y": -4.277838979,
				"z": 0.3579710811,
				"element": "O" 
			},
			{
				"x": -2.9795944128,
				"y": -4.5974457634,
				"z": 0.26539257,
				"element": "N" 
			},
			{
				"x": -1.5972028671,
				"y": -4.3711009725,
				"z": 0.6567594833,
				"element": "C" 
			},
			{
				"x": -0.9951343644,
				"y": -3.0295859072,
				"z": 0.2494232004,
				"element": "C" 
			},
			{
				"x": 0.1802288237,
				"y": -2.5891616838,
				"z": 0.875604025,
				"element": "C" 
			},
			{
				"x": 0.7847320645,
				"y": -1.3962197857,
				"z": 0.4957105428,
				"element": "C" 
			},
			{
				"x": 0.2093632476,
				"y": -0.5914208807,
				"z": -0.4987622117,
				"element": "C" 
			},
			{
				"x": -0.9598425919,
				"y": -1.0331279557,
				"z": -1.1291407232,
				"element": "C" 
			},
			{
				"x": -1.5527921587,
				"y": -2.2427378708,
				"z": -0.7619068688,
				"element": "C" 
			},
			{
				"x": 0.9600528875,
				"y": 0.6482901725,
				"z": -0.9053791596,
				"element": "C" 
			},
			{
				"x": 2.1898088001,
				"y": 0.634701252,
				"z": -0.9497082573,
				"element": "O" 
			},
			{
				"x": 0.253628094,
				"y": 1.7753447251,
				"z": -1.2518703558,
				"element": "N" 
			},
			{
				"x": 1.0484602288,
				"y": 2.9284440633,
				"z": -1.7018109654,
				"element": "C" 
			},
			{
				"x": 0.1232802695,
				"y": 3.9929448752,
				"z": -2.2769834202,
				"element": "C" 
			},
			{
				"x": -0.839122777,
				"y": 4.4670355621,
				"z": -1.3360657278,
				"element": "O" 
			},
			{
				"x": -1.231340649,
				"y": 3.5074496585,
				"z": -0.3610727156,
				"element": "C" 
			},
			{
				"x": -1.1347841744,
				"y": 2.0701977437,
				"z": -0.8717105228,
				"element": "C" 
			},
			{
				"x": -3.4860301128,
				"y": -3.9772376725,
				"z": 2.9110111366,
				"element": "H" 
			},
			{
				"x": -3.1508115176,
				"y": -2.509237539,
				"z": 1.9779870745,
				"element": "H" 
			},
			{
				"x": -3.1628089943,
				"y": -5.1000071867,
				"z": -0.5927440379,
				"element": "H" 
			},
			{
				"x": -1.4916776699,
				"y": -4.4995269042,
				"z": 1.7404028886,
				"element": "H" 
			},
			{
				"x": -1.006181924,
				"y": -5.1797025109,
				"z": 0.2110971948,
				"element": "H" 
			},
			{
				"x": 0.6303043564,
				"y": -3.1915671563,
				"z": 1.66176724,
				"element": "H" 
			},
			{
				"x": 1.7112699003,
				"y": -1.0705816796,
				"z": 0.9565607732,
				"element": "H" 
			},
			{
				"x": -1.402014888,
				"y": -0.4477792444,
				"z": -1.9290279906,
				"element": "H" 
			},
			{
				"x": -2.4563523721,
				"y": -2.57307422,
				"z": -1.2648620747,
				"element": "H" 
			},
			{
				"x": 1.7631976542,
				"y": 2.5912676471,
				"z": -2.4571081387,
				"element": "H" 
			},
			{
				"x": 1.6370888411,
				"y": 3.3376054389,
				"z": -0.8700188127,
				"element": "H" 
			},
			{
				"x": -0.3856822359,
				"y": 3.5944811118,
				"z": -3.1686617573,
				"element": "H" 
			},
			{
				"x": 0.7110695024,
				"y": 4.8606708689,
				"z": -2.5922494953,
				"element": "H" 
			},
			{
				"x": -0.6154808724,
				"y": 3.6102613551,
				"z": 0.5459785596,
				"element": "H" 
			},
			{
				"x": -2.2679918956,
				"y": 3.7328113255,
				"z": -0.0887218458,
				"element": "H" 
			},
			{
				"x": -1.8146593587,
				"y": 1.9436321551,
				"z": -1.7254744107,
				"element": "H" 
			},
			{
				"x": -1.4583101488,
				"y": 1.3831031618,
				"z": -0.0874845951,
				"element": "H" 
			}
		],
		 "valence_orbital": [ 
			{
				"type": "occ",
				"energy": -0.26693,
				"method": "rhf"
			},
			{
				"type": "occ",
				"energy": -0.26478,
				"method": "rhf"
			},
			{
				"type": "occ",
				"energy": -0.26187,
				"method": "rhf"
			},
			{
				"type": "occ",
				"energy": -0.24904,
				"method": "rhf"
			},
			{
				"type": "occ",
				"energy": -0.24381,
				"method": "rhf"
			},
			{
				"type": "unocc",
				"energy": -0.04334,
				"method": "rhf"
			},
			{
				"type": "unocc",
				"energy": -0.02291,
				"method": "rhf"
			},
			{
				"type": "unocc",
				"energy": 0.00961,
				"method": "rhf"
			},
			{
				"type": "unocc",
				"energy": 0.02105,
				"method": "rhf"
			},
			{
				"type": "unocc",
				"energy": 0.03916,
				"method": "rhf"
			}
		],
		"cosmo_sigma_profile": { 
			"-0.025": 0.0,
			"-0.024": 0.0,
			"-0.023": 0.0,
			"-0.022": 0.0,
			"-0.021": 0.0,
			"-0.02": 0.0,
			"-0.019": 0.0,
			"-0.018": 0.0,
			"-0.017": 0.0,
			"-0.016": 0.0,
			"-0.015": 0.121862303933,
			"-0.014": 1.12683632486,
			"-0.013": 1.36518243821,
			"-0.012": 0.856099254782,
			"-0.011": 1.19846205696,
			"-0.01": 2.67697469324,
			"-0.009": 4.63304631346,
			"-0.008": 5.26472799469,
			"-0.007": 9.90023314199,
			"-0.006": 21.381386514,
			"-0.005": 33.2781833625,
			"-0.004": 39.588339498,
			"-0.003": 27.216647114,
			"-0.002": 18.4202716281,
			"-0.001": 18.3343305081,
			"0.0": 14.4891575397,
			"0.001": 14.6839066594,
			"0.002": 13.546126834,
			"0.003": 14.2276117867,
			"0.004": 15.3947634118,
			"0.005": 11.7026408586,
			"0.006": 10.6023715791,
			"0.007": 5.26907722572,
			"0.008": 5.21095592625,
			"0.009": 4.56672427174,
			"0.01": 3.8825486018,
			"0.011": 5.1848363026,
			"0.012": 6.51883317058,
			"0.013": 10.7296323807,
			"0.014": 7.71519473522,
			"0.015": 1.12993366109,
			"0.016": 0.0,
			"0.017": 0.0,
			"0.018": 0.0,
			"0.019": 0.0,
			"0.02": 0.0,
			"0.021": 0.0,
			"0.022": 0.0,
			"0.023": 0.0,
			"0.024": 0.0,
			"0.025": 0.0
		}
	}
}
