{
	 "smiles": "CCCCCCCCCCCCCCCCCCCCCCCCCCCCCCCCCCCC", 
	 "Tm": 349.35, 
	 "num_atms": 110, 
	 "gaussian": { 
		 "optdone": 1, 
		 "sigma_profile": "yes", 
		 "theory": "DFT", 
		 "functional": "B3LYP", 
		 "basiset": "6-31G**", 
		 "properties": { 
			 "R2extent": 70409.3486, 
			 "electric_dipole_moment_norm": 0.0473925099567, 
			 "electric_quadrupole_moment_norm": 1.63898726048, 
			 "total_energy": -1416.54520689, 
			 "HOMO_LUMO_gap": 0.36424, 
			 "cosmo_polarized_energy": -2.07, 
			 "cosmo_cavitation_energy": 102.42, 
			 "cosmo_dispersion_energy": -67.91, 
			 "cosmo_repulsion_energy": 5.44, 
			 "cosmo_total_nonelectrostatic_energy": 39.95, 
			 "SMD_solvation_energy": 12.1 
		},
		"coords": [
			{
				"x": -2.518139474,
				"y": 9.4035159386,
				"z": -4.8746343318,
				"element": "C" 
			},
			{
				"x": -1.1150765784,
				"y": 9.1759783274,
				"z": -5.4462291929,
				"element": "C" 
			},
			{
				"x": -0.0014038586,
				"y": 9.3339617917,
				"z": -4.4026055759,
				"element": "C" 
			},
			{
				"x": 1.4038752789,
				"y": 9.1039717456,
				"z": -4.9754889608,
				"element": "C" 
			},
			{
				"x": 2.5530265552,
				"y": 9.3466033767,
				"z": -3.9811777589,
				"element": "C" 
			},
			{
				"x": 2.5784174594,
				"y": 8.4273209838,
				"z": -2.7450341021,
				"element": "C" 
			},
			{
				"x": 2.6999677653,
				"y": 6.9186887545,
				"z": -3.0269391665,
				"element": "C" 
			},
			{
				"x": 4.002838956,
				"y": 6.5051806906,
				"z": -3.7279934294,
				"element": "C" 
			},
			{
				"x": 4.1332631261,
				"y": 4.9949461467,
				"z": -3.99493725,
				"element": "C" 
			},
			{
				"x": 4.2541582565,
				"y": 4.1355805464,
				"z": -2.7270195529,
				"element": "C" 
			},
			{
				"x": 4.5991457881,
				"y": 2.6508151845,
				"z": -2.9472499275,
				"element": "C" 
			},
			{
				"x": 3.5321576052,
				"y": 1.7984434533,
				"z": -3.6700062765,
				"element": "C" 
			},
			{
				"x": 3.6617687324,
				"y": 1.7438483179,
				"z": -5.2017403582,
				"element": "C" 
			},
			{
				"x": 2.6547720323,
				"y": 0.8062234501,
				"z": -5.8896770704,
				"element": "C" 
			},
			{
				"x": 1.1923677518,
				"y": 1.2695861824,
				"z": -5.803281898,
				"element": "C" 
			},
			{
				"x": 0.2086099553,
				"y": 0.4238529989,
				"z": -6.6319037995,
				"element": "C" 
			},
			{
				"x": 0.0729819237,
				"y": -1.0528743112,
				"z": -6.2195926425,
				"element": "C" 
			},
			{
				"x": -0.4720767109,
				"y": -1.2762408562,
				"z": -4.801757018,
				"element": "C" 
			},
			{
				"x": -0.695258652,
				"y": -2.7601893337,
				"z": -4.4749570485,
				"element": "C" 
			},
			{
				"x": -1.2985713109,
				"y": -3.0364250731,
				"z": -3.0868227196,
				"element": "C" 
			},
			{
				"x": -0.3707684166,
				"y": -2.7000749442,
				"z": -1.9090855012,
				"element": "C" 
			},
			{
				"x": -0.979534822,
				"y": -2.9597784197,
				"z": -0.5194905776,
				"element": "C" 
			},
			{
				"x": -1.2402138846,
				"y": -4.4408076873,
				"z": -0.2057311484,
				"element": "C" 
			},
			{
				"x": -1.7105084982,
				"y": -4.7424575509,
				"z": 1.2293514025,
				"element": "C" 
			},
			{
				"x": -3.0928966894,
				"y": -4.1564599699,
				"z": 1.6049061997,
				"element": "C" 
			},
			{
				"x": -3.0900607399,
				"y": -2.7638215612,
				"z": 2.27950608,
				"element": "C" 
			},
			{
				"x": -3.0666183191,
				"y": -2.7822526443,
				"z": 3.818886216,
				"element": "C" 
			},
			{
				"x": -1.8128511734,
				"y": -3.387391771,
				"z": 4.4650817649,
				"element": "C" 
			},
			{
				"x": -1.824241138,
				"y": -3.3000887877,
				"z": 5.9972300121,
				"element": "C" 
			},
			{
				"x": -0.5791800192,
				"y": -3.9071783848,
				"z": 6.6563146529,
				"element": "C" 
			},
			{
				"x": -0.5900160702,
				"y": -3.8198688739,
				"z": 8.1878347693,
				"element": "C" 
			},
			{
				"x": 0.6546636221,
				"y": -4.4285231421,
				"z": 8.8462100772,
				"element": "C" 
			},
			{
				"x": 0.6446533435,
				"y": -4.3420404787,
				"z": 10.3780743665,
				"element": "C" 
			},
			{
				"x": 1.8941026107,
				"y": -4.9530626556,
				"z": 11.0277650614,
				"element": "C" 
			},
			{
				"x": 1.9499726481,
				"y": -4.8285125512,
				"z": 12.5594889669,
				"element": "C" 
			},
			{
				"x": 0.8678415975,
				"y": -5.6220681549,
				"z": 13.301762962,
				"element": "C" 
			},
			{
				"x": -2.6173819945,
				"y": 10.4124412815,
				"z": -4.4578634884,
				"element": "H" 
			},
			{
				"x": -3.2890407732,
				"y": 9.2845737352,
				"z": -5.643206834,
				"element": "H" 
			},
			{
				"x": -2.7386284851,
				"y": 8.6924243468,
				"z": -4.0701215526,
				"element": "H" 
			},
			{
				"x": -0.9379276997,
				"y": 9.877718598,
				"z": -6.2728048733,
				"element": "H" 
			},
			{
				"x": -1.0577981016,
				"y": 8.1708507495,
				"z": -5.8862477873,
				"element": "H" 
			},
			{
				"x": -0.0544115156,
				"y": 10.3423934959,
				"z": -3.9664876265,
				"element": "H" 
			},
			{
				"x": -0.1887335535,
				"y": 8.6368075688,
				"z": -3.5748065405,
				"element": "H" 
			},
			{
				"x": 1.5466975496,
				"y": 9.7716055062,
				"z": -5.8362753992,
				"element": "H" 
			},
			{
				"x": 1.4668463631,
				"y": 8.0839707313,
				"z": -5.3787320816,
				"element": "H" 
			},
			{
				"x": 2.502424732,
				"y": 10.3873803462,
				"z": -3.6326734597,
				"element": "H" 
			},
			{
				"x": 3.5057755647,
				"y": 9.260929315,
				"z": -4.5187296473,
				"element": "H" 
			},
			{
				"x": 1.6743877674,
				"y": 8.5996119224,
				"z": -2.1473370308,
				"element": "H" 
			},
			{
				"x": 3.4183765239,
				"y": 8.7340637021,
				"z": -2.1065579417,
				"element": "H" 
			},
			{
				"x": 2.6171579584,
				"y": 6.3889325197,
				"z": -2.0699345385,
				"element": "H" 
			},
			{
				"x": 1.8453886302,
				"y": 6.5801964851,
				"z": -3.629343871,
				"element": "H" 
			},
			{
				"x": 4.0829089604,
				"y": 7.0328679624,
				"z": -4.6866410858,
				"element": "H" 
			},
			{
				"x": 4.8593264401,
				"y": 6.8412961529,
				"z": -3.1249992012,
				"element": "H" 
			},
			{
				"x": 3.271414545,
				"y": 4.6655708849,
				"z": -4.589871138,
				"element": "H" 
			},
			{
				"x": 5.0190267374,
				"y": 4.8245466924,
				"z": -4.6222240354,
				"element": "H" 
			},
			{
				"x": 3.3224449819,
				"y": 4.1938375309,
				"z": -2.1486832713,
				"element": "H" 
			},
			{
				"x": 5.0328510542,
				"y": 4.574266609,
				"z": -2.0866401188,
				"element": "H" 
			},
			{
				"x": 4.7808924021,
				"y": 2.2108974937,
				"z": -1.9584611782,
				"element": "H" 
			},
			{
				"x": 5.5540406022,
				"y": 2.5731426095,
				"z": -3.4868888888,
				"element": "H" 
			},
			{
				"x": 2.5342355628,
				"y": 2.1577933384,
				"z": -3.3852620322,
				"element": "H" 
			},
			{
				"x": 3.5943264015,
				"y": 0.7671146844,
				"z": -3.2960869322,
				"element": "H" 
			},
			{
				"x": 3.5645620212,
				"y": 2.7493299269,
				"z": -5.6294555472,
				"element": "H" 
			},
			{
				"x": 4.6786814928,
				"y": 1.4090243329,
				"z": -5.4483411671,
				"element": "H" 
			},
			{
				"x": 2.7548636962,
				"y": -0.2002143119,
				"z": -5.4606056988,
				"element": "H" 
			},
			{
				"x": 2.9294129671,
				"y": 0.7113354438,
				"z": -6.9495855202,
				"element": "H" 
			},
			{
				"x": 0.8672247108,
				"y": 1.2913850661,
				"z": -4.7559635511,
				"element": "H" 
			},
			{
				"x": 1.1332182817,
				"y": 2.3089760992,
				"z": -6.1555254806,
				"element": "H" 
			},
			{
				"x": 0.5124996737,
				"y": 0.465960939,
				"z": -7.6870242084,
				"element": "H" 
			},
			{
				"x": -0.7836742965,
				"y": 0.893347668,
				"z": -6.58446067,
				"element": "H" 
			},
			{
				"x": 1.0423953934,
				"y": -1.5595568495,
				"z": -6.3185515763,
				"element": "H" 
			},
			{
				"x": -0.5953375233,
				"y": -1.5495793202,
				"z": -6.9363768009,
				"element": "H" 
			},
			{
				"x": -1.4240094327,
				"y": -0.7360537953,
				"z": -4.6905413117,
				"element": "H" 
			},
			{
				"x": 0.2149495008,
				"y": -0.8349875678,
				"z": -4.0695794799,
				"element": "H" 
			},
			{
				"x": -1.3585987691,
				"y": -3.1895991633,
				"z": -5.2382216368,
				"element": "H" 
			},
			{
				"x": 0.2584848192,
				"y": -3.2997793672,
				"z": -4.5682649191,
				"element": "H" 
			},
			{
				"x": -1.5781354059,
				"y": -4.0959472682,
				"z": -3.0370500753,
				"element": "H" 
			},
			{
				"x": -2.2358808256,
				"y": -2.4705095209,
				"z": -2.9805822601,
				"element": "H" 
			},
			{
				"x": -0.0803775164,
				"y": -1.643678941,
				"z": -1.9655338984,
				"element": "H" 
			},
			{
				"x": 0.5607147343,
				"y": -3.2765636746,
				"z": -2.0094620048,
				"element": "H" 
			},
			{
				"x": -1.9126479978,
				"y": -2.3879067188,
				"z": -0.4280133608,
				"element": "H" 
			},
			{
				"x": -0.2987617,
				"y": -2.5538035354,
				"z": 0.2415560944,
				"element": "H" 
			},
			{
				"x": -0.3145596173,
				"y": -5.0036733312,
				"z": -0.3929389441,
				"element": "H" 
			},
			{
				"x": -1.9844222908,
				"y": -4.8429070186,
				"z": -0.906185523,
				"element": "H" 
			},
			{
				"x": -1.7462653146,
				"y": -5.8336610159,
				"z": 1.3411084846,
				"element": "H" 
			},
			{
				"x": -0.9497961135,
				"y": -4.394278056,
				"z": 1.939117963,
				"element": "H" 
			},
			{
				"x": -3.7050461993,
				"y": -4.1153316174,
				"z": 0.6941874364,
				"element": "H" 
			},
			{
				"x": -3.6136213055,
				"y": -4.8572592152,
				"z": 2.2709626856,
				"element": "H" 
			},
			{
				"x": -3.9915362247,
				"y": -2.2189697544,
				"z": 1.9713119434,
				"element": "H" 
			},
			{
				"x": -2.2431608615,
				"y": -2.1708814131,
				"z": 1.9125294757,
				"element": "H" 
			},
			{
				"x": -3.9515986382,
				"y": -3.3267283578,
				"z": 4.179520571,
				"element": "H" 
			},
			{
				"x": -3.1823316891,
				"y": -1.7504917045,
				"z": 4.1794437062,
				"element": "H" 
			},
			{
				"x": -1.7100956106,
				"y": -4.4396992803,
				"z": 4.1693221244,
				"element": "H" 
			},
			{
				"x": -0.9198696157,
				"y": -2.8738433621,
				"z": 4.0800406321,
				"element": "H" 
			},
			{
				"x": -2.7214094213,
				"y": -3.8059544972,
				"z": 6.3822581218,
				"element": "H" 
			},
			{
				"x": -1.9186855584,
				"y": -2.2472836101,
				"z": 6.2999684328,
				"element": "H" 
			},
			{
				"x": 0.3180910316,
				"y": -3.402094499,
				"z": 6.2706686536,
				"element": "H" 
			},
			{
				"x": -0.4857459922,
				"y": -4.9601678047,
				"z": 6.3539954334,
				"element": "H" 
			},
			{
				"x": -1.4876991272,
				"y": -4.324293679,
				"z": 8.5733800697,
				"element": "H" 
			},
			{
				"x": -0.6823729988,
				"y": -2.7668982367,
				"z": 8.490540449,
				"element": "H" 
			},
			{
				"x": 1.5524941124,
				"y": -3.9246771121,
				"z": 8.4601763069,
				"element": "H" 
			},
			{
				"x": 0.7465008047,
				"y": -5.481559794,
				"z": 8.5434197481,
				"element": "H" 
			},
			{
				"x": -0.2571217421,
				"y": -4.8407397281,
				"z": 10.7572901949,
				"element": "H" 
			},
			{
				"x": 0.5591833326,
				"y": -3.2883293637,
				"z": 10.681514068,
				"element": "H" 
			},
			{
				"x": 2.7839937321,
				"y": -4.4695244519,
				"z": 10.6018505792,
				"element": "H" 
			},
			{
				"x": 1.9648781949,
				"y": -6.0146776785,
				"z": 10.7493475882,
				"element": "H" 
			},
			{
				"x": 2.9361781495,
				"y": -5.1665236678,
				"z": 12.9029088044,
				"element": "H" 
			},
			{
				"x": 1.8804889989,
				"y": -3.7677092321,
				"z": 12.8375745784,
				"element": "H" 
			},
			{
				"x": -0.1391220058,
				"y": -5.2689590028,
				"z": 13.0569461723,
				"element": "H" 
			},
			{
				"x": 0.9899733277,
				"y": -5.5356830934,
				"z": 14.3865943234,
				"element": "H" 
			},
			{
				"x": 0.9158255121,
				"y": -6.687314864,
				"z": 13.0464523237,
				"element": "H" 
			}
		],
		 "valence_orbital": [ 
			{
				"type": "occ",
				"energy": -0.29467,
				"method": "rhf"
			},
			{
				"type": "occ",
				"energy": -0.29382,
				"method": "rhf"
			},
			{
				"type": "occ",
				"energy": -0.29282,
				"method": "rhf"
			},
			{
				"type": "occ",
				"energy": -0.29197,
				"method": "rhf"
			},
			{
				"type": "occ",
				"energy": -0.28554,
				"method": "rhf"
			},
			{
				"type": "unocc",
				"energy": 0.0787,
				"method": "rhf"
			},
			{
				"type": "unocc",
				"energy": 0.08189,
				"method": "rhf"
			},
			{
				"type": "unocc",
				"energy": 0.08732,
				"method": "rhf"
			},
			{
				"type": "unocc",
				"energy": 0.09115,
				"method": "rhf"
			},
			{
				"type": "unocc",
				"energy": 0.09477,
				"method": "rhf"
			}
		],
		"cosmo_sigma_profile": { 
			"-0.025": 0.0,
			"-0.024": 0.0,
			"-0.023": 0.0,
			"-0.022": 0.0,
			"-0.021": 0.0,
			"-0.02": 0.0,
			"-0.019": 0.0,
			"-0.018": 0.0,
			"-0.017": 0.0,
			"-0.016": 0.0,
			"-0.015": 0.0,
			"-0.014": 0.0,
			"-0.013": 0.0,
			"-0.012": 0.0,
			"-0.011": 0.0,
			"-0.01": 0.0,
			"-0.009": 0.0,
			"-0.008": 0.0,
			"-0.007": 0.0,
			"-0.006": 0.0,
			"-0.005": 0.0,
			"-0.004": 0.0,
			"-0.003": 2.78702324652,
			"-0.002": 68.9231893255,
			"-0.001": 207.142977627,
			"0.0": 229.721567857,
			"0.001": 187.627029497,
			"0.002": 80.2440890456,
			"0.003": 2.37669864892,
			"0.004": 0.0,
			"0.005": 0.0,
			"0.006": 0.0,
			"0.007": 0.0,
			"0.008": 0.0,
			"0.009": 0.0,
			"0.01": 0.0,
			"0.011": 0.0,
			"0.012": 0.0,
			"0.013": 0.0,
			"0.014": 0.0,
			"0.015": 0.0,
			"0.016": 0.0,
			"0.017": 0.0,
			"0.018": 0.0,
			"0.019": 0.0,
			"0.02": 0.0,
			"0.021": 0.0,
			"0.022": 0.0,
			"0.023": 0.0,
			"0.024": 0.0,
			"0.025": 0.0
		}
	}
}
