{
	 "smiles": "O=C(N1C=CN=C1)N1C=CN=C1", 
	 "Tm": 391.15, 
	 "num_atms": 18, 
	 "gaussian": { 
		 "optdone": 1, 
		 "sigma_profile": "yes", 
		 "theory": "DFT", 
		 "functional": "B3LYP", 
		 "basiset": "6-31G**", 
		 "properties": { 
			 "R2extent": 2301.7081, 
			 "electric_dipole_moment_norm": 1.4623390373, 
			 "electric_quadrupole_moment_norm": 10.3120220762, 
			 "total_energy": -564.563750418, 
			 "HOMO_LUMO_gap": 0.18675, 
			 "cosmo_polarized_energy": -13.41, 
			 "cosmo_cavitation_energy": 23.24, 
			 "cosmo_dispersion_energy": -17.03, 
			 "cosmo_repulsion_energy": 1.31, 
			 "cosmo_total_nonelectrostatic_energy": 7.52, 
			 "SMD_solvation_energy": 3.29 
		},
		"coords": [
			{
				"x": 1.520288511,
				"y": -1.9794993759,
				"z": 0.3235068395,
				"element": "O" 
			},
			{
				"x": 0.9817940773,
				"y": -1.0564144881,
				"z": -0.2429733791,
				"element": "C" 
			},
			{
				"x": 1.520153939,
				"y": 0.2441879894,
				"z": -0.2401933351,
				"element": "N" 
			},
			{
				"x": 2.4733426508,
				"y": 0.6709194573,
				"z": 0.6856520641,
				"element": "C" 
			},
			{
				"x": 2.8489518806,
				"y": 1.9138361399,
				"z": 0.2742902201,
				"element": "C" 
			},
			{
				"x": 2.192182561,
				"y": 2.270988444,
				"z": -0.8960458158,
				"element": "N" 
			},
			{
				"x": 1.4138067157,
				"y": 1.2676031098,
				"z": -1.1840305665,
				"element": "C" 
			},
			{
				"x": -0.2235023539,
				"y": -1.2133557657,
				"z": -0.9522755697,
				"element": "N" 
			},
			{
				"x": -1.2516053513,
				"y": -0.3025779623,
				"z": -1.2307995359,
				"element": "C" 
			},
			{
				"x": -2.2195942609,
				"y": -1.0355570238,
				"z": -1.850556393,
				"element": "C" 
			},
			{
				"x": -1.8414610169,
				"y": -2.3648123746,
				"z": -1.9733433265,
				"element": "N" 
			},
			{
				"x": -0.665536009,
				"y": -2.4463760498,
				"z": -1.418634057,
				"element": "C" 
			},
			{
				"x": 2.7572942598,
				"y": 0.0438128998,
				"z": 1.5144861317,
				"element": "H" 
			},
			{
				"x": 3.5556713455,
				"y": 2.5827835981,
				"z": 0.7442234248,
				"element": "H" 
			},
			{
				"x": 0.7840812228,
				"y": 1.1788320057,
				"z": -2.0562526131,
				"element": "H" 
			},
			{
				"x": -1.2080791773,
				"y": 0.7274726003,
				"z": -0.919798198,
				"element": "H" 
			},
			{
				"x": -3.1775496162,
				"y": -0.6897926445,
				"z": -2.2127400123,
				"element": "H" 
			},
			{
				"x": -0.051639378,
				"y": -3.3288505592,
				"z": -1.3150158781,
				"element": "H" 
			}
		],
		 "valence_orbital": [ 
			{
				"type": "occ",
				"energy": -0.30722,
				"method": "rhf"
			},
			{
				"type": "occ",
				"energy": -0.29249,
				"method": "rhf"
			},
			{
				"type": "occ",
				"energy": -0.2884,
				"method": "rhf"
			},
			{
				"type": "occ",
				"energy": -0.26057,
				"method": "rhf"
			},
			{
				"type": "occ",
				"energy": -0.25596,
				"method": "rhf"
			},
			{
				"type": "unocc",
				"energy": -0.06921,
				"method": "rhf"
			},
			{
				"type": "unocc",
				"energy": -0.00763,
				"method": "rhf"
			},
			{
				"type": "unocc",
				"energy": 0.0418,
				"method": "rhf"
			},
			{
				"type": "unocc",
				"energy": 0.04329,
				"method": "rhf"
			},
			{
				"type": "unocc",
				"energy": 0.0489,
				"method": "rhf"
			}
		],
		"cosmo_sigma_profile": { 
			"-0.025": 0.0,
			"-0.024": 0.0,
			"-0.023": 0.0,
			"-0.022": 0.0,
			"-0.021": 0.0,
			"-0.02": 0.0,
			"-0.019": 0.0,
			"-0.018": 0.0,
			"-0.017": 0.0,
			"-0.016": 0.0,
			"-0.015": 0.0,
			"-0.014": 0.0,
			"-0.013": 0.0,
			"-0.012": 0.0,
			"-0.011": 0.033383437021,
			"-0.01": 3.53995225531,
			"-0.009": 8.00215096024,
			"-0.008": 10.5842425929,
			"-0.007": 11.302154079,
			"-0.006": 11.354711196,
			"-0.005": 11.1695621921,
			"-0.004": 10.4352021277,
			"-0.003": 9.96232499925,
			"-0.002": 9.33320998006,
			"-0.001": 9.51916180276,
			"0.0": 10.160987705,
			"0.001": 10.791300473,
			"0.002": 9.59631149858,
			"0.003": 13.3066049222,
			"0.004": 7.74800743671,
			"0.005": 3.98511626595,
			"0.006": 4.2224157978,
			"0.007": 5.7496828611,
			"0.008": 4.91199311497,
			"0.009": 5.12910705704,
			"0.01": 4.98075489778,
			"0.011": 2.34722308692,
			"0.012": 2.34180765962,
			"0.013": 1.84570505387,
			"0.014": 1.7644613181,
			"0.015": 2.71688693673,
			"0.016": 1.4546362332,
			"0.017": 0.28059660506,
			"0.018": 0.0,
			"0.019": 0.0,
			"0.02": 0.0,
			"0.021": 0.0,
			"0.022": 0.0,
			"0.023": 0.0,
			"0.024": 0.0,
			"0.025": 0.0
		}
	}
}
