{
	 "smiles": "OC(=O)C1COCCO1", 
	 "Tm": 333.15, 
	 "num_atms": 17, 
	 "gaussian": { 
		 "optdone": 1, 
		 "sigma_profile": "yes", 
		 "theory": "DFT", 
		 "functional": "B3LYP", 
		 "basiset": "6-31G**", 
		 "properties": { 
			 "R2extent": 1735.4815, 
			 "electric_dipole_moment_norm": 3.89423417503, 
			 "electric_quadrupole_moment_norm": 16.1525192001, 
			 "total_energy": -496.216927611, 
			 "HOMO_LUMO_gap": 0.24843, 
			 "cosmo_polarized_energy": -17.86, 
			 "cosmo_cavitation_energy": 19.68, 
			 "cosmo_dispersion_energy": -15.19, 
			 "cosmo_repulsion_energy": 1.25, 
			 "cosmo_total_nonelectrostatic_energy": 5.75, 
			 "SMD_solvation_energy": 4.42 
		},
		"coords": [
			{
				"x": 0.5249869484,
				"y": 3.6727316681,
				"z": -0.2742911251,
				"element": "O" 
			},
			{
				"x": -0.3952362604,
				"y": 2.9202810037,
				"z": 0.3902374775,
				"element": "C" 
			},
			{
				"x": -1.5698223697,
				"y": 3.1287889768,
				"z": 0.2404046449,
				"element": "O" 
			},
			{
				"x": 0.2019608603,
				"y": 1.8394675145,
				"z": 1.3155845532,
				"element": "C" 
			},
			{
				"x": 0.9981548898,
				"y": 0.771742194,
				"z": 0.538385927,
				"element": "C" 
			},
			{
				"x": 0.130185766,
				"y": -0.0520429349,
				"z": -0.2137328452,
				"element": "O" 
			},
			{
				"x": -0.8078777323,
				"y": -0.7041518251,
				"z": 0.6446780538,
				"element": "C" 
			},
			{
				"x": -1.6360339605,
				"y": 0.3281279731,
				"z": 1.3955232436,
				"element": "C" 
			},
			{
				"x": -0.7807051527,
				"y": 1.2270082876,
				"z": 2.120397905,
				"element": "O" 
			},
			{
				"x": 1.4255633716,
				"y": 3.4253635888,
				"z": -0.0208771295,
				"element": "H" 
			},
			{
				"x": 0.8829523473,
				"y": 2.3514130413,
				"z": 2.0108887875,
				"element": "H" 
			},
			{
				"x": 1.5677966733,
				"y": 0.1729680659,
				"z": 1.2676434531,
				"element": "H" 
			},
			{
				"x": 1.7049812014,
				"y": 1.2161401368,
				"z": -0.1705384009,
				"element": "H" 
			},
			{
				"x": -0.2710461976,
				"y": -1.3545897176,
				"z": 1.354210538,
				"element": "H" 
			},
			{
				"x": -1.440345279,
				"y": -1.3254821802,
				"z": 0.0042894816,
				"element": "H" 
			},
			{
				"x": -2.2650875655,
				"y": 0.8948379394,
				"z": 0.7024677128,
				"element": "H" 
			},
			{
				"x": -2.2688275403,
				"y": -0.1493037321,
				"z": 2.1491277226,
				"element": "H" 
			}
		],
		 "valence_orbital": [ 
			{
				"type": "occ",
				"energy": -0.32637,
				"method": "rhf"
			},
			{
				"type": "occ",
				"energy": -0.3159,
				"method": "rhf"
			},
			{
				"type": "occ",
				"energy": -0.29883,
				"method": "rhf"
			},
			{
				"type": "occ",
				"energy": -0.27716,
				"method": "rhf"
			},
			{
				"type": "occ",
				"energy": -0.24774,
				"method": "rhf"
			},
			{
				"type": "unocc",
				"energy": 0.00069,
				"method": "rhf"
			},
			{
				"type": "unocc",
				"energy": 0.04,
				"method": "rhf"
			},
			{
				"type": "unocc",
				"energy": 0.07878,
				"method": "rhf"
			},
			{
				"type": "unocc",
				"energy": 0.10922,
				"method": "rhf"
			},
			{
				"type": "unocc",
				"energy": 0.12173,
				"method": "rhf"
			}
		],
		"cosmo_sigma_profile": { 
			"-0.025": 0.0,
			"-0.024": 0.0,
			"-0.023": 0.0,
			"-0.022": 0.0,
			"-0.021": 0.0,
			"-0.02": 0.511158544181,
			"-0.019": 1.04823300822,
			"-0.018": 1.56291579837,
			"-0.017": 0.96210454487,
			"-0.016": 0.976808065562,
			"-0.015": 1.53123538106,
			"-0.014": 0.796016087921,
			"-0.013": 1.0633463825,
			"-0.012": 1.1350556722,
			"-0.011": 1.94758775984,
			"-0.01": 1.46136637789,
			"-0.009": 2.24983315259,
			"-0.008": 3.8068660509,
			"-0.007": 3.22551770515,
			"-0.006": 8.14369422509,
			"-0.005": 14.5412366413,
			"-0.004": 14.9891693477,
			"-0.003": 9.95339998539,
			"-0.002": 7.31331887093,
			"-0.001": 5.24860103641,
			"0.0": 4.63220158906,
			"0.001": 4.106622789,
			"0.002": 4.47814968008,
			"0.003": 5.42994779152,
			"0.004": 4.26421033523,
			"0.005": 4.26799376698,
			"0.006": 4.60928000194,
			"0.007": 4.94780163332,
			"0.008": 4.83097143351,
			"0.009": 5.87020579151,
			"0.01": 8.49733373656,
			"0.011": 8.35621247523,
			"0.012": 6.49021054658,
			"0.013": 0.933614416382,
			"0.014": 0.0,
			"0.015": 0.0,
			"0.016": 0.0,
			"0.017": 0.0,
			"0.018": 0.0,
			"0.019": 0.0,
			"0.02": 0.0,
			"0.021": 0.0,
			"0.022": 0.0,
			"0.023": 0.0,
			"0.024": 0.0,
			"0.025": 0.0
		}
	}
}
