{
	 "smiles": "CC(C)C(C)N", 
	 "Tm": 223.15, 
	 "num_atms": 19, 
	 "gaussian": { 
		 "optdone": 1, 
		 "sigma_profile": "yes", 
		 "theory": "DFT", 
		 "functional": "B3LYP", 
		 "basiset": "6-31G**", 
		 "properties": { 
			 "R2extent": 1118.8916, 
			 "electric_dipole_moment_norm": 1.31171101238, 
			 "electric_quadrupole_moment_norm": 3.44117055666, 
			 "total_energy": -253.129650845, 
			 "HOMO_LUMO_gap": 0.30207, 
			 "cosmo_polarized_energy": -4.5, 
			 "cosmo_cavitation_energy": 19.91, 
			 "cosmo_dispersion_energy": -14.55, 
			 "cosmo_repulsion_energy": 1.25, 
			 "cosmo_total_nonelectrostatic_energy": 6.61, 
			 "SMD_solvation_energy": 2.92 
		},
		"coords": [
			{
				"x": 0.167029414,
				"y": 1.5990524345,
				"z": -2.689034898,
				"element": "C" 
			},
			{
				"x": -0.2695488619,
				"y": 0.964358022,
				"z": -1.3582505342,
				"element": "C" 
			},
			{
				"x": 0.0786710289,
				"y": 1.8873025579,
				"z": -0.1817228234,
				"element": "C" 
			},
			{
				"x": 0.3188229218,
				"y": -0.4544338807,
				"z": -1.139354559,
				"element": "C" 
			},
			{
				"x": -0.283346916,
				"y": -1.5024545777,
				"z": -2.0914973688,
				"element": "C" 
			},
			{
				"x": 1.791065584,
				"y": -0.4062745125,
				"z": -1.1696667477,
				"element": "N" 
			},
			{
				"x": -0.0834796437,
				"y": 0.9745832449,
				"z": -3.5532165798,
				"element": "H" 
			},
			{
				"x": 1.2472476282,
				"y": 1.7827126789,
				"z": -2.6999951257,
				"element": "H" 
			},
			{
				"x": -0.3271360289,
				"y": 2.5657215984,
				"z": -2.8319403961,
				"element": "H" 
			},
			{
				"x": -1.3624240651,
				"y": 0.8446513899,
				"z": -1.3874833846,
				"element": "H" 
			},
			{
				"x": 1.1641242636,
				"y": 1.9693122536,
				"z": -0.0745666487,
				"element": "H" 
			},
			{
				"x": -0.3343393849,
				"y": 2.8911771168,
				"z": -0.3301203907,
				"element": "H" 
			},
			{
				"x": -0.3224756586,
				"y": 1.4971238415,
				"z": 0.7606811938,
				"element": "H" 
			},
			{
				"x": 0.0481098384,
				"y": -0.7467258691,
				"z": -0.1152143931,
				"element": "H" 
			},
			{
				"x": 0.0987397901,
				"y": -2.5020697803,
				"z": -1.8549823454,
				"element": "H" 
			},
			{
				"x": -0.0259743912,
				"y": -1.2910840057,
				"z": -3.1359277553,
				"element": "H" 
			},
			{
				"x": -1.3767181518,
				"y": -1.537349089,
				"z": -2.0178396797,
				"element": "H" 
			},
			{
				"x": 2.1101625336,
				"y": -0.3249181112,
				"z": -2.1332400959,
				"element": "H" 
			},
			{
				"x": 2.1676700994,
				"y": -1.2870853122,
				"z": -0.8272274676,
				"element": "H" 
			}
		],
		 "valence_orbital": [ 
			{
				"type": "occ",
				"energy": -0.34754,
				"method": "rhf"
			},
			{
				"type": "occ",
				"energy": -0.31899,
				"method": "rhf"
			},
			{
				"type": "occ",
				"energy": -0.31584,
				"method": "rhf"
			},
			{
				"type": "occ",
				"energy": -0.30711,
				"method": "rhf"
			},
			{
				"type": "occ",
				"energy": -0.22967,
				"method": "rhf"
			},
			{
				"type": "unocc",
				"energy": 0.0724,
				"method": "rhf"
			},
			{
				"type": "unocc",
				"energy": 0.11682,
				"method": "rhf"
			},
			{
				"type": "unocc",
				"energy": 0.12399,
				"method": "rhf"
			},
			{
				"type": "unocc",
				"energy": 0.1314,
				"method": "rhf"
			},
			{
				"type": "unocc",
				"energy": 0.14576,
				"method": "rhf"
			}
		],
		"cosmo_sigma_profile": { 
			"-0.025": 0.0,
			"-0.024": 0.0,
			"-0.023": 0.0,
			"-0.022": 0.0,
			"-0.021": 0.0,
			"-0.02": 0.0,
			"-0.019": 0.0,
			"-0.018": 0.0,
			"-0.017": 0.0,
			"-0.016": 0.0,
			"-0.015": 0.0,
			"-0.014": 0.0,
			"-0.013": 0.0,
			"-0.012": 0.0,
			"-0.011": 0.0,
			"-0.01": 0.0594338666947,
			"-0.009": 1.28535964981,
			"-0.008": 2.19182260019,
			"-0.007": 2.33458285423,
			"-0.006": 3.4486672232,
			"-0.005": 3.15006597198,
			"-0.004": 3.21891614007,
			"-0.003": 10.5157310069,
			"-0.002": 20.659795796,
			"-0.001": 23.7197790693,
			"0.0": 23.4387016651,
			"0.001": 23.3123565534,
			"0.002": 18.2300207201,
			"0.003": 4.06466682741,
			"0.004": 1.35180809932,
			"0.005": 1.56474765382,
			"0.006": 0.818462326681,
			"0.007": 1.05790941202,
			"0.008": 1.05652323281,
			"0.009": 0.697959427566,
			"0.01": 0.910363880633,
			"0.011": 0.817197477531,
			"0.012": 0.539315576861,
			"0.013": 0.907426872453,
			"0.014": 0.732746079932,
			"0.015": 0.484578264089,
			"0.016": 0.806556389692,
			"0.017": 0.500888940488,
			"0.018": 0.310962297676,
			"0.019": 0.0,
			"0.02": 0.0,
			"0.021": 0.0,
			"0.022": 0.0,
			"0.023": 0.0,
			"0.024": 0.0,
			"0.025": 0.0
		}
	}
}
