{
	 "smiles": "N#CCCN1CCCCC1", 
	 "Tm": 266.35, 
	 "num_atms": 24, 
	 "gaussian": { 
		 "optdone": 1, 
		 "sigma_profile": "yes", 
		 "theory": "DFT", 
		 "functional": "B3LYP", 
		 "basiset": "6-31G**", 
		 "properties": { 
			 "R2extent": 2119.4018, 
			 "electric_dipole_moment_norm": 4.62049501785, 
			 "electric_quadrupole_moment_norm": 19.6444410839, 
			 "total_energy": -422.765317761, 
			 "HOMO_LUMO_gap": 0.24821, 
			 "cosmo_polarized_energy": -10.54, 
			 "cosmo_cavitation_energy": 25.68, 
			 "cosmo_dispersion_energy": -18.22, 
			 "cosmo_repulsion_energy": 1.5, 
			 "cosmo_total_nonelectrostatic_energy": 8.97, 
			 "SMD_solvation_energy": 3.53 
		},
		"coords": [
			{
				"x": -0.4852992134,
				"y": -1.0720074397,
				"z": -3.8508140865,
				"element": "N" 
			},
			{
				"x": -1.251944912,
				"y": -1.1886110456,
				"z": -2.9873359329,
				"element": "C" 
			},
			{
				"x": -2.224186831,
				"y": -1.3628790436,
				"z": -1.9048058904,
				"element": "C" 
			},
			{
				"x": -1.5723272754,
				"y": -1.3540646178,
				"z": -0.5031038593,
				"element": "C" 
			},
			{
				"x": -0.8956542156,
				"y": -0.1047794037,
				"z": -0.2116653932,
				"element": "N" 
			},
			{
				"x": -1.8285355385,
				"y": 1.005772374,
				"z": 0.0300120292,
				"element": "C" 
			},
			{
				"x": -1.1258234691,
				"y": 2.1754806128,
				"z": 0.722478225,
				"element": "C" 
			},
			{
				"x": -0.6286333167,
				"y": 1.7781494476,
				"z": 2.1306087172,
				"element": "C" 
			},
			{
				"x": -0.2153014182,
				"y": 0.2867590056,
				"z": 2.1759069735,
				"element": "C" 
			},
			{
				"x": 0.1961342937,
				"y": -0.1946791121,
				"z": 0.7772532966,
				"element": "C" 
			},
			{
				"x": -2.9797855404,
				"y": -0.5740504198,
				"z": -1.9852770391,
				"element": "H" 
			},
			{
				"x": -2.7477651619,
				"y": -2.3144056257,
				"z": -2.0555201638,
				"element": "H" 
			},
			{
				"x": -0.8426708622,
				"y": -2.1679910737,
				"z": -0.4641137182,
				"element": "H" 
			},
			{
				"x": -2.3733243888,
				"y": -1.5964298445,
				"z": 0.2243663068,
				"element": "H" 
			},
			{
				"x": -2.25171152,
				"y": 1.3411038472,
				"z": -0.9251798705,
				"element": "H" 
			},
			{
				"x": -2.6850854883,
				"y": 0.6801067202,
				"z": 0.6555086803,
				"element": "H" 
			},
			{
				"x": -0.2842904579,
				"y": 2.4923085306,
				"z": 0.0956663097,
				"element": "H" 
			},
			{
				"x": -1.8093104827,
				"y": 3.0289680301,
				"z": 0.7799661272,
				"element": "H" 
			},
			{
				"x": -1.4138155296,
				"y": 1.96578298,
				"z": 2.8720361517,
				"element": "H" 
			},
			{
				"x": 0.2180246395,
				"y": 2.4155270344,
				"z": 2.4093062701,
				"element": "H" 
			},
			{
				"x": -1.0520818714,
				"y": -0.3276362575,
				"z": 2.5310038318,
				"element": "H" 
			},
			{
				"x": 0.6058344642,
				"y": 0.1308675331,
				"z": 2.8846210801,
				"element": "H" 
			},
			{
				"x": 1.0484988264,
				"y": 0.4039003316,
				"z": 0.4266996324,
				"element": "H" 
			},
			{
				"x": 0.5462552693,
				"y": -1.2306925634,
				"z": 0.8117823223,
				"element": "H" 
			}
		],
		 "valence_orbital": [ 
			{
				"type": "occ",
				"energy": -0.32191,
				"method": "rhf"
			},
			{
				"type": "occ",
				"energy": -0.3189,
				"method": "rhf"
			},
			{
				"type": "occ",
				"energy": -0.31306,
				"method": "rhf"
			},
			{
				"type": "occ",
				"energy": -0.30987,
				"method": "rhf"
			},
			{
				"type": "occ",
				"energy": -0.21013,
				"method": "rhf"
			},
			{
				"type": "unocc",
				"energy": 0.03808,
				"method": "rhf"
			},
			{
				"type": "unocc",
				"energy": 0.04812,
				"method": "rhf"
			},
			{
				"type": "unocc",
				"energy": 0.07573,
				"method": "rhf"
			},
			{
				"type": "unocc",
				"energy": 0.09512,
				"method": "rhf"
			},
			{
				"type": "unocc",
				"energy": 0.09919,
				"method": "rhf"
			}
		],
		"cosmo_sigma_profile": { 
			"-0.025": 0.0,
			"-0.024": 0.0,
			"-0.023": 0.0,
			"-0.022": 0.0,
			"-0.021": 0.0,
			"-0.02": 0.0,
			"-0.019": 0.0,
			"-0.018": 0.0,
			"-0.017": 0.0,
			"-0.016": 0.0,
			"-0.015": 0.0,
			"-0.014": 0.0,
			"-0.013": 0.0,
			"-0.012": 0.0,
			"-0.011": 0.0,
			"-0.01": 0.0,
			"-0.009": 0.0,
			"-0.008": 2.01231125592,
			"-0.007": 5.95725907643,
			"-0.006": 6.7845047321,
			"-0.005": 10.4202003666,
			"-0.004": 12.5178204075,
			"-0.003": 16.0068039546,
			"-0.002": 33.3719364259,
			"-0.001": 35.4041582945,
			"0.0": 20.6814499697,
			"0.001": 14.8185700862,
			"0.002": 3.47606162852,
			"0.003": 1.71131795855,
			"0.004": 3.28630027486,
			"0.005": 2.58775397587,
			"0.006": 2.55235353355,
			"0.007": 2.60213613723,
			"0.008": 5.04231932245,
			"0.009": 5.16036679683,
			"0.01": 4.74203456275,
			"0.011": 3.66781838352,
			"0.012": 3.30687888171,
			"0.013": 2.65596323524,
			"0.014": 1.06229238447,
			"0.015": 0.0,
			"0.016": 0.0,
			"0.017": 0.0,
			"0.018": 0.0,
			"0.019": 0.0,
			"0.02": 0.0,
			"0.021": 0.0,
			"0.022": 0.0,
			"0.023": 0.0,
			"0.024": 0.0,
			"0.025": 0.0
		}
	}
}
