{
	 "smiles": "CC1CC2=C(O1)C=CC(=C2)S(Cl)(=O)=O", 
	 "Tm": 347.15, 
	 "num_atms": 23, 
	 "gaussian": { 
		 "optdone": 1, 
		 "sigma_profile": "yes", 
		 "theory": "DFT", 
		 "functional": "B3LYP", 
		 "basiset": "6-31G**", 
		 "properties": { 
			 "R2extent": 4315.8896, 
			 "electric_dipole_moment_norm": 7.0867737187, 
			 "electric_quadrupole_moment_norm": 13.1807942401, 
			 "total_energy": -1432.37090423, 
			 "HOMO_LUMO_gap": 0.16459, 
			 "cosmo_polarized_energy": -11.2, 
			 "cosmo_cavitation_energy": 30.07, 
			 "cosmo_dispersion_energy": -22.67, 
			 "cosmo_repulsion_energy": 1.76, 
			 "cosmo_total_nonelectrostatic_energy": 9.15, 
			 "SMD_solvation_energy": 3.76 
		},
		"coords": [
			{
				"x": -0.9117021887,
				"y": -3.7163665396,
				"z": 3.2000259456,
				"element": "C" 
			},
			{
				"x": 0.0078145775,
				"y": -2.5421963309,
				"z": 2.9230398625,
				"element": "C" 
			},
			{
				"x": -0.6949344505,
				"y": -1.1728172455,
				"z": 2.7208752011,
				"element": "C" 
			},
			{
				"x": 0.0041800759,
				"y": -0.6330217986,
				"z": 1.4959378644,
				"element": "C" 
			},
			{
				"x": 0.7889889052,
				"y": -1.6653372056,
				"z": 0.9581176125,
				"element": "C" 
			},
			{
				"x": 0.7427877511,
				"y": -2.8056202568,
				"z": 1.6793285805,
				"element": "O" 
			},
			{
				"x": 1.5375213977,
				"y": -1.5086277883,
				"z": -0.208883281,
				"element": "C" 
			},
			{
				"x": 1.4893644436,
				"y": -0.2706332189,
				"z": -0.8470428721,
				"element": "C" 
			},
			{
				"x": 0.7130365781,
				"y": 0.758919424,
				"z": -0.3039273207,
				"element": "C" 
			},
			{
				"x": -0.0473447054,
				"y": 0.5967500234,
				"z": 0.8657432176,
				"element": "C" 
			},
			{
				"x": 0.6796846256,
				"y": 2.3288451863,
				"z": -1.1260947402,
				"element": "S" 
			},
			{
				"x": -0.9891514348,
				"y": 2.1011403334,
				"z": -2.4580300047,
				"element": "Cl" 
			},
			{
				"x": 1.8509959583,
				"y": 2.4622132402,
				"z": -1.9845283775,
				"element": "O" 
			},
			{
				"x": 0.2845998076,
				"y": 3.3675556288,
				"z": -0.181198697,
				"element": "O" 
			},
			{
				"x": -1.4310677329,
				"y": -3.5688430013,
				"z": 4.1523999342,
				"element": "H" 
			},
			{
				"x": -0.3436880999,
				"y": -4.6485587375,
				"z": 3.2594302401,
				"element": "H" 
			},
			{
				"x": -1.6600744085,
				"y": -3.8144785376,
				"z": 2.407652115,
				"element": "H" 
			},
			{
				"x": 0.7705648818,
				"y": -2.4630675812,
				"z": 3.7073790132,
				"element": "H" 
			},
			{
				"x": -0.5886121723,
				"y": -0.530643747,
				"z": 3.5999456464,
				"element": "H" 
			},
			{
				"x": -1.7691591235,
				"y": -1.302897446,
				"z": 2.5365158214,
				"element": "H" 
			},
			{
				"x": 2.1396872096,
				"y": -2.3227331551,
				"z": -0.5953324155,
				"element": "H" 
			},
			{
				"x": 2.0613281665,
				"y": -0.0924009535,
				"z": -1.7506128168,
				"element": "H" 
			},
			{
				"x": -0.6385200621,
				"y": 1.4197197074,
				"z": 1.2525594708,
				"element": "H" 
			}
		],
		 "valence_orbital": [ 
			{
				"type": "occ",
				"energy": -0.32715,
				"method": "rhf"
			},
			{
				"type": "occ",
				"energy": -0.31743,
				"method": "rhf"
			},
			{
				"type": "occ",
				"energy": -0.30408,
				"method": "rhf"
			},
			{
				"type": "occ",
				"energy": -0.28178,
				"method": "rhf"
			},
			{
				"type": "occ",
				"energy": -0.246,
				"method": "rhf"
			},
			{
				"type": "unocc",
				"energy": -0.08141,
				"method": "rhf"
			},
			{
				"type": "unocc",
				"energy": -0.0356,
				"method": "rhf"
			},
			{
				"type": "unocc",
				"energy": -0.02741,
				"method": "rhf"
			},
			{
				"type": "unocc",
				"energy": 0.0617,
				"method": "rhf"
			},
			{
				"type": "unocc",
				"energy": 0.0718,
				"method": "rhf"
			}
		],
		"cosmo_sigma_profile": { 
			"-0.025": 0.0,
			"-0.024": 0.0,
			"-0.023": 0.0,
			"-0.022": 0.0,
			"-0.021": 0.0,
			"-0.02": 0.0,
			"-0.019": 0.0,
			"-0.018": 0.0,
			"-0.017": 0.0,
			"-0.016": 0.0,
			"-0.015": 0.0,
			"-0.014": 0.0,
			"-0.013": 0.0,
			"-0.012": 0.0,
			"-0.011": 0.0,
			"-0.01": 0.0,
			"-0.009": 0.146575251053,
			"-0.008": 3.66028466396,
			"-0.007": 5.15433422066,
			"-0.006": 11.7050951304,
			"-0.005": 22.0696469158,
			"-0.004": 21.0014693007,
			"-0.003": 19.8902204688,
			"-0.002": 14.9355291108,
			"-0.001": 18.1524167154,
			"0.0": 21.3036291339,
			"0.001": 21.9337534428,
			"0.002": 15.023205804,
			"0.003": 12.1063356413,
			"0.004": 17.0879522016,
			"0.005": 7.50680744611,
			"0.006": 3.85858763935,
			"0.007": 5.60755537979,
			"0.008": 11.0287526976,
			"0.009": 8.42951180266,
			"0.01": 1.68030851061,
			"0.011": 0.0239936937349,
			"0.012": 0.0,
			"0.013": 0.0,
			"0.014": 0.0,
			"0.015": 0.0,
			"0.016": 0.0,
			"0.017": 0.0,
			"0.018": 0.0,
			"0.019": 0.0,
			"0.02": 0.0,
			"0.021": 0.0,
			"0.022": 0.0,
			"0.023": 0.0,
			"0.024": 0.0,
			"0.025": 0.0
		}
	}
}
