{
	 "smiles": "O=C(NC1=CC=CC=C1)NC1=CC=CC=C1", 
	 "Tm": 515.15, 
	 "num_atms": 28, 
	 "gaussian": { 
		 "optdone": 1, 
		 "sigma_profile": "yes", 
		 "theory": "DFT", 
		 "functional": "B3LYP", 
		 "basiset": "6-31G**", 
		 "properties": { 
			 "R2extent": 3626.4656, 
			 "electric_dipole_moment_norm": 2.71251236679, 
			 "electric_quadrupole_moment_norm": 13.2197608004, 
			 "total_energy": -687.362417298, 
			 "HOMO_LUMO_gap": 0.20367, 
			 "cosmo_polarized_energy": -13.3, 
			 "cosmo_cavitation_energy": 31.92, 
			 "cosmo_dispersion_energy": -22.31, 
			 "cosmo_repulsion_energy": 1.76, 
			 "cosmo_total_nonelectrostatic_energy": 11.36, 
			 "SMD_solvation_energy": 6.45 
		},
		"coords": [
			{
				"x": -2.410688521,
				"y": 2.9797831558,
				"z": 1.1940320482,
				"element": "O" 
			},
			{
				"x": -1.6716801602,
				"y": 2.0393479707,
				"z": 0.9303530345,
				"element": "C" 
			},
			{
				"x": -2.1912577947,
				"y": 0.8345058251,
				"z": 0.4715957699,
				"element": "N" 
			},
			{
				"x": -1.6794138231,
				"y": -0.0950011381,
				"z": -0.4693125112,
				"element": "C" 
			},
			{
				"x": -2.3300096665,
				"y": -1.3338160792,
				"z": -0.5715966768,
				"element": "C" 
			},
			{
				"x": -1.908106633,
				"y": -2.2770954944,
				"z": -1.5056739619,
				"element": "C" 
			},
			{
				"x": -0.821709383,
				"y": -2.0067265519,
				"z": -2.3399059433,
				"element": "C" 
			},
			{
				"x": -0.1730753035,
				"y": -0.7756885176,
				"z": -2.2351675488,
				"element": "C" 
			},
			{
				"x": -0.5982456297,
				"y": 0.1834556491,
				"z": -1.316168303,
				"element": "C" 
			},
			{
				"x": -0.2948092068,
				"y": 2.1533493738,
				"z": 1.0831283821,
				"element": "N" 
			},
			{
				"x": 0.6720145969,
				"y": 1.2016933235,
				"z": 1.4964634503,
				"element": "C" 
			},
			{
				"x": 2.0232433265,
				"y": 1.5500712115,
				"z": 1.3506730478,
				"element": "C" 
			},
			{
				"x": 3.0255164893,
				"y": 0.681680214,
				"z": 1.7768420617,
				"element": "C" 
			},
			{
				"x": 2.6967897092,
				"y": -0.5532774868,
				"z": 2.3390720875,
				"element": "C" 
			},
			{
				"x": 1.3526880841,
				"y": -0.9004400568,
				"z": 2.4805383023,
				"element": "C" 
			},
			{
				"x": 0.3404787506,
				"y": -0.0312239343,
				"z": 2.0741083217,
				"element": "C" 
			},
			{
				"x": -3.2004980703,
				"y": 0.8576086376,
				"z": 0.5424598074,
				"element": "H" 
			},
			{
				"x": -3.1661082261,
				"y": -1.5519283304,
				"z": 0.0879236676,
				"element": "H" 
			},
			{
				"x": -2.4267623962,
				"y": -3.2290790952,
				"z": -1.5740248928,
				"element": "H" 
			},
			{
				"x": -0.4869244855,
				"y": -2.7444434984,
				"z": -3.0625102888,
				"element": "H" 
			},
			{
				"x": 0.6683308522,
				"y": -0.5479267681,
				"z": -2.8833533555,
				"element": "H" 
			},
			{
				"x": -0.0989560597,
				"y": 1.1429118595,
				"z": -1.2598046964,
				"element": "H" 
			},
			{
				"x": -0.0603797461,
				"y": 3.1160967783,
				"z": 1.2887508689,
				"element": "H" 
			},
			{
				"x": 2.2810382485,
				"y": 2.5045358991,
				"z": 0.8988496421,
				"element": "H" 
			},
			{
				"x": 4.0662753779,
				"y": 0.970154672,
				"z": 1.6604348927,
				"element": "H" 
			},
			{
				"x": 3.4772804442,
				"y": -1.2342535456,
				"z": 2.6639880093,
				"element": "H" 
			},
			{
				"x": 1.081606945,
				"y": -1.8543273654,
				"z": 2.9239388278,
				"element": "H" 
			},
			{
				"x": -0.6988377189,
				"y": -0.3044667077,
				"z": 2.2088659567,
				"element": "H" 
			}
		],
		 "valence_orbital": [ 
			{
				"type": "occ",
				"energy": -0.26606,
				"method": "rhf"
			},
			{
				"type": "occ",
				"energy": -0.25518,
				"method": "rhf"
			},
			{
				"type": "occ",
				"energy": -0.25304,
				"method": "rhf"
			},
			{
				"type": "occ",
				"energy": -0.22199,
				"method": "rhf"
			},
			{
				"type": "occ",
				"energy": -0.22138,
				"method": "rhf"
			},
			{
				"type": "unocc",
				"energy": -0.01771,
				"method": "rhf"
			},
			{
				"type": "unocc",
				"energy": -0.01003,
				"method": "rhf"
			},
			{
				"type": "unocc",
				"energy": -0.00164,
				"method": "rhf"
			},
			{
				"type": "unocc",
				"energy": 0.00834,
				"method": "rhf"
			},
			{
				"type": "unocc",
				"energy": 0.05523,
				"method": "rhf"
			}
		],
		"cosmo_sigma_profile": { 
			"-0.025": 0.0,
			"-0.024": 0.0,
			"-0.023": 0.0,
			"-0.022": 0.0,
			"-0.021": 0.0,
			"-0.02": 0.0,
			"-0.019": 0.0,
			"-0.018": 0.0,
			"-0.017": 0.0,
			"-0.016": 0.0,
			"-0.015": 0.122623211049,
			"-0.014": 1.53492898638,
			"-0.013": 1.8049913439,
			"-0.012": 1.44526192368,
			"-0.011": 2.73996234129,
			"-0.01": 1.57072036707,
			"-0.009": 2.46474425179,
			"-0.008": 2.46689425414,
			"-0.007": 3.0999948728,
			"-0.006": 11.4511256768,
			"-0.005": 19.3081149372,
			"-0.004": 21.578988734,
			"-0.003": 23.1110056461,
			"-0.002": 16.3310849757,
			"-0.001": 17.3780677075,
			"0.0": 17.1389510755,
			"0.001": 15.0563738801,
			"0.002": 14.7630395391,
			"0.003": 14.5870829873,
			"0.004": 15.6390639113,
			"0.005": 17.4364510466,
			"0.006": 15.4546687171,
			"0.007": 2.12020556961,
			"0.008": 0.950393282973,
			"0.009": 1.47810818378,
			"0.01": 1.00771944761,
			"0.011": 1.59561181575,
			"0.012": 2.07588837007,
			"0.013": 5.24163937374,
			"0.014": 3.96647133136,
			"0.015": 0.0343688836815,
			"0.016": 0.0,
			"0.017": 0.0,
			"0.018": 0.0,
			"0.019": 0.0,
			"0.02": 0.0,
			"0.021": 0.0,
			"0.022": 0.0,
			"0.023": 0.0,
			"0.024": 0.0,
			"0.025": 0.0
		}
	}
}
