{
	 "smiles": "O=C1CCC(=O)N1CC1=C(C=CC=C1)C#N", 
	 "Tm": 396.15, 
	 "num_atms": 26, 
	 "gaussian": { 
		 "optdone": 1, 
		 "sigma_profile": "yes", 
		 "theory": "DFT", 
		 "functional": "B3LYP", 
		 "basiset": "6-31G**", 
		 "properties": { 
			 "R2extent": 3609.3157, 
			 "electric_dipole_moment_norm": 4.87449993025, 
			 "electric_quadrupole_moment_norm": 24.376166265, 
			 "total_energy": -723.274247529, 
			 "HOMO_LUMO_gap": 0.21324, 
			 "cosmo_polarized_energy": -18.52, 
			 "cosmo_cavitation_energy": 31.26, 
			 "cosmo_dispersion_energy": -21.54, 
			 "cosmo_repulsion_energy": 1.68, 
			 "cosmo_total_nonelectrostatic_energy": 11.4, 
			 "SMD_solvation_energy": 7.42 
		},
		"coords": [
			{
				"x": -1.6589542533,
				"y": -0.8901983464,
				"z": 0.8131461088,
				"element": "O" 
			},
			{
				"x": -1.570503756,
				"y": -0.8144266156,
				"z": -0.3919103513,
				"element": "C" 
			},
			{
				"x": -2.688334134,
				"y": -0.9289523736,
				"z": -1.4249211411,
				"element": "C" 
			},
			{
				"x": -1.9956749114,
				"y": -0.779041095,
				"z": -2.789063513,
				"element": "C" 
			},
			{
				"x": -0.5232087485,
				"y": -0.5417159664,
				"z": -2.4681093913,
				"element": "C" 
			},
			{
				"x": 0.3816332445,
				"y": -0.3330189085,
				"z": -3.2521052319,
				"element": "O" 
			},
			{
				"x": -0.3728894162,
				"y": -0.6002436923,
				"z": -1.0842905392,
				"element": "N" 
			},
			{
				"x": 0.919244348,
				"y": -0.4660109977,
				"z": -0.4110933134,
				"element": "C" 
			},
			{
				"x": 1.1833941111,
				"y": 0.9433959238,
				"z": 0.0872139763,
				"element": "C" 
			},
			{
				"x": 1.3528570649,
				"y": 1.2266832929,
				"z": 1.4586238224,
				"element": "C" 
			},
			{
				"x": 1.5948066258,
				"y": 2.5440748894,
				"z": 1.8891392651,
				"element": "C" 
			},
			{
				"x": 1.6685789068,
				"y": 3.578499267,
				"z": 0.9632935068,
				"element": "C" 
			},
			{
				"x": 1.5125568226,
				"y": 3.3034242495,
				"z": -0.3978299245,
				"element": "C" 
			},
			{
				"x": 1.2758238271,
				"y": 1.9986055296,
				"z": -0.8274584201,
				"element": "C" 
			},
			{
				"x": 1.3138057913,
				"y": 0.1823683823,
				"z": 2.4433216906,
				"element": "C" 
			},
			{
				"x": 1.3158345844,
				"y": -0.6511266839,
				"z": 3.2548091864,
				"element": "N" 
			},
			{
				"x": -3.4291455296,
				"y": -0.1493552456,
				"z": -1.2256179296,
				"element": "H" 
			},
			{
				"x": -3.1924029341,
				"y": -1.889996663,
				"z": -1.2916663558,
				"element": "H" 
			},
			{
				"x": -2.3664772042,
				"y": 0.0616148326,
				"z": -3.3818614449,
				"element": "H" 
			},
			{
				"x": -2.0749843762,
				"y": -1.67115398,
				"z": -3.4172367243,
				"element": "H" 
			},
			{
				"x": 0.9341870038,
				"y": -1.1783979025,
				"z": 0.4156152882,
				"element": "H" 
			},
			{
				"x": 1.6762922698,
				"y": -0.7509640324,
				"z": -1.1466989602,
				"element": "H" 
			},
			{
				"x": 1.7214055872,
				"y": 2.7381631332,
				"z": 2.9489022119,
				"element": "H" 
			},
			{
				"x": 1.853705328,
				"y": 4.5934810364,
				"z": 1.3006955687,
				"element": "H" 
			},
			{
				"x": 1.5815886825,
				"y": 4.1057131253,
				"z": -1.1264580289,
				"element": "H" 
			},
			{
				"x": 1.1681610655,
				"y": 1.783278841,
				"z": -1.8865393556,
				"element": "H" 
			}
		],
		 "valence_orbital": [ 
			{
				"type": "occ",
				"energy": -0.29648,
				"method": "rhf"
			},
			{
				"type": "occ",
				"energy": -0.2866,
				"method": "rhf"
			},
			{
				"type": "occ",
				"energy": -0.2703,
				"method": "rhf"
			},
			{
				"type": "occ",
				"energy": -0.26599,
				"method": "rhf"
			},
			{
				"type": "occ",
				"energy": -0.26434,
				"method": "rhf"
			},
			{
				"type": "unocc",
				"energy": -0.0511,
				"method": "rhf"
			},
			{
				"type": "unocc",
				"energy": -0.03067,
				"method": "rhf"
			},
			{
				"type": "unocc",
				"energy": -0.02511,
				"method": "rhf"
			},
			{
				"type": "unocc",
				"energy": 0.01535,
				"method": "rhf"
			},
			{
				"type": "unocc",
				"energy": 0.0386,
				"method": "rhf"
			}
		],
		"cosmo_sigma_profile": { 
			"-0.025": 0.0,
			"-0.024": 0.0,
			"-0.023": 0.0,
			"-0.022": 0.0,
			"-0.021": 0.0,
			"-0.02": 0.0,
			"-0.019": 0.0,
			"-0.018": 0.0,
			"-0.017": 0.0,
			"-0.016": 0.0,
			"-0.015": 0.0,
			"-0.014": 0.0,
			"-0.013": 0.0,
			"-0.012": 0.0,
			"-0.011": 0.0,
			"-0.01": 0.0,
			"-0.009": 0.0288246116401,
			"-0.008": 3.88260191982,
			"-0.007": 22.7673170318,
			"-0.006": 24.4133284787,
			"-0.005": 22.1768140035,
			"-0.004": 20.6005476225,
			"-0.003": 16.8687419428,
			"-0.002": 14.1171284946,
			"-0.001": 11.1152298509,
			"0.0": 12.607379499,
			"0.001": 14.3432449889,
			"0.002": 15.1286879873,
			"0.003": 11.0206241339,
			"0.004": 4.50875413367,
			"0.005": 5.51067513091,
			"0.006": 5.25862311043,
			"0.007": 5.23026483935,
			"0.008": 6.38779590874,
			"0.009": 7.6435330519,
			"0.01": 6.60974787101,
			"0.011": 9.82161393884,
			"0.012": 8.06717174275,
			"0.013": 2.86649339198,
			"0.014": 0.0237179910791,
			"0.015": 0.0,
			"0.016": 0.0,
			"0.017": 0.0,
			"0.018": 0.0,
			"0.019": 0.0,
			"0.02": 0.0,
			"0.021": 0.0,
			"0.022": 0.0,
			"0.023": 0.0,
			"0.024": 0.0,
			"0.025": 0.0
		}
	}
}
