{
	 "smiles": "COC1=C(Cl)C=C(C(Cl)=C1)S(Cl)(=O)=O", 
	 "Tm": 350.15, 
	 "num_atms": 19, 
	 "gaussian": { 
		 "optdone": 1, 
		 "sigma_profile": "yes", 
		 "theory": "DFT", 
		 "functional": "B3LYP", 
		 "basiset": "6-31G**", 
		 "properties": { 
			 "R2extent": 5778.1706, 
			 "electric_dipole_moment_norm": 5.56120133335, 
			 "electric_quadrupole_moment_norm": 10.650243454, 
			 "total_energy": -2274.09273905, 
			 "HOMO_LUMO_gap": 0.17593, 
			 "cosmo_polarized_energy": -9.62, 
			 "cosmo_cavitation_energy": 30.47, 
			 "cosmo_dispersion_energy": -22.74, 
			 "cosmo_repulsion_energy": 1.75, 
			 "cosmo_total_nonelectrostatic_energy": 9.49, 
			 "SMD_solvation_energy": 4.34 
		},
		"coords": [
			{
				"x": 1.2909569154,
				"y": -1.3727966828,
				"z": 2.1709085816,
				"element": "C" 
			},
			{
				"x": -0.0324856011,
				"y": -1.3371068442,
				"z": 1.6106049706,
				"element": "O" 
			},
			{
				"x": -0.1980521989,
				"y": -0.5376408487,
				"z": 0.5238713955,
				"element": "C" 
			},
			{
				"x": 0.127347845,
				"y": -0.9653648295,
				"z": -0.7759683531,
				"element": "C" 
			},
			{
				"x": 0.8009455054,
				"y": -2.5532458406,
				"z": -1.035234715,
				"element": "Cl" 
			},
			{
				"x": -0.1119590945,
				"y": -0.1365185049,
				"z": -1.8658467786,
				"element": "C" 
			},
			{
				"x": -0.6827461376,
				"y": 1.1252471637,
				"z": -1.6752312191,
				"element": "C" 
			},
			{
				"x": -1.0168237824,
				"y": 1.56630884,
				"z": -0.3845023455,
				"element": "C" 
			},
			{
				"x": -1.709477633,
				"y": 3.1298168449,
				"z": -0.0650591086,
				"element": "Cl" 
			},
			{
				"x": -0.7666409115,
				"y": 0.7277058571,
				"z": 0.6992853522,
				"element": "C" 
			},
			{
				"x": -0.9890703543,
				"y": 2.0672804104,
				"z": -3.1760651191,
				"element": "S" 
			},
			{
				"x": 0.4454932684,
				"y": 3.621152976,
				"z": -2.9982029358,
				"element": "Cl" 
			},
			{
				"x": -0.56347047,
				"y": 1.253838761,
				"z": -4.3080025403,
				"element": "O" 
			},
			{
				"x": -2.3024577783,
				"y": 2.68998152,
				"z": -3.1323041916,
				"element": "O" 
			},
			{
				"x": 1.2368094536,
				"y": -2.0555232552,
				"z": 3.0192434683,
				"element": "H" 
			},
			{
				"x": 2.0208714425,
				"y": -1.746503323,
				"z": 1.446307397,
				"element": "H" 
			},
			{
				"x": 1.5900641441,
				"y": -0.3768672643,
				"z": 2.5179225545,
				"element": "H" 
			},
			{
				"x": 0.1338875724,
				"y": -0.4643510836,
				"z": -2.8683633094,
				"element": "H" 
			},
			{
				"x": -1.0236921852,
				"y": 1.0443861035,
				"z": 1.7033368962,
				"element": "H" 
			}
		],
		 "valence_orbital": [ 
			{
				"type": "occ",
				"energy": -0.32963,
				"method": "rhf"
			},
			{
				"type": "occ",
				"energy": -0.31911,
				"method": "rhf"
			},
			{
				"type": "occ",
				"energy": -0.31101,
				"method": "rhf"
			},
			{
				"type": "occ",
				"energy": -0.29491,
				"method": "rhf"
			},
			{
				"type": "occ",
				"energy": -0.27229,
				"method": "rhf"
			},
			{
				"type": "unocc",
				"energy": -0.09636,
				"method": "rhf"
			},
			{
				"type": "unocc",
				"energy": -0.05957,
				"method": "rhf"
			},
			{
				"type": "unocc",
				"energy": -0.05528,
				"method": "rhf"
			},
			{
				"type": "unocc",
				"energy": -0.00719,
				"method": "rhf"
			},
			{
				"type": "unocc",
				"energy": 0.01234,
				"method": "rhf"
			}
		],
		"cosmo_sigma_profile": { 
			"-0.025": 0.0,
			"-0.024": 0.0,
			"-0.023": 0.0,
			"-0.022": 0.0,
			"-0.021": 0.0,
			"-0.02": 0.0,
			"-0.019": 0.0,
			"-0.018": 0.0,
			"-0.017": 0.0,
			"-0.016": 0.0,
			"-0.015": 0.0,
			"-0.014": 0.0,
			"-0.013": 0.0,
			"-0.012": 0.0,
			"-0.011": 0.0,
			"-0.01": 0.354698027407,
			"-0.009": 1.99585062898,
			"-0.008": 2.28962762166,
			"-0.007": 4.70901819257,
			"-0.006": 9.81532953981,
			"-0.005": 15.400704267,
			"-0.004": 19.5561146531,
			"-0.003": 22.1625478895,
			"-0.002": 26.7987097716,
			"-0.001": 21.0194371949,
			"0.0": 15.5363723742,
			"0.001": 17.181807013,
			"0.002": 24.8397933426,
			"0.003": 26.8651180754,
			"0.004": 8.78584350141,
			"0.005": 4.89048002068,
			"0.006": 5.62829103376,
			"0.007": 9.98357094085,
			"0.008": 10.5885962006,
			"0.009": 2.74233227063,
			"0.01": 0.678261855509,
			"0.011": 0.0,
			"0.012": 0.0,
			"0.013": 0.0,
			"0.014": 0.0,
			"0.015": 0.0,
			"0.016": 0.0,
			"0.017": 0.0,
			"0.018": 0.0,
			"0.019": 0.0,
			"0.02": 0.0,
			"0.021": 0.0,
			"0.022": 0.0,
			"0.023": 0.0,
			"0.024": 0.0,
			"0.025": 0.0
		}
	}
}
