{
	 "smiles": "CC1=CC=C(C=C1)S(=O)(=O)C1CCCCC1=O", 
	 "Tm": 351.15, 
	 "num_atms": 33, 
	 "gaussian": { 
		 "optdone": 1, 
		 "sigma_profile": "yes", 
		 "theory": "DFT", 
		 "functional": "B3LYP", 
		 "basiset": "6-31G**", 
		 "properties": { 
			 "R2extent": 5170.4345, 
			 "electric_dipole_moment_norm": 6.8150620386, 
			 "electric_quadrupole_moment_norm": 19.3400725304, 
			 "total_energy": -1128.82660873, 
			 "HOMO_LUMO_gap": 0.19672, 
			 "cosmo_polarized_energy": -18.17, 
			 "cosmo_cavitation_energy": 36.25, 
			 "cosmo_dispersion_energy": -25.87, 
			 "cosmo_repulsion_energy": 1.97, 
			 "cosmo_total_nonelectrostatic_energy": 12.35, 
			 "SMD_solvation_energy": 5.39 
		},
		"coords": [
			{
				"x": 0.9206367118,
				"y": -1.4837324543,
				"z": -4.9115463397,
				"element": "C" 
			},
			{
				"x": 0.3041598726,
				"y": -1.1183010759,
				"z": -3.5829710355,
				"element": "C" 
			},
			{
				"x": -0.0867512957,
				"y": 0.1994716485,
				"z": -3.3083976053,
				"element": "C" 
			},
			{
				"x": -0.6339030921,
				"y": 0.5475365763,
				"z": -2.0736955185,
				"element": "C" 
			},
			{
				"x": -0.7921243338,
				"y": -0.43994886,
				"z": -1.1010845076,
				"element": "C" 
			},
			{
				"x": -0.4275767536,
				"y": -1.7654822376,
				"z": -1.3519305194,
				"element": "C" 
			},
			{
				"x": 0.1199157263,
				"y": -2.0931053156,
				"z": -2.5893223812,
				"element": "C" 
			},
			{
				"x": -1.5094948049,
				"y": -0.0157089526,
				"z": 0.4915426598,
				"element": "S" 
			},
			{
				"x": -2.2479842172,
				"y": -1.1864527909,
				"z": 0.983005866,
				"element": "O" 
			},
			{
				"x": -2.1679363061,
				"y": 1.2987542375,
				"z": 0.3555431017,
				"element": "O" 
			},
			{
				"x": -0.0318317203,
				"y": 0.221760122,
				"z": 1.5847947102,
				"element": "C" 
			},
			{
				"x": 0.8118589695,
				"y": 1.4351826071,
				"z": 1.1417601436,
				"element": "C" 
			},
			{
				"x": 1.5769156174,
				"y": 2.0031848508,
				"z": 2.3479859217,
				"element": "C" 
			},
			{
				"x": 0.6127340825,
				"y": 2.5834078653,
				"z": 3.4061516825,
				"element": "C" 
			},
			{
				"x": -0.7181135309,
				"y": 1.7798426137,
				"z": 3.5017417469,
				"element": "C" 
			},
			{
				"x": -0.5171672839,
				"y": 0.3518079004,
				"z": 3.0460447875,
				"element": "C" 
			},
			{
				"x": -0.6650718947,
				"y": -0.6267404624,
				"z": 3.745292172,
				"element": "O" 
			},
			{
				"x": 0.5806709663,
				"y": -2.4662488421,
				"z": -5.252696967,
				"element": "H" 
			},
			{
				"x": 2.014262143,
				"y": -1.527556948,
				"z": -4.8367123905,
				"element": "H" 
			},
			{
				"x": 0.6736969845,
				"y": -0.7500649105,
				"z": -5.6835952853,
				"element": "H" 
			},
			{
				"x": 0.0300745762,
				"y": 0.9620228384,
				"z": -4.0737908887,
				"element": "H" 
			},
			{
				"x": -0.9588886643,
				"y": 1.5616713989,
				"z": -1.8683642415,
				"element": "H" 
			},
			{
				"x": -0.5972920215,
				"y": -2.5265783479,
				"z": -0.5972499106,
				"element": "H" 
			},
			{
				"x": 0.3979425122,
				"y": -3.1237700704,
				"z": -2.7934244973,
				"element": "H" 
			},
			{
				"x": 0.5138509669,
				"y": -0.7231877225,
				"z": 1.5132673125,
				"element": "H" 
			},
			{
				"x": 1.4966164951,
				"y": 1.1389062368,
				"z": 0.3415650876,
				"element": "H" 
			},
			{
				"x": 0.1519993403,
				"y": 2.2092846827,
				"z": 0.734662173,
				"element": "H" 
			},
			{
				"x": 2.1823514629,
				"y": 1.2034556485,
				"z": 2.7946856618,
				"element": "H" 
			},
			{
				"x": 2.2806607675,
				"y": 2.7741444428,
				"z": 2.0172152148,
				"element": "H" 
			},
			{
				"x": 0.3770737799,
				"y": 3.6249955269,
				"z": 3.164258386,
				"element": "H" 
			},
			{
				"x": 1.1071412045,
				"y": 2.5915358334,
				"z": 4.3824403696,
				"element": "H" 
			},
			{
				"x": -1.124789476,
				"y": 1.778966383,
				"z": 4.5147912483,
				"element": "H" 
			},
			{
				"x": -1.4629367844,
				"y": 2.2232475776,
				"z": 2.8285338424,
				"element": "H" 
			}
		],
		 "valence_orbital": [ 
			{
				"type": "occ",
				"energy": -0.29672,
				"method": "rhf"
			},
			{
				"type": "occ",
				"energy": -0.28538,
				"method": "rhf"
			},
			{
				"type": "occ",
				"energy": -0.27337,
				"method": "rhf"
			},
			{
				"type": "occ",
				"energy": -0.26815,
				"method": "rhf"
			},
			{
				"type": "occ",
				"energy": -0.24558,
				"method": "rhf"
			},
			{
				"type": "unocc",
				"energy": -0.04886,
				"method": "rhf"
			},
			{
				"type": "unocc",
				"energy": -0.026,
				"method": "rhf"
			},
			{
				"type": "unocc",
				"energy": -0.02336,
				"method": "rhf"
			},
			{
				"type": "unocc",
				"energy": 0.0587,
				"method": "rhf"
			},
			{
				"type": "unocc",
				"energy": 0.07382,
				"method": "rhf"
			}
		],
		"cosmo_sigma_profile": { 
			"-0.025": 0.0,
			"-0.024": 0.0,
			"-0.023": 0.0,
			"-0.022": 0.0,
			"-0.021": 0.0,
			"-0.02": 0.0,
			"-0.019": 0.0,
			"-0.018": 0.0,
			"-0.017": 0.0,
			"-0.016": 0.0,
			"-0.015": 0.0,
			"-0.014": 0.0,
			"-0.013": 0.0,
			"-0.012": 0.0,
			"-0.011": 0.0,
			"-0.01": 0.0,
			"-0.009": 0.370538985654,
			"-0.008": 2.50129092984,
			"-0.007": 6.09656570081,
			"-0.006": 12.4447285031,
			"-0.005": 20.6911506254,
			"-0.004": 33.8895115851,
			"-0.003": 35.3913838497,
			"-0.002": 32.0893846825,
			"-0.001": 27.9076800614,
			"0.0": 20.0495797123,
			"0.001": 10.9362966895,
			"0.002": 12.4106124154,
			"0.003": 14.9306618329,
			"0.004": 5.1322541288,
			"0.005": 3.62734108648,
			"0.006": 2.60416055888,
			"0.007": 3.96890064051,
			"0.008": 4.70557667114,
			"0.009": 5.53473698798,
			"0.01": 8.88208423285,
			"0.011": 14.2670190532,
			"0.012": 6.81786632233,
			"0.013": 0.1944250112,
			"0.014": 0.0,
			"0.015": 0.0,
			"0.016": 0.0,
			"0.017": 0.0,
			"0.018": 0.0,
			"0.019": 0.0,
			"0.02": 0.0,
			"0.021": 0.0,
			"0.022": 0.0,
			"0.023": 0.0,
			"0.024": 0.0,
			"0.025": 0.0
		}
	}
}
