{
	 "smiles": "FC(F)(Cl)CCl", 
	 "Tm": 172.15, 
	 "num_atms": 8, 
	 "gaussian": { 
		 "optdone": 1, 
		 "sigma_profile": "yes", 
		 "theory": "DFT", 
		 "functional": "B3LYP", 
		 "basiset": "6-31G**", 
		 "properties": { 
			 "R2extent": 1037.3495, 
			 "electric_dipole_moment_norm": 1.84923876771, 
			 "electric_quadrupole_moment_norm": 4.76841671837, 
			 "total_energy": -1197.47588131, 
			 "HOMO_LUMO_gap": 0.3103, 
			 "cosmo_polarized_energy": -4.65, 
			 "cosmo_cavitation_energy": 16.29, 
			 "cosmo_dispersion_energy": -12.11, 
			 "cosmo_repulsion_energy": 1.02, 
			 "cosmo_total_nonelectrostatic_energy": 5.2, 
			 "SMD_solvation_energy": 3.06 
		},
		"coords": [
			{
				"x": 1.3119766335,
				"y": -1.9411073525,
				"z": -1.7306430186,
				"element": "F" 
			},
			{
				"x": 0.4564261978,
				"y": -1.1160700647,
				"z": -1.0835271004,
				"element": "C" 
			},
			{
				"x": -0.7906885098,
				"y": -1.571327278,
				"z": -1.2861731193,
				"element": "F" 
			},
			{
				"x": 0.5984310896,
				"y": 0.5211906738,
				"z": -1.8080267705,
				"element": "Cl" 
			},
			{
				"x": 0.8255100926,
				"y": -1.156673775,
				"z": 0.3957437595,
				"element": "C" 
			},
			{
				"x": -0.2873689059,
				"y": -0.2144296342,
				"z": 1.4312893221,
				"element": "Cl" 
			},
			{
				"x": 0.7781411559,
				"y": -2.2012167065,
				"z": 0.708756288,
				"element": "H" 
			},
			{
				"x": 1.8365722465,
				"y": -0.7736658627,
				"z": 0.5272806392,
				"element": "H" 
			}
		],
		 "valence_orbital": [ 
			{
				"type": "occ",
				"energy": -0.3881,
				"method": "rhf"
			},
			{
				"type": "occ",
				"energy": -0.33857,
				"method": "rhf"
			},
			{
				"type": "occ",
				"energy": -0.33614,
				"method": "rhf"
			},
			{
				"type": "occ",
				"energy": -0.32153,
				"method": "rhf"
			},
			{
				"type": "occ",
				"energy": -0.31779,
				"method": "rhf"
			},
			{
				"type": "unocc",
				"energy": -0.00749,
				"method": "rhf"
			},
			{
				"type": "unocc",
				"energy": 0.00827,
				"method": "rhf"
			},
			{
				"type": "unocc",
				"energy": 0.08608,
				"method": "rhf"
			},
			{
				"type": "unocc",
				"energy": 0.10787,
				"method": "rhf"
			},
			{
				"type": "unocc",
				"energy": 0.14111,
				"method": "rhf"
			}
		],
		"cosmo_sigma_profile": { 
			"-0.025": 0.0,
			"-0.024": 0.0,
			"-0.023": 0.0,
			"-0.022": 0.0,
			"-0.021": 0.0,
			"-0.02": 0.0,
			"-0.019": 0.0,
			"-0.018": 0.0,
			"-0.017": 0.0,
			"-0.016": 0.0,
			"-0.015": 0.0,
			"-0.014": 0.0,
			"-0.013": 0.0,
			"-0.012": 0.0,
			"-0.011": 0.867816454526,
			"-0.01": 4.66639386934,
			"-0.009": 4.27427402793,
			"-0.008": 3.34466101161,
			"-0.007": 3.92021878648,
			"-0.006": 3.45844761403,
			"-0.005": 2.42662004168,
			"-0.004": 2.35199963359,
			"-0.003": 4.18836135021,
			"-0.002": 6.00297008496,
			"-0.001": 7.59652032114,
			"0.0": 7.43455359396,
			"0.001": 14.3295878054,
			"0.002": 28.7922503751,
			"0.003": 21.0747165111,
			"0.004": 12.1836316019,
			"0.005": 7.32802360425,
			"0.006": 0.17471316673,
			"0.007": 0.0,
			"0.008": 0.0,
			"0.009": 0.0,
			"0.01": 0.0,
			"0.011": 0.0,
			"0.012": 0.0,
			"0.013": 0.0,
			"0.014": 0.0,
			"0.015": 0.0,
			"0.016": 0.0,
			"0.017": 0.0,
			"0.018": 0.0,
			"0.019": 0.0,
			"0.02": 0.0,
			"0.021": 0.0,
			"0.022": 0.0,
			"0.023": 0.0,
			"0.024": 0.0,
			"0.025": 0.0
		}
	}
}
