{
	 "smiles": "NNC1=C(Cl)C=CC=N1", 
	 "Tm": 439.15, 
	 "num_atms": 15, 
	 "gaussian": { 
		 "optdone": 1, 
		 "sigma_profile": "yes", 
		 "theory": "DFT", 
		 "functional": "B3LYP", 
		 "basiset": "6-31G**", 
		 "properties": { 
			 "R2extent": 1865.9856, 
			 "electric_dipole_moment_norm": 1.98034646716, 
			 "electric_quadrupole_moment_norm": 2.74266404797, 
			 "total_energy": -818.554757939, 
			 "HOMO_LUMO_gap": 0.1902, 
			 "cosmo_polarized_energy": -8.39, 
			 "cosmo_cavitation_energy": 20.59, 
			 "cosmo_dispersion_energy": -15.72, 
			 "cosmo_repulsion_energy": 1.29, 
			 "cosmo_total_nonelectrostatic_energy": 6.16, 
			 "SMD_solvation_energy": 2.37 
		},
		"coords": [
			{
				"x": 3.2480833533,
				"y": -1.1264902058,
				"z": -0.8407088424,
				"element": "N" 
			},
			{
				"x": 1.971311189,
				"y": -1.169357185,
				"z": -0.229220127,
				"element": "N" 
			},
			{
				"x": 1.0301172205,
				"y": -0.1564876519,
				"z": -0.3625728903,
				"element": "C" 
			},
			{
				"x": 1.3026078177,
				"y": 1.2277025107,
				"z": -0.2634797971,
				"element": "C" 
			},
			{
				"x": 2.9035926127,
				"y": 1.8524685686,
				"z": 0.1334500771,
				"element": "Cl" 
			},
			{
				"x": 0.264817194,
				"y": 2.1399708188,
				"z": -0.4114311485,
				"element": "C" 
			},
			{
				"x": -1.0337869879,
				"y": 1.6739812496,
				"z": -0.6156560918,
				"element": "C" 
			},
			{
				"x": -1.2243849378,
				"y": 0.2943740587,
				"z": -0.6452490267,
				"element": "C" 
			},
			{
				"x": -0.2308721025,
				"y": -0.5889461126,
				"z": -0.5404277408,
				"element": "N" 
			},
			{
				"x": 3.2056623882,
				"y": -0.6142162984,
				"z": -1.7214497711,
				"element": "H" 
			},
			{
				"x": 3.8859962531,
				"y": -0.6279594481,
				"z": -0.2288159295,
				"element": "H" 
			},
			{
				"x": 1.5278044245,
				"y": -2.0704883384,
				"z": -0.3654906108,
				"element": "H" 
			},
			{
				"x": 0.4775398745,
				"y": 3.2016405576,
				"z": -0.342296878,
				"element": "H" 
			},
			{
				"x": -1.8654514233,
				"y": 2.3600066681,
				"z": -0.7312354394,
				"element": "H" 
			},
			{
				"x": -2.2202368761,
				"y": -0.1261991919,
				"z": -0.7718157839,
				"element": "H" 
			}
		],
		 "valence_orbital": [ 
			{
				"type": "occ",
				"energy": -0.31646,
				"method": "rhf"
			},
			{
				"type": "occ",
				"energy": -0.27932,
				"method": "rhf"
			},
			{
				"type": "occ",
				"energy": -0.27324,
				"method": "rhf"
			},
			{
				"type": "occ",
				"energy": -0.26129,
				"method": "rhf"
			},
			{
				"type": "occ",
				"energy": -0.22193,
				"method": "rhf"
			},
			{
				"type": "unocc",
				"energy": -0.03173,
				"method": "rhf"
			},
			{
				"type": "unocc",
				"energy": -0.01206,
				"method": "rhf"
			},
			{
				"type": "unocc",
				"energy": 0.02227,
				"method": "rhf"
			},
			{
				"type": "unocc",
				"energy": 0.09267,
				"method": "rhf"
			},
			{
				"type": "unocc",
				"energy": 0.1091,
				"method": "rhf"
			}
		],
		"cosmo_sigma_profile": { 
			"-0.025": 0.0,
			"-0.024": 0.0,
			"-0.023": 0.0,
			"-0.022": 0.0,
			"-0.021": 0.0,
			"-0.02": 0.0,
			"-0.019": 0.0,
			"-0.018": 0.0,
			"-0.017": 0.0,
			"-0.016": 0.0,
			"-0.015": 0.0,
			"-0.014": 0.0,
			"-0.013": 0.0,
			"-0.012": 0.361626274083,
			"-0.011": 1.88019156404,
			"-0.01": 2.25518559419,
			"-0.009": 2.64700121786,
			"-0.008": 5.16553164815,
			"-0.007": 7.57554266602,
			"-0.006": 9.65806768189,
			"-0.005": 9.64136534375,
			"-0.004": 8.76490655844,
			"-0.003": 8.20410552803,
			"-0.002": 8.22873059581,
			"-0.001": 8.75770987393,
			"0.0": 11.1191382889,
			"0.001": 15.605657708,
			"0.002": 16.4641748443,
			"0.003": 13.4644636378,
			"0.004": 11.0413421081,
			"0.005": 5.77587075183,
			"0.006": 2.80732013577,
			"0.007": 2.68005278869,
			"0.008": 2.51806261005,
			"0.009": 2.77991549744,
			"0.01": 1.82418911656,
			"0.011": 1.40691480886,
			"0.012": 1.81325759446,
			"0.013": 1.11609114087,
			"0.014": 1.35325125877,
			"0.015": 0.609129346138,
			"0.016": 0.600751662968,
			"0.017": 0.161069825288,
			"0.018": 0.0,
			"0.019": 0.0,
			"0.02": 0.0,
			"0.021": 0.0,
			"0.022": 0.0,
			"0.023": 0.0,
			"0.024": 0.0,
			"0.025": 0.0
		}
	}
}
