{
	 "smiles": "COC1=C(C=C(C=C1)C(O)=O)S(=O)(=O)N1CCCC1", 
	 "Tm": 492.15, 
	 "num_atms": 34, 
	 "gaussian": { 
		 "optdone": 1, 
		 "sigma_profile": "yes", 
		 "theory": "DFT", 
		 "functional": "B3LYP", 
		 "basiset": "6-31G**", 
		 "properties": { 
			 "R2extent": 6090.4569, 
			 "electric_dipole_moment_norm": 6.34288863137, 
			 "electric_quadrupole_moment_norm": 23.7021607028, 
			 "total_energy": -1295.29554607, 
			 "HOMO_LUMO_gap": 0.18644, 
			 "cosmo_polarized_energy": -20.76, 
			 "cosmo_cavitation_energy": 37.77, 
			 "cosmo_dispersion_energy": -27.05, 
			 "cosmo_repulsion_energy": 2.05, 
			 "cosmo_total_nonelectrostatic_energy": 12.77, 
			 "SMD_solvation_energy": 6.82 
		},
		"coords": [
			{
				"x": 0.5580672035,
				"y": 3.7118014513,
				"z": -0.4326082018,
				"element": "C" 
			},
			{
				"x": 0.4513340722,
				"y": 2.4641961998,
				"z": 0.2738564043,
				"element": "O" 
			},
			{
				"x": 1.3247883368,
				"y": 1.4862369592,
				"z": -0.1079466017,
				"element": "C" 
			},
			{
				"x": 0.8483399837,
				"y": 0.3551192638,
				"z": -0.7893849017,
				"element": "C" 
			},
			{
				"x": 1.7141116345,
				"y": -0.6848451351,
				"z": -1.1230124393,
				"element": "C" 
			},
			{
				"x": 3.0697344213,
				"y": -0.6142678309,
				"z": -0.781817702,
				"element": "C" 
			},
			{
				"x": 3.5454432975,
				"y": 0.5261782219,
				"z": -0.1179669833,
				"element": "C" 
			},
			{
				"x": 2.6834711482,
				"y": 1.5618335306,
				"z": 0.221554077,
				"element": "C" 
			},
			{
				"x": 4.0660131945,
				"y": -1.6855027195,
				"z": -1.1139635945,
				"element": "C" 
			},
			{
				"x": 3.5799333823,
				"y": -2.8904295217,
				"z": -1.5051448974,
				"element": "O" 
			},
			{
				"x": 5.2605693237,
				"y": -1.5119774976,
				"z": -1.0418179181,
				"element": "O" 
			},
			{
				"x": -0.874610085,
				"y": 0.2421895547,
				"z": -1.314882708,
				"element": "S" 
			},
			{
				"x": -1.1959634646,
				"y": 1.4711258533,
				"z": -2.0478627487,
				"element": "O" 
			},
			{
				"x": -0.996999087,
				"y": -1.076018437,
				"z": -1.9518468004,
				"element": "O" 
			},
			{
				"x": -1.7643527837,
				"y": 0.215621,
				"z": 0.0761963289,
				"element": "N" 
			},
			{
				"x": -2.5788353848,
				"y": 1.3657854423,
				"z": 0.5332070754,
				"element": "C" 
			},
			{
				"x": -3.7606117643,
				"y": 0.6817791491,
				"z": 1.235066087,
				"element": "C" 
			},
			{
				"x": -3.1441081902,
				"y": -0.6126987675,
				"z": 1.7919308277,
				"element": "C" 
			},
			{
				"x": -2.1930620562,
				"y": -1.0683120462,
				"z": 0.6746650702,
				"element": "C" 
			},
			{
				"x": -0.1173806354,
				"y": 4.4029387324,
				"z": 0.0731628346,
				"element": "H" 
			},
			{
				"x": 0.2443622768,
				"y": 3.5797205802,
				"z": -1.4720468642,
				"element": "H" 
			},
			{
				"x": 1.5795704698,
				"y": 4.1060256328,
				"z": -0.3905923564,
				"element": "H" 
			},
			{
				"x": 1.2917028108,
				"y": -1.5123323661,
				"z": -1.6856985338,
				"element": "H" 
			},
			{
				"x": 4.6003965716,
				"y": 0.5726675993,
				"z": 0.1292387503,
				"element": "H" 
			},
			{
				"x": 3.0458498081,
				"y": 2.4317754125,
				"z": 0.7599954197,
				"element": "H" 
			},
			{
				"x": 2.6189261431,
				"y": -2.9263232894,
				"z": -1.4053499807,
				"element": "H" 
			},
			{
				"x": -2.8753255834,
				"y": 1.9841324571,
				"z": -0.3152088694,
				"element": "H" 
			},
			{
				"x": -1.9947827992,
				"y": 1.9826747481,
				"z": 1.2250070345,
				"element": "H" 
			},
			{
				"x": -4.5417333562,
				"y": 0.4428481641,
				"z": 0.504778502,
				"element": "H" 
			},
			{
				"x": -4.2034835184,
				"y": 1.3141386966,
				"z": 2.0093779866,
				"element": "H" 
			},
			{
				"x": -3.8864151573,
				"y": -1.3785205079,
				"z": 2.0321261979,
				"element": "H" 
			},
			{
				"x": -2.575552701,
				"y": -0.3967202625,
				"z": 2.7033356734,
				"element": "H" 
			},
			{
				"x": -2.7030389748,
				"y": -1.6893228865,
				"z": -0.0692520192,
				"element": "H" 
			},
			{
				"x": -1.334458537,
				"y": -1.6303173811,
				"z": 1.0566058508,
				"element": "H" 
			}
		],
		 "valence_orbital": [ 
			{
				"type": "occ",
				"energy": -0.30142,
				"method": "rhf"
			},
			{
				"type": "occ",
				"energy": -0.28653,
				"method": "rhf"
			},
			{
				"type": "occ",
				"energy": -0.27798,
				"method": "rhf"
			},
			{
				"type": "occ",
				"energy": -0.26707,
				"method": "rhf"
			},
			{
				"type": "occ",
				"energy": -0.24683,
				"method": "rhf"
			},
			{
				"type": "unocc",
				"energy": -0.06039,
				"method": "rhf"
			},
			{
				"type": "unocc",
				"energy": -0.04363,
				"method": "rhf"
			},
			{
				"type": "unocc",
				"energy": 0.03345,
				"method": "rhf"
			},
			{
				"type": "unocc",
				"energy": 0.04548,
				"method": "rhf"
			},
			{
				"type": "unocc",
				"energy": 0.06773,
				"method": "rhf"
			}
		],
		"cosmo_sigma_profile": { 
			"-0.025": 0.0,
			"-0.024": 0.0,
			"-0.023": 0.0,
			"-0.022": 0.0,
			"-0.021": 0.0,
			"-0.02": 0.139664083322,
			"-0.019": 0.575705090391,
			"-0.018": 1.1285785442,
			"-0.017": 1.1719239326,
			"-0.016": 0.700032050693,
			"-0.015": 1.12429165755,
			"-0.014": 0.728780932147,
			"-0.013": 0.930273065288,
			"-0.012": 0.74864481606,
			"-0.011": 0.907247250488,
			"-0.01": 1.10187526022,
			"-0.009": 1.58391511685,
			"-0.008": 2.987286228,
			"-0.007": 5.53130294968,
			"-0.006": 9.36353463566,
			"-0.005": 13.8617630639,
			"-0.004": 29.3093216763,
			"-0.003": 41.2829024528,
			"-0.002": 31.6356459499,
			"-0.001": 24.4021732261,
			"0.0": 23.0940442014,
			"0.001": 16.8046165638,
			"0.002": 10.1155249131,
			"0.003": 7.86223196934,
			"0.004": 6.48689794226,
			"0.005": 8.33574430494,
			"0.006": 7.02614494156,
			"0.007": 5.1585146034,
			"0.008": 7.99445563775,
			"0.009": 7.34795755457,
			"0.01": 9.66201553053,
			"0.011": 11.5375692427,
			"0.012": 7.24797349229,
			"0.013": 1.29849645791,
			"0.014": 0.0110709312131,
			"0.015": 0.0,
			"0.016": 0.0,
			"0.017": 0.0,
			"0.018": 0.0,
			"0.019": 0.0,
			"0.02": 0.0,
			"0.021": 0.0,
			"0.022": 0.0,
			"0.023": 0.0,
			"0.024": 0.0,
			"0.0": 0.0
		}
	}
}
