{
	 "smiles": "CN1CCN(CC1)S(=O)(=O)C1=CC(=C(Cl)C=C1)[N+]([O-])=O", 
	 "Tm": 550.15, 
	 "num_atms": 34, 
	 "gaussian": { 
		 "optdone": 1, 
		 "sigma_profile": "yes", 
		 "theory": "DFT", 
		 "functional": "B3LYP", 
		 "basiset": "6-31G**", 
		 "properties": { 
			 "R2extent": 8974.7626, 
			 "electric_dipole_moment_norm": 6.25357093667, 
			 "electric_quadrupole_moment_norm": 18.4887121374, 
			 "total_energy": -1750.9278298, 
			 "HOMO_LUMO_gap": 0.12216, 
			 "cosmo_polarized_energy": -17.42, 
			 "cosmo_cavitation_energy": 40.31, 
			 "cosmo_dispersion_energy": -28.54, 
			 "cosmo_repulsion_energy": 2.16, 
			 "cosmo_total_nonelectrostatic_energy": 13.93, 
			 "SMD_solvation_energy": 4.77 
		},
		"coords": [
			{
				"x": 3.5830911643,
				"y": 0.5844743862,
				"z": -2.2779954704,
				"element": "C" 
			},
			{
				"x": 2.6090030927,
				"y": 0.5603049313,
				"z": -1.2008445526,
				"element": "N" 
			},
			{
				"x": 3.0170946923,
				"y": 1.2917815632,
				"z": -0.0113792296,
				"element": "C" 
			},
			{
				"x": 1.7915296374,
				"y": 1.5673683083,
				"z": 0.8743292501,
				"element": "C" 
			},
			{
				"x": 0.9037798374,
				"y": 0.3744218796,
				"z": 0.8561380102,
				"element": "N" 
			},
			{
				"x": 1.5828139864,
				"y": -0.8901501197,
				"z": 0.5382984398,
				"element": "C" 
			},
			{
				"x": 2.178251311,
				"y": -0.8036182447,
				"z": -0.879095527,
				"element": "C" 
			},
			{
				"x": -0.2557991152,
				"y": 0.3143372961,
				"z": 2.0721239168,
				"element": "S" 
			},
			{
				"x": 0.113263788,
				"y": -0.6410457125,
				"z": 3.1242920228,
				"element": "O" 
			},
			{
				"x": -0.5804146512,
				"y": 1.7064813771,
				"z": 2.3917523172,
				"element": "O" 
			},
			{
				"x": -1.6585116147,
				"y": -0.399877656,
				"z": 1.1973875947,
				"element": "C" 
			},
			{
				"x": -2.0619558405,
				"y": -1.6944135133,
				"z": 1.4924666768,
				"element": "C" 
			},
			{
				"x": -3.1756224769,
				"y": -2.2301081691,
				"z": 0.8417612382,
				"element": "C" 
			},
			{
				"x": -3.8735755893,
				"y": -1.4807470155,
				"z": -0.116679108,
				"element": "C" 
			},
			{
				"x": -5.2178646442,
				"y": -2.0989382665,
				"z": -1.0280397299,
				"element": "Cl" 
			},
			{
				"x": -3.4421850656,
				"y": -0.178346962,
				"z": -0.4031498847,
				"element": "C" 
			},
			{
				"x": -2.3480359493,
				"y": 0.3685314789,
				"z": 0.2549338228,
				"element": "C" 
			},
			{
				"x": -3.5559897918,
				"y": -3.6018227918,
				"z": 1.2294536438,
				"element": "N" 
			},
			{
				"x": -4.7467827277,
				"y": -3.8904085835,
				"z": 1.2355425415,
				"element": "O" 
			},
			{
				"x": -2.6360407336,
				"y": -4.3537038324,
				"z": 1.5485187324,
				"element": "O" 
			},
			{
				"x": 3.8047125751,
				"y": 1.6193377326,
				"z": -2.557422644,
				"element": "H" 
			},
			{
				"x": 4.5367466605,
				"y": 0.0830948982,
				"z": -2.0226568895,
				"element": "H" 
			},
			{
				"x": 3.1679508204,
				"y": 0.0806075974,
				"z": -3.1574138942,
				"element": "H" 
			},
			{
				"x": 3.4414929067,
				"y": 2.2548824023,
				"z": -0.3120971816,
				"element": "H" 
			},
			{
				"x": 3.8048192658,
				"y": 0.7695847319,
				"z": 0.5658884929,
				"element": "H" 
			},
			{
				"x": 2.1215426488,
				"y": 1.8192709484,
				"z": 1.8894307982,
				"element": "H" 
			},
			{
				"x": 1.222938742,
				"y": 2.4129025184,
				"z": 0.482510946,
				"element": "H" 
			},
			{
				"x": 2.3585219251,
				"y": -1.1159995365,
				"z": 1.2814504087,
				"element": "H" 
			},
			{
				"x": 0.8591661262,
				"y": -1.7077023657,
				"z": 0.5797559585,
				"element": "H" 
			},
			{
				"x": 3.0166574812,
				"y": -1.5239207798,
				"z": -0.9287018159,
				"element": "H" 
			},
			{
				"x": 1.436976903,
				"y": -1.1178909321,
				"z": -1.6241831847,
				"element": "H" 
			},
			{
				"x": -1.5340271697,
				"y": -2.2879789347,
				"z": 2.2289519546,
				"element": "H" 
			},
			{
				"x": -3.9793556379,
				"y": 0.3955707366,
				"z": -1.1494602917,
				"element": "H" 
			},
			{
				"x": -2.0305925568,
				"y": 1.3833206294,
				"z": 0.0421326377,
				"element": "H" 
			}
		],
		 "valence_orbital": [ 
			{
				"type": "occ",
				"energy": -0.30864,
				"method": "rhf"
			},
			{
				"type": "occ",
				"energy": -0.29286,
				"method": "rhf"
			},
			{
				"type": "occ",
				"energy": -0.289,
				"method": "rhf"
			},
			{
				"type": "occ",
				"energy": -0.26021,
				"method": "rhf"
			},
			{
				"type": "occ",
				"energy": -0.22367,
				"method": "rhf"
			},
			{
				"type": "unocc",
				"energy": -0.10151,
				"method": "rhf"
			},
			{
				"type": "unocc",
				"energy": -0.06319,
				"method": "rhf"
			},
			{
				"type": "unocc",
				"energy": -0.03425,
				"method": "rhf"
			},
			{
				"type": "unocc",
				"energy": 4e-05,
				"method": "rhf"
			},
			{
				"type": "unocc",
				"energy": 0.04607,
				"method": "rhf"
			}
		],
		"cosmo_sigma_profile": { 
			"-0.025": 0.0,
			"-0.024": 0.0,
			"-0.023": 0.0,
			"-0.022": 0.0,
			"-0.021": 0.0,
			"-0.02": 0.0,
			"-0.019": 0.0,
			"-0.018": 0.0,
			"-0.017": 0.0,
			"-0.016": 0.0,
			"-0.015": 0.0,
			"-0.014": 0.0,
			"-0.013": 0.0,
			"-0.012": 0.0,
			"-0.011": 0.0,
			"-0.01": 0.811201289499,
			"-0.009": 5.11789047452,
			"-0.008": 5.36489980607,
			"-0.007": 6.53570395854,
			"-0.006": 10.335752254,
			"-0.005": 21.3829232249,
			"-0.004": 32.4470092168,
			"-0.003": 39.3737838589,
			"-0.002": 36.4558187714,
			"-0.001": 30.5200752134,
			"0.0": 19.9675818449,
			"0.001": 11.4366409021,
			"0.002": 13.5086642899,
			"0.003": 11.1722117298,
			"0.004": 8.19140473702,
			"0.005": 7.09428189936,
			"0.006": 9.4968912318,
			"0.007": 14.2560598917,
			"0.008": 10.3478451507,
			"0.009": 7.16387334393,
			"0.01": 8.79823223519,
			"0.011": 7.93903658536,
			"0.012": 1.81611895541,
			"0.013": 0.412631780075,
			"0.014": 0.80313439389,
			"0.015": 0.330376586254,
			"0.016": 0.0616852957496,
			"0.017": 0.0,
			"0.018": 0.0,
			"0.019": 0.0,
			"0.02": 0.0,
			"0.021": 0.0,
			"0.022": 0.0,
			"0.023": 0.0,
			"0.024": 0.0,
			"0.025": 0.0
		}
	}
}
