{
	 "smiles": "FC(F)(F)C1=CC(C#N)=C(NCC=C)C=C1", 
	 "Tm": 328.15, 
	 "num_atms": 25, 
	 "gaussian": { 
		 "optdone": 1, 
		 "sigma_profile": "yes", 
		 "theory": "DFT", 
		 "functional": "B3LYP", 
		 "basiset": "6-31G**", 
		 "properties": { 
			 "R2extent": 4982.9921, 
			 "electric_dipole_moment_norm": 5.06617685637, 
			 "electric_quadrupole_moment_norm": 13.3146854878, 
			 "total_energy": -833.589592279, 
			 "HOMO_LUMO_gap": 0.17229, 
			 "cosmo_polarized_energy": -10.61, 
			 "cosmo_cavitation_energy": 32.32, 
			 "cosmo_dispersion_energy": -21.91, 
			 "cosmo_repulsion_energy": 1.65, 
			 "cosmo_total_nonelectrostatic_energy": 12.07, 
			 "SMD_solvation_energy": 7.7 
		},
		"coords": [
			{
				"x": -2.6650080651,
				"y": 0.3613178942,
				"z": 3.2075928152,
				"element": "F" 
			},
			{
				"x": -2.0221238588,
				"y": 1.3477160691,
				"z": 2.5397628476,
				"element": "C" 
			},
			{
				"x": -1.3243159512,
				"y": 2.0678365258,
				"z": 3.445176719,
				"element": "F" 
			},
			{
				"x": -2.9838646562,
				"y": 2.1638022227,
				"z": 2.0441808105,
				"element": "F" 
			},
			{
				"x": -1.1400982757,
				"y": 0.7974650044,
				"z": 1.4589451557,
				"element": "C" 
			},
			{
				"x": 0.0959239154,
				"y": 1.3721328745,
				"z": 1.1850793163,
				"element": "C" 
			},
			{
				"x": 0.8912961399,
				"y": 0.8822516647,
				"z": 0.1427677645,
				"element": "C" 
			},
			{
				"x": 2.1619001394,
				"y": 1.471154069,
				"z": -0.1371097095,
				"element": "C" 
			},
			{
				"x": 3.2035203615,
				"y": 1.9105562057,
				"z": -0.4192796669,
				"element": "N" 
			},
			{
				"x": 0.4531171954,
				"y": -0.2141523588,
				"z": -0.6611772313,
				"element": "C" 
			},
			{
				"x": 1.2549723054,
				"y": -0.6946830614,
				"z": -1.6559259031,
				"element": "N" 
			},
			{
				"x": 0.8662167934,
				"y": -1.7258761179,
				"z": -2.6102888836,
				"element": "C" 
			},
			{
				"x": 2.0627087747,
				"y": -2.1833746936,
				"z": -3.399437956,
				"element": "C" 
			},
			{
				"x": 2.15205983,
				"y": -2.1131713274,
				"z": -4.7267158443,
				"element": "C" 
			},
			{
				"x": -0.8119697322,
				"y": -0.771223093,
				"z": -0.3674217774,
				"element": "C" 
			},
			{
				"x": -1.5830166593,
				"y": -0.2750788273,
				"z": 0.6719385253,
				"element": "C" 
			},
			{
				"x": 0.4584757239,
				"y": 2.2016542796,
				"z": 1.7809902931,
				"element": "H" 
			},
			{
				"x": 2.0652653248,
				"y": -0.1404858033,
				"z": -1.8991776215,
				"element": "H" 
			},
			{
				"x": 0.4558402539,
				"y": -2.5787689098,
				"z": -2.0522525187,
				"element": "H" 
			},
			{
				"x": 0.0757915214,
				"y": -1.3723353462,
				"z": -3.2900065395,
				"element": "H" 
			},
			{
				"x": 2.8850732762,
				"y": -2.5946117526,
				"z": -2.8151259401,
				"element": "H" 
			},
			{
				"x": 3.0294022254,
				"y": -2.469982506,
				"z": -5.2572400182,
				"element": "H" 
			},
			{
				"x": 1.3480018444,
				"y": -1.702135426,
				"z": -5.3325304774,
				"element": "H" 
			},
			{
				"x": -1.1890167036,
				"y": -1.5953734032,
				"z": -0.960560251,
				"element": "H" 
			},
			{
				"x": -2.546951723,
				"y": -0.7278341832,
				"z": 0.8812160913,
				"element": "H" 
			}
		],
		 "valence_orbital": [ 
			{
				"type": "occ",
				"energy": -0.33837,
				"method": "rhf"
			},
			{
				"type": "occ",
				"energy": -0.3287,
				"method": "rhf"
			},
			{
				"type": "occ",
				"energy": -0.28672,
				"method": "rhf"
			},
			{
				"type": "occ",
				"energy": -0.27507,
				"method": "rhf"
			},
			{
				"type": "occ",
				"energy": -0.22654,
				"method": "rhf"
			},
			{
				"type": "unocc",
				"energy": -0.05425,
				"method": "rhf"
			},
			{
				"type": "unocc",
				"energy": -0.02221,
				"method": "rhf"
			},
			{
				"type": "unocc",
				"energy": -0.00993,
				"method": "rhf"
			},
			{
				"type": "unocc",
				"energy": 0.02401,
				"method": "rhf"
			},
			{
				"type": "unocc",
				"energy": 0.06285,
				"method": "rhf"
			}
		],
		"cosmo_sigma_profile": { 
			"-0.025": 0.0,
			"-0.024": 0.0,
			"-0.023": 0.0,
			"-0.022": 0.0,
			"-0.021": 0.0,
			"-0.02": 0.0,
			"-0.019": 0.0,
			"-0.018": 0.0,
			"-0.017": 0.0,
			"-0.016": 0.0,
			"-0.015": 0.0,
			"-0.014": 0.0,
			"-0.013": 0.0,
			"-0.012": 0.0,
			"-0.011": 0.220680615881,
			"-0.01": 0.935494907576,
			"-0.009": 1.08566896171,
			"-0.008": 4.6521023455,
			"-0.007": 8.0315742721,
			"-0.006": 12.3790080555,
			"-0.005": 18.7511110466,
			"-0.004": 16.8504612607,
			"-0.003": 17.2975149466,
			"-0.002": 16.1614429229,
			"-0.001": 18.6628473582,
			"0.0": 20.4629724651,
			"0.001": 24.0268557779,
			"0.002": 28.8948572662,
			"0.003": 35.8712326293,
			"0.004": 9.57067735366,
			"0.005": 4.4853160969,
			"0.006": 3.57689062448,
			"0.007": 2.25532999064,
			"0.008": 2.83165179747,
			"0.009": 3.16107703726,
			"0.01": 2.86096259201,
			"0.011": 2.70537629649,
			"0.012": 2.55455135613,
			"0.013": 1.47066131341,
			"0.014": 0.0303952098719,
			"0.015": 0.0,
			"0.016": 0.0,
			"0.017": 0.0,
			"0.018": 0.0,
			"0.019": 0.0,
			"0.02": 0.0,
			"0.021": 0.0,
			"0.022": 0.0,
			"0.023": 0.0,
			"0.024": 0.0,
			"0.025": 0.0
		}
	}
}
