{
	 "smiles": "CC(C)(C)C1=CC2=C(NC(=O)C2=O)C=C1", 
	 "Tm": 419.15, 
	 "num_atms": 28, 
	 "gaussian": { 
		 "optdone": 1, 
		 "sigma_profile": "yes", 
		 "theory": "DFT", 
		 "functional": "B3LYP", 
		 "basiset": "6-31G**", 
		 "properties": { 
			 "R2extent": 4162.6626, 
			 "electric_dipole_moment_norm": 6.24987347472, 
			 "electric_quadrupole_moment_norm": 25.9878020687, 
			 "total_energy": -670.326407068, 
			 "HOMO_LUMO_gap": 0.13849, 
			 "cosmo_polarized_energy": -15.37, 
			 "cosmo_cavitation_energy": 31.18, 
			 "cosmo_dispersion_energy": -22.15, 
			 "cosmo_repulsion_energy": 1.72, 
			 "cosmo_total_nonelectrostatic_energy": 10.75, 
			 "SMD_solvation_energy": 6.76 
		},
		"coords": [
			{
				"x": 0.5077883287,
				"y": -1.0812811788,
				"z": -2.8672263305,
				"element": "C" 
			},
			{
				"x": 0.7391381179,
				"y": -1.2584575203,
				"z": -1.3475157076,
				"element": "C" 
			},
			{
				"x": 2.2579879096,
				"y": -1.2853326411,
				"z": -1.0919398369,
				"element": "C" 
			},
			{
				"x": 0.148219477,
				"y": -2.6143673059,
				"z": -0.8928731832,
				"element": "C" 
			},
			{
				"x": 0.0467559058,
				"y": -0.1136732592,
				"z": -0.5847586733,
				"element": "C" 
			},
			{
				"x": 0.7409835685,
				"y": 0.7834993952,
				"z": 0.2388056045,
				"element": "C" 
			},
			{
				"x": 0.052494609,
				"y": 1.7980873303,
				"z": 0.9008888322,
				"element": "C" 
			},
			{
				"x": -1.3381236706,
				"y": 1.9469590744,
				"z": 0.7622444349,
				"element": "C" 
			},
			{
				"x": -1.7944993128,
				"y": 3.0342072191,
				"z": 1.522785425,
				"element": "N" 
			},
			{
				"x": -0.7605301945,
				"y": 3.6636245323,
				"z": 2.1998171823,
				"element": "C" 
			},
			{
				"x": -0.8425948431,
				"y": 4.6242757827,
				"z": 2.9307772774,
				"element": "O" 
			},
			{
				"x": 0.5289958069,
				"y": 2.8535399851,
				"z": 1.8078596769,
				"element": "C" 
			},
			{
				"x": 1.6445066219,
				"y": 3.1073242516,
				"z": 2.2079742838,
				"element": "O" 
			},
			{
				"x": -2.0568591103,
				"y": 1.0755932939,
				"z": -0.0456374305,
				"element": "C" 
			},
			{
				"x": -1.3473955459,
				"y": 0.063719013,
				"z": -0.7017152954,
				"element": "C" 
			},
			{
				"x": 0.9929598803,
				"y": -1.8914061921,
				"z": -3.4228265681,
				"element": "H" 
			},
			{
				"x": -0.5559924591,
				"y": -1.0956747533,
				"z": -3.1238189343,
				"element": "H" 
			},
			{
				"x": 0.9237778378,
				"y": -0.1316763931,
				"z": -3.2192513817,
				"element": "H" 
			},
			{
				"x": 2.7439357376,
				"y": -0.360913421,
				"z": -1.4208954644,
				"element": "H" 
			},
			{
				"x": 2.4915346499,
				"y": -1.4375624309,
				"z": -0.0330683209,
				"element": "H" 
			},
			{
				"x": 2.7101560201,
				"y": -2.1110395888,
				"z": -1.65026002,
				"element": "H" 
			},
			{
				"x": 0.6302156682,
				"y": -3.4386883748,
				"z": -1.4300514552,
				"element": "H" 
			},
			{
				"x": 0.3045450144,
				"y": -2.770601414,
				"z": 0.1794445016,
				"element": "H" 
			},
			{
				"x": -0.9270164364,
				"y": -2.6778788092,
				"z": -1.0865477345,
				"element": "H" 
			},
			{
				"x": 1.8132279031,
				"y": 0.7142291895,
				"z": 0.3810584486,
				"element": "H" 
			},
			{
				"x": -2.7545851953,
				"y": 3.3396393145,
				"z": 1.5844090415,
				"element": "H" 
			},
			{
				"x": -3.1314279066,
				"y": 1.1680599345,
				"z": -0.170262099,
				"element": "H" 
			},
			{
				"x": -1.9129983822,
				"y": -0.6156050336,
				"z": -1.3326162731,
				"element": "H" 
			}
		],
		 "valence_orbital": [ 
			{
				"type": "occ",
				"energy": -0.31617,
				"method": "rhf"
			},
			{
				"type": "occ",
				"energy": -0.30661,
				"method": "rhf"
			},
			{
				"type": "occ",
				"energy": -0.2743,
				"method": "rhf"
			},
			{
				"type": "occ",
				"energy": -0.24301,
				"method": "rhf"
			},
			{
				"type": "occ",
				"energy": -0.23222,
				"method": "rhf"
			},
			{
				"type": "unocc",
				"energy": -0.09373,
				"method": "rhf"
			},
			{
				"type": "unocc",
				"energy": -0.01775,
				"method": "rhf"
			},
			{
				"type": "unocc",
				"energy": 0.009,
				"method": "rhf"
			},
			{
				"type": "unocc",
				"energy": 0.0694,
				"method": "rhf"
			},
			{
				"type": "unocc",
				"energy": 0.07751,
				"method": "rhf"
			}
		],
		"cosmo_sigma_profile": { 
			"-0.025": 0.0,
			"-0.024": 0.0,
			"-0.023": 0.0,
			"-0.022": 0.0,
			"-0.021": 0.0,
			"-0.02": 0.0,
			"-0.019": 0.0,
			"-0.018": 0.0,
			"-0.017": 0.296379512019,
			"-0.016": 1.37046645465,
			"-0.015": 1.32597063139,
			"-0.014": 1.33816894225,
			"-0.013": 0.984548924821,
			"-0.012": 0.855608530038,
			"-0.011": 1.42512341808,
			"-0.01": 1.4590902129,
			"-0.009": 0.883862257391,
			"-0.008": 1.80223362995,
			"-0.007": 5.04628436983,
			"-0.006": 9.22669443037,
			"-0.005": 9.06678700328,
			"-0.004": 10.7936607262,
			"-0.003": 24.2022772943,
			"-0.002": 26.6778033432,
			"-0.001": 24.7992691591,
			"0.0": 25.1255545024,
			"0.001": 30.1748601169,
			"0.002": 16.3604398652,
			"0.003": 11.918858316,
			"0.004": 3.77807038229,
			"0.005": 1.63394697083,
			"0.006": 2.58730537252,
			"0.007": 2.98444287409,
			"0.008": 3.01913815495,
			"0.009": 5.24413473008,
			"0.01": 7.01752977552,
			"0.011": 9.63341060987,
			"0.012": 4.75518108802,
			"0.013": 0.576161019621,
			"0.014": 0.0,
			"0.015": 0.0,
			"0.016": 0.0,
			"0.017": 0.0,
			"0.018": 0.0,
			"0.019": 0.0,
			"0.02": 0.0,
			"0.021": 0.0,
			"0.022": 0.0,
			"0.023": 0.0,
			"0.024": 0.0,
			"0.025": 0.0
		}
	}
}
