{
	 "smiles": "CSC1=NC=CC=C1C(=O)NC(CC(C)C)C(O)=O", 
	 "Tm": 417.15, 
	 "num_atms": 37, 
	 "gaussian": { 
		 "optdone": 1, 
		 "sigma_profile": "yes", 
		 "theory": "DFT", 
		 "functional": "B3LYP", 
		 "basiset": "6-31G**", 
		 "properties": { 
			 "R2extent": 7958.3945, 
			 "electric_dipole_moment_norm": 1.71786664791, 
			 "electric_quadrupole_moment_norm": 22.0558883711, 
			 "total_energy": -1239.62824632, 
			 "HOMO_LUMO_gap": 0.16553, 
			 "cosmo_polarized_energy": -21.42, 
			 "cosmo_cavitation_energy": 41.25, 
			 "cosmo_dispersion_energy": -28.74, 
			 "cosmo_repulsion_energy": 2.19, 
			 "cosmo_total_nonelectrostatic_energy": 14.69, 
			 "SMD_solvation_energy": 7.84 
		},
		"coords": [
			{
				"x": -3.5653849468,
				"y": 4.5552180283,
				"z": -2.1542105892,
				"element": "C" 
			},
			{
				"x": -2.501470162,
				"y": 3.5419608857,
				"z": -1.0683306488,
				"element": "S" 
			},
			{
				"x": -2.5420947078,
				"y": 1.9950777965,
				"z": -1.9476052633,
				"element": "C" 
			},
			{
				"x": -3.1475288941,
				"y": 1.99651435,
				"z": -3.1418144677,
				"element": "N" 
			},
			{
				"x": -3.1865905983,
				"y": 0.8683685877,
				"z": -3.8563080292,
				"element": "C" 
			},
			{
				"x": -2.6208129355,
				"y": -0.3309019406,
				"z": -3.4331435457,
				"element": "C" 
			},
			{
				"x": -2.0071258689,
				"y": -0.3439450878,
				"z": -2.1835034857,
				"element": "C" 
			},
			{
				"x": -1.9661755308,
				"y": 0.8137088275,
				"z": -1.4004581605,
				"element": "C" 
			},
			{
				"x": -1.3240424666,
				"y": 0.8182264168,
				"z": -0.0515735849,
				"element": "C" 
			},
			{
				"x": -0.8979503246,
				"y": 1.8481358505,
				"z": 0.4712333472,
				"element": "O" 
			},
			{
				"x": -1.2202392564,
				"y": -0.3956710143,
				"z": 0.5786826177,
				"element": "N" 
			},
			{
				"x": -0.7228932908,
				"y": -0.4562854783,
				"z": 1.9402895778,
				"element": "C" 
			},
			{
				"x": 0.8272623242,
				"y": -0.424575529,
				"z": 2.0476542073,
				"element": "C" 
			},
			{
				"x": 1.6053554077,
				"y": -1.7199323518,
				"z": 1.7368490898,
				"element": "C" 
			},
			{
				"x": 1.366540303,
				"y": -2.2610053786,
				"z": 0.3187165605,
				"element": "C" 
			},
			{
				"x": 3.1043500351,
				"y": -1.4784319285,
				"z": 1.9775768868,
				"element": "C" 
			},
			{
				"x": -1.3328326148,
				"y": -1.6947949858,
				"z": 2.5981183622,
				"element": "C" 
			},
			{
				"x": -1.0510060524,
				"y": -1.8653421488,
				"z": 3.9081430808,
				"element": "O" 
			},
			{
				"x": -2.0231073367,
				"y": -2.4943347011,
				"z": 2.0099253319,
				"element": "O" 
			},
			{
				"x": -3.6123712915,
				"y": 5.532550943,
				"z": -1.6672680751,
				"element": "H" 
			},
			{
				"x": -4.5673892875,
				"y": 4.132626209,
				"z": -2.2371908537,
				"element": "H" 
			},
			{
				"x": -3.1334234774,
				"y": 4.6543221155,
				"z": -3.1498881611,
				"element": "H" 
			},
			{
				"x": -3.690469414,
				"y": 0.9353385441,
				"z": -4.8192295502,
				"element": "H" 
			},
			{
				"x": -2.657276524,
				"y": -1.2176164608,
				"z": -4.0563794438,
				"element": "H" 
			},
			{
				"x": -1.5361651261,
				"y": -1.2535080607,
				"z": -1.8233032117,
				"element": "H" 
			},
			{
				"x": -1.819527622,
				"y": -1.168447978,
				"z": 0.314900957,
				"element": "H" 
			},
			{
				"x": -1.0907052624,
				"y": 0.4333252287,
				"z": 2.4731604693,
				"element": "H" 
			},
			{
				"x": 1.0880666554,
				"y": -0.1009384199,
				"z": 3.066478241,
				"element": "H" 
			},
			{
				"x": 1.1595602935,
				"y": 0.3895894638,
				"z": 1.3950573105,
				"element": "H" 
			},
			{
				"x": 1.2767781632,
				"y": -2.4910285959,
				"z": 2.4492642368,
				"element": "H" 
			},
			{
				"x": 1.9998103986,
				"y": -3.1358984935,
				"z": 0.1362027784,
				"element": "H" 
			},
			{
				"x": 1.6103208737,
				"y": -1.5064464114,
				"z": -0.4379169801,
				"element": "H" 
			},
			{
				"x": 0.3286700204,
				"y": -2.5678104692,
				"z": 0.1687357583,
				"element": "H" 
			},
			{
				"x": 3.3001255237,
				"y": -1.1301051886,
				"z": 2.9978767318,
				"element": "H" 
			},
			{
				"x": 3.6784069263,
				"y": -2.3975973259,
				"z": 1.8222344054,
				"element": "H" 
			},
			{
				"x": 3.4942952427,
				"y": -0.7213212331,
				"z": 1.2868812367,
				"element": "H" 
			},
			{
				"x": -0.4943591763,
				"y": -1.1419240654,
				"z": 4.2318428636,
				"element": "H" 
			}
		],
		 "valence_orbital": [ 
			{
				"type": "occ",
				"energy": -0.28457,
				"method": "rhf"
			},
			{
				"type": "occ",
				"energy": -0.26566,
				"method": "rhf"
			},
			{
				"type": "occ",
				"energy": -0.26367,
				"method": "rhf"
			},
			{
				"type": "occ",
				"energy": -0.25586,
				"method": "rhf"
			},
			{
				"type": "occ",
				"energy": -0.21653,
				"method": "rhf"
			},
			{
				"type": "unocc",
				"energy": -0.051,
				"method": "rhf"
			},
			{
				"type": "unocc",
				"energy": -0.02466,
				"method": "rhf"
			},
			{
				"type": "unocc",
				"energy": -0.00815,
				"method": "rhf"
			},
			{
				"type": "unocc",
				"energy": 0.03125,
				"method": "rhf"
			},
			{
				"type": "unocc",
				"energy": 0.04625,
				"method": "rhf"
			}
		],
		"cosmo_sigma_profile": { 
			"-0.025": 0.0,
			"-0.024": 0.0,
			"-0.023": 0.0,
			"-0.022": 0.0,
			"-0.021": 0.0,
			"-0.02": 0.0,
			"-0.019": 0.680434898349,
			"-0.018": 1.12205961113,
			"-0.017": 1.18916747962,
			"-0.016": 1.33154072347,
			"-0.015": 1.27430954093,
			"-0.014": 1.19541564816,
			"-0.013": 0.780060556849,
			"-0.012": 0.957829177678,
			"-0.011": 2.09052803365,
			"-0.01": 2.30506836023,
			"-0.009": 2.74723889124,
			"-0.008": 4.93413560659,
			"-0.007": 8.75933154944,
			"-0.006": 12.3687645774,
			"-0.005": 12.7519223572,
			"-0.004": 14.8598318275,
			"-0.003": 24.1269724885,
			"-0.002": 33.9996267411,
			"-0.001": 33.3148219584,
			"0.0": 31.9050020546,
			"0.001": 33.8259206506,
			"0.002": 20.6865121414,
			"0.003": 9.84595870257,
			"0.004": 7.44333474625,
			"0.005": 6.92894678707,
			"0.006": 7.51963677502,
			"0.007": 7.47586482674,
			"0.008": 7.96392482288,
			"0.009": 8.75599269384,
			"0.01": 7.55455274187,
			"0.011": 6.38378396425,
			"0.012": 4.39067184217,
			"0.013": 4.02223240668,
			"0.014": 0.985664389694,
			"0.015": 0.0,
			"0.016": 0.0,
			"0.017": 0.0,
			"0.018": 0.0,
			"0.019": 0.0,
			"0.02": 0.0,
			"0.021": 0.0,
			"0.022": 0.0,
			"0.023": 0.0,
			"0.024": 0.0,
			"0.025": 0.0
		}
	}
}
