{
	 "smiles": "O=C(OCC1=CC=CC=C1)C(=O)OCC1=CC=CC=C1", 
	 "Tm": 354.15, 
	 "num_atms": 34, 
	 "gaussian": { 
		 "optdone": 1, 
		 "sigma_profile": "yes", 
		 "theory": "DFT", 
		 "functional": "B3LYP", 
		 "basiset": "6-31G**", 
		 "properties": { 
			 "R2extent": 9389.2857, 
			 "electric_dipole_moment_norm": 4.10429356893, 
			 "electric_quadrupole_moment_norm": 12.1715748003, 
			 "total_energy": -919.037303707, 
			 "HOMO_LUMO_gap": 0.19735, 
			 "cosmo_polarized_energy": -14.56, 
			 "cosmo_cavitation_energy": 40.39, 
			 "cosmo_dispersion_energy": -28.05, 
			 "cosmo_repulsion_energy": 2.2, 
			 "cosmo_total_nonelectrostatic_energy": 14.54, 
			 "SMD_solvation_energy": 8.93 
		},
		"coords": [
			{
				"x": -0.8584534402,
				"y": -2.648959009,
				"z": 2.5143746169,
				"element": "O" 
			},
			{
				"x": -0.9360088273,
				"y": -1.7072565949,
				"z": 1.7610547775,
				"element": "C" 
			},
			{
				"x": -2.0064437685,
				"y": -0.9288183258,
				"z": 1.5708773934,
				"element": "O" 
			},
			{
				"x": -3.1935025114,
				"y": -1.250306282,
				"z": 2.3623247971,
				"element": "C" 
			},
			{
				"x": -3.2040799961,
				"y": -0.5123643248,
				"z": 3.6764430144,
				"element": "C" 
			},
			{
				"x": -3.7737936882,
				"y": 0.7643386816,
				"z": 3.7630571358,
				"element": "C" 
			},
			{
				"x": -3.7796977437,
				"y": 1.4575607032,
				"z": 4.9735498398,
				"element": "C" 
			},
			{
				"x": -3.2143661067,
				"y": 0.878045573,
				"z": 6.1113294695,
				"element": "C" 
			},
			{
				"x": -2.6436709732,
				"y": -0.3942606937,
				"z": 6.033676914,
				"element": "C" 
			},
			{
				"x": -2.637700938,
				"y": -1.0870902499,
				"z": 4.8228083446,
				"element": "C" 
			},
			{
				"x": 0.2631180642,
				"y": -1.2836914202,
				"z": 0.8852381338,
				"element": "C" 
			},
			{
				"x": 1.3348462721,
				"y": -1.8335333592,
				"z": 0.9725671201,
				"element": "O" 
			},
			{
				"x": -0.0339982943,
				"y": -0.2775006344,
				"z": 0.0546401482,
				"element": "O" 
			},
			{
				"x": 1.0676576865,
				"y": 0.1648779458,
				"z": -0.7941292439,
				"element": "C" 
			},
			{
				"x": 0.5704919578,
				"y": 1.2857365366,
				"z": -1.6624403701,
				"element": "C" 
			},
			{
				"x": 0.5501651971,
				"y": 2.600782207,
				"z": -1.1804019428,
				"element": "C" 
			},
			{
				"x": 0.0770060899,
				"y": 3.6409580976,
				"z": -1.9794789519,
				"element": "C" 
			},
			{
				"x": -0.3792499974,
				"y": 3.3762085884,
				"z": -3.2729446729,
				"element": "C" 
			},
			{
				"x": -0.3614898951,
				"y": 2.069037383,
				"z": -3.7625950552,
				"element": "C" 
			},
			{
				"x": 0.1105977849,
				"y": 1.0301068042,
				"z": -2.9595949322,
				"element": "C" 
			},
			{
				"x": -4.0214573793,
				"y": -0.9364196793,
				"z": 1.7244334945,
				"element": "H" 
			},
			{
				"x": -3.2256389553,
				"y": -2.3314756304,
				"z": 2.5080370236,
				"element": "H" 
			},
			{
				"x": -4.2157832146,
				"y": 1.2150496898,
				"z": 2.8778035389,
				"element": "H" 
			},
			{
				"x": -4.2272145982,
				"y": 2.4457259276,
				"z": 5.0296716119,
				"element": "H" 
			},
			{
				"x": -3.2207617698,
				"y": 1.4151195827,
				"z": 7.0555785065,
				"element": "H" 
			},
			{
				"x": -2.2041108295,
				"y": -0.8485644708,
				"z": 6.9169709955,
				"element": "H" 
			},
			{
				"x": -2.1850879179,
				"y": -2.0714747794,
				"z": 4.7547728609,
				"element": "H" 
			},
			{
				"x": 1.8901679263,
				"y": 0.4782202726,
				"z": -0.1446983721,
				"element": "H" 
			},
			{
				"x": 1.4125362144,
				"y": -0.6902210725,
				"z": -1.3819339236,
				"element": "H" 
			},
			{
				"x": 0.9065078954,
				"y": 2.8076435614,
				"z": -0.1744896211,
				"element": "H" 
			},
			{
				"x": 0.0679917112,
				"y": 4.6571168934,
				"z": -1.5959854219,
				"element": "H" 
			},
			{
				"x": -0.74362237,
				"y": 4.186569201,
				"z": -3.8978082941,
				"element": "H" 
			},
			{
				"x": -0.7123369532,
				"y": 1.8588592932,
				"z": -4.7687860919,
				"element": "H" 
			},
			{
				"x": 0.1244833682,
				"y": 0.0124795839,
				"z": -3.3417228431,
				"element": "H" 
			}
		],
		 "valence_orbital": [ 
			{
				"type": "occ",
				"energy": -0.28322,
				"method": "rhf"
			},
			{
				"type": "occ",
				"energy": -0.25832,
				"method": "rhf"
			},
			{
				"type": "occ",
				"energy": -0.25651,
				"method": "rhf"
			},
			{
				"type": "occ",
				"energy": -0.25466,
				"method": "rhf"
			},
			{
				"type": "occ",
				"energy": -0.25148,
				"method": "rhf"
			},
			{
				"type": "unocc",
				"energy": -0.05413,
				"method": "rhf"
			},
			{
				"type": "unocc",
				"energy": -0.01825,
				"method": "rhf"
			},
			{
				"type": "unocc",
				"energy": -0.01552,
				"method": "rhf"
			},
			{
				"type": "unocc",
				"energy": -0.00892,
				"method": "rhf"
			},
			{
				"type": "unocc",
				"energy": -0.00573,
				"method": "rhf"
			}
		],
		"cosmo_sigma_profile": { 
			"-0.025": 0.0,
			"-0.024": 0.0,
			"-0.023": 0.0,
			"-0.022": 0.0,
			"-0.021": 0.0,
			"-0.02": 0.0,
			"-0.019": 0.0,
			"-0.018": 0.0,
			"-0.017": 0.0,
			"-0.016": 0.0,
			"-0.015": 0.0,
			"-0.014": 0.0,
			"-0.013": 0.0,
			"-0.012": 0.0,
			"-0.011": 0.0,
			"-0.01": 0.0,
			"-0.009": 0.0278433619532,
			"-0.008": 1.38161492379,
			"-0.007": 10.6575971912,
			"-0.006": 27.8849734489,
			"-0.005": 31.606477337,
			"-0.004": 31.7065593269,
			"-0.003": 24.7862143537,
			"-0.002": 20.5855651552,
			"-0.001": 16.5821916333,
			"0.0": 16.1881787071,
			"0.001": 17.5291089486,
			"0.002": 18.311249314,
			"0.003": 20.3282631638,
			"0.004": 21.3282116713,
			"0.005": 24.9612833294,
			"0.006": 7.8917807329,
			"0.007": 4.98026056228,
			"0.008": 3.37079159417,
			"0.009": 5.73496885983,
			"0.01": 8.04754748408,
			"0.011": 5.98317244955,
			"0.012": 2.68207478026,
			"0.013": 0.570149953859,
			"0.014": 0.0,
			"0.015": 0.0,
			"0.016": 0.0,
			"0.017": 0.0,
			"0.018": 0.0,
			"0.019": 0.0,
			"0.02": 0.0,
			"0.021": 0.0,
			"0.022": 0.0,
			"0.023": 0.0,
			"0.024": 0.0,
			"0.025": 0.0
		}
	}
}
