{
	 "smiles": "NC1=NC(CN2CCOCC2)=CS1", 
	 "Tm": 421.15, 
	 "num_atms": 26, 
	 "gaussian": { 
		 "optdone": 1, 
		 "sigma_profile": "yes", 
		 "theory": "DFT", 
		 "functional": "B3LYP", 
		 "basiset": "6-31G**", 
		 "properties": { 
			 "R2extent": 3342.8258, 
			 "electric_dipole_moment_norm": 3.08860158324, 
			 "electric_quadrupole_moment_norm": 12.6425525488, 
			 "total_energy": -950.311568469, 
			 "HOMO_LUMO_gap": 0.19307, 
			 "cosmo_polarized_energy": -13.32, 
			 "cosmo_cavitation_energy": 29.53, 
			 "cosmo_dispersion_energy": -22.19, 
			 "cosmo_repulsion_energy": 1.75, 
			 "cosmo_total_nonelectrostatic_energy": 9.08, 
			 "SMD_solvation_energy": 1.34 
		},
		"coords": [
			{
				"x": 0.1695950832,
				"y": -3.9942440632,
				"z": -0.1029168619,
				"element": "N" 
			},
			{
				"x": -0.3866648172,
				"y": -2.7752522955,
				"z": 0.2140120236,
				"element": "C" 
			},
			{
				"x": -0.3523511725,
				"y": -1.7347867564,
				"z": -0.5668770854,
				"element": "N" 
			},
			{
				"x": -1.0636604912,
				"y": -0.6758277493,
				"z": -0.0207150065,
				"element": "C" 
			},
			{
				"x": -1.1264950955,
				"y": 0.6354336148,
				"z": -0.7774309043,
				"element": "C" 
			},
			{
				"x": 0.1037489879,
				"y": 1.4175924024,
				"z": -0.8330937177,
				"element": "N" 
			},
			{
				"x": 0.5460651122,
				"y": 1.9487674587,
				"z": 0.4587831377,
				"element": "C" 
			},
			{
				"x": 2.0222790967,
				"y": 2.3719769635,
				"z": 0.372553343,
				"element": "C" 
			},
			{
				"x": 2.3194280591,
				"y": 2.9454221558,
				"z": -0.8863646314,
				"element": "O" 
			},
			{
				"x": 2.1701604086,
				"y": 2.0135902267,
				"z": -1.9594651147,
				"element": "C" 
			},
			{
				"x": 1.1983478879,
				"y": 0.8689757723,
				"z": -1.622447384,
				"element": "C" 
			},
			{
				"x": -1.6344805764,
				"y": -0.9145980685,
				"z": 1.1938269407,
				"element": "C" 
			},
			{
				"x": -1.308337009,
				"y": -2.5557076533,
				"z": 1.709789136,
				"element": "S" 
			},
			{
				"x": 0.4912224169,
				"y": -4.5646553156,
				"z": 0.6658583225,
				"element": "H" 
			},
			{
				"x": 0.820401267,
				"y": -3.9407344994,
				"z": -0.8756129197,
				"element": "H" 
			},
			{
				"x": -1.9026758343,
				"y": 1.2640778092,
				"z": -0.3239856313,
				"element": "H" 
			},
			{
				"x": -1.4371032641,
				"y": 0.4263356214,
				"z": -1.8083119601,
				"element": "H" 
			},
			{
				"x": 0.4422724841,
				"y": 1.2162373475,
				"z": 1.2800737083,
				"element": "H" 
			},
			{
				"x": -0.0830628421,
				"y": 2.8133487642,
				"z": 0.7122731458,
				"element": "H" 
			},
			{
				"x": 2.6788483802,
				"y": 1.5103012428,
				"z": 0.5754493892,
				"element": "H" 
			},
			{
				"x": 2.2435388045,
				"y": 3.1330067233,
				"z": 1.1263856293,
				"element": "H" 
			},
			{
				"x": 3.151779374,
				"y": 1.5961894316,
				"z": -2.2377716264,
				"element": "H" 
			},
			{
				"x": 1.7910128264,
				"y": 2.5924579898,
				"z": -2.8082133867,
				"element": "H" 
			},
			{
				"x": 0.7942984792,
				"y": 0.4521681128,
				"z": -2.5508843809,
				"element": "H" 
			},
			{
				"x": 1.7254457498,
				"y": 0.0390315072,
				"z": -1.1220050248,
				"element": "H" 
			},
			{
				"x": -2.2224133153,
				"y": -0.2485067428,
				"z": 1.8084908595,
				"element": "H" 
			}
		],
		 "valence_orbital": [ 
			{
				"type": "occ",
				"energy": -0.27466,
				"method": "rhf"
			},
			{
				"type": "occ",
				"energy": -0.27296,
				"method": "rhf"
			},
			{
				"type": "occ",
				"energy": -0.23817,
				"method": "rhf"
			},
			{
				"type": "occ",
				"energy": -0.21235,
				"method": "rhf"
			},
			{
				"type": "occ",
				"energy": -0.19833,
				"method": "rhf"
			},
			{
				"type": "unocc",
				"energy": -0.00526,
				"method": "rhf"
			},
			{
				"type": "unocc",
				"energy": 0.01133,
				"method": "rhf"
			},
			{
				"type": "unocc",
				"energy": 0.05457,
				"method": "rhf"
			},
			{
				"type": "unocc",
				"energy": 0.06974,
				"method": "rhf"
			},
			{
				"type": "unocc",
				"energy": 0.09457,
				"method": "rhf"
			}
		],
		"cosmo_sigma_profile": { 
			"-0.025": 0.0,
			"-0.024": 0.0,
			"-0.023": 0.0,
			"-0.022": 0.0,
			"-0.021": 0.0,
			"-0.02": 0.0,
			"-0.019": 0.0,
			"-0.018": 0.0,
			"-0.017": 0.0,
			"-0.016": 0.0,
			"-0.015": 0.188765877442,
			"-0.014": 1.59266820661,
			"-0.013": 2.82714326488,
			"-0.012": 2.2563471898,
			"-0.011": 2.43736517733,
			"-0.01": 2.6869798314,
			"-0.009": 2.3692634684,
			"-0.008": 2.71547130791,
			"-0.007": 3.61043129454,
			"-0.006": 4.28566144732,
			"-0.005": 7.56949549916,
			"-0.004": 18.3247992015,
			"-0.003": 28.1950252848,
			"-0.002": 26.672748463,
			"-0.001": 17.3539938154,
			"0.0": 15.0763041661,
			"0.001": 11.8375456178,
			"0.002": 13.617317097,
			"0.003": 12.9866003841,
			"0.004": 12.9765931637,
			"0.005": 10.4848865298,
			"0.006": 5.64199772763,
			"0.007": 3.90977443542,
			"0.008": 3.59807710847,
			"0.009": 3.57754269552,
			"0.01": 3.20355395024,
			"0.011": 4.32175614998,
			"0.012": 3.26090041094,
			"0.013": 3.19365337463,
			"0.014": 2.29334464914,
			"0.015": 0.353389812098,
			"0.016": 0.0,
			"0.017": 0.0,
			"0.018": 0.0,
			"0.019": 0.0,
			"0.02": 0.0,
			"0.021": 0.0,
			"0.022": 0.0,
			"0.023": 0.0,
			"0.024": 0.0,
			"0.025": 0.0
		}
	}
}
