{
	 "smiles": "CCCCCCOC(=O)CCCC", 
	 "Tm": 210.05, 
	 "num_atms": 35, 
	 "gaussian": { 
		 "optdone": 1, 
		 "sigma_profile": "yes", 
		 "theory": "DFT", 
		 "functional": "B3LYP", 
		 "basiset": "6-31G**", 
		 "properties": { 
			 "R2extent": 3572.3498, 
			 "electric_dipole_moment_norm": 1.76138923012, 
			 "electric_quadrupole_moment_norm": 13.1958888761, 
			 "total_energy": -582.916667921, 
			 "HOMO_LUMO_gap": 0.27689, 
			 "cosmo_polarized_energy": -6.2, 
			 "cosmo_cavitation_energy": 35.99, 
			 "cosmo_dispersion_energy": -23.4, 
			 "cosmo_repulsion_energy": 1.91, 
			 "cosmo_total_nonelectrostatic_energy": 14.5, 
			 "SMD_solvation_energy": 6.29 
		},
		"coords": [
			{
				"x": -1.6679413782,
				"y": 0.1596635902,
				"z": 2.3352219857,
				"element": "C" 
			},
			{
				"x": -2.5548682002,
				"y": 0.6858349438,
				"z": 1.2002549599,
				"element": "C" 
			},
			{
				"x": -3.1284169685,
				"y": -0.4266441291,
				"z": 0.2999883973,
				"element": "C" 
			},
			{
				"x": -2.1119942727,
				"y": -1.1017637641,
				"z": -0.6500606262,
				"element": "C" 
			},
			{
				"x": -2.068751831,
				"y": -0.5300119486,
				"z": -2.07858881,
				"element": "C" 
			},
			{
				"x": -1.7093869855,
				"y": 0.9481035766,
				"z": -2.2027292928,
				"element": "C" 
			},
			{
				"x": -0.4338309917,
				"y": 1.2569622904,
				"z": -1.5894937479,
				"element": "O" 
			},
			{
				"x": 0.6698419738,
				"y": 1.0966097044,
				"z": -2.361665441,
				"element": "C" 
			},
			{
				"x": 0.6369566564,
				"y": 0.7120387028,
				"z": -3.5115364226,
				"element": "O" 
			},
			{
				"x": 1.9260243286,
				"y": 1.454773842,
				"z": -1.5923621546,
				"element": "C" 
			},
			{
				"x": 2.2542149798,
				"y": 0.4484219775,
				"z": -0.4703440272,
				"element": "C" 
			},
			{
				"x": 2.5630752827,
				"y": -0.9667999369,
				"z": -0.9756440692,
				"element": "C" 
			},
			{
				"x": 2.9043420796,
				"y": -1.9394640009,
				"z": 0.1573838198,
				"element": "C" 
			},
			{
				"x": -0.8016547471,
				"y": -0.3920273782,
				"z": 1.9537143564,
				"element": "H" 
			},
			{
				"x": -1.2865711781,
				"y": 0.9799134156,
				"z": 2.9523473298,
				"element": "H" 
			},
			{
				"x": -2.2270629161,
				"y": -0.5186272193,
				"z": 2.9904424701,
				"element": "H" 
			},
			{
				"x": -3.3887429437,
				"y": 1.2502377974,
				"z": 1.6372992691,
				"element": "H" 
			},
			{
				"x": -1.9803650402,
				"y": 1.3994814936,
				"z": 0.5983876009,
				"element": "H" 
			},
			{
				"x": -3.9598875017,
				"y": -0.0224596985,
				"z": -0.2939365309,
				"element": "H" 
			},
			{
				"x": -3.5771832859,
				"y": -1.1892557843,
				"z": 0.9500240398,
				"element": "H" 
			},
			{
				"x": -2.3493391837,
				"y": -2.1686148403,
				"z": -0.7375930726,
				"element": "H" 
			},
			{
				"x": -1.1070081197,
				"y": -1.0569678933,
				"z": -0.2141650593,
				"element": "H" 
			},
			{
				"x": -1.3601894286,
				"y": -1.1061041707,
				"z": -2.6841902103,
				"element": "H" 
			},
			{
				"x": -3.0536378684,
				"y": -0.6569704421,
				"z": -2.5498149212,
				"element": "H" 
			},
			{
				"x": -1.6713741508,
				"y": 1.2414383851,
				"z": -3.2544819327,
				"element": "H" 
			},
			{
				"x": -2.4259316269,
				"y": 1.5832985947,
				"z": -1.6768511003,
				"element": "H" 
			},
			{
				"x": 1.7900381743,
				"y": 2.4510357731,
				"z": -1.1573144919,
				"element": "H" 
			},
			{
				"x": 2.7427893016,
				"y": 1.5022424836,
				"z": -2.3175205606,
				"element": "H" 
			},
			{
				"x": 1.4164459739,
				"y": 0.4179421732,
				"z": 0.236827411,
				"element": "H" 
			},
			{
				"x": 3.1180766281,
				"y": 0.8304179773,
				"z": 0.088491669,
				"element": "H" 
			},
			{
				"x": 3.3978952009,
				"y": -0.9211489459,
				"z": -1.6875247552,
				"element": "H" 
			},
			{
				"x": 1.7064777264,
				"y": -1.3518011417,
				"z": -1.5437813913,
				"element": "H" 
			},
			{
				"x": 3.7813221349,
				"y": -1.6009381864,
				"z": 0.7210889166,
				"element": "H" 
			},
			{
				"x": 2.0729878715,
				"y": -2.0313117016,
				"z": 0.8658338996,
				"element": "H" 
			},
			{
				"x": 3.1235503063,
				"y": -2.9401055393,
				"z": -0.2286075074,
				"element": "H" 
			}
		],
		 "valence_orbital": [ 
			{
				"type": "occ",
				"energy": -0.31708,
				"method": "rhf"
			},
			{
				"type": "occ",
				"energy": -0.31629,
				"method": "rhf"
			},
			{
				"type": "occ",
				"energy": -0.31037,
				"method": "rhf"
			},
			{
				"type": "occ",
				"energy": -0.28957,
				"method": "rhf"
			},
			{
				"type": "occ",
				"energy": -0.26304,
				"method": "rhf"
			},
			{
				"type": "unocc",
				"energy": 0.01385,
				"method": "rhf"
			},
			{
				"type": "unocc",
				"energy": 0.06023,
				"method": "rhf"
			},
			{
				"type": "unocc",
				"energy": 0.09132,
				"method": "rhf"
			},
			{
				"type": "unocc",
				"energy": 0.10542,
				"method": "rhf"
			},
			{
				"type": "unocc",
				"energy": 0.1098,
				"method": "rhf"
			}
		],
		"cosmo_sigma_profile": { 
			"-0.025": 0.0,
			"-0.024": 0.0,
			"-0.023": 0.0,
			"-0.022": 0.0,
			"-0.021": 0.0,
			"-0.02": 0.0,
			"-0.019": 0.0,
			"-0.018": 0.0,
			"-0.017": 0.0,
			"-0.016": 0.0,
			"-0.015": 0.0,
			"-0.014": 0.0,
			"-0.013": 0.0,
			"-0.012": 0.0,
			"-0.011": 0.0,
			"-0.01": 0.0,
			"-0.009": 0.0,
			"-0.008": 0.0,
			"-0.007": 0.0,
			"-0.006": 0.491431379448,
			"-0.005": 4.14915566369,
			"-0.004": 11.7075167438,
			"-0.003": 27.8640003047,
			"-0.002": 49.241454512,
			"-0.001": 51.1115433965,
			"0.0": 45.9714835916,
			"0.001": 38.195208823,
			"0.002": 17.8899662997,
			"0.003": 5.3428981013,
			"0.004": 3.40989840879,
			"0.005": 3.4974735134,
			"0.006": 2.91096169604,
			"0.007": 2.23040378743,
			"0.008": 1.71568319746,
			"0.009": 1.4006404997,
			"0.01": 1.70438199875,
			"0.011": 1.99051872521,
			"0.012": 4.40318599947,
			"0.013": 1.98588195709,
			"0.014": 0.204983586953,
			"0.015": 0.0,
			"0.016": 0.0,
			"0.017": 0.0,
			"0.018": 0.0,
			"0.019": 0.0,
			"0.02": 0.0,
			"0.021": 0.0,
			"0.022": 0.0,
			"0.023": 0.0,
			"0.024": 0.0,
			"0.025": 0.0
		}
	}
}
