{
	 "smiles": "NC(=NO)C1=CC2=C(OCO2)C=C1", 
	 "Tm": 438.15, 
	 "num_atms": 21, 
	 "gaussian": { 
		 "optdone": 1, 
		 "sigma_profile": "yes", 
		 "theory": "DFT", 
		 "functional": "B3LYP", 
		 "basiset": "6-31G**", 
		 "properties": { 
			 "R2extent": 2699.0009, 
			 "electric_dipole_moment_norm": 1.31315668905, 
			 "electric_quadrupole_moment_norm": 9.60340697773, 
			 "total_energy": -644.761424447, 
			 "HOMO_LUMO_gap": 0.17752, 
			 "cosmo_polarized_energy": -13.16, 
			 "cosmo_cavitation_energy": 25.34, 
			 "cosmo_dispersion_energy": -19.43, 
			 "cosmo_repulsion_energy": 1.56, 
			 "cosmo_total_nonelectrostatic_energy": 7.47, 
			 "SMD_solvation_energy": 5.12 
		},
		"coords": [
			{
				"x": 2.4886764762,
				"y": 1.5015991178,
				"z": -0.1728825421,
				"element": "N" 
			},
			{
				"x": 1.7965479181,
				"y": 0.6805731445,
				"z": 0.7315184987,
				"element": "C" 
			},
			{
				"x": 2.3077900355,
				"y": 0.6150203348,
				"z": 1.9159561772,
				"element": "N" 
			},
			{
				"x": 1.4816495728,
				"y": -0.0567894573,
				"z": 2.8493289242,
				"element": "O" 
			},
			{
				"x": 0.5568744933,
				"y": 0.0573778448,
				"z": 0.2046274716,
				"element": "C" 
			},
			{
				"x": -0.1484141323,
				"y": 0.7327706665,
				"z": -0.8239489698,
				"element": "C" 
			},
			{
				"x": -1.2734770951,
				"y": 0.1188645904,
				"z": -1.3279673297,
				"element": "C" 
			},
			{
				"x": -1.7102236063,
				"y": -1.1212354097,
				"z": -0.8677560742,
				"element": "C" 
			},
			{
				"x": -2.8356522838,
				"y": -1.5013046699,
				"z": -1.5538593544,
				"element": "O" 
			},
			{
				"x": -3.1898514292,
				"y": -0.378191027,
				"z": -2.3723813588,
				"element": "C" 
			},
			{
				"x": -2.112549484,
				"y": 0.562146467,
				"z": -2.3251276365,
				"element": "O" 
			},
			{
				"x": -1.0364490321,
				"y": -1.8037215739,
				"z": 0.1271547536,
				"element": "C" 
			},
			{
				"x": 0.1069019851,
				"y": -1.1908878146,
				"z": 0.6626186334,
				"element": "C" 
			},
			{
				"x": 3.3504785457,
				"y": 1.8495627806,
				"z": 0.2331120608,
				"element": "H" 
			},
			{
				"x": 2.6479900503,
				"y": 1.0666444263,
				"z": -1.0750483179,
				"element": "H" 
			},
			{
				"x": 1.9985652574,
				"y": 0.040047559,
				"z": 3.6589307572,
				"element": "H" 
			},
			{
				"x": 0.1803035374,
				"y": 1.7010652525,
				"z": -1.1804288021,
				"element": "H" 
			},
			{
				"x": -3.3385295045,
				"y": -0.713064767,
				"z": -3.4038165799,
				"element": "H" 
			},
			{
				"x": -4.1043056519,
				"y": 0.0868568885,
				"z": -1.9772771531,
				"element": "H" 
			},
			{
				"x": -1.3788714973,
				"y": -2.7703957609,
				"z": 0.478450149,
				"element": "H" 
			},
			{
				"x": 0.6526458447,
				"y": -1.6865385925,
				"z": 1.4535966929,
				"element": "H" 
			}
		],
		 "valence_orbital": [ 
			{
				"type": "occ",
				"energy": -0.30352,
				"method": "rhf"
			},
			{
				"type": "occ",
				"energy": -0.26249,
				"method": "rhf"
			},
			{
				"type": "occ",
				"energy": -0.24897,
				"method": "rhf"
			},
			{
				"type": "occ",
				"energy": -0.21908,
				"method": "rhf"
			},
			{
				"type": "occ",
				"energy": -0.1989,
				"method": "rhf"
			},
			{
				"type": "unocc",
				"energy": -0.02138,
				"method": "rhf"
			},
			{
				"type": "unocc",
				"energy": 0.00291,
				"method": "rhf"
			},
			{
				"type": "unocc",
				"energy": 0.06494,
				"method": "rhf"
			},
			{
				"type": "unocc",
				"energy": 0.08167,
				"method": "rhf"
			},
			{
				"type": "unocc",
				"energy": 0.09844,
				"method": "rhf"
			}
		],
		"cosmo_sigma_profile": { 
			"-0.025": 0.0,
			"-0.024": 0.0,
			"-0.023": 0.0,
			"-0.022": 0.0,
			"-0.021": 0.0,
			"-0.02": 0.0,
			"-0.019": 0.0,
			"-0.018": 0.0,
			"-0.017": 0.260652014462,
			"-0.016": 0.820791877809,
			"-0.015": 0.791176668373,
			"-0.014": 1.51440986947,
			"-0.013": 0.816582994019,
			"-0.012": 2.22812269475,
			"-0.011": 2.42101581556,
			"-0.01": 2.86618716787,
			"-0.009": 4.2385413595,
			"-0.008": 6.06767182975,
			"-0.007": 11.3686556821,
			"-0.006": 10.5404365076,
			"-0.005": 9.89906482456,
			"-0.004": 8.81585488346,
			"-0.003": 9.68801400451,
			"-0.002": 8.5569986316,
			"-0.001": 9.59803451556,
			"0.0": 9.73508553183,
			"0.001": 11.625463166,
			"0.002": 16.2299962722,
			"0.003": 14.1845190829,
			"0.004": 11.1893298025,
			"0.005": 9.24440629791,
			"0.006": 6.61353478991,
			"0.007": 7.73223607189,
			"0.008": 7.58599575481,
			"0.009": 6.01762425964,
			"0.01": 4.3127459349,
			"0.011": 2.99653629064,
			"0.012": 2.26082508495,
			"0.013": 1.31658034851,
			"0.014": 0.303502164489,
			"0.015": 0.0,
			"0.016": 0.0,
			"0.017": 0.0,
			"0.018": 0.0,
			"0.019": 0.0,
			"0.02": 0.0,
			"0.021": 0.0,
			"0.022": 0.0,
			"0.023": 0.0,
			"0.024": 0.0,
			"0.025": 0.0
		}
	}
}
