{
	 "smiles": "COC1=CC2=C(C=C1)N1C3C4C(CC1=O)OCC=C1CN5CCC23C5CC41", 
	 "Tm": 495.15, 
	 "num_atms": 51, 
	 "gaussian": { 
		 "optdone": 1, 
		 "sigma_profile": "yes", 
		 "theory": "DFT", 
		 "functional": "B3LYP", 
		 "basiset": "6-31G**", 
		 "properties": { 
			 "R2extent": 9084.742, 
			 "electric_dipole_moment_norm": 5.09857774875, 
			 "electric_quadrupole_moment_norm": 15.7135435046, 
			 "total_energy": -1187.94378839, 
			 "HOMO_LUMO_gap": 0.18696, 
			 "cosmo_polarized_energy": -16.25, 
			 "cosmo_cavitation_energy": 45.79, 
			 "cosmo_dispersion_energy": -33.26, 
			 "cosmo_repulsion_energy": 2.41, 
			 "cosmo_total_nonelectrostatic_energy": 14.93, 
			 "SMD_solvation_energy": 4.0 
		},
		"coords": [
			{
				"x": -2.2103609851,
				"y": -1.2760924755,
				"z": 4.7310910705,
				"element": "C" 
			},
			{
				"x": -1.3766719459,
				"y": -0.1325528016,
				"z": 4.6815754437,
				"element": "O" 
			},
			{
				"x": -0.6075097916,
				"y": 0.0597494178,
				"z": 3.5653728502,
				"element": "C" 
			},
			{
				"x": -0.5896399313,
				"y": -0.8004162586,
				"z": 2.4582494041,
				"element": "C" 
			},
			{
				"x": 0.2345871202,
				"y": -0.4854437633,
				"z": 1.3778116687,
				"element": "C" 
			},
			{
				"x": 1.0360037857,
				"y": 0.6587100584,
				"z": 1.4023552284,
				"element": "C" 
			},
			{
				"x": 1.0357884557,
				"y": 1.5163633757,
				"z": 2.506942967,
				"element": "C" 
			},
			{
				"x": 0.2045008197,
				"y": 1.2047157678,
				"z": 3.5793940039,
				"element": "C" 
			},
			{
				"x": 1.7619297517,
				"y": 0.7731812574,
				"z": 0.1910380248,
				"element": "N" 
			},
			{
				"x": 1.3149583155,
				"y": -0.2793777364,
				"z": -0.7555282633,
				"element": "C" 
			},
			{
				"x": 0.5764712439,
				"y": 0.4492510975,
				"z": -1.8941039819,
				"element": "C" 
			},
			{
				"x": 1.6335857899,
				"y": 1.2042850603,
				"z": -2.727170358,
				"element": "C" 
			},
			{
				"x": 2.6505828255,
				"y": 1.9112833105,
				"z": -1.787599654,
				"element": "C" 
			},
			{
				"x": 2.3090804523,
				"y": 1.9416935018,
				"z": -0.2976724253,
				"element": "C" 
			},
			{
				"x": 2.534838954,
				"y": 2.922863953,
				"z": 0.4012193838,
				"element": "O" 
			},
			{
				"x": 2.4294989879,
				"y": 0.3788008805,
				"z": -3.5736947656,
				"element": "O" 
			},
			{
				"x": 1.7427944981,
				"y": -0.2501452423,
				"z": -4.6581021565,
				"element": "C" 
			},
			{
				"x": 1.1112644419,
				"y": -1.5630953917,
				"z": -4.2615146049,
				"element": "C" 
			},
			{
				"x": 0.151240522,
				"y": -1.6635492866,
				"z": -3.3344879713,
				"element": "C" 
			},
			{
				"x": -0.3639612411,
				"y": -2.991151866,
				"z": -2.8175632334,
				"element": "C" 
			},
			{
				"x": -0.2378223505,
				"y": -3.0807425998,
				"z": -1.3538973279,
				"element": "N" 
			},
			{
				"x": 1.1303015578,
				"y": -3.3858271762,
				"z": -0.8953682511,
				"element": "C" 
			},
			{
				"x": 1.3046596853,
				"y": -2.5764547402,
				"z": 0.391786275,
				"element": "C" 
			},
			{
				"x": 0.490702644,
				"y": -1.2855333057,
				"z": 0.117492438,
				"element": "C" 
			},
			{
				"x": -0.74605756,
				"y": -1.888331565,
				"z": -0.6172739111,
				"element": "C" 
			},
			{
				"x": -1.4517503853,
				"y": -0.9111387936,
				"z": -1.5608226399,
				"element": "C" 
			},
			{
				"x": -0.4443689603,
				"y": -0.443951388,
				"z": -2.6294359154,
				"element": "C" 
			},
			{
				"x": -2.7273430077,
				"y": -1.2332261859,
				"z": 5.6912428045,
				"element": "H" 
			},
			{
				"x": -1.6297276147,
				"y": -2.2069619536,
				"z": 4.6775615241,
				"element": "H" 
			},
			{
				"x": -2.9540803784,
				"y": -1.2743172215,
				"z": 3.9227495281,
				"element": "H" 
			},
			{
				"x": -1.1992253236,
				"y": -1.6963900145,
				"z": 2.4348255401,
				"element": "H" 
			},
			{
				"x": 1.6580369254,
				"y": 2.4004648082,
				"z": 2.509466388,
				"element": "H" 
			},
			{
				"x": 0.1682570321,
				"y": 1.8457632508,
				"z": 4.4541014148,
				"element": "H" 
			},
			{
				"x": 2.1882223892,
				"y": -0.7831867277,
				"z": -1.1830274585,
				"element": "H" 
			},
			{
				"x": -0.024117227,
				"y": 1.2383487862,
				"z": -1.4184066398,
				"element": "H" 
			},
			{
				"x": 1.1146943595,
				"y": 1.951117709,
				"z": -3.3499747933,
				"element": "H" 
			},
			{
				"x": 3.5991055405,
				"y": 1.3738197433,
				"z": -1.9044840489,
				"element": "H" 
			},
			{
				"x": 2.830956514,
				"y": 2.9450262751,
				"z": -2.0854730006,
				"element": "H" 
			},
			{
				"x": 0.9930721296,
				"y": 0.4432936827,
				"z": -5.0749819309,
				"element": "H" 
			},
			{
				"x": 2.4998385382,
				"y": -0.4113938379,
				"z": -5.4309723596,
				"element": "H" 
			},
			{
				"x": 1.5045135302,
				"y": -2.4672635298,
				"z": -4.723592747,
				"element": "H" 
			},
			{
				"x": 0.1865953252,
				"y": -3.8245609481,
				"z": -3.2634591838,
				"element": "H" 
			},
			{
				"x": -1.4169435792,
				"y": -3.1347866128,
				"z": -3.0938185938,
				"element": "H" 
			},
			{
				"x": 1.2578196027,
				"y": -4.4628827026,
				"z": -0.7303638558,
				"element": "H" 
			},
			{
				"x": 1.8813805896,
				"y": -3.0792977143,
				"z": -1.6415055871,
				"element": "H" 
			},
			{
				"x": 2.3512834108,
				"y": -2.3714246626,
				"z": 0.6347896638,
				"element": "H" 
			},
			{
				"x": 0.8614464632,
				"y": -3.1026802001,
				"z": 1.2441240323,
				"element": "H" 
			},
			{
				"x": -1.4586611506,
				"y": -2.2224515059,
				"z": 0.1505940098,
				"element": "H" 
			},
			{
				"x": -2.3224605347,
				"y": -1.3935127754,
				"z": -2.0164203666,
				"element": "H" 
			},
			{
				"x": -1.8302488742,
				"y": -0.0568077029,
				"z": -0.989476116,
				"element": "H" 
			},
			{
				"x": -0.9603613603,
				"y": 0.1783167499,
				"z": -3.3754915224,
				"element": "H" 
			}
		],
		 "valence_orbital": [ 
			{
				"type": "occ",
				"energy": -0.24664,
				"method": "rhf"
			},
			{
				"type": "occ",
				"energy": -0.2454,
				"method": "rhf"
			},
			{
				"type": "occ",
				"energy": -0.24092,
				"method": "rhf"
			},
			{
				"type": "occ",
				"energy": -0.20773,
				"method": "rhf"
			},
			{
				"type": "occ",
				"energy": -0.19046,
				"method": "rhf"
			},
			{
				"type": "unocc",
				"energy": -0.0035,
				"method": "rhf"
			},
			{
				"type": "unocc",
				"energy": -0.00229,
				"method": "rhf"
			},
			{
				"type": "unocc",
				"energy": 0.00326,
				"method": "rhf"
			},
			{
				"type": "unocc",
				"energy": 0.04711,
				"method": "rhf"
			},
			{
				"type": "unocc",
				"energy": 0.07424,
				"method": "rhf"
			}
		],
		"cosmo_sigma_profile": { 
			"-0.025": 0.0,
			"-0.024": 0.0,
			"-0.023": 0.0,
			"-0.022": 0.0,
			"-0.021": 0.0,
			"-0.02": 0.0,
			"-0.019": 0.0,
			"-0.018": 0.0,
			"-0.017": 0.0,
			"-0.016": 0.0,
			"-0.015": 0.0,
			"-0.014": 0.0,
			"-0.013": 0.0,
			"-0.012": 0.0,
			"-0.011": 0.0,
			"-0.01": 0.0,
			"-0.009": 0.0,
			"-0.008": 0.0,
			"-0.007": 0.122441519626,
			"-0.006": 8.39277545093,
			"-0.005": 32.8252725772,
			"-0.004": 53.1189825585,
			"-0.003": 42.6066961637,
			"-0.002": 39.1244456392,
			"-0.001": 34.2872092176,
			"0.0": 23.0869376088,
			"0.001": 15.0760197051,
			"0.002": 13.5607684113,
			"0.003": 15.4574197184,
			"0.004": 19.6074542736,
			"0.005": 16.9743638543,
			"0.006": 7.63545020585,
			"0.007": 5.25121299618,
			"0.008": 4.72861647457,
			"0.009": 5.81109249081,
			"0.01": 4.58276516871,
			"0.011": 4.07084463726,
			"0.012": 4.15337305029,
			"0.013": 3.64705063474,
			"0.014": 2.52231490138,
			"0.015": 0.807997532903,
			"0.016": 0.371640570573,
			"0.017": 0.135362421363,
			"0.018": 0.0,
			"0.019": 0.0,
			"0.02": 0.0,
			"0.021": 0.0,
			"0.022": 0.0,
			"0.023": 0.0,
			"0.024": 0.0,
			"0.025": 0.0
		}
	}
}
