{
	 "smiles": "CC1CCN(CC1)S(=O)(=O)N1CCNCC1", 
	 "Tm": 335.15, 
	 "num_atms": 37, 
	 "gaussian": { 
		 "optdone": 1, 
		 "sigma_profile": "yes", 
		 "theory": "DFT", 
		 "functional": "B3LYP", 
		 "basiset": "6-31G**", 
		 "properties": { 
			 "R2extent": 4996.2913, 
			 "electric_dipole_moment_norm": 4.56493718467, 
			 "electric_quadrupole_moment_norm": 16.9376558062, 
			 "total_energy": -1106.53559713, 
			 "HOMO_LUMO_gap": 0.29, 
			 "cosmo_polarized_energy": -13.43, 
			 "cosmo_cavitation_energy": 36.67, 
			 "cosmo_dispersion_energy": -26.56, 
			 "cosmo_repulsion_energy": 2.02, 
			 "cosmo_total_nonelectrostatic_energy": 12.13, 
			 "SMD_solvation_energy": 1.55 
		},
		"coords": [
			{
				"x": -2.6630494114,
				"y": -3.3783685057,
				"z": 1.1848716034,
				"element": "C" 
			},
			{
				"x": -1.5307735514,
				"y": -2.9544095171,
				"z": 0.2411113692,
				"element": "C" 
			},
			{
				"x": -0.1945615412,
				"y": -2.7098086821,
				"z": 0.9978169438,
				"element": "C" 
			},
			{
				"x": 0.037241593,
				"y": -1.2218489976,
				"z": 1.2718147064,
				"element": "C" 
			},
			{
				"x": 0.1086999095,
				"y": -0.4408991087,
				"z": 0.0101637771,
				"element": "N" 
			},
			{
				"x": -0.7082759752,
				"y": -0.9562695059,
				"z": -1.1177705708,
				"element": "C" 
			},
			{
				"x": -1.9271011905,
				"y": -1.6929440938,
				"z": -0.5627523895,
				"element": "C" 
			},
			{
				"x": 1.6184738469,
				"y": 0.1478672667,
				"z": -0.4388788543,
				"element": "S" 
			},
			{
				"x": 2.3560625699,
				"y": 0.4139461309,
				"z": 0.801783472,
				"element": "O" 
			},
			{
				"x": 2.2396382275,
				"y": -0.6679885298,
				"z": -1.4891182898,
				"element": "O" 
			},
			{
				"x": 1.1265928951,
				"y": 1.5774026327,
				"z": -1.1995229257,
				"element": "N" 
			},
			{
				"x": 2.0592476452,
				"y": 2.0928845777,
				"z": -2.2251805579,
				"element": "C" 
			},
			{
				"x": 1.3431424551,
				"y": 3.1896405417,
				"z": -3.0121836491,
				"element": "C" 
			},
			{
				"x": 0.9108406795,
				"y": 4.2413128308,
				"z": -2.0927945205,
				"element": "N" 
			},
			{
				"x": -0.030813315,
				"y": 3.7228650835,
				"z": -1.1026148562,
				"element": "C" 
			},
			{
				"x": 0.65344869,
				"y": 2.6309985525,
				"z": -0.2796592862,
				"element": "C" 
			},
			{
				"x": -3.6065864468,
				"y": -3.5090972453,
				"z": 0.6430794978,
				"element": "H" 
			},
			{
				"x": -2.8311190121,
				"y": -2.6225854113,
				"z": 1.9621053617,
				"element": "H" 
			},
			{
				"x": -2.4297781053,
				"y": -4.3243048129,
				"z": 1.6850922618,
				"element": "H" 
			},
			{
				"x": -1.3648867443,
				"y": -3.7690817455,
				"z": -0.4757262287,
				"element": "H" 
			},
			{
				"x": -0.1871323629,
				"y": -3.2578120592,
				"z": 1.9474405994,
				"element": "H" 
			},
			{
				"x": 0.6503678018,
				"y": -3.0885556937,
				"z": 0.4117146867,
				"element": "H" 
			},
			{
				"x": 0.9583980013,
				"y": -1.0524942982,
				"z": 1.8293147955,
				"element": "H" 
			},
			{
				"x": -0.7821990562,
				"y": -0.8114312678,
				"z": 1.8754838549,
				"element": "H" 
			},
			{
				"x": -1.00543433,
				"y": -0.1051379607,
				"z": -1.7365153347,
				"element": "H" 
			},
			{
				"x": -0.1149700477,
				"y": -1.6328672575,
				"z": -1.7474732461,
				"element": "H" 
			},
			{
				"x": -2.5868710925,
				"y": -1.9650039896,
				"z": -1.3939057984,
				"element": "H" 
			},
			{
				"x": -2.4994135304,
				"y": -1.0059308768,
				"z": 0.0741885465,
				"element": "H" 
			},
			{
				"x": 2.9658293465,
				"y": 2.5091633333,
				"z": -1.7621035995,
				"element": "H" 
			},
			{
				"x": 2.3413445345,
				"y": 1.2672895692,
				"z": -2.878789133,
				"element": "H" 
			},
			{
				"x": 0.5056642643,
				"y": 2.7296576959,
				"z": -3.5691687923,
				"element": "H" 
			},
			{
				"x": 2.0403565476,
				"y": 3.6161544845,
				"z": -3.7413189687,
				"element": "H" 
			},
			{
				"x": 0.4909176093,
				"y": 5.0087609683,
				"z": -2.6088167574,
				"element": "H" 
			},
			{
				"x": -0.9464485532,
				"y": 3.2985147275,
				"z": -1.5556280983,
				"element": "H" 
			},
			{
				"x": -0.3314836376,
				"y": 4.5364949934,
				"z": -0.4336694107,
				"element": "H" 
			},
			{
				"x": -0.0560662552,
				"y": 2.1827111939,
				"z": 0.4193955109,
				"element": "H" 
			},
			{
				"x": 1.4902975417,
				"y": 3.0596749766,
				"z": 0.2881142806,
				"element": "H" 
			}
		],
		 "valence_orbital": [ 
			{
				"type": "occ",
				"energy": -0.30332,
				"method": "rhf"
			},
			{
				"type": "occ",
				"energy": -0.29009,
				"method": "rhf"
			},
			{
				"type": "occ",
				"energy": -0.25129,
				"method": "rhf"
			},
			{
				"type": "occ",
				"energy": -0.23925,
				"method": "rhf"
			},
			{
				"type": "occ",
				"energy": -0.2303,
				"method": "rhf"
			},
			{
				"type": "unocc",
				"energy": 0.0597,
				"method": "rhf"
			},
			{
				"type": "unocc",
				"energy": 0.07115,
				"method": "rhf"
			},
			{
				"type": "unocc",
				"energy": 0.08534,
				"method": "rhf"
			},
			{
				"type": "unocc",
				"energy": 0.0912,
				"method": "rhf"
			},
			{
				"type": "unocc",
				"energy": 0.10056,
				"method": "rhf"
			}
		],
		"cosmo_sigma_profile": { 
			"-0.025": 0.0,
			"-0.024": 0.0,
			"-0.023": 0.0,
			"-0.022": 0.0,
			"-0.021": 0.0,
			"-0.02": 0.0,
			"-0.019": 0.0,
			"-0.018": 0.0,
			"-0.017": 0.0,
			"-0.016": 0.0,
			"-0.015": 0.0,
			"-0.014": 0.0,
			"-0.013": 0.0,
			"-0.012": 0.0,
			"-0.011": 0.409698645841,
			"-0.01": 1.38352692896,
			"-0.009": 1.67193840053,
			"-0.008": 1.02988177227,
			"-0.007": 1.04925314374,
			"-0.006": 2.13453668028,
			"-0.005": 6.79775661431,
			"-0.004": 26.0941925777,
			"-0.003": 47.0432342807,
			"-0.002": 55.1430871371,
			"-0.001": 34.3236287119,
			"0.0": 22.5143142319,
			"0.001": 16.7158533536,
			"0.002": 9.95386937274,
			"0.003": 7.38071541865,
			"0.004": 7.08021441344,
			"0.005": 3.95117409237,
			"0.006": 3.90841500635,
			"0.007": 3.06139678378,
			"0.008": 3.7173623934,
			"0.009": 4.1957615648,
			"0.01": 6.65563206043,
			"0.011": 8.3890150808,
			"0.012": 5.89526610247,
			"0.013": 0.572181427931,
			"0.014": 0.751407718335,
			"0.015": 0.434963596663,
			"0.016": 0.508976558691,
			"0.017": 0.307338455919,
			"0.018": 0.102948250309,
			"0.019": 0.0,
			"0.02": 0.0,
			"0.021": 0.0,
			"0.022": 0.0,
			"0.023": 0.0,
			"0.024": 0.0,
			"0.025": 0.0
		}
	}
}
