{
	 "smiles": "IC1=CC=C(C=C1)C#N", 
	 "Tm": 399.15, 
	 "num_atms": 13, 
	 "gaussian": { 
		 "optdone": 1, 
		 "sigma_profile": "no", 
		 "theory": "DFT", 
		 "functional": "B3LYP", 
		 "basiset": "6-31G**", 
		 "properties": { 
			 "R2extent": 2153.9613, 
			 "electric_dipole_moment_norm": 3.05038571987, 
			 "electric_quadrupole_moment_norm": 11.2244717007, 
			 "total_energy": -335.273279283, 
			 "HOMO_LUMO_gap": 0.19157, 
			 "cosmo_polarized_energy": -100273.88, 
			 "cosmo_cavitation_energy": 21.86, 
			 "cosmo_dispersion_energy": -17.03, 
			 "cosmo_repulsion_energy": 1.36, 
			 "cosmo_total_nonelectrostatic_energy": 6.19, 
			 "SMD_solvation_energy": 4.33 
		},
		"coords": [
			{
				"x": 5.0641778841,
				"y": -0.3233241984,
				"z": -0.7287209776,
				"element": "I" 
			},
			{
				"x": 2.9874242833,
				"y": -0.2502341417,
				"z": -1.1233129247,
				"element": "C" 
			},
			{
				"x": 2.1137942939,
				"y": -1.0311663612,
				"z": -0.3612963487,
				"element": "C" 
			},
			{
				"x": 0.7469158704,
				"y": -0.9821212847,
				"z": -0.6221172231,
				"element": "C" 
			},
			{
				"x": 0.2521755254,
				"y": -0.1540508478,
				"z": -1.6429922465,
				"element": "C" 
			},
			{
				"x": 1.1414013362,
				"y": 0.6253667785,
				"z": -2.4009076847,
				"element": "C" 
			},
			{
				"x": 2.508763551,
				"y": 0.5782755407,
				"z": -2.142239897,
				"element": "C" 
			},
			{
				"x": -1.1555686021,
				"y": -0.1045749832,
				"z": -1.9104632455,
				"element": "C" 
			},
			{
				"x": -2.2976419316,
				"y": -0.0644709019,
				"z": -2.1274217625,
				"element": "N" 
			},
			{
				"x": 2.4911177506,
				"y": -1.6716162466,
				"z": 0.4274839455,
				"element": "H" 
			},
			{
				"x": 0.0601768649,
				"y": -1.5841641972,
				"z": -0.0366383123,
				"element": "H" 
			},
			{
				"x": 0.7593747004,
				"y": 1.2649969022,
				"z": -3.1894374556,
				"element": "H" 
			},
			{
				"x": 3.1912884735,
				"y": 1.1814839413,
				"z": -2.7296358673,
				"element": "H" 
			}
		],
		 "valence_orbital": [ 
			{
				"type": "occ",
				"energy": -0.33858,
				"method": "rhf"
			},
			{
				"type": "occ",
				"energy": -0.30664,
				"method": "rhf"
			},
			{
				"type": "occ",
				"energy": -0.29033,
				"method": "rhf"
			},
			{
				"type": "occ",
				"energy": -0.28459,
				"method": "rhf"
			},
			{
				"type": "occ",
				"energy": -0.25775,
				"method": "rhf"
			},
			{
				"type": "unocc",
				"energy": -0.06618,
				"method": "rhf"
			},
			{
				"type": "unocc",
				"energy": -0.05511,
				"method": "rhf"
			},
			{
				"type": "unocc",
				"energy": -0.03915,
				"method": "rhf"
			},
			{
				"type": "unocc",
				"energy": 0.02751,
				"method": "rhf"
			},
			{
				"type": "unocc",
				"energy": 0.03405,
				"method": "rhf"
			}
		],
		"cosmo_sigma_profile": { 
			"0.0": 0.0,
			"0.0": 0.0,
			"0.0": 0.0,
			"0.0": 0.0,
			"0.0": 0.0,
			"0.0": 0.0,
			"0.0": 0.0,
			"0.0": 0.0,
			"0.0": 0.0,
			"0.0": 0.0,
			"0.0": 0.0,
			"0.0": 0.0,
			"0.0": 0.0,
			"0.0": 0.0,
			"0.0": 0.0,
			"0.0": 0.0,
			"0.0": 0.0,
			"0.0": 0.0,
			"0.0": 0.0,
			"0.0": 0.0,
			"0.0": 0.0,
			"0.0": 0.0,
			"0.0": 0.0,
			"0.0": 0.0,
			"0.0": 0.0,
			"0.0": 0.0,
			"0.0": 0.0,
			"0.0": 0.0,
			"0.0": 0.0,
			"0.0": 0.0,
			"0.0": 0.0,
			"0.0": 0.0,
			"0.0": 0.0,
			"0.0": 0.0,
			"0.0": 0.0,
			"0.0": 0.0,
			"0.0": 0.0,
			"0.0": 0.0,
			"0.0": 0.0,
			"0.0": 0.0,
			"0.0": 0.0,
			"0.0": 0.0,
			"0.0": 0.0,
			"0.0": 0.0,
			"0.0": 0.0,
			"0.0": 0.0,
			"0.0": 0.0,
			"0.0": 0.0,
			"0.0": 0.0,
			"0.0": 0.0,
			"0.0": 0.0
		}
	}
}
