{
	 "smiles": "NNC(=O)NC1=CC=C(Br)C=C1", 
	 "Tm": 510.15, 
	 "num_atms": 20, 
	 "gaussian": { 
		 "optdone": 1, 
		 "sigma_profile": "yes", 
		 "theory": "DFT", 
		 "functional": "B3LYP", 
		 "basiset": "6-31G**", 
		 "properties": { 
			 "R2extent": 7120.3857, 
			 "electric_dipole_moment_norm": 6.80549371831, 
			 "electric_quadrupole_moment_norm": 8.07812018665, 
			 "total_energy": -3082.44369547, 
			 "HOMO_LUMO_gap": 0.20397, 
			 "cosmo_polarized_energy": -16.4, 
			 "cosmo_cavitation_energy": 26.84, 
			 "cosmo_dispersion_energy": -20.63, 
			 "cosmo_repulsion_energy": 1.68, 
			 "cosmo_total_nonelectrostatic_energy": 7.89, 
			 "SMD_solvation_energy": 4.87 
		},
		"coords": [
			{
				"x": -2.5820533518,
				"y": 1.1121590396,
				"z": -0.2405016443,
				"element": "N" 
			},
			{
				"x": -1.7556210734,
				"y": 0.6445591717,
				"z": -1.2661875442,
				"element": "N" 
			},
			{
				"x": -0.6278933887,
				"y": -0.1277982649,
				"z": -1.0239791613,
				"element": "C" 
			},
			{
				"x": 0.0658509565,
				"y": -0.5147395495,
				"z": -1.9566820666,
				"element": "O" 
			},
			{
				"x": -0.4181031005,
				"y": -0.3767722917,
				"z": 0.313393976,
				"element": "N" 
			},
			{
				"x": 0.6179103285,
				"y": -1.1162013992,
				"z": 0.9015981393,
				"element": "C" 
			},
			{
				"x": 0.6190887205,
				"y": -1.2299460495,
				"z": 2.3019313505,
				"element": "C" 
			},
			{
				"x": 1.6130051579,
				"y": -1.9468340853,
				"z": 2.9613611869,
				"element": "C" 
			},
			{
				"x": 2.6195964339,
				"y": -2.559018725,
				"z": 2.2178241831,
				"element": "C" 
			},
			{
				"x": 3.991224184,
				"y": -3.5471075969,
				"z": 3.1153152752,
				"element": "Br" 
			},
			{
				"x": 2.6342029337,
				"y": -2.4568952542,
				"z": 0.8289088514,
				"element": "C" 
			},
			{
				"x": 1.6396904774,
				"y": -1.7393646049,
				"z": 0.1659714909,
				"element": "C" 
			},
			{
				"x": -2.6099444564,
				"y": 2.1290444068,
				"z": -0.2322205627,
				"element": "H" 
			},
			{
				"x": -3.5280094354,
				"y": 0.7526109247,
				"z": -0.3444373325,
				"element": "H" 
			},
			{
				"x": -1.9363528724,
				"y": 0.844627836,
				"z": -2.2415332111,
				"element": "H" 
			},
			{
				"x": -1.1126366748,
				"y": 0.0372095838,
				"z": 0.923967846,
				"element": "H" 
			},
			{
				"x": -0.1665895121,
				"y": -0.7520625225,
				"z": 2.8823101231,
				"element": "H" 
			},
			{
				"x": 1.6029354152,
				"y": -2.0272708625,
				"z": 4.0423957347,
				"element": "H" 
			},
			{
				"x": 3.4212076705,
				"y": -2.9364248644,
				"z": 0.2575314198,
				"element": "H" 
			},
			{
				"x": 1.6428915877,
				"y": -1.6547748921,
				"z": -0.9118680542,
				"element": "H" 
			}
		],
		 "valence_orbital": [ 
			{
				"type": "occ",
				"energy": -0.27637,
				"method": "rhf"
			},
			{
				"type": "occ",
				"energy": -0.26451,
				"method": "rhf"
			},
			{
				"type": "occ",
				"energy": -0.26143,
				"method": "rhf"
			},
			{
				"type": "occ",
				"energy": -0.25403,
				"method": "rhf"
			},
			{
				"type": "occ",
				"energy": -0.20841,
				"method": "rhf"
			},
			{
				"type": "unocc",
				"energy": -0.00444,
				"method": "rhf"
			},
			{
				"type": "unocc",
				"energy": -0.00242,
				"method": "rhf"
			},
			{
				"type": "unocc",
				"energy": 0.01785,
				"method": "rhf"
			},
			{
				"type": "unocc",
				"energy": 0.05108,
				"method": "rhf"
			},
			{
				"type": "unocc",
				"energy": 0.07078,
				"method": "rhf"
			}
		],
		"cosmo_sigma_profile": { 
			"-0.025": 0.0,
			"-0.024": 0.0,
			"-0.023": 0.0,
			"-0.022": 0.0,
			"-0.021": 0.0,
			"-0.02": 0.0,
			"-0.019": 0.0,
			"-0.018": 0.0,
			"-0.017": 0.0,
			"-0.016": 0.0,
			"-0.015": 0.0,
			"-0.014": 0.405369376189,
			"-0.013": 1.84061032931,
			"-0.012": 4.46796570333,
			"-0.011": 5.47392009337,
			"-0.01": 5.77361927664,
			"-0.009": 6.32879857588,
			"-0.008": 4.47606669315,
			"-0.007": 6.39991295333,
			"-0.006": 7.73092452395,
			"-0.005": 7.33644031009,
			"-0.004": 7.92225966347,
			"-0.003": 8.90249226919,
			"-0.002": 9.76462790285,
			"-0.001": 9.43051615569,
			"0.0": 13.7777537602,
			"0.001": 14.3300551809,
			"0.002": 20.0604470909,
			"0.003": 23.4984525041,
			"0.004": 23.9198896522,
			"0.005": 15.5273864887,
			"0.006": 2.86916163934,
			"0.007": 1.68936690695,
			"0.008": 1.82623132003,
			"0.009": 1.19080863745,
			"0.01": 1.62225220555,
			"0.011": 1.44153405367,
			"0.012": 1.81688033619,
			"0.013": 2.91989946461,
			"0.014": 3.71718439823,
			"0.015": 0.649156792424,
			"0.016": 0.0,
			"0.017": 0.0,
			"0.018": 0.0,
			"0.019": 0.0,
			"0.02": 0.0,
			"0.021": 0.0,
			"0.022": 0.0,
			"0.023": 0.0,
			"0.024": 0.0,
			"0.025": 0.0
		}
	}
}
