{
	 "smiles": "CCOC=C", 
	 "Tm": 158.15, 
	 "num_atms": 13, 
	 "gaussian": { 
		 "optdone": 1, 
		 "sigma_profile": "yes", 
		 "theory": "DFT", 
		 "functional": "B3LYP", 
		 "basiset": "6-31G**", 
		 "properties": { 
			 "R2extent": 749.3409, 
			 "electric_dipole_moment_norm": 1.71289553097, 
			 "electric_quadrupole_moment_norm": 2.83515629728, 
			 "total_energy": -232.437212174, 
			 "HOMO_LUMO_gap": 0.25566, 
			 "cosmo_polarized_energy": -4.36, 
			 "cosmo_cavitation_energy": 16.36, 
			 "cosmo_dispersion_energy": -12.03, 
			 "cosmo_repulsion_energy": 1.08, 
			 "cosmo_total_nonelectrostatic_energy": 5.42, 
			 "SMD_solvation_energy": 4.49 
		},
		"coords": [
			{
				"x": -0.6017006346,
				"y": 0.0428123005,
				"z": 1.8751713205,
				"element": "C" 
			},
			{
				"x": 0.4098911581,
				"y": 0.9154721175,
				"z": 1.1542289907,
				"element": "C" 
			},
			{
				"x": 0.9616766498,
				"y": 0.1564566007,
				"z": 0.0770948914,
				"element": "O" 
			},
			{
				"x": 1.8286450298,
				"y": 0.8234122691,
				"z": -0.7333566275,
				"element": "C" 
			},
			{
				"x": 2.5445054091,
				"y": 0.2127608061,
				"z": -1.6778957184,
				"element": "C" 
			},
			{
				"x": -0.1219149952,
				"y": -0.858727775,
				"z": 2.2663824355,
				"element": "H" 
			},
			{
				"x": -1.4012051481,
				"y": -0.2619150287,
				"z": 1.19398486,
				"element": "H" 
			},
			{
				"x": -1.0461598867,
				"y": 0.590920392,
				"z": 2.7116524866,
				"element": "H" 
			},
			{
				"x": 1.2113227283,
				"y": 1.2292728057,
				"z": 1.8390409859,
				"element": "H" 
			},
			{
				"x": -0.0698670844,
				"y": 1.824718804,
				"z": 0.7621380765,
				"element": "H" 
			},
			{
				"x": 1.8889597624,
				"y": 1.9004191836,
				"z": -0.5701740674,
				"element": "H" 
			},
			{
				"x": 2.4799239152,
				"y": -0.8585412873,
				"z": -1.8325079373,
				"element": "H" 
			},
			{
				"x": 3.2014230962,
				"y": 0.7906388118,
				"z": -2.3158596966,
				"element": "H" 
			}
		],
		 "valence_orbital": [ 
			{
				"type": "occ",
				"energy": -0.37914,
				"method": "rhf"
			},
			{
				"type": "occ",
				"energy": -0.37328,
				"method": "rhf"
			},
			{
				"type": "occ",
				"energy": -0.33219,
				"method": "rhf"
			},
			{
				"type": "occ",
				"energy": -0.32392,
				"method": "rhf"
			},
			{
				"type": "occ",
				"energy": -0.21654,
				"method": "rhf"
			},
			{
				"type": "unocc",
				"energy": 0.03912,
				"method": "rhf"
			},
			{
				"type": "unocc",
				"energy": 0.09811,
				"method": "rhf"
			},
			{
				"type": "unocc",
				"energy": 0.11047,
				"method": "rhf"
			},
			{
				"type": "unocc",
				"energy": 0.14781,
				"method": "rhf"
			},
			{
				"type": "unocc",
				"energy": 0.14986,
				"method": "rhf"
			}
		],
		"cosmo_sigma_profile": { 
			"-0.025": 0.0,
			"-0.024": 0.0,
			"-0.023": 0.0,
			"-0.022": 0.0,
			"-0.021": 0.0,
			"-0.02": 0.0,
			"-0.019": 0.0,
			"-0.018": 0.0,
			"-0.017": 0.0,
			"-0.016": 0.0,
			"-0.015": 0.0,
			"-0.014": 0.0,
			"-0.013": 0.0,
			"-0.012": 0.0,
			"-0.011": 0.0,
			"-0.01": 0.0,
			"-0.009": 0.0,
			"-0.008": 0.0,
			"-0.007": 0.744653180425,
			"-0.006": 2.66226772947,
			"-0.005": 7.68570986134,
			"-0.004": 16.6335525526,
			"-0.003": 18.0284780159,
			"-0.002": 13.723374595,
			"-0.001": 11.2281252432,
			"0.0": 12.5602356853,
			"0.001": 8.52619144388,
			"0.002": 4.80190697779,
			"0.003": 4.22859500501,
			"0.004": 4.34346419196,
			"0.005": 4.16827879709,
			"0.006": 4.51237256896,
			"0.007": 5.51716904916,
			"0.008": 3.52226602762,
			"0.009": 2.14534088675,
			"0.01": 1.28992999666,
			"0.011": 1.75458629259,
			"0.012": 0.32140184929,
			"0.013": 0.0,
			"0.014": 0.0,
			"0.015": 0.0,
			"0.016": 0.0,
			"0.017": 0.0,
			"0.018": 0.0,
			"0.019": 0.0,
			"0.02": 0.0,
			"0.021": 0.0,
			"0.022": 0.0,
			"0.023": 0.0,
			"0.024": 0.0,
			"0.025": 0.0
		}
	}
}
