{
	 "smiles": "OC(=O)CC1=CC=CC2=CC=CC=C12", 
	 "Tm": 405.15, 
	 "num_atms": 24, 
	 "gaussian": { 
		 "optdone": 1, 
		 "sigma_profile": "yes", 
		 "theory": "DFT", 
		 "functional": "B3LYP", 
		 "basiset": "6-31G**", 
		 "properties": { 
			 "R2extent": 3394.2861, 
			 "electric_dipole_moment_norm": 1.43120126118, 
			 "electric_quadrupole_moment_norm": 8.04251462231, 
			 "total_energy": -613.779806839, 
			 "HOMO_LUMO_gap": 0.17276, 
			 "cosmo_polarized_energy": -10.7, 
			 "cosmo_cavitation_energy": 27.86, 
			 "cosmo_dispersion_energy": -20.21, 
			 "cosmo_repulsion_energy": 1.57, 
			 "cosmo_total_nonelectrostatic_energy": 9.23, 
			 "SMD_solvation_energy": 5.53 
		},
		"coords": [
			{
				"x": 2.6703571922,
				"y": -2.3929591681,
				"z": -2.1723898539,
				"element": "O" 
			},
			{
				"x": 2.886417807,
				"y": -1.4153226527,
				"z": -1.2625580403,
				"element": "C" 
			},
			{
				"x": 3.8364209066,
				"y": -1.4219385672,
				"z": -0.5099322015,
				"element": "O" 
			},
			{
				"x": 1.8071740663,
				"y": -0.3456987627,
				"z": -1.3186180682,
				"element": "C" 
			},
			{
				"x": 0.457416451,
				"y": -0.817112969,
				"z": -0.8023686609,
				"element": "C" 
			},
			{
				"x": -0.5700401308,
				"y": -1.0465442947,
				"z": -1.6956480784,
				"element": "C" 
			},
			{
				"x": -1.8497715929,
				"y": -1.4633390227,
				"z": -1.2609309879,
				"element": "C" 
			},
			{
				"x": -2.0967951861,
				"y": -1.6448267116,
				"z": 0.0786492627,
				"element": "C" 
			},
			{
				"x": -1.0730089731,
				"y": -1.423917626,
				"z": 1.0386792895,
				"element": "C" 
			},
			{
				"x": -1.3122540926,
				"y": -1.6047810313,
				"z": 2.4274286211,
				"element": "C" 
			},
			{
				"x": -0.3151293438,
				"y": -1.3942919486,
				"z": 3.3521055862,
				"element": "C" 
			},
			{
				"x": 0.9724584116,
				"y": -0.9962096226,
				"z": 2.9227164712,
				"element": "C" 
			},
			{
				"x": 1.2404605915,
				"y": -0.8103791871,
				"z": 1.5837530942,
				"element": "C" 
			},
			{
				"x": 0.2308508581,
				"y": -1.0113359264,
				"z": 0.6003223257,
				"element": "C" 
			},
			{
				"x": 3.3868684452,
				"y": -3.0386241905,
				"z": -2.0511249018,
				"element": "H" 
			},
			{
				"x": 2.1762715559,
				"y": 0.5095375591,
				"z": -0.7477808266,
				"element": "H" 
			},
			{
				"x": 1.6983415508,
				"y": -0.0369342088,
				"z": -2.3625495812,
				"element": "H" 
			},
			{
				"x": -0.3935735213,
				"y": -0.9002172672,
				"z": -2.7578686954,
				"element": "H" 
			},
			{
				"x": -2.634008739,
				"y": -1.6326145716,
				"z": -1.9929126273,
				"element": "H" 
			},
			{
				"x": -3.0784578899,
				"y": -1.9590560679,
				"z": 0.4236890805,
				"element": "H" 
			},
			{
				"x": -2.3039776043,
				"y": -1.9149698718,
				"z": 2.7469366968,
				"element": "H" 
			},
			{
				"x": -0.5119721183,
				"y": -1.5362241423,
				"z": 4.4108366927,
				"element": "H" 
			},
			{
				"x": 1.7589589005,
				"y": -0.8398270362,
				"z": 3.6553495383,
				"element": "H" 
			},
			{
				"x": 2.2421924554,
				"y": -0.5313127121,
				"z": 1.2763158645,
				"element": "H" 
			}
		],
		 "valence_orbital": [ 
			{
				"type": "occ",
				"energy": -0.31716,
				"method": "rhf"
			},
			{
				"type": "occ",
				"energy": -0.28649,
				"method": "rhf"
			},
			{
				"type": "occ",
				"energy": -0.27193,
				"method": "rhf"
			},
			{
				"type": "occ",
				"energy": -0.24318,
				"method": "rhf"
			},
			{
				"type": "occ",
				"energy": -0.21374,
				"method": "rhf"
			},
			{
				"type": "unocc",
				"energy": -0.04098,
				"method": "rhf"
			},
			{
				"type": "unocc",
				"energy": -0.01058,
				"method": "rhf"
			},
			{
				"type": "unocc",
				"energy": 0.00588,
				"method": "rhf"
			},
			{
				"type": "unocc",
				"energy": 0.03525,
				"method": "rhf"
			},
			{
				"type": "unocc",
				"energy": 0.07638,
				"method": "rhf"
			}
		],
		"cosmo_sigma_profile": { 
			"-0.025": 0.0,
			"-0.024": 0.0,
			"-0.023": 0.0,
			"-0.022": 0.0,
			"-0.021": 0.0,
			"-0.02": 0.0,
			"-0.019": 0.011318069173,
			"-0.018": 0.846740837941,
			"-0.017": 0.860081515539,
			"-0.016": 0.825607867196,
			"-0.015": 1.60330704702,
			"-0.014": 0.0692971832686,
			"-0.013": 0.418412013052,
			"-0.012": 0.108772278604,
			"-0.011": 1.32085050743,
			"-0.01": 0.801202808424,
			"-0.009": 0.61893386484,
			"-0.008": 0.352201566193,
			"-0.007": 3.95668617121,
			"-0.006": 15.1168120792,
			"-0.005": 17.1753635619,
			"-0.004": 18.4045013289,
			"-0.003": 18.0373390512,
			"-0.002": 12.8107827566,
			"-0.001": 12.286331149,
			"0.0": 12.0184063635,
			"0.001": 10.8110162447,
			"0.002": 13.0716282302,
			"0.003": 15.9564002639,
			"0.004": 23.3266058557,
			"0.005": 18.9687787132,
			"0.006": 5.06727250508,
			"0.007": 2.37712498864,
			"0.008": 3.05637870568,
			"0.009": 2.97439443453,
			"0.01": 2.23634047791,
			"0.011": 3.77524466491,
			"0.012": 3.14661492782,
			"0.013": 0.1053543823,
			"0.014": 0.0,
			"0.015": 0.0,
			"0.016": 0.0,
			"0.017": 0.0,
			"0.018": 0.0,
			"0.019": 0.0,
			"0.02": 0.0,
			"0.021": 0.0,
			"0.022": 0.0,
			"0.023": 0.0,
			"0.024": 0.0,
			"0.025": 0.0
		}
	}
}
