{
	 "smiles": "OC1=C(CC=C)C(O)=C(C=C1C(=O)C1=CC=CC=C1)C(=O)C1=CC=CC=C1", 
	 "Tm": 434.15, 
	 "num_atms": 45, 
	 "gaussian": { 
		 "optdone": 1, 
		 "sigma_profile": "yes", 
		 "theory": "DFT", 
		 "functional": "B3LYP", 
		 "basiset": "6-31G**", 
		 "properties": { 
			 "R2extent": 11544.139, 
			 "electric_dipole_moment_norm": 2.96856999075, 
			 "electric_quadrupole_moment_norm": 25.1976015041, 
			 "total_energy": -1188.18647919, 
			 "HOMO_LUMO_gap": 0.15751, 
			 "cosmo_polarized_energy": -15.78, 
			 "cosmo_cavitation_energy": 49.04, 
			 "cosmo_dispersion_energy": -33.86, 
			 "cosmo_repulsion_energy": 2.55, 
			 "cosmo_total_nonelectrostatic_energy": 17.73, 
			 "SMD_solvation_energy": 9.63 
		},
		"coords": [
			{
				"x": 1.4945090591,
				"y": -2.3620806,
				"z": -0.7340922346,
				"element": "O" 
			},
			{
				"x": 1.0409107863,
				"y": -1.4348739943,
				"z": 0.1393519935,
				"element": "C" 
			},
			{
				"x": 0.8819359434,
				"y": -1.7359309106,
				"z": 1.5020931381,
				"element": "C" 
			},
			{
				"x": 1.2443671879,
				"y": -3.1031985019,
				"z": 2.0586310503,
				"element": "C" 
			},
			{
				"x": 0.5360085419,
				"y": -4.2543735374,
				"z": 1.3835921231,
				"element": "C" 
			},
			{
				"x": 1.1430936871,
				"y": -5.3181901387,
				"z": 0.8465506964,
				"element": "C" 
			},
			{
				"x": 0.4646069602,
				"y": -0.7143483776,
				"z": 2.3757401764,
				"element": "C" 
			},
			{
				"x": 0.3459768902,
				"y": -1.0050066548,
				"z": 3.6741893068,
				"element": "O" 
			},
			{
				"x": 0.1943042682,
				"y": 0.6056407814,
				"z": 1.8905335768,
				"element": "C" 
			},
			{
				"x": 0.42990556,
				"y": 0.8631417707,
				"z": 0.530717559,
				"element": "C" 
			},
			{
				"x": 0.8073920227,
				"y": -0.129453008,
				"z": -0.3660488265,
				"element": "C" 
			},
			{
				"x": 1.037321979,
				"y": 0.2930453902,
				"z": -1.7895397004,
				"element": "C" 
			},
			{
				"x": 1.5554684412,
				"y": 1.3836823757,
				"z": -2.0080999899,
				"element": "O" 
			},
			{
				"x": 0.5619087553,
				"y": -0.5457344949,
				"z": -2.936119778,
				"element": "C" 
			},
			{
				"x": -0.4761981499,
				"y": -1.4795945712,
				"z": -2.8104821676,
				"element": "C" 
			},
			{
				"x": -0.9432166827,
				"y": -2.16755628,
				"z": -3.9293005079,
				"element": "C" 
			},
			{
				"x": -0.366874253,
				"y": -1.9403195581,
				"z": -5.181162425,
				"element": "C" 
			},
			{
				"x": 0.6676323518,
				"y": -1.0097708895,
				"z": -5.3149568494,
				"element": "C" 
			},
			{
				"x": 1.1197589381,
				"y": -0.3073309327,
				"z": -4.2012125368,
				"element": "C" 
			},
			{
				"x": -0.2469517077,
				"y": 1.6313742953,
				"z": 2.8422009517,
				"element": "C" 
			},
			{
				"x": -0.2129436609,
				"y": 1.4091124216,
				"z": 4.0727420867,
				"element": "O" 
			},
			{
				"x": -0.7481691928,
				"y": 2.9684447129,
				"z": 2.3983998779,
				"element": "C" 
			},
			{
				"x": -1.5906832312,
				"y": 3.1392263175,
				"z": 1.2886106627,
				"element": "C" 
			},
			{
				"x": -2.0848585325,
				"y": 4.4041608505,
				"z": 0.9694168258,
				"element": "C" 
			},
			{
				"x": -1.7347265276,
				"y": 5.5097992783,
				"z": 1.7457291394,
				"element": "C" 
			},
			{
				"x": -0.9056820155,
				"y": 5.3458517811,
				"z": 2.8592112015,
				"element": "C" 
			},
			{
				"x": -0.4283146344,
				"y": 4.0817182009,
				"z": 3.1926312957,
				"element": "C" 
			},
			{
				"x": 1.4204048292,
				"y": -3.2527893414,
				"z": -0.3489356971,
				"element": "H" 
			},
			{
				"x": 0.9904277267,
				"y": -3.1029526216,
				"z": 3.1228268323,
				"element": "H" 
			},
			{
				"x": 2.3301840033,
				"y": -3.2599934103,
				"z": 1.9952058446,
				"element": "H" 
			},
			{
				"x": -0.5514122787,
				"y": -4.185541683,
				"z": 1.3468708424,
				"element": "H" 
			},
			{
				"x": 2.2254444394,
				"y": -5.4290917981,
				"z": 0.870943519,
				"element": "H" 
			},
			{
				"x": 0.5803780989,
				"y": -6.124585025,
				"z": 0.386291889,
				"element": "H" 
			},
			{
				"x": 0.1329398536,
				"y": -0.1352757053,
				"z": 4.1286089869,
				"element": "H" 
			},
			{
				"x": 0.3294608131,
				"y": 1.8694229473,
				"z": 0.1431535808,
				"element": "H" 
			},
			{
				"x": -0.929943107,
				"y": -1.6537558103,
				"z": -1.8404429046,
				"element": "H" 
			},
			{
				"x": -1.7565234132,
				"y": -2.8801966336,
				"z": -3.825849593,
				"element": "H" 
			},
			{
				"x": -0.7258628937,
				"y": -2.4834712866,
				"z": -6.0509667946,
				"element": "H" 
			},
			{
				"x": 1.11450167,
				"y": -0.8290585401,
				"z": -6.2883734771,
				"element": "H" 
			},
			{
				"x": 1.9054117935,
				"y": 0.4359134187,
				"z": -4.2862264952,
				"element": "H" 
			},
			{
				"x": -1.8853819711,
				"y": 2.2814891514,
				"z": 0.6937604071,
				"element": "H" 
			},
			{
				"x": -2.7451988101,
				"y": 4.5239148048,
				"z": 0.1157558114,
				"element": "H" 
			},
			{
				"x": -2.1124155176,
				"y": 6.4953570582,
				"z": 1.4891612397,
				"element": "H" 
			},
			{
				"x": -0.6378685801,
				"y": 6.2031699426,
				"z": 3.4696902953,
				"element": "H" 
			},
			{
				"x": 0.1970705594,
				"y": 3.936208806,
				"z": 4.0669990673,
				"element": "H" 
			}
		],
		 "valence_orbital": [ 
			{
				"type": "occ",
				"energy": -0.25443,
				"method": "rhf"
			},
			{
				"type": "occ",
				"energy": -0.25255,
				"method": "rhf"
			},
			{
				"type": "occ",
				"energy": -0.24513,
				"method": "rhf"
			},
			{
				"type": "occ",
				"energy": -0.24078,
				"method": "rhf"
			},
			{
				"type": "occ",
				"energy": -0.22665,
				"method": "rhf"
			},
			{
				"type": "unocc",
				"energy": -0.06914,
				"method": "rhf"
			},
			{
				"type": "unocc",
				"energy": -0.05502,
				"method": "rhf"
			},
			{
				"type": "unocc",
				"energy": -0.01812,
				"method": "rhf"
			},
			{
				"type": "unocc",
				"energy": -0.01036,
				"method": "rhf"
			},
			{
				"type": "unocc",
				"energy": -0.00969,
				"method": "rhf"
			}
		],
		"cosmo_sigma_profile": { 
			"-0.025": 0.0,
			"-0.024": 0.0,
			"-0.023": 0.0,
			"-0.022": 0.0,
			"-0.021": 0.0,
			"-0.02": 0.0,
			"-0.019": 0.0,
			"-0.018": 0.0,
			"-0.017": 0.0,
			"-0.016": 0.0,
			"-0.015": 0.0,
			"-0.014": 0.0,
			"-0.013": 0.0,
			"-0.012": 0.0,
			"-0.011": 0.0,
			"-0.01": 0.0311050304843,
			"-0.009": 0.444773341979,
			"-0.008": 1.44863212681,
			"-0.007": 4.42432223499,
			"-0.006": 24.645209344,
			"-0.005": 32.1332337602,
			"-0.004": 36.5721550144,
			"-0.003": 35.1775661145,
			"-0.002": 33.1177093608,
			"-0.001": 29.8518809933,
			"0.0": 31.6715932934,
			"0.001": 29.4333655783,
			"0.002": 24.6604803497,
			"0.003": 25.7297073793,
			"0.004": 29.5115472168,
			"0.005": 13.3572886527,
			"0.006": 7.56530829406,
			"0.007": 6.90144452176,
			"0.008": 6.6399981269,
			"0.009": 6.55957013954,
			"0.01": 3.86748227252,
			"0.011": 4.03586041324,
			"0.012": 4.87588578457,
			"0.013": 1.05293346276,
			"0.014": 0.0,
			"0.015": 0.0,
			"0.016": 0.0,
			"0.017": 0.0,
			"0.018": 0.0,
			"0.019": 0.0,
			"0.02": 0.0,
			"0.021": 0.0,
			"0.022": 0.0,
			"0.023": 0.0,
			"0.024": 0.0,
			"0.025": 0.0
		}
	}
}
