{
	 "smiles": "CN1NC(=O)N=C1S", 
	 "Tm": 491.15, 
	 "num_atms": 13, 
	 "gaussian": { 
		 "optdone": 1, 
		 "sigma_profile": "yes", 
		 "theory": "DFT", 
		 "functional": "B3LYP", 
		 "basiset": "6-31G**", 
		 "properties": { 
			 "R2extent": 1978.4013, 
			 "electric_dipole_moment_norm": 5.63439886678, 
			 "electric_quadrupole_moment_norm": 9.08878270342, 
			 "total_energy": -754.965811033, 
			 "HOMO_LUMO_gap": 0.21203, 
			 "cosmo_polarized_energy": -18.17, 
			 "cosmo_cavitation_energy": 19.05, 
			 "cosmo_dispersion_energy": -14.87, 
			 "cosmo_repulsion_energy": 1.2, 
			 "cosmo_total_nonelectrostatic_energy": 5.37, 
			 "SMD_solvation_energy": 1.73 
		},
		"coords": [
			{
				"x": -2.108896107,
				"y": -1.6249379685,
				"z": -0.5012983104,
				"element": "C" 
			},
			{
				"x": -0.678521755,
				"y": -1.758355291,
				"z": -0.2337382586,
				"element": "N" 
			},
			{
				"x": 0.1127360944,
				"y": -0.6136804235,
				"z": -0.494643887,
				"element": "N" 
			},
			{
				"x": 1.221795894,
				"y": -0.6756974744,
				"z": 0.405656851,
				"element": "C" 
			},
			{
				"x": 2.199827934,
				"y": 0.0321672533,
				"z": 0.3228630184,
				"element": "O" 
			},
			{
				"x": 0.9416445258,
				"y": -1.6820032644,
				"z": 1.3485765876,
				"element": "N" 
			},
			{
				"x": -0.1654702871,
				"y": -2.2352252276,
				"z": 0.9522338229,
				"element": "C" 
			},
			{
				"x": -0.9989845159,
				"y": -3.532341317,
				"z": 1.8136657342,
				"element": "S" 
			},
			{
				"x": -2.6028006019,
				"y": -2.5650377118,
				"z": -0.2490236918,
				"element": "H" 
			},
			{
				"x": -2.5529731993,
				"y": -0.8048160797,
				"z": 0.0744115587,
				"element": "H" 
			},
			{
				"x": -2.2568371923,
				"y": -1.440725787,
				"z": -1.5675881052,
				"element": "H" 
			},
			{
				"x": 0.361318211,
				"y": -0.5079177338,
				"z": -1.4737557823,
				"element": "H" 
			},
			{
				"x": -0.1030390005,
				"y": -3.5266289746,
				"z": 2.8176404624,
				"element": "H" 
			}
		],
		 "valence_orbital": [ 
			{
				"type": "occ",
				"energy": -0.33933,
				"method": "rhf"
			},
			{
				"type": "occ",
				"energy": -0.30569,
				"method": "rhf"
			},
			{
				"type": "occ",
				"energy": -0.2745,
				"method": "rhf"
			},
			{
				"type": "occ",
				"energy": -0.25988,
				"method": "rhf"
			},
			{
				"type": "occ",
				"energy": -0.24044,
				"method": "rhf"
			},
			{
				"type": "unocc",
				"energy": -0.02841,
				"method": "rhf"
			},
			{
				"type": "unocc",
				"energy": -0.01005,
				"method": "rhf"
			},
			{
				"type": "unocc",
				"energy": 0.04358,
				"method": "rhf"
			},
			{
				"type": "unocc",
				"energy": 0.05732,
				"method": "rhf"
			},
			{
				"type": "unocc",
				"energy": 0.08765,
				"method": "rhf"
			}
		],
		"cosmo_sigma_profile": { 
			"-0.025": 0.0,
			"-0.024": 0.0,
			"-0.023": 0.0,
			"-0.022": 0.0,
			"-0.021": 0.0,
			"-0.02": 0.0,
			"-0.019": 0.0,
			"-0.018": 0.0,
			"-0.017": 0.0216067416449,
			"-0.016": 1.03223476119,
			"-0.015": 1.52124517327,
			"-0.014": 0.979476138783,
			"-0.013": 1.72577162764,
			"-0.012": 2.98293255883,
			"-0.011": 2.58035159498,
			"-0.01": 2.29355896167,
			"-0.009": 2.60449354092,
			"-0.008": 3.68997841006,
			"-0.007": 7.12115415731,
			"-0.006": 10.4713196781,
			"-0.005": 9.02805874207,
			"-0.004": 11.2887697127,
			"-0.003": 9.62913383923,
			"-0.002": 6.18337938669,
			"-0.001": 7.61684462905,
			"0.0": 8.33457421574,
			"0.001": 8.07430075747,
			"0.002": 6.69235154369,
			"0.003": 5.55305166477,
			"0.004": 5.21467872764,
			"0.005": 5.3466795143,
			"0.006": 3.05001797769,
			"0.007": 2.38982720651,
			"0.008": 2.44515028696,
			"0.009": 2.64486497127,
			"0.01": 2.49293125605,
			"0.011": 2.66493345956,
			"0.012": 4.76687635191,
			"0.013": 8.36029956418,
			"0.014": 4.32970075555,
			"0.015": 1.09613220963,
			"0.016": 0.105052996925,
			"0.017": 0.0,
			"0.018": 0.0,
			"0.019": 0.0,
			"0.02": 0.0,
			"0.021": 0.0,
			"0.022": 0.0,
			"0.023": 0.0,
			"0.024": 0.0,
			"0.025": 0.0
		}
	}
}
