{
	 "smiles": "CSC1=CC=C(C=C1)C(O)=O", 
	 "Tm": 468.15, 
	 "num_atms": 19, 
	 "gaussian": { 
		 "optdone": 1, 
		 "sigma_profile": "yes", 
		 "theory": "DFT", 
		 "functional": "B3LYP", 
		 "basiset": "6-31G**", 
		 "properties": { 
			 "R2extent": 3191.6215, 
			 "electric_dipole_moment_norm": 5.82555490061, 
			 "electric_quadrupole_moment_norm": 19.0983631079, 
			 "total_energy": -858.316767282, 
			 "HOMO_LUMO_gap": 0.17722, 
			 "cosmo_polarized_energy": -15.94, 
			 "cosmo_cavitation_energy": 24.83, 
			 "cosmo_dispersion_energy": -18.9, 
			 "cosmo_repulsion_energy": 1.46, 
			 "cosmo_total_nonelectrostatic_energy": 7.39, 
			 "SMD_solvation_energy": 5.41 
		},
		"coords": [
			{
				"x": -1.4755515109,
				"y": 2.0440166143,
				"z": -0.7808087014,
				"element": "C" 
			},
			{
				"x": -1.1406216146,
				"y": 0.4683242963,
				"z": -1.6305698296,
				"element": "S" 
			},
			{
				"x": -0.1703806351,
				"y": -0.4462306104,
				"z": -0.4583391519,
				"element": "C" 
			},
			{
				"x": 0.2354053579,
				"y": -1.7369976055,
				"z": -0.8495859813,
				"element": "C" 
			},
			{
				"x": 0.9951410864,
				"y": -2.5239142384,
				"z": 0.0014109066,
				"element": "C" 
			},
			{
				"x": 1.3914376636,
				"y": -2.0451368009,
				"z": 1.2606495643,
				"element": "C" 
			},
			{
				"x": 0.9742530023,
				"y": -0.7675405283,
				"z": 1.6523640378,
				"element": "C" 
			},
			{
				"x": 0.2009806854,
				"y": 0.0278069457,
				"z": 0.8074167886,
				"element": "C" 
			},
			{
				"x": 2.2061402921,
				"y": -2.9512896319,
				"z": 2.1271066479,
				"element": "C" 
			},
			{
				"x": 2.892257476,
				"y": -2.3710980873,
				"z": 3.150984952,
				"element": "O" 
			},
			{
				"x": 2.2776631831,
				"y": -4.1464794056,
				"z": 1.9578212137,
				"element": "O" 
			},
			{
				"x": -2.0715129973,
				"y": 2.63145799,
				"z": -1.4821078605,
				"element": "H" 
			},
			{
				"x": -0.5529006967,
				"y": 2.58619673,
				"z": -0.5615142879,
				"element": "H" 
			},
			{
				"x": -2.0544411699,
				"y": 1.8923938061,
				"z": 0.1330948053,
				"element": "H" 
			},
			{
				"x": -0.0532028876,
				"y": -2.1189302926,
				"z": -1.8246674273,
				"element": "H" 
			},
			{
				"x": 1.2999140893,
				"y": -3.5234501944,
				"z": -0.2894761876,
				"element": "H" 
			},
			{
				"x": 1.2109502946,
				"y": -0.3829182953,
				"z": 2.6420119449,
				"element": "H" 
			},
			{
				"x": -0.1119829863,
				"y": 1.0072515156,
				"z": 1.1488812532,
				"element": "H" 
			},
			{
				"x": 2.8815513677,
				"y": -1.4089622074,
				"z": 3.0559273133,
				"element": "H" 
			}
		],
		 "valence_orbital": [ 
			{
				"type": "occ",
				"energy": -0.31697,
				"method": "rhf"
			},
			{
				"type": "occ",
				"energy": -0.301,
				"method": "rhf"
			},
			{
				"type": "occ",
				"energy": -0.27452,
				"method": "rhf"
			},
			{
				"type": "occ",
				"energy": -0.26907,
				"method": "rhf"
			},
			{
				"type": "occ",
				"energy": -0.2271,
				"method": "rhf"
			},
			{
				"type": "unocc",
				"energy": -0.04988,
				"method": "rhf"
			},
			{
				"type": "unocc",
				"energy": -0.0235,
				"method": "rhf"
			},
			{
				"type": "unocc",
				"energy": 0.02153,
				"method": "rhf"
			},
			{
				"type": "unocc",
				"energy": 0.04735,
				"method": "rhf"
			},
			{
				"type": "unocc",
				"energy": 0.05493,
				"method": "rhf"
			}
		],
		"cosmo_sigma_profile": { 
			"-0.025": 0.0,
			"-0.024": 0.0,
			"-0.023": 0.0,
			"-0.022": 0.0,
			"-0.021": 0.0,
			"-0.02": 0.0,
			"-0.019": 0.247888099743,
			"-0.018": 0.754062544058,
			"-0.017": 0.689484078525,
			"-0.016": 1.24312030543,
			"-0.015": 1.13595961398,
			"-0.014": 0.561844776915,
			"-0.013": 1.17971572604,
			"-0.012": 1.31291697886,
			"-0.011": 0.882979764758,
			"-0.01": 1.20145617377,
			"-0.009": 1.34343726681,
			"-0.008": 1.75831589018,
			"-0.007": 9.81321664503,
			"-0.006": 15.8842478947,
			"-0.005": 12.7018960221,
			"-0.004": 10.9758060813,
			"-0.003": 12.6259707442,
			"-0.002": 13.7487120312,
			"-0.001": 10.4172222533,
			"0.0": 7.92354421028,
			"0.001": 9.78853633106,
			"0.002": 12.6635429194,
			"0.003": 20.4588738338,
			"0.004": 9.25509717072,
			"0.005": 6.02016639168,
			"0.006": 5.31563523853,
			"0.007": 4.94556796439,
			"0.008": 4.88927549104,
			"0.009": 3.26700660585,
			"0.01": 4.28918605063,
			"0.011": 5.42954027509,
			"0.012": 5.32582857527,
			"0.013": 2.10822164303,
			"0.014": 0.207013607353,
			"0.015": 0.0,
			"0.016": 0.0,
			"0.017": 0.0,
			"0.018": 0.0,
			"0.019": 0.0,
			"0.02": 0.0,
			"0.021": 0.0,
			"0.022": 0.0,
			"0.023": 0.0,
			"0.024": 0.0,
			"0.025": 0.0
		}
	}
}
