{
	 "smiles": "CC1(C)C2CCC(C2)C11COC(=O)N1", 
	 "Tm": 501.15, 
	 "num_atms": 31, 
	 "gaussian": { 
		 "optdone": 1, 
		 "sigma_profile": "yes", 
		 "theory": "DFT", 
		 "functional": "B3LYP", 
		 "basiset": "6-31G**", 
		 "properties": { 
			 "R2extent": 2553.2132, 
			 "electric_dipole_moment_norm": 5.67467498805, 
			 "electric_quadrupole_moment_norm": 19.9737738995, 
			 "total_energy": -634.62997933, 
			 "HOMO_LUMO_gap": 0.30119, 
			 "cosmo_polarized_energy": -13.29, 
			 "cosmo_cavitation_energy": 29.04, 
			 "cosmo_dispersion_energy": -21.59, 
			 "cosmo_repulsion_energy": 1.64, 
			 "cosmo_total_nonelectrostatic_energy": 9.09, 
			 "SMD_solvation_energy": 5.39 
		},
		"coords": [
			{
				"x": -0.4667747998,
				"y": -0.9465105655,
				"z": 1.7635477704,
				"element": "C" 
			},
			{
				"x": 0.5244380871,
				"y": -0.7550647675,
				"z": 0.5991349005,
				"element": "C" 
			},
			{
				"x": 1.892509589,
				"y": -0.4095162166,
				"z": 1.2194027625,
				"element": "C" 
			},
			{
				"x": 0.6614842718,
				"y": -2.0352544855,
				"z": -0.2999276148,
				"element": "C" 
			},
			{
				"x": -0.7210213909,
				"y": -2.61157695,
				"z": -0.67544269,
				"element": "C" 
			},
			{
				"x": -1.2961259611,
				"y": -1.5178820995,
				"z": -1.628997456,
				"element": "C" 
			},
			{
				"x": -0.127701449,
				"y": -0.5089529603,
				"z": -1.7674526758,
				"element": "C" 
			},
			{
				"x": 1.0928435373,
				"y": -1.4473904828,
				"z": -1.6613084466,
				"element": "C" 
			},
			{
				"x": 0.0481782429,
				"y": 0.3394114396,
				"z": -0.4677274837,
				"element": "C" 
			},
			{
				"x": -1.1606156556,
				"y": 1.2256835622,
				"z": -0.0817244778,
				"element": "C" 
			},
			{
				"x": -0.9455814298,
				"y": 2.4835282871,
				"z": -0.7421434009,
				"element": "O" 
			},
			{
				"x": 0.3846114664,
				"y": 2.6029467687,
				"z": -1.0420439018,
				"element": "C" 
			},
			{
				"x": 0.8786110249,
				"y": 3.5902909797,
				"z": -1.5296217379,
				"element": "O" 
			},
			{
				"x": 1.0106105615,
				"y": 1.4276296865,
				"z": -0.6760378199,
				"element": "N" 
			},
			{
				"x": -0.2153086358,
				"y": -1.8544380818,
				"z": 2.3226108363,
				"element": "H" 
			},
			{
				"x": -0.4125769717,
				"y": -0.1104769269,
				"z": 2.4684010648,
				"element": "H" 
			},
			{
				"x": -1.5071244767,
				"y": -1.0390440428,
				"z": 1.4396938823,
				"element": "H" 
			},
			{
				"x": 2.1532288241,
				"y": -1.1620433965,
				"z": 1.9715580068,
				"element": "H" 
			},
			{
				"x": 2.7009122186,
				"y": -0.3941882277,
				"z": 0.4822249359,
				"element": "H" 
			},
			{
				"x": 1.8732015906,
				"y": 0.5682331061,
				"z": 1.7079939039,
				"element": "H" 
			},
			{
				"x": 1.3380676344,
				"y": -2.7731848029,
				"z": 0.1416017553,
				"element": "H" 
			},
			{
				"x": -1.3615390554,
				"y": -2.8124888608,
				"z": 0.1857981513,
				"element": "H" 
			},
			{
				"x": -0.592669989,
				"y": -3.5626448422,
				"z": -1.2027204958,
				"element": "H" 
			},
			{
				"x": -2.2133353894,
				"y": -1.0630558089,
				"z": -1.2438357991,
				"element": "H" 
			},
			{
				"x": -1.5454888031,
				"y": -1.932788995,
				"z": -2.6103674795,
				"element": "H" 
			},
			{
				"x": -0.1931093309,
				"y": 0.1192500572,
				"z": -2.6601497767,
				"element": "H" 
			},
			{
				"x": 2.056547669,
				"y": -0.92890215,
				"z": -1.6438179092,
				"element": "H" 
			},
			{
				"x": 1.1304644483,
				"y": -2.1967961712,
				"z": -2.4584884902,
				"element": "H" 
			},
			{
				"x": -2.1221532036,
				"y": 0.8312046337,
				"z": -0.4113122804,
				"element": "H" 
			},
			{
				"x": -1.2001565878,
				"y": 1.4061219179,
				"z": 0.9970698773,
				"element": "H" 
			},
			{
				"x": 1.9143739637,
				"y": 1.2627003956,
				"z": -1.0938179113,
				"element": "H" 
			}
		],
		 "valence_orbital": [ 
			{
				"type": "occ",
				"energy": -0.31737,
				"method": "rhf"
			},
			{
				"type": "occ",
				"energy": -0.3089,
				"method": "rhf"
			},
			{
				"type": "occ",
				"energy": -0.28389,
				"method": "rhf"
			},
			{
				"type": "occ",
				"energy": -0.2666,
				"method": "rhf"
			},
			{
				"type": "occ",
				"energy": -0.25115,
				"method": "rhf"
			},
			{
				"type": "unocc",
				"energy": 0.05004,
				"method": "rhf"
			},
			{
				"type": "unocc",
				"energy": 0.05707,
				"method": "rhf"
			},
			{
				"type": "unocc",
				"energy": 0.07742,
				"method": "rhf"
			},
			{
				"type": "unocc",
				"energy": 0.08643,
				"method": "rhf"
			},
			{
				"type": "unocc",
				"energy": 0.09677,
				"method": "rhf"
			}
		],
		"cosmo_sigma_profile": { 
			"-0.025": 0.0,
			"-0.024": 0.0,
			"-0.023": 0.0,
			"-0.022": 0.0,
			"-0.021": 0.0,
			"-0.02": 0.0,
			"-0.019": 0.0,
			"-0.018": 0.0,
			"-0.017": 0.0,
			"-0.016": 0.0,
			"-0.015": 0.0,
			"-0.014": 0.31350798118,
			"-0.013": 0.672713768482,
			"-0.012": 1.41030069656,
			"-0.011": 1.39780617629,
			"-0.01": 1.09692095108,
			"-0.009": 1.38732657121,
			"-0.008": 1.05337633605,
			"-0.007": 2.98563606957,
			"-0.006": 5.74623183164,
			"-0.005": 8.38532752658,
			"-0.004": 12.8583555852,
			"-0.003": 25.590988494,
			"-0.002": 32.7616171299,
			"-0.001": 30.2834456195,
			"0.0": 26.5159887766,
			"0.001": 25.5220958718,
			"0.002": 7.87345758981,
			"0.003": 2.77991350422,
			"0.004": 2.7000028031,
			"0.005": 3.22276041418,
			"0.006": 2.17991089859,
			"0.007": 2.0324885605,
			"0.008": 2.35040950603,
			"0.009": 2.76264851189,
			"0.01": 3.95404146536,
			"0.011": 3.77781219105,
			"0.012": 3.49745708136,
			"0.013": 7.32047379094,
			"0.014": 2.28560778951,
			"0.015": 0.0208777598419,
			"0.016": 0.0,
			"0.017": 0.0,
			"0.018": 0.0,
			"0.019": 0.0,
			"0.02": 0.0,
			"0.021": 0.0,
			"0.022": 0.0,
			"0.023": 0.0,
			"0.024": 0.0,
			"0.025": 0.0
		}
	}
}
