{
	 "smiles": "CC(=NC1=CC=CC(N)=C1)C1=C(O)C2=CC=CC=C2N(C2=CC=CC=C2)C1=O", 
	 "Tm": 473.15, 
	 "num_atms": 47, 
	 "gaussian": { 
		 "optdone": 1, 
		 "sigma_profile": "yes", 
		 "theory": "DFT", 
		 "functional": "B3LYP", 
		 "basiset": "6-31G**", 
		 "properties": { 
			 "R2extent": 10667.418, 
			 "electric_dipole_moment_norm": 7.5886824054, 
			 "electric_quadrupole_moment_norm": 23.0318422989, 
			 "total_energy": -1202.60809458, 
			 "HOMO_LUMO_gap": 0.12914, 
			 "cosmo_polarized_energy": -26.72, 
			 "cosmo_cavitation_energy": 51.03, 
			 "cosmo_dispersion_energy": -33.07, 
			 "cosmo_repulsion_energy": 2.51, 
			 "cosmo_total_nonelectrostatic_energy": 20.47, 
			 "SMD_solvation_energy": 7.71 
		},
		"coords": [
			{
				"x": 0.9546441866,
				"y": -2.7142362923,
				"z": 4.2364394447,
				"element": "C" 
			},
			{
				"x": -0.0783003438,
				"y": -2.1338601804,
				"z": 3.3065880772,
				"element": "C" 
			},
			{
				"x": -1.244389364,
				"y": -2.6502411679,
				"z": 3.264780432,
				"element": "N" 
			},
			{
				"x": -2.2268729611,
				"y": -2.2159255162,
				"z": 2.3514200326,
				"element": "C" 
			},
			{
				"x": -3.4130536139,
				"y": -1.6403073871,
				"z": 2.8336523584,
				"element": "C" 
			},
			{
				"x": -4.4089635977,
				"y": -1.2824779427,
				"z": 1.9269266416,
				"element": "C" 
			},
			{
				"x": -4.2600938424,
				"y": -1.5088895899,
				"z": 0.5590394805,
				"element": "C" 
			},
			{
				"x": -3.0846775831,
				"y": -2.1069843673,
				"z": 0.0739295069,
				"element": "C" 
			},
			{
				"x": -2.9471834551,
				"y": -2.4076775559,
				"z": -1.2855215058,
				"element": "N" 
			},
			{
				"x": -2.0683029062,
				"y": -2.4487989258,
				"z": 0.979452553,
				"element": "C" 
			},
			{
				"x": 0.3617674616,
				"y": -0.9451736448,
				"z": 2.4923775674,
				"element": "C" 
			},
			{
				"x": -0.0796894274,
				"y": 0.3156858994,
				"z": 2.7641489121,
				"element": "C" 
			},
			{
				"x": -0.9263049837,
				"y": 0.4912855482,
				"z": 3.8118090284,
				"element": "O" 
			},
			{
				"x": 0.3681581117,
				"y": 1.4558782795,
				"z": 1.9892194942,
				"element": "C" 
			},
			{
				"x": -0.0069448006,
				"y": 2.7780858115,
				"z": 2.2954960437,
				"element": "C" 
			},
			{
				"x": 0.4261175108,
				"y": 3.8473253379,
				"z": 1.5280217408,
				"element": "C" 
			},
			{
				"x": 1.2658856743,
				"y": 3.6058924602,
				"z": 0.4325302452,
				"element": "C" 
			},
			{
				"x": 1.6742167637,
				"y": 2.3173050853,
				"z": 0.1196180091,
				"element": "C" 
			},
			{
				"x": 1.2397456682,
				"y": 1.2234304834,
				"z": 0.8936509907,
				"element": "C" 
			},
			{
				"x": 1.6582053597,
				"y": -0.0761746322,
				"z": 0.616210484,
				"element": "N" 
			},
			{
				"x": 2.5200670334,
				"y": -0.3390776842,
				"z": -0.5122017749,
				"element": "C" 
			},
			{
				"x": 1.9642517052,
				"y": -0.5121077741,
				"z": -1.7808794977,
				"element": "C" 
			},
			{
				"x": 2.7974093903,
				"y": -0.7602411165,
				"z": -2.8723016687,
				"element": "C" 
			},
			{
				"x": 4.1800143578,
				"y": -0.8390466485,
				"z": -2.6937603205,
				"element": "C" 
			},
			{
				"x": 4.7297604203,
				"y": -0.6695092035,
				"z": -1.421323799,
				"element": "C" 
			},
			{
				"x": 3.9010290234,
				"y": -0.4181878941,
				"z": -0.3275732839,
				"element": "C" 
			},
			{
				"x": 1.2769359778,
				"y": -1.1993627102,
				"z": 1.3880807352,
				"element": "C" 
			},
			{
				"x": 1.6846777045,
				"y": -2.3198969799,
				"z": 1.08920196,
				"element": "O" 
			},
			{
				"x": 0.5343749062,
				"y": -3.5670464208,
				"z": 4.7721279381,
				"element": "H" 
			},
			{
				"x": 1.2938363047,
				"y": -1.9587353458,
				"z": 4.9553456705,
				"element": "H" 
			},
			{
				"x": 1.8253710197,
				"y": -3.0345765523,
				"z": 3.6547331976,
				"element": "H" 
			},
			{
				"x": -3.5320465363,
				"y": -1.4812467879,
				"z": 3.8997591292,
				"element": "H" 
			},
			{
				"x": -5.3258871206,
				"y": -0.8261937989,
				"z": 2.2915514611,
				"element": "H" 
			},
			{
				"x": -5.0562585835,
				"y": -1.2448055119,
				"z": -0.1324585291,
				"element": "H" 
			},
			{
				"x": -3.479398297,
				"y": -1.8180679048,
				"z": -1.9104496764,
				"element": "H" 
			},
			{
				"x": -1.9949469555,
				"y": -2.5317981124,
				"z": -1.6008096017,
				"element": "H" 
			},
			{
				"x": -1.1527735733,
				"y": -2.916434583,
				"z": 0.6266546497,
				"element": "H" 
			},
			{
				"x": -1.450048272,
				"y": 1.2924753138,
				"z": 3.6839690739,
				"element": "H" 
			},
			{
				"x": -0.6254444124,
				"y": 2.9759159596,
				"z": 3.1669243507,
				"element": "H" 
			},
			{
				"x": 0.1261780065,
				"y": 4.8589710639,
				"z": 1.780470137,
				"element": "H" 
			},
			{
				"x": 1.6145044736,
				"y": 4.4341690172,
				"z": -0.1770971999,
				"element": "H" 
			},
			{
				"x": 2.3361816663,
				"y": 2.1463246827,
				"z": -0.7196222854,
				"element": "H" 
			},
			{
				"x": 0.8871042294,
				"y": -0.4538512231,
				"z": -1.9029674111,
				"element": "H" 
			},
			{
				"x": 2.3662099549,
				"y": -0.8958883076,
				"z": -3.8596949131,
				"element": "H" 
			},
			{
				"x": 4.827146607,
				"y": -1.0351823581,
				"z": -3.5435023736,
				"element": "H" 
			},
			{
				"x": 5.8041137641,
				"y": -0.7354493096,
				"z": -1.2781930111,
				"element": "H" 
			},
			{
				"x": 4.314473348,
				"y": -0.290891513,
				"z": 0.6676275067,
				"element": "H" 
			}
		],
		 "valence_orbital": [ 
			{
				"type": "occ",
				"energy": -0.25292,
				"method": "rhf"
			},
			{
				"type": "occ",
				"energy": -0.24106,
				"method": "rhf"
			},
			{
				"type": "occ",
				"energy": -0.22281,
				"method": "rhf"
			},
			{
				"type": "occ",
				"energy": -0.20763,
				"method": "rhf"
			},
			{
				"type": "occ",
				"energy": -0.18556,
				"method": "rhf"
			},
			{
				"type": "unocc",
				"energy": -0.05642,
				"method": "rhf"
			},
			{
				"type": "unocc",
				"energy": -0.0188,
				"method": "rhf"
			},
			{
				"type": "unocc",
				"energy": -0.01822,
				"method": "rhf"
			},
			{
				"type": "unocc",
				"energy": -0.01345,
				"method": "rhf"
			},
			{
				"type": "unocc",
				"energy": 0.00147,
				"method": "rhf"
			}
		],
		"cosmo_sigma_profile": { 
			"-0.025": 0.0,
			"-0.024": 0.0,
			"-0.023": 0.0,
			"-0.022": 0.0,
			"-0.021": 0.0,
			"-0.02": 0.0,
			"-0.019": 0.217501952501,
			"-0.018": 1.0779062299,
			"-0.017": 0.763111486183,
			"-0.016": 0.985957103876,
			"-0.015": 1.24010984662,
			"-0.014": 0.474937940458,
			"-0.013": 0.769371719637,
			"-0.012": 2.46378854558,
			"-0.011": 4.14177457949,
			"-0.01": 3.53080895665,
			"-0.009": 4.25925814366,
			"-0.008": 4.02581051261,
			"-0.007": 9.48863699856,
			"-0.006": 21.3318492404,
			"-0.005": 26.0592338276,
			"-0.004": 29.7822136757,
			"-0.003": 26.3688557484,
			"-0.002": 30.0274388338,
			"-0.001": 31.086658742,
			"0.0": 29.8999098223,
			"0.001": 25.869141381,
			"0.002": 24.8363406298,
			"0.003": 26.4617197595,
			"0.004": 24.1057485675,
			"0.005": 15.9791112611,
			"0.006": 15.183869671,
			"0.007": 13.6340304786,
			"0.008": 7.6527073127,
			"0.009": 4.97249449729,
			"0.01": 3.95334760588,
			"0.011": 3.18663010507,
			"0.012": 3.65367142152,
			"0.013": 4.41242225311,
			"0.014": 4.79282630177,
			"0.015": 0.991249712478,
			"0.016": 0.0178767997838,
			"0.017": 0.0,
			"0.018": 0.0,
			"0.019": 0.0,
			"0.02": 0.0,
			"0.021": 0.0,
			"0.022": 0.0,
			"0.023": 0.0,
			"0.024": 0.0,
			"0.025": 0.0
		}
	}
}
