{
	 "smiles": "CCC1=CC2=C(CCCC2=O)N1CC1=CC=CC=C1", 
	 "Tm": 333.15, 
	 "num_atms": 38, 
	 "gaussian": { 
		 "optdone": 1, 
		 "sigma_profile": "yes", 
		 "theory": "DFT", 
		 "functional": "B3LYP", 
		 "basiset": "6-31G**", 
		 "properties": { 
			 "R2extent": 5818.2437, 
			 "electric_dipole_moment_norm": 5.85480887476, 
			 "electric_quadrupole_moment_norm": 15.8794963267, 
			 "total_energy": -789.254916717, 
			 "HOMO_LUMO_gap": 0.18932, 
			 "cosmo_polarized_energy": -14.6, 
			 "cosmo_cavitation_energy": 39.47, 
			 "cosmo_dispersion_energy": -27.37, 
			 "cosmo_repulsion_energy": 2.13, 
			 "cosmo_total_nonelectrostatic_energy": 14.24, 
			 "SMD_solvation_energy": 6.18 
		},
		"coords": [
			{
				"x": -1.0297353292,
				"y": -2.6809537148,
				"z": -2.2730578709,
				"element": "C" 
			},
			{
				"x": -0.7041872799,
				"y": -1.2341460731,
				"z": -1.8878158686,
				"element": "C" 
			},
			{
				"x": 0.1256850342,
				"y": -1.1305803676,
				"z": -0.6400819559,
				"element": "C" 
			},
			{
				"x": 0.6770280916,
				"y": -2.1055735008,
				"z": 0.1540710143,
				"element": "C" 
			},
			{
				"x": 1.3801365219,
				"y": -1.4539513867,
				"z": 1.214791868,
				"element": "C" 
			},
			{
				"x": 1.2406139658,
				"y": -0.0844233446,
				"z": 1.0321624015,
				"element": "C" 
			},
			{
				"x": 1.8159581535,
				"y": 0.9697067624,
				"z": 1.9252617896,
				"element": "C" 
			},
			{
				"x": 2.9921502476,
				"y": 0.3631898513,
				"z": 2.7176012348,
				"element": "C" 
			},
			{
				"x": 2.635765181,
				"y": -0.9920394816,
				"z": 3.3513644432,
				"element": "C" 
			},
			{
				"x": 2.1079216308,
				"y": -2.0235805248,
				"z": 2.3452341935,
				"element": "C" 
			},
			{
				"x": 2.2606247675,
				"y": -3.2264007901,
				"z": 2.5215277623,
				"element": "O" 
			},
			{
				"x": 0.4813687935,
				"y": 0.1142246143,
				"z": -0.0943869026,
				"element": "N" 
			},
			{
				"x": 0.0310161933,
				"y": 1.4058865807,
				"z": -0.5862691186,
				"element": "C" 
			},
			{
				"x": -1.2587313281,
				"y": 1.9212228951,
				"z": 0.0428125792,
				"element": "C" 
			},
			{
				"x": -1.6773838592,
				"y": 3.2263020264,
				"z": -0.2509462091,
				"element": "C" 
			},
			{
				"x": -2.8579452975,
				"y": 3.7327775135,
				"z": 0.2894148284,
				"element": "C" 
			},
			{
				"x": -3.6374732673,
				"y": 2.939484371,
				"z": 1.1356745553,
				"element": "C" 
			},
			{
				"x": -3.2259416084,
				"y": 1.6410821671,
				"z": 1.4335715646,
				"element": "C" 
			},
			{
				"x": -2.0424260962,
				"y": 1.1326759191,
				"z": 0.890436345,
				"element": "C" 
			},
			{
				"x": -1.6380014583,
				"y": -2.7075955337,
				"z": -3.1816367721,
				"element": "H" 
			},
			{
				"x": -1.5862298878,
				"y": -3.1847317871,
				"z": -1.4769644556,
				"element": "H" 
			},
			{
				"x": -0.1172680938,
				"y": -3.255058154,
				"z": -2.460097967,
				"element": "H" 
			},
			{
				"x": -1.6420020165,
				"y": -0.6749486484,
				"z": -1.7611300151,
				"element": "H" 
			},
			{
				"x": -0.1817183728,
				"y": -0.7522125261,
				"z": -2.7279137766,
				"element": "H" 
			},
			{
				"x": 0.6021905234,
				"y": -3.1731545779,
				"z": 0.0121196826,
				"element": "H" 
			},
			{
				"x": 2.1613907087,
				"y": 1.8403072314,
				"z": 1.3537480999,
				"element": "H" 
			},
			{
				"x": 1.0487252687,
				"y": 1.3458338847,
				"z": 2.6190267761,
				"element": "H" 
			},
			{
				"x": 3.8398183563,
				"y": 0.2259436506,
				"z": 2.0349918553,
				"element": "H" 
			},
			{
				"x": 3.3178201882,
				"y": 1.0670379193,
				"z": 3.4913220303,
				"element": "H" 
			},
			{
				"x": 3.4939181984,
				"y": -1.4332294584,
				"z": 3.8664003248,
				"element": "H" 
			},
			{
				"x": 1.8508878257,
				"y": -0.8520636126,
				"z": 4.1099413006,
				"element": "H" 
			},
			{
				"x": -0.092629732,
				"y": 1.330436472,
				"z": -1.6713129473,
				"element": "H" 
			},
			{
				"x": 0.8325271257,
				"y": 2.1339102076,
				"z": -0.4233552253,
				"element": "H" 
			},
			{
				"x": -1.0738200261,
				"y": 3.850865285,
				"z": -0.9064642443,
				"element": "H" 
			},
			{
				"x": -3.1682000287,
				"y": 4.7467558258,
				"z": 0.0533725856,
				"element": "H" 
			},
			{
				"x": -4.5566597525,
				"y": 3.3331681332,
				"z": 1.5595022512,
				"element": "H" 
			},
			{
				"x": -3.824439875,
				"y": 1.0174938707,
				"z": 2.0915764093,
				"element": "H" 
			},
			{
				"x": -1.7283534663,
				"y": 0.1211383016,
				"z": 1.1280074337,
				"element": "H" 
			}
		],
		 "valence_orbital": [ 
			{
				"type": "occ",
				"energy": -0.25886,
				"method": "rhf"
			},
			{
				"type": "occ",
				"energy": -0.25296,
				"method": "rhf"
			},
			{
				"type": "occ",
				"energy": -0.2372,
				"method": "rhf"
			},
			{
				"type": "occ",
				"energy": -0.21958,
				"method": "rhf"
			},
			{
				"type": "occ",
				"energy": -0.20504,
				"method": "rhf"
			},
			{
				"type": "unocc",
				"energy": -0.01572,
				"method": "rhf"
			},
			{
				"type": "unocc",
				"energy": -0.01113,
				"method": "rhf"
			},
			{
				"type": "unocc",
				"energy": -0.00818,
				"method": "rhf"
			},
			{
				"type": "unocc",
				"energy": 0.03687,
				"method": "rhf"
			},
			{
				"type": "unocc",
				"energy": 0.07858,
				"method": "rhf"
			}
		],
		"cosmo_sigma_profile": { 
			"-0.025": 0.0,
			"-0.024": 0.0,
			"-0.023": 0.0,
			"-0.022": 0.0,
			"-0.021": 0.0,
			"-0.02": 0.0,
			"-0.019": 0.0,
			"-0.018": 0.0,
			"-0.017": 0.0,
			"-0.016": 0.0,
			"-0.015": 0.0,
			"-0.014": 0.0,
			"-0.013": 0.0,
			"-0.012": 0.0,
			"-0.011": 0.0,
			"-0.01": 0.0,
			"-0.009": 0.0,
			"-0.008": 0.495097430313,
			"-0.007": 3.63819815687,
			"-0.006": 11.4083634933,
			"-0.005": 20.0000290553,
			"-0.004": 27.6100836526,
			"-0.003": 38.145235753,
			"-0.002": 39.7934868221,
			"-0.001": 37.7659395779,
			"0.0": 26.6483781636,
			"0.001": 18.7948900456,
			"0.002": 12.6654494974,
			"0.003": 12.0490797353,
			"0.004": 12.2076393701,
			"0.005": 13.1660730145,
			"0.006": 12.720901494,
			"0.007": 3.90108351164,
			"0.008": 2.13263083833,
			"0.009": 1.96865786033,
			"0.01": 1.05945777426,
			"0.011": 2.11610593003,
			"0.012": 2.52775089056,
			"0.013": 4.15767323318,
			"0.014": 4.49736461382,
			"0.015": 1.64844393099,
			"0.016": 0.0,
			"0.017": 0.0,
			"0.018": 0.0,
			"0.019": 0.0,
			"0.02": 0.0,
			"0.021": 0.0,
			"0.022": 0.0,
			"0.023": 0.0,
			"0.024": 0.0,
			"0.025": 0.0
		}
	}
}
