{
	 "smiles": "CC(C)C1=CC(=C(C)C(Br)=C1O)C1(OS(=O)(=O)C2=CC=CC=C12)C1=CC(C(C)C)=C(O)C(Br)=C1C", 
	 "Tm": 473.15, 
	 "num_atms": 63, 
	 "gaussian": { 
		 "optdone": 1, 
		 "sigma_profile": "yes", 
		 "theory": "DFT", 
		 "functional": "B3LYP", 
		 "basiset": "6-31G**", 
		 "properties": { 
			 "R2extent": 22336.1273, 
			 "electric_dipole_moment_norm": 5.69664156236, 
			 "electric_quadrupole_moment_norm": 21.4843169638, 
			 "total_energy": -6962.81285871, 
			 "HOMO_LUMO_gap": 0.17723, 
			 "cosmo_polarized_energy": -18.75, 
			 "cosmo_cavitation_energy": 66.5, 
			 "cosmo_dispersion_energy": -42.35, 
			 "cosmo_repulsion_energy": 3.18, 
			 "cosmo_total_nonelectrostatic_energy": 27.32, 
			 "SMD_solvation_energy": 8.64 
		},
		"coords": [
			{
				"x": 0.6917678339,
				"y": -0.896416016,
				"z": 5.1609940207,
				"element": "C" 
			},
			{
				"x": 0.9949979119,
				"y": -1.8746493842,
				"z": 4.0059563419,
				"element": "C" 
			},
			{
				"x": 2.4733210922,
				"y": -1.7952383586,
				"z": 3.5992608539,
				"element": "C" 
			},
			{
				"x": 0.0279068749,
				"y": -1.6530457851,
				"z": 2.8495237247,
				"element": "C" 
			},
			{
				"x": 0.3567727221,
				"y": -0.9361279928,
				"z": 1.7017088082,
				"element": "C" 
			},
			{
				"x": -0.5355958477,
				"y": -0.7070545587,
				"z": 0.6441218061,
				"element": "C" 
			},
			{
				"x": -1.8650373203,
				"y": -1.177689659,
				"z": 0.7452884612,
				"element": "C" 
			},
			{
				"x": -2.9390207797,
				"y": -0.9162294443,
				"z": -0.284884146,
				"element": "C" 
			},
			{
				"x": -2.1812658692,
				"y": -1.914259347,
				"z": 1.8949280047,
				"element": "C" 
			},
			{
				"x": -3.9516845168,
				"y": -2.6501408044,
				"z": 2.1164611826,
				"element": "Br" 
			},
			{
				"x": -1.2786107398,
				"y": -2.1639997483,
				"z": 2.9379466838,
				"element": "C" 
			},
			{
				"x": -1.6077677584,
				"y": -2.8748485697,
				"z": 4.0443625579,
				"element": "O" 
			},
			{
				"x": -0.0798137174,
				"y": 0.1172764859,
				"z": -0.571276928,
				"element": "C" 
			},
			{
				"x": -0.8817246894,
				"y": 1.3593259327,
				"z": -0.506111754,
				"element": "O" 
			},
			{
				"x": -0.0561244645,
				"y": 2.7378005234,
				"z": -0.1241113563,
				"element": "S" 
			},
			{
				"x": -0.3328390129,
				"y": 3.1106848039,
				"z": 1.2581384111,
				"element": "O" 
			},
			{
				"x": -0.2958423059,
				"y": 3.7030522219,
				"z": -1.1937503614,
				"element": "O" 
			},
			{
				"x": 1.5266131519,
				"y": 1.954794076,
				"z": -0.2867206219,
				"element": "C" 
			},
			{
				"x": 2.7616550796,
				"y": 2.5968204945,
				"z": -0.2327683046,
				"element": "C" 
			},
			{
				"x": 3.9022395561,
				"y": 1.8167642435,
				"z": -0.4088038809,
				"element": "C" 
			},
			{
				"x": 3.7824098195,
				"y": 0.4404725516,
				"z": -0.6424156423,
				"element": "C" 
			},
			{
				"x": 2.5322626649,
				"y": -0.1763735725,
				"z": -0.7007022546,
				"element": "C" 
			},
			{
				"x": 1.3802151502,
				"y": 0.5924132371,
				"z": -0.5072731328,
				"element": "C" 
			},
			{
				"x": -0.3289980627,
				"y": -0.4955144584,
				"z": -1.9761442826,
				"element": "C" 
			},
			{
				"x": -0.6688825221,
				"y": 0.4059452348,
				"z": -3.0001479818,
				"element": "C" 
			},
			{
				"x": -0.8985963647,
				"y": 0.0302633868,
				"z": -4.31800387,
				"element": "C" 
			},
			{
				"x": -1.3012591809,
				"y": 1.0184621405,
				"z": -5.4057905179,
				"element": "C" 
			},
			{
				"x": -0.7956802575,
				"y": 2.4468792593,
				"z": -5.1548089173,
				"element": "C" 
			},
			{
				"x": -2.8308585139,
				"y": 1.0017050484,
				"z": -5.6116862651,
				"element": "C" 
			},
			{
				"x": -0.7825308915,
				"y": -1.3368534675,
				"z": -4.6309356947,
				"element": "C" 
			},
			{
				"x": -1.0315307988,
				"y": -1.7184761151,
				"z": -5.9082351709,
				"element": "O" 
			},
			{
				"x": -0.4110651396,
				"y": -2.2325514543,
				"z": -3.6226997738,
				"element": "C" 
			},
			{
				"x": -0.2547481432,
				"y": -4.0830585002,
				"z": -4.157852164,
				"element": "Br" 
			},
			{
				"x": -0.1590338898,
				"y": -1.8618045644,
				"z": -2.2889669598,
				"element": "C" 
			},
			{
				"x": 0.2833283757,
				"y": -2.9372616636,
				"z": -1.3203232902,
				"element": "C" 
			},
			{
				"x": 0.8494478012,
				"y": 0.1399700448,
				"z": 4.8429211122,
				"element": "H" 
			},
			{
				"x": 1.3498586225,
				"y": -1.0945552889,
				"z": 6.01424628,
				"element": "H" 
			},
			{
				"x": -0.3424379925,
				"y": -0.9965494447,
				"z": 5.4996883173,
				"element": "H" 
			},
			{
				"x": 0.8066794378,
				"y": -2.8875855793,
				"z": 4.3816033569,
				"element": "H" 
			},
			{
				"x": 2.7649801539,
				"y": -0.7796044006,
				"z": 3.3091175861,
				"element": "H" 
			},
			{
				"x": 2.7027114058,
				"y": -2.4666784677,
				"z": 2.765162494,
				"element": "H" 
			},
			{
				"x": 3.1062692128,
				"y": -2.081155134,
				"z": 4.4452741324,
				"element": "H" 
			},
			{
				"x": 1.3620596051,
				"y": -0.5446369529,
				"z": 1.6256052839,
				"element": "H" 
			},
			{
				"x": -2.6368081177,
				"y": -0.1786924445,
				"z": -1.0215671955,
				"element": "H" 
			},
			{
				"x": -3.8439445476,
				"y": -0.5480792776,
				"z": 0.2070694466,
				"element": "H" 
			},
			{
				"x": -3.2132068351,
				"y": -1.8379853215,
				"z": -0.8106393807,
				"element": "H" 
			},
			{
				"x": -2.5347366865,
				"y": -3.156569124,
				"z": 3.9664423543,
				"element": "H" 
			},
			{
				"x": 2.8273422906,
				"y": 3.6671552985,
				"z": -0.06735041,
				"element": "H" 
			},
			{
				"x": 4.8839815719,
				"y": 2.2782256796,
				"z": -0.3750676256,
				"element": "H" 
			},
			{
				"x": 4.6767203022,
				"y": -0.157171551,
				"z": -0.7906226262,
				"element": "H" 
			},
			{
				"x": 2.4608624557,
				"y": -1.2394053487,
				"z": -0.9002584203,
				"element": "H" 
			},
			{
				"x": -0.7697635328,
				"y": 1.4516580636,
				"z": -2.7451327969,
				"element": "H" 
			},
			{
				"x": -0.8460824233,
				"y": 0.6610150192,
				"z": -6.3369780257,
				"element": "H" 
			},
			{
				"x": -1.271399509,
				"y": 2.9105515944,
				"z": -4.2844035302,
				"element": "H" 
			},
			{
				"x": 0.287099918,
				"y": 2.4698845586,
				"z": -4.9957219326,
				"element": "H" 
			},
			{
				"x": -1.0227694697,
				"y": 3.0761572673,
				"z": -6.0213978712,
				"element": "H" 
			},
			{
				"x": -3.1862635971,
				"y": -0.004485042,
				"z": -5.8501806687,
				"element": "H" 
			},
			{
				"x": -3.3471581011,
				"y": 1.3440742009,
				"z": -4.7079893946,
				"element": "H" 
			},
			{
				"x": -3.1141645508,
				"y": 1.6663499738,
				"z": -6.4351634562,
				"element": "H" 
			},
			{
				"x": -0.8994677637,
				"y": -2.6786098339,
				"z": -5.9764481298,
				"element": "H" 
			},
			{
				"x": 0.5984793471,
				"y": -2.5398065524,
				"z": -0.3607619482,
				"element": "H" 
			},
			{
				"x": 1.1106636191,
				"y": -3.5126836188,
				"z": -1.747348766,
				"element": "H" 
			},
			{
				"x": -0.5269320632,
				"y": -3.6496544948,
				"z": -1.1284757713,
				"element": "H" 
			}
		],
		 "valence_orbital": [ 
			{
				"type": "occ",
				"energy": -0.27736,
				"method": "rhf"
			},
			{
				"type": "occ",
				"energy": -0.24649,
				"method": "rhf"
			},
			{
				"type": "occ",
				"energy": -0.245,
				"method": "rhf"
			},
			{
				"type": "occ",
				"energy": -0.22878,
				"method": "rhf"
			},
			{
				"type": "occ",
				"energy": -0.22555,
				"method": "rhf"
			},
			{
				"type": "unocc",
				"energy": -0.04832,
				"method": "rhf"
			},
			{
				"type": "unocc",
				"energy": -0.04208,
				"method": "rhf"
			},
			{
				"type": "unocc",
				"energy": -0.02059,
				"method": "rhf"
			},
			{
				"type": "unocc",
				"energy": -0.01823,
				"method": "rhf"
			},
			{
				"type": "unocc",
				"energy": -0.01129,
				"method": "rhf"
			}
		],
		"cosmo_sigma_profile": { 
			"-0.025": 0.0,
			"-0.024": 0.0,
			"-0.023": 0.0,
			"-0.022": 0.0,
			"-0.021": 0.0,
			"-0.02": 0.0,
			"-0.019": 0.0,
			"-0.018": 0.0,
			"-0.017": 0.0,
			"-0.016": 0.0,
			"-0.015": 0.0,
			"-0.014": 0.656408969272,
			"-0.013": 1.08666827302,
			"-0.012": 0.786487098929,
			"-0.011": 1.72869759984,
			"-0.01": 2.04184066406,
			"-0.009": 4.01483188198,
			"-0.008": 4.83685296521,
			"-0.007": 11.4547404852,
			"-0.006": 12.7738634783,
			"-0.005": 13.8223414386,
			"-0.004": 22.3785536473,
			"-0.003": 40.6139755511,
			"-0.002": 55.7533885572,
			"-0.001": 63.3304205366,
			"0.0": 66.0862627783,
			"0.001": 74.9254027196,
			"0.002": 53.6000469361,
			"0.003": 29.5304789008,
			"0.004": 19.125188866,
			"0.005": 10.0391069331,
			"0.006": 7.06836619569,
			"0.007": 6.97479310093,
			"0.008": 7.73046045613,
			"0.009": 9.04164844691,
			"0.01": 10.8282267364,
			"0.011": 2.38188686536,
			"0.012": 0.0,
			"0.013": 0.0,
			"0.014": 0.0,
			"0.015": 0.0,
			"0.016": 0.0,
			"0.017": 0.0,
			"0.018": 0.0,
			"0.019": 0.0,
			"0.02": 0.0,
			"0.021": 0.0,
			"0.022": 0.0,
			"0.023": 0.0,
			"0.024": 0.0,
			"0.025": 0.0
		}
	}
}
