{
	 "smiles": "CS(=O)(=O)C1=C(N)C=CC=C1", 
	 "Tm": 336.15, 
	 "num_atms": 20, 
	 "gaussian": { 
		 "optdone": 1, 
		 "sigma_profile": "yes", 
		 "theory": "DFT", 
		 "functional": "B3LYP", 
		 "basiset": "6-31G**", 
		 "properties": { 
			 "R2extent": 2182.7738, 
			 "electric_dipole_moment_norm": 4.65622268046, 
			 "electric_quadrupole_moment_norm": 11.1822204146, 
			 "total_energy": -875.501353768, 
			 "HOMO_LUMO_gap": 0.19073, 
			 "cosmo_polarized_energy": -14.53, 
			 "cosmo_cavitation_energy": 24.3, 
			 "cosmo_dispersion_energy": -18.68, 
			 "cosmo_repulsion_energy": 1.44, 
			 "cosmo_total_nonelectrostatic_energy": 7.06, 
			 "SMD_solvation_energy": 4.0 
		},
		"coords": [
			{
				"x": -2.7952862934,
				"y": 1.9129378313,
				"z": 0.3061490934,
				"element": "C" 
			},
			{
				"x": -1.3461441725,
				"y": 1.6817851378,
				"z": -0.7478543027,
				"element": "S" 
			},
			{
				"x": -0.6415232681,
				"y": 2.98335845,
				"z": -0.7991744231,
				"element": "O" 
			},
			{
				"x": -1.7846028646,
				"y": 1.0352237557,
				"z": -1.9930623826,
				"element": "O" 
			},
			{
				"x": -0.3339679283,
				"y": 0.5271572987,
				"z": 0.1724750816,
				"element": "C" 
			},
			{
				"x": 0.3808796634,
				"y": 0.9452580459,
				"z": 1.3217074058,
				"element": "C" 
			},
			{
				"x": 0.3212038563,
				"y": 2.2466859602,
				"z": 1.7915147965,
				"element": "N" 
			},
			{
				"x": 1.1161418485,
				"y": -0.0399999533,
				"z": 2.0107205645,
				"element": "C" 
			},
			{
				"x": 1.1494386368,
				"y": -1.35582565,
				"z": 1.5657342079,
				"element": "C" 
			},
			{
				"x": 0.4568569568,
				"y": -1.7463985649,
				"z": 0.4142967193,
				"element": "C" 
			},
			{
				"x": -0.2859259441,
				"y": -0.7957082139,
				"z": -0.2774728716,
				"element": "C" 
			},
			{
				"x": -2.4610673248,
				"y": 2.2498841266,
				"z": 1.2890544704,
				"element": "H" 
			},
			{
				"x": -3.3369514057,
				"y": 0.9687244304,
				"z": 0.373265634,
				"element": "H" 
			},
			{
				"x": -3.410631464,
				"y": 2.6767351315,
				"z": -0.1737766209,
				"element": "H" 
			},
			{
				"x": 1.02105055,
				"y": 2.48431693,
				"z": 2.4801135456,
				"element": "H" 
			},
			{
				"x": 0.1884508564,
				"y": 2.9545205922,
				"z": 1.0754303986,
				"element": "H" 
			},
			{
				"x": 1.6712621063,
				"y": 0.2490255652,
				"z": 2.8996671186,
				"element": "H" 
			},
			{
				"x": 1.7328247243,
				"y": -2.0853827731,
				"z": 2.1205233058,
				"element": "H" 
			},
			{
				"x": 0.4966271826,
				"y": -2.7724166024,
				"z": 0.0646483256,
				"element": "H" 
			},
			{
				"x": -0.8356357158,
				"y": -1.0531814976,
				"z": -1.1766600666,
				"element": "H" 
			}
		],
		 "valence_orbital": [ 
			{
				"type": "occ",
				"energy": -0.31127,
				"method": "rhf"
			},
			{
				"type": "occ",
				"energy": -0.29661,
				"method": "rhf"
			},
			{
				"type": "occ",
				"energy": -0.28786,
				"method": "rhf"
			},
			{
				"type": "occ",
				"energy": -0.26888,
				"method": "rhf"
			},
			{
				"type": "occ",
				"energy": -0.22242,
				"method": "rhf"
			},
			{
				"type": "unocc",
				"energy": -0.03169,
				"method": "rhf"
			},
			{
				"type": "unocc",
				"energy": -0.00319,
				"method": "rhf"
			},
			{
				"type": "unocc",
				"energy": 0.06964,
				"method": "rhf"
			},
			{
				"type": "unocc",
				"energy": 0.07391,
				"method": "rhf"
			},
			{
				"type": "unocc",
				"energy": 0.08541,
				"method": "rhf"
			}
		],
		"cosmo_sigma_profile": { 
			"-0.025": 0.0,
			"-0.024": 0.0,
			"-0.023": 0.0,
			"-0.022": 0.0,
			"-0.021": 0.0,
			"-0.02": 0.0,
			"-0.019": 0.0,
			"-0.018": 0.0,
			"-0.017": 0.0,
			"-0.016": 0.0,
			"-0.015": 0.0,
			"-0.014": 0.319357355397,
			"-0.013": 1.38948045674,
			"-0.012": 1.37900157129,
			"-0.011": 1.4443074113,
			"-0.01": 1.59994453357,
			"-0.009": 3.22236806717,
			"-0.008": 6.95129037234,
			"-0.007": 7.31878610234,
			"-0.006": 12.6529041126,
			"-0.005": 14.9643392769,
			"-0.004": 15.6393864294,
			"-0.003": 12.4570893375,
			"-0.002": 9.68641345094,
			"-0.001": 9.42270881623,
			"0.0": 8.56103859385,
			"0.001": 10.0329493232,
			"0.002": 11.7676894662,
			"0.003": 11.6695924939,
			"0.004": 12.1322959114,
			"0.005": 7.15926808503,
			"0.006": 2.89666842966,
			"0.007": 3.2347429664,
			"0.008": 3.15931487111,
			"0.009": 3.74068707663,
			"0.01": 4.85044177911,
			"0.011": 7.54095309819,
			"0.012": 7.22420622884,
			"0.013": 1.12935723381,
			"0.014": 0.0,
			"0.015": 0.0,
			"0.016": 0.0,
			"0.017": 0.0,
			"0.018": 0.0,
			"0.019": 0.0,
			"0.02": 0.0,
			"0.021": 0.0,
			"0.022": 0.0,
			"0.023": 0.0,
			"0.024": 0.0,
			"0.025": 0.0
		}
	}
}
