{
	 "smiles": "CC1=CC(N)=NC=C1Br", 
	 "Tm": 422.65, 
	 "num_atms": 16, 
	 "gaussian": { 
		 "optdone": 1, 
		 "sigma_profile": "yes", 
		 "theory": "DFT", 
		 "functional": "B3LYP", 
		 "basiset": "6-31G**", 
		 "properties": { 
			 "R2extent": 2939.0532, 
			 "electric_dipole_moment_norm": 3.17618660661, 
			 "electric_quadrupole_moment_norm": 5.56767587329, 
			 "total_energy": -2913.77732477, 
			 "HOMO_LUMO_gap": 0.192, 
			 "cosmo_polarized_energy": -9.12, 
			 "cosmo_cavitation_energy": 21.99, 
			 "cosmo_dispersion_energy": -16.87, 
			 "cosmo_repulsion_energy": 1.38, 
			 "cosmo_total_nonelectrostatic_energy": 6.51, 
			 "SMD_solvation_energy": 1.39 
		},
		"coords": [
			{
				"x": 0.0233212611,
				"y": -2.0435166208,
				"z": -2.2843824004,
				"element": "C" 
			},
			{
				"x": 0.3954469851,
				"y": -0.8853756806,
				"z": -1.39941148,
				"element": "C" 
			},
			{
				"x": 0.6621392211,
				"y": -1.0713986559,
				"z": -0.045940592,
				"element": "C" 
			},
			{
				"x": 1.0106696014,
				"y": 0.0277103241,
				"z": 0.764094,
				"element": "C" 
			},
			{
				"x": 1.2324942536,
				"y": -0.1213656592,
				"z": 2.1194030815,
				"element": "N" 
			},
			{
				"x": 1.1024490801,
				"y": 1.2765215288,
				"z": 0.2822717555,
				"element": "N" 
			},
			{
				"x": 0.8407928247,
				"y": 1.4629326858,
				"z": -1.014278345,
				"element": "C" 
			},
			{
				"x": 0.4910231387,
				"y": 0.4328790343,
				"z": -1.8797544933,
				"element": "C" 
			},
			{
				"x": 0.1536701959,
				"y": 0.8455090453,
				"z": -3.7175178262,
				"element": "Br" 
			},
			{
				"x": 0.734135572,
				"y": -2.1482625176,
				"z": -3.1107895,
				"element": "H" 
			},
			{
				"x": 0.0048649624,
				"y": -2.9785566616,
				"z": -1.719485773,
				"element": "H" 
			},
			{
				"x": -0.9623182384,
				"y": -1.8888728631,
				"z": -2.7357095096,
				"element": "H" 
			},
			{
				"x": 0.5936199944,
				"y": -2.0664217455,
				"z": 0.3853680899,
				"element": "H" 
			},
			{
				"x": 1.5438394662,
				"y": -1.024316452,
				"z": 2.4437550391,
				"element": "H" 
			},
			{
				"x": 1.6909675559,
				"y": 0.6689012866,
				"z": 2.5505108965,
				"element": "H" 
			},
			{
				"x": 0.9183841257,
				"y": 2.4820329514,
				"z": -1.3853329429,
				"element": "H" 
			}
		],
		 "valence_orbital": [ 
			{
				"type": "occ",
				"energy": -0.28977,
				"method": "rhf"
			},
			{
				"type": "occ",
				"energy": -0.28849,
				"method": "rhf"
			},
			{
				"type": "occ",
				"energy": -0.27288,
				"method": "rhf"
			},
			{
				"type": "occ",
				"energy": -0.26024,
				"method": "rhf"
			},
			{
				"type": "occ",
				"energy": -0.21178,
				"method": "rhf"
			},
			{
				"type": "unocc",
				"energy": -0.01978,
				"method": "rhf"
			},
			{
				"type": "unocc",
				"energy": 0.00086,
				"method": "rhf"
			},
			{
				"type": "unocc",
				"energy": 0.01407,
				"method": "rhf"
			},
			{
				"type": "unocc",
				"energy": 0.08433,
				"method": "rhf"
			},
			{
				"type": "unocc",
				"energy": 0.10839,
				"method": "rhf"
			}
		],
		"cosmo_sigma_profile": { 
			"-0.025": 0.0,
			"-0.024": 0.0,
			"-0.023": 0.0,
			"-0.022": 0.0,
			"-0.021": 0.0,
			"-0.02": 0.0,
			"-0.019": 0.0,
			"-0.018": 0.0,
			"-0.017": 0.0,
			"-0.016": 0.0,
			"-0.015": 0.0,
			"-0.014": 0.208373009846,
			"-0.013": 1.97614498707,
			"-0.012": 1.65660380248,
			"-0.011": 3.09377395285,
			"-0.01": 2.38434343435,
			"-0.009": 2.65061891855,
			"-0.008": 2.19912555099,
			"-0.007": 3.9799144235,
			"-0.006": 6.03446708284,
			"-0.005": 7.38178113316,
			"-0.004": 10.1353006129,
			"-0.003": 10.441842954,
			"-0.002": 11.2220067184,
			"-0.001": 15.1852357219,
			"0.0": 13.5296893444,
			"0.001": 11.4829508124,
			"0.002": 18.4560650266,
			"0.003": 16.7909323754,
			"0.004": 12.2320679758,
			"0.005": 9.71602054403,
			"0.006": 3.15543085222,
			"0.007": 2.87447932136,
			"0.008": 2.09318398722,
			"0.009": 1.47449454948,
			"0.01": 1.73047052795,
			"0.011": 1.7042650685,
			"0.012": 1.45632383416,
			"0.013": 1.08911094841,
			"0.014": 0.732526713733,
			"0.015": 0.717936287065,
			"0.016": 0.106978551376,
			"0.017": 0.0,
			"0.018": 0.0,
			"0.019": 0.0,
			"0.02": 0.0,
			"0.021": 0.0,
			"0.022": 0.0,
			"0.023": 0.0,
			"0.024": 0.0,
			"0.025": 0.0
		}
	}
}
