{
	 "smiles": "OC(=O)C1=CC=C(SC(F)F)C=C1", 
	 "Tm": 428.15, 
	 "num_atms": 19, 
	 "gaussian": { 
		 "optdone": 1, 
		 "sigma_profile": "yes", 
		 "theory": "DFT", 
		 "functional": "B3LYP", 
		 "basiset": "6-31G**", 
		 "properties": { 
			 "R2extent": 4043.0084, 
			 "electric_dipole_moment_norm": 1.63088488864, 
			 "electric_quadrupole_moment_norm": 11.6314402457, 
			 "total_energy": -1056.78458875, 
			 "HOMO_LUMO_gap": 0.18281, 
			 "cosmo_polarized_energy": -10.38, 
			 "cosmo_cavitation_energy": 26.57, 
			 "cosmo_dispersion_energy": -19.74, 
			 "cosmo_repulsion_energy": 1.48, 
			 "cosmo_total_nonelectrostatic_energy": 8.31, 
			 "SMD_solvation_energy": 6.32 
		},
		"coords": [
			{
				"x": -2.8113354136,
				"y": 0.9783886038,
				"z": -1.6612434561,
				"element": "O" 
			},
			{
				"x": -1.5351282194,
				"y": 1.0541148869,
				"z": -2.11440064,
				"element": "C" 
			},
			{
				"x": -1.266030243,
				"y": 1.4666106317,
				"z": -3.2252718967,
				"element": "O" 
			},
			{
				"x": -0.535615883,
				"y": 0.5866226054,
				"z": -1.1185245097,
				"element": "C" 
			},
			{
				"x": 0.8182454252,
				"y": 0.6224750225,
				"z": -1.4781913854,
				"element": "C" 
			},
			{
				"x": 1.7944808778,
				"y": 0.2106211955,
				"z": -0.5787128515,
				"element": "C" 
			},
			{
				"x": 1.424745147,
				"y": -0.2656748669,
				"z": 0.6889409014,
				"element": "C" 
			},
			{
				"x": 2.731433312,
				"y": -0.8431184597,
				"z": 1.7663549622,
				"element": "S" 
			},
			{
				"x": 2.1600444424,
				"y": -0.1888283275,
				"z": 3.3752382197,
				"element": "C" 
			},
			{
				"x": 3.2151897424,
				"y": -0.2602797633,
				"z": 4.2199534083,
				"element": "F" 
			},
			{
				"x": 1.1542719386,
				"y": -0.9417310932,
				"z": 3.9057582289,
				"element": "F" 
			},
			{
				"x": 0.0688866452,
				"y": -0.3225234626,
				"z": 1.0457652885,
				"element": "C" 
			},
			{
				"x": -0.9023304005,
				"y": 0.1171618595,
				"z": 0.1494334769,
				"element": "C" 
			},
			{
				"x": -3.3694514871,
				"y": 1.3033285292,
				"z": -2.3866911774,
				"element": "H" 
			},
			{
				"x": 1.0861051931,
				"y": 0.9920831525,
				"z": -2.4621932835,
				"element": "H" 
			},
			{
				"x": 2.8440015335,
				"y": 0.2651044222,
				"z": -0.8499308066,
				"element": "H" 
			},
			{
				"x": 1.8108038351,
				"y": 0.8446884422,
				"z": 3.286763264,
				"element": "H" 
			},
			{
				"x": -0.2244341179,
				"y": -0.7145367708,
				"z": 2.0122583986,
				"element": "H" 
			},
			{
				"x": -1.9498823278,
				"y": 0.0813933926,
				"z": 0.4261938583,
				"element": "H" 
			}
		],
		 "valence_orbital": [ 
			{
				"type": "occ",
				"energy": -0.32618,
				"method": "rhf"
			},
			{
				"type": "occ",
				"energy": -0.29961,
				"method": "rhf"
			},
			{
				"type": "occ",
				"energy": -0.28422,
				"method": "rhf"
			},
			{
				"type": "occ",
				"energy": -0.27496,
				"method": "rhf"
			},
			{
				"type": "occ",
				"energy": -0.24585,
				"method": "rhf"
			},
			{
				"type": "unocc",
				"energy": -0.06304,
				"method": "rhf"
			},
			{
				"type": "unocc",
				"energy": -0.02636,
				"method": "rhf"
			},
			{
				"type": "unocc",
				"energy": 0.00642,
				"method": "rhf"
			},
			{
				"type": "unocc",
				"energy": 0.04132,
				"method": "rhf"
			},
			{
				"type": "unocc",
				"energy": 0.06269,
				"method": "rhf"
			}
		],
		"cosmo_sigma_profile": { 
			"-0.025": 0.0,
			"-0.024": 0.0,
			"-0.023": 0.0,
			"-0.022": 0.0,
			"-0.021": 0.0,
			"-0.02": 0.0,
			"-0.019": 0.0808367155563,
			"-0.018": 0.827142050894,
			"-0.017": 1.23151419915,
			"-0.016": 0.457779630415,
			"-0.015": 0.655895159528,
			"-0.014": 0.560568651413,
			"-0.013": 1.28026872604,
			"-0.012": 0.705285928703,
			"-0.011": 0.938155291534,
			"-0.01": 2.87574249893,
			"-0.009": 2.98956293505,
			"-0.008": 2.71995226864,
			"-0.007": 5.79628533147,
			"-0.006": 10.2273820123,
			"-0.005": 8.92913714045,
			"-0.004": 8.35879984336,
			"-0.003": 10.3803470936,
			"-0.002": 11.7536676075,
			"-0.001": 14.1843010707,
			"0.0": 16.4545020889,
			"0.001": 20.6592238924,
			"0.002": 26.2390959654,
			"0.003": 28.8412903242,
			"0.004": 11.5460386583,
			"0.005": 5.35634543368,
			"0.006": 5.46645669811,
			"0.007": 3.02765118299,
			"0.008": 1.42014890084,
			"0.009": 1.88872916072,
			"0.01": 1.8293722549,
			"0.011": 4.19293174875,
			"0.012": 3.37881651014,
			"0.013": 0.0454486303171,
			"0.014": 0.0,
			"0.015": 0.0,
			"0.016": 0.0,
			"0.017": 0.0,
			"0.018": 0.0,
			"0.019": 0.0,
			"0.02": 0.0,
			"0.021": 0.0,
			"0.022": 0.0,
			"0.023": 0.0,
			"0.024": 0.0,
			"0.025": 0.0
		}
	}
}
