{
	 "smiles": "CN(C)C1=NC(=NC(=N1)N(C)C)N(C)C", 
	 "Tm": 446.15, 
	 "num_atms": 33, 
	 "gaussian": { 
		 "optdone": 1, 
		 "sigma_profile": "yes", 
		 "theory": "DFT", 
		 "functional": "B3LYP", 
		 "basiset": "6-31G**", 
		 "properties": { 
			 "R2extent": 4627.032, 
			 "electric_dipole_moment_norm": 0.0010246950766, 
			 "electric_quadrupole_moment_norm": 9.71366389834, 
			 "total_energy": -682.353763158, 
			 "HOMO_LUMO_gap": 0.23514, 
			 "cosmo_polarized_energy": -7.43, 
			 "cosmo_cavitation_energy": 34.45, 
			 "cosmo_dispersion_energy": -24.9, 
			 "cosmo_repulsion_energy": 1.96, 
			 "cosmo_total_nonelectrostatic_energy": 11.51, 
			 "SMD_solvation_energy": 4.79 
		},
		"coords": [
			{
				"x": 2.2898804461,
				"y": -3.038947515,
				"z": -0.6173737284,
				"element": "C" 
			},
			{
				"x": 2.0781663838,
				"y": -1.6231317372,
				"z": -0.8519792987,
				"element": "N" 
			},
			{
				"x": 3.2715106233,
				"y": -0.7983237829,
				"z": -0.8451140719,
				"element": "C" 
			},
			{
				"x": 0.8302264431,
				"y": -1.0977355436,
				"z": -1.0621043527,
				"element": "C" 
			},
			{
				"x": -0.2093687412,
				"y": -1.9513097582,
				"z": -1.0470129525,
				"element": "N" 
			},
			{
				"x": -1.4078817709,
				"y": -1.3785373732,
				"z": -1.2593183644,
				"element": "C" 
			},
			{
				"x": -1.6172507945,
				"y": -0.0673611586,
				"z": -1.4750954136,
				"element": "N" 
			},
			{
				"x": -0.503300249,
				"y": 0.6867195438,
				"z": -1.4674706176,
				"element": "C" 
			},
			{
				"x": 0.7456581553,
				"y": 0.2291044542,
				"z": -1.2668340906,
				"element": "N" 
			},
			{
				"x": -0.6532041251,
				"y": 2.0318463556,
				"z": -1.681283058,
				"element": "N" 
			},
			{
				"x": -1.9514514573,
				"y": 2.6365286867,
				"z": -1.9122219539,
				"element": "C" 
			},
			{
				"x": 0.4767787599,
				"y": 2.9414142439,
				"z": -1.6964710409,
				"element": "C" 
			},
			{
				"x": -2.5058744656,
				"y": -2.1982585017,
				"z": -1.2555860252,
				"element": "N" 
			},
			{
				"x": -2.4008027794,
				"y": -3.6278383356,
				"z": -1.0326900238,
				"element": "C" 
			},
			{
				"x": -3.8478145903,
				"y": -1.691693943,
				"z": -1.4723587249,
				"element": "C" 
			},
			{
				"x": 2.9536897507,
				"y": -3.4608016143,
				"z": -1.3846070066,
				"element": "H" 
			},
			{
				"x": 1.3344482942,
				"y": -3.5562992599,
				"z": -0.6452574201,
				"element": "H" 
			},
			{
				"x": 2.7616801632,
				"y": -3.2005965414,
				"z": 0.3617377134,
				"element": "H" 
			},
			{
				"x": 2.996520064,
				"y": 0.2360055541,
				"z": -1.0343918126,
				"element": "H" 
			},
			{
				"x": 3.7812891481,
				"y": -0.8663371986,
				"z": 0.1259320155,
				"element": "H" 
			},
			{
				"x": 3.9753133998,
				"y": -1.1344029918,
				"z": -1.6190124311,
				"element": "H" 
			},
			{
				"x": -1.9767780039,
				"y": 3.1312567583,
				"z": -2.89303834,
				"element": "H" 
			},
			{
				"x": -2.7189688617,
				"y": 1.8677468381,
				"z": -1.8780557412,
				"element": "H" 
			},
			{
				"x": -2.1636365745,
				"y": 3.3956549085,
				"z": -1.1467549855,
				"element": "H" 
			},
			{
				"x": 0.552606851,
				"y": 3.445530192,
				"z": -2.6698986076,
				"element": "H" 
			},
			{
				"x": 1.3910146729,
				"y": 2.384508509,
				"z": -1.5085581099,
				"element": "H" 
			},
			{
				"x": 0.3577206435,
				"y": 3.7148769944,
				"z": -0.9252548395,
				"element": "H" 
			},
			{
				"x": -2.9803688489,
				"y": -3.9229001523,
				"z": -0.1470287599,
				"element": "H" 
			},
			{
				"x": -1.357627257,
				"y": -3.8943425259,
				"z": -0.8842117533,
				"element": "H" 
			},
			{
				"x": -2.7978355215,
				"y": -4.1816698119,
				"z": -1.8946134768,
				"element": "H" 
			},
			{
				"x": -4.4861713019,
				"y": -1.9096570308,
				"z": -0.6049877268,
				"element": "H" 
			},
			{
				"x": -4.3014370992,
				"y": -2.1682814895,
				"z": -2.3523535163,
				"element": "H" 
			},
			{
				"x": -3.8072313571,
				"y": -0.6166667732,
				"z": -1.6271314847,
				"element": "H" 
			}
		],
		 "valence_orbital": [ 
			{
				"type": "occ",
				"energy": -0.23626,
				"method": "rhf"
			},
			{
				"type": "occ",
				"energy": -0.23626,
				"method": "rhf"
			},
			{
				"type": "occ",
				"energy": -0.21215,
				"method": "rhf"
			},
			{
				"type": "occ",
				"energy": -0.20656,
				"method": "rhf"
			},
			{
				"type": "occ",
				"energy": -0.20656,
				"method": "rhf"
			},
			{
				"type": "unocc",
				"energy": 0.02858,
				"method": "rhf"
			},
			{
				"type": "unocc",
				"energy": 0.02858,
				"method": "rhf"
			},
			{
				"type": "unocc",
				"energy": 0.09734,
				"method": "rhf"
			},
			{
				"type": "unocc",
				"energy": 0.10603,
				"method": "rhf"
			},
			{
				"type": "unocc",
				"energy": 0.10603,
				"method": "rhf"
			}
		],
		"cosmo_sigma_profile": { 
			"-0.025": 0.0,
			"-0.024": 0.0,
			"-0.023": 0.0,
			"-0.022": 0.0,
			"-0.021": 0.0,
			"-0.02": 0.0,
			"-0.019": 0.0,
			"-0.018": 0.0,
			"-0.017": 0.0,
			"-0.016": 0.0,
			"-0.015": 0.0,
			"-0.014": 0.0,
			"-0.013": 0.0,
			"-0.012": 0.0,
			"-0.011": 0.0,
			"-0.01": 0.0,
			"-0.009": 0.0,
			"-0.008": 0.0,
			"-0.007": 0.0,
			"-0.006": 0.0,
			"-0.005": 1.10824247774,
			"-0.004": 30.1503284761,
			"-0.003": 37.7610051185,
			"-0.002": 42.5246137093,
			"-0.001": 49.1697721407,
			"0.0": 16.7173563363,
			"0.001": 13.4961118147,
			"0.002": 16.0440957419,
			"0.003": 20.3380998551,
			"0.004": 11.8677956077,
			"0.005": 7.97768653205,
			"0.006": 6.62201390079,
			"0.007": 6.17755026035,
			"0.008": 4.55073200444,
			"0.009": 3.3156495219,
			"0.01": 2.6141179332,
			"0.011": 0.384093079447,
			"0.012": 0.0,
			"0.013": 0.0,
			"0.014": 0.0,
			"0.015": 0.0,
			"0.016": 0.0,
			"0.017": 0.0,
			"0.018": 0.0,
			"0.019": 0.0,
			"0.02": 0.0,
			"0.021": 0.0,
			"0.022": 0.0,
			"0.023": 0.0,
			"0.024": 0.0,
			"0.025": 0.0
		}
	}
}
