{
	 "smiles": "COC1=CC2=C(C=C1)C=CC(=C2)C1=NN(C=C1C(O)=O)C1=CC=CC=C1", 
	 "Tm": 528.15, 
	 "num_atms": 42, 
	 "gaussian": { 
		 "optdone": 1, 
		 "sigma_profile": "yes", 
		 "theory": "DFT", 
		 "functional": "B3LYP", 
		 "basiset": "6-31G**", 
		 "properties": { 
			 "R2extent": 13387.3527, 
			 "electric_dipole_moment_norm": 4.31695287211, 
			 "electric_quadrupole_moment_norm": 18.9547615677, 
			 "total_energy": -1145.05885834, 
			 "HOMO_LUMO_gap": 0.15504, 
			 "cosmo_polarized_energy": -17.13, 
			 "cosmo_cavitation_energy": 47.07, 
			 "cosmo_dispersion_energy": -33.99, 
			 "cosmo_repulsion_energy": 2.52, 
			 "cosmo_total_nonelectrostatic_energy": 15.59, 
			 "SMD_solvation_energy": 8.88 
		},
		"coords": [
			{
				"x": -5.1995362604,
				"y": 0.9048897354,
				"z": 2.3724308461,
				"element": "C" 
			},
			{
				"x": -4.5509663918,
				"y": 0.8121305593,
				"z": 3.6298625569,
				"element": "O" 
			},
			{
				"x": -3.1917540388,
				"y": 0.6841964345,
				"z": 3.6400942981,
				"element": "C" 
			},
			{
				"x": -2.3873507049,
				"y": 0.6352297464,
				"z": 2.5200603436,
				"element": "C" 
			},
			{
				"x": -0.9757831638,
				"y": 0.4983281975,
				"z": 2.6576298788,
				"element": "C" 
			},
			{
				"x": -0.3975032853,
				"y": 0.4140122907,
				"z": 3.9637296709,
				"element": "C" 
			},
			{
				"x": -1.2619255828,
				"y": 0.4693128726,
				"z": 5.0925904653,
				"element": "C" 
			},
			{
				"x": -2.618323324,
				"y": 0.5997821961,
				"z": 4.9405276609,
				"element": "C" 
			},
			{
				"x": 1.0090750473,
				"y": 0.2816050564,
				"z": 4.0790509371,
				"element": "C" 
			},
			{
				"x": 1.8196998983,
				"y": 0.2354161594,
				"z": 2.9680922395,
				"element": "C" 
			},
			{
				"x": 1.2551529635,
				"y": 0.3176867269,
				"z": 1.6652265966,
				"element": "C" 
			},
			{
				"x": -0.1207572233,
				"y": 0.4452110915,
				"z": 1.530622086,
				"element": "C" 
			},
			{
				"x": 2.0793970707,
				"y": 0.2180129229,
				"z": 0.4420537238,
				"element": "C" 
			},
			{
				"x": 1.5175900727,
				"y": -0.3014792246,
				"z": -0.6506090166,
				"element": "N" 
			},
			{
				"x": 2.4595935357,
				"y": -0.2469481041,
				"z": -1.6303013663,
				"element": "N" 
			},
			{
				"x": 3.6177895673,
				"y": 0.2874169446,
				"z": -1.183469413,
				"element": "C" 
			},
			{
				"x": 3.4341880684,
				"y": 0.6116760012,
				"z": 0.1526084133,
				"element": "C" 
			},
			{
				"x": 4.4610306682,
				"y": 1.265740061,
				"z": 0.9684506971,
				"element": "C" 
			},
			{
				"x": 5.5801846454,
				"y": 1.5327710487,
				"z": 0.234071957,
				"element": "O" 
			},
			{
				"x": 4.396892744,
				"y": 1.564191927,
				"z": 2.1457880387,
				"element": "O" 
			},
			{
				"x": 2.1672582081,
				"y": -0.7554422961,
				"z": -2.9264053548,
				"element": "C" 
			},
			{
				"x": 2.9124508422,
				"y": -0.3344994406,
				"z": -4.0329874001,
				"element": "C" 
			},
			{
				"x": 2.6255748095,
				"y": -0.8584145353,
				"z": -5.2927956868,
				"element": "C" 
			},
			{
				"x": 1.5930815062,
				"y": -1.7833340815,
				"z": -5.4563183145,
				"element": "C" 
			},
			{
				"x": 0.8449038018,
				"y": -2.1837901681,
				"z": -4.3470659645,
				"element": "C" 
			},
			{
				"x": 1.1271610628,
				"y": -1.6779011919,
				"z": -3.0798593554,
				"element": "C" 
			},
			{
				"x": -4.8630199642,
				"y": 1.7846966752,
				"z": 1.8085713945,
				"element": "H" 
			},
			{
				"x": -6.2651805547,
				"y": 1.000365473,
				"z": 2.58680619,
				"element": "H" 
			},
			{
				"x": -5.0312960346,
				"y": 0.0065769526,
				"z": 1.7641366187,
				"element": "H" 
			},
			{
				"x": -2.8038749116,
				"y": 0.6979096234,
				"z": 1.5212308346,
				"element": "H" 
			},
			{
				"x": -0.8303130065,
				"y": 0.4062375164,
				"z": 6.0881739534,
				"element": "H" 
			},
			{
				"x": -3.2865903146,
				"y": 0.6428018476,
				"z": 5.7944484333,
				"element": "H" 
			},
			{
				"x": 1.448486191,
				"y": 0.2155741247,
				"z": 5.0712400858,
				"element": "H" 
			},
			{
				"x": 2.891834169,
				"y": 0.1526332649,
				"z": 3.0803284498,
				"element": "H" 
			},
			{
				"x": -0.5514743991,
				"y": 0.5051403737,
				"z": 0.5362603692,
				"element": "H" 
			},
			{
				"x": 4.4941202622,
				"y": 0.3913925068,
				"z": -1.8021602378,
				"element": "H" 
			},
			{
				"x": 6.1976956327,
				"y": 1.9551718014,
				"z": 0.8531113077,
				"element": "H" 
			},
			{
				"x": 3.6939079771,
				"y": 0.4094409962,
				"z": -3.9210043759,
				"element": "H" 
			},
			{
				"x": 3.2054244601,
				"y": -0.5293932188,
				"z": -6.1498504968,
				"element": "H" 
			},
			{
				"x": 1.3703001589,
				"y": -2.1841850131,
				"z": -6.4403126338,
				"element": "H" 
			},
			{
				"x": 0.0378773493,
				"y": -2.90080657,
				"z": -4.4646692851,
				"element": "H" 
			},
			{
				"x": 0.5595784481,
				"y": -1.979857284,
				"z": -2.2084891449,
				"element": "H" 
			}
		],
		 "valence_orbital": [ 
			{
				"type": "occ",
				"energy": -0.26773,
				"method": "rhf"
			},
			{
				"type": "occ",
				"energy": -0.26323,
				"method": "rhf"
			},
			{
				"type": "occ",
				"energy": -0.24239,
				"method": "rhf"
			},
			{
				"type": "occ",
				"energy": -0.21229,
				"method": "rhf"
			},
			{
				"type": "occ",
				"energy": -0.19862,
				"method": "rhf"
			},
			{
				"type": "unocc",
				"energy": -0.04358,
				"method": "rhf"
			},
			{
				"type": "unocc",
				"energy": -0.04037,
				"method": "rhf"
			},
			{
				"type": "unocc",
				"energy": -0.01598,
				"method": "rhf"
			},
			{
				"type": "unocc",
				"energy": -0.00946,
				"method": "rhf"
			},
			{
				"type": "unocc",
				"energy": 0.01003,
				"method": "rhf"
			}
		],
		"cosmo_sigma_profile": { 
			"-0.025": 0.0,
			"-0.024": 0.0,
			"-0.023": 0.0,
			"-0.022": 0.0,
			"-0.021": 0.0,
			"-0.02": 0.0,
			"-0.019": 0.0,
			"-0.018": 0.642928989347,
			"-0.017": 1.05814597961,
			"-0.016": 0.537235239131,
			"-0.015": 0.683647478985,
			"-0.014": 1.14595961087,
			"-0.013": 0.341110069544,
			"-0.012": 0.469602864337,
			"-0.011": 1.44898588222,
			"-0.01": 2.88596756683,
			"-0.009": 2.65903817558,
			"-0.008": 2.56785691049,
			"-0.007": 4.62881880902,
			"-0.006": 22.1381741889,
			"-0.005": 29.647220024,
			"-0.004": 26.8075123522,
			"-0.003": 25.8203142422,
			"-0.002": 25.3171859287,
			"-0.001": 22.6724655749,
			"0.0": 25.3027308724,
			"0.001": 27.1543017589,
			"0.002": 25.072857818,
			"0.003": 30.3375878238,
			"0.004": 43.2186157391,
			"0.005": 20.8619418856,
			"0.006": 7.04439550554,
			"0.007": 7.76103676465,
			"0.008": 5.74623487464,
			"0.009": 4.74780808409,
			"0.01": 3.69843996951,
			"0.011": 3.55909321842,
			"0.012": 2.16595987731,
			"0.013": 0.0728744992191,
			"0.014": 0.0,
			"0.015": 0.0,
			"0.016": 0.0,
			"0.017": 0.0,
			"0.018": 0.0,
			"0.019": 0.0,
			"0.02": 0.0,
			"0.021": 0.0,
			"0.022": 0.0,
			"0.023": 0.0,
			"0.024": 0.0,
			"0.025": 0.0
		}
	}
}
