{
	 "smiles": "BrCC(Br)C1=CC(=CC=C1)C(Br)CBr", 
	 "Tm": 338.15, 
	 "num_atms": 24, 
	 "gaussian": { 
		 "optdone": 1, 
		 "sigma_profile": "yes", 
		 "theory": "DFT", 
		 "functional": "B3LYP", 
		 "basiset": "6-31G**", 
		 "properties": { 
			 "R2extent": 10894.338, 
			 "electric_dipole_moment_norm": 4.35185412095, 
			 "electric_quadrupole_moment_norm": 14.6355904449, 
			 "total_energy": -10672.7201046, 
			 "HOMO_LUMO_gap": 0.20915, 
			 "cosmo_polarized_energy": -14.78, 
			 "cosmo_cavitation_energy": 36.72, 
			 "cosmo_dispersion_energy": -26.35, 
			 "cosmo_repulsion_energy": 2.13, 
			 "cosmo_total_nonelectrostatic_energy": 12.5, 
			 "SMD_solvation_energy": 1.23 
		},
		"coords": [
			{
				"x": 2.8504588337,
				"y": 3.2551851728,
				"z": 0.5592196217,
				"element": "Br" 
			},
			{
				"x": 1.3035930882,
				"y": 2.050081721,
				"z": 0.3793358654,
				"element": "C" 
			},
			{
				"x": 0.8964010769,
				"y": 1.3852808401,
				"z": 1.6892202624,
				"element": "C" 
			},
			{
				"x": 2.3115605602,
				"y": 0.114416267,
				"z": 2.291942156,
				"element": "Br" 
			},
			{
				"x": -0.4360845452,
				"y": 0.6849633786,
				"z": 1.5566404507,
				"element": "C" 
			},
			{
				"x": -0.6102715165,
				"y": -0.4011370597,
				"z": 0.6916925768,
				"element": "C" 
			},
			{
				"x": -1.8657556338,
				"y": -0.998137385,
				"z": 0.5321783361,
				"element": "C" 
			},
			{
				"x": -2.9561581581,
				"y": -0.5006570179,
				"z": 1.2586483519,
				"element": "C" 
			},
			{
				"x": -2.7902626928,
				"y": 0.5760322562,
				"z": 2.1285415903,
				"element": "C" 
			},
			{
				"x": -1.5373882624,
				"y": 1.1695500703,
				"z": 2.2753410784,
				"element": "C" 
			},
			{
				"x": -2.0865420189,
				"y": -2.1267264452,
				"z": -0.4481581906,
				"element": "C" 
			},
			{
				"x": -0.9153486349,
				"y": -3.6833519564,
				"z": -0.0168352056,
				"element": "Br" 
			},
			{
				"x": -1.8506376133,
				"y": -1.666831873,
				"z": -1.8821782855,
				"element": "C" 
			},
			{
				"x": -2.4385917556,
				"y": -2.9745744836,
				"z": -3.2317467589,
				"element": "Br" 
			},
			{
				"x": 0.4858934555,
				"y": 2.6784062154,
				"z": 0.0226194684,
				"element": "H" 
			},
			{
				"x": 1.5680379207,
				"y": 1.3217317807,
				"z": -0.3857765578,
				"element": "H" 
			},
			{
				"x": 0.8554605768,
				"y": 2.1277264818,
				"z": 2.4853879089,
				"element": "H" 
			},
			{
				"x": 0.2507207475,
				"y": -0.8211794828,
				"z": 0.1802496641,
				"element": "H" 
			},
			{
				"x": -3.9331199947,
				"y": -0.9635813032,
				"z": 1.1494153323,
				"element": "H" 
			},
			{
				"x": -3.6366350321,
				"y": 0.948783008,
				"z": 2.6972726107,
				"element": "H" 
			},
			{
				"x": -1.4105248148,
				"y": 2.0061127629,
				"z": 2.9570694283,
				"element": "H" 
			},
			{
				"x": -3.0961679574,
				"y": -2.5231349935,
				"z": -0.3467455941,
				"element": "H" 
			},
			{
				"x": -0.798498109,
				"y": -1.4697866943,
				"z": -2.0822581856,
				"element": "H" 
			},
			{
				"x": -2.43693952,
				"y": -0.7669712604,
				"z": -2.0749759245,
				"element": "H" 
			}
		],
		 "valence_orbital": [ 
			{
				"type": "occ",
				"energy": -0.28193,
				"method": "rhf"
			},
			{
				"type": "occ",
				"energy": -0.27918,
				"method": "rhf"
			},
			{
				"type": "occ",
				"energy": -0.27791,
				"method": "rhf"
			},
			{
				"type": "occ",
				"energy": -0.26489,
				"method": "rhf"
			},
			{
				"type": "occ",
				"energy": -0.26377,
				"method": "rhf"
			},
			{
				"type": "unocc",
				"energy": -0.05462,
				"method": "rhf"
			},
			{
				"type": "unocc",
				"energy": -0.04971,
				"method": "rhf"
			},
			{
				"type": "unocc",
				"energy": -0.01112,
				"method": "rhf"
			},
			{
				"type": "unocc",
				"energy": -0.00161,
				"method": "rhf"
			},
			{
				"type": "unocc",
				"energy": 0.00306,
				"method": "rhf"
			}
		],
		"cosmo_sigma_profile": { 
			"-0.025": 0.0,
			"-0.024": 0.0,
			"-0.023": 0.0,
			"-0.022": 0.0,
			"-0.021": 0.0,
			"-0.02": 0.0,
			"-0.019": 0.0,
			"-0.018": 0.0,
			"-0.017": 0.0,
			"-0.016": 0.0,
			"-0.015": 0.0,
			"-0.014": 0.0,
			"-0.013": 0.0,
			"-0.012": 0.0,
			"-0.011": 0.0,
			"-0.01": 0.0175759709945,
			"-0.009": 4.85937953341,
			"-0.008": 16.2963742088,
			"-0.007": 17.1215258404,
			"-0.006": 17.2629474071,
			"-0.005": 16.5090427894,
			"-0.004": 13.5362804428,
			"-0.003": 14.4469006402,
			"-0.002": 15.316942767,
			"-0.001": 16.4777560131,
			"0.0": 15.3019580419,
			"0.001": 16.7757573468,
			"0.002": 20.0560015906,
			"0.003": 25.9951414932,
			"0.004": 26.8297785381,
			"0.005": 32.801357428,
			"0.006": 26.9349570689,
			"0.007": 6.80790641258,
			"0.008": 0.892782932792,
			"0.009": 0.0,
			"0.01": 0.0,
			"0.011": 0.0,
			"0.012": 0.0,
			"0.013": 0.0,
			"0.014": 0.0,
			"0.015": 0.0,
			"0.016": 0.0,
			"0.017": 0.0,
			"0.018": 0.0,
			"0.019": 0.0,
			"0.02": 0.0,
			"0.021": 0.0,
			"0.022": 0.0,
			"0.023": 0.0,
			"0.024": 0.0,
			"0.025": 0.0
		}
	}
}
