{
	 "smiles": "CCCCCC=CCC=CCCCCCCCC(O)=O", 
	 "Tm": 268.15, 
	 "num_atms": 52, 
	 "gaussian": { 
		 "optdone": 1, 
		 "sigma_profile": "yes", 
		 "theory": "DFT", 
		 "functional": "B3LYP", 
		 "basiset": "6-31G**", 
		 "properties": { 
			 "R2extent": 13248.2614, 
			 "electric_dipole_moment_norm": 1.33966767521, 
			 "electric_quadrupole_moment_norm": 11.9012128844, 
			 "total_energy": -855.658404367, 
			 "HOMO_LUMO_gap": 0.24241, 
			 "cosmo_polarized_energy": -9.82, 
			 "cosmo_cavitation_energy": 52.85, 
			 "cosmo_dispersion_energy": -33.95, 
			 "cosmo_repulsion_energy": 2.76, 
			 "cosmo_total_nonelectrostatic_energy": 21.65, 
			 "SMD_solvation_energy": 8.53 
		},
		"coords": [
			{
				"x": 1.421756133,
				"y": -3.4101047231,
				"z": 1.3965782267,
				"element": "C" 
			},
			{
				"x": 1.2228746281,
				"y": -4.565437008,
				"z": 0.4088450574,
				"element": "C" 
			},
			{
				"x": 2.2653224904,
				"y": -4.616616719,
				"z": -0.7233323952,
				"element": "C" 
			},
			{
				"x": 2.3153432825,
				"y": -3.4237540405,
				"z": -1.6967088972,
				"element": "C" 
			},
			{
				"x": 1.1938794096,
				"y": -3.350267542,
				"z": -2.763489949,
				"element": "C" 
			},
			{
				"x": -0.1861464678,
				"y": -3.0045094836,
				"z": -2.2564259033,
				"element": "C" 
			},
			{
				"x": -0.7503163359,
				"y": -1.7903745453,
				"z": -2.2085736797,
				"element": "C" 
			},
			{
				"x": -0.1516881231,
				"y": -0.4824868523,
				"z": -2.6530485037,
				"element": "C" 
			},
			{
				"x": 0.0035149924,
				"y": 0.5584864515,
				"z": -1.5643259196,
				"element": "C" 
			},
			{
				"x": -0.159457949,
				"y": 0.3691466337,
				"z": -0.2514946579,
				"element": "C" 
			},
			{
				"x": 0.0125613714,
				"y": 1.4286073421,
				"z": 0.8041058405,
				"element": "C" 
			},
			{
				"x": -1.2677036826,
				"y": 1.6765562128,
				"z": 1.6369669325,
				"element": "C" 
			},
			{
				"x": -2.4562691579,
				"y": 2.2887498371,
				"z": 0.8643547043,
				"element": "C" 
			},
			{
				"x": -2.5555914627,
				"y": 3.824745849,
				"z": 0.8897687906,
				"element": "C" 
			},
			{
				"x": -1.4057584057,
				"y": 4.5876818686,
				"z": 0.2176374963,
				"element": "C" 
			},
			{
				"x": -1.6530461986,
				"y": 6.1021367423,
				"z": 0.172755456,
				"element": "C" 
			},
			{
				"x": -0.5068979697,
				"y": 6.8989768963,
				"z": -0.4575132777,
				"element": "C" 
			},
			{
				"x": -0.3760873272,
				"y": 6.6953307419,
				"z": -1.9526107266,
				"element": "C" 
			},
			{
				"x": 0.7758196739,
				"y": 7.2316752581,
				"z": -2.4279865752,
				"element": "O" 
			},
			{
				"x": -1.1817980355,
				"y": 6.1505334661,
				"z": -2.6760044189,
				"element": "O" 
			},
			{
				"x": 2.4266233335,
				"y": -3.4325582195,
				"z": 1.8351508139,
				"element": "H" 
			},
			{
				"x": 0.7004583037,
				"y": -3.468101863,
				"z": 2.2187190664,
				"element": "H" 
			},
			{
				"x": 1.2915710475,
				"y": -2.4360998608,
				"z": 0.9144308866,
				"element": "H" 
			},
			{
				"x": 1.2748709764,
				"y": -5.5148018223,
				"z": 0.9580956816,
				"element": "H" 
			},
			{
				"x": 0.2110367039,
				"y": -4.5142832734,
				"z": -0.0079910489,
				"element": "H" 
			},
			{
				"x": 2.1157618563,
				"y": -5.5371114485,
				"z": -1.3051591484,
				"element": "H" 
			},
			{
				"x": 3.2572583084,
				"y": -4.7156701358,
				"z": -0.2603028489,
				"element": "H" 
			},
			{
				"x": 3.2682289337,
				"y": -3.4802343779,
				"z": -2.2391690294,
				"element": "H" 
			},
			{
				"x": 2.3409125973,
				"y": -2.4786833454,
				"z": -1.141165306,
				"element": "H" 
			},
			{
				"x": 1.1475405484,
				"y": -4.3164940362,
				"z": -3.2844963192,
				"element": "H" 
			},
			{
				"x": 1.5021768924,
				"y": -2.6167822782,
				"z": -3.5170900101,
				"element": "H" 
			},
			{
				"x": -0.7848333199,
				"y": -3.8420822989,
				"z": -1.9006691152,
				"element": "H" 
			},
			{
				"x": -1.7622376564,
				"y": -1.7161002997,
				"z": -1.8100475107,
				"element": "H" 
			},
			{
				"x": 0.8240617868,
				"y": -0.6400222707,
				"z": -3.1308052012,
				"element": "H" 
			},
			{
				"x": -0.790317312,
				"y": -0.050165014,
				"z": -3.4400472648,
				"element": "H" 
			},
			{
				"x": 0.2854486092,
				"y": 1.5519189958,
				"z": -1.9177821538,
				"element": "H" 
			},
			{
				"x": -0.4434226388,
				"y": -0.6212427586,
				"z": 0.1072893147,
				"element": "H" 
			},
			{
				"x": 0.3549883444,
				"y": 2.3589037975,
				"z": 0.3381124925,
				"element": "H" 
			},
			{
				"x": 0.8083293941,
				"y": 1.116404717,
				"z": 1.4963635805,
				"element": "H" 
			},
			{
				"x": -1.0183424438,
				"y": 2.3157306378,
				"z": 2.4948734449,
				"element": "H" 
			},
			{
				"x": -1.5766548912,
				"y": 0.7136563369,
				"z": 2.0644293184,
				"element": "H" 
			},
			{
				"x": -3.3889483705,
				"y": 1.895637328,
				"z": 1.2878664138,
				"element": "H" 
			},
			{
				"x": -2.4295823409,
				"y": 1.9382096421,
				"z": -0.175613267,
				"element": "H" 
			},
			{
				"x": -3.4955567234,
				"y": 4.1141729314,
				"z": 0.3998724532,
				"element": "H" 
			},
			{
				"x": -2.6453889128,
				"y": 4.1594083002,
				"z": 1.9338707791,
				"element": "H" 
			},
			{
				"x": -1.2685204583,
				"y": 4.216795194,
				"z": -0.805280437,
				"element": "H" 
			},
			{
				"x": -0.466401612,
				"y": 4.3976518841,
				"z": 0.7541120611,
				"element": "H" 
			},
			{
				"x": -1.8131987652,
				"y": 6.4756059554,
				"z": 1.1921617825,
				"element": "H" 
			},
			{
				"x": -2.5733046661,
				"y": 6.3043361284,
				"z": -0.3871298457,
				"element": "H" 
			},
			{
				"x": -0.6478257995,
				"y": 7.9769394579,
				"z": -0.3021079747,
				"element": "H" 
			},
			{
				"x": 0.4575881616,
				"y": 6.6593807455,
				"z": 0.0059477461,
				"element": "H" 
			},
			{
				"x": 0.7647692477,
				"y": 7.0816048649,
				"z": -3.3883369544,
				"element": "H" 
			}
		],
		 "valence_orbital": [ 
			{
				"type": "occ",
				"energy": -0.30175,
				"method": "rhf"
			},
			{
				"type": "occ",
				"energy": -0.30131,
				"method": "rhf"
			},
			{
				"type": "occ",
				"energy": -0.27375,
				"method": "rhf"
			},
			{
				"type": "occ",
				"energy": -0.24067,
				"method": "rhf"
			},
			{
				"type": "occ",
				"energy": -0.2316,
				"method": "rhf"
			},
			{
				"type": "unocc",
				"energy": 0.01081,
				"method": "rhf"
			},
			{
				"type": "unocc",
				"energy": 0.02367,
				"method": "rhf"
			},
			{
				"type": "unocc",
				"energy": 0.03131,
				"method": "rhf"
			},
			{
				"type": "unocc",
				"energy": 0.07995,
				"method": "rhf"
			},
			{
				"type": "unocc",
				"energy": 0.08678,
				"method": "rhf"
			}
		],
		"cosmo_sigma_profile": { 
			"-0.025": 0.0,
			"-0.024": 0.0,
			"-0.023": 0.0,
			"-0.022": 0.0,
			"-0.021": 0.0,
			"-0.02": 0.0,
			"-0.019": 0.0,
			"-0.018": 0.39894519505,
			"-0.017": 0.958983230806,
			"-0.016": 0.723422078072,
			"-0.015": 0.968315265921,
			"-0.014": 0.737696496505,
			"-0.013": 0.159307636301,
			"-0.012": 0.998316298767,
			"-0.011": 0.905052932308,
			"-0.01": 0.798714749204,
			"-0.009": 0.717648534971,
			"-0.008": 0.217518828243,
			"-0.007": 1.07260595127,
			"-0.006": 3.79772947557,
			"-0.005": 4.61528233431,
			"-0.004": 12.583519517,
			"-0.003": 26.0661074549,
			"-0.002": 60.6251208865,
			"-0.001": 77.3365497281,
			"0.0": 70.522262411,
			"0.001": 55.967036951,
			"0.002": 29.3839433438,
			"0.003": 13.5672575032,
			"0.004": 10.7919775493,
			"0.005": 7.01118526977,
			"0.006": 4.99041668855,
			"0.007": 3.97669525562,
			"0.008": 4.01309477538,
			"0.009": 2.46119787648,
			"0.01": 3.45566434103,
			"0.011": 2.63666543827,
			"0.012": 4.6673165919,
			"0.013": 0.863914288816,
			"0.014": 0.0,
			"0.015": 0.0,
			"0.016": 0.0,
			"0.017": 0.0,
			"0.018": 0.0,
			"0.019": 0.0,
			"0.02": 0.0,
			"0.021": 0.0,
			"0.022": 0.0,
			"0.023": 0.0,
			"0.024": 0.0,
			"0.025": 0.0
		}
	}
}
