{
	 "smiles": "CCN1CCN(CC1)C1=C(N)C=CC=C1", 
	 "Tm": 314.15, 
	 "num_atms": 34, 
	 "gaussian": { 
		 "optdone": 1, 
		 "sigma_profile": "yes", 
		 "theory": "DFT", 
		 "functional": "B3LYP", 
		 "basiset": "6-31G**", 
		 "properties": { 
			 "R2extent": 4838.4676, 
			 "electric_dipole_moment_norm": 0.696492778139, 
			 "electric_quadrupole_moment_norm": 10.5626933975, 
			 "total_energy": -632.972811761, 
			 "HOMO_LUMO_gap": 0.19934, 
			 "cosmo_polarized_energy": -8.7, 
			 "cosmo_cavitation_energy": 33.68, 
			 "cosmo_dispersion_energy": -24.48, 
			 "cosmo_repulsion_energy": 1.91, 
			 "cosmo_total_nonelectrostatic_energy": 11.11, 
			 "SMD_solvation_energy": 2.48 
		},
		"coords": [
			{
				"x": 0.3661125619,
				"y": 3.2891388936,
				"z": -1.9606312076,
				"element": "C" 
			},
			{
				"x": -0.6982034792,
				"y": 2.4478037007,
				"z": -1.2515975678,
				"element": "C" 
			},
			{
				"x": -0.23895935,
				"y": 1.9496369745,
				"z": 0.0502641633,
				"element": "N" 
			},
			{
				"x": -1.3105045018,
				"y": 1.6065493828,
				"z": 0.9878860592,
				"element": "C" 
			},
			{
				"x": -1.9699258951,
				"y": 0.2451017839,
				"z": 0.7239508963,
				"element": "C" 
			},
			{
				"x": -0.9358700758,
				"y": -0.8093339825,
				"z": 0.7027450073,
				"element": "N" 
			},
			{
				"x": 0.084135442,
				"y": -0.5205667958,
				"z": -0.3081515801,
				"element": "C" 
			},
			{
				"x": 0.7243698066,
				"y": 0.8463946804,
				"z": -0.0138691084,
				"element": "C" 
			},
			{
				"x": -1.4613805582,
				"y": -2.1401566874,
				"z": 0.7210807647,
				"element": "C" 
			},
			{
				"x": -1.9071692158,
				"y": -2.6427059627,
				"z": 1.9707782365,
				"element": "C" 
			},
			{
				"x": -1.8430044453,
				"y": -1.8152494899,
				"z": 3.0957104143,
				"element": "N" 
			},
			{
				"x": -2.4267331119,
				"y": -3.9417782309,
				"z": 2.0386470163,
				"element": "C" 
			},
			{
				"x": -2.4904193249,
				"y": -4.7466920615,
				"z": 0.9012738948,
				"element": "C" 
			},
			{
				"x": -2.0317102536,
				"y": -4.2656700754,
				"z": -0.3238155302,
				"element": "C" 
			},
			{
				"x": -1.5269501017,
				"y": -2.9648240016,
				"z": -0.4055131087,
				"element": "C" 
			},
			{
				"x": 0.6930280324,
				"y": 4.1103690778,
				"z": -1.3163194944,
				"element": "H" 
			},
			{
				"x": -0.0381549563,
				"y": 3.7087759901,
				"z": -2.8879924829,
				"element": "H" 
			},
			{
				"x": 1.2484299088,
				"y": 2.6991062719,
				"z": -2.2288123953,
				"element": "H" 
			},
			{
				"x": -1.5725191981,
				"y": 3.080707674,
				"z": -1.0605174432,
				"element": "H" 
			},
			{
				"x": -1.044618269,
				"y": 1.649127837,
				"z": -1.932064479,
				"element": "H" 
			},
			{
				"x": -2.0678491204,
				"y": 2.3978624624,
				"z": 0.9710572577,
				"element": "H" 
			},
			{
				"x": -0.878440856,
				"y": 1.5871143588,
				"z": 1.9984121805,
				"element": "H" 
			},
			{
				"x": -2.5262864472,
				"y": 0.2634183065,
				"z": -0.2305202663,
				"element": "H" 
			},
			{
				"x": -2.6855496835,
				"y": 0.0172235712,
				"z": 1.5188891498,
				"element": "H" 
			},
			{
				"x": 0.8461288142,
				"y": -1.3063136966,
				"z": -0.2731447602,
				"element": "H" 
			},
			{
				"x": -0.3355411814,
				"y": -0.5170881746,
				"z": -1.3308320507,
				"element": "H" 
			},
			{
				"x": 1.2342403246,
				"y": 0.7851921618,
				"z": 0.9566814403,
				"element": "H" 
			},
			{
				"x": 1.485599173,
				"y": 1.0681519189,
				"z": -0.767846541,
				"element": "H" 
			},
			{
				"x": -1.0974623777,
				"y": -1.131260187,
				"z": 3.011765093,
				"element": "H" 
			},
			{
				"x": -1.8129928136,
				"y": -2.3133606858,
				"z": 3.9757405432,
				"element": "H" 
			},
			{
				"x": -2.767848253,
				"y": -4.3241462114,
				"z": 2.9980962532,
				"element": "H" 
			},
			{
				"x": -2.8888345136,
				"y": -5.7542643257,
				"z": 0.9804697858,
				"element": "H" 
			},
			{
				"x": -2.0706438379,
				"y": -4.889165092,
				"z": -1.2118469728,
				"element": "H" 
			},
			{
				"x": -1.1780722429,
				"y": -2.5876993854,
				"z": -1.3615731677,
				"element": "H" 
			}
		],
		 "valence_orbital": [ 
			{
				"type": "occ",
				"energy": -0.29845,
				"method": "rhf"
			},
			{
				"type": "occ",
				"energy": -0.25519,
				"method": "rhf"
			},
			{
				"type": "occ",
				"energy": -0.21949,
				"method": "rhf"
			},
			{
				"type": "occ",
				"energy": -0.19983,
				"method": "rhf"
			},
			{
				"type": "occ",
				"energy": -0.18642,
				"method": "rhf"
			},
			{
				"type": "unocc",
				"energy": 0.01292,
				"method": "rhf"
			},
			{
				"type": "unocc",
				"energy": 0.02489,
				"method": "rhf"
			},
			{
				"type": "unocc",
				"energy": 0.07918,
				"method": "rhf"
			},
			{
				"type": "unocc",
				"energy": 0.08984,
				"method": "rhf"
			},
			{
				"type": "unocc",
				"energy": 0.10191,
				"method": "rhf"
			}
		],
		"cosmo_sigma_profile": { 
			"-0.025": 0.0,
			"-0.024": 0.0,
			"-0.023": 0.0,
			"-0.022": 0.0,
			"-0.021": 0.0,
			"-0.02": 0.0,
			"-0.019": 0.0,
			"-0.018": 0.0,
			"-0.017": 0.0,
			"-0.016": 0.0,
			"-0.015": 0.0,
			"-0.014": 0.0,
			"-0.013": 0.0,
			"-0.012": 0.715255689867,
			"-0.011": 1.31895796407,
			"-0.01": 1.2631183444,
			"-0.009": 2.20361528015,
			"-0.008": 2.76326553018,
			"-0.007": 2.2055814998,
			"-0.006": 2.63497297231,
			"-0.005": 7.13897369171,
			"-0.004": 17.8327620496,
			"-0.003": 30.2645806796,
			"-0.002": 40.9473269919,
			"-0.001": 34.4392838395,
			"0.0": 25.8461175776,
			"0.001": 18.11037086,
			"0.002": 12.8418436186,
			"0.003": 9.94086506785,
			"0.004": 9.53251897175,
			"0.005": 10.1361749637,
			"0.006": 9.68943691908,
			"0.007": 9.26739016204,
			"0.008": 5.09836103841,
			"0.009": 1.74519471133,
			"0.01": 1.3219020405,
			"0.011": 1.09286779302,
			"0.012": 1.39277547526,
			"0.013": 1.07830197902,
			"0.014": 0.766657689057,
			"0.015": 0.496201277888,
			"0.016": 0.241996846087,
			"0.017": 0.0697771374554,
			"0.018": 0.0,
			"0.019": 0.0,
			"0.02": 0.0,
			"0.021": 0.0,
			"0.022": 0.0,
			"0.023": 0.0,
			"0.024": 0.0,
			"0.025": 0.0
		}
	}
}
