{
	 "smiles": "COC1=CC=C(C=C1)C(N)CN1CCN(C)CC1", 
	 "Tm": 356.15, 
	 "num_atms": 41, 
	 "gaussian": { 
		 "optdone": 1, 
		 "sigma_profile": "yes", 
		 "theory": "DFT", 
		 "functional": "B3LYP", 
		 "basiset": "6-31G**", 
		 "properties": { 
			 "R2extent": 6604.9667, 
			 "electric_dipole_moment_norm": 2.40924041764, 
			 "electric_quadrupole_moment_norm": 9.35068708492, 
			 "total_energy": -786.783811558, 
			 "HOMO_LUMO_gap": 0.19666, 
			 "cosmo_polarized_energy": -10.85, 
			 "cosmo_cavitation_energy": 40.55, 
			 "cosmo_dispersion_energy": -28.3, 
			 "cosmo_repulsion_energy": 2.19, 
			 "cosmo_total_nonelectrostatic_energy": 14.45, 
			 "SMD_solvation_energy": 2.73 
		},
		"coords": [
			{
				"x": 2.9709553151,
				"y": 2.4260660492,
				"z": -4.6455686989,
				"element": "C" 
			},
			{
				"x": 3.2962045102,
				"y": 2.3482294027,
				"z": -3.2682590746,
				"element": "O" 
			},
			{
				"x": 2.8234962544,
				"y": 1.2830762504,
				"z": -2.5533462667,
				"element": "C" 
			},
			{
				"x": 3.178340457,
				"y": 1.2503831558,
				"z": -1.1976110673,
				"element": "C" 
			},
			{
				"x": 2.7495763554,
				"y": 0.205153273,
				"z": -0.3866394052,
				"element": "C" 
			},
			{
				"x": 1.9531487799,
				"y": -0.8342189892,
				"z": -0.8912341834,
				"element": "C" 
			},
			{
				"x": 1.6177511347,
				"y": -0.7880485931,
				"z": -2.247986102,
				"element": "C" 
			},
			{
				"x": 2.0380058445,
				"y": 0.2518321703,
				"z": -3.0815490035,
				"element": "C" 
			},
			{
				"x": 1.4438618867,
				"y": -1.9790252181,
				"z": -0.013189288,
				"element": "C" 
			},
			{
				"x": 2.2504849881,
				"y": -2.2998497221,
				"z": 1.1628719938,
				"element": "N" 
			},
			{
				"x": -0.012462699,
				"y": -1.7617785147,
				"z": 0.4782926792,
				"element": "C" 
			},
			{
				"x": -0.1320752998,
				"y": -0.6976640043,
				"z": 1.4746296239,
				"element": "N" 
			},
			{
				"x": -0.7817769477,
				"y": -1.0566186169,
				"z": 2.749684925,
				"element": "C" 
			},
			{
				"x": -2.1903303262,
				"y": -0.4741774755,
				"z": 2.8800910863,
				"element": "C" 
			},
			{
				"x": -2.1304749978,
				"y": 0.9907818319,
				"z": 2.8922368892,
				"element": "N" 
			},
			{
				"x": -3.4261211669,
				"y": 1.5829366265,
				"z": 2.6059549674,
				"element": "C" 
			},
			{
				"x": -1.0279053654,
				"y": 1.5163211501,
				"z": 2.0647831419,
				"element": "C" 
			},
			{
				"x": -0.6227705594,
				"y": 0.5761229216,
				"z": 0.927380795,
				"element": "C" 
			},
			{
				"x": 3.4385474479,
				"y": 3.3399233154,
				"z": -5.0159295797,
				"element": "H" 
			},
			{
				"x": 3.3651041967,
				"y": 1.5680306731,
				"z": -5.2059997225,
				"element": "H" 
			},
			{
				"x": 1.8862188164,
				"y": 2.4871812678,
				"z": -4.8048187172,
				"element": "H" 
			},
			{
				"x": 3.7951353694,
				"y": 2.0525776029,
				"z": -0.8048037962,
				"element": "H" 
			},
			{
				"x": 3.0419160672,
				"y": 0.1941412363,
				"z": 0.6590343883,
				"element": "H" 
			},
			{
				"x": 1.0145174053,
				"y": -1.5867732738,
				"z": -2.6754461118,
				"element": "H" 
			},
			{
				"x": 1.7577242124,
				"y": 0.2422007535,
				"z": -4.1284699955,
				"element": "H" 
			},
			{
				"x": 1.4091278334,
				"y": -2.8758838661,
				"z": -0.6490961613,
				"element": "H" 
			},
			{
				"x": 2.1160787864,
				"y": -1.5570041694,
				"z": 1.8465984284,
				"element": "H" 
			},
			{
				"x": 3.2387020137,
				"y": -2.3214786233,
				"z": 0.9250267217,
				"element": "H" 
			},
			{
				"x": -0.6595800596,
				"y": -1.5690978497,
				"z": -0.3921123251,
				"element": "H" 
			},
			{
				"x": -0.3333195263,
				"y": -2.7102119468,
				"z": 0.9221657151,
				"element": "H" 
			},
			{
				"x": -0.1789634813,
				"y": -0.6944502757,
				"z": 3.5945579925,
				"element": "H" 
			},
			{
				"x": -0.819049857,
				"y": -2.1458397905,
				"z": 2.8379560063,
				"element": "H" 
			},
			{
				"x": -2.812234236,
				"y": -0.8563590908,
				"z": 2.0459472409,
				"element": "H" 
			},
			{
				"x": -2.6610286606,
				"y": -0.8246638589,
				"z": 3.8088898968,
				"element": "H" 
			},
			{
				"x": -3.8117864272,
				"y": 1.3550231355,
				"z": 1.5920746123,
				"element": "H" 
			},
			{
				"x": -4.1633125381,
				"y": 1.2115835976,
				"z": 3.3269134428,
				"element": "H" 
			},
			{
				"x": -3.3761429076,
				"y": 2.6710310813,
				"z": 2.7148026555,
				"element": "H" 
			},
			{
				"x": -1.3238450882,
				"y": 2.4839851271,
				"z": 1.6480588613,
				"element": "H" 
			},
			{
				"x": -0.1483361922,
				"y": 1.7007970805,
				"z": 2.697015168,
				"element": "H" 
			},
			{
				"x": -1.491759444,
				"y": 0.418402964,
				"z": 0.2598523927,
				"element": "H" 
			},
			{
				"x": 0.1590781052,
				"y": 1.0415632122,
				"z": 0.3185398748,
				"element": "H" 
			}
		],
		 "valence_orbital": [ 
			{
				"type": "occ",
				"energy": -0.24745,
				"method": "rhf"
			},
			{
				"type": "occ",
				"energy": -0.23315,
				"method": "rhf"
			},
			{
				"type": "occ",
				"energy": -0.20921,
				"method": "rhf"
			},
			{
				"type": "occ",
				"energy": -0.19939,
				"method": "rhf"
			},
			{
				"type": "occ",
				"energy": -0.19644,
				"method": "rhf"
			},
			{
				"type": "unocc",
				"energy": 0.00022,
				"method": "rhf"
			},
			{
				"type": "unocc",
				"energy": 0.0159,
				"method": "rhf"
			},
			{
				"type": "unocc",
				"energy": 0.08,
				"method": "rhf"
			},
			{
				"type": "unocc",
				"energy": 0.09404,
				"method": "rhf"
			},
			{
				"type": "unocc",
				"energy": 0.10151,
				"method": "rhf"
			}
		],
		"cosmo_sigma_profile": { 
			"-0.025": 0.0,
			"-0.024": 0.0,
			"-0.023": 0.0,
			"-0.022": 0.0,
			"-0.021": 0.0,
			"-0.02": 0.0,
			"-0.019": 0.0,
			"-0.018": 0.0,
			"-0.017": 0.0,
			"-0.016": 0.0,
			"-0.015": 0.0,
			"-0.014": 0.0,
			"-0.013": 0.0,
			"-0.012": 0.0,
			"-0.011": 0.0,
			"-0.01": 0.0732843213698,
			"-0.009": 0.731923083407,
			"-0.008": 1.32940513653,
			"-0.007": 1.72176345566,
			"-0.006": 7.05491803147,
			"-0.005": 19.1270306333,
			"-0.004": 25.3941899022,
			"-0.003": 35.8090500512,
			"-0.002": 40.8177920064,
			"-0.001": 48.1623286895,
			"0.0": 33.4371810079,
			"0.001": 17.5823995186,
			"0.002": 12.2245779153,
			"0.003": 12.8897882954,
			"0.004": 14.5735284107,
			"0.005": 11.4894215314,
			"0.006": 9.689821929,
			"0.007": 4.34038294616,
			"0.008": 3.10196698826,
			"0.009": 3.59498023557,
			"0.01": 2.35198773163,
			"0.011": 1.97744415022,
			"0.012": 1.32790980097,
			"0.013": 1.17196226645,
			"0.014": 1.01843810397,
			"0.015": 0.690157403277,
			"0.016": 1.39987363102,
			"0.017": 0.724358415948,
			"0.018": 0.690469510379,
			"0.019": 0.303239270485,
			"0.02": 0.387464626403,
			"0.021": 0.0,
			"0.022": 0.0,
			"0.023": 0.0,
			"0.024": 0.0,
			"0.025": 0.0
		}
	}
}
