{
	 "smiles": "CCOC(=O)C1=CC(=CC(N)=C1)S(C)(=O)=O", 
	 "Tm": 464.15, 
	 "num_atms": 29, 
	 "gaussian": { 
		 "optdone": 1, 
		 "sigma_profile": "yes", 
		 "theory": "DFT", 
		 "functional": "B3LYP", 
		 "basiset": "6-31G**", 
		 "properties": { 
			 "R2extent": 5322.8298, 
			 "electric_dipole_moment_norm": 5.07497771522, 
			 "electric_quadrupole_moment_norm": 32.1426514581, 
			 "total_energy": -1142.69377742, 
			 "HOMO_LUMO_gap": 0.16844, 
			 "cosmo_polarized_energy": -21.82, 
			 "cosmo_cavitation_energy": 34.9, 
			 "cosmo_dispersion_energy": -25.24, 
			 "cosmo_repulsion_energy": 1.97, 
			 "cosmo_total_nonelectrostatic_energy": 11.63, 
			 "SMD_solvation_energy": 6.81 
		},
		"coords": [
			{
				"x": -3.3186089914,
				"y": -0.823925089,
				"z": 2.5166660473,
				"element": "C" 
			},
			{
				"x": -1.8441751311,
				"y": -1.0819591409,
				"z": 2.7869220287,
				"element": "C" 
			},
			{
				"x": -1.0296260096,
				"y": -0.720606093,
				"z": 1.6446441108,
				"element": "O" 
			},
			{
				"x": -0.6574821537,
				"y": 0.572619629,
				"z": 1.5519068368,
				"element": "C" 
			},
			{
				"x": -0.9462297243,
				"y": 1.4236617569,
				"z": 2.3719023925,
				"element": "O" 
			},
			{
				"x": 0.1594744942,
				"y": 0.8382651011,
				"z": 0.3276991953,
				"element": "C" 
			},
			{
				"x": 0.4682673852,
				"y": -0.1712102679,
				"z": -0.5927981389,
				"element": "C" 
			},
			{
				"x": 1.2396222832,
				"y": 0.1779995756,
				"z": -1.699129156,
				"element": "C" 
			},
			{
				"x": 1.6882427028,
				"y": 1.4768995223,
				"z": -1.9223285172,
				"element": "C" 
			},
			{
				"x": 1.3672736573,
				"y": 2.4900394334,
				"z": -0.9999682937,
				"element": "C" 
			},
			{
				"x": 1.7462658962,
				"y": 3.8039792972,
				"z": -1.2300041867,
				"element": "N" 
			},
			{
				"x": 0.604579798,
				"y": 2.1470767875,
				"z": 0.1286508784,
				"element": "C" 
			},
			{
				"x": 1.6847672778,
				"y": -1.0972385868,
				"z": -2.8941048414,
				"element": "S" 
			},
			{
				"x": 3.1404411531,
				"y": -1.8750320024,
				"z": -2.151776439,
				"element": "C" 
			},
			{
				"x": 2.1242737176,
				"y": -0.4272004155,
				"z": -4.128976246,
				"element": "O" 
			},
			{
				"x": 0.6116609573,
				"y": -2.1024962678,
				"z": -2.9144676176,
				"element": "O" 
			},
			{
				"x": -3.648356933,
				"y": -1.352675239,
				"z": 1.6177590604,
				"element": "H" 
			},
			{
				"x": -3.916903741,
				"y": -1.1772081631,
				"z": 3.3630962347,
				"element": "H" 
			},
			{
				"x": -3.5046858602,
				"y": 0.2450749518,
				"z": 2.388221675,
				"element": "H" 
			},
			{
				"x": -1.6431322701,
				"y": -2.1455081722,
				"z": 2.9347781696,
				"element": "H" 
			},
			{
				"x": -1.4966073976,
				"y": -0.5201384488,
				"z": 3.6569731793,
				"element": "H" 
			},
			{
				"x": 0.1017399831,
				"y": -1.1808559324,
				"z": -0.4612117985,
				"element": "H" 
			},
			{
				"x": 2.2575361703,
				"y": 1.6978950173,
				"z": -2.8200335367,
				"element": "H" 
			},
			{
				"x": 1.7598761526,
				"y": 4.4165763714,
				"z": -0.427950079,
				"element": "H" 
			},
			{
				"x": 2.5211667797,
				"y": 3.9492687246,
				"z": -1.8601135157,
				"element": "H" 
			},
			{
				"x": 0.3350117762,
				"y": 2.8980536589,
				"z": 0.8648357065,
				"element": "H" 
			},
			{
				"x": 3.4511201811,
				"y": -2.6618458201,
				"z": -2.8422828976,
				"element": "H" 
			},
			{
				"x": 2.8663175086,
				"y": -2.3022113528,
				"z": -1.1863636983,
				"element": "H" 
			},
			{
				"x": 3.9295703377,
				"y": -1.1296988353,
				"z": -2.0439465529,
				"element": "H" 
			}
		],
		 "valence_orbital": [ 
			{
				"type": "occ",
				"energy": -0.29313,
				"method": "rhf"
			},
			{
				"type": "occ",
				"energy": -0.28884,
				"method": "rhf"
			},
			{
				"type": "occ",
				"energy": -0.27843,
				"method": "rhf"
			},
			{
				"type": "occ",
				"energy": -0.27358,
				"method": "rhf"
			},
			{
				"type": "occ",
				"energy": -0.22551,
				"method": "rhf"
			},
			{
				"type": "unocc",
				"energy": -0.05707,
				"method": "rhf"
			},
			{
				"type": "unocc",
				"energy": -0.02613,
				"method": "rhf"
			},
			{
				"type": "unocc",
				"energy": 0.04519,
				"method": "rhf"
			},
			{
				"type": "unocc",
				"energy": 0.06741,
				"method": "rhf"
			},
			{
				"type": "unocc",
				"energy": 0.07274,
				"method": "rhf"
			}
		],
		"cosmo_sigma_profile": { 
			"-0.025": 0.0,
			"-0.024": 0.0,
			"-0.023": 0.0,
			"-0.022": 0.0,
			"-0.021": 0.0,
			"-0.02": 0.0,
			"-0.019": 0.0,
			"-0.018": 0.0,
			"-0.017": 0.0,
			"-0.016": 0.0,
			"-0.015": 0.0,
			"-0.014": 0.592890835248,
			"-0.013": 2.85999356046,
			"-0.012": 3.12690166592,
			"-0.011": 3.59512639392,
			"-0.01": 2.82938295218,
			"-0.009": 4.85480376489,
			"-0.008": 9.99022702186,
			"-0.007": 7.9049282577,
			"-0.006": 12.2841675989,
			"-0.005": 13.5454897349,
			"-0.004": 21.4390846721,
			"-0.003": 21.1040065291,
			"-0.002": 18.5836685234,
			"-0.001": 18.1227313778,
			"0.0": 20.1014240886,
			"0.001": 18.0416758701,
			"0.002": 18.9577906423,
			"0.003": 11.5743002543,
			"0.004": 7.56741099295,
			"0.005": 7.55461184688,
			"0.006": 4.09174751976,
			"0.007": 4.54202399509,
			"0.008": 4.1137082919,
			"0.009": 6.23382496519,
			"0.01": 6.71225370958,
			"0.011": 13.0216590763,
			"0.012": 12.1530219583,
			"0.013": 0.99104994226,
			"0.014": 0.0,
			"0.015": 0.0,
			"0.016": 0.0,
			"0.017": 0.0,
			"0.018": 0.0,
			"0.019": 0.0,
			"0.02": 0.0,
			"0.021": 0.0,
			"0.022": 0.0,
			"0.023": 0.0,
			"0.024": 0.0,
			"0.025": 0.0
		}
	}
}
