{
	 "smiles": "CCOC(OCC)OC1=CC=CC=C1", 
	 "Tm": 247.15, 
	 "num_atms": 30, 
	 "gaussian": { 
		 "optdone": 1, 
		 "sigma_profile": "yes", 
		 "theory": "DFT", 
		 "functional": "B3LYP", 
		 "basiset": "6-31G**", 
		 "properties": { 
			 "R2extent": 3781.3086, 
			 "electric_dipole_moment_norm": 0.77735336881, 
			 "electric_quadrupole_moment_norm": 3.98451981674, 
			 "total_energy": -654.476712215, 
			 "HOMO_LUMO_gap": 0.22365, 
			 "cosmo_polarized_energy": -7.16, 
			 "cosmo_cavitation_energy": 33.11, 
			 "cosmo_dispersion_energy": -23.26, 
			 "cosmo_repulsion_energy": 1.9, 
			 "cosmo_total_nonelectrostatic_energy": 11.75, 
			 "SMD_solvation_energy": 6.32 
		},
		"coords": [
			{
				"x": -0.5103848889,
				"y": -2.6500077633,
				"z": -3.9090090302,
				"element": "C" 
			},
			{
				"x": -0.8112615145,
				"y": -2.251831639,
				"z": -2.4747932556,
				"element": "C" 
			},
			{
				"x": 0.3535215468,
				"y": -1.6142980232,
				"z": -1.9422478924,
				"element": "O" 
			},
			{
				"x": 0.2944814409,
				"y": -1.3192806063,
				"z": -0.5916079787,
				"element": "C" 
			},
			{
				"x": 1.5303124112,
				"y": -0.8905027863,
				"z": -0.1547248046,
				"element": "O" 
			},
			{
				"x": 2.0833010283,
				"y": 0.2494432829,
				"z": -0.8418920518,
				"element": "C" 
			},
			{
				"x": 3.3415592818,
				"y": 0.658976803,
				"z": -0.0978588983,
				"element": "C" 
			},
			{
				"x": -0.7283238293,
				"y": -0.3331899479,
				"z": -0.4259508547,
				"element": "O" 
			},
			{
				"x": -1.2773859159,
				"y": -0.1539025662,
				"z": 0.8237249357,
				"element": "C" 
			},
			{
				"x": -2.5626677252,
				"y": 0.4015829311,
				"z": 0.8512342669,
				"element": "C" 
			},
			{
				"x": -3.1939542339,
				"y": 0.6309321316,
				"z": 2.0707003644,
				"element": "C" 
			},
			{
				"x": -2.5570988987,
				"y": 0.3009036536,
				"z": 3.2708766312,
				"element": "C" 
			},
			{
				"x": -1.2761960844,
				"y": -0.2486087694,
				"z": 3.2351124797,
				"element": "C" 
			},
			{
				"x": -0.6228340341,
				"y": -0.4727301811,
				"z": 2.0198056033,
				"element": "C" 
			},
			{
				"x": -0.2655746555,
				"y": -1.768429104,
				"z": -4.5084812212,
				"element": "H" 
			},
			{
				"x": -1.3811901008,
				"y": -3.1403692186,
				"z": -4.355234064,
				"element": "H" 
			},
			{
				"x": 0.3371871888,
				"y": -3.3399928445,
				"z": -3.9506623373,
				"element": "H" 
			},
			{
				"x": -1.0556605585,
				"y": -3.136973747,
				"z": -1.8663135973,
				"element": "H" 
			},
			{
				"x": -1.6652658912,
				"y": -1.5665146222,
				"z": -2.4238779824,
				"element": "H" 
			},
			{
				"x": 0.0378108587,
				"y": -2.2001662221,
				"z": 0.0177690797,
				"element": "H" 
			},
			{
				"x": 2.3052704252,
				"y": -0.0267525058,
				"z": -1.8780291934,
				"element": "H" 
			},
			{
				"x": 1.3466500189,
				"y": 1.060640821,
				"z": -0.8540190407,
				"element": "H" 
			},
			{
				"x": 3.1095944601,
				"y": 0.942798499,
				"z": 0.9328413301,
				"element": "H" 
			},
			{
				"x": 4.0624192836,
				"y": -0.1635716445,
				"z": -0.0741543294,
				"element": "H" 
			},
			{
				"x": 3.8099000448,
				"y": 1.5144379202,
				"z": -0.5949800321,
				"element": "H" 
			},
			{
				"x": -3.0456950438,
				"y": 0.6422116446,
				"z": -0.0904331553,
				"element": "H" 
			},
			{
				"x": -4.1907347134,
				"y": 1.0629583685,
				"z": 2.0830058428,
				"element": "H" 
			},
			{
				"x": -3.0527637959,
				"y": 0.4759151761,
				"z": 4.2208507938,
				"element": "H" 
			},
			{
				"x": -0.7660866983,
				"y": -0.4988192095,
				"z": 4.1612865054,
				"element": "H" 
			},
			{
				"x": 0.388970593,
				"y": -0.8589598308,
				"z": 2.0011618862,
				"element": "H" 
			}
		],
		 "valence_orbital": [ 
			{
				"type": "occ",
				"energy": -0.31645,
				"method": "rhf"
			},
			{
				"type": "occ",
				"energy": -0.27954,
				"method": "rhf"
			},
			{
				"type": "occ",
				"energy": -0.27164,
				"method": "rhf"
			},
			{
				"type": "occ",
				"energy": -0.247,
				"method": "rhf"
			},
			{
				"type": "occ",
				"energy": -0.22212,
				"method": "rhf"
			},
			{
				"type": "unocc",
				"energy": 0.00153,
				"method": "rhf"
			},
			{
				"type": "unocc",
				"energy": 0.01291,
				"method": "rhf"
			},
			{
				"type": "unocc",
				"energy": 0.09607,
				"method": "rhf"
			},
			{
				"type": "unocc",
				"energy": 0.09963,
				"method": "rhf"
			},
			{
				"type": "unocc",
				"energy": 0.11274,
				"method": "rhf"
			}
		],
		"cosmo_sigma_profile": { 
			"-0.025": 0.0,
			"-0.024": 0.0,
			"-0.023": 0.0,
			"-0.022": 0.0,
			"-0.021": 0.0,
			"-0.02": 0.0,
			"-0.019": 0.0,
			"-0.018": 0.0,
			"-0.017": 0.0,
			"-0.016": 0.0,
			"-0.015": 0.0,
			"-0.014": 0.0,
			"-0.013": 0.0,
			"-0.012": 0.0,
			"-0.011": 0.0,
			"-0.01": 0.0,
			"-0.009": 0.0,
			"-0.008": 0.0,
			"-0.007": 0.866719849616,
			"-0.006": 6.34346834501,
			"-0.005": 13.55725748,
			"-0.004": 24.8967371032,
			"-0.003": 36.8977613873,
			"-0.002": 29.0800109616,
			"-0.001": 25.5354427596,
			"0.0": 24.8769479792,
			"0.001": 16.8535822975,
			"0.002": 13.0694408388,
			"0.003": 15.0376992762,
			"0.004": 13.7742972512,
			"0.005": 13.1294436758,
			"0.006": 10.7578156998,
			"0.007": 4.41684620498,
			"0.008": 4.42934374842,
			"0.009": 3.33023236004,
			"0.01": 2.36181670718,
			"0.011": 1.14464884813,
			"0.012": 0.114208597344,
			"0.013": 0.0,
			"0.014": 0.0,
			"0.015": 0.0,
			"0.016": 0.0,
			"0.017": 0.0,
			"0.018": 0.0,
			"0.019": 0.0,
			"0.02": 0.0,
			"0.021": 0.0,
			"0.022": 0.0,
			"0.023": 0.0,
			"0.024": 0.0,
			"0.025": 0.0
		}
	}
}
