{
	 "smiles": "NC1=C(F)C=C(C=C1)C#N", 
	 "Tm": 362.15, 
	 "num_atms": 15, 
	 "gaussian": { 
		 "optdone": 1, 
		 "sigma_profile": "yes", 
		 "theory": "DFT", 
		 "functional": "B3LYP", 
		 "basiset": "6-31G**", 
		 "properties": { 
			 "R2extent": 1764.8728, 
			 "electric_dipole_moment_norm": 6.18050388642, 
			 "electric_quadrupole_moment_norm": 17.2067955332, 
			 "total_energy": -479.082518734, 
			 "HOMO_LUMO_gap": 0.18619, 
			 "cosmo_polarized_energy": -13.16, 
			 "cosmo_cavitation_energy": 20.99, 
			 "cosmo_dispersion_energy": -14.99, 
			 "cosmo_repulsion_energy": 1.2, 
			 "cosmo_total_nonelectrostatic_energy": 7.2, 
			 "SMD_solvation_energy": 5.5 
		},
		"coords": [
			{
				"x": 1.8439249256,
				"y": -0.4779494953,
				"z": 0.4834428969,
				"element": "N" 
			},
			{
				"x": 0.559303127,
				"y": -0.1830526154,
				"z": 0.0805877852,
				"element": "C" 
			},
			{
				"x": -0.5323518137,
				"y": -0.7088875481,
				"z": 0.7970667395,
				"element": "C" 
			},
			{
				"x": -0.244219829,
				"y": -1.5446145721,
				"z": 1.8267587648,
				"element": "F" 
			},
			{
				"x": -1.8439732023,
				"y": -0.4227656987,
				"z": 0.4900159455,
				"element": "C" 
			},
			{
				"x": -2.1185000468,
				"y": 0.437347026,
				"z": -0.5916241539,
				"element": "C" 
			},
			{
				"x": -1.0501116705,
				"y": 0.976098566,
				"z": -1.3283276932,
				"element": "C" 
			},
			{
				"x": 0.2643963844,
				"y": 0.6704892168,
				"z": -0.9969102487,
				"element": "C" 
			},
			{
				"x": -3.4706216317,
				"y": 0.7518700347,
				"z": -0.9345100865,
				"element": "C" 
			},
			{
				"x": -4.5704063594,
				"y": 1.0090380513,
				"z": -1.2168073358,
				"element": "N" 
			},
			{
				"x": 2.5785489248,
				"y": -0.3713575537,
				"z": -0.1992855767,
				"element": "H" 
			},
			{
				"x": 1.9447185164,
				"y": -1.2746924397,
				"z": 1.0945115183,
				"element": "H" 
			},
			{
				"x": -2.6406778663,
				"y": -0.8631844036,
				"z": 1.0781226449,
				"element": "H" 
			},
			{
				"x": -1.2573658655,
				"y": 1.6367434059,
				"z": -2.1630354168,
				"element": "H" 
			},
			{
				"x": 1.081436407,
				"y": 1.0976180258,
				"z": -1.5712057837,
				"element": "H" 
			}
		],
		 "valence_orbital": [ 
			{
				"type": "occ",
				"energy": -0.35028,
				"method": "rhf"
			},
			{
				"type": "occ",
				"energy": -0.3241,
				"method": "rhf"
			},
			{
				"type": "occ",
				"energy": -0.31258,
				"method": "rhf"
			},
			{
				"type": "occ",
				"energy": -0.27036,
				"method": "rhf"
			},
			{
				"type": "occ",
				"energy": -0.22498,
				"method": "rhf"
			},
			{
				"type": "unocc",
				"energy": -0.03879,
				"method": "rhf"
			},
			{
				"type": "unocc",
				"energy": -0.01868,
				"method": "rhf"
			},
			{
				"type": "unocc",
				"energy": 0.04075,
				"method": "rhf"
			},
			{
				"type": "unocc",
				"energy": 0.06228,
				"method": "rhf"
			},
			{
				"type": "unocc",
				"energy": 0.07716,
				"method": "rhf"
			}
		],
		"cosmo_sigma_profile": { 
			"-0.025": 0.0,
			"-0.024": 0.0,
			"-0.023": 0.0,
			"-0.022": 0.0,
			"-0.021": 0.0,
			"-0.02": 0.0,
			"-0.019": 0.0,
			"-0.018": 0.0,
			"-0.017": 0.0,
			"-0.016": 0.0,
			"-0.015": 0.0,
			"-0.014": 1.07657230629,
			"-0.013": 2.29652477389,
			"-0.012": 2.51033302075,
			"-0.011": 2.87505692367,
			"-0.01": 2.73387038375,
			"-0.009": 3.00285740819,
			"-0.008": 5.8110906249,
			"-0.007": 7.47178659148,
			"-0.006": 7.68532204909,
			"-0.005": 6.39367957855,
			"-0.004": 6.48343493832,
			"-0.003": 6.52973386954,
			"-0.002": 7.12239955088,
			"-0.001": 8.77866481227,
			"0.0": 14.1324432007,
			"0.001": 15.2408510438,
			"0.002": 15.5645660825,
			"0.003": 13.5926859515,
			"0.004": 9.37425519036,
			"0.005": 2.88683864714,
			"0.006": 3.48874131276,
			"0.007": 3.01108803502,
			"0.008": 4.25135484837,
			"0.009": 3.81842344798,
			"0.01": 4.21477489734,
			"0.011": 3.4737876121,
			"0.012": 2.66987969608,
			"0.013": 2.47075409401,
			"0.014": 0.591572790791,
			"0.015": 0.0,
			"0.016": 0.0,
			"0.017": 0.0,
			"0.018": 0.0,
			"0.019": 0.0,
			"0.02": 0.0,
			"0.021": 0.0,
			"0.022": 0.0,
			"0.023": 0.0,
			"0.024": 0.0,
			"0.025": 0.0
		}
	}
}
