{
	 "smiles": "COC(=O)C1=C2C=CC=CN2C(CC2=C(Cl)C=CC=C2)=N1", 
	 "Tm": 405.15, 
	 "num_atms": 34, 
	 "gaussian": { 
		 "optdone": 1, 
		 "sigma_profile": "yes", 
		 "theory": "DFT", 
		 "functional": "B3LYP", 
		 "basiset": "6-31G**", 
		 "properties": { 
			 "R2extent": 8553.4084, 
			 "electric_dipole_moment_norm": 4.6043469146, 
			 "electric_quadrupole_moment_norm": 17.9906933752, 
			 "total_energy": -1337.69111198, 
			 "HOMO_LUMO_gap": 0.15558, 
			 "cosmo_polarized_energy": -16.78, 
			 "cosmo_cavitation_energy": 40.16, 
			 "cosmo_dispersion_energy": -28.28, 
			 "cosmo_repulsion_energy": 2.15, 
			 "cosmo_total_nonelectrostatic_energy": 14.03, 
			 "SMD_solvation_energy": 6.6 
		},
		"coords": [
			{
				"x": -4.0981891477,
				"y": 1.9665349678,
				"z": -3.2868860371,
				"element": "C" 
			},
			{
				"x": -3.3797058501,
				"y": 1.1574816043,
				"z": -2.3464600937,
				"element": "O" 
			},
			{
				"x": -3.2090265336,
				"y": 1.7282386692,
				"z": -1.1153862089,
				"element": "C" 
			},
			{
				"x": -3.6306472957,
				"y": 2.8315183294,
				"z": -0.8387200183,
				"element": "O" 
			},
			{
				"x": -2.4655467096,
				"y": 0.8399445816,
				"z": -0.2158099863,
				"element": "C" 
			},
			{
				"x": -1.9393066962,
				"y": -0.4353906994,
				"z": -0.4669974981,
				"element": "C" 
			},
			{
				"x": -1.8873084232,
				"y": -1.3458116493,
				"z": -1.5514757024,
				"element": "C" 
			},
			{
				"x": -1.2492069909,
				"y": -2.5498117229,
				"z": -1.3946426155,
				"element": "C" 
			},
			{
				"x": -0.6388972926,
				"y": -2.88845754,
				"z": -0.1487413463,
				"element": "C" 
			},
			{
				"x": -0.6847494961,
				"y": -2.019177053,
				"z": 0.8997148817,
				"element": "C" 
			},
			{
				"x": -1.3307877273,
				"y": -0.8103639574,
				"z": 0.7433902198,
				"element": "N" 
			},
			{
				"x": -1.5260950519,
				"y": 0.2323143177,
				"z": 1.6378853174,
				"element": "C" 
			},
			{
				"x": -1.0009645332,
				"y": 0.2325872337,
				"z": 3.041094842,
				"element": "C" 
			},
			{
				"x": 0.484713069,
				"y": 0.5616014456,
				"z": 3.1361137019,
				"element": "C" 
			},
			{
				"x": 1.4313007963,
				"y": -0.2584860377,
				"z": 3.7626366853,
				"element": "C" 
			},
			{
				"x": 0.9558275576,
				"y": -1.8016401819,
				"z": 4.4923202785,
				"element": "Cl" 
			},
			{
				"x": 2.7808282169,
				"y": 0.0929507478,
				"z": 3.8423845175,
				"element": "C" 
			},
			{
				"x": 3.2098193474,
				"y": 1.294075576,
				"z": 3.2838610737,
				"element": "C" 
			},
			{
				"x": 2.2901298404,
				"y": 2.133008273,
				"z": 2.6504202223,
				"element": "C" 
			},
			{
				"x": 0.9500264557,
				"y": 1.7647367882,
				"z": 2.580387278,
				"element": "C" 
			},
			{
				"x": -2.1944989861,
				"y": 1.2141658593,
				"z": 1.0738685394,
				"element": "N" 
			},
			{
				"x": -4.1497761171,
				"y": 1.3793354021,
				"z": -4.204425428,
				"element": "H" 
			},
			{
				"x": -5.1032244461,
				"y": 2.1895769595,
				"z": -2.9192109559,
				"element": "H" 
			},
			{
				"x": -3.5761771998,
				"y": 2.9101747239,
				"z": -3.4662563813,
				"element": "H" 
			},
			{
				"x": -2.3592189044,
				"y": -1.0560970889,
				"z": -2.4809886818,
				"element": "H" 
			},
			{
				"x": -1.2030936149,
				"y": -3.2533785354,
				"z": -2.2193164232,
				"element": "H" 
			},
			{
				"x": -0.1303676449,
				"y": -3.837349428,
				"z": -0.0226143538,
				"element": "H" 
			},
			{
				"x": -0.2388496189,
				"y": -2.2102130207,
				"z": 1.8674413574,
				"element": "H" 
			},
			{
				"x": -1.2111130609,
				"y": -0.7199847051,
				"z": 3.5339784383,
				"element": "H" 
			},
			{
				"x": -1.5707753619,
				"y": 0.9992046295,
				"z": 3.5746903933,
				"element": "H" 
			},
			{
				"x": 3.4786978796,
				"y": -0.5732208277,
				"z": 4.3373067711,
				"element": "H" 
			},
			{
				"x": 4.2581518632,
				"y": 1.5700181355,
				"z": 3.3450857421,
				"element": "H" 
			},
			{
				"x": 2.6159270458,
				"y": 3.0716264249,
				"z": 2.2127957457,
				"element": "H" 
			},
			{
				"x": 0.2301046315,
				"y": 2.4095877785,
				"z": 2.0836557253,
				"element": "H" 
			}
		],
		 "valence_orbital": [ 
			{
				"type": "occ",
				"energy": -0.27131,
				"method": "rhf"
			},
			{
				"type": "occ",
				"energy": -0.26088,
				"method": "rhf"
			},
			{
				"type": "occ",
				"energy": -0.25891,
				"method": "rhf"
			},
			{
				"type": "occ",
				"energy": -0.25241,
				"method": "rhf"
			},
			{
				"type": "occ",
				"energy": -0.20484,
				"method": "rhf"
			},
			{
				"type": "unocc",
				"energy": -0.04926,
				"method": "rhf"
			},
			{
				"type": "unocc",
				"energy": -0.02061,
				"method": "rhf"
			},
			{
				"type": "unocc",
				"energy": -0.01901,
				"method": "rhf"
			},
			{
				"type": "unocc",
				"energy": -0.01443,
				"method": "rhf"
			},
			{
				"type": "unocc",
				"energy": 0.01376,
				"method": "rhf"
			}
		],
		"cosmo_sigma_profile": { 
			"-0.025": 0.0,
			"-0.024": 0.0,
			"-0.023": 0.0,
			"-0.022": 0.0,
			"-0.021": 0.0,
			"-0.02": 0.0,
			"-0.019": 0.0,
			"-0.018": 0.0,
			"-0.017": 0.0,
			"-0.016": 0.0,
			"-0.015": 0.0,
			"-0.014": 0.0,
			"-0.013": 0.0,
			"-0.012": 0.0,
			"-0.011": 0.0,
			"-0.01": 0.0,
			"-0.009": 0.0242232109781,
			"-0.008": 2.13835159994,
			"-0.007": 9.81517095624,
			"-0.006": 20.6614906562,
			"-0.005": 25.664176488,
			"-0.004": 24.7252889848,
			"-0.003": 26.8829843473,
			"-0.002": 25.1269456036,
			"-0.001": 24.0447865451,
			"0.0": 26.4876600283,
			"0.001": 30.8900369485,
			"0.002": 30.6918496925,
			"0.003": 22.8434503405,
			"0.004": 19.9032224334,
			"0.005": 6.84575653519,
			"0.006": 1.83848243852,
			"0.007": 1.98384869833,
			"0.008": 1.88717603058,
			"0.009": 2.45342085757,
			"0.01": 1.84337627761,
			"0.011": 2.57266033737,
			"0.012": 5.07755997881,
			"0.013": 4.09446652483,
			"0.014": 1.8949992171,
			"0.015": 1.50789093925,
			"0.016": 1.80165013885,
			"0.017": 1.06162656334,
			"0.018": 0.0679465601845,
			"0.019": 0.0,
			"0.02": 0.0,
			"0.021": 0.0,
			"0.022": 0.0,
			"0.023": 0.0,
			"0.024": 0.0,
			"0.025": 0.0
		}
	}
}
