{
	 "smiles": "N(C1=CC=CC=N1)C1=NC=CC=C1", 
	 "Tm": 363.65, 
	 "num_atms": 22, 
	 "gaussian": { 
		 "optdone": 1, 
		 "sigma_profile": "yes", 
		 "theory": "DFT", 
		 "functional": "B3LYP", 
		 "basiset": "6-31G**", 
		 "properties": { 
			 "R2extent": 3660.8363, 
			 "electric_dipole_moment_norm": 1.31679455497, 
			 "electric_quadrupole_moment_norm": 10.2981814526, 
			 "total_energy": -550.750853612, 
			 "HOMO_LUMO_gap": 0.17724, 
			 "cosmo_polarized_energy": -8.66, 
			 "cosmo_cavitation_energy": 26.22, 
			 "cosmo_dispersion_energy": -19.84, 
			 "cosmo_repulsion_energy": 1.55, 
			 "cosmo_total_nonelectrostatic_energy": 7.93, 
			 "SMD_solvation_energy": 2.58 
		},
		"coords": [
			{
				"x": 0.1159696101,
				"y": -1.7020430603,
				"z": 1.5267260045,
				"element": "N" 
			},
			{
				"x": 0.9716822903,
				"y": -1.1149436409,
				"z": 0.6112735028,
				"element": "C" 
			},
			{
				"x": 2.0152187284,
				"y": -1.905158341,
				"z": 0.0740938956,
				"element": "C" 
			},
			{
				"x": 2.8774183044,
				"y": -1.3290625573,
				"z": -0.8423058659,
				"element": "C" 
			},
			{
				"x": 2.6959418504,
				"y": 0.0104219945,
				"z": -1.2110268639,
				"element": "C" 
			},
			{
				"x": 1.640875797,
				"y": 0.6994236812,
				"z": -0.6259356388,
				"element": "C" 
			},
			{
				"x": 0.7914502516,
				"y": 0.1659853391,
				"z": 0.2638345682,
				"element": "N" 
			},
			{
				"x": -0.9877920136,
				"y": -1.2182209348,
				"z": 2.2296851939,
				"element": "C" 
			},
			{
				"x": -1.5291640086,
				"y": -2.157507673,
				"z": 3.0259166171,
				"element": "N" 
			},
			{
				"x": -2.5960812986,
				"y": -1.8227679187,
				"z": 3.7560897917,
				"element": "C" 
			},
			{
				"x": -3.1801068073,
				"y": -0.5577143792,
				"z": 3.7405942094,
				"element": "C" 
			},
			{
				"x": -2.6062089192,
				"y": 0.4064874212,
				"z": 2.9089377861,
				"element": "C" 
			},
			{
				"x": -1.4946721602,
				"y": 0.0907915826,
				"z": 2.1354772932,
				"element": "C" 
			},
			{
				"x": 0.294228764,
				"y": -2.6706423415,
				"z": 1.7560643577,
				"element": "H" 
			},
			{
				"x": 2.1307805789,
				"y": -2.941218725,
				"z": 0.3792064762,
				"element": "H" 
			},
			{
				"x": 3.6861796111,
				"y": -1.9160587413,
				"z": -1.2682666001,
				"element": "H" 
			},
			{
				"x": 3.3498405656,
				"y": 0.4982276515,
				"z": -1.9253619253,
				"element": "H" 
			},
			{
				"x": 1.4573387879,
				"y": 1.7423472524,
				"z": -0.8790124468,
				"element": "H" 
			},
			{
				"x": -3.0024131308,
				"y": -2.6123159751,
				"z": 4.3864539218,
				"element": "H" 
			},
			{
				"x": -4.0472614895,
				"y": -0.3394260546,
				"z": 4.3545722057,
				"element": "H" 
			},
			{
				"x": -3.0227793757,
				"y": 1.4089091389,
				"z": 2.8596641612,
				"element": "H" 
			},
			{
				"x": -1.0189459362,
				"y": 0.8042862811,
				"z": 1.4789193555,
				"element": "H" 
			}
		],
		 "valence_orbital": [ 
			{
				"type": "occ",
				"energy": -0.2766,
				"method": "rhf"
			},
			{
				"type": "occ",
				"energy": -0.25963,
				"method": "rhf"
			},
			{
				"type": "occ",
				"energy": -0.25949,
				"method": "rhf"
			},
			{
				"type": "occ",
				"energy": -0.25714,
				"method": "rhf"
			},
			{
				"type": "occ",
				"energy": -0.20204,
				"method": "rhf"
			},
			{
				"type": "unocc",
				"energy": -0.0248,
				"method": "rhf"
			},
			{
				"type": "unocc",
				"energy": -0.01309,
				"method": "rhf"
			},
			{
				"type": "unocc",
				"energy": -0.00926,
				"method": "rhf"
			},
			{
				"type": "unocc",
				"energy": 0.03191,
				"method": "rhf"
			},
			{
				"type": "unocc",
				"energy": 0.08464,
				"method": "rhf"
			}
		],
		"cosmo_sigma_profile": { 
			"-0.025": 0.0,
			"-0.024": 0.0,
			"-0.023": 0.0,
			"-0.022": 0.0,
			"-0.021": 0.0,
			"-0.02": 0.0,
			"-0.019": 0.0,
			"-0.018": 0.0,
			"-0.017": 0.0,
			"-0.016": 0.0,
			"-0.015": 0.0,
			"-0.014": 0.4114534599,
			"-0.013": 1.00509906695,
			"-0.012": 1.25885377086,
			"-0.011": 1.06366852541,
			"-0.01": 1.10409680959,
			"-0.009": 1.55343464352,
			"-0.008": 1.02582878531,
			"-0.007": 4.73395369605,
			"-0.006": 13.807840219,
			"-0.005": 15.9480254369,
			"-0.004": 15.0661873127,
			"-0.003": 12.4532641718,
			"-0.002": 10.9340723919,
			"-0.001": 10.8321023672,
			"0.0": 10.6981424621,
			"0.001": 13.1238231899,
			"0.002": 24.1958385768,
			"0.003": 27.225240753,
			"0.004": 22.0312326369,
			"0.005": 5.7946327666,
			"0.006": 3.56882369682,
			"0.007": 3.81592224477,
			"0.008": 3.07807008774,
			"0.009": 2.20745558174,
			"0.01": 0.765854117078,
			"0.011": 0.635948710126,
			"0.012": 0.89538764461,
			"0.013": 1.05953243299,
			"0.014": 0.621684219734,
			"0.015": 0.253844899947,
			"0.016": 0.0,
			"0.017": 0.0,
			"0.018": 0.0,
			"0.019": 0.0,
			"0.02": 0.0,
			"0.021": 0.0,
			"0.022": 0.0,
			"0.023": 0.0,
			"0.024": 0.0,
			"0.025": 0.0
		}
	}
}
