{
	 "smiles": "COC1=CC=C(C(=O)C2=CC=CC=C2)C(O)=C1", 
	 "Tm": 337.95, 
	 "num_atms": 29, 
	 "gaussian": { 
		 "optdone": 1, 
		 "sigma_profile": "yes", 
		 "theory": "DFT", 
		 "functional": "B3LYP", 
		 "basiset": "6-31G**", 
		 "properties": { 
			 "R2extent": 5200.0797, 
			 "electric_dipole_moment_norm": 5.0035311431, 
			 "electric_quadrupole_moment_norm": 11.443861219, 
			 "total_energy": -766.394827046, 
			 "HOMO_LUMO_gap": 0.15996, 
			 "cosmo_polarized_energy": -11.06, 
			 "cosmo_cavitation_energy": 32.86, 
			 "cosmo_dispersion_energy": -24.35, 
			 "cosmo_repulsion_energy": 1.86, 
			 "cosmo_total_nonelectrostatic_energy": 10.36, 
			 "SMD_solvation_energy": 6.95 
		},
		"coords": [
			{
				"x": 3.2020781864,
				"y": 3.1033459723,
				"z": -3.5615680432,
				"element": "C" 
			},
			{
				"x": 3.3705291927,
				"y": 2.9106573166,
				"z": -2.1630601776,
				"element": "O" 
			},
			{
				"x": 2.4377070344,
				"y": 2.1974564667,
				"z": -1.4829996111,
				"element": "C" 
			},
			{
				"x": 1.2926346392,
				"y": 1.6272093107,
				"z": -2.078159474,
				"element": "C" 
			},
			{
				"x": 0.4146428446,
				"y": 0.907180056,
				"z": -1.2851206368,
				"element": "C" 
			},
			{
				"x": 0.6218340758,
				"y": 0.7231673756,
				"z": 0.0973598188,
				"element": "C" 
			},
			{
				"x": -0.2895834206,
				"y": -0.0360104456,
				"z": 0.9571541509,
				"element": "C" 
			},
			{
				"x": -0.1923318177,
				"y": 0.0257867353,
				"z": 2.2009339499,
				"element": "O" 
			},
			{
				"x": -1.3691932932,
				"y": -0.9108986964,
				"z": 0.3953832489,
				"element": "C" 
			},
			{
				"x": -2.5969322901,
				"y": -0.9537799745,
				"z": 1.0750639419,
				"element": "C" 
			},
			{
				"x": -3.6200716304,
				"y": -1.7875196772,
				"z": 0.6321204385,
				"element": "C" 
			},
			{
				"x": -3.4191954703,
				"y": -2.6138774213,
				"z": -0.4773330875,
				"element": "C" 
			},
			{
				"x": -2.1906624099,
				"y": -2.6027481006,
				"z": -1.1394591765,
				"element": "C" 
			},
			{
				"x": -1.1710035102,
				"y": -1.7518596519,
				"z": -0.7106497323,
				"element": "C" 
			},
			{
				"x": 1.7630232934,
				"y": 1.3591129147,
				"z": 0.6877112726,
				"element": "C" 
			},
			{
				"x": 2.0036515482,
				"y": 1.2963436278,
				"z": 2.0015421971,
				"element": "O" 
			},
			{
				"x": 2.6636320194,
				"y": 2.0640708994,
				"z": -0.1127781796,
				"element": "C" 
			},
			{
				"x": 2.2815678853,
				"y": 3.6562999015,
				"z": -3.7847802649,
				"element": "H" 
			},
			{
				"x": 4.0616547106,
				"y": 3.6907924744,
				"z": -3.8867650674,
				"element": "H" 
			},
			{
				"x": 3.1912490979,
				"y": 2.1489951892,
				"z": -4.1019496762,
				"element": "H" 
			},
			{
				"x": 1.0865588834,
				"y": 1.7507235898,
				"z": -3.1334971321,
				"element": "H" 
			},
			{
				"x": -0.4754659784,
				"y": 0.4905701434,
				"z": -1.741950138,
				"element": "H" 
			},
			{
				"x": -2.7297683086,
				"y": -0.3270038539,
				"z": 1.9505886737,
				"element": "H" 
			},
			{
				"x": -4.5715762148,
				"y": -1.8008453961,
				"z": 1.1556383341,
				"element": "H" 
			},
			{
				"x": -4.2144964703,
				"y": -3.2708262543,
				"z": -0.8177194939,
				"element": "H" 
			},
			{
				"x": -2.0221094935,
				"y": -3.2606697317,
				"z": -1.9870188224,
				"element": "H" 
			},
			{
				"x": -0.2103582015,
				"y": -1.7651394843,
				"z": -1.2147086357,
				"element": "H" 
			},
			{
				"x": 1.2204787668,
				"y": 0.8285940886,
				"z": 2.4005100295,
				"element": "H" 
			},
			{
				"x": 3.5314063314,
				"y": 2.5280726259,
				"z": 0.3408112936,
				"element": "H" 
			}
		],
		 "valence_orbital": [ 
			{
				"type": "occ",
				"energy": -0.26707,
				"method": "rhf"
			},
			{
				"type": "occ",
				"energy": -0.26118,
				"method": "rhf"
			},
			{
				"type": "occ",
				"energy": -0.25236,
				"method": "rhf"
			},
			{
				"type": "occ",
				"energy": -0.23409,
				"method": "rhf"
			},
			{
				"type": "occ",
				"energy": -0.22375,
				"method": "rhf"
			},
			{
				"type": "unocc",
				"energy": -0.06379,
				"method": "rhf"
			},
			{
				"type": "unocc",
				"energy": -0.01446,
				"method": "rhf"
			},
			{
				"type": "unocc",
				"energy": -0.00962,
				"method": "rhf"
			},
			{
				"type": "unocc",
				"energy": 0.00872,
				"method": "rhf"
			},
			{
				"type": "unocc",
				"energy": 0.05765,
				"method": "rhf"
			}
		],
		"cosmo_sigma_profile": { 
			"-0.025": 0.0,
			"-0.024": 0.0,
			"-0.023": 0.0,
			"-0.022": 0.0,
			"-0.021": 0.0,
			"-0.02": 0.0,
			"-0.019": 0.0,
			"-0.018": 0.0,
			"-0.017": 0.0,
			"-0.016": 0.0,
			"-0.015": 0.0,
			"-0.014": 0.0,
			"-0.013": 0.0,
			"-0.012": 0.0,
			"-0.011": 0.0,
			"-0.01": 0.0,
			"-0.009": 0.0,
			"-0.008": 0.000811233299177,
			"-0.007": 3.42505013638,
			"-0.006": 21.0899708023,
			"-0.005": 24.32021457,
			"-0.004": 25.6260377013,
			"-0.003": 21.0900906101,
			"-0.002": 18.3217588505,
			"-0.001": 15.9650477818,
			"0.0": 15.8673364561,
			"0.001": 16.7740046839,
			"0.002": 20.3851530982,
			"0.003": 24.9374643633,
			"0.004": 20.583787707,
			"0.005": 8.15895320384,
			"0.006": 4.12456816446,
			"0.007": 4.7247391483,
			"0.008": 4.27248484862,
			"0.009": 4.09765817332,
			"0.01": 3.9275527076,
			"0.011": 3.57120541325,
			"0.012": 1.86721266976,
			"0.013": 0.243061165773,
			"0.014": 0.0,
			"0.015": 0.0,
			"0.016": 0.0,
			"0.017": 0.0,
			"0.018": 0.0,
			"0.019": 0.0,
			"0.02": 0.0,
			"0.021": 0.0,
			"0.022": 0.0,
			"0.023": 0.0,
			"0.024": 0.0,
			"0.025": 0.0
		}
	}
}
