{
	 "smiles": "CC(O)C1=C(C=CC=C1)C(F)(F)F", 
	 "Tm": 312.15, 
	 "num_atms": 22, 
	 "gaussian": { 
		 "optdone": 1, 
		 "sigma_profile": "yes", 
		 "theory": "DFT", 
		 "functional": "B3LYP", 
		 "basiset": "6-31G**", 
		 "properties": { 
			 "R2extent": 2213.4939, 
			 "electric_dipole_moment_norm": 2.38621069061, 
			 "electric_quadrupole_moment_norm": 6.30721604672, 
			 "total_energy": -723.127235195, 
			 "HOMO_LUMO_gap": 0.22417, 
			 "cosmo_polarized_energy": -6.65, 
			 "cosmo_cavitation_energy": 25.43, 
			 "cosmo_dispersion_energy": -18.59, 
			 "cosmo_repulsion_energy": 1.41, 
			 "cosmo_total_nonelectrostatic_energy": 8.25, 
			 "SMD_solvation_energy": 5.18 
		},
		"coords": [
			{
				"x": -2.254068662,
				"y": 1.708958067,
				"z": 0.7520688961,
				"element": "C" 
			},
			{
				"x": -2.0563128749,
				"y": 0.3153120468,
				"z": 0.1413462529,
				"element": "C" 
			},
			{
				"x": -2.3926253431,
				"y": 0.2794100549,
				"z": -1.2413894463,
				"element": "O" 
			},
			{
				"x": -0.7018481644,
				"y": -0.354464869,
				"z": 0.4326710229,
				"element": "C" 
			},
			{
				"x": 0.5831017286,
				"y": 0.1304257109,
				"z": 0.085480913,
				"element": "C" 
			},
			{
				"x": 1.7278541825,
				"y": -0.6184004009,
				"z": 0.3882628245,
				"element": "C" 
			},
			{
				"x": 1.6366370274,
				"y": -1.8498502924,
				"z": 1.0312969957,
				"element": "C" 
			},
			{
				"x": 0.3823456596,
				"y": -2.3430591202,
				"z": 1.3774178773,
				"element": "C" 
			},
			{
				"x": -0.7573919501,
				"y": -1.600599243,
				"z": 1.0733131696,
				"element": "C" 
			},
			{
				"x": 0.8325941106,
				"y": 1.4782590667,
				"z": -0.5496440845,
				"element": "C" 
			},
			{
				"x": 0.7375053998,
				"y": 2.4893898601,
				"z": 0.3456234887,
				"element": "F" 
			},
			{
				"x": 2.060545315,
				"y": 1.5652927394,
				"z": -1.0992145563,
				"element": "F" 
			},
			{
				"x": -0.0448504933,
				"y": 1.7770506699,
				"z": -1.5539623509,
				"element": "F" 
			},
			{
				"x": -2.0465023698,
				"y": 1.6979902018,
				"z": 1.8272059352,
				"element": "H" 
			},
			{
				"x": -1.6137671561,
				"y": 2.4629145778,
				"z": 0.2932840576,
				"element": "H" 
			},
			{
				"x": -3.294866678,
				"y": 2.0101275545,
				"z": 0.6025081475,
				"element": "H" 
			},
			{
				"x": -2.8020478572,
				"y": -0.3387644525,
				"z": 0.6047247736,
				"element": "H" 
			},
			{
				"x": -1.7786349124,
				"y": 0.8636985153,
				"z": -1.7036006148,
				"element": "H" 
			},
			{
				"x": 2.6998530643,
				"y": -0.2280378592,
				"z": 0.1118220952,
				"element": "H" 
			},
			{
				"x": 2.5374230771,
				"y": -2.4129386644,
				"z": 1.2544018903,
				"element": "H" 
			},
			{
				"x": 0.2853829589,
				"y": -3.3027872577,
				"z": 1.8765415279,
				"element": "H" 
			},
			{
				"x": -1.7323260627,
				"y": -2.0006269059,
				"z": 1.3371411846,
				"element": "H" 
			}
		],
		 "valence_orbital": [ 
			{
				"type": "occ",
				"energy": -0.35494,
				"method": "rhf"
			},
			{
				"type": "occ",
				"energy": -0.32016,
				"method": "rhf"
			},
			{
				"type": "occ",
				"energy": -0.27175,
				"method": "rhf"
			},
			{
				"type": "occ",
				"energy": -0.26988,
				"method": "rhf"
			},
			{
				"type": "occ",
				"energy": -0.25852,
				"method": "rhf"
			},
			{
				"type": "unocc",
				"energy": -0.03435,
				"method": "rhf"
			},
			{
				"type": "unocc",
				"energy": -0.01776,
				"method": "rhf"
			},
			{
				"type": "unocc",
				"energy": 0.08504,
				"method": "rhf"
			},
			{
				"type": "unocc",
				"energy": 0.10307,
				"method": "rhf"
			},
			{
				"type": "unocc",
				"energy": 0.11312,
				"method": "rhf"
			}
		],
		"cosmo_sigma_profile": { 
			"-0.025": 0.0,
			"-0.024": 0.0,
			"-0.023": 0.0,
			"-0.022": 0.0,
			"-0.021": 0.0,
			"-0.02": 0.0,
			"-0.019": 0.0,
			"-0.018": 0.0,
			"-0.017": 0.0,
			"-0.016": 0.0,
			"-0.015": 0.0,
			"-0.014": 0.0,
			"-0.013": 0.0,
			"-0.012": 0.0,
			"-0.011": 0.160647313009,
			"-0.01": 0.499121896214,
			"-0.009": 0.967572591281,
			"-0.008": 0.430539387851,
			"-0.007": 4.64478788827,
			"-0.006": 11.6012261642,
			"-0.005": 11.2138743875,
			"-0.004": 13.6397963807,
			"-0.003": 15.1227343955,
			"-0.002": 16.3337474043,
			"-0.001": 15.7890130093,
			"0.0": 18.2801545045,
			"0.001": 20.8307561607,
			"0.002": 27.7022532314,
			"0.003": 21.4890426282,
			"0.004": 9.09518772317,
			"0.005": 1.71891416818,
			"0.006": 0.976516580937,
			"0.007": 1.29757990056,
			"0.008": 1.16400159024,
			"0.009": 1.55458415968,
			"0.01": 0.822852736884,
			"0.011": 1.3716296403,
			"0.012": 1.30558224691,
			"0.013": 1.70519699263,
			"0.014": 2.28031445003,
			"0.015": 0.438342881541,
			"0.016": 0.0,
			"0.017": 0.0,
			"0.018": 0.0,
			"0.019": 0.0,
			"0.02": 0.0,
			"0.021": 0.0,
			"0.022": 0.0,
			"0.023": 0.0,
			"0.024": 0.0,
			"0.025": 0.0
		}
	}
}
