{
	 "smiles": "CC1=C(CO)C=CC(F)=C1", 
	 "Tm": 318.15, 
	 "num_atms": 19, 
	 "gaussian": { 
		 "optdone": 1, 
		 "sigma_profile": "yes", 
		 "theory": "DFT", 
		 "functional": "B3LYP", 
		 "basiset": "6-31G**", 
		 "properties": { 
			 "R2extent": 1633.0577, 
			 "electric_dipole_moment_norm": 0.780512229244, 
			 "electric_quadrupole_moment_norm": 9.90748338278, 
			 "total_energy": -485.330109812, 
			 "HOMO_LUMO_gap": 0.22833, 
			 "cosmo_polarized_energy": -7.01, 
			 "cosmo_cavitation_energy": 22.64, 
			 "cosmo_dispersion_energy": -16.5, 
			 "cosmo_repulsion_energy": 1.32, 
			 "cosmo_total_nonelectrostatic_energy": 7.46, 
			 "SMD_solvation_energy": 4.53 
		},
		"coords": [
			{
				"x": -1.3042283157,
				"y": -1.3236576517,
				"z": 1.4587646051,
				"element": "C" 
			},
			{
				"x": -0.5955523121,
				"y": -0.5229908673,
				"z": 0.3912486147,
				"element": "C" 
			},
			{
				"x": -0.3763231671,
				"y": 0.8663196049,
				"z": 0.5440249773,
				"element": "C" 
			},
			{
				"x": -0.8845874784,
				"y": 1.609148884,
				"z": 1.7613123502,
				"element": "C" 
			},
			{
				"x": -2.3109066285,
				"y": 1.646425028,
				"z": 1.8512092936,
				"element": "O" 
			},
			{
				"x": 0.2980369546,
				"y": 1.5678687102,
				"z": -0.4612500656,
				"element": "C" 
			},
			{
				"x": 0.7658378249,
				"y": 0.9355469851,
				"z": -1.6145046392,
				"element": "C" 
			},
			{
				"x": 0.5361698547,
				"y": -0.4260692723,
				"z": -1.7418346796,
				"element": "C" 
			},
			{
				"x": 0.9717340656,
				"y": -1.0675175975,
				"z": -2.8471325646,
				"element": "F" 
			},
			{
				"x": -0.1321675596,
				"y": -1.1570854059,
				"z": -0.7647986051,
				"element": "C" 
			},
			{
				"x": -1.5347380433,
				"y": -2.332773887,
				"z": 1.1081034586,
				"element": "H" 
			},
			{
				"x": -2.2296386467,
				"y": -0.8304359697,
				"z": 1.7657229361,
				"element": "H" 
			},
			{
				"x": -0.6799221124,
				"y": -1.420295641,
				"z": 2.3564542357,
				"element": "H" 
			},
			{
				"x": -0.5562512238,
				"y": 1.120624506,
				"z": 2.6849564467,
				"element": "H" 
			},
			{
				"x": -0.4648298798,
				"y": 2.6264160667,
				"z": 1.7679230664,
				"element": "H" 
			},
			{
				"x": -2.6408774996,
				"y": 1.9781047553,
				"z": 1.0054960614,
				"element": "H" 
			},
			{
				"x": 0.46531937,
				"y": 2.6354768633,
				"z": -0.3394427121,
				"element": "H" 
			},
			{
				"x": 1.2899312758,
				"y": 1.4747506697,
				"z": -2.3957498139,
				"element": "H" 
			},
			{
				"x": -0.2835064785,
				"y": -2.2212557809,
				"z": -0.9162029656,
				"element": "H" 
			}
		],
		 "valence_orbital": [ 
			{
				"type": "occ",
				"energy": -0.34148,
				"method": "rhf"
			},
			{
				"type": "occ",
				"energy": -0.32869,
				"method": "rhf"
			},
			{
				"type": "occ",
				"energy": -0.27442,
				"method": "rhf"
			},
			{
				"type": "occ",
				"energy": -0.25445,
				"method": "rhf"
			},
			{
				"type": "occ",
				"energy": -0.23816,
				"method": "rhf"
			},
			{
				"type": "unocc",
				"energy": -0.00983,
				"method": "rhf"
			},
			{
				"type": "unocc",
				"energy": -0.00534,
				"method": "rhf"
			},
			{
				"type": "unocc",
				"energy": 0.08499,
				"method": "rhf"
			},
			{
				"type": "unocc",
				"energy": 0.09341,
				"method": "rhf"
			},
			{
				"type": "unocc",
				"energy": 0.11208,
				"method": "rhf"
			}
		],
		"cosmo_sigma_profile": { 
			"-0.025": 0.0,
			"-0.024": 0.0,
			"-0.023": 0.0,
			"-0.022": 0.0,
			"-0.021": 0.0,
			"-0.02": 0.0,
			"-0.019": 0.0,
			"-0.018": 0.0,
			"-0.017": 0.0,
			"-0.016": 0.0,
			"-0.015": 0.834853709888,
			"-0.014": 0.759464824221,
			"-0.013": 0.934906422479,
			"-0.012": 0.851480436196,
			"-0.011": 0.415213810323,
			"-0.01": 1.14776534852,
			"-0.009": 0.799217934547,
			"-0.008": 0.617017903564,
			"-0.007": 2.61668703459,
			"-0.006": 6.7296536686,
			"-0.005": 11.4617826069,
			"-0.004": 16.0724114251,
			"-0.003": 11.7189613173,
			"-0.002": 13.5712532307,
			"-0.001": 12.6312923778,
			"0.0": 14.2397300981,
			"0.001": 15.6447848672,
			"0.002": 14.4932696893,
			"0.003": 12.6479130213,
			"0.004": 18.9773889171,
			"0.005": 10.5704395933,
			"0.006": 1.4161200778,
			"0.007": 1.04927573043,
			"0.008": 1.01207196322,
			"0.009": 1.2591114805,
			"0.01": 1.57226960407,
			"0.011": 0.685187872251,
			"0.012": 1.11844399473,
			"0.013": 1.12510256326,
			"0.014": 1.90407983374,
			"0.015": 0.220777831041,
			"0.016": 0.0,
			"0.017": 0.0,
			"0.018": 0.0,
			"0.019": 0.0,
			"0.02": 0.0,
			"0.021": 0.0,
			"0.022": 0.0,
			"0.023": 0.0,
			"0.024": 0.0,
			"0.025": 0.0
		}
	}
}
