{
	 "smiles": "COC(=O)C(Br)C(Br)C1=CC(=CC=C1)C(Br)C(Br)C(=O)OC", 
	 "Tm": 418.15, 
	 "num_atms": 36, 
	 "gaussian": { 
		 "optdone": 1, 
		 "sigma_profile": "yes", 
		 "theory": "DFT", 
		 "functional": "B3LYP", 
		 "basiset": "6-31G**", 
		 "properties": { 
			 "R2extent": 16837.4762, 
			 "electric_dipole_moment_norm": 4.05227596543, 
			 "electric_quadrupole_moment_norm": 14.5070786608, 
			 "total_energy": -11128.4430778, 
			 "HOMO_LUMO_gap": 0.20329, 
			 "cosmo_polarized_energy": -19.76, 
			 "cosmo_cavitation_energy": 49.08, 
			 "cosmo_dispersion_energy": -32.93, 
			 "cosmo_repulsion_energy": 2.59, 
			 "cosmo_total_nonelectrostatic_energy": 18.74, 
			 "SMD_solvation_energy": 6.82 
		},
		"coords": [
			{
				"x": 6.4439910212,
				"y": 1.5643193011,
				"z": -0.4283319882,
				"element": "C" 
			},
			{
				"x": 5.2684252054,
				"y": 1.6279608499,
				"z": 0.4042276379,
				"element": "O" 
			},
			{
				"x": 4.1255478672,
				"y": 1.3240969317,
				"z": -0.2033126756,
				"element": "C" 
			},
			{
				"x": 4.0179418353,
				"y": 1.0286851316,
				"z": -1.3762031348,
				"element": "O" 
			},
			{
				"x": 2.8753362159,
				"y": 1.393498297,
				"z": 0.6817922509,
				"element": "C" 
			},
			{
				"x": 3.2125392237,
				"y": 1.937912217,
				"z": 2.5406664052,
				"element": "Br" 
			},
			{
				"x": 2.0600592843,
				"y": 0.0964869234,
				"z": 0.5348055545,
				"element": "C" 
			},
			{
				"x": 3.0748538362,
				"y": -1.4469971708,
				"z": 1.280991106,
				"element": "Br" 
			},
			{
				"x": 0.6418227207,
				"y": 0.1574474437,
				"z": 1.0453064469,
				"element": "C" 
			},
			{
				"x": -0.3715666062,
				"y": 0.4210419744,
				"z": 0.1146087123,
				"element": "C" 
			},
			{
				"x": -1.7097354611,
				"y": 0.5510609758,
				"z": 0.5087136978,
				"element": "C" 
			},
			{
				"x": -2.0300416568,
				"y": 0.4234753082,
				"z": 1.8658871356,
				"element": "C" 
			},
			{
				"x": -1.0277170201,
				"y": 0.1499192081,
				"z": 2.7947224202,
				"element": "C" 
			},
			{
				"x": 0.3008973165,
				"y": 0.0130623694,
				"z": 2.394196844,
				"element": "C" 
			},
			{
				"x": -2.7437631135,
				"y": 0.7871295197,
				"z": -0.5648140047,
				"element": "C" 
			},
			{
				"x": -3.9295400353,
				"y": 2.331914905,
				"z": -0.1348495146,
				"element": "Br" 
			},
			{
				"x": -3.5992267151,
				"y": -0.4258889242,
				"z": -0.9846857735,
				"element": "C" 
			},
			{
				"x": -4.7707900672,
				"y": -1.1393863647,
				"z": 0.4135290191,
				"element": "Br" 
			},
			{
				"x": -2.7086046172,
				"y": -1.5477605735,
				"z": -1.5475331934,
				"element": "C" 
			},
			{
				"x": -2.6312191539,
				"y": -2.6820831246,
				"z": -1.1531289038,
				"element": "O" 
			},
			{
				"x": -2.0177802046,
				"y": -1.0579922059,
				"z": -2.6024334572,
				"element": "O" 
			},
			{
				"x": -1.1473520136,
				"y": -2.0048229257,
				"z": -3.2561372388,
				"element": "C" 
			},
			{
				"x": 6.3538408934,
				"y": 2.2583838688,
				"z": -1.2668684491,
				"element": "H" 
			},
			{
				"x": 6.5782327697,
				"y": 0.5511211043,
				"z": -0.8132057655,
				"element": "H" 
			},
			{
				"x": 7.2722553182,
				"y": 1.8451063095,
				"z": 0.2204324707,
				"element": "H" 
			},
			{
				"x": 2.2567666272,
				"y": 2.1988781683,
				"z": 0.2763531229,
				"element": "H" 
			},
			{
				"x": 2.0570836147,
				"y": -0.1096959063,
				"z": -0.5361012331,
				"element": "H" 
			},
			{
				"x": -0.1158452075,
				"y": 0.5243867561,
				"z": -0.9375435799,
				"element": "H" 
			},
			{
				"x": -3.0567965168,
				"y": 0.5438634467,
				"z": 2.1895847511,
				"element": "H" 
			},
			{
				"x": -1.2845971931,
				"y": 0.0435279365,
				"z": 3.8441884521,
				"element": "H" 
			},
			{
				"x": 1.0717710237,
				"y": -0.2110650065,
				"z": 3.1219795565,
				"element": "H" 
			},
			{
				"x": -2.2452993443,
				"y": 1.1162761132,
				"z": -1.4762847406,
				"element": "H" 
			},
			{
				"x": -4.2740458176,
				"y": -0.1040578559,
				"z": -1.7791101928,
				"element": "H" 
			},
			{
				"x": -0.675213925,
				"y": -1.4541771777,
				"z": -4.0689618045,
				"element": "H" 
			},
			{
				"x": -1.7262976537,
				"y": -2.8457575691,
				"z": -3.6440089582,
				"element": "H" 
			},
			{
				"x": -0.3990324506,
				"y": -2.3804702545,
				"z": -2.5548709755,
				"element": "H" 
			}
		],
		 "valence_orbital": [ 
			{
				"type": "occ",
				"energy": -0.27975,
				"method": "rhf"
			},
			{
				"type": "occ",
				"energy": -0.2732,
				"method": "rhf"
			},
			{
				"type": "occ",
				"energy": -0.27175,
				"method": "rhf"
			},
			{
				"type": "occ",
				"energy": -0.26354,
				"method": "rhf"
			},
			{
				"type": "occ",
				"energy": -0.25444,
				"method": "rhf"
			},
			{
				"type": "unocc",
				"energy": -0.05115,
				"method": "rhf"
			},
			{
				"type": "unocc",
				"energy": -0.03205,
				"method": "rhf"
			},
			{
				"type": "unocc",
				"energy": -0.02354,
				"method": "rhf"
			},
			{
				"type": "unocc",
				"energy": -0.01659,
				"method": "rhf"
			},
			{
				"type": "unocc",
				"energy": -0.01027,
				"method": "rhf"
			}
		],
		"cosmo_sigma_profile": { 
			"-0.025": 0.0,
			"-0.024": 0.0,
			"-0.023": 0.0,
			"-0.022": 0.0,
			"-0.021": 0.0,
			"-0.02": 0.0,
			"-0.019": 0.0,
			"-0.018": 0.0,
			"-0.017": 0.0,
			"-0.016": 0.0,
			"-0.015": 0.0,
			"-0.014": 0.0,
			"-0.013": 0.0,
			"-0.012": 0.0,
			"-0.011": 1.30457237566,
			"-0.01": 4.45128779137,
			"-0.009": 7.34097115225,
			"-0.008": 8.07566994729,
			"-0.007": 14.0503561202,
			"-0.006": 22.0842811596,
			"-0.005": 26.8303188575,
			"-0.004": 32.8528572113,
			"-0.003": 26.9947787974,
			"-0.002": 20.7072698853,
			"-0.001": 21.5962879448,
			"0.0": 22.0555722727,
			"0.001": 23.709159403,
			"0.002": 27.0187854239,
			"0.003": 33.6699892581,
			"0.004": 35.0576470494,
			"0.005": 28.5638241214,
			"0.006": 13.9355776573,
			"0.007": 5.59858478343,
			"0.008": 5.48891038254,
			"0.009": 5.21421646126,
			"0.01": 6.87530393188,
			"0.011": 7.33750415392,
			"0.012": 0.850467699333,
			"0.013": 0.0,
			"0.014": 0.0,
			"0.015": 0.0,
			"0.016": 0.0,
			"0.017": 0.0,
			"0.018": 0.0,
			"0.019": 0.0,
			"0.02": 0.0,
			"0.021": 0.0,
			"0.022": 0.0,
			"0.023": 0.0,
			"0.024": 0.0,
			"0.025": 0.0
		}
	}
}
