{
	 "smiles": "NS(=O)(=O)C1=CC2=C(S1)C(=O)CCS2", 
	 "Tm": 487.15, 
	 "num_atms": 21, 
	 "gaussian": { 
		 "optdone": 1, 
		 "sigma_profile": "yes", 
		 "theory": "DFT", 
		 "functional": "B3LYP", 
		 "basiset": "6-31G**", 
		 "properties": { 
			 "R2extent": 4875.5701, 
			 "electric_dipole_moment_norm": 6.25825056465, 
			 "electric_quadrupole_moment_norm": 20.3219607204, 
			 "total_energy": -1745.86236617, 
			 "HOMO_LUMO_gap": 0.14878, 
			 "cosmo_polarized_energy": -22.55, 
			 "cosmo_cavitation_energy": 29.74, 
			 "cosmo_dispersion_energy": -23.35, 
			 "cosmo_repulsion_energy": 1.7, 
			 "cosmo_total_nonelectrostatic_energy": 8.1, 
			 "SMD_solvation_energy": 4.21 
		},
		"coords": [
			{
				"x": 2.5599798775,
				"y": 0.1186919191,
				"z": 4.2250618396,
				"element": "N" 
			},
			{
				"x": 2.2947020456,
				"y": -1.1975149499,
				"z": 3.229391923,
				"element": "S" 
			},
			{
				"x": 3.5987835618,
				"y": -1.5696850661,
				"z": 2.6918936438,
				"element": "O" 
			},
			{
				"x": 1.4370690009,
				"y": -2.1031453454,
				"z": 3.9851015214,
				"element": "O" 
			},
			{
				"x": 1.3366522013,
				"y": -0.6069773283,
				"z": 1.8397911792,
				"element": "C" 
			},
			{
				"x": 1.8691025878,
				"y": -0.2595320929,
				"z": 0.6240712576,
				"element": "C" 
			},
			{
				"x": 0.8673090339,
				"y": 0.2205153701,
				"z": -0.2692070016,
				"element": "C" 
			},
			{
				"x": -0.3997852387,
				"y": 0.2131118123,
				"z": 0.2977382002,
				"element": "C" 
			},
			{
				"x": -0.3815410288,
				"y": -0.3861933346,
				"z": 1.9396668097,
				"element": "S" 
			},
			{
				"x": -1.6728481355,
				"y": 0.5395860723,
				"z": -0.3482523229,
				"element": "C" 
			},
			{
				"x": -2.7390551191,
				"y": 0.4751111958,
				"z": 0.2472531801,
				"element": "O" 
			},
			{
				"x": -1.5959259516,
				"y": 0.9084190665,
				"z": -1.8288515057,
				"element": "C" 
			},
			{
				"x": -0.3396932754,
				"y": 1.6909569406,
				"z": -2.2118863153,
				"element": "C" 
			},
			{
				"x": 1.2165785866,
				"y": 0.7552438392,
				"z": -1.9117832415,
				"element": "S" 
			},
			{
				"x": 3.1331161452,
				"y": 0.8418205906,
				"z": 3.8033651983,
				"element": "H" 
			},
			{
				"x": 1.7192000284,
				"y": 0.4654231711,
				"z": 4.6749715162,
				"element": "H" 
			},
			{
				"x": 2.9230620886,
				"y": -0.3471277682,
				"z": 0.3902333831,
				"element": "H" 
			},
			{
				"x": -1.6455266174,
				"y": -0.0260877656,
				"z": -2.4043436616,
				"element": "H" 
			},
			{
				"x": -2.4938442526,
				"y": 1.4867694679,
				"z": -2.0671451607,
				"element": "H" 
			},
			{
				"x": -0.2795454052,
				"y": 2.6330299184,
				"z": -1.6577182174,
				"element": "H" 
			},
			{
				"x": -0.3328901332,
				"y": 1.923584287,
				"z": -3.2794522254,
				"element": "H" 
			}
		],
		 "valence_orbital": [ 
			{
				"type": "occ",
				"energy": -0.31894,
				"method": "rhf"
			},
			{
				"type": "occ",
				"energy": -0.30993,
				"method": "rhf"
			},
			{
				"type": "occ",
				"energy": -0.27517,
				"method": "rhf"
			},
			{
				"type": "occ",
				"energy": -0.26815,
				"method": "rhf"
			},
			{
				"type": "occ",
				"energy": -0.24062,
				"method": "rhf"
			},
			{
				"type": "unocc",
				"energy": -0.09184,
				"method": "rhf"
			},
			{
				"type": "unocc",
				"energy": -0.01388,
				"method": "rhf"
			},
			{
				"type": "unocc",
				"energy": -0.00841,
				"method": "rhf"
			},
			{
				"type": "unocc",
				"energy": 0.01023,
				"method": "rhf"
			},
			{
				"type": "unocc",
				"energy": 0.03895,
				"method": "rhf"
			}
		],
		"cosmo_sigma_profile": { 
			"-0.025": 0.0,
			"-0.024": 0.0,
			"-0.023": 0.0,
			"-0.022": 0.0,
			"-0.021": 0.0,
			"-0.02": 0.0,
			"-0.019": 0.0,
			"-0.018": 0.0,
			"-0.017": 0.0,
			"-0.016": 1.28454507279,
			"-0.015": 2.79288742449,
			"-0.014": 2.51922422259,
			"-0.013": 3.46120197866,
			"-0.012": 2.41107067279,
			"-0.011": 2.96912957522,
			"-0.01": 2.17942871713,
			"-0.009": 2.69259013073,
			"-0.008": 5.94151918204,
			"-0.007": 11.7480577487,
			"-0.006": 14.369891993,
			"-0.005": 13.8613137912,
			"-0.004": 12.2273254308,
			"-0.003": 10.9339849143,
			"-0.002": 9.78003323842,
			"-0.001": 14.5882477663,
			"0.0": 20.078453839,
			"0.001": 14.4266887624,
			"0.002": 11.9223115557,
			"0.003": 8.69965540215,
			"0.004": 8.8623895975,
			"0.005": 7.63654078124,
			"0.006": 7.56013477943,
			"0.007": 7.79326255519,
			"0.008": 4.97660443823,
			"0.009": 7.70862990628,
			"0.01": 13.2330022084,
			"0.011": 11.0100938764,
			"0.012": 3.1180984521,
			"0.013": 0.702137532761,
			"0.014": 0.0,
			"0.015": 0.0,
			"0.016": 0.0,
			"0.017": 0.0,
			"0.018": 0.0,
			"0.019": 0.0,
			"0.02": 0.0,
			"0.021": 0.0,
			"0.022": 0.0,
			"0.023": 0.0,
			"0.024": 0.0,
			"0.025": 0.0
		}
	}
}
