{
	 "smiles": "NC(CC1CC1=C)C(O)=O", 
	 "Tm": 555.15, 
	 "num_atms": 21, 
	 "gaussian": { 
		 "optdone": 1, 
		 "sigma_profile": "yes", 
		 "theory": "DFT", 
		 "functional": "B3LYP", 
		 "basiset": "6-31G**", 
		 "properties": { 
			 "R2extent": 2511.3088, 
			 "electric_dipole_moment_norm": 2.19021356036, 
			 "electric_quadrupole_moment_norm": 10.0973728727, 
			 "total_energy": -478.512282691, 
			 "HOMO_LUMO_gap": 0.24043, 
			 "cosmo_polarized_energy": -12.34, 
			 "cosmo_cavitation_energy": 24.7, 
			 "cosmo_dispersion_energy": -17.09, 
			 "cosmo_repulsion_energy": 1.41, 
			 "cosmo_total_nonelectrostatic_energy": 9.02, 
			 "SMD_solvation_energy": 4.32 
		},
		"coords": [
			{
				"x": -0.7351800162,
				"y": -3.2410103339,
				"z": -1.651779143,
				"element": "N" 
			},
			{
				"x": -1.2398155465,
				"y": -1.8761717282,
				"z": -1.7737146349,
				"element": "C" 
			},
			{
				"x": -0.1947226698,
				"y": -0.730916973,
				"z": -1.6211210467,
				"element": "C" 
			},
			{
				"x": 0.5947822943,
				"y": -0.7566136638,
				"z": -0.3209229448,
				"element": "C" 
			},
			{
				"x": 1.9273212977,
				"y": 0.0114346397,
				"z": -0.22422768,
				"element": "C" 
			},
			{
				"x": 1.8873945673,
				"y": -1.4572173378,
				"z": -0.215340803,
				"element": "C" 
			},
			{
				"x": 2.5626863084,
				"y": -2.5941353771,
				"z": -0.175754034,
				"element": "C" 
			},
			{
				"x": -2.3890005471,
				"y": -1.6270085172,
				"z": -0.8051489789,
				"element": "C" 
			},
			{
				"x": -2.2701971901,
				"y": -2.3298514351,
				"z": 0.34839505,
				"element": "O" 
			},
			{
				"x": -3.290745147,
				"y": -0.8420370953,
				"z": -0.9970654754,
				"element": "O" 
			},
			{
				"x": 0.0734834455,
				"y": -3.357767438,
				"z": -2.2573837354,
				"element": "H" 
			},
			{
				"x": -0.4182359323,
				"y": -3.4081856311,
				"z": -0.7007276083,
				"element": "H" 
			},
			{
				"x": -1.6881438729,
				"y": -1.7634368026,
				"z": -2.7669192026,
				"element": "H" 
			},
			{
				"x": 0.5028002426,
				"y": -0.8035090879,
				"z": -2.4650364158,
				"element": "H" 
			},
			{
				"x": -0.717896714,
				"y": 0.2286667293,
				"z": -1.7214649553,
				"element": "H" 
			},
			{
				"x": -0.0155713361,
				"y": -0.7339211063,
				"z": 0.5827542788,
				"element": "H" 
			},
			{
				"x": 2.2841671312,
				"y": 0.5182786427,
				"z": -1.1200738904,
				"element": "H" 
			},
			{
				"x": 2.1442106736,
				"y": 0.5442940506,
				"z": 0.6996772561,
				"element": "H" 
			},
			{
				"x": 3.6468932795,
				"y": -2.6077292642,
				"z": -0.09788257,
				"element": "H" 
			},
			{
				"x": 2.0611285304,
				"y": -3.558240536,
				"z": -0.2137007421,
				"element": "H" 
			},
			{
				"x": -3.0332587983,
				"y": -2.078521735,
				"z": 0.8959372757,
				"element": "H" 
			}
		],
		 "valence_orbital": [ 
			{
				"type": "occ",
				"energy": -0.30332,
				"method": "rhf"
			},
			{
				"type": "occ",
				"energy": -0.28918,
				"method": "rhf"
			},
			{
				"type": "occ",
				"energy": -0.27705,
				"method": "rhf"
			},
			{
				"type": "occ",
				"energy": -0.26207,
				"method": "rhf"
			},
			{
				"type": "occ",
				"energy": -0.23778,
				"method": "rhf"
			},
			{
				"type": "unocc",
				"energy": 0.00265,
				"method": "rhf"
			},
			{
				"type": "unocc",
				"energy": 0.0097,
				"method": "rhf"
			},
			{
				"type": "unocc",
				"energy": 0.06435,
				"method": "rhf"
			},
			{
				"type": "unocc",
				"energy": 0.08961,
				"method": "rhf"
			},
			{
				"type": "unocc",
				"energy": 0.10857,
				"method": "rhf"
			}
		],
		"cosmo_sigma_profile": { 
			"-0.025": 0.0,
			"-0.024": 0.0,
			"-0.023": 0.0,
			"-0.022": 0.0,
			"-0.021": 0.0,
			"-0.02": 0.0,
			"-0.019": 0.0,
			"-0.018": 0.9038314935,
			"-0.017": 0.768320498429,
			"-0.016": 1.02005973679,
			"-0.015": 0.647683577305,
			"-0.014": 0.913105678092,
			"-0.013": 0.785417614994,
			"-0.012": 0.59363755191,
			"-0.011": 0.511141888769,
			"-0.01": 1.62804428985,
			"-0.009": 1.57161700469,
			"-0.008": 2.38023160885,
			"-0.007": 3.76455752257,
			"-0.006": 5.77019052861,
			"-0.005": 14.0075545167,
			"-0.004": 18.3848877419,
			"-0.003": 17.1483143844,
			"-0.002": 17.2044272897,
			"-0.001": 14.5692999503,
			"0.0": 14.1387497302,
			"0.001": 9.46314998082,
			"0.002": 9.92791930056,
			"0.003": 10.5857798416,
			"0.004": 7.94396046687,
			"0.005": 6.32193292874,
			"0.006": 5.43960437945,
			"0.007": 5.22899685942,
			"0.008": 2.00482893664,
			"0.009": 2.24003237369,
			"0.01": 2.96251364445,
			"0.011": 5.03291887855,
			"0.012": 4.85552092038,
			"0.013": 1.42592224461,
			"0.014": 0.59664491477,
			"0.015": 0.78446525153,
			"0.016": 0.288144350191,
			"0.017": 0.839727736368,
			"0.018": 0.460826121599,
			"0.019": 0.237478215152,
			"0.02": 0.0,
			"0.021": 0.0,
			"0.022": 0.0,
			"0.023": 0.0,
			"0.024": 0.0,
			"0.025": 0.0
		}
	}
}
