{
	 "smiles": "O=C1C2=CC=CC=C2C=CC2=C1C=CC=C2", 
	 "Tm": 361.65, 
	 "num_atms": 26, 
	 "gaussian": { 
		 "optdone": 1, 
		 "sigma_profile": "yes", 
		 "theory": "DFT", 
		 "functional": "B3LYP", 
		 "basiset": "6-31G**", 
		 "properties": { 
			 "R2extent": 4119.1681, 
			 "electric_dipole_moment_norm": 2.87201694111, 
			 "electric_quadrupole_moment_norm": 17.3853682561, 
			 "total_energy": -652.844050779, 
			 "HOMO_LUMO_gap": 0.1561, 
			 "cosmo_polarized_energy": -9.2, 
			 "cosmo_cavitation_energy": 29.4, 
			 "cosmo_dispersion_energy": -22.09, 
			 "cosmo_repulsion_energy": 1.64, 
			 "cosmo_total_nonelectrostatic_energy": 8.94, 
			 "SMD_solvation_energy": 4.95 
		},
		"coords": [
			{
				"x": -0.5685424656,
				"y": 1.8203789732,
				"z": 2.8971775671,
				"element": "O" 
			},
			{
				"x": -0.2048644853,
				"y": 1.3860814676,
				"z": 1.8039784914,
				"element": "C" 
			},
			{
				"x": 0.608694707,
				"y": 2.2940896978,
				"z": 0.9286382736,
				"element": "C" 
			},
			{
				"x": 0.5057764855,
				"y": 3.6579589076,
				"z": 1.2687834789,
				"element": "C" 
			},
			{
				"x": 1.2125436763,
				"y": 4.6409235814,
				"z": 0.5926008978,
				"element": "C" 
			},
			{
				"x": 2.0810900544,
				"y": 4.2752464316,
				"z": -0.4421628597,
				"element": "C" 
			},
			{
				"x": 2.2116678662,
				"y": 2.9386254078,
				"z": -0.7814434882,
				"element": "C" 
			},
			{
				"x": 1.4767711796,
				"y": 1.9193266066,
				"z": -0.1301773052,
				"element": "C" 
			},
			{
				"x": 1.71671092,
				"y": 0.5703743453,
				"z": -0.6091335166,
				"element": "C" 
			},
			{
				"x": 1.0482559314,
				"y": -0.5798778497,
				"z": -0.3744806939,
				"element": "C" 
			},
			{
				"x": -0.1285506236,
				"y": -0.8429767179,
				"z": 0.4333122321,
				"element": "C" 
			},
			{
				"x": -0.7053791206,
				"y": 0.0331319742,
				"z": 1.3897521557,
				"element": "C" 
			},
			{
				"x": -1.848814776,
				"y": -0.3931155611,
				"z": 2.0949541217,
				"element": "C" 
			},
			{
				"x": -2.4326623525,
				"y": -1.6309788662,
				"z": 1.8718649213,
				"element": "C" 
			},
			{
				"x": -1.8590365293,
				"y": -2.5045078624,
				"z": 0.9408836873,
				"element": "C" 
			},
			{
				"x": -0.7243549224,
				"y": -2.1135441739,
				"z": 0.2492473822,
				"element": "C" 
			},
			{
				"x": -0.1472030921,
				"y": 3.9147746594,
				"z": 2.0943631085,
				"element": "H" 
			},
			{
				"x": 1.0983565291,
				"y": 5.6837030034,
				"z": 0.8731042857,
				"element": "H" 
			},
			{
				"x": 2.6526002725,
				"y": 5.0296129627,
				"z": -0.9751784822,
				"element": "H" 
			},
			{
				"x": 2.8918470327,
				"y": 2.6519839205,
				"z": -1.5788085598,
				"element": "H" 
			},
			{
				"x": 2.5484479778,
				"y": 0.4957391564,
				"z": -1.3067355618,
				"element": "H" 
			},
			{
				"x": 1.4156789663,
				"y": -1.4535025735,
				"z": -0.9090666471,
				"element": "H" 
			},
			{
				"x": -2.2566016415,
				"y": 0.2858424888,
				"z": 2.8343054832,
				"element": "H" 
			},
			{
				"x": -3.3214885403,
				"y": -1.9209212123,
				"z": 2.4241616089,
				"element": "H" 
			},
			{
				"x": -2.2946424154,
				"y": -3.4832126847,
				"z": 0.7614881587,
				"element": "H" 
			},
			{
				"x": -0.2727006344,
				"y": -2.7936560828,
				"z": -0.4677287396,
				"element": "H" 
			}
		],
		 "valence_orbital": [ 
			{
				"type": "occ",
				"energy": -0.27134,
				"method": "rhf"
			},
			{
				"type": "occ",
				"energy": -0.26044,
				"method": "rhf"
			},
			{
				"type": "occ",
				"energy": -0.25667,
				"method": "rhf"
			},
			{
				"type": "occ",
				"energy": -0.24338,
				"method": "rhf"
			},
			{
				"type": "occ",
				"energy": -0.21816,
				"method": "rhf"
			},
			{
				"type": "unocc",
				"energy": -0.06206,
				"method": "rhf"
			},
			{
				"type": "unocc",
				"energy": -0.06121,
				"method": "rhf"
			},
			{
				"type": "unocc",
				"energy": -0.00464,
				"method": "rhf"
			},
			{
				"type": "unocc",
				"energy": 0.00104,
				"method": "rhf"
			},
			{
				"type": "unocc",
				"energy": 0.05557,
				"method": "rhf"
			}
		],
		"cosmo_sigma_profile": { 
			"-0.025": 0.0,
			"-0.024": 0.0,
			"-0.023": 0.0,
			"-0.022": 0.0,
			"-0.021": 0.0,
			"-0.02": 0.0,
			"-0.019": 0.0,
			"-0.018": 0.0,
			"-0.017": 0.0,
			"-0.016": 0.0,
			"-0.015": 0.0,
			"-0.014": 0.0,
			"-0.013": 0.0,
			"-0.012": 0.0,
			"-0.011": 0.0,
			"-0.01": 0.0,
			"-0.009": 0.0,
			"-0.008": 0.226381963257,
			"-0.007": 7.86275566783,
			"-0.006": 17.5780453869,
			"-0.005": 19.1482445581,
			"-0.004": 18.5610332119,
			"-0.003": 13.916493192,
			"-0.002": 14.097045758,
			"-0.001": 14.1349541182,
			"0.0": 17.2116919208,
			"0.001": 19.2747182318,
			"0.002": 24.579578739,
			"0.003": 29.7083850789,
			"0.004": 22.3810448979,
			"0.005": 2.05586151337,
			"0.006": 2.04251945974,
			"0.007": 1.81479406187,
			"0.008": 1.59279472074,
			"0.009": 1.92875271876,
			"0.01": 1.65513807171,
			"0.011": 2.27769315053,
			"0.012": 3.66279966649,
			"0.013": 1.40782603122,
			"0.014": 0.0,
			"0.015": 0.0,
			"0.016": 0.0,
			"0.017": 0.0,
			"0.018": 0.0,
			"0.019": 0.0,
			"0.02": 0.0,
			"0.021": 0.0,
			"0.022": 0.0,
			"0.023": 0.0,
			"0.024": 0.0,
			"0.025": 0.0
		}
	}
}
