{
	 "smiles": "FC1=CC=C(C=C1F)C(=O)C1=CC=CC=C1", 
	 "Tm": 329.15, 
	 "num_atms": 24, 
	 "gaussian": { 
		 "optdone": 1, 
		 "sigma_profile": "yes", 
		 "theory": "DFT", 
		 "functional": "B3LYP", 
		 "basiset": "6-31G**", 
		 "properties": { 
			 "R2extent": 4580.2124, 
			 "electric_dipole_moment_norm": 2.04150895663, 
			 "electric_quadrupole_moment_norm": 16.0213822347, 
			 "total_energy": -775.09096028, 
			 "HOMO_LUMO_gap": 0.1784, 
			 "cosmo_polarized_energy": -8.24, 
			 "cosmo_cavitation_energy": 29.97, 
			 "cosmo_dispersion_energy": -21.38, 
			 "cosmo_repulsion_energy": 1.6, 
			 "cosmo_total_nonelectrostatic_energy": 10.19, 
			 "SMD_solvation_energy": 6.53 
		},
		"coords": [
			{
				"x": -3.6545759576,
				"y": 0.5690177079,
				"z": -3.4554272084,
				"element": "F" 
			},
			{
				"x": -2.5871764389,
				"y": 0.1307650159,
				"z": -2.7724595423,
				"element": "C" 
			},
			{
				"x": -1.352935885,
				"y": -0.0033333236,
				"z": -3.3984083061,
				"element": "C" 
			},
			{
				"x": -0.2647160767,
				"y": -0.4676328573,
				"z": -2.665280247,
				"element": "C" 
			},
			{
				"x": -0.3954885179,
				"y": -0.7754238404,
				"z": -1.3021153083,
				"element": "C" 
			},
			{
				"x": -1.6497995544,
				"y": -0.6416361219,
				"z": -0.6842631489,
				"element": "C" 
			},
			{
				"x": -2.7339861761,
				"y": -0.1951428816,
				"z": -1.4239760869,
				"element": "C" 
			},
			{
				"x": -3.9445151792,
				"y": -0.0739665043,
				"z": -0.8531006956,
				"element": "F" 
			},
			{
				"x": 0.8089181381,
				"y": -1.322955517,
				"z": -0.5915442194,
				"element": "C" 
			},
			{
				"x": 1.6797768916,
				"y": -1.8949238292,
				"z": -1.2378268137,
				"element": "O" 
			},
			{
				"x": 0.9527260175,
				"y": -1.1795981416,
				"z": 0.8939718271,
				"element": "C" 
			},
			{
				"x": 0.4306444718,
				"y": -0.0934546168,
				"z": 1.6142235968,
				"element": "C" 
			},
			{
				"x": 0.6587977968,
				"y": 0.0156795024,
				"z": 2.9865254433,
				"element": "C" 
			},
			{
				"x": 1.3982697695,
				"y": -0.96258059,
				"z": 3.6530978678,
				"element": "C" 
			},
			{
				"x": 1.9289830713,
				"y": -2.0430549413,
				"z": 2.9414061231,
				"element": "C" 
			},
			{
				"x": 1.7190697223,
				"y": -2.1434308212,
				"z": 1.5695076082,
				"element": "C" 
			},
			{
				"x": -1.2682129221,
				"y": 0.252590143,
				"z": -4.4490935576,
				"element": "H" 
			},
			{
				"x": 0.7026198985,
				"y": -0.6037706591,
				"z": -3.1351654941,
				"element": "H" 
			},
			{
				"x": -1.8048470813,
				"y": -0.9027428655,
				"z": 0.3559245116,
				"element": "H" 
			},
			{
				"x": -0.1280270583,
				"y": 0.6814041487,
				"z": 1.0999088551,
				"element": "H" 
			},
			{
				"x": 0.2620266455,
				"y": 0.8660616096,
				"z": 3.5332004394,
				"element": "H" 
			},
			{
				"x": 1.5671066832,
				"y": -0.8806239941,
				"z": 4.72303032,
				"element": "H" 
			},
			{
				"x": 2.5106909822,
				"y": -2.8013182091,
				"z": 3.4573565819,
				"element": "H" 
			},
			{
				"x": 2.1413507595,
				"y": -2.9618284137,
				"z": 0.996007454,
				"element": "H" 
			}
		],
		 "valence_orbital": [ 
			{
				"type": "occ",
				"energy": -0.27348,
				"method": "rhf"
			},
			{
				"type": "occ",
				"energy": -0.26795,
				"method": "rhf"
			},
			{
				"type": "occ",
				"energy": -0.26452,
				"method": "rhf"
			},
			{
				"type": "occ",
				"energy": -0.25901,
				"method": "rhf"
			},
			{
				"type": "occ",
				"energy": -0.24914,
				"method": "rhf"
			},
			{
				"type": "unocc",
				"energy": -0.07074,
				"method": "rhf"
			},
			{
				"type": "unocc",
				"energy": -0.02638,
				"method": "rhf"
			},
			{
				"type": "unocc",
				"energy": -0.01495,
				"method": "rhf"
			},
			{
				"type": "unocc",
				"energy": -0.0126,
				"method": "rhf"
			},
			{
				"type": "unocc",
				"energy": 0.05104,
				"method": "rhf"
			}
		],
		"cosmo_sigma_profile": { 
			"-0.025": 0.0,
			"-0.024": 0.0,
			"-0.023": 0.0,
			"-0.022": 0.0,
			"-0.021": 0.0,
			"-0.02": 0.0,
			"-0.019": 0.0,
			"-0.018": 0.0,
			"-0.017": 0.0,
			"-0.016": 0.0,
			"-0.015": 0.0,
			"-0.014": 0.0,
			"-0.013": 0.0,
			"-0.012": 0.0,
			"-0.011": 0.0,
			"-0.01": 0.0,
			"-0.009": 0.447004483452,
			"-0.008": 2.3964526474,
			"-0.007": 4.61564291258,
			"-0.006": 14.8587343731,
			"-0.005": 17.2549670014,
			"-0.004": 17.5534919252,
			"-0.003": 15.2667742615,
			"-0.002": 18.3996207316,
			"-0.001": 22.3847132088,
			"0.0": 20.2832387745,
			"0.001": 17.7246248908,
			"0.002": 19.8906771612,
			"0.003": 29.4437240423,
			"0.004": 22.4251748399,
			"0.005": 2.70576931697,
			"0.006": 2.11032501625,
			"0.007": 1.45536822951,
			"0.008": 2.14988808913,
			"0.009": 1.84575125981,
			"0.01": 1.998751115,
			"0.011": 3.20427969348,
			"0.012": 3.52921848746,
			"0.013": 0.210163855659,
			"0.014": 0.0,
			"0.015": 0.0,
			"0.016": 0.0,
			"0.017": 0.0,
			"0.018": 0.0,
			"0.019": 0.0,
			"0.02": 0.0,
			"0.021": 0.0,
			"0.022": 0.0,
			"0.023": 0.0,
			"0.024": 0.0,
			"0.025": 0.0
		}
	}
}
