{
	 "smiles": "CCOC1=C(OCC(O)=O)C=CC=C1", 
	 "Tm": 318.15, 
	 "num_atms": 26, 
	 "gaussian": { 
		 "optdone": 1, 
		 "sigma_profile": "yes", 
		 "theory": "DFT", 
		 "functional": "B3LYP", 
		 "basiset": "6-31G**", 
		 "properties": { 
			 "R2extent": 3397.907, 
			 "electric_dipole_moment_norm": 5.03782801314, 
			 "electric_quadrupole_moment_norm": 19.1238424899, 
			 "total_energy": -689.183297168, 
			 "HOMO_LUMO_gap": 0.21457, 
			 "cosmo_polarized_energy": -13.36, 
			 "cosmo_cavitation_energy": 29.57, 
			 "cosmo_dispersion_energy": -21.23, 
			 "cosmo_repulsion_energy": 1.68, 
			 "cosmo_total_nonelectrostatic_energy": 10.02, 
			 "SMD_solvation_energy": 6.8 
		},
		"coords": [
			{
				"x": -0.312587371,
				"y": 2.4400368849,
				"z": -1.1640752459,
				"element": "C" 
			},
			{
				"x": 0.8109205253,
				"y": 1.4882171414,
				"z": -0.7949696865,
				"element": "C" 
			},
			{
				"x": 0.2715910653,
				"y": 0.1586540027,
				"z": -0.7998417371,
				"element": "O" 
			},
			{
				"x": 1.0656929123,
				"y": -0.8800635464,
				"z": -0.3955112618,
				"element": "C" 
			},
			{
				"x": 0.414749775,
				"y": -2.1237728686,
				"z": -0.2604794047,
				"element": "C" 
			},
			{
				"x": -0.9209133527,
				"y": -2.1838692314,
				"z": -0.6060500721,
				"element": "O" 
			},
			{
				"x": -1.8645568197,
				"y": -2.5236522447,
				"z": 0.411203975,
				"element": "C" 
			},
			{
				"x": -2.6528657265,
				"y": -1.3045735317,
				"z": 0.9119763163,
				"element": "C" 
			},
			{
				"x": -2.3209453647,
				"y": -0.1260912929,
				"z": 0.37210503,
				"element": "O" 
			},
			{
				"x": -3.5252693839,
				"y": -1.4312489455,
				"z": 1.7379313875,
				"element": "O" 
			},
			{
				"x": 1.1269898967,
				"y": -3.2460232197,
				"z": 0.1494923058,
				"element": "C" 
			},
			{
				"x": 2.4907090224,
				"y": -3.1450790217,
				"z": 0.4419231751,
				"element": "C" 
			},
			{
				"x": 3.135208216,
				"y": -1.918505423,
				"z": 0.3070218458,
				"element": "C" 
			},
			{
				"x": 2.4300497056,
				"y": -0.7853956985,
				"z": -0.1131756704,
				"element": "C" 
			},
			{
				"x": 0.0584951374,
				"y": 3.4692943231,
				"z": -1.1658247283,
				"element": "H" 
			},
			{
				"x": -1.1327791019,
				"y": 2.3671749588,
				"z": -0.4446402065,
				"element": "H" 
			},
			{
				"x": -0.701609082,
				"y": 2.2117539484,
				"z": -2.1603274972,
				"element": "H" 
			},
			{
				"x": 1.634507549,
				"y": 1.5479025404,
				"z": -1.5184594228,
				"element": "H" 
			},
			{
				"x": 1.2126424894,
				"y": 1.7147110887,
				"z": 0.2015229807,
				"element": "H" 
			},
			{
				"x": -2.5826298649,
				"y": -3.231689928,
				"z": -0.0123161909,
				"element": "H" 
			},
			{
				"x": -1.3819768932,
				"y": -2.9983691695,
				"z": 1.2713413564,
				"element": "H" 
			},
			{
				"x": -1.5723488862,
				"y": -0.2384045782,
				"z": -0.2505467215,
				"element": "H" 
			},
			{
				"x": 0.6092539366,
				"y": -4.1973066487,
				"z": 0.2271101498,
				"element": "H" 
			},
			{
				"x": 3.0408663554,
				"y": -4.0237561587,
				"z": 0.7627667114,
				"element": "H" 
			},
			{
				"x": 4.1948472818,
				"y": -1.8309642751,
				"z": 0.5264623012,
				"element": "H" 
			},
			{
				"x": 2.9457579787,
				"y": 0.1624208938,
				"z": -0.2105396889,
				"element": "H" 
			}
		],
		 "valence_orbital": [ 
			{
				"type": "occ",
				"energy": -0.31918,
				"method": "rhf"
			},
			{
				"type": "occ",
				"energy": -0.30023,
				"method": "rhf"
			},
			{
				"type": "occ",
				"energy": -0.26732,
				"method": "rhf"
			},
			{
				"type": "occ",
				"energy": -0.25183,
				"method": "rhf"
			},
			{
				"type": "occ",
				"energy": -0.22874,
				"method": "rhf"
			},
			{
				"type": "unocc",
				"energy": -0.01417,
				"method": "rhf"
			},
			{
				"type": "unocc",
				"energy": -0.0034,
				"method": "rhf"
			},
			{
				"type": "unocc",
				"energy": 0.02124,
				"method": "rhf"
			},
			{
				"type": "unocc",
				"energy": 0.06835,
				"method": "rhf"
			},
			{
				"type": "unocc",
				"energy": 0.08538,
				"method": "rhf"
			}
		],
		"cosmo_sigma_profile": { 
			"-0.025": 0.0,
			"-0.024": 0.0,
			"-0.023": 0.0,
			"-0.022": 0.0,
			"-0.021": 0.0,
			"-0.02": 0.0,
			"-0.019": 0.0,
			"-0.018": 0.0,
			"-0.017": 0.0,
			"-0.016": 0.0,
			"-0.015": 0.0,
			"-0.014": 0.0,
			"-0.013": 0.0,
			"-0.012": 0.0,
			"-0.011": 0.0,
			"-0.01": 0.0,
			"-0.009": 0.16985238814,
			"-0.008": 4.13454853529,
			"-0.007": 9.96552140934,
			"-0.006": 14.7566216587,
			"-0.005": 22.1995023126,
			"-0.004": 23.0859653046,
			"-0.003": 19.4485925444,
			"-0.002": 17.393318115,
			"-0.001": 17.5079335115,
			"0.0": 14.9724063726,
			"0.001": 10.0160615104,
			"0.002": 11.070084696,
			"0.003": 11.2757975806,
			"0.004": 11.722845886,
			"0.005": 11.3116582406,
			"0.006": 5.58493336155,
			"0.007": 4.30902335982,
			"0.008": 3.56599102959,
			"0.009": 3.719614747,
			"0.01": 5.41730110846,
			"0.011": 4.4718276754,
			"0.012": 5.7454958834,
			"0.013": 2.73704286224,
			"0.014": 0.220805244851,
			"0.015": 0.0,
			"0.016": 0.0,
			"0.017": 0.0,
			"0.018": 0.0,
			"0.019": 0.0,
			"0.02": 0.0,
			"0.021": 0.0,
			"0.022": 0.0,
			"0.023": 0.0,
			"0.024": 0.0,
			"0.0": 0.0
		}
	}
}
