{
	 "smiles": "CCSC(=O)COC1=C(C)C=C(Cl)C=C1", 
	 "Tm": 314.65, 
	 "num_atms": 28, 
	 "gaussian": { 
		 "optdone": 1, 
		 "sigma_profile": "yes", 
		 "theory": "DFT", 
		 "functional": "B3LYP", 
		 "basiset": "6-31G**", 
		 "properties": { 
			 "R2extent": 7108.0717, 
			 "electric_dipole_moment_norm": 3.4559145519, 
			 "electric_quadrupole_moment_norm": 15.7069434837, 
			 "total_energy": -1435.83663075, 
			 "HOMO_LUMO_gap": 0.18846, 
			 "cosmo_polarized_energy": -10.25, 
			 "cosmo_cavitation_energy": 35.32, 
			 "cosmo_dispersion_energy": -25.4, 
			 "cosmo_repulsion_energy": 1.99, 
			 "cosmo_total_nonelectrostatic_energy": 11.91, 
			 "SMD_solvation_energy": 6.18 
		},
		"coords": [
			{
				"x": 4.0172234106,
				"y": 4.3619740688,
				"z": -1.309527976,
				"element": "C" 
			},
			{
				"x": 2.5105745058,
				"y": 4.3124287424,
				"z": -1.0718225664,
				"element": "C" 
			},
			{
				"x": 2.0069779932,
				"y": 3.1064995125,
				"z": 0.2241185734,
				"element": "S" 
			},
			{
				"x": 1.974297988,
				"y": 1.6057193754,
				"z": -0.7777679563,
				"element": "C" 
			},
			{
				"x": 2.1733146061,
				"y": 1.5858789108,
				"z": -1.9684597424,
				"element": "O" 
			},
			{
				"x": 1.697157402,
				"y": 0.3475684841,
				"z": 0.0582483707,
				"element": "C" 
			},
			{
				"x": 1.4276530418,
				"y": -0.7847189537,
				"z": -0.7281669792,
				"element": "O" 
			},
			{
				"x": 0.197594788,
				"y": -0.9096496039,
				"z": -1.3296767119,
				"element": "C" 
			},
			{
				"x": 0.0202563741,
				"y": -2.0988173184,
				"z": -2.0657879615,
				"element": "C" 
			},
			{
				"x": 1.1424440107,
				"y": -3.0994933867,
				"z": -2.1678991626,
				"element": "C" 
			},
			{
				"x": -1.20939558,
				"y": -2.3129359931,
				"z": -2.6873962423,
				"element": "C" 
			},
			{
				"x": -2.2357297312,
				"y": -1.3720467739,
				"z": -2.5817134041,
				"element": "C" 
			},
			{
				"x": -3.7751861152,
				"y": -1.6786765229,
				"z": -3.3794401449,
				"element": "Cl" 
			},
			{
				"x": -2.054340831,
				"y": -0.1994194299,
				"z": -1.8602924949,
				"element": "C" 
			},
			{
				"x": -0.8274617977,
				"y": 0.0322711561,
				"z": -1.2318422922,
				"element": "C" 
			},
			{
				"x": 4.3826426422,
				"y": 3.3967915873,
				"z": -1.668436645,
				"element": "H" 
			},
			{
				"x": 4.5595654803,
				"y": 4.6237067959,
				"z": -0.3966569434,
				"element": "H" 
			},
			{
				"x": 4.2463404297,
				"y": 5.115208687,
				"z": -2.0718327102,
				"element": "H" 
			},
			{
				"x": 1.9757612325,
				"y": 4.0242501194,
				"z": -1.9795272036,
				"element": "H" 
			},
			{
				"x": 2.1196751054,
				"y": 5.2725909469,
				"z": -0.7251774301,
				"element": "H" 
			},
			{
				"x": 0.9038003883,
				"y": 0.5466084384,
				"z": 0.7915269453,
				"element": "H" 
			},
			{
				"x": 2.611346706,
				"y": 0.1167983306,
				"z": 0.6157407863,
				"element": "H" 
			},
			{
				"x": 0.8451473768,
				"y": -3.9580396841,
				"z": -2.7749774436,
				"element": "H" 
			},
			{
				"x": 1.4413321398,
				"y": -3.4619236655,
				"z": -1.1783318928,
				"element": "H" 
			},
			{
				"x": 2.0325044295,
				"y": -2.6469757725,
				"z": -2.6177590459,
				"element": "H" 
			},
			{
				"x": -1.3695800644,
				"y": -3.2212552474,
				"z": -3.2589076445,
				"element": "H" 
			},
			{
				"x": -2.8520390305,
				"y": 0.5311603304,
				"z": -1.7884274632,
				"element": "H" 
			},
			{
				"x": -0.6920769006,
				"y": 0.956996866,
				"z": -0.6831066187,
				"element": "H" 
			}
		],
		 "valence_orbital": [ 
			{
				"type": "occ",
				"energy": -0.30572,
				"method": "rhf"
			},
			{
				"type": "occ",
				"energy": -0.27118,
				"method": "rhf"
			},
			{
				"type": "occ",
				"energy": -0.26332,
				"method": "rhf"
			},
			{
				"type": "occ",
				"energy": -0.25435,
				"method": "rhf"
			},
			{
				"type": "occ",
				"energy": -0.21943,
				"method": "rhf"
			},
			{
				"type": "unocc",
				"energy": -0.03097,
				"method": "rhf"
			},
			{
				"type": "unocc",
				"energy": -0.00777,
				"method": "rhf"
			},
			{
				"type": "unocc",
				"energy": 0.0005,
				"method": "rhf"
			},
			{
				"type": "unocc",
				"energy": 0.01347,
				"method": "rhf"
			},
			{
				"type": "unocc",
				"energy": 0.03549,
				"method": "rhf"
			}
		],
		"cosmo_sigma_profile": { 
			"-0.025": 0.0,
			"-0.024": 0.0,
			"-0.023": 0.0,
			"-0.022": 0.0,
			"-0.021": 0.0,
			"-0.02": 0.0,
			"-0.019": 0.0,
			"-0.018": 0.0,
			"-0.017": 0.0,
			"-0.016": 0.0,
			"-0.015": 0.0,
			"-0.014": 0.0,
			"-0.013": 0.0,
			"-0.012": 0.0,
			"-0.011": 0.0,
			"-0.01": 0.108755201282,
			"-0.009": 2.93111107549,
			"-0.008": 5.48302864422,
			"-0.007": 8.45263573385,
			"-0.006": 13.6876085208,
			"-0.005": 12.5857939494,
			"-0.004": 19.4105978695,
			"-0.003": 21.9955041435,
			"-0.002": 24.7440509701,
			"-0.001": 24.0826466388,
			"0.0": 25.3238730779,
			"0.001": 19.2818961012,
			"0.002": 18.4968628484,
			"0.003": 23.4245779455,
			"0.004": 24.0504558534,
			"0.005": 16.4326397679,
			"0.006": 7.68717073925,
			"0.007": 4.7441180958,
			"0.008": 2.5310887047,
			"0.009": 2.78315331826,
			"0.01": 3.77381562926,
			"0.011": 2.05320460428,
			"0.012": 0.0449509923059,
			"0.013": 0.0,
			"0.014": 0.0,
			"0.015": 0.0,
			"0.016": 0.0,
			"0.017": 0.0,
			"0.018": 0.0,
			"0.019": 0.0,
			"0.02": 0.0,
			"0.021": 0.0,
			"0.022": 0.0,
			"0.023": 0.0,
			"0.024": 0.0,
			"0.025": 0.0
		}
	}
}
