{
	 "smiles": "CC1=CC(NC(=O)CCl)=CC=C1", 
	 "Tm": 402.15, 
	 "num_atms": 22, 
	 "gaussian": { 
		 "optdone": 1, 
		 "sigma_profile": "yes", 
		 "theory": "DFT", 
		 "functional": "B3LYP", 
		 "basiset": "6-31G**", 
		 "properties": { 
			 "R2extent": 4543.6756, 
			 "electric_dipole_moment_norm": 1.89240725797, 
			 "electric_quadrupole_moment_norm": 8.33099803325, 
			 "total_energy": -939.180096637, 
			 "HOMO_LUMO_gap": 0.20425, 
			 "cosmo_polarized_energy": -9.97, 
			 "cosmo_cavitation_energy": 27.55, 
			 "cosmo_dispersion_energy": -20.47, 
			 "cosmo_repulsion_energy": 1.64, 
			 "cosmo_total_nonelectrostatic_energy": 8.73, 
			 "SMD_solvation_energy": 5.01 
		},
		"coords": [
			{
				"x": 2.735025239,
				"y": -2.1831826685,
				"z": -3.4149877718,
				"element": "C" 
			},
			{
				"x": 1.3405034495,
				"y": -1.6241386586,
				"z": -3.2539248164,
				"element": "C" 
			},
			{
				"x": 0.6825099152,
				"y": -1.6891809769,
				"z": -2.0249201773,
				"element": "C" 
			},
			{
				"x": -0.6212030693,
				"y": -1.1934030045,
				"z": -1.8676151915,
				"element": "C" 
			},
			{
				"x": -1.1968794876,
				"y": -1.3072222946,
				"z": -0.5806052832,
				"element": "N" 
			},
			{
				"x": -2.4287479125,
				"y": -0.9084729322,
				"z": -0.1660236982,
				"element": "C" 
			},
			{
				"x": -3.2877882817,
				"y": -0.3640556372,
				"z": -0.8468890198,
				"element": "O" 
			},
			{
				"x": -2.7884190144,
				"y": -1.1625168333,
				"z": 1.3037663264,
				"element": "C" 
			},
			{
				"x": -1.5353016167,
				"y": -1.9704761716,
				"z": 2.3438686669,
				"element": "Cl" 
			},
			{
				"x": -1.2860555326,
				"y": -0.6175873744,
				"z": -2.9576415738,
				"element": "C" 
			},
			{
				"x": -0.6245488156,
				"y": -0.5516310011,
				"z": -4.1848274704,
				"element": "C" 
			},
			{
				"x": 0.6693548831,
				"y": -1.0438335916,
				"z": -4.3400223644,
				"element": "C" 
			},
			{
				"x": 3.3741232946,
				"y": -1.5001075788,
				"z": -3.9839871909,
				"element": "H" 
			},
			{
				"x": 3.2113968917,
				"y": -2.3630797491,
				"z": -2.4471030522,
				"element": "H" 
			},
			{
				"x": 2.7190708489,
				"y": -3.1364595461,
				"z": -3.9572864246,
				"element": "H" 
			},
			{
				"x": 1.1911073949,
				"y": -2.132731455,
				"z": -1.1707355563,
				"element": "H" 
			},
			{
				"x": -0.6160217751,
				"y": -1.7426068695,
				"z": 0.1245545544,
				"element": "H" 
			},
			{
				"x": -3.6793156536,
				"y": -1.790121777,
				"z": 1.3316073891,
				"element": "H" 
			},
			{
				"x": -3.0180885769,
				"y": -0.2031608032,
				"z": 1.7677188176,
				"element": "H" 
			},
			{
				"x": -2.288714808,
				"y": -0.2340539339,
				"z": -2.8347917566,
				"element": "H" 
			},
			{
				"x": -1.134847376,
				"y": -0.1027488221,
				"z": -5.0323958832,
				"element": "H" 
			},
			{
				"x": 1.164440003,
				"y": -0.9783283209,
				"z": -5.3053585238,
				"element": "H" 
			}
		],
		 "valence_orbital": [ 
			{
				"type": "occ",
				"energy": -0.31931,
				"method": "rhf"
			},
			{
				"type": "occ",
				"energy": -0.30439,
				"method": "rhf"
			},
			{
				"type": "occ",
				"energy": -0.26458,
				"method": "rhf"
			},
			{
				"type": "occ",
				"energy": -0.2464,
				"method": "rhf"
			},
			{
				"type": "occ",
				"energy": -0.2239,
				"method": "rhf"
			},
			{
				"type": "unocc",
				"energy": -0.01965,
				"method": "rhf"
			},
			{
				"type": "unocc",
				"energy": -0.00088,
				"method": "rhf"
			},
			{
				"type": "unocc",
				"energy": 0.00811,
				"method": "rhf"
			},
			{
				"type": "unocc",
				"energy": 0.03742,
				"method": "rhf"
			},
			{
				"type": "unocc",
				"energy": 0.0876,
				"method": "rhf"
			}
		],
		"cosmo_sigma_profile": { 
			"-0.025": 0.0,
			"-0.024": 0.0,
			"-0.023": 0.0,
			"-0.022": 0.0,
			"-0.021": 0.0,
			"-0.02": 0.0,
			"-0.019": 0.0,
			"-0.018": 0.0,
			"-0.017": 0.0,
			"-0.016": 0.0,
			"-0.015": 0.0,
			"-0.014": 0.0,
			"-0.013": 0.278170083749,
			"-0.012": 1.12678963366,
			"-0.011": 1.08186539901,
			"-0.01": 1.00468883234,
			"-0.009": 4.94673069401,
			"-0.008": 5.15954532832,
			"-0.007": 5.83941247001,
			"-0.006": 7.18789136006,
			"-0.005": 12.4482095701,
			"-0.004": 17.0598951743,
			"-0.003": 16.7018718256,
			"-0.002": 15.2974415535,
			"-0.001": 16.732138109,
			"0.0": 17.7156292968,
			"0.001": 16.1063375583,
			"0.002": 12.9981327023,
			"0.003": 14.3100270386,
			"0.004": 14.6698722271,
			"0.005": 17.9186068931,
			"0.006": 9.49344471601,
			"0.007": 1.29978067478,
			"0.008": 1.22026040964,
			"0.009": 1.36293103909,
			"0.01": 2.12099055631,
			"0.011": 1.82570285392,
			"0.012": 3.58149669436,
			"0.013": 2.00818574483,
			"0.014": 0.081195494013,
			"0.015": 0.0,
			"0.016": 0.0,
			"0.017": 0.0,
			"0.018": 0.0,
			"0.019": 0.0,
			"0.02": 0.0,
			"0.021": 0.0,
			"0.022": 0.0,
			"0.023": 0.0,
			"0.024": 0.0,
			"0.0": 0.0
		}
	}
}
