{
	 "smiles": "COC1=CC=C(C=C1)C(=O)NN=C(C)C1=C(O)C2=CC=CC=C2N(C2=CC=CC=C2)C1=O", 
	 "Tm": 491.15, 
	 "num_atms": 53, 
	 "gaussian": { 
		 "optdone": 1, 
		 "sigma_profile": "yes", 
		 "theory": "DFT", 
		 "functional": "B3LYP", 
		 "basiset": "6-31G**", 
		 "properties": { 
			 "R2extent": 18702.079, 
			 "electric_dipole_moment_norm": 7.05787580013, 
			 "electric_quadrupole_moment_norm": 27.8959618631, 
			 "total_energy": -1430.45172843, 
			 "HOMO_LUMO_gap": 0.14749, 
			 "cosmo_polarized_energy": -28.33, 
			 "cosmo_cavitation_energy": 57.41, 
			 "cosmo_dispersion_energy": -39.51, 
			 "cosmo_repulsion_energy": 2.93, 
			 "cosmo_total_nonelectrostatic_energy": 20.83, 
			 "SMD_solvation_energy": 11.38 
		},
		"coords": [
			{
				"x": 0.4280428926,
				"y": 7.8209460816,
				"z": 0.244240901,
				"element": "C" 
			},
			{
				"x": 0.0176478396,
				"y": 6.5271653503,
				"z": 0.6603206496,
				"element": "O" 
			},
			{
				"x": -0.1332053962,
				"y": 5.5601092234,
				"z": -0.2873881056,
				"element": "C" 
			},
			{
				"x": 0.0892171841,
				"y": 5.7471046952,
				"z": -1.6585199545,
				"element": "C" 
			},
			{
				"x": -0.1033805805,
				"y": 4.6805201215,
				"z": -2.5319256672,
				"element": "C" 
			},
			{
				"x": -0.4975538275,
				"y": 3.4152376515,
				"z": -2.0738608641,
				"element": "C" 
			},
			{
				"x": -0.7217085871,
				"y": 3.2427104168,
				"z": -0.6940256133,
				"element": "C" 
			},
			{
				"x": -0.545147188,
				"y": 4.3038688337,
				"z": 0.1826976702,
				"element": "C" 
			},
			{
				"x": -0.7050062945,
				"y": 2.3851317999,
				"z": -3.1336786877,
				"element": "C" 
			},
			{
				"x": -0.8125137962,
				"y": 2.6880661917,
				"z": -4.3202856215,
				"element": "O" 
			},
			{
				"x": -0.8104727221,
				"y": 1.0334472576,
				"z": -2.8225068481,
				"element": "N" 
			},
			{
				"x": -0.4838306033,
				"y": 0.472549371,
				"z": -1.6307270786,
				"element": "N" 
			},
			{
				"x": -0.5465252881,
				"y": -0.8128867812,
				"z": -1.5267518297,
				"element": "C" 
			},
			{
				"x": -0.9599084095,
				"y": -1.7304967303,
				"z": -2.656295126,
				"element": "C" 
			},
			{
				"x": -0.2143777232,
				"y": -1.3824488461,
				"z": -0.1977248703,
				"element": "C" 
			},
			{
				"x": -0.7376286567,
				"y": -0.9030862504,
				"z": 0.9754902138,
				"element": "C" 
			},
			{
				"x": -1.6336167479,
				"y": 0.1162301149,
				"z": 0.9394770553,
				"element": "O" 
			},
			{
				"x": -0.360663334,
				"y": -1.4671255779,
				"z": 2.2576777182,
				"element": "C" 
			},
			{
				"x": -0.8067062988,
				"y": -0.9320120248,
				"z": 3.4830301647,
				"element": "C" 
			},
			{
				"x": -0.4556027785,
				"y": -1.5053718358,
				"z": 4.6943319281,
				"element": "C" 
			},
			{
				"x": 0.3716404766,
				"y": -2.6363710008,
				"z": 4.7006228994,
				"element": "C" 
			},
			{
				"x": 0.8503145206,
				"y": -3.1719590785,
				"z": 3.5139202397,
				"element": "C" 
			},
			{
				"x": 0.5010576252,
				"y": -2.5940142077,
				"z": 2.277593279,
				"element": "C" 
			},
			{
				"x": 0.9890552079,
				"y": -3.0976178658,
				"z": 1.0761724842,
				"element": "N" 
			},
			{
				"x": 1.8697263586,
				"y": -4.2428006318,
				"z": 1.0700621136,
				"element": "C" 
			},
			{
				"x": 3.2524960398,
				"y": -4.0555272772,
				"z": 1.0969415361,
				"element": "C" 
			},
			{
				"x": 4.0980942429,
				"y": -5.1650051932,
				"z": 1.0968195552,
				"element": "C" 
			},
			{
				"x": 3.5631392979,
				"y": -6.454811278,
				"z": 1.0708877118,
				"element": "C" 
			},
			{
				"x": 2.1789923853,
				"y": -6.6354862833,
				"z": 1.0416617573,
				"element": "C" 
			},
			{
				"x": 1.3287603978,
				"y": -5.5289002579,
				"z": 1.0394068096,
				"element": "C" 
			},
			{
				"x": 0.7149938017,
				"y": -2.5135125992,
				"z": -0.1825348355,
				"element": "C" 
			},
			{
				"x": 1.23258973,
				"y": -2.9789109968,
				"z": -1.1943566259,
				"element": "O" 
			},
			{
				"x": 0.4835189265,
				"y": 8.4252800794,
				"z": 1.1510171608,
				"element": "H" 
			},
			{
				"x": -0.295185848,
				"y": 8.2724279876,
				"z": -0.4466560084,
				"element": "H" 
			},
			{
				"x": 1.4149772839,
				"y": 7.7979864552,
				"z": -0.2349970013,
				"element": "H" 
			},
			{
				"x": 0.4037635867,
				"y": 6.7071236388,
				"z": -2.0501340991,
				"element": "H" 
			},
			{
				"x": 0.0460545721,
				"y": 4.8135606591,
				"z": -3.597788806,
				"element": "H" 
			},
			{
				"x": -1.0300815784,
				"y": 2.2798384475,
				"z": -0.3099472859,
				"element": "H" 
			},
			{
				"x": -0.719882697,
				"y": 4.185081358,
				"z": 1.247217109,
				"element": "H" 
			},
			{
				"x": -0.9532990615,
				"y": 0.4614955669,
				"z": -3.6515126761,
				"element": "H" 
			},
			{
				"x": -0.9657022682,
				"y": -2.7709055551,
				"z": -2.3394569834,
				"element": "H" 
			},
			{
				"x": -1.9632933244,
				"y": -1.4620296866,
				"z": -3.0134188812,
				"element": "H" 
			},
			{
				"x": -0.2670161921,
				"y": -1.660545547,
				"z": -3.5037359958,
				"element": "H" 
			},
			{
				"x": -2.1202935668,
				"y": 0.1449289098,
				"z": 1.77330718,
				"element": "H" 
			},
			{
				"x": -1.4101952712,
				"y": -0.0277258981,
				"z": 3.4949820599,
				"element": "H" 
			},
			{
				"x": -0.807923632,
				"y": -1.0743100318,
				"z": 5.625513966,
				"element": "H" 
			},
			{
				"x": 0.6552878671,
				"y": -3.0967612421,
				"z": 5.6422618857,
				"element": "H" 
			},
			{
				"x": 1.5019704174,
				"y": -4.0360648152,
				"z": 3.5314652727,
				"element": "H" 
			},
			{
				"x": 3.6546210282,
				"y": -3.0476891149,
				"z": 1.1090507774,
				"element": "H" 
			},
			{
				"x": 5.1742301505,
				"y": -5.0209929487,
				"z": 1.1134423438,
				"element": "H" 
			},
			{
				"x": 4.2236041563,
				"y": -7.3168837204,
				"z": 1.0699707894,
				"element": "H" 
			},
			{
				"x": 1.759459635,
				"y": -7.6367553953,
				"z": 1.0163182635,
				"element": "H" 
			},
			{
				"x": 0.2509660477,
				"y": -5.6545015397,
				"z": 1.0096279702,
				"element": "H" 
			}
		],
		 "valence_orbital": [ 
			{
				"type": "occ",
				"energy": -0.24623,
				"method": "rhf"
			},
			{
				"type": "occ",
				"energy": -0.24303,
				"method": "rhf"
			},
			{
				"type": "occ",
				"energy": -0.23036,
				"method": "rhf"
			},
			{
				"type": "occ",
				"energy": -0.21547,
				"method": "rhf"
			},
			{
				"type": "occ",
				"energy": -0.2081,
				"method": "rhf"
			},
			{
				"type": "unocc",
				"energy": -0.06061,
				"method": "rhf"
			},
			{
				"type": "unocc",
				"energy": -0.02492,
				"method": "rhf"
			},
			{
				"type": "unocc",
				"energy": -0.0167,
				"method": "rhf"
			},
			{
				"type": "unocc",
				"energy": -0.01584,
				"method": "rhf"
			},
			{
				"type": "unocc",
				"energy": -0.01155,
				"method": "rhf"
			}
		],
		"cosmo_sigma_profile": { 
			"-0.025": 0.0,
			"-0.024": 0.0,
			"-0.023": 0.0,
			"-0.022": 0.0,
			"-0.021": 0.0,
			"-0.02": 0.0,
			"-0.019": 0.322902601756,
			"-0.018": 0.788015700553,
			"-0.017": 0.896999046039,
			"-0.016": 0.839702731301,
			"-0.015": 1.21115721352,
			"-0.014": 0.867471169533,
			"-0.013": 0.771657827588,
			"-0.012": 1.69328712498,
			"-0.011": 2.55240724163,
			"-0.01": 2.49808940475,
			"-0.009": 2.18419602498,
			"-0.008": 2.9755248168,
			"-0.007": 9.9195964311,
			"-0.006": 29.0301517258,
			"-0.005": 37.5189889437,
			"-0.004": 35.8020428338,
			"-0.003": 31.5379858732,
			"-0.002": 32.0267804652,
			"-0.001": 30.5334751566,
			"0.0": 32.395601827,
			"0.001": 32.2175143315,
			"0.002": 30.5733944005,
			"0.003": 33.0974649856,
			"0.004": 34.2265432565,
			"0.005": 15.6067173261,
			"0.006": 8.73592067063,
			"0.007": 7.42153939653,
			"0.008": 7.43185432387,
			"0.009": 6.00626909964,
			"0.01": 5.82174529989,
			"0.011": 3.93051182993,
			"0.012": 4.41177008287,
			"0.013": 8.67404317896,
			"0.014": 5.36681654788,
			"0.015": 0.114896756782,
			"0.016": 0.0,
			"0.017": 0.0,
			"0.018": 0.0,
			"0.019": 0.0,
			"0.02": 0.0,
			"0.021": 0.0,
			"0.022": 0.0,
			"0.023": 0.0,
			"0.024": 0.0,
			"0.025": 0.0
		}
	}
}
