{
	 "smiles": "CCCCCCCCCC1=CC=C(O)C(CCCCCCCCC)=C1", 
	 "Tm": 260.15, 
	 "num_atms": 67, 
	 "gaussian": { 
		 "optdone": 1, 
		 "sigma_profile": "yes", 
		 "theory": "DFT", 
		 "functional": "B3LYP", 
		 "basiset": "6-31G**", 
		 "properties": { 
			 "R2extent": 22507.8955, 
			 "electric_dipole_moment_norm": 1.18948118943, 
			 "electric_quadrupole_moment_norm": 9.2658990832, 
			 "total_energy": -1015.15399905, 
			 "HOMO_LUMO_gap": 0.21225, 
			 "cosmo_polarized_energy": -8.07, 
			 "cosmo_cavitation_energy": 65.28, 
			 "cosmo_dispersion_energy": -43.12, 
			 "cosmo_repulsion_energy": 3.43, 
			 "cosmo_total_nonelectrostatic_energy": 25.59, 
			 "SMD_solvation_energy": 8.9 
		},
		"coords": [
			{
				"x": -0.6803953722,
				"y": 7.3853717374,
				"z": 3.6571693495,
				"element": "C" 
			},
			{
				"x": 0.4970838071,
				"y": 6.4038447951,
				"z": 3.692275742,
				"element": "C" 
			},
			{
				"x": 1.812910694,
				"y": 6.9695602815,
				"z": 3.1295448206,
				"element": "C" 
			},
			{
				"x": 1.7872138452,
				"y": 7.3743553172,
				"z": 1.6434568935,
				"element": "C" 
			},
			{
				"x": 1.4769721024,
				"y": 6.2448334102,
				"z": 0.6448068627,
				"element": "C" 
			},
			{
				"x": 2.5172965245,
				"y": 5.1147342111,
				"z": 0.6228473878,
				"element": "C" 
			},
			{
				"x": 2.311020893,
				"y": 4.0855511916,
				"z": -0.5034395252,
				"element": "C" 
			},
			{
				"x": 1.0097758707,
				"y": 3.2667180557,
				"z": -0.4421320017,
				"element": "C" 
			},
			{
				"x": 0.8963907485,
				"y": 2.3430696625,
				"z": 0.7887275606,
				"element": "C" 
			},
			{
				"x": -0.3591502475,
				"y": 1.4969050984,
				"z": 0.7815667109,
				"element": "C" 
			},
			{
				"x": -1.5238262156,
				"y": 1.9189392886,
				"z": 1.4293974452,
				"element": "C" 
			},
			{
				"x": -2.6877156711,
				"y": 1.1505952296,
				"z": 1.3834815619,
				"element": "C" 
			},
			{
				"x": -2.7025710086,
				"y": -0.0592599509,
				"z": 0.6877836041,
				"element": "C" 
			},
			{
				"x": -3.8237250084,
				"y": -0.8493453785,
				"z": 0.6205699633,
				"element": "O" 
			},
			{
				"x": -1.550253071,
				"y": -0.5182572417,
				"z": 0.0233533972,
				"element": "C" 
			},
			{
				"x": -1.5579460127,
				"y": -1.8409292054,
				"z": -0.7096508354,
				"element": "C" 
			},
			{
				"x": -1.4203500642,
				"y": -3.0568419436,
				"z": 0.2317191126,
				"element": "C" 
			},
			{
				"x": -1.5019345345,
				"y": -4.4179050939,
				"z": -0.4778439498,
				"element": "C" 
			},
			{
				"x": -0.3469941248,
				"y": -4.7163751757,
				"z": -1.4450373683,
				"element": "C" 
			},
			{
				"x": -0.4304077875,
				"y": -6.1207252297,
				"z": -2.0599268942,
				"element": "C" 
			},
			{
				"x": 0.7499955375,
				"y": -6.4944412225,
				"z": -2.9744433878,
				"element": "C" 
			},
			{
				"x": 0.9131733678,
				"y": -5.6473307522,
				"z": -4.2490339373,
				"element": "C" 
			},
			{
				"x": -0.2526140516,
				"y": -5.7504726149,
				"z": -5.2423207849,
				"element": "C" 
			},
			{
				"x": -0.0078941854,
				"y": -4.9629953282,
				"z": -6.533934671,
				"element": "C" 
			},
			{
				"x": -0.404435653,
				"y": 0.2781227064,
				"z": 0.0888109924,
				"element": "C" 
			},
			{
				"x": -0.4381262094,
				"y": 8.3108155559,
				"z": 4.192888784,
				"element": "H" 
			},
			{
				"x": -1.5690914114,
				"y": 6.9526636765,
				"z": 4.1286137079,
				"element": "H" 
			},
			{
				"x": -0.9542849417,
				"y": 7.6599733527,
				"z": 2.633181619,
				"element": "H" 
			},
			{
				"x": 0.6721908243,
				"y": 6.0941853667,
				"z": 4.730595146,
				"element": "H" 
			},
			{
				"x": 0.2237140202,
				"y": 5.4877723674,
				"z": 3.1520323747,
				"element": "H" 
			},
			{
				"x": 2.0954135725,
				"y": 7.8516708341,
				"z": 3.7207213119,
				"element": "H" 
			},
			{
				"x": 2.6109330632,
				"y": 6.2342799539,
				"z": 3.2931143966,
				"element": "H" 
			},
			{
				"x": 2.7634201425,
				"y": 7.8097259373,
				"z": 1.3891866081,
				"element": "H" 
			},
			{
				"x": 1.0566826002,
				"y": 8.1806301592,
				"z": 1.5000979237,
				"element": "H" 
			},
			{
				"x": 1.4133180847,
				"y": 6.6823353428,
				"z": -0.3612742093,
				"element": "H" 
			},
			{
				"x": 0.4810461165,
				"y": 5.8330881007,
				"z": 0.8518715382,
				"element": "H" 
			},
			{
				"x": 2.5359085225,
				"y": 4.6025597152,
				"z": 1.5929451026,
				"element": "H" 
			},
			{
				"x": 3.5151531756,
				"y": 5.5593877626,
				"z": 0.5034546412,
				"element": "H" 
			},
			{
				"x": 3.1626766261,
				"y": 3.3911585015,
				"z": -0.5062004949,
				"element": "H" 
			},
			{
				"x": 2.3464277635,
				"y": 4.6105428786,
				"z": -1.4679610085,
				"element": "H" 
			},
			{
				"x": 0.9409339829,
				"y": 2.648596816,
				"z": -1.3463003141,
				"element": "H" 
			},
			{
				"x": 0.1378923365,
				"y": 3.9321724249,
				"z": -0.4709224845,
				"element": "H" 
			},
			{
				"x": 0.9204112382,
				"y": 2.9444541289,
				"z": 1.7052501285,
				"element": "H" 
			},
			{
				"x": 1.7804202947,
				"y": 1.6923527305,
				"z": 0.8242277736,
				"element": "H" 
			},
			{
				"x": -1.5269085884,
				"y": 2.8568267058,
				"z": 1.9797353553,
				"element": "H" 
			},
			{
				"x": -3.5868552125,
				"y": 1.4905395373,
				"z": 1.8947950749,
				"element": "H" 
			},
			{
				"x": -4.5396076552,
				"y": -0.416818147,
				"z": 1.1032228259,
				"element": "H" 
			},
			{
				"x": -2.493190797,
				"y": -1.9403250133,
				"z": -1.2740542943,
				"element": "H" 
			},
			{
				"x": -0.7418986254,
				"y": -1.8411642819,
				"z": -1.4405697445,
				"element": "H" 
			},
			{
				"x": -0.4694094691,
				"y": -2.9816061378,
				"z": 0.7766039062,
				"element": "H" 
			},
			{
				"x": -2.2149120978,
				"y": -2.9996941236,
				"z": 0.9840195009,
				"element": "H" 
			},
			{
				"x": -1.5333345116,
				"y": -5.2074096531,
				"z": 0.2856545143,
				"element": "H" 
			},
			{
				"x": -2.4560977557,
				"y": -4.4857078253,
				"z": -1.0201874934,
				"element": "H" 
			},
			{
				"x": -0.3310836468,
				"y": -3.9651789708,
				"z": -2.2442205167,
				"element": "H" 
			},
			{
				"x": 0.6086720942,
				"y": -4.6122662506,
				"z": -0.9100085115,
				"element": "H" 
			},
			{
				"x": -0.482775225,
				"y": -6.8578797619,
				"z": -1.2469601843,
				"element": "H" 
			},
			{
				"x": -1.3760134098,
				"y": -6.2195163889,
				"z": -2.6098276086,
				"element": "H" 
			},
			{
				"x": 0.6470885958,
				"y": -7.5487906803,
				"z": -3.2662021579,
				"element": "H" 
			},
			{
				"x": 1.6787893189,
				"y": -6.4327451044,
				"z": -2.3906905065,
				"element": "H" 
			},
			{
				"x": 1.0681431682,
				"y": -4.5930888478,
				"z": -3.9823109608,
				"element": "H" 
			},
			{
				"x": 1.8352250961,
				"y": -5.962571467,
				"z": -4.756770453,
				"element": "H" 
			},
			{
				"x": -0.4263571141,
				"y": -6.8081228345,
				"z": -5.4850838962,
				"element": "H" 
			},
			{
				"x": -1.177256787,
				"y": -5.3920474822,
				"z": -4.7724734573,
				"element": "H" 
			},
			{
				"x": -0.8521594257,
				"y": -5.0527237381,
				"z": -7.2255353903,
				"element": "H" 
			},
			{
				"x": 0.1387268283,
				"y": -3.8967617199,
				"z": -6.3259571456,
				"element": "H" 
			},
			{
				"x": 0.8878055891,
				"y": -5.3223660516,
				"z": -7.0536942145,
				"element": "H" 
			},
			{
				"x": 0.4915494461,
				"y": -0.0701692166,
				"z": -0.4226552351,
				"element": "H" 
			}
		],
		 "valence_orbital": [ 
			{
				"type": "occ",
				"energy": -0.30083,
				"method": "rhf"
			},
			{
				"type": "occ",
				"energy": -0.29941,
				"method": "rhf"
			},
			{
				"type": "occ",
				"energy": -0.29607,
				"method": "rhf"
			},
			{
				"type": "occ",
				"energy": -0.23712,
				"method": "rhf"
			},
			{
				"type": "occ",
				"energy": -0.20687,
				"method": "rhf"
			},
			{
				"type": "unocc",
				"energy": 0.00538,
				"method": "rhf"
			},
			{
				"type": "unocc",
				"energy": 0.01954,
				"method": "rhf"
			},
			{
				"type": "unocc",
				"energy": 0.06247,
				"method": "rhf"
			},
			{
				"type": "unocc",
				"energy": 0.07136,
				"method": "rhf"
			},
			{
				"type": "unocc",
				"energy": 0.0843,
				"method": "rhf"
			}
		],
		"cosmo_sigma_profile": { 
			"-0.025": 0.0,
			"-0.024": 0.0,
			"-0.023": 0.0,
			"-0.022": 0.0,
			"-0.021": 0.0,
			"-0.02": 0.0,
			"-0.019": 0.0,
			"-0.018": 0.0169888976202,
			"-0.017": 0.813863220474,
			"-0.016": 1.11888515679,
			"-0.015": 1.27427912133,
			"-0.014": 0.725696605926,
			"-0.013": 0.938155353875,
			"-0.012": 0.876560701139,
			"-0.011": 0.72324826962,
			"-0.01": 1.11428254901,
			"-0.009": 1.0328031955,
			"-0.008": 1.47062534886,
			"-0.007": 1.26037880271,
			"-0.006": 1.62735008244,
			"-0.005": 2.14992744036,
			"-0.004": 6.76422991263,
			"-0.003": 15.3780476431,
			"-0.002": 63.8934052251,
			"-0.001": 103.557475153,
			"0.0": 105.428854205,
			"0.001": 95.613877715,
			"0.002": 44.6018776497,
			"0.003": 10.2909003922,
			"0.004": 10.3847285501,
			"0.005": 8.9881745701,
			"0.006": 9.22707896465,
			"0.007": 7.37861914125,
			"0.008": 1.58459753837,
			"0.009": 1.43599406608,
			"0.01": 1.70249332068,
			"0.011": 0.4176203623,
			"0.012": 0.0,
			"0.013": 0.0,
			"0.014": 0.0,
			"0.015": 0.0,
			"0.016": 0.0,
			"0.017": 0.0,
			"0.018": 0.0,
			"0.019": 0.0,
			"0.02": 0.0,
			"0.021": 0.0,
			"0.022": 0.0,
			"0.023": 0.0,
			"0.024": 0.0,
			"0.025": 0.0
		}
	}
}
