{
	 "smiles": "ClC(=O)C1=CC2=C(C=CC=C2)N1S(=O)(=O)C1=CC=CC=C1", 
	 "Tm": 401.15, 
	 "num_atms": 31, 
	 "gaussian": { 
		 "optdone": 1, 
		 "sigma_profile": "yes", 
		 "theory": "DFT", 
		 "functional": "B3LYP", 
		 "basiset": "6-31G**", 
		 "properties": { 
			 "R2extent": 6348.2626, 
			 "electric_dipole_moment_norm": 7.78111495096, 
			 "electric_quadrupole_moment_norm": 14.8150920331, 
			 "total_energy": -1716.34460633, 
			 "HOMO_LUMO_gap": 0.16093, 
			 "cosmo_polarized_energy": -15.78, 
			 "cosmo_cavitation_energy": 38.56, 
			 "cosmo_dispersion_energy": -26.85, 
			 "cosmo_repulsion_energy": 2.01, 
			 "cosmo_total_nonelectrostatic_energy": 13.71, 
			 "SMD_solvation_energy": 5.74 
		},
		"coords": [
			{
				"x": -4.3947366724,
				"y": 0.1376946805,
				"z": 0.9013934378,
				"element": "Cl" 
			},
			{
				"x": -2.9066044585,
				"y": 0.7948726604,
				"z": 1.7708122265,
				"element": "C" 
			},
			{
				"x": -2.9879606996,
				"y": 1.7992614882,
				"z": 2.4011065713,
				"element": "O" 
			},
			{
				"x": -1.7512892938,
				"y": -0.0953949743,
				"z": 1.6043243771,
				"element": "C" 
			},
			{
				"x": -1.7951366202,
				"y": -1.4665129765,
				"z": 1.5814733035,
				"element": "C" 
			},
			{
				"x": -0.4686297542,
				"y": -1.9583495569,
				"z": 1.7928870974,
				"element": "C" 
			},
			{
				"x": 0.3773747686,
				"y": -0.8305200401,
				"z": 1.9357317588,
				"element": "C" 
			},
			{
				"x": 1.7500433552,
				"y": -0.9704083032,
				"z": 2.1676927175,
				"element": "C" 
			},
			{
				"x": 2.2520095458,
				"y": -2.2654536075,
				"z": 2.2559513657,
				"element": "C" 
			},
			{
				"x": 1.423031175,
				"y": -3.3972081624,
				"z": 2.1231120793,
				"element": "C" 
			},
			{
				"x": 0.0618785095,
				"y": -3.2554468,
				"z": 1.898434165,
				"element": "C" 
			},
			{
				"x": -0.4150588356,
				"y": 0.3352504659,
				"z": 1.8375163715,
				"element": "N" 
			},
			{
				"x": 0.2518843317,
				"y": 1.7493850118,
				"z": 1.0257010857,
				"element": "S" 
			},
			{
				"x": -0.8142974536,
				"y": 2.7362139172,
				"z": 0.9665511231,
				"element": "O" 
			},
			{
				"x": 1.5215718718,
				"y": 2.0018377419,
				"z": 1.6993193561,
				"element": "O" 
			},
			{
				"x": 0.5783278811,
				"y": 1.1672333977,
				"z": -0.6381526111,
				"element": "C" 
			},
			{
				"x": 1.8730196324,
				"y": 0.7769369783,
				"z": -0.9866765716,
				"element": "C" 
			},
			{
				"x": 2.1115089438,
				"y": 0.3328564226,
				"z": -2.2875682504,
				"element": "C" 
			},
			{
				"x": 1.0679518894,
				"y": 0.282469932,
				"z": -3.2140854519,
				"element": "C" 
			},
			{
				"x": -0.2203308251,
				"y": 0.6847295053,
				"z": -2.8513222002,
				"element": "C" 
			},
			{
				"x": -0.4747850452,
				"y": 1.135253635,
				"z": -1.5569255052,
				"element": "C" 
			},
			{
				"x": -2.6994746764,
				"y": -2.0526481143,
				"z": 1.5061567324,
				"element": "H" 
			},
			{
				"x": 2.3861459821,
				"y": -0.1052900221,
				"z": 2.3016672759,
				"element": "H" 
			},
			{
				"x": 3.3111585284,
				"y": -2.4048269919,
				"z": 2.4508847342,
				"element": "H" 
			},
			{
				"x": 1.8568660914,
				"y": -4.3886181685,
				"z": 2.2088943599,
				"element": "H" 
			},
			{
				"x": -0.5850938715,
				"y": -4.1226986388,
				"z": 1.8079001064,
				"element": "H" 
			},
			{
				"x": 2.6724593687,
				"y": 0.8393835496,
				"z": -0.2581463317,
				"element": "H" 
			},
			{
				"x": 3.1135131521,
				"y": 0.0314632251,
				"z": -2.5765852122,
				"element": "H" 
			},
			{
				"x": 1.260074065,
				"y": -0.0639539087,
				"z": -4.2251653629,
				"element": "H" 
			},
			{
				"x": -1.0266141499,
				"y": 0.6560748993,
				"z": -3.5774516437,
				"element": "H" 
			},
			{
				"x": -1.4642067359,
				"y": 1.4728127543,
				"z": -1.269031104,
				"element": "H" 
			}
		],
		 "valence_orbital": [ 
			{
				"type": "occ",
				"energy": -0.29324,
				"method": "rhf"
			},
			{
				"type": "occ",
				"energy": -0.28531,
				"method": "rhf"
			},
			{
				"type": "occ",
				"energy": -0.2829,
				"method": "rhf"
			},
			{
				"type": "occ",
				"energy": -0.25605,
				"method": "rhf"
			},
			{
				"type": "occ",
				"energy": -0.24461,
				"method": "rhf"
			},
			{
				"type": "unocc",
				"energy": -0.08368,
				"method": "rhf"
			},
			{
				"type": "unocc",
				"energy": -0.05545,
				"method": "rhf"
			},
			{
				"type": "unocc",
				"energy": -0.03334,
				"method": "rhf"
			},
			{
				"type": "unocc",
				"energy": -0.02137,
				"method": "rhf"
			},
			{
				"type": "unocc",
				"energy": -0.00501,
				"method": "rhf"
			}
		],
		"cosmo_sigma_profile": { 
			"-0.025": 0.0,
			"-0.024": 0.0,
			"-0.023": 0.0,
			"-0.022": 0.0,
			"-0.021": 0.0,
			"-0.02": 0.0,
			"-0.019": 0.0,
			"-0.018": 0.0,
			"-0.017": 0.0,
			"-0.016": 0.0,
			"-0.015": 0.0,
			"-0.014": 0.0,
			"-0.013": 0.0,
			"-0.012": 0.0,
			"-0.011": 0.0,
			"-0.01": 0.0695364128163,
			"-0.009": 1.24630185432,
			"-0.008": 4.09021975884,
			"-0.007": 16.822339352,
			"-0.006": 22.7622246636,
			"-0.005": 21.9054006793,
			"-0.004": 17.587335256,
			"-0.003": 16.6322147152,
			"-0.002": 18.1908362443,
			"-0.001": 19.3688724228,
			"0.0": 25.389769755,
			"0.001": 29.0537270103,
			"0.002": 33.1913939375,
			"0.003": 25.9951411172,
			"0.004": 15.6650615267,
			"0.005": 9.19272763997,
			"0.006": 5.21638766601,
			"0.007": 5.09995050847,
			"0.008": 8.1437340361,
			"0.009": 10.5008722138,
			"0.01": 5.94639576949,
			"0.011": 1.45902317046,
			"0.012": 0.117031805924,
			"0.013": 0.0,
			"0.014": 0.0,
			"0.015": 0.0,
			"0.016": 0.0,
			"0.017": 0.0,
			"0.018": 0.0,
			"0.019": 0.0,
			"0.02": 0.0,
			"0.021": 0.0,
			"0.022": 0.0,
			"0.023": 0.0,
			"0.024": 0.0,
			"0.025": 0.0
		}
	}
}
