{
	 "smiles": "CN1C(=O)CNC1=O", 
	 "Tm": 451.15, 
	 "num_atms": 14, 
	 "gaussian": { 
		 "optdone": 1, 
		 "sigma_profile": "yes", 
		 "theory": "DFT", 
		 "functional": "B3LYP", 
		 "basiset": "6-31G**", 
		 "properties": { 
			 "R2extent": 1140.4039, 
			 "electric_dipole_moment_norm": 2.06956485765, 
			 "electric_quadrupole_moment_norm": 18.4906898792, 
			 "total_energy": -416.028988932, 
			 "HOMO_LUMO_gap": 0.25447, 
			 "cosmo_polarized_energy": -13.87, 
			 "cosmo_cavitation_energy": 18.04, 
			 "cosmo_dispersion_energy": -13.67, 
			 "cosmo_repulsion_energy": 1.16, 
			 "cosmo_total_nonelectrostatic_energy": 5.53, 
			 "SMD_solvation_energy": 4.2 
		},
		"coords": [
			{
				"x": -0.8436100833,
				"y": -1.0910516237,
				"z": -0.4127302458,
				"element": "C" 
			},
			{
				"x": 0.4792768893,
				"y": -0.6684750719,
				"z": 0.0099371078,
				"element": "N" 
			},
			{
				"x": 1.4599474278,
				"y": -0.2088702765,
				"z": -0.8431174805,
				"element": "C" 
			},
			{
				"x": 1.3744846313,
				"y": -0.0917248378,
				"z": -2.04848953,
				"element": "O" 
			},
			{
				"x": 2.668646911,
				"y": 0.1255194152,
				"z": 0.0402886483,
				"element": "C" 
			},
			{
				"x": 2.2117090576,
				"y": -0.2785921792,
				"z": 1.3548531767,
				"element": "N" 
			},
			{
				"x": 0.8999702769,
				"y": -0.6837948463,
				"z": 1.3611985989,
				"element": "C" 
			},
			{
				"x": 0.2154682029,
				"y": -1.0034407547,
				"z": 2.3121011431,
				"element": "O" 
			},
			{
				"x": -1.3363583296,
				"y": -0.2882095921,
				"z": -0.9668223522,
				"element": "H" 
			},
			{
				"x": -0.7777720467,
				"y": -1.9721504248,
				"z": -1.0571129563,
				"element": "H" 
			},
			{
				"x": -1.4119072866,
				"y": -1.3302491055,
				"z": 0.486525911,
				"element": "H" 
			},
			{
				"x": 3.5468058759,
				"y": -0.4331596722,
				"z": -0.3025596908,
				"element": "H" 
			},
			{
				"x": 2.891391709,
				"y": 1.1973178499,
				"z": -0.0336262976,
				"element": "H" 
			},
			{
				"x": 2.6712467645,
				"y": -0.0547188804,
				"z": 2.2227539675,
				"element": "H" 
			}
		],
		 "valence_orbital": [ 
			{
				"type": "occ",
				"energy": -0.38213,
				"method": "rhf"
			},
			{
				"type": "occ",
				"energy": -0.29157,
				"method": "rhf"
			},
			{
				"type": "occ",
				"energy": -0.27843,
				"method": "rhf"
			},
			{
				"type": "occ",
				"energy": -0.26823,
				"method": "rhf"
			},
			{
				"type": "occ",
				"energy": -0.26403,
				"method": "rhf"
			},
			{
				"type": "unocc",
				"energy": -0.00956,
				"method": "rhf"
			},
			{
				"type": "unocc",
				"energy": 0.05906,
				"method": "rhf"
			},
			{
				"type": "unocc",
				"energy": 0.07773,
				"method": "rhf"
			},
			{
				"type": "unocc",
				"energy": 0.108,
				"method": "rhf"
			},
			{
				"type": "unocc",
				"energy": 0.11778,
				"method": "rhf"
			}
		],
		"cosmo_sigma_profile": { 
			"-0.025": 0.0,
			"-0.024": 0.0,
			"-0.023": 0.0,
			"-0.022": 0.0,
			"-0.021": 0.0,
			"-0.02": 0.0,
			"-0.019": 0.0,
			"-0.018": 0.0,
			"-0.017": 0.0,
			"-0.016": 0.222205911856,
			"-0.015": 1.47340835633,
			"-0.014": 1.3198052944,
			"-0.013": 0.75492210946,
			"-0.012": 1.0900484457,
			"-0.011": 1.14634370366,
			"-0.01": 1.16816908247,
			"-0.009": 0.768112531676,
			"-0.008": 4.95263502478,
			"-0.007": 6.45682487862,
			"-0.006": 11.9885303274,
			"-0.005": 12.6090592064,
			"-0.004": 11.1745391936,
			"-0.003": 14.0989661958,
			"-0.002": 11.6483380946,
			"-0.001": 5.37389902001,
			"0.0": 3.33171695053,
			"0.001": 2.91723219528,
			"0.002": 4.73057719081,
			"0.003": 3.83726868023,
			"0.004": 2.89530688216,
			"0.005": 3.16247462777,
			"0.006": 2.99631641834,
			"0.007": 1.82889547644,
			"0.008": 2.67293808996,
			"0.009": 2.54080980547,
			"0.01": 3.67896311061,
			"0.011": 4.544662275,
			"0.012": 9.45036579124,
			"0.013": 7.47289882324,
			"0.014": 0.683070920139,
			"0.015": 0.0,
			"0.016": 0.0,
			"0.017": 0.0,
			"0.018": 0.0,
			"0.019": 0.0,
			"0.02": 0.0,
			"0.021": 0.0,
			"0.022": 0.0,
			"0.023": 0.0,
			"0.024": 0.0,
			"0.025": 0.0
		}
	}
}
