{
	 "smiles": "CCOOCC", 
	 "Tm": 203.15, 
	 "num_atms": 16, 
	 "gaussian": { 
		 "optdone": 1, 
		 "sigma_profile": "yes", 
		 "theory": "DFT", 
		 "functional": "B3LYP", 
		 "basiset": "6-31G**", 
		 "properties": { 
			 "R2extent": 1223.4598, 
			 "electric_dipole_moment_norm": 1.1071207748, 
			 "electric_quadrupole_moment_norm": 6.03264197844, 
			 "total_energy": -308.80713112, 
			 "HOMO_LUMO_gap": 0.2645, 
			 "cosmo_polarized_energy": -4.59, 
			 "cosmo_cavitation_energy": 18.97, 
			 "cosmo_dispersion_energy": -13.86, 
			 "cosmo_repulsion_energy": 1.24, 
			 "cosmo_total_nonelectrostatic_energy": 6.35, 
			 "SMD_solvation_energy": 3.49 
		},
		"coords": [
			{
				"x": -2.5403505413,
				"y": -0.0178752125,
				"z": 3.1996954066,
				"element": "C" 
			},
			{
				"x": -1.0995915167,
				"y": 0.3022905536,
				"z": 2.826063713,
				"element": "C" 
			},
			{
				"x": -1.1259808293,
				"y": 0.7670145509,
				"z": 1.4828131611,
				"element": "O" 
			},
			{
				"x": 0.2527746936,
				"y": 1.1521155586,
				"z": 1.1671613022,
				"element": "O" 
			},
			{
				"x": 0.4874982635,
				"y": 0.7076805016,
				"z": -0.1635824046,
				"element": "C" 
			},
			{
				"x": 0.5928939543,
				"y": -0.8066848325,
				"z": -0.294949087,
				"element": "C" 
			},
			{
				"x": -2.5829989851,
				"y": -0.3785684098,
				"z": 4.2318462078,
				"element": "H" 
			},
			{
				"x": -3.1697028651,
				"y": 0.8725940337,
				"z": 3.1169712445,
				"element": "H" 
			},
			{
				"x": -2.9511524365,
				"y": -0.7930581344,
				"z": 2.546216775,
				"element": "H" 
			},
			{
				"x": -0.4574402194,
				"y": -0.5856198723,
				"z": 2.906763397,
				"element": "H" 
			},
			{
				"x": -0.6870041905,
				"y": 1.0825521222,
				"z": 3.479834444,
				"element": "H" 
			},
			{
				"x": 1.4357041806,
				"y": 1.1961902951,
				"z": -0.4191163417,
				"element": "H" 
			},
			{
				"x": -0.2893427211,
				"y": 1.1114192543,
				"z": -0.8265670603,
				"element": "H" 
			},
			{
				"x": 0.8107187555,
				"y": -1.0847603119,
				"z": -1.3318037804,
				"element": "H" 
			},
			{
				"x": 1.3923001107,
				"y": -1.1967321533,
				"z": 0.342567141,
				"element": "H" 
			},
			{
				"x": -0.348625653,
				"y": -1.2792579432,
				"z": -0.0042141181,
				"element": "H" 
			}
		],
		 "valence_orbital": [ 
			{
				"type": "occ",
				"energy": -0.36031,
				"method": "rhf"
			},
			{
				"type": "occ",
				"energy": -0.35558,
				"method": "rhf"
			},
			{
				"type": "occ",
				"energy": -0.32782,
				"method": "rhf"
			},
			{
				"type": "occ",
				"energy": -0.29593,
				"method": "rhf"
			},
			{
				"type": "occ",
				"energy": -0.23319,
				"method": "rhf"
			},
			{
				"type": "unocc",
				"energy": 0.03131,
				"method": "rhf"
			},
			{
				"type": "unocc",
				"energy": 0.10047,
				"method": "rhf"
			},
			{
				"type": "unocc",
				"energy": 0.11677,
				"method": "rhf"
			},
			{
				"type": "unocc",
				"energy": 0.13989,
				"method": "rhf"
			},
			{
				"type": "unocc",
				"energy": 0.14761,
				"method": "rhf"
			}
		],
		"cosmo_sigma_profile": { 
			"-0.025": 0.0,
			"-0.024": 0.0,
			"-0.023": 0.0,
			"-0.022": 0.0,
			"-0.021": 0.0,
			"-0.02": 0.0,
			"-0.019": 0.0,
			"-0.018": 0.0,
			"-0.017": 0.0,
			"-0.016": 0.0,
			"-0.015": 0.0,
			"-0.014": 0.0,
			"-0.013": 0.0,
			"-0.012": 0.0,
			"-0.011": 0.0,
			"-0.01": 0.0,
			"-0.009": 0.0,
			"-0.008": 0.0,
			"-0.007": 0.0,
			"-0.006": 1.1599823412,
			"-0.005": 3.71763056166,
			"-0.004": 15.5403895075,
			"-0.003": 23.9579726223,
			"-0.002": 21.6986748595,
			"-0.001": 17.7063162747,
			"0.0": 19.5067254415,
			"0.001": 11.6695719037,
			"0.002": 4.44353735643,
			"0.003": 3.22900750281,
			"0.004": 3.28076954458,
			"0.005": 2.70401086988,
			"0.006": 3.41208409305,
			"0.007": 2.36277053044,
			"0.008": 2.65187598183,
			"0.009": 2.54580975232,
			"0.01": 3.49735693721,
			"0.011": 2.44772288301,
			"0.012": 1.72700469646,
			"0.013": 0.0,
			"0.014": 0.0,
			"0.015": 0.0,
			"0.016": 0.0,
			"0.017": 0.0,
			"0.018": 0.0,
			"0.019": 0.0,
			"0.02": 0.0,
			"0.021": 0.0,
			"0.022": 0.0,
			"0.023": 0.0,
			"0.024": 0.0,
			"0.025": 0.0
		}
	}
}
