{
	 "smiles": "CC1=NC=C2CN=C(C3=CC(Cl)=CC=C3N12)C1=C(F)C=CC=C1", 
	 "Tm": 432.15, 
	 "num_atms": 36, 
	 "gaussian": { 
		 "optdone": 1, 
		 "sigma_profile": "yes", 
		 "theory": "DFT", 
		 "functional": "B3LYP", 
		 "basiset": "6-31G**", 
		 "properties": { 
			 "R2extent": 8355.1196, 
			 "electric_dipole_moment_norm": 3.08688923352, 
			 "electric_quadrupole_moment_norm": 20.2635729675, 
			 "total_energy": -1418.01810489, 
			 "HOMO_LUMO_gap": 0.15429, 
			 "cosmo_polarized_energy": -15.14, 
			 "cosmo_cavitation_energy": 41.67, 
			 "cosmo_dispersion_energy": -28.87, 
			 "cosmo_repulsion_energy": 2.18, 
			 "cosmo_total_nonelectrostatic_energy": 14.97, 
			 "SMD_solvation_energy": 2.89 
		},
		"coords": [
			{
				"x": -3.3676807748,
				"y": 1.3382921736,
				"z": -0.2650249933,
				"element": "C" 
			},
			{
				"x": -2.9967139381,
				"y": -0.1027453361,
				"z": -0.1123336103,
				"element": "C" 
			},
			{
				"x": -3.8521474427,
				"y": -1.0975176227,
				"z": -0.1970707431,
				"element": "N" 
			},
			{
				"x": -3.1183415289,
				"y": -2.255360564,
				"z": -0.0578361454,
				"element": "C" 
			},
			{
				"x": -1.7914825323,
				"y": -1.972637096,
				"z": 0.1109428341,
				"element": "C" 
			},
			{
				"x": -0.5492234532,
				"y": -2.7880934134,
				"z": 0.211843134,
				"element": "C" 
			},
			{
				"x": 0.2631733275,
				"y": -2.6371008635,
				"z": -1.0019890747,
				"element": "N" 
			},
			{
				"x": 0.8021862336,
				"y": -1.4999237177,
				"z": -1.2417880012,
				"element": "C" 
			},
			{
				"x": 0.7015509107,
				"y": -0.2791704312,
				"z": -0.3697656223,
				"element": "C" 
			},
			{
				"x": 1.8663697803,
				"y": 0.4778670195,
				"z": -0.1602552747,
				"element": "C" 
			},
			{
				"x": 1.8502526346,
				"y": 1.6045775416,
				"z": 0.6527708706,
				"element": "C" 
			},
			{
				"x": 3.3281432587,
				"y": 2.517537696,
				"z": 0.8991394663,
				"element": "Cl" 
			},
			{
				"x": 0.6736046055,
				"y": 2.0146412297,
				"z": 1.2787482783,
				"element": "C" 
			},
			{
				"x": -0.4867271314,
				"y": 1.2744589026,
				"z": 1.0830164619,
				"element": "C" 
			},
			{
				"x": -0.4953047365,
				"y": 0.1394023845,
				"z": 0.2603378623,
				"element": "C" 
			},
			{
				"x": -1.7026684034,
				"y": -0.5778994025,
				"z": 0.0783431414,
				"element": "N" 
			},
			{
				"x": 1.6165365892,
				"y": -1.3703572549,
				"z": -2.4898583693,
				"element": "C" 
			},
			{
				"x": 2.5092176381,
				"y": -2.3712734313,
				"z": -2.9006984656,
				"element": "C" 
			},
			{
				"x": 2.7167323623,
				"y": -3.4481220122,
				"z": -2.1239215457,
				"element": "F" 
			},
			{
				"x": 3.2322130776,
				"y": -2.2795855747,
				"z": -4.0851548595,
				"element": "C" 
			},
			{
				"x": 3.0663184425,
				"y": -1.1622831727,
				"z": -4.9024543778,
				"element": "C" 
			},
			{
				"x": 2.1901569422,
				"y": -0.1434634548,
				"z": -4.5225024134,
				"element": "C" 
			},
			{
				"x": 1.4843155302,
				"y": -0.2489009958,
				"z": -3.3258139855,
				"element": "C" 
			},
			{
				"x": -3.4907593988,
				"y": 1.8492405987,
				"z": 0.6975577204,
				"element": "H" 
			},
			{
				"x": -2.6259028553,
				"y": 1.8961908838,
				"z": -0.8447739417,
				"element": "H" 
			},
			{
				"x": -4.3271503832,
				"y": 1.3792514795,
				"z": -0.7832080557,
				"element": "H" 
			},
			{
				"x": -3.5844422573,
				"y": -3.2302965814,
				"z": -0.097518632,
				"element": "H" 
			},
			{
				"x": 0.0331313384,
				"y": -2.5027313785,
				"z": 1.1025970039,
				"element": "H" 
			},
			{
				"x": -0.8164559016,
				"y": -3.8419942293,
				"z": 0.3171380334,
				"element": "H" 
			},
			{
				"x": 2.788985627,
				"y": 0.1757934857,
				"z": -0.6415786052,
				"element": "H" 
			},
			{
				"x": 0.6691337167,
				"y": 2.8877381004,
				"z": 1.9213632212,
				"element": "H" 
			},
			{
				"x": -1.3969164939,
				"y": 1.5662891978,
				"z": 1.5924512353,
				"element": "H" 
			},
			{
				"x": 3.9139059918,
				"y": -3.0828358097,
				"z": -4.3430812245,
				"element": "H" 
			},
			{
				"x": 3.6247993296,
				"y": -1.0882060487,
				"z": -5.8306514496,
				"element": "H" 
			},
			{
				"x": 2.0567665704,
				"y": 0.7286953508,
				"z": -5.1545325318,
				"element": "H" 
			},
			{
				"x": 0.8027233249,
				"y": 0.5430223471,
				"z": -3.0308373409,
				"element": "H" 
			}
		],
		 "valence_orbital": [ 
			{
				"type": "occ",
				"energy": -0.26031,
				"method": "rhf"
			},
			{
				"type": "occ",
				"energy": -0.25717,
				"method": "rhf"
			},
			{
				"type": "occ",
				"energy": -0.24796,
				"method": "rhf"
			},
			{
				"type": "occ",
				"energy": -0.24257,
				"method": "rhf"
			},
			{
				"type": "occ",
				"energy": -0.21718,
				"method": "rhf"
			},
			{
				"type": "unocc",
				"energy": -0.06289,
				"method": "rhf"
			},
			{
				"type": "unocc",
				"energy": -0.03926,
				"method": "rhf"
			},
			{
				"type": "unocc",
				"energy": -0.03093,
				"method": "rhf"
			},
			{
				"type": "unocc",
				"energy": -0.00651,
				"method": "rhf"
			},
			{
				"type": "unocc",
				"energy": 0.01413,
				"method": "rhf"
			}
		],
		"cosmo_sigma_profile": { 
			"-0.025": 0.0,
			"-0.024": 0.0,
			"-0.023": 0.0,
			"-0.022": 0.0,
			"-0.021": 0.0,
			"-0.02": 0.0,
			"-0.019": 0.0,
			"-0.018": 0.0,
			"-0.017": 0.0,
			"-0.016": 0.0,
			"-0.015": 0.0,
			"-0.014": 0.0,
			"-0.013": 0.0,
			"-0.012": 0.0,
			"-0.011": 0.0,
			"-0.01": 0.0,
			"-0.009": 0.620675189275,
			"-0.008": 5.05173249816,
			"-0.007": 9.98540182095,
			"-0.006": 19.387023664,
			"-0.005": 27.4912339681,
			"-0.004": 24.6528083865,
			"-0.003": 25.6976252407,
			"-0.002": 25.970547534,
			"-0.001": 26.6315542847,
			"0.0": 26.5223023566,
			"0.001": 28.7182722998,
			"0.002": 23.1938703148,
			"0.003": 22.8583414646,
			"0.004": 27.4042153211,
			"0.005": 12.5072392303,
			"0.006": 5.17533003882,
			"0.007": 3.90690212675,
			"0.008": 3.59644148498,
			"0.009": 2.48915879225,
			"0.01": 2.65573380393,
			"0.011": 2.72268649353,
			"0.012": 2.08819344115,
			"0.013": 1.88317679732,
			"0.014": 2.07313535173,
			"0.015": 1.29404758299,
			"0.016": 0.902999778024,
			"0.017": 1.15620133539,
			"0.018": 0.436352587665,
			"0.019": 0.0,
			"0.02": 0.0,
			"0.021": 0.0,
			"0.022": 0.0,
			"0.023": 0.0,
			"0.024": 0.0,
			"0.025": 0.0
		}
	}
}
