{
	 "smiles": "CC(=O)C1=NN(C2=CC3=C(C=C12)C(=NN3C1=CC=CC=C1)C(C)=O)C1=CC=CC=C1", 
	 "Tm": 584.15, 
	 "num_atms": 48, 
	 "gaussian": { 
		 "optdone": 1, 
		 "sigma_profile": "yes", 
		 "theory": "DFT", 
		 "functional": "B3LYP", 
		 "basiset": "6-31G**", 
		 "properties": { 
			 "R2extent": 13772.0329, 
			 "electric_dipole_moment_norm": 7.25909919274, 
			 "electric_quadrupole_moment_norm": 18.0387401589, 
			 "total_energy": -1294.83809445, 
			 "HOMO_LUMO_gap": 0.13334, 
			 "cosmo_polarized_energy": -20.29, 
			 "cosmo_cavitation_energy": 53.11, 
			 "cosmo_dispersion_energy": -36.45, 
			 "cosmo_repulsion_energy": 2.71, 
			 "cosmo_total_nonelectrostatic_energy": 19.37, 
			 "SMD_solvation_energy": 8.44 
		},
		"coords": [
			{
				"x": -4.1395483667,
				"y": 2.9570742929,
				"z": 1.3633511195,
				"element": "C" 
			},
			{
				"x": -2.9724087562,
				"y": 2.9889914208,
				"z": 2.3323430205,
				"element": "C" 
			},
			{
				"x": -2.9634967977,
				"y": 3.7453717813,
				"z": 3.2878381057,
				"element": "O" 
			},
			{
				"x": -1.8280573532,
				"y": 2.0618863908,
				"z": 2.0772725394,
				"element": "C" 
			},
			{
				"x": -0.8255581506,
				"y": 2.0487010802,
				"z": 2.9431011717,
				"element": "N" 
			},
			{
				"x": 0.0775756964,
				"y": 1.137725771,
				"z": 2.5133463574,
				"element": "N" 
			},
			{
				"x": -0.3133595478,
				"y": 0.5461336735,
				"z": 1.3224343138,
				"element": "C" 
			},
			{
				"x": 0.3487423808,
				"y": -0.3787492105,
				"z": 0.5115772333,
				"element": "C" 
			},
			{
				"x": -0.3458764551,
				"y": -0.7329017034,
				"z": -0.645120983,
				"element": "C" 
			},
			{
				"x": -1.636050266,
				"y": -0.2158144782,
				"z": -0.9647262242,
				"element": "C" 
			},
			{
				"x": -2.2663875515,
				"y": 0.7255735373,
				"z": -0.1510489045,
				"element": "C" 
			},
			{
				"x": -1.5863400244,
				"y": 1.1217121098,
				"z": 1.0042761871,
				"element": "C" 
			},
			{
				"x": -1.9969631196,
				"y": -0.888816651,
				"z": -2.1840886231,
				"element": "C" 
			},
			{
				"x": -1.0394516558,
				"y": -1.7178080964,
				"z": -2.5717902584,
				"element": "N" 
			},
			{
				"x": -0.0346405478,
				"y": -1.6259494179,
				"z": -1.6642631521,
				"element": "N" 
			},
			{
				"x": 1.1297112745,
				"y": -2.4240674582,
				"z": -1.8269424853,
				"element": "C" 
			},
			{
				"x": 2.3930178242,
				"y": -1.903516831,
				"z": -1.5247177674,
				"element": "C" 
			},
			{
				"x": 3.5232717242,
				"y": -2.706006202,
				"z": -1.684471664,
				"element": "C" 
			},
			{
				"x": 3.4016257699,
				"y": -4.0115751805,
				"z": -2.1614877177,
				"element": "C" 
			},
			{
				"x": 2.1382972901,
				"y": -4.5151333737,
				"z": -2.4825500658,
				"element": "C" 
			},
			{
				"x": 1.0001941715,
				"y": -3.7303928067,
				"z": -2.3125766981,
				"element": "C" 
			},
			{
				"x": -3.242934209,
				"y": -0.7269293273,
				"z": -2.9642928392,
				"element": "C" 
			},
			{
				"x": -3.4045712742,
				"y": -1.5514030861,
				"z": -4.224072088,
				"element": "C" 
			},
			{
				"x": -4.1027789124,
				"y": 0.057145651,
				"z": -2.5818325441,
				"element": "O" 
			},
			{
				"x": 1.2691751356,
				"y": 0.9377000151,
				"z": 3.2635594213,
				"element": "C" 
			},
			{
				"x": 1.8805975804,
				"y": 2.0398368612,
				"z": 3.872115549,
				"element": "C" 
			},
			{
				"x": 3.0430499727,
				"y": 1.8535469434,
				"z": 4.6162661081,
				"element": "C" 
			},
			{
				"x": 3.6042373137,
				"y": 0.5806889874,
				"z": 4.7499171192,
				"element": "C" 
			},
			{
				"x": 2.9824977598,
				"y": -0.5142486379,
				"z": 4.1490182109,
				"element": "C" 
			},
			{
				"x": 1.8088699121,
				"y": -0.3444742752,
				"z": 3.4133253965,
				"element": "C" 
			},
			{
				"x": -4.8934836062,
				"y": 3.6681155636,
				"z": 1.7026350161,
				"element": "H" 
			},
			{
				"x": -4.5799217613,
				"y": 1.9553343318,
				"z": 1.3088193194,
				"element": "H" 
			},
			{
				"x": -3.8157215632,
				"y": 3.227310279,
				"z": 0.3519453475,
				"element": "H" 
			},
			{
				"x": 1.3187777657,
				"y": -0.7833084117,
				"z": 0.7620325526,
				"element": "H" 
			},
			{
				"x": -3.2372126076,
				"y": 1.1079609468,
				"z": -0.4339052504,
				"element": "H" 
			},
			{
				"x": 2.4942479113,
				"y": -0.8742491295,
				"z": -1.1995899254,
				"element": "H" 
			},
			{
				"x": 4.5023755655,
				"y": -2.2988906241,
				"z": -1.4505293314,
				"element": "H" 
			},
			{
				"x": 4.2844575674,
				"y": -4.6304325768,
				"z": -2.2888889666,
				"element": "H" 
			},
			{
				"x": 2.0356822215,
				"y": -5.5282212803,
				"z": -2.8598129568,
				"element": "H" 
			},
			{
				"x": 0.0139220926,
				"y": -4.1088422804,
				"z": -2.5543414794,
				"element": "H" 
			},
			{
				"x": -4.3638117249,
				"y": -1.311978451,
				"z": -4.6842254505,
				"element": "H" 
			},
			{
				"x": -3.3567021448,
				"y": -2.6200011451,
				"z": -3.9910599423,
				"element": "H" 
			},
			{
				"x": -2.5885665826,
				"y": -1.3463283642,
				"z": -4.9241245447,
				"element": "H" 
			},
			{
				"x": 1.430851914,
				"y": 3.0196591325,
				"z": 3.7623461015,
				"element": "H" 
			},
			{
				"x": 3.5154836658,
				"y": 2.7094376647,
				"z": 5.088908617,
				"element": "H" 
			},
			{
				"x": 4.5142100991,
				"y": 0.443000193,
				"z": 5.3258887073,
				"element": "H" 
			},
			{
				"x": 3.3983173862,
				"y": -1.5106245003,
				"z": 4.2655905664,
				"element": "H" 
			},
			{
				"x": 1.3001529837,
				"y": -1.2032431277,
				"z": 2.9901517814,
				"element": "H" 
			}
		],
		 "valence_orbital": [ 
			{
				"type": "occ",
				"energy": -0.25887,
				"method": "rhf"
			},
			{
				"type": "occ",
				"energy": -0.25386,
				"method": "rhf"
			},
			{
				"type": "occ",
				"energy": -0.24318,
				"method": "rhf"
			},
			{
				"type": "occ",
				"energy": -0.24177,
				"method": "rhf"
			},
			{
				"type": "occ",
				"energy": -0.21077,
				"method": "rhf"
			},
			{
				"type": "unocc",
				"energy": -0.07743,
				"method": "rhf"
			},
			{
				"type": "unocc",
				"energy": -0.05172,
				"method": "rhf"
			},
			{
				"type": "unocc",
				"energy": -0.02783,
				"method": "rhf"
			},
			{
				"type": "unocc",
				"energy": -0.02397,
				"method": "rhf"
			},
			{
				"type": "unocc",
				"energy": -0.0216,
				"method": "rhf"
			}
		],
		"cosmo_sigma_profile": { 
			"-0.025": 0.0,
			"-0.024": 0.0,
			"-0.023": 0.0,
			"-0.022": 0.0,
			"-0.021": 0.0,
			"-0.02": 0.0,
			"-0.019": 0.0,
			"-0.018": 0.0,
			"-0.017": 0.0,
			"-0.016": 0.0,
			"-0.015": 0.0,
			"-0.014": 0.0,
			"-0.013": 0.0,
			"-0.012": 0.0,
			"-0.011": 0.0,
			"-0.01": 0.0,
			"-0.009": 0.0,
			"-0.008": 0.809098514073,
			"-0.007": 10.4472437745,
			"-0.006": 33.0222229848,
			"-0.005": 36.1892594402,
			"-0.004": 34.6578974855,
			"-0.003": 27.5954025324,
			"-0.002": 39.6052693609,
			"-0.001": 39.9041670134,
			"0.0": 32.5620657594,
			"0.001": 32.47664082,
			"0.002": 29.4333785705,
			"0.003": 24.6789101074,
			"0.004": 28.0376904256,
			"0.005": 11.9020832639,
			"0.006": 5.81755560619,
			"0.007": 4.23633161177,
			"0.008": 3.76093164207,
			"0.009": 5.64165954947,
			"0.01": 5.24569515986,
			"0.011": 6.42166652358,
			"0.012": 7.4947108827,
			"0.013": 4.12895417034,
			"0.014": 1.33614873619,
			"0.015": 1.41469481316,
			"0.016": 0.651646040166,
			"0.017": 0.0,
			"0.018": 0.0,
			"0.019": 0.0,
			"0.02": 0.0,
			"0.021": 0.0,
			"0.022": 0.0,
			"0.023": 0.0,
			"0.024": 0.0,
			"0.025": 0.0
		}
	}
}
