{
	 "smiles": "O=CC1=CN(CC2=CC=CC=C2)N=C1C1=CC=CC=C1", 
	 "Tm": 359.15, 
	 "num_atms": 34, 
	 "gaussian": { 
		 "optdone": 1, 
		 "sigma_profile": "yes", 
		 "theory": "DFT", 
		 "functional": "B3LYP", 
		 "basiset": "6-31G**", 
		 "properties": { 
			 "R2extent": 7767.1942, 
			 "electric_dipole_moment_norm": 3.19890247429, 
			 "electric_quadrupole_moment_norm": 20.0087894002, 
			 "total_energy": -840.953240056, 
			 "HOMO_LUMO_gap": 0.18646, 
			 "cosmo_polarized_energy": -13.79, 
			 "cosmo_cavitation_energy": 39.2, 
			 "cosmo_dispersion_energy": -27.21, 
			 "cosmo_repulsion_energy": 2.08, 
			 "cosmo_total_nonelectrostatic_energy": 14.07, 
			 "SMD_solvation_energy": 6.75 
		},
		"coords": [
			{
				"x": 1.6382500778,
				"y": 2.5249584252,
				"z": 2.11547241,
				"element": "O" 
			},
			{
				"x": 1.6579976942,
				"y": 2.3081235767,
				"z": 0.9133871935,
				"element": "C" 
			},
			{
				"x": 0.900451755,
				"y": 1.236386142,
				"z": 0.2705497628,
				"element": "C" 
			},
			{
				"x": -0.0375801769,
				"y": 0.4398088357,
				"z": 0.9208494399,
				"element": "C" 
			},
			{
				"x": -0.5863971921,
				"y": -0.3620660642,
				"z": -0.0093008215,
				"element": "N" 
			},
			{
				"x": -1.6628814857,
				"y": -1.3386283978,
				"z": 0.1631481213,
				"element": "C" 
			},
			{
				"x": -3.050971522,
				"y": -0.731084642,
				"z": 0.0818404592,
				"element": "C" 
			},
			{
				"x": -3.469858781,
				"y": -0.0719336352,
				"z": -1.082075776,
				"element": "C" 
			},
			{
				"x": -4.7491875786,
				"y": 0.4757375258,
				"z": -1.1576494527,
				"element": "C" 
			},
			{
				"x": -5.6265228593,
				"y": 0.3663247659,
				"z": -0.0748324499,
				"element": "C" 
			},
			{
				"x": -5.2169047768,
				"y": -0.2908936352,
				"z": 1.0849634735,
				"element": "C" 
			},
			{
				"x": -3.932406105,
				"y": -0.8346014095,
				"z": 1.1623369189,
				"element": "C" 
			},
			{
				"x": -0.0739906431,
				"y": -0.1494868647,
				"z": -1.2496071746,
				"element": "N" 
			},
			{
				"x": 0.836466406,
				"y": 0.8171336016,
				"z": -1.0980649249,
				"element": "C" 
			},
			{
				"x": 1.6081006824,
				"y": 1.2884119491,
				"z": -2.2632936314,
				"element": "C" 
			},
			{
				"x": 2.9549792489,
				"y": 1.668460732,
				"z": -2.1447339024,
				"element": "C" 
			},
			{
				"x": 3.669265506,
				"y": 2.1082334075,
				"z": -3.2592506761,
				"element": "C" 
			},
			{
				"x": 3.0535185967,
				"y": 2.1659916692,
				"z": -4.5102469138,
				"element": "C" 
			},
			{
				"x": 1.7185564854,
				"y": 1.774858863,
				"z": -4.6417496309,
				"element": "C" 
			},
			{
				"x": 1.0014582842,
				"y": 1.3404742614,
				"z": -3.5295819603,
				"element": "C" 
			},
			{
				"x": 2.2540892104,
				"y": 2.9485383983,
				"z": 0.2323460545,
				"element": "H" 
			},
			{
				"x": -0.3355190959,
				"y": 0.4255228268,
				"z": 1.9586971338,
				"element": "H" 
			},
			{
				"x": -1.5177819165,
				"y": -1.8296866501,
				"z": 1.1291486621,
				"element": "H" 
			},
			{
				"x": -1.5108641686,
				"y": -2.0839453066,
				"z": -0.621602332,
				"element": "H" 
			},
			{
				"x": -2.7842294016,
				"y": 0.0146288476,
				"z": -1.9201155711,
				"element": "H" 
			},
			{
				"x": -5.0643370632,
				"y": 0.9864707954,
				"z": -2.0630321304,
				"element": "H" 
			},
			{
				"x": -6.6237998427,
				"y": 0.7920926072,
				"z": -0.1366896561,
				"element": "H" 
			},
			{
				"x": -5.892271144,
				"y": -0.3783644812,
				"z": 1.9310835588,
				"element": "H" 
			},
			{
				"x": -3.6158168886,
				"y": -1.3445633151,
				"z": 2.0692404572,
				"element": "H" 
			},
			{
				"x": 3.4546392259,
				"y": 1.5900007368,
				"z": -1.1844905206,
				"element": "H" 
			},
			{
				"x": 4.7111696246,
				"y": 2.3951435653,
				"z": -3.1501798444,
				"element": "H" 
			},
			{
				"x": 3.6105483385,
				"y": 2.5081033861,
				"z": -5.3776503386,
				"element": "H" 
			},
			{
				"x": 1.233588179,
				"y": 1.8133116099,
				"z": -5.613060744,
				"element": "H" 
			},
			{
				"x": -0.0364586736,
				"y": 1.040037873,
				"z": -3.625955194,
				"element": "H" 
			}
		],
		 "valence_orbital": [ 
			{
				"type": "occ",
				"energy": -0.25792,
				"method": "rhf"
			},
			{
				"type": "occ",
				"energy": -0.25553,
				"method": "rhf"
			},
			{
				"type": "occ",
				"energy": -0.25402,
				"method": "rhf"
			},
			{
				"type": "occ",
				"energy": -0.24275,
				"method": "rhf"
			},
			{
				"type": "occ",
				"energy": -0.23078,
				"method": "rhf"
			},
			{
				"type": "unocc",
				"energy": -0.04432,
				"method": "rhf"
			},
			{
				"type": "unocc",
				"energy": -0.02459,
				"method": "rhf"
			},
			{
				"type": "unocc",
				"energy": -0.01402,
				"method": "rhf"
			},
			{
				"type": "unocc",
				"energy": -0.00948,
				"method": "rhf"
			},
			{
				"type": "unocc",
				"energy": -0.00429,
				"method": "rhf"
			}
		],
		"cosmo_sigma_profile": { 
			"-0.025": 0.0,
			"-0.024": 0.0,
			"-0.023": 0.0,
			"-0.022": 0.0,
			"-0.021": 0.0,
			"-0.02": 0.0,
			"-0.019": 0.0,
			"-0.018": 0.0,
			"-0.017": 0.0,
			"-0.016": 0.0,
			"-0.015": 0.0,
			"-0.014": 0.0,
			"-0.013": 0.0,
			"-0.012": 0.0,
			"-0.011": 0.0353433885652,
			"-0.01": 1.88296174912,
			"-0.009": 2.0293428312,
			"-0.008": 4.13319662811,
			"-0.007": 7.45109726489,
			"-0.006": 19.961713298,
			"-0.005": 25.7494533352,
			"-0.004": 29.0838269239,
			"-0.003": 23.5247734192,
			"-0.002": 19.5805782715,
			"-0.001": 19.5703517682,
			"0.0": 18.4595039142,
			"0.001": 25.0494738125,
			"0.002": 24.0140556022,
			"0.003": 19.1893489422,
			"0.004": 21.2146088908,
			"0.005": 23.6938637057,
			"0.006": 6.64487891126,
			"0.007": 2.7422926897,
			"0.008": 2.9256945191,
			"0.009": 2.56617538164,
			"0.01": 2.94902519157,
			"0.011": 4.20644596133,
			"0.012": 4.86957740752,
			"0.013": 2.77499281798,
			"0.014": 0.530031916313,
			"0.015": 0.0,
			"0.016": 0.0,
			"0.017": 0.0,
			"0.018": 0.0,
			"0.019": 0.0,
			"0.02": 0.0,
			"0.021": 0.0,
			"0.022": 0.0,
			"0.023": 0.0,
			"0.024": 0.0,
			"0.025": 0.0
		}
	}
}
