{
	 "smiles": "OC(=O)C1=CC2=C(C=C1)C(=O)N1CCC(=CC3=CC=C(C=C3)C#N)C1=N2", 
	 "Tm": 574.15, 
	 "num_atms": 39, 
	 "gaussian": { 
		 "optdone": 1, 
		 "sigma_profile": "yes", 
		 "theory": "DFT", 
		 "functional": "B3LYP", 
		 "basiset": "6-31G**", 
		 "properties": { 
			 "R2extent": 12421.2207, 
			 "electric_dipole_moment_norm": 8.22879409452, 
			 "electric_quadrupole_moment_norm": 34.2452203536, 
			 "total_energy": -1159.90626239, 
			 "HOMO_LUMO_gap": 0.13828, 
			 "cosmo_polarized_energy": -26.87, 
			 "cosmo_cavitation_energy": 45.47, 
			 "cosmo_dispersion_energy": -31.84, 
			 "cosmo_repulsion_energy": 2.33, 
			 "cosmo_total_nonelectrostatic_energy": 15.96, 
			 "SMD_solvation_energy": 9.24 
		},
		"coords": [
			{
				"x": -4.4457195736,
				"y": 3.268065624,
				"z": -1.4890120807,
				"element": "O" 
			},
			{
				"x": -3.690775008,
				"y": 3.0524078313,
				"z": -2.5969286464,
				"element": "C" 
			},
			{
				"x": -3.9128071036,
				"y": 3.6641602308,
				"z": -3.6141210204,
				"element": "O" 
			},
			{
				"x": -2.5914939599,
				"y": 2.0330053289,
				"z": -2.4802614646,
				"element": "C" 
			},
			{
				"x": -2.0258503966,
				"y": 1.6821434573,
				"z": -1.2586731316,
				"element": "C" 
			},
			{
				"x": -0.9818410055,
				"y": 0.7366618887,
				"z": -1.1946679511,
				"element": "C" 
			},
			{
				"x": -0.5284012105,
				"y": 0.1501078877,
				"z": -2.4007212316,
				"element": "C" 
			},
			{
				"x": -1.0942160865,
				"y": 0.5198946354,
				"z": -3.6310119762,
				"element": "C" 
			},
			{
				"x": -2.1090313029,
				"y": 1.459154043,
				"z": -3.6755532195,
				"element": "C" 
			},
			{
				"x": 0.5545426296,
				"y": -0.8425312346,
				"z": -2.3569583338,
				"element": "C" 
			},
			{
				"x": 1.0545197066,
				"y": -1.4137854172,
				"z": -3.3172685784,
				"element": "O" 
			},
			{
				"x": 0.9933512084,
				"y": -1.0989537527,
				"z": -1.0561565096,
				"element": "N" 
			},
			{
				"x": 2.0910664508,
				"y": -2.0309741112,
				"z": -0.7813783135,
				"element": "C" 
			},
			{
				"x": 2.00646243,
				"y": -2.2098168014,
				"z": 0.7427825767,
				"element": "C" 
			},
			{
				"x": 1.2298964417,
				"y": -0.9942340522,
				"z": 1.243437693,
				"element": "C" 
			},
			{
				"x": 1.3199253429,
				"y": -0.6011013366,
				"z": 2.5384082726,
				"element": "C" 
			},
			{
				"x": 0.7577559612,
				"y": 0.4723296122,
				"z": 3.3584781303,
				"element": "C" 
			},
			{
				"x": 1.2369639322,
				"y": 0.5588326107,
				"z": 4.6854808702,
				"element": "C" 
			},
			{
				"x": 0.7877169327,
				"y": 1.5359752943,
				"z": 5.5609316571,
				"element": "C" 
			},
			{
				"x": -0.1710490259,
				"y": 2.4677657851,
				"z": 5.128038162,
				"element": "C" 
			},
			{
				"x": -0.6625735965,
				"y": 2.3938007326,
				"z": 3.8131974805,
				"element": "C" 
			},
			{
				"x": -0.2085773092,
				"y": 1.4116014289,
				"z": 2.9422226755,
				"element": "C" 
			},
			{
				"x": -0.6464570495,
				"y": 3.4815833008,
				"z": 6.022106173,
				"element": "C" 
			},
			{
				"x": -1.0326885151,
				"y": 4.3043922843,
				"z": 6.7485292633,
				"element": "N" 
			},
			{
				"x": 0.5034237924,
				"y": -0.4631545163,
				"z": 0.0747609959,
				"element": "C" 
			},
			{
				"x": -0.4482670627,
				"y": 0.423790758,
				"z": 0.0447865454,
				"element": "N" 
			},
			{
				"x": -4.2557705622,
				"y": 2.5981059754,
				"z": -0.8175909175,
				"element": "H" 
			},
			{
				"x": -2.3356122886,
				"y": 2.1432123687,
				"z": -0.325112711,
				"element": "H" 
			},
			{
				"x": -0.7108911623,
				"y": 0.0531543022,
				"z": -4.5322217824,
				"element": "H" 
			},
			{
				"x": -2.5523321986,
				"y": 1.7720961093,
				"z": -4.6139946215,
				"element": "H" 
			},
			{
				"x": 3.0375372972,
				"y": -1.582982436,
				"z": -1.1036204074,
				"element": "H" 
			},
			{
				"x": 1.944538887,
				"y": -2.9486760128,
				"z": -1.3529609699,
				"element": "H" 
			},
			{
				"x": 2.9922046645,
				"y": -2.2951671616,
				"z": 1.205394951,
				"element": "H" 
			},
			{
				"x": 1.4514479087,
				"y": -3.1263924458,
				"z": 0.9798721556,
				"element": "H" 
			},
			{
				"x": 1.9955110651,
				"y": -1.2304250288,
				"z": 3.1185692559,
				"element": "H" 
			},
			{
				"x": 1.9788960542,
				"y": -0.1563935978,
				"z": 5.029644855,
				"element": "H" 
			},
			{
				"x": 1.1691277135,
				"y": 1.5862804668,
				"z": 6.5750831434,
				"element": "H" 
			},
			{
				"x": -1.4054046381,
				"y": 3.1124779872,
				"z": 3.4827919762,
				"element": "H" 
			},
			{
				"x": -0.5955293626,
				"y": 1.3515879616,
				"z": 1.9325970346,
				"element": "H" 
			}
		],
		 "valence_orbital": [ 
			{
				"type": "occ",
				"energy": -0.28208,
				"method": "rhf"
			},
			{
				"type": "occ",
				"energy": -0.28099,
				"method": "rhf"
			},
			{
				"type": "occ",
				"energy": -0.27911,
				"method": "rhf"
			},
			{
				"type": "occ",
				"energy": -0.25965,
				"method": "rhf"
			},
			{
				"type": "occ",
				"energy": -0.24029,
				"method": "rhf"
			},
			{
				"type": "unocc",
				"energy": -0.10201,
				"method": "rhf"
			},
			{
				"type": "unocc",
				"energy": -0.07848,
				"method": "rhf"
			},
			{
				"type": "unocc",
				"energy": -0.04712,
				"method": "rhf"
			},
			{
				"type": "unocc",
				"energy": -0.02934,
				"method": "rhf"
			},
			{
				"type": "unocc",
				"energy": -0.00956,
				"method": "rhf"
			}
		],
		"cosmo_sigma_profile": { 
			"-0.025": 0.0,
			"-0.024": 0.0,
			"-0.023": 0.0,
			"-0.022": 0.0,
			"-0.021": 0.0,
			"-0.02": 0.0,
			"-0.019": 0.447856588545,
			"-0.018": 0.550496517073,
			"-0.017": 1.28089954948,
			"-0.016": 1.34939453893,
			"-0.015": 0.820724965535,
			"-0.014": 1.08039734468,
			"-0.013": 0.765034476014,
			"-0.012": 1.37694621917,
			"-0.011": 1.4115579062,
			"-0.01": 1.20183017559,
			"-0.009": 0.701420936649,
			"-0.008": 6.37674010792,
			"-0.007": 15.0777633385,
			"-0.006": 27.1306340157,
			"-0.005": 28.4118039996,
			"-0.004": 26.1699607311,
			"-0.003": 21.9664494662,
			"-0.002": 19.5641947629,
			"-0.001": 23.4743445205,
			"0.0": 28.0332433517,
			"0.001": 31.4878374807,
			"0.002": 32.8888353717,
			"0.003": 14.5291999134,
			"0.004": 7.79122353275,
			"0.005": 7.80490843061,
			"0.006": 7.65812682609,
			"0.007": 6.41414525917,
			"0.008": 7.34234729708,
			"0.009": 8.85969190053,
			"0.01": 10.1573692755,
			"0.011": 10.3024678745,
			"0.012": 9.88742320262,
			"0.013": 5.08756804572,
			"0.014": 0.0282023676037,
			"0.015": 0.0,
			"0.016": 0.0,
			"0.017": 0.0,
			"0.018": 0.0,
			"0.019": 0.0,
			"0.02": 0.0,
			"0.021": 0.0,
			"0.022": 0.0,
			"0.023": 0.0,
			"0.024": 0.0,
			"0.025": 0.0
		}
	}
}
