{
	 "smiles": "OC(=O)C1=CC=C2C=CC=NN12", 
	 "Tm": 406.15, 
	 "num_atms": 18, 
	 "gaussian": { 
		 "optdone": 1, 
		 "sigma_profile": "yes", 
		 "theory": "DFT", 
		 "functional": "B3LYP", 
		 "basiset": "6-31G**", 
		 "properties": { 
			 "R2extent": 2487.4462, 
			 "electric_dipole_moment_norm": 7.42709007216, 
			 "electric_quadrupole_moment_norm": 16.6888862558, 
			 "total_energy": -568.395184045, 
			 "HOMO_LUMO_gap": 0.15091, 
			 "cosmo_polarized_energy": -14.98, 
			 "cosmo_cavitation_energy": 22.59, 
			 "cosmo_dispersion_energy": -17.19, 
			 "cosmo_repulsion_energy": 1.34, 
			 "cosmo_total_nonelectrostatic_energy": 6.75, 
			 "SMD_solvation_energy": 4.85 
		},
		"coords": [
			{
				"x": 2.9467293826,
				"y": -0.7946515973,
				"z": -1.3567002047,
				"element": "O" 
			},
			{
				"x": 2.2151343317,
				"y": -1.8645407317,
				"z": -1.7240564454,
				"element": "C" 
			},
			{
				"x": 2.7250596123,
				"y": -2.860656788,
				"z": -2.1915652547,
				"element": "O" 
			},
			{
				"x": 0.7502200858,
				"y": -1.7750049152,
				"z": -1.5324633711,
				"element": "C" 
			},
			{
				"x": -0.2060498006,
				"y": -2.7496053382,
				"z": -1.8365561243,
				"element": "C" 
			},
			{
				"x": -1.4770789921,
				"y": -2.269943258,
				"z": -1.5034897311,
				"element": "C" 
			},
			{
				"x": -1.3151894756,
				"y": -0.9803523585,
				"z": -0.9847958419,
				"element": "C" 
			},
			{
				"x": -2.1528892891,
				"y": 0.0295797729,
				"z": -0.4770268819,
				"element": "C" 
			},
			{
				"x": -1.5930064678,
				"y": 1.2100942222,
				"z": -0.0455131142,
				"element": "C" 
			},
			{
				"x": -0.1846620584,
				"y": 1.3676013149,
				"z": -0.1283294872,
				"element": "C" 
			},
			{
				"x": 0.63675111,
				"y": 0.4541273401,
				"z": -0.59431265,
				"element": "N" 
			},
			{
				"x": 0.0684401134,
				"y": -0.6985360645,
				"z": -1.0133915935,
				"element": "N" 
			},
			{
				"x": 2.3603315422,
				"y": -0.090462338,
				"z": -1.0024816069,
				"element": "H" 
			},
			{
				"x": 0.0464819603,
				"y": -3.7098687188,
				"z": -2.2620718012,
				"element": "H" 
			},
			{
				"x": -2.4217262436,
				"y": -2.7819442386,
				"z": -1.6167063238,
				"element": "H" 
			},
			{
				"x": -3.2234847417,
				"y": -0.1428875856,
				"z": -0.4359449935,
				"element": "H" 
			},
			{
				"x": -2.1989114938,
				"y": 2.0149873318,
				"z": 0.3526863565,
				"element": "H" 
			},
			{
				"x": 0.2984504244,
				"y": 2.2822639505,
				"z": 0.2008190689,
				"element": "H" 
			}
		],
		 "valence_orbital": [ 
			{
				"type": "occ",
				"energy": -0.31955,
				"method": "rhf"
			},
			{
				"type": "occ",
				"energy": -0.29707,
				"method": "rhf"
			},
			{
				"type": "occ",
				"energy": -0.26507,
				"method": "rhf"
			},
			{
				"type": "occ",
				"energy": -0.26166,
				"method": "rhf"
			},
			{
				"type": "occ",
				"energy": -0.22767,
				"method": "rhf"
			},
			{
				"type": "unocc",
				"energy": -0.07676,
				"method": "rhf"
			},
			{
				"type": "unocc",
				"energy": -0.03974,
				"method": "rhf"
			},
			{
				"type": "unocc",
				"energy": 0.01951,
				"method": "rhf"
			},
			{
				"type": "unocc",
				"energy": 0.07307,
				"method": "rhf"
			},
			{
				"type": "unocc",
				"energy": 0.1089,
				"method": "rhf"
			}
		],
		"cosmo_sigma_profile": { 
			"-0.025": 0.0,
			"-0.024": 0.0,
			"-0.023": 0.0,
			"-0.022": 0.0,
			"-0.021": 0.0,
			"-0.02": 0.0,
			"-0.019": 0.0,
			"-0.018": 0.0,
			"-0.017": 0.0,
			"-0.016": 0.0,
			"-0.015": 0.0,
			"-0.014": 0.0,
			"-0.013": 0.0,
			"-0.012": 0.0,
			"-0.011": 0.0,
			"-0.01": 0.212121717495,
			"-0.009": 4.01468707527,
			"-0.008": 7.92644975415,
			"-0.007": 11.6097433259,
			"-0.006": 9.98869406795,
			"-0.005": 9.69400268794,
			"-0.004": 10.6889950534,
			"-0.003": 11.6438172302,
			"-0.002": 14.399495499,
			"-0.001": 14.8662264869,
			"0.0": 15.8311672342,
			"0.001": 13.6167306838,
			"0.002": 10.7400794273,
			"0.003": 7.67991784813,
			"0.004": 6.64971656481,
			"0.005": 3.02225773055,
			"0.006": 2.66736009551,
			"0.007": 2.20317897603,
			"0.008": 2.25308297429,
			"0.009": 3.28477208878,
			"0.01": 3.18260526514,
			"0.011": 5.05340260242,
			"0.012": 5.6906357157,
			"0.013": 4.48270189917,
			"0.014": 1.36387688648,
			"0.015": 0.0152722186428,
			"0.016": 0.0,
			"0.017": 0.0,
			"0.018": 0.0,
			"0.019": 0.0,
			"0.02": 0.0,
			"0.021": 0.0,
			"0.022": 0.0,
			"0.023": 0.0,
			"0.024": 0.0,
			"0.025": 0.0
		}
	}
}
