{
	 "smiles": "FC1=NC=CC(I)=C1", 
	 "Tm": 331.15, 
	 "num_atms": 11, 
	 "gaussian": { 
		 "optdone": 1, 
		 "sigma_profile": "no", 
		 "theory": "DFT", 
		 "functional": "B3LYP", 
		 "basiset": "6-31G**", 
		 "properties": { 
			 "R2extent": 1204.4098, 
			 "electric_dipole_moment_norm": 1.94054797158, 
			 "electric_quadrupole_moment_norm": 7.18641712677, 
			 "total_energy": -358.306584099, 
			 "HOMO_LUMO_gap": 0.2128, 
			 "cosmo_polarized_energy": -97499.87, 
			 "cosmo_cavitation_energy": 19.22, 
			 "cosmo_dispersion_energy": -15.72, 
			 "cosmo_repulsion_energy": 1.24, 
			 "cosmo_total_nonelectrostatic_energy": 4.74, 
			 "SMD_solvation_energy": 1.54 
		},
		"coords": [
			{
				"x": -1.4896317207,
				"y": 1.501376603,
				"z": -2.3048830799,
				"element": "F" 
			},
			{
				"x": -1.1190940387,
				"y": 0.4764410847,
				"z": -1.5262563408,
				"element": "C" 
			},
			{
				"x": -0.4989593185,
				"y": -0.5173623047,
				"z": -2.1240989507,
				"element": "N" 
			},
			{
				"x": -0.1279962375,
				"y": -1.5434908671,
				"z": -1.3450995487,
				"element": "C" 
			},
			{
				"x": -0.3616943773,
				"y": -1.6046832072,
				"z": 0.0277614463,
				"element": "C" 
			},
			{
				"x": -1.0244398525,
				"y": -0.5236090435,
				"z": 0.6166625298,
				"element": "C" 
			},
			{
				"x": -1.4247505377,
				"y": -0.5230119682,
				"z": 2.6910080752,
				"element": "I" 
			},
			{
				"x": -1.4222802496,
				"y": 0.5562276806,
				"z": -0.1648560568,
				"element": "C" 
			},
			{
				"x": 0.3845078043,
				"y": -2.3627471467,
				"z": -1.8445034298,
				"element": "H" 
			},
			{
				"x": -0.038293039,
				"y": -2.4610170509,
				"z": 0.6062669354,
				"element": "H" 
			},
			{
				"x": -1.9380684326,
				"y": 1.41967622,
				"z": 0.2346984199,
				"element": "H" 
			}
		],
		 "valence_orbital": [ 
			{
				"type": "occ",
				"energy": -0.33497,
				"method": "rhf"
			},
			{
				"type": "occ",
				"energy": -0.28977,
				"method": "rhf"
			},
			{
				"type": "occ",
				"energy": -0.2845,
				"method": "rhf"
			},
			{
				"type": "occ",
				"energy": -0.27493,
				"method": "rhf"
			},
			{
				"type": "occ",
				"energy": -0.26834,
				"method": "rhf"
			},
			{
				"type": "unocc",
				"energy": -0.05554,
				"method": "rhf"
			},
			{
				"type": "unocc",
				"energy": -0.0496,
				"method": "rhf"
			},
			{
				"type": "unocc",
				"energy": -0.02571,
				"method": "rhf"
			},
			{
				"type": "unocc",
				"energy": 0.03521,
				"method": "rhf"
			},
			{
				"type": "unocc",
				"energy": 0.0423,
				"method": "rhf"
			}
		],
		"cosmo_sigma_profile": { 
			"0.0": 0.0,
			"0.0": 0.0,
			"0.0": 0.0,
			"0.0": 0.0,
			"0.0": 0.0,
			"0.0": 0.0,
			"0.0": 0.0,
			"0.0": 0.0,
			"0.0": 0.0,
			"0.0": 0.0,
			"0.0": 0.0,
			"0.0": 0.0,
			"0.0": 0.0,
			"0.0": 0.0,
			"0.0": 0.0,
			"0.0": 0.0,
			"0.0": 0.0,
			"0.0": 0.0,
			"0.0": 0.0,
			"0.0": 0.0,
			"0.0": 0.0,
			"0.0": 0.0,
			"0.0": 0.0,
			"0.0": 0.0,
			"0.0": 0.0,
			"0.0": 0.0,
			"0.0": 0.0,
			"0.0": 0.0,
			"0.0": 0.0,
			"0.0": 0.0,
			"0.0": 0.0,
			"0.0": 0.0,
			"0.0": 0.0,
			"0.0": 0.0,
			"0.0": 0.0,
			"0.0": 0.0,
			"0.0": 0.0,
			"0.0": 0.0,
			"0.0": 0.0,
			"0.0": 0.0,
			"0.0": 0.0,
			"0.0": 0.0,
			"0.0": 0.0,
			"0.0": 0.0,
			"0.0": 0.0,
			"0.0": 0.0,
			"0.0": 0.0,
			"0.0": 0.0,
			"0.0": 0.0,
			"0.0": 0.0,
			"0.0": 0.0
		}
	}
}
