{
	 "smiles": "CN(C)C(=N)CC#N", 
	 "Tm": 353.15, 
	 "num_atms": 17, 
	 "gaussian": { 
		 "optdone": 1, 
		 "sigma_profile": "yes", 
		 "theory": "DFT", 
		 "functional": "B3LYP", 
		 "basiset": "6-31G**", 
		 "properties": { 
			 "R2extent": 1226.7622, 
			 "electric_dipole_moment_norm": 3.12824896867, 
			 "electric_quadrupole_moment_norm": 14.0172273788, 
			 "total_energy": -360.174740186, 
			 "HOMO_LUMO_gap": 0.23277, 
			 "cosmo_polarized_energy": -13.9, 
			 "cosmo_cavitation_energy": 20.89, 
			 "cosmo_dispersion_energy": -14.59, 
			 "cosmo_repulsion_energy": 1.22, 
			 "cosmo_total_nonelectrostatic_energy": 7.52, 
			 "SMD_solvation_energy": 3.88 
		},
		"coords": [
			{
				"x": 0.8943376383,
				"y": 1.0449517921,
				"z": 2.6955132777,
				"element": "C" 
			},
			{
				"x": 0.2755637416,
				"y": 0.3143336123,
				"z": 1.5933033873,
				"element": "N" 
			},
			{
				"x": -0.5924732165,
				"y": 1.1119044176,
				"z": 0.7356497231,
				"element": "C" 
			},
			{
				"x": 0.9445190538,
				"y": -0.8047175967,
				"z": 1.1400770595,
				"element": "C" 
			},
			{
				"x": 2.0106099049,
				"y": -1.2077352454,
				"z": 1.7311321207,
				"element": "N" 
			},
			{
				"x": 0.3015997988,
				"y": -1.5563872662,
				"z": -0.0414330759,
				"element": "C" 
			},
			{
				"x": 0.5599405016,
				"y": -0.9322826604,
				"z": -1.3422027522,
				"element": "C" 
			},
			{
				"x": 0.7707485977,
				"y": -0.4280380489,
				"z": -2.3662098195,
				"element": "N" 
			},
			{
				"x": 1.7327774167,
				"y": 1.6697510042,
				"z": 2.3567174807,
				"element": "H" 
			},
			{
				"x": 0.1392938504,
				"y": 1.6851438798,
				"z": 3.1600696248,
				"element": "H" 
			},
			{
				"x": 1.28160345,
				"y": 0.3355698207,
				"z": 3.4257619455,
				"element": "H" 
			},
			{
				"x": -1.2769333244,
				"y": 1.6862463812,
				"z": 1.3664590797,
				"element": "H" 
			},
			{
				"x": -0.0327071996,
				"y": 1.8170827372,
				"z": 0.1039448129,
				"element": "H" 
			},
			{
				"x": -1.1995989416,
				"y": 0.4852647491,
				"z": 0.0815723277,
				"element": "H" 
			},
			{
				"x": 2.3385358568,
				"y": -2.0867673504,
				"z": 1.3351754818,
				"element": "H" 
			},
			{
				"x": 0.7099378865,
				"y": -2.5709767523,
				"z": -0.0580430735,
				"element": "H" 
			},
			{
				"x": -0.781155015,
				"y": -1.6518434739,
				"z": 0.0967123996,
				"element": "H" 
			}
		],
		 "valence_orbital": [ 
			{
				"type": "occ",
				"energy": -0.34175,
				"method": "rhf"
			},
			{
				"type": "occ",
				"energy": -0.33507,
				"method": "rhf"
			},
			{
				"type": "occ",
				"energy": -0.33197,
				"method": "rhf"
			},
			{
				"type": "occ",
				"energy": -0.26391,
				"method": "rhf"
			},
			{
				"type": "occ",
				"energy": -0.22835,
				"method": "rhf"
			},
			{
				"type": "unocc",
				"energy": 0.00442,
				"method": "rhf"
			},
			{
				"type": "unocc",
				"energy": 0.02692,
				"method": "rhf"
			},
			{
				"type": "unocc",
				"energy": 0.0403,
				"method": "rhf"
			},
			{
				"type": "unocc",
				"energy": 0.07219,
				"method": "rhf"
			},
			{
				"type": "unocc",
				"energy": 0.10082,
				"method": "rhf"
			}
		],
		"cosmo_sigma_profile": { 
			"-0.025": 0.0,
			"-0.024": 0.0,
			"-0.023": 0.0,
			"-0.022": 0.0,
			"-0.021": 0.0,
			"-0.02": 0.0,
			"-0.019": 0.0,
			"-0.018": 0.0,
			"-0.017": 0.0,
			"-0.016": 0.0,
			"-0.015": 0.0,
			"-0.014": 0.0,
			"-0.013": 0.0,
			"-0.012": 0.703132578667,
			"-0.011": 2.50965294211,
			"-0.01": 5.12484723468,
			"-0.009": 5.57831145428,
			"-0.008": 4.77930223379,
			"-0.007": 5.20745016762,
			"-0.006": 7.80309045822,
			"-0.005": 8.91548453168,
			"-0.004": 10.6861521927,
			"-0.003": 16.537297028,
			"-0.002": 17.1356742477,
			"-0.001": 12.6629054092,
			"0.0": 6.53686749239,
			"0.001": 5.34061778837,
			"0.002": 4.90454986913,
			"0.003": 4.2986829302,
			"0.004": 4.22318411402,
			"0.005": 4.68133899622,
			"0.006": 4.10002867696,
			"0.007": 5.09355499905,
			"0.008": 4.2518277972,
			"0.009": 4.73230880007,
			"0.01": 4.44759005988,
			"0.011": 4.55752741545,
			"0.012": 3.77061390271,
			"0.013": 2.549870677,
			"0.014": 1.05026821126,
			"0.015": 1.31815909369,
			"0.016": 0.752427172691,
			"0.017": 0.851565975332,
			"0.018": 0.0574941578493,
			"0.019": 0.0,
			"0.02": 0.0,
			"0.021": 0.0,
			"0.022": 0.0,
			"0.023": 0.0,
			"0.024": 0.0,
			"0.025": 0.0
		}
	}
}
