{
	 "smiles": "CN(C)CCOC1=CC=C(C=C1)C(N)=S", 
	 "Tm": 416.15, 
	 "num_atms": 31, 
	 "gaussian": { 
		 "optdone": 1, 
		 "sigma_profile": "yes", 
		 "theory": "DFT", 
		 "functional": "B3LYP", 
		 "basiset": "6-31G**", 
		 "properties": { 
			 "R2extent": 5954.9515, 
			 "electric_dipole_moment_norm": 6.82974062538, 
			 "electric_quadrupole_moment_norm": 20.0363710786, 
			 "total_energy": -1011.71504146, 
			 "HOMO_LUMO_gap": 0.14871, 
			 "cosmo_polarized_energy": -19.96, 
			 "cosmo_cavitation_energy": 35.38, 
			 "cosmo_dispersion_energy": -25.64, 
			 "cosmo_repulsion_energy": 1.99, 
			 "cosmo_total_nonelectrostatic_energy": 11.73, 
			 "SMD_solvation_energy": 3.36 
		},
		"coords": [
			{
				"x": -4.1548847232,
				"y": 1.8653687776,
				"z": -0.5101255263,
				"element": "C" 
			},
			{
				"x": -3.6207895332,
				"y": 0.7759917495,
				"z": 0.2959999968,
				"element": "N" 
			},
			{
				"x": -4.675885674,
				"y": 0.1040229391,
				"z": 1.0421446302,
				"element": "C" 
			},
			{
				"x": -2.5191588396,
				"y": 1.2312548997,
				"z": 1.1326983464,
				"element": "C" 
			},
			{
				"x": -1.7235248761,
				"y": 0.1030782511,
				"z": 1.7943861605,
				"element": "C" 
			},
			{
				"x": -1.218372744,
				"y": -0.8627024235,
				"z": 0.8741630319,
				"element": "O" 
			},
			{
				"x": -0.1299558382,
				"y": -0.5858428251,
				"z": 0.1105823885,
				"element": "C" 
			},
			{
				"x": 0.2028933544,
				"y": -1.5659240257,
				"z": -0.8414477354,
				"element": "C" 
			},
			{
				"x": 1.3125372606,
				"y": -1.4098695705,
				"z": -1.6529320283,
				"element": "C" 
			},
			{
				"x": 2.1236528277,
				"y": -0.2620697257,
				"z": -1.5623426321,
				"element": "C" 
			},
			{
				"x": 1.7842386011,
				"y": 0.7062813464,
				"z": -0.6042473826,
				"element": "C" 
			},
			{
				"x": 0.6762560027,
				"y": 0.5551976381,
				"z": 0.2287964283,
				"element": "C" 
			},
			{
				"x": 3.3014905721,
				"y": -0.0999959364,
				"z": -2.4484623771,
				"element": "C" 
			},
			{
				"x": 3.6798035887,
				"y": 1.1815991567,
				"z": -2.6829855565,
				"element": "N" 
			},
			{
				"x": 4.1556104757,
				"y": -1.3785770908,
				"z": -3.1052330414,
				"element": "S" 
			},
			{
				"x": -4.9234109944,
				"y": 1.4790849264,
				"z": -1.1869338102,
				"element": "H" 
			},
			{
				"x": -4.6096687933,
				"y": 2.6777610036,
				"z": 0.0905386347,
				"element": "H" 
			},
			{
				"x": -3.3578106796,
				"y": 2.3022673346,
				"z": -1.1202889253,
				"element": "H" 
			},
			{
				"x": -5.4645613713,
				"y": -0.2074490465,
				"z": 0.350922771,
				"element": "H" 
			},
			{
				"x": -4.2938711304,
				"y": -0.7991734456,
				"z": 1.5252697076,
				"element": "H" 
			},
			{
				"x": -5.1382590284,
				"y": 0.7444157986,
				"z": 1.8195313653,
				"element": "H" 
			},
			{
				"x": -2.8543669466,
				"y": 1.908099359,
				"z": 1.9486075894,
				"element": "H" 
			},
			{
				"x": -1.8450850142,
				"y": 1.8173999695,
				"z": 0.4991820187,
				"element": "H" 
			},
			{
				"x": -0.9136591503,
				"y": 0.5333233629,
				"z": 2.3974922038,
				"element": "H" 
			},
			{
				"x": -2.3541923696,
				"y": -0.4753950332,
				"z": 2.4733097719,
				"element": "H" 
			},
			{
				"x": -0.4309552546,
				"y": -2.4429145247,
				"z": -0.9180487433,
				"element": "H" 
			},
			{
				"x": 1.5731933086,
				"y": -2.1715017853,
				"z": -2.3795907044,
				"element": "H" 
			},
			{
				"x": 2.4177811803,
				"y": 1.5774282792,
				"z": -0.464002975,
				"element": "H" 
			},
			{
				"x": 0.4663749967,
				"y": 1.318051247,
				"z": 0.9687776439,
				"element": "H" 
			},
			{
				"x": 3.0451374513,
				"y": 1.9483369793,
				"z": -2.516221757,
				"element": "H" 
			},
			{
				"x": 4.4554433412,
				"y": 1.3319524149,
				"z": -3.3113394938,
				"element": "H" 
			}
		],
		 "valence_orbital": [ 
			{
				"type": "occ",
				"energy": -0.26089,
				"method": "rhf"
			},
			{
				"type": "occ",
				"energy": -0.23692,
				"method": "rhf"
			},
			{
				"type": "occ",
				"energy": -0.21955,
				"method": "rhf"
			},
			{
				"type": "occ",
				"energy": -0.21654,
				"method": "rhf"
			},
			{
				"type": "occ",
				"energy": -0.19899,
				"method": "rhf"
			},
			{
				"type": "unocc",
				"energy": -0.05028,
				"method": "rhf"
			},
			{
				"type": "unocc",
				"energy": -0.01054,
				"method": "rhf"
			},
			{
				"type": "unocc",
				"energy": 0.03477,
				"method": "rhf"
			},
			{
				"type": "unocc",
				"energy": 0.0707,
				"method": "rhf"
			},
			{
				"type": "unocc",
				"energy": 0.0768,
				"method": "rhf"
			}
		],
		"cosmo_sigma_profile": { 
			"-0.025": 0.0,
			"-0.024": 0.0,
			"-0.023": 0.0,
			"-0.022": 0.0,
			"-0.021": 0.0,
			"-0.02": 0.0,
			"-0.019": 0.0,
			"-0.018": 0.0,
			"-0.017": 0.0,
			"-0.016": 0.0370101731308,
			"-0.015": 0.98994064467,
			"-0.014": 2.62099714546,
			"-0.013": 2.41688017255,
			"-0.012": 2.60635024046,
			"-0.011": 2.64881497364,
			"-0.01": 2.25707451046,
			"-0.009": 1.77254915816,
			"-0.008": 4.02834672002,
			"-0.007": 5.43234815304,
			"-0.006": 10.8354997138,
			"-0.005": 13.1328331877,
			"-0.004": 22.2897486063,
			"-0.003": 21.4669426951,
			"-0.002": 23.4011387466,
			"-0.001": 28.9736978975,
			"0.0": 23.7315585034,
			"0.001": 13.1419392066,
			"0.002": 13.0033121782,
			"0.003": 17.1168251454,
			"0.004": 15.938458697,
			"0.005": 6.78317279459,
			"0.006": 5.332985095,
			"0.007": 6.74413907827,
			"0.008": 8.02245501551,
			"0.009": 9.43060534743,
			"0.01": 6.39424740005,
			"0.011": 5.05043666059,
			"0.012": 3.37200140933,
			"0.013": 0.806275798219,
			"0.014": 0.617546376674,
			"0.015": 0.741608014366,
			"0.016": 0.217090950763,
			"0.017": 0.0,
			"0.018": 0.0,
			"0.019": 0.0,
			"0.02": 0.0,
			"0.021": 0.0,
			"0.022": 0.0,
			"0.023": 0.0,
			"0.024": 0.0,
			"0.025": 0.0
		}
	}
}
