{
	 "smiles": "COC1=CC=C(OCCC(O)=O)C=C1", 
	 "Tm": 378.15, 
	 "num_atms": 26, 
	 "gaussian": { 
		 "optdone": 1, 
		 "sigma_profile": "yes", 
		 "theory": "DFT", 
		 "functional": "B3LYP", 
		 "basiset": "6-31G**", 
		 "properties": { 
			 "R2extent": 5168.1995, 
			 "electric_dipole_moment_norm": 4.18702586928, 
			 "electric_quadrupole_moment_norm": 15.7071088053, 
			 "total_energy": -689.175335434, 
			 "HOMO_LUMO_gap": 0.19651, 
			 "cosmo_polarized_energy": -18.03, 
			 "cosmo_cavitation_energy": 30.63, 
			 "cosmo_dispersion_energy": -22.47, 
			 "cosmo_repulsion_energy": 1.79, 
			 "cosmo_total_nonelectrostatic_energy": 9.95, 
			 "SMD_solvation_energy": 7.25 
		},
		"coords": [
			{
				"x": -4.6400340533,
				"y": -2.0985400416,
				"z": -1.4141588496,
				"element": "C" 
			},
			{
				"x": -3.3953528797,
				"y": -2.5846714207,
				"z": -0.9451063844,
				"element": "O" 
			},
			{
				"x": -2.3837271911,
				"y": -1.6817764375,
				"z": -0.7516343794,
				"element": "C" 
			},
			{
				"x": -2.4861827684,
				"y": -0.3037775241,
				"z": -0.9839341973,
				"element": "C" 
			},
			{
				"x": -1.3885265111,
				"y": 0.5239608479,
				"z": -0.7519215173,
				"element": "C" 
			},
			{
				"x": -0.1800712613,
				"y": -0.0024828492,
				"z": -0.2883758529,
				"element": "C" 
			},
			{
				"x": 0.8354858513,
				"y": 0.9018233875,
				"z": -0.0937117879,
				"element": "O" 
			},
			{
				"x": 2.0841548345,
				"y": 0.4158255612,
				"z": 0.3769716655,
				"element": "C" 
			},
			{
				"x": 3.0030758092,
				"y": 1.6240378278,
				"z": 0.4973348963,
				"element": "C" 
			},
			{
				"x": 4.3858806913,
				"y": 1.2367080717,
				"z": 0.9967449967,
				"element": "C" 
			},
			{
				"x": 5.2677747141,
				"y": 2.2623325858,
				"z": 1.1315099669,
				"element": "O" 
			},
			{
				"x": 4.7203172205,
				"y": 0.1100407089,
				"z": 1.2665456484,
				"element": "O" 
			},
			{
				"x": -0.0761918858,
				"y": -1.3801863942,
				"z": -0.0557194182,
				"element": "C" 
			},
			{
				"x": -1.1734423395,
				"y": -2.2072941134,
				"z": -0.2876903907,
				"element": "C" 
			},
			{
				"x": -4.5473701944,
				"y": -1.6235320495,
				"z": -2.4002032694,
				"element": "H" 
			},
			{
				"x": -5.0874854456,
				"y": -1.3798246444,
				"z": -0.71433939,
				"element": "H" 
			},
			{
				"x": -5.2935464884,
				"y": -2.9685924238,
				"z": -1.4977607004,
				"element": "H" 
			},
			{
				"x": -3.4091259862,
				"y": 0.1357301338,
				"z": -1.3433988981,
				"element": "H" 
			},
			{
				"x": -1.4562676009,
				"y": 1.5926650316,
				"z": -0.9283079732,
				"element": "H" 
			},
			{
				"x": 1.9755395402,
				"y": -0.0762744031,
				"z": 1.3517368118,
				"element": "H" 
			},
			{
				"x": 2.5113747199,
				"y": -0.3174142976,
				"z": -0.3187161236,
				"element": "H" 
			},
			{
				"x": 3.0919945222,
				"y": 2.1202006954,
				"z": -0.4777628736,
				"element": "H" 
			},
			{
				"x": 2.5599587833,
				"y": 2.3595973541,
				"z": 1.1810725145,
				"element": "H" 
			},
			{
				"x": 4.8531702733,
				"y": 3.0992879022,
				"z": 0.8777633805,
				"element": "H" 
			},
			{
				"x": 0.8466131446,
				"y": -1.8200563159,
				"z": 0.3037211338,
				"element": "H" 
			},
			{
				"x": -1.1061154986,
				"y": -3.275887193,
				"z": -0.1114590086,
				"element": "H" 
			}
		],
		 "valence_orbital": [ 
			{
				"type": "occ",
				"energy": -0.32064,
				"method": "rhf"
			},
			{
				"type": "occ",
				"energy": -0.2878,
				"method": "rhf"
			},
			{
				"type": "occ",
				"energy": -0.27934,
				"method": "rhf"
			},
			{
				"type": "occ",
				"energy": -0.25107,
				"method": "rhf"
			},
			{
				"type": "occ",
				"energy": -0.19883,
				"method": "rhf"
			},
			{
				"type": "unocc",
				"energy": -0.00232,
				"method": "rhf"
			},
			{
				"type": "unocc",
				"energy": 0.00323,
				"method": "rhf"
			},
			{
				"type": "unocc",
				"energy": 0.02638,
				"method": "rhf"
			},
			{
				"type": "unocc",
				"energy": 0.04894,
				"method": "rhf"
			},
			{
				"type": "unocc",
				"energy": 0.09121,
				"method": "rhf"
			}
		],
		"cosmo_sigma_profile": { 
			"-0.025": 0.0,
			"-0.024": 0.0,
			"-0.023": 0.0,
			"-0.022": 0.0,
			"-0.021": 0.0,
			"-0.02": 0.0191869435865,
			"-0.019": 0.834327675522,
			"-0.018": 1.10658669526,
			"-0.017": 0.941329514078,
			"-0.016": 1.47479743455,
			"-0.015": 1.32087212159,
			"-0.014": 0.945610435788,
			"-0.013": 0.659795287343,
			"-0.012": 1.25583232659,
			"-0.011": 1.8480402888,
			"-0.01": 0.914146809324,
			"-0.009": 1.53292476477,
			"-0.008": 3.18973456175,
			"-0.007": 5.86831092016,
			"-0.006": 13.7360027513,
			"-0.005": 25.1125903785,
			"-0.004": 20.8601698429,
			"-0.003": 18.8005646426,
			"-0.002": 12.2639585019,
			"-0.001": 11.0553123526,
			"0.0": 8.94332827119,
			"0.001": 8.31174102613,
			"0.002": 10.8223475532,
			"0.003": 11.0283534027,
			"0.004": 15.3356959222,
			"0.005": 17.3558204213,
			"0.006": 10.054304086,
			"0.007": 6.06010523222,
			"0.008": 5.06996280259,
			"0.009": 6.18189035054,
			"0.01": 7.40816192543,
			"0.011": 6.30416529299,
			"0.012": 4.38762534792,
			"0.013": 1.23770114893,
			"0.014": 0.00569547682014,
			"0.015": 0.0,
			"0.016": 0.0,
			"0.017": 0.0,
			"0.018": 0.0,
			"0.019": 0.0,
			"0.02": 0.0,
			"0.021": 0.0,
			"0.022": 0.0,
			"0.023": 0.0,
			"0.024": 0.0,
			"0.0": 0.0
		}
	}
}
