{
	 "smiles": "CC1=CSC(=N1)C1(N)CCCC1", 
	 "Tm": 333.15, 
	 "num_atms": 26, 
	 "gaussian": { 
		 "optdone": 1, 
		 "sigma_profile": "yes", 
		 "theory": "DFT", 
		 "functional": "B3LYP", 
		 "basiset": "6-31G**", 
		 "properties": { 
			 "R2extent": 2534.091, 
			 "electric_dipole_moment_norm": 0.861815061368, 
			 "electric_quadrupole_moment_norm": 10.601136631, 
			 "total_energy": -859.089809387, 
			 "HOMO_LUMO_gap": 0.21106, 
			 "cosmo_polarized_energy": -8.08, 
			 "cosmo_cavitation_energy": 28.66, 
			 "cosmo_dispersion_energy": -21.17, 
			 "cosmo_repulsion_energy": 1.66, 
			 "cosmo_total_nonelectrostatic_energy": 9.15, 
			 "SMD_solvation_energy": 2.95 
		},
		"coords": [
			{
				"x": -0.4433549971,
				"y": 3.2303571276,
				"z": 0.0270154773,
				"element": "C" 
			},
			{
				"x": -0.8768680113,
				"y": 1.8966573221,
				"z": -0.5067133234,
				"element": "C" 
			},
			{
				"x": -1.6207674792,
				"y": 1.6761785457,
				"z": -1.6321779391,
				"element": "C" 
			},
			{
				"x": -1.8998834746,
				"y": -0.0208411731,
				"z": -1.8655060223,
				"element": "S" 
			},
			{
				"x": -0.9669246985,
				"y": -0.3253608923,
				"z": -0.4016993665,
				"element": "C" 
			},
			{
				"x": -0.5174962957,
				"y": 0.7490432659,
				"z": 0.1787231308,
				"element": "N" 
			},
			{
				"x": -0.7050677393,
				"y": -1.747019721,
				"z": 0.0573567997,
				"element": "C" 
			},
			{
				"x": -1.7974749229,
				"y": -2.5752251154,
				"z": -0.4626188184,
				"element": "N" 
			},
			{
				"x": -0.4647909044,
				"y": -1.7967491624,
				"z": 1.5950968312,
				"element": "C" 
			},
			{
				"x": 1.0372868503,
				"y": -1.4917876355,
				"z": 1.8212893286,
				"element": "C" 
			},
			{
				"x": 1.7119340685,
				"y": -1.5996019201,
				"z": 0.4227778419,
				"element": "C" 
			},
			{
				"x": 0.6602877194,
				"y": -2.2467351825,
				"z": -0.4910145241,
				"element": "C" 
			},
			{
				"x": 0.649107417,
				"y": 3.2901219028,
				"z": 0.0841345792,
				"element": "H" 
			},
			{
				"x": -0.8277931818,
				"y": 3.3871200931,
				"z": 1.0408600392,
				"element": "H" 
			},
			{
				"x": -0.800339479,
				"y": 4.0454746903,
				"z": -0.6074676233,
				"element": "H" 
			},
			{
				"x": -2.0269532324,
				"y": 2.4105188705,
				"z": -2.3138329232,
				"element": "H" 
			},
			{
				"x": -2.6646639784,
				"y": -2.3650948919,
				"z": 0.0270317846,
				"element": "H" 
			},
			{
				"x": -1.5932079689,
				"y": -3.5580922793,
				"z": -0.3003931968,
				"element": "H" 
			},
			{
				"x": -1.1241532216,
				"y": -1.1105822864,
				"z": 2.1331956918,
				"element": "H" 
			},
			{
				"x": -0.7044315145,
				"y": -2.8151897625,
				"z": 1.9249669343,
				"element": "H" 
			},
			{
				"x": 1.4732133555,
				"y": -2.1995823917,
				"z": 2.5339055012,
				"element": "H" 
			},
			{
				"x": 1.1728572774,
				"y": -0.4892171894,
				"z": 2.2321458582,
				"element": "H" 
			},
			{
				"x": 1.9554150096,
				"y": -0.5993651995,
				"z": 0.0537411078,
				"element": "H" 
			},
			{
				"x": 2.6433982033,
				"y": -2.1734985557,
				"z": 0.4447245102,
				"element": "H" 
			},
			{
				"x": 0.7915781775,
				"y": -2.0197960133,
				"z": -1.5525323586,
				"element": "H" 
			},
			{
				"x": 0.6807930209,
				"y": -3.3404324461,
				"z": -0.3830093203,
				"element": "H" 
			}
		],
		 "valence_orbital": [ 
			{
				"type": "occ",
				"energy": -0.31073,
				"method": "rhf"
			},
			{
				"type": "occ",
				"energy": -0.2685,
				"method": "rhf"
			},
			{
				"type": "occ",
				"energy": -0.262,
				"method": "rhf"
			},
			{
				"type": "occ",
				"energy": -0.24328,
				"method": "rhf"
			},
			{
				"type": "occ",
				"energy": -0.22255,
				"method": "rhf"
			},
			{
				"type": "unocc",
				"energy": -0.01149,
				"method": "rhf"
			},
			{
				"type": "unocc",
				"energy": 0.04134,
				"method": "rhf"
			},
			{
				"type": "unocc",
				"energy": 0.05655,
				"method": "rhf"
			},
			{
				"type": "unocc",
				"energy": 0.07957,
				"method": "rhf"
			},
			{
				"type": "unocc",
				"energy": 0.09178,
				"method": "rhf"
			}
		],
		"cosmo_sigma_profile": { 
			"-0.025": 0.0,
			"-0.024": 0.0,
			"-0.023": 0.0,
			"-0.022": 0.0,
			"-0.021": 0.0,
			"-0.02": 0.0,
			"-0.019": 0.0,
			"-0.018": 0.0,
			"-0.017": 0.0,
			"-0.016": 0.0,
			"-0.015": 0.0,
			"-0.014": 0.0,
			"-0.013": 0.0,
			"-0.012": 0.0,
			"-0.011": 0.0542226682762,
			"-0.01": 1.90488568518,
			"-0.009": 2.50323647914,
			"-0.008": 4.86149003071,
			"-0.007": 5.08525814386,
			"-0.006": 5.11881888962,
			"-0.005": 8.06934094824,
			"-0.004": 11.318794277,
			"-0.003": 15.0986590786,
			"-0.002": 23.3075571659,
			"-0.001": 27.1063791255,
			"0.0": 28.7976187776,
			"0.001": 24.1549519459,
			"0.002": 15.5150085061,
			"0.003": 12.0678357069,
			"0.004": 13.5133222345,
			"0.005": 9.04524462646,
			"0.006": 3.49921817369,
			"0.007": 2.88998492589,
			"0.008": 1.90987356841,
			"0.009": 2.37855410487,
			"0.01": 1.77674011898,
			"0.011": 2.22383583819,
			"0.012": 1.0234507068,
			"0.013": 0.838629222064,
			"0.014": 0.684474270971,
			"0.015": 0.417053513327,
			"0.016": 0.295861860117,
			"0.017": 0.0,
			"0.018": 0.0,
			"0.019": 0.0,
			"0.02": 0.0,
			"0.021": 0.0,
			"0.022": 0.0,
			"0.023": 0.0,
			"0.024": 0.0,
			"0.025": 0.0
		}
	}
}
