{
	 "smiles": "C1=CC2=C(C=C1)N=C1C3=CC=CC4=C3C(=CC=C4)C1=N2", 
	 "Tm": 513.15, 
	 "num_atms": 30, 
	 "gaussian": { 
		 "optdone": 1, 
		 "sigma_profile": "yes", 
		 "theory": "DFT", 
		 "functional": "B3LYP", 
		 "basiset": "6-31G**", 
		 "properties": { 
			 "R2extent": 6035.7491, 
			 "electric_dipole_moment_norm": 1.37131551803, 
			 "electric_quadrupole_moment_norm": 18.1481403089, 
			 "total_energy": -801.470118902, 
			 "HOMO_LUMO_gap": 0.14583, 
			 "cosmo_polarized_energy": -8.92, 
			 "cosmo_cavitation_energy": 34.18, 
			 "cosmo_dispersion_energy": -25.63, 
			 "cosmo_repulsion_energy": 1.87, 
			 "cosmo_total_nonelectrostatic_energy": 10.42, 
			 "SMD_solvation_energy": 1.47 
		},
		"coords": [
			{
				"x": 1.3697798526,
				"y": -5.2377745859,
				"z": -0.0278168329,
				"element": "C" 
			},
			{
				"x": 1.976163162,
				"y": -4.0625627886,
				"z": 0.3649717825,
				"element": "C" 
			},
			{
				"x": 1.4057916685,
				"y": -2.8131578115,
				"z": 0.0221395947,
				"element": "C" 
			},
			{
				"x": 0.1888834164,
				"y": -2.7854632967,
				"z": -0.7391653442,
				"element": "C" 
			},
			{
				"x": -0.4093915046,
				"y": -4.0082588922,
				"z": -1.1273723361,
				"element": "C" 
			},
			{
				"x": 0.1701736101,
				"y": -5.2104711801,
				"z": -0.7782431654,
				"element": "C" 
			},
			{
				"x": -0.4139001662,
				"y": -1.6060106589,
				"z": -1.1032176823,
				"element": "N" 
			},
			{
				"x": 0.2050303164,
				"y": -0.5240492352,
				"z": -0.7036895552,
				"element": "C" 
			},
			{
				"x": -0.1613058968,
				"y": 0.8852713996,
				"z": -0.9172752057,
				"element": "C" 
			},
			{
				"x": -1.1934688445,
				"y": 1.5401107835,
				"z": -1.5561280998,
				"element": "C" 
			},
			{
				"x": -1.2011331864,
				"y": 2.9619965445,
				"z": -1.5450860464,
				"element": "C" 
			},
			{
				"x": -0.2136538548,
				"y": 3.7062492721,
				"z": -0.9185904448,
				"element": "C" 
			},
			{
				"x": 0.8635919691,
				"y": 3.0563655509,
				"z": -0.2514265279,
				"element": "C" 
			},
			{
				"x": 0.8476729108,
				"y": 1.650677299,
				"z": -0.2770944121,
				"element": "C" 
			},
			{
				"x": 1.8387851263,
				"y": 0.8397554936,
				"z": 0.3343249363,
				"element": "C" 
			},
			{
				"x": 2.8852078632,
				"y": 1.4473021515,
				"z": 0.9962845415,
				"element": "C" 
			},
			{
				"x": 2.9250669984,
				"y": 2.8681068912,
				"z": 1.0371497974,
				"element": "C" 
			},
			{
				"x": 1.9549868433,
				"y": 3.6569025361,
				"z": 0.4385908885,
				"element": "C" 
			},
			{
				"x": 1.4407491492,
				"y": -0.552172713,
				"z": 0.0695164017,
				"element": "C" 
			},
			{
				"x": 2.0349044522,
				"y": -1.6617473278,
				"z": 0.4289111301,
				"element": "N" 
			},
			{
				"x": 1.8133452493,
				"y": -6.1925423167,
				"z": 0.2389952391,
				"element": "H" 
			},
			{
				"x": 2.8961984259,
				"y": -4.0558273099,
				"z": 0.9408570958,
				"element": "H" 
			},
			{
				"x": -1.3287954996,
				"y": -3.9596358888,
				"z": -1.7022512915,
				"element": "H" 
			},
			{
				"x": -0.294690351,
				"y": -6.1445590733,
				"z": -1.0797403559,
				"element": "H" 
			},
			{
				"x": -1.9844092415,
				"y": 0.9909869582,
				"z": -2.057399156,
				"element": "H" 
			},
			{
				"x": -2.0126934885,
				"y": 3.4805729785,
				"z": -2.0473944929,
				"element": "H" 
			},
			{
				"x": -0.2605657742,
				"y": 4.791952186,
				"z": -0.935862145,
				"element": "H" 
			},
			{
				"x": 3.6632810465,
				"y": 0.8624809568,
				"z": 1.476891787,
				"element": "H" 
			},
			{
				"x": 3.7479274501,
				"y": 3.3494917088,
				"z": 1.5577599617,
				"element": "H" 
			},
			{
				"x": 2.0264682977,
				"y": 4.7399103685,
				"z": 0.4954599377,
				"element": "H" 
			}
		],
		 "valence_orbital": [ 
			{
				"type": "occ",
				"energy": -0.25478,
				"method": "rhf"
			},
			{
				"type": "occ",
				"energy": -0.25034,
				"method": "rhf"
			},
			{
				"type": "occ",
				"energy": -0.2402,
				"method": "rhf"
			},
			{
				"type": "occ",
				"energy": -0.23243,
				"method": "rhf"
			},
			{
				"type": "occ",
				"energy": -0.22058,
				"method": "rhf"
			},
			{
				"type": "unocc",
				"energy": -0.07475,
				"method": "rhf"
			},
			{
				"type": "unocc",
				"energy": -0.06906,
				"method": "rhf"
			},
			{
				"type": "unocc",
				"energy": -0.01575,
				"method": "rhf"
			},
			{
				"type": "unocc",
				"energy": 0.00182,
				"method": "rhf"
			},
			{
				"type": "unocc",
				"energy": 0.01204,
				"method": "rhf"
			}
		],
		"cosmo_sigma_profile": { 
			"-0.025": 0.0,
			"-0.024": 0.0,
			"-0.023": 0.0,
			"-0.022": 0.0,
			"-0.021": 0.0,
			"-0.02": 0.0,
			"-0.019": 0.0,
			"-0.018": 0.0,
			"-0.017": 0.0,
			"-0.016": 0.0,
			"-0.015": 0.0,
			"-0.014": 0.0,
			"-0.013": 0.0,
			"-0.012": 0.0,
			"-0.011": 0.0,
			"-0.01": 0.0,
			"-0.009": 0.0,
			"-0.008": 0.0,
			"-0.007": 7.29587299964,
			"-0.006": 21.3631444779,
			"-0.005": 20.5125857995,
			"-0.004": 19.2960887179,
			"-0.003": 15.891475591,
			"-0.002": 17.6321241363,
			"-0.001": 16.686952724,
			"0.0": 21.1874836256,
			"0.001": 23.0306925525,
			"0.002": 38.5219856539,
			"0.003": 37.2106687999,
			"0.004": 17.7432218138,
			"0.005": 4.21681983755,
			"0.006": 3.48517200976,
			"0.007": 2.83296287962,
			"0.008": 1.16651546708,
			"0.009": 1.77407292636,
			"0.01": 1.29779521922,
			"0.011": 1.82220921739,
			"0.012": 2.27015581743,
			"0.013": 1.47095236206,
			"0.014": 0.639143940564,
			"0.015": 0.0,
			"0.016": 0.0,
			"0.017": 0.0,
			"0.018": 0.0,
			"0.019": 0.0,
			"0.02": 0.0,
			"0.021": 0.0,
			"0.022": 0.0,
			"0.023": 0.0,
			"0.024": 0.0,
			"0.025": 0.0
		}
	}
}
