{
	 "smiles": "CC1(C)OC(=O)CC(=O)O1", 
	 "Tm": 369.15, 
	 "num_atms": 18, 
	 "gaussian": { 
		 "optdone": 1, 
		 "sigma_profile": "yes", 
		 "theory": "DFT", 
		 "functional": "B3LYP", 
		 "basiset": "6-31G**", 
		 "properties": { 
			 "R2extent": 1790.9254, 
			 "electric_dipole_moment_norm": 3.49057401153, 
			 "electric_quadrupole_moment_norm": 11.8100497975, 
			 "total_energy": -534.374123688, 
			 "HOMO_LUMO_gap": 0.25998, 
			 "cosmo_polarized_energy": -14.42, 
			 "cosmo_cavitation_energy": 21.68, 
			 "cosmo_dispersion_energy": -15.93, 
			 "cosmo_repulsion_energy": 1.31, 
			 "cosmo_total_nonelectrostatic_energy": 7.07, 
			 "SMD_solvation_energy": 6.12 
		},
		"coords": [
			{
				"x": -0.0799849959,
				"y": -1.0973821579,
				"z": 0.5733434069,
				"element": "C" 
			},
			{
				"x": -0.1127659239,
				"y": 0.0978503026,
				"z": -0.3638864471,
				"element": "C" 
			},
			{
				"x": -1.3751149756,
				"y": 0.1507730228,
				"z": -1.2222835087,
				"element": "C" 
			},
			{
				"x": 1.0518681557,
				"y": -0.0294510192,
				"z": -1.1994729456,
				"element": "O" 
			},
			{
				"x": 1.6045734603,
				"y": 1.0603504841,
				"z": -1.7996597239,
				"element": "C" 
			},
			{
				"x": 2.5069257034,
				"y": 0.9274040396,
				"z": -2.5834385135,
				"element": "O" 
			},
			{
				"x": 1.0242014061,
				"y": 2.4018240209,
				"z": -1.3930432316,
				"element": "C" 
			},
			{
				"x": 0.4353271188,
				"y": 2.4432609249,
				"z": 0.0045342784,
				"element": "C" 
			},
			{
				"x": 0.3880582263,
				"y": 3.4332377264,
				"z": 0.6856592347,
				"element": "O" 
			},
			{
				"x": -0.0376378666,
				"y": 1.2594133879,
				"z": 0.4822150695,
				"element": "O" 
			},
			{
				"x": -0.1183373568,
				"y": -2.0235745422,
				"z": -0.0041956449,
				"element": "H" 
			},
			{
				"x": -0.9332083239,
				"y": -1.059322096,
				"z": 1.2540929974,
				"element": "H" 
			},
			{
				"x": 0.843018193,
				"y": -1.0778329459,
				"z": 1.1561013562,
				"element": "H" 
			},
			{
				"x": -2.2555522593,
				"y": 0.2109642558,
				"z": -0.5782587347,
				"element": "H" 
			},
			{
				"x": -1.3779500919,
				"y": 1.0173776161,
				"z": -1.8882645516,
				"element": "H" 
			},
			{
				"x": -1.4417492605,
				"y": -0.7516814111,
				"z": -1.8344117105,
				"element": "H" 
			},
			{
				"x": 1.7960719917,
				"y": 3.1669973185,
				"z": -1.4793091928,
				"element": "H" 
			},
			{
				"x": 0.2354567992,
				"y": 2.6683910727,
				"z": -2.108522138,
				"element": "H" 
			}
		],
		 "valence_orbital": [ 
			{
				"type": "occ",
				"energy": -0.37205,
				"method": "rhf"
			},
			{
				"type": "occ",
				"energy": -0.32542,
				"method": "rhf"
			},
			{
				"type": "occ",
				"energy": -0.31443,
				"method": "rhf"
			},
			{
				"type": "occ",
				"energy": -0.30045,
				"method": "rhf"
			},
			{
				"type": "occ",
				"energy": -0.27913,
				"method": "rhf"
			},
			{
				"type": "unocc",
				"energy": -0.01915,
				"method": "rhf"
			},
			{
				"type": "unocc",
				"energy": -0.0033,
				"method": "rhf"
			},
			{
				"type": "unocc",
				"energy": 0.06064,
				"method": "rhf"
			},
			{
				"type": "unocc",
				"energy": 0.09,
				"method": "rhf"
			},
			{
				"type": "unocc",
				"energy": 0.09369,
				"method": "rhf"
			}
		],
		"cosmo_sigma_profile": { 
			"-0.025": 0.0,
			"-0.024": 0.0,
			"-0.023": 0.0,
			"-0.022": 0.0,
			"-0.021": 0.0,
			"-0.02": 0.0,
			"-0.019": 0.0,
			"-0.018": 0.0,
			"-0.017": 0.0,
			"-0.016": 0.0,
			"-0.015": 0.0,
			"-0.014": 0.0,
			"-0.013": 0.0,
			"-0.012": 0.747384960303,
			"-0.011": 4.09541186878,
			"-0.01": 2.69985891399,
			"-0.009": 4.05049470151,
			"-0.008": 5.02035574451,
			"-0.007": 5.35307526426,
			"-0.006": 12.6574206977,
			"-0.005": 15.0838624083,
			"-0.004": 12.8524028737,
			"-0.003": 12.6995318245,
			"-0.002": 16.1199673261,
			"-0.001": 10.2168543903,
			"0.0": 5.44490460716,
			"0.001": 4.13346649197,
			"0.002": 3.46253238963,
			"0.003": 3.99747994905,
			"0.004": 3.89983932649,
			"0.005": 3.71733233343,
			"0.006": 3.79206363292,
			"0.007": 5.22641386594,
			"0.008": 6.07622409341,
			"0.009": 6.40273728416,
			"0.01": 7.87011323652,
			"0.011": 11.4309389114,
			"0.012": 4.02010800992,
			"0.013": 0.0676250328697,
			"0.014": 0.0,
			"0.015": 0.0,
			"0.016": 0.0,
			"0.017": 0.0,
			"0.018": 0.0,
			"0.019": 0.0,
			"0.02": 0.0,
			"0.021": 0.0,
			"0.022": 0.0,
			"0.023": 0.0,
			"0.024": 0.0,
			"0.025": 0.0
		}
	}
}
