{
	 "smiles": "NC1=NN=C(CC2=CC=CC=C2)S1", 
	 "Tm": 447.15, 
	 "num_atms": 22, 
	 "gaussian": { 
		 "optdone": 1, 
		 "sigma_profile": "yes", 
		 "theory": "DFT", 
		 "functional": "B3LYP", 
		 "basiset": "6-31G**", 
		 "properties": { 
			 "R2extent": 3247.3294, 
			 "electric_dipole_moment_norm": 3.24260981927, 
			 "electric_quadrupole_moment_norm": 15.5691774201, 
			 "total_energy": -910.799635119, 
			 "HOMO_LUMO_gap": 0.20887, 
			 "cosmo_polarized_energy": -15.23, 
			 "cosmo_cavitation_energy": 28.34, 
			 "cosmo_dispersion_energy": -20.81, 
			 "cosmo_repulsion_energy": 1.62, 
			 "cosmo_total_nonelectrostatic_energy": 9.15, 
			 "SMD_solvation_energy": 2.35 
		},
		"coords": [
			{
				"x": 0.1298457325,
				"y": 2.3869285497,
				"z": -3.7875881644,
				"element": "N" 
			},
			{
				"x": 0.3898124176,
				"y": 1.8265735109,
				"z": -2.5591050348,
				"element": "C" 
			},
			{
				"x": 1.5930677528,
				"y": 1.539019875,
				"z": -2.1417323059,
				"element": "N" 
			},
			{
				"x": 1.6050442663,
				"y": 1.0740166752,
				"z": -0.852323636,
				"element": "N" 
			},
			{
				"x": 0.4342922546,
				"y": 0.9945823365,
				"z": -0.3013269271,
				"element": "C" 
			},
			{
				"x": 0.1941689129,
				"y": 0.4760841064,
				"z": 1.0883695405,
				"element": "C" 
			},
			{
				"x": -0.5171300856,
				"y": -0.8683251543,
				"z": 1.1318609348,
				"element": "C" 
			},
			{
				"x": 0.0531524086,
				"y": -1.9887377523,
				"z": 0.5111869177,
				"element": "C" 
			},
			{
				"x": -0.5860726012,
				"y": -3.2264905359,
				"z": 0.5584127294,
				"element": "C" 
			},
			{
				"x": -1.8069085723,
				"y": -3.3624666872,
				"z": 1.2253370098,
				"element": "C" 
			},
			{
				"x": -2.3821202176,
				"y": -2.2528889206,
				"z": 1.844246978,
				"element": "C" 
			},
			{
				"x": -1.7394999122,
				"y": -1.0131825769,
				"z": 1.7961242652,
				"element": "C" 
			},
			{
				"x": -0.8767772815,
				"y": 1.5317508932,
				"z": -1.3705527264,
				"element": "S" 
			},
			{
				"x": 0.9320972179,
				"y": 2.3524438391,
				"z": -4.404486749,
				"element": "H" 
			},
			{
				"x": -0.7375810354,
				"y": 2.1238676053,
				"z": -4.2332238614,
				"element": "H" 
			},
			{
				"x": -0.3739182665,
				"y": 1.2118992905,
				"z": 1.6684581485,
				"element": "H" 
			},
			{
				"x": 1.1854281685,
				"y": 0.3975608868,
				"z": 1.5479815961,
				"element": "H" 
			},
			{
				"x": 1.0004940571,
				"y": -1.8826196804,
				"z": -0.0111314175,
				"element": "H" 
			},
			{
				"x": -0.1313914042,
				"y": -4.0867841411,
				"z": 0.0752193279,
				"element": "H" 
			},
			{
				"x": -2.3044283863,
				"y": -4.3273579204,
				"z": 1.2618210041,
				"element": "H" 
			},
			{
				"x": -3.3307510734,
				"y": -2.3488727643,
				"z": 2.3649669276,
				"element": "H" 
			},
			{
				"x": -2.1909243528,
				"y": -0.1518014354,
				"z": 2.2827854427,
				"element": "H" 
			}
		],
		 "valence_orbital": [ 
			{
				"type": "occ",
				"energy": -0.28495,
				"method": "rhf"
			},
			{
				"type": "occ",
				"energy": -0.25654,
				"method": "rhf"
			},
			{
				"type": "occ",
				"energy": -0.25131,
				"method": "rhf"
			},
			{
				"type": "occ",
				"energy": -0.24596,
				"method": "rhf"
			},
			{
				"type": "occ",
				"energy": -0.22914,
				"method": "rhf"
			},
			{
				"type": "unocc",
				"energy": -0.02027,
				"method": "rhf"
			},
			{
				"type": "unocc",
				"energy": -0.00829,
				"method": "rhf"
			},
			{
				"type": "unocc",
				"energy": 0.00066,
				"method": "rhf"
			},
			{
				"type": "unocc",
				"energy": 0.00529,
				"method": "rhf"
			},
			{
				"type": "unocc",
				"energy": 0.04947,
				"method": "rhf"
			}
		],
		"cosmo_sigma_profile": { 
			"-0.025": 0.0,
			"-0.024": 0.0,
			"-0.023": 0.0,
			"-0.022": 0.0,
			"-0.021": 0.0,
			"-0.02": 0.0,
			"-0.019": 0.0,
			"-0.018": 0.0,
			"-0.017": 0.0,
			"-0.016": 0.0,
			"-0.015": 0.712107236269,
			"-0.014": 2.78170220107,
			"-0.013": 2.43375562636,
			"-0.012": 3.04183865158,
			"-0.011": 2.94602884532,
			"-0.01": 2.23815742027,
			"-0.009": 1.51898916146,
			"-0.008": 1.89309578153,
			"-0.007": 2.82730962644,
			"-0.006": 11.0194635496,
			"-0.005": 16.1683068758,
			"-0.004": 15.7739835546,
			"-0.003": 17.5183792218,
			"-0.002": 13.3535467786,
			"-0.001": 14.0694657122,
			"0.0": 15.8662027573,
			"0.001": 17.6764662251,
			"0.002": 14.8260475637,
			"0.003": 15.1748401174,
			"0.004": 11.57561885,
			"0.005": 11.4685759638,
			"0.006": 9.43473720393,
			"0.007": 2.57577874638,
			"0.008": 2.10895117575,
			"0.009": 2.77822908265,
			"0.01": 3.03398486812,
			"0.011": 2.32128465967,
			"0.012": 3.3260704443,
			"0.013": 3.22445447014,
			"0.014": 2.64515824645,
			"0.015": 1.84701129555,
			"0.016": 0.280345387673,
			"0.017": 0.0,
			"0.018": 0.0,
			"0.019": 0.0,
			"0.02": 0.0,
			"0.021": 0.0,
			"0.022": 0.0,
			"0.023": 0.0,
			"0.024": 0.0,
			"0.025": 0.0
		}
	}
}
