{
	 "smiles": "NC1=CC=C(CC2=NN=NN2)C=C1", 
	 "Tm": 448.15, 
	 "num_atms": 22, 
	 "gaussian": { 
		 "optdone": 1, 
		 "sigma_profile": "yes", 
		 "theory": "DFT", 
		 "functional": "B3LYP", 
		 "basiset": "6-31G**", 
		 "properties": { 
			 "R2extent": 3444.8215, 
			 "electric_dipole_moment_norm": 8.43407365453, 
			 "electric_quadrupole_moment_norm": 22.9325096882, 
			 "total_energy": -583.985863788, 
			 "HOMO_LUMO_gap": 0.20011, 
			 "cosmo_polarized_energy": -20.45, 
			 "cosmo_cavitation_energy": 26.88, 
			 "cosmo_dispersion_energy": -19.45, 
			 "cosmo_repulsion_energy": 1.55, 
			 "cosmo_total_nonelectrostatic_energy": 8.98, 
			 "SMD_solvation_energy": 2.44 
		},
		"coords": [
			{
				"x": 0.7884260827,
				"y": 1.6004317504,
				"z": -2.9791708225,
				"element": "N" 
			},
			{
				"x": 0.449682393,
				"y": 1.0294533908,
				"z": -1.7556237598,
				"element": "C" 
			},
			{
				"x": 0.1374446396,
				"y": -0.3385812794,
				"z": -1.6593595584,
				"element": "C" 
			},
			{
				"x": -0.1457041995,
				"y": -0.9154554385,
				"z": -0.4249625552,
				"element": "C" 
			},
			{
				"x": -0.1310464017,
				"y": -0.1605241363,
				"z": 0.7564551525,
				"element": "C" 
			},
			{
				"x": -0.4109673658,
				"y": -0.8020013136,
				"z": 2.1004820636,
				"element": "C" 
			},
			{
				"x": 0.8165001292,
				"y": -1.3398179975,
				"z": 2.7824085187,
				"element": "C" 
			},
			{
				"x": 0.8747217505,
				"y": -1.9472402044,
				"z": 3.9546680928,
				"element": "N" 
			},
			{
				"x": 2.1866042704,
				"y": -2.2538636422,
				"z": 4.1589852757,
				"element": "N" 
			},
			{
				"x": 2.9209581107,
				"y": -1.8629492589,
				"z": 3.1690629759,
				"element": "N" 
			},
			{
				"x": 2.0712244723,
				"y": -1.2823120725,
				"z": 2.2902243526,
				"element": "N" 
			},
			{
				"x": 0.180796191,
				"y": 1.2025982339,
				"z": 0.6538561666,
				"element": "C" 
			},
			{
				"x": 0.4659387939,
				"y": 1.7922433267,
				"z": -0.5740355149,
				"element": "C" 
			},
			{
				"x": 0.4412890758,
				"y": 1.1204471023,
				"z": -3.7977508421,
				"element": "H" 
			},
			{
				"x": 0.6696007897,
				"y": 2.6018002123,
				"z": -3.0432589664,
				"element": "H" 
			},
			{
				"x": 0.1164003396,
				"y": -0.9480786518,
				"z": -2.5593159702,
				"element": "H" 
			},
			{
				"x": -0.3909013769,
				"y": -1.974172307,
				"z": -0.3813750963,
				"element": "H" 
			},
			{
				"x": -0.8829153288,
				"y": -0.0845576995,
				"z": 2.7810999204,
				"element": "H" 
			},
			{
				"x": -1.1222771401,
				"y": -1.6287131809,
				"z": 1.9942766169,
				"element": "H" 
			},
			{
				"x": 2.4001579101,
				"y": -0.8887616627,
				"z": 1.419911407,
				"element": "H" 
			},
			{
				"x": 0.1937027415,
				"y": 1.818340148,
				"z": 1.5502926481,
				"element": "H" 
			},
			{
				"x": 0.7022641227,
				"y": 2.852214681,
				"z": -0.6236701051,
				"element": "H" 
			}
		],
		 "valence_orbital": [ 
			{
				"type": "occ",
				"energy": -0.28591,
				"method": "rhf"
			},
			{
				"type": "occ",
				"energy": -0.28228,
				"method": "rhf"
			},
			{
				"type": "occ",
				"energy": -0.27314,
				"method": "rhf"
			},
			{
				"type": "occ",
				"energy": -0.2659,
				"method": "rhf"
			},
			{
				"type": "occ",
				"energy": -0.21867,
				"method": "rhf"
			},
			{
				"type": "unocc",
				"energy": -0.01856,
				"method": "rhf"
			},
			{
				"type": "unocc",
				"energy": -0.00443,
				"method": "rhf"
			},
			{
				"type": "unocc",
				"energy": -0.00162,
				"method": "rhf"
			},
			{
				"type": "unocc",
				"energy": 0.03077,
				"method": "rhf"
			},
			{
				"type": "unocc",
				"energy": 0.06668,
				"method": "rhf"
			}
		],
		"cosmo_sigma_profile": { 
			"-0.025": 0.0,
			"-0.024": 0.0,
			"-0.023": 0.0,
			"-0.022": 0.0,
			"-0.021": 0.0,
			"-0.02": 0.0,
			"-0.019": 0.0,
			"-0.018": 0.286553030734,
			"-0.017": 1.05507276334,
			"-0.016": 0.697179165613,
			"-0.015": 0.175367645282,
			"-0.014": 0.811450146322,
			"-0.013": 1.7712421858,
			"-0.012": 3.19718350134,
			"-0.011": 2.74701885927,
			"-0.01": 3.61939070219,
			"-0.009": 4.94506159455,
			"-0.008": 3.90009698777,
			"-0.007": 7.02006094909,
			"-0.006": 15.662753635,
			"-0.005": 15.8810413068,
			"-0.004": 16.2844323011,
			"-0.003": 15.1966630047,
			"-0.002": 10.6498983618,
			"-0.001": 8.86800395326,
			"0.0": 8.58943727487,
			"0.001": 7.11274578011,
			"0.002": 7.80627263999,
			"0.003": 9.03545251438,
			"0.004": 8.90485152516,
			"0.005": 9.77695037075,
			"0.006": 9.75116409196,
			"0.007": 5.58839882878,
			"0.008": 4.82587807909,
			"0.009": 6.21119973509,
			"0.01": 5.37369513619,
			"0.011": 5.49073066698,
			"0.012": 5.45997570889,
			"0.013": 3.19023391091,
			"0.014": 2.59985769726,
			"0.015": 1.30104160367,
			"0.016": 0.342898558896,
			"0.017": 0.0,
			"0.018": 0.0,
			"0.019": 0.0,
			"0.02": 0.0,
			"0.021": 0.0,
			"0.022": 0.0,
			"0.023": 0.0,
			"0.024": 0.0,
			"0.025": 0.0
		}
	}
}
