{
	 "smiles": "CC(C)CCOC(=O)C1=C(C)NC(=O)NC1C1=CC=CO1", 
	 "Tm": 449.15, 
	 "num_atms": 41, 
	 "gaussian": { 
		 "optdone": 1, 
		 "sigma_profile": "yes", 
		 "theory": "DFT", 
		 "functional": "B3LYP", 
		 "basiset": "6-31G**", 
		 "properties": { 
			 "R2extent": 7349.566, 
			 "electric_dipole_moment_norm": 2.27271669374, 
			 "electric_quadrupole_moment_norm": 18.4076605108, 
			 "total_energy": -994.070107068, 
			 "HOMO_LUMO_gap": 0.18445, 
			 "cosmo_polarized_energy": -16.97, 
			 "cosmo_cavitation_energy": 43.63, 
			 "cosmo_dispersion_energy": -28.8, 
			 "cosmo_repulsion_energy": 2.23, 
			 "cosmo_total_nonelectrostatic_energy": 17.06, 
			 "SMD_solvation_energy": 8.75 
		},
		"coords": [
			{
				"x": -0.355484784,
				"y": 2.5265050445,
				"z": -0.0832773967,
				"element": "C" 
			},
			{
				"x": -1.8132710598,
				"y": 2.8184453715,
				"z": 0.3005150944,
				"element": "C" 
			},
			{
				"x": -2.2303306046,
				"y": 4.2163809069,
				"z": -0.1817825384,
				"element": "C" 
			},
			{
				"x": -2.8085163439,
				"y": 1.7628891745,
				"z": -0.2232619531,
				"element": "C" 
			},
			{
				"x": -2.6695078964,
				"y": 0.3518300314,
				"z": 0.3368391431,
				"element": "C" 
			},
			{
				"x": -1.5905988904,
				"y": -0.3317848148,
				"z": -0.3413162318,
				"element": "O" 
			},
			{
				"x": -1.4163068849,
				"y": -1.6369346895,
				"z": 0.0000007177,
				"element": "C" 
			},
			{
				"x": -2.1092694927,
				"y": -2.1734008844,
				"z": 0.8516435971,
				"element": "O" 
			},
			{
				"x": -0.3326125323,
				"y": -2.2523369154,
				"z": -0.7861801709,
				"element": "C" 
			},
			{
				"x": 0.0076753935,
				"y": -3.5691547818,
				"z": -0.6776684106,
				"element": "C" 
			},
			{
				"x": -0.5911306742,
				"y": -4.5932774646,
				"z": 0.2455408567,
				"element": "C" 
			},
			{
				"x": 1.0020570074,
				"y": -4.0748552597,
				"z": -1.4977052907,
				"element": "N" 
			},
			{
				"x": 1.473873184,
				"y": -3.4622480061,
				"z": -2.667423095,
				"element": "C" 
			},
			{
				"x": 2.2095690194,
				"y": -4.053235016,
				"z": -3.4417030225,
				"element": "O" 
			},
			{
				"x": 0.9747828824,
				"y": -2.2022464957,
				"z": -2.8544004609,
				"element": "N" 
			},
			{
				"x": 0.4638236465,
				"y": -1.3786266281,
				"z": -1.7427587123,
				"element": "C" 
			},
			{
				"x": 1.5708155863,
				"y": -0.6358190416,
				"z": -1.0412046358,
				"element": "C" 
			},
			{
				"x": 2.2014527432,
				"y": -0.7597374448,
				"z": 0.1620539719,
				"element": "C" 
			},
			{
				"x": 3.2258068542,
				"y": 0.2446690407,
				"z": 0.1915555256,
				"element": "C" 
			},
			{
				"x": 3.1451085825,
				"y": 0.9029125973,
				"z": -0.995905349,
				"element": "C" 
			},
			{
				"x": 2.1411073728,
				"y": 0.3823545847,
				"z": -1.7607074409,
				"element": "O" 
			},
			{
				"x": -0.0096787198,
				"y": 1.5675132554,
				"z": 0.3082774606,
				"element": "H" 
			},
			{
				"x": -0.2355810399,
				"y": 2.498914686,
				"z": -1.1730220149,
				"element": "H" 
			},
			{
				"x": 0.3072204996,
				"y": 3.3089087087,
				"z": 0.3029096612,
				"element": "H" 
			},
			{
				"x": -1.8816131594,
				"y": 2.8099176606,
				"z": 1.3993667188,
				"element": "H" 
			},
			{
				"x": -1.5630569638,
				"y": 4.9870150735,
				"z": 0.2184413295,
				"element": "H" 
			},
			{
				"x": -2.1899190121,
				"y": 4.280468667,
				"z": -1.2761487865,
				"element": "H" 
			},
			{
				"x": -3.2519574027,
				"y": 4.4631008263,
				"z": 0.1283241911,
				"element": "H" 
			},
			{
				"x": -3.8244570274,
				"y": 2.0977096824,
				"z": 0.0253733777,
				"element": "H" 
			},
			{
				"x": -2.7637952792,
				"y": 1.7130428999,
				"z": -1.3196573593,
				"element": "H" 
			},
			{
				"x": -2.4663758306,
				"y": 0.3564943119,
				"z": 1.4135740756,
				"element": "H" 
			},
			{
				"x": -3.58618694,
				"y": -0.2257665619,
				"z": 0.1834721709,
				"element": "H" 
			},
			{
				"x": -1.1251204168,
				"y": -5.3517657222,
				"z": -0.3398252693,
				"element": "H" 
			},
			{
				"x": 0.2091398665,
				"y": -5.1056569032,
				"z": 0.7931370336,
				"element": "H" 
			},
			{
				"x": -1.2823289442,
				"y": -4.134287343,
				"z": 0.9461920248,
				"element": "H" 
			},
			{
				"x": 1.258815859,
				"y": -5.0490053898,
				"z": -1.4226821626,
				"element": "H" 
			},
			{
				"x": 1.41291489,
				"y": -1.7109089173,
				"z": -3.6219878385,
				"element": "H" 
			},
			{
				"x": -0.202445601,
				"y": -0.6361450567,
				"z": -2.1885607993,
				"element": "H" 
			},
			{
				"x": 1.9631619435,
				"y": -1.4756570082,
				"z": 0.9345487407,
				"element": "H" 
			},
			{
				"x": 3.9230994886,
				"y": 0.4452876675,
				"z": 0.9921974065,
				"element": "H" 
			},
			{
				"x": 3.6924206805,
				"y": 1.7237901544,
				"z": -1.4326841582,
				"element": "H" 
			}
		],
		 "valence_orbital": [ 
			{
				"type": "occ",
				"energy": -0.27546,
				"method": "rhf"
			},
			{
				"type": "occ",
				"energy": -0.26738,
				"method": "rhf"
			},
			{
				"type": "occ",
				"energy": -0.25858,
				"method": "rhf"
			},
			{
				"type": "occ",
				"energy": -0.23325,
				"method": "rhf"
			},
			{
				"type": "occ",
				"energy": -0.22437,
				"method": "rhf"
			},
			{
				"type": "unocc",
				"energy": -0.03992,
				"method": "rhf"
			},
			{
				"type": "unocc",
				"energy": 0.00737,
				"method": "rhf"
			},
			{
				"type": "unocc",
				"energy": 0.05017,
				"method": "rhf"
			},
			{
				"type": "unocc",
				"energy": 0.0692,
				"method": "rhf"
			},
			{
				"type": "unocc",
				"energy": 0.07682,
				"method": "rhf"
			}
		],
		"cosmo_sigma_profile": { 
			"-0.025": 0.0,
			"-0.024": 0.0,
			"-0.023": 0.0,
			"-0.022": 0.0,
			"-0.021": 0.0,
			"-0.02": 0.0,
			"-0.019": 0.0,
			"-0.018": 0.0,
			"-0.017": 0.0,
			"-0.016": 0.0652203457352,
			"-0.015": 0.917498567373,
			"-0.014": 1.85050261389,
			"-0.013": 1.67897858355,
			"-0.012": 1.57776552533,
			"-0.011": 1.98554891007,
			"-0.01": 2.25369337959,
			"-0.009": 2.52565034902,
			"-0.008": 4.42701668028,
			"-0.007": 7.50014855264,
			"-0.006": 11.4226443456,
			"-0.005": 12.2250392519,
			"-0.004": 17.9841891983,
			"-0.003": 27.1916780041,
			"-0.002": 36.9256323198,
			"-0.001": 40.0668805698,
			"0.0": 33.8160102476,
			"0.001": 30.198805405,
			"0.002": 24.6365073298,
			"0.003": 20.0564767887,
			"0.004": 16.6034323633,
			"0.005": 9.61945775989,
			"0.006": 4.194350281,
			"0.007": 4.53099730373,
			"0.008": 3.72774605367,
			"0.009": 3.04044868944,
			"0.01": 2.2448124472,
			"0.011": 3.3961951958,
			"0.012": 5.53924777051,
			"0.013": 7.53838160973,
			"0.014": 3.02521275786,
			"0.015": 0.0235985387216,
			"0.016": 0.0,
			"0.017": 0.0,
			"0.018": 0.0,
			"0.019": 0.0,
			"0.02": 0.0,
			"0.021": 0.0,
			"0.022": 0.0,
			"0.023": 0.0,
			"0.024": 0.0,
			"0.025": 0.0
		}
	}
}
