{
	 "smiles": "CCCCCCCCCCCC(=O)N(CC)CC", 
	 "Tm": 277.15, 
	 "num_atms": 51, 
	 "gaussian": { 
		 "optdone": 1, 
		 "sigma_profile": "yes", 
		 "theory": "DFT", 
		 "functional": "B3LYP", 
		 "basiset": "6-31G**", 
		 "properties": { 
			 "R2extent": 8765.3039, 
			 "electric_dipole_moment_norm": 3.52957817593, 
			 "electric_quadrupole_moment_norm": 14.7164250751, 
			 "total_energy": -759.625341901, 
			 "HOMO_LUMO_gap": 0.26404, 
			 "cosmo_polarized_energy": -9.24, 
			 "cosmo_cavitation_energy": 49.91, 
			 "cosmo_dispersion_energy": -32.06, 
			 "cosmo_repulsion_energy": 2.58, 
			 "cosmo_total_nonelectrostatic_energy": 20.43, 
			 "SMD_solvation_energy": 7.4 
		},
		"coords": [
			{
				"x": -4.0421886747,
				"y": 1.6623837577,
				"z": 3.0288295172,
				"element": "C" 
			},
			{
				"x": -3.766951302,
				"y": 0.2419062281,
				"z": 2.5249674758,
				"element": "C" 
			},
			{
				"x": -2.5331263573,
				"y": 0.148663542,
				"z": 1.6181646297,
				"element": "C" 
			},
			{
				"x": -2.2516405904,
				"y": -1.2696389795,
				"z": 1.1064725839,
				"element": "C" 
			},
			{
				"x": -1.0100574701,
				"y": -1.3611375679,
				"z": 0.2089820104,
				"element": "C" 
			},
			{
				"x": -0.7393889077,
				"y": -2.7859568536,
				"z": -0.2946844979,
				"element": "C" 
			},
			{
				"x": 0.4215200679,
				"y": -2.9485944726,
				"z": -1.2935156552,
				"element": "C" 
			},
			{
				"x": 1.8255402907,
				"y": -2.5990018912,
				"z": -0.7532021945,
				"element": "C" 
			},
			{
				"x": 2.2531689486,
				"y": -1.1378294513,
				"z": -0.9566396871,
				"element": "C" 
			},
			{
				"x": 3.6103974458,
				"y": -0.8189934097,
				"z": -0.3172727358,
				"element": "C" 
			},
			{
				"x": 4.0256767568,
				"y": 0.6502776743,
				"z": -0.4595411222,
				"element": "C" 
			},
			{
				"x": 3.189010162,
				"y": 1.5828628612,
				"z": 0.4266256246,
				"element": "C" 
			},
			{
				"x": 2.427276083,
				"y": 1.1327938312,
				"z": 1.2829723532,
				"element": "O" 
			},
			{
				"x": 3.326069774,
				"y": 2.9391084761,
				"z": 0.2526747672,
				"element": "N" 
			},
			{
				"x": 4.2317869059,
				"y": 3.5650927105,
				"z": -0.7103933316,
				"element": "C" 
			},
			{
				"x": 3.5477063874,
				"y": 4.0655739911,
				"z": -1.9886798957,
				"element": "C" 
			},
			{
				"x": 2.5213767854,
				"y": 3.8091812898,
				"z": 1.1238761536,
				"element": "C" 
			},
			{
				"x": 1.0486763731,
				"y": 3.9159081297,
				"z": 0.7157718795,
				"element": "C" 
			},
			{
				"x": -4.2123819644,
				"y": 2.3525956607,
				"z": 2.1943585306,
				"element": "H" 
			},
			{
				"x": -4.9269794947,
				"y": 1.6962043631,
				"z": 3.6733747543,
				"element": "H" 
			},
			{
				"x": -3.1945814233,
				"y": 2.0483241006,
				"z": 3.6067413076,
				"element": "H" 
			},
			{
				"x": -4.6458506814,
				"y": -0.1300211648,
				"z": 1.9803961092,
				"element": "H" 
			},
			{
				"x": -3.6361334294,
				"y": -0.4315000383,
				"z": 3.3831275764,
				"element": "H" 
			},
			{
				"x": -1.6531837913,
				"y": 0.518767348,
				"z": 2.1631258532,
				"element": "H" 
			},
			{
				"x": -2.6633017974,
				"y": 0.8246994144,
				"z": 0.7604916369,
				"element": "H" 
			},
			{
				"x": -3.1289188703,
				"y": -1.6385306631,
				"z": 0.5551350686,
				"element": "H" 
			},
			{
				"x": -2.1283792829,
				"y": -1.9460783832,
				"z": 1.9646588521,
				"element": "H" 
			},
			{
				"x": -0.1431415416,
				"y": -0.9849927948,
				"z": 0.7660541839,
				"element": "H" 
			},
			{
				"x": -1.1363523275,
				"y": -0.6884963774,
				"z": -0.6520235058,
				"element": "H" 
			},
			{
				"x": -1.6546584904,
				"y": -3.1688504747,
				"z": -0.768145502,
				"element": "H" 
			},
			{
				"x": -0.5541269668,
				"y": -3.4401280287,
				"z": 0.5697098644,
				"element": "H" 
			},
			{
				"x": 0.2175819755,
				"y": -2.3501322009,
				"z": -2.1931422015,
				"element": "H" 
			},
			{
				"x": 0.4218007064,
				"y": -3.9941766196,
				"z": -1.6268512539,
				"element": "H" 
			},
			{
				"x": 1.8720544511,
				"y": -2.8450619661,
				"z": 0.3172087302,
				"element": "H" 
			},
			{
				"x": 2.5693611529,
				"y": -3.2453218034,
				"z": -1.2388807032,
				"element": "H" 
			},
			{
				"x": 1.503379831,
				"y": -0.4633931783,
				"z": -0.5352942211,
				"element": "H" 
			},
			{
				"x": 2.2972821185,
				"y": -0.9259697105,
				"z": -2.0355942121,
				"element": "H" 
			},
			{
				"x": 4.3882020153,
				"y": -1.4479278777,
				"z": -0.770022019,
				"element": "H" 
			},
			{
				"x": 3.5735545918,
				"y": -1.0673358483,
				"z": 0.7484582165,
				"element": "H" 
			},
			{
				"x": 3.955734544,
				"y": 0.962274332,
				"z": -1.5091109413,
				"element": "H" 
			},
			{
				"x": 5.0813634606,
				"y": 0.7675114004,
				"z": -0.178152511,
				"element": "H" 
			},
			{
				"x": 5.0216375226,
				"y": 2.8576800803,
				"z": -0.9683024381,
				"element": "H" 
			},
			{
				"x": 4.7286556773,
				"y": 4.4043453317,
				"z": -0.2076717566,
				"element": "H" 
			},
			{
				"x": 2.797408625,
				"y": 4.8300680249,
				"z": -1.7667413195,
				"element": "H" 
			},
			{
				"x": 4.2866631017,
				"y": 4.5069532158,
				"z": -2.6662757869,
				"element": "H" 
			},
			{
				"x": 3.0480269577,
				"y": 3.2450453466,
				"z": -2.5130876733,
				"element": "H" 
			},
			{
				"x": 2.5823143516,
				"y": 3.4107950305,
				"z": 2.1406201662,
				"element": "H" 
			},
			{
				"x": 2.9926565633,
				"y": 4.7976555104,
				"z": 1.1195335554,
				"element": "H" 
			},
			{
				"x": 0.5148938664,
				"y": 4.5749778637,
				"z": 1.4092326166,
				"element": "H" 
			},
			{
				"x": 0.9354031381,
				"y": 4.3224873503,
				"z": -0.2939112101,
				"element": "H" 
			},
			{
				"x": 0.5804627325,
				"y": 2.9301328908,
				"z": 0.7523723583,
				"element": "H" 
			}
		],
		 "valence_orbital": [ 
			{
				"type": "occ",
				"energy": -0.30632,
				"method": "rhf"
			},
			{
				"type": "occ",
				"energy": -0.29207,
				"method": "rhf"
			},
			{
				"type": "occ",
				"energy": -0.28565,
				"method": "rhf"
			},
			{
				"type": "occ",
				"energy": -0.23966,
				"method": "rhf"
			},
			{
				"type": "occ",
				"energy": -0.2328,
				"method": "rhf"
			},
			{
				"type": "unocc",
				"energy": 0.03124,
				"method": "rhf"
			},
			{
				"type": "unocc",
				"energy": 0.07722,
				"method": "rhf"
			},
			{
				"type": "unocc",
				"energy": 0.09522,
				"method": "rhf"
			},
			{
				"type": "unocc",
				"energy": 0.1012,
				"method": "rhf"
			},
			{
				"type": "unocc",
				"energy": 0.10386,
				"method": "rhf"
			}
		],
		"cosmo_sigma_profile": { 
			"-0.025": 0.0,
			"-0.024": 0.0,
			"-0.023": 0.0,
			"-0.022": 0.0,
			"-0.021": 0.0,
			"-0.02": 0.0,
			"-0.019": 0.0,
			"-0.018": 0.0,
			"-0.017": 0.0,
			"-0.016": 0.0,
			"-0.015": 0.0,
			"-0.014": 0.0,
			"-0.013": 0.0,
			"-0.012": 0.0,
			"-0.011": 0.0,
			"-0.01": 0.0,
			"-0.009": 0.0,
			"-0.008": 0.0,
			"-0.007": 0.0,
			"-0.006": 1.26122864341,
			"-0.005": 9.18212749529,
			"-0.004": 17.4700402603,
			"-0.003": 25.1893869819,
			"-0.002": 45.5115032233,
			"-0.001": 76.1185184018,
			"0.0": 80.5392508832,
			"0.001": 63.8529154332,
			"0.002": 34.455506889,
			"0.003": 5.62612744416,
			"0.004": 2.55656944035,
			"0.005": 2.27301466569,
			"0.006": 2.04027384089,
			"0.007": 1.92034897421,
			"0.008": 1.92548306117,
			"0.009": 2.05130366814,
			"0.01": 2.00060134489,
			"0.011": 1.44270960494,
			"0.012": 1.25306208505,
			"0.013": 1.89325941615,
			"0.014": 2.53953668711,
			"0.015": 1.65287995199,
			"0.016": 0.0,
			"0.017": 0.0,
			"0.018": 0.0,
			"0.019": 0.0,
			"0.02": 0.0,
			"0.021": 0.0,
			"0.022": 0.0,
			"0.023": 0.0,
			"0.024": 0.0,
			"0.025": 0.0
		}
	}
}
