{
	 "smiles": "NC(=NO)C1=CC=C(O)C=C1", 
	 "Tm": 427.15, 
	 "num_atms": 19, 
	 "gaussian": { 
		 "optdone": 1, 
		 "sigma_profile": "yes", 
		 "theory": "DFT", 
		 "functional": "B3LYP", 
		 "basiset": "6-31G**", 
		 "properties": { 
			 "R2extent": 2137.0783, 
			 "electric_dipole_moment_norm": 1.85252626702, 
			 "electric_quadrupole_moment_norm": 9.75524139835, 
			 "total_energy": -531.456406005, 
			 "HOMO_LUMO_gap": 0.18393, 
			 "cosmo_polarized_energy": -15.59, 
			 "cosmo_cavitation_energy": 23.38, 
			 "cosmo_dispersion_energy": -17.56, 
			 "cosmo_repulsion_energy": 1.44, 
			 "cosmo_total_nonelectrostatic_energy": 7.25, 
			 "SMD_solvation_energy": 4.51 
		},
		"coords": [
			{
				"x": 0.1865736353,
				"y": -0.4984697478,
				"z": -2.4294589058,
				"element": "N" 
			},
			{
				"x": 0.6058337961,
				"y": -0.257733719,
				"z": -1.1116949129,
				"element": "C" 
			},
			{
				"x": 1.8337846635,
				"y": -0.5716419666,
				"z": -0.8604298339,
				"element": "N" 
			},
			{
				"x": 2.1587048379,
				"y": -0.4995682698,
				"z": 0.5175535145,
				"element": "O" 
			},
			{
				"x": -0.4347617684,
				"y": 0.271197325,
				"z": -0.1980894645,
				"element": "C" 
			},
			{
				"x": -0.1259537056,
				"y": 1.1029254966,
				"z": 0.891338046,
				"element": "C" 
			},
			{
				"x": -1.1333173896,
				"y": 1.6238330084,
				"z": 1.6971617199,
				"element": "C" 
			},
			{
				"x": -2.4744202056,
				"y": 1.3168226641,
				"z": 1.4375603606,
				"element": "C" 
			},
			{
				"x": -3.5007450308,
				"y": 1.7947959892,
				"z": 2.1982726327,
				"element": "O" 
			},
			{
				"x": -2.7997865838,
				"y": 0.4863424177,
				"z": 0.3594646045,
				"element": "C" 
			},
			{
				"x": -1.7887505987,
				"y": -0.0231229122,
				"z": -0.4462344362,
				"element": "C" 
			},
			{
				"x": 0.9589730729,
				"y": -0.8059434771,
				"z": -3.0103281689,
				"element": "H" 
			},
			{
				"x": -0.309383114,
				"y": 0.281663985,
				"z": -2.8461451314,
				"element": "H" 
			},
			{
				"x": 3.0729186848,
				"y": -0.8092558833,
				"z": 0.5093690853,
				"element": "H" 
			},
			{
				"x": 0.9082193961,
				"y": 1.3369745079,
				"z": 1.106087374,
				"element": "H" 
			},
			{
				"x": -0.8769254364,
				"y": 2.2712302199,
				"z": 2.5335340923,
				"element": "H" 
			},
			{
				"x": -3.1407229522,
				"y": 2.3413910494,
				"z": 2.9089292788,
				"element": "H" 
			},
			{
				"x": -3.8422092009,
				"y": 0.2497756533,
				"z": 0.1736890986,
				"element": "H" 
			},
			{
				"x": -2.0412321006,
				"y": -0.6758163406,
				"z": -1.2751789536,
				"element": "H" 
			}
		],
		 "valence_orbital": [ 
			{
				"type": "occ",
				"energy": -0.30951,
				"method": "rhf"
			},
			{
				"type": "occ",
				"energy": -0.2613,
				"method": "rhf"
			},
			{
				"type": "occ",
				"energy": -0.25251,
				"method": "rhf"
			},
			{
				"type": "occ",
				"energy": -0.2319,
				"method": "rhf"
			},
			{
				"type": "occ",
				"energy": -0.20106,
				"method": "rhf"
			},
			{
				"type": "unocc",
				"energy": -0.01713,
				"method": "rhf"
			},
			{
				"type": "unocc",
				"energy": -0.00247,
				"method": "rhf"
			},
			{
				"type": "unocc",
				"energy": 0.06603,
				"method": "rhf"
			},
			{
				"type": "unocc",
				"energy": 0.06871,
				"method": "rhf"
			},
			{
				"type": "unocc",
				"energy": 0.08275,
				"method": "rhf"
			}
		],
		"cosmo_sigma_profile": { 
			"-0.025": 0.0,
			"-0.024": 0.0,
			"-0.023": 0.0,
			"-0.022": 0.0,
			"-0.021": 0.0,
			"-0.02": 0.0,
			"-0.019": 0.0,
			"-0.018": 0.500164568058,
			"-0.017": 1.67198203426,
			"-0.016": 1.94518092087,
			"-0.015": 1.69630703105,
			"-0.014": 1.53745561163,
			"-0.013": 2.34656271195,
			"-0.012": 3.06528129387,
			"-0.011": 4.13515161256,
			"-0.01": 3.99433482119,
			"-0.009": 3.97484759933,
			"-0.008": 3.70032142112,
			"-0.007": 4.42297521138,
			"-0.006": 6.81957476609,
			"-0.005": 8.48635735929,
			"-0.004": 8.39027774881,
			"-0.003": 7.78869336953,
			"-0.002": 6.8429206828,
			"-0.001": 7.86455139607,
			"0.0": 8.2912287404,
			"0.001": 8.73400631148,
			"0.002": 10.5996937031,
			"0.003": 13.4806581209,
			"0.004": 14.6291797888,
			"0.005": 11.9308393116,
			"0.006": 7.06660199018,
			"0.007": 7.37004389892,
			"0.008": 4.91973869232,
			"0.009": 4.60308183161,
			"0.01": 5.83458033701,
			"0.011": 4.572692975,
			"0.012": 1.84655207234,
			"0.013": 1.42619973094,
			"0.014": 0.73682949901,
			"0.015": 0.0168423595469,
			"0.016": 0.0,
			"0.017": 0.0,
			"0.018": 0.0,
			"0.019": 0.0,
			"0.02": 0.0,
			"0.021": 0.0,
			"0.022": 0.0,
			"0.023": 0.0,
			"0.024": 0.0,
			"0.025": 0.0
		}
	}
}
