{
	 "smiles": "CC1=CC=C(C=C1)N1C(C=CC2=CC=C(C=C2)[N+]([O-])=O)=NC2=CC(=CC=C12)[N+]([O-])=O", 
	 "Tm": 540.15, 
	 "num_atms": 46, 
	 "gaussian": { 
		 "optdone": 1, 
		 "sigma_profile": "yes", 
		 "theory": "DFT", 
		 "functional": "B3LYP", 
		 "basiset": "6-31G**", 
		 "properties": { 
			 "R2extent": 19671.3008, 
			 "electric_dipole_moment_norm": 7.62819210167, 
			 "electric_quadrupole_moment_norm": 76.1402351274, 
			 "total_energy": -1367.70523061, 
			 "HOMO_LUMO_gap": 0.12331, 
			 "cosmo_polarized_energy": -20.87, 
			 "cosmo_cavitation_energy": 53.62, 
			 "cosmo_dispersion_energy": -37.09, 
			 "cosmo_repulsion_energy": 2.75, 
			 "cosmo_total_nonelectrostatic_energy": 19.28, 
			 "SMD_solvation_energy": 11.7 
		},
		"coords": [
			{
				"x": -2.0732939682,
				"y": -5.6192205209,
				"z": -1.2586268869,
				"element": "C" 
			},
			{
				"x": -1.2440769795,
				"y": -4.3577387771,
				"z": -1.230163689,
				"element": "C" 
			},
			{
				"x": -0.0581860996,
				"y": -4.2914260625,
				"z": -0.4850270474,
				"element": "C" 
			},
			{
				"x": 0.7242348007,
				"y": -3.1382514419,
				"z": -0.4712882602,
				"element": "C" 
			},
			{
				"x": 0.3308662361,
				"y": -2.0250822833,
				"z": -1.2203051036,
				"element": "C" 
			},
			{
				"x": -0.8445764679,
				"y": -2.0727214318,
				"z": -1.9758280707,
				"element": "C" 
			},
			{
				"x": -1.6245646014,
				"y": -3.2279926064,
				"z": -1.9678499395,
				"element": "C" 
			},
			{
				"x": 1.1389671389,
				"y": -0.8448462097,
				"z": -1.2197390205,
				"element": "N" 
			},
			{
				"x": 0.814351577,
				"y": 0.4208927436,
				"z": -0.7099290845,
				"element": "C" 
			},
			{
				"x": -0.4486209739,
				"y": 0.6816408998,
				"z": -0.0472471046,
				"element": "C" 
			},
			{
				"x": -0.7769169168,
				"y": 1.9094017812,
				"z": 0.4092043029,
				"element": "C" 
			},
			{
				"x": -2.0081712065,
				"y": 2.286754586,
				"z": 1.0980600745,
				"element": "C" 
			},
			{
				"x": -3.0364266689,
				"y": 1.3711426315,
				"z": 1.4106500632,
				"element": "C" 
			},
			{
				"x": -4.1882260222,
				"y": 1.7830757744,
				"z": 2.0638544015,
				"element": "C" 
			},
			{
				"x": -4.3223733808,
				"y": 3.1281913937,
				"z": 2.4144761037,
				"element": "C" 
			},
			{
				"x": -3.3305873103,
				"y": 4.0633708705,
				"z": 2.1266760468,
				"element": "C" 
			},
			{
				"x": -2.1822587396,
				"y": 3.6352742191,
				"z": 1.471749564,
				"element": "C" 
			},
			{
				"x": -5.5411452894,
				"y": 3.5668475505,
				"z": 3.1055380045,
				"element": "N" 
			},
			{
				"x": -5.6320766868,
				"y": 4.7580318782,
				"z": 3.4028191517,
				"element": "O" 
			},
			{
				"x": -6.398811607,
				"y": 2.7161255786,
				"z": 3.3454193222,
				"element": "O" 
			},
			{
				"x": 1.7839838706,
				"y": 1.2984071065,
				"z": -0.8824754818,
				"element": "N" 
			},
			{
				"x": 2.7922279638,
				"y": 0.6140883191,
				"z": -1.5217513028,
				"element": "C" 
			},
			{
				"x": 4.045060616,
				"y": 1.0671606192,
				"z": -1.9455415675,
				"element": "C" 
			},
			{
				"x": 4.8629564787,
				"y": 0.1387414234,
				"z": -2.5783542877,
				"element": "C" 
			},
			{
				"x": 4.4880681588,
				"y": -1.2005055988,
				"z": -2.8057309671,
				"element": "C" 
			},
			{
				"x": 3.2463980977,
				"y": -1.6578207984,
				"z": -2.3882221675,
				"element": "C" 
			},
			{
				"x": 2.4137678033,
				"y": -0.7369982288,
				"z": -1.7431824405,
				"element": "C" 
			},
			{
				"x": 6.1884387858,
				"y": 0.5745125821,
				"z": -3.0379959145,
				"element": "N" 
			},
			{
				"x": 6.5086668867,
				"y": 1.7465249926,
				"z": -2.8383835808,
				"element": "O" 
			},
			{
				"x": 6.9045166725,
				"y": -0.2579670184,
				"z": -3.5972726042,
				"element": "O" 
			},
			{
				"x": -3.132402626,
				"y": -5.3989935775,
				"z": -1.4199190839,
				"element": "H" 
			},
			{
				"x": -1.9804069555,
				"y": -6.1805505268,
				"z": -0.3245036635,
				"element": "H" 
			},
			{
				"x": -1.7507926846,
				"y": -6.2822816576,
				"z": -2.0708638538,
				"element": "H" 
			},
			{
				"x": 0.2534023079,
				"y": -5.1511354598,
				"z": 0.1020908266,
				"element": "H" 
			},
			{
				"x": 1.6309311912,
				"y": -3.0913622021,
				"z": 0.1236870977,
				"element": "H" 
			},
			{
				"x": -1.1382633867,
				"y": -1.2107884869,
				"z": -2.5668168728,
				"element": "H" 
			},
			{
				"x": -2.5396807016,
				"y": -3.2543671718,
				"z": -2.5533177826,
				"element": "H" 
			},
			{
				"x": -1.1189596925,
				"y": -0.16362734,
				"z": 0.0678252437,
				"element": "H" 
			},
			{
				"x": -0.0529893466,
				"y": 2.7053167664,
				"z": 0.249140307,
				"element": "H" 
			},
			{
				"x": -2.9338490994,
				"y": 0.3248758107,
				"z": 1.1429255896,
				"element": "H" 
			},
			{
				"x": -4.9832038867,
				"y": 1.0901879819,
				"z": 2.3093279989,
				"element": "H" 
			},
			{
				"x": -3.4721073392,
				"y": 5.0970236193,
				"z": 2.4162310704,
				"element": "H" 
			},
			{
				"x": -1.4005180335,
				"y": 4.3527464597,
				"z": 1.240642232,
				"element": "H" 
			},
			{
				"x": 4.3716269244,
				"y": 2.0877243327,
				"z": -1.7954359221,
				"element": "H" 
			},
			{
				"x": 5.187563843,
				"y": -1.8538058496,
				"z": -3.3106225212,
				"element": "H" 
			},
			{
				"x": 2.940057318,
				"y": -2.6840766705,
				"z": -2.5576231798,
				"element": "H" 
			}
		],
		 "valence_orbital": [ 
			{
				"type": "occ",
				"energy": -0.28271,
				"method": "rhf"
			},
			{
				"type": "occ",
				"energy": -0.28051,
				"method": "rhf"
			},
			{
				"type": "occ",
				"energy": -0.27484,
				"method": "rhf"
			},
			{
				"type": "occ",
				"energy": -0.25043,
				"method": "rhf"
			},
			{
				"type": "occ",
				"energy": -0.2306,
				"method": "rhf"
			},
			{
				"type": "unocc",
				"energy": -0.10729,
				"method": "rhf"
			},
			{
				"type": "unocc",
				"energy": -0.07958,
				"method": "rhf"
			},
			{
				"type": "unocc",
				"energy": -0.06149,
				"method": "rhf"
			},
			{
				"type": "unocc",
				"energy": -0.03826,
				"method": "rhf"
			},
			{
				"type": "unocc",
				"energy": -0.03682,
				"method": "rhf"
			}
		],
		"cosmo_sigma_profile": { 
			"-0.025": 0.0,
			"-0.024": 0.0,
			"-0.023": 0.0,
			"-0.022": 0.0,
			"-0.021": 0.0,
			"-0.02": 0.0,
			"-0.019": 0.0,
			"-0.018": 0.0,
			"-0.017": 0.0,
			"-0.016": 0.0,
			"-0.015": 0.0,
			"-0.014": 0.0,
			"-0.013": 0.0,
			"-0.012": 0.0,
			"-0.011": 0.0,
			"-0.01": 0.285432735051,
			"-0.009": 1.91371722055,
			"-0.008": 6.5496046724,
			"-0.007": 15.3676849656,
			"-0.006": 23.2433158085,
			"-0.005": 28.8291805867,
			"-0.004": 31.3404235448,
			"-0.003": 32.6600112926,
			"-0.002": 33.3688755175,
			"-0.001": 37.3270305102,
			"0.0": 41.460386657,
			"0.001": 45.17834341,
			"0.002": 29.2252416132,
			"0.003": 16.9686211445,
			"0.004": 15.3351947994,
			"0.005": 8.00169848197,
			"0.006": 8.08191954299,
			"0.007": 15.1174364715,
			"0.008": 18.6493314629,
			"0.009": 10.6659644292,
			"0.01": 7.29380890395,
			"0.011": 1.90126421673,
			"0.012": 1.45846526717,
			"0.013": 0.664510468642,
			"0.014": 0.719568431952,
			"0.015": 0.113577703952,
			"0.016": 0.0,
			"0.017": 0.0,
			"0.018": 0.0,
			"0.019": 0.0,
			"0.02": 0.0,
			"0.021": 0.0,
			"0.022": 0.0,
			"0.023": 0.0,
			"0.024": 0.0,
			"0.025": 0.0
		}
	}
}
