{
	 "smiles": "CC(C)N(C(C)C)S(=O)(=O)C1=CN=C(Cl)C=C1", 
	 "Tm": 503.15, 
	 "num_atms": 34, 
	 "gaussian": { 
		 "optdone": 1, 
		 "sigma_profile": "yes", 
		 "theory": "DFT", 
		 "functional": "B3LYP", 
		 "basiset": "6-31G**", 
		 "properties": { 
			 "R2extent": 6500.9462, 
			 "electric_dipole_moment_norm": 5.24619214383, 
			 "electric_quadrupole_moment_norm": 10.0137797959, 
			 "total_energy": -1547.67068854, 
			 "HOMO_LUMO_gap": 0.18901, 
			 "cosmo_polarized_energy": -13.85, 
			 "cosmo_cavitation_energy": 38.85, 
			 "cosmo_dispersion_energy": -26.28, 
			 "cosmo_repulsion_energy": 1.98, 
			 "cosmo_total_nonelectrostatic_energy": 14.55, 
			 "SMD_solvation_energy": 4.21 
		},
		"coords": [
			{
				"x": -2.361478556,
				"y": -0.9013898688,
				"z": 0.7863467395,
				"element": "C" 
			},
			{
				"x": -1.105051007,
				"y": -0.4000174434,
				"z": 1.5081539886,
				"element": "C" 
			},
			{
				"x": -1.4209675418,
				"y": 0.5423466878,
				"z": 2.6783983715,
				"element": "C" 
			},
			{
				"x": -0.0490561748,
				"y": 0.1337409689,
				"z": 0.5803840793,
				"element": "N" 
			},
			{
				"x": 1.3114187447,
				"y": -0.46887913,
				"z": 0.7912697345,
				"element": "C" 
			},
			{
				"x": 2.5206621854,
				"y": 0.3838371061,
				"z": 0.3896226098,
				"element": "C" 
			},
			{
				"x": 1.364818862,
				"y": -1.8363588342,
				"z": 0.0925300872,
				"element": "C" 
			},
			{
				"x": -0.2935453316,
				"y": 1.6112583086,
				"z": -0.1671252403,
				"element": "S" 
			},
			{
				"x": -1.7348256182,
				"y": 1.876461613,
				"z": -0.1035085857,
				"element": "O" 
			},
			{
				"x": 0.6483109626,
				"y": 2.6415801603,
				"z": 0.2856575514,
				"element": "O" 
			},
			{
				"x": 0.1014821972,
				"y": 1.2924640733,
				"z": -1.8945488361,
				"element": "C" 
			},
			{
				"x": 1.0406078932,
				"y": 2.085054535,
				"z": -2.5523620003,
				"element": "C" 
			},
			{
				"x": 1.3239343486,
				"y": 1.9374704518,
				"z": -3.8552040514,
				"element": "N" 
			},
			{
				"x": 0.6652147891,
				"y": 1.0058757142,
				"z": -4.5196988521,
				"element": "C" 
			},
			{
				"x": 1.0565340798,
				"y": 0.8248886005,
				"z": -6.2227114015,
				"element": "Cl" 
			},
			{
				"x": -0.3103226927,
				"y": 0.1647804629,
				"z": -3.9675864409,
				"element": "C" 
			},
			{
				"x": -0.5974884222,
				"y": 0.3214964294,
				"z": -2.6184165844,
				"element": "C" 
			},
			{
				"x": -2.0944141735,
				"y": -1.6037565768,
				"z": -0.0102158077,
				"element": "H" 
			},
			{
				"x": -3.0001435723,
				"y": -1.433233233,
				"z": 1.4997935635,
				"element": "H" 
			},
			{
				"x": -2.9338837802,
				"y": -0.0783695357,
				"z": 0.3580339176,
				"element": "H" 
			},
			{
				"x": -0.6175909388,
				"y": -1.2845577315,
				"z": 1.9297897052,
				"element": "H" 
			},
			{
				"x": -2.0463511675,
				"y": 0.0231678857,
				"z": 3.4125030053,
				"element": "H" 
			},
			{
				"x": -0.5025604004,
				"y": 0.8616024177,
				"z": 3.1812049172,
				"element": "H" 
			},
			{
				"x": -1.9564594496,
				"y": 1.4297987377,
				"z": 2.3363602773,
				"element": "H" 
			},
			{
				"x": 1.3924362088,
				"y": -0.6259511571,
				"z": 1.8751214381,
				"element": "H" 
			},
			{
				"x": 2.561623193,
				"y": 0.565498453,
				"z": -0.687518483,
				"element": "H" 
			},
			{
				"x": 2.5407101263,
				"y": 1.3436446935,
				"z": 0.9037894873,
				"element": "H" 
			},
			{
				"x": 3.420327437,
				"y": -0.1788284611,
				"z": 0.6571946934,
				"element": "H" 
			},
			{
				"x": 0.5293997393,
				"y": -2.4781163321,
				"z": 0.3874255769,
				"element": "H" 
			},
			{
				"x": 2.293637529,
				"y": -2.3574318534,
				"z": 0.347442622,
				"element": "H" 
			},
			{
				"x": 1.3292896955,
				"y": -1.7115687479,
				"z": -0.9943441861,
				"element": "H" 
			},
			{
				"x": 1.5795657217,
				"y": 2.8577390045,
				"z": -2.0127312653,
				"element": "H" 
			},
			{
				"x": -0.817356136,
				"y": -0.5722121706,
				"z": -4.5784127058,
				"element": "H" 
			},
			{
				"x": -1.3470787505,
				"y": -0.295535228,
				"z": -2.1343379253,
				"element": "H" 
			}
		],
		 "valence_orbital": [ 
			{
				"type": "occ",
				"energy": -0.31187,
				"method": "rhf"
			},
			{
				"type": "occ",
				"energy": -0.30242,
				"method": "rhf"
			},
			{
				"type": "occ",
				"energy": -0.28629,
				"method": "rhf"
			},
			{
				"type": "occ",
				"energy": -0.27891,
				"method": "rhf"
			},
			{
				"type": "occ",
				"energy": -0.24905,
				"method": "rhf"
			},
			{
				"type": "unocc",
				"energy": -0.06004,
				"method": "rhf"
			},
			{
				"type": "unocc",
				"energy": -0.04941,
				"method": "rhf"
			},
			{
				"type": "unocc",
				"energy": 0.02262,
				"method": "rhf"
			},
			{
				"type": "unocc",
				"energy": 0.05084,
				"method": "rhf"
			},
			{
				"type": "unocc",
				"energy": 0.06112,
				"method": "rhf"
			}
		],
		"cosmo_sigma_profile": { 
			"-0.025": 0.0,
			"-0.024": 0.0,
			"-0.023": 0.0,
			"-0.022": 0.0,
			"-0.021": 0.0,
			"-0.02": 0.0,
			"-0.019": 0.0,
			"-0.018": 0.0,
			"-0.017": 0.0,
			"-0.016": 0.0,
			"-0.015": 0.0,
			"-0.014": 0.0,
			"-0.013": 0.0,
			"-0.012": 0.0,
			"-0.011": 0.0,
			"-0.01": 0.0275458890897,
			"-0.009": 1.87271049978,
			"-0.008": 3.99416015386,
			"-0.007": 4.96842716277,
			"-0.006": 5.44311120635,
			"-0.005": 10.8129033549,
			"-0.004": 23.1810208801,
			"-0.003": 34.365714641,
			"-0.002": 38.2019854325,
			"-0.001": 44.138606856,
			"0.0": 37.9664696555,
			"0.001": 26.5056952925,
			"0.002": 11.5143231589,
			"0.003": 12.5465932159,
			"0.004": 11.6850038024,
			"0.005": 6.1336057549,
			"0.006": 5.04726539116,
			"0.007": 3.72317931742,
			"0.008": 4.37186417428,
			"0.009": 5.06287322846,
			"0.01": 5.83363742288,
			"0.011": 6.69729581982,
			"0.012": 3.97849574282,
			"0.013": 0.866723201334,
			"0.014": 0.0738535413791,
			"0.015": 0.0,
			"0.016": 0.0,
			"0.017": 0.0,
			"0.018": 0.0,
			"0.019": 0.0,
			"0.02": 0.0,
			"0.021": 0.0,
			"0.022": 0.0,
			"0.023": 0.0,
			"0.024": 0.0,
			"0.025": 0.0
		}
	}
}
