{
	 "smiles": "COC(=O)C1CSCC(N1)C1=CC=CC=C1", 
	 "Tm": 370.15, 
	 "num_atms": 31, 
	 "gaussian": { 
		 "optdone": 1, 
		 "sigma_profile": "yes", 
		 "theory": "DFT", 
		 "functional": "B3LYP", 
		 "basiset": "6-31G**", 
		 "properties": { 
			 "R2extent": 5269.572, 
			 "electric_dipole_moment_norm": 3.78867693793, 
			 "electric_quadrupole_moment_norm": 11.7586575773, 
			 "total_energy": -1069.69751874, 
			 "HOMO_LUMO_gap": 0.20375, 
			 "cosmo_polarized_energy": -12.11, 
			 "cosmo_cavitation_energy": 35.0, 
			 "cosmo_dispersion_energy": -25.36, 
			 "cosmo_repulsion_energy": 1.94, 
			 "cosmo_total_nonelectrostatic_energy": 11.58, 
			 "SMD_solvation_energy": 4.72 
		},
		"coords": [
			{
				"x": 0.9375131384,
				"y": -2.0899131382,
				"z": -4.1782294296,
				"element": "C" 
			},
			{
				"x": 0.5644973267,
				"y": -1.7196119237,
				"z": -2.8391544083,
				"element": "O" 
			},
			{
				"x": 0.7220886557,
				"y": -2.682139394,
				"z": -1.9049870515,
				"element": "C" 
			},
			{
				"x": 1.109870254,
				"y": -3.8020233633,
				"z": -2.1519672323,
				"element": "O" 
			},
			{
				"x": 0.3068900014,
				"y": -2.1623569142,
				"z": -0.5271763873,
				"element": "C" 
			},
			{
				"x": 0.6249378969,
				"y": -3.1900830958,
				"z": 0.5545616763,
				"element": "C" 
			},
			{
				"x": -0.147571811,
				"y": -2.7166881003,
				"z": 2.1603276679,
				"element": "S" 
			},
			{
				"x": -0.2033679173,
				"y": -0.8887327299,
				"z": 1.9335970111,
				"element": "C" 
			},
			{
				"x": 0.9891258728,
				"y": -0.3694541438,
				"z": 1.1016608283,
				"element": "C" 
			},
			{
				"x": 1.0224102349,
				"y": -0.909252754,
				"z": -0.272879926,
				"element": "N" 
			},
			{
				"x": 1.0002989597,
				"y": 1.1513765943,
				"z": 1.0751643438,
				"element": "C" 
			},
			{
				"x": 2.0111408893,
				"y": 1.8635324165,
				"z": 1.7313537312,
				"element": "C" 
			},
			{
				"x": 2.0169049451,
				"y": 3.2594990617,
				"z": 1.7346073503,
				"element": "C" 
			},
			{
				"x": 1.0084755426,
				"y": 3.9654541961,
				"z": 1.0773207181,
				"element": "C" 
			},
			{
				"x": -0.005161935,
				"y": 3.2669132351,
				"z": 0.4178759502,
				"element": "C" 
			},
			{
				"x": -0.0086994451,
				"y": 1.8719922932,
				"z": 0.4181012058,
				"element": "C" 
			},
			{
				"x": 0.3408580728,
				"y": -2.9385443312,
				"z": -4.521323973,
				"element": "H" 
			},
			{
				"x": 0.7437393219,
				"y": -1.2106214838,
				"z": -4.7921543373,
				"element": "H" 
			},
			{
				"x": 1.995124199,
				"y": -2.3612092849,
				"z": -4.2189895929,
				"element": "H" 
			},
			{
				"x": -0.7931428177,
				"y": -2.0411986394,
				"z": -0.5691445586,
				"element": "H" 
			},
			{
				"x": 1.7082473095,
				"y": -3.2830850168,
				"z": 0.6651808487,
				"element": "H" 
			},
			{
				"x": 0.2240960626,
				"y": -4.1659049253,
				"z": 0.278073664,
				"element": "H" 
			},
			{
				"x": -1.1524735193,
				"y": -0.5962768081,
				"z": 1.4737851528,
				"element": "H" 
			},
			{
				"x": -0.1710765158,
				"y": -0.4580399164,
				"z": 2.9374988331,
				"element": "H" 
			},
			{
				"x": 1.898276705,
				"y": -0.6973575737,
				"z": 1.6231632233,
				"element": "H" 
			},
			{
				"x": 0.7486021084,
				"y": -0.2086547258,
				"z": -0.9513047069,
				"element": "H" 
			},
			{
				"x": 2.8024998269,
				"y": 1.3182865546,
				"z": 2.2392305844,
				"element": "H" 
			},
			{
				"x": 2.8121793872,
				"y": 3.79422237,
				"z": 2.2461392665,
				"element": "H" 
			},
			{
				"x": 1.0124323774,
				"y": 5.0515795688,
				"z": 1.0768117009,
				"element": "H" 
			},
			{
				"x": -0.7949994217,
				"y": 3.8082821574,
				"z": -0.0952173842,
				"element": "H" 
			},
			{
				"x": -0.8069157055,
				"y": 1.341509815,
				"z": -0.0957247688,
				"element": "H" 
			}
		],
		 "valence_orbital": [ 
			{
				"type": "occ",
				"energy": -0.28118,
				"method": "rhf"
			},
			{
				"type": "occ",
				"energy": -0.25776,
				"method": "rhf"
			},
			{
				"type": "occ",
				"energy": -0.25513,
				"method": "rhf"
			},
			{
				"type": "occ",
				"energy": -0.223,
				"method": "rhf"
			},
			{
				"type": "occ",
				"energy": -0.2177,
				"method": "rhf"
			},
			{
				"type": "unocc",
				"energy": -0.01395,
				"method": "rhf"
			},
			{
				"type": "unocc",
				"energy": -0.01009,
				"method": "rhf"
			},
			{
				"type": "unocc",
				"energy": 0.00778,
				"method": "rhf"
			},
			{
				"type": "unocc",
				"energy": 0.04267,
				"method": "rhf"
			},
			{
				"type": "unocc",
				"energy": 0.06431,
				"method": "rhf"
			}
		],
		"cosmo_sigma_profile": { 
			"-0.025": 0.0,
			"-0.024": 0.0,
			"-0.023": 0.0,
			"-0.022": 0.0,
			"-0.021": 0.0,
			"-0.02": 0.0,
			"-0.019": 0.0,
			"-0.018": 0.0,
			"-0.017": 0.0,
			"-0.016": 0.0,
			"-0.015": 0.0,
			"-0.014": 0.0,
			"-0.013": 0.0,
			"-0.012": 0.0,
			"-0.011": 0.0,
			"-0.01": 0.0,
			"-0.009": 0.0,
			"-0.008": 0.288002160835,
			"-0.007": 3.6795627269,
			"-0.006": 19.4277230736,
			"-0.005": 31.1717309758,
			"-0.004": 30.281970958,
			"-0.003": 28.0298542098,
			"-0.002": 21.4750902045,
			"-0.001": 17.756192044,
			"0.0": 12.9644867377,
			"0.001": 15.2238280782,
			"0.002": 13.1628251498,
			"0.003": 13.0018273756,
			"0.004": 16.5541655189,
			"0.005": 15.2336385774,
			"0.006": 11.6343443053,
			"0.007": 4.68497034421,
			"0.008": 4.00220612843,
			"0.009": 5.2700340968,
			"0.01": 4.42124941796,
			"0.011": 5.88176126902,
			"0.012": 2.66890871541,
			"0.013": 0.558914939813,
			"0.014": 0.582947348205,
			"0.015": 0.113132069733,
			"0.016": 0.0,
			"0.017": 0.0,
			"0.018": 0.0,
			"0.019": 0.0,
			"0.02": 0.0,
			"0.021": 0.0,
			"0.022": 0.0,
			"0.023": 0.0,
			"0.024": 0.0,
			"0.025": 0.0
		}
	}
}
