{
	 "smiles": "CCC(=O)NC1=CC=C(N)C=C1", 
	 "Tm": 356.15, 
	 "num_atms": 24, 
	 "gaussian": { 
		 "optdone": 1, 
		 "sigma_profile": "yes", 
		 "theory": "DFT", 
		 "functional": "B3LYP", 
		 "basiset": "6-31G**", 
		 "properties": { 
			 "R2extent": 3220.5867, 
			 "electric_dipole_moment_norm": 3.41564843185, 
			 "electric_quadrupole_moment_norm": 14.0870206914, 
			 "total_energy": -534.944385712, 
			 "HOMO_LUMO_gap": 0.1896, 
			 "cosmo_polarized_energy": -16.37, 
			 "cosmo_cavitation_energy": 27.52, 
			 "cosmo_dispersion_energy": -20.49, 
			 "cosmo_repulsion_energy": 1.65, 
			 "cosmo_total_nonelectrostatic_energy": 8.68, 
			 "SMD_solvation_energy": 5.16 
		},
		"coords": [
			{
				"x": -1.6483584774,
				"y": 3.6374519556,
				"z": -1.4323240758,
				"element": "C" 
			},
			{
				"x": -1.2098578284,
				"y": 2.2907854123,
				"z": -2.0110247788,
				"element": "C" 
			},
			{
				"x": -0.194494589,
				"y": 1.5846479547,
				"z": -1.1081289445,
				"element": "C" 
			},
			{
				"x": 0.6239407249,
				"y": 2.2102822046,
				"z": -0.4442483522,
				"element": "O" 
			},
			{
				"x": -0.2723116916,
				"y": 0.2132961978,
				"z": -1.1413944704,
				"element": "N" 
			},
			{
				"x": 0.545487187,
				"y": -0.7429863506,
				"z": -0.4922052207,
				"element": "C" 
			},
			{
				"x": 1.6238111606,
				"y": -0.406160423,
				"z": 0.3395110048,
				"element": "C" 
			},
			{
				"x": 2.3771893228,
				"y": -1.4103971522,
				"z": 0.9414279102,
				"element": "C" 
			},
			{
				"x": 2.0900896291,
				"y": -2.769803513,
				"z": 0.7414425483,
				"element": "C" 
			},
			{
				"x": 2.8936709024,
				"y": -3.7693328199,
				"z": 1.3053642738,
				"element": "N" 
			},
			{
				"x": 1.0088994277,
				"y": -3.0967509851,
				"z": -0.0923629276,
				"element": "C" 
			},
			{
				"x": 0.2522867568,
				"y": -2.0986226042,
				"z": -0.6962320362,
				"element": "C" 
			},
			{
				"x": -2.222435866,
				"y": 3.5024686963,
				"z": -0.5103312046,
				"element": "H" 
			},
			{
				"x": -2.2720460265,
				"y": 4.1833403301,
				"z": -2.146172351,
				"element": "H" 
			},
			{
				"x": -0.7713883903,
				"y": 4.2418819665,
				"z": -1.1915703276,
				"element": "H" 
			},
			{
				"x": -0.720533948,
				"y": 2.4471645826,
				"z": -2.9822216592,
				"element": "H" 
			},
			{
				"x": -2.0771940722,
				"y": 1.6463863388,
				"z": -2.2017612091,
				"element": "H" 
			},
			{
				"x": -0.9999157621,
				"y": -0.1757449741,
				"z": -1.7232977018,
				"element": "H" 
			},
			{
				"x": 1.8562196076,
				"y": 0.6358853761,
				"z": 0.5075626737,
				"element": "H" 
			},
			{
				"x": 3.2117042097,
				"y": -1.130550079,
				"z": 1.5801370366,
				"element": "H" 
			},
			{
				"x": 2.4281201303,
				"y": -4.6567794792,
				"z": 1.4413648468,
				"element": "H" 
			},
			{
				"x": 3.3895729308,
				"y": -3.4860056674,
				"z": 2.1399867348,
				"element": "H" 
			},
			{
				"x": 0.7623908108,
				"y": -4.1401244792,
				"z": -0.2727888333,
				"element": "H" 
			},
			{
				"x": -0.5818461489,
				"y": -2.3806324885,
				"z": -1.3359329362,
				"element": "H" 
			}
		],
		 "valence_orbital": [ 
			{
				"type": "occ",
				"energy": -0.32008,
				"method": "rhf"
			},
			{
				"type": "occ",
				"energy": -0.2671,
				"method": "rhf"
			},
			{
				"type": "occ",
				"energy": -0.24503,
				"method": "rhf"
			},
			{
				"type": "occ",
				"energy": -0.24405,
				"method": "rhf"
			},
			{
				"type": "occ",
				"energy": -0.18563,
				"method": "rhf"
			},
			{
				"type": "unocc",
				"energy": 0.00397,
				"method": "rhf"
			},
			{
				"type": "unocc",
				"energy": 0.00455,
				"method": "rhf"
			},
			{
				"type": "unocc",
				"energy": 0.0563,
				"method": "rhf"
			},
			{
				"type": "unocc",
				"energy": 0.07046,
				"method": "rhf"
			},
			{
				"type": "unocc",
				"energy": 0.08444,
				"method": "rhf"
			}
		],
		"cosmo_sigma_profile": { 
			"-0.025": 0.0,
			"-0.024": 0.0,
			"-0.023": 0.0,
			"-0.022": 0.0,
			"-0.021": 0.0,
			"-0.02": 0.0,
			"-0.019": 0.0,
			"-0.018": 0.0,
			"-0.017": 0.0,
			"-0.016": 0.0,
			"-0.015": 0.225343070536,
			"-0.014": 1.28035875017,
			"-0.013": 1.41480623628,
			"-0.012": 3.2163690772,
			"-0.011": 4.25936180031,
			"-0.01": 4.43859333635,
			"-0.009": 5.05871813959,
			"-0.008": 4.63975724227,
			"-0.007": 5.28973167689,
			"-0.006": 7.31695532487,
			"-0.005": 9.7955300152,
			"-0.004": 12.1825027501,
			"-0.003": 16.488280174,
			"-0.002": 16.7147638124,
			"-0.001": 15.9335963603,
			"0.0": 12.5566473436,
			"0.001": 13.2177919821,
			"0.002": 9.23262652863,
			"0.003": 9.7501300413,
			"0.004": 11.7505503551,
			"0.005": 12.1953399228,
			"0.006": 12.306962248,
			"0.007": 7.14148559305,
			"0.008": 3.07224120189,
			"0.009": 2.59033091123,
			"0.01": 2.49030889756,
			"0.011": 2.26713822892,
			"0.012": 3.12578658199,
			"0.013": 3.76768885825,
			"0.014": 2.82125918819,
			"0.015": 0.543930156099,
			"0.016": 0.0642388587293,
			"0.017": 0.0,
			"0.018": 0.0,
			"0.019": 0.0,
			"0.02": 0.0,
			"0.021": 0.0,
			"0.022": 0.0,
			"0.023": 0.0,
			"0.024": 0.0,
			"0.025": 0.0
		}
	}
}
