{
	 "smiles": "CN(C)CC1=CC=C(O1)C(=O)NN", 
	 "Tm": 390.15, 
	 "num_atms": 26, 
	 "gaussian": { 
		 "optdone": 1, 
		 "sigma_profile": "yes", 
		 "theory": "DFT", 
		 "functional": "B3LYP", 
		 "basiset": "6-31G**", 
		 "properties": { 
			 "R2extent": 3665.6581, 
			 "electric_dipole_moment_norm": 4.72167341734, 
			 "electric_quadrupole_moment_norm": 14.9713470109, 
			 "total_energy": -627.32988569, 
			 "HOMO_LUMO_gap": 0.19455, 
			 "cosmo_polarized_energy": -14.17, 
			 "cosmo_cavitation_energy": 29.83, 
			 "cosmo_dispersion_energy": -21.13, 
			 "cosmo_repulsion_energy": 1.71, 
			 "cosmo_total_nonelectrostatic_energy": 10.41, 
			 "SMD_solvation_energy": 5.01 
		},
		"coords": [
			{
				"x": 2.6931110418,
				"y": 1.5103620466,
				"z": -1.4551859281,
				"element": "C" 
			},
			{
				"x": 1.9487041358,
				"y": 1.809421366,
				"z": -0.2357423799,
				"element": "N" 
			},
			{
				"x": 1.8852253373,
				"y": 3.245321422,
				"z": 0.0078881078,
				"element": "C" 
			},
			{
				"x": 0.6215613529,
				"y": 1.2027268549,
				"z": -0.2369857976,
				"element": "C" 
			},
			{
				"x": 0.6874048517,
				"y": -0.2825669374,
				"z": -0.0507985074,
				"element": "C" 
			},
			{
				"x": 1.5415205156,
				"y": -1.1063446836,
				"z": 0.6289070869,
				"element": "C" 
			},
			{
				"x": 1.0397269377,
				"y": -2.4303245167,
				"z": 0.4699679482,
				"element": "C" 
			},
			{
				"x": -0.0926966752,
				"y": -2.3367559715,
				"z": -0.2924307808,
				"element": "C" 
			},
			{
				"x": -0.3145279499,
				"y": -1.0145959613,
				"z": -0.6200078881,
				"element": "O" 
			},
			{
				"x": -0.9669725787,
				"y": -3.4392727181,
				"z": -0.7418607337,
				"element": "C" 
			},
			{
				"x": -0.6771055691,
				"y": -4.5968804565,
				"z": -0.4450899567,
				"element": "O" 
			},
			{
				"x": -2.0861188616,
				"y": -3.1713609084,
				"z": -1.4916480416,
				"element": "N" 
			},
			{
				"x": -2.6433633755,
				"y": -1.9366260499,
				"z": -1.867585322,
				"element": "N" 
			},
			{
				"x": 2.7619002396,
				"y": 0.4285982587,
				"z": -1.5940890183,
				"element": "H" 
			},
			{
				"x": 3.7092966719,
				"y": 1.9070901103,
				"z": -1.3699266341,
				"element": "H" 
			},
			{
				"x": 2.2287557653,
				"y": 1.9471349287,
				"z": -2.360178729,
				"element": "H" 
			},
			{
				"x": 2.9005129502,
				"y": 3.6489418929,
				"z": 0.0685624424,
				"element": "H" 
			},
			{
				"x": 1.3468416628,
				"y": 3.8020824241,
				"z": -0.7829954766,
				"element": "H" 
			},
			{
				"x": 1.3858201727,
				"y": 3.440996019,
				"z": 0.9620937097,
				"element": "H" 
			},
			{
				"x": 0.0505012238,
				"y": 1.6439319841,
				"z": 0.5913124744,
				"element": "H" 
			},
			{
				"x": 0.0444614043,
				"y": 1.4191317956,
				"z": -1.1580466045,
				"element": "H" 
			},
			{
				"x": 2.4197519149,
				"y": -0.7872841926,
				"z": 1.1697170405,
				"element": "H" 
			},
			{
				"x": 1.4460090138,
				"y": -3.3524080155,
				"z": 0.8572574955,
				"element": "H" 
			},
			{
				"x": -2.6302119318,
				"y": -3.9883666712,
				"z": -1.7343111479,
				"element": "H" 
			},
			{
				"x": -2.8105343741,
				"y": -1.371943473,
				"z": -1.0379863956,
				"element": "H" 
			},
			{
				"x": -1.9750738763,
				"y": -1.4274085472,
				"z": -2.4401369636,
				"element": "H" 
			}
		],
		 "valence_orbital": [ 
			{
				"type": "occ",
				"energy": -0.28333,
				"method": "rhf"
			},
			{
				"type": "occ",
				"energy": -0.2512,
				"method": "rhf"
			},
			{
				"type": "occ",
				"energy": -0.24532,
				"method": "rhf"
			},
			{
				"type": "occ",
				"energy": -0.23163,
				"method": "rhf"
			},
			{
				"type": "occ",
				"energy": -0.22615,
				"method": "rhf"
			},
			{
				"type": "unocc",
				"energy": -0.0316,
				"method": "rhf"
			},
			{
				"type": "unocc",
				"energy": 0.03965,
				"method": "rhf"
			},
			{
				"type": "unocc",
				"energy": 0.07472,
				"method": "rhf"
			},
			{
				"type": "unocc",
				"energy": 0.08318,
				"method": "rhf"
			},
			{
				"type": "unocc",
				"energy": 0.1098,
				"method": "rhf"
			}
		],
		"cosmo_sigma_profile": { 
			"-0.025": 0.0,
			"-0.024": 0.0,
			"-0.023": 0.0,
			"-0.022": 0.0,
			"-0.021": 0.0,
			"-0.02": 0.0,
			"-0.019": 0.0,
			"-0.018": 0.0,
			"-0.017": 0.0,
			"-0.016": 0.0,
			"-0.015": 0.0,
			"-0.014": 0.142784974946,
			"-0.013": 0.896131607967,
			"-0.012": 1.25050499867,
			"-0.011": 1.81430898722,
			"-0.01": 3.00024745825,
			"-0.009": 2.62986970202,
			"-0.008": 3.56570606773,
			"-0.007": 5.98792443147,
			"-0.006": 7.465558708,
			"-0.005": 9.7493686336,
			"-0.004": 15.1134616073,
			"-0.003": 21.175003911,
			"-0.002": 27.3174404359,
			"-0.001": 28.0130041423,
			"0.0": 24.0648644842,
			"0.001": 14.9615616038,
			"0.002": 11.4441674975,
			"0.003": 11.8078401446,
			"0.004": 8.26702579964,
			"0.005": 3.04279109949,
			"0.006": 3.22277746947,
			"0.007": 2.49955035705,
			"0.008": 3.60497288982,
			"0.009": 2.04879085691,
			"0.01": 2.72200121662,
			"0.011": 3.2071885978,
			"0.012": 2.63658843693,
			"0.013": 4.29515467863,
			"0.014": 6.44545212972,
			"0.015": 1.279771924,
			"0.016": 0.491108328082,
			"0.017": 0.0274345344921,
			"0.018": 0.0,
			"0.019": 0.0,
			"0.02": 0.0,
			"0.021": 0.0,
			"0.022": 0.0,
			"0.023": 0.0,
			"0.024": 0.0,
			"0.025": 0.0
		}
	}
}
