{
	 "smiles": "CC(C)(O)C=C", 
	 "Tm": 245.15, 
	 "num_atms": 16, 
	 "gaussian": { 
		 "optdone": 1, 
		 "sigma_profile": "yes", 
		 "theory": "DFT", 
		 "functional": "B3LYP", 
		 "basiset": "6-31G**", 
		 "properties": { 
			 "R2extent": 816.0873, 
			 "electric_dipole_moment_norm": 1.40638139208, 
			 "electric_quadrupole_moment_norm": 2.33218414153, 
			 "total_energy": -271.761222013, 
			 "HOMO_LUMO_gap": 0.27379, 
			 "cosmo_polarized_energy": -5.88, 
			 "cosmo_cavitation_energy": 18.5, 
			 "cosmo_dispersion_energy": -13.18, 
			 "cosmo_repulsion_energy": 1.13, 
			 "cosmo_total_nonelectrostatic_energy": 6.45, 
			 "SMD_solvation_energy": 4.18 
		},
		"coords": [
			{
				"x": 1.3375766787,
				"y": 1.6434961948,
				"z": 0.7444698232,
				"element": "C" 
			},
			{
				"x": 0.5232171135,
				"y": 0.9668497984,
				"z": -0.3680055112,
				"element": "C" 
			},
			{
				"x": -0.3406465118,
				"y": 2.0014392139,
				"z": -1.1144193304,
				"element": "C" 
			},
			{
				"x": -0.3213937768,
				"y": 0.0289430777,
				"z": 0.3043036573,
				"element": "O" 
			},
			{
				"x": 1.4559862678,
				"y": 0.2726192628,
				"z": -1.3461148076,
				"element": "C" 
			},
			{
				"x": 1.6114926781,
				"y": -1.0468389542,
				"z": -1.4448434641,
				"element": "C" 
			},
			{
				"x": 0.6665740484,
				"y": 2.1628060196,
				"z": 1.4355323228,
				"element": "H" 
			},
			{
				"x": 1.9002574122,
				"y": 0.8904903257,
				"z": 1.3017623723,
				"element": "H" 
			},
			{
				"x": 2.0419135277,
				"y": 2.369744971,
				"z": 0.3277641018,
				"element": "H" 
			},
			{
				"x": -1.0182126282,
				"y": 2.4959368834,
				"z": -0.4123290993,
				"element": "H" 
			},
			{
				"x": -0.9406704745,
				"y": 1.5154615153,
				"z": -1.8925440952,
				"element": "H" 
			},
			{
				"x": 0.2765305754,
				"y": 2.7646648077,
				"z": -1.6002240472,
				"element": "H" 
			},
			{
				"x": -0.8518256628,
				"y": -0.4150898739,
				"z": -0.3719165666,
				"element": "H" 
			},
			{
				"x": 2.0253677459,
				"y": 0.9364200654,
				"z": -1.9972063859,
				"element": "H" 
			},
			{
				"x": 1.0705437016,
				"y": -1.7251632843,
				"z": -0.7915840146,
				"element": "H" 
			},
			{
				"x": 2.2937893048,
				"y": -1.4880800231,
				"z": -2.1649449555,
				"element": "H" 
			}
		],
		 "valence_orbital": [ 
			{
				"type": "occ",
				"energy": -0.36027,
				"method": "rhf"
			},
			{
				"type": "occ",
				"energy": -0.34645,
				"method": "rhf"
			},
			{
				"type": "occ",
				"energy": -0.31803,
				"method": "rhf"
			},
			{
				"type": "occ",
				"energy": -0.27112,
				"method": "rhf"
			},
			{
				"type": "occ",
				"energy": -0.25449,
				"method": "rhf"
			},
			{
				"type": "unocc",
				"energy": 0.0193,
				"method": "rhf"
			},
			{
				"type": "unocc",
				"energy": 0.07585,
				"method": "rhf"
			},
			{
				"type": "unocc",
				"energy": 0.11827,
				"method": "rhf"
			},
			{
				"type": "unocc",
				"energy": 0.12407,
				"method": "rhf"
			},
			{
				"type": "unocc",
				"energy": 0.1492,
				"method": "rhf"
			}
		],
		"cosmo_sigma_profile": { 
			"-0.025": 0.0,
			"-0.024": 0.0,
			"-0.023": 0.0,
			"-0.022": 0.0,
			"-0.021": 0.0,
			"-0.02": 0.0,
			"-0.019": 0.0,
			"-0.018": 0.0,
			"-0.017": 0.0,
			"-0.016": 0.0,
			"-0.015": 0.0802778081066,
			"-0.014": 0.723504262619,
			"-0.013": 0.642765215456,
			"-0.012": 0.912602847277,
			"-0.011": 0.847346081076,
			"-0.01": 0.776615147643,
			"-0.009": 0.844131353099,
			"-0.008": 0.871058397738,
			"-0.007": 0.98944260673,
			"-0.006": 1.31805030134,
			"-0.005": 4.59081110958,
			"-0.004": 12.0198202402,
			"-0.003": 16.8848029702,
			"-0.002": 14.7567440019,
			"-0.001": 16.2230061026,
			"0.0": 17.0074860278,
			"0.001": 16.0493687368,
			"0.002": 7.44995087703,
			"0.003": 4.76810723328,
			"0.004": 4.71011849419,
			"0.005": 4.52792779715,
			"0.006": 3.61895976679,
			"0.007": 2.81834036295,
			"0.008": 1.13355630596,
			"0.009": 1.608768716,
			"0.01": 1.40071210676,
			"0.011": 0.844394760021,
			"0.012": 1.34509824761,
			"0.013": 1.64542446599,
			"0.014": 1.84801782566,
			"0.015": 0.354300649347,
			"0.016": 0.0,
			"0.017": 0.0,
			"0.018": 0.0,
			"0.019": 0.0,
			"0.02": 0.0,
			"0.021": 0.0,
			"0.022": 0.0,
			"0.023": 0.0,
			"0.024": 0.0,
			"0.025": 0.0
		}
	}
}
