{
	 "smiles": "CCOC(=O)C1=CC(=C(Br)C=C1)S(Cl)(=O)=O", 
	 "Tm": 367.15, 
	 "num_atms": 24, 
	 "gaussian": { 
		 "optdone": 1, 
		 "sigma_profile": "yes", 
		 "theory": "DFT", 
		 "functional": "B3LYP", 
		 "basiset": "6-31G**", 
		 "properties": { 
			 "R2extent": 9080.1988, 
			 "electric_dipole_moment_norm": 3.95387335786, 
			 "electric_quadrupole_moment_norm": 24.3908347247, 
			 "total_energy": -4078.39705261, 
			 "HOMO_LUMO_gap": 0.18056, 
			 "cosmo_polarized_energy": -10.9, 
			 "cosmo_cavitation_energy": 34.46, 
			 "cosmo_dispersion_energy": -25.53, 
			 "cosmo_repulsion_energy": 1.97, 
			 "cosmo_total_nonelectrostatic_energy": 10.89, 
			 "SMD_solvation_energy": 4.8 
		},
		"coords": [
			{
				"x": 2.4460684716,
				"y": -2.8333231296,
				"z": 0.8253928022,
				"element": "C" 
			},
			{
				"x": 1.9692953255,
				"y": -2.4738183916,
				"z": -0.5728563111,
				"element": "C" 
			},
			{
				"x": 1.0114047868,
				"y": -1.3830285442,
				"z": -0.5365629413,
				"element": "O" 
			},
			{
				"x": -0.2755806428,
				"y": -1.7140166664,
				"z": -0.3282130583,
				"element": "C" 
			},
			{
				"x": -0.6819245515,
				"y": -2.8498711501,
				"z": -0.1793382404,
				"element": "O" 
			},
			{
				"x": -1.1681460761,
				"y": -0.5143981993,
				"z": -0.3053875534,
				"element": "C" 
			},
			{
				"x": -0.6786015923,
				"y": 0.7824771102,
				"z": -0.474344074,
				"element": "C" 
			},
			{
				"x": -1.5565117907,
				"y": 1.867763434,
				"z": -0.4396853585,
				"element": "C" 
			},
			{
				"x": -2.9335431449,
				"y": 1.670619472,
				"z": -0.245632289,
				"element": "C" 
			},
			{
				"x": -4.2025859,
				"y": 3.0765630606,
				"z": -0.2177309489,
				"element": "Br" 
			},
			{
				"x": -3.412331371,
				"y": 0.3679286816,
				"z": -0.0793700721,
				"element": "C" 
			},
			{
				"x": -2.5385557182,
				"y": -0.7131367713,
				"z": -0.1062132942,
				"element": "C" 
			},
			{
				"x": -0.7775481367,
				"y": 3.4855753391,
				"z": -0.6084537644,
				"element": "S" 
			},
			{
				"x": -1.4405472081,
				"y": 4.0775189116,
				"z": -2.5361896342,
				"element": "Cl" 
			},
			{
				"x": -1.3370810107,
				"y": 4.4274826044,
				"z": 0.3486796926,
				"element": "O" 
			},
			{
				"x": 0.6607460561,
				"y": 3.2810682114,
				"z": -0.7249292527,
				"element": "O" 
			},
			{
				"x": 1.621949479,
				"y": -3.2268595493,
				"z": 1.4253768212,
				"element": "H" 
			},
			{
				"x": 2.8694311103,
				"y": -1.9602247829,
				"z": 1.3301208173,
				"element": "H" 
			},
			{
				"x": 3.2218538009,
				"y": -3.6033820227,
				"z": 0.7624318448,
				"element": "H" 
			},
			{
				"x": 2.7839524798,
				"y": -2.0922431533,
				"z": -1.1918364207,
				"element": "H" 
			},
			{
				"x": 1.5033439624,
				"y": -3.3289651512,
				"z": -1.0673388218,
				"element": "H" 
			},
			{
				"x": 0.3786509737,
				"y": 0.9543358859,
				"z": -0.6295395605,
				"element": "H" 
			},
			{
				"x": -4.4746984094,
				"y": 0.2145845037,
				"z": 0.069699615,
				"element": "H" 
			},
			{
				"x": -2.9045408937,
				"y": -1.7259497026,
				"z": 0.0232200025,
				"element": "H" 
			}
		],
		 "valence_orbital": [ 
			{
				"type": "occ",
				"energy": -0.31749,
				"method": "rhf"
			},
			{
				"type": "occ",
				"energy": -0.30524,
				"method": "rhf"
			},
			{
				"type": "occ",
				"energy": -0.30154,
				"method": "rhf"
			},
			{
				"type": "occ",
				"energy": -0.29527,
				"method": "rhf"
			},
			{
				"type": "occ",
				"energy": -0.27669,
				"method": "rhf"
			},
			{
				"type": "unocc",
				"energy": -0.09613,
				"method": "rhf"
			},
			{
				"type": "unocc",
				"energy": -0.07749,
				"method": "rhf"
			},
			{
				"type": "unocc",
				"energy": -0.0554,
				"method": "rhf"
			},
			{
				"type": "unocc",
				"energy": -0.01983,
				"method": "rhf"
			},
			{
				"type": "unocc",
				"energy": 0.01521,
				"method": "rhf"
			}
		],
		"cosmo_sigma_profile": { 
			"-0.025": 0.0,
			"-0.024": 0.0,
			"-0.023": 0.0,
			"-0.022": 0.0,
			"-0.021": 0.0,
			"-0.02": 0.0,
			"-0.019": 0.0,
			"-0.018": 0.0,
			"-0.017": 0.0,
			"-0.016": 0.0,
			"-0.015": 0.0,
			"-0.014": 0.0,
			"-0.013": 0.0,
			"-0.012": 0.0,
			"-0.011": 0.0,
			"-0.01": 0.0674613758736,
			"-0.009": 1.83546721443,
			"-0.008": 4.21757764394,
			"-0.007": 4.65370994091,
			"-0.006": 7.63719191318,
			"-0.005": 13.7158070421,
			"-0.004": 23.9715335972,
			"-0.003": 26.5018246851,
			"-0.002": 35.9892080409,
			"-0.001": 30.3447064616,
			"0.0": 22.9673902608,
			"0.001": 16.2100545276,
			"0.002": 21.0589015245,
			"0.003": 23.0405731464,
			"0.004": 8.42266513824,
			"0.005": 4.94649728054,
			"0.006": 5.33693593643,
			"0.007": 9.57742997673,
			"0.008": 11.2339670891,
			"0.009": 3.05965195871,
			"0.01": 2.21763413749,
			"0.011": 3.73098267611,
			"0.012": 0.879025195277,
			"0.013": 0.0,
			"0.014": 0.0,
			"0.015": 0.0,
			"0.016": 0.0,
			"0.017": 0.0,
			"0.018": 0.0,
			"0.019": 0.0,
			"0.02": 0.0,
			"0.021": 0.0,
			"0.022": 0.0,
			"0.023": 0.0,
			"0.024": 0.0,
			"0.025": 0.0
		}
	}
}
