{
	 "smiles": "CN(C)CCOC1=NC=CC(=C1)C(O)=O", 
	 "Tm": 447.15, 
	 "num_atms": 29, 
	 "gaussian": { 
		 "optdone": 1, 
		 "sigma_profile": "yes", 
		 "theory": "DFT", 
		 "functional": "B3LYP", 
		 "basiset": "6-31G**", 
		 "properties": { 
			 "R2extent": 5106.5713, 
			 "electric_dipole_moment_norm": 1.4725879736, 
			 "electric_quadrupole_moment_norm": 24.2609340171, 
			 "total_energy": -724.656740653, 
			 "HOMO_LUMO_gap": 0.16231, 
			 "cosmo_polarized_energy": -17.97, 
			 "cosmo_cavitation_energy": 32.37, 
			 "cosmo_dispersion_energy": -22.48, 
			 "cosmo_repulsion_energy": 1.76, 
			 "cosmo_total_nonelectrostatic_energy": 11.65, 
			 "SMD_solvation_energy": 5.55 
		},
		"coords": [
			{
				"x": 2.477029241,
				"y": 0.4053809514,
				"z": -0.600635172,
				"element": "C" 
			},
			{
				"x": 1.3498040666,
				"y": -0.2369503648,
				"z": 0.0671779002,
				"element": "N" 
			},
			{
				"x": 1.7993232229,
				"y": -1.3476093936,
				"z": 0.9020621891,
				"element": "C" 
			},
			{
				"x": 0.3039355485,
				"y": -0.6424928689,
				"z": -0.871735832,
				"element": "C" 
			},
			{
				"x": -1.0976188304,
				"y": -0.7112573919,
				"z": -0.2577860161,
				"element": "C" 
			},
			{
				"x": -1.7898138273,
				"y": 0.5461999538,
				"z": -0.2796607735,
				"element": "O" 
			},
			{
				"x": -1.8340308267,
				"y": 1.3443688799,
				"z": 0.8139115601,
				"element": "C" 
			},
			{
				"x": -2.8722059772,
				"y": 2.1854151853,
				"z": 0.8080120928,
				"element": "N" 
			},
			{
				"x": -3.0121977782,
				"y": 3.0081776952,
				"z": 1.8498639329,
				"element": "C" 
			},
			{
				"x": -2.1413750581,
				"y": 3.044408687,
				"z": 2.9380906854,
				"element": "C" 
			},
			{
				"x": -1.037891076,
				"y": 2.1802128867,
				"z": 2.9169778097,
				"element": "C" 
			},
			{
				"x": -0.8764180648,
				"y": 1.3117056741,
				"z": 1.8397097047,
				"element": "C" 
			},
			{
				"x": -0.0019116497,
				"y": 2.135857953,
				"z": 4.0066504079,
				"element": "C" 
			},
			{
				"x": 0.1026630114,
				"y": 3.2430338915,
				"z": 4.7861051023,
				"element": "O" 
			},
			{
				"x": 0.714484711,
				"y": 1.1834704015,
				"z": 4.2027339803,
				"element": "O" 
			},
			{
				"x": 3.0080034168,
				"y": -0.264279011,
				"z": -1.3034988089,
				"element": "H" 
			},
			{
				"x": 3.1991385303,
				"y": 0.7452346733,
				"z": 0.1480868223,
				"element": "H" 
			},
			{
				"x": 2.1299676702,
				"y": 1.2802533394,
				"z": -1.1584370745,
				"element": "H" 
			},
			{
				"x": 0.9548294347,
				"y": -1.7938151173,
				"z": 1.4355843163,
				"element": "H" 
			},
			{
				"x": 2.2931216643,
				"y": -2.1478430678,
				"z": 0.3180890936,
				"element": "H" 
			},
			{
				"x": 2.5037990262,
				"y": -0.9821051815,
				"z": 1.6545266615,
				"element": "H" 
			},
			{
				"x": 0.5308100137,
				"y": -1.6244482828,
				"z": -1.331514784,
				"element": "H" 
			},
			{
				"x": 0.2582069547,
				"y": 0.0829957274,
				"z": -1.6902602321,
				"element": "H" 
			},
			{
				"x": -1.7205880664,
				"y": -1.3704871292,
				"z": -0.8702801433,
				"element": "H" 
			},
			{
				"x": -1.0779278025,
				"y": -1.1162828408,
				"z": 0.7601470202,
				"element": "H" 
			},
			{
				"x": -3.8752671381,
				"y": 3.670958011,
				"z": 1.8187304758,
				"element": "H" 
			},
			{
				"x": -2.352262996,
				"y": 3.7033878101,
				"z": 3.7752751368,
				"element": "H" 
			},
			{
				"x": 0.0025440576,
				"y": 0.6842852802,
				"z": 1.7691899791,
				"element": "H" 
			},
			{
				"x": -0.4303514783,
				"y": 3.9610236492,
				"z": 4.4163839655,
				"element": "H" 
			}
		],
		 "valence_orbital": [ 
			{
				"type": "occ",
				"energy": -0.29358,
				"method": "rhf"
			},
			{
				"type": "occ",
				"energy": -0.27749,
				"method": "rhf"
			},
			{
				"type": "occ",
				"energy": -0.26717,
				"method": "rhf"
			},
			{
				"type": "occ",
				"energy": -0.2452,
				"method": "rhf"
			},
			{
				"type": "occ",
				"energy": -0.22203,
				"method": "rhf"
			},
			{
				"type": "unocc",
				"energy": -0.05972,
				"method": "rhf"
			},
			{
				"type": "unocc",
				"energy": -0.01383,
				"method": "rhf"
			},
			{
				"type": "unocc",
				"energy": 0.04584,
				"method": "rhf"
			},
			{
				"type": "unocc",
				"energy": 0.06315,
				"method": "rhf"
			},
			{
				"type": "unocc",
				"energy": 0.07767,
				"method": "rhf"
			}
		],
		"cosmo_sigma_profile": { 
			"-0.025": 0.0,
			"-0.024": 0.0,
			"-0.023": 0.0,
			"-0.022": 0.0,
			"-0.021": 0.0,
			"-0.02": 0.0,
			"-0.019": 0.47020807963,
			"-0.018": 0.651588846747,
			"-0.017": 0.949071870722,
			"-0.016": 0.898656741002,
			"-0.015": 1.30981413642,
			"-0.014": 0.986720215363,
			"-0.013": 1.31590602085,
			"-0.012": 1.24131423201,
			"-0.011": 1.38601412056,
			"-0.01": 1.31500096104,
			"-0.009": 1.15556710663,
			"-0.008": 2.02563667475,
			"-0.007": 5.2485043149,
			"-0.006": 10.2783773282,
			"-0.005": 13.5076860549,
			"-0.004": 20.3144469336,
			"-0.003": 21.9622655897,
			"-0.002": 26.8465350148,
			"-0.001": 27.4521254596,
			"0.0": 23.1812277356,
			"0.001": 16.1835618025,
			"0.002": 10.6690665622,
			"0.003": 7.49535686235,
			"0.004": 7.05555046053,
			"0.005": 5.5749333069,
			"0.006": 5.42043931628,
			"0.007": 5.73650394036,
			"0.008": 5.02133728205,
			"0.009": 5.52288307188,
			"0.01": 7.59351927811,
			"0.011": 6.27067792061,
			"0.012": 4.70171998893,
			"0.013": 2.35677460867,
			"0.014": 1.57856381089,
			"0.015": 1.0021633109,
			"0.016": 0.962717501157,
			"0.017": 0.0428581176295,
			"0.018": 0.0,
			"0.019": 0.0,
			"0.02": 0.0,
			"0.021": 0.0,
			"0.022": 0.0,
			"0.023": 0.0,
			"0.024": 0.0,
			"0.025": 0.0
		}
	}
}
