{
	 "smiles": "ClCC(=O)N1CCC2=C1C=CC=C2", 
	 "Tm": 392.15, 
	 "num_atms": 23, 
	 "gaussian": { 
		 "optdone": 1, 
		 "sigma_profile": "yes", 
		 "theory": "DFT", 
		 "functional": "B3LYP", 
		 "basiset": "6-31G**", 
		 "properties": { 
			 "R2extent": 3079.1904, 
			 "electric_dipole_moment_norm": 3.73155911785, 
			 "electric_quadrupole_moment_norm": 9.35033176738, 
			 "total_energy": -977.273535753, 
			 "HOMO_LUMO_gap": 0.18185, 
			 "cosmo_polarized_energy": -10.95, 
			 "cosmo_cavitation_energy": 27.51, 
			 "cosmo_dispersion_energy": -20.57, 
			 "cosmo_repulsion_energy": 1.62, 
			 "cosmo_total_nonelectrostatic_energy": 8.56, 
			 "SMD_solvation_energy": 4.27 
		},
		"coords": [
			{
				"x": -2.4902061813,
				"y": -2.9814065968,
				"z": 0.0999933651,
				"element": "Cl" 
			},
			{
				"x": -2.698259361,
				"y": -1.2137279516,
				"z": 0.4781535275,
				"element": "C" 
			},
			{
				"x": -1.4272658021,
				"y": -0.5899482177,
				"z": 1.0578989578,
				"element": "C" 
			},
			{
				"x": -1.3716922046,
				"y": -0.3445864474,
				"z": 2.2575555322,
				"element": "O" 
			},
			{
				"x": -0.4138029054,
				"y": -0.3217110219,
				"z": 0.1766666748,
				"element": "N" 
			},
			{
				"x": -0.4879246022,
				"y": -0.507125564,
				"z": -1.2945061805,
				"element": "C" 
			},
			{
				"x": 0.9689729387,
				"y": -0.3421661464,
				"z": -1.7845930117,
				"element": "C" 
			},
			{
				"x": 1.6576588451,
				"y": 0.3179678603,
				"z": -0.6123923413,
				"element": "C" 
			},
			{
				"x": 0.8291602515,
				"y": 0.2734309645,
				"z": 0.5177013932,
				"element": "C" 
			},
			{
				"x": 1.253356548,
				"y": 0.771228243,
				"z": 1.7515706077,
				"element": "C" 
			},
			{
				"x": 2.5348470816,
				"y": 1.328278238,
				"z": 1.8199791,
				"element": "C" 
			},
			{
				"x": 3.3663102187,
				"y": 1.3863810956,
				"z": 0.6994136233,
				"element": "C" 
			},
			{
				"x": 2.9273477542,
				"y": 0.8741488178,
				"z": -0.5272441802,
				"element": "C" 
			},
			{
				"x": -3.0359231225,
				"y": -0.7334604753,
				"z": -0.4417548608,
				"element": "H" 
			},
			{
				"x": -3.4660929783,
				"y": -1.1456728086,
				"z": 1.2452017155,
				"element": "H" 
			},
			{
				"x": -1.1342730025,
				"y": 0.2665071373,
				"z": -1.7280333946,
				"element": "H" 
			},
			{
				"x": -0.9034680956,
				"y": -1.4854156267,
				"z": -1.5374729554,
				"element": "H" 
			},
			{
				"x": 1.4215352047,
				"y": -1.3175169117,
				"z": -2.0023651924,
				"element": "H" 
			},
			{
				"x": 1.0184424113,
				"y": 0.249259678,
				"z": -2.7036577106,
				"element": "H" 
			},
			{
				"x": 0.6046513835,
				"y": 0.7216041552,
				"z": 2.6139694481,
				"element": "H" 
			},
			{
				"x": 2.8835588959,
				"y": 1.7252429811,
				"z": 2.7690015552,
				"element": "H" 
			},
			{
				"x": 4.3553710507,
				"y": 1.8273318605,
				"z": 0.7789756022,
				"element": "H" 
			},
			{
				"x": 3.571795672,
				"y": 0.9094567369,
				"z": -1.4016612749,
				"element": "H" 
			}
		],
		 "valence_orbital": [ 
			{
				"type": "occ",
				"energy": -0.30811,
				"method": "rhf"
			},
			{
				"type": "occ",
				"energy": -0.29879,
				"method": "rhf"
			},
			{
				"type": "occ",
				"energy": -0.25908,
				"method": "rhf"
			},
			{
				"type": "occ",
				"energy": -0.24886,
				"method": "rhf"
			},
			{
				"type": "occ",
				"energy": -0.21618,
				"method": "rhf"
			},
			{
				"type": "unocc",
				"energy": -0.03433,
				"method": "rhf"
			},
			{
				"type": "unocc",
				"energy": -0.00549,
				"method": "rhf"
			},
			{
				"type": "unocc",
				"energy": 0.01142,
				"method": "rhf"
			},
			{
				"type": "unocc",
				"energy": 0.0572,
				"method": "rhf"
			},
			{
				"type": "unocc",
				"energy": 0.08349,
				"method": "rhf"
			}
		],
		"cosmo_sigma_profile": { 
			"-0.025": 0.0,
			"-0.024": 0.0,
			"-0.023": 0.0,
			"-0.022": 0.0,
			"-0.021": 0.0,
			"-0.02": 0.0,
			"-0.019": 0.0,
			"-0.018": 0.0,
			"-0.017": 0.0,
			"-0.016": 0.0,
			"-0.015": 0.0,
			"-0.014": 0.0,
			"-0.013": 0.0,
			"-0.012": 0.0,
			"-0.011": 0.0,
			"-0.01": 0.169501288184,
			"-0.009": 3.16013274476,
			"-0.008": 4.21950430816,
			"-0.007": 5.14321261394,
			"-0.006": 10.3061881741,
			"-0.005": 21.8000354741,
			"-0.004": 20.1648886831,
			"-0.003": 19.1594489395,
			"-0.002": 13.5650893491,
			"-0.001": 12.0170980158,
			"0.0": 11.5770233564,
			"0.001": 12.9710888007,
			"0.002": 14.0590758207,
			"0.003": 14.7522443406,
			"0.004": 15.7272461192,
			"0.005": 18.8660947278,
			"0.006": 9.57067038301,
			"0.007": 1.09423349396,
			"0.008": 2.17158392331,
			"0.009": 2.1578714239,
			"0.01": 0.880655830355,
			"0.011": 2.26640217824,
			"0.012": 2.84206081117,
			"0.013": 2.38619866535,
			"0.014": 0.311092732474,
			"0.015": 0.0,
			"0.016": 0.0,
			"0.017": 0.0,
			"0.018": 0.0,
			"0.019": 0.0,
			"0.02": 0.0,
			"0.021": 0.0,
			"0.022": 0.0,
			"0.023": 0.0,
			"0.024": 0.0,
			"0.025": 0.0
		}
	}
}
