{
	 "smiles": "COC(=O)C1=CC(OC)=C(O)C(OC)=C1", 
	 "Tm": 379.15, 
	 "num_atms": 27, 
	 "gaussian": { 
		 "optdone": 1, 
		 "sigma_profile": "yes", 
		 "theory": "DFT", 
		 "functional": "B3LYP", 
		 "basiset": "6-31G**", 
		 "properties": { 
			 "R2extent": 4517.1466, 
			 "electric_dipole_moment_norm": 1.96117006147, 
			 "electric_quadrupole_moment_norm": 12.0607046171, 
			 "total_energy": -764.393016327, 
			 "HOMO_LUMO_gap": 0.1767, 
			 "cosmo_polarized_energy": -11.15, 
			 "cosmo_cavitation_energy": 31.18, 
			 "cosmo_dispersion_energy": -23.01, 
			 "cosmo_repulsion_energy": 1.81, 
			 "cosmo_total_nonelectrostatic_energy": 9.99, 
			 "SMD_solvation_energy": 8.77 
		},
		"coords": [
			{
				"x": -3.3088276942,
				"y": 1.5197978509,
				"z": 1.3093218186,
				"element": "C" 
			},
			{
				"x": -2.2073936516,
				"y": 0.603486735,
				"z": 1.3638882685,
				"element": "O" 
			},
			{
				"x": -1.4515271079,
				"y": 0.5443970939,
				"z": 0.2415207301,
				"element": "C" 
			},
			{
				"x": -1.6849048172,
				"y": 1.2180100702,
				"z": -0.7461648084,
				"element": "O" 
			},
			{
				"x": -0.3278324092,
				"y": -0.419277353,
				"z": 0.3558375346,
				"element": "C" 
			},
			{
				"x": -0.1002495167,
				"y": -1.1689997433,
				"z": 1.5080461864,
				"element": "C" 
			},
			{
				"x": 0.9689704926,
				"y": -2.0728774766,
				"z": 1.5899550562,
				"element": "C" 
			},
			{
				"x": 1.0614218521,
				"y": -2.7320115115,
				"z": 2.7803819075,
				"element": "O" 
			},
			{
				"x": 2.0872688986,
				"y": -3.6889006034,
				"z": 3.0428569053,
				"element": "C" 
			},
			{
				"x": 1.8187253037,
				"y": -2.2143997234,
				"z": 0.4802067761,
				"element": "C" 
			},
			{
				"x": 2.8812333293,
				"y": -3.0722208491,
				"z": 0.478607054,
				"element": "O" 
			},
			{
				"x": 1.5736336494,
				"y": -1.4458247419,
				"z": -0.6812868705,
				"element": "C" 
			},
			{
				"x": 2.488411624,
				"y": -1.6951582272,
				"z": -1.6780754497,
				"element": "O" 
			},
			{
				"x": 2.3531336079,
				"y": -0.9841227759,
				"z": -2.9014979554,
				"element": "C" 
			},
			{
				"x": 0.5173967749,
				"y": -0.5546303234,
				"z": -0.7584619675,
				"element": "C" 
			},
			{
				"x": -2.9554694651,
				"y": 2.5401121442,
				"z": 1.1386550548,
				"element": "H" 
			},
			{
				"x": -3.9976986531,
				"y": 1.2495647876,
				"z": 0.5046725565,
				"element": "H" 
			},
			{
				"x": -3.8036173785,
				"y": 1.4436407225,
				"z": 2.2777686524,
				"element": "H" 
			},
			{
				"x": -0.7462807213,
				"y": -1.0710307316,
				"z": 2.371156134,
				"element": "H" 
			},
			{
				"x": 2.0392130771,
				"y": -4.5364948987,
				"z": 2.3538794531,
				"element": "H" 
			},
			{
				"x": 3.0838386764,
				"y": -3.242469002,
				"z": 2.9884781455,
				"element": "H" 
			},
			{
				"x": 1.8958885605,
				"y": -4.0337654604,
				"z": 4.0610899318,
				"element": "H" 
			},
			{
				"x": 3.2987077497,
				"y": -2.9812674149,
				"z": -0.393184133,
				"element": "H" 
			},
			{
				"x": 2.4410806271,
				"y": 0.0972932062,
				"z": -2.7433737905,
				"element": "H" 
			},
			{
				"x": 3.1665628965,
				"y": -1.3257496583,
				"z": -3.5430345526,
				"element": "H" 
			},
			{
				"x": 1.3919001348,
				"y": -1.2013399592,
				"z": -3.3821824175,
				"element": "H" 
			},
			{
				"x": 0.3173141598,
				"y": 0.0400378432,
				"z": -1.6399602199,
				"element": "H" 
			}
		],
		 "valence_orbital": [ 
			{
				"type": "occ",
				"energy": -0.29998,
				"method": "rhf"
			},
			{
				"type": "occ",
				"energy": -0.29238,
				"method": "rhf"
			},
			{
				"type": "occ",
				"energy": -0.26531,
				"method": "rhf"
			},
			{
				"type": "occ",
				"energy": -0.21971,
				"method": "rhf"
			},
			{
				"type": "occ",
				"energy": -0.20678,
				"method": "rhf"
			},
			{
				"type": "unocc",
				"energy": -0.03008,
				"method": "rhf"
			},
			{
				"type": "unocc",
				"energy": 0.01442,
				"method": "rhf"
			},
			{
				"type": "unocc",
				"energy": 0.06683,
				"method": "rhf"
			},
			{
				"type": "unocc",
				"energy": 0.07645,
				"method": "rhf"
			},
			{
				"type": "unocc",
				"energy": 0.09731,
				"method": "rhf"
			}
		],
		"cosmo_sigma_profile": { 
			"-0.025": 0.0,
			"-0.024": 0.0,
			"-0.023": 0.0,
			"-0.022": 0.0,
			"-0.021": 0.0,
			"-0.02": 0.0,
			"-0.019": 0.0,
			"-0.018": 0.0,
			"-0.017": 0.0,
			"-0.016": 0.0,
			"-0.015": 0.0,
			"-0.014": 0.392532185815,
			"-0.013": 0.690864649356,
			"-0.012": 0.847991041142,
			"-0.011": 0.0930357006871,
			"-0.01": 0.229934807133,
			"-0.009": 0.760047626948,
			"-0.008": 0.887534808869,
			"-0.007": 2.00543199112,
			"-0.006": 13.9074071825,
			"-0.005": 21.0318713807,
			"-0.004": 24.9967132833,
			"-0.003": 25.6417698075,
			"-0.002": 18.4760712813,
			"-0.001": 13.5015113937,
			"0.0": 14.7377000111,
			"0.001": 17.8136780542,
			"0.002": 19.8243391711,
			"0.003": 19.9670830065,
			"0.004": 12.9250905311,
			"0.005": 8.11823144753,
			"0.006": 7.90675524845,
			"0.007": 5.36259094108,
			"0.008": 2.901584549,
			"0.009": 3.19696078428,
			"0.01": 2.74498609238,
			"0.011": 2.72948825147,
			"0.012": 4.49388436424,
			"0.013": 1.15571848029,
			"0.014": 0.0,
			"0.015": 0.0,
			"0.016": 0.0,
			"0.017": 0.0,
			"0.018": 0.0,
			"0.019": 0.0,
			"0.02": 0.0,
			"0.021": 0.0,
			"0.022": 0.0,
			"0.023": 0.0,
			"0.024": 0.0,
			"0.025": 0.0
		}
	}
}
