{
	 "smiles": "CC1=NOC(N)=C1C", 
	 "Tm": 393.15, 
	 "num_atms": 16, 
	 "gaussian": { 
		 "optdone": 1, 
		 "sigma_profile": "yes", 
		 "theory": "DFT", 
		 "functional": "B3LYP", 
		 "basiset": "6-31G**", 
		 "properties": { 
			 "R2extent": 2004.9878, 
			 "electric_dipole_moment_norm": 3.73115912285, 
			 "electric_quadrupole_moment_norm": 19.831655059, 
			 "total_energy": -380.04100875, 
			 "HOMO_LUMO_gap": 0.22799, 
			 "cosmo_polarized_energy": -12.47, 
			 "cosmo_cavitation_energy": 19.82, 
			 "cosmo_dispersion_energy": -14.64, 
			 "cosmo_repulsion_energy": 1.24, 
			 "cosmo_total_nonelectrostatic_energy": 6.42, 
			 "SMD_solvation_energy": 3.66 
		},
		"coords": [
			{
				"x": 1.2507363807,
				"y": -0.6885123514,
				"z": -1.6912190649,
				"element": "C" 
			},
			{
				"x": -0.0864214848,
				"y": -0.1205670158,
				"z": -2.054833362,
				"element": "C" 
			},
			{
				"x": -0.7396825811,
				"y": -0.6155468569,
				"z": -3.0836055478,
				"element": "N" 
			},
			{
				"x": -1.9421268055,
				"y": 0.1374436305,
				"z": -3.1454237085,
				"element": "O" 
			},
			{
				"x": -1.9332614196,
				"y": 1.0437747243,
				"z": -2.1535356066,
				"element": "C" 
			},
			{
				"x": -3.0094748764,
				"y": 1.9063089217,
				"z": -2.104271818,
				"element": "N" 
			},
			{
				"x": -0.7841541825,
				"y": 0.948000124,
				"z": -1.4107147119,
				"element": "C" 
			},
			{
				"x": -0.3623393951,
				"y": 1.7687115399,
				"z": -0.2300708738,
				"element": "C" 
			},
			{
				"x": 1.237930726,
				"y": -1.1115774729,
				"z": -0.6806832312,
				"element": "H" 
			},
			{
				"x": 1.5259228162,
				"y": -1.4761041118,
				"z": -2.3956086331,
				"element": "H" 
			},
			{
				"x": 2.0255568849,
				"y": 0.085922818,
				"z": -1.712928001,
				"element": "H" 
			},
			{
				"x": -3.2612776321,
				"y": 2.2119481452,
				"z": -1.1744941822,
				"element": "H" 
			},
			{
				"x": -3.8085233282,
				"y": 1.5872270904,
				"z": -2.6366722778,
				"element": "H" 
			},
			{
				"x": 0.7050754546,
				"y": 2.0106430447,
				"z": -0.2752372591,
				"element": "H" 
			},
			{
				"x": -0.5359157331,
				"y": 1.2585650936,
				"z": 0.7266126835,
				"element": "H" 
			},
			{
				"x": -0.902144824,
				"y": 2.7212626765,
				"z": -0.1977144056,
				"element": "H" 
			}
		],
		 "valence_orbital": [ 
			{
				"type": "occ",
				"energy": -0.36442,
				"method": "rhf"
			},
			{
				"type": "occ",
				"energy": -0.32926,
				"method": "rhf"
			},
			{
				"type": "occ",
				"energy": -0.28581,
				"method": "rhf"
			},
			{
				"type": "occ",
				"energy": -0.26693,
				"method": "rhf"
			},
			{
				"type": "occ",
				"energy": -0.20654,
				"method": "rhf"
			},
			{
				"type": "unocc",
				"energy": 0.02145,
				"method": "rhf"
			},
			{
				"type": "unocc",
				"energy": 0.05741,
				"method": "rhf"
			},
			{
				"type": "unocc",
				"energy": 0.083,
				"method": "rhf"
			},
			{
				"type": "unocc",
				"energy": 0.09429,
				"method": "rhf"
			},
			{
				"type": "unocc",
				"energy": 0.11906,
				"method": "rhf"
			}
		],
		"cosmo_sigma_profile": { 
			"-0.025": 0.0,
			"-0.024": 0.0,
			"-0.023": 0.0,
			"-0.022": 0.0,
			"-0.021": 0.0,
			"-0.02": 0.0,
			"-0.019": 0.0,
			"-0.018": 0.0,
			"-0.017": 0.0,
			"-0.016": 0.0,
			"-0.015": 0.00866805753779,
			"-0.014": 1.23478503589,
			"-0.013": 2.60732237086,
			"-0.012": 2.55571840482,
			"-0.011": 2.13102395266,
			"-0.01": 2.89842615974,
			"-0.009": 2.53711065118,
			"-0.008": 2.14680476012,
			"-0.007": 2.11600692875,
			"-0.006": 2.23699506077,
			"-0.005": 6.43747356821,
			"-0.004": 13.3210031218,
			"-0.003": 12.3062340407,
			"-0.002": 15.9685964728,
			"-0.001": 16.5323662725,
			"0.0": 13.1361122442,
			"0.001": 5.81117183098,
			"0.002": 5.58892358641,
			"0.003": 6.8916974545,
			"0.004": 7.84848648985,
			"0.005": 3.48144995024,
			"0.006": 2.27680372689,
			"0.007": 3.06779482893,
			"0.008": 3.30160289398,
			"0.009": 5.68987282245,
			"0.01": 3.44571381271,
			"0.011": 2.20822209384,
			"0.012": 2.70375489091,
			"0.013": 2.01486234215,
			"0.014": 1.25830692139,
			"0.015": 1.49421667832,
			"0.016": 0.781605804046,
			"0.017": 0.0232680339422,
			"0.018": 0.0,
			"0.019": 0.0,
			"0.02": 0.0,
			"0.021": 0.0,
			"0.022": 0.0,
			"0.023": 0.0,
			"0.024": 0.0,
			"0.025": 0.0
		}
	}
}
