{
	 "smiles": "COC(=O)C1=CC=CC=C1C(=O)OC", 
	 "Tm": 276.9, 
	 "num_atms": 24, 
	 "gaussian": { 
		 "optdone": 1, 
		 "sigma_profile": "yes", 
		 "theory": "DFT", 
		 "functional": "B3LYP", 
		 "basiset": "6-31G**", 
		 "properties": { 
			 "R2extent": 2979.4256, 
			 "electric_dipole_moment_norm": 3.19577907403, 
			 "electric_quadrupole_moment_norm": 11.2583011956, 
			 "total_energy": -687.997043849, 
			 "HOMO_LUMO_gap": 0.20261, 
			 "cosmo_polarized_energy": -11.95, 
			 "cosmo_cavitation_energy": 29.02, 
			 "cosmo_dispersion_energy": -20.51, 
			 "cosmo_repulsion_energy": 1.64, 
			 "cosmo_total_nonelectrostatic_energy": 10.14, 
			 "SMD_solvation_energy": 7.88 
		},
		"coords": [
			{
				"x": 3.1817428975,
				"y": 0.8159215199,
				"z": -2.4796435686,
				"element": "C" 
			},
			{
				"x": 2.64887755,
				"y": 0.1654348787,
				"z": -1.3150046108,
				"element": "O" 
			},
			{
				"x": 1.3616448436,
				"y": 0.4662856689,
				"z": -1.0288776198,
				"element": "C" 
			},
			{
				"x": 0.6990383172,
				"y": 1.2420361211,
				"z": -1.68724161,
				"element": "O" 
			},
			{
				"x": 0.8559233132,
				"y": -0.3042967941,
				"z": 0.148129393,
				"element": "C" 
			},
			{
				"x": 1.402141159,
				"y": -1.559379912,
				"z": 0.447393814,
				"element": "C" 
			},
			{
				"x": 0.8511051019,
				"y": -2.3536782102,
				"z": 1.4517753137,
				"element": "C" 
			},
			{
				"x": -0.2635923948,
				"y": -1.9045480777,
				"z": 2.1603766765,
				"element": "C" 
			},
			{
				"x": -0.8117305063,
				"y": -0.6546590132,
				"z": 1.8737536025,
				"element": "C" 
			},
			{
				"x": -0.2503747274,
				"y": 0.160982914,
				"z": 0.8872486721,
				"element": "C" 
			},
			{
				"x": -0.8697745029,
				"y": 1.5158233335,
				"z": 0.7006530863,
				"element": "C" 
			},
			{
				"x": -2.0640419823,
				"y": 1.7047010727,
				"z": 0.6078584098,
				"element": "O" 
			},
			{
				"x": 0.0509033724,
				"y": 2.4973040007,
				"z": 0.7514835767,
				"element": "O" 
			},
			{
				"x": -0.4508846705,
				"y": 3.8186390384,
				"z": 0.4955740554,
				"element": "C" 
			},
			{
				"x": 3.15803287,
				"y": 1.9014205072,
				"z": -2.3565434805,
				"element": "H" 
			},
			{
				"x": 2.6037494678,
				"y": 0.5502549671,
				"z": -3.3684120176,
				"element": "H" 
			},
			{
				"x": 4.2089047516,
				"y": 0.4627049962,
				"z": -2.5691660887,
				"element": "H" 
			},
			{
				"x": 2.2500277111,
				"y": -1.9124208878,
				"z": -0.1280602445,
				"element": "H" 
			},
			{
				"x": 1.2833985907,
				"y": -3.3256353,
				"z": 1.6696841188,
				"element": "H" 
			},
			{
				"x": -0.7061257704,
				"y": -2.523976089,
				"z": 2.9347924903,
				"element": "H" 
			},
			{
				"x": -1.6777432989,
				"y": -0.2918268535,
				"z": 2.417510154,
				"element": "H" 
			},
			{
				"x": -0.8167126252,
				"y": 3.8865459305,
				"z": -0.5320950801,
				"element": "H" 
			},
			{
				"x": 0.3960343418,
				"y": 4.4886111291,
				"z": 0.6433880706,
				"element": "H" 
			},
			{
				"x": -1.2631438091,
				"y": 4.0643550593,
				"z": 1.1835228872,
				"element": "H" 
			}
		],
		 "valence_orbital": [ 
			{
				"type": "occ",
				"energy": -0.29269,
				"method": "rhf"
			},
			{
				"type": "occ",
				"energy": -0.28089,
				"method": "rhf"
			},
			{
				"type": "occ",
				"energy": -0.27684,
				"method": "rhf"
			},
			{
				"type": "occ",
				"energy": -0.26461,
				"method": "rhf"
			},
			{
				"type": "occ",
				"energy": -0.256,
				"method": "rhf"
			},
			{
				"type": "unocc",
				"energy": -0.05339,
				"method": "rhf"
			},
			{
				"type": "unocc",
				"energy": -0.02504,
				"method": "rhf"
			},
			{
				"type": "unocc",
				"energy": 0.03269,
				"method": "rhf"
			},
			{
				"type": "unocc",
				"energy": 0.04808,
				"method": "rhf"
			},
			{
				"type": "unocc",
				"energy": 0.08943,
				"method": "rhf"
			}
		],
		"cosmo_sigma_profile": { 
			"-0.025": 0.0,
			"-0.024": 0.0,
			"-0.023": 0.0,
			"-0.022": 0.0,
			"-0.021": 0.0,
			"-0.02": 0.0,
			"-0.019": 0.0,
			"-0.018": 0.0,
			"-0.017": 0.0,
			"-0.016": 0.0,
			"-0.015": 0.0,
			"-0.014": 0.0,
			"-0.013": 0.0,
			"-0.012": 0.0,
			"-0.011": 0.0,
			"-0.01": 0.0,
			"-0.009": 0.0,
			"-0.008": 0.2430602054,
			"-0.007": 7.39713973608,
			"-0.006": 18.3418656192,
			"-0.005": 21.3436819,
			"-0.004": 22.6213940112,
			"-0.003": 23.7983036343,
			"-0.002": 14.4075695246,
			"-0.001": 12.2568562517,
			"0.0": 12.7561183874,
			"0.001": 14.6393851073,
			"0.002": 19.7945296929,
			"0.003": 15.0726303567,
			"0.004": 6.92054328026,
			"0.005": 6.07810615613,
			"0.006": 7.21447496539,
			"0.007": 5.30844716479,
			"0.008": 4.11839197384,
			"0.009": 3.41351323946,
			"0.01": 4.09546884862,
			"0.011": 6.74587803225,
			"0.012": 4.49010624138,
			"0.013": 0.334979999109,
			"0.014": 0.0,
			"0.015": 0.0,
			"0.016": 0.0,
			"0.017": 0.0,
			"0.018": 0.0,
			"0.019": 0.0,
			"0.02": 0.0,
			"0.021": 0.0,
			"0.022": 0.0,
			"0.023": 0.0,
			"0.024": 0.0,
			"0.025": 0.0
		}
	}
}
