{
	 "smiles": "CCCCNC1=CC=CC=C1", 
	 "Tm": 261.15, 
	 "num_atms": 26, 
	 "gaussian": { 
		 "optdone": 1, 
		 "sigma_profile": "yes", 
		 "theory": "DFT", 
		 "functional": "B3LYP", 
		 "basiset": "6-31G**", 
		 "properties": { 
			 "R2extent": 2383.3729, 
			 "electric_dipole_moment_norm": 1.71031121729, 
			 "electric_quadrupole_moment_norm": 5.24047153127, 
			 "total_energy": -444.863896189, 
			 "HOMO_LUMO_gap": 0.19793, 
			 "cosmo_polarized_energy": -6.19, 
			 "cosmo_cavitation_energy": 27.79, 
			 "cosmo_dispersion_energy": -19.98, 
			 "cosmo_repulsion_energy": 1.63, 
			 "cosmo_total_nonelectrostatic_energy": 9.44, 
			 "SMD_solvation_energy": 4.49 
		},
		"coords": [
			{
				"x": 0.2922198857,
				"y": -0.6108675002,
				"z": 3.378473963,
				"element": "C" 
			},
			{
				"x": 1.7237239356,
				"y": -0.6088385924,
				"z": 2.827943652,
				"element": "C" 
			},
			{
				"x": 1.8450339994,
				"y": -0.6536837502,
				"z": 1.2942636688,
				"element": "C" 
			},
			{
				"x": 1.4912898864,
				"y": 0.6500098234,
				"z": 0.5532746381,
				"element": "C" 
			},
			{
				"x": 0.073029275,
				"y": 0.9834180591,
				"z": 0.5210287503,
				"element": "N" 
			},
			{
				"x": -0.7936324207,
				"y": 0.5553153113,
				"z": -0.4775771407,
				"element": "C" 
			},
			{
				"x": -2.0631210747,
				"y": 1.1595575226,
				"z": -0.5956056094,
				"element": "C" 
			},
			{
				"x": -2.9628514759,
				"y": 0.7450645419,
				"z": -1.5705636562,
				"element": "C" 
			},
			{
				"x": -2.6314668939,
				"y": -0.2825877916,
				"z": -2.4593842775,
				"element": "C" 
			},
			{
				"x": -1.3793178205,
				"y": -0.8855848531,
				"z": -2.34770922,
				"element": "C" 
			},
			{
				"x": -0.4657532668,
				"y": -0.4808595501,
				"z": -1.3732718074,
				"element": "C" 
			},
			{
				"x": -0.2702191486,
				"y": 0.2680855376,
				"z": 3.0550196475,
				"element": "H" 
			},
			{
				"x": -0.2586331629,
				"y": -1.4920159419,
				"z": 3.0307520551,
				"element": "H" 
			},
			{
				"x": 0.2968242308,
				"y": -0.6312065328,
				"z": 4.4738427927,
				"element": "H" 
			},
			{
				"x": 2.2632283233,
				"y": 0.2730941603,
				"z": 3.2029963539,
				"element": "H" 
			},
			{
				"x": 2.2563923414,
				"y": -1.4774984213,
				"z": 3.2362563708,
				"element": "H" 
			},
			{
				"x": 2.8850281492,
				"y": -0.8943816559,
				"z": 1.0343688477,
				"element": "H" 
			},
			{
				"x": 1.2317025856,
				"y": -1.4739407923,
				"z": 0.9008001922,
				"element": "H" 
			},
			{
				"x": 2.0131674211,
				"y": 1.4830054005,
				"z": 1.0393713727,
				"element": "H" 
			},
			{
				"x": 1.8842500717,
				"y": 0.5980492219,
				"z": -0.4729835188,
				"element": "H" 
			},
			{
				"x": -0.1755275244,
				"y": 1.8679477785,
				"z": 0.936083143,
				"element": "H" 
			},
			{
				"x": -2.3346366667,
				"y": 1.9604843792,
				"z": 0.089085481,
				"element": "H" 
			},
			{
				"x": -3.9321645792,
				"y": 1.2320316458,
				"z": -1.6380997462,
				"element": "H" 
			},
			{
				"x": -3.3359231922,
				"y": -0.6050007288,
				"z": -3.2195442263,
				"element": "H" 
			},
			{
				"x": -1.1008480604,
				"y": -1.6872809152,
				"z": -3.0268354679,
				"element": "H" 
			},
			{
				"x": 0.4965051815,
				"y": -0.9761163561,
				"z": -1.3087862585,
				"element": "H" 
			}
		],
		 "valence_orbital": [ 
			{
				"type": "occ",
				"energy": -0.32477,
				"method": "rhf"
			},
			{
				"type": "occ",
				"energy": -0.32262,
				"method": "rhf"
			},
			{
				"type": "occ",
				"energy": -0.28186,
				"method": "rhf"
			},
			{
				"type": "occ",
				"energy": -0.23841,
				"method": "rhf"
			},
			{
				"type": "occ",
				"energy": -0.18771,
				"method": "rhf"
			},
			{
				"type": "unocc",
				"energy": 0.01022,
				"method": "rhf"
			},
			{
				"type": "unocc",
				"energy": 0.02668,
				"method": "rhf"
			},
			{
				"type": "unocc",
				"energy": 0.07562,
				"method": "rhf"
			},
			{
				"type": "unocc",
				"energy": 0.09977,
				"method": "rhf"
			},
			{
				"type": "unocc",
				"energy": 0.10381,
				"method": "rhf"
			}
		],
		"cosmo_sigma_profile": { 
			"-0.025": 0.0,
			"-0.024": 0.0,
			"-0.023": 0.0,
			"-0.022": 0.0,
			"-0.021": 0.0,
			"-0.02": 0.0,
			"-0.019": 0.0,
			"-0.018": 0.0,
			"-0.017": 0.0,
			"-0.016": 0.0,
			"-0.015": 0.0,
			"-0.014": 0.0,
			"-0.013": 0.12478673749,
			"-0.012": 0.830674705852,
			"-0.011": 1.36151371386,
			"-0.01": 1.19508200856,
			"-0.009": 1.66902692378,
			"-0.008": 1.29786781132,
			"-0.007": 1.53842363985,
			"-0.006": 2.47493643872,
			"-0.005": 7.38066833664,
			"-0.004": 13.2809882873,
			"-0.003": 18.1156011332,
			"-0.002": 29.4027598023,
			"-0.001": 27.0383278572,
			"0.0": 24.5660157059,
			"0.001": 23.2698796992,
			"0.002": 14.893509895,
			"0.003": 7.96899846795,
			"0.004": 8.59000379457,
			"0.005": 8.04084276837,
			"0.006": 9.00087172411,
			"0.007": 9.64026291367,
			"0.008": 5.74480169893,
			"0.009": 0.057425189264,
			"0.01": 0.0,
			"0.011": 0.0,
			"0.012": 0.0,
			"0.013": 0.0,
			"0.014": 0.0,
			"0.015": 0.0,
			"0.016": 0.0,
			"0.017": 0.0,
			"0.018": 0.0,
			"0.019": 0.0,
			"0.02": 0.0,
			"0.021": 0.0,
			"0.022": 0.0,
			"0.023": 0.0,
			"0.024": 0.0,
			"0.025": 0.0
		}
	}
}
