{
	 "smiles": "OC(=O)CN1C(=O)CNC1=O", 
	 "Tm": 459.15, 
	 "num_atms": 17, 
	 "gaussian": { 
		 "optdone": 1, 
		 "sigma_profile": "yes", 
		 "theory": "DFT", 
		 "functional": "B3LYP", 
		 "basiset": "6-31G**", 
		 "properties": { 
			 "R2extent": 2713.9277, 
			 "electric_dipole_moment_norm": 3.89857540776, 
			 "electric_quadrupole_moment_norm": 13.8071596916, 
			 "total_energy": -604.592134889, 
			 "HOMO_LUMO_gap": 0.25207, 
			 "cosmo_polarized_energy": -19.99, 
			 "cosmo_cavitation_energy": 22.43, 
			 "cosmo_dispersion_energy": -16.19, 
			 "cosmo_repulsion_energy": 1.35, 
			 "cosmo_total_nonelectrostatic_energy": 7.59, 
			 "SMD_solvation_energy": 6.0 
		},
		"coords": [
			{
				"x": -1.5430347657,
				"y": 2.8340679271,
				"z": -0.3495726667,
				"element": "O" 
			},
			{
				"x": -2.7128605534,
				"y": 2.2730479152,
				"z": 0.0176646537,
				"element": "C" 
			},
			{
				"x": -3.587519231,
				"y": 2.8616888772,
				"z": 0.6079319433,
				"element": "O" 
			},
			{
				"x": -2.8376610504,
				"y": 0.8114520389,
				"z": -0.4004283595,
				"element": "C" 
			},
			{
				"x": -1.6569317056,
				"y": 0.23302719,
				"z": -0.9922681351,
				"element": "N" 
			},
			{
				"x": -0.5795698725,
				"y": -0.2495070789,
				"z": -0.2734189285,
				"element": "C" 
			},
			{
				"x": -0.4942556797,
				"y": -0.3284467079,
				"z": 0.9334802243,
				"element": "O" 
			},
			{
				"x": 0.4665793266,
				"y": -0.6635602915,
				"z": -1.3146389675,
				"element": "C" 
			},
			{
				"x": -0.2080454806,
				"y": -0.3769693155,
				"z": -2.5654241917,
				"element": "N" 
			},
			{
				"x": -1.4326847391,
				"y": 0.2133370285,
				"z": -2.3907361703,
				"element": "C" 
			},
			{
				"x": -2.2052031646,
				"y": 0.6270806593,
				"z": -3.2303507994,
				"element": "O" 
			},
			{
				"x": -1.5766068966,
				"y": 3.7554549524,
				"z": -0.0412148386,
				"element": "H" 
			},
			{
				"x": -3.6507325266,
				"y": 0.7474290166,
				"z": -1.1283341626,
				"element": "H" 
			},
			{
				"x": -3.1147880962,
				"y": 0.2414054545,
				"z": 0.489488834,
				"element": "H" 
			},
			{
				"x": 0.716274608,
				"y": -1.7235719575,
				"z": -1.1919586379,
				"element": "H" 
			},
			{
				"x": 1.3795314053,
				"y": -0.0735727824,
				"z": -1.1676088252,
				"element": "H" 
			},
			{
				"x": 0.226408422,
				"y": -0.3802629258,
				"z": -3.4741109722,
				"element": "H" 
			}
		],
		 "valence_orbital": [ 
			{
				"type": "occ",
				"energy": -0.30789,
				"method": "rhf"
			},
			{
				"type": "occ",
				"energy": -0.29642,
				"method": "rhf"
			},
			{
				"type": "occ",
				"energy": -0.2805,
				"method": "rhf"
			},
			{
				"type": "occ",
				"energy": -0.27278,
				"method": "rhf"
			},
			{
				"type": "occ",
				"energy": -0.26787,
				"method": "rhf"
			},
			{
				"type": "unocc",
				"energy": -0.0158,
				"method": "rhf"
			},
			{
				"type": "unocc",
				"energy": 0.0011,
				"method": "rhf"
			},
			{
				"type": "unocc",
				"energy": 0.05068,
				"method": "rhf"
			},
			{
				"type": "unocc",
				"energy": 0.06719,
				"method": "rhf"
			},
			{
				"type": "unocc",
				"energy": 0.07447,
				"method": "rhf"
			}
		],
		"cosmo_sigma_profile": { 
			"-0.025": 0.0,
			"-0.024": 0.0,
			"-0.023": 0.0,
			"-0.022": 0.0,
			"-0.021": 0.0,
			"-0.02": 0.0573675871767,
			"-0.019": 0.677950619402,
			"-0.018": 0.840010785364,
			"-0.017": 1.19579313293,
			"-0.016": 1.07214149991,
			"-0.015": 1.77498847024,
			"-0.014": 1.78322394363,
			"-0.013": 2.82344944253,
			"-0.012": 1.4505979488,
			"-0.011": 1.36912614394,
			"-0.01": 1.2215174097,
			"-0.009": 3.90650247128,
			"-0.008": 10.3341993842,
			"-0.007": 10.4102369842,
			"-0.006": 11.8370107989,
			"-0.005": 10.7471535061,
			"-0.004": 7.87977714844,
			"-0.003": 8.56766157284,
			"-0.002": 6.56065506882,
			"-0.001": 6.55345695765,
			"0.0": 5.93920843204,
			"0.001": 6.44050312814,
			"0.002": 5.8130680802,
			"0.003": 6.41999731793,
			"0.004": 7.04541778462,
			"0.005": 6.23682926393,
			"0.006": 5.18081391284,
			"0.007": 3.49680802943,
			"0.008": 2.96325976358,
			"0.009": 4.09883919574,
			"0.01": 6.86733639487,
			"0.011": 11.2721792947,
			"0.012": 11.3027251101,
			"0.013": 3.64182089631,
			"0.014": 0.179886529462,
			"0.015": 0.0,
			"0.016": 0.0,
			"0.017": 0.0,
			"0.018": 0.0,
			"0.019": 0.0,
			"0.02": 0.0,
			"0.021": 0.0,
			"0.022": 0.0,
			"0.023": 0.0,
			"0.024": 0.0,
			"0.025": 0.0
		}
	}
}
