{
	 "smiles": "CCC1(CC)C(=O)NC(=O)NC1=O", 
	 "Tm": 463.15, 
	 "num_atms": 25, 
	 "gaussian": { 
		 "optdone": 1, 
		 "sigma_profile": "yes", 
		 "theory": "DFT", 
		 "functional": "B3LYP", 
		 "basiset": "6-31G**", 
		 "properties": { 
			 "R2extent": 2739.1958, 
			 "electric_dipole_moment_norm": 1.02628850719, 
			 "electric_quadrupole_moment_norm": 6.52152592113, 
			 "total_energy": -647.320836397, 
			 "HOMO_LUMO_gap": 0.21986, 
			 "cosmo_polarized_energy": -14.76, 
			 "cosmo_cavitation_energy": 27.18, 
			 "cosmo_dispersion_energy": -19.74, 
			 "cosmo_repulsion_energy": 1.56, 
			 "cosmo_total_nonelectrostatic_energy": 9.0, 
			 "SMD_solvation_energy": 6.72 
		},
		"coords": [
			{
				"x": -1.7261377748,
				"y": 3.6442678447,
				"z": 0.1073430774,
				"element": "C" 
			},
			{
				"x": -1.6725341986,
				"y": 2.1588162656,
				"z": 0.4793869553,
				"element": "C" 
			},
			{
				"x": -0.3285079843,
				"y": 1.4076778926,
				"z": 0.2308682842,
				"element": "C" 
			},
			{
				"x": 0.2490740284,
				"y": 1.6461960487,
				"z": -1.2136559366,
				"element": "C" 
			},
			{
				"x": -0.6815571033,
				"y": 1.2947393643,
				"z": -2.3776177922,
				"element": "C" 
			},
			{
				"x": 0.7600615811,
				"y": 1.917224616,
				"z": 1.184227029,
				"element": "C" 
			},
			{
				"x": 0.9913273678,
				"y": 3.0986517431,
				"z": 1.3637141486,
				"element": "O" 
			},
			{
				"x": 1.5538803833,
				"y": 0.9630064914,
				"z": 1.8136702038,
				"element": "N" 
			},
			{
				"x": 1.4262555203,
				"y": -0.4191831387,
				"z": 1.7810655828,
				"element": "C" 
			},
			{
				"x": 2.1759425299,
				"y": -1.168315807,
				"z": 2.372673671,
				"element": "O" 
			},
			{
				"x": 0.3548026054,
				"y": -0.8647668188,
				"z": 1.018076693,
				"element": "N" 
			},
			{
				"x": -0.6071499745,
				"y": -0.0963582154,
				"z": 0.3703078386,
				"element": "C" 
			},
			{
				"x": -1.5887349617,
				"y": -0.6370369005,
				"z": -0.105129179,
				"element": "O" 
			},
			{
				"x": -2.7244949478,
				"y": 4.0329268468,
				"z": 0.3334585992,
				"element": "H" 
			},
			{
				"x": -1.5504596895,
				"y": 3.806906128,
				"z": -0.9605469448,
				"element": "H" 
			},
			{
				"x": -0.992033356,
				"y": 4.2269938675,
				"z": 0.6641833798,
				"element": "H" 
			},
			{
				"x": -1.9263377433,
				"y": 2.0442780236,
				"z": 1.5408619083,
				"element": "H" 
			},
			{
				"x": -2.4369085012,
				"y": 1.6067015642,
				"z": -0.0727683131,
				"element": "H" 
			},
			{
				"x": 0.5324964712,
				"y": 2.7017859107,
				"z": -1.2606643976,
				"element": "H" 
			},
			{
				"x": 1.1809106852,
				"y": 1.073384323,
				"z": -1.3057383043,
				"element": "H" 
			},
			{
				"x": -0.9811932435,
				"y": 0.2448260295,
				"z": -2.3615869677,
				"element": "H" 
			},
			{
				"x": -0.1647525781,
				"y": 1.490014133,
				"z": -3.3227034128,
				"element": "H" 
			},
			{
				"x": -1.5922670004,
				"y": 1.8995883094,
				"z": -2.3672080659,
				"element": "H" 
			},
			{
				"x": 2.305871636,
				"y": 1.3177176734,
				"z": 2.3932164919,
				"element": "H" 
			},
			{
				"x": 0.1868462485,
				"y": -1.863842195,
				"z": 1.046065451,
				"element": "H" 
			}
		],
		 "valence_orbital": [ 
			{
				"type": "occ",
				"energy": -0.31431,
				"method": "rhf"
			},
			{
				"type": "occ",
				"energy": -0.30431,
				"method": "rhf"
			},
			{
				"type": "occ",
				"energy": -0.30163,
				"method": "rhf"
			},
			{
				"type": "occ",
				"energy": -0.28914,
				"method": "rhf"
			},
			{
				"type": "occ",
				"energy": -0.26736,
				"method": "rhf"
			},
			{
				"type": "unocc",
				"energy": -0.0475,
				"method": "rhf"
			},
			{
				"type": "unocc",
				"energy": -0.00948,
				"method": "rhf"
			},
			{
				"type": "unocc",
				"energy": 0.0537,
				"method": "rhf"
			},
			{
				"type": "unocc",
				"energy": 0.07102,
				"method": "rhf"
			},
			{
				"type": "unocc",
				"energy": 0.0847,
				"method": "rhf"
			}
		],
		"cosmo_sigma_profile": { 
			"-0.025": 0.0,
			"-0.024": 0.0,
			"-0.023": 0.0,
			"-0.022": 0.0,
			"-0.021": 0.0,
			"-0.02": 0.0,
			"-0.019": 0.0,
			"-0.018": 0.0,
			"-0.017": 0.242272830555,
			"-0.016": 1.89423855191,
			"-0.015": 1.5543251378,
			"-0.014": 2.23979338297,
			"-0.013": 0.937885787308,
			"-0.012": 0.618398386241,
			"-0.011": 2.38725674187,
			"-0.01": 2.79056767309,
			"-0.009": 2.56555976762,
			"-0.008": 3.75763397015,
			"-0.007": 4.23038265792,
			"-0.006": 5.89626386478,
			"-0.005": 6.89006726989,
			"-0.004": 13.4607681166,
			"-0.003": 23.119613778,
			"-0.002": 23.1817428502,
			"-0.001": 20.488192819,
			"0.0": 16.1006708683,
			"0.001": 15.7291858937,
			"0.002": 8.3577692128,
			"0.003": 4.29603278197,
			"0.004": 4.70862593591,
			"0.005": 5.17836866857,
			"0.006": 3.86932094234,
			"0.007": 3.05004257926,
			"0.008": 3.99738722164,
			"0.009": 5.25579411299,
			"0.01": 6.14573515354,
			"0.011": 12.5139161917,
			"0.012": 7.42289238036,
			"0.013": 0.0747067079515,
			"0.014": 0.0,
			"0.015": 0.0,
			"0.016": 0.0,
			"0.017": 0.0,
			"0.018": 0.0,
			"0.019": 0.0,
			"0.02": 0.0,
			"0.021": 0.0,
			"0.022": 0.0,
			"0.023": 0.0,
			"0.024": 0.0,
			"0.025": 0.0
		}
	}
}
