{
	 "smiles": "CCCCCCCCCCCCCCCCCC(=O)NC(CO)C(O)C=CCCCCCCCCCCCCC", 
	 "Tm": 373.15, 
	 "num_atms": 111, 
	 "gaussian": { 
		 "optdone": 1, 
		 "sigma_profile": "yes", 
		 "theory": "DFT", 
		 "functional": "B3LYP", 
		 "basiset": "6-31G**", 
		 "properties": { 
			 "R2extent": 33033.1597, 
			 "electric_dipole_moment_norm": 5.96977183986, 
			 "electric_quadrupole_moment_norm": 21.7129828091, 
			 "total_energy": -1695.12769795, 
			 "HOMO_LUMO_gap": 0.24296, 
			 "cosmo_polarized_energy": -16.77, 
			 "cosmo_cavitation_energy": 104.06, 
			 "cosmo_dispersion_energy": -56.59, 
			 "cosmo_repulsion_energy": 4.42, 
			 "cosmo_total_nonelectrostatic_energy": 51.89, 
			 "SMD_solvation_energy": 13.16 
		},
		"coords": [
			{
				"x": 3.7325254464,
				"y": -8.3809308473,
				"z": -1.7300130312,
				"element": "C" 
			},
			{
				"x": 2.2862349957,
				"y": -7.9122630049,
				"z": -1.9219560579,
				"element": "C" 
			},
			{
				"x": 2.1528086494,
				"y": -6.7976752384,
				"z": -2.9688673524,
				"element": "C" 
			},
			{
				"x": 0.7071304611,
				"y": -6.3568755099,
				"z": -3.2593751726,
				"element": "C" 
			},
			{
				"x": -0.0633280538,
				"y": -5.7324659628,
				"z": -2.0811370655,
				"element": "C" 
			},
			{
				"x": 0.5306022448,
				"y": -4.4155770863,
				"z": -1.5602972678,
				"element": "C" 
			},
			{
				"x": -0.2434807938,
				"y": -3.7886380605,
				"z": -0.3857654871,
				"element": "C" 
			},
			{
				"x": -1.6798167669,
				"y": -3.3267592398,
				"z": -0.690394771,
				"element": "C" 
			},
			{
				"x": -1.7827872595,
				"y": -2.1733878449,
				"z": -1.6984970651,
				"element": "C" 
			},
			{
				"x": -3.228852975,
				"y": -1.7242195577,
				"z": -1.9486448946,
				"element": "C" 
			},
			{
				"x": -3.3417315402,
				"y": -0.5944010127,
				"z": -2.9812243749,
				"element": "C" 
			},
			{
				"x": -4.7817013319,
				"y": -0.1401482369,
				"z": -3.2819179237,
				"element": "C" 
			},
			{
				"x": -5.5506212755,
				"y": 0.4741251169,
				"z": -2.0978265237,
				"element": "C" 
			},
			{
				"x": -4.9440142996,
				"y": 1.7806527774,
				"z": -1.5660847339,
				"element": "C" 
			},
			{
				"x": -5.7077502291,
				"y": 2.3893522728,
				"z": -0.3771533363,
				"element": "C" 
			},
			{
				"x": -5.5967399654,
				"y": 1.6088825801,
				"z": 0.9573022805,
				"element": "C" 
			},
			{
				"x": -4.6272467902,
				"y": 2.1927338605,
				"z": 2.008366912,
				"element": "C" 
			},
			{
				"x": -3.1478380829,
				"y": 2.0912685944,
				"z": 1.6659816613,
				"element": "C" 
			},
			{
				"x": -2.6806409378,
				"y": 2.5419175122,
				"z": 0.6107137619,
				"element": "O" 
			},
			{
				"x": -2.3618999901,
				"y": 1.5111982502,
				"z": 2.6064259668,
				"element": "N" 
			},
			{
				"x": -0.9026032842,
				"y": 1.4327663131,
				"z": 2.504892653,
				"element": "C" 
			},
			{
				"x": -0.4286856625,
				"y": 0.387862339,
				"z": 1.4726048672,
				"element": "C" 
			},
			{
				"x": -0.4569055936,
				"y": 0.8872817836,
				"z": 0.1462212432,
				"element": "O" 
			},
			{
				"x": -0.335703392,
				"y": 1.184160082,
				"z": 3.916226015,
				"element": "C" 
			},
			{
				"x": -0.9568198399,
				"y": -0.0228074021,
				"z": 4.3791526443,
				"element": "O" 
			},
			{
				"x": -0.5915241496,
				"y": 2.3154806302,
				"z": 4.8889990998,
				"element": "C" 
			},
			{
				"x": 0.1820236175,
				"y": 3.3883002796,
				"z": 5.0938703402,
				"element": "C" 
			},
			{
				"x": 1.4406122417,
				"y": 3.7613201531,
				"z": 4.3587511117,
				"element": "C" 
			},
			{
				"x": 1.2824574566,
				"y": 5.0936484755,
				"z": 3.5904871073,
				"element": "C" 
			},
			{
				"x": 2.4755358287,
				"y": 5.4261113234,
				"z": 2.6762728725,
				"element": "C" 
			},
			{
				"x": 2.5623290559,
				"y": 4.5768246719,
				"z": 1.3931773381,
				"element": "C" 
			},
			{
				"x": 1.5002147895,
				"y": 4.9281827165,
				"z": 0.3370432373,
				"element": "C" 
			},
			{
				"x": 1.3946467688,
				"y": 3.922701575,
				"z": -0.8219055709,
				"element": "C" 
			},
			{
				"x": 2.6593693116,
				"y": 3.8008229284,
				"z": -1.6841300456,
				"element": "C" 
			},
			{
				"x": 2.5201161023,
				"y": 2.8192511856,
				"z": -2.8622699265,
				"element": "C" 
			},
			{
				"x": 2.3403029492,
				"y": 1.3376914531,
				"z": -2.4815563447,
				"element": "C" 
			},
			{
				"x": 3.5432811448,
				"y": 0.7226034126,
				"z": -1.7522390642,
				"element": "C" 
			},
			{
				"x": 3.3778747732,
				"y": -0.7746230363,
				"z": -1.4620746772,
				"element": "C" 
			},
			{
				"x": 4.5740780991,
				"y": -1.3909582308,
				"z": -0.725307429,
				"element": "C" 
			},
			{
				"x": 4.4083085324,
				"y": -2.8866743551,
				"z": -0.4378919743,
				"element": "C" 
			},
			{
				"x": 4.1508012728,
				"y": -8.7693724061,
				"z": -2.6658499441,
				"element": "H" 
			},
			{
				"x": 4.3752553361,
				"y": -7.5563842036,
				"z": -1.4004697156,
				"element": "H" 
			},
			{
				"x": 3.801755177,
				"y": -9.1757146468,
				"z": -0.9797585069,
				"element": "H" 
			},
			{
				"x": 1.888246723,
				"y": -7.569434957,
				"z": -0.9584798292,
				"element": "H" 
			},
			{
				"x": 1.6611120368,
				"y": -8.7650019937,
				"z": -2.2218658979,
				"element": "H" 
			},
			{
				"x": 2.6028494729,
				"y": -7.1444049646,
				"z": -3.9094796334,
				"element": "H" 
			},
			{
				"x": 2.7537257375,
				"y": -5.9336720437,
				"z": -2.654470839,
				"element": "H" 
			},
			{
				"x": 0.1438640592,
				"y": -7.2268851984,
				"z": -3.6246531479,
				"element": "H" 
			},
			{
				"x": 0.7205452322,
				"y": -5.6370630626,
				"z": -4.0893573215,
				"element": "H" 
			},
			{
				"x": -0.1290303722,
				"y": -6.4516554037,
				"z": -1.25302148,
				"element": "H" 
			},
			{
				"x": -1.0966819953,
				"y": -5.56223554,
				"z": -2.4082459765,
				"element": "H" 
			},
			{
				"x": 1.5627156361,
				"y": -4.586782172,
				"z": -1.2298879348,
				"element": "H" 
			},
			{
				"x": 0.5997898877,
				"y": -3.69725737,
				"z": -2.3882568686,
				"element": "H" 
			},
			{
				"x": 0.3271200186,
				"y": -2.9277858336,
				"z": -0.0112309785,
				"element": "H" 
			},
			{
				"x": -0.2739546535,
				"y": -4.514309706,
				"z": 0.4393013192,
				"element": "H" 
			},
			{
				"x": -2.1462894557,
				"y": -3.010992352,
				"z": 0.2534971581,
				"element": "H" 
			},
			{
				"x": -2.2789527939,
				"y": -4.1768447852,
				"z": -1.0446091634,
				"element": "H" 
			},
			{
				"x": -1.3331605234,
				"y": -2.4716295665,
				"z": -2.6553844902,
				"element": "H" 
			},
			{
				"x": -1.1984770956,
				"y": -1.3174255834,
				"z": -1.3336467158,
				"element": "H" 
			},
			{
				"x": -3.6689765924,
				"y": -1.4044575619,
				"z": -0.9941790539,
				"element": "H" 
			},
			{
				"x": -3.8287954869,
				"y": -2.5832201598,
				"z": -2.2848176618,
				"element": "H" 
			},
			{
				"x": -2.740162083,
				"y": 0.260257028,
				"z": -2.6465627647,
				"element": "H" 
			},
			{
				"x": -2.8825579879,
				"y": -0.9303619997,
				"z": -3.9210811487,
				"element": "H" 
			},
			{
				"x": -5.3502451302,
				"y": -1.0000012416,
				"z": -3.6628692928,
				"element": "H" 
			},
			{
				"x": -4.7555175539,
				"y": 0.5917053937,
				"z": -4.1011440849,
				"element": "H" 
			},
			{
				"x": -6.5850381354,
				"y": 0.6671778911,
				"z": -2.4156811621,
				"element": "H" 
			},
			{
				"x": -5.6241020901,
				"y": -0.2650253295,
				"z": -1.2893036198,
				"element": "H" 
			},
			{
				"x": -3.9011563804,
				"y": 1.6347244645,
				"z": -1.2719829365,
				"element": "H" 
			},
			{
				"x": -4.9287393031,
				"y": 2.5148576519,
				"z": -2.3834588156,
				"element": "H" 
			},
			{
				"x": -6.7687558298,
				"y": 2.4687620695,
				"z": -0.6497511148,
				"element": "H" 
			},
			{
				"x": -5.3561679746,
				"y": 3.4152210032,
				"z": -0.2197665144,
				"element": "H" 
			},
			{
				"x": -5.3292533836,
				"y": 0.5623303652,
				"z": 0.7663223394,
				"element": "H" 
			},
			{
				"x": -6.5811917175,
				"y": 1.5764315489,
				"z": 1.4382818625,
				"element": "H" 
			},
			{
				"x": -4.84083455,
				"y": 3.2615129334,
				"z": 2.1394282634,
				"element": "H" 
			},
			{
				"x": -4.8158077634,
				"y": 1.7173058045,
				"z": 2.9782008107,
				"element": "H" 
			},
			{
				"x": -2.7794397263,
				"y": 1.0148098979,
				"z": 3.3811655903,
				"element": "H" 
			},
			{
				"x": -0.5398712758,
				"y": 2.4085354996,
				"z": 2.1636721691,
				"element": "H" 
			},
			{
				"x": -1.0363254838,
				"y": -0.522578207,
				"z": 1.5814529112,
				"element": "H" 
			},
			{
				"x": 0.6116644686,
				"y": 0.113541163,
				"z": 1.6864258511,
				"element": "H" 
			},
			{
				"x": -1.2263733553,
				"y": 1.4861933434,
				"z": 0.0738371951,
				"element": "H" 
			},
			{
				"x": 0.7457423862,
				"y": 1.0280484754,
				"z": 3.8009672398,
				"element": "H" 
			},
			{
				"x": -0.655671532,
				"y": -0.1845190591,
				"z": 5.2826394786,
				"element": "H" 
			},
			{
				"x": -1.5121002113,
				"y": 2.2139847555,
				"z": 5.4630756748,
				"element": "H" 
			},
			{
				"x": -0.1490880589,
				"y": 4.1103939214,
				"z": 5.8413323944,
				"element": "H" 
			},
			{
				"x": 2.2678371103,
				"y": 3.870277965,
				"z": 5.0751947294,
				"element": "H" 
			},
			{
				"x": 1.7331519634,
				"y": 2.9670124866,
				"z": 3.6651260644,
				"element": "H" 
			},
			{
				"x": 1.1428145301,
				"y": 5.9019467573,
				"z": 4.3198041499,
				"element": "H" 
			},
			{
				"x": 0.3584936537,
				"y": 5.0594681083,
				"z": 3.0007893568,
				"element": "H" 
			},
			{
				"x": 3.4040703166,
				"y": 5.3151518785,
				"z": 3.2529728028,
				"element": "H" 
			},
			{
				"x": 2.4213972533,
				"y": 6.4857187238,
				"z": 2.3931943883,
				"element": "H" 
			},
			{
				"x": 3.5615253213,
				"y": 4.7014903252,
				"z": 0.9593901952,
				"element": "H" 
			},
			{
				"x": 2.4823601062,
				"y": 3.50984104,
				"z": 1.6454622743,
				"element": "H" 
			},
			{
				"x": 0.5144424689,
				"y": 4.995485172,
				"z": 0.8152164986,
				"element": "H" 
			},
			{
				"x": 1.7119836602,
				"y": 5.9326295615,
				"z": -0.0579061752,
				"element": "H" 
			},
			{
				"x": 1.1140141358,
				"y": 2.9427877804,
				"z": -0.4159356571,
				"element": "H" 
			},
			{
				"x": 0.5592879379,
				"y": 4.2237929122,
				"z": -1.4692092534,
				"element": "H" 
			},
			{
				"x": 2.9125208693,
				"y": 4.7935295025,
				"z": -2.0832522768,
				"element": "H" 
			},
			{
				"x": 3.5129475481,
				"y": 3.5044710031,
				"z": -1.0618025063,
				"element": "H" 
			},
			{
				"x": 3.4070565175,
				"y": 2.9121465909,
				"z": -3.5048263789,
				"element": "H" 
			},
			{
				"x": 1.6658919702,
				"y": 3.1308784773,
				"z": -3.4791404778,
				"element": "H" 
			},
			{
				"x": 1.440858994,
				"y": 1.207839773,
				"z": -1.8669656773,
				"element": "H" 
			},
			{
				"x": 2.1609347087,
				"y": 0.7669099136,
				"z": -3.4033460855,
				"element": "H" 
			},
			{
				"x": 3.7140127483,
				"y": 1.2486703169,
				"z": -0.8031542905,
				"element": "H" 
			},
			{
				"x": 4.4527590148,
				"y": 0.8779836019,
				"z": -2.3518771718,
				"element": "H" 
			},
			{
				"x": 2.4647466524,
				"y": -0.9284577775,
				"z": -0.8695953689,
				"element": "H" 
			},
			{
				"x": 3.2181552044,
				"y": -1.3137688299,
				"z": -2.4070620495,
				"element": "H" 
			},
			{
				"x": 5.485209125,
				"y": -1.2319675857,
				"z": -1.3185183886,
				"element": "H" 
			},
			{
				"x": 4.7327780104,
				"y": -0.8529773574,
				"z": 0.2197614941,
				"element": "H" 
			},
			{
				"x": 3.5248488841,
				"y": -3.074930194,
				"z": 0.1832417213,
				"element": "H" 
			},
			{
				"x": 5.2779022862,
				"y": -3.295012167,
				"z": 0.0883026736,
				"element": "H" 
			},
			{
				"x": 4.2842698043,
				"y": -3.4563315026,
				"z": -1.3662572574,
				"element": "H" 
			}
		],
		 "valence_orbital": [ 
			{
				"type": "occ",
				"energy": -0.2834,
				"method": "rhf"
			},
			{
				"type": "occ",
				"energy": -0.26315,
				"method": "rhf"
			},
			{
				"type": "occ",
				"energy": -0.26005,
				"method": "rhf"
			},
			{
				"type": "occ",
				"energy": -0.25694,
				"method": "rhf"
			},
			{
				"type": "occ",
				"energy": -0.24684,
				"method": "rhf"
			},
			{
				"type": "unocc",
				"energy": -0.00388,
				"method": "rhf"
			},
			{
				"type": "unocc",
				"energy": 0.01372,
				"method": "rhf"
			},
			{
				"type": "unocc",
				"energy": 0.05772,
				"method": "rhf"
			},
			{
				"type": "unocc",
				"energy": 0.06462,
				"method": "rhf"
			},
			{
				"type": "unocc",
				"energy": 0.0663,
				"method": "rhf"
			}
		],
		"cosmo_sigma_profile": { 
			"-0.025": 0.0,
			"-0.024": 0.0,
			"-0.023": 0.0,
			"-0.022": 0.0,
			"-0.021": 0.0,
			"-0.02": 0.0,
			"-0.019": 0.0,
			"-0.018": 0.0,
			"-0.017": 0.0,
			"-0.016": 0.412628163423,
			"-0.015": 1.23971123104,
			"-0.014": 0.593109008154,
			"-0.013": 0.999757343381,
			"-0.012": 1.22438596022,
			"-0.011": 2.15799463673,
			"-0.01": 2.14812208768,
			"-0.009": 1.68203130255,
			"-0.008": 1.56308544455,
			"-0.007": 2.43466559853,
			"-0.006": 5.72819809469,
			"-0.005": 11.1403248231,
			"-0.004": 14.9905780712,
			"-0.003": 31.0621597075,
			"-0.002": 87.1910321853,
			"-0.001": 158.693653199,
			"0.0": 169.55316029,
			"0.001": 153.261086691,
			"0.002": 77.7846813164,
			"0.003": 20.1255652541,
			"0.004": 11.8231617006,
			"0.005": 8.93009948286,
			"0.006": 7.63470832557,
			"0.007": 5.99742232823,
			"0.008": 5.38203723151,
			"0.009": 3.53552068796,
			"0.01": 2.72769651961,
			"0.011": 1.90095144595,
			"0.012": 2.25110128582,
			"0.013": 1.39757789078,
			"0.014": 0.695799873803,
			"0.015": 0.0,
			"0.016": 0.0,
			"0.017": 0.0,
			"0.018": 0.0,
			"0.019": 0.0,
			"0.02": 0.0,
			"0.021": 0.0,
			"0.022": 0.0,
			"0.023": 0.0,
			"0.024": 0.0,
			"0.025": 0.0
		}
	}
}
