{
	 "smiles": "OC(=O)C1=CN(N=C1)C1=CC(Cl)=CC=C1", 
	 "Tm": 478.15, 
	 "num_atms": 22, 
	 "gaussian": { 
		 "optdone": 1, 
		 "sigma_profile": "yes", 
		 "theory": "DFT", 
		 "functional": "B3LYP", 
		 "basiset": "6-31G**", 
		 "properties": { 
			 "R2extent": 5487.967, 
			 "electric_dipole_moment_norm": 4.57865960626, 
			 "electric_quadrupole_moment_norm": 19.3483581404, 
			 "total_energy": -1105.40852525, 
			 "HOMO_LUMO_gap": 0.18797, 
			 "cosmo_polarized_energy": -19.45, 
			 "cosmo_cavitation_energy": 29.47, 
			 "cosmo_dispersion_energy": -21.84, 
			 "cosmo_repulsion_energy": 1.68, 
			 "cosmo_total_nonelectrostatic_energy": 9.31, 
			 "SMD_solvation_energy": 5.66 
		},
		"coords": [
			{
				"x": -1.5215658506,
				"y": 1.6368994238,
				"z": -2.6563948662,
				"element": "O" 
			},
			{
				"x": -1.4153709947,
				"y": 2.4225443188,
				"z": -1.5486747893,
				"element": "C" 
			},
			{
				"x": -1.6323717691,
				"y": 3.6088706094,
				"z": -1.629054662,
				"element": "O" 
			},
			{
				"x": -1.0353182004,
				"y": 1.7649349185,
				"z": -0.2817788045,
				"element": "C" 
			},
			{
				"x": -0.7492687436,
				"y": 0.4431387362,
				"z": 0.0223125099,
				"element": "C" 
			},
			{
				"x": -0.457385116,
				"y": 0.3924065536,
				"z": 1.3512220532,
				"element": "N" 
			},
			{
				"x": -0.5399496319,
				"y": 1.6251594766,
				"z": 1.9322566844,
				"element": "N" 
			},
			{
				"x": -0.88533215,
				"y": 2.4446880017,
				"z": 0.9562286345,
				"element": "C" 
			},
			{
				"x": -0.0999935826,
				"y": -0.7345967654,
				"z": 2.1426250411,
				"element": "C" 
			},
			{
				"x": -0.0098016224,
				"y": -2.005497237,
				"z": 1.5644432196,
				"element": "C" 
			},
			{
				"x": 0.3426524136,
				"y": -3.0862879227,
				"z": 2.3695416762,
				"element": "C" 
			},
			{
				"x": 0.4543214606,
				"y": -4.6790709506,
				"z": 1.638295252,
				"element": "Cl" 
			},
			{
				"x": 0.6062341612,
				"y": -2.9340466775,
				"z": 3.7291289509,
				"element": "C" 
			},
			{
				"x": 0.5098789839,
				"y": -1.6567104495,
				"z": 4.2831500455,
				"element": "C" 
			},
			{
				"x": 0.1599877023,
				"y": -0.5556206626,
				"z": 3.5060648515,
				"element": "C" 
			},
			{
				"x": -1.3231240205,
				"y": 0.7138993977,
				"z": -2.4501030624,
				"element": "H" 
			},
			{
				"x": -0.7318271588,
				"y": -0.4440371551,
				"z": -0.5922018364,
				"element": "H" 
			},
			{
				"x": -1.0232440067,
				"y": 3.5009585378,
				"z": 1.1390011474,
				"element": "H" 
			},
			{
				"x": -0.2048749236,
				"y": -2.174552015,
				"z": 0.5133659774,
				"element": "H" 
			},
			{
				"x": 0.8784733466,
				"y": -3.7917034276,
				"z": 4.3329786484,
				"element": "H" 
			},
			{
				"x": 0.7114561879,
				"y": -1.5175535893,
				"z": 5.3407218549,
				"element": "H" 
			},
			{
				"x": 0.0839235149,
				"y": 0.4364768783,
				"z": 3.9305714739,
				"element": "H" 
			}
		],
		 "valence_orbital": [ 
			{
				"type": "occ",
				"energy": -0.31062,
				"method": "rhf"
			},
			{
				"type": "occ",
				"energy": -0.28369,
				"method": "rhf"
			},
			{
				"type": "occ",
				"energy": -0.27904,
				"method": "rhf"
			},
			{
				"type": "occ",
				"energy": -0.27085,
				"method": "rhf"
			},
			{
				"type": "occ",
				"energy": -0.2496,
				"method": "rhf"
			},
			{
				"type": "unocc",
				"energy": -0.06163,
				"method": "rhf"
			},
			{
				"type": "unocc",
				"energy": -0.03416,
				"method": "rhf"
			},
			{
				"type": "unocc",
				"energy": -0.01855,
				"method": "rhf"
			},
			{
				"type": "unocc",
				"energy": 0.01085,
				"method": "rhf"
			},
			{
				"type": "unocc",
				"energy": 0.01485,
				"method": "rhf"
			}
		],
		"cosmo_sigma_profile": { 
			"-0.025": 0.0,
			"-0.024": 0.0,
			"-0.023": 0.0,
			"-0.022": 0.0,
			"-0.021": 0.0,
			"-0.02": 0.874758304068,
			"-0.019": 0.971156987301,
			"-0.018": 1.23274415504,
			"-0.017": 0.757610530689,
			"-0.016": 1.55128814168,
			"-0.015": 0.758701238236,
			"-0.014": 1.24463141979,
			"-0.013": 3.13363398789,
			"-0.012": 2.31811268343,
			"-0.011": 2.05369391188,
			"-0.01": 1.94192557036,
			"-0.009": 2.48773867631,
			"-0.008": 4.01685251743,
			"-0.007": 7.54530879836,
			"-0.006": 9.19929211671,
			"-0.005": 8.97771507167,
			"-0.004": 10.1445081948,
			"-0.003": 10.3294557744,
			"-0.002": 13.0700784567,
			"-0.001": 14.9827615892,
			"0.0": 20.9067523705,
			"0.001": 25.3519404287,
			"0.002": 22.3160284669,
			"0.003": 17.3454623174,
			"0.004": 14.7542446417,
			"0.005": 6.04775180959,
			"0.006": 4.52826915137,
			"0.007": 3.88254106137,
			"0.008": 3.74517161347,
			"0.009": 4.57977234323,
			"0.01": 5.81879308726,
			"0.011": 6.26446573868,
			"0.012": 5.02360173712,
			"0.013": 1.89292512538,
			"0.014": 0.146095253381,
			"0.015": 0.0,
			"0.016": 0.0,
			"0.017": 0.0,
			"0.018": 0.0,
			"0.019": 0.0,
			"0.02": 0.0,
			"0.021": 0.0,
			"0.022": 0.0,
			"0.023": 0.0,
			"0.024": 0.0,
			"0.025": 0.0
		}
	}
}
