{
	 "smiles": "OC(=O)C1CCC2=C(C1)C=NN2", 
	 "Tm": 503.15, 
	 "num_atms": 22, 
	 "gaussian": { 
		 "optdone": 1, 
		 "sigma_profile": "yes", 
		 "theory": "DFT", 
		 "functional": "B3LYP", 
		 "basiset": "6-31G**", 
		 "properties": { 
			 "R2extent": 2285.4313, 
			 "electric_dipole_moment_norm": 1.67627114155, 
			 "electric_quadrupole_moment_norm": 20.805754745, 
			 "total_energy": -570.833123419, 
			 "HOMO_LUMO_gap": 0.23368, 
			 "cosmo_polarized_energy": -15.43, 
			 "cosmo_cavitation_energy": 25.04, 
			 "cosmo_dispersion_energy": -18.72, 
			 "cosmo_repulsion_energy": 1.5, 
			 "cosmo_total_nonelectrostatic_energy": 7.83, 
			 "SMD_solvation_energy": 4.02 
		},
		"coords": [
			{
				"x": -3.0420676515,
				"y": 1.2822501146,
				"z": -0.4911048812,
				"element": "O" 
			},
			{
				"x": -1.8501935549,
				"y": 1.8822939011,
				"z": -0.2454872104,
				"element": "C" 
			},
			{
				"x": -1.7653101016,
				"y": 3.0573501022,
				"z": 0.0393157217,
				"element": "O" 
			},
			{
				"x": -0.6959678073,
				"y": 0.9056752887,
				"z": -0.3682101606,
				"element": "C" 
			},
			{
				"x": 0.6564361743,
				"y": 1.6255230788,
				"z": -0.2198049427,
				"element": "C" 
			},
			{
				"x": 1.8397781374,
				"y": 0.6858236684,
				"z": -0.5283945589,
				"element": "C" 
			},
			{
				"x": 1.6066704739,
				"y": -0.6292606366,
				"z": 0.1479815749,
				"element": "C" 
			},
			{
				"x": 0.4077281951,
				"y": -1.0765837687,
				"z": 0.6736617924,
				"element": "C" 
			},
			{
				"x": -0.8492664939,
				"y": -0.2549980321,
				"z": 0.6543747426,
				"element": "C" 
			},
			{
				"x": 0.6995818944,
				"y": -2.3688817818,
				"z": 1.1755431174,
				"element": "C" 
			},
			{
				"x": 1.9734615951,
				"y": -2.7053685467,
				"z": 0.9792589841,
				"element": "N" 
			},
			{
				"x": 2.5057892196,
				"y": -1.6296874184,
				"z": 0.3512891514,
				"element": "N" 
			},
			{
				"x": -3.7184119199,
				"y": 1.9712141917,
				"z": -0.3778984607,
				"element": "H" 
			},
			{
				"x": -0.7626126852,
				"y": 0.4654901371,
				"z": -1.3733939421,
				"element": "H" 
			},
			{
				"x": 0.6866646919,
				"y": 2.499157396,
				"z": -0.8763148228,
				"element": "H" 
			},
			{
				"x": 0.7420730709,
				"y": 2.005139832,
				"z": 0.8045527672,
				"element": "H" 
			},
			{
				"x": 2.7785247467,
				"y": 1.1466596682,
				"z": -0.1963404219,
				"element": "H" 
			},
			{
				"x": 1.9324448194,
				"y": 0.5451694615,
				"z": -1.6151548228,
				"element": "H" 
			},
			{
				"x": -1.0514208828,
				"y": 0.1663098278,
				"z": 1.6497929666,
				"element": "H" 
			},
			{
				"x": -1.7230845736,
				"y": -0.8596313641,
				"z": 0.3923507225,
				"element": "H" 
			},
			{
				"x": 0.0352741433,
				"y": -3.0663217626,
				"z": 1.669813551,
				"element": "H" 
			},
			{
				"x": 3.4802085087,
				"y": -1.6500233573,
				"z": 0.0937691324,
				"element": "H" 
			}
		],
		 "valence_orbital": [ 
			{
				"type": "occ",
				"energy": -0.32102,
				"method": "rhf"
			},
			{
				"type": "occ",
				"energy": -0.28368,
				"method": "rhf"
			},
			{
				"type": "occ",
				"energy": -0.27297,
				"method": "rhf"
			},
			{
				"type": "occ",
				"energy": -0.24793,
				"method": "rhf"
			},
			{
				"type": "occ",
				"energy": -0.22837,
				"method": "rhf"
			},
			{
				"type": "unocc",
				"energy": 0.00531,
				"method": "rhf"
			},
			{
				"type": "unocc",
				"energy": 0.02227,
				"method": "rhf"
			},
			{
				"type": "unocc",
				"energy": 0.0689,
				"method": "rhf"
			},
			{
				"type": "unocc",
				"energy": 0.07378,
				"method": "rhf"
			},
			{
				"type": "unocc",
				"energy": 0.08452,
				"method": "rhf"
			}
		],
		"cosmo_sigma_profile": { 
			"-0.025": 0.0,
			"-0.024": 0.0,
			"-0.023": 0.0,
			"-0.022": 0.0,
			"-0.021": 0.0,
			"-0.02": 0.0,
			"-0.019": 0.0,
			"-0.018": 0.561114677567,
			"-0.017": 0.87575284375,
			"-0.016": 1.89273118614,
			"-0.015": 2.36474738691,
			"-0.014": 1.97581188286,
			"-0.013": 1.03840538694,
			"-0.012": 1.1280302395,
			"-0.011": 2.33591615114,
			"-0.01": 2.3802423777,
			"-0.009": 1.31960447617,
			"-0.008": 1.59843274893,
			"-0.007": 1.783126715,
			"-0.006": 5.62221135509,
			"-0.005": 12.692239809,
			"-0.004": 18.002858005,
			"-0.003": 21.4711643544,
			"-0.002": 17.9741806815,
			"-0.001": 14.7770899977,
			"0.0": 8.77804299319,
			"0.001": 6.73983291729,
			"0.002": 7.24594797606,
			"0.003": 7.01205106909,
			"0.004": 6.84182166469,
			"0.005": 7.69044165472,
			"0.006": 7.83330663782,
			"0.007": 5.7606646157,
			"0.008": 4.15334171597,
			"0.009": 4.69632330959,
			"0.01": 3.98759568229,
			"0.011": 4.50515747172,
			"0.012": 5.67735937376,
			"0.013": 1.86641570598,
			"0.014": 1.15442436194,
			"0.015": 1.51977984678,
			"0.016": 0.953565221496,
			"0.017": 0.495974474608,
			"0.018": 0.0,
			"0.019": 0.0,
			"0.02": 0.0,
			"0.021": 0.0,
			"0.022": 0.0,
			"0.023": 0.0,
			"0.024": 0.0,
			"0.025": 0.0
		}
	}
}
