{
	 "smiles": "OCC1=CC=CN=C1N1CCOCC1", 
	 "Tm": 354.65, 
	 "num_atms": 28, 
	 "gaussian": { 
		 "optdone": 1, 
		 "sigma_profile": "yes", 
		 "theory": "DFT", 
		 "functional": "B3LYP", 
		 "basiset": "6-31G**", 
		 "properties": { 
			 "R2extent": 3134.4632, 
			 "electric_dipole_moment_norm": 2.96029442117, 
			 "electric_quadrupole_moment_norm": 7.57516200949, 
			 "total_energy": -649.421507385, 
			 "HOMO_LUMO_gap": 0.18616, 
			 "cosmo_polarized_energy": -11.39, 
			 "cosmo_cavitation_energy": 29.32, 
			 "cosmo_dispersion_energy": -21.65, 
			 "cosmo_repulsion_energy": 1.7, 
			 "cosmo_total_nonelectrostatic_energy": 9.37, 
			 "SMD_solvation_energy": 3.22 
		},
		"coords": [
			{
				"x": 2.8833695429,
				"y": 2.0134268912,
				"z": -1.0604529181,
				"element": "O" 
			},
			{
				"x": 2.4741011899,
				"y": 1.3751712599,
				"z": 0.1571061791,
				"element": "C" 
			},
			{
				"x": 1.9210666179,
				"y": -0.019982008,
				"z": -0.0175276082,
				"element": "C" 
			},
			{
				"x": 2.7698481329,
				"y": -1.1121582736,
				"z": 0.1577770346,
				"element": "C" 
			},
			{
				"x": 2.2811026008,
				"y": -2.4190003265,
				"z": 0.1119559388,
				"element": "C" 
			},
			{
				"x": 0.9129843451,
				"y": -2.5766906791,
				"z": -0.0761693605,
				"element": "C" 
			},
			{
				"x": 0.0694542587,
				"y": -1.5571159409,
				"z": -0.2677239794,
				"element": "N" 
			},
			{
				"x": 0.5458717159,
				"y": -0.3023091495,
				"z": -0.2698572517,
				"element": "C" 
			},
			{
				"x": -0.3922416489,
				"y": 0.7258225653,
				"z": -0.4413519768,
				"element": "N" 
			},
			{
				"x": -1.8060409625,
				"y": 0.3611885886,
				"z": -0.291325046,
				"element": "C" 
			},
			{
				"x": -2.624799418,
				"y": 1.6372580638,
				"z": -0.1016209754,
				"element": "C" 
			},
			{
				"x": -2.4577991713,
				"y": 2.5418309393,
				"z": -1.1851297154,
				"element": "O" 
			},
			{
				"x": -1.0899327695,
				"y": 2.891605567,
				"z": -1.3466415846,
				"element": "C" 
			},
			{
				"x": -0.2194570857,
				"y": 1.6593769541,
				"z": -1.5715575057,
				"element": "C" 
			},
			{
				"x": 3.4439125274,
				"y": 1.3883154327,
				"z": -1.5392009539,
				"element": "H" 
			},
			{
				"x": 1.7120343944,
				"y": 2.0286937678,
				"z": 0.5897790886,
				"element": "H" 
			},
			{
				"x": 3.320050877,
				"y": 1.3337708471,
				"z": 0.8586599663,
				"element": "H" 
			},
			{
				"x": 3.8216323383,
				"y": -0.9319139566,
				"z": 0.3727093482,
				"element": "H" 
			},
			{
				"x": 2.9305855126,
				"y": -3.2762949068,
				"z": 0.2526931812,
				"element": "H" 
			},
			{
				"x": 0.4643470282,
				"y": -3.5692084113,
				"z": -0.0770128565,
				"element": "H" 
			},
			{
				"x": -1.9192291795,
				"y": -0.2939765984,
				"z": 0.5749160516,
				"element": "H" 
			},
			{
				"x": -2.1723805886,
				"y": -0.19086714,
				"z": -1.1704323576,
				"element": "H" 
			},
			{
				"x": -2.3332144021,
				"y": 2.1212489262,
				"z": 0.8455221963,
				"element": "H" 
			},
			{
				"x": -3.6918325231,
				"y": 1.3990704102,
				"z": -0.0569524619,
				"element": "H" 
			},
			{
				"x": -0.7292443011,
				"y": 3.44066206,
				"z": -0.4606896513,
				"element": "H" 
			},
			{
				"x": -1.0375291217,
				"y": 3.5567161576,
				"z": -2.2137086652,
				"element": "H" 
			},
			{
				"x": 0.8276659132,
				"y": 1.9461827812,
				"z": -1.6730318768,
				"element": "H" 
			},
			{
				"x": -0.536425823,
				"y": 1.168476179,
				"z": -2.5081322396,
				"element": "H" 
			}
		],
		 "valence_orbital": [ 
			{
				"type": "occ",
				"energy": -0.2839,
				"method": "rhf"
			},
			{
				"type": "occ",
				"energy": -0.27565,
				"method": "rhf"
			},
			{
				"type": "occ",
				"energy": -0.25412,
				"method": "rhf"
			},
			{
				"type": "occ",
				"energy": -0.24762,
				"method": "rhf"
			},
			{
				"type": "occ",
				"energy": -0.21019,
				"method": "rhf"
			},
			{
				"type": "unocc",
				"energy": -0.02403,
				"method": "rhf"
			},
			{
				"type": "unocc",
				"energy": -0.00974,
				"method": "rhf"
			},
			{
				"type": "unocc",
				"energy": 0.07808,
				"method": "rhf"
			},
			{
				"type": "unocc",
				"energy": 0.10044,
				"method": "rhf"
			},
			{
				"type": "unocc",
				"energy": 0.10746,
				"method": "rhf"
			}
		],
		"cosmo_sigma_profile": { 
			"-0.025": 0.0,
			"-0.024": 0.0,
			"-0.023": 0.0,
			"-0.022": 0.0,
			"-0.021": 0.0,
			"-0.02": 0.0,
			"-0.019": 0.0,
			"-0.018": 0.0,
			"-0.017": 0.0,
			"-0.016": 0.0343278137087,
			"-0.015": 0.640892852469,
			"-0.014": 0.972013862254,
			"-0.013": 0.847210095082,
			"-0.012": 0.962548836971,
			"-0.011": 1.12682432206,
			"-0.01": 0.82295207104,
			"-0.009": 1.06384914668,
			"-0.008": 1.02864258352,
			"-0.007": 3.28067944425,
			"-0.006": 8.20305012822,
			"-0.005": 14.3588130369,
			"-0.004": 19.285264926,
			"-0.003": 28.7289303834,
			"-0.002": 26.8323931562,
			"-0.001": 18.7341289283,
			"0.0": 14.6902382382,
			"0.001": 11.9064637769,
			"0.002": 14.0068759771,
			"0.003": 15.0139738174,
			"0.004": 10.3624943963,
			"0.005": 4.24801738897,
			"0.006": 5.24409242134,
			"0.007": 4.64528195014,
			"0.008": 3.67845084673,
			"0.009": 3.56404594509,
			"0.01": 2.93984125636,
			"0.011": 2.54481840771,
			"0.012": 4.34675363109,
			"0.013": 3.77193743226,
			"0.014": 2.11933383944,
			"0.015": 0.134679357837,
			"0.016": 0.0,
			"0.017": 0.0,
			"0.018": 0.0,
			"0.019": 0.0,
			"0.02": 0.0,
			"0.021": 0.0,
			"0.022": 0.0,
			"0.023": 0.0,
			"0.024": 0.0,
			"0.025": 0.0
		}
	}
}
