{
	 "smiles": "OC(=O)CC1=CNC2=C1C=CC=N2", 
	 "Tm": 489.15, 
	 "num_atms": 21, 
	 "gaussian": { 
		 "optdone": 1, 
		 "sigma_profile": "yes", 
		 "theory": "DFT", 
		 "functional": "B3LYP", 
		 "basiset": "6-31G**", 
		 "properties": { 
			 "R2extent": 2500.7178, 
			 "electric_dipole_moment_norm": 2.59807059373, 
			 "electric_quadrupole_moment_norm": 5.80183161855, 
			 "total_energy": -607.749893328, 
			 "HOMO_LUMO_gap": 0.18867, 
			 "cosmo_polarized_energy": -14.65, 
			 "cosmo_cavitation_energy": 25.72, 
			 "cosmo_dispersion_energy": -18.87, 
			 "cosmo_repulsion_energy": 1.5, 
			 "cosmo_total_nonelectrostatic_energy": 8.35, 
			 "SMD_solvation_energy": 3.8 
		},
		"coords": [
			{
				"x": 3.1763016487,
				"y": -0.7571895598,
				"z": -2.2148301475,
				"element": "O" 
			},
			{
				"x": 2.4568257511,
				"y": 0.3790359325,
				"z": -2.0664470706,
				"element": "C" 
			},
			{
				"x": 1.8367741947,
				"y": 0.8837030202,
				"z": -2.9777397871,
				"element": "O" 
			},
			{
				"x": 2.5009900349,
				"y": 0.9031347165,
				"z": -0.6407440562,
				"element": "C" 
			},
			{
				"x": 1.3614546005,
				"y": 0.361266316,
				"z": 0.181695239,
				"element": "C" 
			},
			{
				"x": 1.4675470197,
				"y": -0.4300979291,
				"z": 1.3000330699,
				"element": "C" 
			},
			{
				"x": 0.2129699588,
				"y": -0.7105442948,
				"z": 1.8054159322,
				"element": "N" 
			},
			{
				"x": -0.7349189405,
				"y": -0.1015161073,
				"z": 1.0136946719,
				"element": "C" 
			},
			{
				"x": -0.0469702867,
				"y": 0.5822285067,
				"z": -0.0277541248,
				"element": "C" 
			},
			{
				"x": -0.8379333778,
				"y": 1.2677931348,
				"z": -0.9603834535,
				"element": "C" 
			},
			{
				"x": -2.2174350871,
				"y": 1.2283649089,
				"z": -0.7787285737,
				"element": "C" 
			},
			{
				"x": -2.7692459604,
				"y": 0.51554775,
				"z": 0.3026885543,
				"element": "C" 
			},
			{
				"x": -2.0510265405,
				"y": -0.1576212589,
				"z": 1.2082643276,
				"element": "N" 
			},
			{
				"x": 3.0524596733,
				"y": -1.0367601369,
				"z": -3.1379224225,
				"element": "H" 
			},
			{
				"x": 3.455227824,
				"y": 0.6291216391,
				"z": -0.1832961801,
				"element": "H" 
			},
			{
				"x": 2.4454990273,
				"y": 1.9950534704,
				"z": -0.7049601913,
				"element": "H" 
			},
			{
				"x": 2.3552522843,
				"y": -0.8146773699,
				"z": 1.7824399102,
				"element": "H" 
			},
			{
				"x": 0.0014380968,
				"y": -1.261994443,
				"z": 2.6216702658,
				"element": "H" 
			},
			{
				"x": -0.3877712897,
				"y": 1.7899856145,
				"z": -1.7987212585,
				"element": "H" 
			},
			{
				"x": -2.8798956913,
				"y": 1.7397654085,
				"z": -1.4696872783,
				"element": "H" 
			},
			{
				"x": -3.84884294,
				"y": 0.4881006816,
				"z": 0.4369125732,
				"element": "H" 
			}
		],
		 "valence_orbital": [ 
			{
				"type": "occ",
				"energy": -0.29723,
				"method": "rhf"
			},
			{
				"type": "occ",
				"energy": -0.27811,
				"method": "rhf"
			},
			{
				"type": "occ",
				"energy": -0.25668,
				"method": "rhf"
			},
			{
				"type": "occ",
				"energy": -0.23147,
				"method": "rhf"
			},
			{
				"type": "occ",
				"energy": -0.21467,
				"method": "rhf"
			},
			{
				"type": "unocc",
				"energy": -0.026,
				"method": "rhf"
			},
			{
				"type": "unocc",
				"energy": 0.00588,
				"method": "rhf"
			},
			{
				"type": "unocc",
				"energy": 0.0214,
				"method": "rhf"
			},
			{
				"type": "unocc",
				"energy": 0.06151,
				"method": "rhf"
			},
			{
				"type": "unocc",
				"energy": 0.0761,
				"method": "rhf"
			}
		],
		"cosmo_sigma_profile": { 
			"-0.025": 0.0,
			"-0.024": 0.0,
			"-0.023": 0.0,
			"-0.022": 0.0,
			"-0.021": 0.0,
			"-0.02": 0.0,
			"-0.019": 0.0542188844567,
			"-0.018": 0.674679056935,
			"-0.017": 0.738388517883,
			"-0.016": 1.93583507595,
			"-0.015": 2.37798232698,
			"-0.014": 1.53040379874,
			"-0.013": 2.13537713179,
			"-0.012": 0.917227993935,
			"-0.011": 1.79171070795,
			"-0.01": 2.10449887069,
			"-0.009": 1.96122481155,
			"-0.008": 3.94002427482,
			"-0.007": 5.24492926214,
			"-0.006": 10.1221207428,
			"-0.005": 11.5675462283,
			"-0.004": 14.0318804768,
			"-0.003": 12.0323172193,
			"-0.002": 10.320647671,
			"-0.001": 10.0753948069,
			"0.0": 8.36955876675,
			"0.001": 9.32674779679,
			"0.002": 15.3006842708,
			"0.003": 20.6947324775,
			"0.004": 18.8884826674,
			"0.005": 7.25327332614,
			"0.006": 4.86203360372,
			"0.007": 3.89308246678,
			"0.008": 4.5771071631,
			"0.009": 3.81884167556,
			"0.01": 2.88507588328,
			"0.011": 3.92249508026,
			"0.012": 4.8651868196,
			"0.013": 0.827224939066,
			"0.014": 1.06429169508,
			"0.015": 0.59688403778,
			"0.016": 0.665275697971,
			"0.017": 0.0829213316398,
			"0.018": 0.0,
			"0.019": 0.0,
			"0.02": 0.0,
			"0.021": 0.0,
			"0.022": 0.0,
			"0.023": 0.0,
			"0.024": 0.0,
			"0.025": 0.0
		}
	}
}
