{
	 "smiles": "NC1=CC=CC=C1C1=CC=CC=C1N", 
	 "Tm": 354.15, 
	 "num_atms": 26, 
	 "gaussian": { 
		 "optdone": 1, 
		 "sigma_profile": "yes", 
		 "theory": "DFT", 
		 "functional": "B3LYP", 
		 "basiset": "6-31G**", 
		 "properties": { 
			 "R2extent": 2966.0742, 
			 "electric_dipole_moment_norm": 2.60253109299, 
			 "electric_quadrupole_moment_norm": 6.10128491877, 
			 "total_energy": -574.026828105, 
			 "HOMO_LUMO_gap": 0.18413, 
			 "cosmo_polarized_energy": -11.32, 
			 "cosmo_cavitation_energy": 28.58, 
			 "cosmo_dispersion_energy": -21.08, 
			 "cosmo_repulsion_energy": 1.66, 
			 "cosmo_total_nonelectrostatic_energy": 9.16, 
			 "SMD_solvation_energy": 4.64 
		},
		"coords": [
			{
				"x": 0.179581463,
				"y": -2.024049862,
				"z": -0.9329614079,
				"element": "N" 
			},
			{
				"x": 0.6881453825,
				"y": -0.709657091,
				"z": -0.9432514816,
				"element": "C" 
			},
			{
				"x": 1.2511822446,
				"y": -0.186293718,
				"z": -2.1164945885,
				"element": "C" 
			},
			{
				"x": 1.7213325126,
				"y": 1.1231568469,
				"z": -2.1600222834,
				"element": "C" 
			},
			{
				"x": 1.6417833399,
				"y": 1.9308931006,
				"z": -1.0247719267,
				"element": "C" 
			},
			{
				"x": 1.0781682465,
				"y": 1.4136248249,
				"z": 0.1401206954,
				"element": "C" 
			},
			{
				"x": 0.5814393487,
				"y": 0.102588707,
				"z": 0.2105176794,
				"element": "C" 
			},
			{
				"x": 0.0115463811,
				"y": -0.3944967073,
				"z": 1.4980710531,
				"element": "C" 
			},
			{
				"x": 0.7958236833,
				"y": -0.3074271957,
				"z": 2.6606586479,
				"element": "C" 
			},
			{
				"x": 0.3131825538,
				"y": -0.671969827,
				"z": 3.9152702924,
				"element": "C" 
			},
			{
				"x": -0.9987503482,
				"y": -1.138345717,
				"z": 4.0228818734,
				"element": "C" 
			},
			{
				"x": -1.7979176346,
				"y": -1.2428505148,
				"z": 2.8902460588,
				"element": "C" 
			},
			{
				"x": -1.3218676625,
				"y": -0.8752512664,
				"z": 1.6166097484,
				"element": "C" 
			},
			{
				"x": -2.1796980025,
				"y": -0.9170033458,
				"z": 0.5182569584,
				"element": "N" 
			},
			{
				"x": 0.5493849525,
				"y": -2.6061835774,
				"z": -1.6742677586,
				"element": "H" 
			},
			{
				"x": 0.2763199421,
				"y": -2.4825483737,
				"z": -0.0329968408,
				"element": "H" 
			},
			{
				"x": 1.3248288257,
				"y": -0.8213594616,
				"z": -2.9967581233,
				"element": "H" 
			},
			{
				"x": 2.154594099,
				"y": 1.5070165665,
				"z": -3.0793449382,
				"element": "H" 
			},
			{
				"x": 2.005336787,
				"y": 2.9535597736,
				"z": -1.0476020692,
				"element": "H" 
			},
			{
				"x": 0.995700477,
				"y": 2.038625055,
				"z": 1.0246257706,
				"element": "H" 
			},
			{
				"x": 1.815628144,
				"y": 0.0542704574,
				"z": 2.559791529,
				"element": "H" 
			},
			{
				"x": 0.9493997525,
				"y": -0.5954062422,
				"z": 4.7914314128,
				"element": "H" 
			},
			{
				"x": -1.4004950648,
				"y": -1.430027597,
				"z": 4.9895036202,
				"element": "H" 
			},
			{
				"x": -2.8198501586,
				"y": -1.6053533969,
				"z": 2.979710347,
				"element": "H" 
			},
			{
				"x": -1.7378282791,
				"y": -1.1945989518,
				"z": -0.3526185574,
				"element": "H" 
			},
			{
				"x": -3.0278709857,
				"y": -1.4416124864,
				"z": 0.6867942888,
				"element": "H" 
			}
		],
		 "valence_orbital": [ 
			{
				"type": "occ",
				"energy": -0.29627,
				"method": "rhf"
			},
			{
				"type": "occ",
				"energy": -0.25407,
				"method": "rhf"
			},
			{
				"type": "occ",
				"energy": -0.23143,
				"method": "rhf"
			},
			{
				"type": "occ",
				"energy": -0.20499,
				"method": "rhf"
			},
			{
				"type": "occ",
				"energy": -0.19369,
				"method": "rhf"
			},
			{
				"type": "unocc",
				"energy": -0.00956,
				"method": "rhf"
			},
			{
				"type": "unocc",
				"energy": 0.00992,
				"method": "rhf"
			},
			{
				"type": "unocc",
				"energy": 0.02323,
				"method": "rhf"
			},
			{
				"type": "unocc",
				"energy": 0.02964,
				"method": "rhf"
			},
			{
				"type": "unocc",
				"energy": 0.08355,
				"method": "rhf"
			}
		],
		"cosmo_sigma_profile": { 
			"-0.025": 0.0,
			"-0.024": 0.0,
			"-0.023": 0.0,
			"-0.022": 0.0,
			"-0.021": 0.0,
			"-0.02": 0.0,
			"-0.019": 0.0,
			"-0.018": 0.0,
			"-0.017": 0.0,
			"-0.016": 0.0,
			"-0.015": 0.0,
			"-0.014": 0.0,
			"-0.013": 0.250699279929,
			"-0.012": 2.27596956971,
			"-0.011": 3.61996828448,
			"-0.01": 3.93403505441,
			"-0.009": 4.14918262854,
			"-0.008": 4.31912546472,
			"-0.007": 3.85028414895,
			"-0.006": 5.85003150575,
			"-0.005": 14.4331128809,
			"-0.004": 17.4291913618,
			"-0.003": 18.6773267104,
			"-0.002": 15.6154801621,
			"-0.001": 14.4419798371,
			"0.0": 13.0944748221,
			"0.001": 11.8116235301,
			"0.002": 13.9758620857,
			"0.003": 13.1497957183,
			"0.004": 14.2104480093,
			"0.005": 14.5243474643,
			"0.006": 15.4819666019,
			"0.007": 14.8294475242,
			"0.008": 2.05358054409,
			"0.009": 1.20404661073,
			"0.01": 0.603862357766,
			"0.011": 0.786129157914,
			"0.012": 0.862867554827,
			"0.013": 0.672959788386,
			"0.014": 0.665320174793,
			"0.015": 0.458843044253,
			"0.016": 0.0676545076478,
			"0.017": 0.0,
			"0.018": 0.0,
			"0.019": 0.0,
			"0.02": 0.0,
			"0.021": 0.0,
			"0.022": 0.0,
			"0.023": 0.0,
			"0.024": 0.0,
			"0.025": 0.0
		}
	}
}
