{
	 "smiles": "CC1=NC(=NO1)C1=CC=C(C=O)C=C1", 
	 "Tm": 388.15, 
	 "num_atms": 22, 
	 "gaussian": { 
		 "optdone": 1, 
		 "sigma_profile": "yes", 
		 "theory": "DFT", 
		 "functional": "B3LYP", 
		 "basiset": "6-31G**", 
		 "properties": { 
			 "R2extent": 4301.0851, 
			 "electric_dipole_moment_norm": 3.62532792862, 
			 "electric_quadrupole_moment_norm": 18.5252778187, 
			 "total_energy": -645.800443853, 
			 "HOMO_LUMO_gap": 0.17511, 
			 "cosmo_polarized_energy": -11.25, 
			 "cosmo_cavitation_energy": 27.79, 
			 "cosmo_dispersion_energy": -20.41, 
			 "cosmo_repulsion_energy": 1.59, 
			 "cosmo_total_nonelectrostatic_energy": 8.97, 
			 "SMD_solvation_energy": 4.54 
		},
		"coords": [
			{
				"x": 4.0319517833,
				"y": -0.6062295653,
				"z": -0.460677675,
				"element": "C" 
			},
			{
				"x": 2.6832755945,
				"y": -0.666671846,
				"z": 0.1634043758,
				"element": "C" 
			},
			{
				"x": 1.738188115,
				"y": 0.2256688648,
				"z": 0.1485789981,
				"element": "N" 
			},
			{
				"x": 0.7376094452,
				"y": -0.3828353135,
				"z": 0.8842160631,
				"element": "C" 
			},
			{
				"x": 1.0472980627,
				"y": -1.5816232483,
				"z": 1.327568528,
				"element": "N" 
			},
			{
				"x": 2.3487258173,
				"y": -1.7778059677,
				"z": 0.8485061733,
				"element": "O" 
			},
			{
				"x": -0.5605099423,
				"y": 0.2528870397,
				"z": 1.1491744589,
				"element": "C" 
			},
			{
				"x": -0.8182257363,
				"y": 1.5380396883,
				"z": 0.6413887668,
				"element": "C" 
			},
			{
				"x": -2.0410605384,
				"y": 2.1491609811,
				"z": 0.8849676712,
				"element": "C" 
			},
			{
				"x": -3.0218813699,
				"y": 1.4863352319,
				"z": 1.637862182,
				"element": "C" 
			},
			{
				"x": -4.3275718837,
				"y": 2.1342718202,
				"z": 1.9000498246,
				"element": "C" 
			},
			{
				"x": -4.6406358247,
				"y": 3.2406403679,
				"z": 1.5036120997,
				"element": "O" 
			},
			{
				"x": -2.7626877081,
				"y": 0.2043802461,
				"z": 2.1435111424,
				"element": "C" 
			},
			{
				"x": -1.5407120538,
				"y": -0.4127619969,
				"z": 1.9032063344,
				"element": "C" 
			},
			{
				"x": 4.160160292,
				"y": -1.4217737324,
				"z": -1.1788582614,
				"element": "H" 
			},
			{
				"x": 4.1466951298,
				"y": 0.3487018234,
				"z": -0.9732408671,
				"element": "H" 
			},
			{
				"x": 4.8123332565,
				"y": -0.7064787714,
				"z": 0.2997769989,
				"element": "H" 
			},
			{
				"x": -0.0493897809,
				"y": 2.0365627699,
				"z": 0.061400514,
				"element": "H" 
			},
			{
				"x": -2.263221991,
				"y": 3.1407108303,
				"z": 0.5034253642,
				"element": "H" 
			},
			{
				"x": -5.0331830109,
				"y": 1.5238009901,
				"z": 2.5069768738,
				"element": "H" 
			},
			{
				"x": -3.5253199725,
				"y": -0.3064508534,
				"z": 2.7267481503,
				"element": "H" 
			},
			{
				"x": -1.3326376837,
				"y": -1.4042293588,
				"z": 2.2909022841,
				"element": "H" 
			}
		],
		 "valence_orbital": [ 
			{
				"type": "occ",
				"energy": -0.30423,
				"method": "rhf"
			},
			{
				"type": "occ",
				"energy": -0.3039,
				"method": "rhf"
			},
			{
				"type": "occ",
				"energy": -0.27095,
				"method": "rhf"
			},
			{
				"type": "occ",
				"energy": -0.25809,
				"method": "rhf"
			},
			{
				"type": "occ",
				"energy": -0.25534,
				"method": "rhf"
			},
			{
				"type": "unocc",
				"energy": -0.08023,
				"method": "rhf"
			},
			{
				"type": "unocc",
				"energy": -0.02798,
				"method": "rhf"
			},
			{
				"type": "unocc",
				"energy": -0.0167,
				"method": "rhf"
			},
			{
				"type": "unocc",
				"energy": 0.01228,
				"method": "rhf"
			},
			{
				"type": "unocc",
				"energy": 0.07594,
				"method": "rhf"
			}
		],
		"cosmo_sigma_profile": { 
			"-0.025": 0.0,
			"-0.024": 0.0,
			"-0.023": 0.0,
			"-0.022": 0.0,
			"-0.021": 0.0,
			"-0.02": 0.0,
			"-0.019": 0.0,
			"-0.018": 0.0,
			"-0.017": 0.0,
			"-0.016": 0.0,
			"-0.015": 0.0,
			"-0.014": 0.0,
			"-0.013": 0.0,
			"-0.012": 0.0,
			"-0.011": 0.0,
			"-0.01": 0.0,
			"-0.009": 0.154105747659,
			"-0.008": 3.68717289451,
			"-0.007": 12.6543934801,
			"-0.006": 16.5059442612,
			"-0.005": 15.478209669,
			"-0.004": 16.761354019,
			"-0.003": 17.9793690203,
			"-0.002": 15.0406354932,
			"-0.001": 14.8853836987,
			"0.0": 17.3383762618,
			"0.001": 16.9640816772,
			"0.002": 19.3966832465,
			"0.003": 8.64669009455,
			"0.004": 6.0403228351,
			"0.005": 4.68334754314,
			"0.006": 7.47190928563,
			"0.007": 6.17402024875,
			"0.008": 4.32143032776,
			"0.009": 4.11862097891,
			"0.01": 5.17828602072,
			"0.011": 6.447515401,
			"0.012": 3.39270713966,
			"0.013": 0.538140809641,
			"0.014": 0.0,
			"0.015": 0.0,
			"0.016": 0.0,
			"0.017": 0.0,
			"0.018": 0.0,
			"0.019": 0.0,
			"0.02": 0.0,
			"0.021": 0.0,
			"0.022": 0.0,
			"0.023": 0.0,
			"0.024": 0.0,
			"0.025": 0.0
		}
	}
}
