{
	 "smiles": "CCOC(=O)C1=CC(N)=C2OCOC2=C1", 
	 "Tm": 342.15, 
	 "num_atms": 26, 
	 "gaussian": { 
		 "optdone": 1, 
		 "sigma_profile": "yes", 
		 "theory": "DFT", 
		 "functional": "B3LYP", 
		 "basiset": "6-31G**", 
		 "properties": { 
			 "R2extent": 4110.8841, 
			 "electric_dipole_moment_norm": 2.20561801997, 
			 "electric_quadrupole_moment_norm": 14.5083855184, 
			 "total_energy": -743.334965032, 
			 "HOMO_LUMO_gap": 0.17279, 
			 "cosmo_polarized_energy": -13.12, 
			 "cosmo_cavitation_energy": 30.27, 
			 "cosmo_dispersion_energy": -22.62, 
			 "cosmo_repulsion_energy": 1.8, 
			 "cosmo_total_nonelectrostatic_energy": 9.44, 
			 "SMD_solvation_energy": 6.8 
		},
		"coords": [
			{
				"x": -2.0625950116,
				"y": -1.147670011,
				"z": -3.6282557141,
				"element": "C" 
			},
			{
				"x": -0.6469799658,
				"y": -1.5677160993,
				"z": -3.2604407567,
				"element": "C" 
			},
			{
				"x": -0.3511991589,
				"y": -1.2709183206,
				"z": -1.8773243812,
				"element": "O" 
			},
			{
				"x": 0.0846936577,
				"y": -0.0158640805,
				"z": -1.609296703,
				"element": "C" 
			},
			{
				"x": 0.2359983827,
				"y": 0.8357739283,
				"z": -2.4670366156,
				"element": "O" 
			},
			{
				"x": 0.3550234238,
				"y": 0.1905717181,
				"z": -0.1605780877,
				"element": "C" 
			},
			{
				"x": 0.8282681852,
				"y": 1.4526921397,
				"z": 0.2197617578,
				"element": "C" 
			},
			{
				"x": 1.1179295693,
				"y": 1.7658968174,
				"z": 1.5609829551,
				"element": "C" 
			},
			{
				"x": 1.6376619018,
				"y": 2.9945412122,
				"z": 1.9642750354,
				"element": "N" 
			},
			{
				"x": 0.9048844186,
				"y": 0.7327592562,
				"z": 2.4690732232,
				"element": "C" 
			},
			{
				"x": 1.0706713831,
				"y": 0.7879035314,
				"z": 3.8360465773,
				"element": "O" 
			},
			{
				"x": 0.885197317,
				"y": -0.5625724855,
				"z": 4.2837808552,
				"element": "C" 
			},
			{
				"x": 0.2871925568,
				"y": -1.3013059533,
				"z": 3.2162386164,
				"element": "O" 
			},
			{
				"x": 0.4337564665,
				"y": -0.5168736967,
				"z": 2.0920388082,
				"element": "C" 
			},
			{
				"x": 0.1425971427,
				"y": -0.8389767558,
				"z": 0.7820195621,
				"element": "C" 
			},
			{
				"x": -2.1685364819,
				"y": -0.0622650066,
				"z": -3.561762776,
				"element": "H" 
			},
			{
				"x": -2.2862876619,
				"y": -1.4529564782,
				"z": -4.6560434822,
				"element": "H" 
			},
			{
				"x": -2.7937010829,
				"y": -1.617159018,
				"z": -2.9633548484,
				"element": "H" 
			},
			{
				"x": -0.5177185699,
				"y": -2.6500518436,
				"z": -3.3398728769,
				"element": "H" 
			},
			{
				"x": 0.0883922029,
				"y": -1.066207484,
				"z": -3.8940184551,
				"element": "H" 
			},
			{
				"x": 0.9760824893,
				"y": 2.1967087693,
				"z": -0.5561026235,
				"element": "H" 
			},
			{
				"x": 1.4876170069,
				"y": 3.2156085321,
				"z": 2.9393327877,
				"element": "H" 
			},
			{
				"x": 1.4112508381,
				"y": 3.7691293258,
				"z": 1.3559635201,
				"element": "H" 
			},
			{
				"x": 1.8631579714,
				"y": -0.999664273,
				"z": 4.5349817494,
				"element": "H" 
			},
			{
				"x": 0.2196521656,
				"y": -0.5693496466,
				"z": 5.1516482196,
				"element": "H" 
			},
			{
				"x": -0.2280091466,
				"y": -1.8116340778,
				"z": 0.4903436528,
				"element": "H" 
			}
		],
		 "valence_orbital": [ 
			{
				"type": "occ",
				"energy": -0.29628,
				"method": "rhf"
			},
			{
				"type": "occ",
				"energy": -0.28979,
				"method": "rhf"
			},
			{
				"type": "occ",
				"energy": -0.26489,
				"method": "rhf"
			},
			{
				"type": "occ",
				"energy": -0.21464,
				"method": "rhf"
			},
			{
				"type": "occ",
				"energy": -0.20433,
				"method": "rhf"
			},
			{
				"type": "unocc",
				"energy": -0.03154,
				"method": "rhf"
			},
			{
				"type": "unocc",
				"energy": 0.0145,
				"method": "rhf"
			},
			{
				"type": "unocc",
				"energy": 0.07125,
				"method": "rhf"
			},
			{
				"type": "unocc",
				"energy": 0.08155,
				"method": "rhf"
			},
			{
				"type": "unocc",
				"energy": 0.10648,
				"method": "rhf"
			}
		],
		"cosmo_sigma_profile": { 
			"-0.025": 0.0,
			"-0.024": 0.0,
			"-0.023": 0.0,
			"-0.022": 0.0,
			"-0.021": 0.0,
			"-0.02": 0.0,
			"-0.019": 0.0,
			"-0.018": 0.0,
			"-0.017": 0.0,
			"-0.016": 0.0,
			"-0.015": 0.0,
			"-0.014": 0.0110498827038,
			"-0.013": 1.11491626573,
			"-0.012": 2.37177232657,
			"-0.011": 2.50422120576,
			"-0.01": 2.39093242894,
			"-0.009": 3.14478408489,
			"-0.008": 5.98348927802,
			"-0.007": 8.76349486139,
			"-0.006": 10.4513116203,
			"-0.005": 10.4926509296,
			"-0.004": 15.4343339979,
			"-0.003": 16.6251111277,
			"-0.002": 16.7986617065,
			"-0.001": 17.2774193647,
			"0.0": 18.7147840441,
			"0.001": 15.6998483826,
			"0.002": 15.8714702353,
			"0.003": 18.235952258,
			"0.004": 16.1107182004,
			"0.005": 8.34518705194,
			"0.006": 6.98600460744,
			"0.007": 5.57591808476,
			"0.008": 4.82899623081,
			"0.009": 3.63648903799,
			"0.01": 3.20197385418,
			"0.011": 3.10516579754,
			"0.012": 4.56236283931,
			"0.013": 1.58534887259,
			"0.014": 0.426233266428,
			"0.015": 0.0051610857615,
			"0.016": 0.0,
			"0.017": 0.0,
			"0.018": 0.0,
			"0.019": 0.0,
			"0.02": 0.0,
			"0.021": 0.0,
			"0.022": 0.0,
			"0.023": 0.0,
			"0.024": 0.0,
			"0.025": 0.0
		}
	}
}
