{
	 "smiles": "OC(=O)C1=C(F)C=C(Br)C=C1", 
	 "Tm": 484.65, 
	 "num_atms": 15, 
	 "gaussian": { 
		 "optdone": 1, 
		 "sigma_profile": "yes", 
		 "theory": "DFT", 
		 "functional": "B3LYP", 
		 "basiset": "6-31G**", 
		 "properties": { 
			 "R2extent": 4917.0578, 
			 "electric_dipole_moment_norm": 0.411188484761, 
			 "electric_quadrupole_moment_norm": 5.22293333195, 
			 "total_energy": -3090.8539638, 
			 "HOMO_LUMO_gap": 0.19687, 
			 "cosmo_polarized_energy": -8.62, 
			 "cosmo_cavitation_energy": 22.97, 
			 "cosmo_dispersion_energy": -17.41, 
			 "cosmo_repulsion_energy": 1.38, 
			 "cosmo_total_nonelectrostatic_energy": 6.94, 
			 "SMD_solvation_energy": 4.57 
		},
		"coords": [
			{
				"x": 3.1579904832,
				"y": 2.5167040232,
				"z": 1.3292858065,
				"element": "O" 
			},
			{
				"x": 2.8701782714,
				"y": 2.3250601798,
				"z": 0.0250035027,
				"element": "C" 
			},
			{
				"x": 3.7350451448,
				"y": 2.2410402788,
				"z": -0.8257290591,
				"element": "O" 
			},
			{
				"x": 1.414868576,
				"y": 2.2268484866,
				"z": -0.275717232,
				"element": "C" 
			},
			{
				"x": 0.3764641094,
				"y": 2.3163466783,
				"z": 0.662307256,
				"element": "C" 
			},
			{
				"x": 0.633416453,
				"y": 2.5064103869,
				"z": 1.9630043288,
				"element": "F" 
			},
			{
				"x": -0.9619888216,
				"y": 2.213406939,
				"z": 0.2929748859,
				"element": "C" 
			},
			{
				"x": -1.2703972957,
				"y": 2.0157431702,
				"z": -1.0491396945,
				"element": "C" 
			},
			{
				"x": -3.0971050629,
				"y": 1.8731440171,
				"z": -1.5686832371,
				"element": "Br" 
			},
			{
				"x": -0.2689900938,
				"y": 1.9203121137,
				"z": -2.0185645555,
				"element": "C" 
			},
			{
				"x": 1.0568006279,
				"y": 2.0269581897,
				"z": -1.6194323358,
				"element": "C" 
			},
			{
				"x": 4.1279980893,
				"y": 2.5610261064,
				"z": 1.3764895628,
				"element": "H" 
			},
			{
				"x": -1.7298295232,
				"y": 2.2887849998,
				"z": 1.052621189,
				"element": "H" 
			},
			{
				"x": -0.5263612292,
				"y": 1.7663221222,
				"z": -3.0593786088,
				"element": "H" 
			},
			{
				"x": 1.8611102714,
				"y": 1.9579923084,
				"z": -2.343741809,
				"element": "H" 
			}
		],
		 "valence_orbital": [ 
			{
				"type": "occ",
				"energy": -0.3186,
				"method": "rhf"
			},
			{
				"type": "occ",
				"energy": -0.30202,
				"method": "rhf"
			},
			{
				"type": "occ",
				"energy": -0.28825,
				"method": "rhf"
			},
			{
				"type": "occ",
				"energy": -0.27345,
				"method": "rhf"
			},
			{
				"type": "occ",
				"energy": -0.26091,
				"method": "rhf"
			},
			{
				"type": "unocc",
				"energy": -0.06404,
				"method": "rhf"
			},
			{
				"type": "unocc",
				"energy": -0.02451,
				"method": "rhf"
			},
			{
				"type": "unocc",
				"energy": -0.00822,
				"method": "rhf"
			},
			{
				"type": "unocc",
				"energy": 0.0385,
				"method": "rhf"
			},
			{
				"type": "unocc",
				"energy": 0.07536,
				"method": "rhf"
			}
		],
		"cosmo_sigma_profile": { 
			"-0.025": 0.0,
			"-0.024": 0.0,
			"-0.023": 0.0,
			"-0.022": 0.0,
			"-0.021": 0.0,
			"-0.02": 0.0,
			"-0.019": 0.242748145242,
			"-0.018": 0.733470538367,
			"-0.017": 0.919789442564,
			"-0.016": 1.20689614604,
			"-0.015": 0.392290724351,
			"-0.014": 0.790542407702,
			"-0.013": 0.411393354611,
			"-0.012": 0.87572812482,
			"-0.011": 1.00532393878,
			"-0.01": 0.402725758759,
			"-0.009": 1.1392062335,
			"-0.008": 3.68083735428,
			"-0.007": 5.98178172985,
			"-0.006": 6.23646389935,
			"-0.005": 6.05775929818,
			"-0.004": 7.53947907267,
			"-0.003": 10.1887171231,
			"-0.002": 13.1083930057,
			"-0.001": 19.6098787025,
			"0.0": 21.143458237,
			"0.001": 18.8106451356,
			"0.002": 12.6872546659,
			"0.003": 17.9915369395,
			"0.004": 12.7422774448,
			"0.005": 2.94323175755,
			"0.006": 2.96271200469,
			"0.007": 3.42324183641,
			"0.008": 3.49665814721,
			"0.009": 2.90435396532,
			"0.01": 2.07014013479,
			"0.011": 4.60872466948,
			"0.012": 2.05457957344,
			"0.013": 0.0,
			"0.014": 0.0,
			"0.015": 0.0,
			"0.016": 0.0,
			"0.017": 0.0,
			"0.018": 0.0,
			"0.019": 0.0,
			"0.02": 0.0,
			"0.021": 0.0,
			"0.022": 0.0,
			"0.023": 0.0,
			"0.024": 0.0,
			"0.025": 0.0
		}
	}
}
