{
	 "smiles": "CC(C)=CC1C(C(O)=O)C1(C)C", 
	 "Tm": 292.15, 
	 "num_atms": 28, 
	 "gaussian": { 
		 "optdone": 1, 
		 "sigma_profile": "yes", 
		 "theory": "DFT", 
		 "functional": "B3LYP", 
		 "basiset": "6-31G**", 
		 "properties": { 
			 "R2extent": 3024.1377, 
			 "electric_dipole_moment_norm": 4.14752553458, 
			 "electric_quadrupole_moment_norm": 17.1008717298, 
			 "total_energy": -541.139691739, 
			 "HOMO_LUMO_gap": 0.22538, 
			 "cosmo_polarized_energy": -13.59, 
			 "cosmo_cavitation_energy": 30.23, 
			 "cosmo_dispersion_energy": -20.99, 
			 "cosmo_repulsion_energy": 1.73, 
			 "cosmo_total_nonelectrostatic_energy": 10.97, 
			 "SMD_solvation_energy": 6.55 
		},
		"coords": [
			{
				"x": 0.7649184094,
				"y": -3.4840901865,
				"z": -2.0990001444,
				"element": "C" 
			},
			{
				"x": 0.6701835057,
				"y": -2.0204360062,
				"z": -1.7413236425,
				"element": "C" 
			},
			{
				"x": 1.7465310306,
				"y": -1.1565958333,
				"z": -2.3500263301,
				"element": "C" 
			},
			{
				"x": -0.3136636834,
				"y": -1.5761781788,
				"z": -0.9397321076,
				"element": "C" 
			},
			{
				"x": -0.546040878,
				"y": -0.1821581846,
				"z": -0.4973172095,
				"element": "C" 
			},
			{
				"x": -1.9766865907,
				"y": 0.3580573395,
				"z": -0.3538557051,
				"element": "C" 
			},
			{
				"x": -2.2819794083,
				"y": 1.6950719674,
				"z": -0.942161666,
				"element": "C" 
			},
			{
				"x": -3.5922942106,
				"y": 1.9218492538,
				"z": -1.2408688196,
				"element": "O" 
			},
			{
				"x": -1.4651127589,
				"y": 2.5608927094,
				"z": -1.1631250788,
				"element": "O" 
			},
			{
				"x": -1.0658367637,
				"y": 0.1947151096,
				"z": 0.8717328335,
				"element": "C" 
			},
			{
				"x": -0.4780830679,
				"y": 1.4249303488,
				"z": 1.5435852174,
				"element": "C" 
			},
			{
				"x": -1.4626098961,
				"y": -0.8935646028,
				"z": 1.8575846133,
				"element": "C" 
			},
			{
				"x": -0.032292179,
				"y": -4.072629732,
				"z": -1.6362758582,
				"element": "H" 
			},
			{
				"x": 1.7276415287,
				"y": -3.9066037715,
				"z": -1.7815268267,
				"element": "H" 
			},
			{
				"x": 0.7077620949,
				"y": -3.6287678626,
				"z": -3.1861713181,
				"element": "H" 
			},
			{
				"x": 1.7265509203,
				"y": -1.2320274692,
				"z": -3.445036236,
				"element": "H" 
			},
			{
				"x": 1.6603650568,
				"y": -0.1012836751,
				"z": -2.0871519822,
				"element": "H" 
			},
			{
				"x": 2.7400653445,
				"y": -1.5013879959,
				"z": -2.0345729732,
				"element": "H" 
			},
			{
				"x": -1.0249429103,
				"y": -2.31507555,
				"z": -0.5731768628,
				"element": "H" 
			},
			{
				"x": 0.1118854917,
				"y": 0.5695032549,
				"z": -0.923545682,
				"element": "H" 
			},
			{
				"x": -2.769263098,
				"y": -0.3848488431,
				"z": -0.4309086749,
				"element": "H" 
			},
			{
				"x": -4.1268227631,
				"y": 1.1544160351,
				"z": -0.9950993792,
				"element": "H" 
			},
			{
				"x": -1.1782541366,
				"y": 1.83638314,
				"z": 2.2805792617,
				"element": "H" 
			},
			{
				"x": -0.2443208837,
				"y": 2.2090419926,
				"z": 0.8226214362,
				"element": "H" 
			},
			{
				"x": 0.4401150915,
				"y": 1.1508522378,
				"z": 2.0758045433,
				"element": "H" 
			},
			{
				"x": -1.9410434615,
				"y": -1.7508695341,
				"z": 1.3772480435,
				"element": "H" 
			},
			{
				"x": -2.161596566,
				"y": -0.4950980625,
				"z": 2.6016816588,
				"element": "H" 
			},
			{
				"x": -0.5807752185,
				"y": -1.2620979006,
				"z": 2.3939388894,
				"element": "H" 
			}
		],
		 "valence_orbital": [ 
			{
				"type": "occ",
				"energy": -0.32024,
				"method": "rhf"
			},
			{
				"type": "occ",
				"energy": -0.30758,
				"method": "rhf"
			},
			{
				"type": "occ",
				"energy": -0.2853,
				"method": "rhf"
			},
			{
				"type": "occ",
				"energy": -0.26533,
				"method": "rhf"
			},
			{
				"type": "occ",
				"energy": -0.22483,
				"method": "rhf"
			},
			{
				"type": "unocc",
				"energy": 0.00055,
				"method": "rhf"
			},
			{
				"type": "unocc",
				"energy": 0.03184,
				"method": "rhf"
			},
			{
				"type": "unocc",
				"energy": 0.05876,
				"method": "rhf"
			},
			{
				"type": "unocc",
				"energy": 0.08806,
				"method": "rhf"
			},
			{
				"type": "unocc",
				"energy": 0.09775,
				"method": "rhf"
			}
		],
		"cosmo_sigma_profile": { 
			"-0.025": 0.0,
			"-0.024": 0.0,
			"-0.023": 0.0,
			"-0.022": 0.0,
			"-0.021": 0.0,
			"-0.02": 0.0,
			"-0.019": 0.384081607284,
			"-0.018": 1.11701106354,
			"-0.017": 1.09511333122,
			"-0.016": 0.983423356842,
			"-0.015": 1.26721623827,
			"-0.014": 0.785598353428,
			"-0.013": 0.915142085237,
			"-0.012": 0.71550451139,
			"-0.011": 1.27335943348,
			"-0.01": 1.33397701196,
			"-0.009": 0.851482851294,
			"-0.008": 0.861823648394,
			"-0.007": 1.83430509242,
			"-0.006": 3.71384390518,
			"-0.005": 6.23365376229,
			"-0.004": 10.9589785828,
			"-0.003": 25.6658988941,
			"-0.002": 26.6974705174,
			"-0.001": 28.0783297681,
			"0.0": 34.3482709592,
			"0.001": 25.9581964395,
			"0.002": 10.0929937886,
			"0.003": 7.63278811128,
			"0.004": 6.89226071145,
			"0.005": 4.85663674749,
			"0.006": 5.11231126459,
			"0.007": 3.80910848899,
			"0.008": 2.53640605175,
			"0.009": 3.06636456509,
			"0.01": 3.40766327479,
			"0.011": 4.83516603868,
			"0.012": 4.60759243074,
			"0.013": 3.13639469595,
			"0.014": 0.724191313387,
			"0.015": 0.0,
			"0.016": 0.0,
			"0.017": 0.0,
			"0.018": 0.0,
			"0.019": 0.0,
			"0.02": 0.0,
			"0.021": 0.0,
			"0.022": 0.0,
			"0.023": 0.0,
			"0.024": 0.0,
			"0.025": 0.0
		}
	}
}
