{
	 "smiles": "COC1=CC=C(CC2CC(=O)N2)C=C1", 
	 "Tm": 371.15, 
	 "num_atms": 27, 
	 "gaussian": { 
		 "optdone": 1, 
		 "sigma_profile": "yes", 
		 "theory": "DFT", 
		 "functional": "B3LYP", 
		 "basiset": "6-31G**", 
		 "properties": { 
			 "R2extent": 4762.8892, 
			 "electric_dipole_moment_norm": 5.15165877752, 
			 "electric_quadrupole_moment_norm": 23.0642018243, 
			 "total_energy": -632.185331188, 
			 "HOMO_LUMO_gap": 0.21106, 
			 "cosmo_polarized_energy": -14.7, 
			 "cosmo_cavitation_energy": 30.8, 
			 "cosmo_dispersion_energy": -22.14, 
			 "cosmo_repulsion_energy": 1.78, 
			 "cosmo_total_nonelectrostatic_energy": 10.44, 
			 "SMD_solvation_energy": 5.58 
		},
		"coords": [
			{
				"x": -4.5118160118,
				"y": 0.5221238803,
				"z": -3.3334394127,
				"element": "C" 
			},
			{
				"x": -4.2219772562,
				"y": -0.3699808339,
				"z": -2.2696947108,
				"element": "O" 
			},
			{
				"x": -3.0271282885,
				"y": -0.2372594991,
				"z": -1.6229083199,
				"element": "C" 
			},
			{
				"x": -2.0526838749,
				"y": 0.7183124815,
				"z": -1.9340114749,
				"element": "C" 
			},
			{
				"x": -0.8636333286,
				"y": 0.7535672144,
				"z": -1.200570513,
				"element": "C" 
			},
			{
				"x": -0.6140637344,
				"y": -0.1410868803,
				"z": -0.1553746691,
				"element": "C" 
			},
			{
				"x": 0.6622320726,
				"y": -0.0596682514,
				"z": 0.6544259468,
				"element": "C" 
			},
			{
				"x": 0.6101888484,
				"y": 1.0293013671,
				"z": 1.7350255654,
				"element": "C" 
			},
			{
				"x": -0.2447360309,
				"y": 0.7480433771,
				"z": 3.0079170307,
				"element": "C" 
			},
			{
				"x": 1.0800243235,
				"y": 0.8804834517,
				"z": 3.7961642026,
				"element": "C" 
			},
			{
				"x": 1.4139134571,
				"y": 0.84688859,
				"z": 4.9575239445,
				"element": "O" 
			},
			{
				"x": 1.7809950598,
				"y": 1.0805083866,
				"z": 2.6277584642,
				"element": "N" 
			},
			{
				"x": -1.6041752425,
				"y": -1.0932035528,
				"z": 0.1364982515,
				"element": "C" 
			},
			{
				"x": -2.7925387442,
				"y": -1.1465243132,
				"z": -0.5813733222,
				"element": "C" 
			},
			{
				"x": -4.5333244264,
				"y": 1.5658392053,
				"z": -2.9936652852,
				"element": "H" 
			},
			{
				"x": -3.7861880749,
				"y": 0.42762301,
				"z": -4.1518577446,
				"element": "H" 
			},
			{
				"x": -5.5015920181,
				"y": 0.2444493968,
				"z": -3.6991403649,
				"element": "H" 
			},
			{
				"x": -2.2024558737,
				"y": 1.427935201,
				"z": -2.7391272711,
				"element": "H" 
			},
			{
				"x": -0.1124983906,
				"y": 1.4963061546,
				"z": -1.4606378999,
				"element": "H" 
			},
			{
				"x": 1.5123015542,
				"y": 0.1507571377,
				"z": -0.0079039273,
				"element": "H" 
			},
			{
				"x": 0.8720836757,
				"y": -1.0201326815,
				"z": 1.1393925554,
				"element": "H" 
			},
			{
				"x": 0.3837597688,
				"y": 2.0004064106,
				"z": 1.2768048267,
				"element": "H" 
			},
			{
				"x": -0.9911979424,
				"y": 1.5050127322,
				"z": 3.2573377268,
				"element": "H" 
			},
			{
				"x": -0.7007146818,
				"y": -0.2436901423,
				"z": 3.0533306808,
				"element": "H" 
			},
			{
				"x": 2.7483644794,
				"y": 1.3314562025,
				"z": 2.4679178939,
				"element": "H" 
			},
			{
				"x": -1.4367496336,
				"y": -1.8123931985,
				"z": 0.934617389,
				"element": "H" 
			},
			{
				"x": -3.5541896859,
				"y": -1.8865748461,
				"z": -0.3583095626,
				"element": "H" 
			}
		],
		 "valence_orbital": [ 
			{
				"type": "occ",
				"energy": -0.31671,
				"method": "rhf"
			},
			{
				"type": "occ",
				"energy": -0.25702,
				"method": "rhf"
			},
			{
				"type": "occ",
				"energy": -0.25373,
				"method": "rhf"
			},
			{
				"type": "occ",
				"energy": -0.24503,
				"method": "rhf"
			},
			{
				"type": "occ",
				"energy": -0.21865,
				"method": "rhf"
			},
			{
				"type": "unocc",
				"energy": -0.00759,
				"method": "rhf"
			},
			{
				"type": "unocc",
				"energy": 0.0066,
				"method": "rhf"
			},
			{
				"type": "unocc",
				"energy": 0.03811,
				"method": "rhf"
			},
			{
				"type": "unocc",
				"energy": 0.08029,
				"method": "rhf"
			},
			{
				"type": "unocc",
				"energy": 0.09035,
				"method": "rhf"
			}
		],
		"cosmo_sigma_profile": { 
			"-0.025": 0.0,
			"-0.024": 0.0,
			"-0.023": 0.0,
			"-0.022": 0.0,
			"-0.021": 0.0,
			"-0.02": 0.0,
			"-0.019": 0.0,
			"-0.018": 0.0,
			"-0.017": 0.0,
			"-0.016": 0.0,
			"-0.015": 0.0164451608124,
			"-0.014": 1.14938120282,
			"-0.013": 1.25792355906,
			"-0.012": 1.257837089,
			"-0.011": 1.40154818178,
			"-0.01": 0.480461869815,
			"-0.009": 0.837649778792,
			"-0.008": 1.63012534188,
			"-0.007": 0.842697755107,
			"-0.006": 8.97720705328,
			"-0.005": 27.726918116,
			"-0.004": 33.0188642646,
			"-0.003": 24.9918967397,
			"-0.002": 17.8883246381,
			"-0.001": 13.3461706168,
			"0.0": 12.9913443227,
			"0.001": 11.8899097125,
			"0.002": 11.1168219952,
			"0.003": 10.4475775495,
			"0.004": 11.8587669067,
			"0.005": 12.3299463032,
			"0.006": 10.2543990816,
			"0.007": 2.40420357304,
			"0.008": 3.11681406877,
			"0.009": 2.30815192591,
			"0.01": 3.18175289164,
			"0.011": 2.80567891544,
			"0.012": 2.81820709527,
			"0.013": 6.12167201483,
			"0.014": 4.30545169542,
			"0.015": 0.523657144818,
			"0.016": 0.0,
			"0.017": 0.0,
			"0.018": 0.0,
			"0.019": 0.0,
			"0.02": 0.0,
			"0.021": 0.0,
			"0.022": 0.0,
			"0.023": 0.0,
			"0.024": 0.0,
			"0.025": 0.0
		}
	}
}
