{
	 "smiles": "CN1CCC23C4C5C(CC(=O)N4C4=C(O)C=CC=C24)OCC=C(C1)C5CC3=O", 
	 "Tm": 555.15, 
	 "num_atms": 52, 
	 "gaussian": { 
		 "optdone": 1, 
		 "sigma_profile": "yes", 
		 "theory": "DFT", 
		 "functional": "B3LYP", 
		 "basiset": "6-31G**", 
		 "properties": { 
			 "R2extent": 9042.1538, 
			 "electric_dipole_moment_norm": 6.94399643505, 
			 "electric_quadrupole_moment_norm": 18.2774090678, 
			 "total_energy": -1263.1627811, 
			 "HOMO_LUMO_gap": 0.16187, 
			 "cosmo_polarized_energy": -17.79, 
			 "cosmo_cavitation_energy": 46.08, 
			 "cosmo_dispersion_energy": -33.19, 
			 "cosmo_repulsion_energy": 2.36, 
			 "cosmo_total_nonelectrostatic_energy": 15.25, 
			 "SMD_solvation_energy": 7.53 
		},
		"coords": [
			{
				"x": -1.5350891513,
				"y": -2.7847298105,
				"z": 1.9309681404,
				"element": "C" 
			},
			{
				"x": -1.4248852383,
				"y": -2.1916968448,
				"z": 0.6121664426,
				"element": "N" 
			},
			{
				"x": -0.6326011574,
				"y": -2.9395221669,
				"z": -0.3575141243,
				"element": "C" 
			},
			{
				"x": 0.8394378161,
				"y": -2.4880874322,
				"z": -0.4239079828,
				"element": "C" 
			},
			{
				"x": 1.0851236952,
				"y": -0.9667374967,
				"z": -0.7315593056,
				"element": "C" 
			},
			{
				"x": 0.8431362001,
				"y": -0.0734606316,
				"z": 0.5186100081,
				"element": "C" 
			},
			{
				"x": -0.1222708387,
				"y": 1.0981777123,
				"z": 0.3748667931,
				"element": "C" 
			},
			{
				"x": -0.3538232165,
				"y": 1.5894766169,
				"z": 1.8046544567,
				"element": "C" 
			},
			{
				"x": 0.9592190703,
				"y": 2.1906934077,
				"z": 2.3086358654,
				"element": "C" 
			},
			{
				"x": 2.2505293164,
				"y": 1.5528715003,
				"z": 1.7687258774,
				"element": "C" 
			},
			{
				"x": 3.3222213319,
				"y": 2.0686653176,
				"z": 2.1214752967,
				"element": "O" 
			},
			{
				"x": 2.1674756674,
				"y": 0.5008764972,
				"z": 0.9029352129,
				"element": "N" 
			},
			{
				"x": 3.1740172739,
				"y": 0.0085050766,
				"z": 0.0034585184,
				"element": "C" 
			},
			{
				"x": 4.5749893488,
				"y": 0.1957214126,
				"z": 0.0219343461,
				"element": "C" 
			},
			{
				"x": 5.2682277089,
				"y": 0.8503359377,
				"z": 0.9678790734,
				"element": "O" 
			},
			{
				"x": 5.30784138,
				"y": -0.376853405,
				"z": -1.0339545942,
				"element": "C" 
			},
			{
				"x": 4.6969385362,
				"y": -1.1051559594,
				"z": -2.0481054672,
				"element": "C" 
			},
			{
				"x": 3.3146837605,
				"y": -1.3137411074,
				"z": -2.0423386819,
				"element": "C" 
			},
			{
				"x": 2.5714555618,
				"y": -0.758766565,
				"z": -1.0066485272,
				"element": "C" 
			},
			{
				"x": -1.4112248661,
				"y": 2.5369753648,
				"z": 1.8524781593,
				"element": "O" 
			},
			{
				"x": -2.7071490466,
				"y": 1.9668199547,
				"z": 2.0918858547,
				"element": "C" 
			},
			{
				"x": -2.9917514414,
				"y": 0.5933079286,
				"z": 1.5086587432,
				"element": "C" 
			},
			{
				"x": -2.4199515894,
				"y": 0.0154601609,
				"z": 0.4385370048,
				"element": "C" 
			},
			{
				"x": -2.6148134294,
				"y": -1.4631821067,
				"z": 0.1618602183,
				"element": "C" 
			},
			{
				"x": -1.4158241634,
				"y": 0.8108296286,
				"z": -0.3937009276,
				"element": "C" 
			},
			{
				"x": -1.0285748366,
				"y": 0.299595483,
				"z": -1.7965639344,
				"element": "C" 
			},
			{
				"x": 0.1778013674,
				"y": -0.6374330073,
				"z": -1.9382533571,
				"element": "C" 
			},
			{
				"x": 0.3924200454,
				"y": -1.161071959,
				"z": -3.0158240815,
				"element": "O" 
			},
			{
				"x": -1.9045612435,
				"y": -2.0424716381,
				"z": 2.6465493405,
				"element": "H" 
			},
			{
				"x": -0.5515456715,
				"y": -3.1139922499,
				"z": 2.2818488617,
				"element": "H" 
			},
			{
				"x": -2.2151890168,
				"y": -3.6565875625,
				"z": 1.9626274586,
				"element": "H" 
			},
			{
				"x": -0.6518409164,
				"y": -4.019184619,
				"z": -0.1367586369,
				"element": "H" 
			},
			{
				"x": -1.0833968695,
				"y": -2.8317904855,
				"z": -1.3499268791,
				"element": "H" 
			},
			{
				"x": 1.3528060133,
				"y": -2.7196065148,
				"z": 0.5170741259,
				"element": "H" 
			},
			{
				"x": 1.336718067,
				"y": -3.0680485218,
				"z": -1.2071029047,
				"element": "H" 
			},
			{
				"x": 0.4970661928,
				"y": -0.7150853155,
				"z": 1.330799169,
				"element": "H" 
			},
			{
				"x": 0.3987008017,
				"y": 1.8892516643,
				"z": -0.1845292512,
				"element": "H" 
			},
			{
				"x": -0.6167369767,
				"y": 0.725791516,
				"z": 2.4291395787,
				"element": "H" 
			},
			{
				"x": 1.0127618563,
				"y": 3.2377747423,
				"z": 1.9881124693,
				"element": "H" 
			},
			{
				"x": 1.0245611446,
				"y": 2.2025194472,
				"z": 3.4008239211,
				"element": "H" 
			},
			{
				"x": 4.6270887507,
				"y": 1.3593076525,
				"z": 1.5349741588,
				"element": "H" 
			},
			{
				"x": 6.3818848545,
				"y": -0.2229178394,
				"z": -1.020467008,
				"element": "H" 
			},
			{
				"x": 5.3040614084,
				"y": -1.5221910973,
				"z": -2.8462748829,
				"element": "H" 
			},
			{
				"x": 2.8212345269,
				"y": -1.8799469381,
				"z": -2.8227557725,
				"element": "H" 
			},
			{
				"x": -2.8692429423,
				"y": 1.8985257138,
				"z": 3.1798921792,
				"element": "H" 
			},
			{
				"x": -3.421286969,
				"y": 2.712036129,
				"z": 1.7166575608,
				"element": "H" 
			},
			{
				"x": -3.7076652478,
				"y": 0.0109635986,
				"z": 2.0889743927,
				"element": "H" 
			},
			{
				"x": -3.5182272952,
				"y": -1.8246836716,
				"z": 0.6746214384,
				"element": "H" 
			},
			{
				"x": -2.7694391205,
				"y": -1.649816323,
				"z": -0.9066219995,
				"element": "H" 
			},
			{
				"x": -1.8812752945,
				"y": 1.7904796076,
				"z": -0.5438183692,
				"element": "H" 
			},
			{
				"x": -0.7572732355,
				"y": 1.1742696472,
				"z": -2.4036717309,
				"element": "H" 
			},
			{
				"x": -1.8609619224,
				"y": -0.1651704492,
				"z": -2.3339262474,
				"element": "H" 
			}
		],
		 "valence_orbital": [ 
			{
				"type": "occ",
				"energy": -0.25755,
				"method": "rhf"
			},
			{
				"type": "occ",
				"energy": -0.25037,
				"method": "rhf"
			},
			{
				"type": "occ",
				"energy": -0.22322,
				"method": "rhf"
			},
			{
				"type": "occ",
				"energy": -0.2137,
				"method": "rhf"
			},
			{
				"type": "occ",
				"energy": -0.19736,
				"method": "rhf"
			},
			{
				"type": "unocc",
				"energy": -0.03549,
				"method": "rhf"
			},
			{
				"type": "unocc",
				"energy": -0.0158,
				"method": "rhf"
			},
			{
				"type": "unocc",
				"energy": -0.00613,
				"method": "rhf"
			},
			{
				"type": "unocc",
				"energy": 0.00969,
				"method": "rhf"
			},
			{
				"type": "unocc",
				"energy": 0.03814,
				"method": "rhf"
			}
		],
		"cosmo_sigma_profile": { 
			"-0.025": 0.0,
			"-0.024": 0.0,
			"-0.023": 0.0,
			"-0.022": 0.0,
			"-0.021": 0.0,
			"-0.02": 0.0,
			"-0.019": 0.0,
			"-0.018": 0.0,
			"-0.017": 0.0,
			"-0.016": 0.0,
			"-0.015": 0.0,
			"-0.014": 0.0,
			"-0.013": 0.0,
			"-0.012": 0.0,
			"-0.011": 0.0,
			"-0.01": 0.010052152507,
			"-0.009": 0.118760548628,
			"-0.008": 1.17013090874,
			"-0.007": 6.4627972948,
			"-0.006": 16.626119225,
			"-0.005": 25.8499880006,
			"-0.004": 38.3091841729,
			"-0.003": 40.232562805,
			"-0.002": 41.2663365229,
			"-0.001": 37.2735408604,
			"0.0": 29.8061670454,
			"0.001": 15.7093685836,
			"0.002": 13.8572805051,
			"0.003": 14.3587686192,
			"0.004": 14.5829903557,
			"0.005": 15.3717155482,
			"0.006": 9.94994320248,
			"0.007": 5.90630084366,
			"0.008": 5.59415468034,
			"0.009": 4.89252599228,
			"0.01": 6.32255635077,
			"0.011": 6.38948150051,
			"0.012": 7.43377047778,
			"0.013": 3.20263095047,
			"0.014": 0.0904591049695,
			"0.015": 0.0,
			"0.016": 0.0,
			"0.017": 0.0,
			"0.018": 0.0,
			"0.019": 0.0,
			"0.02": 0.0,
			"0.021": 0.0,
			"0.022": 0.0,
			"0.023": 0.0,
			"0.024": 0.0,
			"0.025": 0.0
		}
	}
}
