{
	 "smiles": "OC(=O)[C@@H]1CCC(=O)N1", 
	 "Tm": 434.15, 
	 "num_atms": 16, 
	 "gaussian": { 
		 "optdone": 1, 
		 "sigma_profile": "yes", 
		 "theory": "DFT", 
		 "functional": "B3LYP", 
		 "basiset": "6-31G**", 
		 "properties": { 
			 "R2extent": 1384.3303, 
			 "electric_dipole_moment_norm": 5.7002620931, 
			 "electric_quadrupole_moment_norm": 12.7027826538, 
			 "total_energy": -475.192135109, 
			 "HOMO_LUMO_gap": 0.24055, 
			 "cosmo_polarized_energy": -22.51, 
			 "cosmo_cavitation_energy": 20.01, 
			 "cosmo_dispersion_energy": -14.73, 
			 "cosmo_repulsion_energy": 1.24, 
			 "cosmo_total_nonelectrostatic_energy": 6.52, 
			 "SMD_solvation_energy": 4.49 
		},
		"coords": [
			{
				"x": 0.5592453851,
				"y": 2.4799752815,
				"z": 2.2166864946,
				"element": "O" 
			},
			{
				"x": 0.5418456049,
				"y": 1.9265698275,
				"z": 0.9751062621,
				"element": "C" 
			},
			{
				"x": 1.5672175495,
				"y": 1.6800817525,
				"z": 0.3960993885,
				"element": "O" 
			},
			{
				"x": -0.8626624997,
				"y": 1.6605528925,
				"z": 0.4036151554,
				"element": "C" 
			},
			{
				"x": -1.6055975741,
				"y": 0.507575819,
				"z": 1.1505188321,
				"element": "C" 
			},
			{
				"x": -1.2786542321,
				"y": -0.7399446206,
				"z": 0.3165229746,
				"element": "C" 
			},
			{
				"x": -0.9196831719,
				"y": -0.1987750548,
				"z": -1.0706201562,
				"element": "C" 
			},
			{
				"x": -0.7461580899,
				"y": -0.8359658286,
				"z": -2.088967709,
				"element": "O" 
			},
			{
				"x": -0.8171457499,
				"y": 1.1758622682,
				"z": -0.9540766519,
				"element": "N" 
			},
			{
				"x": -0.3420679651,
				"y": 2.6355186441,
				"z": 2.534892696,
				"element": "H" 
			},
			{
				"x": -1.4329044374,
				"y": 2.5979248272,
				"z": 0.4738413584,
				"element": "H" 
			},
			{
				"x": -2.6798986151,
				"y": 0.7105641027,
				"z": 1.1331342138,
				"element": "H" 
			},
			{
				"x": -1.2962646704,
				"y": 0.4256104082,
				"z": 2.1957993329,
				"element": "H" 
			},
			{
				"x": -2.0982517229,
				"y": -1.4579932892,
				"z": 0.2503066486,
				"element": "H" 
			},
			{
				"x": -0.4007784949,
				"y": -1.2742778074,
				"z": 0.6964437577,
				"element": "H" 
			},
			{
				"x": -0.3065413161,
				"y": 1.677020777,
				"z": -1.6687025975,
				"element": "H" 
			}
		],
		 "valence_orbital": [ 
			{
				"type": "occ",
				"energy": -0.35597,
				"method": "rhf"
			},
			{
				"type": "occ",
				"energy": -0.33219,
				"method": "rhf"
			},
			{
				"type": "occ",
				"energy": -0.2903,
				"method": "rhf"
			},
			{
				"type": "occ",
				"energy": -0.26665,
				"method": "rhf"
			},
			{
				"type": "occ",
				"energy": -0.25053,
				"method": "rhf"
			},
			{
				"type": "unocc",
				"energy": -0.00998,
				"method": "rhf"
			},
			{
				"type": "unocc",
				"energy": 0.01988,
				"method": "rhf"
			},
			{
				"type": "unocc",
				"energy": 0.03838,
				"method": "rhf"
			},
			{
				"type": "unocc",
				"energy": 0.07428,
				"method": "rhf"
			},
			{
				"type": "unocc",
				"energy": 0.09734,
				"method": "rhf"
			}
		],
		"cosmo_sigma_profile": { 
			"-0.025": 0.0,
			"-0.024": 0.0,
			"-0.023": 0.0,
			"-0.022": 0.0,
			"-0.021": 0.0,
			"-0.02": 0.0691589800014,
			"-0.019": 0.864893464758,
			"-0.018": 1.20411561857,
			"-0.017": 1.29642937188,
			"-0.016": 1.12098903322,
			"-0.015": 1.0909012928,
			"-0.014": 2.01246789244,
			"-0.013": 1.62370944387,
			"-0.012": 2.73202359429,
			"-0.011": 2.30800322938,
			"-0.01": 2.44621182409,
			"-0.009": 2.94825753025,
			"-0.008": 4.4172659869,
			"-0.007": 5.14531601355,
			"-0.006": 11.0593867426,
			"-0.005": 13.9533019731,
			"-0.004": 10.2437167954,
			"-0.003": 8.69087635102,
			"-0.002": 8.29151507374,
			"-0.001": 5.44085303045,
			"0.0": 3.48633103921,
			"0.001": 3.16750941923,
			"0.002": 4.01032971843,
			"0.003": 3.7113192355,
			"0.004": 4.40805438651,
			"0.005": 4.74043260018,
			"0.006": 4.08519265987,
			"0.007": 3.321862046,
			"0.008": 4.38376125273,
			"0.009": 4.76002479264,
			"0.01": 7.0249995938,
			"0.011": 6.65207770382,
			"0.012": 5.76602939448,
			"0.013": 6.48390808815,
			"0.014": 4.02347852065,
			"0.015": 0.318358471502,
			"0.016": 0.0,
			"0.017": 0.0,
			"0.018": 0.0,
			"0.019": 0.0,
			"0.02": 0.0,
			"0.021": 0.0,
			"0.022": 0.0,
			"0.023": 0.0,
			"0.024": 0.0,
			"0.025": 0.0
		}
	}
}
