{
	 "smiles": "OC(=O)C1=CC=C(O)C(=C1)[N+]([O-])=O", 
	 "Tm": 503.15, 
	 "num_atms": 18, 
	 "gaussian": { 
		 "optdone": 1, 
		 "sigma_profile": "yes", 
		 "theory": "DFT", 
		 "functional": "B3LYP", 
		 "basiset": "6-31G**", 
		 "properties": { 
			 "R2extent": 2960.9922, 
			 "electric_dipole_moment_norm": 6.69554510104, 
			 "electric_quadrupole_moment_norm": 14.4676134414, 
			 "total_energy": -700.532374211, 
			 "HOMO_LUMO_gap": 0.17663, 
			 "cosmo_polarized_energy": -20.55, 
			 "cosmo_cavitation_energy": 24.26, 
			 "cosmo_dispersion_energy": -17.94, 
			 "cosmo_repulsion_energy": 1.42, 
			 "cosmo_total_nonelectrostatic_energy": 7.75, 
			 "SMD_solvation_energy": 8.19 
		},
		"coords": [
			{
				"x": 0.8681961905,
				"y": 0.2003282841,
				"z": 2.6148035043,
				"element": "O" 
			},
			{
				"x": 0.5868187214,
				"y": 1.0825559071,
				"z": 1.6229495751,
				"element": "C" 
			},
			{
				"x": 0.6774608202,
				"y": 2.2835917816,
				"z": 1.7745093341,
				"element": "O" 
			},
			{
				"x": 0.1664537136,
				"y": 0.4154017388,
				"z": 0.3652948987,
				"element": "C" 
			},
			{
				"x": 0.0833406896,
				"y": -0.9799271132,
				"z": 0.237379177,
				"element": "C" 
			},
			{
				"x": -0.3163738731,
				"y": -1.5491996058,
				"z": -0.961610906,
				"element": "C" 
			},
			{
				"x": -0.6362316878,
				"y": -0.7562243098,
				"z": -2.077862976,
				"element": "C" 
			},
			{
				"x": -1.0453867937,
				"y": -1.307874401,
				"z": -3.2350715316,
				"element": "O" 
			},
			{
				"x": -0.5452915099,
				"y": 0.6474058449,
				"z": -1.9372525214,
				"element": "C" 
			},
			{
				"x": -0.1588169492,
				"y": 1.2170337124,
				"z": -0.728558162,
				"element": "C" 
			},
			{
				"x": -0.8460272742,
				"y": 1.5643550908,
				"z": -3.0466643223,
				"element": "N" 
			},
			{
				"x": -0.8028074584,
				"y": 1.122662735,
				"z": -4.1909587004,
				"element": "O" 
			},
			{
				"x": -1.1055817065,
				"y": 2.7315115035,
				"z": -2.7501545548,
				"element": "O" 
			},
			{
				"x": 1.1289424146,
				"y": 0.7366826591,
				"z": 3.3814613466,
				"element": "H" 
			},
			{
				"x": 0.3303112284,
				"y": -1.6125154172,
				"z": 1.0821263069,
				"element": "H" 
			},
			{
				"x": -0.3877691945,
				"y": -2.6305887823,
				"z": -1.0528692048,
				"element": "H" 
			},
			{
				"x": -1.0919424564,
				"y": -2.2683236776,
				"z": -3.1268906387,
				"element": "H" 
			},
			{
				"x": -0.1122948745,
				"y": 2.2956240498,
				"z": -0.6441306246,
				"element": "H" 
			}
		],
		 "valence_orbital": [ 
			{
				"type": "occ",
				"energy": -0.30461,
				"method": "rhf"
			},
			{
				"type": "occ",
				"energy": -0.29832,
				"method": "rhf"
			},
			{
				"type": "occ",
				"energy": -0.28947,
				"method": "rhf"
			},
			{
				"type": "occ",
				"energy": -0.28185,
				"method": "rhf"
			},
			{
				"type": "occ",
				"energy": -0.26309,
				"method": "rhf"
			},
			{
				"type": "unocc",
				"energy": -0.08646,
				"method": "rhf"
			},
			{
				"type": "unocc",
				"energy": -0.05958,
				"method": "rhf"
			},
			{
				"type": "unocc",
				"energy": -0.01711,
				"method": "rhf"
			},
			{
				"type": "unocc",
				"energy": 0.04022,
				"method": "rhf"
			},
			{
				"type": "unocc",
				"energy": 0.04942,
				"method": "rhf"
			}
		],
		"cosmo_sigma_profile": { 
			"-0.025": 0.0,
			"-0.024": 0.0,
			"-0.023": 0.0,
			"-0.022": 0.0,
			"-0.021": 0.0,
			"-0.02": 0.42168435112,
			"-0.019": 1.66947674271,
			"-0.018": 1.83770930522,
			"-0.017": 2.46736839441,
			"-0.016": 1.38696585027,
			"-0.015": 2.09547419912,
			"-0.014": 2.45168422508,
			"-0.013": 1.10773152348,
			"-0.012": 1.44601033495,
			"-0.011": 2.04973963223,
			"-0.01": 1.91152941922,
			"-0.009": 1.99771196718,
			"-0.008": 4.06632890928,
			"-0.007": 6.01132975811,
			"-0.006": 5.40025255783,
			"-0.005": 5.98083167178,
			"-0.004": 6.10183930726,
			"-0.003": 10.9775846411,
			"-0.002": 15.1011596988,
			"-0.001": 18.293206641,
			"0.0": 15.4316057407,
			"0.001": 11.1274080669,
			"0.002": 7.0113573281,
			"0.003": 4.79509636975,
			"0.004": 6.02102213834,
			"0.005": 5.70068792492,
			"0.006": 6.77890286048,
			"0.007": 9.66471721154,
			"0.008": 11.0820002582,
			"0.009": 8.39264107095,
			"0.01": 5.89581182655,
			"0.011": 6.22647615468,
			"0.012": 3.50863837426,
			"0.013": 0.156861823519,
			"0.014": 0.0,
			"0.015": 0.0,
			"0.016": 0.0,
			"0.017": 0.0,
			"0.018": 0.0,
			"0.019": 0.0,
			"0.02": 0.0,
			"0.021": 0.0,
			"0.022": 0.0,
			"0.023": 0.0,
			"0.024": 0.0,
			"0.025": 0.0
		}
	}
}
