{
	 "smiles": "OC(=O)C(F)(F)C1=CNC(=O)NC1=O", 
	 "Tm": 462.15, 
	 "num_atms": 18, 
	 "gaussian": { 
		 "optdone": 1, 
		 "sigma_profile": "yes", 
		 "theory": "DFT", 
		 "functional": "B3LYP", 
		 "basiset": "6-31G**", 
		 "properties": { 
			 "R2extent": 3686.4889, 
			 "electric_dipole_moment_norm": 5.32921664225, 
			 "electric_quadrupole_moment_norm": 30.3307454066, 
			 "total_energy": -841.164873342, 
			 "HOMO_LUMO_gap": 0.19017, 
			 "cosmo_polarized_energy": -22.93, 
			 "cosmo_cavitation_energy": 24.26, 
			 "cosmo_dispersion_energy": -17.93, 
			 "cosmo_repulsion_energy": 1.37, 
			 "cosmo_total_nonelectrostatic_energy": 7.7, 
			 "SMD_solvation_energy": 7.88 
		},
		"coords": [
			{
				"x": 2.7198170631,
				"y": -1.308796958,
				"z": 1.2291589974,
				"element": "O" 
			},
			{
				"x": 3.4028374909,
				"y": -0.8988937381,
				"z": 0.1631790684,
				"element": "C" 
			},
			{
				"x": 4.3881247669,
				"y": -1.4449081287,
				"z": -0.2611372793,
				"element": "O" 
			},
			{
				"x": 2.8380467147,
				"y": 0.3863569546,
				"z": -0.5151426333,
				"element": "C" 
			},
			{
				"x": 2.7310929081,
				"y": 1.3571637572,
				"z": 0.4519455266,
				"element": "F" 
			},
			{
				"x": 3.7484320079,
				"y": 0.81331418,
				"z": -1.431024912,
				"element": "F" 
			},
			{
				"x": 1.5008287267,
				"y": 0.2216749783,
				"z": -1.1956016105,
				"element": "C" 
			},
			{
				"x": 1.3712456982,
				"y": 0.3791794006,
				"z": -2.53686952,
				"element": "C" 
			},
			{
				"x": 0.1602888653,
				"y": 0.2948995317,
				"z": -3.1614120807,
				"element": "N" 
			},
			{
				"x": -1.0479218831,
				"y": 0.075858892,
				"z": -2.4941918642,
				"element": "C" 
			},
			{
				"x": -2.1180524049,
				"y": 0.019902956,
				"z": -3.0610728772,
				"element": "O" 
			},
			{
				"x": -0.8793074091,
				"y": -0.0729929048,
				"z": -1.1225399072,
				"element": "N" 
			},
			{
				"x": 0.3100913775,
				"y": -0.0468958128,
				"z": -0.3964420992,
				"element": "C" 
			},
			{
				"x": 0.2895933662,
				"y": -0.2492679789,
				"z": 0.8188871685,
				"element": "O" 
			},
			{
				"x": 1.8762207223,
				"y": -0.8039037367,
				"z": 1.3328861509,
				"element": "H" 
			},
			{
				"x": 2.227233345,
				"y": 0.5827094076,
				"z": -3.1686460872,
				"element": "H" 
			},
			{
				"x": 0.0799245917,
				"y": 0.4069479719,
				"z": -4.1629508394,
				"element": "H" 
			},
			{
				"x": -1.7250959473,
				"y": -0.2550487718,
				"z": -0.5937252016,
				"element": "H" 
			}
		],
		 "valence_orbital": [ 
			{
				"type": "occ",
				"energy": -0.32488,
				"method": "rhf"
			},
			{
				"type": "occ",
				"energy": -0.31646,
				"method": "rhf"
			},
			{
				"type": "occ",
				"energy": -0.30859,
				"method": "rhf"
			},
			{
				"type": "occ",
				"energy": -0.29334,
				"method": "rhf"
			},
			{
				"type": "occ",
				"energy": -0.27234,
				"method": "rhf"
			},
			{
				"type": "unocc",
				"energy": -0.08217,
				"method": "rhf"
			},
			{
				"type": "unocc",
				"energy": -0.0331,
				"method": "rhf"
			},
			{
				"type": "unocc",
				"energy": 0.00109,
				"method": "rhf"
			},
			{
				"type": "unocc",
				"energy": 0.03254,
				"method": "rhf"
			},
			{
				"type": "unocc",
				"energy": 0.0716,
				"method": "rhf"
			}
		],
		"cosmo_sigma_profile": { 
			"-0.025": 0.0,
			"-0.024": 0.0,
			"-0.023": 0.0,
			"-0.022": 0.0,
			"-0.021": 0.0,
			"-0.02": 0.0,
			"-0.019": 0.300420703633,
			"-0.018": 1.75124738084,
			"-0.017": 2.50394502012,
			"-0.016": 2.29735933778,
			"-0.015": 1.75950704152,
			"-0.014": 2.40240128457,
			"-0.013": 2.62268572422,
			"-0.012": 2.73455853948,
			"-0.011": 2.18464297928,
			"-0.01": 2.9809441899,
			"-0.009": 2.5522558987,
			"-0.008": 4.35532261118,
			"-0.007": 6.19263592211,
			"-0.006": 9.27676005788,
			"-0.005": 10.5268236786,
			"-0.004": 12.6091199243,
			"-0.003": 10.1059987181,
			"-0.002": 8.11044041909,
			"-0.001": 7.04590845692,
			"0.0": 5.51239384845,
			"0.001": 7.41813199824,
			"0.002": 10.4859391645,
			"0.003": 15.3530451607,
			"0.004": 6.76480277099,
			"0.005": 5.49725037371,
			"0.006": 5.18601492334,
			"0.007": 6.66505497384,
			"0.008": 6.11043192642,
			"0.009": 7.50655880902,
			"0.01": 9.77141178743,
			"0.011": 11.9365478529,
			"0.012": 4.5292098236,
			"0.013": 0.0112602336105,
			"0.014": 0.0,
			"0.015": 0.0,
			"0.016": 0.0,
			"0.017": 0.0,
			"0.018": 0.0,
			"0.019": 0.0,
			"0.02": 0.0,
			"0.021": 0.0,
			"0.022": 0.0,
			"0.023": 0.0,
			"0.024": 0.0,
			"0.025": 0.0
		}
	}
}
