{
	 "smiles": "FC(F)(F)C(C(=O)NC1CCCCC1)C(F)(F)F", 
	 "Tm": 464.15, 
	 "num_atms": 31, 
	 "gaussian": { 
		 "optdone": 1, 
		 "sigma_profile": "yes", 
		 "theory": "DFT", 
		 "functional": "B3LYP", 
		 "basiset": "6-31G**", 
		 "properties": { 
			 "R2extent": 5221.4683, 
			 "electric_dipole_moment_norm": 4.51778670369, 
			 "electric_quadrupole_moment_norm": 10.2545442341, 
			 "total_energy": -1117.94946773, 
			 "HOMO_LUMO_gap": 0.26388, 
			 "cosmo_polarized_energy": -11.67, 
			 "cosmo_cavitation_energy": 34.36, 
			 "cosmo_dispersion_energy": -23.44, 
			 "cosmo_repulsion_energy": 1.7, 
			 "cosmo_total_nonelectrostatic_energy": 12.61, 
			 "SMD_solvation_energy": 6.91 
		},
		"coords": [
			{
				"x": 1.4257902653,
				"y": 1.74199015,
				"z": 1.5569857657,
				"element": "F" 
			},
			{
				"x": 1.697368621,
				"y": 0.4268627751,
				"z": 1.5106790146,
				"element": "C" 
			},
			{
				"x": 1.9063008008,
				"y": 0.1035847076,
				"z": 0.2028212123,
				"element": "F" 
			},
			{
				"x": 2.8564340028,
				"y": 0.2185106004,
				"z": 2.1510219779,
				"element": "F" 
			},
			{
				"x": 0.5457794036,
				"y": -0.4172409195,
				"z": 2.0678255488,
				"element": "C" 
			},
			{
				"x": -0.8081152455,
				"y": 0.0559333437,
				"z": 1.4612935467,
				"element": "C" 
			},
			{
				"x": -1.66087807,
				"y": 0.6029686585,
				"z": 2.1416093736,
				"element": "O" 
			},
			{
				"x": -0.9412386471,
				"y": -0.2113558839,
				"z": 0.137291518,
				"element": "N" 
			},
			{
				"x": -2.0881758306,
				"y": 0.2860916934,
				"z": -0.6447032941,
				"element": "C" 
			},
			{
				"x": -2.1278296878,
				"y": -0.423101192,
				"z": -2.022928976,
				"element": "C" 
			},
			{
				"x": -1.5116511626,
				"y": 0.4223234537,
				"z": -3.1613485504,
				"element": "C" 
			},
			{
				"x": -0.3226313399,
				"y": 1.2597521875,
				"z": -2.6694760907,
				"element": "C" 
			},
			{
				"x": -0.7536895889,
				"y": 2.2643578714,
				"z": -1.5693847095,
				"element": "C" 
			},
			{
				"x": -2.0271868007,
				"y": 1.8139048465,
				"z": -0.8205990592,
				"element": "C" 
			},
			{
				"x": 0.5021157798,
				"y": -0.4157427354,
				"z": 3.5999677544,
				"element": "C" 
			},
			{
				"x": -0.5533939466,
				"y": -1.1188172009,
				"z": 4.0390357879,
				"element": "F" 
			},
			{
				"x": 0.4445864084,
				"y": 0.8230187402,
				"z": 4.1064498721,
				"element": "F" 
			},
			{
				"x": 1.6089774587,
				"y": -1.0124973745,
				"z": 4.0976120942,
				"element": "F" 
			},
			{
				"x": 0.7458419813,
				"y": -1.4508790782,
				"z": 1.7697632779,
				"element": "H" 
			},
			{
				"x": -0.1376009956,
				"y": -0.5562256424,
				"z": -0.3669358496,
				"element": "H" 
			},
			{
				"x": -2.9782764574,
				"y": 0.0298579835,
				"z": -0.0632842863,
				"element": "H" 
			},
			{
				"x": -3.1674077151,
				"y": -0.6641584898,
				"z": -2.2680353536,
				"element": "H" 
			},
			{
				"x": -1.6095507549,
				"y": -1.3870224823,
				"z": -1.942033499,
				"element": "H" 
			},
			{
				"x": -1.2111515847,
				"y": -0.2332638406,
				"z": -3.9860648401,
				"element": "H" 
			},
			{
				"x": -2.2734763332,
				"y": 1.0970429231,
				"z": -3.571879156,
				"element": "H" 
			},
			{
				"x": 0.4554723322,
				"y": 0.5892010586,
				"z": -2.2791040225,
				"element": "H" 
			},
			{
				"x": 0.1414260663,
				"y": 1.7898833924,
				"z": -3.508067751,
				"element": "H" 
			},
			{
				"x": -0.9384756333,
				"y": 3.2489103238,
				"z": -2.0132939978,
				"element": "H" 
			},
			{
				"x": 0.0654998878,
				"y": 2.400402245,
				"z": -0.8557984188,
				"element": "H" 
			},
			{
				"x": -2.9222956331,
				"y": 2.1123486453,
				"z": -1.3807316303,
				"element": "H" 
			},
			{
				"x": -2.0946675812,
				"y": 2.2968592398,
				"z": 0.1575127409,
				"element": "H" 
			}
		],
		 "valence_orbital": [ 
			{
				"type": "occ",
				"energy": -0.32135,
				"method": "rhf"
			},
			{
				"type": "occ",
				"energy": -0.31813,
				"method": "rhf"
			},
			{
				"type": "occ",
				"energy": -0.3114,
				"method": "rhf"
			},
			{
				"type": "occ",
				"energy": -0.27138,
				"method": "rhf"
			},
			{
				"type": "occ",
				"energy": -0.26216,
				"method": "rhf"
			},
			{
				"type": "unocc",
				"energy": 0.00172,
				"method": "rhf"
			},
			{
				"type": "unocc",
				"energy": 0.05728,
				"method": "rhf"
			},
			{
				"type": "unocc",
				"energy": 0.07924,
				"method": "rhf"
			},
			{
				"type": "unocc",
				"energy": 0.08085,
				"method": "rhf"
			},
			{
				"type": "unocc",
				"energy": 0.1051,
				"method": "rhf"
			}
		],
		"cosmo_sigma_profile": { 
			"-0.025": 0.0,
			"-0.024": 0.0,
			"-0.023": 0.0,
			"-0.022": 0.0,
			"-0.021": 0.0,
			"-0.02": 0.0,
			"-0.019": 0.0,
			"-0.018": 0.0,
			"-0.017": 0.0,
			"-0.016": 0.0,
			"-0.015": 0.0,
			"-0.014": 0.0230633067663,
			"-0.013": 0.695123076077,
			"-0.012": 3.62043814246,
			"-0.011": 3.47159662419,
			"-0.01": 3.26272047735,
			"-0.009": 2.20959354584,
			"-0.008": 2.51305828358,
			"-0.007": 1.62656602509,
			"-0.006": 2.02845547947,
			"-0.005": 2.89040383738,
			"-0.004": 6.98279148473,
			"-0.003": 19.6622221078,
			"-0.002": 27.8604040996,
			"-0.001": 32.9046220448,
			"0.0": 36.9274038304,
			"0.001": 35.9911445164,
			"0.002": 46.5398785961,
			"0.003": 15.4947009971,
			"0.004": 3.81234500382,
			"0.005": 2.79786508505,
			"0.006": 1.65055971906,
			"0.007": 2.27037656515,
			"0.008": 2.19887130154,
			"0.009": 1.92913238377,
			"0.01": 2.21287662631,
			"0.011": 2.40585936947,
			"0.012": 3.85622604928,
			"0.013": 1.4702101705,
			"0.014": 0.0,
			"0.015": 0.0,
			"0.016": 0.0,
			"0.017": 0.0,
			"0.018": 0.0,
			"0.019": 0.0,
			"0.02": 0.0,
			"0.021": 0.0,
			"0.022": 0.0,
			"0.023": 0.0,
			"0.024": 0.0,
			"0.025": 0.0
		}
	}
}
