{
	 "smiles": "COC1=CC=C(F)C(F)=C1C=O", 
	 "Tm": 331.65, 
	 "num_atms": 18, 
	 "gaussian": { 
		 "optdone": 1, 
		 "sigma_profile": "yes", 
		 "theory": "DFT", 
		 "functional": "B3LYP", 
		 "basiset": "6-31G**", 
		 "properties": { 
			 "R2extent": 3314.6554, 
			 "electric_dipole_moment_norm": 6.25744008761, 
			 "electric_quadrupole_moment_norm": 19.2125166792, 
			 "total_energy": -658.544961523, 
			 "HOMO_LUMO_gap": 0.17062, 
			 "cosmo_polarized_energy": -10.83, 
			 "cosmo_cavitation_energy": 23.68, 
			 "cosmo_dispersion_energy": -17.14, 
			 "cosmo_repulsion_energy": 1.32, 
			 "cosmo_total_nonelectrostatic_energy": 7.86, 
			 "SMD_solvation_energy": 6.95 
		},
		"coords": [
			{
				"x": 2.5348601397,
				"y": 1.0532933202,
				"z": 1.0681056475,
				"element": "C" 
			},
			{
				"x": 1.4771109218,
				"y": 1.934707398,
				"z": 0.7136105104,
				"element": "O" 
			},
			{
				"x": 0.5247259288,
				"y": 1.5012404012,
				"z": -0.1548397134,
				"element": "C" 
			},
			{
				"x": 0.5226856388,
				"y": 0.2259005896,
				"z": -0.7272182828,
				"element": "C" 
			},
			{
				"x": -0.4961189513,
				"y": -0.1376368598,
				"z": -1.6114246722,
				"element": "C" 
			},
			{
				"x": -1.5022156418,
				"y": 0.7609951122,
				"z": -1.9215720531,
				"element": "C" 
			},
			{
				"x": -2.4880104102,
				"y": 0.4226832122,
				"z": -2.7711028211,
				"element": "F" 
			},
			{
				"x": -1.5059133094,
				"y": 2.034723344,
				"z": -1.3539262517,
				"element": "C" 
			},
			{
				"x": -2.4989361632,
				"y": 2.8577415704,
				"z": -1.6885241598,
				"element": "F" 
			},
			{
				"x": -0.5011506906,
				"y": 2.4361507751,
				"z": -0.4627164757,
				"element": "C" 
			},
			{
				"x": -0.4903345974,
				"y": 3.7887064782,
				"z": 0.1505514293,
				"element": "C" 
			},
			{
				"x": -1.3205469391,
				"y": 4.6546057271,
				"z": -0.0514171305,
				"element": "O" 
			},
			{
				"x": 3.1278948406,
				"y": 0.7655118075,
				"z": 0.1915413998,
				"element": "H" 
			},
			{
				"x": 3.1646256707,
				"y": 1.6095576461,
				"z": 1.762964301,
				"element": "H" 
			},
			{
				"x": 2.1561098535,
				"y": 0.1513207422,
				"z": 1.5639531918,
				"element": "H" 
			},
			{
				"x": 1.3006974782,
				"y": -0.4899548608,
				"z": -0.4967701718,
				"element": "H" 
			},
			{
				"x": -0.5158095142,
				"y": -1.122383594,
				"z": -2.0662419887,
				"element": "H" 
			},
			{
				"x": 0.3620257451,
				"y": 3.9643371908,
				"z": 0.831927241,
				"element": "H" 
			}
		],
		 "valence_orbital": [ 
			{
				"type": "occ",
				"energy": -0.35886,
				"method": "rhf"
			},
			{
				"type": "occ",
				"energy": -0.3319,
				"method": "rhf"
			},
			{
				"type": "occ",
				"energy": -0.26909,
				"method": "rhf"
			},
			{
				"type": "occ",
				"energy": -0.24654,
				"method": "rhf"
			},
			{
				"type": "occ",
				"energy": -0.23768,
				"method": "rhf"
			},
			{
				"type": "unocc",
				"energy": -0.06706,
				"method": "rhf"
			},
			{
				"type": "unocc",
				"energy": -0.00391,
				"method": "rhf"
			},
			{
				"type": "unocc",
				"energy": 0.03332,
				"method": "rhf"
			},
			{
				"type": "unocc",
				"energy": 0.05956,
				"method": "rhf"
			},
			{
				"type": "unocc",
				"energy": 0.08566,
				"method": "rhf"
			}
		],
		"cosmo_sigma_profile": { 
			"-0.025": 0.0,
			"-0.024": 0.0,
			"-0.023": 0.0,
			"-0.022": 0.0,
			"-0.021": 0.0,
			"-0.02": 0.0,
			"-0.019": 0.0,
			"-0.018": 0.0,
			"-0.017": 0.0,
			"-0.016": 0.0,
			"-0.015": 0.0,
			"-0.014": 0.0,
			"-0.013": 0.0,
			"-0.012": 0.0,
			"-0.011": 0.0,
			"-0.01": 0.0,
			"-0.009": 0.809432883323,
			"-0.008": 4.17751412766,
			"-0.007": 6.24493026593,
			"-0.006": 13.4689057762,
			"-0.005": 11.7235580878,
			"-0.004": 13.3412379631,
			"-0.003": 12.1486033282,
			"-0.002": 13.4655878281,
			"-0.001": 19.5527713559,
			"0.0": 16.4727678265,
			"0.001": 11.67248099,
			"0.002": 11.1054148441,
			"0.003": 16.6231963989,
			"0.004": 14.737994411,
			"0.005": 4.5699260909,
			"0.006": 2.32343794166,
			"0.007": 1.82578026566,
			"0.008": 2.09842858753,
			"0.009": 2.41855320506,
			"0.01": 2.92425511692,
			"0.011": 4.50445203185,
			"0.012": 3.48060276152,
			"0.013": 0.789455974204,
			"0.014": 0.0,
			"0.015": 0.0,
			"0.016": 0.0,
			"0.017": 0.0,
			"0.018": 0.0,
			"0.019": 0.0,
			"0.02": 0.0,
			"0.021": 0.0,
			"0.022": 0.0,
			"0.023": 0.0,
			"0.024": 0.0,
			"0.025": 0.0
		}
	}
}
