{
	 "smiles": "COC1=C(O)C(CNC2=CC=C(F)C=C2)=CC=C1", 
	 "Tm": 350.15, 
	 "num_atms": 32, 
	 "gaussian": { 
		 "optdone": 1, 
		 "sigma_profile": "yes", 
		 "theory": "DFT", 
		 "functional": "B3LYP", 
		 "basiset": "6-31G**", 
		 "properties": { 
			 "R2extent": 5797.9988, 
			 "electric_dipole_moment_norm": 2.07653465899, 
			 "electric_quadrupole_moment_norm": 19.7880495022, 
			 "total_energy": -846.943706864, 
			 "HOMO_LUMO_gap": 0.18283, 
			 "cosmo_polarized_energy": -15.04, 
			 "cosmo_cavitation_energy": 35.69, 
			 "cosmo_dispersion_energy": -25.55, 
			 "cosmo_repulsion_energy": 1.95, 
			 "cosmo_total_nonelectrostatic_energy": 12.09, 
			 "SMD_solvation_energy": 7.47 
		},
		"coords": [
			{
				"x": -3.3707610303,
				"y": 0.8579196068,
				"z": -3.9494792457,
				"element": "C" 
			},
			{
				"x": -2.1588485396,
				"y": 0.4626038897,
				"z": -3.333630562,
				"element": "O" 
			},
			{
				"x": -1.643659522,
				"y": 1.2691615712,
				"z": -2.3622323254,
				"element": "C" 
			},
			{
				"x": -0.4284216245,
				"y": 0.8193458504,
				"z": -1.789962007,
				"element": "C" 
			},
			{
				"x": 0.0943499101,
				"y": -0.3430216463,
				"z": -2.2570410951,
				"element": "O" 
			},
			{
				"x": 0.1885810601,
				"y": 1.5779521475,
				"z": -0.7835903213,
				"element": "C" 
			},
			{
				"x": 1.5432688409,
				"y": 1.1713088402,
				"z": -0.2321503412,
				"element": "C" 
			},
			{
				"x": 1.7050813989,
				"y": -0.2817224423,
				"z": -0.0175622395,
				"element": "N" 
			},
			{
				"x": 1.2053677809,
				"y": -0.8843137433,
				"z": 1.1670110118,
				"element": "C" 
			},
			{
				"x": 0.1498552796,
				"y": -0.3285023039,
				"z": 1.9050341403,
				"element": "C" 
			},
			{
				"x": -0.3312671513,
				"y": -0.9757908533,
				"z": 3.0448115486,
				"element": "C" 
			},
			{
				"x": 0.2426904087,
				"y": -2.1743949344,
				"z": 3.4438272344,
				"element": "C" 
			},
			{
				"x": -0.2219965807,
				"y": -2.7984126878,
				"z": 4.5496117128,
				"element": "F" 
			},
			{
				"x": 1.288804242,
				"y": -2.7485355862,
				"z": 2.7297762225,
				"element": "C" 
			},
			{
				"x": 1.7642801326,
				"y": -2.1007810554,
				"z": 1.5933450853,
				"element": "C" 
			},
			{
				"x": -0.4145547429,
				"y": 2.7676654838,
				"z": -0.3443912073,
				"element": "C" 
			},
			{
				"x": -1.6051245837,
				"y": 3.2075613518,
				"z": -0.9073799959,
				"element": "C" 
			},
			{
				"x": -2.2191018024,
				"y": 2.4605651826,
				"z": -1.9204565773,
				"element": "C" 
			},
			{
				"x": -3.2720416055,
				"y": 1.8248068958,
				"z": -4.4612196289,
				"element": "H" 
			},
			{
				"x": -3.6004637406,
				"y": 0.085524135,
				"z": -4.6853456988,
				"element": "H" 
			},
			{
				"x": -4.1945089525,
				"y": 0.921666561,
				"z": -3.2256773015,
				"element": "H" 
			},
			{
				"x": 0.74824258,
				"y": -0.639278091,
				"z": -1.5861286626,
				"element": "H" 
			},
			{
				"x": 1.744468269,
				"y": 1.7332278069,
				"z": 0.691151243,
				"element": "H" 
			},
			{
				"x": 2.3218005564,
				"y": 1.4512462033,
				"z": -0.9531653493,
				"element": "H" 
			},
			{
				"x": 2.6653466379,
				"y": -0.5630840256,
				"z": -0.1791832637,
				"element": "H" 
			},
			{
				"x": -0.3118517438,
				"y": 0.5983212876,
				"z": 1.5868804025,
				"element": "H" 
			},
			{
				"x": -1.1480913143,
				"y": -0.5550238219,
				"z": 3.6212833734,
				"element": "H" 
			},
			{
				"x": 1.7190763711,
				"y": -3.6858101964,
				"z": 3.0656124198,
				"element": "H" 
			},
			{
				"x": 2.5793177065,
				"y": -2.5451978176,
				"z": 1.0269492903,
				"element": "H" 
			},
			{
				"x": 0.0676175008,
				"y": 3.347224522,
				"z": 0.439135587,
				"element": "H" 
			},
			{
				"x": -2.0660204126,
				"y": 4.1293818618,
				"z": -0.5664230207,
				"element": "H" 
			},
			{
				"x": -3.1502353289,
				"y": 2.808586008,
				"z": -2.3517104288,
				"element": "H" 
			}
		],
		 "valence_orbital": [ 
			{
				"type": "occ",
				"energy": -0.29548,
				"method": "rhf"
			},
			{
				"type": "occ",
				"energy": -0.26058,
				"method": "rhf"
			},
			{
				"type": "occ",
				"energy": -0.22805,
				"method": "rhf"
			},
			{
				"type": "occ",
				"energy": -0.21319,
				"method": "rhf"
			},
			{
				"type": "occ",
				"energy": -0.1957,
				"method": "rhf"
			},
			{
				"type": "unocc",
				"energy": -0.01287,
				"method": "rhf"
			},
			{
				"type": "unocc",
				"energy": 0.00595,
				"method": "rhf"
			},
			{
				"type": "unocc",
				"energy": 0.01197,
				"method": "rhf"
			},
			{
				"type": "unocc",
				"energy": 0.02024,
				"method": "rhf"
			},
			{
				"type": "unocc",
				"energy": 0.06991,
				"method": "rhf"
			}
		],
		"cosmo_sigma_profile": { 
			"-0.025": 0.0,
			"-0.024": 0.0,
			"-0.023": 0.0,
			"-0.022": 0.0,
			"-0.021": 0.0,
			"-0.02": 0.0,
			"-0.019": 0.0,
			"-0.018": 0.0,
			"-0.017": 0.0,
			"-0.016": 0.0,
			"-0.015": 0.0,
			"-0.014": 0.349986991653,
			"-0.013": 1.29194722139,
			"-0.012": 1.81303233827,
			"-0.011": 1.57107348123,
			"-0.01": 1.40595861396,
			"-0.009": 2.35058477673,
			"-0.008": 2.49066550403,
			"-0.007": 5.67444912501,
			"-0.006": 13.1758939531,
			"-0.005": 25.1111508794,
			"-0.004": 26.4308118499,
			"-0.003": 25.8048399683,
			"-0.002": 18.3280460168,
			"-0.001": 14.0590681038,
			"0.0": 14.0102533953,
			"0.001": 14.3255678387,
			"0.002": 19.675203134,
			"0.003": 19.4478485586,
			"0.004": 25.3419804406,
			"0.005": 23.6049239044,
			"0.006": 7.92405979638,
			"0.007": 4.12062837211,
			"0.008": 1.95628167486,
			"0.009": 1.83287028258,
			"0.01": 2.33331815512,
			"0.011": 1.7733953826,
			"0.012": 2.41423914797,
			"0.013": 1.51152399792,
			"0.014": 2.1313540903,
			"0.015": 1.5395202914,
			"0.016": 0.419010718492,
			"0.017": 0.0,
			"0.018": 0.0,
			"0.019": 0.0,
			"0.02": 0.0,
			"0.021": 0.0,
			"0.022": 0.0,
			"0.023": 0.0,
			"0.024": 0.0,
			"0.025": 0.0
		}
	}
}
