{
	 "smiles": "OC(=O)C1=NN(C2=C1CCC2)C1=CC=C(F)C=C1", 
	 "Tm": 476.15, 
	 "num_atms": 29, 
	 "gaussian": { 
		 "optdone": 1, 
		 "sigma_profile": "yes", 
		 "theory": "DFT", 
		 "functional": "B3LYP", 
		 "basiset": "6-31G**", 
		 "properties": { 
			 "R2extent": 5540.5756, 
			 "electric_dipole_moment_norm": 5.73083104183, 
			 "electric_quadrupole_moment_norm": 23.5941280523, 
			 "total_energy": -861.790036624, 
			 "HOMO_LUMO_gap": 0.1884, 
			 "cosmo_polarized_energy": -14.1, 
			 "cosmo_cavitation_energy": 33.69, 
			 "cosmo_dispersion_energy": -24.39, 
			 "cosmo_repulsion_energy": 1.86, 
			 "cosmo_total_nonelectrostatic_energy": 11.16, 
			 "SMD_solvation_energy": 6.23 
		},
		"coords": [
			{
				"x": 3.301667135,
				"y": 0.4662290204,
				"z": 2.2450452773,
				"element": "O" 
			},
			{
				"x": 2.5392722163,
				"y": -0.6399377911,
				"z": 2.396794466,
				"element": "C" 
			},
			{
				"x": 2.7374679508,
				"y": -1.4437461873,
				"z": 3.2795972608,
				"element": "O" 
			},
			{
				"x": 1.4514335895,
				"y": -0.7827027373,
				"z": 1.3992652746,
				"element": "C" 
			},
			{
				"x": 1.3082734734,
				"y": 0.1380509791,
				"z": 0.4341246296,
				"element": "N" 
			},
			{
				"x": 0.2421438886,
				"y": -0.2604478912,
				"z": -0.3056724709,
				"element": "N" 
			},
			{
				"x": -0.2718028032,
				"y": -1.431461187,
				"z": 0.186762401,
				"element": "C" 
			},
			{
				"x": 0.476309292,
				"y": -1.7933276465,
				"z": 1.2792958077,
				"element": "C" 
			},
			{
				"x": -0.0236158957,
				"y": -3.0675387299,
				"z": 1.8929832433,
				"element": "C" 
			},
			{
				"x": -0.9793249106,
				"y": -3.6053436758,
				"z": 0.7753399517,
				"element": "C" 
			},
			{
				"x": -1.3828401808,
				"y": -2.3900828711,
				"z": -0.1286166213,
				"element": "C" 
			},
			{
				"x": -0.1551073845,
				"y": 0.4913272374,
				"z": -1.4443960461,
				"element": "C" 
			},
			{
				"x": -1.4809698141,
				"y": 0.4496236101,
				"z": -1.8889228252,
				"element": "C" 
			},
			{
				"x": -1.8607259565,
				"y": 1.1775768943,
				"z": -3.0155086531,
				"element": "C" 
			},
			{
				"x": -0.9097453779,
				"y": 1.9509862226,
				"z": -3.6703077445,
				"element": "C" 
			},
			{
				"x": -1.2759436744,
				"y": 2.6596350385,
				"z": -4.7559287246,
				"element": "F" 
			},
			{
				"x": 0.4095366419,
				"y": 2.0152055919,
				"z": -3.2329207453,
				"element": "C" 
			},
			{
				"x": 0.7895601577,
				"y": 1.2760338786,
				"z": -2.1165745253,
				"element": "C" 
			},
			{
				"x": 2.9566774099,
				"y": 0.964128223,
				"z": 1.4824988825,
				"element": "H" 
			},
			{
				"x": 0.7732853482,
				"y": -3.7758417156,
				"z": 2.134688372,
				"element": "H" 
			},
			{
				"x": -0.5626087262,
				"y": -2.8696595602,
				"z": 2.8280530043,
				"element": "H" 
			},
			{
				"x": -0.4356006363,
				"y": -4.3299419001,
				"z": 0.1612635812,
				"element": "H" 
			},
			{
				"x": -1.8548909082,
				"y": -4.1174894769,
				"z": 1.1826779987,
				"element": "H" 
			},
			{
				"x": -2.3603423738,
				"y": -1.9820768566,
				"z": 0.1627800717,
				"element": "H" 
			},
			{
				"x": -1.4507756628,
				"y": -2.6629836044,
				"z": -1.1868003084,
				"element": "H" 
			},
			{
				"x": -2.2216611836,
				"y": -0.1313950754,
				"z": -1.3525635322,
				"element": "H" 
			},
			{
				"x": -2.8825359817,
				"y": 1.1617166438,
				"z": -3.3777513953,
				"element": "H" 
			},
			{
				"x": 1.1232013009,
				"y": 2.6298013209,
				"z": -3.7703016496,
				"element": "H" 
			},
			{
				"x": 1.8104630662,
				"y": 1.2995622456,
				"z": -1.7565049806,
				"element": "H" 
			}
		],
		 "valence_orbital": [ 
			{
				"type": "occ",
				"energy": -0.29483,
				"method": "rhf"
			},
			{
				"type": "occ",
				"energy": -0.28125,
				"method": "rhf"
			},
			{
				"type": "occ",
				"energy": -0.26571,
				"method": "rhf"
			},
			{
				"type": "occ",
				"energy": -0.25333,
				"method": "rhf"
			},
			{
				"type": "occ",
				"energy": -0.23745,
				"method": "rhf"
			},
			{
				"type": "unocc",
				"energy": -0.04905,
				"method": "rhf"
			},
			{
				"type": "unocc",
				"energy": -0.03182,
				"method": "rhf"
			},
			{
				"type": "unocc",
				"energy": -0.00669,
				"method": "rhf"
			},
			{
				"type": "unocc",
				"energy": 0.03014,
				"method": "rhf"
			},
			{
				"type": "unocc",
				"energy": 0.06661,
				"method": "rhf"
			}
		],
		"cosmo_sigma_profile": { 
			"-0.025": 0.0,
			"-0.024": 0.0,
			"-0.023": 0.0,
			"-0.022": 0.0,
			"-0.021": 0.0,
			"-0.02": 0.0,
			"-0.019": 0.0,
			"-0.018": 0.0,
			"-0.017": 0.0,
			"-0.016": 0.0,
			"-0.015": 0.0523186681801,
			"-0.014": 0.326341577421,
			"-0.013": 0.878123623244,
			"-0.012": 0.346007453476,
			"-0.011": 0.906278847249,
			"-0.01": 0.5525729964,
			"-0.009": 0.429518858081,
			"-0.008": 3.69731627331,
			"-0.007": 8.81825455289,
			"-0.006": 10.2049769721,
			"-0.005": 13.1515599082,
			"-0.004": 21.2935309541,
			"-0.003": 25.2081814004,
			"-0.002": 25.1489746339,
			"-0.001": 22.3610910728,
			"0.0": 24.3221399427,
			"0.001": 23.0024033645,
			"0.002": 23.5529543985,
			"0.003": 15.1489771153,
			"0.004": 13.1942408545,
			"0.005": 5.57986306801,
			"0.006": 4.16283135173,
			"0.007": 3.22231065742,
			"0.008": 3.15633336241,
			"0.009": 3.42899011117,
			"0.01": 5.35028929586,
			"0.011": 4.86659995186,
			"0.012": 5.08302373671,
			"0.013": 1.81541347433,
			"0.014": 0.136063693163,
			"0.015": 0.0,
			"0.016": 0.0,
			"0.017": 0.0,
			"0.018": 0.0,
			"0.019": 0.0,
			"0.02": 0.0,
			"0.021": 0.0,
			"0.022": 0.0,
			"0.023": 0.0,
			"0.024": 0.0,
			"0.025": 0.0
		}
	}
}
