{
	 "smiles": "OC(=O)C1=CN=CS1", 
	 "Tm": 443.15, 
	 "num_atms": 11, 
	 "gaussian": { 
		 "optdone": 1, 
		 "sigma_profile": "yes", 
		 "theory": "DFT", 
		 "functional": "B3LYP", 
		 "basiset": "6-31G**", 
		 "properties": { 
			 "R2extent": 1304.8893, 
			 "electric_dipole_moment_norm": 3.071183959, 
			 "electric_quadrupole_moment_norm": 13.6182469738, 
			 "total_energy": -757.60556569, 
			 "HOMO_LUMO_gap": 0.20275, 
			 "cosmo_polarized_energy": -15.09, 
			 "cosmo_cavitation_energy": 17.65, 
			 "cosmo_dispersion_energy": -13.87, 
			 "cosmo_repulsion_energy": 1.09, 
			 "cosmo_total_nonelectrostatic_energy": 4.88, 
			 "SMD_solvation_energy": 2.96 
		},
		"coords": [
			{
				"x": -1.2783743865,
				"y": 1.6587857604,
				"z": 1.9001369601,
				"element": "O" 
			},
			{
				"x": -1.343550451,
				"y": 0.8385800109,
				"z": 0.8202770447,
				"element": "C" 
			},
			{
				"x": -2.2038643196,
				"y": -0.0064740164,
				"z": 0.7419180134,
				"element": "O" 
			},
			{
				"x": -0.3133813101,
				"y": 1.03946066,
				"z": -0.2244467382,
				"element": "C" 
			},
			{
				"x": 0.8347387294,
				"y": 1.7975290069,
				"z": -0.2324351585,
				"element": "C" 
			},
			{
				"x": 1.5953594669,
				"y": 1.7418477681,
				"z": -1.3681886082,
				"element": "N" 
			},
			{
				"x": 1.0387488137,
				"y": 0.9367136555,
				"z": -2.2352019212,
				"element": "C" 
			},
			{
				"x": -0.4433524476,
				"y": 0.1846945737,
				"z": -1.7341610526,
				"element": "S" 
			},
			{
				"x": -0.6155735024,
				"y": 2.3517771348,
				"z": 1.7741922377,
				"element": "H" 
			},
			{
				"x": 1.1876990704,
				"y": 2.4118910715,
				"z": 0.5908303989,
				"element": "H" 
			},
			{
				"x": 1.4562503369,
				"y": 0.7332943746,
				"z": -3.2148211762,
				"element": "H" 
			}
		],
		 "valence_orbital": [ 
			{
				"type": "occ",
				"energy": -0.33182,
				"method": "rhf"
			},
			{
				"type": "occ",
				"energy": -0.31123,
				"method": "rhf"
			},
			{
				"type": "occ",
				"energy": -0.30446,
				"method": "rhf"
			},
			{
				"type": "occ",
				"energy": -0.28175,
				"method": "rhf"
			},
			{
				"type": "occ",
				"energy": -0.27884,
				"method": "rhf"
			},
			{
				"type": "unocc",
				"energy": -0.07609,
				"method": "rhf"
			},
			{
				"type": "unocc",
				"energy": -0.00439,
				"method": "rhf"
			},
			{
				"type": "unocc",
				"energy": 0.00166,
				"method": "rhf"
			},
			{
				"type": "unocc",
				"energy": 0.0431,
				"method": "rhf"
			},
			{
				"type": "unocc",
				"energy": 0.07235,
				"method": "rhf"
			}
		],
		"cosmo_sigma_profile": { 
			"-0.025": 0.0,
			"-0.024": 0.0,
			"-0.023": 0.0,
			"-0.022": 0.0,
			"-0.021": 0.0,
			"-0.02": 0.388525683071,
			"-0.019": 1.08452558527,
			"-0.018": 1.18798046489,
			"-0.017": 1.52758413873,
			"-0.016": 0.697031113901,
			"-0.015": 0.709874281771,
			"-0.014": 1.23483861612,
			"-0.013": 1.14893179772,
			"-0.012": 1.54534862537,
			"-0.011": 2.71971198934,
			"-0.01": 3.85477084853,
			"-0.009": 3.34782643345,
			"-0.008": 4.26319075992,
			"-0.007": 3.93616506336,
			"-0.006": 2.17549825541,
			"-0.005": 3.77363410864,
			"-0.004": 5.63224348331,
			"-0.003": 5.78045649039,
			"-0.002": 9.72873278508,
			"-0.001": 12.221502821,
			"0.0": 13.6457899683,
			"0.001": 11.7313232545,
			"0.002": 5.81023489871,
			"0.003": 3.27358809318,
			"0.004": 3.46059189341,
			"0.005": 4.1392676041,
			"0.006": 3.99197986735,
			"0.007": 3.34585668176,
			"0.008": 4.46662120123,
			"0.009": 4.82866673544,
			"0.01": 6.29559079348,
			"0.011": 6.31079562434,
			"0.012": 4.02235654791,
			"0.013": 1.52775301954,
			"0.014": 0.735789778555,
			"0.015": 0.209544520963,
			"0.016": 0.0,
			"0.017": 0.0,
			"0.018": 0.0,
			"0.019": 0.0,
			"0.02": 0.0,
			"0.021": 0.0,
			"0.022": 0.0,
			"0.023": 0.0,
			"0.024": 0.0,
			"0.025": 0.0
		}
	}
}
