{
	 "smiles": "CC1=C(C=CC(F)=C1)N1CCCC(Br)C1=O", 
	 "Tm": 368.15, 
	 "num_atms": 29, 
	 "gaussian": { 
		 "optdone": 1, 
		 "sigma_profile": "yes", 
		 "theory": "DFT", 
		 "functional": "B3LYP", 
		 "basiset": "6-31G**", 
		 "properties": { 
			 "R2extent": 5463.9843, 
			 "electric_dipole_moment_norm": 4.2164560261, 
			 "electric_quadrupole_moment_norm": 10.452514132, 
			 "total_energy": -3266.34650304, 
			 "HOMO_LUMO_gap": 0.19468, 
			 "cosmo_polarized_energy": -11.83, 
			 "cosmo_cavitation_energy": 33.55, 
			 "cosmo_dispersion_energy": -23.78, 
			 "cosmo_repulsion_energy": 1.82, 
			 "cosmo_total_nonelectrostatic_energy": 11.58, 
			 "SMD_solvation_energy": 5.25 
		},
		"coords": [
			{
				"x": -1.5412404771,
				"y": -1.7528779826,
				"z": 1.1367597894,
				"element": "C" 
			},
			{
				"x": -1.4455658316,
				"y": -1.4724601088,
				"z": -0.3399271789,
				"element": "C" 
			},
			{
				"x": -0.7205332459,
				"y": -0.3745208133,
				"z": -0.84654904,
				"element": "C" 
			},
			{
				"x": -0.6573466907,
				"y": -0.1408123699,
				"z": -2.2246944298,
				"element": "C" 
			},
			{
				"x": -1.3068021921,
				"y": -0.9791926913,
				"z": -3.1279291481,
				"element": "C" 
			},
			{
				"x": -2.0098650825,
				"y": -2.0625836346,
				"z": -2.618855404,
				"element": "C" 
			},
			{
				"x": -2.6463688996,
				"y": -2.8927402755,
				"z": -3.4715161883,
				"element": "F" 
			},
			{
				"x": -2.0845873395,
				"y": -2.3165141858,
				"z": -1.2555299464,
				"element": "C" 
			},
			{
				"x": -0.0683631827,
				"y": 0.5497413978,
				"z": 0.0387687307,
				"element": "N" 
			},
			{
				"x": -0.3684365886,
				"y": 1.9893022684,
				"z": -0.092230899,
				"element": "C" 
			},
			{
				"x": -0.4072318882,
				"y": 2.7011552695,
				"z": 1.2734755691,
				"element": "C" 
			},
			{
				"x": 0.6355387386,
				"y": 2.1445099674,
				"z": 2.2719563775,
				"element": "C" 
			},
			{
				"x": 1.6707650807,
				"y": 1.2415830487,
				"z": 1.614765317,
				"element": "C" 
			},
			{
				"x": 2.9569601031,
				"y": 2.2979113972,
				"z": 0.4932516349,
				"element": "Br" 
			},
			{
				"x": 1.0321886013,
				"y": 0.1466699694,
				"z": 0.7616724888,
				"element": "C" 
			},
			{
				"x": 1.445186438,
				"y": -1.0037483107,
				"z": 0.8033706348,
				"element": "O" 
			},
			{
				"x": -0.5907791808,
				"y": -2.1492051126,
				"z": 1.5076573161,
				"element": "H" 
			},
			{
				"x": -2.3323338629,
				"y": -2.4766859912,
				"z": 1.3473490695,
				"element": "H" 
			},
			{
				"x": -1.7520551552,
				"y": -0.8381900425,
				"z": 1.7007401381,
				"element": "H" 
			},
			{
				"x": -0.0809918875,
				"y": 0.7013695273,
				"z": -2.5947181925,
				"element": "H" 
			},
			{
				"x": -1.2634320904,
				"y": -0.8111879348,
				"z": -4.198084641,
				"element": "H" 
			},
			{
				"x": -2.6535858528,
				"y": -3.1738901184,
				"z": -0.9110352194,
				"element": "H" 
			},
			{
				"x": 0.3772983366,
				"y": 2.467283605,
				"z": -0.7368246266,
				"element": "H" 
			},
			{
				"x": -1.3369309269,
				"y": 2.0730582568,
				"z": -0.588177129,
				"element": "H" 
			},
			{
				"x": -1.4064248442,
				"y": 2.6054188314,
				"z": 1.7091839608,
				"element": "H" 
			},
			{
				"x": -0.2380243257,
				"y": 3.7678283939,
				"z": 1.0989205955,
				"element": "H" 
			},
			{
				"x": 0.1319992129,
				"y": 1.5202888519,
				"z": 3.0217944798,
				"element": "H" 
			},
			{
				"x": 1.131964783,
				"y": 2.9488804348,
				"z": 2.8206907193,
				"element": "H" 
			},
			{
				"x": 2.3198982511,
				"y": 0.7503083523,
				"z": 2.3356152219,
				"element": "H" 
			}
		],
		 "valence_orbital": [ 
			{
				"type": "occ",
				"energy": -0.28108,
				"method": "rhf"
			},
			{
				"type": "occ",
				"energy": -0.26966,
				"method": "rhf"
			},
			{
				"type": "occ",
				"energy": -0.25591,
				"method": "rhf"
			},
			{
				"type": "occ",
				"energy": -0.25346,
				"method": "rhf"
			},
			{
				"type": "occ",
				"energy": -0.23253,
				"method": "rhf"
			},
			{
				"type": "unocc",
				"energy": -0.03785,
				"method": "rhf"
			},
			{
				"type": "unocc",
				"energy": -0.01162,
				"method": "rhf"
			},
			{
				"type": "unocc",
				"energy": -0.00261,
				"method": "rhf"
			},
			{
				"type": "unocc",
				"energy": 0.04373,
				"method": "rhf"
			},
			{
				"type": "unocc",
				"energy": 0.06398,
				"method": "rhf"
			}
		],
		"cosmo_sigma_profile": { 
			"-0.025": 0.0,
			"-0.024": 0.0,
			"-0.023": 0.0,
			"-0.022": 0.0,
			"-0.021": 0.0,
			"-0.02": 0.0,
			"-0.019": 0.0,
			"-0.018": 0.0,
			"-0.017": 0.0,
			"-0.016": 0.0,
			"-0.015": 0.0,
			"-0.014": 0.0,
			"-0.013": 0.0,
			"-0.012": 0.0,
			"-0.011": 0.0,
			"-0.01": 0.0,
			"-0.009": 0.00299722428482,
			"-0.008": 1.55629398375,
			"-0.007": 6.57236222613,
			"-0.006": 12.3538965082,
			"-0.005": 18.1712984503,
			"-0.004": 28.6487686929,
			"-0.003": 25.489898176,
			"-0.002": 23.5647317761,
			"-0.001": 20.113486038,
			"0.0": 19.1542810761,
			"0.001": 19.2267742534,
			"0.002": 16.5239010337,
			"0.003": 18.6365393582,
			"0.004": 22.6916568048,
			"0.005": 14.3668530054,
			"0.006": 4.37812174648,
			"0.007": 2.25060678514,
			"0.008": 0.836685247483,
			"0.009": 2.22332166246,
			"0.01": 1.74641787434,
			"0.011": 1.57038173799,
			"0.012": 2.75759982544,
			"0.013": 4.3661339694,
			"0.014": 1.11082682816,
			"0.015": 0.0,
			"0.016": 0.0,
			"0.017": 0.0,
			"0.018": 0.0,
			"0.019": 0.0,
			"0.02": 0.0,
			"0.021": 0.0,
			"0.022": 0.0,
			"0.023": 0.0,
			"0.024": 0.0,
			"0.025": 0.0
		}
	}
}
