{
	 "smiles": "COC1=C(NC(C)=O)C=C(C=C1)C(C)=O", 
	 "Tm": 394.15, 
	 "num_atms": 28, 
	 "gaussian": { 
		 "optdone": 1, 
		 "sigma_profile": "yes", 
		 "theory": "DFT", 
		 "functional": "B3LYP", 
		 "basiset": "6-31G**", 
		 "properties": { 
			 "R2extent": 4142.0386, 
			 "electric_dipole_moment_norm": 1.59573135584, 
			 "electric_quadrupole_moment_norm": 24.6808189506, 
			 "total_energy": -707.431553105, 
			 "HOMO_LUMO_gap": 0.17864, 
			 "cosmo_polarized_energy": -16.16, 
			 "cosmo_cavitation_energy": 32.09, 
			 "cosmo_dispersion_energy": -22.22, 
			 "cosmo_repulsion_energy": 1.76, 
			 "cosmo_total_nonelectrostatic_energy": 11.63, 
			 "SMD_solvation_energy": 8.3 
		},
		"coords": [
			{
				"x": 0.4333183219,
				"y": 1.0501292064,
				"z": 3.6829684081,
				"element": "C" 
			},
			{
				"x": 0.1966822845,
				"y": -0.0958557254,
				"z": 2.8530268798,
				"element": "O" 
			},
			{
				"x": 0.1570107983,
				"y": 0.1467341242,
				"z": 1.5030603592,
				"element": "C" 
			},
			{
				"x": -0.9400107267,
				"y": 0.7912484428,
				"z": 0.8931829696,
				"element": "C" 
			},
			{
				"x": -2.0420657582,
				"y": 1.2606297077,
				"z": 1.6556504706,
				"element": "N" 
			},
			{
				"x": -2.9947975493,
				"y": 0.524128024,
				"z": 2.353698396,
				"element": "C" 
			},
			{
				"x": -2.8032231546,
				"y": -0.9765532767,
				"z": 2.4157761923,
				"element": "C" 
			},
			{
				"x": -3.9353399079,
				"y": 1.1023962875,
				"z": 2.8750788489,
				"element": "O" 
			},
			{
				"x": -0.9115982286,
				"y": 1.0023779736,
				"z": -0.4898795436,
				"element": "C" 
			},
			{
				"x": 0.1660008659,
				"y": 0.5727404311,
				"z": -1.2744737797,
				"element": "C" 
			},
			{
				"x": 1.2281346959,
				"y": -0.1040142392,
				"z": -0.6545717638,
				"element": "C" 
			},
			{
				"x": 1.2192573545,
				"y": -0.315179365,
				"z": 0.7173716875,
				"element": "C" 
			},
			{
				"x": 0.2278466069,
				"y": 0.7866930111,
				"z": -2.7572127732,
				"element": "C" 
			},
			{
				"x": -0.9128105768,
				"y": 1.519376002,
				"z": -3.4432716669,
				"element": "C" 
			},
			{
				"x": 1.182051504,
				"y": 0.3782082498,
				"z": -3.401583159,
				"element": "O" 
			},
			{
				"x": 0.4398138576,
				"y": 0.6830536392,
				"z": 4.7104414771,
				"element": "H" 
			},
			{
				"x": 1.4061669884,
				"y": 1.4995853548,
				"z": 3.4501309247,
				"element": "H" 
			},
			{
				"x": -0.3558529313,
				"y": 1.7993996804,
				"z": 3.5681557254,
				"element": "H" 
			},
			{
				"x": -2.3243188858,
				"y": 2.225184175,
				"z": 1.5290192289,
				"element": "H" 
			},
			{
				"x": -1.9232041115,
				"y": -1.223986513,
				"z": 3.0153505168,
				"element": "H" 
			},
			{
				"x": -3.694530463,
				"y": -1.4095419365,
				"z": 2.8688022051,
				"element": "H" 
			},
			{
				"x": -2.6514836474,
				"y": -1.3995728176,
				"z": 1.4177195757,
				"element": "H" 
			},
			{
				"x": -1.7628579716,
				"y": 1.501007067,
				"z": -0.9428463717,
				"element": "H" 
			},
			{
				"x": 2.0514296465,
				"y": -0.445208206,
				"z": -1.2726309391,
				"element": "H" 
			},
			{
				"x": 2.0364594154,
				"y": -0.8261214885,
				"z": 1.2163399889,
				"element": "H" 
			},
			{
				"x": -0.6915099875,
				"y": 1.5877326089,
				"z": -4.5085606836,
				"element": "H" 
			},
			{
				"x": -1.8615283554,
				"y": 0.9892139089,
				"z": -3.3038098211,
				"element": "H" 
			},
			{
				"x": -1.0381400842,
				"y": 2.5274956734,
				"z": -3.0329333529,
				"element": "H" 
			}
		],
		 "valence_orbital": [ 
			{
				"type": "occ",
				"energy": -0.28772,
				"method": "rhf"
			},
			{
				"type": "occ",
				"energy": -0.26446,
				"method": "rhf"
			},
			{
				"type": "occ",
				"energy": -0.25681,
				"method": "rhf"
			},
			{
				"type": "occ",
				"energy": -0.25194,
				"method": "rhf"
			},
			{
				"type": "occ",
				"energy": -0.24066,
				"method": "rhf"
			},
			{
				"type": "unocc",
				"energy": -0.06202,
				"method": "rhf"
			},
			{
				"type": "unocc",
				"energy": -0.02795,
				"method": "rhf"
			},
			{
				"type": "unocc",
				"energy": 0.02302,
				"method": "rhf"
			},
			{
				"type": "unocc",
				"energy": 0.03372,
				"method": "rhf"
			},
			{
				"type": "unocc",
				"energy": 0.07987,
				"method": "rhf"
			}
		],
		"cosmo_sigma_profile": { 
			"-0.025": 0.0,
			"-0.024": 0.0,
			"-0.023": 0.0,
			"-0.022": 0.0,
			"-0.021": 0.0,
			"-0.02": 0.0,
			"-0.019": 0.0,
			"-0.018": 0.0,
			"-0.017": 0.0,
			"-0.016": 0.0,
			"-0.015": 0.0559331076221,
			"-0.014": 0.679814365407,
			"-0.013": 0.964205489518,
			"-0.012": 1.34986499309,
			"-0.011": 0.834360160249,
			"-0.01": 0.804174380418,
			"-0.009": 1.08428141023,
			"-0.008": 2.16449379526,
			"-0.007": 5.2619740598,
			"-0.006": 14.0808848782,
			"-0.005": 18.4631557047,
			"-0.004": 23.1581174707,
			"-0.003": 26.3963851417,
			"-0.002": 26.2184646437,
			"-0.001": 26.1743761595,
			"0.0": 17.032207209,
			"0.001": 12.9512772218,
			"0.002": 15.3779850044,
			"0.003": 11.6507202494,
			"0.004": 4.47652138769,
			"0.005": 3.87405362674,
			"0.006": 3.41433481899,
			"0.007": 4.22414711196,
			"0.008": 3.63944508445,
			"0.009": 3.31684753716,
			"0.01": 3.72363988741,
			"0.011": 5.44489358825,
			"0.012": 6.26005236191,
			"0.013": 6.51586672242,
			"0.014": 4.17403209496,
			"0.015": 0.490610811473,
			"0.016": 0.0,
			"0.017": 0.0,
			"0.018": 0.0,
			"0.019": 0.0,
			"0.02": 0.0,
			"0.021": 0.0,
			"0.022": 0.0,
			"0.023": 0.0,
			"0.024": 0.0,
			"0.025": 0.0
		}
	}
}
