{
	 "smiles": "CC1=CC=CN=C1C#N", 
	 "Tm": 359.15, 
	 "num_atms": 15, 
	 "gaussian": { 
		 "optdone": 1, 
		 "sigma_profile": "yes", 
		 "theory": "DFT", 
		 "functional": "B3LYP", 
		 "basiset": "6-31G**", 
		 "properties": { 
			 "R2extent": 2024.8037, 
			 "electric_dipole_moment_norm": 5.51564301238, 
			 "electric_quadrupole_moment_norm": 15.2863604233, 
			 "total_energy": -379.843549162, 
			 "HOMO_LUMO_gap": 0.20655, 
			 "cosmo_polarized_energy": -10.52, 
			 "cosmo_cavitation_energy": 20.16, 
			 "cosmo_dispersion_energy": -14.32, 
			 "cosmo_repulsion_energy": 1.17, 
			 "cosmo_total_nonelectrostatic_energy": 7.01, 
			 "SMD_solvation_energy": 3.51 
		},
		"coords": [
			{
				"x": 0.3359949049,
				"y": 0.8537249616,
				"z": 0.4668648654,
				"element": "C" 
			},
			{
				"x": 1.0133336856,
				"y": 0.099777148,
				"z": -0.6476621411,
				"element": "C" 
			},
			{
				"x": 1.19085518,
				"y": -1.2869049267,
				"z": -0.6102541291,
				"element": "C" 
			},
			{
				"x": 1.8233574738,
				"y": -1.9374489553,
				"z": -1.6661539266,
				"element": "C" 
			},
			{
				"x": 2.2699302867,
				"y": -1.177006753,
				"z": -2.7497415701,
				"element": "C" 
			},
			{
				"x": 2.1198793038,
				"y": 0.1460273769,
				"z": -2.8230892468,
				"element": "N" 
			},
			{
				"x": 1.5074601687,
				"y": 0.7556932042,
				"z": -1.7951371346,
				"element": "C" 
			},
			{
				"x": 1.3599279793,
				"y": 2.1889051463,
				"z": -1.9044684467,
				"element": "C" 
			},
			{
				"x": 1.2207051938,
				"y": 3.3420557074,
				"z": -1.9516591886,
				"element": "N" 
			},
			{
				"x": 1.0028780473,
				"y": 1.6073198999,
				"z": 0.8989830223,
				"element": "H" 
			},
			{
				"x": 0.0247489036,
				"y": 0.1742592073,
				"z": 1.2639336381,
				"element": "H" 
			},
			{
				"x": -0.5495393905,
				"y": 1.3866951532,
				"z": 0.1047333407,
				"element": "H" 
			},
			{
				"x": 0.8316984375,
				"y": -1.8491018645,
				"z": 0.2474723904,
				"element": "H" 
			},
			{
				"x": 1.9695145325,
				"y": -3.0128473999,
				"z": -1.6537539879,
				"element": "H" 
			},
			{
				"x": 2.768455293,
				"y": -1.6499479055,
				"z": -3.5929674854,
				"element": "H" 
			}
		],
		 "valence_orbital": [ 
			{
				"type": "occ",
				"energy": -0.35401,
				"method": "rhf"
			},
			{
				"type": "occ",
				"energy": -0.33541,
				"method": "rhf"
			},
			{
				"type": "occ",
				"energy": -0.30236,
				"method": "rhf"
			},
			{
				"type": "occ",
				"energy": -0.27911,
				"method": "rhf"
			},
			{
				"type": "occ",
				"energy": -0.27095,
				"method": "rhf"
			},
			{
				"type": "unocc",
				"energy": -0.0644,
				"method": "rhf"
			},
			{
				"type": "unocc",
				"energy": -0.03732,
				"method": "rhf"
			},
			{
				"type": "unocc",
				"energy": 0.03313,
				"method": "rhf"
			},
			{
				"type": "unocc",
				"energy": 0.07012,
				"method": "rhf"
			},
			{
				"type": "unocc",
				"energy": 0.07971,
				"method": "rhf"
			}
		],
		"cosmo_sigma_profile": { 
			"-0.025": 0.0,
			"-0.024": 0.0,
			"-0.023": 0.0,
			"-0.022": 0.0,
			"-0.021": 0.0,
			"-0.02": 0.0,
			"-0.019": 0.0,
			"-0.018": 0.0,
			"-0.017": 0.0,
			"-0.016": 0.0,
			"-0.015": 0.0,
			"-0.014": 0.0,
			"-0.013": 0.0,
			"-0.012": 0.0,
			"-0.011": 0.0,
			"-0.01": 0.0,
			"-0.009": 0.0167002915712,
			"-0.008": 3.78913249118,
			"-0.007": 8.96209924858,
			"-0.006": 10.6170747276,
			"-0.005": 12.1700773249,
			"-0.004": 10.7765153307,
			"-0.003": 11.2319326353,
			"-0.002": 15.5259016864,
			"-0.001": 16.7183237775,
			"0.0": 14.0603792939,
			"0.001": 11.598240464,
			"0.002": 5.11772710873,
			"0.003": 4.31388712331,
			"0.004": 4.58089792848,
			"0.005": 3.97804755313,
			"0.006": 4.16964489409,
			"0.007": 4.28671811992,
			"0.008": 4.20164386978,
			"0.009": 3.98582652511,
			"0.01": 3.82221939956,
			"0.011": 3.62389753309,
			"0.012": 3.05774462754,
			"0.013": 1.41120924052,
			"0.014": 0.632025511227,
			"0.015": 0.07518353692,
			"0.016": 0.0,
			"0.017": 0.0,
			"0.018": 0.0,
			"0.019": 0.0,
			"0.02": 0.0,
			"0.021": 0.0,
			"0.022": 0.0,
			"0.023": 0.0,
			"0.024": 0.0,
			"0.025": 0.0
		}
	}
}
