{
	 "smiles": "OC(=O)C1CCCCS1(=O)=O", 
	 "Tm": 440.15, 
	 "num_atms": 21, 
	 "gaussian": { 
		 "optdone": 1, 
		 "sigma_profile": "yes", 
		 "theory": "DFT", 
		 "functional": "B3LYP", 
		 "basiset": "6-31G**", 
		 "properties": { 
			 "R2extent": 2723.1758, 
			 "electric_dipole_moment_norm": 6.84574390698, 
			 "electric_quadrupole_moment_norm": 9.89726060483, 
			 "total_energy": -933.698360464, 
			 "HOMO_LUMO_gap": 0.26824, 
			 "cosmo_polarized_energy": -19.04, 
			 "cosmo_cavitation_energy": 24.16, 
			 "cosmo_dispersion_energy": -18.61, 
			 "cosmo_repulsion_energy": 1.43, 
			 "cosmo_total_nonelectrostatic_energy": 6.99, 
			 "SMD_solvation_energy": 4.04 
		},
		"coords": [
			{
				"x": -3.4448983845,
				"y": -1.7422207523,
				"z": -0.3258064124,
				"element": "O" 
			},
			{
				"x": -2.3618850131,
				"y": -1.1069523537,
				"z": -0.801654145,
				"element": "C" 
			},
			{
				"x": -2.1080707604,
				"y": -1.0598364772,
				"z": -1.9784676414,
				"element": "O" 
			},
			{
				"x": -1.5079042087,
				"y": -0.3715690364,
				"z": 0.2480379132,
				"element": "C" 
			},
			{
				"x": -0.1727971457,
				"y": 0.1643882954,
				"z": -0.2638869456,
				"element": "C" 
			},
			{
				"x": 0.486388786,
				"y": 1.1543834223,
				"z": 0.7342081371,
				"element": "C" 
			},
			{
				"x": 0.0388868721,
				"y": 0.9792666163,
				"z": 2.2033476592,
				"element": "C" 
			},
			{
				"x": -0.0091629145,
				"y": -0.4808409673,
				"z": 2.666435372,
				"element": "C" 
			},
			{
				"x": -1.2008064281,
				"y": -1.468183865,
				"z": 1.6864022237,
				"element": "S" 
			},
			{
				"x": -2.5031540351,
				"y": -1.5525993845,
				"z": 2.3968258833,
				"element": "O" 
			},
			{
				"x": -0.5309026926,
				"y": -2.6983227436,
				"z": 1.2407394776,
				"element": "O" 
			},
			{
				"x": -3.471913785,
				"y": -1.7259474244,
				"z": 0.653292512,
				"element": "H" 
			},
			{
				"x": -2.1343640951,
				"y": 0.4309143603,
				"z": 0.6554392263,
				"element": "H" 
			},
			{
				"x": 0.4828519444,
				"y": -0.6907340982,
				"z": -0.4584477436,
				"element": "H" 
			},
			{
				"x": -0.3453256323,
				"y": 0.6348183926,
				"z": -1.2344196191,
				"element": "H" 
			},
			{
				"x": 0.2648809421,
				"y": 2.1848801942,
				"z": 0.4367535274,
				"element": "H" 
			},
			{
				"x": 1.5743598632,
				"y": 1.0453526591,
				"z": 0.6714463669,
				"element": "H" 
			},
			{
				"x": 0.7253853578,
				"y": 1.5194888973,
				"z": 2.8641386408,
				"element": "H" 
			},
			{
				"x": -0.9450820135,
				"y": 1.4356306258,
				"z": 2.3616903417,
				"element": "H" 
			},
			{
				"x": 0.9489172775,
				"y": -0.9908458492,
				"z": 2.5379976013,
				"element": "H" 
			},
			{
				"x": -0.3402039345,
				"y": -0.5841705116,
				"z": 3.7032276248,
				"element": "H" 
			}
		],
		 "valence_orbital": [ 
			{
				"type": "occ",
				"energy": -0.3317,
				"method": "rhf"
			},
			{
				"type": "occ",
				"energy": -0.32362,
				"method": "rhf"
			},
			{
				"type": "occ",
				"energy": -0.31511,
				"method": "rhf"
			},
			{
				"type": "occ",
				"energy": -0.30184,
				"method": "rhf"
			},
			{
				"type": "occ",
				"energy": -0.28281,
				"method": "rhf"
			},
			{
				"type": "unocc",
				"energy": -0.01457,
				"method": "rhf"
			},
			{
				"type": "unocc",
				"energy": 0.03554,
				"method": "rhf"
			},
			{
				"type": "unocc",
				"energy": 0.0416,
				"method": "rhf"
			},
			{
				"type": "unocc",
				"energy": 0.05732,
				"method": "rhf"
			},
			{
				"type": "unocc",
				"energy": 0.06511,
				"method": "rhf"
			}
		],
		"cosmo_sigma_profile": { 
			"-0.025": 0.0,
			"-0.024": 0.0,
			"-0.023": 0.0,
			"-0.022": 0.0,
			"-0.021": 0.0,
			"-0.02": 0.0,
			"-0.019": 0.0,
			"-0.018": 0.0,
			"-0.017": 0.0,
			"-0.016": 0.0,
			"-0.015": 0.0,
			"-0.014": 0.0,
			"-0.013": 0.000617633789108,
			"-0.012": 0.557229496124,
			"-0.011": 2.41442443208,
			"-0.01": 4.31309959863,
			"-0.009": 4.85070485667,
			"-0.008": 6.33212341726,
			"-0.007": 8.25849877071,
			"-0.006": 10.9368721348,
			"-0.005": 18.6626187675,
			"-0.004": 20.3730276766,
			"-0.003": 13.4375786115,
			"-0.002": 12.6062166567,
			"-0.001": 8.19963029802,
			"0.0": 5.92803337604,
			"0.001": 5.00109403473,
			"0.002": 3.72982815496,
			"0.003": 3.91554713518,
			"0.004": 3.92552257827,
			"0.005": 4.25478511378,
			"0.006": 5.21289500555,
			"0.007": 4.82171291373,
			"0.008": 5.99092975309,
			"0.009": 8.55833396314,
			"0.01": 11.6771216713,
			"0.011": 12.7744713535,
			"0.012": 2.65427754542,
			"0.013": 0.0168686799239,
			"0.014": 0.0,
			"0.015": 0.0,
			"0.016": 0.0,
			"0.017": 0.0,
			"0.018": 0.0,
			"0.019": 0.0,
			"0.02": 0.0,
			"0.021": 0.0,
			"0.022": 0.0,
			"0.023": 0.0,
			"0.024": 0.0,
			"0.025": 0.0
		}
	}
}
