{
	 "smiles": "OC(=O)C#CC1=CC=CC=C1", 
	 "Tm": 409.15, 
	 "num_atms": 17, 
	 "gaussian": { 
		 "optdone": 1, 
		 "sigma_profile": "yes", 
		 "theory": "DFT", 
		 "functional": "B3LYP", 
		 "basiset": "6-31G**", 
		 "properties": { 
			 "R2extent": 3212.3942, 
			 "electric_dipole_moment_norm": 5.58992638681, 
			 "electric_quadrupole_moment_norm": 26.4687484865, 
			 "total_energy": -496.959723598, 
			 "HOMO_LUMO_gap": 0.19833, 
			 "cosmo_polarized_energy": -12.89, 
			 "cosmo_cavitation_energy": 23.63, 
			 "cosmo_dispersion_energy": -17.04, 
			 "cosmo_repulsion_energy": 1.41, 
			 "cosmo_total_nonelectrostatic_energy": 8.0, 
			 "SMD_solvation_energy": 5.8 
		},
		"coords": [
			{
				"x": 0.7021095216,
				"y": 3.4873614972,
				"z": -4.1569939461,
				"element": "O" 
			},
			{
				"x": -0.0187083183,
				"y": 2.3372942263,
				"z": -4.104151899,
				"element": "C" 
			},
			{
				"x": -0.6452763026,
				"y": 1.9485152345,
				"z": -5.0585114517,
				"element": "O" 
			},
			{
				"x": 0.0389704428,
				"y": 1.6483495313,
				"z": -2.8258054563,
				"element": "C" 
			},
			{
				"x": 0.0534049503,
				"y": 1.0329755263,
				"z": -1.7784579682,
				"element": "C" 
			},
			{
				"x": 0.0752218292,
				"y": 0.3167429093,
				"z": -0.5438990683,
				"element": "C" 
			},
			{
				"x": -0.8827309928,
				"y": 0.5884607384,
				"z": 0.4517047303,
				"element": "C" 
			},
			{
				"x": -0.8562675963,
				"y": -0.1132179988,
				"z": 1.6539887016,
				"element": "C" 
			},
			{
				"x": 0.1182362837,
				"y": -1.088539408,
				"z": 1.8792910346,
				"element": "C" 
			},
			{
				"x": 1.070698195,
				"y": -1.3632011021,
				"z": 0.8948809806,
				"element": "C" 
			},
			{
				"x": 1.0543744558,
				"y": -0.6681188931,
				"z": -0.3114069173,
				"element": "C" 
			},
			{
				"x": 1.1331378242,
				"y": 3.6342968794,
				"z": -3.3016950408,
				"element": "H" 
			},
			{
				"x": -1.6390392883,
				"y": 1.3451419934,
				"z": 0.2705125681,
				"element": "H" 
			},
			{
				"x": -1.5989769503,
				"y": 0.1010509918,
				"z": 2.4165982707,
				"element": "H" 
			},
			{
				"x": 0.134574588,
				"y": -1.6336114784,
				"z": 2.818329317,
				"element": "H" 
			},
			{
				"x": 1.8281841699,
				"y": -2.1220532901,
				"z": 1.0665156585,
				"element": "H" 
			},
			{
				"x": 1.790187188,
				"y": -0.8793473577,
				"z": -1.0803995139,
				"element": "H" 
			}
		],
		 "valence_orbital": [ 
			{
				"type": "occ",
				"energy": -0.3252,
				"method": "rhf"
			},
			{
				"type": "occ",
				"energy": -0.29644,
				"method": "rhf"
			},
			{
				"type": "occ",
				"energy": -0.2892,
				"method": "rhf"
			},
			{
				"type": "occ",
				"energy": -0.27154,
				"method": "rhf"
			},
			{
				"type": "occ",
				"energy": -0.2477,
				"method": "rhf"
			},
			{
				"type": "unocc",
				"energy": -0.04937,
				"method": "rhf"
			},
			{
				"type": "unocc",
				"energy": -0.04434,
				"method": "rhf"
			},
			{
				"type": "unocc",
				"energy": -0.0203,
				"method": "rhf"
			},
			{
				"type": "unocc",
				"energy": 0.055,
				"method": "rhf"
			},
			{
				"type": "unocc",
				"energy": 0.07889,
				"method": "rhf"
			}
		],
		"cosmo_sigma_profile": { 
			"-0.025": 0.0,
			"-0.024": 0.0,
			"-0.023": 0.0,
			"-0.022": 0.0,
			"-0.021": 0.0,
			"-0.02": 0.0506366238007,
			"-0.019": 0.895173450944,
			"-0.018": 0.896156922339,
			"-0.017": 0.84242413812,
			"-0.016": 1.01908258098,
			"-0.015": 0.489835502945,
			"-0.014": 0.468672269765,
			"-0.013": 1.27406241356,
			"-0.012": 1.10039547089,
			"-0.011": 0.562164530201,
			"-0.01": 0.63533130022,
			"-0.009": 1.35920692215,
			"-0.008": 0.615690598119,
			"-0.007": 6.51893457579,
			"-0.006": 10.9829331027,
			"-0.005": 13.7766629564,
			"-0.004": 13.7169155149,
			"-0.003": 9.40577035259,
			"-0.002": 10.5578749515,
			"-0.001": 9.69377308716,
			"0.0": 11.5893347364,
			"0.001": 16.6948146881,
			"0.002": 16.7851702407,
			"0.003": 15.8171981721,
			"0.004": 14.085200006,
			"0.005": 3.20205155727,
			"0.006": 3.13464069215,
			"0.007": 2.04916526909,
			"0.008": 4.14986419327,
			"0.009": 4.54614653653,
			"0.01": 6.09332406945,
			"0.011": 5.71126716549,
			"0.012": 2.34814476862,
			"0.013": 0.0695421747807,
			"0.014": 0.0,
			"0.015": 0.0,
			"0.016": 0.0,
			"0.017": 0.0,
			"0.018": 0.0,
			"0.019": 0.0,
			"0.02": 0.0,
			"0.021": 0.0,
			"0.022": 0.0,
			"0.023": 0.0,
			"0.024": 0.0,
			"0.025": 0.0
		}
	}
}
