{
	 "smiles": "CC(=O)CO", 
	 "Tm": 256.15, 
	 "num_atms": 11, 
	 "gaussian": { 
		 "optdone": 1, 
		 "sigma_profile": "yes", 
		 "theory": "DFT", 
		 "functional": "B3LYP", 
		 "basiset": "6-31G**", 
		 "properties": { 
			 "R2extent": 928.5628, 
			 "electric_dipole_moment_norm": 2.06702880725, 
			 "electric_quadrupole_moment_norm": 11.54076002, 
			 "total_energy": -268.364388212, 
			 "HOMO_LUMO_gap": 0.22244, 
			 "cosmo_polarized_energy": -10.62, 
			 "cosmo_cavitation_energy": 14.75, 
			 "cosmo_dispersion_energy": -10.82, 
			 "cosmo_repulsion_energy": 0.99, 
			 "cosmo_total_nonelectrostatic_energy": 4.92, 
			 "SMD_solvation_energy": 3.75 
		},
		"coords": [
			{
				"x": 1.3557437423,
				"y": 0.8672067856,
				"z": -0.9519928157,
				"element": "C" 
			},
			{
				"x": 0.1838961553,
				"y": 1.7895486042,
				"z": -0.6915573678,
				"element": "C" 
			},
			{
				"x": 0.2403570673,
				"y": 2.7361574889,
				"z": 0.0695214988,
				"element": "O" 
			},
			{
				"x": -1.137376434,
				"y": 1.4681585715,
				"z": -1.4033012011,
				"element": "C" 
			},
			{
				"x": -1.0301129889,
				"y": 0.585973688,
				"z": -2.5068855564,
				"element": "O" 
			},
			{
				"x": 1.0722304559,
				"y": -0.1738962076,
				"z": -0.7647213869,
				"element": "H" 
			},
			{
				"x": 2.1949623046,
				"y": 1.1553866791,
				"z": -0.3179537983,
				"element": "H" 
			},
			{
				"x": 1.6545909023,
				"y": 0.9156567496,
				"z": -2.0050846481,
				"element": "H" 
			},
			{
				"x": -1.7768479397,
				"y": 0.965444357,
				"z": -0.666372133,
				"element": "H" 
			},
			{
				"x": -1.6294098423,
				"y": 2.4184693347,
				"z": -1.6518878447,
				"element": "H" 
			},
			{
				"x": -0.6801334227,
				"y": 1.0820939489,
				"z": -3.2572647468,
				"element": "H" 
			}
		],
		 "valence_orbital": [ 
			{
				"type": "occ",
				"energy": -0.39105,
				"method": "rhf"
			},
			{
				"type": "occ",
				"energy": -0.36573,
				"method": "rhf"
			},
			{
				"type": "occ",
				"energy": -0.33921,
				"method": "rhf"
			},
			{
				"type": "occ",
				"energy": -0.30686,
				"method": "rhf"
			},
			{
				"type": "occ",
				"energy": -0.24083,
				"method": "rhf"
			},
			{
				"type": "unocc",
				"energy": -0.01839,
				"method": "rhf"
			},
			{
				"type": "unocc",
				"energy": 0.05772,
				"method": "rhf"
			},
			{
				"type": "unocc",
				"energy": 0.12247,
				"method": "rhf"
			},
			{
				"type": "unocc",
				"energy": 0.13355,
				"method": "rhf"
			},
			{
				"type": "unocc",
				"energy": 0.14968,
				"method": "rhf"
			}
		],
		"cosmo_sigma_profile": { 
			"-0.025": 0.0,
			"-0.024": 0.0,
			"-0.023": 0.0,
			"-0.022": 0.0,
			"-0.021": 0.0,
			"-0.02": 0.0,
			"-0.019": 0.0,
			"-0.018": 0.0,
			"-0.017": 0.153534277196,
			"-0.016": 1.15736368251,
			"-0.015": 1.35834885827,
			"-0.014": 0.916656003019,
			"-0.013": 0.856995251235,
			"-0.012": 1.34889124418,
			"-0.011": 1.11059015361,
			"-0.01": 1.00696655595,
			"-0.009": 1.59292100993,
			"-0.008": 1.57840624677,
			"-0.007": 3.76484088627,
			"-0.006": 9.13377169568,
			"-0.005": 8.3686090708,
			"-0.004": 8.00911977162,
			"-0.003": 8.69819290209,
			"-0.002": 8.81388524351,
			"-0.001": 9.37489312932,
			"0.0": 5.5657577028,
			"0.001": 2.64321748308,
			"0.002": 3.09600334344,
			"0.003": 2.43868060237,
			"0.004": 2.59152712119,
			"0.005": 2.39970316521,
			"0.006": 2.72051761443,
			"0.007": 2.67698741279,
			"0.008": 2.03290935269,
			"0.009": 3.11865081387,
			"0.01": 3.18664566099,
			"0.011": 4.40436789123,
			"0.012": 5.97360306515,
			"0.013": 4.08512766163,
			"0.014": 1.12817912416,
			"0.015": 0.0,
			"0.016": 0.0,
			"0.017": 0.0,
			"0.018": 0.0,
			"0.019": 0.0,
			"0.02": 0.0,
			"0.021": 0.0,
			"0.022": 0.0,
			"0.023": 0.0,
			"0.024": 0.0,
			"0.025": 0.0
		}
	}
}
