{
	 "smiles": "FC(F)(F)C1=CC=CC(=C1)C1=NC(CCl)=NO1", 
	 "Tm": 307.65, 
	 "num_atms": 23, 
	 "gaussian": { 
		 "optdone": 1, 
		 "sigma_profile": "yes", 
		 "theory": "DFT", 
		 "functional": "B3LYP", 
		 "basiset": "6-31G**", 
		 "properties": { 
			 "R2extent": 6614.3973, 
			 "electric_dipole_moment_norm": 2.91759582191, 
			 "electric_quadrupole_moment_norm": 12.5392965572, 
			 "total_energy": -1329.09361684, 
			 "HOMO_LUMO_gap": 0.19069, 
			 "cosmo_polarized_energy": -9.5, 
			 "cosmo_cavitation_energy": 32.24, 
			 "cosmo_dispersion_energy": -23.06, 
			 "cosmo_repulsion_energy": 1.74, 
			 "cosmo_total_nonelectrostatic_energy": 10.92, 
			 "SMD_solvation_energy": 4.38 
		},
		"coords": [
			{
				"x": -0.9198463731,
				"y": -1.9429665757,
				"z": 2.9034462456,
				"element": "F" 
			},
			{
				"x": -1.3957124762,
				"y": -0.7533870296,
				"z": 3.3236629472,
				"element": "C" 
			},
			{
				"x": -2.689254764,
				"y": -0.9401902191,
				"z": 3.6714116478,
				"element": "F" 
			},
			{
				"x": -0.7308732883,
				"y": -0.4191696522,
				"z": 4.4516348155,
				"element": "F" 
			},
			{
				"x": -1.2611196124,
				"y": 0.3135854619,
				"z": 2.2674516369,
				"element": "C" 
			},
			{
				"x": -1.2587297017,
				"y": 1.6605637652,
				"z": 2.6472765505,
				"element": "C" 
			},
			{
				"x": -1.1853367665,
				"y": 2.6557395034,
				"z": 1.6736094758,
				"element": "C" 
			},
			{
				"x": -1.1149959076,
				"y": 2.3143022965,
				"z": 0.3246490796,
				"element": "C" 
			},
			{
				"x": -1.1159906671,
				"y": 0.9634226212,
				"z": -0.053594133,
				"element": "C" 
			},
			{
				"x": -1.18889825,
				"y": -0.0401507085,
				"z": 0.9232671819,
				"element": "C" 
			},
			{
				"x": -1.0364816419,
				"y": 0.5731145464,
				"z": -1.4589059109,
				"element": "C" 
			},
			{
				"x": -1.0345108107,
				"y": -0.6315511428,
				"z": -1.9631538601,
				"element": "N" 
			},
			{
				"x": -0.9430656618,
				"y": -0.3843725094,
				"z": -3.3098903867,
				"element": "C" 
			},
			{
				"x": -0.911873161,
				"y": -1.4508723315,
				"z": -4.3494249172,
				"element": "C" 
			},
			{
				"x": 0.6753943877,
				"y": -2.3327385435,
				"z": -4.355916531,
				"element": "Cl" 
			},
			{
				"x": -0.895579514,
				"y": 0.8847182382,
				"z": -3.6397115851,
				"element": "N" 
			},
			{
				"x": -0.9583314438,
				"y": 1.5359738914,
				"z": -2.4015535346,
				"element": "O" 
			},
			{
				"x": -1.3049442875,
				"y": 1.9229710635,
				"z": 3.6988146847,
				"element": "H" 
			},
			{
				"x": -1.1795443773,
				"y": 3.7004812668,
				"z": 1.9670723276,
				"element": "H" 
			},
			{
				"x": -1.0561634992,
				"y": 3.085691788,
				"z": -0.435506046,
				"element": "H" 
			},
			{
				"x": -1.1803701058,
				"y": -1.0808134908,
				"z": 0.6213801394,
				"element": "H" 
			},
			{
				"x": -1.0456941016,
				"y": -1.0161661525,
				"z": -5.3387426284,
				"element": "H" 
			},
			{
				"x": -1.6803779762,
				"y": -2.1983860871,
				"z": -4.1533771994,
				"element": "H" 
			}
		],
		 "valence_orbital": [ 
			{
				"type": "occ",
				"energy": -0.31486,
				"method": "rhf"
			},
			{
				"type": "occ",
				"energy": -0.30807,
				"method": "rhf"
			},
			{
				"type": "occ",
				"energy": -0.30517,
				"method": "rhf"
			},
			{
				"type": "occ",
				"energy": -0.28834,
				"method": "rhf"
			},
			{
				"type": "occ",
				"energy": -0.26987,
				"method": "rhf"
			},
			{
				"type": "unocc",
				"energy": -0.07918,
				"method": "rhf"
			},
			{
				"type": "unocc",
				"energy": -0.04265,
				"method": "rhf"
			},
			{
				"type": "unocc",
				"energy": -0.02995,
				"method": "rhf"
			},
			{
				"type": "unocc",
				"energy": 0.02117,
				"method": "rhf"
			},
			{
				"type": "unocc",
				"energy": 0.05158,
				"method": "rhf"
			}
		],
		"cosmo_sigma_profile": { 
			"-0.025": 0.0,
			"-0.024": 0.0,
			"-0.023": 0.0,
			"-0.022": 0.0,
			"-0.021": 0.0,
			"-0.02": 0.0,
			"-0.019": 0.0,
			"-0.018": 0.0,
			"-0.017": 0.0,
			"-0.016": 0.0,
			"-0.015": 0.0,
			"-0.014": 0.0,
			"-0.013": 0.0,
			"-0.012": 0.0,
			"-0.011": 0.0,
			"-0.01": 0.830468514122,
			"-0.009": 4.10282977456,
			"-0.008": 6.74922525111,
			"-0.007": 10.3898537773,
			"-0.006": 12.6672059799,
			"-0.005": 11.9519098681,
			"-0.004": 13.3596759375,
			"-0.003": 13.6465665199,
			"-0.002": 15.03092886,
			"-0.001": 19.8075993425,
			"0.0": 24.3010289193,
			"0.001": 24.7574422134,
			"0.002": 31.6616525042,
			"0.003": 28.6154289083,
			"0.004": 9.69263429638,
			"0.005": 14.0031663614,
			"0.006": 8.42532222612,
			"0.007": 2.97603775969,
			"0.008": 1.78364532694,
			"0.009": 2.63321201725,
			"0.01": 2.1947612627,
			"0.011": 1.87413679401,
			"0.012": 1.02044366859,
			"0.013": 0.00237089685359,
			"0.014": 0.0,
			"0.015": 0.0,
			"0.016": 0.0,
			"0.017": 0.0,
			"0.018": 0.0,
			"0.019": 0.0,
			"0.02": 0.0,
			"0.021": 0.0,
			"0.022": 0.0,
			"0.023": 0.0,
			"0.024": 0.0,
			"0.025": 0.0
		}
	}
}
