{
	 "smiles": "CCCCOCCOC(C)=O", 
	 "Tm": 210.15, 
	 "num_atms": 27, 
	 "gaussian": { 
		 "optdone": 1, 
		 "sigma_profile": "yes", 
		 "theory": "DFT", 
		 "functional": "B3LYP", 
		 "basiset": "6-31G**", 
		 "properties": { 
			 "R2extent": 2930.3539, 
			 "electric_dipole_moment_norm": 1.70392401826, 
			 "electric_quadrupole_moment_norm": 7.7618172054, 
			 "total_energy": -540.174996537, 
			 "HOMO_LUMO_gap": 0.25836, 
			 "cosmo_polarized_energy": -8.28, 
			 "cosmo_cavitation_energy": 29.78, 
			 "cosmo_dispersion_energy": -20.57, 
			 "cosmo_repulsion_energy": 1.73, 
			 "cosmo_total_nonelectrostatic_energy": 10.93, 
			 "SMD_solvation_energy": 6.22 
		},
		"coords": [
			{
				"x": -2.9547018153,
				"y": 2.3935546427,
				"z": -0.0778811998,
				"element": "C" 
			},
			{
				"x": -2.6440860502,
				"y": 2.2150626713,
				"z": -1.5697702081,
				"element": "C" 
			},
			{
				"x": -2.4886321723,
				"y": 0.7541768904,
				"z": -2.0214406066,
				"element": "C" 
			},
			{
				"x": -1.2716132037,
				"y": 0.0487195659,
				"z": -1.4326922087,
				"element": "C" 
			},
			{
				"x": -1.2232162237,
				"y": -1.2649724789,
				"z": -1.9812409364,
				"element": "O" 
			},
			{
				"x": -0.0434960179,
				"y": -1.9948584722,
				"z": -1.7121044875,
				"element": "C" 
			},
			{
				"x": 0.0016575956,
				"y": -2.6424566523,
				"z": -0.3307314786,
				"element": "C" 
			},
			{
				"x": 0.2272981295,
				"y": -1.6885143867,
				"z": 0.7332205304,
				"element": "O" 
			},
			{
				"x": 1.5211503557,
				"y": -1.4064609352,
				"z": 1.0277255777,
				"element": "C" 
			},
			{
				"x": 1.6050417152,
				"y": -0.4054450797,
				"z": 2.155255415,
				"element": "C" 
			},
			{
				"x": 2.4671655732,
				"y": -1.9002813047,
				"z": 0.4537321631,
				"element": "O" 
			},
			{
				"x": -2.1405670201,
				"y": 2.0318971726,
				"z": 0.5588047333,
				"element": "H" 
			},
			{
				"x": -3.1160743995,
				"y": 3.4487090472,
				"z": 0.1662354682,
				"element": "H" 
			},
			{
				"x": -3.8610626141,
				"y": 1.8451018817,
				"z": 0.2035496276,
				"element": "H" 
			},
			{
				"x": -1.733073033,
				"y": 2.7743142303,
				"z": -1.8241505583,
				"element": "H" 
			},
			{
				"x": -3.4497125788,
				"y": 2.6726237645,
				"z": -2.1568128886,
				"element": "H" 
			},
			{
				"x": -2.4049419045,
				"y": 0.7115175681,
				"z": -3.1138206982,
				"element": "H" 
			},
			{
				"x": -3.3870845438,
				"y": 0.1826328587,
				"z": -1.7551348199,
				"element": "H" 
			},
			{
				"x": -1.3265116028,
				"y": 0.0072331176,
				"z": -0.3370820116,
				"element": "H" 
			},
			{
				"x": -0.3501970143,
				"y": 0.598333447,
				"z": -1.6941695561,
				"element": "H" 
			},
			{
				"x": 0.8547212218,
				"y": -1.3757560125,
				"z": -1.8574873648,
				"element": "H" 
			},
			{
				"x": -0.0139083582,
				"y": -2.8029261806,
				"z": -2.4531272362,
				"element": "H" 
			},
			{
				"x": -0.9637830374,
				"y": -3.0992990054,
				"z": -0.101634075,
				"element": "H" 
			},
			{
				"x": 0.7922096413,
				"y": -3.3972124074,
				"z": -0.3031684093,
				"element": "H" 
			},
			{
				"x": 1.0622861605,
				"y": -0.774714996,
				"z": 3.0299694243,
				"element": "H" 
			},
			{
				"x": 1.1348839639,
				"y": 0.5357144085,
				"z": 1.8538518726,
				"element": "H" 
			},
			{
				"x": 2.6503472331,
				"y": -0.2309933551,
				"z": 2.4079039316,
				"element": "H" 
			}
		],
		 "valence_orbital": [ 
			{
				"type": "occ",
				"energy": -0.32774,
				"method": "rhf"
			},
			{
				"type": "occ",
				"energy": -0.31343,
				"method": "rhf"
			},
			{
				"type": "occ",
				"energy": -0.30268,
				"method": "rhf"
			},
			{
				"type": "occ",
				"energy": -0.27317,
				"method": "rhf"
			},
			{
				"type": "occ",
				"energy": -0.24841,
				"method": "rhf"
			},
			{
				"type": "unocc",
				"energy": 0.00995,
				"method": "rhf"
			},
			{
				"type": "unocc",
				"energy": 0.08258,
				"method": "rhf"
			},
			{
				"type": "unocc",
				"energy": 0.09469,
				"method": "rhf"
			},
			{
				"type": "unocc",
				"energy": 0.10929,
				"method": "rhf"
			},
			{
				"type": "unocc",
				"energy": 0.11853,
				"method": "rhf"
			}
		],
		"cosmo_sigma_profile": { 
			"-0.025": 0.0,
			"-0.024": 0.0,
			"-0.023": 0.0,
			"-0.022": 0.0,
			"-0.021": 0.0,
			"-0.02": 0.0,
			"-0.019": 0.0,
			"-0.018": 0.0,
			"-0.017": 0.0,
			"-0.016": 0.0,
			"-0.015": 0.0,
			"-0.014": 0.0,
			"-0.013": 0.0,
			"-0.012": 0.0,
			"-0.011": 0.0,
			"-0.01": 0.0,
			"-0.009": 0.0,
			"-0.008": 0.0,
			"-0.007": 0.579473839756,
			"-0.006": 8.65189036948,
			"-0.005": 13.2925593098,
			"-0.004": 16.3838846194,
			"-0.003": 26.4539308816,
			"-0.002": 35.395749609,
			"-0.001": 30.730914857,
			"0.0": 26.5834809958,
			"0.001": 20.40002662,
			"0.002": 10.6384620355,
			"0.003": 5.26651895179,
			"0.004": 4.04663871929,
			"0.005": 4.0130509204,
			"0.006": 4.03892832414,
			"0.007": 3.45248125535,
			"0.008": 3.18687370343,
			"0.009": 2.7249519835,
			"0.01": 3.03101583771,
			"0.011": 3.86755309383,
			"0.012": 5.71820871194,
			"0.013": 2.47679408082,
			"0.014": 0.265006055511,
			"0.015": 0.0,
			"0.016": 0.0,
			"0.017": 0.0,
			"0.018": 0.0,
			"0.019": 0.0,
			"0.02": 0.0,
			"0.021": 0.0,
			"0.022": 0.0,
			"0.023": 0.0,
			"0.024": 0.0,
			"0.025": 0.0
		}
	}
}
