{
	 "smiles": "ClC(Cl)C(C1=CC=C(Cl)C=C1)C1=CC=CC=C1Cl", 
	 "Tm": 350.15, 
	 "num_atms": 28, 
	 "gaussian": { 
		 "optdone": 1, 
		 "sigma_profile": "yes", 
		 "theory": "DFT", 
		 "functional": "B3LYP", 
		 "basiset": "6-31G**", 
		 "properties": { 
			 "R2extent": 7245.5979, 
			 "electric_dipole_moment_norm": 1.38774965322, 
			 "electric_quadrupole_moment_norm": 17.2830306179, 
			 "total_energy": -2380.2830554, 
			 "HOMO_LUMO_gap": 0.21811, 
			 "cosmo_polarized_energy": -8.74, 
			 "cosmo_cavitation_energy": 37.88, 
			 "cosmo_dispersion_energy": -26.73, 
			 "cosmo_repulsion_energy": 2.07, 
			 "cosmo_total_nonelectrostatic_energy": 13.23, 
			 "SMD_solvation_energy": 5.08 
		},
		"coords": [
			{
				"x": 3.4341643398,
				"y": -0.8577191772,
				"z": -0.3655596231,
				"element": "Cl" 
			},
			{
				"x": 2.104469913,
				"y": -1.1247083635,
				"z": 0.8357142982,
				"element": "C" 
			},
			{
				"x": 1.9603843296,
				"y": -2.8895625174,
				"z": 1.1697006513,
				"element": "Cl" 
			},
			{
				"x": 0.7377643193,
				"y": -0.5163108205,
				"z": 0.4515366497,
				"element": "C" 
			},
			{
				"x": 0.6903941349,
				"y": 1.0161969753,
				"z": 0.5291571616,
				"element": "C" 
			},
			{
				"x": -0.5631779178,
				"y": 1.6298043596,
				"z": 0.3680735715,
				"element": "C" 
			},
			{
				"x": -0.719696926,
				"y": 3.0079621383,
				"z": 0.4747090325,
				"element": "C" 
			},
			{
				"x": 0.3968507014,
				"y": 3.7991599097,
				"z": 0.7489092353,
				"element": "C" 
			},
			{
				"x": 0.2134946395,
				"y": 5.5411823536,
				"z": 0.8839905303,
				"element": "Cl" 
			},
			{
				"x": 1.6510573834,
				"y": 3.2222637259,
				"z": 0.9154985941,
				"element": "C" 
			},
			{
				"x": 1.7905546811,
				"y": 1.8355178629,
				"z": 0.8057277571,
				"element": "C" 
			},
			{
				"x": 0.1504204811,
				"y": -1.0502480445,
				"z": -0.8523516729,
				"element": "C" 
			},
			{
				"x": 0.6298979583,
				"y": -0.5831798231,
				"z": -2.0874043774,
				"element": "C" 
			},
			{
				"x": 0.1244167162,
				"y": -1.0513031994,
				"z": -3.2966446681,
				"element": "C" 
			},
			{
				"x": -0.8991824518,
				"y": -1.9994522823,
				"z": -3.3006587546,
				"element": "C" 
			},
			{
				"x": -1.418285351,
				"y": -2.4612603129,
				"z": -2.094298687,
				"element": "C" 
			},
			{
				"x": -0.8979420309,
				"y": -1.9845778643,
				"z": -0.889067692,
				"element": "C" 
			},
			{
				"x": -1.6524756614,
				"y": -2.5814877323,
				"z": 0.5914833054,
				"element": "Cl" 
			},
			{
				"x": 2.459797468,
				"y": -0.6791488265,
				"z": 1.7627289089,
				"element": "H" 
			},
			{
				"x": 0.0897096942,
				"y": -0.8715809755,
				"z": 1.2604060798,
				"element": "H" 
			},
			{
				"x": -1.4345164671,
				"y": 1.0179037281,
				"z": 0.1534359864,
				"element": "H" 
			},
			{
				"x": -1.6948616724,
				"y": 3.465268594,
				"z": 0.3492015343,
				"element": "H" 
			},
			{
				"x": 2.5140647648,
				"y": 3.8441581073,
				"z": 1.1257992276,
				"element": "H" 
			},
			{
				"x": 2.782198226,
				"y": 1.4163340814,
				"z": 0.9269120909,
				"element": "H" 
			},
			{
				"x": 1.4108856238,
				"y": 0.1684382947,
				"z": -2.0890348737,
				"element": "H" 
			},
			{
				"x": 0.5249445701,
				"y": -0.6715858565,
				"z": -4.231358316,
				"element": "H" 
			},
			{
				"x": -1.3039060068,
				"y": -2.3717757501,
				"z": -4.2368765254,
				"element": "H" 
			},
			{
				"x": -2.2266254596,
				"y": -3.1834885847,
				"z": -2.0757294248,
				"element": "H" 
			}
		],
		 "valence_orbital": [ 
			{
				"type": "occ",
				"energy": -0.30505,
				"method": "rhf"
			},
			{
				"type": "occ",
				"energy": -0.27318,
				"method": "rhf"
			},
			{
				"type": "occ",
				"energy": -0.26706,
				"method": "rhf"
			},
			{
				"type": "occ",
				"energy": -0.25351,
				"method": "rhf"
			},
			{
				"type": "occ",
				"energy": -0.24672,
				"method": "rhf"
			},
			{
				"type": "unocc",
				"energy": -0.02861,
				"method": "rhf"
			},
			{
				"type": "unocc",
				"energy": -0.02568,
				"method": "rhf"
			},
			{
				"type": "unocc",
				"energy": -0.02305,
				"method": "rhf"
			},
			{
				"type": "unocc",
				"energy": -0.01595,
				"method": "rhf"
			},
			{
				"type": "unocc",
				"energy": -0.01094,
				"method": "rhf"
			}
		],
		"cosmo_sigma_profile": { 
			"-0.025": 0.0,
			"-0.024": 0.0,
			"-0.023": 0.0,
			"-0.022": 0.0,
			"-0.021": 0.0,
			"-0.02": 0.0,
			"-0.019": 0.0,
			"-0.018": 0.0,
			"-0.017": 0.0,
			"-0.016": 0.0,
			"-0.015": 0.0,
			"-0.014": 0.0,
			"-0.013": 0.0,
			"-0.012": 0.0,
			"-0.011": 0.661979503599,
			"-0.01": 2.53834969854,
			"-0.009": 2.57218602041,
			"-0.008": 3.40598317447,
			"-0.007": 9.67969310064,
			"-0.006": 15.4370330303,
			"-0.005": 19.4701129808,
			"-0.004": 15.3858663381,
			"-0.003": 14.3982457321,
			"-0.002": 17.5739026036,
			"-0.001": 19.9777134904,
			"0.0": 21.744464442,
			"0.001": 29.0089554959,
			"0.002": 35.3651629979,
			"0.003": 40.7499951587,
			"0.004": 42.0509754032,
			"0.005": 21.8050057719,
			"0.006": 0.262667642399,
			"0.007": 0.0,
			"0.008": 0.0,
			"0.009": 0.0,
			"0.01": 0.0,
			"0.011": 0.0,
			"0.012": 0.0,
			"0.013": 0.0,
			"0.014": 0.0,
			"0.015": 0.0,
			"0.016": 0.0,
			"0.017": 0.0,
			"0.018": 0.0,
			"0.019": 0.0,
			"0.02": 0.0,
			"0.021": 0.0,
			"0.022": 0.0,
			"0.023": 0.0,
			"0.024": 0.0,
			"0.025": 0.0
		}
	}
}
