{
	 "smiles": "COC1=C(O)C(C=NC2=C(CC3=CC=C(Cl)C=C3)C(N=CC3=CC=CC(OC)=C3O)=NN2)=CC=C1", 
	 "Tm": 535.15, 
	 "num_atms": 58, 
	 "gaussian": { 
		 "optdone": 1, 
		 "sigma_profile": "yes", 
		 "theory": "DFT", 
		 "functional": "B3LYP", 
		 "basiset": "6-31G**", 
		 "properties": { 
			 "R2extent": 28366.3909, 
			 "electric_dipole_moment_norm": 9.19820422963, 
			 "electric_quadrupole_moment_norm": 49.3231504704, 
			 "total_energy": -1984.6459295, 
			 "HOMO_LUMO_gap": 0.14229, 
			 "cosmo_polarized_energy": -23.94, 
			 "cosmo_cavitation_energy": 65.72, 
			 "cosmo_dispersion_energy": -45.17, 
			 "cosmo_repulsion_energy": 3.4, 
			 "cosmo_total_nonelectrostatic_energy": 23.95, 
			 "SMD_solvation_energy": 10.22 
		},
		"coords": [
			{
				"x": 0.9639247856,
				"y": -7.5224624361,
				"z": 2.8399298747,
				"element": "C" 
			},
			{
				"x": 1.5628855858,
				"y": -6.2345168315,
				"z": 2.7745419495,
				"element": "O" 
			},
			{
				"x": 1.4335639064,
				"y": -5.515450496,
				"z": 1.6136499084,
				"element": "C" 
			},
			{
				"x": 2.0909438453,
				"y": -4.2669670558,
				"z": 1.6548885957,
				"element": "C" 
			},
			{
				"x": 2.7614567759,
				"y": -3.8978029666,
				"z": 2.7765613855,
				"element": "O" 
			},
			{
				"x": 2.0451370917,
				"y": -3.400192257,
				"z": 0.5528683495,
				"element": "C" 
			},
			{
				"x": 2.8378871757,
				"y": -2.1505918544,
				"z": 0.6126343394,
				"element": "C" 
			},
			{
				"x": 2.6173148543,
				"y": -0.9780691133,
				"z": 0.1317015411,
				"element": "N" 
			},
			{
				"x": 1.456538187,
				"y": -0.5045150041,
				"z": -0.444164907,
				"element": "C" 
			},
			{
				"x": 1.3351031449,
				"y": 0.6832888248,
				"z": -1.1646922114,
				"element": "C" 
			},
			{
				"x": 2.4203913794,
				"y": 1.6658963794,
				"z": -1.4999019174,
				"element": "C" 
			},
			{
				"x": 2.5452407875,
				"y": 2.7862586782,
				"z": -0.4762388064,
				"element": "C" 
			},
			{
				"x": 1.8557141796,
				"y": 3.9928782055,
				"z": -0.6430373331,
				"element": "C" 
			},
			{
				"x": 1.9571201177,
				"y": 5.0181988954,
				"z": 0.2982723788,
				"element": "C" 
			},
			{
				"x": 2.7589395115,
				"y": 4.8280807856,
				"z": 1.4218876429,
				"element": "C" 
			},
			{
				"x": 2.8997932086,
				"y": 6.1180269631,
				"z": 2.6153176178,
				"element": "Cl" 
			},
			{
				"x": 3.4511526448,
				"y": 3.6340304791,
				"z": 1.6184391829,
				"element": "C" 
			},
			{
				"x": 3.3374668028,
				"y": 2.6204853372,
				"z": 0.6669896417,
				"element": "C" 
			},
			{
				"x": -0.047050762,
				"y": 0.7840703906,
				"z": -1.4631162442,
				"element": "C" 
			},
			{
				"x": -0.6135396045,
				"y": 1.8230118334,
				"z": -2.1965647854,
				"element": "N" 
			},
			{
				"x": -1.8900528508,
				"y": 1.9796822029,
				"z": -2.1897735752,
				"element": "C" 
			},
			{
				"x": -2.5622101475,
				"y": 3.0088458903,
				"z": -2.9805152618,
				"element": "C" 
			},
			{
				"x": -1.8298207496,
				"y": 3.790601742,
				"z": -3.8988008201,
				"element": "C" 
			},
			{
				"x": -2.4526475545,
				"y": 4.7568377465,
				"z": -4.6705624327,
				"element": "C" 
			},
			{
				"x": -3.8302023233,
				"y": 4.9724627521,
				"z": -4.5330412126,
				"element": "C" 
			},
			{
				"x": -4.5815802769,
				"y": 4.2211269877,
				"z": -3.6360215952,
				"element": "C" 
			},
			{
				"x": -5.9394655031,
				"y": 4.4183787813,
				"z": -3.5751123941,
				"element": "O" 
			},
			{
				"x": -6.4331399299,
				"y": 4.9893126444,
				"z": -2.360491508,
				"element": "C" 
			},
			{
				"x": -3.9531693244,
				"y": 3.2267474664,
				"z": -2.8557655965,
				"element": "C" 
			},
			{
				"x": -4.7647129045,
				"y": 2.5235627551,
				"z": -2.0137459186,
				"element": "O" 
			},
			{
				"x": -0.7424503684,
				"y": -0.2524423171,
				"z": -0.9652001369,
				"element": "N" 
			},
			{
				"x": 0.1808945617,
				"y": -1.0167013068,
				"z": -0.3582519237,
				"element": "N" 
			},
			{
				"x": 1.3575007275,
				"y": -3.8260625527,
				"z": -0.6053447534,
				"element": "C" 
			},
			{
				"x": 0.7182821014,
				"y": -5.0570263223,
				"z": -0.6424926408,
				"element": "C" 
			},
			{
				"x": 0.7462429503,
				"y": -5.9097346479,
				"z": 0.4720380047,
				"element": "C" 
			},
			{
				"x": 1.3790512321,
				"y": -8.1925526163,
				"z": 2.0774651048,
				"element": "H" 
			},
			{
				"x": -0.1240345153,
				"y": -7.4607297302,
				"z": 2.7164705966,
				"element": "H" 
			},
			{
				"x": 1.1938384186,
				"y": -7.9142326425,
				"z": 3.831329901,
				"element": "H" 
			},
			{
				"x": 2.6972632432,
				"y": -4.6346972708,
				"z": 3.4046714797,
				"element": "H" 
			},
			{
				"x": 3.7876365703,
				"y": -2.2571789089,
				"z": 1.1411066244,
				"element": "H" 
			},
			{
				"x": 2.2083452361,
				"y": 2.0975531083,
				"z": -2.4831228922,
				"element": "H" 
			},
			{
				"x": 3.3727448263,
				"y": 1.1324704273,
				"z": -1.5696221201,
				"element": "H" 
			},
			{
				"x": 1.2210123376,
				"y": 4.1279591904,
				"z": -1.5142674534,
				"element": "H" 
			},
			{
				"x": 1.4227160789,
				"y": 5.9521195469,
				"z": 0.1620453052,
				"element": "H" 
			},
			{
				"x": 4.0688104011,
				"y": 3.5018388154,
				"z": 2.5001628621,
				"element": "H" 
			},
			{
				"x": 3.8614631337,
				"y": 1.6808499301,
				"z": 0.8182226334,
				"element": "H" 
			},
			{
				"x": -2.5054532048,
				"y": 1.3042655409,
				"z": -1.5782855406,
				"element": "H" 
			},
			{
				"x": -0.7666435413,
				"y": 3.5962255057,
				"z": -3.9849071649,
				"element": "H" 
			},
			{
				"x": -1.8797919769,
				"y": 5.3467311618,
				"z": -5.3791255105,
				"element": "H" 
			},
			{
				"x": -4.3490106802,
				"y": 5.7199564402,
				"z": -5.1248820736,
				"element": "H" 
			},
			{
				"x": -5.9716936793,
				"y": 5.967554868,
				"z": -2.1719119855,
				"element": "H" 
			},
			{
				"x": -7.5077440391,
				"y": 5.1212378881,
				"z": -2.502834591,
				"element": "H" 
			},
			{
				"x": -6.2570321819,
				"y": 4.3310676926,
				"z": -1.504692985,
				"element": "H" 
			},
			{
				"x": -4.243493971,
				"y": 1.8939793655,
				"z": -1.5002911012,
				"element": "H" 
			},
			{
				"x": -0.1010041357,
				"y": -1.8818443047,
				"z": 0.0757638245,
				"element": "H" 
			},
			{
				"x": 1.3584427176,
				"y": -3.1899196249,
				"z": -1.4835260327,
				"element": "H" 
			},
			{
				"x": 0.2019063265,
				"y": -5.3740253793,
				"z": -1.5426797334,
				"element": "H" 
			},
			{
				"x": 0.2405193774,
				"y": -6.8675795833,
				"z": 0.4341264142,
				"element": "H" 
			}
		],
		 "valence_orbital": [ 
			{
				"type": "occ",
				"energy": -0.23223,
				"method": "rhf"
			},
			{
				"type": "occ",
				"energy": -0.22787,
				"method": "rhf"
			},
			{
				"type": "occ",
				"energy": -0.21997,
				"method": "rhf"
			},
			{
				"type": "occ",
				"energy": -0.21582,
				"method": "rhf"
			},
			{
				"type": "occ",
				"energy": -0.20904,
				"method": "rhf"
			},
			{
				"type": "unocc",
				"energy": -0.06675,
				"method": "rhf"
			},
			{
				"type": "unocc",
				"energy": -0.05459,
				"method": "rhf"
			},
			{
				"type": "unocc",
				"energy": -0.00757,
				"method": "rhf"
			},
			{
				"type": "unocc",
				"energy": 0.00035,
				"method": "rhf"
			},
			{
				"type": "unocc",
				"energy": 0.00257,
				"method": "rhf"
			}
		],
		"cosmo_sigma_profile": { 
			"-0.025": 0.0,
			"-0.024": 0.0,
			"-0.023": 0.0,
			"-0.022": 0.0,
			"-0.021": 0.0,
			"-0.02": 0.0,
			"-0.019": 0.0,
			"-0.018": 0.646834465231,
			"-0.017": 1.14261925322,
			"-0.016": 1.13186947202,
			"-0.015": 0.875900881803,
			"-0.014": 1.96219254829,
			"-0.013": 1.91718846822,
			"-0.012": 2.11854220123,
			"-0.011": 2.84492496053,
			"-0.01": 2.78988904083,
			"-0.009": 2.36698402073,
			"-0.008": 2.05451793199,
			"-0.007": 9.18663040076,
			"-0.006": 23.7925233063,
			"-0.005": 31.2728019441,
			"-0.004": 42.8361251057,
			"-0.003": 39.3289983914,
			"-0.002": 33.9286533088,
			"-0.001": 33.646294771,
			"0.0": 34.8830587757,
			"0.001": 38.8970220822,
			"0.002": 45.4954204923,
			"0.003": 49.648894127,
			"0.004": 52.2003078249,
			"0.005": 31.0309277516,
			"0.006": 11.0048342427,
			"0.007": 6.4937392632,
			"0.008": 6.62041047138,
			"0.009": 6.5070496999,
			"0.01": 4.49435568566,
			"0.011": 4.00936552895,
			"0.012": 1.75217221802,
			"0.013": 0.580489202166,
			"0.014": 0.582000581756,
			"0.015": 0.0233781704009,
			"0.016": 0.0,
			"0.017": 0.0,
			"0.018": 0.0,
			"0.019": 0.0,
			"0.02": 0.0,
			"0.021": 0.0,
			"0.022": 0.0,
			"0.023": 0.0,
			"0.024": 0.0,
			"0.025": 0.0
		}
	}
}
