{
	 "smiles": "[O-][P+](C1C2=C(OC3=C1CCC1=CC=CC=C31)C1=CC=CC=C1CC2)(C1=CC=CC=C1)C1=CC=CC=C1", 
	 "Tm": 488.15, 
	 "num_atms": 63, 
	 "gaussian": { 
		 "optdone": 1, 
		 "sigma_profile": "yes", 
		 "theory": "DFT", 
		 "functional": "B3LYP", 
		 "basiset": "6-31G**", 
		 "properties": { 
			 "R2extent": 15898.0702, 
			 "electric_dipole_moment_norm": 3.09495413052, 
			 "electric_quadrupole_moment_norm": 17.1220318228, 
			 "total_energy": -1765.61547364, 
			 "HOMO_LUMO_gap": 0.1533, 
			 "cosmo_polarized_energy": -17.25, 
			 "cosmo_cavitation_energy": 63.05, 
			 "cosmo_dispersion_energy": -40.97, 
			 "cosmo_repulsion_energy": 3.0, 
			 "cosmo_total_nonelectrostatic_energy": 25.08, 
			 "SMD_solvation_energy": 9.79 
		},
		"coords": [
			{
				"x": -3.0885022181,
				"y": -0.4114075189,
				"z": 2.5905788794,
				"element": "O" 
			},
			{
				"x": -2.1378208337,
				"y": 0.4156116888,
				"z": 1.7611092453,
				"element": "P" 
			},
			{
				"x": -1.8904680727,
				"y": -0.4118463766,
				"z": 0.061899485,
				"element": "C" 
			},
			{
				"x": -1.1041051738,
				"y": -1.6861207772,
				"z": 0.2444580236,
				"element": "C" 
			},
			{
				"x": 0.1557495621,
				"y": -1.7814784674,
				"z": -0.2228942273,
				"element": "C" 
			},
			{
				"x": 0.7724216938,
				"y": -0.7590158904,
				"z": -0.9263805165,
				"element": "O" 
			},
			{
				"x": -0.0453416062,
				"y": 0.2072561368,
				"z": -1.4766655053,
				"element": "C" 
			},
			{
				"x": -1.3097640029,
				"y": 0.4170602254,
				"z": -1.053874838,
				"element": "C" 
			},
			{
				"x": -2.1896948133,
				"y": 1.3651316844,
				"z": -1.8418056187,
				"element": "C" 
			},
			{
				"x": -1.3839403171,
				"y": 2.5267595144,
				"z": -2.4347147311,
				"element": "C" 
			},
			{
				"x": -0.1171722586,
				"y": 2.0606517364,
				"z": -3.1183727884,
				"element": "C" 
			},
			{
				"x": 0.430120318,
				"y": 2.7434029756,
				"z": -4.2043670384,
				"element": "C" 
			},
			{
				"x": 1.6362045722,
				"y": 2.3339658143,
				"z": -4.7789180292,
				"element": "C" 
			},
			{
				"x": 2.3090517458,
				"y": 1.2270420866,
				"z": -4.2609483686,
				"element": "C" 
			},
			{
				"x": 1.7734500647,
				"y": 0.5294205703,
				"z": -3.1792684298,
				"element": "C" 
			},
			{
				"x": 0.5607682702,
				"y": 0.9334583605,
				"z": -2.6024709081,
				"element": "C" 
			},
			{
				"x": 0.9727020431,
				"y": -2.9953257938,
				"z": -0.0918848016,
				"element": "C" 
			},
			{
				"x": 2.1464646941,
				"y": -3.1896542284,
				"z": -0.8332519162,
				"element": "C" 
			},
			{
				"x": 2.880070011,
				"y": -4.3679213958,
				"z": -0.6997143465,
				"element": "C" 
			},
			{
				"x": 2.4450824105,
				"y": -5.3642413758,
				"z": 0.1743727999,
				"element": "C" 
			},
			{
				"x": 1.2781751165,
				"y": -5.1726332337,
				"z": 0.9191905759,
				"element": "C" 
			},
			{
				"x": 0.5354037722,
				"y": -3.9981961191,
				"z": 0.8027065686,
				"element": "C" 
			},
			{
				"x": -0.6910212595,
				"y": -3.731595673,
				"z": 1.6476805009,
				"element": "C" 
			},
			{
				"x": -1.7392710658,
				"y": -2.8902474938,
				"z": 0.9085980972,
				"element": "C" 
			},
			{
				"x": -2.7992524135,
				"y": 2.1040993897,
				"z": 1.4902961731,
				"element": "C" 
			},
			{
				"x": -4.197733187,
				"y": 2.2319023935,
				"z": 1.5054395692,
				"element": "C" 
			},
			{
				"x": -4.7940414415,
				"y": 3.4754952158,
				"z": 1.2951231069,
				"element": "C" 
			},
			{
				"x": -4.0006470872,
				"y": 4.604091912,
				"z": 1.0774547289,
				"element": "C" 
			},
			{
				"x": -2.60886596,
				"y": 4.4885545426,
				"z": 1.0811844519,
				"element": "C" 
			},
			{
				"x": -2.0086089243,
				"y": 3.2452447129,
				"z": 1.2879052518,
				"element": "C" 
			},
			{
				"x": -0.5034923529,
				"y": 0.595886231,
				"z": 2.5606172649,
				"element": "C" 
			},
			{
				"x": 0.6468951552,
				"y": 1.0962074822,
				"z": 1.9300526096,
				"element": "C" 
			},
			{
				"x": 1.8444629556,
				"y": 1.2001918182,
				"z": 2.6384410779,
				"element": "C" 
			},
			{
				"x": 1.9054677736,
				"y": 0.8050009751,
				"z": 3.9766115981,
				"element": "C" 
			},
			{
				"x": 0.7672612654,
				"y": 0.2988071894,
				"z": 4.6066448273,
				"element": "C" 
			},
			{
				"x": -0.4325608853,
				"y": 0.1913821656,
				"z": 3.9023406958,
				"element": "C" 
			},
			{
				"x": -2.939617113,
				"y": -0.6572637208,
				"z": -0.1710816235,
				"element": "H" 
			},
			{
				"x": -2.6831030512,
				"y": 0.7983565824,
				"z": -2.6480509274,
				"element": "H" 
			},
			{
				"x": -2.9893399517,
				"y": 1.7597799478,
				"z": -1.2098562247,
				"element": "H" 
			},
			{
				"x": -1.1116433444,
				"y": 3.2113609476,
				"z": -1.6174673232,
				"element": "H" 
			},
			{
				"x": -2.0013410944,
				"y": 3.1049304688,
				"z": -3.1302179792,
				"element": "H" 
			},
			{
				"x": -0.0939976605,
				"y": 3.6081389644,
				"z": -4.6044872256,
				"element": "H" 
			},
			{
				"x": 2.0455702556,
				"y": 2.8770587619,
				"z": -5.6258876511,
				"element": "H" 
			},
			{
				"x": 3.2475884986,
				"y": 0.9023864412,
				"z": -4.7008265969,
				"element": "H" 
			},
			{
				"x": 2.2890583148,
				"y": -0.3344064515,
				"z": -2.7768023652,
				"element": "H" 
			},
			{
				"x": 2.4762974582,
				"y": -2.4163783325,
				"z": -1.5171966672,
				"element": "H" 
			},
			{
				"x": 3.7864964604,
				"y": -4.5082373573,
				"z": -1.2816540261,
				"element": "H" 
			},
			{
				"x": 3.0095238944,
				"y": -6.2865836859,
				"z": 0.2780677968,
				"element": "H" 
			},
			{
				"x": 0.9406067382,
				"y": -5.9461110584,
				"z": 1.6049615264,
				"element": "H" 
			},
			{
				"x": -1.1292274291,
				"y": -4.6741208987,
				"z": 1.9922978985,
				"element": "H" 
			},
			{
				"x": -0.3796556608,
				"y": -3.1815775999,
				"z": 2.5484051541,
				"element": "H" 
			},
			{
				"x": -2.5089117964,
				"y": -2.5576225251,
				"z": 1.6098473754,
				"element": "H" 
			},
			{
				"x": -2.2425467769,
				"y": -3.4996807401,
				"z": 0.1405334511,
				"element": "H" 
			},
			{
				"x": -4.8050127292,
				"y": 1.3547241877,
				"z": 1.7068665823,
				"element": "H" 
			},
			{
				"x": -5.8764821903,
				"y": 3.5652039693,
				"z": 1.3112671653,
				"element": "H" 
			},
			{
				"x": -4.4647688921,
				"y": 5.573302097,
				"z": 0.918252782,
				"element": "H" 
			},
			{
				"x": -1.9889407888,
				"y": 5.3682337451,
				"z": 0.9329671793,
				"element": "H" 
			},
			{
				"x": -0.9264988143,
				"y": 3.1734572008,
				"z": 1.3149152508,
				"element": "H" 
			},
			{
				"x": 0.6190576983,
				"y": 1.3907006397,
				"z": 0.8867084803,
				"element": "H" 
			},
			{
				"x": 2.7313493036,
				"y": 1.5828334188,
				"z": 2.1417866843,
				"element": "H" 
			},
			{
				"x": 2.8401430893,
				"y": 0.886424191,
				"z": 4.5242803076,
				"element": "H" 
			},
			{
				"x": 0.8135197283,
				"y": -0.0156437486,
				"z": 5.6453962012,
				"element": "H" 
			},
			{
				"x": -1.3236716972,
				"y": -0.2110059224,
				"z": 4.3741013068,
				"element": "H" 
			}
		],
		 "valence_orbital": [ 
			{
				"type": "occ",
				"energy": -0.25212,
				"method": "rhf"
			},
			{
				"type": "occ",
				"energy": -0.24488,
				"method": "rhf"
			},
			{
				"type": "occ",
				"energy": -0.23879,
				"method": "rhf"
			},
			{
				"type": "occ",
				"energy": -0.21121,
				"method": "rhf"
			},
			{
				"type": "occ",
				"energy": -0.19058,
				"method": "rhf"
			},
			{
				"type": "unocc",
				"energy": -0.03728,
				"method": "rhf"
			},
			{
				"type": "unocc",
				"energy": -0.03436,
				"method": "rhf"
			},
			{
				"type": "unocc",
				"energy": -0.02134,
				"method": "rhf"
			},
			{
				"type": "unocc",
				"energy": -0.01542,
				"method": "rhf"
			},
			{
				"type": "unocc",
				"energy": -0.00895,
				"method": "rhf"
			}
		],
		"cosmo_sigma_profile": { 
			"-0.025": 0.0,
			"-0.024": 0.0,
			"-0.023": 0.0,
			"-0.022": 0.0,
			"-0.021": 0.0,
			"-0.02": 0.0,
			"-0.019": 0.0,
			"-0.018": 0.0,
			"-0.017": 0.0,
			"-0.016": 0.0,
			"-0.015": 0.0,
			"-0.014": 0.0,
			"-0.013": 0.0,
			"-0.012": 0.0,
			"-0.011": 0.0,
			"-0.01": 0.00621346176852,
			"-0.009": 0.0649347709633,
			"-0.008": 0.230726302605,
			"-0.007": 2.28714765894,
			"-0.006": 22.8510659126,
			"-0.005": 39.6065782167,
			"-0.004": 48.4685720708,
			"-0.003": 46.7066037096,
			"-0.002": 43.9250187986,
			"-0.001": 45.5558407387,
			"0.0": 38.1252821196,
			"0.001": 37.060321784,
			"0.002": 38.6729418268,
			"0.003": 38.0639286192,
			"0.004": 41.5531724287,
			"0.005": 26.6343649673,
			"0.006": 14.2981173263,
			"0.007": 2.3587103015,
			"0.008": 1.79044677435,
			"0.009": 1.73112075595,
			"0.01": 1.19186368897,
			"0.011": 1.05825695323,
			"0.012": 1.42361298063,
			"0.013": 1.358355049,
			"0.014": 1.08792906237,
			"0.015": 2.96241131877,
			"0.016": 2.54107024519,
			"0.017": 0.179656072766,
			"0.018": 0.0,
			"0.019": 0.0,
			"0.02": 0.0,
			"0.021": 0.0,
			"0.022": 0.0,
			"0.023": 0.0,
			"0.024": 0.0,
			"0.025": 0.0
		}
	}
}
