{
	 "smiles": "CCCC1=NC=CC=C1", 
	 "Tm": 275.15, 
	 "num_atms": 20, 
	 "gaussian": { 
		 "optdone": 1, 
		 "sigma_profile": "yes", 
		 "theory": "DFT", 
		 "functional": "B3LYP", 
		 "basiset": "6-31G**", 
		 "properties": { 
			 "R2extent": 1609.3597, 
			 "electric_dipole_moment_norm": 1.68841753426, 
			 "electric_quadrupole_moment_norm": 4.83842111954, 
			 "total_energy": -366.241337132, 
			 "HOMO_LUMO_gap": 0.22664, 
			 "cosmo_polarized_energy": -5.25, 
			 "cosmo_cavitation_energy": 22.81, 
			 "cosmo_dispersion_energy": -16.54, 
			 "cosmo_repulsion_energy": 1.38, 
			 "cosmo_total_nonelectrostatic_energy": 7.65, 
			 "SMD_solvation_energy": 2.68 
		},
		"coords": [
			{
				"x": 3.4876500264,
				"y": 1.1426477921,
				"z": -0.2110989136,
				"element": "C" 
			},
			{
				"x": 3.2451261761,
				"y": -0.3682561434,
				"z": -0.2790479886,
				"element": "C" 
			},
			{
				"x": 1.9192627856,
				"y": -0.8139004282,
				"z": 0.3699095175,
				"element": "C" 
			},
			{
				"x": 0.6946686579,
				"y": -0.3278643307,
				"z": -0.3760695782,
				"element": "C" 
			},
			{
				"x": 0.5429169025,
				"y": -0.7901546463,
				"z": -1.6305663028,
				"element": "N" 
			},
			{
				"x": -0.5238091445,
				"y": -0.3883084075,
				"z": -2.3283602915,
				"element": "C" 
			},
			{
				"x": -1.4938285635,
				"y": 0.4844920005,
				"z": -1.8320297789,
				"element": "C" 
			},
			{
				"x": -1.3361974723,
				"y": 0.9650640478,
				"z": -0.5336081968,
				"element": "C" 
			},
			{
				"x": -0.2267785459,
				"y": 0.5541516089,
				"z": 0.2040211232,
				"element": "C" 
			},
			{
				"x": 3.5218382769,
				"y": 1.4942073092,
				"z": 0.8270624933,
				"element": "H" 
			},
			{
				"x": 2.6947272178,
				"y": 1.6982085754,
				"z": -0.7228800277,
				"element": "H" 
			},
			{
				"x": 4.4383523053,
				"y": 1.4110931983,
				"z": -0.6832154431,
				"element": "H" 
			},
			{
				"x": 3.2394293494,
				"y": -0.6997603398,
				"z": -1.3233154702,
				"element": "H" 
			},
			{
				"x": 4.0699065563,
				"y": -0.8950592874,
				"z": 0.2167209918,
				"element": "H" 
			},
			{
				"x": 1.8900744145,
				"y": -1.9101102489,
				"z": 0.390589236,
				"element": "H" 
			},
			{
				"x": 1.8780569209,
				"y": -0.4703673887,
				"z": 1.4108220224,
				"element": "H" 
			},
			{
				"x": -0.610825777,
				"y": -0.7867988597,
				"z": -3.3384629049,
				"element": "H" 
			},
			{
				"x": -2.3409297674,
				"y": 0.7737535128,
				"z": -2.4459441571,
				"element": "H" 
			},
			{
				"x": -2.0628191283,
				"y": 1.6476214252,
				"z": -0.1014174152,
				"element": "H" 
			},
			{
				"x": -0.0726211907,
				"y": 0.9085406104,
				"z": 1.2188910844,
				"element": "H" 
			}
		],
		 "valence_orbital": [ 
			{
				"type": "occ",
				"energy": -0.32923,
				"method": "rhf"
			},
			{
				"type": "occ",
				"energy": -0.32437,
				"method": "rhf"
			},
			{
				"type": "occ",
				"energy": -0.28058,
				"method": "rhf"
			},
			{
				"type": "occ",
				"energy": -0.25016,
				"method": "rhf"
			},
			{
				"type": "occ",
				"energy": -0.24766,
				"method": "rhf"
			},
			{
				"type": "unocc",
				"energy": -0.02102,
				"method": "rhf"
			},
			{
				"type": "unocc",
				"energy": -0.005,
				"method": "rhf"
			},
			{
				"type": "unocc",
				"energy": 0.09377,
				"method": "rhf"
			},
			{
				"type": "unocc",
				"energy": 0.11056,
				"method": "rhf"
			},
			{
				"type": "unocc",
				"energy": 0.13278,
				"method": "rhf"
			}
		],
		"cosmo_sigma_profile": { 
			"-0.025": 0.0,
			"-0.024": 0.0,
			"-0.023": 0.0,
			"-0.022": 0.0,
			"-0.021": 0.0,
			"-0.02": 0.0,
			"-0.019": 0.0,
			"-0.018": 0.0,
			"-0.017": 0.0,
			"-0.016": 0.0,
			"-0.015": 0.0,
			"-0.014": 0.0,
			"-0.013": 0.0,
			"-0.012": 0.0,
			"-0.011": 0.0,
			"-0.01": 0.0,
			"-0.009": 0.0,
			"-0.008": 0.0,
			"-0.007": 1.57839108023,
			"-0.006": 7.59669705078,
			"-0.005": 10.0817483578,
			"-0.004": 11.6986582492,
			"-0.003": 12.7875981,
			"-0.002": 18.8043435992,
			"-0.001": 20.8079173305,
			"0.0": 23.3323583307,
			"0.001": 22.7122995433,
			"0.002": 15.4306609517,
			"0.003": 13.1274299207,
			"0.004": 7.74331899162,
			"0.005": 2.27140151244,
			"0.006": 1.98479767077,
			"0.007": 1.14136323268,
			"0.008": 1.57054334043,
			"0.009": 1.50626854305,
			"0.01": 1.47096655637,
			"0.011": 0.6721089446,
			"0.012": 0.210919917335,
			"0.013": 1.14244332755,
			"0.014": 0.791227664355,
			"0.015": 0.535850604794,
			"0.016": 0.511695110572,
			"0.017": 0.199541465428,
			"0.018": 0.0,
			"0.019": 0.0,
			"0.02": 0.0,
			"0.021": 0.0,
			"0.022": 0.0,
			"0.023": 0.0,
			"0.024": 0.0,
			"0.025": 0.0
		}
	}
}
