{
	 "smiles": "OC(=O)C1=CC(CS(=O)(=O)C2=CC=CC=C2)=CC=C1", 
	 "Tm": 468.15, 
	 "num_atms": 31, 
	 "gaussian": { 
		 "optdone": 1, 
		 "sigma_profile": "yes", 
		 "theory": "DFT", 
		 "functional": "B3LYP", 
		 "basiset": "6-31G**", 
		 "properties": { 
			 "R2extent": 5951.7645, 
			 "electric_dipole_moment_norm": 4.38286987829, 
			 "electric_quadrupole_moment_norm": 19.053942517, 
			 "total_energy": -1239.76395304, 
			 "HOMO_LUMO_gap": 0.20089, 
			 "cosmo_polarized_energy": -19.8, 
			 "cosmo_cavitation_energy": 37.38, 
			 "cosmo_dispersion_energy": -25.62, 
			 "cosmo_repulsion_energy": 1.94, 
			 "cosmo_total_nonelectrostatic_energy": 13.7, 
			 "SMD_solvation_energy": 6.69 
		},
		"coords": [
			{
				"x": -3.8122358556,
				"y": -0.0988603974,
				"z": -1.5087194261,
				"element": "O" 
			},
			{
				"x": -2.9545891963,
				"y": 0.6318897879,
				"z": -0.7536850158,
				"element": "C" 
			},
			{
				"x": -2.8639885633,
				"y": 1.8387916293,
				"z": -0.8650182791,
				"element": "O" 
			},
			{
				"x": -2.1638479437,
				"y": -0.1957837858,
				"z": 0.1959081547,
				"element": "C" 
			},
			{
				"x": -1.2433089039,
				"y": 0.4617188998,
				"z": 1.021585544,
				"element": "C" 
			},
			{
				"x": -0.4747308015,
				"y": -0.252905153,
				"z": 1.9429829174,
				"element": "C" 
			},
			{
				"x": 0.5067267959,
				"y": 0.4580899108,
				"z": 2.8300088135,
				"element": "C" 
			},
			{
				"x": 2.2787285083,
				"y": 0.2110023997,
				"z": 2.3863933173,
				"element": "S" 
			},
			{
				"x": 3.0488055611,
				"y": 1.0148382291,
				"z": 3.3502013162,
				"element": "O" 
			},
			{
				"x": 2.5065728926,
				"y": -1.23796229,
				"z": 2.2502093675,
				"element": "O" 
			},
			{
				"x": 2.4584705631,
				"y": 0.9605783606,
				"z": 0.7620155224,
				"element": "C" 
			},
			{
				"x": 2.2813237521,
				"y": 0.1737235744,
				"z": -0.3778517224,
				"element": "C" 
			},
			{
				"x": 2.419705981,
				"y": 0.7673665962,
				"z": -1.6328892424,
				"element": "C" 
			},
			{
				"x": 2.7316043002,
				"y": 2.1251401241,
				"z": -1.7354583929,
				"element": "C" 
			},
			{
				"x": 2.9153999906,
				"y": 2.8977626786,
				"z": -0.585770059,
				"element": "C" 
			},
			{
				"x": 2.7810621157,
				"y": 2.3168523269,
				"z": 0.6752213448,
				"element": "C" 
			},
			{
				"x": -0.6327293102,
				"y": -1.6465017425,
				"z": 2.0223595124,
				"element": "C" 
			},
			{
				"x": -1.5448631561,
				"y": -2.3043652427,
				"z": 1.1980975314,
				"element": "C" 
			},
			{
				"x": -2.3151219112,
				"y": -1.5853770643,
				"z": 0.2844551388,
				"element": "C" 
			},
			{
				"x": -4.269492036,
				"y": 0.5389808834,
				"z": -2.0809212199,
				"element": "H" 
			},
			{
				"x": -1.1487971698,
				"y": 1.5392032188,
				"z": 0.9299940032,
				"element": "H" 
			},
			{
				"x": 0.4815786118,
				"y": 0.092815134,
				"z": 3.8617137433,
				"element": "H" 
			},
			{
				"x": 0.3536503841,
				"y": 1.5395015181,
				"z": 2.8438615511,
				"element": "H" 
			},
			{
				"x": 2.057517228,
				"y": -0.882049679,
				"z": -0.2738528693,
				"element": "H" 
			},
			{
				"x": 2.2883976705,
				"y": 0.1689761842,
				"z": -2.5292616108,
				"element": "H" 
			},
			{
				"x": 2.838149339,
				"y": 2.5819204415,
				"z": -2.7150040132,
				"element": "H" 
			},
			{
				"x": 3.1703441822,
				"y": 3.9497116211,
				"z": -0.6706268346,
				"element": "H" 
			},
			{
				"x": 2.9437848382,
				"y": 2.8915096328,
				"z": 1.5808812116,
				"element": "H" 
			},
			{
				"x": -0.0260976457,
				"y": -2.2115257825,
				"z": 2.7227891025,
				"element": "H" 
			},
			{
				"x": -1.6570810232,
				"y": -3.3817607688,
				"z": 1.2710690362,
				"element": "H" 
			},
			{
				"x": -3.0301391979,
				"y": -2.0900812454,
				"z": -0.3549884425,
				"element": "H" 
			}
		],
		 "valence_orbital": [ 
			{
				"type": "occ",
				"energy": -0.28417,
				"method": "rhf"
			},
			{
				"type": "occ",
				"energy": -0.27669,
				"method": "rhf"
			},
			{
				"type": "occ",
				"energy": -0.27205,
				"method": "rhf"
			},
			{
				"type": "occ",
				"energy": -0.26853,
				"method": "rhf"
			},
			{
				"type": "occ",
				"energy": -0.25903,
				"method": "rhf"
			},
			{
				"type": "unocc",
				"energy": -0.05814,
				"method": "rhf"
			},
			{
				"type": "unocc",
				"energy": -0.04173,
				"method": "rhf"
			},
			{
				"type": "unocc",
				"energy": -0.02552,
				"method": "rhf"
			},
			{
				"type": "unocc",
				"energy": -0.02177,
				"method": "rhf"
			},
			{
				"type": "unocc",
				"energy": 0.03836,
				"method": "rhf"
			}
		],
		"cosmo_sigma_profile": { 
			"-0.025": 0.0,
			"-0.024": 0.0,
			"-0.023": 0.0,
			"-0.022": 0.0,
			"-0.021": 0.0,
			"-0.02": 0.0,
			"-0.019": 0.0564780298765,
			"-0.018": 0.807247381429,
			"-0.017": 1.30949557581,
			"-0.016": 0.554760806775,
			"-0.015": 0.697252355014,
			"-0.014": 0.129996706534,
			"-0.013": 0.925899227546,
			"-0.012": 0.756235664655,
			"-0.011": 1.27952009035,
			"-0.01": 0.869718836385,
			"-0.009": 3.74464785905,
			"-0.008": 7.09657542106,
			"-0.007": 13.6385159862,
			"-0.006": 21.3489103065,
			"-0.005": 22.9924730543,
			"-0.004": 16.8251894117,
			"-0.003": 14.619835814,
			"-0.002": 16.9167507956,
			"-0.001": 15.9062263614,
			"0.0": 19.7441800346,
			"0.001": 23.8632785302,
			"0.002": 27.3313239566,
			"0.003": 24.5705872443,
			"0.004": 7.21479852763,
			"0.005": 5.62971202996,
			"0.006": 4.90602099625,
			"0.007": 5.95192231616,
			"0.008": 4.76800449164,
			"0.009": 5.11634839048,
			"0.01": 7.10042634563,
			"0.011": 11.4736138273,
			"0.012": 10.5136366608,
			"0.013": 0.444479806417,
			"0.014": 0.0,
			"0.015": 0.0,
			"0.016": 0.0,
			"0.017": 0.0,
			"0.018": 0.0,
			"0.019": 0.0,
			"0.02": 0.0,
			"0.021": 0.0,
			"0.022": 0.0,
			"0.023": 0.0,
			"0.024": 0.0,
			"0.025": 0.0
		}
	}
}
