{
	 "smiles": "OC(=O)C1=C(CS(=O)C2=CC=CC=C2)C=CC=C1", 
	 "Tm": 459.15, 
	 "num_atms": 30, 
	 "gaussian": { 
		 "optdone": 1, 
		 "sigma_profile": "yes", 
		 "theory": "DFT", 
		 "functional": "B3LYP", 
		 "basiset": "6-31G**", 
		 "properties": { 
			 "R2extent": 4445.3316, 
			 "electric_dipole_moment_norm": 3.41148511649, 
			 "electric_quadrupole_moment_norm": 20.9848725748, 
			 "total_energy": -1164.54124532, 
			 "HOMO_LUMO_gap": 0.17361, 
			 "cosmo_polarized_energy": -18.8, 
			 "cosmo_cavitation_energy": 34.68, 
			 "cosmo_dispersion_energy": -23.98, 
			 "cosmo_repulsion_energy": 1.79, 
			 "cosmo_total_nonelectrostatic_energy": 12.48, 
			 "SMD_solvation_energy": 5.85 
		},
		"coords": [
			{
				"x": -1.5305101567,
				"y": 0.1638872556,
				"z": -1.9538216267,
				"element": "O" 
			},
			{
				"x": -1.3274013803,
				"y": 0.7846305564,
				"z": -0.7612403121,
				"element": "C" 
			},
			{
				"x": -1.5920493651,
				"y": 1.9612891189,
				"z": -0.651542149,
				"element": "O" 
			},
			{
				"x": -0.8103297305,
				"y": -0.0915211694,
				"z": 0.3442801631,
				"element": "C" 
			},
			{
				"x": 0.0734709699,
				"y": 0.3959178387,
				"z": 1.3361093621,
				"element": "C" 
			},
			{
				"x": 0.6388734552,
				"y": 1.782096551,
				"z": 1.3195716554,
				"element": "C" 
			},
			{
				"x": 2.4509922697,
				"y": 1.8494619757,
				"z": 0.8126242401,
				"element": "S" 
			},
			{
				"x": 3.1976499295,
				"y": 0.8587037039,
				"z": 1.6827133182,
				"element": "O" 
			},
			{
				"x": 2.290652692,
				"y": 1.0853772435,
				"z": -0.8332190854,
				"element": "C" 
			},
			{
				"x": 2.8184728611,
				"y": -0.1919403804,
				"z": -1.0109926325,
				"element": "C" 
			},
			{
				"x": 2.7555438766,
				"y": -0.7821330603,
				"z": -2.2752032016,
				"element": "C" 
			},
			{
				"x": 2.172842285,
				"y": -0.093751569,
				"z": -3.3423533678,
				"element": "C" 
			},
			{
				"x": 1.6558948641,
				"y": 1.1914320498,
				"z": -3.1518917366,
				"element": "C" 
			},
			{
				"x": 1.7226917215,
				"y": 1.7938906025,
				"z": -1.8947932241,
				"element": "C" 
			},
			{
				"x": 0.4970886844,
				"y": -0.4844615231,
				"z": 2.3437001082,
				"element": "C" 
			},
			{
				"x": 0.0395852454,
				"y": -1.8003657989,
				"z": 2.3979347978,
				"element": "C" 
			},
			{
				"x": -0.8577628617,
				"y": -2.2676877849,
				"z": 1.4386365116,
				"element": "C" 
			},
			{
				"x": -1.2717076108,
				"y": -1.4159245891,
				"z": 0.417146663,
				"element": "C" 
			},
			{
				"x": -1.0990367753,
				"y": -0.7025850942,
				"z": -1.9458062073,
				"element": "H" 
			},
			{
				"x": 0.0963042815,
				"y": 2.4618360071,
				"z": 0.6639140809,
				"element": "H" 
			},
			{
				"x": 0.6687721036,
				"y": 2.2070069704,
				"z": 2.3270072855,
				"element": "H" 
			},
			{
				"x": 3.2702817231,
				"y": -0.6921783088,
				"z": -0.1598052339,
				"element": "H" 
			},
			{
				"x": 3.1646648696,
				"y": -1.7769402899,
				"z": -2.4275959793,
				"element": "H" 
			},
			{
				"x": 2.1281885689,
				"y": -0.5534264377,
				"z": -4.3255425897,
				"element": "H" 
			},
			{
				"x": 1.2027290243,
				"y": 1.7261595539,
				"z": -3.9809428724,
				"element": "H" 
			},
			{
				"x": 1.3216132607,
				"y": 2.7928872888,
				"z": -1.7470746431,
				"element": "H" 
			},
			{
				"x": 1.2065681949,
				"y": -0.1268407312,
				"z": 3.0813533669,
				"element": "H" 
			},
			{
				"x": 0.3795577683,
				"y": -2.4558746204,
				"z": 3.1941657205,
				"element": "H" 
			},
			{
				"x": -1.2383972314,
				"y": -3.2833467523,
				"z": 1.4863547054,
				"element": "H" 
			},
			{
				"x": -1.9958435375,
				"y": -1.7711986067,
				"z": -0.3111871169,
				"element": "H" 
			}
		],
		 "valence_orbital": [ 
			{
				"type": "occ",
				"energy": -0.27144,
				"method": "rhf"
			},
			{
				"type": "occ",
				"energy": -0.2672,
				"method": "rhf"
			},
			{
				"type": "occ",
				"energy": -0.26381,
				"method": "rhf"
			},
			{
				"type": "occ",
				"energy": -0.25787,
				"method": "rhf"
			},
			{
				"type": "occ",
				"energy": -0.22669,
				"method": "rhf"
			},
			{
				"type": "unocc",
				"energy": -0.05308,
				"method": "rhf"
			},
			{
				"type": "unocc",
				"energy": -0.03089,
				"method": "rhf"
			},
			{
				"type": "unocc",
				"energy": -0.02314,
				"method": "rhf"
			},
			{
				"type": "unocc",
				"energy": -0.01528,
				"method": "rhf"
			},
			{
				"type": "unocc",
				"energy": 0.03348,
				"method": "rhf"
			}
		],
		"cosmo_sigma_profile": { 
			"-0.025": 0.0,
			"-0.024": 0.0,
			"-0.023": 0.0,
			"-0.022": 0.0,
			"-0.021": 0.0,
			"-0.02": 0.0,
			"-0.019": 0.0,
			"-0.018": 0.186907618755,
			"-0.017": 0.452082790832,
			"-0.016": 0.580691937364,
			"-0.015": 0.562325293061,
			"-0.014": 0.814046058554,
			"-0.013": 0.776259544448,
			"-0.012": 1.06224250447,
			"-0.011": 0.781294811731,
			"-0.01": 0.924351449609,
			"-0.009": 2.09475834665,
			"-0.008": 5.37709428672,
			"-0.007": 10.7403968331,
			"-0.006": 20.4867664741,
			"-0.005": 23.6854599942,
			"-0.004": 20.1962431408,
			"-0.003": 16.1053259419,
			"-0.002": 16.8576812155,
			"-0.001": 17.0309982618,
			"0.0": 16.1630955147,
			"0.001": 18.6711726814,
			"0.002": 19.4419878328,
			"0.003": 23.2459700642,
			"0.004": 13.6900837766,
			"0.005": 6.20439241221,
			"0.006": 4.89542166504,
			"0.007": 4.30644891126,
			"0.008": 2.99578211784,
			"0.009": 5.00414968099,
			"0.01": 6.08141376979,
			"0.011": 6.41182958703,
			"0.012": 4.3495120791,
			"0.013": 3.59599388541,
			"0.014": 2.19313821274,
			"0.015": 2.19796899845,
			"0.016": 0.1970185698,
			"0.017": 0.0,
			"0.018": 0.0,
			"0.019": 0.0,
			"0.02": 0.0,
			"0.021": 0.0,
			"0.022": 0.0,
			"0.023": 0.0,
			"0.024": 0.0,
			"0.025": 0.0
		}
	}
}
