{
	 "smiles": "OC(=O)C1=CC=C(C=C1)C1=CC(F)=C(F)C(F)=C1", 
	 "Tm": 538.15, 
	 "num_atms": 25, 
	 "gaussian": { 
		 "optdone": 1, 
		 "sigma_profile": "yes", 
		 "theory": "DFT", 
		 "functional": "B3LYP", 
		 "basiset": "6-31G**", 
		 "properties": { 
			 "R2extent": 8156.2217, 
			 "electric_dipole_moment_norm": 1.86229085537, 
			 "electric_quadrupole_moment_norm": 18.5220580247, 
			 "total_energy": -949.564198114, 
			 "HOMO_LUMO_gap": 0.17556, 
			 "cosmo_polarized_energy": -10.58, 
			 "cosmo_cavitation_energy": 32.38, 
			 "cosmo_dispersion_energy": -23.08, 
			 "cosmo_repulsion_energy": 1.68, 
			 "cosmo_total_nonelectrostatic_energy": 10.99, 
			 "SMD_solvation_energy": 8.07 
		},
		"coords": [
			{
				"x": -2.6291111005,
				"y": -4.9061502635,
				"z": 0.3444395072,
				"element": "O" 
			},
			{
				"x": -2.5812810974,
				"y": -3.6200396801,
				"z": 0.774090943,
				"element": "C" 
			},
			{
				"x": -3.4044419149,
				"y": -3.164374364,
				"z": 1.5433568599,
				"element": "O" 
			},
			{
				"x": -1.4366815455,
				"y": -2.8600976169,
				"z": 0.207817558,
				"element": "C" 
			},
			{
				"x": -1.2858598227,
				"y": -1.5183895366,
				"z": 0.5820387056,
				"element": "C" 
			},
			{
				"x": -0.2311915383,
				"y": -0.7654598947,
				"z": 0.0807516535,
				"element": "C" 
			},
			{
				"x": 0.7001074571,
				"y": -1.3314799271,
				"z": -0.8087238491,
				"element": "C" 
			},
			{
				"x": 0.5378871755,
				"y": -2.6784204644,
				"z": -1.1777708812,
				"element": "C" 
			},
			{
				"x": -0.5155599744,
				"y": -3.4364913384,
				"z": -0.6769706708,
				"element": "C" 
			},
			{
				"x": 1.8262617991,
				"y": -0.5267386088,
				"z": -1.344637248,
				"element": "C" 
			},
			{
				"x": 1.6475707958,
				"y": 0.8310257399,
				"z": -1.6586326475,
				"element": "C" 
			},
			{
				"x": 2.7080426693,
				"y": 1.5727896266,
				"z": -2.1589342936,
				"element": "C" 
			},
			{
				"x": 2.5415387127,
				"y": 2.8668656729,
				"z": -2.4724666305,
				"element": "F" 
			},
			{
				"x": 3.9618216984,
				"y": 0.9995900207,
				"z": -2.3610211105,
				"element": "C" 
			},
			{
				"x": 4.9766068346,
				"y": 1.7248134551,
				"z": -2.8440352239,
				"element": "F" 
			},
			{
				"x": 4.1332044114,
				"y": -0.3471842515,
				"z": -2.0478384253,
				"element": "C" 
			},
			{
				"x": 5.3445860499,
				"y": -0.8946111511,
				"z": -2.2315498963,
				"element": "F" 
			},
			{
				"x": 3.0885034623,
				"y": -1.1100203665,
				"z": -1.5461319089,
				"element": "C" 
			},
			{
				"x": -3.4072068244,
				"y": -5.2982835846,
				"z": 0.7736646882,
				"element": "H" 
			},
			{
				"x": -2.0016920047,
				"y": -1.0886878971,
				"z": 1.2746173045,
				"element": "H" 
			},
			{
				"x": -0.1091549918,
				"y": 0.2644140045,
				"z": 0.4014318603,
				"element": "H" 
			},
			{
				"x": 1.2283436914,
				"y": -3.1269674621,
				"z": -1.8852203863,
				"element": "H" 
			},
			{
				"x": -0.634242228,
				"y": -4.4717409802,
				"z": -0.9757572014,
				"element": "H" 
			},
			{
				"x": 0.6844911276,
				"y": 1.3155158395,
				"z": -1.5484762238,
				"element": "H" 
			},
			{
				"x": 3.2813571572,
				"y": -2.1449769714,
				"z": -1.289142483,
				"element": "H" 
			}
		],
		 "valence_orbital": [ 
			{
				"type": "occ",
				"energy": -0.28742,
				"method": "rhf"
			},
			{
				"type": "occ",
				"energy": -0.2826,
				"method": "rhf"
			},
			{
				"type": "occ",
				"energy": -0.2714,
				"method": "rhf"
			},
			{
				"type": "occ",
				"energy": -0.26569,
				"method": "rhf"
			},
			{
				"type": "occ",
				"energy": -0.24395,
				"method": "rhf"
			},
			{
				"type": "unocc",
				"energy": -0.06839,
				"method": "rhf"
			},
			{
				"type": "unocc",
				"energy": -0.0232,
				"method": "rhf"
			},
			{
				"type": "unocc",
				"energy": -0.01827,
				"method": "rhf"
			},
			{
				"type": "unocc",
				"energy": -0.01194,
				"method": "rhf"
			},
			{
				"type": "unocc",
				"energy": 0.04707,
				"method": "rhf"
			}
		],
		"cosmo_sigma_profile": { 
			"-0.025": 0.0,
			"-0.024": 0.0,
			"-0.023": 0.0,
			"-0.022": 0.0,
			"-0.021": 0.0,
			"-0.02": 0.0,
			"-0.019": 0.0497078800566,
			"-0.018": 0.801122791953,
			"-0.017": 0.84777102959,
			"-0.016": 0.886264222125,
			"-0.015": 1.01436527981,
			"-0.014": 0.420210318209,
			"-0.013": 0.507157776475,
			"-0.012": 0.907638980858,
			"-0.011": 0.847817342078,
			"-0.01": 0.41718519049,
			"-0.009": 0.811538911625,
			"-0.008": 4.27140192298,
			"-0.007": 8.69677300304,
			"-0.006": 10.8042492964,
			"-0.005": 10.5396553639,
			"-0.004": 9.21958270008,
			"-0.003": 11.6931008218,
			"-0.002": 19.8800245146,
			"-0.001": 24.2939129577,
			"0.0": 25.2036324444,
			"0.001": 26.5239919393,
			"0.002": 23.7977061908,
			"0.003": 45.0147426413,
			"0.004": 12.2891296517,
			"0.005": 2.57931292293,
			"0.006": 2.15178692562,
			"0.007": 3.78627793839,
			"0.008": 1.94559114465,
			"0.009": 1.38447489926,
			"0.01": 2.19404180524,
			"0.011": 3.73616711587,
			"0.012": 3.84760567677,
			"0.013": 0.0999313231644,
			"0.014": 0.0,
			"0.015": 0.0,
			"0.016": 0.0,
			"0.017": 0.0,
			"0.018": 0.0,
			"0.019": 0.0,
			"0.02": 0.0,
			"0.021": 0.0,
			"0.022": 0.0,
			"0.023": 0.0,
			"0.024": 0.0,
			"0.025": 0.0
		}
	}
}
