{
	 "smiles": "CC1=C(CN2CCSCC2)C=CC=C1N", 
	 "Tm": 354.15, 
	 "num_atms": 33, 
	 "gaussian": { 
		 "optdone": 1, 
		 "sigma_profile": "yes", 
		 "theory": "DFT", 
		 "functional": "B3LYP", 
		 "basiset": "6-31G**", 
		 "properties": { 
			 "R2extent": 4652.0972, 
			 "electric_dipole_moment_norm": 1.96410960488, 
			 "electric_quadrupole_moment_norm": 19.4255346053, 
			 "total_energy": -975.805927516, 
			 "HOMO_LUMO_gap": 0.20036, 
			 "cosmo_polarized_energy": -11.69, 
			 "cosmo_cavitation_energy": 33.74, 
			 "cosmo_dispersion_energy": -24.79, 
			 "cosmo_repulsion_energy": 1.88, 
			 "cosmo_total_nonelectrostatic_energy": 10.83, 
			 "SMD_solvation_energy": 2.25 
		},
		"coords": [
			{
				"x": -3.9892388675,
				"y": -0.0023859722,
				"z": 0.8155998207,
				"element": "C" 
			},
			{
				"x": -2.7111861259,
				"y": 0.7901249221,
				"z": 0.9835969262,
				"element": "C" 
			},
			{
				"x": -1.4670950447,
				"y": 0.2156355682,
				"z": 1.3163891494,
				"element": "C" 
			},
			{
				"x": -1.2452793598,
				"y": -1.2944583363,
				"z": 1.4436504303,
				"element": "C" 
			},
			{
				"x": -0.784183837,
				"y": -2.021938,
				"z": 0.2533093425,
				"element": "N" 
			},
			{
				"x": -1.7648870231,
				"y": -2.0702004382,
				"z": -0.830960271,
				"element": "C" 
			},
			{
				"x": -1.1948850007,
				"y": -2.7326741834,
				"z": -2.083026077,
				"element": "C" 
			},
			{
				"x": 0.0784010257,
				"y": -1.6761264161,
				"z": -2.9015381573,
				"element": "S" 
			},
			{
				"x": 0.778800409,
				"y": -0.8794578502,
				"z": -1.3887386127,
				"element": "C" 
			},
			{
				"x": 0.6037989573,
				"y": -1.7865976377,
				"z": -0.1634887833,
				"element": "C" 
			},
			{
				"x": -0.3592108137,
				"y": 1.0506792668,
				"z": 1.5418487801,
				"element": "C" 
			},
			{
				"x": -0.4616339887,
				"y": 2.431971941,
				"z": 1.4066377898,
				"element": "C" 
			},
			{
				"x": -1.6746916279,
				"y": 3.005552713,
				"z": 1.0417264309,
				"element": "C" 
			},
			{
				"x": -2.8014171398,
				"y": 2.1979823478,
				"z": 0.8355992557,
				"element": "C" 
			},
			{
				"x": -4.0377769931,
				"y": 2.7909960113,
				"z": 0.5492194529,
				"element": "N" 
			},
			{
				"x": -4.7873918462,
				"y": 0.4267520448,
				"z": 1.4332665332,
				"element": "H" 
			},
			{
				"x": -3.879853134,
				"y": -1.0489623496,
				"z": 1.0965858234,
				"element": "H" 
			},
			{
				"x": -4.3485757337,
				"y": 0.008758399,
				"z": -0.2237555455,
				"element": "H" 
			},
			{
				"x": -2.1599126235,
				"y": -1.7906529083,
				"z": 1.7854937509,
				"element": "H" 
			},
			{
				"x": -0.5007305796,
				"y": -1.4636101877,
				"z": 2.2292168651,
				"element": "H" 
			},
			{
				"x": -2.6316339164,
				"y": -2.6501220442,
				"z": -0.4814467692,
				"element": "H" 
			},
			{
				"x": -2.1409820691,
				"y": -1.0717801272,
				"z": -1.1137426062,
				"element": "H" 
			},
			{
				"x": -0.7714822164,
				"y": -3.7116899326,
				"z": -1.8400169113,
				"element": "H" 
			},
			{
				"x": -1.9861257487,
				"y": -2.8778084041,
				"z": -2.8227131304,
				"element": "H" 
			},
			{
				"x": 0.3044542534,
				"y": 0.0910786126,
				"z": -1.2253886814,
				"element": "H" 
			},
			{
				"x": 1.8412890367,
				"y": -0.7153979753,
				"z": -1.5908097897,
				"element": "H" 
			},
			{
				"x": 1.0887856132,
				"y": -2.7486459505,
				"z": -0.3809002999,
				"element": "H" 
			},
			{
				"x": 1.1463745256,
				"y": -1.3527244213,
				"z": 0.6818193471,
				"element": "H" 
			},
			{
				"x": 0.5867433733,
				"y": 0.6098049738,
				"z": 1.8434919034,
				"element": "H" 
			},
			{
				"x": 0.402911278,
				"y": 3.0651271666,
				"z": 1.5859146062,
				"element": "H" 
			},
			{
				"x": -1.7624798784,
				"y": 4.0837690959,
				"z": 0.9292692511,
				"element": "H" 
			},
			{
				"x": -4.6543891902,
				"y": 2.2494971452,
				"z": -0.0406874012,
				"element": "H" 
			},
			{
				"x": -3.973315714,
				"y": 3.7486029266,
				"z": 0.2310775773,
				"element": "H" 
			}
		],
		 "valence_orbital": [ 
			{
				"type": "occ",
				"energy": -0.29088,
				"method": "rhf"
			},
			{
				"type": "occ",
				"energy": -0.23634,
				"method": "rhf"
			},
			{
				"type": "occ",
				"energy": -0.21097,
				"method": "rhf"
			},
			{
				"type": "occ",
				"energy": -0.20233,
				"method": "rhf"
			},
			{
				"type": "occ",
				"energy": -0.19704,
				"method": "rhf"
			},
			{
				"type": "unocc",
				"energy": 0.00332,
				"method": "rhf"
			},
			{
				"type": "unocc",
				"energy": 0.0156,
				"method": "rhf"
			},
			{
				"type": "unocc",
				"energy": 0.04555,
				"method": "rhf"
			},
			{
				"type": "unocc",
				"energy": 0.06756,
				"method": "rhf"
			},
			{
				"type": "unocc",
				"energy": 0.07532,
				"method": "rhf"
			}
		],
		"cosmo_sigma_profile": { 
			"-0.025": 0.0,
			"-0.024": 0.0,
			"-0.023": 0.0,
			"-0.022": 0.0,
			"-0.021": 0.0,
			"-0.02": 0.0,
			"-0.019": 0.0,
			"-0.018": 0.0,
			"-0.017": 0.0,
			"-0.016": 0.0,
			"-0.015": 0.0,
			"-0.014": 0.0,
			"-0.013": 0.00466863672224,
			"-0.012": 0.767940339712,
			"-0.011": 2.4579725186,
			"-0.01": 2.89197445192,
			"-0.009": 2.82291582322,
			"-0.008": 3.39356204704,
			"-0.007": 3.04752612623,
			"-0.006": 6.32929251736,
			"-0.005": 16.421437476,
			"-0.004": 21.4022845514,
			"-0.003": 27.6942443888,
			"-0.002": 29.2915865417,
			"-0.001": 27.3877630982,
			"0.0": 21.2581974228,
			"0.001": 15.6507567424,
			"0.002": 11.9420956462,
			"0.003": 9.91818650551,
			"0.004": 10.6858292543,
			"0.005": 10.5040170301,
			"0.006": 11.1760702889,
			"0.007": 10.3336431728,
			"0.008": 4.90605313524,
			"0.009": 3.84124380651,
			"0.01": 3.30878103855,
			"0.011": 3.19846107217,
			"0.012": 2.02572852641,
			"0.013": 1.29049613397,
			"0.014": 0.794984640022,
			"0.015": 0.651621786801,
			"0.016": 0.0249696872517,
			"0.017": 0.0,
			"0.018": 0.0,
			"0.019": 0.0,
			"0.02": 0.0,
			"0.021": 0.0,
			"0.022": 0.0,
			"0.023": 0.0,
			"0.024": 0.0,
			"0.025": 0.0
		}
	}
}
