{
	 "smiles": "CCC1CC(=O)C=C(C)C1(O)C=CC(C)=CC(O)=O", 
	 "Tm": 460.15, 
	 "num_atms": 39, 
	 "gaussian": { 
		 "optdone": 1, 
		 "sigma_profile": "yes", 
		 "theory": "DFT", 
		 "functional": "B3LYP", 
		 "basiset": "6-31G**", 
		 "properties": { 
			 "R2extent": 5618.896, 
			 "electric_dipole_moment_norm": 6.32580174681, 
			 "electric_quadrupole_moment_norm": 34.131880531, 
			 "total_energy": -884.502427048, 
			 "HOMO_LUMO_gap": 0.17876, 
			 "cosmo_polarized_energy": -23.43, 
			 "cosmo_cavitation_energy": 39.64, 
			 "cosmo_dispersion_energy": -26.43, 
			 "cosmo_repulsion_energy": 2.04, 
			 "cosmo_total_nonelectrostatic_energy": 15.25, 
			 "SMD_solvation_energy": 8.55 
		},
		"coords": [
			{
				"x": 2.4918084319,
				"y": -1.2035803142,
				"z": 0.2694776746,
				"element": "C" 
			},
			{
				"x": 1.4300403039,
				"y": -1.5320123425,
				"z": -0.7881528439,
				"element": "C" 
			},
			{
				"x": 0.4276299295,
				"y": -0.3751932799,
				"z": -1.0617917534,
				"element": "C" 
			},
			{
				"x": 0.1664732423,
				"y": -0.203585725,
				"z": -2.5701532759,
				"element": "C" 
			},
			{
				"x": -0.6034348301,
				"y": -1.3746794878,
				"z": -3.1503643869,
				"element": "C" 
			},
			{
				"x": -0.441499794,
				"y": -1.7774023287,
				"z": -4.2929311705,
				"element": "O" 
			},
			{
				"x": -1.6170584983,
				"y": -1.9836410864,
				"z": -2.2611979277,
				"element": "C" 
			},
			{
				"x": -1.8059058309,
				"y": -1.6282982901,
				"z": -0.9762384161,
				"element": "C" 
			},
			{
				"x": -2.9105984955,
				"y": -2.2427125336,
				"z": -0.1572419498,
				"element": "C" 
			},
			{
				"x": -0.9405430463,
				"y": -0.5262232827,
				"z": -0.3247667318,
				"element": "C" 
			},
			{
				"x": -1.6158693686,
				"y": 0.7416626112,
				"z": -0.5388438988,
				"element": "O" 
			},
			{
				"x": -0.7423534777,
				"y": -0.8014060209,
				"z": 1.1513674592,
				"element": "C" 
			},
			{
				"x": -1.2130171729,
				"y": -0.171280428,
				"z": 2.2371799322,
				"element": "C" 
			},
			{
				"x": -2.1442945046,
				"y": 0.9781317007,
				"z": 2.4338245113,
				"element": "C" 
			},
			{
				"x": -3.4585058535,
				"y": 0.5692477288,
				"z": 3.0722859145,
				"element": "C" 
			},
			{
				"x": -1.8510514137,
				"y": 2.2837772468,
				"z": 2.2794321945,
				"element": "C" 
			},
			{
				"x": -0.5414100734,
				"y": 2.9037054008,
				"z": 1.8856832203,
				"element": "C" 
			},
			{
				"x": 0.0037898613,
				"y": 2.5271979532,
				"z": 0.7189748359,
				"element": "O" 
			},
			{
				"x": -0.0203962792,
				"y": 3.7337864596,
				"z": 2.5973067417,
				"element": "O" 
			},
			{
				"x": 2.0481172619,
				"y": -0.9478913313,
				"z": 1.236443246,
				"element": "H" 
			},
			{
				"x": 3.1670588117,
				"y": -2.0517560792,
				"z": 0.4222181086,
				"element": "H" 
			},
			{
				"x": 3.0980413814,
				"y": -0.3468579698,
				"z": -0.0434035073,
				"element": "H" 
			},
			{
				"x": 0.8953410018,
				"y": -2.450527376,
				"z": -0.5177979293,
				"element": "H" 
			},
			{
				"x": 1.9430038205,
				"y": -1.7696621333,
				"z": -1.7270136635,
				"element": "H" 
			},
			{
				"x": 0.8729790594,
				"y": 0.5505560726,
				"z": -0.6824143093,
				"element": "H" 
			},
			{
				"x": -0.4381216783,
				"y": 0.6958016325,
				"z": -2.7401702176,
				"element": "H" 
			},
			{
				"x": 1.1002018969,
				"y": -0.0827486381,
				"z": -3.1255834117,
				"element": "H" 
			},
			{
				"x": -2.2380030892,
				"y": -2.7481085068,
				"z": -2.7228288295,
				"element": "H" 
			},
			{
				"x": -3.577116183,
				"y": -1.4738220045,
				"z": 0.2555209851,
				"element": "H" 
			},
			{
				"x": -3.5166358685,
				"y": -2.9192631138,
				"z": -0.7638723457,
				"element": "H" 
			},
			{
				"x": -2.5192950257,
				"y": -2.7991446984,
				"z": 0.7013038251,
				"element": "H" 
			},
			{
				"x": -2.443437375,
				"y": 0.7499182842,
				"z": -0.0370552043,
				"element": "H" 
			},
			{
				"x": -0.1395952345,
				"y": -1.6857599102,
				"z": 1.3413071811,
				"element": "H" 
			},
			{
				"x": -0.9491248093,
				"y": -0.6362564568,
				"z": 3.1900314173,
				"element": "H" 
			},
			{
				"x": -4.0973746547,
				"y": 1.4339576856,
				"z": 3.2679173882,
				"element": "H" 
			},
			{
				"x": -3.2801453024,
				"y": 0.0540037945,
				"z": 4.0246466406,
				"element": "H" 
			},
			{
				"x": -4.0098037577,
				"y": -0.1364362953,
				"z": 2.4390576663,
				"element": "H" 
			},
			{
				"x": -2.5768555982,
				"y": 3.0179963366,
				"z": 2.6218982929,
				"element": "H" 
			},
			{
				"x": -0.6174377872,
				"y": 1.9436067262,
				"z": 0.2244445377,
				"element": "H" 
			}
		],
		 "valence_orbital": [ 
			{
				"type": "occ",
				"energy": -0.29444,
				"method": "rhf"
			},
			{
				"type": "occ",
				"energy": -0.27889,
				"method": "rhf"
			},
			{
				"type": "occ",
				"energy": -0.26977,
				"method": "rhf"
			},
			{
				"type": "occ",
				"energy": -0.2536,
				"method": "rhf"
			},
			{
				"type": "occ",
				"energy": -0.24473,
				"method": "rhf"
			},
			{
				"type": "unocc",
				"energy": -0.06597,
				"method": "rhf"
			},
			{
				"type": "unocc",
				"energy": -0.04,
				"method": "rhf"
			},
			{
				"type": "unocc",
				"energy": -0.01088,
				"method": "rhf"
			},
			{
				"type": "unocc",
				"energy": 0.03105,
				"method": "rhf"
			},
			{
				"type": "unocc",
				"energy": 0.04477,
				"method": "rhf"
			}
		],
		"cosmo_sigma_profile": { 
			"-0.025": 0.0,
			"-0.024": 0.0,
			"-0.023": 0.0,
			"-0.022": 0.0,
			"-0.021": 0.0,
			"-0.02": 0.0,
			"-0.019": 0.0,
			"-0.018": 0.0,
			"-0.017": 0.0,
			"-0.016": 0.0,
			"-0.015": 0.12635921723,
			"-0.014": 0.82673098363,
			"-0.013": 1.28394580867,
			"-0.012": 1.55574697491,
			"-0.011": 0.976021686649,
			"-0.01": 0.945871737866,
			"-0.009": 1.64464869976,
			"-0.008": 1.55132931382,
			"-0.007": 4.77433711095,
			"-0.006": 14.8548841137,
			"-0.005": 22.6896294004,
			"-0.004": 27.4268256899,
			"-0.003": 32.7639297492,
			"-0.002": 34.4606408163,
			"-0.001": 37.360087098,
			"0.0": 27.9050419354,
			"0.001": 20.8979124539,
			"0.002": 10.4231821741,
			"0.003": 6.76509650127,
			"0.004": 5.30653274899,
			"0.005": 4.14396308693,
			"0.006": 4.52189594847,
			"0.007": 4.62101651896,
			"0.008": 4.5773518124,
			"0.009": 3.65508518385,
			"0.01": 5.19232804006,
			"0.011": 7.09651997488,
			"0.012": 10.828292713,
			"0.013": 8.78929180785,
			"0.014": 2.65031730785,
			"0.015": 0.00138319015868,
			"0.016": 0.0,
			"0.017": 0.0,
			"0.018": 0.0,
			"0.019": 0.0,
			"0.02": 0.0,
			"0.021": 0.0,
			"0.022": 0.0,
			"0.023": 0.0,
			"0.024": 0.0,
			"0.025": 0.0
		}
	}
}
