{
	 "smiles": "CC(C(O)=O)C1=CC=C(C=C1)N1CC2=CC=CC=C2C1=O", 
	 "Tm": 486.15, 
	 "num_atms": 36, 
	 "gaussian": { 
		 "optdone": 1, 
		 "sigma_profile": "yes", 
		 "theory": "DFT", 
		 "functional": "B3LYP", 
		 "basiset": "6-31G**", 
		 "properties": { 
			 "R2extent": 9502.1239, 
			 "electric_dipole_moment_norm": 5.2463302031, 
			 "electric_quadrupole_moment_norm": 14.0934664228, 
			 "total_energy": -937.319249663, 
			 "HOMO_LUMO_gap": 0.16709, 
			 "cosmo_polarized_energy": -17.94, 
			 "cosmo_cavitation_energy": 40.07, 
			 "cosmo_dispersion_energy": -28.68, 
			 "cosmo_repulsion_energy": 2.17, 
			 "cosmo_total_nonelectrostatic_energy": 13.56, 
			 "SMD_solvation_energy": 7.69 
		},
		"coords": [
			{
				"x": 1.3058139106,
				"y": -1.79702658,
				"z": -3.906442014,
				"element": "C" 
			},
			{
				"x": 1.9279635442,
				"y": -1.724225456,
				"z": -2.501819399,
				"element": "C" 
			},
			{
				"x": 2.0884486261,
				"y": -3.1229392312,
				"z": -1.9205273345,
				"element": "C" 
			},
			{
				"x": 3.1627649835,
				"y": -3.2109034579,
				"z": -1.1010538597,
				"element": "O" 
			},
			{
				"x": 1.3469079818,
				"y": -4.0605897977,
				"z": -2.1242063473,
				"element": "O" 
			},
			{
				"x": 1.1013215495,
				"y": -0.8712295848,
				"z": -1.5427276407,
				"element": "C" 
			},
			{
				"x": 1.5797792562,
				"y": 0.357603248,
				"z": -1.0832343568,
				"element": "C" 
			},
			{
				"x": 0.8186616428,
				"y": 1.1611274938,
				"z": -0.2360995398,
				"element": "C" 
			},
			{
				"x": -0.4574607134,
				"y": 0.7493225931,
				"z": 0.185356774,
				"element": "C" 
			},
			{
				"x": -0.9445886803,
				"y": -0.4925518775,
				"z": -0.2673003646,
				"element": "C" 
			},
			{
				"x": -0.1701681912,
				"y": -1.2778419448,
				"z": -1.1148680473,
				"element": "C" 
			},
			{
				"x": -1.2110994107,
				"y": 1.5783525674,
				"z": 1.0451053112,
				"element": "N" 
			},
			{
				"x": -0.6848418113,
				"y": 2.8649953448,
				"z": 1.5172782324,
				"element": "C" 
			},
			{
				"x": -1.7904467157,
				"y": 3.4012037264,
				"z": 2.3876586797,
				"element": "C" 
			},
			{
				"x": -1.8763538545,
				"y": 4.5856737659,
				"z": 3.1128491999,
				"element": "C" 
			},
			{
				"x": -3.0450137107,
				"y": 4.8250313985,
				"z": 3.8437884283,
				"element": "C" 
			},
			{
				"x": -4.1011503444,
				"y": 3.9018858186,
				"z": 3.8485645092,
				"element": "C" 
			},
			{
				"x": -4.0091815954,
				"y": 2.7159348988,
				"z": 3.1195055875,
				"element": "C" 
			},
			{
				"x": -2.8411761144,
				"y": 2.4885377671,
				"z": 2.3958712331,
				"element": "C" 
			},
			{
				"x": -2.494781343,
				"y": 1.321007795,
				"z": 1.5485149708,
				"element": "C" 
			},
			{
				"x": -3.1887756132,
				"y": 0.3381242762,
				"z": 1.3352994975,
				"element": "O" 
			},
			{
				"x": 1.9460472361,
				"y": -2.3637057523,
				"z": -4.5899113052,
				"element": "H" 
			},
			{
				"x": 1.1717448743,
				"y": -0.7896134865,
				"z": -4.3095311062,
				"element": "H" 
			},
			{
				"x": 0.3330683994,
				"y": -2.292283114,
				"z": -3.8704175515,
				"element": "H" 
			},
			{
				"x": 2.9285311073,
				"y": -1.2843421688,
				"z": -2.5637168718,
				"element": "H" 
			},
			{
				"x": 3.1556365791,
				"y": -4.1154916105,
				"z": -0.7442979416,
				"element": "H" 
			},
			{
				"x": 2.5643372353,
				"y": 0.7018969179,
				"z": -1.3896553617,
				"element": "H" 
			},
			{
				"x": 1.2338085893,
				"y": 2.1070047057,
				"z": 0.0910857022,
				"element": "H" 
			},
			{
				"x": -1.9212068685,
				"y": -0.825852299,
				"z": 0.0518031721,
				"element": "H" 
			},
			{
				"x": -0.5623297871,
				"y": -2.2368380592,
				"z": -1.4416094032,
				"element": "H" 
			},
			{
				"x": -0.4662707834,
				"y": 3.5302551324,
				"z": 0.6715528558,
				"element": "H" 
			},
			{
				"x": 0.2490448792,
				"y": 2.7217523624,
				"z": 2.0766424421,
				"element": "H" 
			},
			{
				"x": -1.0653633837,
				"y": 5.3088653872,
				"z": 3.1173512789,
				"element": "H" 
			},
			{
				"x": -3.1362717162,
				"y": 5.7424733842,
				"z": 4.4180938071,
				"element": "H" 
			},
			{
				"x": -4.9957227986,
				"y": 4.1158971004,
				"z": 4.4257308061,
				"element": "H" 
			},
			{
				"x": -4.8106769591,
				"y": 1.9841887366,
				"z": 3.1052659571,
				"element": "H" 
			}
		],
		 "valence_orbital": [ 
			{
				"type": "occ",
				"energy": -0.26606,
				"method": "rhf"
			},
			{
				"type": "occ",
				"energy": -0.26114,
				"method": "rhf"
			},
			{
				"type": "occ",
				"energy": -0.25474,
				"method": "rhf"
			},
			{
				"type": "occ",
				"energy": -0.25063,
				"method": "rhf"
			},
			{
				"type": "occ",
				"energy": -0.21436,
				"method": "rhf"
			},
			{
				"type": "unocc",
				"energy": -0.04727,
				"method": "rhf"
			},
			{
				"type": "unocc",
				"energy": -0.01925,
				"method": "rhf"
			},
			{
				"type": "unocc",
				"energy": -0.00471,
				"method": "rhf"
			},
			{
				"type": "unocc",
				"energy": 0.00109,
				"method": "rhf"
			},
			{
				"type": "unocc",
				"energy": 0.02333,
				"method": "rhf"
			}
		],
		"cosmo_sigma_profile": { 
			"-0.025": 0.0,
			"-0.024": 0.0,
			"-0.023": 0.0,
			"-0.022": 0.0,
			"-0.021": 0.0,
			"-0.02": 0.0,
			"-0.019": 0.0,
			"-0.018": 0.505003794752,
			"-0.017": 1.10399238108,
			"-0.016": 1.07851080137,
			"-0.015": 0.171117630715,
			"-0.014": 1.02686723924,
			"-0.013": 0.720727599712,
			"-0.012": 0.867796146623,
			"-0.011": 0.700810217882,
			"-0.01": 0.912194415678,
			"-0.009": 0.525152516902,
			"-0.008": 1.33064380762,
			"-0.007": 11.2932018703,
			"-0.006": 22.3432517665,
			"-0.005": 22.2719176894,
			"-0.004": 23.7398110692,
			"-0.003": 22.9677768012,
			"-0.002": 21.2903359664,
			"-0.001": 19.7699120519,
			"0.0": 24.0861046726,
			"0.001": 22.5530686888,
			"0.002": 20.4439045246,
			"0.003": 23.6203123136,
			"0.004": 23.6672182552,
			"0.005": 14.2432976637,
			"0.006": 5.5044365533,
			"0.007": 3.80181364384,
			"0.008": 4.64930756906,
			"0.009": 4.98028525152,
			"0.01": 3.30145763885,
			"0.011": 5.57436820292,
			"0.012": 7.13866250255,
			"0.013": 2.83448883044,
			"0.014": 0.294184719691,
			"0.015": 0.0,
			"0.016": 0.0,
			"0.017": 0.0,
			"0.018": 0.0,
			"0.019": 0.0,
			"0.02": 0.0,
			"0.021": 0.0,
			"0.022": 0.0,
			"0.023": 0.0,
			"0.024": 0.0,
			"0.025": 0.0
		}
	}
}
