{
	 "smiles": "CC1=NC(Cl)=CC(N)=N1", 
	 "Tm": 465.15, 
	 "num_atms": 15, 
	 "gaussian": { 
		 "optdone": 1, 
		 "sigma_profile": "yes", 
		 "theory": "DFT", 
		 "functional": "B3LYP", 
		 "basiset": "6-31G**", 
		 "properties": { 
			 "R2extent": 1527.4382, 
			 "electric_dipole_moment_norm": 3.93699608077, 
			 "electric_quadrupole_moment_norm": 8.50827697951, 
			 "total_energy": -818.615412128, 
			 "HOMO_LUMO_gap": 0.21685, 
			 "cosmo_polarized_energy": -11.5, 
			 "cosmo_cavitation_energy": 21.16, 
			 "cosmo_dispersion_energy": -16.16, 
			 "cosmo_repulsion_energy": 1.36, 
			 "cosmo_total_nonelectrostatic_energy": 6.36, 
			 "SMD_solvation_energy": 0.8 
		},
		"coords": [
			{
				"x": -2.2092477367,
				"y": 0.5733389116,
				"z": -1.3859697443,
				"element": "C" 
			},
			{
				"x": -0.9659095905,
				"y": 0.3326679211,
				"z": -0.5740385945,
				"element": "C" 
			},
			{
				"x": -0.1117508439,
				"y": -0.5948469197,
				"z": -1.0475417482,
				"element": "N" 
			},
			{
				"x": 0.9722244261,
				"y": -0.7939637757,
				"z": -0.3159088481,
				"element": "C" 
			},
			{
				"x": 2.1134927778,
				"y": -1.9989342735,
				"z": -0.9089383578,
				"element": "Cl" 
			},
			{
				"x": 1.2666642356,
				"y": -0.1301169714,
				"z": 0.8631141883,
				"element": "C" 
			},
			{
				"x": 0.3063248444,
				"y": 0.8184498903,
				"z": 1.2651227293,
				"element": "C" 
			},
			{
				"x": 0.4343175984,
				"y": 1.5331666174,
				"z": 2.4198927747,
				"element": "N" 
			},
			{
				"x": -0.8071043657,
				"y": 1.0484133299,
				"z": 0.5410749723,
				"element": "N" 
			},
			{
				"x": -1.9432105195,
				"y": 0.8218001582,
				"z": -2.4178438188,
				"element": "H" 
			},
			{
				"x": -2.7986960043,
				"y": 1.3806102351,
				"z": -0.9505609082,
				"element": "H" 
			},
			{
				"x": -2.8135856865,
				"y": -0.3390826526,
				"z": -1.42347902,
				"element": "H" 
			},
			{
				"x": 2.165973892,
				"y": -0.3307867823,
				"z": 1.431542011,
				"element": "H" 
			},
			{
				"x": 1.3271410584,
				"y": 1.5876702912,
				"z": 2.8821148388,
				"element": "H" 
			},
			{
				"x": -0.2082340856,
				"y": 2.3003140202,
				"z": 2.5459195255,
				"element": "H" 
			}
		],
		 "valence_orbital": [ 
			{
				"type": "occ",
				"energy": -0.3126,
				"method": "rhf"
			},
			{
				"type": "occ",
				"energy": -0.30402,
				"method": "rhf"
			},
			{
				"type": "occ",
				"energy": -0.27566,
				"method": "rhf"
			},
			{
				"type": "occ",
				"energy": -0.2583,
				"method": "rhf"
			},
			{
				"type": "occ",
				"energy": -0.24241,
				"method": "rhf"
			},
			{
				"type": "unocc",
				"energy": -0.02556,
				"method": "rhf"
			},
			{
				"type": "unocc",
				"energy": -0.01439,
				"method": "rhf"
			},
			{
				"type": "unocc",
				"energy": 0.03514,
				"method": "rhf"
			},
			{
				"type": "unocc",
				"energy": 0.07066,
				"method": "rhf"
			},
			{
				"type": "unocc",
				"energy": 0.12075,
				"method": "rhf"
			}
		],
		"cosmo_sigma_profile": { 
			"-0.025": 0.0,
			"-0.024": 0.0,
			"-0.023": 0.0,
			"-0.022": 0.0,
			"-0.021": 0.0,
			"-0.02": 0.0,
			"-0.019": 0.0,
			"-0.018": 0.0,
			"-0.017": 0.0,
			"-0.016": 0.0,
			"-0.015": 0.489307565605,
			"-0.014": 2.11070598142,
			"-0.013": 2.97784838479,
			"-0.012": 2.32980115997,
			"-0.011": 2.80587364429,
			"-0.01": 3.158719916,
			"-0.009": 2.11739952446,
			"-0.008": 2.76442026361,
			"-0.007": 3.37837107218,
			"-0.006": 2.92055962356,
			"-0.005": 5.60787734139,
			"-0.004": 6.72041992482,
			"-0.003": 8.03132383271,
			"-0.002": 10.9496059162,
			"-0.001": 17.6383492849,
			"0.0": 18.1822551595,
			"0.001": 15.8246413684,
			"0.002": 9.05781126442,
			"0.003": 9.25555696522,
			"0.004": 13.1357257057,
			"0.005": 7.9901389067,
			"0.006": 5.35173081762,
			"0.007": 3.41211184671,
			"0.008": 3.62599307693,
			"0.009": 2.11747347801,
			"0.01": 2.49714509735,
			"0.011": 1.59207408312,
			"0.012": 1.52211906015,
			"0.013": 2.22821314645,
			"0.014": 0.668691592288,
			"0.015": 0.461149724484,
			"0.016": 0.0,
			"0.017": 0.0,
			"0.018": 0.0,
			"0.019": 0.0,
			"0.02": 0.0,
			"0.021": 0.0,
			"0.022": 0.0,
			"0.023": 0.0,
			"0.024": 0.0,
			"0.025": 0.0
		}
	}
}
