{
	 "smiles": "CC(O)C1=NC(=CS1)C1=CC=CC=C1", 
	 "Tm": 349.15, 
	 "num_atms": 25, 
	 "gaussian": { 
		 "optdone": 1, 
		 "sigma_profile": "yes", 
		 "theory": "DFT", 
		 "functional": "B3LYP", 
		 "basiset": "6-31G**", 
		 "properties": { 
			 "R2extent": 4340.9702, 
			 "electric_dipole_moment_norm": 2.33924108634, 
			 "electric_quadrupole_moment_norm": 8.36066283676, 
			 "total_energy": -953.960005158, 
			 "HOMO_LUMO_gap": 0.17929, 
			 "cosmo_polarized_energy": -8.65, 
			 "cosmo_cavitation_energy": 30.09, 
			 "cosmo_dispersion_energy": -22.69, 
			 "cosmo_repulsion_energy": 1.73, 
			 "cosmo_total_nonelectrostatic_energy": 9.13, 
			 "SMD_solvation_energy": 4.09 
		},
		"coords": [
			{
				"x": -2.9992379479,
				"y": 2.2286470652,
				"z": -1.6291634961,
				"element": "C" 
			},
			{
				"x": -1.5519532616,
				"y": 1.9009750698,
				"z": -1.257785792,
				"element": "C" 
			},
			{
				"x": -1.0796074492,
				"y": 2.8685408103,
				"z": -0.3442416996,
				"element": "O" 
			},
			{
				"x": -1.3893067842,
				"y": 0.5147751028,
				"z": -0.6627259949,
				"element": "C" 
			},
			{
				"x": -0.6715878004,
				"y": 0.3108400078,
				"z": 0.4002939015,
				"element": "N" 
			},
			{
				"x": -0.6187640536,
				"y": -1.0285115111,
				"z": 0.7599896313,
				"element": "C" 
			},
			{
				"x": -1.3203288559,
				"y": -1.8535324753,
				"z": -0.0830248277,
				"element": "C" 
			},
			{
				"x": -2.0797185525,
				"y": -0.9442565114,
				"z": -1.3474987306,
				"element": "S" 
			},
			{
				"x": 0.153458502,
				"y": -1.4320942322,
				"z": 1.9512863287,
				"element": "C" 
			},
			{
				"x": 0.0833161083,
				"y": -2.7383023956,
				"z": 2.4651114164,
				"element": "C" 
			},
			{
				"x": 0.828046036,
				"y": -3.1045738044,
				"z": 3.58323002,
				"element": "C" 
			},
			{
				"x": 1.6551497737,
				"y": -2.172554263,
				"z": 4.2150549785,
				"element": "C" 
			},
			{
				"x": 1.7274682629,
				"y": -0.8706056182,
				"z": 3.7174027659,
				"element": "C" 
			},
			{
				"x": 0.984357867,
				"y": -0.5021594425,
				"z": 2.5972752805,
				"element": "C" 
			},
			{
				"x": -3.0463040028,
				"y": 3.2492347171,
				"z": -2.0175002922,
				"element": "H" 
			},
			{
				"x": -3.6411277242,
				"y": 2.1626605927,
				"z": -0.7464533137,
				"element": "H" 
			},
			{
				"x": -3.3790691253,
				"y": 1.5494304356,
				"z": -2.3996786027,
				"element": "H" 
			},
			{
				"x": -0.9420443547,
				"y": 1.9286709224,
				"z": -2.1790636934,
				"element": "H" 
			},
			{
				"x": -0.5536717875,
				"y": 2.3893068169,
				"z": 0.316899516,
				"element": "H" 
			},
			{
				"x": -1.4301094514,
				"y": -2.926964977,
				"z": -0.0421067426,
				"element": "H" 
			},
			{
				"x": -0.5660894966,
				"y": -3.472550896,
				"z": 1.9978204079,
				"element": "H" 
			},
			{
				"x": 0.7580502362,
				"y": -4.118798728,
				"z": 3.9658854099,
				"element": "H" 
			},
			{
				"x": 2.2339359314,
				"y": -2.4587727536,
				"z": 5.0883380884,
				"element": "H" 
			},
			{
				"x": 2.3655913526,
				"y": -0.1370890722,
				"z": 4.202000472,
				"element": "H" 
			},
			{
				"x": 1.0403465777,
				"y": 0.50828514,
				"z": 2.2091549684,
				"element": "H" 
			}
		],
		 "valence_orbital": [ 
			{
				"type": "occ",
				"energy": -0.29002,
				"method": "rhf"
			},
			{
				"type": "occ",
				"energy": -0.28154,
				"method": "rhf"
			},
			{
				"type": "occ",
				"energy": -0.26479,
				"method": "rhf"
			},
			{
				"type": "occ",
				"energy": -0.25308,
				"method": "rhf"
			},
			{
				"type": "occ",
				"energy": -0.22204,
				"method": "rhf"
			},
			{
				"type": "unocc",
				"energy": -0.04275,
				"method": "rhf"
			},
			{
				"type": "unocc",
				"energy": -0.01372,
				"method": "rhf"
			},
			{
				"type": "unocc",
				"energy": -0.00066,
				"method": "rhf"
			},
			{
				"type": "unocc",
				"energy": 0.01118,
				"method": "rhf"
			},
			{
				"type": "unocc",
				"energy": 0.0702,
				"method": "rhf"
			}
		],
		"cosmo_sigma_profile": { 
			"-0.025": 0.0,
			"-0.024": 0.0,
			"-0.023": 0.0,
			"-0.022": 0.0,
			"-0.021": 0.0,
			"-0.02": 0.0,
			"-0.019": 0.0,
			"-0.018": 0.0,
			"-0.017": 0.0,
			"-0.016": 0.0,
			"-0.015": 0.0,
			"-0.014": 0.0,
			"-0.013": 0.0,
			"-0.012": 0.0,
			"-0.011": 0.0,
			"-0.01": 0.706992121123,
			"-0.009": 2.71499665969,
			"-0.008": 3.08109381818,
			"-0.007": 3.92347769915,
			"-0.006": 8.86535170261,
			"-0.005": 17.6523203435,
			"-0.004": 19.6145265788,
			"-0.003": 19.7210040391,
			"-0.002": 19.1123903777,
			"-0.001": 17.5569909507,
			"0.0": 20.983203912,
			"0.001": 19.193896526,
			"0.002": 22.0679147786,
			"0.003": 21.355283538,
			"0.004": 13.7732593869,
			"0.005": 13.3840727154,
			"0.006": 6.9916779889,
			"0.007": 1.38684962453,
			"0.008": 0.926918061461,
			"0.009": 1.12547144862,
			"0.01": 1.56567375783,
			"0.011": 1.33928150218,
			"0.012": 1.27384099059,
			"0.013": 2.06821681672,
			"0.014": 1.6704698511,
			"0.015": 0.122270410482,
			"0.016": 0.0,
			"0.017": 0.0,
			"0.018": 0.0,
			"0.019": 0.0,
			"0.02": 0.0,
			"0.021": 0.0,
			"0.022": 0.0,
			"0.023": 0.0,
			"0.024": 0.0,
			"0.025": 0.0
		}
	}
}
