{
	 "smiles": "CC1=C(Cl)C(Cl)=C(N)C=C1", 
	 "Tm": 319.15, 
	 "num_atms": 17, 
	 "gaussian": { 
		 "optdone": 1, 
		 "sigma_profile": "yes", 
		 "theory": "DFT", 
		 "functional": "B3LYP", 
		 "basiset": "6-31G**", 
		 "properties": { 
			 "R2extent": 4106.3514, 
			 "electric_dipole_moment_norm": 3.15099156616, 
			 "electric_quadrupole_moment_norm": 12.4153258322, 
			 "total_energy": -1246.10836564, 
			 "HOMO_LUMO_gap": 0.19553, 
			 "cosmo_polarized_energy": -7.75, 
			 "cosmo_cavitation_energy": 23.64, 
			 "cosmo_dispersion_energy": -18.03, 
			 "cosmo_repulsion_energy": 1.45, 
			 "cosmo_total_nonelectrostatic_energy": 7.06, 
			 "SMD_solvation_energy": 3.52 
		},
		"coords": [
			{
				"x": 1.9995453184,
				"y": -1.1619261969,
				"z": -1.1321908256,
				"element": "C" 
			},
			{
				"x": 1.0888072333,
				"y": 0.0358695285,
				"z": -1.228963205,
				"element": "C" 
			},
			{
				"x": 1.4962885433,
				"y": 1.2387164927,
				"z": -1.8262185346,
				"element": "C" 
			},
			{
				"x": 3.1175724748,
				"y": 1.3454237276,
				"z": -2.4857708392,
				"element": "Cl" 
			},
			{
				"x": 0.6419689004,
				"y": 2.3460762142,
				"z": -1.9097704853,
				"element": "C" 
			},
			{
				"x": 1.1664018983,
				"y": 3.8378845301,
				"z": -2.6710233817,
				"element": "Cl" 
			},
			{
				"x": -0.667560021,
				"y": 2.2900223853,
				"z": -1.3892797454,
				"element": "C" 
			},
			{
				"x": -1.5061837406,
				"y": 3.3936437502,
				"z": -1.4104954221,
				"element": "N" 
			},
			{
				"x": -1.0747628602,
				"y": 1.0844436695,
				"z": -0.7953080745,
				"element": "C" 
			},
			{
				"x": -0.2157294342,
				"y": -0.0032295506,
				"z": -0.7217769279,
				"element": "C" 
			},
			{
				"x": 1.4871257365,
				"y": -1.9893073373,
				"z": -0.6345137837,
				"element": "H" 
			},
			{
				"x": 2.321806531,
				"y": -1.5064538933,
				"z": -2.1208128055,
				"element": "H" 
			},
			{
				"x": 2.908272756,
				"y": -0.9339171448,
				"z": -0.5645945517,
				"element": "H" 
			},
			{
				"x": -1.2849864631,
				"y": 4.104513314,
				"z": -2.0930296599,
				"element": "H" 
			},
			{
				"x": -2.4924998465,
				"y": 3.1888287216,
				"z": -1.3454801793,
				"element": "H" 
			},
			{
				"x": -2.0776066913,
				"y": 1.0153583266,
				"z": -0.3828422962,
				"element": "H" 
			},
			{
				"x": -0.564560335,
				"y": -0.9199465374,
				"z": -0.2546292822,
				"element": "H" 
			}
		],
		 "valence_orbital": [ 
			{
				"type": "occ",
				"energy": -0.32579,
				"method": "rhf"
			},
			{
				"type": "occ",
				"energy": -0.30302,
				"method": "rhf"
			},
			{
				"type": "occ",
				"energy": -0.30193,
				"method": "rhf"
			},
			{
				"type": "occ",
				"energy": -0.24285,
				"method": "rhf"
			},
			{
				"type": "occ",
				"energy": -0.20967,
				"method": "rhf"
			},
			{
				"type": "unocc",
				"energy": -0.01414,
				"method": "rhf"
			},
			{
				"type": "unocc",
				"energy": 0.0044,
				"method": "rhf"
			},
			{
				"type": "unocc",
				"energy": 0.00793,
				"method": "rhf"
			},
			{
				"type": "unocc",
				"energy": 0.0683,
				"method": "rhf"
			},
			{
				"type": "unocc",
				"energy": 0.0814,
				"method": "rhf"
			}
		],
		"cosmo_sigma_profile": { 
			"-0.025": 0.0,
			"-0.024": 0.0,
			"-0.023": 0.0,
			"-0.022": 0.0,
			"-0.021": 0.0,
			"-0.02": 0.0,
			"-0.019": 0.0,
			"-0.018": 0.0,
			"-0.017": 0.0,
			"-0.016": 0.0,
			"-0.015": 0.0,
			"-0.014": 0.245280380377,
			"-0.013": 1.24905114271,
			"-0.012": 1.64360193359,
			"-0.011": 2.3039263788,
			"-0.01": 2.88255353612,
			"-0.009": 2.42265898999,
			"-0.008": 2.638495687,
			"-0.007": 2.81509689315,
			"-0.006": 6.35169821828,
			"-0.005": 7.32062697562,
			"-0.004": 9.74804275288,
			"-0.003": 9.35335489141,
			"-0.002": 11.8862196951,
			"-0.001": 15.110317178,
			"0.0": 17.0089455139,
			"0.001": 16.3052208464,
			"0.002": 19.3014225506,
			"0.003": 20.9765602726,
			"0.004": 21.050938962,
			"0.005": 13.5372441549,
			"0.006": 3.48723962078,
			"0.007": 0.792126594101,
			"0.008": 0.665036033569,
			"0.009": 0.676575100908,
			"0.01": 0.839108255134,
			"0.011": 0.605989500818,
			"0.012": 0.505946046566,
			"0.013": 0.441981336711,
			"0.014": 0.00298647698031,
			"0.015": 0.0,
			"0.016": 0.0,
			"0.017": 0.0,
			"0.018": 0.0,
			"0.019": 0.0,
			"0.02": 0.0,
			"0.021": 0.0,
			"0.022": 0.0,
			"0.023": 0.0,
			"0.024": 0.0,
			"0.025": 0.0
		}
	}
}
