{
	 "smiles": "C1CCCCCCCCCCCC1", 
	 "Tm": 296.15, 
	 "num_atms": 39, 
	 "gaussian": { 
		 "optdone": 1, 
		 "sigma_profile": "yes", 
		 "theory": "DFT", 
		 "functional": "B3LYP", 
		 "basiset": "6-31G**", 
		 "properties": { 
			 "R2extent": 3081.9534, 
			 "electric_dipole_moment_norm": 0.0669995522373, 
			 "electric_quadrupole_moment_norm": 0.265296155268, 
			 "total_energy": -511.079599011, 
			 "HOMO_LUMO_gap": 0.36797, 
			 "cosmo_polarized_energy": -0.82, 
			 "cosmo_cavitation_energy": 33.44, 
			 "cosmo_dispersion_energy": -24.34, 
			 "cosmo_repulsion_energy": 1.91, 
			 "cosmo_total_nonelectrostatic_energy": 11.01, 
			 "SMD_solvation_energy": 3.76 
		},
		"coords": [
			{
				"x": -0.1687853993,
				"y": -0.2268952727,
				"z": -3.2985753897,
				"element": "C" 
			},
			{
				"x": -1.3841974312,
				"y": -0.0465569731,
				"z": -2.352808342,
				"element": "C" 
			},
			{
				"x": -1.8635795245,
				"y": -1.3427951304,
				"z": -1.6654568579,
				"element": "C" 
			},
			{
				"x": -2.7249945224,
				"y": -1.1679084983,
				"z": -0.3951914458,
				"element": "C" 
			},
			{
				"x": -1.9355934512,
				"y": -0.8339782811,
				"z": 0.8959026186,
				"element": "C" 
			},
			{
				"x": -1.7708560383,
				"y": 0.6635896149,
				"z": 1.2217281268,
				"element": "C" 
			},
			{
				"x": -0.6748194426,
				"y": 0.9746124901,
				"z": 2.2619580221,
				"element": "C" 
			},
			{
				"x": 0.7755146649,
				"y": 0.7407623429,
				"z": 1.787594377,
				"element": "C" 
			},
			{
				"x": 1.2043100012,
				"y": 1.6624327084,
				"z": 0.6345175107,
				"element": "C" 
			},
			{
				"x": 2.5696610767,
				"y": 1.3578616249,
				"z": -0.0104387887,
				"element": "C" 
			},
			{
				"x": 2.7468540066,
				"y": -0.0606860027,
				"z": -0.599573532,
				"element": "C" 
			},
			{
				"x": 1.5640683182,
				"y": -0.605169326,
				"z": -1.4202896863,
				"element": "C" 
			},
			{
				"x": 1.1760881714,
				"y": 0.1971301686,
				"z": -2.6715066492,
				"element": "C" 
			},
			{
				"x": -0.1106618527,
				"y": -1.2730766298,
				"z": -3.6304007672,
				"element": "H" 
			},
			{
				"x": -0.319790011,
				"y": 0.3664518938,
				"z": -4.2084559158,
				"element": "H" 
			},
			{
				"x": -1.1267313486,
				"y": 0.7064567311,
				"z": -1.6006591454,
				"element": "H" 
			},
			{
				"x": -2.2297879573,
				"y": 0.3778587923,
				"z": -2.9084479806,
				"element": "H" 
			},
			{
				"x": -2.4315971491,
				"y": -1.9255627164,
				"z": -2.403080546,
				"element": "H" 
			},
			{
				"x": -0.9990994999,
				"y": -1.9673109808,
				"z": -1.4069762111,
				"element": "H" 
			},
			{
				"x": -3.5023373716,
				"y": -0.4098267654,
				"z": -0.5672137084,
				"element": "H" 
			},
			{
				"x": -3.262560746,
				"y": -2.1100099174,
				"z": -0.231475836,
				"element": "H" 
			},
			{
				"x": -2.4317078053,
				"y": -1.3087986187,
				"z": 1.7526143843,
				"element": "H" 
			},
			{
				"x": -0.9515636559,
				"y": -1.3151685083,
				"z": 0.8300853403,
				"element": "H" 
			},
			{
				"x": -1.5736690637,
				"y": 1.231574398,
				"z": 0.3071783157,
				"element": "H" 
			},
			{
				"x": -2.730171195,
				"y": 1.045345095,
				"z": 1.5955209536,
				"element": "H" 
			},
			{
				"x": -0.7766962589,
				"y": 2.0224538648,
				"z": 2.5760265185,
				"element": "H" 
			},
			{
				"x": -0.8556881045,
				"y": 0.3710397885,
				"z": 3.1620511508,
				"element": "H" 
			},
			{
				"x": 1.4536060701,
				"y": 0.8900961507,
				"z": 2.6386857805,
				"element": "H" 
			},
			{
				"x": 0.898396456,
				"y": -0.3088144571,
				"z": 1.4952440772,
				"element": "H" 
			},
			{
				"x": 0.441057472,
				"y": 1.6392724109,
				"z": -0.1505624587,
				"element": "H" 
			},
			{
				"x": 1.2158080024,
				"y": 2.6989896557,
				"z": 0.9986986799,
				"element": "H" 
			},
			{
				"x": 2.7361198589,
				"y": 2.1012470563,
				"z": -0.8006361243,
				"element": "H" 
			},
			{
				"x": 3.36921845,
				"y": 1.5244761228,
				"z": 0.7240377501,
				"element": "H" 
			},
			{
				"x": 3.6587276984,
				"y": -0.0672566336,
				"z": -1.2119843585,
				"element": "H" 
			},
			{
				"x": 2.9359560415,
				"y": -0.7676081194,
				"z": 0.2185440998,
				"element": "H" 
			},
			{
				"x": 0.6958142389,
				"y": -0.6735036849,
				"z": -0.7589857991,
				"element": "H" 
			},
			{
				"x": 1.7896778122,
				"y": -1.6384853679,
				"z": -1.7179080473,
				"element": "H" 
			},
			{
				"x": 1.9736610774,
				"y": 0.1121299851,
				"z": -3.4222179031,
				"element": "H" 
			},
			{
				"x": 1.1116484123,
				"y": 1.2646309893,
				"z": -2.4219422129,
				"element": "H" 
			}
		],
		 "valence_orbital": [ 
			{
				"type": "occ",
				"energy": -0.30394,
				"method": "rhf"
			},
			{
				"type": "occ",
				"energy": -0.29841,
				"method": "rhf"
			},
			{
				"type": "occ",
				"energy": -0.2956,
				"method": "rhf"
			},
			{
				"type": "occ",
				"energy": -0.29044,
				"method": "rhf"
			},
			{
				"type": "occ",
				"energy": -0.28998,
				"method": "rhf"
			},
			{
				"type": "unocc",
				"energy": 0.07799,
				"method": "rhf"
			},
			{
				"type": "unocc",
				"energy": 0.08944,
				"method": "rhf"
			},
			{
				"type": "unocc",
				"energy": 0.09545,
				"method": "rhf"
			},
			{
				"type": "unocc",
				"energy": 0.10364,
				"method": "rhf"
			},
			{
				"type": "unocc",
				"energy": 0.11094,
				"method": "rhf"
			}
		],
		"cosmo_sigma_profile": { 
			"-0.025": 0.0,
			"-0.024": 0.0,
			"-0.023": 0.0,
			"-0.022": 0.0,
			"-0.021": 0.0,
			"-0.02": 0.0,
			"-0.019": 0.0,
			"-0.018": 0.0,
			"-0.017": 0.0,
			"-0.016": 0.0,
			"-0.015": 0.0,
			"-0.014": 0.0,
			"-0.013": 0.0,
			"-0.012": 0.0,
			"-0.011": 0.0,
			"-0.01": 0.0,
			"-0.009": 0.0,
			"-0.008": 0.0,
			"-0.007": 0.0,
			"-0.006": 0.0,
			"-0.005": 0.0136493566158,
			"-0.004": 0.927525434165,
			"-0.003": 4.5445736348,
			"-0.002": 25.185979797,
			"-0.001": 56.127419906,
			"0.0": 71.6190909618,
			"0.001": 66.9252176283,
			"0.002": 29.4000358033,
			"0.003": 0.133312268071,
			"0.004": 0.0,
			"0.005": 0.0,
			"0.006": 0.0,
			"0.007": 0.0,
			"0.008": 0.0,
			"0.009": 0.0,
			"0.01": 0.0,
			"0.011": 0.0,
			"0.012": 0.0,
			"0.013": 0.0,
			"0.014": 0.0,
			"0.015": 0.0,
			"0.016": 0.0,
			"0.017": 0.0,
			"0.018": 0.0,
			"0.019": 0.0,
			"0.02": 0.0,
			"0.021": 0.0,
			"0.022": 0.0,
			"0.023": 0.0,
			"0.024": 0.0,
			"0.025": 0.0
		}
	}
}
