{
	 "smiles": "ClC1=CC=C(NC(=O)C2=C(Cl)N=CC=C2)C=C1", 
	 "Tm": 421.15, 
	 "num_atms": 25, 
	 "gaussian": { 
		 "optdone": 1, 
		 "sigma_profile": "yes", 
		 "theory": "DFT", 
		 "functional": "B3LYP", 
		 "basiset": "6-31G**", 
		 "properties": { 
			 "R2extent": 5707.1564, 
			 "electric_dipole_moment_norm": 4.1957071609, 
			 "electric_quadrupole_moment_norm": 22.9210797172, 
			 "total_energy": -1567.21136505, 
			 "HOMO_LUMO_gap": 0.18778, 
			 "cosmo_polarized_energy": -16.41, 
			 "cosmo_cavitation_energy": 34.07, 
			 "cosmo_dispersion_energy": -23.82, 
			 "cosmo_repulsion_energy": 1.88, 
			 "cosmo_total_nonelectrostatic_energy": 12.12, 
			 "SMD_solvation_energy": 4.4 
		},
		"coords": [
			{
				"x": 0.1919501927,
				"y": 0.5572713103,
				"z": -5.3503771708,
				"element": "Cl" 
			},
			{
				"x": -0.2534464237,
				"y": 0.3502420455,
				"z": -3.6645047333,
				"element": "C" 
			},
			{
				"x": 0.4686864938,
				"y": 1.0148822037,
				"z": -2.6739497335,
				"element": "C" 
			},
			{
				"x": 0.1072555223,
				"y": 0.8603134069,
				"z": -1.3369006358,
				"element": "C" 
			},
			{
				"x": -0.9537319033,
				"y": 0.0155369545,
				"z": -0.9846277611,
				"element": "C" 
			},
			{
				"x": -1.3575935612,
				"y": -0.1592092474,
				"z": 0.3626749187,
				"element": "N" 
			},
			{
				"x": -0.6037065572,
				"y": -0.2666856815,
				"z": 1.5134636443,
				"element": "C" 
			},
			{
				"x": -1.1258694045,
				"y": -0.2168820558,
				"z": 2.6151760185,
				"element": "O" 
			},
			{
				"x": 0.8661726949,
				"y": -0.5677639981,
				"z": 1.3587941646,
				"element": "C" 
			},
			{
				"x": 1.8799949337,
				"y": 0.2619078602,
				"z": 1.8669932012,
				"element": "C" 
			},
			{
				"x": 1.4619974387,
				"y": 1.8496688209,
				"z": 2.5016669706,
				"element": "Cl" 
			},
			{
				"x": 3.1649128704,
				"y": -0.0382136585,
				"z": 1.8663336391,
				"element": "N" 
			},
			{
				"x": 3.5325639821,
				"y": -1.2210158188,
				"z": 1.3542637389,
				"element": "C" 
			},
			{
				"x": 2.6272694663,
				"y": -2.1270757967,
				"z": 0.8083379594,
				"element": "C" 
			},
			{
				"x": 1.2757392224,
				"y": -1.786993667,
				"z": 0.8111171652,
				"element": "C" 
			},
			{
				"x": -1.6708037589,
				"y": -0.6420820784,
				"z": -1.9933817843,
				"element": "C" 
			},
			{
				"x": -1.3314468507,
				"y": -0.4704527254,
				"z": -3.3333113406,
				"element": "C" 
			},
			{
				"x": 1.2918300997,
				"y": 1.6662755474,
				"z": -2.9454170527,
				"element": "H" 
			},
			{
				"x": 0.6385798557,
				"y": 1.4139794425,
				"z": -0.5712270283,
				"element": "H" 
			},
			{
				"x": -2.3508330918,
				"y": -0.1160025981,
				"z": 0.5600215433,
				"element": "H" 
			},
			{
				"x": 4.5974141036,
				"y": -1.4400764101,
				"z": 1.3826131797,
				"element": "H" 
			},
			{
				"x": 2.9687895061,
				"y": -3.0699742932,
				"z": 0.3951808562,
				"element": "H" 
			},
			{
				"x": 0.5331883837,
				"y": -2.463144348,
				"z": 0.3981700846,
				"element": "H" 
			},
			{
				"x": -2.495106075,
				"y": -1.2967034871,
				"z": -1.7251164661,
				"element": "H" 
			},
			{
				"x": -1.8897071397,
				"y": -0.9778017278,
				"z": -4.1120933777,
				"element": "H" 
			}
		],
		 "valence_orbital": [ 
			{
				"type": "occ",
				"energy": -0.28683,
				"method": "rhf"
			},
			{
				"type": "occ",
				"energy": -0.28013,
				"method": "rhf"
			},
			{
				"type": "occ",
				"energy": -0.27341,
				"method": "rhf"
			},
			{
				"type": "occ",
				"energy": -0.26104,
				"method": "rhf"
			},
			{
				"type": "occ",
				"energy": -0.24021,
				"method": "rhf"
			},
			{
				"type": "unocc",
				"energy": -0.05243,
				"method": "rhf"
			},
			{
				"type": "unocc",
				"energy": -0.04406,
				"method": "rhf"
			},
			{
				"type": "unocc",
				"energy": -0.03066,
				"method": "rhf"
			},
			{
				"type": "unocc",
				"energy": -0.02493,
				"method": "rhf"
			},
			{
				"type": "unocc",
				"energy": 0.01319,
				"method": "rhf"
			}
		],
		"cosmo_sigma_profile": { 
			"-0.025": 0.0,
			"-0.024": 0.0,
			"-0.023": 0.0,
			"-0.022": 0.0,
			"-0.021": 0.0,
			"-0.02": 0.0,
			"-0.019": 0.0,
			"-0.018": 0.0,
			"-0.017": 0.0,
			"-0.016": 0.129375608786,
			"-0.015": 0.914710699503,
			"-0.014": 1.13273655951,
			"-0.013": 0.559696051583,
			"-0.012": 1.01702977934,
			"-0.011": 1.14273380709,
			"-0.01": 1.84173603951,
			"-0.009": 1.95538854227,
			"-0.008": 8.49931202493,
			"-0.007": 14.8316108367,
			"-0.006": 15.7487540776,
			"-0.005": 12.7965098505,
			"-0.004": 12.4088751391,
			"-0.003": 13.5124258778,
			"-0.002": 15.5808212989,
			"-0.001": 20.8488556552,
			"0.0": 23.1518245654,
			"0.001": 25.7664902635,
			"0.002": 24.2979920106,
			"0.003": 23.215115637,
			"0.004": 17.8536174536,
			"0.005": 10.9256933423,
			"0.006": 3.79662242229,
			"0.007": 3.20659565683,
			"0.008": 3.41892456579,
			"0.009": 2.83539714855,
			"0.01": 3.58549496044,
			"0.011": 3.20123294186,
			"0.012": 6.12689839405,
			"0.013": 3.68159011068,
			"0.014": 0.73082171285,
			"0.015": 0.0,
			"0.016": 0.0,
			"0.017": 0.0,
			"0.018": 0.0,
			"0.019": 0.0,
			"0.02": 0.0,
			"0.021": 0.0,
			"0.022": 0.0,
			"0.023": 0.0,
			"0.024": 0.0,
			"0.025": 0.0
		}
	}
}
