{
	 "smiles": "COC1=CC(=CC(OC)=C1OC)N=C=S", 
	 "Tm": 338.15, 
	 "num_atms": 26, 
	 "gaussian": { 
		 "optdone": 1, 
		 "sigma_profile": "yes", 
		 "theory": "DFT", 
		 "functional": "B3LYP", 
		 "basiset": "6-31G**", 
		 "properties": { 
			 "R2extent": 5828.16, 
			 "electric_dipole_moment_norm": 5.28289030551, 
			 "electric_quadrupole_moment_norm": 20.1416611207, 
			 "total_energy": -1066.24512051, 
			 "HOMO_LUMO_gap": 0.17886, 
			 "cosmo_polarized_energy": -8.1, 
			 "cosmo_cavitation_energy": 33.34, 
			 "cosmo_dispersion_energy": -23.64, 
			 "cosmo_repulsion_energy": 1.86, 
			 "cosmo_total_nonelectrostatic_energy": 11.56, 
			 "SMD_solvation_energy": 8.72 
		},
		"coords": [
			{
				"x": -2.9345607612,
				"y": -0.7782288908,
				"z": 1.9634367995,
				"element": "C" 
			},
			{
				"x": -1.5168542044,
				"y": -0.8762818738,
				"z": 2.1523043977,
				"element": "O" 
			},
			{
				"x": -0.7734702394,
				"y": -1.1188883479,
				"z": 1.0277906329,
				"element": "C" 
			},
			{
				"x": -0.040710994,
				"y": -2.3041916624,
				"z": 0.9669835941,
				"element": "C" 
			},
			{
				"x": 0.8010247304,
				"y": -2.5441489878,
				"z": -0.1286354572,
				"element": "C" 
			},
			{
				"x": 0.8900685185,
				"y": -1.6168033362,
				"z": -1.1775308686,
				"element": "C" 
			},
			{
				"x": 0.1512190173,
				"y": -0.436965984,
				"z": -1.1136942259,
				"element": "C" 
			},
			{
				"x": 0.3111339851,
				"y": 0.488567979,
				"z": -2.1142152309,
				"element": "O" 
			},
			{
				"x": -0.8439312008,
				"y": 0.7226208384,
				"z": -2.9316932293,
				"element": "C" 
			},
			{
				"x": -0.6793937565,
				"y": -0.1716459332,
				"z": -0.0088284252,
				"element": "C" 
			},
			{
				"x": -1.3946781079,
				"y": 1.0013488608,
				"z": 0.0633499925,
				"element": "O" 
			},
			{
				"x": -0.6288819915,
				"y": 2.1198637458,
				"z": 0.538794551,
				"element": "C" 
			},
			{
				"x": 1.532524374,
				"y": -3.7047981766,
				"z": -0.1830662298,
				"element": "N" 
			},
			{
				"x": 2.160616858,
				"y": -4.7095644555,
				"z": -0.2383374745,
				"element": "C" 
			},
			{
				"x": 3.0053149978,
				"y": -6.0605365171,
				"z": -0.3113008017,
				"element": "S" 
			},
			{
				"x": -3.1919249016,
				"y": 0.0501527843,
				"z": 1.2985475928,
				"element": "H" 
			},
			{
				"x": -3.3573311398,
				"y": -0.6031749356,
				"z": 2.954455692,
				"element": "H" 
			},
			{
				"x": -3.336602961,
				"y": -1.7162236215,
				"z": 1.5604004414,
				"element": "H" 
			},
			{
				"x": -0.1154177483,
				"y": -3.0175115697,
				"z": 1.7788919483,
				"element": "H" 
			},
			{
				"x": 1.534423119,
				"y": -1.7977233585,
				"z": -2.0294155488,
				"element": "H" 
			},
			{
				"x": -1.6816611182,
				"y": 1.0993505338,
				"z": -2.3385034921,
				"element": "H" 
			},
			{
				"x": -0.5450988995,
				"y": 1.470832769,
				"z": -3.6681032587,
				"element": "H" 
			},
			{
				"x": -1.1420029854,
				"y": -0.1966475918,
				"z": -3.450853075,
				"element": "H" 
			},
			{
				"x": -0.2645593636,
				"y": 1.9339138147,
				"z": 1.555202799,
				"element": "H" 
			},
			{
				"x": -1.3076470692,
				"y": 2.9748756935,
				"z": 0.5449961945,
				"element": "H" 
			},
			{
				"x": 0.2150018419,
				"y": 2.3237082232,
				"z": -0.1282773181,
				"element": "H" 
			}
		],
		 "valence_orbital": [ 
			{
				"type": "occ",
				"energy": -0.27479,
				"method": "rhf"
			},
			{
				"type": "occ",
				"energy": -0.26948,
				"method": "rhf"
			},
			{
				"type": "occ",
				"energy": -0.24981,
				"method": "rhf"
			},
			{
				"type": "occ",
				"energy": -0.24509,
				"method": "rhf"
			},
			{
				"type": "occ",
				"energy": -0.22323,
				"method": "rhf"
			},
			{
				"type": "unocc",
				"energy": -0.04437,
				"method": "rhf"
			},
			{
				"type": "unocc",
				"energy": -0.01186,
				"method": "rhf"
			},
			{
				"type": "unocc",
				"energy": 0.00808,
				"method": "rhf"
			},
			{
				"type": "unocc",
				"energy": 0.04732,
				"method": "rhf"
			},
			{
				"type": "unocc",
				"energy": 0.06229,
				"method": "rhf"
			}
		],
		"cosmo_sigma_profile": { 
			"-0.025": 0.0,
			"-0.024": 0.0,
			"-0.023": 0.0,
			"-0.022": 0.0,
			"-0.021": 0.0,
			"-0.02": 0.0,
			"-0.019": 0.0,
			"-0.018": 0.0,
			"-0.017": 0.0,
			"-0.016": 0.0,
			"-0.015": 0.0,
			"-0.014": 0.0,
			"-0.013": 0.0,
			"-0.012": 0.0,
			"-0.011": 0.0,
			"-0.01": 0.0,
			"-0.009": 0.0,
			"-0.008": 1.36108119792,
			"-0.007": 3.47717254653,
			"-0.006": 6.93071981152,
			"-0.005": 15.6673726373,
			"-0.004": 21.5205199173,
			"-0.003": 33.4171953331,
			"-0.002": 27.9884761634,
			"-0.001": 27.1380994759,
			"0.0": 23.5509734844,
			"0.001": 22.1128827708,
			"0.002": 20.8904835694,
			"0.003": 12.507826853,
			"0.004": 10.4980441351,
			"0.005": 11.922666548,
			"0.006": 16.8365554838,
			"0.007": 4.91569758656,
			"0.008": 1.87472232322,
			"0.009": 2.15786403588,
			"0.01": 2.60625342766,
			"0.011": 1.98780690377,
			"0.012": 0.363088535471,
			"0.013": 0.0,
			"0.014": 0.0,
			"0.015": 0.0,
			"0.016": 0.0,
			"0.017": 0.0,
			"0.018": 0.0,
			"0.019": 0.0,
			"0.02": 0.0,
			"0.021": 0.0,
			"0.022": 0.0,
			"0.023": 0.0,
			"0.024": 0.0,
			"0.025": 0.0
		}
	}
}
