{
	 "smiles": "[O-][N+](=O)C1=CC(Cl)=C(C=C1)C#N", 
	 "Tm": 356.65, 
	 "num_atms": 15, 
	 "gaussian": { 
		 "optdone": 1, 
		 "sigma_profile": "yes", 
		 "theory": "DFT", 
		 "functional": "B3LYP", 
		 "basiset": "6-31G**", 
		 "properties": { 
			 "R2extent": 3041.1581, 
			 "electric_dipole_moment_norm": 1.07558071292, 
			 "electric_quadrupole_moment_norm": 22.3678814875, 
			 "total_energy": -988.568078273, 
			 "HOMO_LUMO_gap": 0.1686, 
			 "cosmo_polarized_energy": -11.31, 
			 "cosmo_cavitation_energy": 23.78, 
			 "cosmo_dispersion_energy": -16.97, 
			 "cosmo_repulsion_energy": 1.35, 
			 "cosmo_total_nonelectrostatic_energy": 8.16, 
			 "SMD_solvation_energy": 7.48 
		},
		"coords": [
			{
				"x": -2.4684952158,
				"y": -0.9993271936,
				"z": 0.4059125192,
				"element": "O" 
			},
			{
				"x": -1.4420457521,
				"y": -0.9788162554,
				"z": 1.0801515573,
				"element": "N" 
			},
			{
				"x": -1.3937821305,
				"y": -1.0586702835,
				"z": 2.3049431401,
				"element": "O" 
			},
			{
				"x": -0.1579841409,
				"y": -0.8475423657,
				"z": 0.3605305016,
				"element": "C" 
			},
			{
				"x": -0.1862088293,
				"y": -0.7554746386,
				"z": -1.0272120413,
				"element": "C" 
			},
			{
				"x": 1.0212180863,
				"y": -0.6317068388,
				"z": -1.7077845979,
				"element": "C" 
			},
			{
				"x": 1.0083258857,
				"y": -0.5151096129,
				"z": -3.4433753246,
				"element": "Cl" 
			},
			{
				"x": 2.2405136511,
				"y": -0.6011590636,
				"z": -0.9992236219,
				"element": "C" 
			},
			{
				"x": 2.2245833708,
				"y": -0.6971537224,
				"z": 0.4044400183,
				"element": "C" 
			},
			{
				"x": 1.0254118596,
				"y": -0.8210059916,
				"z": 1.0941159312,
				"element": "C" 
			},
			{
				"x": 3.4955990493,
				"y": -0.4745354831,
				"z": -1.6769044497,
				"element": "C" 
			},
			{
				"x": 4.5332880626,
				"y": -0.3729777327,
				"z": -2.1910783745,
				"element": "N" 
			},
			{
				"x": -1.1313740833,
				"y": -0.7807153311,
				"z": -1.5533198431,
				"element": "H" 
			},
			{
				"x": 3.1662696287,
				"y": -0.6728620829,
				"z": 0.9411690204,
				"element": "H" 
			},
			{
				"x": 0.990580558,
				"y": -0.8962434043,
				"z": 2.1731355648,
				"element": "H" 
			}
		],
		 "valence_orbital": [ 
			{
				"type": "occ",
				"energy": -0.33407,
				"method": "rhf"
			},
			{
				"type": "occ",
				"energy": -0.3307,
				"method": "rhf"
			},
			{
				"type": "occ",
				"energy": -0.31635,
				"method": "rhf"
			},
			{
				"type": "occ",
				"energy": -0.30789,
				"method": "rhf"
			},
			{
				"type": "occ",
				"energy": -0.29233,
				"method": "rhf"
			},
			{
				"type": "unocc",
				"energy": -0.12373,
				"method": "rhf"
			},
			{
				"type": "unocc",
				"energy": -0.06249,
				"method": "rhf"
			},
			{
				"type": "unocc",
				"energy": -0.05379,
				"method": "rhf"
			},
			{
				"type": "unocc",
				"energy": -0.00669,
				"method": "rhf"
			},
			{
				"type": "unocc",
				"energy": 0.01027,
				"method": "rhf"
			}
		],
		"cosmo_sigma_profile": { 
			"-0.025": 0.0,
			"-0.024": 0.0,
			"-0.023": 0.0,
			"-0.022": 0.0,
			"-0.021": 0.0,
			"-0.02": 0.0,
			"-0.019": 0.0,
			"-0.018": 0.0,
			"-0.017": 0.0,
			"-0.016": 0.0,
			"-0.015": 0.0,
			"-0.014": 0.0,
			"-0.013": 0.0,
			"-0.012": 0.0,
			"-0.011": 0.0428591801398,
			"-0.01": 2.45784905893,
			"-0.009": 5.7784869598,
			"-0.008": 6.5659585985,
			"-0.007": 6.11665687791,
			"-0.006": 6.69486266161,
			"-0.005": 9.14946856635,
			"-0.004": 16.0333443538,
			"-0.003": 21.5269598628,
			"-0.002": 18.3328108448,
			"-0.001": 11.1606709713,
			"0.0": 8.14975336554,
			"0.001": 9.42718781013,
			"0.002": 12.3795336473,
			"0.003": 9.35103006258,
			"0.004": 6.28895959079,
			"0.005": 6.02191241739,
			"0.006": 9.7219544294,
			"0.007": 11.1561961348,
			"0.008": 7.66646307066,
			"0.009": 5.54340095002,
			"0.01": 2.86653755497,
			"0.011": 2.24615658741,
			"0.012": 1.16761534456,
			"0.013": 0.00398422243726,
			"0.014": 0.0,
			"0.015": 0.0,
			"0.016": 0.0,
			"0.017": 0.0,
			"0.018": 0.0,
			"0.019": 0.0,
			"0.02": 0.0,
			"0.021": 0.0,
			"0.022": 0.0,
			"0.023": 0.0,
			"0.024": 0.0,
			"0.025": 0.0
		}
	}
}
