{
	 "smiles": "CCOC(=O)CN1C=NC2=C1C(=O)N=CN2CC(=O)OCC", 
	 "Tm": 413.0, 
	 "num_atms": 38, 
	 "gaussian": { 
		 "optdone": 1, 
		 "sigma_profile": "yes", 
		 "theory": "DFT", 
		 "functional": "B3LYP", 
		 "basiset": "6-31G**", 
		 "properties": { 
			 "R2extent": 7713.5288, 
			 "electric_dipole_moment_norm": 4.56266077306, 
			 "electric_quadrupole_moment_norm": 31.4985478726, 
			 "total_energy": -1100.1780422, 
			 "HOMO_LUMO_gap": 0.18909, 
			 "cosmo_polarized_energy": -27.74, 
			 "cosmo_cavitation_energy": 43.88, 
			 "cosmo_dispersion_energy": -28.23, 
			 "cosmo_repulsion_energy": 2.22, 
			 "cosmo_total_nonelectrostatic_energy": 17.87, 
			 "SMD_solvation_energy": 7.86 
		},
		"coords": [
			{
				"x": -3.6610750903,
				"y": -1.3935226988,
				"z": -2.220343157,
				"element": "C" 
			},
			{
				"x": -3.6157863507,
				"y": -2.2633545319,
				"z": -0.9796241778,
				"element": "C" 
			},
			{
				"x": -2.5102096168,
				"y": -1.7976784612,
				"z": -0.1630953517,
				"element": "O" 
			},
			{
				"x": -2.3058106473,
				"y": -2.4688160592,
				"z": 0.9787837759,
				"element": "C" 
			},
			{
				"x": -2.9769649978,
				"y": -3.3960324501,
				"z": 1.3728968506,
				"element": "O" 
			},
			{
				"x": -1.0828188194,
				"y": -1.971596433,
				"z": 1.7457702875,
				"element": "C" 
			},
			{
				"x": -0.6169187506,
				"y": -0.64033863,
				"z": 1.3861080111,
				"element": "N" 
			},
			{
				"x": -1.2023970829,
				"y": 0.5586176589,
				"z": 1.6631939683,
				"element": "C" 
			},
			{
				"x": -0.5556964446,
				"y": 1.5964714069,
				"z": 1.1462486868,
				"element": "N" 
			},
			{
				"x": 0.4922830145,
				"y": 1.0193418867,
				"z": 0.4996738628,
				"element": "C" 
			},
			{
				"x": 0.4976194278,
				"y": -0.3566226231,
				"z": 0.6143020948,
				"element": "C" 
			},
			{
				"x": 1.5237412742,
				"y": -1.2002060842,
				"z": 0.0375279014,
				"element": "C" 
			},
			{
				"x": 1.5695861191,
				"y": -2.4238762436,
				"z": 0.1473828096,
				"element": "O" 
			},
			{
				"x": 2.4972870287,
				"y": -0.4669951121,
				"z": -0.6752999643,
				"element": "N" 
			},
			{
				"x": 2.442095038,
				"y": 0.8242231595,
				"z": -0.757920204,
				"element": "C" 
			},
			{
				"x": 1.5006437923,
				"y": 1.6531977655,
				"z": -0.1958500122,
				"element": "N" 
			},
			{
				"x": 1.4839710943,
				"y": 3.0911908046,
				"z": -0.4041631718,
				"element": "C" 
			},
			{
				"x": 0.6762701308,
				"y": 3.5849379007,
				"z": -1.6073208846,
				"element": "C" 
			},
			{
				"x": 0.4969260408,
				"y": 4.7651283568,
				"z": -1.8082857455,
				"element": "O" 
			},
			{
				"x": 0.2369838848,
				"y": 2.5822662,
				"z": -2.3794651281,
				"element": "O" 
			},
			{
				"x": -0.5353558845,
				"y": 2.9564986912,
				"z": -3.5528573443,
				"element": "C" 
			},
			{
				"x": 0.3734419177,
				"y": 3.2477689123,
				"z": -4.736064174,
				"element": "C" 
			},
			{
				"x": -3.8186402984,
				"y": -0.3436451257,
				"z": -1.9569813763,
				"element": "H" 
			},
			{
				"x": -4.4847154428,
				"y": -1.7144914415,
				"z": -2.86549022,
				"element": "H" 
			},
			{
				"x": -2.7285823405,
				"y": -1.4732000217,
				"z": -2.7860313775,
				"element": "H" 
			},
			{
				"x": -4.5360840042,
				"y": -2.1966518084,
				"z": -0.3913173504,
				"element": "H" 
			},
			{
				"x": -3.4501109731,
				"y": -3.318082891,
				"z": -1.2179912834,
				"element": "H" 
			},
			{
				"x": -0.2579356965,
				"y": -2.6602016091,
				"z": 1.5332875418,
				"element": "H" 
			},
			{
				"x": -1.3158258375,
				"y": -2.0216099255,
				"z": 2.811821381,
				"element": "H" 
			},
			{
				"x": -2.1070871559,
				"y": 0.629748036,
				"z": 2.2518601823,
				"element": "H" 
			},
			{
				"x": 3.2157197273,
				"y": 1.3495403168,
				"z": -1.3181021205,
				"element": "H" 
			},
			{
				"x": 2.5105051755,
				"y": 3.4486175033,
				"z": -0.5269452515,
				"element": "H" 
			},
			{
				"x": 1.0682312471,
				"y": 3.5738781209,
				"z": 0.4826891886,
				"element": "H" 
			},
			{
				"x": -1.1519417542,
				"y": 3.8219883917,
				"z": -3.3004525359,
				"element": "H" 
			},
			{
				"x": -1.1752693708,
				"y": 2.0912183587,
				"z": -3.7372622682,
				"element": "H" 
			},
			{
				"x": 0.9938323236,
				"y": 4.1256518516,
				"z": -4.5393716557,
				"element": "H" 
			},
			{
				"x": 1.0212510413,
				"y": 2.3930428094,
				"z": -4.9510225955,
				"element": "H" 
			},
			{
				"x": -0.2330617188,
				"y": 3.4504940185,
				"z": -5.6247891922,
				"element": "H" 
			}
		],
		 "valence_orbital": [ 
			{
				"type": "occ",
				"energy": -0.28196,
				"method": "rhf"
			},
			{
				"type": "occ",
				"energy": -0.27894,
				"method": "rhf"
			},
			{
				"type": "occ",
				"energy": -0.27497,
				"method": "rhf"
			},
			{
				"type": "occ",
				"energy": -0.24359,
				"method": "rhf"
			},
			{
				"type": "occ",
				"energy": -0.22664,
				"method": "rhf"
			},
			{
				"type": "unocc",
				"energy": -0.03755,
				"method": "rhf"
			},
			{
				"type": "unocc",
				"energy": -0.0163,
				"method": "rhf"
			},
			{
				"type": "unocc",
				"energy": -0.00198,
				"method": "rhf"
			},
			{
				"type": "unocc",
				"energy": -0.00047,
				"method": "rhf"
			},
			{
				"type": "unocc",
				"energy": 0.03214,
				"method": "rhf"
			}
		],
		"cosmo_sigma_profile": { 
			"-0.025": 0.0,
			"-0.024": 0.0,
			"-0.023": 0.0,
			"-0.022": 0.0,
			"-0.021": 0.0,
			"-0.02": 0.0,
			"-0.019": 0.0,
			"-0.018": 0.0,
			"-0.017": 0.0,
			"-0.016": 0.0,
			"-0.015": 0.0,
			"-0.014": 0.0,
			"-0.013": 0.211567036653,
			"-0.012": 2.27992961823,
			"-0.011": 5.28690501052,
			"-0.01": 7.47039499699,
			"-0.009": 7.07570699091,
			"-0.008": 7.64116546473,
			"-0.007": 7.13843648528,
			"-0.006": 14.5874785194,
			"-0.005": 22.5818360589,
			"-0.004": 33.6342851206,
			"-0.003": 32.2760293121,
			"-0.002": 29.098323016,
			"-0.001": 28.7171209862,
			"0.0": 23.8909961167,
			"0.001": 15.2003744111,
			"0.002": 13.6204795759,
			"0.003": 12.6406292866,
			"0.004": 10.119800748,
			"0.005": 8.24291479826,
			"0.006": 6.3257938393,
			"0.007": 6.48406530336,
			"0.008": 5.70830831052,
			"0.009": 6.20427214001,
			"0.01": 6.17780961635,
			"0.011": 11.9212969838,
			"0.012": 9.17200146152,
			"0.013": 5.2922426304,
			"0.014": 4.13995875839,
			"0.015": 3.01316283911,
			"0.016": 2.41400795766,
			"0.017": 0.00544004675017,
			"0.018": 0.0,
			"0.019": 0.0,
			"0.02": 0.0,
			"0.021": 0.0,
			"0.022": 0.0,
			"0.023": 0.0,
			"0.024": 0.0,
			"0.025": 0.0
		}
	}
}
