{
	 "smiles": "OCC(CO)(CO)CO", 
	 "Tm": 533.15, 
	 "num_atms": 21, 
	 "gaussian": { 
		 "optdone": 1, 
		 "sigma_profile": "yes", 
		 "theory": "DFT", 
		 "functional": "B3LYP", 
		 "basiset": "6-31G**", 
		 "properties": { 
			 "R2extent": 1460.3711, 
			 "electric_dipole_moment_norm": 5.34929290467, 
			 "electric_quadrupole_moment_norm": 11.0925319346, 
			 "total_energy": -498.618043001, 
			 "HOMO_LUMO_gap": 0.29355, 
			 "cosmo_polarized_energy": -17.57, 
			 "cosmo_cavitation_energy": 22.21, 
			 "cosmo_dispersion_energy": -16.66, 
			 "cosmo_repulsion_energy": 1.39, 
			 "cosmo_total_nonelectrostatic_energy": 6.93, 
			 "SMD_solvation_energy": 3.97 
		},
		"coords": [
			{
				"x": 1.9127021936,
				"y": 1.6583649032,
				"z": 0.444883294,
				"element": "O" 
			},
			{
				"x": 1.5979003962,
				"y": 0.5215886031,
				"z": 1.2601133758,
				"element": "C" 
			},
			{
				"x": 0.8999132354,
				"y": -0.5411593892,
				"z": 0.3972647971,
				"element": "C" 
			},
			{
				"x": -0.3873248298,
				"y": 0.0507836929,
				"z": -0.241739142,
				"element": "C" 
			},
			{
				"x": -1.3219109107,
				"y": -0.9507544467,
				"z": -0.618850808,
				"element": "O" 
			},
			{
				"x": 0.5344723663,
				"y": -1.7269176409,
				"z": 1.3045080954,
				"element": "C" 
			},
			{
				"x": -0.5638688477,
				"y": -1.3477045556,
				"z": 2.1428131208,
				"element": "O" 
			},
			{
				"x": 1.8493700141,
				"y": -1.0708898072,
				"z": -0.7057945403,
				"element": "C" 
			},
			{
				"x": 2.2423759823,
				"y": -0.0933608625,
				"z": -1.6486699621,
				"element": "O" 
			},
			{
				"x": 2.3536787326,
				"y": 2.3195943914,
				"z": 0.9918592758,
				"element": "H" 
			},
			{
				"x": 0.9343312461,
				"y": 0.8096067503,
				"z": 2.0867965569,
				"element": "H" 
			},
			{
				"x": 2.5172052582,
				"y": 0.09521291,
				"z": 1.6934745928,
				"element": "H" 
			},
			{
				"x": -0.110757318,
				"y": 0.5868397951,
				"z": -1.1514121766,
				"element": "H" 
			},
			{
				"x": -0.8427175268,
				"y": 0.771635256,
				"z": 0.4507526197,
				"element": "H" 
			},
			{
				"x": -1.6993478354,
				"y": -1.2736711817,
				"z": 0.2122193464,
				"element": "H" 
			},
			{
				"x": 1.4043671635,
				"y": -2.0213490653,
				"z": 1.9109193173,
				"element": "H" 
			},
			{
				"x": 0.2574540489,
				"y": -2.5831324911,
				"z": 0.675730604,
				"element": "H" 
			},
			{
				"x": -0.7458681539,
				"y": -2.0765091071,
				"z": 2.74898934,
				"element": "H" 
			},
			{
				"x": 2.7283685645,
				"y": -1.5397569915,
				"z": -0.225052019,
				"element": "H" 
			},
			{
				"x": 1.3276678703,
				"y": -1.8539661938,
				"z": -1.2676933478,
				"element": "H" 
			},
			{
				"x": 2.4402883503,
				"y": 0.7157454307,
				"z": -1.15011234,
				"element": "H" 
			}
		],
		 "valence_orbital": [ 
			{
				"type": "occ",
				"energy": -0.29806,
				"method": "rhf"
			},
			{
				"type": "occ",
				"energy": -0.2884,
				"method": "rhf"
			},
			{
				"type": "occ",
				"energy": -0.27719,
				"method": "rhf"
			},
			{
				"type": "occ",
				"energy": -0.25656,
				"method": "rhf"
			},
			{
				"type": "occ",
				"energy": -0.24327,
				"method": "rhf"
			},
			{
				"type": "unocc",
				"energy": 0.05028,
				"method": "rhf"
			},
			{
				"type": "unocc",
				"energy": 0.05756,
				"method": "rhf"
			},
			{
				"type": "unocc",
				"energy": 0.09619,
				"method": "rhf"
			},
			{
				"type": "unocc",
				"energy": 0.12141,
				"method": "rhf"
			},
			{
				"type": "unocc",
				"energy": 0.13292,
				"method": "rhf"
			}
		],
		"cosmo_sigma_profile": { 
			"-0.025": 0.0,
			"-0.024": 0.0,
			"-0.023": 0.0,
			"-0.022": 0.0,
			"-0.021": 0.0,
			"-0.02": 0.0,
			"-0.019": 0.0,
			"-0.018": 0.0,
			"-0.017": 0.452611918479,
			"-0.016": 2.10901121059,
			"-0.015": 2.06246278675,
			"-0.014": 2.25603951702,
			"-0.013": 1.15055605344,
			"-0.012": 1.8955118351,
			"-0.011": 1.69515576232,
			"-0.01": 2.00095810945,
			"-0.009": 2.85358541684,
			"-0.008": 3.23477854381,
			"-0.007": 1.67354629496,
			"-0.006": 3.41275170479,
			"-0.005": 7.62520581179,
			"-0.004": 17.7144324156,
			"-0.003": 19.1920884127,
			"-0.002": 15.1477281435,
			"-0.001": 9.83892863001,
			"0.0": 7.39404711229,
			"0.001": 7.52692932101,
			"0.002": 6.37054884307,
			"0.003": 6.47234580803,
			"0.004": 5.06530562545,
			"0.005": 4.72173177618,
			"0.006": 5.58613164351,
			"0.007": 4.04212375925,
			"0.008": 3.95644806233,
			"0.009": 4.01365087619,
			"0.01": 4.23126992793,
			"0.011": 3.60266068176,
			"0.012": 2.507304772,
			"0.013": 3.09631928688,
			"0.014": 3.67679179508,
			"0.015": 3.43559801895,
			"0.016": 0.241403751991,
			"0.017": 0.0,
			"0.018": 0.0,
			"0.019": 0.0,
			"0.02": 0.0,
			"0.021": 0.0,
			"0.022": 0.0,
			"0.023": 0.0,
			"0.024": 0.0,
			"0.025": 0.0
		}
	}
}
