{
	 "smiles": "OC(=O)CNC(=O)C(F)(F)F", 
	 "Tm": 426.15, 
	 "num_atms": 15, 
	 "gaussian": { 
		 "optdone": 1, 
		 "sigma_profile": "yes", 
		 "theory": "DFT", 
		 "functional": "B3LYP", 
		 "basiset": "6-31G**", 
		 "properties": { 
			 "R2extent": 2087.679, 
			 "electric_dipole_moment_norm": 4.48718439336, 
			 "electric_quadrupole_moment_norm": 12.3271646497, 
			 "total_energy": -734.793432794, 
			 "HOMO_LUMO_gap": 0.25861, 
			 "cosmo_polarized_energy": -15.55, 
			 "cosmo_cavitation_energy": 21.65, 
			 "cosmo_dispersion_energy": -15.19, 
			 "cosmo_repulsion_energy": 1.21, 
			 "cosmo_total_nonelectrostatic_energy": 7.67, 
			 "SMD_solvation_energy": 6.5 
		},
		"coords": [
			{
				"x": 1.606720788,
				"y": 1.4242995285,
				"z": 1.1828133045,
				"element": "O" 
			},
			{
				"x": 0.4788463943,
				"y": 1.6736456354,
				"z": 0.4838404412,
				"element": "C" 
			},
			{
				"x": -0.3022394632,
				"y": 2.5547245661,
				"z": 0.7479323527,
				"element": "O" 
			},
			{
				"x": 0.3602499841,
				"y": 0.7060758522,
				"z": -0.691554422,
				"element": "C" 
			},
			{
				"x": -0.8836355903,
				"y": 0.8478581165,
				"z": -1.4165523078,
				"element": "N" 
			},
			{
				"x": -2.089280451,
				"y": 0.2744090621,
				"z": -1.129637613,
				"element": "C" 
			},
			{
				"x": -3.1337507433,
				"y": 0.5868573777,
				"z": -1.6652746062,
				"element": "O" 
			},
			{
				"x": -2.0708038303,
				"y": -0.8719114415,
				"z": -0.0851519348,
				"element": "C" 
			},
			{
				"x": -1.2527577327,
				"y": -1.8771414544,
				"z": -0.4824752912,
				"element": "F" 
			},
			{
				"x": -3.2899359079,
				"y": -1.3674452894,
				"z": 0.0893235293,
				"element": "F" 
			},
			{
				"x": -1.6125510988,
				"y": -0.4298660745,
				"z": 1.1103549466,
				"element": "F" 
			},
			{
				"x": 1.6371271086,
				"y": 2.0730924031,
				"z": 1.906222964,
				"element": "H" 
			},
			{
				"x": 1.1972323171,
				"y": 0.8943860914,
				"z": -1.3725276655,
				"element": "H" 
			},
			{
				"x": 0.4868638175,
				"y": -0.3149584614,
				"z": -0.3310333129,
				"element": "H" 
			},
			{
				"x": -0.9818855921,
				"y": 1.6614740883,
				"z": -2.0110803848,
				"element": "H" 
			}
		],
		 "valence_orbital": [ 
			{
				"type": "occ",
				"energy": -0.40259,
				"method": "rhf"
			},
			{
				"type": "occ",
				"energy": -0.34011,
				"method": "rhf"
			},
			{
				"type": "occ",
				"energy": -0.30333,
				"method": "rhf"
			},
			{
				"type": "occ",
				"energy": -0.28536,
				"method": "rhf"
			},
			{
				"type": "occ",
				"energy": -0.2788,
				"method": "rhf"
			},
			{
				"type": "unocc",
				"energy": -0.02019,
				"method": "rhf"
			},
			{
				"type": "unocc",
				"energy": -0.00831,
				"method": "rhf"
			},
			{
				"type": "unocc",
				"energy": 0.06082,
				"method": "rhf"
			},
			{
				"type": "unocc",
				"energy": 0.06809,
				"method": "rhf"
			},
			{
				"type": "unocc",
				"energy": 0.11701,
				"method": "rhf"
			}
		],
		"cosmo_sigma_profile": { 
			"-0.025": 0.0,
			"-0.024": 0.0,
			"-0.023": 0.0,
			"-0.022": 0.0,
			"-0.021": 0.0,
			"-0.02": 0.0,
			"-0.019": 0.585316536643,
			"-0.018": 0.953140961745,
			"-0.017": 0.967959492538,
			"-0.016": 1.57688633743,
			"-0.015": 1.89585529484,
			"-0.014": 1.12883838029,
			"-0.013": 2.02771435979,
			"-0.012": 2.15677159663,
			"-0.011": 2.05446041056,
			"-0.01": 3.19346928245,
			"-0.009": 3.71941049543,
			"-0.008": 3.90287767358,
			"-0.007": 5.55713679226,
			"-0.006": 5.10517588678,
			"-0.005": 5.49398186549,
			"-0.004": 6.70372801246,
			"-0.003": 5.11446830793,
			"-0.002": 9.27708301031,
			"-0.001": 8.23914230504,
			"0.0": 11.7865589858,
			"0.001": 19.9086842425,
			"0.002": 21.7694521132,
			"0.003": 5.32107901636,
			"0.004": 3.82793009677,
			"0.005": 4.3838610031,
			"0.006": 4.53974363586,
			"0.007": 3.26824970388,
			"0.008": 4.56502733602,
			"0.009": 4.66060729478,
			"0.01": 4.85812763541,
			"0.011": 10.0851961571,
			"0.012": 3.630750814,
			"0.013": 0.0204643829235,
			"0.014": 0.0,
			"0.015": 0.0,
			"0.016": 0.0,
			"0.017": 0.0,
			"0.018": 0.0,
			"0.019": 0.0,
			"0.02": 0.0,
			"0.021": 0.0,
			"0.022": 0.0,
			"0.023": 0.0,
			"0.024": 0.0,
			"0.025": 0.0
		}
	}
}
