{
	 "smiles": "COC1=C(CNC2=C3C=CN=CC3=CC=C2)C=CC=C1", 
	 "Tm": 392.15, 
	 "num_atms": 36, 
	 "gaussian": { 
		 "optdone": 1, 
		 "sigma_profile": "yes", 
		 "theory": "DFT", 
		 "functional": "B3LYP", 
		 "basiset": "6-31G**", 
		 "properties": { 
			 "R2extent": 5581.8397, 
			 "electric_dipole_moment_norm": 3.95656733672, 
			 "electric_quadrupole_moment_norm": 10.372731458, 
			 "total_energy": -842.167059458, 
			 "HOMO_LUMO_gap": 0.15724, 
			 "cosmo_polarized_energy": -12.68, 
			 "cosmo_cavitation_energy": 38.92, 
			 "cosmo_dispersion_energy": -26.22, 
			 "cosmo_repulsion_energy": 1.98, 
			 "cosmo_total_nonelectrostatic_energy": 14.68, 
			 "SMD_solvation_energy": 4.41 
		},
		"coords": [
			{
				"x": 0.8313537496,
				"y": -2.1101342371,
				"z": -0.4232181399,
				"element": "C" 
			},
			{
				"x": 0.3603279033,
				"y": -0.917928954,
				"z": -1.0317314894,
				"element": "O" 
			},
			{
				"x": 1.1342123926,
				"y": -0.3104841465,
				"z": -1.9773098863,
				"element": "C" 
			},
			{
				"x": 0.6329212385,
				"y": 0.9092396032,
				"z": -2.4836190067,
				"element": "C" 
			},
			{
				"x": -0.6460033681,
				"y": 1.5135130348,
				"z": -1.9371041742,
				"element": "C" 
			},
			{
				"x": -0.4468568243,
				"y": 2.4036329886,
				"z": -0.764892415,
				"element": "N" 
			},
			{
				"x": -0.2102313421,
				"y": 1.8283267437,
				"z": 0.5030509144,
				"element": "C" 
			},
			{
				"x": -1.2743275298,
				"y": 1.1511840681,
				"z": 1.1898543069,
				"element": "C" 
			},
			{
				"x": -2.6029340109,
				"y": 1.0612342539,
				"z": 0.7024818111,
				"element": "C" 
			},
			{
				"x": -3.5508248055,
				"y": 0.3770641444,
				"z": 1.4302364178,
				"element": "C" 
			},
			{
				"x": -3.3007210734,
				"y": -0.2380242504,
				"z": 2.6181182913,
				"element": "N" 
			},
			{
				"x": -2.079963741,
				"y": -0.129840564,
				"z": 3.1011482505,
				"element": "C" 
			},
			{
				"x": -1.0113200776,
				"y": 0.5603215067,
				"z": 2.4637806849,
				"element": "C" 
			},
			{
				"x": 0.2648813065,
				"y": 0.6977869463,
				"z": 3.0694742311,
				"element": "C" 
			},
			{
				"x": 1.2467029079,
				"y": 1.4129813592,
				"z": 2.4240773917,
				"element": "C" 
			},
			{
				"x": 1.0123089428,
				"y": 1.9622652482,
				"z": 1.141950479,
				"element": "C" 
			},
			{
				"x": 1.3645514602,
				"y": 1.5645945726,
				"z": -3.4758213846,
				"element": "C" 
			},
			{
				"x": 2.5723416474,
				"y": 1.0530423992,
				"z": -3.9587202799,
				"element": "C" 
			},
			{
				"x": 3.0559001683,
				"y": -0.1449463909,
				"z": -3.4396702644,
				"element": "C" 
			},
			{
				"x": 2.3420580452,
				"y": -0.8322661971,
				"z": -2.453613924,
				"element": "C" 
			},
			{
				"x": 0.078992224,
				"y": -2.3845523773,
				"z": 0.3170989994,
				"element": "H" 
			},
			{
				"x": 1.7927544874,
				"y": -1.9504660766,
				"z": 0.0805083253,
				"element": "H" 
			},
			{
				"x": 0.9362768045,
				"y": -2.9231086631,
				"z": -1.1531487312,
				"element": "H" 
			},
			{
				"x": -1.1210172919,
				"y": 2.1149794448,
				"z": -2.719724074,
				"element": "H" 
			},
			{
				"x": -1.3440268662,
				"y": 0.7264367044,
				"z": -1.6529031547,
				"element": "H" 
			},
			{
				"x": 0.2888872693,
				"y": 3.0689139666,
				"z": -0.9823513491,
				"element": "H" 
			},
			{
				"x": -2.8769983447,
				"y": 1.5559445329,
				"z": -0.2220855845,
				"element": "H" 
			},
			{
				"x": -4.574983662,
				"y": 0.3055879212,
				"z": 1.0706879628,
				"element": "H" 
			},
			{
				"x": -1.8908806538,
				"y": -0.6043563946,
				"z": 4.0655221056,
				"element": "H" 
			},
			{
				"x": 0.4424910048,
				"y": 0.2516253701,
				"z": 4.0440745866,
				"element": "H" 
			},
			{
				"x": 2.2231130056,
				"y": 1.5417844922,
				"z": 2.8825394698,
				"element": "H" 
			},
			{
				"x": 1.8188326011,
				"y": 2.4837728034,
				"z": 0.6322408403,
				"element": "H" 
			},
			{
				"x": 0.9737788751,
				"y": 2.4959599196,
				"z": -3.8811849857,
				"element": "H" 
			},
			{
				"x": 3.1216423808,
				"y": 1.5816702335,
				"z": -4.7314779211,
				"element": "H" 
			},
			{
				"x": 3.992105183,
				"y": -0.5601906213,
				"z": -3.8020079143,
				"element": "H" 
			},
			{
				"x": 2.7290559933,
				"y": -1.7681633849,
				"z": -2.0683603894,
				"element": "H" 
			}
		],
		 "valence_orbital": [ 
			{
				"type": "occ",
				"energy": -0.25441,
				"method": "rhf"
			},
			{
				"type": "occ",
				"energy": -0.24555,
				"method": "rhf"
			},
			{
				"type": "occ",
				"energy": -0.24428,
				"method": "rhf"
			},
			{
				"type": "occ",
				"energy": -0.22344,
				"method": "rhf"
			},
			{
				"type": "occ",
				"energy": -0.19776,
				"method": "rhf"
			},
			{
				"type": "unocc",
				"energy": -0.04052,
				"method": "rhf"
			},
			{
				"type": "unocc",
				"energy": -0.01448,
				"method": "rhf"
			},
			{
				"type": "unocc",
				"energy": -0.00748,
				"method": "rhf"
			},
			{
				"type": "unocc",
				"energy": 0.00776,
				"method": "rhf"
			},
			{
				"type": "unocc",
				"energy": 0.03588,
				"method": "rhf"
			}
		],
		"cosmo_sigma_profile": { 
			"-0.025": 0.0,
			"-0.024": 0.0,
			"-0.023": 0.0,
			"-0.022": 0.0,
			"-0.021": 0.0,
			"-0.02": 0.0,
			"-0.019": 0.0,
			"-0.018": 0.0,
			"-0.017": 0.0,
			"-0.016": 0.0,
			"-0.015": 0.0,
			"-0.014": 0.0,
			"-0.013": 0.0,
			"-0.012": 0.0,
			"-0.011": 0.968812930091,
			"-0.01": 1.15970844744,
			"-0.009": 1.38510815683,
			"-0.008": 1.61087042807,
			"-0.007": 3.23627405192,
			"-0.006": 17.6450198318,
			"-0.005": 31.1064626291,
			"-0.004": 29.9780449931,
			"-0.003": 29.202518247,
			"-0.002": 20.0567487028,
			"-0.001": 18.0279094338,
			"0.0": 15.4877582663,
			"0.001": 17.22819715,
			"0.002": 21.7286334507,
			"0.003": 29.5993937216,
			"0.004": 24.3892096801,
			"0.005": 16.748297066,
			"0.006": 12.3404603023,
			"0.007": 5.20467278842,
			"0.008": 1.98925185821,
			"0.009": 2.12027317984,
			"0.01": 1.86070787189,
			"0.011": 1.46041139544,
			"0.012": 1.3717448292,
			"0.013": 1.35871164231,
			"0.014": 0.816364610174,
			"0.015": 0.886998650422,
			"0.016": 0.994762678197,
			"0.017": 0.530438764386,
			"0.018": 0.0483389327192,
			"0.019": 0.0,
			"0.02": 0.0,
			"0.021": 0.0,
			"0.022": 0.0,
			"0.023": 0.0,
			"0.024": 0.0,
			"0.025": 0.0
		}
	}
}
