{
	 "smiles": "ClC1=CC(=CC(Cl)=C1)C1=NN=C(Br)S1", 
	 "Tm": 428.15, 
	 "num_atms": 17, 
	 "gaussian": { 
		 "optdone": 1, 
		 "sigma_profile": "yes", 
		 "theory": "DFT", 
		 "functional": "B3LYP", 
		 "basiset": "6-31G**", 
		 "properties": { 
			 "R2extent": 8652.9047, 
			 "electric_dipole_moment_norm": 2.43238652562, 
			 "electric_quadrupole_moment_norm": 6.75489008127, 
			 "total_energy": -4306.09782416, 
			 "HOMO_LUMO_gap": 0.17189, 
			 "cosmo_polarized_energy": -8.21, 
			 "cosmo_cavitation_energy": 30.38, 
			 "cosmo_dispersion_energy": -23.62, 
			 "cosmo_repulsion_energy": 1.82, 
			 "cosmo_total_nonelectrostatic_energy": 8.58, 
			 "SMD_solvation_energy": 1.32 
		},
		"coords": [
			{
				"x": -1.6285370776,
				"y": -2.2716485427,
				"z": -4.807739701,
				"element": "Cl" 
			},
			{
				"x": -0.8064998015,
				"y": -1.946505161,
				"z": -3.2945697804,
				"element": "C" 
			},
			{
				"x": -1.0100625467,
				"y": -0.7240783607,
				"z": -2.6596233907,
				"element": "C" 
			},
			{
				"x": -0.3532608746,
				"y": -0.4620462166,
				"z": -1.449021835,
				"element": "C" 
			},
			{
				"x": 0.4995711143,
				"y": -1.4282276337,
				"z": -0.8892551297,
				"element": "C" 
			},
			{
				"x": 0.6783793671,
				"y": -2.6368972848,
				"z": -1.5514824683,
				"element": "C" 
			},
			{
				"x": 1.7405419938,
				"y": -3.8458916346,
				"z": -0.8586868047,
				"element": "Cl" 
			},
			{
				"x": 0.0346733877,
				"y": -2.9196136227,
				"z": -2.7581266362,
				"element": "C" 
			},
			{
				"x": -0.5324745183,
				"y": 0.8110827125,
				"z": -0.7375667253,
				"element": "C" 
			},
			{
				"x": 0.0661279721,
				"y": 1.0851653534,
				"z": 0.3940812761,
				"element": "N" 
			},
			{
				"x": -0.228511418,
				"y": 2.3176080784,
				"z": 0.8965058491,
				"element": "N" 
			},
			{
				"x": -1.0522790118,
				"y": 2.969920196,
				"z": 0.1365497068,
				"element": "C" 
			},
			{
				"x": -1.66921816,
				"y": 4.6984321655,
				"z": 0.5289359328,
				"element": "Br" 
			},
			{
				"x": -1.563824839,
				"y": 2.1213725233,
				"z": -1.3040640442,
				"element": "S" 
			},
			{
				"x": -1.672939432,
				"y": 0.0055377715,
				"z": -3.1111624822,
				"element": "H" 
			},
			{
				"x": 1.0043874156,
				"y": -1.221010862,
				"z": 0.0457734655,
				"element": "H" 
			},
			{
				"x": 0.1845264286,
				"y": -3.8662994817,
				"z": -3.2618472326,
				"element": "H" 
			}
		],
		 "valence_orbital": [ 
			{
				"type": "occ",
				"energy": -0.31889,
				"method": "rhf"
			},
			{
				"type": "occ",
				"energy": -0.29715,
				"method": "rhf"
			},
			{
				"type": "occ",
				"energy": -0.28742,
				"method": "rhf"
			},
			{
				"type": "occ",
				"energy": -0.26819,
				"method": "rhf"
			},
			{
				"type": "occ",
				"energy": -0.26026,
				"method": "rhf"
			},
			{
				"type": "unocc",
				"energy": -0.08837,
				"method": "rhf"
			},
			{
				"type": "unocc",
				"energy": -0.0414,
				"method": "rhf"
			},
			{
				"type": "unocc",
				"energy": -0.0353,
				"method": "rhf"
			},
			{
				"type": "unocc",
				"energy": -0.02556,
				"method": "rhf"
			},
			{
				"type": "unocc",
				"energy": -0.01284,
				"method": "rhf"
			}
		],
		"cosmo_sigma_profile": { 
			"-0.025": 0.0,
			"-0.024": 0.0,
			"-0.023": 0.0,
			"-0.022": 0.0,
			"-0.021": 0.0,
			"-0.02": 0.0,
			"-0.019": 0.0,
			"-0.018": 0.0,
			"-0.017": 0.0,
			"-0.016": 0.0,
			"-0.015": 0.0,
			"-0.014": 0.0,
			"-0.013": 0.0,
			"-0.012": 0.0,
			"-0.011": 0.0,
			"-0.01": 0.883965970767,
			"-0.009": 2.87172824697,
			"-0.008": 3.93806196517,
			"-0.007": 4.48588908121,
			"-0.006": 6.87559621098,
			"-0.005": 9.21797301179,
			"-0.004": 15.7883974992,
			"-0.003": 19.3575558201,
			"-0.002": 21.9141862054,
			"-0.001": 27.2557730018,
			"0.0": 39.0193674735,
			"0.001": 24.1907235051,
			"0.002": 22.6971717002,
			"0.003": 19.991227163,
			"0.004": 18.2978646563,
			"0.005": 3.10535103987,
			"0.006": 2.27243564337,
			"0.007": 1.8618410293,
			"0.008": 2.48851525944,
			"0.009": 3.46998896602,
			"0.01": 2.26103893507,
			"0.011": 2.78338264873,
			"0.012": 1.03354775015,
			"0.013": 0.713274320501,
			"0.014": 0.0133600640362,
			"0.015": 0.0,
			"0.016": 0.0,
			"0.017": 0.0,
			"0.018": 0.0,
			"0.019": 0.0,
			"0.02": 0.0,
			"0.021": 0.0,
			"0.022": 0.0,
			"0.023": 0.0,
			"0.024": 0.0,
			"0.025": 0.0
		}
	}
}
