{
	 "smiles": "CC(=O)OC1=C(C=CC=C1)C(=O)OC(=O)C1=C(OC(C)=O)C=CC=C1", 
	 "Tm": 356.15, 
	 "num_atms": 39, 
	 "gaussian": { 
		 "optdone": 1, 
		 "sigma_profile": "yes", 
		 "theory": "DFT", 
		 "functional": "B3LYP", 
		 "basiset": "6-31G**", 
		 "properties": { 
			 "R2extent": 10365.5294, 
			 "electric_dipole_moment_norm": 5.35333245372, 
			 "electric_quadrupole_moment_norm": 27.550373747, 
			 "total_energy": -1220.94869122, 
			 "HOMO_LUMO_gap": 0.18805, 
			 "cosmo_polarized_energy": -21.34, 
			 "cosmo_cavitation_energy": 46.04, 
			 "cosmo_dispersion_energy": -29.97, 
			 "cosmo_repulsion_energy": 2.29, 
			 "cosmo_total_nonelectrostatic_energy": 18.37, 
			 "SMD_solvation_energy": 11.53 
		},
		"coords": [
			{
				"x": -3.6600206591,
				"y": 3.7613695649,
				"z": -0.9182207646,
				"element": "C" 
			},
			{
				"x": -2.5555717607,
				"y": 3.593302524,
				"z": 0.0855243195,
				"element": "C" 
			},
			{
				"x": -2.5931524786,
				"y": 3.838448501,
				"z": 1.261643101,
				"element": "O" 
			},
			{
				"x": -1.423275228,
				"y": 3.0948849641,
				"z": -0.5416098147,
				"element": "O" 
			},
			{
				"x": -0.3810262177,
				"y": 2.6629215987,
				"z": 0.2560448614,
				"element": "C" 
			},
			{
				"x": -0.4078382609,
				"y": 1.4023604082,
				"z": 0.8893789914,
				"element": "C" 
			},
			{
				"x": 0.7268920678,
				"y": 1.0006969633,
				"z": 1.6174308586,
				"element": "C" 
			},
			{
				"x": 1.8470637487,
				"y": 1.8204319628,
				"z": 1.7145426447,
				"element": "C" 
			},
			{
				"x": 1.8550628866,
				"y": 3.0621393865,
				"z": 1.0754697937,
				"element": "C" 
			},
			{
				"x": 0.742368413,
				"y": 3.480231822,
				"z": 0.3482577722,
				"element": "C" 
			},
			{
				"x": -1.5966397811,
				"y": 0.5169644111,
				"z": 0.7781391451,
				"element": "C" 
			},
			{
				"x": -2.6528154654,
				"y": 0.7817907471,
				"z": 0.2680578107,
				"element": "O" 
			},
			{
				"x": -1.3123923851,
				"y": -0.7542241416,
				"z": 1.2921238738,
				"element": "O" 
			},
			{
				"x": -2.3167884007,
				"y": -1.5267791104,
				"z": 1.8551414911,
				"element": "C" 
			},
			{
				"x": -3.3384067868,
				"y": -1.0551476937,
				"z": 2.283662824,
				"element": "O" 
			},
			{
				"x": -1.9575534324,
				"y": -2.9713270564,
				"z": 1.9598809303,
				"element": "C" 
			},
			{
				"x": -0.821628447,
				"y": -3.6057312751,
				"z": 1.4220365305,
				"element": "C" 
			},
			{
				"x": 0.1737008918,
				"y": -2.9255253403,
				"z": 0.7283605176,
				"element": "O" 
			},
			{
				"x": -0.0576926403,
				"y": -2.6098901944,
				"z": -0.5948089013,
				"element": "C" 
			},
			{
				"x": 1.1344488571,
				"y": -1.8856718035,
				"z": -1.1619997844,
				"element": "C" 
			},
			{
				"x": -1.073699015,
				"y": -2.8926417158,
				"z": -1.173936885,
				"element": "O" 
			},
			{
				"x": -0.6075964767,
				"y": -4.9679320315,
				"z": 1.6248279583,
				"element": "C" 
			},
			{
				"x": -1.5174153936,
				"y": -5.7234608739,
				"z": 2.3603205034,
				"element": "C" 
			},
			{
				"x": -2.6551980505,
				"y": -5.1152682385,
				"z": 2.8950719232,
				"element": "C" 
			},
			{
				"x": -2.8649427415,
				"y": -3.7569364539,
				"z": 2.6933698923,
				"element": "C" 
			},
			{
				"x": -4.0555151036,
				"y": 2.7675613361,
				"z": -1.1494710055,
				"element": "H" 
			},
			{
				"x": -4.4494713359,
				"y": 4.3791334816,
				"z": -0.4911722995,
				"element": "H" 
			},
			{
				"x": -3.2838628176,
				"y": 4.1998650042,
				"z": -1.845513668,
				"element": "H" 
			},
			{
				"x": 0.7162073673,
				"y": 0.0324238567,
				"z": 2.1025832616,
				"element": "H" 
			},
			{
				"x": 2.7095907959,
				"y": 1.4916735478,
				"z": 2.2853211328,
				"element": "H" 
			},
			{
				"x": 2.7252359583,
				"y": 3.7080558945,
				"z": 1.1448532802,
				"element": "H" 
			},
			{
				"x": 0.7251312563,
				"y": 4.4393864647,
				"z": -0.1577000262,
				"element": "H" 
			},
			{
				"x": 1.2645897877,
				"y": -0.9313845774,
				"z": -0.643085093,
				"element": "H" 
			},
			{
				"x": 2.0441487217,
				"y": -2.4718676642,
				"z": -1.004888019,
				"element": "H" 
			},
			{
				"x": 0.9772779235,
				"y": -1.710618873,
				"z": -2.2256421687,
				"element": "H" 
			},
			{
				"x": 0.2820275683,
				"y": -5.4174275836,
				"z": 1.1968117562,
				"element": "H" 
			},
			{
				"x": -1.3380188917,
				"y": -6.7837805794,
				"z": 2.5109904205,
				"element": "H" 
			},
			{
				"x": -3.3717881139,
				"y": -5.6958389992,
				"z": 3.4670679763,
				"element": "H" 
			},
			{
				"x": -3.7387363603,
				"y": -3.2598882336,
				"z": 3.0994348597,
				"element": "H" 
			}
		],
		 "valence_orbital": [ 
			{
				"type": "occ",
				"energy": -0.27605,
				"method": "rhf"
			},
			{
				"type": "occ",
				"energy": -0.27359,
				"method": "rhf"
			},
			{
				"type": "occ",
				"energy": -0.27043,
				"method": "rhf"
			},
			{
				"type": "occ",
				"energy": -0.26166,
				"method": "rhf"
			},
			{
				"type": "occ",
				"energy": -0.26094,
				"method": "rhf"
			},
			{
				"type": "unocc",
				"energy": -0.07289,
				"method": "rhf"
			},
			{
				"type": "unocc",
				"energy": -0.05417,
				"method": "rhf"
			},
			{
				"type": "unocc",
				"energy": -0.0208,
				"method": "rhf"
			},
			{
				"type": "unocc",
				"energy": -0.01791,
				"method": "rhf"
			},
			{
				"type": "unocc",
				"energy": 0.00334,
				"method": "rhf"
			}
		],
		"cosmo_sigma_profile": { 
			"-0.025": 0.0,
			"-0.024": 0.0,
			"-0.023": 0.0,
			"-0.022": 0.0,
			"-0.021": 0.0,
			"-0.02": 0.0,
			"-0.019": 0.0,
			"-0.018": 0.0,
			"-0.017": 0.0,
			"-0.016": 0.0,
			"-0.015": 0.0,
			"-0.014": 0.0,
			"-0.013": 0.0,
			"-0.012": 0.0,
			"-0.011": 0.0,
			"-0.01": 0.0,
			"-0.009": 0.0,
			"-0.008": 2.83906640608,
			"-0.007": 16.6069163965,
			"-0.006": 27.6254211136,
			"-0.005": 28.2619382316,
			"-0.004": 29.8353889013,
			"-0.003": 35.3378860298,
			"-0.002": 30.0029821571,
			"-0.001": 23.9389684148,
			"0.0": 23.9961118769,
			"0.001": 27.2347368151,
			"0.002": 27.6474010425,
			"0.003": 18.3419852242,
			"0.004": 9.14315538349,
			"0.005": 8.85767770776,
			"0.006": 9.33850372946,
			"0.007": 8.46384994676,
			"0.008": 7.50615312867,
			"0.009": 6.1711380031,
			"0.01": 11.94811652,
			"0.011": 12.3350688834,
			"0.012": 4.09942196667,
			"0.013": 0.0829408383485,
			"0.014": 0.0,
			"0.015": 0.0,
			"0.016": 0.0,
			"0.017": 0.0,
			"0.018": 0.0,
			"0.019": 0.0,
			"0.02": 0.0,
			"0.021": 0.0,
			"0.022": 0.0,
			"0.023": 0.0,
			"0.024": 0.0,
			"0.025": 0.0
		}
	}
}
