{
	 "smiles": "OC(=O)C=CC1=C(OCC2=C(Br)C=CC=C2)C=CC(Cl)=C1", 
	 "Tm": 481.15, 
	 "num_atms": 33, 
	 "gaussian": { 
		 "optdone": 1, 
		 "sigma_profile": "yes", 
		 "theory": "DFT", 
		 "functional": "B3LYP", 
		 "basiset": "6-31G**", 
		 "properties": { 
			 "R2extent": 10209.6173, 
			 "electric_dipole_moment_norm": 3.41208020128, 
			 "electric_quadrupole_moment_norm": 11.7324187681, 
			 "total_energy": -3874.19593191, 
			 "HOMO_LUMO_gap": 0.15889, 
			 "cosmo_polarized_energy": -15.93, 
			 "cosmo_cavitation_energy": 43.04, 
			 "cosmo_dispersion_energy": -29.4, 
			 "cosmo_repulsion_energy": 2.27, 
			 "cosmo_total_nonelectrostatic_energy": 15.91, 
			 "SMD_solvation_energy": 7.32 
		},
		"coords": [
			{
				"x": 1.2684817401,
				"y": -4.1463674906,
				"z": -1.2948714384,
				"element": "O" 
			},
			{
				"x": 1.1187449562,
				"y": -2.8218855938,
				"z": -1.5789115802,
				"element": "C" 
			},
			{
				"x": 1.5570271314,
				"y": -2.3359857011,
				"z": -2.6052586923,
				"element": "O" 
			},
			{
				"x": 0.3923888793,
				"y": -2.0587908598,
				"z": -0.5496227209,
				"element": "C" 
			},
			{
				"x": -0.092701371,
				"y": -2.6290218002,
				"z": 0.5725664292,
				"element": "C" 
			},
			{
				"x": -0.833915592,
				"y": -2.036098765,
				"z": 1.6847076291,
				"element": "C" 
			},
			{
				"x": -1.1983028669,
				"y": -0.6656985972,
				"z": 1.8004089617,
				"element": "C" 
			},
			{
				"x": -0.8197646083,
				"y": 0.1557077235,
				"z": 0.7865254041,
				"element": "O" 
			},
			{
				"x": -1.1487039068,
				"y": 1.5512454108,
				"z": 0.8565985715,
				"element": "C" 
			},
			{
				"x": -0.5598794783,
				"y": 2.2294189603,
				"z": -0.3507465461,
				"element": "C" 
			},
			{
				"x": 0.7846663818,
				"y": 2.6233578006,
				"z": -0.418140226,
				"element": "C" 
			},
			{
				"x": 1.9638834908,
				"y": 2.3301753096,
				"z": 1.0619419145,
				"element": "Br" 
			},
			{
				"x": 1.3085982536,
				"y": 3.239718616,
				"z": -1.5529475568,
				"element": "C" 
			},
			{
				"x": 0.4825868972,
				"y": 3.4712676497,
				"z": -2.6528895505,
				"element": "C" 
			},
			{
				"x": -0.8579280987,
				"y": 3.0882440923,
				"z": -2.614282886,
				"element": "C" 
			},
			{
				"x": -1.3652854241,
				"y": 2.4736183649,
				"z": -1.4712418343,
				"element": "C" 
			},
			{
				"x": -1.9176333931,
				"y": -0.2235703126,
				"z": 2.9166688912,
				"element": "C" 
			},
			{
				"x": -2.2840701206,
				"y": -1.108937788,
				"z": 3.9307282832,
				"element": "C" 
			},
			{
				"x": -1.9289559838,
				"y": -2.4499885875,
				"z": 3.8263450936,
				"element": "C" 
			},
			{
				"x": -2.3835495281,
				"y": -3.5780710095,
				"z": 5.0958586279,
				"element": "Cl" 
			},
			{
				"x": -1.2172590861,
				"y": -2.9044227637,
				"z": 2.7227417965,
				"element": "C" 
			},
			{
				"x": 1.7567204918,
				"y": -4.5156472822,
				"z": -2.048154374,
				"element": "H" 
			},
			{
				"x": 0.2809385098,
				"y": -1.0079982163,
				"z": -0.7706739985,
				"element": "H" 
			},
			{
				"x": 0.0813255525,
				"y": -3.6966909168,
				"z": 0.6872073687,
				"element": "H" 
			},
			{
				"x": -2.2391440596,
				"y": 1.6713090849,
				"z": 0.8610159711,
				"element": "H" 
			},
			{
				"x": -0.7426500855,
				"y": 1.9784909421,
				"z": 1.7799332954,
				"element": "H" 
			},
			{
				"x": 2.3520517668,
				"y": 3.5319988219,
				"z": -1.57279552,
				"element": "H" 
			},
			{
				"x": 0.8925984568,
				"y": 3.9501168371,
				"z": -3.5369178876,
				"element": "H" 
			},
			{
				"x": -1.5038936596,
				"y": 3.2643840825,
				"z": -3.4685235395,
				"element": "H" 
			},
			{
				"x": -2.4081444172,
				"y": 2.1697616377,
				"z": -1.438135957,
				"element": "H" 
			},
			{
				"x": -2.2012885732,
				"y": 0.8168910892,
				"z": 3.0107637605,
				"element": "H" 
			},
			{
				"x": -2.840344366,
				"y": -0.7539982696,
				"z": 4.7910869862,
				"element": "H" 
			},
			{
				"x": -0.9483978892,
				"y": -3.9532324694,
				"z": 2.6546153236,
				"element": "H" 
			}
		],
		 "valence_orbital": [ 
			{
				"type": "occ",
				"energy": -0.27224,
				"method": "rhf"
			},
			{
				"type": "occ",
				"energy": -0.26392,
				"method": "rhf"
			},
			{
				"type": "occ",
				"energy": -0.25204,
				"method": "rhf"
			},
			{
				"type": "occ",
				"energy": -0.25066,
				"method": "rhf"
			},
			{
				"type": "occ",
				"energy": -0.22458,
				"method": "rhf"
			},
			{
				"type": "unocc",
				"energy": -0.06569,
				"method": "rhf"
			},
			{
				"type": "unocc",
				"energy": -0.03173,
				"method": "rhf"
			},
			{
				"type": "unocc",
				"energy": -0.02334,
				"method": "rhf"
			},
			{
				"type": "unocc",
				"energy": -0.00941,
				"method": "rhf"
			},
			{
				"type": "unocc",
				"energy": -0.00023,
				"method": "rhf"
			}
		],
		"cosmo_sigma_profile": { 
			"-0.025": 0.0,
			"-0.024": 0.0,
			"-0.023": 0.0,
			"-0.022": 0.0,
			"-0.021": 0.0,
			"-0.02": 0.0,
			"-0.019": 0.0,
			"-0.018": 0.374090240217,
			"-0.017": 0.798207594729,
			"-0.016": 0.811921829432,
			"-0.015": 1.2048116023,
			"-0.014": 0.693019627388,
			"-0.013": 0.40988267374,
			"-0.012": 0.54715671862,
			"-0.011": 0.323399426087,
			"-0.01": 1.03531614988,
			"-0.009": 1.95529654587,
			"-0.008": 7.71787256161,
			"-0.007": 16.7926968556,
			"-0.006": 19.2617503178,
			"-0.005": 18.6889960246,
			"-0.004": 15.4486928997,
			"-0.003": 14.3310392002,
			"-0.002": 18.7915519114,
			"-0.001": 20.3315369873,
			"0.0": 25.6875877807,
			"0.001": 37.1550412159,
			"0.002": 44.9258019606,
			"0.003": 38.8234425898,
			"0.004": 27.8676868622,
			"0.005": 13.5727008042,
			"0.006": 3.08850664803,
			"0.007": 2.57608002521,
			"0.008": 3.84883050576,
			"0.009": 1.3183067733,
			"0.01": 1.49759211462,
			"0.011": 2.498866206,
			"0.012": 5.32643883812,
			"0.013": 2.93590363457,
			"0.014": 0.214238135357,
			"0.015": 0.0,
			"0.016": 0.0,
			"0.017": 0.0,
			"0.018": 0.0,
			"0.019": 0.0,
			"0.02": 0.0,
			"0.021": 0.0,
			"0.022": 0.0,
			"0.023": 0.0,
			"0.024": 0.0,
			"0.025": 0.0
		}
	}
}
