{
	 "smiles": "FC1=C(Cl)C=C(OC2=C(F)C=C(C=C2)C#N)C=C1", 
	 "Tm": 371.15, 
	 "num_atms": 24, 
	 "gaussian": { 
		 "optdone": 1, 
		 "sigma_profile": "yes", 
		 "theory": "DFT", 
		 "functional": "B3LYP", 
		 "basiset": "6-31G**", 
		 "properties": { 
			 "R2extent": 7377.1837, 
			 "electric_dipole_moment_norm": 3.18579664134, 
			 "electric_quadrupole_moment_norm": 28.9590883009, 
			 "total_energy": -1288.79704984, 
			 "HOMO_LUMO_gap": 0.19261, 
			 "cosmo_polarized_energy": -11.87, 
			 "cosmo_cavitation_energy": 33.99, 
			 "cosmo_dispersion_energy": -23.51, 
			 "cosmo_repulsion_energy": 1.78, 
			 "cosmo_total_nonelectrostatic_energy": 12.26, 
			 "SMD_solvation_energy": 8.15 
		},
		"coords": [
			{
				"x": -5.394652952,
				"y": -0.9296691918,
				"z": -2.2386764936,
				"element": "F" 
			},
			{
				"x": -4.2442029696,
				"y": -0.9550848827,
				"z": -1.5521035963,
				"element": "C" 
			},
			{
				"x": -4.2318744544,
				"y": -0.589866874,
				"z": -0.2039094923,
				"element": "C" 
			},
			{
				"x": -5.712828732,
				"y": -0.1046886813,
				"z": 0.5748775768,
				"element": "Cl" 
			},
			{
				"x": -3.0318003721,
				"y": -0.6147629399,
				"z": 0.5068379898,
				"element": "C" 
			},
			{
				"x": -1.8648431221,
				"y": -1.0125577941,
				"z": -0.1427082192,
				"element": "C" 
			},
			{
				"x": -0.7056546809,
				"y": -1.1147086068,
				"z": 0.6144540761,
				"element": "O" 
			},
			{
				"x": 0.3405745954,
				"y": -0.2688600432,
				"z": 0.3734072225,
				"element": "C" 
			},
			{
				"x": 1.5597475714,
				"y": -0.6148838654,
				"z": 0.980275663,
				"element": "C" 
			},
			{
				"x": 1.6144049313,
				"y": -1.7394444716,
				"z": 1.7103678461,
				"element": "F" 
			},
			{
				"x": 2.6875743208,
				"y": 0.1702776982,
				"z": 0.8398605077,
				"element": "C" 
			},
			{
				"x": 2.6141933058,
				"y": 1.3461465538,
				"z": 0.0700805195,
				"element": "C" 
			},
			{
				"x": 1.4018800766,
				"y": 1.7045768027,
				"z": -0.5375948553,
				"element": "C" 
			},
			{
				"x": 0.2727199082,
				"y": 0.9028210041,
				"z": -0.3846848044,
				"element": "C" 
			},
			{
				"x": 3.7749717857,
				"y": 2.169939201,
				"z": -0.0894297513,
				"element": "C" 
			},
			{
				"x": 4.7163525074,
				"y": 2.8406954642,
				"z": -0.2215907102,
				"element": "N" 
			},
			{
				"x": -1.8744050897,
				"y": -1.3851369713,
				"z": -1.4880615841,
				"element": "C" 
			},
			{
				"x": -3.0750387209,
				"y": -1.3500181874,
				"z": -2.1941178911,
				"element": "C" 
			},
			{
				"x": -3.0039595758,
				"y": -0.3396633497,
				"z": 1.554404264,
				"element": "H" 
			},
			{
				"x": 3.6095818073,
				"y": -0.1333208945,
				"z": 1.321671674,
				"element": "H" 
			},
			{
				"x": 1.3441548326,
				"y": 2.6134524009,
				"z": -1.1258814169,
				"element": "H" 
			},
			{
				"x": -0.6635812213,
				"y": 1.1856814589,
				"z": -0.8508837223,
				"element": "H" 
			},
			{
				"x": -0.9569061022,
				"y": -1.7059148003,
				"z": -1.9688289851,
				"element": "H" 
			},
			{
				"x": -3.1253076493,
				"y": -1.6348090296,
				"z": -3.2392658174,
				"element": "H" 
			}
		],
		 "valence_orbital": [ 
			{
				"type": "occ",
				"energy": -0.33147,
				"method": "rhf"
			},
			{
				"type": "occ",
				"energy": -0.28364,
				"method": "rhf"
			},
			{
				"type": "occ",
				"energy": -0.28167,
				"method": "rhf"
			},
			{
				"type": "occ",
				"energy": -0.26657,
				"method": "rhf"
			},
			{
				"type": "occ",
				"energy": -0.24908,
				"method": "rhf"
			},
			{
				"type": "unocc",
				"energy": -0.05647,
				"method": "rhf"
			},
			{
				"type": "unocc",
				"energy": -0.0461,
				"method": "rhf"
			},
			{
				"type": "unocc",
				"energy": -0.02966,
				"method": "rhf"
			},
			{
				"type": "unocc",
				"energy": -0.02721,
				"method": "rhf"
			},
			{
				"type": "unocc",
				"energy": 0.00551,
				"method": "rhf"
			}
		],
		"cosmo_sigma_profile": { 
			"-0.025": 0.0,
			"-0.024": 0.0,
			"-0.023": 0.0,
			"-0.022": 0.0,
			"-0.021": 0.0,
			"-0.02": 0.0,
			"-0.019": 0.0,
			"-0.018": 0.0,
			"-0.017": 0.0,
			"-0.016": 0.0,
			"-0.015": 0.0,
			"-0.014": 0.0,
			"-0.013": 0.0,
			"-0.012": 0.0,
			"-0.011": 0.0,
			"-0.01": 0.372677161599,
			"-0.009": 4.30938335059,
			"-0.008": 11.0091005566,
			"-0.007": 10.8406712426,
			"-0.006": 11.7257343379,
			"-0.005": 10.4748256913,
			"-0.004": 11.2596382539,
			"-0.003": 12.5104253493,
			"-0.002": 20.8468905824,
			"-0.001": 31.3311539121,
			"0.0": 33.039869146,
			"0.001": 25.7588556116,
			"0.002": 16.0953138499,
			"0.003": 24.8879271528,
			"0.004": 21.7136989757,
			"0.005": 6.11964735936,
			"0.006": 4.69531240866,
			"0.007": 4.18462293411,
			"0.008": 3.98741823642,
			"0.009": 3.51677150753,
			"0.01": 3.16004519152,
			"0.011": 2.7915964273,
			"0.012": 2.52346088997,
			"0.013": 1.39308942664,
			"0.014": 0.0449220359806,
			"0.015": 0.0,
			"0.016": 0.0,
			"0.017": 0.0,
			"0.018": 0.0,
			"0.019": 0.0,
			"0.02": 0.0,
			"0.021": 0.0,
			"0.022": 0.0,
			"0.023": 0.0,
			"0.024": 0.0,
			"0.025": 0.0
		}
	}
}
