{
	 "smiles": "OC(=O)C(NC(=O)C1=CC=CC=C1)=CC1=CC=CO1", 
	 "Tm": 483.15, 
	 "num_atms": 30, 
	 "gaussian": { 
		 "optdone": 1, 
		 "sigma_profile": "yes", 
		 "theory": "DFT", 
		 "functional": "B3LYP", 
		 "basiset": "6-31G**", 
		 "properties": { 
			 "R2extent": 6226.9133, 
			 "electric_dipole_moment_norm": 8.76324365347, 
			 "electric_quadrupole_moment_norm": 31.5584812735, 
			 "total_energy": -895.763615538, 
			 "HOMO_LUMO_gap": 0.14016, 
			 "cosmo_polarized_energy": -17.77, 
			 "cosmo_cavitation_energy": 35.2, 
			 "cosmo_dispersion_energy": -25.24, 
			 "cosmo_repulsion_energy": 1.87, 
			 "cosmo_total_nonelectrostatic_energy": 11.83, 
			 "SMD_solvation_energy": 8.37 
		},
		"coords": [
			{
				"x": -4.3140140022,
				"y": 0.2608924021,
				"z": 0.3422128975,
				"element": "O" 
			},
			{
				"x": -3.9754092788,
				"y": -0.5994384098,
				"z": -0.600261273,
				"element": "C" 
			},
			{
				"x": -4.809220604,
				"y": -1.272747932,
				"z": -1.1767345829,
				"element": "O" 
			},
			{
				"x": -2.5045374348,
				"y": -0.7546480763,
				"z": -1.0018069816,
				"element": "C" 
			},
			{
				"x": -1.3990712888,
				"y": -0.0598761954,
				"z": -0.4471304009,
				"element": "N" 
			},
			{
				"x": -1.2552251542,
				"y": 0.8016291367,
				"z": 0.6022497008,
				"element": "C" 
			},
			{
				"x": -2.1929059779,
				"y": 1.2517990578,
				"z": 1.2801180302,
				"element": "O" 
			},
			{
				"x": 0.1479170359,
				"y": 1.223495139,
				"z": 0.9075399297,
				"element": "C" 
			},
			{
				"x": 1.2738578915,
				"y": 0.4491862245,
				"z": 0.5869451668,
				"element": "C" 
			},
			{
				"x": 2.550867025,
				"y": 0.8981567288,
				"z": 0.9214466279,
				"element": "C" 
			},
			{
				"x": 2.7156287248,
				"y": 2.1203662762,
				"z": 1.5759104312,
				"element": "C" 
			},
			{
				"x": 1.5972497735,
				"y": 2.8887065664,
				"z": 1.9090718725,
				"element": "C" 
			},
			{
				"x": 0.3197337742,
				"y": 2.4395596569,
				"z": 1.5852343307,
				"element": "C" 
			},
			{
				"x": -2.288662244,
				"y": -1.6404581562,
				"z": -2.0114216396,
				"element": "C" 
			},
			{
				"x": -1.0783402146,
				"y": -2.0367386688,
				"z": -2.6659705073,
				"element": "C" 
			},
			{
				"x": -0.8599824658,
				"y": -2.9318469423,
				"z": -3.6873456039,
				"element": "C" 
			},
			{
				"x": 0.5399703978,
				"y": -2.9275529428,
				"z": -3.9598319848,
				"element": "C" 
			},
			{
				"x": 1.0975693777,
				"y": -2.0346876345,
				"z": -3.0960426377,
				"element": "C" 
			},
			{
				"x": 0.1348215964,
				"y": -1.4820822658,
				"z": -2.2990942968,
				"element": "O" 
			},
			{
				"x": -3.5207737984,
				"y": 0.7150889557,
				"z": 0.7623890388,
				"element": "H" 
			},
			{
				"x": -0.5390077015,
				"y": -0.2469726259,
				"z": -0.9477344851,
				"element": "H" 
			},
			{
				"x": 1.1630131114,
				"y": -0.5197101501,
				"z": 0.1090386158,
				"element": "H" 
			},
			{
				"x": 3.4162070835,
				"y": 0.2878415012,
				"z": 0.6809414126,
				"element": "H" 
			},
			{
				"x": 3.7116367443,
				"y": 2.4683797444,
				"z": 1.8335236152,
				"element": "H" 
			},
			{
				"x": 1.7213180937,
				"y": 3.8363222462,
				"z": 2.4244343607,
				"element": "H" 
			},
			{
				"x": -0.560438546,
				"y": 3.0156315263,
				"z": 1.8482509071,
				"element": "H" 
			},
			{
				"x": -3.1887542422,
				"y": -2.1179560031,
				"z": -2.3815523795,
				"element": "H" 
			},
			{
				"x": -1.6220101869,
				"y": -3.5183180162,
				"z": -4.1797863004,
				"element": "H" 
			},
			{
				"x": 1.0644855239,
				"y": -3.5118528116,
				"z": -4.701731852,
				"element": "H" 
			},
			{
				"x": 2.1052769866,
				"y": -1.6902683314,
				"z": -2.9246620122,
				"element": "H" 
			}
		],
		 "valence_orbital": [ 
			{
				"type": "occ",
				"energy": -0.28494,
				"method": "rhf"
			},
			{
				"type": "occ",
				"energy": -0.27545,
				"method": "rhf"
			},
			{
				"type": "occ",
				"energy": -0.27173,
				"method": "rhf"
			},
			{
				"type": "occ",
				"energy": -0.25692,
				"method": "rhf"
			},
			{
				"type": "occ",
				"energy": -0.21601,
				"method": "rhf"
			},
			{
				"type": "unocc",
				"energy": -0.07585,
				"method": "rhf"
			},
			{
				"type": "unocc",
				"energy": -0.04616,
				"method": "rhf"
			},
			{
				"type": "unocc",
				"energy": -0.02449,
				"method": "rhf"
			},
			{
				"type": "unocc",
				"energy": 0.01885,
				"method": "rhf"
			},
			{
				"type": "unocc",
				"energy": 0.03264,
				"method": "rhf"
			}
		],
		"cosmo_sigma_profile": { 
			"-0.025": 0.0,
			"-0.024": 0.0,
			"-0.023": 0.0,
			"-0.022": 0.0,
			"-0.021": 0.0,
			"-0.02": 0.0,
			"-0.019": 0.0,
			"-0.018": 0.0,
			"-0.017": 0.0,
			"-0.016": 0.0,
			"-0.015": 0.0,
			"-0.014": 0.0,
			"-0.013": 0.0,
			"-0.012": 0.0,
			"-0.011": 0.0,
			"-0.01": 1.13998957944,
			"-0.009": 2.17490209026,
			"-0.008": 6.1046134141,
			"-0.007": 11.738844548,
			"-0.006": 19.2322368973,
			"-0.005": 19.6353700555,
			"-0.004": 22.5349814609,
			"-0.003": 19.5661796526,
			"-0.002": 17.5340047945,
			"-0.001": 19.397400763,
			"0.0": 20.5591878299,
			"0.001": 24.6551751904,
			"0.002": 22.5120766218,
			"0.003": 21.4151129105,
			"0.004": 16.2546956993,
			"0.005": 4.32907712639,
			"0.006": 4.10402255957,
			"0.007": 3.16005926347,
			"0.008": 3.34727180257,
			"0.009": 4.75718677858,
			"0.01": 4.42856760993,
			"0.011": 4.79243412007,
			"0.012": 6.0339843575,
			"0.013": 3.73081613029,
			"0.014": 1.59962619899,
			"0.015": 0.091665816256,
			"0.016": 0.0,
			"0.017": 0.0,
			"0.018": 0.0,
			"0.019": 0.0,
			"0.02": 0.0,
			"0.021": 0.0,
			"0.022": 0.0,
			"0.023": 0.0,
			"0.024": 0.0,
			"0.025": 0.0
		}
	}
}
