{
	 "smiles": "[O-][N+](=O)C=CC1=C(Cl)C=CC=C1Cl", 
	 "Tm": 337.15, 
	 "num_atms": 18, 
	 "gaussian": { 
		 "optdone": 1, 
		 "sigma_profile": "yes", 
		 "theory": "DFT", 
		 "functional": "B3LYP", 
		 "basiset": "6-31G**", 
		 "properties": { 
			 "R2extent": 4068.2701, 
			 "electric_dipole_moment_norm": 4.07173591973, 
			 "electric_quadrupole_moment_norm": 9.79781456652, 
			 "total_energy": -1433.31396677, 
			 "HOMO_LUMO_gap": 0.16387, 
			 "cosmo_polarized_energy": -10.48, 
			 "cosmo_cavitation_energy": 27.31, 
			 "cosmo_dispersion_energy": -19.16, 
			 "cosmo_repulsion_energy": 1.55, 
			 "cosmo_total_nonelectrostatic_energy": 9.7, 
			 "SMD_solvation_energy": 6.67 
		},
		"coords": [
			{
				"x": -3.5332091137,
				"y": -2.197752943,
				"z": -0.3005568924,
				"element": "O" 
			},
			{
				"x": -2.6854006376,
				"y": -1.4731042651,
				"z": 0.223216833,
				"element": "N" 
			},
			{
				"x": -1.9182675158,
				"y": -0.7238541812,
				"z": -0.3774426434,
				"element": "O" 
			},
			{
				"x": -2.6221248722,
				"y": -1.5425886648,
				"z": 1.6796078939,
				"element": "C" 
			},
			{
				"x": -1.7779613863,
				"y": -0.841527053,
				"z": 2.435903926,
				"element": "C" 
			},
			{
				"x": -0.7415658294,
				"y": 0.136794479,
				"z": 2.0161118007,
				"element": "C" 
			},
			{
				"x": 0.5853861614,
				"y": -0.256633318,
				"z": 1.7834462011,
				"element": "C" 
			},
			{
				"x": 1.0137871904,
				"y": -1.954658818,
				"z": 1.9056184641,
				"element": "Cl" 
			},
			{
				"x": 1.581716288,
				"y": 0.6593856533,
				"z": 1.454339042,
				"element": "C" 
			},
			{
				"x": 1.2599728201,
				"y": 2.0120334014,
				"z": 1.3653746567,
				"element": "C" 
			},
			{
				"x": -0.0414344926,
				"y": 2.4455881536,
				"z": 1.6092676832,
				"element": "C" 
			},
			{
				"x": -1.0200446149,
				"y": 1.5100600657,
				"z": 1.9366673937,
				"element": "C" 
			},
			{
				"x": -2.6503783989,
				"y": 2.0776496494,
				"z": 2.2553206117,
				"element": "Cl" 
			},
			{
				"x": -3.3499876908,
				"y": -2.2383374218,
				"z": 2.0739059834,
				"element": "H" 
			},
			{
				"x": -1.8643640395,
				"y": -1.0136335375,
				"z": 3.5086661856,
				"element": "H" 
			},
			{
				"x": 2.591419996,
				"y": 0.3101278309,
				"z": 1.2726264524,
				"element": "H" 
			},
			{
				"x": 2.0290281236,
				"y": 2.7332317194,
				"z": 1.107784726,
				"element": "H" 
			},
			{
				"x": -0.3031719877,
				"y": 3.4955192496,
				"z": 1.5489416823,
				"element": "H" 
			}
		],
		 "valence_orbital": [ 
			{
				"type": "occ",
				"energy": -0.31073,
				"method": "rhf"
			},
			{
				"type": "occ",
				"energy": -0.30821,
				"method": "rhf"
			},
			{
				"type": "occ",
				"energy": -0.29552,
				"method": "rhf"
			},
			{
				"type": "occ",
				"energy": -0.26589,
				"method": "rhf"
			},
			{
				"type": "occ",
				"energy": -0.26034,
				"method": "rhf"
			},
			{
				"type": "unocc",
				"energy": -0.09647,
				"method": "rhf"
			},
			{
				"type": "unocc",
				"energy": -0.03604,
				"method": "rhf"
			},
			{
				"type": "unocc",
				"energy": -0.0328,
				"method": "rhf"
			},
			{
				"type": "unocc",
				"energy": -0.00292,
				"method": "rhf"
			},
			{
				"type": "unocc",
				"energy": 0.00887,
				"method": "rhf"
			}
		],
		"cosmo_sigma_profile": { 
			"-0.025": 0.0,
			"-0.024": 0.0,
			"-0.023": 0.0,
			"-0.022": 0.0,
			"-0.021": 0.0,
			"-0.02": 0.0,
			"-0.019": 0.0,
			"-0.018": 0.0,
			"-0.017": 0.0,
			"-0.016": 0.0,
			"-0.015": 0.0,
			"-0.014": 0.0,
			"-0.013": 0.0,
			"-0.012": 0.0,
			"-0.011": 0.56893744718,
			"-0.01": 4.70649426563,
			"-0.009": 4.16080582087,
			"-0.008": 6.71078772097,
			"-0.007": 9.21963422679,
			"-0.006": 9.9365520975,
			"-0.005": 9.24324385145,
			"-0.004": 8.8372452738,
			"-0.003": 11.6448530345,
			"-0.002": 13.4910294419,
			"-0.001": 14.1543200795,
			"0.0": 17.882430459,
			"0.001": 20.9348585818,
			"0.002": 23.6872402049,
			"0.003": 22.4461955864,
			"0.004": 14.3800406576,
			"0.005": 4.29754817705,
			"0.006": 5.46672636591,
			"0.007": 7.44000356551,
			"0.008": 7.97233748791,
			"0.009": 4.7891931226,
			"0.01": 2.12332923397,
			"0.011": 0.0336052632424,
			"0.012": 0.0,
			"0.013": 0.0,
			"0.014": 0.0,
			"0.015": 0.0,
			"0.016": 0.0,
			"0.017": 0.0,
			"0.018": 0.0,
			"0.019": 0.0,
			"0.02": 0.0,
			"0.021": 0.0,
			"0.022": 0.0,
			"0.023": 0.0,
			"0.024": 0.0,
			"0.025": 0.0
		}
	}
}
