{
	 "smiles": "CC(=O)NC1=CC(C=CC(=O)C2=CC=CC=C2)=CC=C1", 
	 "Tm": 377.15, 
	 "num_atms": 35, 
	 "gaussian": { 
		 "optdone": 1, 
		 "sigma_profile": "yes", 
		 "theory": "DFT", 
		 "functional": "B3LYP", 
		 "basiset": "6-31G**", 
		 "properties": { 
			 "R2extent": 11103.2676, 
			 "electric_dipole_moment_norm": 0.412171881622, 
			 "electric_quadrupole_moment_norm": 29.4749792066, 
			 "total_energy": -862.062177919, 
			 "HOMO_LUMO_gap": 0.14615, 
			 "cosmo_polarized_energy": -18.98, 
			 "cosmo_cavitation_energy": 40.33, 
			 "cosmo_dispersion_energy": -29.19, 
			 "cosmo_repulsion_energy": 2.2, 
			 "cosmo_total_nonelectrostatic_energy": 13.34, 
			 "SMD_solvation_energy": 8.05 
		},
		"coords": [
			{
				"x": -1.394758783,
				"y": -6.1617589993,
				"z": -3.4329671947,
				"element": "C" 
			},
			{
				"x": -0.3473923023,
				"y": -5.0843066974,
				"z": -3.1894906641,
				"element": "C" 
			},
			{
				"x": 0.7899673961,
				"y": -5.1891329532,
				"z": -3.6245412715,
				"element": "O" 
			},
			{
				"x": -0.7958489307,
				"y": -4.0088618853,
				"z": -2.4501722894,
				"element": "N" 
			},
			{
				"x": -0.0901018281,
				"y": -2.8551771376,
				"z": -2.0506492282,
				"element": "C" 
			},
			{
				"x": -0.7899503937,
				"y": -1.9022234854,
				"z": -1.2983238367,
				"element": "C" 
			},
			{
				"x": -0.1783779742,
				"y": -0.7209566058,
				"z": -0.8523433853,
				"element": "C" 
			},
			{
				"x": -0.9819052433,
				"y": 0.2191328457,
				"z": -0.0724724245,
				"element": "C" 
			},
			{
				"x": -0.6037103179,
				"y": 1.4059287369,
				"z": 0.4429051304,
				"element": "C" 
			},
			{
				"x": -1.5713415752,
				"y": 2.2142711823,
				"z": 1.2266932994,
				"element": "C" 
			},
			{
				"x": -2.6958772894,
				"y": 1.7849397453,
				"z": 1.4813258112,
				"element": "O" 
			},
			{
				"x": -1.1585952934,
				"y": 3.5689874158,
				"z": 1.7274844048,
				"element": "C" 
			},
			{
				"x": -1.9952898325,
				"y": 4.194776461,
				"z": 2.6665615526,
				"element": "C" 
			},
			{
				"x": -1.6804662771,
				"y": 5.452441978,
				"z": 3.1707800634,
				"element": "C" 
			},
			{
				"x": -0.5270183924,
				"y": 6.1121092839,
				"z": 2.7350108434,
				"element": "C" 
			},
			{
				"x": 0.3059085687,
				"y": 5.5066075722,
				"z": 1.7929898894,
				"element": "C" 
			},
			{
				"x": -0.0050359427,
				"y": 4.2412639121,
				"z": 1.2941631458,
				"element": "C" 
			},
			{
				"x": 1.1746599537,
				"y": -0.5043163012,
				"z": -1.1781276308,
				"element": "C" 
			},
			{
				"x": 1.8677411042,
				"y": -1.449742721,
				"z": -1.9241394764,
				"element": "C" 
			},
			{
				"x": 1.2573481522,
				"y": -2.6258139363,
				"z": -2.3681441458,
				"element": "C" 
			},
			{
				"x": -2.3736105833,
				"y": -5.9477076784,
				"z": -2.9950714969,
				"element": "H" 
			},
			{
				"x": -1.5107070388,
				"y": -6.2963017748,
				"z": -4.51176331,
				"element": "H" 
			},
			{
				"x": -1.0232749338,
				"y": -7.1060705978,
				"z": -3.0258794181,
				"element": "H" 
			},
			{
				"x": -1.7589012887,
				"y": -4.043846416,
				"z": -2.14980356,
				"element": "H" 
			},
			{
				"x": -1.8351073033,
				"y": -2.0763340015,
				"z": -1.049752109,
				"element": "H" 
			},
			{
				"x": -2.0139652375,
				"y": -0.0721186356,
				"z": 0.1187164616,
				"element": "H" 
			},
			{
				"x": 0.4069668852,
				"y": 1.7759843594,
				"z": 0.3143143381,
				"element": "H" 
			},
			{
				"x": -2.8889640211,
				"y": 3.6672445452,
				"z": 2.9820939252,
				"element": "H" 
			},
			{
				"x": -2.33224617,
				"y": 5.9222031073,
				"z": 3.9018167128,
				"element": "H" 
			},
			{
				"x": -0.2805558686,
				"y": 7.0951490075,
				"z": 3.1262807707,
				"element": "H" 
			},
			{
				"x": 1.1976256141,
				"y": 6.0195174234,
				"z": 1.4445049755,
				"element": "H" 
			},
			{
				"x": 0.6480492921,
				"y": 3.7966077182,
				"z": 0.5510494492,
				"element": "H" 
			},
			{
				"x": 1.6786209681,
				"y": 0.3979938278,
				"z": -0.8484047131,
				"element": "H" 
			},
			{
				"x": 2.9110936889,
				"y": -1.2775756584,
				"z": -2.1722656363,
				"element": "H" 
			},
			{
				"x": 1.7988211976,
				"y": -3.3590136366,
				"z": -2.9481789828,
				"element": "H" 
			}
		],
		 "valence_orbital": [ 
			{
				"type": "occ",
				"energy": -0.25844,
				"method": "rhf"
			},
			{
				"type": "occ",
				"energy": -0.25495,
				"method": "rhf"
			},
			{
				"type": "occ",
				"energy": -0.24585,
				"method": "rhf"
			},
			{
				"type": "occ",
				"energy": -0.24104,
				"method": "rhf"
			},
			{
				"type": "occ",
				"energy": -0.22464,
				"method": "rhf"
			},
			{
				"type": "unocc",
				"energy": -0.07849,
				"method": "rhf"
			},
			{
				"type": "unocc",
				"energy": -0.02606,
				"method": "rhf"
			},
			{
				"type": "unocc",
				"energy": -0.01624,
				"method": "rhf"
			},
			{
				"type": "unocc",
				"energy": -0.00607,
				"method": "rhf"
			},
			{
				"type": "unocc",
				"energy": 0.01993,
				"method": "rhf"
			}
		],
		"cosmo_sigma_profile": { 
			"-0.025": 0.0,
			"-0.024": 0.0,
			"-0.023": 0.0,
			"-0.022": 0.0,
			"-0.021": 0.0,
			"-0.02": 0.0,
			"-0.019": 0.0,
			"-0.018": 0.0,
			"-0.017": 0.0,
			"-0.016": 0.0975059536975,
			"-0.015": 1.0504406907,
			"-0.014": 1.66555679652,
			"-0.013": 1.72126575189,
			"-0.012": 1.15464743843,
			"-0.011": 1.65763467119,
			"-0.01": 2.25269049215,
			"-0.009": 2.43499379717,
			"-0.008": 4.83346486311,
			"-0.007": 9.24682124823,
			"-0.006": 17.4326697613,
			"-0.005": 20.6556404391,
			"-0.004": 24.9088902966,
			"-0.003": 22.8193355428,
			"-0.002": 20.9898382198,
			"-0.001": 20.4360125734,
			"0.0": 18.7660369848,
			"0.001": 22.3891858227,
			"0.002": 26.2703772081,
			"0.003": 30.002114618,
			"0.004": 28.2974730933,
			"0.005": 10.0049063102,
			"0.006": 3.76830962977,
			"0.007": 3.54014744395,
			"0.008": 2.41921558416,
			"0.009": 3.66525887233,
			"0.01": 3.64410927822,
			"0.011": 4.14208291276,
			"0.012": 5.69206919844,
			"0.013": 5.52532099179,
			"0.014": 1.78624283568,
			"0.015": 0.178516241686,
			"0.016": 0.0,
			"0.017": 0.0,
			"0.018": 0.0,
			"0.019": 0.0,
			"0.02": 0.0,
			"0.021": 0.0,
			"0.022": 0.0,
			"0.023": 0.0,
			"0.024": 0.0,
			"0.025": 0.0
		}
	}
}
