{
	 "smiles": "NC(C#N)C1=CN(N=C1)C1=CC=CC=C1", 
	 "Tm": 372.15, 
	 "num_atms": 25, 
	 "gaussian": { 
		 "optdone": 1, 
		 "sigma_profile": "yes", 
		 "theory": "DFT", 
		 "functional": "B3LYP", 
		 "basiset": "6-31G**", 
		 "properties": { 
			 "R2extent": 5173.7424, 
			 "electric_dipole_moment_norm": 0.956665772357, 
			 "electric_quadrupole_moment_norm": 18.082641794, 
			 "total_energy": -644.153816334, 
			 "HOMO_LUMO_gap": 0.20005, 
			 "cosmo_polarized_energy": -15.01, 
			 "cosmo_cavitation_energy": 30.57, 
			 "cosmo_dispersion_energy": -21.64, 
			 "cosmo_repulsion_energy": 1.69, 
			 "cosmo_total_nonelectrostatic_energy": 10.62, 
			 "SMD_solvation_energy": 5.2 
		},
		"coords": [
			{
				"x": -2.9462663111,
				"y": -2.5487705274,
				"z": 0.3370011381,
				"element": "N" 
			},
			{
				"x": -1.7608422474,
				"y": -2.7352637543,
				"z": -0.5053202502,
				"element": "C" 
			},
			{
				"x": -2.0664115969,
				"y": -3.318937301,
				"z": -1.8388049665,
				"element": "C" 
			},
			{
				"x": -2.3539816567,
				"y": -3.7794399611,
				"z": -2.8655446814,
				"element": "N" 
			},
			{
				"x": -1.0112060613,
				"y": -1.4349789626,
				"z": -0.6545558276,
				"element": "C" 
			},
			{
				"x": -0.4931889552,
				"y": -0.8606650989,
				"z": -1.7977313463,
				"element": "C" 
			},
			{
				"x": 0.1028962308,
				"y": 0.3083057083,
				"z": -1.4202195038,
				"element": "N" 
			},
			{
				"x": -0.0139128829,
				"y": 0.5261415008,
				"z": -0.0839064096,
				"element": "N" 
			},
			{
				"x": -0.6823962526,
				"y": -0.5222103051,
				"z": 0.379013583,
				"element": "C" 
			},
			{
				"x": 0.7650712434,
				"y": 1.2587980001,
				"z": -2.2443938971,
				"element": "C" 
			},
			{
				"x": 0.9169179431,
				"y": 2.5726909279,
				"z": -1.7880125222,
				"element": "C" 
			},
			{
				"x": 1.5593736441,
				"y": 3.5081275129,
				"z": -2.5960587965,
				"element": "C" 
			},
			{
				"x": 2.043181909,
				"y": 3.1485350961,
				"z": -3.8560601939,
				"element": "C" 
			},
			{
				"x": 1.8901630694,
				"y": 1.8348118766,
				"z": -4.301011933,
				"element": "C" 
			},
			{
				"x": 1.2607794104,
				"y": 0.8841319637,
				"z": -3.4979558683,
				"element": "C" 
			},
			{
				"x": -3.4369359739,
				"y": -3.4312949178,
				"z": 0.4588686413,
				"element": "H" 
			},
			{
				"x": -3.5885864411,
				"y": -1.8997009951,
				"z": -0.1111541704,
				"element": "H" 
			},
			{
				"x": -1.1205356189,
				"y": -3.4661692954,
				"z": 0.0085023582,
				"element": "H" 
			},
			{
				"x": -0.5352119467,
				"y": -1.1848860356,
				"z": -2.8257689538,
				"element": "H" 
			},
			{
				"x": -0.9190861579,
				"y": -0.5965064113,
				"z": 1.4312158806,
				"element": "H" 
			},
			{
				"x": 0.5335516834,
				"y": 2.836555928,
				"z": -0.810246345,
				"element": "H" 
			},
			{
				"x": 1.6757394754,
				"y": 4.5270145445,
				"z": -2.2386070441,
				"element": "H" 
			},
			{
				"x": 2.5387390603,
				"y": 3.8835134295,
				"z": -4.482819121,
				"element": "H" 
			},
			{
				"x": 2.2724721068,
				"y": 1.5389634453,
				"z": -5.2733686206,
				"element": "H" 
			},
			{
				"x": 1.1773763264,
				"y": -0.1417663683,
				"z": -3.8400611498,
				"element": "H" 
			}
		],
		 "valence_orbital": [ 
			{
				"type": "occ",
				"energy": -0.29475,
				"method": "rhf"
			},
			{
				"type": "occ",
				"energy": -0.27225,
				"method": "rhf"
			},
			{
				"type": "occ",
				"energy": -0.26275,
				"method": "rhf"
			},
			{
				"type": "occ",
				"energy": -0.25778,
				"method": "rhf"
			},
			{
				"type": "occ",
				"energy": -0.23016,
				"method": "rhf"
			},
			{
				"type": "unocc",
				"energy": -0.03011,
				"method": "rhf"
			},
			{
				"type": "unocc",
				"energy": -0.01165,
				"method": "rhf"
			},
			{
				"type": "unocc",
				"energy": 0.01511,
				"method": "rhf"
			},
			{
				"type": "unocc",
				"energy": 0.02789,
				"method": "rhf"
			},
			{
				"type": "unocc",
				"energy": 0.03526,
				"method": "rhf"
			}
		],
		"cosmo_sigma_profile": { 
			"-0.025": 0.0,
			"-0.024": 0.0,
			"-0.023": 0.0,
			"-0.022": 0.0,
			"-0.021": 0.0,
			"-0.02": 0.0,
			"-0.019": 0.0,
			"-0.018": 0.0,
			"-0.017": 0.0,
			"-0.016": 0.0,
			"-0.015": 0.0,
			"-0.014": 0.0,
			"-0.013": 0.0165465487896,
			"-0.012": 1.43019589203,
			"-0.011": 3.71272350027,
			"-0.01": 4.32173566536,
			"-0.009": 7.97334197806,
			"-0.008": 8.29148737641,
			"-0.007": 8.13710752643,
			"-0.006": 10.971361537,
			"-0.005": 16.8203836977,
			"-0.004": 15.9972543203,
			"-0.003": 13.5345576461,
			"-0.002": 12.7368405356,
			"-0.001": 12.2329132003,
			"0.0": 13.3330601078,
			"0.001": 15.2574104395,
			"0.002": 16.4593961775,
			"0.003": 16.7912932935,
			"0.004": 16.5700379772,
			"0.005": 12.7886815973,
			"0.006": 4.77942079306,
			"0.007": 4.8572161436,
			"0.008": 6.18489066961,
			"0.009": 5.21236043202,
			"0.01": 4.63568349366,
			"0.011": 4.0535774006,
			"0.012": 4.41577303055,
			"0.013": 2.78479719233,
			"0.014": 0.835616765496,
			"0.015": 0.413124919123,
			"0.016": 0.0115991368556,
			"0.017": 0.0,
			"0.018": 0.0,
			"0.019": 0.0,
			"0.02": 0.0,
			"0.021": 0.0,
			"0.022": 0.0,
			"0.023": 0.0,
			"0.024": 0.0,
			"0.025": 0.0
		}
	}
}
