{
	 "smiles": "OC(=O)C1=CC(=C(C=C1)N1CCCC1)[N+]([O-])=O", 
	 "Tm": 533.15, 
	 "num_atms": 29, 
	 "gaussian": { 
		 "optdone": 1, 
		 "sigma_profile": "yes", 
		 "theory": "DFT", 
		 "functional": "B3LYP", 
		 "basiset": "6-31G**", 
		 "properties": { 
			 "R2extent": 4938.2767, 
			 "electric_dipole_moment_norm": 6.46256225734, 
			 "electric_quadrupole_moment_norm": 23.4875532672, 
			 "total_energy": -836.704441079, 
			 "HOMO_LUMO_gap": 0.14206, 
			 "cosmo_polarized_energy": -19.57, 
			 "cosmo_cavitation_energy": 32.2, 
			 "cosmo_dispersion_energy": -23.7, 
			 "cosmo_repulsion_energy": 1.82, 
			 "cosmo_total_nonelectrostatic_energy": 10.32, 
			 "SMD_solvation_energy": 7.52 
		},
		"coords": [
			{
				"x": 4.8311195533,
				"y": -0.872664489,
				"z": -0.1400268429,
				"element": "O" 
			},
			{
				"x": 3.9088297487,
				"y": -1.7480890743,
				"z": -0.6204607295,
				"element": "C" 
			},
			{
				"x": 4.2702436096,
				"y": -2.8139475854,
				"z": -1.066010739,
				"element": "O" 
			},
			{
				"x": 2.4743840076,
				"y": -1.3375358879,
				"z": -0.5745082155,
				"element": "C" 
			},
			{
				"x": 2.0319001754,
				"y": -0.0476774175,
				"z": -0.3076638803,
				"element": "C" 
			},
			{
				"x": 0.6698258635,
				"y": 0.2649507433,
				"z": -0.2821580342,
				"element": "C" 
			},
			{
				"x": -0.3296770687,
				"y": -0.6928606888,
				"z": -0.6364967136,
				"element": "C" 
			},
			{
				"x": 0.1543126674,
				"y": -2.0190381964,
				"z": -0.8449367325,
				"element": "C" 
			},
			{
				"x": 1.4982015082,
				"y": -2.3227745382,
				"z": -0.824540629,
				"element": "C" 
			},
			{
				"x": -1.6475153446,
				"y": -0.4108593915,
				"z": -0.84106915,
				"element": "N" 
			},
			{
				"x": -2.6201480646,
				"y": -1.4734663364,
				"z": -1.1554147826,
				"element": "C" 
			},
			{
				"x": -3.9325949708,
				"y": -0.7167116522,
				"z": -1.3816708577,
				"element": "C" 
			},
			{
				"x": -3.4531605308,
				"y": 0.6091726294,
				"z": -1.9878921993,
				"element": "C" 
			},
			{
				"x": -2.1976495671,
				"y": 0.9199830972,
				"z": -1.1646796653,
				"element": "C" 
			},
			{
				"x": 0.3576243906,
				"y": 1.5783594282,
				"z": 0.2724135423,
				"element": "N" 
			},
			{
				"x": 1.1567299565,
				"y": 2.4985660269,
				"z": 0.0741562162,
				"element": "O" 
			},
			{
				"x": -0.6510951372,
				"y": 1.6777746933,
				"z": 0.9786655338,
				"element": "O" 
			},
			{
				"x": 4.4036767113,
				"y": -0.1296268026,
				"z": 0.3065166102,
				"element": "H" 
			},
			{
				"x": 2.7060081045,
				"y": 0.7751829609,
				"z": -0.0937763304,
				"element": "H" 
			},
			{
				"x": -0.5514554716,
				"y": -2.8089573144,
				"z": -1.0639408803,
				"element": "H" 
			},
			{
				"x": 1.8342264224,
				"y": -3.3351641569,
				"z": -1.0214237581,
				"element": "H" 
			},
			{
				"x": -2.6780506801,
				"y": -2.2007917356,
				"z": -0.3387345068,
				"element": "H" 
			},
			{
				"x": -2.3235977978,
				"y": -2.0114798185,
				"z": -2.0677049922,
				"element": "H" 
			},
			{
				"x": -4.4361607166,
				"y": -0.5375594529,
				"z": -0.4255370696,
				"element": "H" 
			},
			{
				"x": -4.6185394586,
				"y": -1.2707566614,
				"z": -2.027140383,
				"element": "H" 
			},
			{
				"x": -4.1934439115,
				"y": 1.4102722086,
				"z": -1.9215633583,
				"element": "H" 
			},
			{
				"x": -3.1964146432,
				"y": 0.4716048772,
				"z": -3.0444686592,
				"element": "H" 
			},
			{
				"x": -2.4418912782,
				"y": 1.4702355463,
				"z": -0.2515226997,
				"element": "H" 
			},
			{
				"x": -1.4570880774,
				"y": 1.5091589889,
				"z": -1.7167100934,
				"element": "H" 
			}
		],
		 "valence_orbital": [ 
			{
				"type": "occ",
				"energy": -0.30249,
				"method": "rhf"
			},
			{
				"type": "occ",
				"energy": -0.29982,
				"method": "rhf"
			},
			{
				"type": "occ",
				"energy": -0.27744,
				"method": "rhf"
			},
			{
				"type": "occ",
				"energy": -0.2722,
				"method": "rhf"
			},
			{
				"type": "occ",
				"energy": -0.22688,
				"method": "rhf"
			},
			{
				"type": "unocc",
				"energy": -0.08482,
				"method": "rhf"
			},
			{
				"type": "unocc",
				"energy": -0.04922,
				"method": "rhf"
			},
			{
				"type": "unocc",
				"energy": -0.01809,
				"method": "rhf"
			},
			{
				"type": "unocc",
				"energy": 0.045,
				"method": "rhf"
			},
			{
				"type": "unocc",
				"energy": 0.05412,
				"method": "rhf"
			}
		],
		"cosmo_sigma_profile": { 
			"-0.025": 0.0,
			"-0.024": 0.0,
			"-0.023": 0.0,
			"-0.022": 0.0,
			"-0.021": 0.0,
			"-0.02": 0.123251355594,
			"-0.019": 0.787176892577,
			"-0.018": 0.999101261202,
			"-0.017": 0.831481139951,
			"-0.016": 0.997459893459,
			"-0.015": 0.835250124887,
			"-0.014": 0.934386706308,
			"-0.013": 0.852042511327,
			"-0.012": 1.17913372298,
			"-0.011": 1.235986582,
			"-0.01": 0.996774258536,
			"-0.009": 0.675400025943,
			"-0.008": 1.45165809315,
			"-0.007": 6.73303711676,
			"-0.006": 11.6731684753,
			"-0.005": 15.5496730318,
			"-0.004": 27.2483734999,
			"-0.003": 28.3772459813,
			"-0.002": 20.810836876,
			"-0.001": 18.8237162524,
			"0.0": 16.9783669587,
			"0.001": 14.3099923804,
			"0.002": 10.6508544001,
			"0.003": 7.45536376883,
			"0.004": 4.27043326215,
			"0.005": 5.98234771771,
			"0.006": 5.02872566844,
			"0.007": 7.5325549417,
			"0.008": 11.5312687327,
			"0.009": 8.35547506816,
			"0.01": 8.26798778954,
			"0.011": 6.4073343118,
			"0.012": 5.24407221781,
			"0.013": 2.08735146394,
			"0.014": 0.238055807621,
			"0.015": 0.0,
			"0.016": 0.0,
			"0.017": 0.0,
			"0.018": 0.0,
			"0.019": 0.0,
			"0.02": 0.0,
			"0.021": 0.0,
			"0.022": 0.0,
			"0.023": 0.0,
			"0.024": 0.0,
			"0.0": 0.0
		}
	}
}
