{
	 "smiles": "NC1=CN=C(OC2=CC=C(F)C=C2)C=C1", 
	 "Tm": 321.15, 
	 "num_atms": 24, 
	 "gaussian": { 
		 "optdone": 1, 
		 "sigma_profile": "yes", 
		 "theory": "DFT", 
		 "functional": "B3LYP", 
		 "basiset": "6-31G**", 
		 "properties": { 
			 "R2extent": 4593.7129, 
			 "electric_dipole_moment_norm": 4.26292836792, 
			 "electric_quadrupole_moment_norm": 11.9931000971, 
			 "total_energy": -709.141900499, 
			 "HOMO_LUMO_gap": 0.17716, 
			 "cosmo_polarized_energy": -14.33, 
			 "cosmo_cavitation_energy": 29.49, 
			 "cosmo_dispersion_energy": -21.42, 
			 "cosmo_repulsion_energy": 1.65, 
			 "cosmo_total_nonelectrostatic_energy": 9.72, 
			 "SMD_solvation_energy": 4.19 
		},
		"coords": [
			{
				"x": 2.3583823163,
				"y": 1.0305379862,
				"z": -3.9121018988,
				"element": "N" 
			},
			{
				"x": 1.4948666748,
				"y": 0.9693177377,
				"z": -2.8159580948,
				"element": "C" 
			},
			{
				"x": 0.4671394131,
				"y": 1.908918964,
				"z": -2.6388634095,
				"element": "C" 
			},
			{
				"x": -0.4296171949,
				"y": 1.8598972939,
				"z": -1.6505322616,
				"element": "N" 
			},
			{
				"x": -0.3404107828,
				"y": 0.8723504079,
				"z": -0.7728659001,
				"element": "C" 
			},
			{
				"x": -1.2545378123,
				"y": 0.9436348214,
				"z": 0.2598402716,
				"element": "O" 
			},
			{
				"x": -1.7823768664,
				"y": -0.2105655926,
				"z": 0.8006798751,
				"element": "C" 
			},
			{
				"x": -1.9278626093,
				"y": -0.2525764078,
				"z": 2.1896450445,
				"element": "C" 
			},
			{
				"x": -2.5290429324,
				"y": -1.3554421985,
				"z": 2.7954005441,
				"element": "C" 
			},
			{
				"x": -2.966980673,
				"y": -2.4057505373,
				"z": 1.9969027244,
				"element": "C" 
			},
			{
				"x": -3.5425626562,
				"y": -3.480366581,
				"z": 2.5799911164,
				"element": "F" 
			},
			{
				"x": -2.8304822124,
				"y": -2.3799020496,
				"z": 0.6132032795,
				"element": "C" 
			},
			{
				"x": -2.2391840283,
				"y": -1.2705339205,
				"z": 0.0094205381,
				"element": "C" 
			},
			{
				"x": 0.6499941369,
				"y": -0.1168275552,
				"z": -0.8292025286,
				"element": "C" 
			},
			{
				"x": 1.569233581,
				"y": -0.0655052977,
				"z": -1.8687210197,
				"element": "C" 
			},
			{
				"x": 2.4367886277,
				"y": 1.9447597385,
				"z": -4.3373936817,
				"element": "H" 
			},
			{
				"x": 3.2676263624,
				"y": 0.6138996623,
				"z": -3.7634587203,
				"element": "H" 
			},
			{
				"x": 0.3654393952,
				"y": 2.7382078751,
				"z": -3.3391852206,
				"element": "H" 
			},
			{
				"x": -1.5735810925,
				"y": 0.586167677,
				"z": 2.779128224,
				"element": "H" 
			},
			{
				"x": -2.6555037538,
				"y": -1.4099959907,
				"z": 3.8711687128,
				"element": "H" 
			},
			{
				"x": -3.194561234,
				"y": -3.2143027039,
				"z": 0.0235482512,
				"element": "H" 
			},
			{
				"x": -2.1385898617,
				"y": -1.223642073,
				"z": -1.0694410291,
				"element": "H" 
			},
			{
				"x": 0.6992073473,
				"y": -0.8981854605,
				"z": -0.0795475609,
				"element": "H" 
			},
			{
				"x": 2.3477158551,
				"y": -0.8205957957,
				"z": -1.945057256,
				"element": "H" 
			}
		],
		 "valence_orbital": [ 
			{
				"type": "occ",
				"energy": -0.28072,
				"method": "rhf"
			},
			{
				"type": "occ",
				"energy": -0.26224,
				"method": "rhf"
			},
			{
				"type": "occ",
				"energy": -0.26207,
				"method": "rhf"
			},
			{
				"type": "occ",
				"energy": -0.23301,
				"method": "rhf"
			},
			{
				"type": "occ",
				"energy": -0.20284,
				"method": "rhf"
			},
			{
				"type": "unocc",
				"energy": -0.02568,
				"method": "rhf"
			},
			{
				"type": "unocc",
				"energy": -0.00993,
				"method": "rhf"
			},
			{
				"type": "unocc",
				"energy": 0.00046,
				"method": "rhf"
			},
			{
				"type": "unocc",
				"energy": 0.01756,
				"method": "rhf"
			},
			{
				"type": "unocc",
				"energy": 0.07137,
				"method": "rhf"
			}
		],
		"cosmo_sigma_profile": { 
			"-0.025": 0.0,
			"-0.024": 0.0,
			"-0.023": 0.0,
			"-0.022": 0.0,
			"-0.021": 0.0,
			"-0.02": 0.0,
			"-0.019": 0.0,
			"-0.018": 0.0,
			"-0.017": 0.0,
			"-0.016": 0.0,
			"-0.015": 0.0,
			"-0.014": 0.0,
			"-0.013": 0.983847473149,
			"-0.012": 3.1326802942,
			"-0.011": 3.30767546084,
			"-0.01": 3.82509564187,
			"-0.009": 3.1799783345,
			"-0.008": 3.98523440535,
			"-0.007": 11.9090654587,
			"-0.006": 12.4126253396,
			"-0.005": 14.6107220763,
			"-0.004": 11.7055104691,
			"-0.003": 10.1580210236,
			"-0.002": 9.67712374701,
			"-0.001": 11.6401218962,
			"0.0": 14.5633784354,
			"0.001": 18.2144092075,
			"0.002": 23.986081635,
			"0.003": 26.9036123807,
			"0.004": 18.2281401035,
			"0.005": 8.33643653057,
			"0.006": 3.37733716302,
			"0.007": 2.91430157975,
			"0.008": 2.56596824883,
			"0.009": 3.59476958335,
			"0.01": 2.64905226798,
			"0.011": 2.16500450584,
			"0.012": 1.81660708069,
			"0.013": 2.5074056006,
			"0.014": 1.77606246814,
			"0.015": 1.23943831171,
			"0.016": 0.929000889663,
			"0.017": 0.187753481409,
			"0.018": 0.0,
			"0.019": 0.0,
			"0.02": 0.0,
			"0.021": 0.0,
			"0.022": 0.0,
			"0.023": 0.0,
			"0.024": 0.0,
			"0.025": 0.0
		}
	}
}
