{
	 "smiles": "CC(C)(C)OC(=O)NC1=CC=C(CC(O)=O)C=C1", 
	 "Tm": 427.15, 
	 "num_atms": 35, 
	 "gaussian": { 
		 "optdone": 1, 
		 "sigma_profile": "yes", 
		 "theory": "DFT", 
		 "functional": "B3LYP", 
		 "basiset": "6-31G**", 
		 "properties": { 
			 "R2extent": 7565.1418, 
			 "electric_dipole_moment_norm": 4.74883324618, 
			 "electric_quadrupole_moment_norm": 39.0204087664, 
			 "total_energy": -861.328444845, 
			 "HOMO_LUMO_gap": 0.20346, 
			 "cosmo_polarized_energy": -18.51, 
			 "cosmo_cavitation_energy": 38.48, 
			 "cosmo_dispersion_energy": -26.65, 
			 "cosmo_repulsion_energy": 2.06, 
			 "cosmo_total_nonelectrostatic_energy": 13.9, 
			 "SMD_solvation_energy": 8.72 
		},
		"coords": [
			{
				"x": -1.318440278,
				"y": -3.0747189755,
				"z": -2.2128415449,
				"element": "C" 
			},
			{
				"x": -1.7361473984,
				"y": -1.6310421509,
				"z": -1.9193391478,
				"element": "C" 
			},
			{
				"x": -2.7040749398,
				"y": -1.5733551919,
				"z": -0.7354137841,
				"element": "C" 
			},
			{
				"x": -2.3306677072,
				"y": -0.9306402274,
				"z": -3.1444281671,
				"element": "C" 
			},
			{
				"x": -0.5723227093,
				"y": -0.8634403198,
				"z": -1.4178969174,
				"element": "O" 
			},
			{
				"x": 0.5119847267,
				"y": -0.6849565073,
				"z": -2.1897932153,
				"element": "C" 
			},
			{
				"x": 0.676549254,
				"y": -1.1034508524,
				"z": -3.3230469332,
				"element": "O" 
			},
			{
				"x": 1.4999067358,
				"y": 0.0601357042,
				"z": -1.5672583363,
				"element": "N" 
			},
			{
				"x": 1.6193778362,
				"y": 0.6788725429,
				"z": -0.3117565214,
				"element": "C" 
			},
			{
				"x": 0.6611287307,
				"y": 0.6165221843,
				"z": 0.7112638275,
				"element": "C" 
			},
			{
				"x": 0.8967252834,
				"y": 1.2688161073,
				"z": 1.9219732595,
				"element": "C" 
			},
			{
				"x": 2.0698221953,
				"y": 1.9976119947,
				"z": 2.1634266868,
				"element": "C" 
			},
			{
				"x": 2.2906682646,
				"y": 2.725130558,
				"z": 3.4692143414,
				"element": "C" 
			},
			{
				"x": 1.8001981524,
				"y": 4.1837439633,
				"z": 3.5242757513,
				"element": "C" 
			},
			{
				"x": 0.9015638413,
				"y": 4.5543233067,
				"z": 2.5839172621,
				"element": "O" 
			},
			{
				"x": 2.1636270393,
				"y": 4.9557013084,
				"z": 4.3759657052,
				"element": "O" 
			},
			{
				"x": 3.0198057244,
				"y": 2.0508208552,
				"z": 1.1314962755,
				"element": "C" 
			},
			{
				"x": 2.8025388477,
				"y": 1.4057583429,
				"z": -0.078578356,
				"element": "C" 
			},
			{
				"x": -0.6157181904,
				"y": -3.1191176223,
				"z": -3.0448463242,
				"element": "H" 
			},
			{
				"x": -0.8543635274,
				"y": -3.5242196498,
				"z": -1.3293392486,
				"element": "H" 
			},
			{
				"x": -2.2049693792,
				"y": -3.6644960403,
				"z": -2.4669957524,
				"element": "H" 
			},
			{
				"x": -2.9640208196,
				"y": -0.5380050976,
				"z": -0.4961011525,
				"element": "H" 
			},
			{
				"x": -3.6245175683,
				"y": -2.1109188739,
				"z": -0.9807929465,
				"element": "H" 
			},
			{
				"x": -2.2617624477,
				"y": -2.0368630095,
				"z": 0.1514276356,
				"element": "H" 
			},
			{
				"x": -1.6369912483,
				"y": -0.952603962,
				"z": -3.9848980046,
				"element": "H" 
			},
			{
				"x": -3.2567165884,
				"y": -1.4355760474,
				"z": -3.4373487108,
				"element": "H" 
			},
			{
				"x": -2.5725468776,
				"y": 0.1103727938,
				"z": -2.908294802,
				"element": "H" 
			},
			{
				"x": 2.2885804717,
				"y": 0.1740488906,
				"z": -2.1888128827,
				"element": "H" 
			},
			{
				"x": -0.2511756511,
				"y": 0.0586500912,
				"z": 0.564488134,
				"element": "H" 
			},
			{
				"x": 0.145509414,
				"y": 1.1932353619,
				"z": 2.7051748088,
				"element": "H" 
			},
			{
				"x": 3.349107904,
				"y": 2.7517431298,
				"z": 3.741632206,
				"element": "H" 
			},
			{
				"x": 1.7773761193,
				"y": 2.2067543089,
				"z": 4.2883537662,
				"element": "H" 
			},
			{
				"x": 0.7626476809,
				"y": 3.817673839,
				"z": 1.9659511288,
				"element": "H" 
			},
			{
				"x": 3.9442680747,
				"y": 2.6031297376,
				"z": 1.2790702646,
				"element": "H" 
			},
			{
				"x": 3.557949034,
				"y": 1.4616595075,
				"z": -0.8587483056,
				"element": "H" 
			}
		],
		 "valence_orbital": [ 
			{
				"type": "occ",
				"energy": -0.30486,
				"method": "rhf"
			},
			{
				"type": "occ",
				"energy": -0.28164,
				"method": "rhf"
			},
			{
				"type": "occ",
				"energy": -0.27186,
				"method": "rhf"
			},
			{
				"type": "occ",
				"energy": -0.26687,
				"method": "rhf"
			},
			{
				"type": "occ",
				"energy": -0.22825,
				"method": "rhf"
			},
			{
				"type": "unocc",
				"energy": -0.02479,
				"method": "rhf"
			},
			{
				"type": "unocc",
				"energy": -0.02414,
				"method": "rhf"
			},
			{
				"type": "unocc",
				"energy": 0.01891,
				"method": "rhf"
			},
			{
				"type": "unocc",
				"energy": 0.04847,
				"method": "rhf"
			},
			{
				"type": "unocc",
				"energy": 0.06592,
				"method": "rhf"
			}
		],
		"cosmo_sigma_profile": { 
			"-0.025": 0.0,
			"-0.024": 0.0,
			"-0.023": 0.0,
			"-0.022": 0.0,
			"-0.021": 0.0,
			"-0.02": 0.0,
			"-0.019": 0.0,
			"-0.018": 0.0,
			"-0.017": 0.0,
			"-0.016": 0.0,
			"-0.015": 0.368354661858,
			"-0.014": 1.20098390485,
			"-0.013": 1.64875591884,
			"-0.012": 1.54488979482,
			"-0.011": 2.02765268208,
			"-0.01": 1.87405412186,
			"-0.009": 2.32002920162,
			"-0.008": 4.04392707135,
			"-0.007": 10.1948573736,
			"-0.006": 14.2179459054,
			"-0.005": 12.8488090798,
			"-0.004": 23.2800338704,
			"-0.003": 24.9662122217,
			"-0.002": 26.2069317068,
			"-0.001": 26.5888183821,
			"0.0": 35.0228760407,
			"0.001": 22.4672695517,
			"0.002": 15.1427776424,
			"0.003": 15.3790336986,
			"0.004": 11.5278548792,
			"0.005": 7.05110657792,
			"0.006": 4.0626277024,
			"0.007": 3.29992358483,
			"0.008": 3.93398551172,
			"0.009": 4.36760957698,
			"0.01": 5.70748323062,
			"0.011": 6.48488102694,
			"0.012": 8.44705111912,
			"0.013": 6.53436936518,
			"0.014": 0.465018849468,
			"0.015": 0.0,
			"0.016": 0.0,
			"0.017": 0.0,
			"0.018": 0.0,
			"0.019": 0.0,
			"0.02": 0.0,
			"0.021": 0.0,
			"0.022": 0.0,
			"0.023": 0.0,
			"0.024": 0.0,
			"0.025": 0.0
		}
	}
}
