{
	 "smiles": "CC(C)C1=CC=C(OCCC(O)=O)C=C1", 
	 "Tm": 387.15, 
	 "num_atms": 31, 
	 "gaussian": { 
		 "optdone": 1, 
		 "sigma_profile": "yes", 
		 "theory": "DFT", 
		 "functional": "B3LYP", 
		 "basiset": "6-31G**", 
		 "properties": { 
			 "R2extent": 4846.0802, 
			 "electric_dipole_moment_norm": 1.88379352903, 
			 "electric_quadrupole_moment_norm": 9.03314205745, 
			 "total_energy": -692.60902199, 
			 "HOMO_LUMO_gap": 0.22641, 
			 "cosmo_polarized_energy": -11.82, 
			 "cosmo_cavitation_energy": 34.11, 
			 "cosmo_dispersion_energy": -23.78, 
			 "cosmo_repulsion_energy": 1.9, 
			 "cosmo_total_nonelectrostatic_energy": 12.23, 
			 "SMD_solvation_energy": 7.02 
		},
		"coords": [
			{
				"x": 4.2554360556,
				"y": -1.2284703031,
				"z": -1.0188405156,
				"element": "C" 
			},
			{
				"x": 3.1165144677,
				"y": -2.2134548396,
				"z": -1.3437402904,
				"element": "C" 
			},
			{
				"x": 3.2223830078,
				"y": -2.7210325317,
				"z": -2.7942883445,
				"element": "C" 
			},
			{
				"x": 1.7465759536,
				"y": -1.6153578444,
				"z": -1.0503744467,
				"element": "C" 
			},
			{
				"x": 1.2814191825,
				"y": -0.479848444,
				"z": -1.7312961896,
				"element": "C" 
			},
			{
				"x": 0.0270951047,
				"y": 0.0671410671,
				"z": -1.463164031,
				"element": "C" 
			},
			{
				"x": -0.7931007332,
				"y": -0.5274113643,
				"z": -0.5004997433,
				"element": "C" 
			},
			{
				"x": -2.0642684778,
				"y": -0.0225675312,
				"z": -0.2772436413,
				"element": "O" 
			},
			{
				"x": -2.2288487138,
				"y": 0.7621992798,
				"z": 0.9031027049,
				"element": "C" 
			},
			{
				"x": -1.6468521491,
				"y": 2.1759170407,
				"z": 0.7475350549,
				"element": "C" 
			},
			{
				"x": -2.2445535206,
				"y": 2.9062731703,
				"z": -0.4349726906,
				"element": "C" 
			},
			{
				"x": -3.5664412207,
				"y": 3.1483931771,
				"z": -0.2563225701,
				"element": "O" 
			},
			{
				"x": -1.6517534692,
				"y": 3.2413435302,
				"z": -1.436821757,
				"element": "O" 
			},
			{
				"x": -0.354691645,
				"y": -1.6597957973,
				"z": 0.1881932074,
				"element": "C" 
			},
			{
				"x": 0.9059624859,
				"y": -2.1906981871,
				"z": -0.0885931987,
				"element": "C" 
			},
			{
				"x": 5.2319776012,
				"y": -1.6978912771,
				"z": -1.181342339,
				"element": "H" 
			},
			{
				"x": 4.2051682671,
				"y": -0.3387489854,
				"z": -1.6561937461,
				"element": "H" 
			},
			{
				"x": 4.2062021705,
				"y": -0.895012808,
				"z": 0.0224600413,
				"element": "H" 
			},
			{
				"x": 3.2350883246,
				"y": -3.0820891495,
				"z": -0.6823744381,
				"element": "H" 
			},
			{
				"x": 4.1923905824,
				"y": -3.2001191964,
				"z": -2.967540108,
				"element": "H" 
			},
			{
				"x": 3.1260607562,
				"y": -1.8978737685,
				"z": -3.5108446634,
				"element": "H" 
			},
			{
				"x": 2.4367661894,
				"y": -3.4495667999,
				"z": -3.0172810586,
				"element": "H" 
			},
			{
				"x": 1.9070587301,
				"y": -0.0073772964,
				"z": -2.4840633424,
				"element": "H" 
			},
			{
				"x": -0.3261991098,
				"y": 0.952228369,
				"z": -1.9825908717,
				"element": "H" 
			},
			{
				"x": -1.7627263744,
				"y": 0.2684546202,
				"z": 1.7661783559,
				"element": "H" 
			},
			{
				"x": -3.3069861733,
				"y": 0.8175002608,
				"z": 1.0721821219,
				"element": "H" 
			},
			{
				"x": -0.5657530702,
				"y": 2.1355976835,
				"z": 0.6024621478,
				"element": "H" 
			},
			{
				"x": -1.8595276974,
				"y": 2.7420360752,
				"z": 1.6619571888,
				"element": "H" 
			},
			{
				"x": -3.8743737782,
				"y": 3.5820271878,
				"z": -1.0698866164,
				"element": "H" 
			},
			{
				"x": -1.0074511432,
				"y": -2.1277577481,
				"z": 0.9193745356,
				"element": "H" 
			},
			{
				"x": 1.2386283965,
				"y": -3.0763375896,
				"z": 0.4478292438,
				"element": "H" 
			}
		],
		 "valence_orbital": [ 
			{
				"type": "occ",
				"energy": -0.3167,
				"method": "rhf"
			},
			{
				"type": "occ",
				"energy": -0.28158,
				"method": "rhf"
			},
			{
				"type": "occ",
				"energy": -0.26911,
				"method": "rhf"
			},
			{
				"type": "occ",
				"energy": -0.24682,
				"method": "rhf"
			},
			{
				"type": "occ",
				"energy": -0.22687,
				"method": "rhf"
			},
			{
				"type": "unocc",
				"energy": -0.00046,
				"method": "rhf"
			},
			{
				"type": "unocc",
				"energy": 0.00505,
				"method": "rhf"
			},
			{
				"type": "unocc",
				"energy": 0.00822,
				"method": "rhf"
			},
			{
				"type": "unocc",
				"energy": 0.07502,
				"method": "rhf"
			},
			{
				"type": "unocc",
				"energy": 0.08844,
				"method": "rhf"
			}
		],
		"cosmo_sigma_profile": { 
			"-0.025": 0.0,
			"-0.024": 0.0,
			"-0.023": 0.0,
			"-0.022": 0.0,
			"-0.021": 0.0,
			"-0.02": 0.0,
			"-0.019": 0.0,
			"-0.018": 0.860053297383,
			"-0.017": 0.638552376592,
			"-0.016": 1.24132244166,
			"-0.015": 0.795219720639,
			"-0.014": 0.703411017908,
			"-0.013": 0.147641508314,
			"-0.012": 0.70322904313,
			"-0.011": 1.17176996196,
			"-0.01": 0.716322016403,
			"-0.009": 0.465681956896,
			"-0.008": 0.503904591924,
			"-0.007": 3.13767412316,
			"-0.006": 6.97961103374,
			"-0.005": 17.735360691,
			"-0.004": 20.0407849888,
			"-0.003": 26.8833049874,
			"-0.002": 25.7516030039,
			"-0.001": 23.1396841787,
			"0.0": 22.438495888,
			"0.001": 25.5447759264,
			"0.002": 16.5470726667,
			"0.003": 12.8459848625,
			"0.004": 13.7047321529,
			"0.005": 12.7645349736,
			"0.006": 8.45400982492,
			"0.007": 3.79478154526,
			"0.008": 4.00528478108,
			"0.009": 3.7559387689,
			"0.01": 3.19953645692,
			"0.011": 4.58398249403,
			"0.012": 4.13490958476,
			"0.013": 0.118376953692,
			"0.014": 0.0,
			"0.015": 0.0,
			"0.016": 0.0,
			"0.017": 0.0,
			"0.018": 0.0,
			"0.019": 0.0,
			"0.02": 0.0,
			"0.021": 0.0,
			"0.022": 0.0,
			"0.023": 0.0,
			"0.024": 0.0,
			"0.025": 0.0
		}
	}
}
