{
	 "smiles": "C1CN=C(N1)C1=CC=CC=C1", 
	 "Tm": 369.65, 
	 "num_atms": 21, 
	 "gaussian": { 
		 "optdone": 1, 
		 "sigma_profile": "yes", 
		 "theory": "DFT", 
		 "functional": "B3LYP", 
		 "basiset": "6-31G**", 
		 "properties": { 
			 "R2extent": 2212.0954, 
			 "electric_dipole_moment_norm": 2.38223341426, 
			 "electric_quadrupole_moment_norm": 7.38317948651, 
			 "total_energy": -458.481585369, 
			 "HOMO_LUMO_gap": 0.18478, 
			 "cosmo_polarized_energy": -9.86, 
			 "cosmo_cavitation_energy": 24.02, 
			 "cosmo_dispersion_energy": -18.3, 
			 "cosmo_repulsion_energy": 1.47, 
			 "cosmo_total_nonelectrostatic_energy": 7.2, 
			 "SMD_solvation_energy": -0.13 
		},
		"coords": [
			{
				"x": -1.6343435175,
				"y": 1.19102834,
				"z": 1.9488803967,
				"element": "C" 
			},
			{
				"x": -0.1489380226,
				"y": 1.1380079732,
				"z": 2.3994559431,
				"element": "C" 
			},
			{
				"x": 0.5364740454,
				"y": 0.2785237991,
				"z": 1.4242221462,
				"element": "N" 
			},
			{
				"x": -0.3817915377,
				"y": -0.3031308462,
				"z": 0.7357623116,
				"element": "C" 
			},
			{
				"x": -1.7061304687,
				"y": 0.0045375189,
				"z": 1.0809481995,
				"element": "N" 
			},
			{
				"x": -0.102982629,
				"y": -1.2819737716,
				"z": -0.336005424,
				"element": "C" 
			},
			{
				"x": -1.0994923143,
				"y": -2.1425741782,
				"z": -0.8191161723,
				"element": "C" 
			},
			{
				"x": -0.8118306934,
				"y": -3.0531925207,
				"z": -1.8366442222,
				"element": "C" 
			},
			{
				"x": 0.4723790731,
				"y": -3.113997626,
				"z": -2.3789735156,
				"element": "C" 
			},
			{
				"x": 1.4723438233,
				"y": -2.2645600789,
				"z": -1.8947040254,
				"element": "C" 
			},
			{
				"x": 1.1890338305,
				"y": -1.3555926692,
				"z": -0.8795072162,
				"element": "C" 
			},
			{
				"x": -1.8530119329,
				"y": 2.1107051443,
				"z": 1.3874038975,
				"element": "H" 
			},
			{
				"x": -2.340445558,
				"y": 1.1224099466,
				"z": 2.7815641568,
				"element": "H" 
			},
			{
				"x": -0.0549074645,
				"y": 0.6893294993,
				"z": 3.3979396404,
				"element": "H" 
			},
			{
				"x": 0.3181460491,
				"y": 2.1271777143,
				"z": 2.4457526597,
				"element": "H" 
			},
			{
				"x": -2.3679908694,
				"y": 0.0415885557,
				"z": 0.3156030927,
				"element": "H" 
			},
			{
				"x": -2.091857201,
				"y": -2.122338164,
				"z": -0.3787668452,
				"element": "H" 
			},
			{
				"x": -1.5894477831,
				"y": -3.7190011353,
				"z": -2.1998225,
				"element": "H" 
			},
			{
				"x": 0.6956060599,
				"y": -3.8220102941,
				"z": -3.172034274,
				"element": "H" 
			},
			{
				"x": 2.4742708203,
				"y": -2.3119692577,
				"z": -2.3117172867,
				"element": "H" 
			},
			{
				"x": 1.9513162906,
				"y": -0.6903679495,
				"z": -0.4886409626,
				"element": "H" 
			}
		],
		 "valence_orbital": [ 
			{
				"type": "occ",
				"energy": -0.33282,
				"method": "rhf"
			},
			{
				"type": "occ",
				"energy": -0.25738,
				"method": "rhf"
			},
			{
				"type": "occ",
				"energy": -0.25223,
				"method": "rhf"
			},
			{
				"type": "occ",
				"energy": -0.24872,
				"method": "rhf"
			},
			{
				"type": "occ",
				"energy": -0.21377,
				"method": "rhf"
			},
			{
				"type": "unocc",
				"energy": -0.02899,
				"method": "rhf"
			},
			{
				"type": "unocc",
				"energy": -0.00217,
				"method": "rhf"
			},
			{
				"type": "unocc",
				"energy": 0.06502,
				"method": "rhf"
			},
			{
				"type": "unocc",
				"energy": 0.08415,
				"method": "rhf"
			},
			{
				"type": "unocc",
				"energy": 0.09945,
				"method": "rhf"
			}
		],
		"cosmo_sigma_profile": { 
			"-0.025": 0.0,
			"-0.024": 0.0,
			"-0.023": 0.0,
			"-0.022": 0.0,
			"-0.021": 0.0,
			"-0.02": 0.0,
			"-0.019": 0.0,
			"-0.018": 0.0,
			"-0.017": 0.0,
			"-0.016": 0.0,
			"-0.015": 0.0,
			"-0.014": 0.0,
			"-0.013": 0.407495491496,
			"-0.012": 1.30135060302,
			"-0.011": 1.54855449915,
			"-0.01": 0.739390957745,
			"-0.009": 1.63610006093,
			"-0.008": 1.93153797319,
			"-0.007": 1.75673026571,
			"-0.006": 7.50137398787,
			"-0.005": 10.8744931968,
			"-0.004": 21.5927535798,
			"-0.003": 21.7126474508,
			"-0.002": 18.5922446067,
			"-0.001": 12.3572578273,
			"0.0": 10.0744273803,
			"0.001": 9.30430305637,
			"0.002": 11.3136000214,
			"0.003": 12.0128220534,
			"0.004": 13.0197376938,
			"0.005": 13.6552782296,
			"0.006": 3.32121022216,
			"0.007": 2.12721615047,
			"0.008": 2.0001021941,
			"0.009": 2.0300740623,
			"0.01": 2.29575073603,
			"0.011": 1.83495006534,
			"0.012": 1.55449483722,
			"0.013": 0.756734855391,
			"0.014": 0.718544749927,
			"0.015": 1.08720168583,
			"0.016": 1.23400047025,
			"0.017": 0.541152922052,
			"0.018": 0.177326488352,
			"0.019": 0.0,
			"0.02": 0.0,
			"0.021": 0.0,
			"0.022": 0.0,
			"0.023": 0.0,
			"0.024": 0.0,
			"0.025": 0.0
		}
	}
}
