{
	 "smiles": "CCS(=O)(=O)C1=C(N)C=C(Cl)C=C1", 
	 "Tm": 359.15, 
	 "num_atms": 23, 
	 "gaussian": { 
		 "optdone": 1, 
		 "sigma_profile": "yes", 
		 "theory": "DFT", 
		 "functional": "B3LYP", 
		 "basiset": "6-31G**", 
		 "properties": { 
			 "R2extent": 4588.918, 
			 "electric_dipole_moment_norm": 3.61870464393, 
			 "electric_quadrupole_moment_norm": 14.1772054362, 
			 "total_energy": -1374.409755, 
			 "HOMO_LUMO_gap": 0.18975, 
			 "cosmo_polarized_energy": -14.36, 
			 "cosmo_cavitation_energy": 29.28, 
			 "cosmo_dispersion_energy": -21.99, 
			 "cosmo_repulsion_energy": 1.7, 
			 "cosmo_total_nonelectrostatic_energy": 8.99, 
			 "SMD_solvation_energy": 4.16 
		},
		"coords": [
			{
				"x": 1.292557391,
				"y": -3.0043732369,
				"z": -1.8651901711,
				"element": "C" 
			},
			{
				"x": 1.4723610816,
				"y": -1.6549817075,
				"z": -1.172743504,
				"element": "C" 
			},
			{
				"x": 1.0316173703,
				"y": -1.77027597,
				"z": 0.5903511486,
				"element": "S" 
			},
			{
				"x": 2.0363201694,
				"y": -2.6083308326,
				"z": 1.2639109537,
				"element": "O" 
			},
			{
				"x": -0.4028162307,
				"y": -2.1391293368,
				"z": 0.6619858476,
				"element": "O" 
			},
			{
				"x": 1.2064945893,
				"y": -0.0897426765,
				"z": 1.1827436026,
				"element": "C" 
			},
			{
				"x": 0.2303649811,
				"y": 0.8959530446,
				"z": 0.8901899265,
				"element": "C" 
			},
			{
				"x": -0.8895195892,
				"y": 0.6184296698,
				"z": 0.1320005641,
				"element": "N" 
			},
			{
				"x": 0.4706529406,
				"y": 2.2029252628,
				"z": 1.3590018756,
				"element": "C" 
			},
			{
				"x": 1.6163781887,
				"y": 2.485510111,
				"z": 2.090667904,
				"element": "C" 
			},
			{
				"x": 1.868032218,
				"y": 4.1280335225,
				"z": 2.6564848446,
				"element": "Cl" 
			},
			{
				"x": 2.5661083135,
				"y": 1.5080642178,
				"z": 2.4001298322,
				"element": "C" 
			},
			{
				"x": 2.3434133801,
				"y": 0.2174697664,
				"z": 1.9341965927,
				"element": "C" 
			},
			{
				"x": 1.5588326099,
				"y": -2.9093748981,
				"z": -2.9218137835,
				"element": "H" 
			},
			{
				"x": 0.255612913,
				"y": -3.3417395914,
				"z": -1.7968591818,
				"element": "H" 
			},
			{
				"x": 1.9363845814,
				"y": -3.7627512136,
				"z": -1.413025458,
				"element": "H" 
			},
			{
				"x": 0.8251384584,
				"y": -0.8799482437,
				"z": -1.5941717464,
				"element": "H" 
			},
			{
				"x": 2.5092011435,
				"y": -1.3088080243,
				"z": -1.1989901978,
				"element": "H" 
			},
			{
				"x": -1.6163929751,
				"y": 1.3189848367,
				"z": 0.1550608439,
				"element": "H" 
			},
			{
				"x": -1.2230683511,
				"y": -0.3392390685,
				"z": 0.1894731759,
				"element": "H" 
			},
			{
				"x": -0.2491804893,
				"y": 2.9884113735,
				"z": 1.1539400317,
				"element": "H" 
			},
			{
				"x": 3.4443297292,
				"y": 1.7538689451,
				"z": 2.9840806589,
				"element": "H" 
			},
			{
				"x": 3.0475775766,
				"y": -0.5784559504,
				"z": 2.15247624,
				"element": "H" 
			}
		],
		 "valence_orbital": [ 
			{
				"type": "occ",
				"energy": -0.3156,
				"method": "rhf"
			},
			{
				"type": "occ",
				"energy": -0.30069,
				"method": "rhf"
			},
			{
				"type": "occ",
				"energy": -0.28945,
				"method": "rhf"
			},
			{
				"type": "occ",
				"energy": -0.26583,
				"method": "rhf"
			},
			{
				"type": "occ",
				"energy": -0.23155,
				"method": "rhf"
			},
			{
				"type": "unocc",
				"energy": -0.0418,
				"method": "rhf"
			},
			{
				"type": "unocc",
				"energy": -0.01418,
				"method": "rhf"
			},
			{
				"type": "unocc",
				"energy": 0.01999,
				"method": "rhf"
			},
			{
				"type": "unocc",
				"energy": 0.05954,
				"method": "rhf"
			},
			{
				"type": "unocc",
				"energy": 0.07008,
				"method": "rhf"
			}
		],
		"cosmo_sigma_profile": { 
			"-0.025": 0.0,
			"-0.024": 0.0,
			"-0.023": 0.0,
			"-0.022": 0.0,
			"-0.021": 0.0,
			"-0.02": 0.0,
			"-0.019": 0.0,
			"-0.018": 0.0,
			"-0.017": 0.0,
			"-0.016": 0.0,
			"-0.015": 0.0,
			"-0.014": 0.91301452685,
			"-0.013": 1.7020749431,
			"-0.012": 2.12560369048,
			"-0.011": 1.64068449504,
			"-0.01": 1.85878608866,
			"-0.009": 2.66816197502,
			"-0.008": 3.88988755276,
			"-0.007": 7.82558221492,
			"-0.006": 9.66308780647,
			"-0.005": 13.4099399584,
			"-0.004": 16.1166615998,
			"-0.003": 17.0803119973,
			"-0.002": 14.6920404949,
			"-0.001": 17.0328923543,
			"0.0": 17.0874793966,
			"0.001": 19.7772059578,
			"0.002": 21.5494218981,
			"0.003": 15.3608816865,
			"0.004": 14.5378251832,
			"0.005": 4.49791581758,
			"0.006": 2.80858793758,
			"0.007": 3.65201928322,
			"0.008": 2.5900048999,
			"0.009": 4.48461748392,
			"0.01": 5.1674256915,
			"0.011": 6.5320872462,
			"0.012": 5.64463080193,
			"0.013": 0.627349392933,
			"0.014": 0.0,
			"0.015": 0.0,
			"0.016": 0.0,
			"0.017": 0.0,
			"0.018": 0.0,
			"0.019": 0.0,
			"0.02": 0.0,
			"0.021": 0.0,
			"0.022": 0.0,
			"0.023": 0.0,
			"0.024": 0.0,
			"0.025": 0.0
		}
	}
}
