{
	 "smiles": "NC1(CCCC1)C(O)=O", 
	 "Tm": 594.15, 
	 "num_atms": 20, 
	 "gaussian": { 
		 "optdone": 1, 
		 "sigma_profile": "yes", 
		 "theory": "DFT", 
		 "functional": "B3LYP", 
		 "basiset": "6-31G**", 
		 "properties": { 
			 "R2extent": 2034.5746, 
			 "electric_dipole_moment_norm": 4.96219592217, 
			 "electric_quadrupole_moment_norm": 17.920056515, 
			 "total_energy": -440.485398777, 
			 "HOMO_LUMO_gap": 0.26907, 
			 "cosmo_polarized_energy": -13.15, 
			 "cosmo_cavitation_energy": 21.39, 
			 "cosmo_dispersion_energy": -16.13, 
			 "cosmo_repulsion_energy": 1.33, 
			 "cosmo_total_nonelectrostatic_energy": 6.59, 
			 "SMD_solvation_energy": 4.0 
		},
		"coords": [
			{
				"x": 0.0138295207,
				"y": 0.1386820474,
				"z": -2.9574816283,
				"element": "N" 
			},
			{
				"x": 0.8485940199,
				"y": 0.0930907089,
				"z": -1.742234523,
				"element": "C" 
			},
			{
				"x": 0.9562766079,
				"y": 1.4926669242,
				"z": -1.082346914,
				"element": "C" 
			},
			{
				"x": 1.4879662167,
				"y": 1.214561295,
				"z": 0.3338821289,
				"element": "C" 
			},
			{
				"x": 0.9352460826,
				"y": -0.188334928,
				"z": 0.7196151507,
				"element": "C" 
			},
			{
				"x": 0.332168511,
				"y": -0.7853003222,
				"z": -0.5775086735,
				"element": "C" 
			},
			{
				"x": 2.2669575963,
				"y": -0.3463981605,
				"z": -2.1805878815,
				"element": "C" 
			},
			{
				"x": 2.5236496708,
				"y": -0.1180431478,
				"z": -3.4781153033,
				"element": "O" 
			},
			{
				"x": 3.0869973443,
				"y": -0.8142970804,
				"z": -1.4221288208,
				"element": "O" 
			},
			{
				"x": -0.3729872827,
				"y": -0.7805681997,
				"z": -3.1615939801,
				"element": "H" 
			},
			{
				"x": -0.7705312926,
				"y": 0.7732609594,
				"z": -2.8344633685,
				"element": "H" 
			},
			{
				"x": 1.5760809151,
				"y": 2.1874087117,
				"z": -1.6578343361,
				"element": "H" 
			},
			{
				"x": -0.0569569663,
				"y": 1.9167181366,
				"z": -1.0363158614,
				"element": "H" 
			},
			{
				"x": 2.5800718231,
				"y": 1.1883987585,
				"z": 0.317906856,
				"element": "H" 
			},
			{
				"x": 1.1882276797,
				"y": 1.9964405059,
				"z": 1.0378822034,
				"element": "H" 
			},
			{
				"x": 0.1752457054,
				"y": -0.1221372675,
				"z": 1.5045092739,
				"element": "H" 
			},
			{
				"x": 1.7415823662,
				"y": -0.8202735337,
				"z": 1.095920323,
				"element": "H" 
			},
			{
				"x": -0.7619683415,
				"y": -0.7083730614,
				"z": -0.5641446043,
				"element": "H" 
			},
			{
				"x": 0.5890889182,
				"y": -1.8394698243,
				"z": -0.7151104237,
				"element": "H" 
			},
			{
				"x": 1.6635609054,
				"y": 0.1975674781,
				"z": -3.8461496175,
				"element": "H" 
			}
		],
		 "valence_orbital": [ 
			{
				"type": "occ",
				"energy": -0.33907,
				"method": "rhf"
			},
			{
				"type": "occ",
				"energy": -0.31989,
				"method": "rhf"
			},
			{
				"type": "occ",
				"energy": -0.29803,
				"method": "rhf"
			},
			{
				"type": "occ",
				"energy": -0.2836,
				"method": "rhf"
			},
			{
				"type": "occ",
				"energy": -0.24962,
				"method": "rhf"
			},
			{
				"type": "unocc",
				"energy": 0.01945,
				"method": "rhf"
			},
			{
				"type": "unocc",
				"energy": 0.05723,
				"method": "rhf"
			},
			{
				"type": "unocc",
				"energy": 0.08764,
				"method": "rhf"
			},
			{
				"type": "unocc",
				"energy": 0.09504,
				"method": "rhf"
			},
			{
				"type": "unocc",
				"energy": 0.11743,
				"method": "rhf"
			}
		],
		"cosmo_sigma_profile": { 
			"-0.025": 0.0,
			"-0.024": 0.0,
			"-0.023": 0.0,
			"-0.022": 0.0,
			"-0.021": 0.0,
			"-0.02": 0.0,
			"-0.019": 0.0,
			"-0.018": 0.0,
			"-0.017": 0.0,
			"-0.016": 0.0,
			"-0.015": 0.0,
			"-0.014": 0.0,
			"-0.013": 0.0,
			"-0.012": 0.476532391839,
			"-0.011": 3.04902800318,
			"-0.01": 3.44364358188,
			"-0.009": 4.07678410373,
			"-0.008": 3.30605216486,
			"-0.007": 5.42979951333,
			"-0.006": 3.30249953769,
			"-0.005": 4.8744466509,
			"-0.004": 11.5254914629,
			"-0.003": 14.3950726874,
			"-0.002": 17.0894125594,
			"-0.001": 20.4323323614,
			"0.0": 16.7940210659,
			"0.001": 12.8999679076,
			"0.002": 4.9450571815,
			"0.003": 2.98693316363,
			"0.004": 2.34106169902,
			"0.005": 3.31943602899,
			"0.006": 3.32616934797,
			"0.007": 2.95670598551,
			"0.008": 2.67290598536,
			"0.009": 3.57633931242,
			"0.01": 4.14609620793,
			"0.011": 4.7820600255,
			"0.012": 4.92128615637,
			"0.013": 3.14873929664,
			"0.014": 1.24850819859,
			"0.015": 0.00615007745283,
			"0.016": 0.0,
			"0.017": 0.0,
			"0.018": 0.0,
			"0.019": 0.0,
			"0.02": 0.0,
			"0.021": 0.0,
			"0.022": 0.0,
			"0.023": 0.0,
			"0.024": 0.0,
			"0.025": 0.0
		}
	}
}
