{
	 "smiles": "OC1=NC(=NO1)C1=C(Cl)C=CC=C1", 
	 "Tm": 435.15, 
	 "num_atms": 18, 
	 "gaussian": { 
		 "optdone": 1, 
		 "sigma_profile": "yes", 
		 "theory": "DFT", 
		 "functional": "B3LYP", 
		 "basiset": "6-31G**", 
		 "properties": { 
			 "R2extent": 3903.239, 
			 "electric_dipole_moment_norm": 1.53260631931, 
			 "electric_quadrupole_moment_norm": 19.9564276533, 
			 "total_energy": -1027.95769448, 
			 "HOMO_LUMO_gap": 0.19575, 
			 "cosmo_polarized_energy": -13.25, 
			 "cosmo_cavitation_energy": 25.01, 
			 "cosmo_dispersion_energy": -19.16, 
			 "cosmo_repulsion_energy": 1.5, 
			 "cosmo_total_nonelectrostatic_energy": 7.36, 
			 "SMD_solvation_energy": 3.6 
		},
		"coords": [
			{
				"x": 2.0963456428,
				"y": 2.6186299361,
				"z": 2.5457051584,
				"element": "O" 
			},
			{
				"x": 1.0322279131,
				"y": 2.4234104426,
				"z": 1.7787595315,
				"element": "C" 
			},
			{
				"x": 0.8790033819,
				"y": 1.4903175765,
				"z": 0.8953045262,
				"element": "N" 
			},
			{
				"x": -0.3910543961,
				"y": 1.7664885254,
				"z": 0.4147712117,
				"element": "C" 
			},
			{
				"x": -0.9811519933,
				"y": 2.8060658407,
				"z": 0.9699533197,
				"element": "N" 
			},
			{
				"x": -0.0058739481,
				"y": 3.2579652649,
				"z": 1.9061229508,
				"element": "O" 
			},
			{
				"x": -0.9794535808,
				"y": 0.9197712991,
				"z": -0.6402378696,
				"element": "C" 
			},
			{
				"x": -2.2545943414,
				"y": 1.0858813699,
				"z": -1.2181900027,
				"element": "C" 
			},
			{
				"x": -3.3484802793,
				"y": 2.3669763838,
				"z": -0.7418409018,
				"element": "Cl" 
			},
			{
				"x": -2.7060333707,
				"y": 0.217592302,
				"z": -2.2145484413,
				"element": "C" 
			},
			{
				"x": -1.9010965367,
				"y": -0.8299139272,
				"z": -2.6545183953,
				"element": "C" 
			},
			{
				"x": -0.6353746566,
				"y": -1.0133921348,
				"z": -2.0965850079,
				"element": "C" 
			},
			{
				"x": -0.1877471049,
				"y": -0.1486147739,
				"z": -1.1055410308,
				"element": "C" 
			},
			{
				"x": 1.9397322821,
				"y": 3.3875685672,
				"z": 3.1140497762,
				"element": "H" 
			},
			{
				"x": -3.6920155067,
				"y": 0.3745481274,
				"z": -2.6371833198,
				"element": "H" 
			},
			{
				"x": -2.2658802372,
				"y": -1.4968416082,
				"z": -3.42990052,
				"element": "H" 
			},
			{
				"x": 0.0015147902,
				"y": -1.8261576209,
				"z": -2.4309628001,
				"element": "H" 
			},
			{
				"x": 0.7923319416,
				"y": -0.2767955704,
				"z": -0.6618581852,
				"element": "H" 
			}
		],
		 "valence_orbital": [ 
			{
				"type": "occ",
				"energy": -0.31407,
				"method": "rhf"
			},
			{
				"type": "occ",
				"energy": -0.28852,
				"method": "rhf"
			},
			{
				"type": "occ",
				"energy": -0.28407,
				"method": "rhf"
			},
			{
				"type": "occ",
				"energy": -0.25693,
				"method": "rhf"
			},
			{
				"type": "occ",
				"energy": -0.24735,
				"method": "rhf"
			},
			{
				"type": "unocc",
				"energy": -0.0516,
				"method": "rhf"
			},
			{
				"type": "unocc",
				"energy": -0.01706,
				"method": "rhf"
			},
			{
				"type": "unocc",
				"energy": 0.01273,
				"method": "rhf"
			},
			{
				"type": "unocc",
				"energy": 0.02807,
				"method": "rhf"
			},
			{
				"type": "unocc",
				"energy": 0.03699,
				"method": "rhf"
			}
		],
		"cosmo_sigma_profile": { 
			"-0.025": 0.0,
			"-0.024": 0.0,
			"-0.023": 0.0,
			"-0.022": 0.0,
			"-0.021": 1.11855201495,
			"-0.02": 0.788707891468,
			"-0.019": 1.23697507246,
			"-0.018": 1.16016309883,
			"-0.017": 1.28643677351,
			"-0.016": 0.173677240785,
			"-0.015": 0.437451759223,
			"-0.014": 1.4538125952,
			"-0.013": 0.72760707609,
			"-0.012": 0.611408042731,
			"-0.011": 0.918021694712,
			"-0.01": 0.92160158016,
			"-0.009": 0.723615236936,
			"-0.008": 1.47565456666,
			"-0.007": 6.54724496165,
			"-0.006": 9.08554050997,
			"-0.005": 12.1049230268,
			"-0.004": 8.92594480114,
			"-0.003": 7.99208396994,
			"-0.002": 10.0262756381,
			"-0.001": 13.4485830381,
			"0.0": 15.1093718766,
			"0.001": 20.1765510334,
			"0.002": 20.0664995348,
			"0.003": 17.7702237472,
			"0.004": 11.2446464816,
			"0.005": 8.56315566801,
			"0.006": 9.14120424419,
			"0.007": 6.55799073935,
			"0.008": 3.84221594139,
			"0.009": 2.85030815531,
			"0.01": 2.93018024505,
			"0.011": 2.94487715056,
			"0.012": 1.69475664726,
			"0.013": 0.157378236015,
			"0.014": 0.0,
			"0.015": 0.0,
			"0.016": 0.0,
			"0.017": 0.0,
			"0.018": 0.0,
			"0.019": 0.0,
			"0.02": 0.0,
			"0.021": 0.0,
			"0.022": 0.0,
			"0.023": 0.0,
			"0.024": 0.0,
			"0.025": 0.0
		}
	}
}
