{
	 "smiles": "CCC1CCC2(CC1)NC(=O)NC2=O", 
	 "Tm": 504.15, 
	 "num_atms": 30, 
	 "gaussian": { 
		 "optdone": 1, 
		 "sigma_profile": "yes", 
		 "theory": "DFT", 
		 "functional": "B3LYP", 
		 "basiset": "6-31G**", 
		 "properties": { 
			 "R2extent": 3724.9852, 
			 "electric_dipole_moment_norm": 3.18441153747, 
			 "electric_quadrupole_moment_norm": 13.0263287833, 
			 "total_energy": -650.722332461, 
			 "HOMO_LUMO_gap": 0.25261, 
			 "cosmo_polarized_energy": -14.97, 
			 "cosmo_cavitation_energy": 31.03, 
			 "cosmo_dispersion_energy": -22.05, 
			 "cosmo_repulsion_energy": 1.74, 
			 "cosmo_total_nonelectrostatic_energy": 10.72, 
			 "SMD_solvation_energy": 5.8 
		},
		"coords": [
			{
				"x": 0.8560011663,
				"y": 1.2900199397,
				"z": 2.7949352208,
				"element": "C" 
			},
			{
				"x": 0.0172566868,
				"y": 1.5253720344,
				"z": 1.5331786367,
				"element": "C" 
			},
			{
				"x": 0.7549589902,
				"y": 1.2192003191,
				"z": 0.2111849175,
				"element": "C" 
			},
			{
				"x": 1.1243437201,
				"y": -0.2706564531,
				"z": 0.0343294188,
				"element": "C" 
			},
			{
				"x": -0.0934262303,
				"y": -1.1624775472,
				"z": -0.2541622432,
				"element": "C" 
			},
			{
				"x": -0.8930190793,
				"y": -0.6761163718,
				"z": -1.4841741013,
				"element": "C" 
			},
			{
				"x": -1.2722573777,
				"y": 0.8129990446,
				"z": -1.3187702578,
				"element": "C" 
			},
			{
				"x": -0.0463431346,
				"y": 1.6911212524,
				"z": -1.0220712789,
				"element": "C" 
			},
			{
				"x": -0.2072033564,
				"y": -0.9486913379,
				"z": -2.7485776227,
				"element": "N" 
			},
			{
				"x": -0.882296669,
				"y": -1.7992496484,
				"z": -3.5818444163,
				"element": "C" 
			},
			{
				"x": -0.5651356994,
				"y": -2.2016365999,
				"z": -4.6822776305,
				"element": "O" 
			},
			{
				"x": -2.0678399154,
				"y": -2.1330410906,
				"z": -2.8874987902,
				"element": "N" 
			},
			{
				"x": -2.1667760696,
				"y": -1.5281801656,
				"z": -1.654640128,
				"element": "C" 
			},
			{
				"x": -3.071208415,
				"y": -1.635616208,
				"z": -0.8512869942,
				"element": "O" 
			},
			{
				"x": 1.7898007444,
				"y": 1.8633175201,
				"z": 2.762457805,
				"element": "H" 
			},
			{
				"x": 0.3078666314,
				"y": 1.5998602918,
				"z": 3.6903772958,
				"element": "H" 
			},
			{
				"x": 1.1193720852,
				"y": 0.2353678422,
				"z": 2.9253430029,
				"element": "H" 
			},
			{
				"x": -0.9090359377,
				"y": 0.9418018205,
				"z": 1.6020519987,
				"element": "H" 
			},
			{
				"x": -0.2953606288,
				"y": 2.5776920325,
				"z": 1.5087141645,
				"element": "H" 
			},
			{
				"x": 1.6931001557,
				"y": 1.7919828941,
				"z": 0.2335279823,
				"element": "H" 
			},
			{
				"x": 1.8400256013,
				"y": -0.3604676907,
				"z": -0.7951598466,
				"element": "H" 
			},
			{
				"x": 1.649546614,
				"y": -0.6486231237,
				"z": 0.9177478259,
				"element": "H" 
			},
			{
				"x": 0.2238546862,
				"y": -2.1980797777,
				"z": -0.4192021422,
				"element": "H" 
			},
			{
				"x": -0.7806374925,
				"y": -1.170959053,
				"z": 0.598762117,
				"element": "H" 
			},
			{
				"x": -2.0012618227,
				"y": 0.8755477663,
				"z": -0.5038492579,
				"element": "H" 
			},
			{
				"x": -1.7773945062,
				"y": 1.1578531239,
				"z": -2.2277811984,
				"element": "H" 
			},
			{
				"x": -0.3687617061,
				"y": 2.7304374319,
				"z": -0.8874812258,
				"element": "H" 
			},
			{
				"x": 0.6151498521,
				"y": 1.6925181752,
				"z": -1.9000891007,
				"element": "H" 
			},
			{
				"x": 0.681324312,
				"y": -0.5650592983,
				"z": -3.026393735,
				"element": "H" 
			},
			{
				"x": -2.761043205,
				"y": -2.7559371226,
				"z": -3.2762504163,
				"element": "H" 
			}
		],
		 "valence_orbital": [ 
			{
				"type": "occ",
				"energy": -0.31338,
				"method": "rhf"
			},
			{
				"type": "occ",
				"energy": -0.28614,
				"method": "rhf"
			},
			{
				"type": "occ",
				"energy": -0.28558,
				"method": "rhf"
			},
			{
				"type": "occ",
				"energy": -0.26133,
				"method": "rhf"
			},
			{
				"type": "occ",
				"energy": -0.25886,
				"method": "rhf"
			},
			{
				"type": "unocc",
				"energy": -0.00625,
				"method": "rhf"
			},
			{
				"type": "unocc",
				"energy": 0.05218,
				"method": "rhf"
			},
			{
				"type": "unocc",
				"energy": 0.06358,
				"method": "rhf"
			},
			{
				"type": "unocc",
				"energy": 0.08016,
				"method": "rhf"
			},
			{
				"type": "unocc",
				"energy": 0.09265,
				"method": "rhf"
			}
		],
		"cosmo_sigma_profile": { 
			"-0.025": 0.0,
			"-0.024": 0.0,
			"-0.023": 0.0,
			"-0.022": 0.0,
			"-0.021": 0.0,
			"-0.02": 0.0,
			"-0.019": 0.0,
			"-0.018": 0.0,
			"-0.017": 0.140096089529,
			"-0.016": 1.33250171493,
			"-0.015": 1.16560493302,
			"-0.014": 1.03051465574,
			"-0.013": 1.49848158688,
			"-0.012": 0.876890392711,
			"-0.011": 1.96129282166,
			"-0.01": 2.30465195384,
			"-0.009": 1.67386794783,
			"-0.008": 2.80160117454,
			"-0.007": 5.33513082733,
			"-0.006": 2.54512499392,
			"-0.005": 6.50717133624,
			"-0.004": 11.1680812906,
			"-0.003": 22.0844079669,
			"-0.002": 33.8807450228,
			"-0.001": 38.9766406417,
			"0.0": 32.0610972421,
			"0.001": 19.8861172278,
			"0.002": 8.0312564953,
			"0.003": 3.21368894643,
			"0.004": 2.47577238357,
			"0.005": 2.91332996407,
			"0.006": 2.08058955008,
			"0.007": 3.09722324347,
			"0.008": 2.52278311519,
			"0.009": 1.9070517744,
			"0.01": 2.81495709992,
			"0.011": 4.58969383431,
			"0.012": 8.31639964866,
			"0.013": 9.19322341683,
			"0.014": 1.91797547279,
			"0.015": 0.0,
			"0.016": 0.0,
			"0.017": 0.0,
			"0.018": 0.0,
			"0.019": 0.0,
			"0.02": 0.0,
			"0.021": 0.0,
			"0.022": 0.0,
			"0.023": 0.0,
			"0.024": 0.0,
			"0.025": 0.0
		}
	}
}
