{
	 "smiles": "[O-][N+](=O)C1=CC(=CC=C1)N1C(=O)C2ON=C(C2C1=O)C(=O)C1=CC=CS1", 
	 "Tm": 437.15, 
	 "num_atms": 35, 
	 "gaussian": { 
		 "optdone": 1, 
		 "sigma_profile": "yes", 
		 "theory": "DFT", 
		 "functional": "B3LYP", 
		 "basiset": "6-31G**", 
		 "properties": { 
			 "R2extent": 12341.1432, 
			 "electric_dipole_moment_norm": 4.78523411966, 
			 "electric_quadrupole_moment_norm": 30.9033476661, 
			 "total_energy": -1628.74152468, 
			 "HOMO_LUMO_gap": 0.15787, 
			 "cosmo_polarized_energy": -23.62, 
			 "cosmo_cavitation_energy": 44.06, 
			 "cosmo_dispersion_energy": -31.57, 
			 "cosmo_repulsion_energy": 2.32, 
			 "cosmo_total_nonelectrostatic_energy": 14.8, 
			 "SMD_solvation_energy": 11.26 
		},
		"coords": [
			{
				"x": 3.8211852993,
				"y": 5.5658535273,
				"z": 1.7955874586,
				"element": "O" 
			},
			{
				"x": 2.8542349086,
				"y": 4.8060744851,
				"z": 1.8111975625,
				"element": "N" 
			},
			{
				"x": 2.1635422698,
				"y": 4.5650556855,
				"z": 2.7990387926,
				"element": "O" 
			},
			{
				"x": 2.4950659478,
				"y": 4.1381326125,
				"z": 0.545973368,
				"element": "C" 
			},
			{
				"x": 1.4217006368,
				"y": 3.2532284432,
				"z": 0.5482180913,
				"element": "C" 
			},
			{
				"x": 1.0862019388,
				"y": 2.6256161331,
				"z": -0.6528483231,
				"element": "C" 
			},
			{
				"x": 1.811489095,
				"y": 2.8914388904,
				"z": -1.8215190958,
				"element": "C" 
			},
			{
				"x": 2.8763560949,
				"y": 3.7916937028,
				"z": -1.7873570123,
				"element": "C" 
			},
			{
				"x": 3.2338685907,
				"y": 4.4242938984,
				"z": -0.5990113324,
				"element": "C" 
			},
			{
				"x": -0.0086246091,
				"y": 1.7071679391,
				"z": -0.6915293237,
				"element": "N" 
			},
			{
				"x": -0.9449189204,
				"y": 1.6650115301,
				"z": -1.7387732615,
				"element": "C" 
			},
			{
				"x": -0.9655776202,
				"y": 2.3894163576,
				"z": -2.7051337871,
				"element": "O" 
			},
			{
				"x": -1.9220023882,
				"y": 0.5239514088,
				"z": -1.4431246159,
				"element": "C" 
			},
			{
				"x": -1.6851751998,
				"y": -0.5572633893,
				"z": -2.4015371264,
				"element": "O" 
			},
			{
				"x": -1.2793286377,
				"y": -1.6901912556,
				"z": -1.7273995327,
				"element": "N" 
			},
			{
				"x": -1.1943244751,
				"y": -1.4685642688,
				"z": -0.4658054593,
				"element": "C" 
			},
			{
				"x": -1.5156211992,
				"y": -0.0396950269,
				"z": -0.0861361845,
				"element": "C" 
			},
			{
				"x": -0.2637243143,
				"y": 0.7571681961,
				"z": 0.3237219029,
				"element": "C" 
			},
			{
				"x": 0.3927436164,
				"y": 0.6137666604,
				"z": 1.3239402296,
				"element": "O" 
			},
			{
				"x": -0.9173439513,
				"y": -2.5291072089,
				"z": 0.5487749332,
				"element": "C" 
			},
			{
				"x": -1.1904060229,
				"y": -2.2668036874,
				"z": 1.716733174,
				"element": "O" 
			},
			{
				"x": -0.3572647247,
				"y": -3.8293505955,
				"z": 0.161606153,
				"element": "C" 
			},
			{
				"x": -0.0823517686,
				"y": -4.8264031907,
				"z": 1.0798878824,
				"element": "C" 
			},
			{
				"x": 0.4806166408,
				"y": -5.9861797227,
				"z": 0.4974841918,
				"element": "C" 
			},
			{
				"x": 0.6337131799,
				"y": -5.8617903467,
				"z": -0.8628808576,
				"element": "C" 
			},
			{
				"x": 0.0888893268,
				"y": -4.3373958827,
				"z": -1.4552281186,
				"element": "S" 
			},
			{
				"x": 0.8872127407,
				"y": 3.0617775266,
				"z": 1.4673466771,
				"element": "H" 
			},
			{
				"x": 1.5359157746,
				"y": 2.4068108606,
				"z": -2.7493140397,
				"element": "H" 
			},
			{
				"x": 3.43237276,
				"y": 3.9962879917,
				"z": -2.6961670287,
				"element": "H" 
			},
			{
				"x": 4.0587606701,
				"y": 5.1228361912,
				"z": -0.5420847498,
				"element": "H" 
			},
			{
				"x": -2.9551167205,
				"y": 0.8566998194,
				"z": -1.5605746077,
				"element": "H" 
			},
			{
				"x": -2.2517955512,
				"y": 0.0112772285,
				"z": 0.7190096095,
				"element": "H" 
			},
			{
				"x": -0.287144207,
				"y": -4.6923070339,
				"z": 2.1349353128,
				"element": "H" 
			},
			{
				"x": 0.7627217455,
				"y": -6.8718366907,
				"z": 1.054319309,
				"element": "H" 
			},
			{
				"x": 1.0321290734,
				"y": -6.5923707886,
				"z": -1.5546501916,
				"element": "H" 
			}
		],
		 "valence_orbital": [ 
			{
				"type": "occ",
				"energy": -0.27991,
				"method": "rhf"
			},
			{
				"type": "occ",
				"energy": -0.277,
				"method": "rhf"
			},
			{
				"type": "occ",
				"energy": -0.2738,
				"method": "rhf"
			},
			{
				"type": "occ",
				"energy": -0.26911,
				"method": "rhf"
			},
			{
				"type": "occ",
				"energy": -0.25586,
				"method": "rhf"
			},
			{
				"type": "unocc",
				"energy": -0.09799,
				"method": "rhf"
			},
			{
				"type": "unocc",
				"energy": -0.09509,
				"method": "rhf"
			},
			{
				"type": "unocc",
				"energy": -0.06063,
				"method": "rhf"
			},
			{
				"type": "unocc",
				"energy": -0.05224,
				"method": "rhf"
			},
			{
				"type": "unocc",
				"energy": -0.03554,
				"method": "rhf"
			}
		],
		"cosmo_sigma_profile": { 
			"-0.025": 0.0,
			"-0.024": 0.0,
			"-0.023": 0.0,
			"-0.022": 0.0,
			"-0.021": 0.0,
			"-0.02": 0.0,
			"-0.019": 0.0,
			"-0.018": 0.0,
			"-0.017": 0.0,
			"-0.016": 0.0,
			"-0.015": 0.0,
			"-0.014": 0.00216586597713,
			"-0.013": 0.482010896109,
			"-0.012": 1.28462071339,
			"-0.011": 4.22614212905,
			"-0.01": 10.13896672,
			"-0.009": 7.52775649347,
			"-0.008": 14.6264090361,
			"-0.007": 18.715994385,
			"-0.006": 16.953816262,
			"-0.005": 17.3234290985,
			"-0.004": 16.3610190259,
			"-0.003": 17.4331621751,
			"-0.002": 17.946327526,
			"-0.001": 22.6707779286,
			"0.0": 24.515758945,
			"0.001": 24.5519494011,
			"0.002": 26.3660176114,
			"0.003": 18.338243917,
			"0.004": 10.9342954046,
			"0.005": 11.6675512894,
			"0.006": 12.6794375741,
			"0.007": 18.2522933084,
			"0.008": 15.5592973297,
			"0.009": 11.745902244,
			"0.01": 11.4212263148,
			"0.011": 6.24098727722,
			"0.012": 0.135780394203,
			"0.013": 0.0,
			"0.014": 0.0,
			"0.015": 0.0,
			"0.016": 0.0,
			"0.017": 0.0,
			"0.018": 0.0,
			"0.019": 0.0,
			"0.02": 0.0,
			"0.021": 0.0,
			"0.022": 0.0,
			"0.023": 0.0,
			"0.024": 0.0,
			"0.025": 0.0
		}
	}
}
