{
	 "smiles": "OC(=O)C1=C(CC2=NC3=C(S2)C=CC=C3)C=CC=C1", 
	 "Tm": 456.15, 
	 "num_atms": 30, 
	 "gaussian": { 
		 "optdone": 1, 
		 "sigma_profile": "yes", 
		 "theory": "DFT", 
		 "functional": "B3LYP", 
		 "basiset": "6-31G**", 
		 "properties": { 
			 "R2extent": 6079.9304, 
			 "electric_dipole_moment_norm": 1.73133460082, 
			 "electric_quadrupole_moment_norm": 17.4206030214, 
			 "total_energy": -1181.64049437, 
			 "HOMO_LUMO_gap": 0.17649, 
			 "cosmo_polarized_energy": -13.27, 
			 "cosmo_cavitation_energy": 36.05, 
			 "cosmo_dispersion_energy": -26.07, 
			 "cosmo_repulsion_energy": 1.95, 
			 "cosmo_total_nonelectrostatic_energy": 11.93, 
			 "SMD_solvation_energy": 4.78 
		},
		"coords": [
			{
				"x": 1.4154902942,
				"y": 1.3067900619,
				"z": 2.5240382018,
				"element": "O" 
			},
			{
				"x": 0.2188731016,
				"y": 1.2960153252,
				"z": 3.1550443897,
				"element": "C" 
			},
			{
				"x": 0.1111006871,
				"y": 0.9012783754,
				"z": 4.3000607228,
				"element": "O" 
			},
			{
				"x": -0.923441493,
				"y": 1.802901236,
				"z": 2.3337168307,
				"element": "C" 
			},
			{
				"x": -0.8533839102,
				"y": 2.2420536696,
				"z": 0.9878225831,
				"element": "C" 
			},
			{
				"x": 0.409248995,
				"y": 2.2816012014,
				"z": 0.1424197668,
				"element": "C" 
			},
			{
				"x": 0.8842380647,
				"y": 0.95218628,
				"z": -0.3936916966,
				"element": "C" 
			},
			{
				"x": 2.106627985,
				"y": 0.723770535,
				"z": -0.7431138529,
				"element": "N" 
			},
			{
				"x": 2.2548254713,
				"y": -0.5518653811,
				"z": -1.2680844683,
				"element": "C" 
			},
			{
				"x": 1.0719900536,
				"y": -1.3294517566,
				"z": -1.3140774513,
				"element": "C" 
			},
			{
				"x": -0.2590458389,
				"y": -0.3912210004,
				"z": -0.6671496213,
				"element": "S" 
			},
			{
				"x": 1.0777580602,
				"y": -2.635030866,
				"z": -1.8116254644,
				"element": "C" 
			},
			{
				"x": 2.2848599069,
				"y": -3.1575984726,
				"z": -2.2697173743,
				"element": "C" 
			},
			{
				"x": 3.4652064005,
				"y": -2.3950998162,
				"z": -2.231112035,
				"element": "C" 
			},
			{
				"x": 3.4601623593,
				"y": -1.0973635376,
				"z": -1.733360645,
				"element": "C" 
			},
			{
				"x": -2.0409542772,
				"y": 2.680580065,
				"z": 0.3841287689,
				"element": "C" 
			},
			{
				"x": -3.259052863,
				"y": 2.6911101828,
				"z": 1.062178883,
				"element": "C" 
			},
			{
				"x": -3.3175715268,
				"y": 2.2583870563,
				"z": 2.3860496709,
				"element": "C" 
			},
			{
				"x": -2.1546494033,
				"y": 1.8198563884,
				"z": 3.008696633,
				"element": "C" 
			},
			{
				"x": 2.0541539984,
				"y": 0.9372870859,
				"z": 3.1563328626,
				"element": "H" 
			},
			{
				"x": 0.2163260861,
				"y": 2.9309157061,
				"z": -0.7206396404,
				"element": "H" 
			},
			{
				"x": 1.2493247527,
				"y": 2.7153823967,
				"z": 0.685918414,
				"element": "H" 
			},
			{
				"x": 0.1691826421,
				"y": -3.2279231509,
				"z": -1.8428816617,
				"element": "H" 
			},
			{
				"x": 2.3121185076,
				"y": -4.1697462154,
				"z": -2.6623434003,
				"element": "H" 
			},
			{
				"x": 4.3924125199,
				"y": -2.8275092999,
				"z": -2.5951321985,
				"element": "H" 
			},
			{
				"x": 4.3629781846,
				"y": -0.4965357447,
				"z": -1.6966224619,
				"element": "H" 
			},
			{
				"x": -2.0037885414,
				"y": 3.0241917024,
				"z": -0.6460546428,
				"element": "H" 
			},
			{
				"x": -4.1549082783,
				"y": 3.0390998083,
				"z": 0.5561210367,
				"element": "H" 
			},
			{
				"x": -4.257874693,
				"y": 2.2630972754,
				"z": 2.9286095905,
				"element": "H" 
			},
			{
				"x": -2.1668072454,
				"y": 1.4769408892,
				"z": 4.0371682603,
				"element": "H" 
			}
		],
		 "valence_orbital": [ 
			{
				"type": "occ",
				"energy": -0.27268,
				"method": "rhf"
			},
			{
				"type": "occ",
				"energy": -0.26629,
				"method": "rhf"
			},
			{
				"type": "occ",
				"energy": -0.26091,
				"method": "rhf"
			},
			{
				"type": "occ",
				"energy": -0.23358,
				"method": "rhf"
			},
			{
				"type": "occ",
				"energy": -0.23126,
				"method": "rhf"
			},
			{
				"type": "unocc",
				"energy": -0.05477,
				"method": "rhf"
			},
			{
				"type": "unocc",
				"energy": -0.03043,
				"method": "rhf"
			},
			{
				"type": "unocc",
				"energy": -0.01594,
				"method": "rhf"
			},
			{
				"type": "unocc",
				"energy": -0.00268,
				"method": "rhf"
			},
			{
				"type": "unocc",
				"energy": 0.01963,
				"method": "rhf"
			}
		],
		"cosmo_sigma_profile": { 
			"-0.025": 0.0,
			"-0.024": 0.0,
			"-0.023": 0.0,
			"-0.022": 0.0,
			"-0.021": 0.0,
			"-0.02": 0.0,
			"-0.019": 0.0268592028959,
			"-0.018": 0.875788836874,
			"-0.017": 0.874810907995,
			"-0.016": 0.646329939635,
			"-0.015": 1.01787764391,
			"-0.014": 0.971389369071,
			"-0.013": 0.100645600989,
			"-0.012": 0.845203189445,
			"-0.011": 1.05518779477,
			"-0.01": 0.575890113841,
			"-0.009": 0.525453247354,
			"-0.008": 1.16785188307,
			"-0.007": 9.37849955309,
			"-0.006": 18.2651860172,
			"-0.005": 20.3803884435,
			"-0.004": 19.4420219184,
			"-0.003": 17.3101170778,
			"-0.002": 17.8613655476,
			"-0.001": 17.6743715699,
			"0.0": 18.5616601459,
			"0.001": 23.4334543742,
			"0.002": 30.7518845341,
			"0.003": 29.7811785305,
			"0.004": 21.2593105164,
			"0.005": 11.7279858667,
			"0.006": 4.33227354985,
			"0.007": 3.1964174028,
			"0.008": 1.88470421371,
			"0.009": 3.50007863341,
			"0.01": 2.44379796205,
			"0.011": 5.14273791031,
			"0.012": 4.45194114971,
			"0.013": 0.853848548302,
			"0.014": 0.594830412159,
			"0.015": 0.549520649604,
			"0.016": 0.0,
			"0.017": 0.0,
			"0.018": 0.0,
			"0.019": 0.0,
			"0.02": 0.0,
			"0.021": 0.0,
			"0.022": 0.0,
			"0.023": 0.0,
			"0.024": 0.0,
			"0.025": 0.0
		}
	}
}
