{
	 "smiles": "NCC1=CC(CN2CCCC(C2)C(N)=O)=CC=C1", 
	 "Tm": 378.15, 
	 "num_atms": 39, 
	 "gaussian": { 
		 "optdone": 1, 
		 "sigma_profile": "yes", 
		 "theory": "DFT", 
		 "functional": "B3LYP", 
		 "basiset": "6-31G**", 
		 "properties": { 
			 "R2extent": 7402.5254, 
			 "electric_dipole_moment_norm": 5.20982717852, 
			 "electric_quadrupole_moment_norm": 17.362889083, 
			 "total_energy": -785.627971795, 
			 "HOMO_LUMO_gap": 0.20115, 
			 "cosmo_polarized_energy": -18.99, 
			 "cosmo_cavitation_energy": 39.34, 
			 "cosmo_dispersion_energy": -28.03, 
			 "cosmo_repulsion_energy": 2.21, 
			 "cosmo_total_nonelectrostatic_energy": 13.52, 
			 "SMD_solvation_energy": 4.74 
		},
		"coords": [
			{
				"x": -4.9772675942,
				"y": -0.6017013982,
				"z": 4.0994992716,
				"element": "N" 
			},
			{
				"x": -4.4577538204,
				"y": 0.0928788565,
				"z": 2.9169636078,
				"element": "C" 
			},
			{
				"x": -3.0867319548,
				"y": -0.4212471378,
				"z": 2.5168595,
				"element": "C" 
			},
			{
				"x": -2.717108231,
				"y": -0.4707767269,
				"z": 1.1671875268,
				"element": "C" 
			},
			{
				"x": -1.4480917914,
				"y": -0.9024100683,
				"z": 0.7678440354,
				"element": "C" 
			},
			{
				"x": -1.0981874917,
				"y": -1.002550209,
				"z": -0.7096563333,
				"element": "C" 
			},
			{
				"x": 0.2720323754,
				"y": -0.5830631008,
				"z": -0.9930364446,
				"element": "N" 
			},
			{
				"x": 0.5259855416,
				"y": 0.852523863,
				"z": -0.8645001536,
				"element": "C" 
			},
			{
				"x": -0.1008819255,
				"y": 1.6996819252,
				"z": -2.0084421211,
				"element": "C" 
			},
			{
				"x": -0.3502839478,
				"y": 0.8547260913,
				"z": -3.2751818827,
				"element": "C" 
			},
			{
				"x": 0.726090278,
				"y": -0.2396414776,
				"z": -3.493445674,
				"element": "C" 
			},
			{
				"x": 0.8947284001,
				"y": -1.1146282227,
				"z": -2.2064211513,
				"element": "C" 
			},
			{
				"x": 2.0497212404,
				"y": 0.4164230392,
				"z": -3.9060291785,
				"element": "C" 
			},
			{
				"x": 2.1815292012,
				"y": 0.6539427516,
				"z": -5.2470751871,
				"element": "N" 
			},
			{
				"x": 2.9224637889,
				"y": 0.7400527886,
				"z": -3.1094160981,
				"element": "O" 
			},
			{
				"x": -0.5290257775,
				"y": -1.2901875397,
				"z": 1.7506921064,
				"element": "C" 
			},
			{
				"x": -0.8857221494,
				"y": -1.2488615603,
				"z": 3.0982642445,
				"element": "C" 
			},
			{
				"x": -2.156808229,
				"y": -0.8192233724,
				"z": 3.4842545072,
				"element": "C" 
			},
			{
				"x": -5.1553817262,
				"y": -1.5777484535,
				"z": 3.8744196246,
				"element": "H" 
			},
			{
				"x": -5.8666698695,
				"y": -0.1959331744,
				"z": 4.3781668371,
				"element": "H" 
			},
			{
				"x": -4.3803132724,
				"y": 1.1578079299,
				"z": 3.1784059236,
				"element": "H" 
			},
			{
				"x": -5.1207512188,
				"y": 0.0449874504,
				"z": 2.0351430605,
				"element": "H" 
			},
			{
				"x": -3.4370285405,
				"y": -0.1669878305,
				"z": 0.4080621609,
				"element": "H" 
			},
			{
				"x": -1.8700172241,
				"y": -0.4570606726,
				"z": -1.2832580479,
				"element": "H" 
			},
			{
				"x": -1.1825959142,
				"y": -2.0531014584,
				"z": -1.0190412629,
				"element": "H" 
			},
			{
				"x": 1.6116636933,
				"y": 0.9835141357,
				"z": -0.8821737522,
				"element": "H" 
			},
			{
				"x": 0.1661602286,
				"y": 1.1903472108,
				"z": 0.1116188444,
				"element": "H" 
			},
			{
				"x": -1.0515925102,
				"y": 2.1436735556,
				"z": -1.6918902984,
				"element": "H" 
			},
			{
				"x": 0.5698417908,
				"y": 2.5347571867,
				"z": -2.2382795955,
				"element": "H" 
			},
			{
				"x": -0.4137931091,
				"y": 1.5011459027,
				"z": -4.1581401532,
				"element": "H" 
			},
			{
				"x": -1.3189675571,
				"y": 0.3497644345,
				"z": -3.1988883502,
				"element": "H" 
			},
			{
				"x": 0.3948315321,
				"y": -0.8768968527,
				"z": -4.3235861462,
				"element": "H" 
			},
			{
				"x": 1.9677412581,
				"y": -1.2219961316,
				"z": -2.0138865569,
				"element": "H" 
			},
			{
				"x": 0.4882185955,
				"y": -2.1139337551,
				"z": -2.3893110558,
				"element": "H" 
			},
			{
				"x": 3.0057896212,
				"y": 1.1400819899,
				"z": -5.5661628875,
				"element": "H" 
			},
			{
				"x": 1.4748400772,
				"y": 0.3975689989,
				"z": -5.9163425841,
				"element": "H" 
			},
			{
				"x": 0.4615979189,
				"y": -1.610648927,
				"z": 1.4434296584,
				"element": "H" 
			},
			{
				"x": -0.167608605,
				"y": -1.553357494,
				"z": 3.8553761081,
				"element": "H" 
			},
			{
				"x": -2.4440530818,
				"y": -0.7914225469,
				"z": 4.530377898,
				"element": "H" 
			}
		],
		 "valence_orbital": [ 
			{
				"type": "occ",
				"energy": -0.24597,
				"method": "rhf"
			},
			{
				"type": "occ",
				"energy": -0.2387,
				"method": "rhf"
			},
			{
				"type": "occ",
				"energy": -0.23334,
				"method": "rhf"
			},
			{
				"type": "occ",
				"energy": -0.22278,
				"method": "rhf"
			},
			{
				"type": "occ",
				"energy": -0.19345,
				"method": "rhf"
			},
			{
				"type": "unocc",
				"energy": 0.0077,
				"method": "rhf"
			},
			{
				"type": "unocc",
				"energy": 0.01127,
				"method": "rhf"
			},
			{
				"type": "unocc",
				"energy": 0.0276,
				"method": "rhf"
			},
			{
				"type": "unocc",
				"energy": 0.06488,
				"method": "rhf"
			},
			{
				"type": "unocc",
				"energy": 0.08899,
				"method": "rhf"
			}
		],
		"cosmo_sigma_profile": { 
			"-0.025": 0.0,
			"-0.024": 0.0,
			"-0.023": 0.0,
			"-0.022": 0.0,
			"-0.021": 0.0,
			"-0.02": 0.0,
			"-0.019": 0.0,
			"-0.018": 0.0,
			"-0.017": 0.0,
			"-0.016": 0.0,
			"-0.015": 0.0246002715501,
			"-0.014": 1.18529343196,
			"-0.013": 2.53899106378,
			"-0.012": 1.98480768083,
			"-0.011": 2.75157901524,
			"-0.01": 3.48838205409,
			"-0.009": 4.78451459927,
			"-0.008": 4.3813517237,
			"-0.007": 5.37802819519,
			"-0.006": 5.8880974444,
			"-0.005": 9.34348487325,
			"-0.004": 21.3032010378,
			"-0.003": 30.32493398,
			"-0.002": 35.451740538,
			"-0.001": 34.0400817382,
			"0.0": 26.0638673674,
			"0.001": 18.6257475823,
			"0.002": 14.8284076944,
			"0.003": 13.0124553999,
			"0.004": 14.4337709469,
			"0.005": 12.2727394066,
			"0.006": 10.9487493221,
			"0.007": 8.07909404923,
			"0.008": 3.82066831253,
			"0.009": 2.87306882688,
			"0.01": 2.8239062532,
			"0.011": 2.45131011561,
			"0.012": 2.147018682,
			"0.013": 3.06722641816,
			"0.014": 4.87269493012,
			"0.015": 1.90807101885,
			"0.016": 0.595193270276,
			"0.017": 0.324053259322,
			"0.018": 0.0471365619358,
			"0.019": 0.0,
			"0.02": 0.0,
			"0.021": 0.0,
			"0.022": 0.0,
			"0.023": 0.0,
			"0.024": 0.0,
			"0.025": 0.0
		}
	}
}
