{
	 "smiles": "COC(=O)[C@@H](O)[C@@H]1CC1=C", 
	 "Tm": 314.65, 
	 "num_atms": 20, 
	 "gaussian": { 
		 "optdone": 1, 
		 "sigma_profile": "yes", 
		 "theory": "DFT", 
		 "functional": "B3LYP", 
		 "basiset": "6-31G**", 
		 "properties": { 
			 "R2extent": 2382.313, 
			 "electric_dipole_moment_norm": 2.59836976006, 
			 "electric_quadrupole_moment_norm": 7.95123046704, 
			 "total_energy": -498.370553352, 
			 "HOMO_LUMO_gap": 0.24926, 
			 "cosmo_polarized_energy": -9.11, 
			 "cosmo_cavitation_energy": 24.33, 
			 "cosmo_dispersion_energy": -16.92, 
			 "cosmo_repulsion_energy": 1.41, 
			 "cosmo_total_nonelectrostatic_energy": 8.81, 
			 "SMD_solvation_energy": 6.0 
		},
		"coords": [
			{
				"x": 1.6733344176,
				"y": 2.435290771,
				"z": -3.0418671387,
				"element": "C" 
			},
			{
				"x": 0.8429710234,
				"y": 1.6767748789,
				"z": -2.1407802033,
				"element": "O" 
			},
			{
				"x": 1.1197641449,
				"y": 1.8227561111,
				"z": -0.8398331586,
				"element": "C" 
			},
			{
				"x": 2.0057909219,
				"y": 2.5327740883,
				"z": -0.4020806575,
				"element": "O" 
			},
			{
				"x": 0.195177029,
				"y": 1.013051174,
				"z": 0.0705496793,
				"element": "C" 
			},
			{
				"x": 0.6934413769,
				"y": 1.0660272931,
				"z": 1.3864882642,
				"element": "O" 
			},
			{
				"x": -1.2339956271,
				"y": 1.5415651276,
				"z": -0.012347287,
				"element": "C" 
			},
			{
				"x": -2.3904351242,
				"y": 0.6327209517,
				"z": 0.4393299345,
				"element": "C" 
			},
			{
				"x": -2.1957165084,
				"y": 0.981540925,
				"z": -0.9737059922,
				"element": "C" 
			},
			{
				"x": -2.5673950516,
				"y": 0.8480896918,
				"z": -2.2356794225,
				"element": "C" 
			},
			{
				"x": 1.5620861173,
				"y": 3.5057492965,
				"z": -2.8538902195,
				"element": "H" 
			},
			{
				"x": 1.3252245459,
				"y": 2.1825643312,
				"z": -4.042688652,
				"element": "H" 
			},
			{
				"x": 2.7227857273,
				"y": 2.1590057032,
				"z": -2.9170700107,
				"element": "H" 
			},
			{
				"x": 0.1989426916,
				"y": -0.0270336053,
				"z": -0.2870828316,
				"element": "H" 
			},
			{
				"x": 1.3904370935,
				"y": 1.7438642428,
				"z": 1.3787672396,
				"element": "H" 
			},
			{
				"x": -1.3250164123,
				"y": 2.5962371094,
				"z": 0.2498477684,
				"element": "H" 
			},
			{
				"x": -3.2023122256,
				"y": 1.0929769068,
				"z": 0.9989105642,
				"element": "H" 
			},
			{
				"x": -2.138619733,
				"y": -0.37281445,
				"z": 0.7734768697,
				"element": "H" 
			},
			{
				"x": -3.4305360191,
				"y": 0.2483916859,
				"z": -2.5129721062,
				"element": "H" 
			},
			{
				"x": -2.0172283879,
				"y": 1.3328677671,
				"z": -3.0371726401,
				"element": "H" 
			}
		],
		 "valence_orbital": [ 
			{
				"type": "occ",
				"energy": -0.31539,
				"method": "rhf"
			},
			{
				"type": "occ",
				"energy": -0.29855,
				"method": "rhf"
			},
			{
				"type": "occ",
				"energy": -0.28266,
				"method": "rhf"
			},
			{
				"type": "occ",
				"energy": -0.2693,
				"method": "rhf"
			},
			{
				"type": "occ",
				"energy": -0.2547,
				"method": "rhf"
			},
			{
				"type": "unocc",
				"energy": -0.00544,
				"method": "rhf"
			},
			{
				"type": "unocc",
				"energy": 0.01066,
				"method": "rhf"
			},
			{
				"type": "unocc",
				"energy": 0.09274,
				"method": "rhf"
			},
			{
				"type": "unocc",
				"energy": 0.10391,
				"method": "rhf"
			},
			{
				"type": "unocc",
				"energy": 0.11649,
				"method": "rhf"
			}
		],
		"cosmo_sigma_profile": { 
			"-0.025": 0.0,
			"-0.024": 0.0,
			"-0.023": 0.0,
			"-0.022": 0.0,
			"-0.021": 0.0,
			"-0.02": 0.0,
			"-0.019": 0.0,
			"-0.018": 0.0,
			"-0.017": 0.0,
			"-0.016": 0.0,
			"-0.015": 0.0,
			"-0.014": 0.0,
			"-0.013": 0.0,
			"-0.012": 0.0159781123016,
			"-0.011": 0.698261932566,
			"-0.01": 0.30841195788,
			"-0.009": 0.286457559357,
			"-0.008": 0.624042711043,
			"-0.007": 3.90630100287,
			"-0.006": 14.6171402028,
			"-0.005": 20.0713727493,
			"-0.004": 20.7109929976,
			"-0.003": 16.5529869915,
			"-0.002": 13.3181333795,
			"-0.001": 12.3808162928,
			"0.0": 11.9742395946,
			"0.001": 9.35680661534,
			"0.002": 9.65365823981,
			"0.003": 11.8684997092,
			"0.004": 8.55855878119,
			"0.005": 6.61876803942,
			"0.006": 6.15891575583,
			"0.007": 4.68676906931,
			"0.008": 3.40053341344,
			"0.009": 2.73474696283,
			"0.01": 4.13421566713,
			"0.011": 3.93936477226,
			"0.012": 1.6929587278,
			"0.013": 2.19069084878,
			"0.014": 1.44395070165,
			"0.015": 0.0,
			"0.016": 0.0,
			"0.017": 0.0,
			"0.018": 0.0,
			"0.019": 0.0,
			"0.02": 0.0,
			"0.021": 0.0,
			"0.022": 0.0,
			"0.023": 0.0,
			"0.024": 0.0,
			"0.025": 0.0
		}
	}
}
