{
	 "smiles": "CC1=C(N)C2=C(C(Br)=C1)C(=O)C1=CC=CC=C1C2=O", 
	 "Tm": 521.15, 
	 "num_atms": 29, 
	 "gaussian": { 
		 "optdone": 1, 
		 "sigma_profile": "yes", 
		 "theory": "DFT", 
		 "functional": "B3LYP", 
		 "basiset": "6-31G**", 
		 "properties": { 
			 "R2extent": 7146.0967, 
			 "electric_dipole_moment_norm": 3.71591113591, 
			 "electric_quadrupole_moment_norm": 27.3596517522, 
			 "total_energy": -3354.25389787, 
			 "HOMO_LUMO_gap": 0.11376, 
			 "cosmo_polarized_energy": -13.25, 
			 "cosmo_cavitation_energy": 34.35, 
			 "cosmo_dispersion_energy": -26.28, 
			 "cosmo_repulsion_energy": 1.94, 
			 "cosmo_total_nonelectrostatic_energy": 10.01, 
			 "SMD_solvation_energy": 4.9 
		},
		"coords": [
			{
				"x": 4.2894520867,
				"y": 1.322654228,
				"z": -1.2461161101,
				"element": "C" 
			},
			{
				"x": 3.0393769278,
				"y": 0.4922457217,
				"z": -1.1182622138,
				"element": "C" 
			},
			{
				"x": 1.7955930279,
				"y": 1.1118987407,
				"z": -0.7881692646,
				"element": "C" 
			},
			{
				"x": 1.7644778045,
				"y": 2.452554564,
				"z": -0.5930503147,
				"element": "N" 
			},
			{
				"x": 0.6209555129,
				"y": 0.3059225469,
				"z": -0.6719107723,
				"element": "C" 
			},
			{
				"x": 0.6904969879,
				"y": -1.113279598,
				"z": -0.8835610224,
				"element": "C" 
			},
			{
				"x": 1.926414418,
				"y": -1.6787203042,
				"z": -1.204272355,
				"element": "C" 
			},
			{
				"x": 2.2596775689,
				"y": -3.5309463395,
				"z": -1.5293611071,
				"element": "Br" 
			},
			{
				"x": 3.0709422735,
				"y": -0.8706103777,
				"z": -1.3152869574,
				"element": "C" 
			},
			{
				"x": -0.5508287128,
				"y": -1.9473648497,
				"z": -0.7569863314,
				"element": "C" 
			},
			{
				"x": -0.5479379951,
				"y": -3.1607566253,
				"z": -0.9240073861,
				"element": "O" 
			},
			{
				"x": -1.8280654881,
				"y": -1.2618210953,
				"z": -0.4148317633,
				"element": "C" 
			},
			{
				"x": -2.994805139,
				"y": -2.028256973,
				"z": -0.2950925784,
				"element": "C" 
			},
			{
				"x": -4.2018637501,
				"y": -1.4145685594,
				"z": 0.0237712723,
				"element": "C" 
			},
			{
				"x": -4.2535470264,
				"y": -0.0291754795,
				"z": 0.2259450136,
				"element": "C" 
			},
			{
				"x": -3.0984513556,
				"y": 0.7370844966,
				"z": 0.1085404947,
				"element": "C" 
			},
			{
				"x": -1.8798004866,
				"y": 0.1236069453,
				"z": -0.2126411358,
				"element": "C" 
			},
			{
				"x": -0.6566695132,
				"y": 0.9565940716,
				"z": -0.3336085828,
				"element": "C" 
			},
			{
				"x": -0.7572704444,
				"y": 2.1820347737,
				"z": -0.1434769919,
				"element": "O" 
			},
			{
				"x": 4.1897081635,
				"y": 2.0862787949,
				"z": -2.0289124657,
				"element": "H" 
			},
			{
				"x": 4.5262156344,
				"y": 1.8439974696,
				"z": -0.3091534636,
				"element": "H" 
			},
			{
				"x": 5.1479750376,
				"y": 0.6985279247,
				"z": -1.5023266707,
				"element": "H" 
			},
			{
				"x": 2.6008323995,
				"y": 3.0010989005,
				"z": -0.685771748,
				"element": "H" 
			},
			{
				"x": 0.8666001622,
				"y": 2.8683403308,
				"z": -0.3635348214,
				"element": "H" 
			},
			{
				"x": 4.0122451201,
				"y": -1.3475949673,
				"z": -1.5663799911,
				"element": "H" 
			},
			{
				"x": -2.9245139698,
				"y": -3.098183431,
				"z": -0.4570478756,
				"element": "H" 
			},
			{
				"x": -5.1050037108,
				"y": -2.0108052267,
				"z": 0.1159933148,
				"element": "H" 
			},
			{
				"x": -5.1968349475,
				"y": 0.4482514128,
				"z": 0.4749575011,
				"element": "H" 
			},
			{
				"x": -3.1104705861,
				"y": 1.810592905,
				"z": 0.2598543267,
				"element": "H" 
			}
		],
		 "valence_orbital": [ 
			{
				"type": "occ",
				"energy": -0.26376,
				"method": "rhf"
			},
			{
				"type": "occ",
				"energy": -0.2628,
				"method": "rhf"
			},
			{
				"type": "occ",
				"energy": -0.26166,
				"method": "rhf"
			},
			{
				"type": "occ",
				"energy": -0.23771,
				"method": "rhf"
			},
			{
				"type": "occ",
				"energy": -0.21186,
				"method": "rhf"
			},
			{
				"type": "unocc",
				"energy": -0.0981,
				"method": "rhf"
			},
			{
				"type": "unocc",
				"energy": -0.04862,
				"method": "rhf"
			},
			{
				"type": "unocc",
				"energy": -0.02068,
				"method": "rhf"
			},
			{
				"type": "unocc",
				"energy": -0.00213,
				"method": "rhf"
			},
			{
				"type": "unocc",
				"energy": 0.01223,
				"method": "rhf"
			}
		],
		"cosmo_sigma_profile": { 
			"-0.025": 0.0,
			"-0.024": 0.0,
			"-0.023": 0.0,
			"-0.022": 0.0,
			"-0.021": 0.0,
			"-0.02": 0.0,
			"-0.019": 0.0,
			"-0.018": 0.0,
			"-0.017": 0.0,
			"-0.016": 0.0,
			"-0.015": 0.0,
			"-0.014": 0.315142024735,
			"-0.013": 0.770425838316,
			"-0.012": 1.06943822245,
			"-0.011": 1.49795999038,
			"-0.01": 1.59021723789,
			"-0.009": 1.60307926959,
			"-0.008": 2.84534388908,
			"-0.007": 8.37195257013,
			"-0.006": 13.0814136444,
			"-0.005": 16.7232326203,
			"-0.004": 15.6035250152,
			"-0.003": 18.8543315952,
			"-0.002": 19.6066094757,
			"-0.001": 21.5984531256,
			"0.0": 22.5233737999,
			"0.001": 33.7091839187,
			"0.002": 30.6911235691,
			"0.003": 20.3343899387,
			"0.004": 11.3773272117,
			"0.005": 10.0962522159,
			"0.006": 3.92480514229,
			"0.007": 3.41778441919,
			"0.008": 3.70185985859,
			"0.009": 3.92643996039,
			"0.01": 4.2202703008,
			"0.011": 4.90439706093,
			"0.012": 2.96419445564,
			"0.013": 0.0672992891961,
			"0.014": 0.0,
			"0.015": 0.0,
			"0.016": 0.0,
			"0.017": 0.0,
			"0.018": 0.0,
			"0.019": 0.0,
			"0.02": 0.0,
			"0.021": 0.0,
			"0.022": 0.0,
			"0.023": 0.0,
			"0.024": 0.0,
			"0.025": 0.0
		}
	}
}
