{
	 "smiles": "CC(C)CCCCCCCOC(=O)C=C", 
	 "Tm": 173.15, 
	 "num_atms": 39, 
	 "gaussian": { 
		 "optdone": 1, 
		 "sigma_profile": "yes", 
		 "theory": "DFT", 
		 "functional": "B3LYP", 
		 "basiset": "6-31G**", 
		 "properties": { 
			 "R2extent": 6573.3778, 
			 "electric_dipole_moment_norm": 2.20594166967, 
			 "electric_quadrupole_moment_norm": 15.0242091209, 
			 "total_energy": -660.313095674, 
			 "HOMO_LUMO_gap": 0.22435, 
			 "cosmo_polarized_energy": -6.78, 
			 "cosmo_cavitation_energy": 40.81, 
			 "cosmo_dispersion_energy": -27.05, 
			 "cosmo_repulsion_energy": 2.19, 
			 "cosmo_total_nonelectrostatic_energy": 15.96, 
			 "SMD_solvation_energy": 7.92 
		},
		"coords": [
			{
				"x": -4.4657748588,
				"y": -2.0774923207,
				"z": -2.8091851323,
				"element": "C" 
			},
			{
				"x": -3.0849078493,
				"y": -1.7434711219,
				"z": -2.2243927404,
				"element": "C" 
			},
			{
				"x": -2.116464775,
				"y": -2.919086811,
				"z": -2.4237746346,
				"element": "C" 
			},
			{
				"x": -2.5518364111,
				"y": -0.4311274378,
				"z": -2.8366958635,
				"element": "C" 
			},
			{
				"x": -1.2213208585,
				"y": 0.1012846256,
				"z": -2.2770899469,
				"element": "C" 
			},
			{
				"x": -1.2544567127,
				"y": 0.4825136702,
				"z": -0.7903325777,
				"element": "C" 
			},
			{
				"x": 0.0587655386,
				"y": 1.1057328269,
				"z": -0.2986331989,
				"element": "C" 
			},
			{
				"x": 0.0201894271,
				"y": 1.4852690203,
				"z": 1.1887420151,
				"element": "C" 
			},
			{
				"x": 1.270143971,
				"y": 2.2001095753,
				"z": 1.7312539375,
				"element": "C" 
			},
			{
				"x": 2.5227672417,
				"y": 1.3465034209,
				"z": 1.8787653399,
				"element": "C" 
			},
			{
				"x": 3.0709969308,
				"y": 1.0741494327,
				"z": 0.5686956254,
				"element": "O" 
			},
			{
				"x": 4.1890867409,
				"y": 0.3130427402,
				"z": 0.5479199873,
				"element": "C" 
			},
			{
				"x": 4.7154423898,
				"y": -0.1360597145,
				"z": 1.5479501268,
				"element": "O" 
			},
			{
				"x": 4.7115763086,
				"y": 0.0805084494,
				"z": -0.8220620816,
				"element": "C" 
			},
			{
				"x": 4.1754953213,
				"y": 0.5821212606,
				"z": -1.9372523889,
				"element": "C" 
			},
			{
				"x": -5.1793449904,
				"y": -1.2632083229,
				"z": -2.6410601717,
				"element": "H" 
			},
			{
				"x": -4.8808578054,
				"y": -2.9854372233,
				"z": -2.3580718899,
				"element": "H" 
			},
			{
				"x": -4.4023601686,
				"y": -2.2446567819,
				"z": -3.8916796836,
				"element": "H" 
			},
			{
				"x": -3.2131942345,
				"y": -1.5916293145,
				"z": -1.1431597224,
				"element": "H" 
			},
			{
				"x": -1.1475169391,
				"y": -2.7422015685,
				"z": -1.94655334,
				"element": "H" 
			},
			{
				"x": -1.9342756007,
				"y": -3.097533873,
				"z": -3.4910602497,
				"element": "H" 
			},
			{
				"x": -2.527787464,
				"y": -3.8417503519,
				"z": -1.9999525069,
				"element": "H" 
			},
			{
				"x": -2.4442019349,
				"y": -0.5769909086,
				"z": -3.9213868443,
				"element": "H" 
			},
			{
				"x": -3.3189836953,
				"y": 0.3464567313,
				"z": -2.7126281114,
				"element": "H" 
			},
			{
				"x": -0.4216463607,
				"y": -0.6321865423,
				"z": -2.4450437345,
				"element": "H" 
			},
			{
				"x": -0.9362116352,
				"y": 0.987945806,
				"z": -2.8600062479,
				"element": "H" 
			},
			{
				"x": -1.4789385209,
				"y": -0.4036687944,
				"z": -0.1814990547,
				"element": "H" 
			},
			{
				"x": -2.0812542609,
				"y": 1.1866787924,
				"z": -0.6155625366,
				"element": "H" 
			},
			{
				"x": 0.8862180081,
				"y": 0.4116875294,
				"z": -0.4838988136,
				"element": "H" 
			},
			{
				"x": 0.2790388868,
				"y": 2.0044602404,
				"z": -0.8929502709,
				"element": "H" 
			},
			{
				"x": -0.8451610673,
				"y": 2.13995482,
				"z": 1.3596838221,
				"element": "H" 
			},
			{
				"x": -0.1637721511,
				"y": 0.5837154541,
				"z": 1.7908487767,
				"element": "H" 
			},
			{
				"x": 1.042634122,
				"y": 2.5877475735,
				"z": 2.7328334083,
				"element": "H" 
			},
			{
				"x": 1.5080920173,
				"y": 3.0740928656,
				"z": 1.1112100283,
				"element": "H" 
			},
			{
				"x": 2.3104906664,
				"y": 0.3950087311,
				"z": 2.3789474813,
				"element": "H" 
			},
			{
				"x": 3.2863670848,
				"y": 1.8623501553,
				"z": 2.470161867,
				"element": "H" 
			},
			{
				"x": 5.597779965,
				"y": -0.5465221263,
				"z": -0.8433759689,
				"element": "H" 
			},
			{
				"x": 3.2922139229,
				"y": 1.2111461304,
				"z": -1.9062346273,
				"element": "H" 
			},
			{
				"x": 4.6094697513,
				"y": 0.3760433619,
				"z": -2.9109700764,
				"element": "H" 
			}
		],
		 "valence_orbital": [ 
			{
				"type": "occ",
				"energy": -0.30489,
				"method": "rhf"
			},
			{
				"type": "occ",
				"energy": -0.30189,
				"method": "rhf"
			},
			{
				"type": "occ",
				"energy": -0.29244,
				"method": "rhf"
			},
			{
				"type": "occ",
				"energy": -0.28331,
				"method": "rhf"
			},
			{
				"type": "occ",
				"energy": -0.26901,
				"method": "rhf"
			},
			{
				"type": "unocc",
				"energy": -0.04466,
				"method": "rhf"
			},
			{
				"type": "unocc",
				"energy": 0.07988,
				"method": "rhf"
			},
			{
				"type": "unocc",
				"energy": 0.08534,
				"method": "rhf"
			},
			{
				"type": "unocc",
				"energy": 0.08962,
				"method": "rhf"
			},
			{
				"type": "unocc",
				"energy": 0.10508,
				"method": "rhf"
			}
		],
		"cosmo_sigma_profile": { 
			"-0.025": 0.0,
			"-0.024": 0.0,
			"-0.023": 0.0,
			"-0.022": 0.0,
			"-0.021": 0.0,
			"-0.02": 0.0,
			"-0.019": 0.0,
			"-0.018": 0.0,
			"-0.017": 0.0,
			"-0.016": 0.0,
			"-0.015": 0.0,
			"-0.014": 0.0,
			"-0.013": 0.0,
			"-0.012": 0.0,
			"-0.011": 0.0,
			"-0.01": 0.0,
			"-0.009": 0.0,
			"-0.008": 0.146439757539,
			"-0.007": 2.50885781114,
			"-0.006": 3.99814219199,
			"-0.005": 8.04179068847,
			"-0.004": 13.5491778997,
			"-0.003": 19.3022540081,
			"-0.002": 41.4458237204,
			"-0.001": 59.2796044496,
			"0.0": 59.1280182858,
			"0.001": 46.0382784055,
			"0.002": 29.6640835768,
			"0.003": 8.15270196494,
			"0.004": 3.93058204138,
			"0.005": 2.8001962471,
			"0.006": 2.0323284784,
			"0.007": 1.05377390282,
			"0.008": 1.68812677526,
			"0.009": 1.57272528423,
			"0.01": 1.89557291704,
			"0.011": 1.93511504689,
			"0.012": 5.07872362288,
			"0.013": 2.28833756922,
			"0.014": 0.0361143567459,
			"0.015": 0.0,
			"0.016": 0.0,
			"0.017": 0.0,
			"0.018": 0.0,
			"0.019": 0.0,
			"0.02": 0.0,
			"0.021": 0.0,
			"0.022": 0.0,
			"0.023": 0.0,
			"0.024": 0.0,
			"0.025": 0.0
		}
	}
}
