{
	 "smiles": "CCCCCCCCCC(=O)CCC", 
	 "Tm": 292.15, 
	 "num_atms": 40, 
	 "gaussian": { 
		 "optdone": 1, 
		 "sigma_profile": "yes", 
		 "theory": "DFT", 
		 "functional": "B3LYP", 
		 "basiset": "6-31G**", 
		 "properties": { 
			 "R2extent": 6868.1687, 
			 "electric_dipole_moment_norm": 2.3628646745, 
			 "electric_quadrupole_moment_norm": 10.5538828523, 
			 "total_energy": -586.312169463, 
			 "HOMO_LUMO_gap": 0.22723, 
			 "cosmo_polarized_energy": -6.84, 
			 "cosmo_cavitation_energy": 39.93, 
			 "cosmo_dispersion_energy": -27.19, 
			 "cosmo_repulsion_energy": 2.21, 
			 "cosmo_total_nonelectrostatic_energy": 14.96, 
			 "SMD_solvation_energy": 6.12 
		},
		"coords": [
			{
				"x": 4.0158770749,
				"y": 0.8454583606,
				"z": -2.4613611,
				"element": "C" 
			},
			{
				"x": 4.0735142298,
				"y": 2.2395811542,
				"z": -1.8249814839,
				"element": "C" 
			},
			{
				"x": 2.7769860429,
				"y": 2.6719835563,
				"z": -1.1196127614,
				"element": "C" 
			},
			{
				"x": 2.42147109,
				"y": 1.8385322501,
				"z": 0.1209958074,
				"element": "C" 
			},
			{
				"x": 1.2124531354,
				"y": 2.3659736715,
				"z": 0.9147324171,
				"element": "C" 
			},
			{
				"x": -0.1339285465,
				"y": 2.3671037796,
				"z": 0.1677288294,
				"element": "C" 
			},
			{
				"x": -0.6300637707,
				"y": 0.9953262301,
				"z": -0.3242494755,
				"element": "C" 
			},
			{
				"x": -0.8043211125,
				"y": -0.0826971142,
				"z": 0.7603257511,
				"element": "C" 
			},
			{
				"x": -1.7663174848,
				"y": 0.2848591436,
				"z": 1.9184923721,
				"element": "C" 
			},
			{
				"x": -3.1732886962,
				"y": 0.5993004006,
				"z": 1.4267475341,
				"element": "C" 
			},
			{
				"x": -3.4937962079,
				"y": 1.7329454942,
				"z": 1.1117738692,
				"element": "O" 
			},
			{
				"x": -4.1480286384,
				"y": -0.5671196868,
				"z": 1.325387775,
				"element": "C" 
			},
			{
				"x": -5.4715862037,
				"y": -0.2224947063,
				"z": 0.6417489582,
				"element": "C" 
			},
			{
				"x": -6.4430193723,
				"y": -1.4053811551,
				"z": 0.5975405147,
				"element": "C" 
			},
			{
				"x": 4.9457145048,
				"y": 0.6154155642,
				"z": -2.9921237312,
				"element": "H" 
			},
			{
				"x": 3.1953297618,
				"y": 0.7767268195,
				"z": -3.1854718255,
				"element": "H" 
			},
			{
				"x": 3.8634906771,
				"y": 0.0603425046,
				"z": -1.7136280553,
				"element": "H" 
			},
			{
				"x": 4.3113957844,
				"y": 2.9753525484,
				"z": -2.6039477873,
				"element": "H" 
			},
			{
				"x": 4.9048159721,
				"y": 2.2790339062,
				"z": -1.1073943953,
				"element": "H" 
			},
			{
				"x": 1.9513008756,
				"y": 2.6383290238,
				"z": -1.8433148476,
				"element": "H" 
			},
			{
				"x": 2.8727966423,
				"y": 3.7245880904,
				"z": -0.81869102,
				"element": "H" 
			},
			{
				"x": 2.2452193061,
				"y": 0.7949707328,
				"z": -0.1692129989,
				"element": "H" 
			},
			{
				"x": 3.2929530192,
				"y": 1.8185271603,
				"z": 0.7904126394,
				"element": "H" 
			},
			{
				"x": 1.1182458506,
				"y": 1.7794351112,
				"z": 1.8385003409,
				"element": "H" 
			},
			{
				"x": 1.4259516043,
				"y": 3.3936402954,
				"z": 1.2393163181,
				"element": "H" 
			},
			{
				"x": -0.0677702981,
				"y": 3.034442689,
				"z": -0.7005310462,
				"element": "H" 
			},
			{
				"x": -0.9015806882,
				"y": 2.8064040927,
				"z": 0.8148299243,
				"element": "H" 
			},
			{
				"x": -1.5863045734,
				"y": 1.1477634652,
				"z": -0.8384877452,
				"element": "H" 
			},
			{
				"x": 0.0590165728,
				"y": 0.5991861073,
				"z": -1.0813238379,
				"element": "H" 
			},
			{
				"x": -1.1545225816,
				"y": -1.0078947665,
				"z": 0.2840240378,
				"element": "H" 
			},
			{
				"x": 0.1677940423,
				"y": -0.3270279466,
				"z": 1.2050079765,
				"element": "H" 
			},
			{
				"x": -1.7949735336,
				"y": -0.5505653532,
				"z": 2.6283299893,
				"element": "H" 
			},
			{
				"x": -1.3955747543,
				"y": 1.1673967999,
				"z": 2.4477878409,
				"element": "H" 
			},
			{
				"x": -3.6412519715,
				"y": -1.3997584073,
				"z": 0.8151163846,
				"element": "H" 
			},
			{
				"x": -4.3227658494,
				"y": -0.9326511224,
				"z": 2.3495468309,
				"element": "H" 
			},
			{
				"x": -5.2656717078,
				"y": 0.1336783001,
				"z": -0.3742981096,
				"element": "H" 
			},
			{
				"x": -5.9281263343,
				"y": 0.6251768361,
				"z": 1.1637065582,
				"element": "H" 
			},
			{
				"x": -6.0171020383,
				"y": -2.2546582293,
				"z": 0.0505024626,
				"element": "H" 
			},
			{
				"x": -6.6927484579,
				"y": -1.7557980992,
				"z": 1.6058683846,
				"element": "H" 
			},
			{
				"x": -7.3793833648,
				"y": -1.1293275009,
				"z": 0.1022067046,
				"element": "H" 
			}
		],
		 "valence_orbital": [ 
			{
				"type": "occ",
				"energy": -0.31882,
				"method": "rhf"
			},
			{
				"type": "occ",
				"energy": -0.30466,
				"method": "rhf"
			},
			{
				"type": "occ",
				"energy": -0.30104,
				"method": "rhf"
			},
			{
				"type": "occ",
				"energy": -0.29941,
				"method": "rhf"
			},
			{
				"type": "occ",
				"energy": -0.2383,
				"method": "rhf"
			},
			{
				"type": "unocc",
				"energy": -0.01107,
				"method": "rhf"
			},
			{
				"type": "unocc",
				"energy": 0.07064,
				"method": "rhf"
			},
			{
				"type": "unocc",
				"energy": 0.08969,
				"method": "rhf"
			},
			{
				"type": "unocc",
				"energy": 0.09942,
				"method": "rhf"
			},
			{
				"type": "unocc",
				"energy": 0.11008,
				"method": "rhf"
			}
		],
		"cosmo_sigma_profile": { 
			"-0.025": 0.0,
			"-0.024": 0.0,
			"-0.023": 0.0,
			"-0.022": 0.0,
			"-0.021": 0.0,
			"-0.02": 0.0,
			"-0.019": 0.0,
			"-0.018": 0.0,
			"-0.017": 0.0,
			"-0.016": 0.0,
			"-0.015": 0.0,
			"-0.014": 0.0,
			"-0.013": 0.0,
			"-0.012": 0.0,
			"-0.011": 0.0,
			"-0.01": 0.0,
			"-0.009": 0.0,
			"-0.008": 0.0,
			"-0.007": 0.0,
			"-0.006": 0.71795472898,
			"-0.005": 6.05638209361,
			"-0.004": 11.8503958858,
			"-0.003": 20.6501167827,
			"-0.002": 49.2175654979,
			"-0.001": 61.3196506585,
			"0.0": 57.047820732,
			"0.001": 52.2840584255,
			"0.002": 21.4798852169,
			"0.003": 2.85333248763,
			"0.004": 1.9265285169,
			"0.005": 1.9641681627,
			"0.006": 2.54235596543,
			"0.007": 2.12753787465,
			"0.008": 1.72214550563,
			"0.009": 2.00898043064,
			"0.01": 2.29454951369,
			"0.011": 1.90665594805,
			"0.012": 3.67703491138,
			"0.013": 2.38104233921,
			"0.014": 0.147653062069,
			"0.015": 0.0,
			"0.016": 0.0,
			"0.017": 0.0,
			"0.018": 0.0,
			"0.019": 0.0,
			"0.02": 0.0,
			"0.021": 0.0,
			"0.022": 0.0,
			"0.023": 0.0,
			"0.024": 0.0,
			"0.025": 0.0
		}
	}
}
