{
	 "smiles": "CC1=NC(C)=NC(NN)=C1", 
	 "Tm": 463.15, 
	 "num_atms": 20, 
	 "gaussian": { 
		 "optdone": 1, 
		 "sigma_profile": "yes", 
		 "theory": "DFT", 
		 "functional": "B3LYP", 
		 "basiset": "6-31G**", 
		 "properties": { 
			 "R2extent": 2032.5932, 
			 "electric_dipole_moment_norm": 1.47406602973, 
			 "electric_quadrupole_moment_norm": 6.43523016915, 
			 "total_energy": -453.662239233, 
			 "HOMO_LUMO_gap": 0.21151, 
			 "cosmo_polarized_energy": -10.96, 
			 "cosmo_cavitation_energy": 23.72, 
			 "cosmo_dispersion_energy": -17.64, 
			 "cosmo_repulsion_energy": 1.47, 
			 "cosmo_total_nonelectrostatic_energy": 7.56, 
			 "SMD_solvation_energy": 2.37 
		},
		"coords": [
			{
				"x": -1.7211817892,
				"y": -1.5980215452,
				"z": 0.4044342953,
				"element": "C" 
			},
			{
				"x": -0.639571084,
				"y": -0.8111841763,
				"z": -0.2862580291,
				"element": "C" 
			},
			{
				"x": 0.5093312434,
				"y": -0.6396673502,
				"z": 0.4114787811,
				"element": "N" 
			},
			{
				"x": 1.4739548283,
				"y": 0.0585874868,
				"z": -0.1880937714,
				"element": "C" 
			},
			{
				"x": 2.7574148787,
				"y": 0.2642281958,
				"z": 0.5736040802,
				"element": "C" 
			},
			{
				"x": 1.4195287352,
				"y": 0.6061991215,
				"z": -1.4166027349,
				"element": "N" 
			},
			{
				"x": 0.2833941164,
				"y": 0.4253519626,
				"z": -2.1014571009,
				"element": "C" 
			},
			{
				"x": 0.2176608678,
				"y": 0.9531150887,
				"z": -3.3669909677,
				"element": "N" 
			},
			{
				"x": 1.1886412214,
				"y": 1.8497480202,
				"z": -3.8579250594,
				"element": "N" 
			},
			{
				"x": -0.8053405106,
				"y": -0.2919158214,
				"z": -1.5578788561,
				"element": "C" 
			},
			{
				"x": -1.355138439,
				"y": -2.5999479512,
				"z": 0.6514533256,
				"element": "H" 
			},
			{
				"x": -2.6184758819,
				"y": -1.6910633142,
				"z": -0.212609648,
				"element": "H" 
			},
			{
				"x": -1.9886654779,
				"y": -1.1165411323,
				"z": 1.350663119,
				"element": "H" 
			},
			{
				"x": 2.9690912362,
				"y": 1.3331832488,
				"z": 0.6807816329,
				"element": "H" 
			},
			{
				"x": 2.6884949006,
				"y": -0.1954085401,
				"z": 1.5598747299,
				"element": "H" 
			},
			{
				"x": 3.5982518868,
				"y": -0.1736060434,
				"z": 0.0251682685,
				"element": "H" 
			},
			{
				"x": -0.6951285519,
				"y": 1.0790251797,
				"z": -3.7785439617,
				"element": "H" 
			},
			{
				"x": 1.5093562662,
				"y": 2.419657545,
				"z": -3.0738058312,
				"element": "H" 
			},
			{
				"x": 2.0004194436,
				"y": 1.2971568334,
				"z": -4.1307553386,
				"element": "H" 
			},
			{
				"x": -1.7256378902,
				"y": -0.4326968081,
				"z": -2.1161369336,
				"element": "H" 
			}
		],
		 "valence_orbital": [ 
			{
				"type": "occ",
				"energy": -0.29005,
				"method": "rhf"
			},
			{
				"type": "occ",
				"energy": -0.27503,
				"method": "rhf"
			},
			{
				"type": "occ",
				"energy": -0.26878,
				"method": "rhf"
			},
			{
				"type": "occ",
				"energy": -0.2397,
				"method": "rhf"
			},
			{
				"type": "occ",
				"energy": -0.22517,
				"method": "rhf"
			},
			{
				"type": "unocc",
				"energy": -0.01366,
				"method": "rhf"
			},
			{
				"type": "unocc",
				"energy": -0.00076,
				"method": "rhf"
			},
			{
				"type": "unocc",
				"energy": 0.08901,
				"method": "rhf"
			},
			{
				"type": "unocc",
				"energy": 0.09577,
				"method": "rhf"
			},
			{
				"type": "unocc",
				"energy": 0.11574,
				"method": "rhf"
			}
		],
		"cosmo_sigma_profile": { 
			"-0.025": 0.0,
			"-0.024": 0.0,
			"-0.023": 0.0,
			"-0.022": 0.0,
			"-0.021": 0.0,
			"-0.02": 0.0,
			"-0.019": 0.0,
			"-0.018": 0.0,
			"-0.017": 0.0,
			"-0.016": 0.0,
			"-0.015": 0.0253903805796,
			"-0.014": 0.775938851951,
			"-0.013": 1.34177451168,
			"-0.012": 1.67833181771,
			"-0.011": 1.95283436653,
			"-0.01": 2.12078955497,
			"-0.009": 3.64355592319,
			"-0.008": 4.39319059295,
			"-0.007": 3.74785113253,
			"-0.006": 3.93860300291,
			"-0.005": 9.1479147879,
			"-0.004": 12.3757107532,
			"-0.003": 13.210099321,
			"-0.002": 16.0596553327,
			"-0.001": 16.598089745,
			"0.0": 19.6635679671,
			"0.001": 14.7921351811,
			"0.002": 12.7386262453,
			"0.003": 10.099374342,
			"0.004": 5.84683003922,
			"0.005": 4.59557087843,
			"0.006": 5.52163294263,
			"0.007": 3.62929681963,
			"0.008": 2.83341919912,
			"0.009": 2.56635592499,
			"0.01": 2.41918236177,
			"0.011": 2.78259289941,
			"0.012": 2.12506992078,
			"0.013": 1.70705738179,
			"0.014": 1.0530198792,
			"0.015": 1.56739875178,
			"0.016": 1.39420184735,
			"0.017": 0.46570012253,
			"0.018": 0.0,
			"0.019": 0.0,
			"0.02": 0.0,
			"0.021": 0.0,
			"0.022": 0.0,
			"0.023": 0.0,
			"0.024": 0.0,
			"0.025": 0.0
		}
	}
}
