{
	 "smiles": "CC(C)(C)NS(=O)(=O)C1=C(NN)C=CC=C1", 
	 "Tm": 396.15, 
	 "num_atms": 33, 
	 "gaussian": { 
		 "optdone": 1, 
		 "sigma_profile": "yes", 
		 "theory": "DFT", 
		 "functional": "B3LYP", 
		 "basiset": "6-31G**", 
		 "properties": { 
			 "R2extent": 4215.6378, 
			 "electric_dipole_moment_norm": 2.53497356791, 
			 "electric_quadrupole_moment_norm": 17.5660740087, 
			 "total_energy": -1104.09473728, 
			 "HOMO_LUMO_gap": 0.18983, 
			 "cosmo_polarized_energy": -20.04, 
			 "cosmo_cavitation_energy": 35.45, 
			 "cosmo_dispersion_energy": -25.26, 
			 "cosmo_repulsion_energy": 1.92, 
			 "cosmo_total_nonelectrostatic_energy": 12.11, 
			 "SMD_solvation_energy": 6.26 
		},
		"coords": [
			{
				"x": 2.762205467,
				"y": 0.663287812,
				"z": -1.3563079198,
				"element": "C" 
			},
			{
				"x": 1.4042203186,
				"y": 0.9513025228,
				"z": -2.0151485553,
				"element": "C" 
			},
			{
				"x": 1.1195958432,
				"y": -0.0486433984,
				"z": -3.1526914973,
				"element": "C" 
			},
			{
				"x": 1.4042890898,
				"y": 2.3848010833,
				"z": -2.5762760999,
				"element": "C" 
			},
			{
				"x": 0.3266043927,
				"y": 0.9659108173,
				"z": -0.9699630604,
				"element": "N" 
			},
			{
				"x": -0.2781091182,
				"y": -0.465019698,
				"z": -0.2706577095,
				"element": "S" 
			},
			{
				"x": 0.8054570548,
				"y": -1.4538168844,
				"z": -0.3028483289,
				"element": "O" 
			},
			{
				"x": -1.5741488374,
				"y": -0.742732701,
				"z": -0.9124794902,
				"element": "O" 
			},
			{
				"x": -0.596456461,
				"y": 0.1101869901,
				"z": 1.4195542402,
				"element": "C" 
			},
			{
				"x": -1.595132231,
				"y": -0.4721643286,
				"z": 2.2402312541,
				"element": "C" 
			},
			{
				"x": -2.3638359217,
				"y": -1.5644928197,
				"z": 1.8627073389,
				"element": "N" 
			},
			{
				"x": -1.7351715154,
				"y": -2.5955590202,
				"z": 1.1489949685,
				"element": "N" 
			},
			{
				"x": -1.85654292,
				"y": 0.1311211214,
				"z": 3.4864780606,
				"element": "C" 
			},
			{
				"x": -1.1352759864,
				"y": 1.2309192067,
				"z": 3.9297851759,
				"element": "C" 
			},
			{
				"x": -0.1094694122,
				"y": 1.7600962563,
				"z": 3.1438668974,
				"element": "C" 
			},
			{
				"x": 0.1469720014,
				"y": 1.1970962713,
				"z": 1.8974436668,
				"element": "C" 
			},
			{
				"x": 2.9713910587,
				"y": 1.3983813483,
				"z": -0.5724648115,
				"element": "H" 
			},
			{
				"x": 2.7818311494,
				"y": -0.3337259091,
				"z": -0.9156296974,
				"element": "H" 
			},
			{
				"x": 3.5565354536,
				"y": 0.7304675445,
				"z": -2.10716809,
				"element": "H" 
			},
			{
				"x": 1.1360499793,
				"y": -1.0752189383,
				"z": -2.7820223185,
				"element": "H" 
			},
			{
				"x": 1.8782438683,
				"y": 0.0475343769,
				"z": -3.9369881494,
				"element": "H" 
			},
			{
				"x": 0.1391982654,
				"y": 0.1408498377,
				"z": -3.6021748196,
				"element": "H" 
			},
			{
				"x": 1.5746697958,
				"y": 3.1172699294,
				"z": -1.781386497,
				"element": "H" 
			},
			{
				"x": 2.1979055156,
				"y": 2.4930227625,
				"z": -3.3214737256,
				"element": "H" 
			},
			{
				"x": 0.4530216144,
				"y": 2.6210684208,
				"z": -3.0681740044,
				"element": "H" 
			},
			{
				"x": -0.4903030103,
				"y": 1.4753220325,
				"z": -1.3008790956,
				"element": "H" 
			},
			{
				"x": -3.0507196389,
				"y": -1.8425048874,
				"z": 2.5544056172,
				"element": "H" 
			},
			{
				"x": -2.2543735885,
				"y": -2.8052796042,
				"z": 0.3038312964,
				"element": "H" 
			},
			{
				"x": -1.6011772442,
				"y": -3.4244398738,
				"z": 1.721355238,
				"element": "H" 
			},
			{
				"x": -2.6295838876,
				"y": -0.3014116522,
				"z": 4.1177329461,
				"element": "H" 
			},
			{
				"x": -1.3613904933,
				"y": 1.6615633364,
				"z": 4.9011730643,
				"element": "H" 
			},
			{
				"x": 0.4756278928,
				"y": 2.6062081771,
				"z": 3.4888008304,
				"element": "H" 
			},
			{
				"x": 0.9061715053,
				"y": 1.6215998682,
				"z": 1.2533732756,
				"element": "H" 
			}
		],
		 "valence_orbital": [ 
			{
				"type": "occ",
				"energy": -0.28097,
				"method": "rhf"
			},
			{
				"type": "occ",
				"energy": -0.26512,
				"method": "rhf"
			},
			{
				"type": "occ",
				"energy": -0.2496,
				"method": "rhf"
			},
			{
				"type": "occ",
				"energy": -0.24236,
				"method": "rhf"
			},
			{
				"type": "occ",
				"energy": -0.20917,
				"method": "rhf"
			},
			{
				"type": "unocc",
				"energy": -0.01934,
				"method": "rhf"
			},
			{
				"type": "unocc",
				"energy": 0.00336,
				"method": "rhf"
			},
			{
				"type": "unocc",
				"energy": 0.06343,
				"method": "rhf"
			},
			{
				"type": "unocc",
				"energy": 0.0717,
				"method": "rhf"
			},
			{
				"type": "unocc",
				"energy": 0.07614,
				"method": "rhf"
			}
		],
		"cosmo_sigma_profile": { 
			"-0.025": 0.0,
			"-0.024": 0.0,
			"-0.023": 0.0,
			"-0.022": 0.0,
			"-0.021": 0.0,
			"-0.02": 0.0,
			"-0.019": 0.0,
			"-0.018": 0.0,
			"-0.017": 0.0,
			"-0.016": 0.0,
			"-0.015": 0.0,
			"-0.014": 0.200107862854,
			"-0.013": 2.08724040168,
			"-0.012": 4.13592957284,
			"-0.011": 4.350816959,
			"-0.01": 5.30374705781,
			"-0.009": 5.04251577298,
			"-0.008": 4.93801934142,
			"-0.007": 5.51405674032,
			"-0.006": 9.08781891143,
			"-0.005": 10.4307781238,
			"-0.004": 17.9570120146,
			"-0.003": 22.7619668188,
			"-0.002": 21.1296619693,
			"-0.001": 22.472977255,
			"0.0": 24.8857490293,
			"0.001": 24.7065652205,
			"0.002": 12.3334546067,
			"0.003": 12.5486832206,
			"0.004": 16.2217008906,
			"0.005": 11.2520652135,
			"0.006": 3.54554525782,
			"0.007": 4.02479696901,
			"0.008": 3.58106940968,
			"0.009": 3.95067989958,
			"0.01": 4.69355093642,
			"0.011": 6.12798452825,
			"0.012": 6.9767772898,
			"0.013": 4.0151085604,
			"0.014": 1.59581768925,
			"0.015": 1.2900514585,
			"0.016": 0.228635027078,
			"0.017": 0.0,
			"0.018": 0.0,
			"0.019": 0.0,
			"0.02": 0.0,
			"0.021": 0.0,
			"0.022": 0.0,
			"0.023": 0.0,
			"0.024": 0.0,
			"0.025": 0.0
		}
	}
}
