{
	 "smiles": "ClC1=CC=C(CN(C2CCCC2)C(=O)NC2=CC=CC=C2)C=C1", 
	 "Tm": 405.15, 
	 "num_atms": 44, 
	 "gaussian": { 
		 "optdone": 1, 
		 "sigma_profile": "yes", 
		 "theory": "DFT", 
		 "functional": "B3LYP", 
		 "basiset": "6-31G**", 
		 "properties": { 
			 "R2extent": 7996.4098, 
			 "electric_dipole_moment_norm": 1.51732081314, 
			 "electric_quadrupole_moment_norm": 22.9103481069, 
			 "total_energy": -1381.61325137, 
			 "HOMO_LUMO_gap": 0.21401, 
			 "cosmo_polarized_energy": -12.28, 
			 "cosmo_cavitation_energy": 46.58, 
			 "cosmo_dispersion_energy": -30.36, 
			 "cosmo_repulsion_energy": 2.33, 
			 "cosmo_total_nonelectrostatic_energy": 18.55, 
			 "SMD_solvation_energy": 7.2 
		},
		"coords": [
			{
				"x": -2.4304121015,
				"y": 0.4245177512,
				"z": -4.9770341249,
				"element": "Cl" 
			},
			{
				"x": -1.3877806305,
				"y": 0.1382922832,
				"z": -3.5883030021,
				"element": "C" 
			},
			{
				"x": -0.1250967312,
				"y": -0.4198110795,
				"z": -3.7808150602,
				"element": "C" 
			},
			{
				"x": 0.6930013956,
				"y": -0.6372601804,
				"z": -2.6726519586,
				"element": "C" 
			},
			{
				"x": 0.2699013957,
				"y": -0.3118467489,
				"z": -1.376986891,
				"element": "C" 
			},
			{
				"x": 1.1717478587,
				"y": -0.6508887444,
				"z": -0.2014563286,
				"element": "C" 
			},
			{
				"x": 1.0899807294,
				"y": 0.2212934457,
				"z": 0.9876681807,
				"element": "N" 
			},
			{
				"x": 1.9420337017,
				"y": 1.4516482552,
				"z": 0.9911296763,
				"element": "C" 
			},
			{
				"x": 2.031985651,
				"y": 2.1771429996,
				"z": -0.3704937755,
				"element": "C" 
			},
			{
				"x": 0.8525535255,
				"y": 3.1874876645,
				"z": -0.4300088105,
				"element": "C" 
			},
			{
				"x": 0.2644610837,
				"y": 3.2235384686,
				"z": 1.0044864192,
				"element": "C" 
			},
			{
				"x": 1.3288258537,
				"y": 2.5489070572,
				"z": 1.8866726056,
				"element": "C" 
			},
			{
				"x": 1.1052246918,
				"y": -0.435378633,
				"z": 2.2280886942,
				"element": "C" 
			},
			{
				"x": 1.8259014987,
				"y": -0.1003936477,
				"z": 3.1606131286,
				"element": "O" 
			},
			{
				"x": 0.271945394,
				"y": -1.5556454739,
				"z": 2.3543365169,
				"element": "N" 
			},
			{
				"x": -1.1029800004,
				"y": -1.6167736794,
				"z": 1.9577086653,
				"element": "C" 
			},
			{
				"x": -1.9703656392,
				"y": -0.53300221,
				"z": 2.1525203144,
				"element": "C" 
			},
			{
				"x": -3.3155831852,
				"y": -0.6431194683,
				"z": 1.8001084041,
				"element": "C" 
			},
			{
				"x": -3.8108381187,
				"y": -1.8376320122,
				"z": 1.2713051401,
				"element": "C" 
			},
			{
				"x": -2.9514682224,
				"y": -2.9227811061,
				"z": 1.0929502058,
				"element": "C" 
			},
			{
				"x": -1.6011849242,
				"y": -2.8119546284,
				"z": 1.4284519601,
				"element": "C" 
			},
			{
				"x": -1.0018765218,
				"y": 0.2467629919,
				"z": -1.2147130889,
				"element": "C" 
			},
			{
				"x": -1.8335197039,
				"y": 0.4757637352,
				"z": -2.3117972702,
				"element": "C" 
			},
			{
				"x": 0.2131773084,
				"y": -0.6726954709,
				"z": -4.7796365347,
				"element": "H" 
			},
			{
				"x": 1.6804732164,
				"y": -1.0673901524,
				"z": -2.8240988583,
				"element": "H" 
			},
			{
				"x": 0.9370393616,
				"y": -1.665397587,
				"z": 0.1285457554,
				"element": "H" 
			},
			{
				"x": 2.2133454915,
				"y": -0.6826625019,
				"z": -0.5528727504,
				"element": "H" 
			},
			{
				"x": 2.9371357672,
				"y": 1.1628141111,
				"z": 1.3483932156,
				"element": "H" 
			},
			{
				"x": 2.063435299,
				"y": 1.5136001546,
				"z": -1.2355129793,
				"element": "H" 
			},
			{
				"x": 2.9840289748,
				"y": 2.719120453,
				"z": -0.3660577032,
				"element": "H" 
			},
			{
				"x": 0.1000481981,
				"y": 2.8808730596,
				"z": -1.1609610688,
				"element": "H" 
			},
			{
				"x": 1.2116847553,
				"y": 4.1743275714,
				"z": -0.739431583,
				"element": "H" 
			},
			{
				"x": 0.025735841,
				"y": 4.2373362768,
				"z": 1.3406076947,
				"element": "H" 
			},
			{
				"x": -0.6662836153,
				"y": 2.6467994966,
				"z": 1.043334928,
				"element": "H" 
			},
			{
				"x": 2.1266343232,
				"y": 3.2624549159,
				"z": 2.1282336458,
				"element": "H" 
			},
			{
				"x": 0.9493983432,
				"y": 2.165219724,
				"z": 2.8341233586,
				"element": "H" 
			},
			{
				"x": 0.4711593415,
				"y": -2.0105138915,
				"z": 3.2383650123,
				"element": "H" 
			},
			{
				"x": -1.5883777736,
				"y": 0.3862130933,
				"z": 2.5856949175,
				"element": "H" 
			},
			{
				"x": -3.9811017555,
				"y": 0.2015413628,
				"z": 1.9541312143,
				"element": "H" 
			},
			{
				"x": -4.8597813164,
				"y": -1.9222124268,
				"z": 1.0037114283,
				"element": "H" 
			},
			{
				"x": -3.3285313076,
				"y": -3.8552904279,
				"z": 0.683321134,
				"element": "H" 
			},
			{
				"x": -0.9226257039,
				"y": -3.6473167305,
				"z": 1.2827531841,
				"element": "H" 
			},
			{
				"x": -1.3484940579,
				"y": 0.4998052157,
				"z": -0.2200630766,
				"element": "H" 
			},
			{
				"x": -2.8188576918,
				"y": 0.9084067137,
				"z": -2.176960535,
				"element": "H" 
			}
		],
		 "valence_orbital": [ 
			{
				"type": "occ",
				"energy": -0.26132,
				"method": "rhf"
			},
			{
				"type": "occ",
				"energy": -0.26067,
				"method": "rhf"
			},
			{
				"type": "occ",
				"energy": -0.24364,
				"method": "rhf"
			},
			{
				"type": "occ",
				"energy": -0.2431,
				"method": "rhf"
			},
			{
				"type": "occ",
				"energy": -0.23195,
				"method": "rhf"
			},
			{
				"type": "unocc",
				"energy": -0.01794,
				"method": "rhf"
			},
			{
				"type": "unocc",
				"energy": -0.01494,
				"method": "rhf"
			},
			{
				"type": "unocc",
				"energy": -0.01323,
				"method": "rhf"
			},
			{
				"type": "unocc",
				"energy": -0.01152,
				"method": "rhf"
			},
			{
				"type": "unocc",
				"energy": 0.02855,
				"method": "rhf"
			}
		],
		"cosmo_sigma_profile": { 
			"-0.025": 0.0,
			"-0.024": 0.0,
			"-0.023": 0.0,
			"-0.022": 0.0,
			"-0.021": 0.0,
			"-0.02": 0.0,
			"-0.019": 0.0,
			"-0.018": 0.0,
			"-0.017": 0.0,
			"-0.016": 0.0,
			"-0.015": 0.0,
			"-0.014": 0.139017480874,
			"-0.013": 0.933106110847,
			"-0.012": 0.972803393155,
			"-0.011": 0.750548827709,
			"-0.01": 0.903089047819,
			"-0.009": 0.779365264104,
			"-0.008": 0.735008220603,
			"-0.007": 4.28244051718,
			"-0.006": 14.242802678,
			"-0.005": 20.0994160214,
			"-0.004": 24.0541051592,
			"-0.003": 29.4688420919,
			"-0.002": 39.8221831111,
			"-0.001": 36.876151619,
			"0.0": 41.7793067096,
			"0.001": 36.2225714105,
			"0.002": 30.3553679772,
			"0.003": 24.1328449189,
			"0.004": 27.2323095869,
			"0.005": 18.1155793547,
			"0.006": 2.98162204726,
			"0.007": 0.768181141027,
			"0.008": 1.16019279525,
			"0.009": 1.53085062057,
			"0.01": 1.70310206107,
			"0.011": 1.45574602831,
			"0.012": 1.52047704915,
			"0.013": 3.92440172074,
			"0.014": 3.55591250133,
			"0.015": 0.162877002591,
			"0.016": 0.0,
			"0.017": 0.0,
			"0.018": 0.0,
			"0.019": 0.0,
			"0.02": 0.0,
			"0.021": 0.0,
			"0.022": 0.0,
			"0.023": 0.0,
			"0.024": 0.0,
			"0.025": 0.0
		}
	}
}
