{
	 "smiles": "O=CC1=CC2=CC=CC=C2N1S(=O)(=O)C1=CC=CC=C1", 
	 "Tm": 385.15, 
	 "num_atms": 31, 
	 "gaussian": { 
		 "optdone": 1, 
		 "sigma_profile": "yes", 
		 "theory": "DFT", 
		 "functional": "B3LYP", 
		 "basiset": "6-31G**", 
		 "properties": { 
			 "R2extent": 5912.3736, 
			 "electric_dipole_moment_norm": 5.61448487575, 
			 "electric_quadrupole_moment_norm": 20.489150519, 
			 "total_energy": -1256.74652362, 
			 "HOMO_LUMO_gap": 0.15601, 
			 "cosmo_polarized_energy": -13.62, 
			 "cosmo_cavitation_energy": 36.47, 
			 "cosmo_dispersion_energy": -25.88, 
			 "cosmo_repulsion_energy": 1.92, 
			 "cosmo_total_nonelectrostatic_energy": 12.51, 
			 "SMD_solvation_energy": 6.1 
		},
		"coords": [
			{
				"x": 0.2265701079,
				"y": 4.4472037324,
				"z": 0.4469757035,
				"element": "O" 
			},
			{
				"x": -0.5046314613,
				"y": 3.557686932,
				"z": 0.0410114911,
				"element": "C" 
			},
			{
				"x": -0.0158864217,
				"y": 2.1700403296,
				"z": -0.0785236228,
				"element": "C" 
			},
			{
				"x": 1.3033652236,
				"y": 1.8094790097,
				"z": 0.0097143459,
				"element": "C" 
			},
			{
				"x": 1.4185183349,
				"y": 0.4177247705,
				"z": -0.2904498039,
				"element": "C" 
			},
			{
				"x": 2.5189054382,
				"y": -0.4538822389,
				"z": -0.3692495552,
				"element": "C" 
			},
			{
				"x": 2.2953191109,
				"y": -1.7808433476,
				"z": -0.7029550789,
				"element": "C" 
			},
			{
				"x": 0.9921477239,
				"y": -2.2431579523,
				"z": -0.9734058884,
				"element": "C" 
			},
			{
				"x": -0.1142827099,
				"y": -1.4008765514,
				"z": -0.918298218,
				"element": "C" 
			},
			{
				"x": 0.1123885055,
				"y": -0.0644031872,
				"z": -0.567703009,
				"element": "C" 
			},
			{
				"x": -0.7786012751,
				"y": 1.0268931843,
				"z": -0.4614477548,
				"element": "N" 
			},
			{
				"x": -2.4513871133,
				"y": 0.8173753597,
				"z": -0.062391315,
				"element": "S" 
			},
			{
				"x": -2.8916444623,
				"y": -0.3601023876,
				"z": -0.8031261558,
				"element": "O" 
			},
			{
				"x": -3.0737466145,
				"y": 2.1235763224,
				"z": -0.2541911022,
				"element": "O" 
			},
			{
				"x": -2.4482411433,
				"y": 0.4364213859,
				"z": 1.6872635438,
				"element": "C" 
			},
			{
				"x": -2.5208068597,
				"y": 1.4846369183,
				"z": 2.6083645862,
				"element": "C" 
			},
			{
				"x": -2.5013034239,
				"y": 1.1832363173,
				"z": 3.9695707067,
				"element": "C" 
			},
			{
				"x": -2.4125783376,
				"y": -0.145304448,
				"z": 4.3926911913,
				"element": "C" 
			},
			{
				"x": -2.349626885,
				"y": -1.1821615953,
				"z": 3.4587590615,
				"element": "C" 
			},
			{
				"x": -2.3678254939,
				"y": -0.8979282379,
				"z": 2.0935298959,
				"element": "C" 
			},
			{
				"x": -1.5419279671,
				"y": 3.7536775109,
				"z": -0.2699648712,
				"element": "H" 
			},
			{
				"x": 2.100196421,
				"y": 2.509697225,
				"z": 0.2174480204,
				"element": "H" 
			},
			{
				"x": 3.5215604282,
				"y": -0.086606442,
				"z": -0.1720239423,
				"element": "H" 
			},
			{
				"x": 3.1306261954,
				"y": -2.4713760679,
				"z": -0.7675154671,
				"element": "H" 
			},
			{
				"x": 0.8446293315,
				"y": -3.283504304,
				"z": -1.2477921236,
				"element": "H" 
			},
			{
				"x": -1.1062782375,
				"y": -1.7583104369,
				"z": -1.1590847138,
				"element": "H" 
			},
			{
				"x": -2.6098695102,
				"y": 2.5088561645,
				"z": 2.2639786181,
				"element": "H" 
			},
			{
				"x": -2.5610158057,
				"y": 1.9859862764,
				"z": 4.697711058,
				"element": "H" 
			},
			{
				"x": -2.3992779704,
				"y": -0.3736087397,
				"z": 5.4542169284,
				"element": "H" 
			},
			{
				"x": -2.2916574344,
				"y": -2.2138146819,
				"z": 3.7914148961,
				"element": "H" 
			},
			{
				"x": -2.3360376943,
				"y": -1.6906108204,
				"z": 1.3553725751,
				"element": "H" 
			}
		],
		 "valence_orbital": [ 
			{
				"type": "occ",
				"energy": -0.28609,
				"method": "rhf"
			},
			{
				"type": "occ",
				"energy": -0.28259,
				"method": "rhf"
			},
			{
				"type": "occ",
				"energy": -0.25458,
				"method": "rhf"
			},
			{
				"type": "occ",
				"energy": -0.24774,
				"method": "rhf"
			},
			{
				"type": "occ",
				"energy": -0.23229,
				"method": "rhf"
			},
			{
				"type": "unocc",
				"energy": -0.07628,
				"method": "rhf"
			},
			{
				"type": "unocc",
				"energy": -0.05356,
				"method": "rhf"
			},
			{
				"type": "unocc",
				"energy": -0.0331,
				"method": "rhf"
			},
			{
				"type": "unocc",
				"energy": -0.00988,
				"method": "rhf"
			},
			{
				"type": "unocc",
				"energy": 0.00659,
				"method": "rhf"
			}
		],
		"cosmo_sigma_profile": { 
			"-0.025": 0.0,
			"-0.024": 0.0,
			"-0.023": 0.0,
			"-0.022": 0.0,
			"-0.021": 0.0,
			"-0.02": 0.0,
			"-0.019": 0.0,
			"-0.018": 0.0,
			"-0.017": 0.0,
			"-0.016": 0.0,
			"-0.015": 0.0,
			"-0.014": 0.0,
			"-0.013": 0.0,
			"-0.012": 0.0,
			"-0.011": 0.0,
			"-0.01": 0.0,
			"-0.009": 0.127036409521,
			"-0.008": 2.74623247289,
			"-0.007": 14.759912673,
			"-0.006": 22.2876566122,
			"-0.005": 21.9162854802,
			"-0.004": 20.1749187071,
			"-0.003": 18.9278264546,
			"-0.002": 17.5342354691,
			"-0.001": 18.8727254632,
			"0.0": 24.3503391285,
			"0.001": 27.8295329913,
			"0.002": 29.333852787,
			"0.003": 19.8907185301,
			"0.004": 12.574629271,
			"0.005": 5.97113047591,
			"0.006": 4.41674026975,
			"0.007": 4.05983023338,
			"0.008": 5.7170281318,
			"0.009": 8.2542152103,
			"0.01": 6.74302531145,
			"0.011": 4.76799984559,
			"0.012": 2.59334075852,
			"0.013": 0.744207402371,
			"0.014": 0.0,
			"0.015": 0.0,
			"0.016": 0.0,
			"0.017": 0.0,
			"0.018": 0.0,
			"0.019": 0.0,
			"0.02": 0.0,
			"0.021": 0.0,
			"0.022": 0.0,
			"0.023": 0.0,
			"0.024": 0.0,
			"0.025": 0.0
		}
	}
}
