{
	 "smiles": "OC(=O)CN1CCN(CC1)C(=O)OCC1=CC=CC=C1", 
	 "Tm": 416.15, 
	 "num_atms": 38, 
	 "gaussian": { 
		 "optdone": 1, 
		 "sigma_profile": "yes", 
		 "theory": "DFT", 
		 "functional": "B3LYP", 
		 "basiset": "6-31G**", 
		 "properties": { 
			 "R2extent": 9428.042, 
			 "electric_dipole_moment_norm": 4.72179852493, 
			 "electric_quadrupole_moment_norm": 24.3721401022, 
			 "total_energy": -954.745662738, 
			 "HOMO_LUMO_gap": 0.20954, 
			 "cosmo_polarized_energy": -21.68, 
			 "cosmo_cavitation_energy": 40.69, 
			 "cosmo_dispersion_energy": -28.88, 
			 "cosmo_repulsion_energy": 2.24, 
			 "cosmo_total_nonelectrostatic_energy": 14.06, 
			 "SMD_solvation_energy": 5.8 
		},
		"coords": [
			{
				"x": 3.3001836867,
				"y": -1.1004702782,
				"z": 6.0567703128,
				"element": "O" 
			},
			{
				"x": 2.2464378586,
				"y": -0.6425818652,
				"z": 5.32802405,
				"element": "C" 
			},
			{
				"x": 1.2738875944,
				"y": -0.1942676776,
				"z": 5.8817593308,
				"element": "O" 
			},
			{
				"x": 2.4152280585,
				"y": -0.7442569599,
				"z": 3.7984640781,
				"element": "C" 
			},
			{
				"x": 1.3161324001,
				"y": -0.2582694372,
				"z": 3.0125575143,
				"element": "N" 
			},
			{
				"x": 0.0892384399,
				"y": -1.0765057999,
				"z": 3.0993783316,
				"element": "C" 
			},
			{
				"x": -1.1680927748,
				"y": -0.2073093419,
				"z": 3.0094228974,
				"element": "C" 
			},
			{
				"x": -1.0434927276,
				"y": 0.7797793127,
				"z": 1.9421553541,
				"element": "N" 
			},
			{
				"x": 0.1735516997,
				"y": 1.6005468069,
				"z": 1.9085583652,
				"element": "C" 
			},
			{
				"x": 1.1004406277,
				"y": 1.18732623,
				"z": 3.0533534442,
				"element": "C" 
			},
			{
				"x": -2.014925427,
				"y": 0.8691782467,
				"z": 0.9905843494,
				"element": "C" 
			},
			{
				"x": -3.0322469445,
				"y": 0.1887038354,
				"z": 0.9539375459,
				"element": "O" 
			},
			{
				"x": -1.7048209577,
				"y": 1.8354692125,
				"z": 0.0811913099,
				"element": "O" 
			},
			{
				"x": -2.652770155,
				"y": 2.0174208551,
				"z": -1.0004199066,
				"element": "C" 
			},
			{
				"x": -2.2844486521,
				"y": 1.2052094104,
				"z": -2.2187841653,
				"element": "C" 
			},
			{
				"x": -2.6266753756,
				"y": -0.1528188975,
				"z": -2.2993610826,
				"element": "C" 
			},
			{
				"x": -2.2782138974,
				"y": -0.9011673892,
				"z": -3.423486302,
				"element": "C" 
			},
			{
				"x": -1.5875784412,
				"y": -0.303064843,
				"z": -4.4807631759,
				"element": "C" 
			},
			{
				"x": -1.2445781595,
				"y": 1.0479109238,
				"z": -4.4090592126,
				"element": "C" 
			},
			{
				"x": -1.5913533919,
				"y": 1.795415034,
				"z": -3.2822320091,
				"element": "C" 
			},
			{
				"x": 3.9974924262,
				"y": -1.4311377977,
				"z": 5.4715145439,
				"element": "H" 
			},
			{
				"x": 2.6032043926,
				"y": -1.8001760013,
				"z": 3.5519696716,
				"element": "H" 
			},
			{
				"x": 3.332217989,
				"y": -0.2001871146,
				"z": 3.5270577172,
				"element": "H" 
			},
			{
				"x": 0.0928826835,
				"y": -1.8101766051,
				"z": 2.2810979586,
				"element": "H" 
			},
			{
				"x": 0.0409951397,
				"y": -1.6291406201,
				"z": 4.0471350953,
				"element": "H" 
			},
			{
				"x": -2.0436695632,
				"y": -0.8189161188,
				"z": 2.7924172478,
				"element": "H" 
			},
			{
				"x": -1.3373779123,
				"y": 0.2946710736,
				"z": 3.9700344425,
				"element": "H" 
			},
			{
				"x": -0.0758282454,
				"y": 2.664830987,
				"z": 1.9974073096,
				"element": "H" 
			},
			{
				"x": 0.6840999369,
				"y": 1.4567138521,
				"z": 0.9507131289,
				"element": "H" 
			},
			{
				"x": 2.0661149783,
				"y": 1.6832185785,
				"z": 2.9005823301,
				"element": "H" 
			},
			{
				"x": 0.709057026,
				"y": 1.5398364806,
				"z": 4.0194004179,
				"element": "H" 
			},
			{
				"x": -2.6137139636,
				"y": 3.0866185913,
				"z": -1.2216713034,
				"element": "H" 
			},
			{
				"x": -3.6466564269,
				"y": 1.7534457343,
				"z": -0.6344086093,
				"element": "H" 
			},
			{
				"x": -3.1576249704,
				"y": -0.6110037506,
				"z": -1.4705661158,
				"element": "H" 
			},
			{
				"x": -2.5498766418,
				"y": -1.9517789612,
				"z": -3.4773436573,
				"element": "H" 
			},
			{
				"x": -1.3209662967,
				"y": -0.8868922429,
				"z": -5.3573941872,
				"element": "H" 
			},
			{
				"x": -0.7099103819,
				"y": 1.5195554257,
				"z": -5.2288252647,
				"element": "H" 
			},
			{
				"x": -1.3245436312,
				"y": 2.8483711111,
				"z": -3.2284717552,
				"element": "H" 
			}
		],
		 "valence_orbital": [ 
			{
				"type": "occ",
				"energy": -0.26525,
				"method": "rhf"
			},
			{
				"type": "occ",
				"energy": -0.24717,
				"method": "rhf"
			},
			{
				"type": "occ",
				"energy": -0.24448,
				"method": "rhf"
			},
			{
				"type": "occ",
				"energy": -0.23466,
				"method": "rhf"
			},
			{
				"type": "occ",
				"energy": -0.21549,
				"method": "rhf"
			},
			{
				"type": "unocc",
				"energy": -0.00595,
				"method": "rhf"
			},
			{
				"type": "unocc",
				"energy": 0.00153,
				"method": "rhf"
			},
			{
				"type": "unocc",
				"energy": 0.00196,
				"method": "rhf"
			},
			{
				"type": "unocc",
				"energy": 0.04534,
				"method": "rhf"
			},
			{
				"type": "unocc",
				"energy": 0.05714,
				"method": "rhf"
			}
		],
		"cosmo_sigma_profile": { 
			"-0.025": 0.0,
			"-0.024": 0.0,
			"-0.023": 0.0,
			"-0.022": 0.0,
			"-0.021": 0.0,
			"-0.02": 0.00269637863692,
			"-0.019": 0.968340570515,
			"-0.018": 1.09897750004,
			"-0.017": 0.993340542347,
			"-0.016": 1.20086273609,
			"-0.015": 1.47782999022,
			"-0.014": 0.976233935603,
			"-0.013": 0.864507322116,
			"-0.012": 1.14814935665,
			"-0.011": 1.7182512739,
			"-0.01": 1.21268836393,
			"-0.009": 1.24210281761,
			"-0.008": 3.51170078017,
			"-0.007": 5.42754350147,
			"-0.006": 14.0550065631,
			"-0.005": 20.7887031022,
			"-0.004": 29.6523096387,
			"-0.003": 35.7772839829,
			"-0.002": 26.0192902501,
			"-0.001": 21.6276087064,
			"0.0": 17.3647625053,
			"0.001": 15.8594128033,
			"0.002": 16.04942612,
			"0.003": 14.865116098,
			"0.004": 15.4684602833,
			"0.005": 17.1398886991,
			"0.006": 13.1941473721,
			"0.007": 6.09572277051,
			"0.008": 5.06781962398,
			"0.009": 4.9996358446,
			"0.01": 6.75557806668,
			"0.011": 5.90017990158,
			"0.012": 5.9570887099,
			"0.013": 4.80850362348,
			"0.014": 1.16653462932,
			"0.015": 0.0,
			"0.016": 0.0,
			"0.017": 0.0,
			"0.018": 0.0,
			"0.019": 0.0,
			"0.02": 0.0,
			"0.021": 0.0,
			"0.022": 0.0,
			"0.023": 0.0,
			"0.024": 0.0,
			"0.025": 0.0
		}
	}
}
