{
	 "smiles": "CC(C)(C)C1CCN(CC1)S(Cl)(=O)=O", 
	 "Tm": 343.15, 
	 "num_atms": 32, 
	 "gaussian": { 
		 "optdone": 1, 
		 "sigma_profile": "yes", 
		 "theory": "DFT", 
		 "functional": "B3LYP", 
		 "basiset": "6-31G**", 
		 "properties": { 
			 "R2extent": 5391.6791, 
			 "electric_dipole_moment_norm": 6.05318091337, 
			 "electric_quadrupole_moment_norm": 20.537572227, 
			 "total_energy": -1417.32911451, 
			 "HOMO_LUMO_gap": 0.20204, 
			 "cosmo_polarized_energy": -9.59, 
			 "cosmo_cavitation_energy": 33.89, 
			 "cosmo_dispersion_energy": -24.73, 
			 "cosmo_repulsion_energy": 1.86, 
			 "cosmo_total_nonelectrostatic_energy": 11.02, 
			 "SMD_solvation_energy": 2.93 
		},
		"coords": [
			{
				"x": -2.5773998589,
				"y": -0.8822622939,
				"z": -0.8435694477,
				"element": "C" 
			},
			{
				"x": -1.1771387265,
				"y": -1.5178948911,
				"z": -0.707966499,
				"element": "C" 
			},
			{
				"x": -1.0795831183,
				"y": -2.6631126615,
				"z": -1.7387872888,
				"element": "C" 
			},
			{
				"x": -1.0295346919,
				"y": -2.1095100031,
				"z": 0.7089608631,
				"element": "C" 
			},
			{
				"x": -0.0882223699,
				"y": -0.434681078,
				"z": -1.0178810208,
				"element": "C" 
			},
			{
				"x": -0.0443089217,
				"y": 0.7487559839,
				"z": -0.002457152,
				"element": "C" 
			},
			{
				"x": 1.1737375884,
				"y": 0.7069653962,
				"z": 0.9238954797,
				"element": "C" 
			},
			{
				"x": 2.4434257302,
				"y": 0.6996315774,
				"z": 0.1529058268,
				"element": "N" 
			},
			{
				"x": 2.4078719743,
				"y": 0.0714107304,
				"z": -1.1908736698,
				"element": "C" 
			},
			{
				"x": 1.3346541951,
				"y": -1.0178158848,
				"z": -1.198754179,
				"element": "C" 
			},
			{
				"x": 3.481791459,
				"y": 1.9577333947,
				"z": 0.3469773427,
				"element": "S" 
			},
			{
				"x": 2.5346070243,
				"y": 3.5983503607,
				"z": -0.7119067756,
				"element": "Cl" 
			},
			{
				"x": 4.6919984607,
				"y": 1.6780445543,
				"z": -0.4076052274,
				"element": "O" 
			},
			{
				"x": 3.4859459738,
				"y": 2.3685408174,
				"z": 1.7413604053,
				"element": "O" 
			},
			{
				"x": -2.7373048968,
				"y": -0.0652196135,
				"z": -0.1330283979,
				"element": "H" 
			},
			{
				"x": -2.7326998286,
				"y": -0.4825762612,
				"z": -1.8521574931,
				"element": "H" 
			},
			{
				"x": -3.3563394275,
				"y": -1.6297115685,
				"z": -0.6583218503,
				"element": "H" 
			},
			{
				"x": -1.1292785246,
				"y": -2.2804461958,
				"z": -2.7650420587,
				"element": "H" 
			},
			{
				"x": -0.1527255417,
				"y": -3.2356081543,
				"z": -1.6359521591,
				"element": "H" 
			},
			{
				"x": -1.9107062978,
				"y": -3.3642295725,
				"z": -1.6076047801,
				"element": "H" 
			},
			{
				"x": -0.0568423587,
				"y": -2.5906952188,
				"z": 0.8569443283,
				"element": "H" 
			},
			{
				"x": -1.1535963518,
				"y": -1.349666273,
				"z": 1.487669134,
				"element": "H" 
			},
			{
				"x": -1.7957830568,
				"y": -2.8733202119,
				"z": 0.8800230132,
				"element": "H" 
			},
			{
				"x": -0.3703841032,
				"y": -0.0073247491,
				"z": -1.9898695992,
				"element": "H" 
			},
			{
				"x": -0.0288790618,
				"y": 1.7012627809,
				"z": -0.5418333128,
				"element": "H" 
			},
			{
				"x": -0.940525469,
				"y": 0.7710494039,
				"z": 0.6239968826,
				"element": "H" 
			},
			{
				"x": 1.1861039801,
				"y": 1.5615609451,
				"z": 1.6019099998,
				"element": "H" 
			},
			{
				"x": 1.167933853,
				"y": -0.1936712912,
				"z": 1.5470928489,
				"element": "H" 
			},
			{
				"x": 2.186894928,
				"y": 0.8251439163,
				"z": -1.9602413768,
				"element": "H" 
			},
			{
				"x": 3.3978701503,
				"y": -0.3392049381,
				"z": -1.3962186745,
				"element": "H" 
			},
			{
				"x": 1.4110581794,
				"y": -1.5512155618,
				"z": -2.1501526014,
				"element": "H" 
			},
			{
				"x": 1.5695591085,
				"y": -1.7461834389,
				"z": -0.4139125606,
				"element": "H" 
			}
		],
		 "valence_orbital": [ 
			{
				"type": "occ",
				"energy": -0.32435,
				"method": "rhf"
			},
			{
				"type": "occ",
				"energy": -0.32021,
				"method": "rhf"
			},
			{
				"type": "occ",
				"energy": -0.3161,
				"method": "rhf"
			},
			{
				"type": "occ",
				"energy": -0.306,
				"method": "rhf"
			},
			{
				"type": "occ",
				"energy": -0.27556,
				"method": "rhf"
			},
			{
				"type": "unocc",
				"energy": -0.07352,
				"method": "rhf"
			},
			{
				"type": "unocc",
				"energy": 0.04914,
				"method": "rhf"
			},
			{
				"type": "unocc",
				"energy": 0.06148,
				"method": "rhf"
			},
			{
				"type": "unocc",
				"energy": 0.07711,
				"method": "rhf"
			},
			{
				"type": "unocc",
				"energy": 0.08572,
				"method": "rhf"
			}
		],
		"cosmo_sigma_profile": { 
			"-0.025": 0.0,
			"-0.024": 0.0,
			"-0.023": 0.0,
			"-0.022": 0.0,
			"-0.021": 0.0,
			"-0.02": 0.0,
			"-0.019": 0.0,
			"-0.018": 0.0,
			"-0.017": 0.0,
			"-0.016": 0.0,
			"-0.015": 0.0,
			"-0.014": 0.0,
			"-0.013": 0.0,
			"-0.012": 0.0,
			"-0.011": 0.0,
			"-0.01": 0.0,
			"-0.009": 0.0,
			"-0.008": 0.0,
			"-0.007": 0.181004479994,
			"-0.006": 3.66050753847,
			"-0.005": 14.3833982426,
			"-0.004": 26.8488695914,
			"-0.003": 27.4014562525,
			"-0.002": 39.3962268453,
			"-0.001": 26.1546461371,
			"0.0": 24.2326467957,
			"0.001": 26.7183773506,
			"0.002": 19.619608317,
			"0.003": 9.79922594184,
			"0.004": 10.6997767073,
			"0.005": 10.7124452309,
			"0.006": 2.92604317509,
			"0.007": 5.26342579238,
			"0.008": 10.1700292877,
			"0.009": 6.84903523478,
			"0.01": 0.195532944372,
			"0.011": 0.0,
			"0.012": 0.0,
			"0.013": 0.0,
			"0.014": 0.0,
			"0.015": 0.0,
			"0.016": 0.0,
			"0.017": 0.0,
			"0.018": 0.0,
			"0.019": 0.0,
			"0.02": 0.0,
			"0.021": 0.0,
			"0.022": 0.0,
			"0.023": 0.0,
			"0.024": 0.0,
			"0.025": 0.0
		}
	}
}
