{
	 "smiles": "CC1=CC(Br)=CN2C(CO)=CN=C12", 
	 "Tm": 448.15, 
	 "num_atms": 22, 
	 "gaussian": { 
		 "optdone": 1, 
		 "sigma_profile": "yes", 
		 "theory": "DFT", 
		 "functional": "B3LYP", 
		 "basiset": "6-31G**", 
		 "properties": { 
			 "R2extent": 4898.9956, 
			 "electric_dipole_moment_norm": 0.736634549828, 
			 "electric_quadrupole_moment_norm": 11.5561303056, 
			 "total_energy": -3104.50285133, 
			 "HOMO_LUMO_gap": 0.17591, 
			 "cosmo_polarized_energy": -11.07, 
			 "cosmo_cavitation_energy": 28.17, 
			 "cosmo_dispersion_energy": -20.98, 
			 "cosmo_repulsion_energy": 1.67, 
			 "cosmo_total_nonelectrostatic_energy": 8.86, 
			 "SMD_solvation_energy": 2.43 
		},
		"coords": [
			{
				"x": -0.3635538875,
				"y": -2.5892847155,
				"z": 0.6506737347,
				"element": "C" 
			},
			{
				"x": -0.6651623752,
				"y": -1.3979933806,
				"z": -0.2142124156,
				"element": "C" 
			},
			{
				"x": -1.2319609803,
				"y": -1.4962667479,
				"z": -1.4655428788,
				"element": "C" 
			},
			{
				"x": -1.4823911932,
				"y": -0.3302044673,
				"z": -2.2406115649,
				"element": "C" 
			},
			{
				"x": -2.2398581673,
				"y": -0.5121330147,
				"z": -3.979838809,
				"element": "Br" 
			},
			{
				"x": -1.1811577807,
				"y": 0.9190424223,
				"z": -1.7795354793,
				"element": "C" 
			},
			{
				"x": -0.6366757796,
				"y": 1.0195943556,
				"z": -0.5198929958,
				"element": "N" 
			},
			{
				"x": -0.2412303255,
				"y": 2.1348786932,
				"z": 0.2045040889,
				"element": "C" 
			},
			{
				"x": -0.4323313005,
				"y": 3.5309099501,
				"z": -0.2819408791,
				"element": "C" 
			},
			{
				"x": 0.1430207682,
				"y": 3.7761663695,
				"z": -1.5677253389,
				"element": "O" 
			},
			{
				"x": 0.2601625315,
				"y": 1.6187056256,
				"z": 1.3881038374,
				"element": "C" 
			},
			{
				"x": 0.1906939684,
				"y": 0.2605848197,
				"z": 1.4397451952,
				"element": "N" 
			},
			{
				"x": -0.3538031054,
				"y": -0.1008270936,
				"z": 0.2787910793,
				"element": "C" 
			},
			{
				"x": 0.704962568,
				"y": -2.6355752859,
				"z": 0.8852152504,
				"element": "H" 
			},
			{
				"x": -0.8885883602,
				"y": -2.5139508468,
				"z": 1.6084892125,
				"element": "H" 
			},
			{
				"x": -0.6578730223,
				"y": -3.5188888267,
				"z": 0.1578344251,
				"element": "H" 
			},
			{
				"x": -1.4856802606,
				"y": -2.4668055068,
				"z": -1.876509498,
				"element": "H" 
			},
			{
				"x": -1.3046158662,
				"y": 1.8352100449,
				"z": -2.3391699833,
				"element": "H" 
			},
			{
				"x": -0.0406487605,
				"y": 4.2186831846,
				"z": 0.4812094763,
				"element": "H" 
			},
			{
				"x": -1.4969470559,
				"y": 3.7640566053,
				"z": -0.4086754559,
				"element": "H" 
			},
			{
				"x": 1.0796523379,
				"y": 3.5410399657,
				"z": -1.5162780402,
				"element": "H" 
			},
			{
				"x": 0.6637860471,
				"y": 2.1926578493,
				"z": 2.2133670388,
				"element": "H" 
			}
		],
		 "valence_orbital": [ 
			{
				"type": "occ",
				"energy": -0.29482,
				"method": "rhf"
			},
			{
				"type": "occ",
				"energy": -0.28858,
				"method": "rhf"
			},
			{
				"type": "occ",
				"energy": -0.2733,
				"method": "rhf"
			},
			{
				"type": "occ",
				"energy": -0.23943,
				"method": "rhf"
			},
			{
				"type": "occ",
				"energy": -0.21438,
				"method": "rhf"
			},
			{
				"type": "unocc",
				"energy": -0.03847,
				"method": "rhf"
			},
			{
				"type": "unocc",
				"energy": -0.00996,
				"method": "rhf"
			},
			{
				"type": "unocc",
				"energy": -0.00052,
				"method": "rhf"
			},
			{
				"type": "unocc",
				"energy": 0.04642,
				"method": "rhf"
			},
			{
				"type": "unocc",
				"energy": 0.08843,
				"method": "rhf"
			}
		],
		"cosmo_sigma_profile": { 
			"-0.025": 0.0,
			"-0.024": 0.0,
			"-0.023": 0.0,
			"-0.022": 0.0,
			"-0.021": 0.0,
			"-0.02": 0.0,
			"-0.019": 0.0,
			"-0.018": 0.0,
			"-0.017": 0.0,
			"-0.016": 0.395619852332,
			"-0.015": 1.06919807103,
			"-0.014": 0.631955082487,
			"-0.013": 1.23224939599,
			"-0.012": 0.668698570146,
			"-0.011": 0.983382626805,
			"-0.01": 0.956690812251,
			"-0.009": 0.612458313648,
			"-0.008": 1.2400535291,
			"-0.007": 5.70793195565,
			"-0.006": 12.2290484408,
			"-0.005": 15.2282228271,
			"-0.004": 15.847161188,
			"-0.003": 14.3309049884,
			"-0.002": 16.04350208,
			"-0.001": 21.5686311138,
			"0.0": 21.9010457041,
			"0.001": 20.638148425,
			"0.002": 17.9213769434,
			"0.003": 13.2359667046,
			"0.004": 14.9194222942,
			"0.005": 5.84832402298,
			"0.006": 3.4501772766,
			"0.007": 1.81660999161,
			"0.008": 3.00138363939,
			"0.009": 3.08673757725,
			"0.01": 2.39285862255,
			"0.011": 1.95146106255,
			"0.012": 1.31209220207,
			"0.013": 2.99216444062,
			"0.014": 2.18525724142,
			"0.015": 0.836451579352,
			"0.016": 0.788510885583,
			"0.017": 0.621830944236,
			"0.018": 0.127841114846,
			"0.019": 0.0,
			"0.02": 0.0,
			"0.021": 0.0,
			"0.022": 0.0,
			"0.023": 0.0,
			"0.024": 0.0,
			"0.025": 0.0
		}
	}
}
