{
	 "smiles": "COC(=O)C1=C(C(=O)OC)[C@]2(COC(=O)[C@H](C)NC(C)=O)C3=CC=CC=C3[C@H]1C1=CC=CC=C21", 
	 "Tm": 453.5, 
	 "num_atms": 59, 
	 "gaussian": { 
		 "optdone": 1, 
		 "sigma_profile": "yes", 
		 "theory": "DFT", 
		 "functional": "B3LYP", 
		 "basiset": "6-31G**", 
		 "properties": { 
			 "R2extent": 15847.5884, 
			 "electric_dipole_moment_norm": 6.83435484373, 
			 "electric_quadrupole_moment_norm": 29.8061573493, 
			 "total_energy": -1587.17289138, 
			 "HOMO_LUMO_gap": 0.16569, 
			 "cosmo_polarized_energy": -26.11, 
			 "cosmo_cavitation_energy": 61.78, 
			 "cosmo_dispersion_energy": -38.53, 
			 "cosmo_repulsion_energy": 2.91, 
			 "cosmo_total_nonelectrostatic_energy": 26.16, 
			 "SMD_solvation_energy": 13.85 
		},
		"coords": [
			{
				"x": -0.4243622852,
				"y": 5.754600394,
				"z": -1.9135373535,
				"element": "C" 
			},
			{
				"x": -0.7506137714,
				"y": 4.707176386,
				"z": -0.9856069953,
				"element": "O" 
			},
			{
				"x": 0.2688583168,
				"y": 3.870290995,
				"z": -0.6820408742,
				"element": "C" 
			},
			{
				"x": 1.3851292785,
				"y": 3.9867815292,
				"z": -1.1503522871,
				"element": "O" 
			},
			{
				"x": -0.1495758005,
				"y": 2.8311609979,
				"z": 0.2896623301,
				"element": "C" 
			},
			{
				"x": 0.6067117751,
				"y": 1.7630606841,
				"z": 0.6037590988,
				"element": "C" 
			},
			{
				"x": 1.9702674783,
				"y": 1.4948875939,
				"z": 0.0481206146,
				"element": "C" 
			},
			{
				"x": 2.9737878244,
				"y": 1.5404441225,
				"z": 0.7285419418,
				"element": "O" 
			},
			{
				"x": 1.9412821252,
				"y": 1.1685769136,
				"z": -1.2534504601,
				"element": "O" 
			},
			{
				"x": 3.2316345816,
				"y": 1.0540832479,
				"z": -1.8792451906,
				"element": "C" 
			},
			{
				"x": 0.0150100932,
				"y": 0.8692652385,
				"z": 1.7250769975,
				"element": "C" 
			},
			{
				"x": 0.9090608012,
				"y": -0.3059465223,
				"z": 2.1110312343,
				"element": "C" 
			},
			{
				"x": 1.2646102927,
				"y": -1.0564340545,
				"z": 0.9255740422,
				"element": "O" 
			},
			{
				"x": 1.1080885045,
				"y": -2.3918774084,
				"z": 0.925336035,
				"element": "C" 
			},
			{
				"x": 0.6465039324,
				"y": -3.0379232502,
				"z": 1.8423050167,
				"element": "O" 
			},
			{
				"x": 1.5462154757,
				"y": -2.98019007,
				"z": -0.4171422336,
				"element": "C" 
			},
			{
				"x": 0.6172974403,
				"y": -2.4651623035,
				"z": -1.5395388806,
				"element": "C" 
			},
			{
				"x": 1.5591638569,
				"y": -4.4236113313,
				"z": -0.290517505,
				"element": "N" 
			},
			{
				"x": 2.3965128598,
				"y": -5.3249493174,
				"z": -0.9009919403,
				"element": "C" 
			},
			{
				"x": 3.4243689975,
				"y": -4.7663936346,
				"z": -1.8757622857,
				"element": "C" 
			},
			{
				"x": 2.3188251741,
				"y": -6.5211119733,
				"z": -0.656890508,
				"element": "O" 
			},
			{
				"x": -0.2327543924,
				"y": 1.8300081658,
				"z": 2.9126728737,
				"element": "C" 
			},
			{
				"x": 0.2217405931,
				"y": 1.6833785477,
				"z": 4.2188800564,
				"element": "C" 
			},
			{
				"x": -0.1164186133,
				"y": 2.6510134492,
				"z": 5.1761282461,
				"element": "C" 
			},
			{
				"x": -0.9013938135,
				"y": 3.7469041522,
				"z": 4.8264958802,
				"element": "C" 
			},
			{
				"x": -1.3629936686,
				"y": 3.8915127215,
				"z": 3.5108841031,
				"element": "C" 
			},
			{
				"x": -1.0259716018,
				"y": 2.9346212705,
				"z": 2.5634819861,
				"element": "C" 
			},
			{
				"x": -1.4485008092,
				"y": 2.9253863929,
				"z": 1.0939103282,
				"element": "C" 
			},
			{
				"x": -2.1796826966,
				"y": 1.6012221434,
				"z": 0.8919687825,
				"element": "C" 
			},
			{
				"x": -3.4896557009,
				"y": 1.4490274701,
				"z": 0.4564500428,
				"element": "C" 
			},
			{
				"x": -4.038829745,
				"y": 0.1631268191,
				"z": 0.3731284649,
				"element": "C" 
			},
			{
				"x": -3.2788087259,
				"y": -0.9452100408,
				"z": 0.7400416286,
				"element": "C" 
			},
			{
				"x": -1.9562286684,
				"y": -0.7910939392,
				"z": 1.1803203822,
				"element": "C" 
			},
			{
				"x": -1.4034367293,
				"y": 0.4849606369,
				"z": 1.2412569962,
				"element": "C" 
			},
			{
				"x": -1.3392604623,
				"y": 6.3338461473,
				"z": -2.0362892018,
				"element": "H" 
			},
			{
				"x": -0.104499922,
				"y": 5.3334389427,
				"z": -2.8697999067,
				"element": "H" 
			},
			{
				"x": 0.3791900098,
				"y": 6.3807873282,
				"z": -1.5182142405,
				"element": "H" 
			},
			{
				"x": 3.8570818745,
				"y": 0.3328691901,
				"z": -1.3480811114,
				"element": "H" 
			},
			{
				"x": 3.7259380582,
				"y": 2.0283218619,
				"z": -1.8834811535,
				"element": "H" 
			},
			{
				"x": 3.0346871614,
				"y": 0.7218836945,
				"z": -2.8982014149,
				"element": "H" 
			},
			{
				"x": 1.8477896689,
				"y": 0.0604662089,
				"z": 2.53007494,
				"element": "H" 
			},
			{
				"x": 0.4160018207,
				"y": -0.9673632189,
				"z": 2.8241154044,
				"element": "H" 
			},
			{
				"x": 2.5604283632,
				"y": -2.6122032774,
				"z": -0.6073042969,
				"element": "H" 
			},
			{
				"x": -0.4186844849,
				"y": -2.755317959,
				"z": -1.3414744262,
				"element": "H" 
			},
			{
				"x": 0.9145357147,
				"y": -2.9057474783,
				"z": -2.4947341548,
				"element": "H" 
			},
			{
				"x": 0.6725480467,
				"y": -1.376680637,
				"z": -1.6172918836,
				"element": "H" 
			},
			{
				"x": 0.9575486865,
				"y": -4.8155852573,
				"z": 0.4245452946,
				"element": "H" 
			},
			{
				"x": 4.1799770433,
				"y": -4.1728795052,
				"z": -1.3480050969,
				"element": "H" 
			},
			{
				"x": 2.9723836363,
				"y": -4.1270231684,
				"z": -2.6404026551,
				"element": "H" 
			},
			{
				"x": 3.9176627373,
				"y": -5.6103836397,
				"z": -2.3568415132,
				"element": "H" 
			},
			{
				"x": 0.8330649347,
				"y": 0.8358753548,
				"z": 4.5122361359,
				"element": "H" 
			},
			{
				"x": 0.2398305813,
				"y": 2.5407254846,
				"z": 6.1959878259,
				"element": "H" 
			},
			{
				"x": -1.1572372432,
				"y": 4.4927027494,
				"z": 5.5733070158,
				"element": "H" 
			},
			{
				"x": -1.9778120426,
				"y": 4.7437560094,
				"z": 3.233891258,
				"element": "H" 
			},
			{
				"x": -2.0477018657,
				"y": 3.790801317,
				"z": 0.8166196854,
				"element": "H" 
			},
			{
				"x": -4.0823248619,
				"y": 2.3201458902,
				"z": 0.1901631628,
				"element": "H" 
			},
			{
				"x": -5.0615172368,
				"y": 0.033159078,
				"z": 0.0314092967,
				"element": "H" 
			},
			{
				"x": -3.7109048767,
				"y": -1.9404051843,
				"z": 0.6905241271,
				"element": "H" 
			},
			{
				"x": -1.3931677206,
				"y": -1.6667759577,
				"z": 1.4838963409,
				"element": "H" 
			}
		],
		 "valence_orbital": [ 
			{
				"type": "occ",
				"energy": -0.25644,
				"method": "rhf"
			},
			{
				"type": "occ",
				"energy": -0.25469,
				"method": "rhf"
			},
			{
				"type": "occ",
				"energy": -0.24631,
				"method": "rhf"
			},
			{
				"type": "occ",
				"energy": -0.23965,
				"method": "rhf"
			},
			{
				"type": "occ",
				"energy": -0.23046,
				"method": "rhf"
			},
			{
				"type": "unocc",
				"energy": -0.06477,
				"method": "rhf"
			},
			{
				"type": "unocc",
				"energy": -0.02412,
				"method": "rhf"
			},
			{
				"type": "unocc",
				"energy": -0.01792,
				"method": "rhf"
			},
			{
				"type": "unocc",
				"energy": -0.01013,
				"method": "rhf"
			},
			{
				"type": "unocc",
				"energy": 0.00255,
				"method": "rhf"
			}
		],
		"cosmo_sigma_profile": { 
			"-0.025": 0.0,
			"-0.024": 0.0,
			"-0.023": 0.0,
			"-0.022": 0.0,
			"-0.021": 0.0,
			"-0.02": 0.0,
			"-0.019": 0.0,
			"-0.018": 0.0,
			"-0.017": 0.0,
			"-0.016": 0.0,
			"-0.015": 0.0,
			"-0.014": 0.0,
			"-0.013": 0.0,
			"-0.012": 0.0,
			"-0.011": 0.00877462092889,
			"-0.01": 0.800317951115,
			"-0.009": 0.472752842493,
			"-0.008": 3.70936189426,
			"-0.007": 12.4407970596,
			"-0.006": 37.5976679407,
			"-0.005": 43.1367278836,
			"-0.004": 47.4994993429,
			"-0.003": 44.9666063911,
			"-0.002": 34.8894668338,
			"-0.001": 36.1175230417,
			"0.0": 33.3899768799,
			"0.001": 27.5710520531,
			"0.002": 27.6595212351,
			"0.003": 25.2476019405,
			"0.004": 27.0819175467,
			"0.005": 23.112312934,
			"0.006": 11.6294370814,
			"0.007": 7.34934722692,
			"0.008": 7.18848324996,
			"0.009": 7.02791513207,
			"0.01": 8.30859148568,
			"0.011": 8.25226329165,
			"0.012": 3.74488255443,
			"0.013": 2.7229840183,
			"0.014": 6.23774807434,
			"0.015": 2.26616975058,
			"0.016": 0.0281476001561,
			"0.017": 0.0,
			"0.018": 0.0,
			"0.019": 0.0,
			"0.02": 0.0,
			"0.021": 0.0,
			"0.022": 0.0,
			"0.023": 0.0,
			"0.024": 0.0,
			"0.025": 0.0
		}
	}
}
