{
	 "smiles": "CC(C)(NC(=O)NCC=C)C(O)=O", 
	 "Tm": 399.15, 
	 "num_atms": 27, 
	 "gaussian": { 
		 "optdone": 1, 
		 "sigma_profile": "yes", 
		 "theory": "DFT", 
		 "functional": "B3LYP", 
		 "basiset": "6-31G**", 
		 "properties": { 
			 "R2extent": 3448.4033, 
			 "electric_dipole_moment_norm": 3.14331945879, 
			 "electric_quadrupole_moment_norm": 9.93863718173, 
			 "total_energy": -648.480453874, 
			 "HOMO_LUMO_gap": 0.24406, 
			 "cosmo_polarized_energy": -18.32, 
			 "cosmo_cavitation_energy": 30.68, 
			 "cosmo_dispersion_energy": -21.23, 
			 "cosmo_repulsion_energy": 1.73, 
			 "cosmo_total_nonelectrostatic_energy": 11.18, 
			 "SMD_solvation_energy": 6.45 
		},
		"coords": [
			{
				"x": 1.0785891505,
				"y": 1.1367599686,
				"z": -2.7092495763,
				"element": "C" 
			},
			{
				"x": 1.6364257559,
				"y": 1.2477597682,
				"z": -1.2824006868,
				"element": "C" 
			},
			{
				"x": 2.0764776185,
				"y": 2.6980147337,
				"z": -0.9955189038,
				"element": "C" 
			},
			{
				"x": 0.6054829029,
				"y": 0.9025554595,
				"z": -0.2950773854,
				"element": "N" 
			},
			{
				"x": 0.2033030716,
				"y": -0.4232394048,
				"z": -0.1819229959,
				"element": "C" 
			},
			{
				"x": 0.5187507818,
				"y": -1.2886685596,
				"z": -0.9934052343,
				"element": "O" 
			},
			{
				"x": -0.5952456169,
				"y": -0.7128810379,
				"z": 0.9085450161,
				"element": "N" 
			},
			{
				"x": -1.3838271589,
				"y": 0.2507218775,
				"z": 1.6739661733,
				"element": "C" 
			},
			{
				"x": -2.0060934041,
				"y": -0.4214511492,
				"z": 2.8675211249,
				"element": "C" 
			},
			{
				"x": -3.3156466599,
				"y": -0.4511584779,
				"z": 3.1111774298,
				"element": "C" 
			},
			{
				"x": 2.8766727856,
				"y": 0.3608506644,
				"z": -1.041690654,
				"element": "C" 
			},
			{
				"x": 3.5477541866,
				"y": 0.0624567562,
				"z": -2.1746499543,
				"element": "O" 
			},
			{
				"x": 3.2683912606,
				"y": 0.035996653,
				"z": 0.057439102,
				"element": "O" 
			},
			{
				"x": 0.2099112868,
				"y": 1.795276596,
				"z": -2.8026852985,
				"element": "H" 
			},
			{
				"x": 0.7741904676,
				"y": 0.1125184629,
				"z": -2.9213180063,
				"element": "H" 
			},
			{
				"x": 1.8325459154,
				"y": 1.441049051,
				"z": -3.4384800254,
				"element": "H" 
			},
			{
				"x": 2.4942834423,
				"y": 2.7878766715,
				"z": 0.0127280819,
				"element": "H" 
			},
			{
				"x": 1.2191395239,
				"y": 3.3712239641,
				"z": -1.0894837994,
				"element": "H" 
			},
			{
				"x": 2.8415832074,
				"y": 3.0105249161,
				"z": -1.7108531874,
				"element": "H" 
			},
			{
				"x": 0.70551183,
				"y": 1.391727281,
				"z": 0.5845496657,
				"element": "H" 
			},
			{
				"x": -0.9860308576,
				"y": -1.6427441758,
				"z": 0.8334117706,
				"element": "H" 
			},
			{
				"x": -0.7188069265,
				"y": 1.0476052103,
				"z": 2.0344394074,
				"element": "H" 
			},
			{
				"x": -2.1600658169,
				"y": 0.7340750655,
				"z": 1.062032003,
				"element": "H" 
			},
			{
				"x": -1.3088701279,
				"y": -0.9054706049,
				"z": 3.5504429453,
				"element": "H" 
			},
			{
				"x": -3.7201586842,
				"y": -0.9385376209,
				"z": 3.9930499924,
				"element": "H" 
			},
			{
				"x": -4.0318108158,
				"y": 0.0168740872,
				"z": 2.4397904432,
				"element": "H" 
			},
			{
				"x": 4.3164428813,
				"y": -0.464116156,
				"z": -1.8968574477,
				"element": "H" 
			}
		],
		 "valence_orbital": [ 
			{
				"type": "occ",
				"energy": -0.28043,
				"method": "rhf"
			},
			{
				"type": "occ",
				"energy": -0.2708,
				"method": "rhf"
			},
			{
				"type": "occ",
				"energy": -0.26036,
				"method": "rhf"
			},
			{
				"type": "occ",
				"energy": -0.25098,
				"method": "rhf"
			},
			{
				"type": "occ",
				"energy": -0.24429,
				"method": "rhf"
			},
			{
				"type": "unocc",
				"energy": -0.00023,
				"method": "rhf"
			},
			{
				"type": "unocc",
				"energy": 0.01623,
				"method": "rhf"
			},
			{
				"type": "unocc",
				"energy": 0.05313,
				"method": "rhf"
			},
			{
				"type": "unocc",
				"energy": 0.07008,
				"method": "rhf"
			},
			{
				"type": "unocc",
				"energy": 0.08486,
				"method": "rhf"
			}
		],
		"cosmo_sigma_profile": { 
			"-0.025": 0.0,
			"-0.024": 0.0,
			"-0.023": 0.0,
			"-0.022": 0.0,
			"-0.021": 0.0,
			"-0.02": 0.0,
			"-0.019": 0.0115345905354,
			"-0.018": 0.708271569686,
			"-0.017": 1.028905878,
			"-0.016": 0.705420639256,
			"-0.015": 0.724812548788,
			"-0.014": 1.25093158354,
			"-0.013": 2.36457218674,
			"-0.012": 2.2179419493,
			"-0.011": 2.23179792922,
			"-0.01": 2.86385610108,
			"-0.009": 2.83514778549,
			"-0.008": 2.56588872541,
			"-0.007": 3.32884510413,
			"-0.006": 5.46446125067,
			"-0.005": 14.3648395644,
			"-0.004": 19.9699403721,
			"-0.003": 23.9050679933,
			"-0.002": 21.3357922672,
			"-0.001": 20.7938144062,
			"0.0": 18.6208938615,
			"0.001": 13.8871678339,
			"0.002": 8.93567466919,
			"0.003": 8.27623937269,
			"0.004": 7.65477807114,
			"0.005": 8.32678851414,
			"0.006": 6.48069521019,
			"0.007": 7.16763621062,
			"0.008": 5.79571249878,
			"0.009": 3.93824653438,
			"0.01": 4.0557857909,
			"0.011": 3.82357043533,
			"0.012": 6.96361592932,
			"0.013": 2.63625462164,
			"0.014": 3.6192044465,
			"0.015": 1.04078422975,
			"0.016": 0.0,
			"0.017": 0.0,
			"0.018": 0.0,
			"0.019": 0.0,
			"0.02": 0.0,
			"0.021": 0.0,
			"0.022": 0.0,
			"0.023": 0.0,
			"0.024": 0.0,
			"0.025": 0.0
		}
	}
}
