{
	 "smiles": "ClC1=CC=CC(Cl)=C1C(C#N)C1=NN=C(SC2=CC=CC=C2)C=C1", 
	 "Tm": 463.15, 
	 "num_atms": 35, 
	 "gaussian": { 
		 "optdone": 1, 
		 "sigma_profile": "yes", 
		 "theory": "DFT", 
		 "functional": "B3LYP", 
		 "basiset": "6-31G**", 
		 "properties": { 
			 "R2extent": 11636.996, 
			 "electric_dipole_moment_norm": 3.45064853904, 
			 "electric_quadrupole_moment_norm": 19.2029695201, 
			 "total_energy": -2175.29759649, 
			 "HOMO_LUMO_gap": 0.17721, 
			 "cosmo_polarized_energy": -17.77, 
			 "cosmo_cavitation_energy": 46.5, 
			 "cosmo_dispersion_energy": -31.86, 
			 "cosmo_repulsion_energy": 2.41, 
			 "cosmo_total_nonelectrostatic_energy": 17.06, 
			 "SMD_solvation_energy": 6.48 
		},
		"coords": [
			{
				"x": -3.6622009038,
				"y": 2.2645118075,
				"z": -0.6135556335,
				"element": "Cl" 
			},
			{
				"x": -3.8644104557,
				"y": 0.5235313822,
				"z": -0.7097001294,
				"element": "C" 
			},
			{
				"x": -4.4307690374,
				"y": 0.0105238216,
				"z": -1.8745710319,
				"element": "C" 
			},
			{
				"x": -4.6125607023,
				"y": -1.3640737085,
				"z": -1.9974761644,
				"element": "C" 
			},
			{
				"x": -4.2323537676,
				"y": -2.2150198949,
				"z": -0.9643521874,
				"element": "C" 
			},
			{
				"x": -3.6685254813,
				"y": -1.6786865206,
				"z": 0.1924030206,
				"element": "C" 
			},
			{
				"x": -3.2182224138,
				"y": -2.8176957506,
				"z": 1.4563975881,
				"element": "Cl" 
			},
			{
				"x": -3.4615581301,
				"y": -0.2977032352,
				"z": 0.3581842281,
				"element": "C" 
			},
			{
				"x": -2.8340856174,
				"y": 0.2636786721,
				"z": 1.6340603501,
				"element": "C" 
			},
			{
				"x": -3.7721101393,
				"y": 1.1181335253,
				"z": 2.3785725605,
				"element": "C" 
			},
			{
				"x": -4.4969300907,
				"y": 1.7728123673,
				"z": 3.0053788903,
				"element": "N" 
			},
			{
				"x": -1.4707517962,
				"y": 0.9335176185,
				"z": 1.4088579154,
				"element": "C" 
			},
			{
				"x": -0.6349554179,
				"y": 0.2100592313,
				"z": 0.667280852,
				"element": "N" 
			},
			{
				"x": 0.6041810932,
				"y": 0.6433606351,
				"z": 0.4284446397,
				"element": "N" 
			},
			{
				"x": 1.0047788296,
				"y": 1.806624208,
				"z": 0.9426748651,
				"element": "C" 
			},
			{
				"x": 2.6632531463,
				"y": 2.3837873845,
				"z": 0.6210672743,
				"element": "S" 
			},
			{
				"x": 3.3627324216,
				"y": 1.0886424636,
				"z": -0.4054487869,
				"element": "C" 
			},
			{
				"x": 3.2580945848,
				"y": 1.1708402795,
				"z": -1.798234239,
				"element": "C" 
			},
			{
				"x": 3.8608950142,
				"y": 0.1976654784,
				"z": -2.5954394401,
				"element": "C" 
			},
			{
				"x": 4.5698739245,
				"y": -0.8509326791,
				"z": -2.0058818198,
				"element": "C" 
			},
			{
				"x": 4.6775109489,
				"y": -0.9277629817,
				"z": -0.6159591877,
				"element": "C" 
			},
			{
				"x": 4.0765704298,
				"y": 0.0416578603,
				"z": 0.1874822458,
				"element": "C" 
			},
			{
				"x": 0.172731542,
				"y": 2.616041496,
				"z": 1.7404755223,
				"element": "C" 
			},
			{
				"x": -1.1063405978,
				"y": 2.1632944833,
				"z": 1.9804724089,
				"element": "C" 
			},
			{
				"x": -4.7227943955,
				"y": 0.6879402411,
				"z": -2.6683815512,
				"element": "H" 
			},
			{
				"x": -5.052391656,
				"y": -1.7732714964,
				"z": -2.9013511907,
				"element": "H" 
			},
			{
				"x": -4.36702722,
				"y": -3.2871183748,
				"z": -1.0447937266,
				"element": "H" 
			},
			{
				"x": -2.6411482606,
				"y": -0.5929477912,
				"z": 2.2891225248,
				"element": "H" 
			},
			{
				"x": 2.7071197694,
				"y": 1.9895102033,
				"z": -2.2491853249,
				"element": "H" 
			},
			{
				"x": 3.7772047744,
				"y": 0.2599256418,
				"z": -3.6764751739,
				"element": "H" 
			},
			{
				"x": 5.0402491557,
				"y": -1.6059512483,
				"z": -2.6291383133,
				"element": "H" 
			},
			{
				"x": 5.2294487681,
				"y": -1.7418681974,
				"z": -0.1554277197,
				"element": "H" 
			},
			{
				"x": 4.1567603385,
				"y": -0.010898043,
				"z": 1.2682186011,
				"element": "H" 
			},
			{
				"x": 0.5284725822,
				"y": 3.5589915822,
				"z": 2.1439195504,
				"element": "H" 
			},
			{
				"x": -1.8090412399,
				"y": 2.7325795386,
				"z": 2.5796585825,
				"element": "H" 
			}
		],
		 "valence_orbital": [ 
			{
				"type": "occ",
				"energy": -0.26025,
				"method": "rhf"
			},
			{
				"type": "occ",
				"energy": -0.25904,
				"method": "rhf"
			},
			{
				"type": "occ",
				"energy": -0.25893,
				"method": "rhf"
			},
			{
				"type": "occ",
				"energy": -0.23979,
				"method": "rhf"
			},
			{
				"type": "occ",
				"energy": -0.2369,
				"method": "rhf"
			},
			{
				"type": "unocc",
				"energy": -0.05969,
				"method": "rhf"
			},
			{
				"type": "unocc",
				"energy": -0.04105,
				"method": "rhf"
			},
			{
				"type": "unocc",
				"energy": -0.03508,
				"method": "rhf"
			},
			{
				"type": "unocc",
				"energy": -0.02985,
				"method": "rhf"
			},
			{
				"type": "unocc",
				"energy": -0.02549,
				"method": "rhf"
			}
		],
		"cosmo_sigma_profile": { 
			"-0.025": 0.0,
			"-0.024": 0.0,
			"-0.023": 0.0,
			"-0.022": 0.0,
			"-0.021": 0.0,
			"-0.02": 0.0,
			"-0.019": 0.0,
			"-0.018": 0.0,
			"-0.017": 0.0,
			"-0.016": 0.0,
			"-0.015": 0.0,
			"-0.014": 0.0,
			"-0.013": 0.0,
			"-0.012": 0.0,
			"-0.011": 0.212600453195,
			"-0.01": 1.64003973529,
			"-0.009": 4.18807252553,
			"-0.008": 10.8567030219,
			"-0.007": 14.2521774114,
			"-0.006": 22.7914986506,
			"-0.005": 21.7573728326,
			"-0.004": 20.677461191,
			"-0.003": 21.5036213446,
			"-0.002": 25.0672435799,
			"-0.001": 31.786810478,
			"0.0": 37.3296338728,
			"0.001": 32.7856077233,
			"0.002": 31.4861241035,
			"0.003": 27.9079978347,
			"0.004": 23.9160713441,
			"0.005": 11.2233488999,
			"0.006": 8.27551839444,
			"0.007": 6.67347752993,
			"0.008": 4.62702618696,
			"0.009": 5.48794650922,
			"0.01": 4.81956993766,
			"0.011": 4.53421146538,
			"0.012": 4.54958141097,
			"0.013": 2.84324923577,
			"0.014": 0.966289306257,
			"0.015": 0.0340554572263,
			"0.016": 0.0,
			"0.017": 0.0,
			"0.018": 0.0,
			"0.019": 0.0,
			"0.02": 0.0,
			"0.021": 0.0,
			"0.022": 0.0,
			"0.023": 0.0,
			"0.024": 0.0,
			"0.025": 0.0
		}
	}
}
