{
	 "smiles": "CCNC(=O)C1=CC=C(N)C=C1", 
	 "Tm": 347.15, 
	 "num_atms": 24, 
	 "gaussian": { 
		 "optdone": 1, 
		 "sigma_profile": "yes", 
		 "theory": "DFT", 
		 "functional": "B3LYP", 
		 "basiset": "6-31G**", 
		 "properties": { 
			 "R2extent": 2991.1334, 
			 "electric_dipole_moment_norm": 4.78620882223, 
			 "electric_quadrupole_moment_norm": 15.1009675316, 
			 "total_energy": -534.946040441, 
			 "HOMO_LUMO_gap": 0.19153, 
			 "cosmo_polarized_energy": -17.16, 
			 "cosmo_cavitation_energy": 27.63, 
			 "cosmo_dispersion_energy": -20.33, 
			 "cosmo_repulsion_energy": 1.65, 
			 "cosmo_total_nonelectrostatic_energy": 8.95, 
			 "SMD_solvation_energy": 4.96 
		},
		"coords": [
			{
				"x": -2.5667536386,
				"y": 1.5040173071,
				"z": 2.9247574421,
				"element": "C" 
			},
			{
				"x": -2.8473442877,
				"y": 0.8650264331,
				"z": 1.5630695835,
				"element": "C" 
			},
			{
				"x": -1.6439446904,
				"y": 0.7248030203,
				"z": 0.7560727773,
				"element": "N" 
			},
			{
				"x": -1.2546751921,
				"y": -0.4757292022,
				"z": 0.2142417532,
				"element": "C" 
			},
			{
				"x": -1.8955451809,
				"y": -1.5116034299,
				"z": 0.3880881002,
				"element": "O" 
			},
			{
				"x": -0.0028516883,
				"y": -0.456458179,
				"z": -0.6074405148,
				"element": "C" 
			},
			{
				"x": 0.9694568451,
				"y": 0.5532180598,
				"z": -0.5496933051,
				"element": "C" 
			},
			{
				"x": 2.1103749546,
				"y": 0.5009558576,
				"z": -1.3424432753,
				"element": "C" 
			},
			{
				"x": 2.3181463348,
				"y": -0.5742484265,
				"z": -2.2258469326,
				"element": "C" 
			},
			{
				"x": 3.4788013813,
				"y": -0.6559996757,
				"z": -2.985608699,
				"element": "N" 
			},
			{
				"x": 1.3514676736,
				"y": -1.5971865298,
				"z": -2.2744860703,
				"element": "C" 
			},
			{
				"x": 0.2206454611,
				"y": -1.5372418893,
				"z": -1.4736514068,
				"element": "C" 
			},
			{
				"x": -2.1378382579,
				"y": 2.5072959524,
				"z": 2.8176452182,
				"element": "H" 
			},
			{
				"x": -1.8638912249,
				"y": 0.8954876905,
				"z": 3.5013545432,
				"element": "H" 
			},
			{
				"x": -3.4936811732,
				"y": 1.6001887462,
				"z": 3.4999933499,
				"element": "H" 
			},
			{
				"x": -3.2489773424,
				"y": -0.1436113011,
				"z": 1.6780890083,
				"element": "H" 
			},
			{
				"x": -3.5966591416,
				"y": 1.455366936,
				"z": 1.0172255391,
				"element": "H" 
			},
			{
				"x": -1.1873859605,
				"y": 1.5653855771,
				"z": 0.4376145026,
				"element": "H" 
			},
			{
				"x": 0.8648733575,
				"y": 1.3820481341,
				"z": 0.1455601342,
				"element": "H" 
			},
			{
				"x": 2.8582673804,
				"y": 1.2867228472,
				"z": -1.2701023621,
				"element": "H" 
			},
			{
				"x": 3.9556932594,
				"y": 0.2159492495,
				"z": -3.1648456373,
				"element": "H" 
			},
			{
				"x": 3.4337121256,
				"y": -1.2518811936,
				"z": -3.7997557048,
				"element": "H" 
			},
			{
				"x": 1.5012389657,
				"y": -2.4421327272,
				"z": -2.9423250742,
				"element": "H" 
			},
			{
				"x": -0.5208299606,
				"y": -2.3286732568,
				"z": -1.5005129693,
				"element": "H" 
			}
		],
		 "valence_orbital": [ 
			{
				"type": "occ",
				"energy": -0.30627,
				"method": "rhf"
			},
			{
				"type": "occ",
				"energy": -0.25226,
				"method": "rhf"
			},
			{
				"type": "occ",
				"energy": -0.24256,
				"method": "rhf"
			},
			{
				"type": "occ",
				"energy": -0.23431,
				"method": "rhf"
			},
			{
				"type": "occ",
				"energy": -0.20662,
				"method": "rhf"
			},
			{
				"type": "unocc",
				"energy": -0.01509,
				"method": "rhf"
			},
			{
				"type": "unocc",
				"energy": -0.00092,
				"method": "rhf"
			},
			{
				"type": "unocc",
				"energy": 0.07028,
				"method": "rhf"
			},
			{
				"type": "unocc",
				"energy": 0.08106,
				"method": "rhf"
			},
			{
				"type": "unocc",
				"energy": 0.08485,
				"method": "rhf"
			}
		],
		"cosmo_sigma_profile": { 
			"-0.025": 0.0,
			"-0.024": 0.0,
			"-0.023": 0.0,
			"-0.022": 0.0,
			"-0.021": 0.0,
			"-0.02": 0.0,
			"-0.019": 0.0,
			"-0.018": 0.0,
			"-0.017": 0.0,
			"-0.016": 0.0,
			"-0.015": 0.0,
			"-0.014": 0.216967005839,
			"-0.013": 2.22471441052,
			"-0.012": 3.86246545416,
			"-0.011": 4.54234248555,
			"-0.01": 3.72166284979,
			"-0.009": 5.22681240269,
			"-0.008": 4.56745669003,
			"-0.007": 4.81197148864,
			"-0.006": 6.23059034582,
			"-0.005": 7.95970950444,
			"-0.004": 13.3185881627,
			"-0.003": 17.7644978426,
			"-0.002": 16.6225381501,
			"-0.001": 15.5851909232,
			"0.0": 15.1196922733,
			"0.001": 15.4229975686,
			"0.002": 12.5713167843,
			"0.003": 9.88059128179,
			"0.004": 11.9247133943,
			"0.005": 14.0288595053,
			"0.006": 8.39281297094,
			"0.007": 2.48944285056,
			"0.008": 2.0629810436,
			"0.009": 2.70478035794,
			"0.01": 1.93862108221,
			"0.011": 2.22538955038,
			"0.012": 2.6001278398,
			"0.013": 2.61580927836,
			"0.014": 4.88729414555,
			"0.015": 2.56064626893,
			"0.016": 0.0,
			"0.017": 0.0,
			"0.018": 0.0,
			"0.019": 0.0,
			"0.02": 0.0,
			"0.021": 0.0,
			"0.022": 0.0,
			"0.023": 0.0,
			"0.024": 0.0,
			"0.025": 0.0
		}
	}
}
