{
	 "smiles": "ClC1=CC(NCCC#N)=CC=C1", 
	 "Tm": 415.15, 
	 "num_atms": 21, 
	 "gaussian": { 
		 "optdone": 1, 
		 "sigma_profile": "yes", 
		 "theory": "DFT", 
		 "functional": "B3LYP", 
		 "basiset": "6-31G**", 
		 "properties": { 
			 "R2extent": 3245.3091, 
			 "electric_dipole_moment_norm": 5.05181276771, 
			 "electric_quadrupole_moment_norm": 21.3578014999, 
			 "total_energy": -918.058112529, 
			 "HOMO_LUMO_gap": 0.20287, 
			 "cosmo_polarized_energy": -15.68, 
			 "cosmo_cavitation_energy": 27.53, 
			 "cosmo_dispersion_energy": -19.57, 
			 "cosmo_repulsion_energy": 1.58, 
			 "cosmo_total_nonelectrostatic_energy": 9.53, 
			 "SMD_solvation_energy": 4.97 
		},
		"coords": [
			{
				"x": -2.7054806145,
				"y": -2.8633943249,
				"z": -1.9470597752,
				"element": "Cl" 
			},
			{
				"x": -1.3427696828,
				"y": -2.146903867,
				"z": -1.0905461725,
				"element": "C" 
			},
			{
				"x": -1.277388932,
				"y": -0.762620355,
				"z": -0.9841631729,
				"element": "C" 
			},
			{
				"x": -0.199653451,
				"y": -0.1636969493,
				"z": -0.3053251261,
				"element": "C" 
			},
			{
				"x": -0.1714390119,
				"y": 1.2278028998,
				"z": -0.1850730784,
				"element": "N" 
			},
			{
				"x": 1.0494240171,
				"y": 2.004667654,
				"z": -0.0855173512,
				"element": "C" 
			},
			{
				"x": 1.2296200793,
				"y": 2.718312425,
				"z": 1.2784501765,
				"element": "C" 
			},
			{
				"x": 1.4778857113,
				"y": 1.8007516672,
				"z": 2.3921889044,
				"element": "C" 
			},
			{
				"x": 1.6994431454,
				"y": 1.0655905063,
				"z": 3.262761335,
				"element": "N" 
			},
			{
				"x": 0.7916785447,
				"y": -0.9898274968,
				"z": 0.253779724,
				"element": "C" 
			},
			{
				"x": 0.7032225237,
				"y": -2.37358141,
				"z": 0.1168331133,
				"element": "C" 
			},
			{
				"x": -0.3600474387,
				"y": -2.9776943226,
				"z": -0.5550025857,
				"element": "C" 
			},
			{
				"x": -2.0550528233,
				"y": -0.1495893622,
				"z": -1.4292550104,
				"element": "H" 
			},
			{
				"x": -0.9196846283,
				"y": 1.6918359303,
				"z": -0.6787967823,
				"element": "H" 
			},
			{
				"x": 1.9161646034,
				"y": 1.3673922258,
				"z": -0.2848272058,
				"element": "H" 
			},
			{
				"x": 1.0491954632,
				"y": 2.786240642,
				"z": -0.8550025879,
				"element": "H" 
			},
			{
				"x": 0.3352297845,
				"y": 3.3095274863,
				"z": 1.5034388301,
				"element": "H" 
			},
			{
				"x": 2.0737744803,
				"y": 3.416098529,
				"z": 1.2146914472,
				"element": "H" 
			},
			{
				"x": 1.6034843284,
				"y": -0.5622973384,
				"z": 0.830271298,
				"element": "H" 
			},
			{
				"x": 1.4747686883,
				"y": -2.9967460245,
				"z": 0.5595080191,
				"element": "H" 
			},
			{
				"x": -0.4318747869,
				"y": -4.0540685152,
				"z": -0.6536539991,
				"element": "H" 
			}
		],
		 "valence_orbital": [ 
			{
				"type": "occ",
				"energy": -0.32818,
				"method": "rhf"
			},
			{
				"type": "occ",
				"energy": -0.30805,
				"method": "rhf"
			},
			{
				"type": "occ",
				"energy": -0.2971,
				"method": "rhf"
			},
			{
				"type": "occ",
				"energy": -0.24528,
				"method": "rhf"
			},
			{
				"type": "occ",
				"energy": -0.21139,
				"method": "rhf"
			},
			{
				"type": "unocc",
				"energy": -0.00852,
				"method": "rhf"
			},
			{
				"type": "unocc",
				"energy": 0.005,
				"method": "rhf"
			},
			{
				"type": "unocc",
				"energy": 0.02147,
				"method": "rhf"
			},
			{
				"type": "unocc",
				"energy": 0.03305,
				"method": "rhf"
			},
			{
				"type": "unocc",
				"energy": 0.03373,
				"method": "rhf"
			}
		],
		"cosmo_sigma_profile": { 
			"-0.025": 0.0,
			"-0.024": 0.0,
			"-0.023": 0.0,
			"-0.022": 0.0,
			"-0.021": 0.0,
			"-0.02": 0.0,
			"-0.019": 0.0,
			"-0.018": 0.0,
			"-0.017": 0.0,
			"-0.016": 0.0,
			"-0.015": 0.0,
			"-0.014": 0.147926113287,
			"-0.013": 1.77447541002,
			"-0.012": 1.72235719407,
			"-0.011": 1.7952828943,
			"-0.01": 1.64006794822,
			"-0.009": 2.07702583118,
			"-0.008": 8.00321203852,
			"-0.007": 13.6174738988,
			"-0.006": 15.9832792978,
			"-0.005": 13.2826386256,
			"-0.004": 13.2385541495,
			"-0.003": 10.1526750266,
			"-0.002": 8.27650028275,
			"-0.001": 8.56770170316,
			"0.0": 9.68999879042,
			"0.001": 10.2388348207,
			"0.002": 13.0023344075,
			"0.003": 16.9217436771,
			"0.004": 23.2175769473,
			"0.005": 22.6796697079,
			"0.006": 6.594418039,
			"0.007": 3.06743621641,
			"0.008": 3.33455327068,
			"0.009": 2.96009086299,
			"0.01": 2.70341661427,
			"0.011": 2.95444472401,
			"0.012": 2.30609880236,
			"0.013": 2.08610918598,
			"0.014": 0.432888168515,
			"0.015": 0.0,
			"0.016": 0.0,
			"0.017": 0.0,
			"0.018": 0.0,
			"0.019": 0.0,
			"0.02": 0.0,
			"0.021": 0.0,
			"0.022": 0.0,
			"0.023": 0.0,
			"0.024": 0.0,
			"0.025": 0.0
		}
	}
}
