{
	 "smiles": "CCCCCOC(=O)CCCC", 
	 "Tm": 194.35, 
	 "num_atms": 32, 
	 "gaussian": { 
		 "optdone": 1, 
		 "sigma_profile": "yes", 
		 "theory": "DFT", 
		 "functional": "B3LYP", 
		 "basiset": "6-31G**", 
		 "properties": { 
			 "R2extent": 3599.0834, 
			 "electric_dipole_moment_norm": 1.82033099737, 
			 "electric_quadrupole_moment_norm": 13.3808699011, 
			 "total_energy": -543.605513857, 
			 "HOMO_LUMO_gap": 0.27721, 
			 "cosmo_polarized_energy": -6.23, 
			 "cosmo_cavitation_energy": 33.8, 
			 "cosmo_dispersion_energy": -22.12, 
			 "cosmo_repulsion_energy": 1.82, 
			 "cosmo_total_nonelectrostatic_energy": 13.5, 
			 "SMD_solvation_energy": 6.1 
		},
		"coords": [
			{
				"x": 2.2932671054,
				"y": -0.4299158992,
				"z": -1.3568339649,
				"element": "C" 
			},
			{
				"x": 1.2729196851,
				"y": 0.5004889218,
				"z": -2.0238785241,
				"element": "C" 
			},
			{
				"x": -0.1805822165,
				"y": 0.2773138731,
				"z": -1.5749784131,
				"element": "C" 
			},
			{
				"x": -0.7701169887,
				"y": -1.0763145315,
				"z": -1.9939413069,
				"element": "C" 
			},
			{
				"x": -2.2264483074,
				"y": -1.2698431435,
				"z": -1.5815162523,
				"element": "C" 
			},
			{
				"x": -2.3961350171,
				"y": -1.2281176092,
				"z": -0.1434619676,
				"element": "O" 
			},
			{
				"x": -2.2271293914,
				"y": -2.3973551364,
				"z": 0.5222158908,
				"element": "C" 
			},
			{
				"x": -1.9397161519,
				"y": -3.4449114569,
				"z": -0.0175745872,
				"element": "O" 
			},
			{
				"x": -2.454721136,
				"y": -2.2119817269,
				"z": 2.0101653102,
				"element": "C" 
			},
			{
				"x": -1.441387044,
				"y": -1.2593962075,
				"z": 2.6743943169,
				"element": "C" 
			},
			{
				"x": 0.0060512807,
				"y": -1.7658057578,
				"z": 2.630396986,
				"element": "C" 
			},
			{
				"x": 0.9891400203,
				"y": -0.8138162661,
				"z": 3.3187167801,
				"element": "C" 
			},
			{
				"x": 2.2575117682,
				"y": -0.3348592307,
				"z": -0.2650820115,
				"element": "H" 
			},
			{
				"x": 3.3126023948,
				"y": -0.1898294538,
				"z": -1.6766443806,
				"element": "H" 
			},
			{
				"x": 2.1128747868,
				"y": -1.4812271959,
				"z": -1.6031488022,
				"element": "H" 
			},
			{
				"x": 1.335647572,
				"y": 0.3900132099,
				"z": -3.1154054231,
				"element": "H" 
			},
			{
				"x": 1.5478112345,
				"y": 1.5411144881,
				"z": -1.8097353827,
				"element": "H" 
			},
			{
				"x": -0.2441978577,
				"y": 0.3773081982,
				"z": -0.4837973641,
				"element": "H" 
			},
			{
				"x": -0.8079950424,
				"y": 1.0780182395,
				"z": -1.9906306221,
				"element": "H" 
			},
			{
				"x": -0.7246395671,
				"y": -1.1745497055,
				"z": -3.0879055441,
				"element": "H" 
			},
			{
				"x": -0.1851433361,
				"y": -1.9065758187,
				"z": -1.5846840625,
				"element": "H" 
			},
			{
				"x": -2.8545882708,
				"y": -0.4544659508,
				"z": -1.9522624015,
				"element": "H" 
			},
			{
				"x": -2.6098499265,
				"y": -2.2238895731,
				"z": -1.9508098763,
				"element": "H" 
			},
			{
				"x": -3.4677223705,
				"y": -1.8165559947,
				"z": 2.1488492979,
				"element": "H" 
			},
			{
				"x": -2.4105950293,
				"y": -3.2050727738,
				"z": 2.4650934581,
				"element": "H" 
			},
			{
				"x": -1.742547041,
				"y": -1.1146209884,
				"z": 3.7198317541,
				"element": "H" 
			},
			{
				"x": -1.5073575914,
				"y": -0.2766764074,
				"z": 2.1926738707,
				"element": "H" 
			},
			{
				"x": 0.0571215497,
				"y": -2.7552825181,
				"z": 3.1038795622,
				"element": "H" 
			},
			{
				"x": 0.3128995592,
				"y": -1.9157637518,
				"z": 1.5870524221,
				"element": "H" 
			},
			{
				"x": 0.9846380881,
				"y": 0.1735824814,
				"z": 2.8427536893,
				"element": "H" 
			},
			{
				"x": 2.013124082,
				"y": -1.198717868,
				"z": 3.2768061586,
				"element": "H" 
			},
			{
				"x": 0.7307631593,
				"y": -0.6711944463,
				"z": 4.3743613898,
				"element": "H" 
			}
		],
		 "valence_orbital": [ 
			{
				"type": "occ",
				"energy": -0.32583,
				"method": "rhf"
			},
			{
				"type": "occ",
				"energy": -0.32259,
				"method": "rhf"
			},
			{
				"type": "occ",
				"energy": -0.31444,
				"method": "rhf"
			},
			{
				"type": "occ",
				"energy": -0.2904,
				"method": "rhf"
			},
			{
				"type": "occ",
				"energy": -0.26235,
				"method": "rhf"
			},
			{
				"type": "unocc",
				"energy": 0.01486,
				"method": "rhf"
			},
			{
				"type": "unocc",
				"energy": 0.06498,
				"method": "rhf"
			},
			{
				"type": "unocc",
				"energy": 0.09913,
				"method": "rhf"
			},
			{
				"type": "unocc",
				"energy": 0.10448,
				"method": "rhf"
			},
			{
				"type": "unocc",
				"energy": 0.11653,
				"method": "rhf"
			}
		],
		"cosmo_sigma_profile": { 
			"-0.025": 0.0,
			"-0.024": 0.0,
			"-0.023": 0.0,
			"-0.022": 0.0,
			"-0.021": 0.0,
			"-0.02": 0.0,
			"-0.019": 0.0,
			"-0.018": 0.0,
			"-0.017": 0.0,
			"-0.016": 0.0,
			"-0.015": 0.0,
			"-0.014": 0.0,
			"-0.013": 0.0,
			"-0.012": 0.0,
			"-0.011": 0.0,
			"-0.01": 0.0,
			"-0.009": 0.0,
			"-0.008": 0.0,
			"-0.007": 0.0,
			"-0.006": 0.997986445247,
			"-0.005": 5.81492966209,
			"-0.004": 10.8043092285,
			"-0.003": 26.6228444642,
			"-0.002": 46.0622836007,
			"-0.001": 46.5366396424,
			"0.0": 45.4022135066,
			"0.001": 33.9304512139,
			"0.002": 14.0615704959,
			"0.003": 4.08691969587,
			"0.004": 3.47081436488,
			"0.005": 2.80360780462,
			"0.006": 2.54731769259,
			"0.007": 2.73534471393,
			"0.008": 2.30748906526,
			"0.009": 2.12486213545,
			"0.01": 1.43472863067,
			"0.011": 2.41272330837,
			"0.012": 4.39847045206,
			"0.013": 1.98926915575,
			"0.014": 0.212945023864,
			"0.015": 0.0,
			"0.016": 0.0,
			"0.017": 0.0,
			"0.018": 0.0,
			"0.019": 0.0,
			"0.02": 0.0,
			"0.021": 0.0,
			"0.022": 0.0,
			"0.023": 0.0,
			"0.024": 0.0,
			"0.025": 0.0
		}
	}
}
