{
	 "smiles": "OC(=O)CC1=CC(OC(F)F)=CC=C1", 
	 "Tm": 326.15, 
	 "num_atms": 22, 
	 "gaussian": { 
		 "optdone": 1, 
		 "sigma_profile": "yes", 
		 "theory": "DFT", 
		 "functional": "B3LYP", 
		 "basiset": "6-31G**", 
		 "properties": { 
			 "R2extent": 4243.3948, 
			 "electric_dipole_moment_norm": 3.40200936801, 
			 "electric_quadrupole_moment_norm": 11.365737306, 
			 "total_energy": -773.139998997, 
			 "HOMO_LUMO_gap": 0.22579, 
			 "cosmo_polarized_energy": -12.6, 
			 "cosmo_cavitation_energy": 28.04, 
			 "cosmo_dispersion_energy": -20.06, 
			 "cosmo_repulsion_energy": 1.57, 
			 "cosmo_total_nonelectrostatic_energy": 9.54, 
			 "SMD_solvation_energy": 7.19 
		},
		"coords": [
			{
				"x": 0.7718838722,
				"y": 2.7032883209,
				"z": 2.7011802962,
				"element": "O" 
			},
			{
				"x": 0.0597658469,
				"y": 1.8230932109,
				"z": 1.9568515287,
				"element": "C" 
			},
			{
				"x": -1.1488428286,
				"y": 1.7794059072,
				"z": 1.9758697756,
				"element": "O" 
			},
			{
				"x": 0.9870913854,
				"y": 0.9078392025,
				"z": 1.1701546922,
				"element": "C" 
			},
			{
				"x": 0.3776177223,
				"y": 0.3251288923,
				"z": -0.0848767425,
				"element": "C" 
			},
			{
				"x": -0.7389232738,
				"y": -0.5127152293,
				"z": -0.0137984799,
				"element": "C" 
			},
			{
				"x": -1.2777834993,
				"y": -1.0544241528,
				"z": -1.179614642,
				"element": "C" 
			},
			{
				"x": -2.3692603811,
				"y": -1.8956349634,
				"z": -1.0057476026,
				"element": "O" 
			},
			{
				"x": -3.3232518512,
				"y": -1.9237812665,
				"z": -1.9901681085,
				"element": "C" 
			},
			{
				"x": -2.9389573021,
				"y": -2.7397096395,
				"z": -3.0183225592,
				"element": "F" 
			},
			{
				"x": -4.4299057741,
				"y": -2.4605367306,
				"z": -1.4469685495,
				"element": "F" 
			},
			{
				"x": -0.7187038545,
				"y": -0.7835904599,
				"z": -2.4311072393,
				"element": "C" 
			},
			{
				"x": 0.3869894607,
				"y": 0.0653756942,
				"z": -2.4964529829,
				"element": "C" 
			},
			{
				"x": 0.9330194987,
				"y": 0.6156603759,
				"z": -1.3377878452,
				"element": "C" 
			},
			{
				"x": 0.1206169986,
				"y": 3.2186681531,
				"z": 3.2069183616,
				"element": "H" 
			},
			{
				"x": 1.2740978701,
				"y": 0.1064294254,
				"z": 1.8656649247,
				"element": "H" 
			},
			{
				"x": 1.9056779939,
				"y": 1.4553491883,
				"z": 0.9450831483,
				"element": "H" 
			},
			{
				"x": -1.2120496897,
				"y": -0.7379096502,
				"z": 0.9348078178,
				"element": "H" 
			},
			{
				"x": -3.5410834001,
				"y": -0.9315981578,
				"z": -2.4032729119,
				"element": "H" 
			},
			{
				"x": -1.1182517971,
				"y": -1.2459370089,
				"z": -3.3254346268,
				"element": "H" 
			},
			{
				"x": 0.8312973233,
				"y": 0.2867171227,
				"z": -3.4622892439,
				"element": "H" 
			},
			{
				"x": 1.7983556794,
				"y": 1.2691817655,
				"z": -1.4046890111,
				"element": "H" 
			}
		],
		 "valence_orbital": [ 
			{
				"type": "occ",
				"energy": -0.33441,
				"method": "rhf"
			},
			{
				"type": "occ",
				"energy": -0.32606,
				"method": "rhf"
			},
			{
				"type": "occ",
				"energy": -0.28454,
				"method": "rhf"
			},
			{
				"type": "occ",
				"energy": -0.25713,
				"method": "rhf"
			},
			{
				"type": "occ",
				"energy": -0.24274,
				"method": "rhf"
			},
			{
				"type": "unocc",
				"energy": -0.01695,
				"method": "rhf"
			},
			{
				"type": "unocc",
				"energy": -0.00461,
				"method": "rhf"
			},
			{
				"type": "unocc",
				"energy": 0.00446,
				"method": "rhf"
			},
			{
				"type": "unocc",
				"energy": 0.07312,
				"method": "rhf"
			},
			{
				"type": "unocc",
				"energy": 0.08507,
				"method": "rhf"
			}
		],
		"cosmo_sigma_profile": { 
			"-0.025": 0.0,
			"-0.024": 0.0,
			"-0.023": 0.0,
			"-0.022": 0.0,
			"-0.021": 0.0,
			"-0.02": 0.0,
			"-0.019": 0.00275694434781,
			"-0.018": 0.761903810356,
			"-0.017": 0.928493107922,
			"-0.016": 0.93614961977,
			"-0.015": 0.638057343431,
			"-0.014": 1.11394743926,
			"-0.013": 0.268053177143,
			"-0.012": 0.375655578314,
			"-0.011": 1.36308994883,
			"-0.01": 3.04780308716,
			"-0.009": 2.92341330606,
			"-0.008": 3.2889342511,
			"-0.007": 7.93810792815,
			"-0.006": 14.664639501,
			"-0.005": 14.4935600788,
			"-0.004": 13.1771150812,
			"-0.003": 11.4035601446,
			"-0.002": 10.2184749629,
			"-0.001": 10.4657756859,
			"0.0": 9.59833974322,
			"0.001": 12.6887880414,
			"0.002": 14.4428480355,
			"0.003": 26.3331559981,
			"0.004": 26.5657456177,
			"0.005": 8.82554484166,
			"0.006": 4.55159783523,
			"0.007": 4.93387341839,
			"0.008": 4.24371417224,
			"0.009": 3.57865458163,
			"0.01": 2.88645967458,
			"0.011": 4.15637632757,
			"0.012": 2.74691387871,
			"0.013": 0.00391858978049,
			"0.014": 0.0,
			"0.015": 0.0,
			"0.016": 0.0,
			"0.017": 0.0,
			"0.018": 0.0,
			"0.019": 0.0,
			"0.02": 0.0,
			"0.021": 0.0,
			"0.022": 0.0,
			"0.023": 0.0,
			"0.024": 0.0,
			"0.025": 0.0
		}
	}
}
