{
	 "smiles": "CCCCCCCCCCCCCCCC#N", 
	 "Tm": 304.15, 
	 "num_atms": 48, 
	 "gaussian": { 
		 "optdone": 1, 
		 "sigma_profile": "yes", 
		 "theory": "DFT", 
		 "functional": "B3LYP", 
		 "basiset": "6-31G**", 
		 "properties": { 
			 "R2extent": 5976.9266, 
			 "electric_dipole_moment_norm": 3.97406830842, 
			 "electric_quadrupole_moment_norm": 13.1716389485, 
			 "total_energy": -683.161009675, 
			 "HOMO_LUMO_gap": 0.31799, 
			 "cosmo_polarized_energy": -8.29, 
			 "cosmo_cavitation_energy": 47.25, 
			 "cosmo_dispersion_energy": -29.09, 
			 "cosmo_repulsion_energy": 2.32, 
			 "cosmo_total_nonelectrostatic_energy": 20.48, 
			 "SMD_solvation_energy": 7.28 
		},
		"coords": [
			{
				"x": -2.2681887662,
				"y": 1.92335164,
				"z": -3.3070818751,
				"element": "C" 
			},
			{
				"x": -1.2566481835,
				"y": 1.7901930848,
				"z": -2.1637251607,
				"element": "C" 
			},
			{
				"x": -0.1845700175,
				"y": 2.8895162568,
				"z": -2.1838502278,
				"element": "C" 
			},
			{
				"x": 0.8800672507,
				"y": 2.7671436956,
				"z": -1.0808343918,
				"element": "C" 
			},
			{
				"x": 0.3689574167,
				"y": 3.0687769282,
				"z": 0.3367469711,
				"element": "C" 
			},
			{
				"x": 1.4541007606,
				"y": 2.938835302,
				"z": 1.4227296837,
				"element": "C" 
			},
			{
				"x": 1.844212642,
				"y": 1.4880532248,
				"z": 1.8039839497,
				"element": "C" 
			},
			{
				"x": 1.2381297803,
				"y": 0.995041495,
				"z": 3.1328009261,
				"element": "C" 
			},
			{
				"x": -0.2953007502,
				"y": 0.8723682137,
				"z": 3.1792794504,
				"element": "C" 
			},
			{
				"x": -0.9188196911,
				"y": -0.2569444648,
				"z": 2.3362415457,
				"element": "C" 
			},
			{
				"x": -0.5631093719,
				"y": -1.6877031886,
				"z": 2.8135889574,
				"element": "C" 
			},
			{
				"x": 0.530141177,
				"y": -2.4113764752,
				"z": 2.0045887739,
				"element": "C" 
			},
			{
				"x": 0.0561628701,
				"y": -2.8816255131,
				"z": 0.6209308373,
				"element": "C" 
			},
			{
				"x": 1.0959725008,
				"y": -3.6870729346,
				"z": -0.1723536319,
				"element": "C" 
			},
			{
				"x": 2.3573825044,
				"y": -2.8931000982,
				"z": -0.585244444,
				"element": "C" 
			},
			{
				"x": 2.0470968965,
				"y": -1.7324222851,
				"z": -1.4252806722,
				"element": "C" 
			},
			{
				"x": 1.7780190993,
				"y": -0.8177617056,
				"z": -2.088013005,
				"element": "N" 
			},
			{
				"x": -3.0184043869,
				"y": 1.1258054325,
				"z": -3.2760194427,
				"element": "H" 
			},
			{
				"x": -2.7998824066,
				"y": 2.8810799311,
				"z": -3.2585780656,
				"element": "H" 
			},
			{
				"x": -1.7704248691,
				"y": 1.8727460422,
				"z": -4.2823910067,
				"element": "H" 
			},
			{
				"x": -0.7590014257,
				"y": 0.8136223651,
				"z": -2.2238543725,
				"element": "H" 
			},
			{
				"x": -1.7935062275,
				"y": 1.8068723184,
				"z": -1.2061926388,
				"element": "H" 
			},
			{
				"x": -0.6697738406,
				"y": 3.8751160345,
				"z": -2.1187461651,
				"element": "H" 
			},
			{
				"x": 0.3179751235,
				"y": 2.8630977224,
				"z": -3.1600678868,
				"element": "H" 
			},
			{
				"x": 1.3171597872,
				"y": 1.7615252341,
				"z": -1.1251460945,
				"element": "H" 
			},
			{
				"x": 1.7006776872,
				"y": 3.4640524515,
				"z": -1.3020061656,
				"element": "H" 
			},
			{
				"x": -0.4753736691,
				"y": 2.4122481049,
				"z": 0.5816422555,
				"element": "H" 
			},
			{
				"x": -0.0305170093,
				"y": 4.092610035,
				"z": 0.3519421722,
				"element": "H" 
			},
			{
				"x": 2.3460542527,
				"y": 3.4775135571,
				"z": 1.0769035968,
				"element": "H" 
			},
			{
				"x": 1.1253523618,
				"y": 3.4666162585,
				"z": 2.3280977296,
				"element": "H" 
			},
			{
				"x": 1.5763947587,
				"y": 0.8055208294,
				"z": 0.9872930765,
				"element": "H" 
			},
			{
				"x": 2.9351627395,
				"y": 1.4184499292,
				"z": 1.8958014111,
				"element": "H" 
			},
			{
				"x": 1.6878732595,
				"y": 0.0287097496,
				"z": 3.3981240279,
				"element": "H" 
			},
			{
				"x": 1.5498763568,
				"y": 1.6899715191,
				"z": 3.924744061,
				"element": "H" 
			},
			{
				"x": -0.5987166188,
				"y": 0.7212994838,
				"z": 4.2246151927,
				"element": "H" 
			},
			{
				"x": -0.7419785331,
				"y": 1.8282499771,
				"z": 2.8776691725,
				"element": "H" 
			},
			{
				"x": -2.007518981,
				"y": -0.1299405388,
				"z": 2.3702965399,
				"element": "H" 
			},
			{
				"x": -0.6448453351,
				"y": -0.1317426234,
				"z": 1.2810971256,
				"element": "H" 
			},
			{
				"x": -1.4644995657,
				"y": -2.314433127,
				"z": 2.7968158259,
				"element": "H" 
			},
			{
				"x": -0.2550921427,
				"y": -1.644668408,
				"z": 3.8664007859,
				"element": "H" 
			},
			{
				"x": 0.8721482734,
				"y": -3.2880912681,
				"z": 2.5725673141,
				"element": "H" 
			},
			{
				"x": 1.4023251636,
				"y": -1.7532325404,
				"z": 1.9029732287,
				"element": "H" 
			},
			{
				"x": -0.2688623086,
				"y": -2.0238365249,
				"z": 0.0188705086,
				"element": "H" 
			},
			{
				"x": -0.8320242445,
				"y": -3.5135862084,
				"z": 0.7514020499,
				"element": "H" 
			},
			{
				"x": 1.4330696595,
				"y": -4.5470480865,
				"z": 0.419510341,
				"element": "H" 
			},
			{
				"x": 0.6309603877,
				"y": -4.09128599,
				"z": -1.0783532811,
				"element": "H" 
			},
			{
				"x": 3.0456604315,
				"y": -3.5414046936,
				"z": -1.1394443898,
				"element": "H" 
			},
			{
				"x": 2.9013252037,
				"y": -2.5377101423,
				"z": 0.2969254071,
				"element": "H" 
			}
		],
		 "valence_orbital": [ 
			{
				"type": "occ",
				"energy": -0.30501,
				"method": "rhf"
			},
			{
				"type": "occ",
				"energy": -0.30296,
				"method": "rhf"
			},
			{
				"type": "occ",
				"energy": -0.29342,
				"method": "rhf"
			},
			{
				"type": "occ",
				"energy": -0.29222,
				"method": "rhf"
			},
			{
				"type": "occ",
				"energy": -0.28909,
				"method": "rhf"
			},
			{
				"type": "unocc",
				"energy": 0.0289,
				"method": "rhf"
			},
			{
				"type": "unocc",
				"energy": 0.03431,
				"method": "rhf"
			},
			{
				"type": "unocc",
				"energy": 0.06904,
				"method": "rhf"
			},
			{
				"type": "unocc",
				"energy": 0.08723,
				"method": "rhf"
			},
			{
				"type": "unocc",
				"energy": 0.09079,
				"method": "rhf"
			}
		],
		"cosmo_sigma_profile": { 
			"-0.025": 0.0,
			"-0.024": 0.0,
			"-0.023": 0.0,
			"-0.022": 0.0,
			"-0.021": 0.0,
			"-0.02": 0.0,
			"-0.019": 0.0,
			"-0.018": 0.0,
			"-0.017": 0.0,
			"-0.016": 0.0,
			"-0.015": 0.0,
			"-0.014": 0.0,
			"-0.013": 0.0,
			"-0.012": 0.0,
			"-0.011": 0.0,
			"-0.01": 0.0,
			"-0.009": 0.0,
			"-0.008": 1.30627938638,
			"-0.007": 5.18589781526,
			"-0.006": 5.19429292922,
			"-0.005": 7.1596960032,
			"-0.004": 13.2713863551,
			"-0.003": 11.4370283412,
			"-0.002": 39.9366539997,
			"-0.001": 77.7793717979,
			"0.0": 69.8168003751,
			"0.001": 62.2222241799,
			"0.002": 34.4856637139,
			"0.003": 5.67905417846,
			"0.004": 5.63622880068,
			"0.005": 5.32857257252,
			"0.006": 4.29362157439,
			"0.007": 3.30401876725,
			"0.008": 2.8744027385,
			"0.009": 2.75146178656,
			"0.01": 2.221627909,
			"0.011": 2.02662243564,
			"0.012": 1.22617300373,
			"0.013": 0.513789466319,
			"0.014": 0.0,
			"0.015": 0.0,
			"0.016": 0.0,
			"0.017": 0.0,
			"0.018": 0.0,
			"0.019": 0.0,
			"0.02": 0.0,
			"0.021": 0.0,
			"0.022": 0.0,
			"0.023": 0.0,
			"0.024": 0.0,
			"0.025": 0.0
		}
	}
}
