{
	 "smiles": "COC(=O)C1(CC1)S(=O)(=O)C1=CC=C(C)C=C1", 
	 "Tm": 370.35, 
	 "num_atms": 31, 
	 "gaussian": { 
		 "optdone": 1, 
		 "sigma_profile": "yes", 
		 "theory": "DFT", 
		 "functional": "B3LYP", 
		 "basiset": "6-31G**", 
		 "properties": { 
			 "R2extent": 5072.1895, 
			 "electric_dipole_moment_norm": 5.24431214174, 
			 "electric_quadrupole_moment_norm": 13.2061028006, 
			 "total_energy": -1164.71426816, 
			 "HOMO_LUMO_gap": 0.22388, 
			 "cosmo_polarized_energy": -15.93, 
			 "cosmo_cavitation_energy": 35.76, 
			 "cosmo_dispersion_energy": -24.79, 
			 "cosmo_repulsion_energy": 1.87, 
			 "cosmo_total_nonelectrostatic_energy": 12.84, 
			 "SMD_solvation_energy": 6.89 
		},
		"coords": [
			{
				"x": 0.7909113423,
				"y": -1.1948859316,
				"z": -3.7869890116,
				"element": "C" 
			},
			{
				"x": 1.0014819074,
				"y": -0.2195025465,
				"z": -2.7496693531,
				"element": "O" 
			},
			{
				"x": 2.2763078967,
				"y": 0.1497690676,
				"z": -2.5565239706,
				"element": "C" 
			},
			{
				"x": 3.2148108263,
				"y": -0.3040833212,
				"z": -3.1794675698,
				"element": "O" 
			},
			{
				"x": 2.4421631639,
				"y": 1.1702916679,
				"z": -1.4697499588,
				"element": "C" 
			},
			{
				"x": 3.6378126241,
				"y": 2.1069517417,
				"z": -1.6299181107,
				"element": "C" 
			},
			{
				"x": 3.6972313855,
				"y": 1.0235188558,
				"z": -0.6135057162,
				"element": "C" 
			},
			{
				"x": 0.9901934978,
				"y": 1.9470447971,
				"z": -0.6910065957,
				"element": "S" 
			},
			{
				"x": 1.5516129628,
				"y": 2.8537633513,
				"z": 0.3287670029,
				"element": "O" 
			},
			{
				"x": 0.1111187065,
				"y": 2.4636869136,
				"z": -1.7483820922,
				"element": "O" 
			},
			{
				"x": 0.1215481608,
				"y": 0.6408016299,
				"z": 0.1849320512,
				"element": "C" 
			},
			{
				"x": -1.0061141447,
				"y": 0.0566010901,
				"z": -0.3924982095,
				"element": "C" 
			},
			{
				"x": -1.6980643867,
				"y": -0.9243583847,
				"z": 0.3149259117,
				"element": "C" 
			},
			{
				"x": -1.2791236944,
				"y": -1.3329972457,
				"z": 1.5893587896,
				"element": "C" 
			},
			{
				"x": -2.0158849527,
				"y": -2.4194979597,
				"z": 2.3347478771,
				"element": "C" 
			},
			{
				"x": -0.1516849994,
				"y": -0.7164773418,
				"z": 2.1520807122,
				"element": "C" 
			},
			{
				"x": 0.547877326,
				"y": 0.2714379053,
				"z": 1.4628026605,
				"element": "C" 
			},
			{
				"x": -0.2823044593,
				"y": -1.381209351,
				"z": -3.7971601329,
				"element": "H" 
			},
			{
				"x": 1.1223223211,
				"y": -0.8017178768,
				"z": -4.7505306362,
				"element": "H" 
			},
			{
				"x": 1.3415433426,
				"y": -2.1122369702,
				"z": -3.5668652289,
				"element": "H" 
			},
			{
				"x": 4.1867999669,
				"y": 1.9820237755,
				"z": -2.5563720213,
				"element": "H" 
			},
			{
				"x": 3.4994423812,
				"y": 3.1215571914,
				"z": -1.2740132686,
				"element": "H" 
			},
			{
				"x": 4.2953599821,
				"y": 0.1437945679,
				"z": -0.8249367719,
				"element": "H" 
			},
			{
				"x": 3.6055871708,
				"y": 1.3125300564,
				"z": 0.4273062331,
				"element": "H" 
			},
			{
				"x": -1.3346118716,
				"y": 0.3847528212,
				"z": -1.3715336436,
				"element": "H" 
			},
			{
				"x": -2.583320248,
				"y": -1.3751846848,
				"z": -0.1259895744,
				"element": "H" 
			},
			{
				"x": -3.0640366735,
				"y": -2.4760040521,
				"z": 2.0278514654,
				"element": "H" 
			},
			{
				"x": -1.5651193746,
				"y": -3.4011046275,
				"z": 2.1420340868,
				"element": "H" 
			},
			{
				"x": -1.9847752022,
				"y": -2.2552187816,
				"z": 3.4158442605,
				"element": "H" 
			},
			{
				"x": 0.1736030032,
				"y": -1.0033192653,
				"z": 3.1486324078,
				"element": "H" 
			},
			{
				"x": 1.3944120393,
				"y": 0.7723729077,
				"z": 1.9190284074,
				"element": "H" 
			}
		],
		 "valence_orbital": [ 
			{
				"type": "occ",
				"energy": -0.30043,
				"method": "rhf"
			},
			{
				"type": "occ",
				"energy": -0.28755,
				"method": "rhf"
			},
			{
				"type": "occ",
				"energy": -0.27669,
				"method": "rhf"
			},
			{
				"type": "occ",
				"energy": -0.26767,
				"method": "rhf"
			},
			{
				"type": "occ",
				"energy": -0.26116,
				"method": "rhf"
			},
			{
				"type": "unocc",
				"energy": -0.03728,
				"method": "rhf"
			},
			{
				"type": "unocc",
				"energy": -0.01864,
				"method": "rhf"
			},
			{
				"type": "unocc",
				"energy": -0.00348,
				"method": "rhf"
			},
			{
				"type": "unocc",
				"energy": 0.05127,
				"method": "rhf"
			},
			{
				"type": "unocc",
				"energy": 0.07896,
				"method": "rhf"
			}
		],
		"cosmo_sigma_profile": { 
			"-0.025": 0.0,
			"-0.024": 0.0,
			"-0.023": 0.0,
			"-0.022": 0.0,
			"-0.021": 0.0,
			"-0.02": 0.0,
			"-0.019": 0.0,
			"-0.018": 0.0,
			"-0.017": 0.0,
			"-0.016": 0.0,
			"-0.015": 0.0,
			"-0.014": 0.0,
			"-0.013": 0.0,
			"-0.012": 0.0,
			"-0.011": 0.0,
			"-0.01": 0.0,
			"-0.009": 0.0,
			"-0.008": 0.0423914682774,
			"-0.007": 6.32070974616,
			"-0.006": 20.2326680157,
			"-0.005": 27.358958384,
			"-0.004": 29.6475195609,
			"-0.003": 27.821008267,
			"-0.002": 24.4309580002,
			"-0.001": 23.5984285863,
			"0.0": 20.4263643411,
			"0.001": 14.7327457949,
			"0.002": 14.6237950926,
			"0.003": 17.4533226007,
			"0.004": 8.61953234392,
			"0.005": 3.16828268998,
			"0.006": 4.43173306919,
			"0.007": 4.12425188663,
			"0.008": 5.7766730307,
			"0.009": 4.30251411064,
			"0.01": 7.96783309255,
			"0.011": 13.030465669,
			"0.012": 5.7551241351,
			"0.013": 0.0203848014749,
			"0.014": 0.0,
			"0.015": 0.0,
			"0.016": 0.0,
			"0.017": 0.0,
			"0.018": 0.0,
			"0.019": 0.0,
			"0.02": 0.0,
			"0.021": 0.0,
			"0.022": 0.0,
			"0.023": 0.0,
			"0.024": 0.0,
			"0.025": 0.0
		}
	}
}
