{
	 "smiles": "CC(=O)C1=C(O)C(CCl)=CC(Cl)=C1", 
	 "Tm": 346.15, 
	 "num_atms": 21, 
	 "gaussian": { 
		 "optdone": 1, 
		 "sigma_profile": "yes", 
		 "theory": "DFT", 
		 "functional": "B3LYP", 
		 "basiset": "6-31G**", 
		 "properties": { 
			 "R2extent": 4037.6899, 
			 "electric_dipole_moment_norm": 3.92059075651, 
			 "electric_quadrupole_moment_norm": 7.36056874705, 
			 "total_energy": -1418.61607468, 
			 "HOMO_LUMO_gap": 0.17591, 
			 "cosmo_polarized_energy": -11.3, 
			 "cosmo_cavitation_energy": 28.46, 
			 "cosmo_dispersion_energy": -21.08, 
			 "cosmo_repulsion_energy": 1.67, 
			 "cosmo_total_nonelectrostatic_energy": 9.06, 
			 "SMD_solvation_energy": 5.1 
		},
		"coords": [
			{
				"x": 0.9283425494,
				"y": 0.0101226188,
				"z": -2.6935860623,
				"element": "C" 
			},
			{
				"x": 1.3946891845,
				"y": 0.5866206383,
				"z": -1.3747066887,
				"element": "C" 
			},
			{
				"x": 2.5377151274,
				"y": 1.0031260022,
				"z": -1.257988104,
				"element": "O" 
			},
			{
				"x": 0.4683029393,
				"y": 0.6626250739,
				"z": -0.1811517054,
				"element": "C" 
			},
			{
				"x": -0.8686040958,
				"y": 0.2187871696,
				"z": -0.1427600583,
				"element": "C" 
			},
			{
				"x": -1.4193452473,
				"y": -0.3467570062,
				"z": -1.2510932672,
				"element": "O" 
			},
			{
				"x": -1.6228781684,
				"y": 0.3342683704,
				"z": 1.0478877669,
				"element": "C" 
			},
			{
				"x": -2.9951486014,
				"y": -0.2534899738,
				"z": 1.1378980252,
				"element": "C" 
			},
			{
				"x": -4.2148826334,
				"y": 0.571374495,
				"z": 0.0121216161,
				"element": "Cl" 
			},
			{
				"x": -1.0552412087,
				"y": 0.9373424449,
				"z": 2.1709240685,
				"element": "C" 
			},
			{
				"x": 0.2644787479,
				"y": 1.3850764561,
				"z": 2.1286241731,
				"element": "C" 
			},
			{
				"x": 0.9687123669,
				"y": 2.1285983254,
				"z": 3.5555434621,
				"element": "Cl" 
			},
			{
				"x": 1.0181922607,
				"y": 1.240053893,
				"z": 0.9751778689,
				"element": "C" 
			},
			{
				"x": 0.0645612143,
				"y": 0.5602492191,
				"z": -3.0775020018,
				"element": "H" 
			},
			{
				"x": 0.6018736033,
				"y": -1.0272053357,
				"z": -2.5757688113,
				"element": "H" 
			},
			{
				"x": 1.7587307529,
				"y": 0.0677152027,
				"z": -3.398328572,
				"element": "H" 
			},
			{
				"x": -2.3843639849,
				"y": -0.2392755286,
				"z": -1.2316723206,
				"element": "H" 
			},
			{
				"x": -3.0195351807,
				"y": -1.3010677212,
				"z": 0.8327659918,
				"element": "H" 
			},
			{
				"x": -3.4125857844,
				"y": -0.1566044571,
				"z": 2.1382950392,
				"element": "H" 
			},
			{
				"x": -1.6349162401,
				"y": 1.040990958,
				"z": 3.0824364311,
				"element": "H" 
			},
			{
				"x": 2.0472023983,
				"y": 1.5764491549,
				"z": 0.9245831488,
				"element": "H" 
			}
		],
		 "valence_orbital": [ 
			{
				"type": "occ",
				"energy": -0.32101,
				"method": "rhf"
			},
			{
				"type": "occ",
				"energy": -0.3189,
				"method": "rhf"
			},
			{
				"type": "occ",
				"energy": -0.27739,
				"method": "rhf"
			},
			{
				"type": "occ",
				"energy": -0.25525,
				"method": "rhf"
			},
			{
				"type": "occ",
				"energy": -0.24354,
				"method": "rhf"
			},
			{
				"type": "unocc",
				"energy": -0.06763,
				"method": "rhf"
			},
			{
				"type": "unocc",
				"energy": -0.04148,
				"method": "rhf"
			},
			{
				"type": "unocc",
				"energy": 0.00426,
				"method": "rhf"
			},
			{
				"type": "unocc",
				"energy": 0.0214,
				"method": "rhf"
			},
			{
				"type": "unocc",
				"energy": 0.02953,
				"method": "rhf"
			}
		],
		"cosmo_sigma_profile": { 
			"-0.025": 0.0,
			"-0.024": 0.0,
			"-0.023": 0.0,
			"-0.022": 0.0,
			"-0.021": 0.0,
			"-0.02": 0.0,
			"-0.019": 0.0,
			"-0.018": 0.0,
			"-0.017": 0.0,
			"-0.016": 0.0,
			"-0.015": 0.0,
			"-0.014": 0.0,
			"-0.013": 0.0,
			"-0.012": 0.567944053066,
			"-0.011": 1.14101392666,
			"-0.01": 3.05446828342,
			"-0.009": 6.0534546554,
			"-0.008": 6.48344611455,
			"-0.007": 5.77135664551,
			"-0.006": 6.12070411412,
			"-0.005": 12.3087080724,
			"-0.004": 10.7570495524,
			"-0.003": 13.3453048314,
			"-0.002": 14.8659695308,
			"-0.001": 19.9346835416,
			"0.0": 22.9238599854,
			"0.001": 26.0728559583,
			"0.002": 17.3189031807,
			"0.003": 13.0719060393,
			"0.004": 17.1540266158,
			"0.005": 14.0248707441,
			"0.006": 6.04935805974,
			"0.007": 1.42402515588,
			"0.008": 2.00874620306,
			"0.009": 1.43433013793,
			"0.01": 2.44517876476,
			"0.011": 3.0988201621,
			"0.012": 3.04042456572,
			"0.013": 1.19718326213,
			"0.014": 0.0251141096232,
			"0.015": 0.0,
			"0.016": 0.0,
			"0.017": 0.0,
			"0.018": 0.0,
			"0.019": 0.0,
			"0.02": 0.0,
			"0.021": 0.0,
			"0.022": 0.0,
			"0.023": 0.0,
			"0.024": 0.0,
			"0.025": 0.0
		}
	}
}
