{
	 "smiles": "CN1C=C(Br)C=C1C(O)=O", 
	 "Tm": 403.15, 
	 "num_atms": 16, 
	 "gaussian": { 
		 "optdone": 1, 
		 "sigma_profile": "yes", 
		 "theory": "DFT", 
		 "functional": "B3LYP", 
		 "basiset": "6-31G**", 
		 "properties": { 
			 "R2extent": 3377.6402, 
			 "electric_dipole_moment_norm": 2.34931988031, 
			 "electric_quadrupole_moment_norm": 19.1744166315, 
			 "total_energy": -3008.85311044, 
			 "HOMO_LUMO_gap": 0.19416, 
			 "cosmo_polarized_energy": -13.71, 
			 "cosmo_cavitation_energy": 22.95, 
			 "cosmo_dispersion_energy": -17.33, 
			 "cosmo_repulsion_energy": 1.4, 
			 "cosmo_total_nonelectrostatic_energy": 7.03, 
			 "SMD_solvation_energy": 4.27 
		},
		"coords": [
			{
				"x": 0.4240549055,
				"y": -1.5341786988,
				"z": -3.2099384809,
				"element": "C" 
			},
			{
				"x": -0.307433816,
				"y": -1.0659526908,
				"z": -2.0327497989,
				"element": "N" 
			},
			{
				"x": -1.6236590676,
				"y": -1.3325279254,
				"z": -1.7976263381,
				"element": "C" 
			},
			{
				"x": -1.9825227831,
				"y": -0.7366501198,
				"z": -0.6004959471,
				"element": "C" 
			},
			{
				"x": -3.7006883715,
				"y": -0.7943789904,
				"z": 0.1762654329,
				"element": "Br" 
			},
			{
				"x": -0.8486348205,
				"y": -0.0864528897,
				"z": -0.0838358336,
				"element": "C" 
			},
			{
				"x": 0.1908787675,
				"y": -0.3043513233,
				"z": -0.9881832939,
				"element": "C" 
			},
			{
				"x": 1.5847864662,
				"y": 0.1606325105,
				"z": -0.9627474969,
				"element": "C" 
			},
			{
				"x": 1.993442572,
				"y": 0.7488139124,
				"z": 0.1926176169,
				"element": "O" 
			},
			{
				"x": 2.3589701179,
				"y": 0.0542773701,
				"z": -1.8914125391,
				"element": "O" 
			},
			{
				"x": 0.771734709,
				"y": -0.6899753517,
				"z": -3.805912044,
				"element": "H" 
			},
			{
				"x": 1.2948176461,
				"y": -2.119184542,
				"z": -2.9116021784,
				"element": "H" 
			},
			{
				"x": -0.2531458381,
				"y": -2.1548211265,
				"z": -3.7987725228,
				"element": "H" 
			},
			{
				"x": -2.2130425175,
				"y": -1.9207260155,
				"z": -2.4841311963,
				"element": "H" 
			},
			{
				"x": -0.8172053063,
				"y": 0.4946035881,
				"z": 0.8274117406,
				"element": "H" 
			},
			{
				"x": 1.3158473365,
				"y": 0.6622722927,
				"z": 0.8771128795,
				"element": "H" 
			}
		],
		 "valence_orbital": [ 
			{
				"type": "occ",
				"energy": -0.31735,
				"method": "rhf"
			},
			{
				"type": "occ",
				"energy": -0.29581,
				"method": "rhf"
			},
			{
				"type": "occ",
				"energy": -0.27758,
				"method": "rhf"
			},
			{
				"type": "occ",
				"energy": -0.25895,
				"method": "rhf"
			},
			{
				"type": "occ",
				"energy": -0.23401,
				"method": "rhf"
			},
			{
				"type": "unocc",
				"energy": -0.03985,
				"method": "rhf"
			},
			{
				"type": "unocc",
				"energy": 0.0085,
				"method": "rhf"
			},
			{
				"type": "unocc",
				"energy": 0.03571,
				"method": "rhf"
			},
			{
				"type": "unocc",
				"energy": 0.05783,
				"method": "rhf"
			},
			{
				"type": "unocc",
				"energy": 0.09284,
				"method": "rhf"
			}
		],
		"cosmo_sigma_profile": { 
			"-0.025": 0.0,
			"-0.024": 0.0,
			"-0.023": 0.0,
			"-0.022": 0.0,
			"-0.021": 0.0,
			"-0.02": 0.0,
			"-0.019": 0.349802818633,
			"-0.018": 0.787722414245,
			"-0.017": 1.04192255949,
			"-0.016": 1.42348179063,
			"-0.015": 0.889899796697,
			"-0.014": 0.315601326819,
			"-0.013": 0.726846522414,
			"-0.012": 1.87501578223,
			"-0.011": 1.5234475684,
			"-0.01": 1.63190107959,
			"-0.009": 4.28172406345,
			"-0.008": 4.48853537182,
			"-0.007": 4.97310426199,
			"-0.006": 5.58235956648,
			"-0.005": 8.64618762613,
			"-0.004": 11.047675662,
			"-0.003": 14.3714707258,
			"-0.002": 11.4918147638,
			"-0.001": 9.58553935842,
			"0.0": 10.0341262687,
			"0.001": 12.0046976808,
			"0.002": 12.2684573089,
			"0.003": 16.5530555896,
			"0.004": 16.773141807,
			"0.005": 9.28451117654,
			"0.006": 2.09266733696,
			"0.007": 2.15405226298,
			"0.008": 2.2331376109,
			"0.009": 3.44489916804,
			"0.01": 3.99708527446,
			"0.011": 4.40266460944,
			"0.012": 3.87302471382,
			"0.013": 2.28962646312,
			"0.014": 0.324782859491,
			"0.015": 0.0,
			"0.016": 0.0,
			"0.017": 0.0,
			"0.018": 0.0,
			"0.019": 0.0,
			"0.02": 0.0,
			"0.021": 0.0,
			"0.022": 0.0,
			"0.023": 0.0,
			"0.024": 0.0,
			"0.025": 0.0
		}
	}
}
