{
	 "smiles": "OCC1=NC2=CC=CC=C2S1", 
	 "Tm": 371.15, 
	 "num_atms": 18, 
	 "gaussian": { 
		 "optdone": 1, 
		 "sigma_profile": "yes", 
		 "theory": "DFT", 
		 "functional": "B3LYP", 
		 "basiset": "6-31G**", 
		 "properties": { 
			 "R2extent": 2926.1011, 
			 "electric_dipole_moment_norm": 2.77953622031, 
			 "electric_quadrupole_moment_norm": 7.45892721911, 
			 "total_energy": -837.229102355, 
			 "HOMO_LUMO_gap": 0.20226, 
			 "cosmo_polarized_energy": -7.55, 
			 "cosmo_cavitation_energy": 23.42, 
			 "cosmo_dispersion_energy": -18.39, 
			 "cosmo_repulsion_energy": 1.43, 
			 "cosmo_total_nonelectrostatic_energy": 6.46, 
			 "SMD_solvation_energy": 2.24 
		},
		"coords": [
			{
				"x": -3.5383017697,
				"y": -1.6884974429,
				"z": 1.6047111982,
				"element": "O" 
			},
			{
				"x": -3.803862501,
				"y": -1.459785612,
				"z": 0.2446185917,
				"element": "C" 
			},
			{
				"x": -2.5931799973,
				"y": -0.9103668565,
				"z": -0.468714355,
				"element": "C" 
			},
			{
				"x": -1.4800209833,
				"y": -0.7097434789,
				"z": 0.1572752248,
				"element": "N" 
			},
			{
				"x": -0.5017274504,
				"y": -0.2033649951,
				"z": -0.6894809245,
				"element": "C" 
			},
			{
				"x": 0.8093987097,
				"y": 0.1185593305,
				"z": -0.3143368047,
				"element": "C" 
			},
			{
				"x": 1.679381074,
				"y": 0.6182175961,
				"z": -1.2767918178,
				"element": "C" 
			},
			{
				"x": 1.2587705845,
				"y": 0.8002711054,
				"z": -2.6051867596,
				"element": "C" 
			},
			{
				"x": -0.0406648161,
				"y": 0.486105861,
				"z": -2.9975016185,
				"element": "C" 
			},
			{
				"x": -0.9134917376,
				"y": -0.0156971892,
				"z": -2.0300595578,
				"element": "C" 
			},
			{
				"x": -2.5947109577,
				"y": -0.5034891767,
				"z": -2.1930313794,
				"element": "S" 
			},
			{
				"x": -2.6105804779,
				"y": -1.437269574,
				"z": 1.7470022468,
				"element": "H" 
			},
			{
				"x": -4.1155486852,
				"y": -2.393696381,
				"z": -0.2503418311,
				"element": "H" 
			},
			{
				"x": -4.63883751,
				"y": -0.7502387253,
				"z": 0.129800421,
				"element": "H" 
			},
			{
				"x": 1.119945713,
				"y": -0.0272835495,
				"z": 0.7149464728,
				"element": "H" 
			},
			{
				"x": 2.6980433906,
				"y": 0.8717158116,
				"z": -0.9997178104,
				"element": "H" 
			},
			{
				"x": 1.95577147,
				"y": 1.1920025827,
				"z": -3.3398355976,
				"element": "H" 
			},
			{
				"x": -0.3607840557,
				"y": 0.6284606938,
				"z": -4.0245556989,
				"element": "H" 
			}
		],
		 "valence_orbital": [ 
			{
				"type": "occ",
				"energy": -0.31161,
				"method": "rhf"
			},
			{
				"type": "occ",
				"energy": -0.29448,
				"method": "rhf"
			},
			{
				"type": "occ",
				"energy": -0.27148,
				"method": "rhf"
			},
			{
				"type": "occ",
				"energy": -0.24411,
				"method": "rhf"
			},
			{
				"type": "occ",
				"energy": -0.24323,
				"method": "rhf"
			},
			{
				"type": "unocc",
				"energy": -0.04097,
				"method": "rhf"
			},
			{
				"type": "unocc",
				"energy": -0.01368,
				"method": "rhf"
			},
			{
				"type": "unocc",
				"energy": 0.00067,
				"method": "rhf"
			},
			{
				"type": "unocc",
				"energy": 0.02614,
				"method": "rhf"
			},
			{
				"type": "unocc",
				"energy": 0.07899,
				"method": "rhf"
			}
		],
		"cosmo_sigma_profile": { 
			"-0.025": 0.0,
			"-0.024": 0.0,
			"-0.023": 0.0,
			"-0.022": 0.0,
			"-0.021": 0.0,
			"-0.02": 0.0,
			"-0.019": 0.0,
			"-0.018": 0.0,
			"-0.017": 0.0,
			"-0.016": 0.0,
			"-0.015": 0.0,
			"-0.014": 0.0,
			"-0.013": 0.0,
			"-0.012": 0.0,
			"-0.011": 0.0,
			"-0.01": 0.398162078333,
			"-0.009": 0.508776242724,
			"-0.008": 0.690370935281,
			"-0.007": 8.43151604597,
			"-0.006": 16.1501883986,
			"-0.005": 13.5336169336,
			"-0.004": 13.9796476627,
			"-0.003": 10.613289737,
			"-0.002": 10.8106202624,
			"-0.001": 12.4978425483,
			"0.0": 13.6376688574,
			"0.001": 15.8147821377,
			"0.002": 17.6599304835,
			"0.003": 16.7709530725,
			"0.004": 14.7695802194,
			"0.005": 7.80840315033,
			"0.006": 1.69871317678,
			"0.007": 3.0177875898,
			"0.008": 1.58583221773,
			"0.009": 1.42206355498,
			"0.01": 1.22145121741,
			"0.011": 1.53062481722,
			"0.012": 1.49147062065,
			"0.013": 2.02102594532,
			"0.014": 1.90609698857,
			"0.015": 0.000466276842483,
			"0.016": 0.0,
			"0.017": 0.0,
			"0.018": 0.0,
			"0.019": 0.0,
			"0.02": 0.0,
			"0.021": 0.0,
			"0.022": 0.0,
			"0.023": 0.0,
			"0.024": 0.0,
			"0.025": 0.0
		}
	}
}
