{
	 "smiles": "CC(=O)OC1=CC=C(C=C1)C(C1=CC=C(OC(C)=O)C=C1)C1=NC=CC=C1", 
	 "Tm": 407.15, 
	 "num_atms": 46, 
	 "gaussian": { 
		 "optdone": 1, 
		 "sigma_profile": "yes", 
		 "theory": "DFT", 
		 "functional": "B3LYP", 
		 "basiset": "6-31G**", 
		 "properties": { 
			 "R2extent": 14041.4577, 
			 "electric_dipole_moment_norm": 7.22510843379, 
			 "electric_quadrupole_moment_norm": 55.7231581169, 
			 "total_energy": -1205.44525747, 
			 "HOMO_LUMO_gap": 0.19724, 
			 "cosmo_polarized_energy": -22.9, 
			 "cosmo_cavitation_energy": 51.57, 
			 "cosmo_dispersion_energy": -34.29, 
			 "cosmo_repulsion_energy": 2.66, 
			 "cosmo_total_nonelectrostatic_energy": 19.93, 
			 "SMD_solvation_energy": 10.94 
		},
		"coords": [
			{
				"x": -2.6161237388,
				"y": 0.5435132015,
				"z": 5.9939772457,
				"element": "C" 
			},
			{
				"x": -2.0322758231,
				"y": 1.9285046602,
				"z": 5.8184373656,
				"element": "C" 
			},
			{
				"x": -2.0565721391,
				"y": 2.7913156663,
				"z": 6.6561432312,
				"element": "O" 
			},
			{
				"x": -1.4307366431,
				"y": 2.2122407227,
				"z": 4.6099903406,
				"element": "O" 
			},
			{
				"x": -1.3580431529,
				"y": 1.2786042841,
				"z": 3.5809905743,
				"element": "C" 
			},
			{
				"x": -0.2337429788,
				"y": 0.4611122095,
				"z": 3.4708236242,
				"element": "C" 
			},
			{
				"x": -0.1378332362,
				"y": -0.4244471319,
				"z": 2.3988949501,
				"element": "C" 
			},
			{
				"x": -1.1442925196,
				"y": -0.5057666598,
				"z": 1.425545467,
				"element": "C" 
			},
			{
				"x": -2.2596529491,
				"y": 0.3333154846,
				"z": 1.5530397203,
				"element": "C" 
			},
			{
				"x": -2.3676619391,
				"y": 1.2241293115,
				"z": 2.6219918985,
				"element": "C" 
			},
			{
				"x": -0.9550992491,
				"y": -1.4788968663,
				"z": 0.2551461755,
				"element": "C" 
			},
			{
				"x": -0.2156364388,
				"y": -0.8356873894,
				"z": -0.9224823337,
				"element": "C" 
			},
			{
				"x": 0.9611891366,
				"y": -1.4228688729,
				"z": -1.4028527071,
				"element": "C" 
			},
			{
				"x": 1.6616301001,
				"y": -0.8712094944,
				"z": -2.4766999499,
				"element": "C" 
			},
			{
				"x": 1.179555718,
				"y": 0.2887252986,
				"z": -3.0783170325,
				"element": "C" 
			},
			{
				"x": 1.8333990031,
				"y": 0.807713389,
				"z": -4.1914264019,
				"element": "O" 
			},
			{
				"x": 2.8039570655,
				"y": 1.7822003409,
				"z": -4.0851378978,
				"element": "C" 
			},
			{
				"x": 3.1475260199,
				"y": 2.2698891453,
				"z": -2.694646846,
				"element": "C" 
			},
			{
				"x": 3.3178098055,
				"y": 2.1826591367,
				"z": -5.096416272,
				"element": "O" 
			},
			{
				"x": 0.0015550569,
				"y": 0.8849988647,
				"z": -2.6264299427,
				"element": "C" 
			},
			{
				"x": -0.6862681868,
				"y": 0.3258150883,
				"z": -1.5515437595,
				"element": "C" 
			},
			{
				"x": -2.2433076996,
				"y": -2.1736112747,
				"z": -0.1881147816,
				"element": "C" 
			},
			{
				"x": -3.1666853158,
				"y": -1.4367395758,
				"z": -0.8252408836,
				"element": "N" 
			},
			{
				"x": -4.2912997183,
				"y": -2.0362656695,
				"z": -1.2316371975,
				"element": "C" 
			},
			{
				"x": -4.5593870286,
				"y": -3.3907396325,
				"z": -1.0339399432,
				"element": "C" 
			},
			{
				"x": -3.6030897757,
				"y": -4.1560187511,
				"z": -0.3690830371,
				"element": "C" 
			},
			{
				"x": -2.4294816945,
				"y": -3.5396439577,
				"z": 0.0607521313,
				"element": "C" 
			},
			{
				"x": -3.3901231593,
				"y": 0.3464989367,
				"z": 5.2468040284,
				"element": "H" 
			},
			{
				"x": -3.0430141682,
				"y": 0.4816188444,
				"z": 6.9940373774,
				"element": "H" 
			},
			{
				"x": -1.8475989993,
				"y": -0.2246964455,
				"z": 5.8694596965,
				"element": "H" 
			},
			{
				"x": 0.5533557117,
				"y": 0.5303086834,
				"z": 4.2150758149,
				"element": "H" 
			},
			{
				"x": 0.7409942052,
				"y": -1.0589363164,
				"z": 2.3148342204,
				"element": "H" 
			},
			{
				"x": -3.0491183413,
				"y": 0.2853904692,
				"z": 0.8113853799,
				"element": "H" 
			},
			{
				"x": -3.2250098753,
				"y": 1.8838816193,
				"z": 2.713024917,
				"element": "H" 
			},
			{
				"x": -0.299221263,
				"y": -2.2726905413,
				"z": 0.6279886999,
				"element": "H" 
			},
			{
				"x": 1.3388308072,
				"y": -2.3294315304,
				"z": -0.9363428475,
				"element": "H" 
			},
			{
				"x": 2.5668397798,
				"y": -1.3349641642,
				"z": -2.8556253398,
				"element": "H" 
			},
			{
				"x": 3.4915687317,
				"y": 1.4454595099,
				"z": -2.0636251447,
				"element": "H" 
			},
			{
				"x": 3.9316377792,
				"y": 3.0204323021,
				"z": -2.7842547142,
				"element": "H" 
			},
			{
				"x": 2.2722811119,
				"y": 2.7047606865,
				"z": -2.2037506691,
				"element": "H" 
			},
			{
				"x": -0.3703479711,
				"y": 1.7744421966,
				"z": -3.1254122717,
				"element": "H" 
			},
			{
				"x": -1.6029067353,
				"y": 0.788494329,
				"z": -1.2063430076,
				"element": "H" 
			},
			{
				"x": -5.0121861022,
				"y": -1.401197819,
				"z": -1.7435409209,
				"element": "H" 
			},
			{
				"x": -5.486948817,
				"y": -3.8261343247,
				"z": -1.391102427,
				"element": "H" 
			},
			{
				"x": -3.765214176,
				"y": -5.2150851967,
				"z": -0.1899903447,
				"element": "H" 
			},
			{
				"x": -1.6643501974,
				"y": -4.1085927668,
				"z": 0.5802138147,
				"element": "H" 
			}
		],
		 "valence_orbital": [ 
			{
				"type": "occ",
				"energy": -0.27063,
				"method": "rhf"
			},
			{
				"type": "occ",
				"energy": -0.26662,
				"method": "rhf"
			},
			{
				"type": "occ",
				"energy": -0.26231,
				"method": "rhf"
			},
			{
				"type": "occ",
				"energy": -0.25047,
				"method": "rhf"
			},
			{
				"type": "occ",
				"energy": -0.239,
				"method": "rhf"
			},
			{
				"type": "unocc",
				"energy": -0.04176,
				"method": "rhf"
			},
			{
				"type": "unocc",
				"energy": -0.03045,
				"method": "rhf"
			},
			{
				"type": "unocc",
				"energy": -0.02073,
				"method": "rhf"
			},
			{
				"type": "unocc",
				"energy": -0.01948,
				"method": "rhf"
			},
			{
				"type": "unocc",
				"energy": -0.01312,
				"method": "rhf"
			}
		],
		"cosmo_sigma_profile": { 
			"-0.025": 0.0,
			"-0.024": 0.0,
			"-0.023": 0.0,
			"-0.022": 0.0,
			"-0.021": 0.0,
			"-0.02": 0.0,
			"-0.019": 0.0,
			"-0.018": 0.0,
			"-0.017": 0.0,
			"-0.016": 0.0,
			"-0.015": 0.0,
			"-0.014": 0.0,
			"-0.013": 0.0,
			"-0.012": 0.0,
			"-0.011": 0.0,
			"-0.01": 0.0,
			"-0.009": 0.0,
			"-0.008": 0.110143200905,
			"-0.007": 16.961290049,
			"-0.006": 42.6045637211,
			"-0.005": 37.4484498302,
			"-0.004": 33.0829955039,
			"-0.003": 33.1174688653,
			"-0.002": 30.0842443477,
			"-0.001": 21.6779700573,
			"0.0": 20.3694222378,
			"0.001": 21.8866837824,
			"0.002": 32.1743708684,
			"0.003": 32.4714492018,
			"0.004": 23.5382823982,
			"0.005": 9.07155123592,
			"0.006": 6.30604592382,
			"0.007": 6.18386794529,
			"0.008": 6.24666640373,
			"0.009": 7.82448394529,
			"0.01": 8.50813262215,
			"0.011": 11.2041163171,
			"0.012": 9.58738588002,
			"0.013": 1.91591447159,
			"0.014": 0.0,
			"0.015": 0.0,
			"0.016": 0.0,
			"0.017": 0.0,
			"0.018": 0.0,
			"0.019": 0.0,
			"0.02": 0.0,
			"0.021": 0.0,
			"0.022": 0.0,
			"0.023": 0.0,
			"0.024": 0.0,
			"0.025": 0.0
		}
	}
}
