{
	 "smiles": "CS(=O)(=O)NC1=C(I)C=CC=C1", 
	 "Tm": 370.15, 
	 "num_atms": 20, 
	 "gaussian": { 
		 "optdone": 1, 
		 "sigma_profile": "yes", 
		 "theory": "DFT", 
		 "functional": "B3LYP", 
		 "basiset": "6-31G**", 
		 "properties": { 
			 "R2extent": 2647.8154, 
			 "electric_dipole_moment_norm": 6.12922363191, 
			 "electric_quadrupole_moment_norm": 9.18894893663, 
			 "total_energy": -886.261804319, 
			 "HOMO_LUMO_gap": 0.20074, 
			 "cosmo_polarized_energy": -20.13, 
			 "cosmo_cavitation_energy": 28.19, 
			 "cosmo_dispersion_energy": -21.85, 
			 "cosmo_repulsion_energy": 1.66, 
			 "cosmo_total_nonelectrostatic_energy": 8.0, 
			 "SMD_solvation_energy": 3.76 
		},
		"coords": [
			{
				"x": -1.3238515537,
				"y": 2.8590893619,
				"z": 0.8654837934,
				"element": "C" 
			},
			{
				"x": -1.0884937238,
				"y": 1.6788876291,
				"z": -0.4843766178,
				"element": "S" 
			},
			{
				"x": -2.3803575454,
				"y": 1.5030665752,
				"z": -1.1453492882,
				"element": "O" 
			},
			{
				"x": 0.1185650187,
				"y": 2.0861792545,
				"z": -1.1951781608,
				"element": "O" 
			},
			{
				"x": -0.7702133803,
				"y": 0.1836166049,
				"z": 0.2462386696,
				"element": "N" 
			},
			{
				"x": 0.4314690691,
				"y": -0.0683494039,
				"z": 0.9740299866,
				"element": "C" 
			},
			{
				"x": 1.5607561891,
				"y": -0.622895008,
				"z": 0.3437223697,
				"element": "C" 
			},
			{
				"x": 1.5254807361,
				"y": -1.1889194125,
				"z": -1.6895904187,
				"element": "I" 
			},
			{
				"x": 2.7260589354,
				"y": -0.8618455424,
				"z": 1.078734598,
				"element": "C" 
			},
			{
				"x": 2.7691036319,
				"y": -0.5790445823,
				"z": 2.4438781189,
				"element": "C" 
			},
			{
				"x": 1.6459287965,
				"y": -0.0593625752,
				"z": 3.0872936169,
				"element": "C" 
			},
			{
				"x": 0.4920657973,
				"y": 0.1969330431,
				"z": 2.3510035843,
				"element": "C" 
			},
			{
				"x": -2.194647797,
				"y": 2.5662970673,
				"z": 1.4539287865,
				"element": "H" 
			},
			{
				"x": -1.4946798418,
				"y": 3.8317718457,
				"z": 0.4005742935,
				"element": "H" 
			},
			{
				"x": -0.4207334615,
				"y": 2.8894653113,
				"z": 1.4759687557,
				"element": "H" 
			},
			{
				"x": -1.6207664336,
				"y": -0.2424460425,
				"z": 0.5989111569,
				"element": "H" 
			},
			{
				"x": 3.5937316417,
				"y": -1.2844142302,
				"z": 0.5850665054,
				"element": "H" 
			},
			{
				"x": 3.6792381811,
				"y": -0.7771613205,
				"z": 3.0019264783,
				"element": "H" 
			},
			{
				"x": 1.6677402121,
				"y": 0.1496539714,
				"z": 4.1522759739,
				"element": "H" 
			},
			{
				"x": -0.3881944719,
				"y": 0.6041774531,
				"z": 2.840957798,
				"element": "H" 
			}
		],
		 "valence_orbital": [ 
			{
				"type": "occ",
				"energy": -0.30242,
				"method": "rhf"
			},
			{
				"type": "occ",
				"energy": -0.29489,
				"method": "rhf"
			},
			{
				"type": "occ",
				"energy": -0.27094,
				"method": "rhf"
			},
			{
				"type": "occ",
				"energy": -0.25688,
				"method": "rhf"
			},
			{
				"type": "occ",
				"energy": -0.24018,
				"method": "rhf"
			},
			{
				"type": "unocc",
				"energy": -0.03944,
				"method": "rhf"
			},
			{
				"type": "unocc",
				"energy": -0.034,
				"method": "rhf"
			},
			{
				"type": "unocc",
				"energy": -0.02925,
				"method": "rhf"
			},
			{
				"type": "unocc",
				"energy": 0.04003,
				"method": "rhf"
			},
			{
				"type": "unocc",
				"energy": 0.05642,
				"method": "rhf"
			}
		],
		"cosmo_sigma_profile": { 
			"-0.025": 0.0,
			"-0.024": 0.0,
			"-0.023": 0.0,
			"-0.022": 0.0,
			"-0.021": 0.0,
			"-0.02": 0.0,
			"-0.019": 0.0,
			"-0.018": 0.0,
			"-0.017": 0.0,
			"-0.016": 0.442840132209,
			"-0.015": 1.30269483678,
			"-0.014": 1.18533763984,
			"-0.013": 1.42126809459,
			"-0.012": 1.35493771845,
			"-0.011": 1.4459176312,
			"-0.01": 1.49293529756,
			"-0.009": 4.07759953583,
			"-0.008": 6.0677272856,
			"-0.007": 13.4215822988,
			"-0.006": 17.7220902292,
			"-0.005": 16.9919429879,
			"-0.004": 13.7276679121,
			"-0.003": 11.018553069,
			"-0.002": 9.55523118545,
			"-0.001": 8.2984574715,
			"0.0": 9.41773616082,
			"0.001": 12.7017379204,
			"0.002": 15.5188557895,
			"0.003": 17.2326734357,
			"0.004": 13.9777011026,
			"0.005": 8.6933031833,
			"0.006": 5.63226689218,
			"0.007": 5.48131953121,
			"0.008": 4.17418161079,
			"0.009": 3.6071116334,
			"0.01": 6.07785555824,
			"0.011": 12.0538111606,
			"0.012": 5.37266840509,
			"0.013": 0.301694549016,
			"0.014": 0.0,
			"0.015": 0.0,
			"0.016": 0.0,
			"0.017": 0.0,
			"0.018": 0.0,
			"0.019": 0.0,
			"0.02": 0.0,
			"0.021": 0.0,
			"0.022": 0.0,
			"0.023": 0.0,
			"0.024": 0.0,
			"0.025": 0.0
		}
	}
}
