{
	 "smiles": "CC(=O)C1CCC2C3CCC4=CC(=O)CCC4(C)C3CCC12C", 
	 "Tm": 403.15, 
	 "num_atms": 53, 
	 "gaussian": { 
		 "optdone": 1, 
		 "sigma_profile": "yes", 
		 "theory": "DFT", 
		 "functional": "B3LYP", 
		 "basiset": "6-31G**", 
		 "properties": { 
			 "R2extent": 8847.5277, 
			 "electric_dipole_moment_norm": 5.14791873382, 
			 "electric_quadrupole_moment_norm": 29.4514349443, 
			 "total_energy": -968.775748825, 
			 "HOMO_LUMO_gap": 0.18539, 
			 "cosmo_polarized_energy": -15.68, 
			 "cosmo_cavitation_energy": 45.95, 
			 "cosmo_dispersion_energy": -32.19, 
			 "cosmo_repulsion_energy": 2.37, 
			 "cosmo_total_nonelectrostatic_energy": 16.13, 
			 "SMD_solvation_energy": 7.7 
		},
		"coords": [
			{
				"x": -1.0369267135,
				"y": 3.8209293895,
				"z": 3.835557496,
				"element": "C" 
			},
			{
				"x": -0.1700329839,
				"y": 4.2356774766,
				"z": 2.6581508964,
				"element": "C" 
			},
			{
				"x": 0.8220097898,
				"y": 4.9227578027,
				"z": 2.8395287485,
				"element": "O" 
			},
			{
				"x": -0.5401876931,
				"y": 3.790678696,
				"z": 1.2414655641,
				"element": "C" 
			},
			{
				"x": -1.9888387918,
				"y": 3.3238373044,
				"z": 0.9900972154,
				"element": "C" 
			},
			{
				"x": -1.919888549,
				"y": 2.4197002349,
				"z": -0.2667168016,
				"element": "C" 
			},
			{
				"x": -0.4150754152,
				"y": 2.2536370177,
				"z": -0.6216122462,
				"element": "C" 
			},
			{
				"x": -0.0925669778,
				"y": 0.8742887834,
				"z": -1.2499023688,
				"element": "C" 
			},
			{
				"x": 1.1905830107,
				"y": 0.8797682459,
				"z": -2.0998516196,
				"element": "C" 
			},
			{
				"x": 1.3885175088,
				"y": -0.4666502811,
				"z": -2.808586272,
				"element": "C" 
			},
			{
				"x": 1.342492833,
				"y": -1.6441766962,
				"z": -1.8642646853,
				"element": "C" 
			},
			{
				"x": 2.2417321253,
				"y": -2.6451619478,
				"z": -1.9785817669,
				"element": "C" 
			},
			{
				"x": 2.1715097183,
				"y": -3.9162329937,
				"z": -1.2347844205,
				"element": "C" 
			},
			{
				"x": 3.0138646328,
				"y": -4.7928168354,
				"z": -1.3748279271,
				"element": "O" 
			},
			{
				"x": 0.9551309981,
				"y": -4.0945044834,
				"z": -0.3372904376,
				"element": "C" 
			},
			{
				"x": 0.4888234951,
				"y": -2.7495952584,
				"z": 0.2300850289,
				"element": "C" 
			},
			{
				"x": 0.1912509612,
				"y": -1.6852694148,
				"z": -0.856595329,
				"element": "C" 
			},
			{
				"x": -1.1016966474,
				"y": -2.0981673851,
				"z": -1.6167937504,
				"element": "C" 
			},
			{
				"x": -0.0594852955,
				"y": -0.2697976145,
				"z": -0.1979280791,
				"element": "C" 
			},
			{
				"x": 0.8847456031,
				"y": 0.119820823,
				"z": 0.9600092003,
				"element": "C" 
			},
			{
				"x": 0.4278033665,
				"y": 1.427262007,
				"z": 1.6300626882,
				"element": "C" 
			},
			{
				"x": 0.3715825585,
				"y": 2.6394059244,
				"z": 0.6707869865,
				"element": "C" 
			},
			{
				"x": 1.7877721278,
				"y": 3.1748376666,
				"z": 0.3997209677,
				"element": "C" 
			},
			{
				"x": -0.5772937888,
				"y": 4.1826713787,
				"z": 4.7562875781,
				"element": "H" 
			},
			{
				"x": -1.1535641579,
				"y": 2.7329448761,
				"z": 3.8836099776,
				"element": "H" 
			},
			{
				"x": -2.0434040121,
				"y": 4.2446630193,
				"z": 3.7402563488,
				"element": "H" 
			},
			{
				"x": -0.3342899153,
				"y": 4.6668209881,
				"z": 0.6131425607,
				"element": "H" 
			},
			{
				"x": -2.6645300667,
				"y": 4.1747212787,
				"z": 0.8576164397,
				"element": "H" 
			},
			{
				"x": -2.3732700714,
				"y": 2.7552295935,
				"z": 1.8418202726,
				"element": "H" 
			},
			{
				"x": -2.3885033087,
				"y": 1.4500609358,
				"z": -0.0685103739,
				"element": "H" 
			},
			{
				"x": -2.4634826578,
				"y": 2.8536215339,
				"z": -1.1118755999,
				"element": "H" 
			},
			{
				"x": -0.1712695381,
				"y": 3.0145841694,
				"z": -1.3758105162,
				"element": "H" 
			},
			{
				"x": -0.9176410608,
				"y": 0.668847817,
				"z": -1.9468546516,
				"element": "H" 
			},
			{
				"x": 1.135713415,
				"y": 1.6825206376,
				"z": -2.8448853381,
				"element": "H" 
			},
			{
				"x": 2.0699419511,
				"y": 1.0915277912,
				"z": -1.4845278401,
				"element": "H" 
			},
			{
				"x": 0.583418549,
				"y": -0.5914729386,
				"z": -3.5491292357,
				"element": "H" 
			},
			{
				"x": 2.3269415124,
				"y": -0.4800750501,
				"z": -3.3723908537,
				"element": "H" 
			},
			{
				"x": 3.052592982,
				"y": -2.5790490443,
				"z": -2.7010103604,
				"element": "H" 
			},
			{
				"x": 0.1689096135,
				"y": -4.5728115623,
				"z": -0.9368688586,
				"element": "H" 
			},
			{
				"x": 1.2127794298,
				"y": -4.8002724667,
				"z": 0.4576710827,
				"element": "H" 
			},
			{
				"x": 1.2884043813,
				"y": -2.3862090773,
				"z": 0.8808176587,
				"element": "H" 
			},
			{
				"x": -0.397112816,
				"y": -2.8824981999,
				"z": 0.8635522819,
				"element": "H" 
			},
			{
				"x": -1.3753680606,
				"y": -1.37966617,
				"z": -2.3927916307,
				"element": "H" 
			},
			{
				"x": -1.9421025097,
				"y": -2.1692843357,
				"z": -0.9175007032,
				"element": "H" 
			},
			{
				"x": -0.9831172986,
				"y": -3.0693002895,
				"z": -2.1046381987,
				"element": "H" 
			},
			{
				"x": -1.0631232554,
				"y": -0.3414816141,
				"z": 0.2470547801,
				"element": "H" 
			},
			{
				"x": 1.9206951301,
				"y": 0.2033951413,
				"z": 0.6095864757,
				"element": "H" 
			},
			{
				"x": 0.8882010204,
				"y": -0.6557599431,
				"z": 1.7298551645,
				"element": "H" 
			},
			{
				"x": -0.5667550562,
				"y": 1.2445957128,
				"z": 2.0588446478,
				"element": "H" 
			},
			{
				"x": 1.0893966658,
				"y": 1.6582351286,
				"z": 2.4743072585,
				"element": "H" 
			},
			{
				"x": 1.7771281378,
				"y": 3.9156832388,
				"z": -0.4075712086,
				"element": "H" 
			},
			{
				"x": 2.4840114088,
				"y": 2.3820662679,
				"z": 0.114665405,
				"element": "H" 
			},
			{
				"x": 2.1845737158,
				"y": 3.6679627211,
				"z": 1.290748349,
				"element": "H" 
			}
		],
		 "valence_orbital": [ 
			{
				"type": "occ",
				"energy": -0.29627,
				"method": "rhf"
			},
			{
				"type": "occ",
				"energy": -0.28977,
				"method": "rhf"
			},
			{
				"type": "occ",
				"energy": -0.25439,
				"method": "rhf"
			},
			{
				"type": "occ",
				"energy": -0.24028,
				"method": "rhf"
			},
			{
				"type": "occ",
				"energy": -0.23052,
				"method": "rhf"
			},
			{
				"type": "unocc",
				"energy": -0.04513,
				"method": "rhf"
			},
			{
				"type": "unocc",
				"energy": -0.01782,
				"method": "rhf"
			},
			{
				"type": "unocc",
				"energy": 0.05236,
				"method": "rhf"
			},
			{
				"type": "unocc",
				"energy": 0.06649,
				"method": "rhf"
			},
			{
				"type": "unocc",
				"energy": 0.0711,
				"method": "rhf"
			}
		],
		"cosmo_sigma_profile": { 
			"-0.025": 0.0,
			"-0.024": 0.0,
			"-0.023": 0.0,
			"-0.022": 0.0,
			"-0.021": 0.0,
			"-0.02": 0.0,
			"-0.019": 0.0,
			"-0.018": 0.0,
			"-0.017": 0.0,
			"-0.016": 0.0,
			"-0.015": 0.0,
			"-0.014": 0.0,
			"-0.013": 0.0,
			"-0.012": 0.0,
			"-0.011": 0.0,
			"-0.01": 0.0,
			"-0.009": 0.0,
			"-0.008": 0.0,
			"-0.007": 0.10758269337,
			"-0.006": 1.8846395994,
			"-0.005": 13.248904597,
			"-0.004": 26.3947593725,
			"-0.003": 53.0656641391,
			"-0.002": 62.9501969461,
			"-0.001": 62.1351495343,
			"0.0": 41.8781793493,
			"0.001": 25.2692665291,
			"0.002": 12.9493251695,
			"0.003": 6.71285989065,
			"0.004": 4.48377029161,
			"0.005": 3.36131491849,
			"0.006": 2.94974792855,
			"0.007": 3.91594972321,
			"0.008": 2.75927076615,
			"0.009": 2.7745459193,
			"0.01": 3.51717994451,
			"0.011": 4.96961041596,
			"0.012": 6.44175646998,
			"0.013": 7.7028952169,
			"0.014": 4.1401124306,
			"0.015": 0.57243603452,
			"0.016": 0.0,
			"0.017": 0.0,
			"0.018": 0.0,
			"0.019": 0.0,
			"0.02": 0.0,
			"0.021": 0.0,
			"0.022": 0.0,
			"0.023": 0.0,
			"0.024": 0.0,
			"0.025": 0.0
		}
	}
}
