{
	 "smiles": "CC1=C(CC(O)=O)N=NN1C1=CC=CC=C1", 
	 "Tm": 443.15, 
	 "num_atms": 27, 
	 "gaussian": { 
		 "optdone": 1, 
		 "sigma_profile": "yes", 
		 "theory": "DFT", 
		 "functional": "B3LYP", 
		 "basiset": "6-31G**", 
		 "properties": { 
			 "R2extent": 4674.9968, 
			 "electric_dipole_moment_norm": 3.92395077441, 
			 "electric_quadrupole_moment_norm": 16.4890165219, 
			 "total_energy": -740.487010444, 
			 "HOMO_LUMO_gap": 0.20813, 
			 "cosmo_polarized_energy": -17.25, 
			 "cosmo_cavitation_energy": 31.78, 
			 "cosmo_dispersion_energy": -22.68, 
			 "cosmo_repulsion_energy": 1.77, 
			 "cosmo_total_nonelectrostatic_energy": 10.87, 
			 "SMD_solvation_energy": 4.97 
		},
		"coords": [
			{
				"x": -1.1853376909,
				"y": 0.5826017633,
				"z": -0.9171607239,
				"element": "C" 
			},
			{
				"x": -0.267316279,
				"y": 0.2951145638,
				"z": 0.2252061732,
				"element": "C" 
			},
			{
				"x": -0.5337599733,
				"y": -0.0622759326,
				"z": 1.5344086636,
				"element": "C" 
			},
			{
				"x": -1.8398257379,
				"y": -0.2403038787,
				"z": 2.2385635386,
				"element": "C" 
			},
			{
				"x": -2.6881373019,
				"y": 1.0187646064,
				"z": 2.3086099408,
				"element": "C" 
			},
			{
				"x": -3.648666918,
				"y": 0.903173336,
				"z": 3.2550743094,
				"element": "O" 
			},
			{
				"x": -2.5777695236,
				"y": 1.9991921364,
				"z": 1.6060488214,
				"element": "O" 
			},
			{
				"x": 0.6462288869,
				"y": -0.2663425481,
				"z": 2.1886611582,
				"element": "N" 
			},
			{
				"x": 1.6360222953,
				"y": -0.0585442282,
				"z": 1.3743236864,
				"element": "N" 
			},
			{
				"x": 1.1007883235,
				"y": 0.2935026823,
				"z": 0.1669760894,
				"element": "N" 
			},
			{
				"x": 1.9741683693,
				"y": 0.5694903455,
				"z": -0.9236437334,
				"element": "C" 
			},
			{
				"x": 1.741692639,
				"y": 1.6627656949,
				"z": -1.763563246,
				"element": "C" 
			},
			{
				"x": 2.6159813049,
				"y": 1.9124916803,
				"z": -2.8219509937,
				"element": "C" 
			},
			{
				"x": 3.7250430913,
				"y": 1.0911692716,
				"z": -3.0292738609,
				"element": "C" 
			},
			{
				"x": 3.9603066064,
				"y": 0.0133986233,
				"z": -2.1719408461,
				"element": "C" 
			},
			{
				"x": 3.0858431109,
				"y": -0.2563295996,
				"z": -1.121341245,
				"element": "C" 
			},
			{
				"x": -2.1169908008,
				"y": 0.0248553671,
				"z": -0.7893641855,
				"element": "H" 
			},
			{
				"x": -0.7414140347,
				"y": 0.2949219266,
				"z": -1.8736810932,
				"element": "H" 
			},
			{
				"x": -1.4542597041,
				"y": 1.6426900688,
				"z": -0.9583580542,
				"element": "H" 
			},
			{
				"x": -2.4637286303,
				"y": -1.0055809805,
				"z": 1.7542532187,
				"element": "H" 
			},
			{
				"x": -1.6510861746,
				"y": -0.6008550104,
				"z": 3.2531030021,
				"element": "H" 
			},
			{
				"x": -4.164975137,
				"y": 1.7261244635,
				"z": 3.220330362,
				"element": "H" 
			},
			{
				"x": 0.9018466637,
				"y": 2.3227102971,
				"z": -1.5776380346,
				"element": "H" 
			},
			{
				"x": 2.4349030551,
				"y": 2.7610555873,
				"z": -3.4747892051,
				"element": "H" 
			},
			{
				"x": 4.4058197738,
				"y": 1.2928113868,
				"z": -3.8507479318,
				"element": "H" 
			},
			{
				"x": 4.8247600756,
				"y": -0.6257477499,
				"z": -2.324494303,
				"element": "H" 
			},
			{
				"x": 3.2519637104,
				"y": -1.087953873,
				"z": -0.4467115074,
				"element": "H" 
			}
		],
		 "valence_orbital": [ 
			{
				"type": "occ",
				"energy": -0.28223,
				"method": "rhf"
			},
			{
				"type": "occ",
				"energy": -0.26528,
				"method": "rhf"
			},
			{
				"type": "occ",
				"energy": -0.25987,
				"method": "rhf"
			},
			{
				"type": "occ",
				"energy": -0.25127,
				"method": "rhf"
			},
			{
				"type": "occ",
				"energy": -0.2381,
				"method": "rhf"
			},
			{
				"type": "unocc",
				"energy": -0.02997,
				"method": "rhf"
			},
			{
				"type": "unocc",
				"energy": -0.01519,
				"method": "rhf"
			},
			{
				"type": "unocc",
				"energy": 0.00466,
				"method": "rhf"
			},
			{
				"type": "unocc",
				"energy": 0.01984,
				"method": "rhf"
			},
			{
				"type": "unocc",
				"energy": 0.05073,
				"method": "rhf"
			}
		],
		"cosmo_sigma_profile": { 
			"-0.025": 0.0,
			"-0.024": 0.0,
			"-0.023": 0.0,
			"-0.022": 0.0,
			"-0.021": 0.0,
			"-0.02": 0.0,
			"-0.019": 0.0572420042482,
			"-0.018": 0.992746162216,
			"-0.017": 0.779790236556,
			"-0.016": 0.728312037777,
			"-0.015": 1.09890088682,
			"-0.014": 0.536855967923,
			"-0.013": 0.194282917358,
			"-0.012": 0.90210000199,
			"-0.011": 0.595875073479,
			"-0.01": 1.25234291879,
			"-0.009": 0.556438295707,
			"-0.008": 2.72945928144,
			"-0.007": 11.3686135077,
			"-0.006": 17.4170042218,
			"-0.005": 19.3056106704,
			"-0.004": 20.653977597,
			"-0.003": 17.1417704717,
			"-0.002": 19.7135186385,
			"-0.001": 16.6393635156,
			"0.0": 13.7632892774,
			"0.001": 13.7867054976,
			"0.002": 12.5040593732,
			"0.003": 14.8477251283,
			"0.004": 16.8563151002,
			"0.005": 6.36856480515,
			"0.006": 4.81716211363,
			"0.007": 4.93724918874,
			"0.008": 5.27833690378,
			"0.009": 5.41672267295,
			"0.01": 5.68770113044,
			"0.011": 6.79134675259,
			"0.012": 4.45767673166,
			"0.013": 2.66768724432,
			"0.014": 1.03632358239,
			"0.015": 1.06604120168,
			"0.016": 0.503518264046,
			"0.017": 0.0,
			"0.018": 0.0,
			"0.019": 0.0,
			"0.02": 0.0,
			"0.021": 0.0,
			"0.022": 0.0,
			"0.023": 0.0,
			"0.024": 0.0,
			"0.025": 0.0
		}
	}
}
