{
	 "smiles": "BrCC(=O)C(=O)CBr", 
	 "Tm": 390.65, 
	 "num_atms": 12, 
	 "gaussian": { 
		 "optdone": 1, 
		 "sigma_profile": "yes", 
		 "theory": "DFT", 
		 "functional": "B3LYP", 
		 "basiset": "6-31G**", 
		 "properties": { 
			 "R2extent": 3674.8445, 
			 "electric_dipole_moment_norm": 0.000412310562562, 
			 "electric_quadrupole_moment_norm": 9.41130059025, 
			 "total_energy": -5448.06595401, 
			 "HOMO_LUMO_gap": 0.14513, 
			 "cosmo_polarized_energy": -8.87, 
			 "cosmo_cavitation_energy": 21.86, 
			 "cosmo_dispersion_energy": -16.24, 
			 "cosmo_repulsion_energy": 1.38, 
			 "cosmo_total_nonelectrostatic_energy": 7.01, 
			 "SMD_solvation_energy": 2.9 
		},
		"coords": [
			{
				"x": 2.5785608884,
				"y": -2.4116928971,
				"z": 0.9620562878,
				"element": "Br" 
			},
			{
				"x": 0.8025007468,
				"y": -2.2027756173,
				"z": 0.1168099404,
				"element": "C" 
			},
			{
				"x": 0.5802492674,
				"y": -0.7227499977,
				"z": -0.1073860512,
				"element": "C" 
			},
			{
				"x": -0.036591033,
				"y": -0.0170772255,
				"z": 0.6616962697,
				"element": "O" 
			},
			{
				"x": 1.2088016775,
				"y": -0.126068632,
				"z": -1.388973985,
				"element": "C" 
			},
			{
				"x": 1.8254557064,
				"y": -0.8317854794,
				"z": -2.1581648358,
				"element": "O" 
			},
			{
				"x": 0.9862696933,
				"y": 1.3538884348,
				"z": -1.6133349096,
				"element": "C" 
			},
			{
				"x": -0.789968268,
				"y": 1.5623954762,
				"z": -2.4583124167,
				"element": "Br" 
			},
			{
				"x": 0.8441460022,
				"y": -2.7647781929,
				"z": -0.8132519598,
				"element": "H" 
			},
			{
				"x": 0.0707584178,
				"y": -2.5954345336,
				"z": 0.8185237755,
				"element": "H" 
			},
			{
				"x": 0.9446843591,
				"y": 1.9160064479,
				"z": -0.6833404936,
				"element": "H" 
			},
			{
				"x": 1.7178325421,
				"y": 1.7465722165,
				"z": -2.3152216217,
				"element": "H" 
			}
		],
		 "valence_orbital": [ 
			{
				"type": "occ",
				"energy": -0.30653,
				"method": "rhf"
			},
			{
				"type": "occ",
				"energy": -0.29719,
				"method": "rhf"
			},
			{
				"type": "occ",
				"energy": -0.2926,
				"method": "rhf"
			},
			{
				"type": "occ",
				"energy": -0.29241,
				"method": "rhf"
			},
			{
				"type": "occ",
				"energy": -0.26453,
				"method": "rhf"
			},
			{
				"type": "unocc",
				"energy": -0.1194,
				"method": "rhf"
			},
			{
				"type": "unocc",
				"energy": -0.05275,
				"method": "rhf"
			},
			{
				"type": "unocc",
				"energy": -0.0055,
				"method": "rhf"
			},
			{
				"type": "unocc",
				"energy": 0.04986,
				"method": "rhf"
			},
			{
				"type": "unocc",
				"energy": 0.10859,
				"method": "rhf"
			}
		],
		"cosmo_sigma_profile": { 
			"-0.025": 0.0,
			"-0.024": 0.0,
			"-0.023": 0.0,
			"-0.022": 0.0,
			"-0.021": 0.0,
			"-0.02": 0.0,
			"-0.019": 0.0,
			"-0.018": 0.0,
			"-0.017": 0.0,
			"-0.016": 0.0,
			"-0.015": 0.0,
			"-0.014": 0.0,
			"-0.013": 0.0,
			"-0.012": 0.0,
			"-0.011": 0.00356194629681,
			"-0.01": 1.81943092702,
			"-0.009": 9.06741957091,
			"-0.008": 9.49260500685,
			"-0.007": 9.83406941067,
			"-0.006": 7.76859697258,
			"-0.005": 6.56978626334,
			"-0.004": 7.6800100404,
			"-0.003": 8.63210221978,
			"-0.002": 7.68265944559,
			"-0.001": 8.99889725044,
			"0.0": 9.74529283447,
			"0.001": 10.2290345119,
			"0.002": 11.7050460686,
			"0.003": 15.5039123581,
			"0.004": 20.7892228385,
			"0.005": 14.4187479613,
			"0.006": 4.1994548967,
			"0.007": 3.78187734573,
			"0.008": 5.5169432157,
			"0.009": 6.09690345337,
			"0.01": 1.64670890201,
			"0.011": 0.00722261677093,
			"0.012": 0.0,
			"0.013": 0.0,
			"0.014": 0.0,
			"0.015": 0.0,
			"0.016": 0.0,
			"0.017": 0.0,
			"0.018": 0.0,
			"0.019": 0.0,
			"0.02": 0.0,
			"0.021": 0.0,
			"0.022": 0.0,
			"0.023": 0.0,
			"0.024": 0.0,
			"0.025": 0.0
		}
	}
}
