{
	 "smiles": "FC(F)(F)C1=CC=CC(=C1)C#N", 
	 "Tm": 288.35, 
	 "num_atms": 16, 
	 "gaussian": { 
		 "optdone": 1, 
		 "sigma_profile": "yes", 
		 "theory": "DFT", 
		 "functional": "B3LYP", 
		 "basiset": "6-31G**", 
		 "properties": { 
			 "R2extent": 2315.169, 
			 "electric_dipole_moment_norm": 3.75724944474, 
			 "electric_quadrupole_moment_norm": 12.2152709409, 
			 "total_energy": -661.522625578, 
			 "HOMO_LUMO_gap": 0.21346, 
			 "cosmo_polarized_energy": -8.62, 
			 "cosmo_cavitation_energy": 23.34, 
			 "cosmo_dispersion_energy": -16.03, 
			 "cosmo_repulsion_energy": 1.22, 
			 "cosmo_total_nonelectrostatic_energy": 8.53, 
			 "SMD_solvation_energy": 6.65 
		},
		"coords": [
			{
				"x": -1.5836726247,
				"y": 1.4438152221,
				"z": -2.7352975836,
				"element": "F" 
			},
			{
				"x": -1.9314838101,
				"y": 0.8827929892,
				"z": -1.5559353186,
				"element": "C" 
			},
			{
				"x": -2.8654031227,
				"y": 1.6835729724,
				"z": -0.9988795098,
				"element": "F" 
			},
			{
				"x": -2.5160332032,
				"y": -0.300688471,
				"z": -1.8331626463,
				"element": "F" 
			},
			{
				"x": -0.7349760164,
				"y": 0.7208953739,
				"z": -0.6527235662,
				"element": "C" 
			},
			{
				"x": -0.2909147963,
				"y": 1.8103518457,
				"z": 0.1034941028,
				"element": "C" 
			},
			{
				"x": 0.8440639531,
				"y": 1.6849917352,
				"z": 0.9038173314,
				"element": "C" 
			},
			{
				"x": 1.5380195468,
				"y": 0.4782838337,
				"z": 0.9536999088,
				"element": "C" 
			},
			{
				"x": 1.0892453508,
				"y": -0.6155024295,
				"z": 0.1950591443,
				"element": "C" 
			},
			{
				"x": -0.0524791225,
				"y": -0.4925939021,
				"z": -0.6118732126,
				"element": "C" 
			},
			{
				"x": 1.7964320538,
				"y": -1.862875171,
				"z": 0.2475513713,
				"element": "C" 
			},
			{
				"x": 2.3725133342,
				"y": -2.8720574831,
				"z": 0.2925413359,
				"element": "N" 
			},
			{
				"x": -0.8380886681,
				"y": 2.74633971,
				"z": 0.0697406376,
				"element": "H" 
			},
			{
				"x": 1.1869916848,
				"y": 2.5292106241,
				"z": 1.4930371366,
				"element": "H" 
			},
			{
				"x": 2.4207669244,
				"y": 0.3721210695,
				"z": 1.5750164795,
				"element": "H" 
			},
			{
				"x": -0.4018814838,
				"y": -1.3387579192,
				"z": -1.1914856109,
				"element": "H" 
			}
		],
		 "valence_orbital": [ 
			{
				"type": "occ",
				"energy": -0.36733,
				"method": "rhf"
			},
			{
				"type": "occ",
				"energy": -0.36063,
				"method": "rhf"
			},
			{
				"type": "occ",
				"energy": -0.34159,
				"method": "rhf"
			},
			{
				"type": "occ",
				"energy": -0.2952,
				"method": "rhf"
			},
			{
				"type": "occ",
				"energy": -0.28294,
				"method": "rhf"
			},
			{
				"type": "unocc",
				"energy": -0.06948,
				"method": "rhf"
			},
			{
				"type": "unocc",
				"energy": -0.04894,
				"method": "rhf"
			},
			{
				"type": "unocc",
				"energy": 0.02506,
				"method": "rhf"
			},
			{
				"type": "unocc",
				"energy": 0.0543,
				"method": "rhf"
			},
			{
				"type": "unocc",
				"energy": 0.06991,
				"method": "rhf"
			}
		],
		"cosmo_sigma_profile": { 
			"-0.025": 0.0,
			"-0.024": 0.0,
			"-0.023": 0.0,
			"-0.022": 0.0,
			"-0.021": 0.0,
			"-0.02": 0.0,
			"-0.019": 0.0,
			"-0.018": 0.0,
			"-0.017": 0.0,
			"-0.016": 0.0,
			"-0.015": 0.0,
			"-0.014": 0.0,
			"-0.013": 0.0,
			"-0.012": 0.0,
			"-0.011": 0.0,
			"-0.01": 0.0503522693553,
			"-0.009": 2.1482642468,
			"-0.008": 8.0598838815,
			"-0.007": 9.4325988165,
			"-0.006": 8.44747599374,
			"-0.005": 7.11166917932,
			"-0.004": 8.77788398037,
			"-0.003": 9.87341368125,
			"-0.002": 11.7975748153,
			"-0.001": 15.3466764129,
			"0.0": 21.8134722388,
			"0.001": 16.3819487498,
			"0.002": 24.5795974609,
			"0.003": 20.2850607414,
			"0.004": 1.83074960696,
			"0.005": 2.86323630334,
			"0.006": 2.44620320396,
			"0.007": 2.82448412677,
			"0.008": 3.46564089894,
			"0.009": 3.19956131114,
			"0.01": 3.04444697021,
			"0.011": 2.75073606449,
			"0.012": 2.21628629296,
			"0.013": 0.835669719325,
			"0.014": 0.0,
			"0.015": 0.0,
			"0.016": 0.0,
			"0.017": 0.0,
			"0.018": 0.0,
			"0.019": 0.0,
			"0.02": 0.0,
			"0.021": 0.0,
			"0.022": 0.0,
			"0.023": 0.0,
			"0.024": 0.0,
			"0.025": 0.0
		}
	}
}
