{
	 "smiles": "OCC1=CC=C(C=C1)N1C=NC=N1", 
	 "Tm": 397.15, 
	 "num_atms": 22, 
	 "gaussian": { 
		 "optdone": 1, 
		 "sigma_profile": "yes", 
		 "theory": "DFT", 
		 "functional": "B3LYP", 
		 "basiset": "6-31G**", 
		 "properties": { 
			 "R2extent": 3229.7638, 
			 "electric_dipole_moment_norm": 2.23564217173, 
			 "electric_quadrupole_moment_norm": 12.3007100543, 
			 "total_energy": -587.831425623, 
			 "HOMO_LUMO_gap": 0.20133, 
			 "cosmo_polarized_energy": -13.54, 
			 "cosmo_cavitation_energy": 26.5, 
			 "cosmo_dispersion_energy": -19.64, 
			 "cosmo_repulsion_energy": 1.53, 
			 "cosmo_total_nonelectrostatic_energy": 8.39, 
			 "SMD_solvation_energy": 2.77 
		},
		"coords": [
			{
				"x": 3.5857048656,
				"y": 1.4647170854,
				"z": 1.8486752793,
				"element": "O" 
			},
			{
				"x": 3.5155717959,
				"y": 0.4443252768,
				"z": 0.8642164905,
				"element": "C" 
			},
			{
				"x": 2.1004018019,
				"y": -0.0012700427,
				"z": 0.5466945394,
				"element": "C" 
			},
			{
				"x": 1.0298596308,
				"y": 0.8908849164,
				"z": 0.6751099955,
				"element": "C" 
			},
			{
				"x": -0.2708753115,
				"y": 0.4987053202,
				"z": 0.3670448038,
				"element": "C" 
			},
			{
				"x": -0.5096924993,
				"y": -0.7979885821,
				"z": -0.0993145417,
				"element": "C" 
			},
			{
				"x": 0.5460954448,
				"y": -1.7050768221,
				"z": -0.229291526,
				"element": "C" 
			},
			{
				"x": 1.8369915842,
				"y": -1.302656183,
				"z": 0.1025495644,
				"element": "C" 
			},
			{
				"x": -1.8271694439,
				"y": -1.205736467,
				"z": -0.4410652413,
				"element": "N" 
			},
			{
				"x": -2.897839943,
				"y": -0.4540425726,
				"z": -0.8150787322,
				"element": "C" 
			},
			{
				"x": -3.940138754,
				"y": -1.2226110196,
				"z": -1.0686276863,
				"element": "N" 
			},
			{
				"x": -3.446806498,
				"y": -2.4727752908,
				"z": -0.8356710999,
				"element": "C" 
			},
			{
				"x": -2.1796940376,
				"y": -2.5229317559,
				"z": -0.4586400761,
				"element": "N" 
			},
			{
				"x": 3.1974058694,
				"y": 1.113369217,
				"z": 2.6612709973,
				"element": "H" 
			},
			{
				"x": 4.1237792594,
				"y": -0.4311105796,
				"z": 1.1411870837,
				"element": "H" 
			},
			{
				"x": 3.979403378,
				"y": 0.8785632975,
				"z": -0.0298333005,
				"element": "H" 
			},
			{
				"x": 1.2232015605,
				"y": 1.8945072239,
				"z": 1.0398966365,
				"element": "H" 
			},
			{
				"x": -1.0923621792,
				"y": 1.1932173636,
				"z": 0.5089995542,
				"element": "H" 
			},
			{
				"x": 0.3381928983,
				"y": -2.7108222096,
				"z": -0.5736001849,
				"element": "H" 
			},
			{
				"x": 2.652681502,
				"y": -2.015821637,
				"z": 0.0106178453,
				"element": "H" 
			},
			{
				"x": -2.8621280677,
				"y": 0.6214955099,
				"z": -0.9068562566,
				"element": "H" 
			},
			{
				"x": -4.0382828565,
				"y": -3.3713420486,
				"z": -0.9450841445,
				"element": "H" 
			}
		],
		 "valence_orbital": [ 
			{
				"type": "occ",
				"energy": -0.2856,
				"method": "rhf"
			},
			{
				"type": "occ",
				"energy": -0.27973,
				"method": "rhf"
			},
			{
				"type": "occ",
				"energy": -0.27803,
				"method": "rhf"
			},
			{
				"type": "occ",
				"energy": -0.26722,
				"method": "rhf"
			},
			{
				"type": "occ",
				"energy": -0.23862,
				"method": "rhf"
			},
			{
				"type": "unocc",
				"energy": -0.03729,
				"method": "rhf"
			},
			{
				"type": "unocc",
				"energy": -0.01963,
				"method": "rhf"
			},
			{
				"type": "unocc",
				"energy": 0.02357,
				"method": "rhf"
			},
			{
				"type": "unocc",
				"energy": 0.05044,
				"method": "rhf"
			},
			{
				"type": "unocc",
				"energy": 0.07688,
				"method": "rhf"
			}
		],
		"cosmo_sigma_profile": { 
			"-0.025": 0.0,
			"-0.024": 0.0,
			"-0.023": 0.0,
			"-0.022": 0.0,
			"-0.021": 0.0,
			"-0.02": 0.0,
			"-0.019": 0.0,
			"-0.018": 0.0,
			"-0.017": 0.0,
			"-0.016": 0.320123191058,
			"-0.015": 1.04581611652,
			"-0.014": 0.876488432714,
			"-0.013": 0.695261637061,
			"-0.012": 0.852972848368,
			"-0.011": 2.8959624959,
			"-0.01": 2.54519170697,
			"-0.009": 4.06865147082,
			"-0.008": 5.37444279281,
			"-0.007": 5.56012297555,
			"-0.006": 10.9227112225,
			"-0.005": 14.2966039989,
			"-0.004": 14.9929674053,
			"-0.003": 13.4306073756,
			"-0.002": 13.9004686992,
			"-0.001": 12.492967263,
			"0.0": 13.7460703809,
			"0.001": 13.6031502178,
			"0.002": 13.2158284714,
			"0.003": 14.6350376129,
			"0.004": 13.8656442654,
			"0.005": 5.26162286917,
			"0.006": 4.06315457059,
			"0.007": 3.98707468725,
			"0.008": 4.20765322821,
			"0.009": 3.82706164224,
			"0.01": 2.58125826945,
			"0.011": 3.40179874937,
			"0.012": 3.26522744932,
			"0.013": 3.76344343971,
			"0.014": 2.30865076472,
			"0.015": 1.20639965692,
			"0.016": 0.877956369942,
			"0.017": 0.0849487433615,
			"0.018": 0.0,
			"0.019": 0.0,
			"0.02": 0.0,
			"0.021": 0.0,
			"0.022": 0.0,
			"0.023": 0.0,
			"0.024": 0.0,
			"0.025": 0.0
		}
	}
}
