{
	 "smiles": "CC1=CC(OC2CCCC2)=C(C=C1)C#N", 
	 "Tm": 340.15, 
	 "num_atms": 30, 
	 "gaussian": { 
		 "optdone": 1, 
		 "sigma_profile": "yes", 
		 "theory": "DFT", 
		 "functional": "B3LYP", 
		 "basiset": "6-31G**", 
		 "properties": { 
			 "R2extent": 4152.0629, 
			 "electric_dipole_moment_norm": 5.75329623955, 
			 "electric_quadrupole_moment_norm": 19.5209859136, 
			 "total_energy": -634.392409519, 
			 "HOMO_LUMO_gap": 0.18973, 
			 "cosmo_polarized_energy": -11.4, 
			 "cosmo_cavitation_energy": 33.0, 
			 "cosmo_dispersion_energy": -22.93, 
			 "cosmo_repulsion_energy": 1.83, 
			 "cosmo_total_nonelectrostatic_energy": 11.9, 
			 "SMD_solvation_energy": 6.51 
		},
		"coords": [
			{
				"x": 1.7781531747,
				"y": -0.4947553031,
				"z": 4.3310751636,
				"element": "C" 
			},
			{
				"x": 0.7050424714,
				"y": -0.9611146698,
				"z": 3.3764434203,
				"element": "C" 
			},
			{
				"x": 0.5332001432,
				"y": -0.3134817651,
				"z": 2.1454105882,
				"element": "C" 
			},
			{
				"x": -0.4733482173,
				"y": -0.7065834054,
				"z": 1.2561021217,
				"element": "C" 
			},
			{
				"x": -0.7020102353,
				"y": -0.1554294846,
				"z": 0.043354236,
				"element": "O" 
			},
			{
				"x": 0.1158158801,
				"y": 0.9346207428,
				"z": -0.4359327256,
				"element": "C" 
			},
			{
				"x": -0.2854978555,
				"y": 2.2757753394,
				"z": 0.2321882803,
				"element": "C" 
			},
			{
				"x": -1.2186160399,
				"y": 3.0012315852,
				"z": -0.7805169209,
				"element": "C" 
			},
			{
				"x": -1.5255209885,
				"y": 1.9578516289,
				"z": -1.8748849557,
				"element": "C" 
			},
			{
				"x": -0.2488180367,
				"y": 1.1042942404,
				"z": -1.9143706302,
				"element": "C" 
			},
			{
				"x": -1.3332617708,
				"y": -1.7737531899,
				"z": 1.6159542745,
				"element": "C" 
			},
			{
				"x": -1.1546743108,
				"y": -2.4181839297,
				"z": 2.8478939653,
				"element": "C" 
			},
			{
				"x": -0.1460422086,
				"y": -2.0198651042,
				"z": 3.7184438794,
				"element": "C" 
			},
			{
				"x": -2.3703631251,
				"y": -2.1919346904,
				"z": 0.7242331573,
				"element": "C" 
			},
			{
				"x": -3.224359338,
				"y": -2.5519317732,
				"z": 0.0202998147,
				"element": "N" 
			},
			{
				"x": 1.4092144766,
				"y": 0.3204695595,
				"z": 4.9660153687,
				"element": "H" 
			},
			{
				"x": 2.1010364808,
				"y": -1.3030108462,
				"z": 4.9931049303,
				"element": "H" 
			},
			{
				"x": 2.6561360231,
				"y": -0.1191271621,
				"z": 3.7971546619,
				"element": "H" 
			},
			{
				"x": 1.1927691289,
				"y": 0.5068874649,
				"z": 1.888239245,
				"element": "H" 
			},
			{
				"x": 1.1691311345,
				"y": 0.671057641,
				"z": -0.2880987403,
				"element": "H" 
			},
			{
				"x": -0.7840063011,
				"y": 2.0822258251,
				"z": 1.18563287,
				"element": "H" 
			},
			{
				"x": 0.6042982937,
				"y": 2.8742794713,
				"z": 0.4546482857,
				"element": "H" 
			},
			{
				"x": -0.6958888854,
				"y": 3.8585413325,
				"z": -1.21965733,
				"element": "H" 
			},
			{
				"x": -2.1237162431,
				"y": 3.3895942965,
				"z": -0.3052922284,
				"element": "H" 
			},
			{
				"x": -2.3718006337,
				"y": 1.3291764896,
				"z": -1.5786015438,
				"element": "H" 
			},
			{
				"x": -1.7691948788,
				"y": 2.411627075,
				"z": -2.8399653727,
				"element": "H" 
			},
			{
				"x": -0.3645953295,
				"y": 0.1385953311,
				"z": -2.4128263294,
				"element": "H" 
			},
			{
				"x": 0.5606201033,
				"y": 1.65220026,
				"z": -2.4132187792,
				"element": "H" 
			},
			{
				"x": -1.8159346334,
				"y": -3.2380545634,
				"z": 3.1085476196,
				"element": "H" 
			},
			{
				"x": -0.0193682791,
				"y": -2.531002396,
				"z": 4.6679236737,
				"element": "H" 
			}
		],
		 "valence_orbital": [ 
			{
				"type": "occ",
				"energy": -0.32545,
				"method": "rhf"
			},
			{
				"type": "occ",
				"energy": -0.31615,
				"method": "rhf"
			},
			{
				"type": "occ",
				"energy": -0.31376,
				"method": "rhf"
			},
			{
				"type": "occ",
				"energy": -0.25567,
				"method": "rhf"
			},
			{
				"type": "occ",
				"energy": -0.22925,
				"method": "rhf"
			},
			{
				"type": "unocc",
				"energy": -0.03952,
				"method": "rhf"
			},
			{
				"type": "unocc",
				"energy": -0.00412,
				"method": "rhf"
			},
			{
				"type": "unocc",
				"energy": 0.04883,
				"method": "rhf"
			},
			{
				"type": "unocc",
				"energy": 0.07183,
				"method": "rhf"
			},
			{
				"type": "unocc",
				"energy": 0.08189,
				"method": "rhf"
			}
		],
		"cosmo_sigma_profile": { 
			"-0.025": 0.0,
			"-0.024": 0.0,
			"-0.023": 0.0,
			"-0.022": 0.0,
			"-0.021": 0.0,
			"-0.02": 0.0,
			"-0.019": 0.0,
			"-0.018": 0.0,
			"-0.017": 0.0,
			"-0.016": 0.0,
			"-0.015": 0.0,
			"-0.014": 0.0,
			"-0.013": 0.0,
			"-0.012": 0.0,
			"-0.011": 0.0,
			"-0.01": 0.0,
			"-0.009": 0.0,
			"-0.008": 0.576380277736,
			"-0.007": 3.71765603528,
			"-0.006": 7.41741655193,
			"-0.005": 14.0891814585,
			"-0.004": 21.6659966186,
			"-0.003": 26.1392827557,
			"-0.002": 30.4399867314,
			"-0.001": 34.8357184325,
			"0.0": 30.7818817996,
			"0.001": 24.8548366084,
			"0.002": 12.9367646804,
			"0.003": 12.7576215583,
			"0.004": 8.22317673682,
			"0.005": 3.2835526459,
			"0.006": 3.93868212881,
			"0.007": 3.94718167865,
			"0.008": 4.7668164158,
			"0.009": 4.0991485471,
			"0.01": 3.60500840452,
			"0.011": 3.09792579435,
			"0.012": 2.82396136995,
			"0.013": 2.13372809077,
			"0.014": 0.73719390198,
			"0.015": 0.0,
			"0.016": 0.0,
			"0.017": 0.0,
			"0.018": 0.0,
			"0.019": 0.0,
			"0.02": 0.0,
			"0.021": 0.0,
			"0.022": 0.0,
			"0.023": 0.0,
			"0.024": 0.0,
			"0.025": 0.0
		}
	}
}
