{
	 "smiles": "COC(=O)C1=CC=C(OCC2=CC=CC=C2)C=C1", 
	 "Tm": 371.15, 
	 "num_atms": 32, 
	 "gaussian": { 
		 "optdone": 1, 
		 "sigma_profile": "yes", 
		 "theory": "DFT", 
		 "functional": "B3LYP", 
		 "basiset": "6-31G**", 
		 "properties": { 
			 "R2extent": 6920.5783, 
			 "electric_dipole_moment_norm": 3.50925408314, 
			 "electric_quadrupole_moment_norm": 8.71398970449, 
			 "total_energy": -805.710697496, 
			 "HOMO_LUMO_gap": 0.19524, 
			 "cosmo_polarized_energy": -10.9, 
			 "cosmo_cavitation_energy": 36.59, 
			 "cosmo_dispersion_energy": -26.09, 
			 "cosmo_repulsion_energy": 2.02, 
			 "cosmo_total_nonelectrostatic_energy": 12.52, 
			 "SMD_solvation_energy": 7.9 
		},
		"coords": [
			{
				"x": -5.2403877535,
				"y": 1.6188343628,
				"z": -0.5306638408,
				"element": "C" 
			},
			{
				"x": -3.8809542829,
				"y": 1.2008807136,
				"z": -0.347638355,
				"element": "O" 
			},
			{
				"x": -3.061159797,
				"y": 2.1335985515,
				"z": 0.1988177737,
				"element": "C" 
			},
			{
				"x": -3.4460458409,
				"y": 3.245329627,
				"z": 0.5109585313,
				"element": "O" 
			},
			{
				"x": -1.670970671,
				"y": 1.6431720096,
				"z": 0.3645285078,
				"element": "C" 
			},
			{
				"x": -0.7218130969,
				"y": 2.5173953036,
				"z": 0.9204142937,
				"element": "C" 
			},
			{
				"x": 0.5909942697,
				"y": 2.1128330853,
				"z": 1.0969961843,
				"element": "C" 
			},
			{
				"x": 0.9846297064,
				"y": 0.8179378408,
				"z": 0.7193065474,
				"element": "C" 
			},
			{
				"x": 2.3019099436,
				"y": 0.5276802943,
				"z": 0.9242902936,
				"element": "O" 
			},
			{
				"x": 2.832897942,
				"y": -0.7109277371,
				"z": 0.4511334147,
				"element": "C" 
			},
			{
				"x": 2.5067131528,
				"y": -1.9037595276,
				"z": 1.3289283563,
				"element": "C" 
			},
			{
				"x": 2.4083252666,
				"y": -3.1809138689,
				"z": 0.764649468,
				"element": "C" 
			},
			{
				"x": 2.1702495084,
				"y": -4.2960643509,
				"z": 1.5699161039,
				"element": "C" 
			},
			{
				"x": 2.0189677379,
				"y": -4.1421637277,
				"z": 2.9488691163,
				"element": "C" 
			},
			{
				"x": 2.1103198718,
				"y": -2.869432306,
				"z": 3.5168658055,
				"element": "C" 
			},
			{
				"x": 2.3571768862,
				"y": -1.7565633776,
				"z": 2.7127941516,
				"element": "C" 
			},
			{
				"x": 0.0455506369,
				"y": -0.0666538269,
				"z": 0.1705886019,
				"element": "C" 
			},
			{
				"x": -1.2720417276,
				"y": 0.3530973186,
				"z": -0.0041443293,
				"element": "C" 
			},
			{
				"x": -5.7548831127,
				"y": 0.7647043178,
				"z": -0.9716268643,
				"element": "H" 
			},
			{
				"x": -5.6949781928,
				"y": 1.8875948717,
				"z": 0.4264531048,
				"element": "H" 
			},
			{
				"x": -5.2931291448,
				"y": 2.4837763458,
				"z": -1.1970428604,
				"element": "H" 
			},
			{
				"x": -1.0397381691,
				"y": 3.5149766245,
				"z": 1.2040439157,
				"element": "H" 
			},
			{
				"x": 1.3370919673,
				"y": 2.7781407421,
				"z": 1.5187073293,
				"element": "H" 
			},
			{
				"x": 2.5149846041,
				"y": -0.8920988557,
				"z": -0.5837622999,
				"element": "H" 
			},
			{
				"x": 3.9149897702,
				"y": -0.5412997301,
				"z": 0.4356494425,
				"element": "H" 
			},
			{
				"x": 2.5177336019,
				"y": -3.3053339979,
				"z": -0.3106670855,
				"element": "H" 
			},
			{
				"x": 2.0946754068,
				"y": -5.2814990153,
				"z": 1.1190933138,
				"element": "H" 
			},
			{
				"x": 1.8271238672,
				"y": -5.007549462,
				"z": 3.5765395068,
				"element": "H" 
			},
			{
				"x": 1.9896757809,
				"y": -2.7426991345,
				"z": 4.589002752,
				"element": "H" 
			},
			{
				"x": 2.425553826,
				"y": -0.7662405186,
				"z": 3.1521009061,
				"element": "H" 
			},
			{
				"x": 0.3230473616,
				"y": -1.0785290822,
				"z": -0.0966407145,
				"element": "H" 
			},
			{
				"x": -2.0005093191,
				"y": -0.33022349,
				"z": -0.4254610713,
				"element": "H" 
			}
		],
		 "valence_orbital": [ 
			{
				"type": "occ",
				"energy": -0.26514,
				"method": "rhf"
			},
			{
				"type": "occ",
				"energy": -0.25786,
				"method": "rhf"
			},
			{
				"type": "occ",
				"energy": -0.25652,
				"method": "rhf"
			},
			{
				"type": "occ",
				"energy": -0.24976,
				"method": "rhf"
			},
			{
				"type": "occ",
				"energy": -0.22735,
				"method": "rhf"
			},
			{
				"type": "unocc",
				"energy": -0.03211,
				"method": "rhf"
			},
			{
				"type": "unocc",
				"energy": -0.01264,
				"method": "rhf"
			},
			{
				"type": "unocc",
				"energy": -0.00933,
				"method": "rhf"
			},
			{
				"type": "unocc",
				"energy": -0.00196,
				"method": "rhf"
			},
			{
				"type": "unocc",
				"energy": 0.06998,
				"method": "rhf"
			}
		],
		"cosmo_sigma_profile": { 
			"-0.025": 0.0,
			"-0.024": 0.0,
			"-0.023": 0.0,
			"-0.022": 0.0,
			"-0.021": 0.0,
			"-0.02": 0.0,
			"-0.019": 0.0,
			"-0.018": 0.0,
			"-0.017": 0.0,
			"-0.016": 0.0,
			"-0.015": 0.0,
			"-0.014": 0.0,
			"-0.013": 0.0,
			"-0.012": 0.0,
			"-0.011": 0.0,
			"-0.01": 0.0,
			"-0.009": 0.0,
			"-0.008": 0.00388669327451,
			"-0.007": 4.36725679578,
			"-0.006": 18.9446328542,
			"-0.005": 27.619127531,
			"-0.004": 27.9305206093,
			"-0.003": 26.4571365179,
			"-0.002": 19.8424029058,
			"-0.001": 17.9667890863,
			"0.0": 18.0557525135,
			"0.001": 18.9751220987,
			"0.002": 24.7589689249,
			"0.003": 25.3148810475,
			"0.004": 21.6255684774,
			"0.005": 12.3527360319,
			"0.006": 10.189882744,
			"0.007": 2.71248099167,
			"0.008": 2.22997599266,
			"0.009": 2.41772354981,
			"0.01": 2.39896653698,
			"0.011": 2.22782718796,
			"0.012": 4.66612952439,
			"0.013": 1.12716804999,
			"0.014": 0.0,
			"0.015": 0.0,
			"0.016": 0.0,
			"0.017": 0.0,
			"0.018": 0.0,
			"0.019": 0.0,
			"0.02": 0.0,
			"0.021": 0.0,
			"0.022": 0.0,
			"0.023": 0.0,
			"0.024": 0.0,
			"0.025": 0.0
		}
	}
}
