{
	 "smiles": "SC1=NN=NN1C1=CC=CC=C1", 
	 "Tm": 419.15, 
	 "num_atms": 18, 
	 "gaussian": { 
		 "optdone": 1, 
		 "sigma_profile": "yes", 
		 "theory": "DFT", 
		 "functional": "B3LYP", 
		 "basiset": "6-31G**", 
		 "properties": { 
			 "R2extent": 3107.5678, 
			 "electric_dipole_moment_norm": 5.17918088794, 
			 "electric_quadrupole_moment_norm": 16.4694160276, 
			 "total_energy": -887.487067661, 
			 "HOMO_LUMO_gap": 0.21137, 
			 "cosmo_polarized_energy": -12.38, 
			 "cosmo_cavitation_energy": 24.58, 
			 "cosmo_dispersion_energy": -18.62, 
			 "cosmo_repulsion_energy": 1.43, 
			 "cosmo_total_nonelectrostatic_energy": 7.38, 
			 "SMD_solvation_energy": 2.14 
		},
		"coords": [
			{
				"x": -0.0642855291,
				"y": 3.6779164917,
				"z": -0.2302018801,
				"element": "S" 
			},
			{
				"x": 1.0752085808,
				"y": 2.8535983477,
				"z": 0.825897405,
				"element": "C" 
			},
			{
				"x": 1.7911148964,
				"y": 3.4229670666,
				"z": 1.7802337999,
				"element": "N" 
			},
			{
				"x": 2.5627827154,
				"y": 2.4320287456,
				"z": 2.3016172554,
				"element": "N" 
			},
			{
				"x": 2.3483048309,
				"y": 1.3053378513,
				"z": 1.7194438769,
				"element": "N" 
			},
			{
				"x": 1.3932537321,
				"y": 1.5353548678,
				"z": 0.7631449652,
				"element": "N" 
			},
			{
				"x": 0.9464968609,
				"y": 0.4886516234,
				"z": -0.0960777886,
				"element": "C" 
			},
			{
				"x": -0.4121036727,
				"y": 0.3541369118,
				"z": -0.3931470626,
				"element": "C" 
			},
			{
				"x": -0.8233906505,
				"y": -0.673324513,
				"z": -1.2428508802,
				"element": "C" 
			},
			{
				"x": 0.1090621778,
				"y": -1.5678290933,
				"z": -1.7697569357,
				"element": "C" 
			},
			{
				"x": 1.4621035003,
				"y": -1.4342010889,
				"z": -1.4477227966,
				"element": "C" 
			},
			{
				"x": 1.8901069779,
				"y": -0.4027785683,
				"z": -0.6147152083,
				"element": "C" 
			},
			{
				"x": 0.2309128534,
				"y": 4.8831038057,
				"z": 0.2944379663,
				"element": "H" 
			},
			{
				"x": -1.1394453532,
				"y": 1.0272282584,
				"z": 0.0481245851,
				"element": "H" 
			},
			{
				"x": -1.8775738341,
				"y": -0.7799249892,
				"z": -1.478831958,
				"element": "H" 
			},
			{
				"x": -0.2171689814,
				"y": -2.3693219146,
				"z": -2.4253013908,
				"element": "H" 
			},
			{
				"x": 2.1903288853,
				"y": -2.1306357254,
				"z": -1.8516507388,
				"element": "H" 
			},
			{
				"x": 2.9358920096,
				"y": -0.2812080773,
				"z": -0.3574432142,
				"element": "H" 
			}
		],
		 "valence_orbital": [ 
			{
				"type": "occ",
				"energy": -0.29904,
				"method": "rhf"
			},
			{
				"type": "occ",
				"energy": -0.29171,
				"method": "rhf"
			},
			{
				"type": "occ",
				"energy": -0.27676,
				"method": "rhf"
			},
			{
				"type": "occ",
				"energy": -0.26836,
				"method": "rhf"
			},
			{
				"type": "occ",
				"energy": -0.25751,
				"method": "rhf"
			},
			{
				"type": "unocc",
				"energy": -0.04614,
				"method": "rhf"
			},
			{
				"type": "unocc",
				"energy": -0.03113,
				"method": "rhf"
			},
			{
				"type": "unocc",
				"energy": -0.00221,
				"method": "rhf"
			},
			{
				"type": "unocc",
				"energy": 0.00062,
				"method": "rhf"
			},
			{
				"type": "unocc",
				"energy": 0.02064,
				"method": "rhf"
			}
		],
		"cosmo_sigma_profile": { 
			"-0.025": 0.0,
			"-0.024": 0.0,
			"-0.023": 0.0,
			"-0.022": 0.0,
			"-0.021": 0.0,
			"-0.02": 0.0,
			"-0.019": 0.0,
			"-0.018": 0.0,
			"-0.017": 0.0,
			"-0.016": 0.0,
			"-0.015": 0.0,
			"-0.014": 0.0964091960202,
			"-0.013": 1.54252261812,
			"-0.012": 1.17142520327,
			"-0.011": 1.49812349095,
			"-0.01": 1.1500181034,
			"-0.009": 1.36855329162,
			"-0.008": 2.50734087963,
			"-0.007": 9.26615761078,
			"-0.006": 12.538630264,
			"-0.005": 16.2189777609,
			"-0.004": 14.68150354,
			"-0.003": 10.3908540144,
			"-0.002": 11.6825354435,
			"-0.001": 12.2863675932,
			"0.0": 15.1795272172,
			"0.001": 13.7261941015,
			"0.002": 14.1950018854,
			"0.003": 17.1320030902,
			"0.004": 8.59271261797,
			"0.005": 4.42895615082,
			"0.006": 3.872909648,
			"0.007": 4.56950784405,
			"0.008": 4.33989523599,
			"0.009": 4.67670645692,
			"0.01": 4.75482971847,
			"0.011": 3.97579569265,
			"0.012": 2.1141582787,
			"0.013": 2.1607821788,
			"0.014": 0.830507248013,
			"0.015": 0.0542972945321,
			"0.016": 0.0,
			"0.017": 0.0,
			"0.018": 0.0,
			"0.019": 0.0,
			"0.02": 0.0,
			"0.021": 0.0,
			"0.022": 0.0,
			"0.023": 0.0,
			"0.024": 0.0,
			"0.025": 0.0
		}
	}
}
