{
	 "smiles": "COCCOC1=CC=CC=C1S(=O)(=O)NC(=O)NC1=NC(OC)=NC(OC)=N1", 
	 "Tm": 403.15, 
	 "num_atms": 47, 
	 "gaussian": { 
		 "optdone": 1, 
		 "sigma_profile": "yes", 
		 "theory": "DFT", 
		 "functional": "B3LYP", 
		 "basiset": "6-31G**", 
		 "properties": { 
			 "R2extent": 15548.1245, 
			 "electric_dipole_moment_norm": 7.21319865871, 
			 "electric_quadrupole_moment_norm": 25.3329254519, 
			 "total_energy": -1781.48040429, 
			 "HOMO_LUMO_gap": 0.19422, 
			 "cosmo_polarized_energy": -31.99, 
			 "cosmo_cavitation_energy": 53.44, 
			 "cosmo_dispersion_energy": -37.21, 
			 "cosmo_repulsion_energy": 2.81, 
			 "cosmo_total_nonelectrostatic_energy": 19.04, 
			 "SMD_solvation_energy": 8.34 
		},
		"coords": [
			{
				"x": 4.6666552163,
				"y": 1.2310702735,
				"z": -0.7741387479,
				"element": "C" 
			},
			{
				"x": 4.5815199705,
				"y": -0.1539274815,
				"z": -0.4584834704,
				"element": "O" 
			},
			{
				"x": 3.288018639,
				"y": -0.6024525939,
				"z": -0.1122243106,
				"element": "C" 
			},
			{
				"x": 2.958822951,
				"y": -0.4579587869,
				"z": 1.36761781,
				"element": "C" 
			},
			{
				"x": 2.6976770868,
				"y": 0.9238622399,
				"z": 1.6479838933,
				"element": "O" 
			},
			{
				"x": 2.1377223427,
				"y": 1.266808224,
				"z": 2.8186998907,
				"element": "C" 
			},
			{
				"x": 2.1620492499,
				"y": 0.4462567151,
				"z": 3.9598617773,
				"element": "C" 
			},
			{
				"x": 1.6076258997,
				"y": 0.8800055997,
				"z": 5.1608196107,
				"element": "C" 
			},
			{
				"x": 1.0148367216,
				"y": 2.139557711,
				"z": 5.265954952,
				"element": "C" 
			},
			{
				"x": 0.9666485414,
				"y": 2.9596775181,
				"z": 4.1434556573,
				"element": "C" 
			},
			{
				"x": 1.5086531915,
				"y": 2.5300494307,
				"z": 2.9269850679,
				"element": "C" 
			},
			{
				"x": 1.3236697489,
				"y": 3.6544667551,
				"z": 1.5470766881,
				"element": "S" 
			},
			{
				"x": 0.9974948199,
				"y": 4.9782026734,
				"z": 2.0861657206,
				"element": "O" 
			},
			{
				"x": 2.3882884506,
				"y": 3.4798167221,
				"z": 0.5714571779,
				"element": "O" 
			},
			{
				"x": -0.1769268299,
				"y": 3.2358446742,
				"z": 0.8144911656,
				"element": "N" 
			},
			{
				"x": -0.4954727403,
				"y": 2.0263744024,
				"z": 0.1923684956,
				"element": "C" 
			},
			{
				"x": 0.1640690217,
				"y": 1.0180702446,
				"z": 0.2953200143,
				"element": "O" 
			},
			{
				"x": -1.6733167638,
				"y": 2.1611596162,
				"z": -0.5580748896,
				"element": "N" 
			},
			{
				"x": -2.4342062503,
				"y": 1.1615466083,
				"z": -1.144195628,
				"element": "C" 
			},
			{
				"x": -3.3372378412,
				"y": 1.6327156454,
				"z": -2.0202421064,
				"element": "N" 
			},
			{
				"x": -4.0901403568,
				"y": 0.6796951226,
				"z": -2.5674579569,
				"element": "C" 
			},
			{
				"x": -4.9985824927,
				"y": 1.1216601806,
				"z": -3.4378717143,
				"element": "O" 
			},
			{
				"x": -5.8422185379,
				"y": 0.1522654904,
				"z": -4.0739795089,
				"element": "C" 
			},
			{
				"x": -4.0061275203,
				"y": -0.6337849517,
				"z": -2.3229021752,
				"element": "N" 
			},
			{
				"x": -3.0660227592,
				"y": -0.9524277019,
				"z": -1.4248562889,
				"element": "C" 
			},
			{
				"x": -2.8955113473,
				"y": -2.2322023758,
				"z": -1.0948267115,
				"element": "O" 
			},
			{
				"x": -3.7353071162,
				"y": -3.2052646615,
				"z": -1.7293707203,
				"element": "C" 
			},
			{
				"x": -2.2493106046,
				"y": -0.1080068361,
				"z": -0.7904345932,
				"element": "N" 
			},
			{
				"x": 5.6944452378,
				"y": 1.4102726247,
				"z": -1.1010410431,
				"element": "H" 
			},
			{
				"x": 4.4340963527,
				"y": 1.8737655936,
				"z": 0.0804107982,
				"element": "H" 
			},
			{
				"x": 3.9822515686,
				"y": 1.4948820227,
				"z": -1.5940231336,
				"element": "H" 
			},
			{
				"x": 2.5065371298,
				"y": -0.1004085066,
				"z": -0.6991927862,
				"element": "H" 
			},
			{
				"x": 3.2578604956,
				"y": -1.6743322244,
				"z": -0.3455630966,
				"element": "H" 
			},
			{
				"x": 2.0669313965,
				"y": -1.0504224219,
				"z": 1.6074158773,
				"element": "H" 
			},
			{
				"x": 3.8067741219,
				"y": -0.8116098726,
				"z": 1.9682160396,
				"element": "H" 
			},
			{
				"x": 2.6325942096,
				"y": -0.5276460244,
				"z": 3.9062922656,
				"element": "H" 
			},
			{
				"x": 1.6495846936,
				"y": 0.2254167296,
				"z": 6.026755111,
				"element": "H" 
			},
			{
				"x": 0.5958670303,
				"y": 2.4788801134,
				"z": 6.2072124938,
				"element": "H" 
			},
			{
				"x": 0.5162119994,
				"y": 3.9444738186,
				"z": 4.1919558635,
				"element": "H" 
			},
			{
				"x": -0.8648903528,
				"y": 3.970073311,
				"z": 0.9317702229,
				"element": "H" 
			},
			{
				"x": -1.9396045208,
				"y": 3.0835574748,
				"z": -0.8771365163,
				"element": "H" 
			},
			{
				"x": -5.2507814307,
				"y": -0.5616786183,
				"z": -4.6527030293,
				"element": "H" 
			},
			{
				"x": -6.4913643276,
				"y": 0.729576979,
				"z": -4.7324379117,
				"element": "H" 
			},
			{
				"x": -6.4362413546,
				"y": -0.3938416901,
				"z": -3.3367813614,
				"element": "H" 
			},
			{
				"x": -3.4233314456,
				"y": -4.1636143547,
				"z": -1.3140625373,
				"element": "H" 
			},
			{
				"x": -4.78892678,
				"y": -3.0184167435,
				"z": -1.5064597298,
				"element": "H" 
			},
			{
				"x": -3.5947847142,
				"y": -3.1963086687,
				"z": -2.8132266261,
				"element": "H" 
			}
		],
		 "valence_orbital": [ 
			{
				"type": "occ",
				"energy": -0.27404,
				"method": "rhf"
			},
			{
				"type": "occ",
				"energy": -0.26827,
				"method": "rhf"
			},
			{
				"type": "occ",
				"energy": -0.26685,
				"method": "rhf"
			},
			{
				"type": "occ",
				"energy": -0.23762,
				"method": "rhf"
			},
			{
				"type": "occ",
				"energy": -0.23445,
				"method": "rhf"
			},
			{
				"type": "unocc",
				"energy": -0.04023,
				"method": "rhf"
			},
			{
				"type": "unocc",
				"energy": -0.03263,
				"method": "rhf"
			},
			{
				"type": "unocc",
				"energy": -0.01986,
				"method": "rhf"
			},
			{
				"type": "unocc",
				"energy": -0.00535,
				"method": "rhf"
			},
			{
				"type": "unocc",
				"energy": 0.03411,
				"method": "rhf"
			}
		],
		"cosmo_sigma_profile": { 
			"-0.025": 0.0,
			"-0.024": 0.0,
			"-0.023": 0.0,
			"-0.022": 0.0,
			"-0.021": 0.0,
			"-0.02": 0.211138926101,
			"-0.019": 0.992965713499,
			"-0.018": 1.49286446275,
			"-0.017": 1.30902150895,
			"-0.016": 1.88766455862,
			"-0.015": 1.48716533758,
			"-0.014": 1.27600034261,
			"-0.013": 0.919359004529,
			"-0.012": 1.25274332021,
			"-0.011": 1.02392486105,
			"-0.01": 1.83178473929,
			"-0.009": 1.03182469897,
			"-0.008": 2.80576227011,
			"-0.007": 11.044384323,
			"-0.006": 28.8870180311,
			"-0.005": 35.6244855944,
			"-0.004": 37.1263510619,
			"-0.003": 39.4013769368,
			"-0.002": 31.5845671451,
			"-0.001": 25.2748181874,
			"0.0": 22.140537079,
			"0.001": 21.423448236,
			"0.002": 23.1727668184,
			"0.003": 22.7148863687,
			"0.004": 16.4967145565,
			"0.005": 11.7269630867,
			"0.006": 10.8940603335,
			"0.007": 12.9216157173,
			"0.008": 10.7357239055,
			"0.009": 10.583911488,
			"0.01": 12.2773549577,
			"0.011": 10.2216025013,
			"0.012": 4.79328648701,
			"0.013": 4.18841562318,
			"0.014": 1.61247233202,
			"0.015": 1.17002611118,
			"0.016": 1.02975899601,
			"0.017": 0.746908414478,
			"0.018": 0.0737446567461,
			"0.019": 0.0,
			"0.02": 0.0,
			"0.021": 0.0,
			"0.022": 0.0,
			"0.023": 0.0,
			"0.024": 0.0,
			"0.025": 0.0
		}
	}
}
