{
	 "smiles": "OC(=O)C1=C(Cl)C=CN=C1", 
	 "Tm": 481.15, 
	 "num_atms": 14, 
	 "gaussian": { 
		 "optdone": 1, 
		 "sigma_profile": "yes", 
		 "theory": "DFT", 
		 "functional": "B3LYP", 
		 "basiset": "6-31G**", 
		 "properties": { 
			 "R2extent": 1771.1676, 
			 "electric_dipole_moment_norm": 0.842400510446, 
			 "electric_quadrupole_moment_norm": 11.793583098, 
			 "total_energy": -896.440896508, 
			 "HOMO_LUMO_gap": 0.19913, 
			 "cosmo_polarized_energy": -10.67, 
			 "cosmo_cavitation_energy": 20.72, 
			 "cosmo_dispersion_energy": -15.75, 
			 "cosmo_repulsion_energy": 1.27, 
			 "cosmo_total_nonelectrostatic_energy": 6.23, 
			 "SMD_solvation_energy": 3.24 
		},
		"coords": [
			{
				"x": -0.4332295894,
				"y": -2.316903372,
				"z": 2.6003145884,
				"element": "O" 
			},
			{
				"x": -0.3873585653,
				"y": -0.989068445,
				"z": 2.3162721536,
				"element": "C" 
			},
			{
				"x": -0.6831520807,
				"y": -0.1497061961,
				"z": 3.1379795601,
				"element": "O" 
			},
			{
				"x": 0.0582600511,
				"y": -0.7382558069,
				"z": 0.9147764659,
				"element": "C" 
			},
			{
				"x": 0.1992066629,
				"y": 0.5449656588,
				"z": 0.3539301354,
				"element": "C" 
			},
			{
				"x": -0.1265655368,
				"y": 2.0203520563,
				"z": 1.2198259061,
				"element": "Cl" 
			},
			{
				"x": 0.6234139038,
				"y": 0.6611347558,
				"z": -0.9699462968,
				"element": "C" 
			},
			{
				"x": 0.8929539212,
				"y": -0.4983839182,
				"z": -1.6913373676,
				"element": "C" 
			},
			{
				"x": 0.7696542743,
				"y": -1.7339193435,
				"z": -1.1895741101,
				"element": "N" 
			},
			{
				"x": 0.3636740739,
				"y": -1.8293000898,
				"z": 0.0759986206,
				"element": "C" 
			},
			{
				"x": -0.730763475,
				"y": -2.3747941346,
				"z": 3.5230408524,
				"element": "H" 
			},
			{
				"x": 0.7387636582,
				"y": 1.6392926192,
				"z": -1.4217991892,
				"element": "H" 
			},
			{
				"x": 1.2248455453,
				"y": -0.4268869527,
				"z": -2.725294871,
				"element": "H" 
			},
			{
				"x": 0.2656971566,
				"y": -2.8330268312,
				"z": 0.4767135522,
				"element": "H" 
			}
		],
		 "valence_orbital": [ 
			{
				"type": "occ",
				"energy": -0.33026,
				"method": "rhf"
			},
			{
				"type": "occ",
				"energy": -0.28835,
				"method": "rhf"
			},
			{
				"type": "occ",
				"energy": -0.28786,
				"method": "rhf"
			},
			{
				"type": "occ",
				"energy": -0.28372,
				"method": "rhf"
			},
			{
				"type": "occ",
				"energy": -0.26989,
				"method": "rhf"
			},
			{
				"type": "unocc",
				"energy": -0.07076,
				"method": "rhf"
			},
			{
				"type": "unocc",
				"energy": -0.04216,
				"method": "rhf"
			},
			{
				"type": "unocc",
				"energy": 0.01871,
				"method": "rhf"
			},
			{
				"type": "unocc",
				"energy": 0.03501,
				"method": "rhf"
			},
			{
				"type": "unocc",
				"energy": 0.07203,
				"method": "rhf"
			}
		],
		"cosmo_sigma_profile": { 
			"-0.025": 0.0,
			"-0.024": 0.0,
			"-0.023": 0.0,
			"-0.022": 0.0,
			"-0.021": 0.0,
			"-0.02": 0.0,
			"-0.019": 0.294063482708,
			"-0.018": 1.00747123629,
			"-0.017": 0.758945069218,
			"-0.016": 0.876233054734,
			"-0.015": 0.585680662506,
			"-0.014": 0.91512327822,
			"-0.013": 0.75590787406,
			"-0.012": 0.563265876226,
			"-0.011": 0.749071543147,
			"-0.01": 0.49069030649,
			"-0.009": 1.46795742584,
			"-0.008": 5.15483367946,
			"-0.007": 6.71182787307,
			"-0.006": 4.62680225233,
			"-0.005": 4.94425147295,
			"-0.004": 8.81711473286,
			"-0.003": 10.3013855752,
			"-0.002": 17.8160736351,
			"-0.001": 18.7229705227,
			"0.0": 14.6857001838,
			"0.001": 8.84764769398,
			"0.002": 9.03703493892,
			"0.003": 11.837273557,
			"0.004": 6.41553566755,
			"0.005": 4.16666172935,
			"0.006": 5.35602658276,
			"0.007": 3.82447542586,
			"0.008": 2.16524228565,
			"0.009": 2.5151636264,
			"0.01": 3.38281206855,
			"0.011": 6.68528049367,
			"0.012": 2.12824258205,
			"0.013": 0.796501215884,
			"0.014": 0.855264183285,
			"0.015": 0.739051805368,
			"0.016": 0.142826967787,
			"0.017": 0.0,
			"0.018": 0.0,
			"0.019": 0.0,
			"0.02": 0.0,
			"0.021": 0.0,
			"0.022": 0.0,
			"0.023": 0.0,
			"0.024": 0.0,
			"0.025": 0.0
		}
	}
}
