{
	 "smiles": "CC1(C)C(C=C(Cl)Cl)C1C(=O)OCC1=C(F)C(F)=CC(F)=C1F", 
	 "Tm": 305.15, 
	 "num_atms": 35, 
	 "gaussian": { 
		 "optdone": 1, 
		 "sigma_profile": "yes", 
		 "theory": "DFT", 
		 "functional": "B3LYP", 
		 "basiset": "6-31G**", 
		 "properties": { 
			 "R2extent": 12435.5212, 
			 "electric_dipole_moment_norm": 2.21793399586, 
			 "electric_quadrupole_moment_norm": 20.3604567007, 
			 "total_energy": -2048.94445299, 
			 "HOMO_LUMO_gap": 0.19828, 
			 "cosmo_polarized_energy": -9.98, 
			 "cosmo_cavitation_energy": 44.81, 
			 "cosmo_dispersion_energy": -29.33, 
			 "cosmo_repulsion_energy": 2.21, 
			 "cosmo_total_nonelectrostatic_energy": 17.69, 
			 "SMD_solvation_energy": 9.79 
		},
		"coords": [
			{
				"x": -0.6437430624,
				"y": -1.2058802412,
				"z": 0.863294743,
				"element": "C" 
			},
			{
				"x": -1.9470157714,
				"y": -1.8041487449,
				"z": 0.3588851016,
				"element": "C" 
			},
			{
				"x": -1.9374711951,
				"y": -3.3260773323,
				"z": 0.3572086151,
				"element": "C" 
			},
			{
				"x": -3.2787835612,
				"y": -1.1425206064,
				"z": 0.6613751584,
				"element": "C" 
			},
			{
				"x": -3.3996451951,
				"y": 0.0849803957,
				"z": 1.4699177571,
				"element": "C" 
			},
			{
				"x": -4.4004763417,
				"y": 0.3557981236,
				"z": 2.3141159481,
				"element": "C" 
			},
			{
				"x": -4.4430887734,
				"y": 1.8326050607,
				"z": 3.2475650884,
				"element": "Cl" 
			},
			{
				"x": -5.7663555691,
				"y": -0.6960299294,
				"z": 2.5965438322,
				"element": "Cl" 
			},
			{
				"x": -2.7325134034,
				"y": -1.1556243956,
				"z": -0.7828215845,
				"element": "C" 
			},
			{
				"x": -2.299698907,
				"y": 0.0266147026,
				"z": -1.5772395358,
				"element": "C" 
			},
			{
				"x": -2.3376410205,
				"y": 0.0555463483,
				"z": -2.7892044294,
				"element": "O" 
			},
			{
				"x": -1.8588495175,
				"y": 1.0774885275,
				"z": -0.8308250323,
				"element": "O" 
			},
			{
				"x": -1.4173077208,
				"y": 2.2383894897,
				"z": -1.5717038208,
				"element": "C" 
			},
			{
				"x": -0.0127602866,
				"y": 2.0729569047,
				"z": -2.0943135288,
				"element": "C" 
			},
			{
				"x": 0.2648989285,
				"y": 2.0444835291,
				"z": -3.4621993554,
				"element": "C" 
			},
			{
				"x": -0.7214583661,
				"y": 2.1946426783,
				"z": -4.3550670522,
				"element": "F" 
			},
			{
				"x": 1.5701612999,
				"y": 1.8790740737,
				"z": -3.9258340422,
				"element": "C" 
			},
			{
				"x": 1.7938490023,
				"y": 1.8606380389,
				"z": -5.2477189036,
				"element": "F" 
			},
			{
				"x": 2.6282843853,
				"y": 1.7353757898,
				"z": -3.0382449196,
				"element": "C" 
			},
			{
				"x": 2.363118324,
				"y": 1.7640284363,
				"z": -1.6738815501,
				"element": "C" 
			},
			{
				"x": 3.3622684543,
				"y": 1.6328213638,
				"z": -0.7881169795,
				"element": "F" 
			},
			{
				"x": 1.061628405,
				"y": 1.9346772296,
				"z": -1.212603777,
				"element": "C" 
			},
			{
				"x": 0.835605054,
				"y": 1.965879222,
				"z": 0.114211599,
				"element": "F" 
			},
			{
				"x": 0.1954933224,
				"y": -1.6008705638,
				"z": 0.2795176217,
				"element": "H" 
			},
			{
				"x": -0.4837184181,
				"y": -1.4977159473,
				"z": 1.907302659,
				"element": "H" 
			},
			{
				"x": -0.6050914068,
				"y": -0.1196204429,
				"z": 0.8007012228,
				"element": "H" 
			},
			{
				"x": -1.755270396,
				"y": -3.7084522212,
				"z": 1.3679374056,
				"element": "H" 
			},
			{
				"x": -1.1435636684,
				"y": -3.7080038538,
				"z": -0.2945782013,
				"element": "H" 
			},
			{
				"x": -2.8885055668,
				"y": -3.7394612101,
				"z": 0.0077451181,
				"element": "H" 
			},
			{
				"x": -4.1082073074,
				"y": -1.8309187767,
				"z": 0.7922296442,
				"element": "H" 
			},
			{
				"x": -2.6244955162,
				"y": 0.8361341845,
				"z": 1.3867178542,
				"element": "H" 
			},
			{
				"x": -3.2349289059,
				"y": -1.8541432646,
				"z": -1.4444138513,
				"element": "H" 
			},
			{
				"x": -1.46515549,
				"y": 3.0511432069,
				"z": -0.8453365595,
				"element": "H" 
			},
			{
				"x": -2.1025480052,
				"y": 2.4287542422,
				"z": -2.3968722599,
				"element": "H" 
			},
			{
				"x": 3.6404861964,
				"y": 1.6062359823,
				"z": -3.4017939851,
				"element": "H" 
			}
		],
		 "valence_orbital": [ 
			{
				"type": "occ",
				"energy": -0.29729,
				"method": "rhf"
			},
			{
				"type": "occ",
				"energy": -0.28541,
				"method": "rhf"
			},
			{
				"type": "occ",
				"energy": -0.27494,
				"method": "rhf"
			},
			{
				"type": "occ",
				"energy": -0.25337,
				"method": "rhf"
			},
			{
				"type": "occ",
				"energy": -0.24024,
				"method": "rhf"
			},
			{
				"type": "unocc",
				"energy": -0.04196,
				"method": "rhf"
			},
			{
				"type": "unocc",
				"energy": -0.02156,
				"method": "rhf"
			},
			{
				"type": "unocc",
				"energy": -0.01297,
				"method": "rhf"
			},
			{
				"type": "unocc",
				"energy": -0.00171,
				"method": "rhf"
			},
			{
				"type": "unocc",
				"energy": 0.00532,
				"method": "rhf"
			}
		],
		"cosmo_sigma_profile": { 
			"-0.025": 0.0,
			"-0.024": 0.0,
			"-0.023": 0.0,
			"-0.022": 0.0,
			"-0.021": 0.0,
			"-0.02": 0.0,
			"-0.019": 0.0,
			"-0.018": 0.0,
			"-0.017": 0.0,
			"-0.016": 0.0,
			"-0.015": 0.0,
			"-0.014": 0.0,
			"-0.013": 0.0,
			"-0.012": 0.0,
			"-0.011": 0.0422418050925,
			"-0.01": 1.11690534577,
			"-0.009": 1.8003659698,
			"-0.008": 2.7958995685,
			"-0.007": 7.03618750387,
			"-0.006": 10.0326079593,
			"-0.005": 11.7604134972,
			"-0.004": 18.0167448019,
			"-0.003": 28.4702344147,
			"-0.002": 42.260244383,
			"-0.001": 42.4056479836,
			"0.0": 41.8024835115,
			"0.001": 30.6203813935,
			"0.002": 30.555371253,
			"0.003": 52.7719128225,
			"0.004": 23.1104769648,
			"0.005": 2.71537894671,
			"0.006": 2.08304749232,
			"0.007": 0.924761342848,
			"0.008": 1.790734618,
			"0.009": 2.74786779034,
			"0.01": 2.38910598703,
			"0.011": 2.68753457128,
			"0.012": 2.25564819976,
			"0.013": 0.540986841566,
			"0.014": 0.0,
			"0.015": 0.0,
			"0.016": 0.0,
			"0.017": 0.0,
			"0.018": 0.0,
			"0.019": 0.0,
			"0.02": 0.0,
			"0.021": 0.0,
			"0.022": 0.0,
			"0.023": 0.0,
			"0.024": 0.0,
			"0.025": 0.0
		}
	}
}
