{
	 "smiles": "COC1=CC(C)=C2C(=O)C(=COC2=C1)C1=CC=CC=C1", 
	 "Tm": 391.15, 
	 "num_atms": 34, 
	 "gaussian": { 
		 "optdone": 1, 
		 "sigma_profile": "yes", 
		 "theory": "DFT", 
		 "functional": "B3LYP", 
		 "basiset": "6-31G**", 
		 "properties": { 
			 "R2extent": 7550.742, 
			 "electric_dipole_moment_norm": 3.08301697206, 
			 "electric_quadrupole_moment_norm": 22.1255344729, 
			 "total_energy": -881.908979819, 
			 "HOMO_LUMO_gap": 0.17062, 
			 "cosmo_polarized_energy": -11.98, 
			 "cosmo_cavitation_energy": 37.55, 
			 "cosmo_dispersion_energy": -27.63, 
			 "cosmo_repulsion_energy": 2.07, 
			 "cosmo_total_nonelectrostatic_energy": 11.98, 
			 "SMD_solvation_energy": 7.98 
		},
		"coords": [
			{
				"x": -4.8305324778,
				"y": 3.9008402656,
				"z": -0.390903858,
				"element": "C" 
			},
			{
				"x": -4.0840603296,
				"y": 3.0397477887,
				"z": 0.4594196024,
				"element": "O" 
			},
			{
				"x": -3.1028436692,
				"y": 2.2730582519,
				"z": -0.0833251093,
				"element": "C" 
			},
			{
				"x": -2.7649912732,
				"y": 2.2665542809,
				"z": -1.4485668101,
				"element": "C" 
			},
			{
				"x": -1.7440102245,
				"y": 1.4568718698,
				"z": -1.9446540553,
				"element": "C" 
			},
			{
				"x": -1.4456641201,
				"y": 1.5106703641,
				"z": -3.423869393,
				"element": "C" 
			},
			{
				"x": -1.0258192924,
				"y": 0.613080989,
				"z": -1.0514823304,
				"element": "C" 
			},
			{
				"x": 0.0731386976,
				"y": -0.2768403662,
				"z": -1.4853241078,
				"element": "C" 
			},
			{
				"x": 0.4790200261,
				"y": -0.3239824146,
				"z": -2.6489638106,
				"element": "O" 
			},
			{
				"x": 0.6619274054,
				"y": -1.1211805187,
				"z": -0.4170563552,
				"element": "C" 
			},
			{
				"x": 0.221614133,
				"y": -0.9673313232,
				"z": 0.8535328198,
				"element": "C" 
			},
			{
				"x": -0.7616041876,
				"y": -0.1289601612,
				"z": 1.2454714835,
				"element": "O" 
			},
			{
				"x": -1.3968990924,
				"y": 0.6457677287,
				"z": 0.3091012958,
				"element": "C" 
			},
			{
				"x": -2.4115800914,
				"y": 1.4543220559,
				"z": 0.8065968981,
				"element": "C" 
			},
			{
				"x": 1.7182298666,
				"y": -2.1208034667,
				"z": -0.7106525685,
				"element": "C" 
			},
			{
				"x": 1.7068613829,
				"y": -3.370314391,
				"z": -0.0664060878,
				"element": "C" 
			},
			{
				"x": 2.7179295553,
				"y": -4.3037263802,
				"z": -0.2913620235,
				"element": "C" 
			},
			{
				"x": 3.7548214511,
				"y": -4.0110737732,
				"z": -1.1781752517,
				"element": "C" 
			},
			{
				"x": 3.7675938625,
				"y": -2.7806476041,
				"z": -1.8385651926,
				"element": "C" 
			},
			{
				"x": 2.7610266214,
				"y": -1.8433722636,
				"z": -1.6120900051,
				"element": "C" 
			},
			{
				"x": -5.5480594407,
				"y": 4.4076360255,
				"z": 0.2556420854,
				"element": "H" 
			},
			{
				"x": -5.3724548274,
				"y": 3.3379746569,
				"z": -1.1606259802,
				"element": "H" 
			},
			{
				"x": -4.1885101311,
				"y": 4.6477634954,
				"z": -0.8734755811,
				"element": "H" 
			},
			{
				"x": -3.3011247514,
				"y": 2.9008168251,
				"z": -2.1440344518,
				"element": "H" 
			},
			{
				"x": -2.1277089061,
				"y": 2.2072937685,
				"z": -3.9199906458,
				"element": "H" 
			},
			{
				"x": -1.540965197,
				"y": 0.5254151539,
				"z": -3.886695442,
				"element": "H" 
			},
			{
				"x": -0.41544783,
				"y": 1.8228405089,
				"z": -3.611322471,
				"element": "H" 
			},
			{
				"x": 0.6306768018,
				"y": -1.5030453556,
				"z": 1.7023812555,
				"element": "H" 
			},
			{
				"x": -2.6576101884,
				"y": 1.4463150393,
				"z": 1.861324517,
				"element": "H" 
			},
			{
				"x": 0.8845357144,
				"y": -3.6215592346,
				"z": 0.597918382,
				"element": "H" 
			},
			{
				"x": 2.6864746546,
				"y": -5.2639567917,
				"z": 0.2158789621,
				"element": "H" 
			},
			{
				"x": 4.5401630882,
				"y": -4.7389887179,
				"z": -1.3610230785,
				"element": "H" 
			},
			{
				"x": 4.5670789418,
				"y": -2.5471260695,
				"z": -2.5361801984,
				"element": "H" 
			},
			{
				"x": 2.7699938277,
				"y": -0.8969602359,
				"z": -2.137122494,
				"element": "H" 
			}
		],
		 "valence_orbital": [ 
			{
				"type": "occ",
				"energy": -0.24941,
				"method": "rhf"
			},
			{
				"type": "occ",
				"energy": -0.24554,
				"method": "rhf"
			},
			{
				"type": "occ",
				"energy": -0.23348,
				"method": "rhf"
			},
			{
				"type": "occ",
				"energy": -0.23307,
				"method": "rhf"
			},
			{
				"type": "occ",
				"energy": -0.21754,
				"method": "rhf"
			},
			{
				"type": "unocc",
				"energy": -0.04692,
				"method": "rhf"
			},
			{
				"type": "unocc",
				"energy": -0.02457,
				"method": "rhf"
			},
			{
				"type": "unocc",
				"energy": 0.00129,
				"method": "rhf"
			},
			{
				"type": "unocc",
				"energy": 0.00584,
				"method": "rhf"
			},
			{
				"type": "unocc",
				"energy": 0.01972,
				"method": "rhf"
			}
		],
		"cosmo_sigma_profile": { 
			"-0.025": 0.0,
			"-0.024": 0.0,
			"-0.023": 0.0,
			"-0.022": 0.0,
			"-0.021": 0.0,
			"-0.02": 0.0,
			"-0.019": 0.0,
			"-0.018": 0.0,
			"-0.017": 0.0,
			"-0.016": 0.0,
			"-0.015": 0.0,
			"-0.014": 0.0,
			"-0.013": 0.0,
			"-0.012": 0.0,
			"-0.011": 0.0,
			"-0.01": 0.224394172232,
			"-0.009": 1.58562886678,
			"-0.008": 2.31304586694,
			"-0.007": 5.14862087519,
			"-0.006": 17.3125385849,
			"-0.005": 21.7708824182,
			"-0.004": 23.6937684666,
			"-0.003": 26.4098124592,
			"-0.002": 20.5160373453,
			"-0.001": 24.1116134172,
			"0.0": 26.5319765942,
			"0.001": 27.0066596756,
			"0.002": 24.9993395091,
			"0.003": 20.1987220214,
			"0.004": 14.4563413753,
			"0.005": 13.1697839456,
			"0.006": 11.2007126713,
			"0.007": 3.87960838329,
			"0.008": 3.19280438111,
			"0.009": 3.38519469325,
			"0.01": 2.38007619478,
			"0.011": 1.89359985751,
			"0.012": 2.15815949335,
			"0.013": 2.39461064061,
			"0.014": 0.661607712059,
			"0.015": 0.0,
			"0.016": 0.0,
			"0.017": 0.0,
			"0.018": 0.0,
			"0.019": 0.0,
			"0.02": 0.0,
			"0.021": 0.0,
			"0.022": 0.0,
			"0.023": 0.0,
			"0.024": 0.0,
			"0.025": 0.0
		}
	}
}
