{
	 "smiles": "CC1=C(C=C(C=C1)C(O)=O)S(=O)(=O)NC1=C(F)C=CC(Cl)=C1", 
	 "Tm": 455.15, 
	 "num_atms": 33, 
	 "gaussian": { 
		 "optdone": 1, 
		 "sigma_profile": "yes", 
		 "theory": "DFT", 
		 "functional": "B3LYP", 
		 "basiset": "6-31G**", 
		 "properties": { 
			 "R2extent": 8572.7127, 
			 "electric_dipole_moment_norm": 5.17533751267, 
			 "electric_quadrupole_moment_norm": 25.5822227635, 
			 "total_energy": -1853.92316044, 
			 "HOMO_LUMO_gap": 0.17841, 
			 "cosmo_polarized_energy": -22.1, 
			 "cosmo_cavitation_energy": 40.96, 
			 "cosmo_dispersion_energy": -28.47, 
			 "cosmo_repulsion_energy": 2.11, 
			 "cosmo_total_nonelectrostatic_energy": 14.61, 
			 "SMD_solvation_energy": 7.39 
		},
		"coords": [
			{
				"x": 1.7332827274,
				"y": 1.8408459139,
				"z": 1.9864781076,
				"element": "C" 
			},
			{
				"x": 0.7575052788,
				"y": 0.757078428,
				"z": 1.5982158448,
				"element": "C" 
			},
			{
				"x": -0.4220323646,
				"y": 0.9875996481,
				"z": 0.8605869437,
				"element": "C" 
			},
			{
				"x": -1.2863140354,
				"y": -0.0514897538,
				"z": 0.5097426746,
				"element": "C" 
			},
			{
				"x": -0.9991124097,
				"y": -1.365417856,
				"z": 0.8885519288,
				"element": "C" 
			},
			{
				"x": 0.1779281954,
				"y": -1.6178988772,
				"z": 1.6026167645,
				"element": "C" 
			},
			{
				"x": 1.0265916658,
				"y": -0.574098567,
				"z": 1.9522816447,
				"element": "C" 
			},
			{
				"x": -1.870841598,
				"y": -2.5368445278,
				"z": 0.5377286646,
				"element": "C" 
			},
			{
				"x": -3.1481853488,
				"y": -2.2718356951,
				"z": 0.167966645,
				"element": "O" 
			},
			{
				"x": -1.4730656656,
				"y": -3.6772692894,
				"z": 0.5755339556,
				"element": "O" 
			},
			{
				"x": -0.935775239,
				"y": 2.642846841,
				"z": 0.346882145,
				"element": "S" 
			},
			{
				"x": -0.8536547035,
				"y": 3.5574487494,
				"z": 1.4845052816,
				"element": "O" 
			},
			{
				"x": -2.1706006896,
				"y": 2.4802450125,
				"z": -0.4206813173,
				"element": "O" 
			},
			{
				"x": 0.2467979416,
				"y": 3.2162374175,
				"z": -0.7249501505,
				"element": "N" 
			},
			{
				"x": 0.6388120509,
				"y": 2.5368007022,
				"z": -1.899490815,
				"element": "C" 
			},
			{
				"x": 2.0055605401,
				"y": 2.3760020283,
				"z": -2.1556852225,
				"element": "C" 
			},
			{
				"x": 2.8803004888,
				"y": 2.8536740474,
				"z": -1.2309930299,
				"element": "F" 
			},
			{
				"x": 2.4803587625,
				"y": 1.7655772381,
				"z": -3.3033920094,
				"element": "C" 
			},
			{
				"x": 1.5670624158,
				"y": 1.2703425018,
				"z": -4.2353955295,
				"element": "C" 
			},
			{
				"x": 0.2020379145,
				"y": 1.4191435897,
				"z": -3.9882531052,
				"element": "C" 
			},
			{
				"x": -0.9518569485,
				"y": 0.8079215492,
				"z": -5.1599827012,
				"element": "Cl" 
			},
			{
				"x": -0.2760540483,
				"y": 2.057129199,
				"z": -2.8442819319,
				"element": "C" 
			},
			{
				"x": 2.3053534329,
				"y": 2.1777118304,
				"z": 1.1140268514,
				"element": "H" 
			},
			{
				"x": 2.4500503265,
				"y": 1.460379859,
				"z": 2.7173691314,
				"element": "H" 
			},
			{
				"x": 1.2237168062,
				"y": 2.7075092007,
				"z": 2.4134118118,
				"element": "H" 
			},
			{
				"x": -2.1608319794,
				"y": 0.2011670637,
				"z": -0.0808331423,
				"element": "H" 
			},
			{
				"x": 0.4069937702,
				"y": -2.6423202749,
				"z": 1.8756188624,
				"element": "H" 
			},
			{
				"x": 1.9290561758,
				"y": -0.7870300053,
				"z": 2.5179654175,
				"element": "H" 
			},
			{
				"x": -3.3711099042,
				"y": -1.3439674796,
				"z": 0.3255443579,
				"element": "H" 
			},
			{
				"x": 1.0048821173,
				"y": 3.6641849855,
				"z": -0.2213312995,
				"element": "H" 
			},
			{
				"x": 3.5502153091,
				"y": 1.6731390359,
				"z": -3.4537052757,
				"element": "H" 
			},
			{
				"x": 1.9104240306,
				"y": 0.7801859141,
				"z": -5.1384984573,
				"element": "H" 
			},
			{
				"x": -1.3374950158,
				"y": 2.1893015709,
				"z": -2.678953046,
				"element": "H" 
			}
		],
		 "valence_orbital": [ 
			{
				"type": "occ",
				"energy": -0.29287,
				"method": "rhf"
			},
			{
				"type": "occ",
				"energy": -0.28797,
				"method": "rhf"
			},
			{
				"type": "occ",
				"energy": -0.28005,
				"method": "rhf"
			},
			{
				"type": "occ",
				"energy": -0.27021,
				"method": "rhf"
			},
			{
				"type": "occ",
				"energy": -0.25113,
				"method": "rhf"
			},
			{
				"type": "unocc",
				"energy": -0.07272,
				"method": "rhf"
			},
			{
				"type": "unocc",
				"energy": -0.05515,
				"method": "rhf"
			},
			{
				"type": "unocc",
				"energy": -0.03975,
				"method": "rhf"
			},
			{
				"type": "unocc",
				"energy": -0.02866,
				"method": "rhf"
			},
			{
				"type": "unocc",
				"energy": 0.01388,
				"method": "rhf"
			}
		],
		"cosmo_sigma_profile": { 
			"-0.025": 0.0,
			"-0.024": 0.0,
			"-0.023": 0.0,
			"-0.022": 0.0,
			"-0.021": 0.0,
			"-0.02": 0.215331247369,
			"-0.019": 0.736702913359,
			"-0.018": 0.839737048007,
			"-0.017": 1.6223879043,
			"-0.016": 0.643099362027,
			"-0.015": 0.824066079731,
			"-0.014": 1.28929470802,
			"-0.013": 1.67181019648,
			"-0.012": 2.17434289216,
			"-0.011": 2.47192487793,
			"-0.01": 2.0548410744,
			"-0.009": 3.24576828512,
			"-0.008": 7.43012975765,
			"-0.007": 11.1857887997,
			"-0.006": 13.0859516752,
			"-0.005": 13.2481827411,
			"-0.004": 14.569989488,
			"-0.003": 19.5091534621,
			"-0.002": 27.6410128018,
			"-0.001": 28.0361980642,
			"0.0": 31.2539458949,
			"0.001": 31.3688076336,
			"0.002": 23.9064300559,
			"0.003": 14.5887910644,
			"0.004": 18.4123068909,
			"0.005": 8.77883401685,
			"0.006": 5.27688228804,
			"0.007": 6.56637663857,
			"0.008": 5.68985828891,
			"0.009": 9.26126778474,
			"0.01": 11.6911728712,
			"0.011": 8.32144628822,
			"0.012": 3.43522447125,
			"0.013": 0.848353961962,
			"0.014": 0.0,
			"0.015": 0.0,
			"0.016": 0.0,
			"0.017": 0.0,
			"0.018": 0.0,
			"0.019": 0.0,
			"0.02": 0.0,
			"0.021": 0.0,
			"0.022": 0.0,
			"0.023": 0.0,
			"0.024": 0.0,
			"0.025": 0.0
		}
	}
}
