{
	 "smiles": "OC(=O)C1=CC(=C(Cl)C=C1)S(=O)(=O)N1CCOCC1", 
	 "Tm": 450.15, 
	 "num_atms": 31, 
	 "gaussian": { 
		 "optdone": 1, 
		 "sigma_profile": "yes", 
		 "theory": "DFT", 
		 "functional": "B3LYP", 
		 "basiset": "6-31G**", 
		 "properties": { 
			 "R2extent": 7323.4332, 
			 "electric_dipole_moment_norm": 6.65534568148, 
			 "electric_quadrupole_moment_norm": 32.2555194683, 
			 "total_energy": -1715.56236725, 
			 "HOMO_LUMO_gap": 0.17726, 
			 "cosmo_polarized_energy": -25.31, 
			 "cosmo_cavitation_energy": 37.24, 
			 "cosmo_dispersion_energy": -26.69, 
			 "cosmo_repulsion_energy": 2.0, 
			 "cosmo_total_nonelectrostatic_energy": 12.54, 
			 "SMD_solvation_energy": 5.99 
		},
		"coords": [
			{
				"x": 3.1100270289,
				"y": -0.7434136083,
				"z": -5.0766675097,
				"element": "O" 
			},
			{
				"x": 2.2017059635,
				"y": 0.0522258571,
				"z": -4.4530913207,
				"element": "C" 
			},
			{
				"x": 1.231869612,
				"y": 0.4512659282,
				"z": -5.0499219162,
				"element": "O" 
			},
			{
				"x": 2.4746596832,
				"y": 0.3951658968,
				"z": -3.0164448126,
				"element": "C" 
			},
			{
				"x": 1.3997573411,
				"y": 0.8573511208,
				"z": -2.2483675177,
				"element": "C" 
			},
			{
				"x": 1.56979677,
				"y": 1.1958630034,
				"z": -0.9072826711,
				"element": "C" 
			},
			{
				"x": 2.8465977786,
				"y": 1.0995532267,
				"z": -0.3258678395,
				"element": "C" 
			},
			{
				"x": 3.1569812098,
				"y": 1.5035969418,
				"z": 1.3407610826,
				"element": "Cl" 
			},
			{
				"x": 3.9281972384,
				"y": 0.6654875511,
				"z": -1.0945301265,
				"element": "C" 
			},
			{
				"x": 3.742644777,
				"y": 0.3156527718,
				"z": -2.4293697441,
				"element": "C" 
			},
			{
				"x": 0.1055814113,
				"y": 1.8168951308,
				"z": -0.0350767913,
				"element": "S" 
			},
			{
				"x": 0.4396619998,
				"y": 3.0832696283,
				"z": 0.6152881426,
				"element": "O" 
			},
			{
				"x": -0.9976379688,
				"y": 1.7341398976,
				"z": -0.9981658101,
				"element": "O" 
			},
			{
				"x": -0.0821340994,
				"y": 0.6554914678,
				"z": 1.1790517372,
				"element": "N" 
			},
			{
				"x": -0.8370831411,
				"y": -0.5524061859,
				"z": 0.7933804025,
				"element": "C" 
			},
			{
				"x": -0.6255427477,
				"y": -1.608678419,
				"z": 1.8793422423,
				"element": "C" 
			},
			{
				"x": -1.0081060411,
				"y": -1.1250785785,
				"z": 3.1565439008,
				"element": "O" 
			},
			{
				"x": -0.2530688013,
				"y": 0.0242433098,
				"z": 3.5157199383,
				"element": "C" 
			},
			{
				"x": -0.4572232516,
				"y": 1.1606291533,
				"z": 2.516063753,
				"element": "C" 
			},
			{
				"x": 3.7279278898,
				"y": -1.1251251927,
				"z": -4.4384835622,
				"element": "H" 
			},
			{
				"x": 0.4214105616,
				"y": 0.9558339586,
				"z": -2.7050877059,
				"element": "H" 
			},
			{
				"x": 4.9115642522,
				"y": 0.6129313055,
				"z": -0.6412928886,
				"element": "H" 
			},
			{
				"x": 4.6121873218,
				"y": 0.016289143,
				"z": -3.0088026845,
				"element": "H" 
			},
			{
				"x": -0.4630483399,
				"y": -0.925387179,
				"z": -0.164404236,
				"element": "H" 
			},
			{
				"x": -1.9065207849,
				"y": -0.3300186689,
				"z": 0.6811773848,
				"element": "H" 
			},
			{
				"x": -1.2478418312,
				"y": -2.4843461511,
				"z": 1.6743524275,
				"element": "H" 
			},
			{
				"x": 0.4319246706,
				"y": -1.9188526357,
				"z": 1.8872484708,
				"element": "H" 
			},
			{
				"x": -0.6008722765,
				"y": 0.3304867679,
				"z": 4.5062200419,
				"element": "H" 
			},
			{
				"x": 0.8182777211,
				"y": -0.2245736132,
				"z": 3.575622151,
				"element": "H" 
			},
			{
				"x": -1.5078082188,
				"y": 1.4846578845,
				"z": 2.5359261659,
				"element": "H" 
			},
			{
				"x": 0.1766142715,
				"y": 2.0135502875,
				"z": 2.7619592956,
				"element": "H" 
			}
		],
		 "valence_orbital": [ 
			{
				"type": "occ",
				"energy": -0.30298,
				"method": "rhf"
			},
			{
				"type": "occ",
				"energy": -0.29194,
				"method": "rhf"
			},
			{
				"type": "occ",
				"energy": -0.28056,
				"method": "rhf"
			},
			{
				"type": "occ",
				"energy": -0.27781,
				"method": "rhf"
			},
			{
				"type": "occ",
				"energy": -0.25754,
				"method": "rhf"
			},
			{
				"type": "unocc",
				"energy": -0.08028,
				"method": "rhf"
			},
			{
				"type": "unocc",
				"energy": -0.0581,
				"method": "rhf"
			},
			{
				"type": "unocc",
				"energy": -0.00289,
				"method": "rhf"
			},
			{
				"type": "unocc",
				"energy": 0.01469,
				"method": "rhf"
			},
			{
				"type": "unocc",
				"energy": 0.04807,
				"method": "rhf"
			}
		],
		"cosmo_sigma_profile": { 
			"-0.025": 0.0,
			"-0.024": 0.0,
			"-0.023": 0.0,
			"-0.022": 0.0,
			"-0.021": 0.0,
			"-0.02": 0.153029690453,
			"-0.019": 0.875992856303,
			"-0.018": 1.28176262099,
			"-0.017": 1.15978611764,
			"-0.016": 0.989685859877,
			"-0.015": 0.790869494228,
			"-0.014": 1.0883508528,
			"-0.013": 1.59906220018,
			"-0.012": 1.1874382808,
			"-0.011": 1.28746283961,
			"-0.01": 1.79477608921,
			"-0.009": 3.50643758511,
			"-0.008": 4.9349015109,
			"-0.007": 4.85074711878,
			"-0.006": 15.7165317884,
			"-0.005": 23.5086106364,
			"-0.004": 26.3906716687,
			"-0.003": 24.2187594006,
			"-0.002": 21.5736823855,
			"-0.001": 26.9597304993,
			"0.0": 17.8254495733,
			"0.001": 12.5698954271,
			"0.002": 12.0934552426,
			"0.003": 12.1504311991,
			"0.004": 8.32895523573,
			"0.005": 5.99623283523,
			"0.006": 7.02820500315,
			"0.007": 8.14960942306,
			"0.008": 7.07201081547,
			"0.009": 9.95227589627,
			"0.01": 15.1827406941,
			"0.011": 11.6880550714,
			"0.012": 4.55641507579,
			"0.013": 1.40794764886,
			"0.014": 0.0,
			"0.015": 0.0,
			"0.016": 0.0,
			"0.017": 0.0,
			"0.018": 0.0,
			"0.019": 0.0,
			"0.02": 0.0,
			"0.021": 0.0,
			"0.022": 0.0,
			"0.023": 0.0,
			"0.024": 0.0,
			"0.0": 0.0
		}
	}
}
