{
	 "smiles": "C1=CC=C(C=C1)N(C1=CC=CC=C1)C1=CC=CC=C1", 
	 "Tm": 400.15, 
	 "num_atms": 34, 
	 "gaussian": { 
		 "optdone": 1, 
		 "sigma_profile": "yes", 
		 "theory": "DFT", 
		 "functional": "B3LYP", 
		 "basiset": "6-31G**", 
		 "properties": { 
			 "R2extent": 5839.2889, 
			 "electric_dipole_moment_norm": 0.000871779788708, 
			 "electric_quadrupole_moment_norm": 4.27165293885, 
			 "total_energy": -749.705166025, 
			 "HOMO_LUMO_gap": 0.17017, 
			 "cosmo_polarized_energy": -6.28, 
			 "cosmo_cavitation_energy": 37.15, 
			 "cosmo_dispersion_energy": -25.71, 
			 "cosmo_repulsion_energy": 1.99, 
			 "cosmo_total_nonelectrostatic_energy": 13.43, 
			 "SMD_solvation_energy": 6.01 
		},
		"coords": [
			{
				"x": -0.8056127478,
				"y": 4.1021564602,
				"z": -2.3749954944,
				"element": "C" 
			},
			{
				"x": -1.6718104008,
				"y": 3.0068420323,
				"z": -2.3972516642,
				"element": "C" 
			},
			{
				"x": -1.5804749311,
				"y": 2.0097565444,
				"z": -1.4279048988,
				"element": "C" 
			},
			{
				"x": -0.6253035947,
				"y": 2.1035049355,
				"z": -0.4021588492,
				"element": "C" 
			},
			{
				"x": 0.2384527354,
				"y": 3.2110352205,
				"z": -0.3771613718,
				"element": "C" 
			},
			{
				"x": 0.1511722299,
				"y": 4.1934703057,
				"z": -1.3617168437,
				"element": "C" 
			},
			{
				"x": -0.5342707768,
				"y": 1.0938712884,
				"z": 0.5945594454,
				"element": "N" 
			},
			{
				"x": 0.7398866329,
				"y": 0.6396046552,
				"z": 1.0318654023,
				"element": "C" 
			},
			{
				"x": 0.9827341588,
				"y": 0.398666281,
				"z": 2.3943203341,
				"element": "C" 
			},
			{
				"x": 2.2306811435,
				"y": -0.0555442597,
				"z": 2.8167835196,
				"element": "C" 
			},
			{
				"x": 3.2619754121,
				"y": -0.2599043982,
				"z": 1.8974512872,
				"element": "C" 
			},
			{
				"x": 3.0263500137,
				"y": -0.01233915,
				"z": 0.5433086598,
				"element": "C" 
			},
			{
				"x": 1.7764056186,
				"y": 0.4243824253,
				"z": 0.1084897107,
				"element": "C" 
			},
			{
				"x": -1.7173849062,
				"y": 0.538599585,
				"z": 1.1539620314,
				"element": "C" 
			},
			{
				"x": -2.808792721,
				"y": 1.3619880988,
				"z": 1.47676408,
				"element": "C" 
			},
			{
				"x": -3.9698032477,
				"y": 0.8115306088,
				"z": 2.0163899442,
				"element": "C" 
			},
			{
				"x": -4.0594186016,
				"y": -0.5605139257,
				"z": 2.2612695353,
				"element": "C" 
			},
			{
				"x": -2.9725421508,
				"y": -1.3804295848,
				"z": 1.949910573,
				"element": "C" 
			},
			{
				"x": -1.8139881118,
				"y": -0.8423119743,
				"z": 1.3928385368,
				"element": "C" 
			},
			{
				"x": -0.8751719399,
				"y": 4.8732821979,
				"z": -3.1361548852,
				"element": "H" 
			},
			{
				"x": -2.4167832372,
				"y": 2.917344578,
				"z": -3.183066937,
				"element": "H" 
			},
			{
				"x": -2.2470158622,
				"y": 1.1542820835,
				"z": -1.4582906273,
				"element": "H" 
			},
			{
				"x": 0.974707848,
				"y": 3.2943331771,
				"z": 0.4153209882,
				"element": "H" 
			},
			{
				"x": 0.8275889585,
				"y": 5.0429962588,
				"z": -1.3261250855,
				"element": "H" 
			},
			{
				"x": 0.1896328634,
				"y": 0.5687629681,
				"z": 3.1148053939,
				"element": "H" 
			},
			{
				"x": 2.4001165959,
				"y": -0.2364453553,
				"z": 3.8746435916,
				"element": "H" 
			},
			{
				"x": 4.2350362292,
				"y": -0.6069853069,
				"z": 2.2314042544,
				"element": "H" 
			},
			{
				"x": 3.8159969507,
				"y": -0.1734494593,
				"z": -0.1853900423,
				"element": "H" 
			},
			{
				"x": 1.5952315494,
				"y": 0.6019366097,
				"z": -0.9463496923,
				"element": "H" 
			},
			{
				"x": -2.7399733052,
				"y": 2.430439416,
				"z": 1.3014840515,
				"element": "H" 
			},
			{
				"x": -4.8037951837,
				"y": 1.4639713092,
				"z": 2.2598659724,
				"element": "H" 
			},
			{
				"x": -4.9630183309,
				"y": -0.9845719384,
				"z": 2.6884935114,
				"element": "H" 
			},
			{
				"x": -3.0291438586,
				"y": -2.4508271136,
				"z": 2.1275207903,
				"element": "H" 
			},
			{
				"x": -0.978065032,
				"y": -1.4861345732,
				"z": 1.1403147781,
				"element": "H" 
			}
		],
		 "valence_orbital": [ 
			{
				"type": "occ",
				"energy": -0.25599,
				"method": "rhf"
			},
			{
				"type": "occ",
				"energy": -0.25448,
				"method": "rhf"
			},
			{
				"type": "occ",
				"energy": -0.24405,
				"method": "rhf"
			},
			{
				"type": "occ",
				"energy": -0.24405,
				"method": "rhf"
			},
			{
				"type": "occ",
				"energy": -0.18204,
				"method": "rhf"
			},
			{
				"type": "unocc",
				"energy": -0.01187,
				"method": "rhf"
			},
			{
				"type": "unocc",
				"energy": -0.00941,
				"method": "rhf"
			},
			{
				"type": "unocc",
				"energy": -0.0094,
				"method": "rhf"
			},
			{
				"type": "unocc",
				"energy": 0.0085,
				"method": "rhf"
			},
			{
				"type": "unocc",
				"energy": 0.00851,
				"method": "rhf"
			}
		],
		"cosmo_sigma_profile": { 
			"-0.025": 0.0,
			"-0.024": 0.0,
			"-0.023": 0.0,
			"-0.022": 0.0,
			"-0.021": 0.0,
			"-0.02": 0.0,
			"-0.019": 0.0,
			"-0.018": 0.0,
			"-0.017": 0.0,
			"-0.016": 0.0,
			"-0.015": 0.0,
			"-0.014": 0.0,
			"-0.013": 0.0,
			"-0.012": 0.0,
			"-0.011": 0.0,
			"-0.01": 0.0,
			"-0.009": 0.0,
			"-0.008": 0.0,
			"-0.007": 0.0,
			"-0.006": 9.10438305554,
			"-0.005": 26.6470260242,
			"-0.004": 29.4821543731,
			"-0.003": 31.4050219796,
			"-0.002": 19.5711013758,
			"-0.001": 23.3895217371,
			"0.0": 20.7525418297,
			"0.001": 24.2204722306,
			"0.002": 26.0690708137,
			"0.003": 23.7183082003,
			"0.004": 22.4833675793,
			"0.005": 21.5990834165,
			"0.006": 18.0219926865,
			"0.007": 1.16389760014,
			"0.008": 0.0,
			"0.009": 0.0,
			"0.01": 0.0,
			"0.011": 0.0,
			"0.012": 0.0,
			"0.013": 0.0,
			"0.014": 0.0,
			"0.015": 0.0,
			"0.016": 0.0,
			"0.017": 0.0,
			"0.018": 0.0,
			"0.019": 0.0,
			"0.02": 0.0,
			"0.021": 0.0,
			"0.022": 0.0,
			"0.023": 0.0,
			"0.024": 0.0,
			"0.025": 0.0
		}
	}
}
