{
	 "smiles": "OCC1=CC=C(O1)C=O", 
	 "Tm": 305.95, 
	 "num_atms": 15, 
	 "gaussian": { 
		 "optdone": 1, 
		 "sigma_profile": "yes", 
		 "theory": "DFT", 
		 "functional": "B3LYP", 
		 "basiset": "6-31G**", 
		 "properties": { 
			 "R2extent": 1450.7928, 
			 "electric_dipole_moment_norm": 3.88015888592, 
			 "electric_quadrupole_moment_norm": 16.3502288299, 
			 "total_energy": -457.874125006, 
			 "HOMO_LUMO_gap": 0.18077, 
			 "cosmo_polarized_energy": -13.58, 
			 "cosmo_cavitation_energy": 20.21, 
			 "cosmo_dispersion_energy": -14.89, 
			 "cosmo_repulsion_energy": 1.25, 
			 "cosmo_total_nonelectrostatic_energy": 6.57, 
			 "SMD_solvation_energy": 5.42 
		},
		"coords": [
			{
				"x": 2.5729917969,
				"y": -0.675916996,
				"z": 1.066895428,
				"element": "O" 
			},
			{
				"x": 1.4227843346,
				"y": -1.38477165,
				"z": 0.6461483984,
				"element": "C" 
			},
			{
				"x": 0.3717947833,
				"y": -0.3771935176,
				"z": 0.3132814771,
				"element": "C" 
			},
			{
				"x": 0.3558760974,
				"y": 0.9919987556,
				"z": 0.3503581101,
				"element": "C" 
			},
			{
				"x": -0.9424279402,
				"y": 1.374928348,
				"z": -0.0874204626,
				"element": "C" 
			},
			{
				"x": -1.6281185993,
				"y": 0.2152310797,
				"z": -0.3612745907,
				"element": "C" 
			},
			{
				"x": -0.8159201339,
				"y": -0.8649468811,
				"z": -0.1134793788,
				"element": "O" 
			},
			{
				"x": -2.9818948079,
				"y": -0.0067347568,
				"z": -0.8372970977,
				"element": "C" 
			},
			{
				"x": -3.4900036826,
				"y": -1.0943465004,
				"z": -1.0469164501,
				"element": "O" 
			},
			{
				"x": 3.2583838417,
				"y": -1.3183806304,
				"z": 1.2845587383,
				"element": "H" 
			},
			{
				"x": 1.0383539057,
				"y": -2.0598686566,
				"z": 1.4288754682,
				"element": "H" 
			},
			{
				"x": 1.6177247212,
				"y": -2.0078031267,
				"z": -0.2426937,
				"element": "H" 
			},
			{
				"x": 1.1755522365,
				"y": 1.6241920459,
				"z": 0.6540672559,
				"element": "H" 
			},
			{
				"x": -1.3309728215,
				"y": 2.3787547307,
				"z": -0.1907151815,
				"element": "H" 
			},
			{
				"x": -3.538123732,
				"y": 0.9426577558,
				"z": -1.0001880146,
				"element": "H" 
			}
		],
		 "valence_orbital": [ 
			{
				"type": "occ",
				"energy": -0.35984,
				"method": "rhf"
			},
			{
				"type": "occ",
				"energy": -0.29594,
				"method": "rhf"
			},
			{
				"type": "occ",
				"energy": -0.29176,
				"method": "rhf"
			},
			{
				"type": "occ",
				"energy": -0.25,
				"method": "rhf"
			},
			{
				"type": "occ",
				"energy": -0.23651,
				"method": "rhf"
			},
			{
				"type": "unocc",
				"energy": -0.05574,
				"method": "rhf"
			},
			{
				"type": "unocc",
				"energy": 0.03745,
				"method": "rhf"
			},
			{
				"type": "unocc",
				"energy": 0.05372,
				"method": "rhf"
			},
			{
				"type": "unocc",
				"energy": 0.0952,
				"method": "rhf"
			},
			{
				"type": "unocc",
				"energy": 0.10518,
				"method": "rhf"
			}
		],
		"cosmo_sigma_profile": { 
			"-0.025": 0.0,
			"-0.024": 0.0,
			"-0.023": 0.0,
			"-0.022": 0.0,
			"-0.021": 0.0,
			"-0.02": 0.0,
			"-0.019": 0.0,
			"-0.018": 0.0,
			"-0.017": 0.345142475147,
			"-0.016": 1.34127169804,
			"-0.015": 0.956726985645,
			"-0.014": 0.995487160417,
			"-0.013": 0.981849323101,
			"-0.012": 0.836260283247,
			"-0.011": 1.05680119842,
			"-0.01": 1.14595381234,
			"-0.009": 1.74356296695,
			"-0.008": 4.54094127391,
			"-0.007": 7.5069527401,
			"-0.006": 14.11946385,
			"-0.005": 10.7358863135,
			"-0.004": 9.15036524812,
			"-0.003": 8.48908667367,
			"-0.002": 8.4293101083,
			"-0.001": 8.48211452302,
			"0.0": 9.34926557668,
			"0.001": 9.7199024426,
			"0.002": 9.317778841,
			"0.003": 8.34564692008,
			"0.004": 4.78261834803,
			"0.005": 3.73839674454,
			"0.006": 4.19163804534,
			"0.007": 3.07029996881,
			"0.008": 4.53525576992,
			"0.009": 4.12393284683,
			"0.01": 3.49840765204,
			"0.011": 6.41669067178,
			"0.012": 5.96894587307,
			"0.013": 2.99216861749,
			"0.014": 0.229452908948,
			"0.015": 0.0,
			"0.016": 0.0,
			"0.017": 0.0,
			"0.018": 0.0,
			"0.019": 0.0,
			"0.02": 0.0,
			"0.021": 0.0,
			"0.022": 0.0,
			"0.023": 0.0,
			"0.024": 0.0,
			"0.025": 0.0
		}
	}
}
