{
	 "smiles": "ClC1=NN=C(S1)C1=NC=CC=C1", 
	 "Tm": 379.15, 
	 "num_atms": 16, 
	 "gaussian": { 
		 "optdone": 1, 
		 "sigma_profile": "yes", 
		 "theory": "DFT", 
		 "functional": "B3LYP", 
		 "basiset": "6-31G**", 
		 "properties": { 
			 "R2extent": 4455.7726, 
			 "electric_dipole_moment_norm": 4.20263295923, 
			 "electric_quadrupole_moment_norm": 11.0579280835, 
			 "total_energy": -1291.74891252, 
			 "HOMO_LUMO_gap": 0.17649, 
			 "cosmo_polarized_energy": -8.54, 
			 "cosmo_cavitation_energy": 24.85, 
			 "cosmo_dispersion_energy": -19.35, 
			 "cosmo_repulsion_energy": 1.49, 
			 "cosmo_total_nonelectrostatic_energy": 7.0, 
			 "SMD_solvation_energy": 0.9 
		},
		"coords": [
			{
				"x": 3.8973178883,
				"y": -4.208207249,
				"z": 1.4893591553,
				"element": "Cl" 
			},
			{
				"x": 3.0471412848,
				"y": -2.803343182,
				"z": 0.9654703761,
				"element": "C" 
			},
			{
				"x": 3.6535498316,
				"y": -1.7521238207,
				"z": 0.5002772376,
				"element": "N" 
			},
			{
				"x": 2.7665085471,
				"y": -0.7732249086,
				"z": 0.1527987196,
				"element": "N" 
			},
			{
				"x": 1.518666847,
				"y": -1.1012140611,
				"z": 0.3605637706,
				"element": "C" 
			},
			{
				"x": 1.3028522704,
				"y": -2.7082075542,
				"z": 1.0302882005,
				"element": "S" 
			},
			{
				"x": 0.3689402011,
				"y": -0.2346072241,
				"z": 0.0744766535,
				"element": "C" 
			},
			{
				"x": -0.8369200712,
				"y": -0.7540491202,
				"z": 0.3580211321,
				"element": "N" 
			},
			{
				"x": -1.9110948943,
				"y": 0.0002272092,
				"z": 0.1133212288,
				"element": "C" 
			},
			{
				"x": -1.8388230716,
				"y": 1.2901390132,
				"z": -0.4179920365,
				"element": "C" 
			},
			{
				"x": -0.5805351973,
				"y": 1.819361539,
				"z": -0.7086152014,
				"element": "C" 
			},
			{
				"x": 0.5508482226,
				"y": 1.0481326737,
				"z": -0.4603947084,
				"element": "C" 
			},
			{
				"x": -2.8738146131,
				"y": -0.4464255656,
				"z": 0.3527474204,
				"element": "H" 
			},
			{
				"x": -2.7450909106,
				"y": 1.8593556992,
				"z": -0.5969926616,
				"element": "H" 
			},
			{
				"x": -0.4820074081,
				"y": 2.8184194626,
				"z": -1.122638337,
				"element": "H" 
			},
			{
				"x": 1.5534610734,
				"y": 1.4052670887,
				"z": -0.6655909497,
				"element": "H" 
			}
		],
		 "valence_orbital": [ 
			{
				"type": "occ",
				"energy": -0.30215,
				"method": "rhf"
			},
			{
				"type": "occ",
				"energy": -0.29862,
				"method": "rhf"
			},
			{
				"type": "occ",
				"energy": -0.28289,
				"method": "rhf"
			},
			{
				"type": "occ",
				"energy": -0.27455,
				"method": "rhf"
			},
			{
				"type": "occ",
				"energy": -0.25486,
				"method": "rhf"
			},
			{
				"type": "unocc",
				"energy": -0.07837,
				"method": "rhf"
			},
			{
				"type": "unocc",
				"energy": -0.0387,
				"method": "rhf"
			},
			{
				"type": "unocc",
				"energy": -0.01492,
				"method": "rhf"
			},
			{
				"type": "unocc",
				"energy": -0.00476,
				"method": "rhf"
			},
			{
				"type": "unocc",
				"energy": 0.01591,
				"method": "rhf"
			}
		],
		"cosmo_sigma_profile": { 
			"-0.025": 0.0,
			"-0.024": 0.0,
			"-0.023": 0.0,
			"-0.022": 0.0,
			"-0.021": 0.0,
			"-0.02": 0.0,
			"-0.019": 0.0,
			"-0.018": 0.0,
			"-0.017": 0.0,
			"-0.016": 0.0,
			"-0.015": 0.0,
			"-0.014": 0.0,
			"-0.013": 0.0,
			"-0.012": 0.0,
			"-0.011": 0.0,
			"-0.01": 0.0,
			"-0.009": 0.0,
			"-0.008": 2.94884903994,
			"-0.007": 9.23577354189,
			"-0.006": 9.16648341805,
			"-0.005": 9.18702977447,
			"-0.004": 14.18112913,
			"-0.003": 14.8126061126,
			"-0.002": 17.5308004477,
			"-0.001": 19.0678832738,
			"0.0": 25.2315442059,
			"0.001": 27.4374045327,
			"0.002": 16.5430914684,
			"0.003": 7.1561911903,
			"0.004": 5.01341408512,
			"0.005": 4.17337388277,
			"0.006": 3.50668110745,
			"0.007": 3.26410645849,
			"0.008": 4.35941611179,
			"0.009": 3.92711317763,
			"0.01": 3.68110147854,
			"0.011": 3.07406729604,
			"0.012": 1.90555442461,
			"0.013": 0.86028801799,
			"0.014": 0.0985946808234,
			"0.015": 0.0,
			"0.016": 0.0,
			"0.017": 0.0,
			"0.018": 0.0,
			"0.019": 0.0,
			"0.02": 0.0,
			"0.021": 0.0,
			"0.022": 0.0,
			"0.023": 0.0,
			"0.024": 0.0,
			"0.025": 0.0
		}
	}
}
