{
	 "smiles": "CC1=C(SC2=C1C(F)=CC=C2)C(O)=O", 
	 "Tm": 504.15, 
	 "num_atms": 21, 
	 "gaussian": { 
		 "optdone": 1, 
		 "sigma_profile": "yes", 
		 "theory": "DFT", 
		 "functional": "B3LYP", 
		 "basiset": "6-31G**", 
		 "properties": { 
			 "R2extent": 4183.992, 
			 "electric_dipole_moment_norm": 1.95281769246, 
			 "electric_quadrupole_moment_norm": 18.7768149397, 
			 "total_energy": -1033.77509436, 
			 "HOMO_LUMO_gap": 0.15784, 
			 "cosmo_polarized_energy": -9.64, 
			 "cosmo_cavitation_energy": 27.03, 
			 "cosmo_dispersion_energy": -20.58, 
			 "cosmo_repulsion_energy": 1.52, 
			 "cosmo_total_nonelectrostatic_energy": 7.98, 
			 "SMD_solvation_energy": 5.8 
		},
		"coords": [
			{
				"x": -0.1929310172,
				"y": -0.8382708717,
				"z": -0.495759902,
				"element": "C" 
			},
			{
				"x": 0.4525864152,
				"y": -0.3381751952,
				"z": 0.7729109593,
				"element": "C" 
			},
			{
				"x": 1.3709020556,
				"y": -1.0452407866,
				"z": 1.5186529082,
				"element": "C" 
			},
			{
				"x": 1.9457524458,
				"y": -0.1986206665,
				"z": 2.948044799,
				"element": "S" 
			},
			{
				"x": 0.9348013831,
				"y": 1.1690756262,
				"z": 2.5670228015,
				"element": "C" 
			},
			{
				"x": 0.1914164547,
				"y": 0.9521185681,
				"z": 1.3740477938,
				"element": "C" 
			},
			{
				"x": -0.6626486737,
				"y": 2.001910385,
				"z": 0.9734649331,
				"element": "C" 
			},
			{
				"x": -1.4053068478,
				"y": 1.8761622397,
				"z": -0.1502992308,
				"element": "F" 
			},
			{
				"x": -0.7749842265,
				"y": 3.1742588929,
				"z": 1.6930080584,
				"element": "C" 
			},
			{
				"x": -0.0204208401,
				"y": 3.3454470487,
				"z": 2.8672525693,
				"element": "C" 
			},
			{
				"x": 0.8370968672,
				"y": 2.350548695,
				"z": 3.3136499509,
				"element": "C" 
			},
			{
				"x": 1.9464289912,
				"y": -2.3813421787,
				"z": 1.3191932855,
				"element": "C" 
			},
			{
				"x": 1.491980368,
				"y": -3.0201657902,
				"z": 0.2120533633,
				"element": "O" 
			},
			{
				"x": 2.7602887046,
				"y": -2.887130208,
				"z": 2.0704775989,
				"element": "O" 
			},
			{
				"x": -0.7379205193,
				"y": -1.7684163367,
				"z": -0.3122279239,
				"element": "H" 
			},
			{
				"x": -0.8811057761,
				"y": -0.101152014,
				"z": -0.9004435556,
				"element": "H" 
			},
			{
				"x": 0.5640713556,
				"y": -1.0681920534,
				"z": -1.250701244,
				"element": "H" 
			},
			{
				"x": -1.4482270926,
				"y": 3.9449047357,
				"z": 1.334771959,
				"element": "H" 
			},
			{
				"x": -0.1142030729,
				"y": 4.2703045745,
				"z": 3.427727546,
				"element": "H" 
			},
			{
				"x": 1.4196768193,
				"y": 2.481672483,
				"z": 4.2194885117,
				"element": "H" 
			},
			{
				"x": 1.9490462058,
				"y": -3.8779971476,
				"z": 0.2055648181,
				"element": "H" 
			}
		],
		 "valence_orbital": [ 
			{
				"type": "occ",
				"energy": -0.31847,
				"method": "rhf"
			},
			{
				"type": "occ",
				"energy": -0.28466,
				"method": "rhf"
			},
			{
				"type": "occ",
				"energy": -0.28318,
				"method": "rhf"
			},
			{
				"type": "occ",
				"energy": -0.25058,
				"method": "rhf"
			},
			{
				"type": "occ",
				"energy": -0.22349,
				"method": "rhf"
			},
			{
				"type": "unocc",
				"energy": -0.06565,
				"method": "rhf"
			},
			{
				"type": "unocc",
				"energy": -0.01149,
				"method": "rhf"
			},
			{
				"type": "unocc",
				"energy": 0.01222,
				"method": "rhf"
			},
			{
				"type": "unocc",
				"energy": 0.01556,
				"method": "rhf"
			},
			{
				"type": "unocc",
				"energy": 0.0723,
				"method": "rhf"
			}
		],
		"cosmo_sigma_profile": { 
			"-0.025": 0.0,
			"-0.024": 0.0,
			"-0.023": 0.0,
			"-0.022": 0.0,
			"-0.021": 0.0,
			"-0.02": 0.0,
			"-0.019": 0.216540670187,
			"-0.018": 0.92861102222,
			"-0.017": 0.946644472196,
			"-0.016": 0.582567181292,
			"-0.015": 0.891553603869,
			"-0.014": 0.539729313611,
			"-0.013": 0.50766340136,
			"-0.012": 0.874214563788,
			"-0.011": 1.00842231888,
			"-0.01": 0.439706037017,
			"-0.009": 0.42259166253,
			"-0.008": 2.02863330857,
			"-0.007": 7.62289368235,
			"-0.006": 7.2344375414,
			"-0.005": 8.77984633321,
			"-0.004": 8.590225426,
			"-0.003": 11.1821221804,
			"-0.002": 16.6949091542,
			"-0.001": 21.8973978473,
			"0.0": 23.4520342085,
			"0.001": 23.6335105948,
			"0.002": 21.0218057346,
			"0.003": 21.7579448563,
			"0.004": 15.3570017998,
			"0.005": 5.61581255044,
			"0.006": 1.8601071534,
			"0.007": 1.83978817668,
			"0.008": 1.91442751232,
			"0.009": 1.43675271548,
			"0.01": 2.21816549072,
			"0.011": 4.48560511044,
			"0.012": 3.22760697695,
			"0.013": 0.0201308302447,
			"0.014": 0.0,
			"0.015": 0.0,
			"0.016": 0.0,
			"0.017": 0.0,
			"0.018": 0.0,
			"0.019": 0.0,
			"0.02": 0.0,
			"0.021": 0.0,
			"0.022": 0.0,
			"0.023": 0.0,
			"0.024": 0.0,
			"0.025": 0.0
		}
	}
}
