{
	 "smiles": "ClC1=CC=C(CS(=O)(=O)CC#N)C=C1", 
	 "Tm": 453.15, 
	 "num_atms": 22, 
	 "gaussian": { 
		 "optdone": 1, 
		 "sigma_profile": "yes", 
		 "theory": "DFT", 
		 "functional": "B3LYP", 
		 "basiset": "6-31G**", 
		 "properties": { 
			 "R2extent": 5334.5766, 
			 "electric_dipole_moment_norm": 6.27661389684, 
			 "electric_quadrupole_moment_norm": 28.3972314474, 
			 "total_energy": -1411.26757447, 
			 "HOMO_LUMO_gap": 0.2137, 
			 "cosmo_polarized_energy": -22.49, 
			 "cosmo_cavitation_energy": 30.88, 
			 "cosmo_dispersion_energy": -21.69, 
			 "cosmo_repulsion_energy": 1.67, 
			 "cosmo_total_nonelectrostatic_energy": 10.86, 
			 "SMD_solvation_energy": 5.63 
		},
		"coords": [
			{
				"x": -0.9653768861,
				"y": -0.0075097552,
				"z": -4.7324401748,
				"element": "Cl" 
			},
			{
				"x": -0.6893928684,
				"y": 0.0689860564,
				"z": -3.0028782353,
				"element": "C" 
			},
			{
				"x": -1.4150467279,
				"y": -0.7677646324,
				"z": -2.1530494523,
				"element": "C" 
			},
			{
				"x": -1.1894516876,
				"y": -0.7083761209,
				"z": -0.7799566109,
				"element": "C" 
			},
			{
				"x": -0.246296965,
				"y": 0.1835462428,
				"z": -0.246251194,
				"element": "C" 
			},
			{
				"x": 0.0066123899,
				"y": 0.2484541541,
				"z": 1.2340613018,
				"element": "C" 
			},
			{
				"x": -1.3881124972,
				"y": 0.901997257,
				"z": 2.2394176941,
				"element": "S" 
			},
			{
				"x": -0.8918798101,
				"y": 1.0819703946,
				"z": 3.6074610042,
				"element": "O" 
			},
			{
				"x": -2.5841816401,
				"y": 0.1001627001,
				"z": 1.9584853621,
				"element": "O" 
			},
			{
				"x": -1.6530034634,
				"y": 2.5829668915,
				"z": 1.4987892934,
				"element": "C" 
			},
			{
				"x": -2.7757329851,
				"y": 3.2583840518,
				"z": 2.1271355343,
				"element": "C" 
			},
			{
				"x": -3.6699119255,
				"y": 3.8062573706,
				"z": 2.623152256,
				"element": "N" 
			},
			{
				"x": 0.4665632074,
				"y": 1.0155738095,
				"z": -1.1205714111,
				"element": "C" 
			},
			{
				"x": 0.253721472,
				"y": 0.9631279416,
				"z": -2.4977577431,
				"element": "C" 
			},
			{
				"x": -2.1450146463,
				"y": -1.4567436439,
				"z": -2.5627687264,
				"element": "H" 
			},
			{
				"x": -1.7616810302,
				"y": -1.3470190144,
				"z": -0.1152646435,
				"element": "H" 
			},
			{
				"x": 0.8727796319,
				"y": 0.8639811931,
				"z": 1.4890181393,
				"element": "H" 
			},
			{
				"x": 0.1493724744,
				"y": -0.7398311339,
				"z": 1.6841826147,
				"element": "H" 
			},
			{
				"x": -0.7303863189,
				"y": 3.1512397349,
				"z": 1.6479407168,
				"element": "H" 
			},
			{
				"x": -1.8328962935,
				"y": 2.4402899474,
				"z": 0.4298740697,
				"element": "H" 
			},
			{
				"x": 1.2090972974,
				"y": 1.705169523,
				"z": -0.7269446208,
				"element": "H" 
			},
			{
				"x": 0.8131192724,
				"y": 1.6035370324,
				"z": -3.1703351746,
				"element": "H" 
			}
		],
		 "valence_orbital": [ 
			{
				"type": "occ",
				"energy": -0.33026,
				"method": "rhf"
			},
			{
				"type": "occ",
				"energy": -0.32041,
				"method": "rhf"
			},
			{
				"type": "occ",
				"energy": -0.31146,
				"method": "rhf"
			},
			{
				"type": "occ",
				"energy": -0.28869,
				"method": "rhf"
			},
			{
				"type": "occ",
				"energy": -0.26591,
				"method": "rhf"
			},
			{
				"type": "unocc",
				"energy": -0.05221,
				"method": "rhf"
			},
			{
				"type": "unocc",
				"energy": -0.04049,
				"method": "rhf"
			},
			{
				"type": "unocc",
				"energy": -0.01699,
				"method": "rhf"
			},
			{
				"type": "unocc",
				"energy": 0.00998,
				"method": "rhf"
			},
			{
				"type": "unocc",
				"energy": 0.01624,
				"method": "rhf"
			}
		],
		"cosmo_sigma_profile": { 
			"-0.025": 0.0,
			"-0.024": 0.0,
			"-0.023": 0.0,
			"-0.022": 0.0,
			"-0.021": 0.0,
			"-0.02": 0.0,
			"-0.019": 0.0,
			"-0.018": 0.0,
			"-0.017": 0.0,
			"-0.016": 0.0,
			"-0.015": 0.214042868772,
			"-0.014": 0.760052133651,
			"-0.013": 1.48633011319,
			"-0.012": 3.51129881954,
			"-0.011": 4.32776165132,
			"-0.01": 6.47540493245,
			"-0.009": 7.22649862056,
			"-0.008": 9.09455229297,
			"-0.007": 13.8548091592,
			"-0.006": 14.2741695872,
			"-0.005": 10.0142567151,
			"-0.004": 9.04791263317,
			"-0.003": 9.7191178377,
			"-0.002": 8.41991842546,
			"-0.001": 11.2969660733,
			"0.0": 13.4678400676,
			"0.001": 17.5977628986,
			"0.002": 20.6962218897,
			"0.003": 16.7293982747,
			"0.004": 14.7977743265,
			"0.005": 8.84971046822,
			"0.006": 5.93902119592,
			"0.007": 5.90847278923,
			"0.008": 7.20767276991,
			"0.009": 6.08272951887,
			"0.01": 13.1916596336,
			"0.011": 8.38709675817,
			"0.012": 1.74830894579,
			"0.013": 0.0371138417325,
			"0.014": 0.0,
			"0.015": 0.0,
			"0.016": 0.0,
			"0.017": 0.0,
			"0.018": 0.0,
			"0.019": 0.0,
			"0.02": 0.0,
			"0.021": 0.0,
			"0.022": 0.0,
			"0.023": 0.0,
			"0.024": 0.0,
			"0.025": 0.0
		}
	}
}
