{
	 "smiles": "COC1=NSC(NC2=CC=C(Br)C=C2)=N1", 
	 "Tm": 511.15, 
	 "num_atms": 23, 
	 "gaussian": { 
		 "optdone": 1, 
		 "sigma_profile": "yes", 
		 "theory": "DFT", 
		 "functional": "B3LYP", 
		 "basiset": "6-31G**", 
		 "properties": { 
			 "R2extent": 9437.7834, 
			 "electric_dipole_moment_norm": 2.42344794044, 
			 "electric_quadrupole_moment_norm": 21.8657422758, 
			 "total_energy": -3556.8321577, 
			 "HOMO_LUMO_gap": 0.17563, 
			 "cosmo_polarized_energy": -15.47, 
			 "cosmo_cavitation_energy": 32.0, 
			 "cosmo_dispersion_energy": -24.43, 
			 "cosmo_repulsion_energy": 1.85, 
			 "cosmo_total_nonelectrostatic_energy": 9.43, 
			 "SMD_solvation_energy": 2.98 
		},
		"coords": [
			{
				"x": -0.6004585477,
				"y": -1.1115802221,
				"z": -2.7592394726,
				"element": "C" 
			},
			{
				"x": 0.0307006633,
				"y": 0.16617617,
				"z": -2.8770457261,
				"element": "O" 
			},
			{
				"x": 0.5139270609,
				"y": 0.7234390517,
				"z": -1.7591407804,
				"element": "C" 
			},
			{
				"x": 1.0949479476,
				"y": 1.8952384278,
				"z": -1.8546259005,
				"element": "N" 
			},
			{
				"x": 1.5898248448,
				"y": 2.3232531196,
				"z": -0.3011958194,
				"element": "S" 
			},
			{
				"x": 0.9448569219,
				"y": 0.824303023,
				"z": 0.3739347429,
				"element": "C" 
			},
			{
				"x": 1.0366931964,
				"y": 0.5411615527,
				"z": 1.7030727989,
				"element": "N" 
			},
			{
				"x": 0.5891072574,
				"y": -0.5869648107,
				"z": 2.4193829206,
				"element": "C" 
			},
			{
				"x": -0.0694224238,
				"y": -1.6725127754,
				"z": 1.823781519,
				"element": "C" 
			},
			{
				"x": -0.4779021806,
				"y": -2.7490646633,
				"z": 2.6102952151,
				"element": "C" 
			},
			{
				"x": -0.2349143037,
				"y": -2.7500432295,
				"z": 3.9815616057,
				"element": "C" 
			},
			{
				"x": -0.7996574774,
				"y": -4.2315336562,
				"z": 5.0467141565,
				"element": "Br" 
			},
			{
				"x": 0.4187642899,
				"y": -1.6763603413,
				"z": 4.5847453848,
				"element": "C" 
			},
			{
				"x": 0.8275550857,
				"y": -0.601083018,
				"z": 3.8034784753,
				"element": "C" 
			},
			{
				"x": 0.3969446527,
				"y": 0.0730784416,
				"z": -0.5512612955,
				"element": "N" 
			},
			{
				"x": 0.0961047565,
				"y": -1.8646175611,
				"z": -2.3785825679,
				"element": "H" 
			},
			{
				"x": -1.4721033615,
				"y": -1.0642642842,
				"z": -2.0995718092,
				"element": "H" 
			},
			{
				"x": -0.9133891681,
				"y": -1.372067823,
				"z": -3.7708893216,
				"element": "H" 
			},
			{
				"x": 1.4948271551,
				"y": 1.2434444645,
				"z": 2.2657833922,
				"element": "H" 
			},
			{
				"x": -0.2550828724,
				"y": -1.6658116249,
				"z": 0.7588953118,
				"element": "H" 
			},
			{
				"x": -0.9868497722,
				"y": -3.5879440987,
				"z": 2.1491402273,
				"element": "H" 
			},
			{
				"x": 0.6072109503,
				"y": -1.6784126606,
				"z": 5.6520899454,
				"element": "H" 
			},
			{
				"x": 1.3374153248,
				"y": 0.235666518,
				"z": 4.2754769976,
				"element": "H" 
			}
		],
		 "valence_orbital": [ 
			{
				"type": "occ",
				"energy": -0.28899,
				"method": "rhf"
			},
			{
				"type": "occ",
				"energy": -0.28414,
				"method": "rhf"
			},
			{
				"type": "occ",
				"energy": -0.27368,
				"method": "rhf"
			},
			{
				"type": "occ",
				"energy": -0.24817,
				"method": "rhf"
			},
			{
				"type": "occ",
				"energy": -0.21473,
				"method": "rhf"
			},
			{
				"type": "unocc",
				"energy": -0.0391,
				"method": "rhf"
			},
			{
				"type": "unocc",
				"energy": -0.02401,
				"method": "rhf"
			},
			{
				"type": "unocc",
				"energy": -0.01714,
				"method": "rhf"
			},
			{
				"type": "unocc",
				"energy": 0.00288,
				"method": "rhf"
			},
			{
				"type": "unocc",
				"energy": 0.00821,
				"method": "rhf"
			}
		],
		"cosmo_sigma_profile": { 
			"-0.025": 0.0,
			"-0.024": 0.0,
			"-0.023": 0.0,
			"-0.022": 0.0,
			"-0.021": 0.0,
			"-0.02": 0.0,
			"-0.019": 0.0,
			"-0.018": 0.356563033801,
			"-0.017": 1.47300022155,
			"-0.016": 1.5634449839,
			"-0.015": 1.50755012062,
			"-0.014": 1.2680304195,
			"-0.013": 1.66667862846,
			"-0.012": 1.24371967023,
			"-0.011": 0.745083465299,
			"-0.01": 1.62277686388,
			"-0.009": 1.48980040031,
			"-0.008": 1.82555365874,
			"-0.007": 5.89189529284,
			"-0.006": 10.3153525812,
			"-0.005": 13.4598253481,
			"-0.004": 15.2667894084,
			"-0.003": 16.4015737357,
			"-0.002": 18.0214233709,
			"-0.001": 17.7712371045,
			"0.0": 21.3202720651,
			"0.001": 20.9104072211,
			"0.002": 24.6409467193,
			"0.003": 30.0296423648,
			"0.004": 20.1397791475,
			"0.005": 12.6274803956,
			"0.006": 2.70365862386,
			"0.007": 2.61198368995,
			"0.008": 1.68644945574,
			"0.009": 2.13489178794,
			"0.01": 3.67451308482,
			"0.011": 3.1331920077,
			"0.012": 1.4998714295,
			"0.013": 1.63625638871,
			"0.014": 1.33780568094,
			"0.015": 1.00153302724,
			"0.016": 0.0296105372067,
			"0.017": 0.0,
			"0.018": 0.0,
			"0.019": 0.0,
			"0.02": 0.0,
			"0.021": 0.0,
			"0.022": 0.0,
			"0.023": 0.0,
			"0.024": 0.0,
			"0.025": 0.0
		}
	}
}
