{
	 "smiles": "NC(=O)C1=CC=CC=C1C(O)=O", 
	 "Tm": 414.65, 
	 "num_atms": 19, 
	 "gaussian": { 
		 "optdone": 1, 
		 "sigma_profile": "yes", 
		 "theory": "DFT", 
		 "functional": "B3LYP", 
		 "basiset": "6-31G**", 
		 "properties": { 
			 "R2extent": 2186.5233, 
			 "electric_dipole_moment_norm": 7.5519012573, 
			 "electric_quadrupole_moment_norm": 18.1805992343, 
			 "total_energy": -589.525066913, 
			 "HOMO_LUMO_gap": 0.18964, 
			 "cosmo_polarized_energy": -19.54, 
			 "cosmo_cavitation_energy": 23.35, 
			 "cosmo_dispersion_energy": -17.65, 
			 "cosmo_repulsion_energy": 1.4, 
			 "cosmo_total_nonelectrostatic_energy": 7.1, 
			 "SMD_solvation_energy": 5.87 
		},
		"coords": [
			{
				"x": -2.4261244716,
				"y": 2.420497628,
				"z": 0.9247112366,
				"element": "N" 
			},
			{
				"x": -1.6976248484,
				"y": 1.9388402199,
				"z": -0.1156112485,
				"element": "C" 
			},
			{
				"x": -1.8038078981,
				"y": 2.4494480367,
				"z": -1.2382246375,
				"element": "O" 
			},
			{
				"x": -0.7442844745,
				"y": 0.8224077259,
				"z": 0.206667302,
				"element": "C" 
			},
			{
				"x": -0.0827445095,
				"y": 0.8952302917,
				"z": 1.4462176548,
				"element": "C" 
			},
			{
				"x": 0.836941307,
				"y": -0.071651933,
				"z": 1.8404271559,
				"element": "C" 
			},
			{
				"x": 1.0932882278,
				"y": -1.1530348448,
				"z": 0.9992018394,
				"element": "C" 
			},
			{
				"x": 0.4397061399,
				"y": -1.2428097292,
				"z": -0.225752854,
				"element": "C" 
			},
			{
				"x": -0.4641716395,
				"y": -0.2626898556,
				"z": -0.6626467667,
				"element": "C" 
			},
			{
				"x": -1.0635955035,
				"y": -0.5672364048,
				"z": -2.0364263616,
				"element": "C" 
			},
			{
				"x": -1.5230562694,
				"y": 0.4295909965,
				"z": -2.7841142959,
				"element": "O" 
			},
			{
				"x": -1.0675062349,
				"y": -1.712423204,
				"z": -2.4428862934,
				"element": "O" 
			},
			{
				"x": -3.0950125323,
				"y": 3.1483263743,
				"z": 0.7186382062,
				"element": "H" 
			},
			{
				"x": -2.5103687975,
				"y": 1.9141370934,
				"z": 1.7909585322,
				"element": "H" 
			},
			{
				"x": -0.2683957631,
				"y": 1.7460031172,
				"z": 2.0941419846,
				"element": "H" 
			},
			{
				"x": 1.3463003895,
				"y": 0.0223309162,
				"z": 2.7946853754,
				"element": "H" 
			},
			{
				"x": 1.7995349532,
				"y": -1.9236420125,
				"z": 1.293155272,
				"element": "H" 
			},
			{
				"x": 0.6065835869,
				"y": -2.0868709122,
				"z": -0.8846473434,
				"element": "H" 
			},
			{
				"x": -1.497661662,
				"y": 1.3019464962,
				"z": -2.3070947583,
				"element": "H" 
			}
		],
		 "valence_orbital": [ 
			{
				"type": "occ",
				"energy": -0.29163,
				"method": "rhf"
			},
			{
				"type": "occ",
				"energy": -0.29055,
				"method": "rhf"
			},
			{
				"type": "occ",
				"energy": -0.27681,
				"method": "rhf"
			},
			{
				"type": "occ",
				"energy": -0.27473,
				"method": "rhf"
			},
			{
				"type": "occ",
				"energy": -0.25418,
				"method": "rhf"
			},
			{
				"type": "unocc",
				"energy": -0.06454,
				"method": "rhf"
			},
			{
				"type": "unocc",
				"energy": -0.03914,
				"method": "rhf"
			},
			{
				"type": "unocc",
				"energy": 0.0198,
				"method": "rhf"
			},
			{
				"type": "unocc",
				"energy": 0.04886,
				"method": "rhf"
			},
			{
				"type": "unocc",
				"energy": 0.06356,
				"method": "rhf"
			}
		],
		"cosmo_sigma_profile": { 
			"-0.025": 0.0,
			"-0.024": 0.0,
			"-0.023": 0.0,
			"-0.022": 0.0,
			"-0.021": 0.0,
			"-0.02": 0.0,
			"-0.019": 0.0,
			"-0.018": 0.0,
			"-0.017": 0.0,
			"-0.016": 0.199094160466,
			"-0.015": 2.27092280065,
			"-0.014": 1.96784481797,
			"-0.013": 2.5513139007,
			"-0.012": 3.14409063513,
			"-0.011": 2.48280224618,
			"-0.01": 2.02669357618,
			"-0.009": 1.51259859966,
			"-0.008": 2.85579023016,
			"-0.007": 8.203496476,
			"-0.006": 9.65786757873,
			"-0.005": 12.1172308878,
			"-0.004": 10.1135732718,
			"-0.003": 9.7582465211,
			"-0.002": 10.8882013558,
			"-0.001": 10.7807056462,
			"0.0": 11.6656543794,
			"0.001": 12.3394173767,
			"0.002": 16.5476333658,
			"0.003": 10.1752522636,
			"0.004": 4.42823969449,
			"0.005": 2.91586284879,
			"0.006": 2.91389313608,
			"0.007": 4.49849313947,
			"0.008": 3.79327034497,
			"0.009": 3.69012499798,
			"0.01": 5.08223757542,
			"0.011": 6.07055839885,
			"0.012": 7.77233851533,
			"0.013": 3.61591127858,
			"0.014": 1.18868014899,
			"0.015": 0.0,
			"0.016": 0.0,
			"0.017": 0.0,
			"0.018": 0.0,
			"0.019": 0.0,
			"0.02": 0.0,
			"0.021": 0.0,
			"0.022": 0.0,
			"0.023": 0.0,
			"0.024": 0.0,
			"0.025": 0.0
		}
	}
}
