{
	 "smiles": "OC(=O)CC1=CSC2=NC(=CN12)C1=CC=CC=C1", 
	 "Tm": 494.15, 
	 "num_atms": 28, 
	 "gaussian": { 
		 "optdone": 1, 
		 "sigma_profile": "yes", 
		 "theory": "DFT", 
		 "functional": "B3LYP", 
		 "basiset": "6-31G**", 
		 "properties": { 
			 "R2extent": 6561.0621, 
			 "electric_dipole_moment_norm": 4.61492514457, 
			 "electric_quadrupole_moment_norm": 18.6587599928, 
			 "total_energy": -1159.54730774, 
			 "HOMO_LUMO_gap": 0.16941, 
			 "cosmo_polarized_energy": -16.83, 
			 "cosmo_cavitation_energy": 34.78, 
			 "cosmo_dispersion_energy": -25.57, 
			 "cosmo_repulsion_energy": 1.91, 
			 "cosmo_total_nonelectrostatic_energy": 11.12, 
			 "SMD_solvation_energy": 5.43 
		},
		"coords": [
			{
				"x": -2.1413425149,
				"y": -3.664350766,
				"z": -2.0415006761,
				"element": "O" 
			},
			{
				"x": -1.8209263481,
				"y": -2.9519125046,
				"z": -0.941949074,
				"element": "C" 
			},
			{
				"x": -2.5313314299,
				"y": -2.0891423524,
				"z": -0.4763353865,
				"element": "O" 
			},
			{
				"x": -0.4596116138,
				"y": -3.3543079119,
				"z": -0.3856493754,
				"element": "C" 
			},
			{
				"x": 0.6748759597,
				"y": -2.6823443598,
				"z": -1.1035398426,
				"element": "C" 
			},
			{
				"x": 1.6648349004,
				"y": -3.2649027612,
				"z": -1.8226951807,
				"element": "C" 
			},
			{
				"x": 2.8415761455,
				"y": -2.118300542,
				"z": -2.4603578083,
				"element": "S" 
			},
			{
				"x": 1.9401633403,
				"y": -0.8087584181,
				"z": -1.7183439279,
				"element": "C" 
			},
			{
				"x": 2.0617637624,
				"y": 0.4892270955,
				"z": -1.6401398864,
				"element": "N" 
			},
			{
				"x": 0.967405558,
				"y": 0.8936192867,
				"z": -0.8821285151,
				"element": "C" 
			},
			{
				"x": 0.1919516908,
				"y": -0.1927052681,
				"z": -0.5089098457,
				"element": "C" 
			},
			{
				"x": 0.8295311702,
				"y": -1.2959443516,
				"z": -1.0548292564,
				"element": "N" 
			},
			{
				"x": 0.749407208,
				"y": 2.3142237841,
				"z": -0.5764153041,
				"element": "C" 
			},
			{
				"x": -0.3499519073,
				"y": 2.7417688248,
				"z": 0.1877389262,
				"element": "C" 
			},
			{
				"x": -0.5398059944,
				"y": 4.0932130154,
				"z": 0.4664613867,
				"element": "C" 
			},
			{
				"x": 0.3643778934,
				"y": 5.0451078533,
				"z": -0.0113906106,
				"element": "C" 
			},
			{
				"x": 1.4600653152,
				"y": 4.6301320218,
				"z": -0.7712175194,
				"element": "C" 
			},
			{
				"x": 1.6526107118,
				"y": 3.2789439048,
				"z": -1.0522929649,
				"element": "C" 
			},
			{
				"x": -2.9981029676,
				"y": -3.3252901773,
				"z": -2.3529457281,
				"element": "H" 
			},
			{
				"x": -0.4526963016,
				"y": -3.0785651912,
				"z": 0.6738155046,
				"element": "H" 
			},
			{
				"x": -0.3388560119,
				"y": -4.4362912795,
				"z": -0.4719569427,
				"element": "H" 
			},
			{
				"x": 1.7803040136,
				"y": -4.3211950774,
				"z": -2.0152137973,
				"element": "H" 
			},
			{
				"x": -0.7339713365,
				"y": -0.2861349586,
				"z": 0.0339529878,
				"element": "H" 
			},
			{
				"x": -1.0628421274,
				"y": 2.0152053659,
				"z": 0.5672525593,
				"element": "H" 
			},
			{
				"x": -1.396145502,
				"y": 4.4040503395,
				"z": 1.0585495951,
				"element": "H" 
			},
			{
				"x": 0.2154282986,
				"y": 6.0987389191,
				"z": 0.2068237585,
				"element": "H" 
			},
			{
				"x": 2.1691864719,
				"y": 5.3623579664,
				"z": -1.1476262925,
				"element": "H" 
			},
			{
				"x": 2.5007016156,
				"y": 2.9486575424,
				"z": -1.6418567834,
				"element": "H" 
			}
		],
		 "valence_orbital": [ 
			{
				"type": "occ",
				"energy": -0.27752,
				"method": "rhf"
			},
			{
				"type": "occ",
				"energy": -0.26767,
				"method": "rhf"
			},
			{
				"type": "occ",
				"energy": -0.24009,
				"method": "rhf"
			},
			{
				"type": "occ",
				"energy": -0.223,
				"method": "rhf"
			},
			{
				"type": "occ",
				"energy": -0.20248,
				"method": "rhf"
			},
			{
				"type": "unocc",
				"energy": -0.03307,
				"method": "rhf"
			},
			{
				"type": "unocc",
				"energy": -0.01387,
				"method": "rhf"
			},
			{
				"type": "unocc",
				"energy": 0.00464,
				"method": "rhf"
			},
			{
				"type": "unocc",
				"energy": 0.00928,
				"method": "rhf"
			},
			{
				"type": "unocc",
				"energy": 0.01231,
				"method": "rhf"
			}
		],
		"cosmo_sigma_profile": { 
			"-0.025": 0.0,
			"-0.024": 0.0,
			"-0.023": 0.0,
			"-0.022": 0.0,
			"-0.021": 0.0,
			"-0.02": 0.0,
			"-0.019": 0.331989438708,
			"-0.018": 0.861257856459,
			"-0.017": 1.22514198938,
			"-0.016": 0.920016141778,
			"-0.015": 0.447812239396,
			"-0.014": 1.03724657237,
			"-0.013": 0.33352553728,
			"-0.012": 0.651618105249,
			"-0.011": 1.43324250781,
			"-0.01": 2.6639564577,
			"-0.009": 3.85081172023,
			"-0.008": 7.45478310526,
			"-0.007": 9.20459523982,
			"-0.006": 11.7831726674,
			"-0.005": 15.8252755528,
			"-0.004": 17.1168325005,
			"-0.003": 18.4674201482,
			"-0.002": 16.6294041944,
			"-0.001": 16.7215301238,
			"0.0": 17.1872505073,
			"0.001": 20.4574264364,
			"0.002": 19.6151399476,
			"0.003": 20.5441666261,
			"0.004": 22.4469203158,
			"0.005": 16.1203196161,
			"0.006": 13.3862342456,
			"0.007": 4.80884726646,
			"0.008": 4.02190814966,
			"0.009": 3.70717336239,
			"0.01": 3.5907010365,
			"0.011": 5.16273529076,
			"0.012": 1.9440507702,
			"0.013": 1.46386869626,
			"0.014": 0.397203592463,
			"0.015": 0.0,
			"0.016": 0.0,
			"0.017": 0.0,
			"0.018": 0.0,
			"0.019": 0.0,
			"0.02": 0.0,
			"0.021": 0.0,
			"0.022": 0.0,
			"0.023": 0.0,
			"0.024": 0.0,
			"0.025": 0.0
		}
	}
}
