{
	 "smiles": "COC1=CC=CC=C1C(=O)C1=CC2=C(OCCO2)C=C1Br", 
	 "Tm": 369.15, 
	 "num_atms": 34, 
	 "gaussian": { 
		 "optdone": 1, 
		 "sigma_profile": "yes", 
		 "theory": "DFT", 
		 "functional": "B3LYP", 
		 "basiset": "6-31G**", 
		 "properties": { 
			 "R2extent": 8169.4595, 
			 "electric_dipole_moment_norm": 6.6877593146, 
			 "electric_quadrupole_moment_norm": 20.2013713789, 
			 "total_energy": -3489.79462654, 
			 "HOMO_LUMO_gap": 0.162, 
			 "cosmo_polarized_energy": -16.85, 
			 "cosmo_cavitation_energy": 40.07, 
			 "cosmo_dispersion_energy": -28.38, 
			 "cosmo_repulsion_energy": 2.19, 
			 "cosmo_total_nonelectrostatic_energy": 13.88, 
			 "SMD_solvation_energy": 7.19 
		},
		"coords": [
			{
				"x": -0.5553833103,
				"y": 2.504749524,
				"z": -2.3021773519,
				"element": "C" 
			},
			{
				"x": -0.0992951981,
				"y": 1.2364516216,
				"z": -1.8568604346,
				"element": "O" 
			},
			{
				"x": -0.784753458,
				"y": 0.1212848976,
				"z": -2.2283455801,
				"element": "C" 
			},
			{
				"x": -1.9209472524,
				"y": 0.1499343951,
				"z": -3.0485761054,
				"element": "C" 
			},
			{
				"x": -2.5405656772,
				"y": -1.0417431424,
				"z": -3.4276428421,
				"element": "C" 
			},
			{
				"x": -2.0326336356,
				"y": -2.2727651586,
				"z": -3.0132692876,
				"element": "C" 
			},
			{
				"x": -0.8993008454,
				"y": -2.2986405378,
				"z": -2.20501951,
				"element": "C" 
			},
			{
				"x": -0.275196111,
				"y": -1.1193999184,
				"z": -1.7773870473,
				"element": "C" 
			},
			{
				"x": 0.9522365273,
				"y": -1.2728367422,
				"z": -0.9217501116,
				"element": "C" 
			},
			{
				"x": 1.6980070735,
				"y": -2.2237733789,
				"z": -1.10450644,
				"element": "O" 
			},
			{
				"x": 1.1887040862,
				"y": -0.3265733102,
				"z": 0.221276464,
				"element": "C" 
			},
			{
				"x": 0.0868177968,
				"y": 0.0625694476,
				"z": 0.9957913005,
				"element": "C" 
			},
			{
				"x": 0.2318588463,
				"y": 0.8299197076,
				"z": 2.1452783165,
				"element": "C" 
			},
			{
				"x": 1.5157478267,
				"y": 1.2397495211,
				"z": 2.5418129149,
				"element": "C" 
			},
			{
				"x": 1.7234829927,
				"y": 1.9870648393,
				"z": 3.6696365842,
				"element": "O" 
			},
			{
				"x": 0.6083639382,
				"y": 2.0044922401,
				"z": 4.5647789535,
				"element": "C" 
			},
			{
				"x": -0.6814769166,
				"y": 2.2272811583,
				"z": 3.7918076823,
				"element": "C" 
			},
			{
				"x": -0.8909062223,
				"y": 1.16271899,
				"z": 2.8636516877,
				"element": "O" 
			},
			{
				"x": 2.6219278995,
				"y": 0.8909139664,
				"z": 1.7668899639,
				"element": "C" 
			},
			{
				"x": 2.4619966055,
				"y": 0.1099612529,
				"z": 0.6265922693,
				"element": "C" 
			},
			{
				"x": 4.0426328287,
				"y": -0.274785978,
				"z": -0.3753986493,
				"element": "Br" 
			},
			{
				"x": -0.5422128264,
				"y": 2.5763681923,
				"z": -3.3968755007,
				"element": "H" 
			},
			{
				"x": 0.1412746166,
				"y": 3.2334006618,
				"z": -1.8857498351,
				"element": "H" 
			},
			{
				"x": -1.5675231126,
				"y": 2.722388434,
				"z": -1.938359113,
				"element": "H" 
			},
			{
				"x": -2.3192024828,
				"y": 1.0929044019,
				"z": -3.4027040459,
				"element": "H" 
			},
			{
				"x": -3.4224791877,
				"y": -0.9996370076,
				"z": -4.0608007998,
				"element": "H" 
			},
			{
				"x": -2.5103883934,
				"y": -3.1981557471,
				"z": -3.3184373037,
				"element": "H" 
			},
			{
				"x": -0.4679584561,
				"y": -3.2395722455,
				"z": -1.8791662201,
				"element": "H" 
			},
			{
				"x": -0.9136523993,
				"y": -0.2436730243,
				"z": 0.7089538959,
				"element": "H" 
			},
			{
				"x": 0.7939096785,
				"y": 2.8158721943,
				"z": 5.2726963495,
				"element": "H" 
			},
			{
				"x": 0.558282294,
				"y": 1.0542143038,
				"z": 5.1127399888,
				"element": "H" 
			},
			{
				"x": -0.6354854406,
				"y": 3.1862527581,
				"z": 3.2574158948,
				"element": "H" 
			},
			{
				"x": -1.5471059577,
				"y": 2.2325301564,
				"z": 4.458802088,
				"element": "H" 
			},
			{
				"x": 3.6027238729,
				"y": 1.2315335266,
				"z": 2.0760018246,
				"element": "H" 
			}
		],
		 "valence_orbital": [ 
			{
				"type": "occ",
				"energy": -0.25644,
				"method": "rhf"
			},
			{
				"type": "occ",
				"energy": -0.24176,
				"method": "rhf"
			},
			{
				"type": "occ",
				"energy": -0.23594,
				"method": "rhf"
			},
			{
				"type": "occ",
				"energy": -0.22691,
				"method": "rhf"
			},
			{
				"type": "occ",
				"energy": -0.21428,
				"method": "rhf"
			},
			{
				"type": "unocc",
				"energy": -0.05228,
				"method": "rhf"
			},
			{
				"type": "unocc",
				"energy": -0.00968,
				"method": "rhf"
			},
			{
				"type": "unocc",
				"energy": -0.00581,
				"method": "rhf"
			},
			{
				"type": "unocc",
				"energy": 0.00649,
				"method": "rhf"
			},
			{
				"type": "unocc",
				"energy": 0.0178,
				"method": "rhf"
			}
		],
		"cosmo_sigma_profile": { 
			"-0.025": 0.0,
			"-0.024": 0.0,
			"-0.023": 0.0,
			"-0.022": 0.0,
			"-0.021": 0.0,
			"-0.02": 0.0,
			"-0.019": 0.0,
			"-0.018": 0.0,
			"-0.017": 0.0,
			"-0.016": 0.0,
			"-0.015": 0.0,
			"-0.014": 0.0,
			"-0.013": 0.0,
			"-0.012": 0.0,
			"-0.011": 0.0,
			"-0.01": 0.0,
			"-0.009": 0.0,
			"-0.008": 1.85790914225,
			"-0.007": 13.0826674842,
			"-0.006": 28.1305277924,
			"-0.005": 27.8687042796,
			"-0.004": 27.5852885277,
			"-0.003": 23.0682961992,
			"-0.002": 17.2722075414,
			"-0.001": 16.0012633878,
			"0.0": 17.6172840394,
			"0.001": 23.1573009632,
			"0.002": 26.6901662409,
			"0.003": 24.0155909922,
			"0.004": 24.3685199026,
			"0.005": 15.303287893,
			"0.006": 7.80466034078,
			"0.007": 6.27367086995,
			"0.008": 5.31718561809,
			"0.009": 5.29082263841,
			"0.01": 3.95575828478,
			"0.011": 3.36890858754,
			"0.012": 4.45549750559,
			"0.013": 0.856487596982,
			"0.014": 0.0,
			"0.015": 0.0,
			"0.016": 0.0,
			"0.017": 0.0,
			"0.018": 0.0,
			"0.019": 0.0,
			"0.02": 0.0,
			"0.021": 0.0,
			"0.022": 0.0,
			"0.023": 0.0,
			"0.024": 0.0,
			"0.025": 0.0
		}
	}
}
