{
	 "smiles": "N1N=CC2=C1C=CC=C2", 
	 "Tm": 421.15, 
	 "num_atms": 15, 
	 "gaussian": { 
		 "optdone": 1, 
		 "sigma_profile": "yes", 
		 "theory": "DFT", 
		 "functional": "B3LYP", 
		 "basiset": "6-31G**", 
		 "properties": { 
			 "R2extent": 1065.7235, 
			 "electric_dipole_moment_norm": 1.73273878874, 
			 "electric_quadrupole_moment_norm": 10.0755566764, 
			 "total_energy": -379.84654421, 
			 "HOMO_LUMO_gap": 0.19292, 
			 "cosmo_polarized_energy": -8.69, 
			 "cosmo_cavitation_energy": 18.83, 
			 "cosmo_dispersion_energy": -14.51, 
			 "cosmo_repulsion_energy": 1.18, 
			 "cosmo_total_nonelectrostatic_energy": 5.49, 
			 "SMD_solvation_energy": 2.33 
		},
		"coords": [
			{
				"x": 1.4413865534,
				"y": -0.0429395502,
				"z": 1.5837536606,
				"element": "N" 
			},
			{
				"x": 0.8219035327,
				"y": -0.5120463313,
				"z": 2.6999165715,
				"element": "N" 
			},
			{
				"x": -0.368782292,
				"y": -0.9245172365,
				"z": 2.3032513842,
				"element": "C" 
			},
			{
				"x": -0.5546861597,
				"y": -0.730843352,
				"z": 0.8988874855,
				"element": "C" 
			},
			{
				"x": 0.66318816,
				"y": -0.1469939906,
				"z": 0.4632679088,
				"element": "C" 
			},
			{
				"x": 0.8881816165,
				"y": 0.2032733039,
				"z": -0.8778737149,
				"element": "C" 
			},
			{
				"x": -0.1404972241,
				"y": -0.0469632845,
				"z": -1.7731514083,
				"element": "C" 
			},
			{
				"x": -1.3627291255,
				"y": -0.6284321715,
				"z": -1.3591247717,
				"element": "C" 
			},
			{
				"x": -1.5799661364,
				"y": -0.9723401091,
				"z": -0.0345713768,
				"element": "C" 
			},
			{
				"x": 2.3752683999,
				"y": 0.3249239621,
				"z": 1.6650142574,
				"element": "H" 
			},
			{
				"x": -1.0578227081,
				"y": -1.3458538212,
				"z": 3.0232174538,
				"element": "H" 
			},
			{
				"x": 1.8234585335,
				"y": 0.6496019363,
				"z": -1.2019020676,
				"element": "H" 
			},
			{
				"x": -0.0063000592,
				"y": 0.2094459458,
				"z": -2.820080353,
				"element": "H" 
			},
			{
				"x": -2.1391928309,
				"y": -0.8053221668,
				"z": -2.0971884427,
				"element": "H" 
			},
			{
				"x": -2.51991026,
				"y": -1.4182931343,
				"z": 0.2775834131,
				"element": "H" 
			}
		],
		 "valence_orbital": [ 
			{
				"type": "occ",
				"energy": -0.34523,
				"method": "rhf"
			},
			{
				"type": "occ",
				"energy": -0.29007,
				"method": "rhf"
			},
			{
				"type": "occ",
				"energy": -0.28997,
				"method": "rhf"
			},
			{
				"type": "occ",
				"energy": -0.23958,
				"method": "rhf"
			},
			{
				"type": "occ",
				"energy": -0.21992,
				"method": "rhf"
			},
			{
				"type": "unocc",
				"energy": -0.027,
				"method": "rhf"
			},
			{
				"type": "unocc",
				"energy": 0.01966,
				"method": "rhf"
			},
			{
				"type": "unocc",
				"energy": 0.06029,
				"method": "rhf"
			},
			{
				"type": "unocc",
				"energy": 0.08565,
				"method": "rhf"
			},
			{
				"type": "unocc",
				"energy": 0.09908,
				"method": "rhf"
			}
		],
		"cosmo_sigma_profile": { 
			"-0.025": 0.0,
			"-0.024": 0.0,
			"-0.023": 0.0,
			"-0.022": 0.0,
			"-0.021": 0.0,
			"-0.02": 0.0,
			"-0.019": 0.0,
			"-0.018": 0.0,
			"-0.017": 0.171684862801,
			"-0.016": 1.18878762699,
			"-0.015": 1.87873875584,
			"-0.014": 0.783574138236,
			"-0.013": 0.902699041492,
			"-0.012": 0.907497089085,
			"-0.011": 0.992444010487,
			"-0.01": 1.54992300024,
			"-0.009": 0.808106873994,
			"-0.008": 1.20355164803,
			"-0.007": 4.46647656063,
			"-0.006": 7.58825199252,
			"-0.005": 10.3113220648,
			"-0.004": 11.2332320917,
			"-0.003": 10.2650237616,
			"-0.002": 7.33711765686,
			"-0.001": 7.41306044763,
			"0.0": 6.78598824358,
			"0.001": 7.1570395664,
			"0.002": 9.48091314837,
			"0.003": 14.6493883352,
			"0.004": 13.9252873313,
			"0.005": 12.0287091827,
			"0.006": 6.76492809486,
			"0.007": 1.46971012798,
			"0.008": 1.4397268774,
			"0.009": 2.0309337906,
			"0.01": 0.785557908748,
			"0.011": 1.00881161497,
			"0.012": 1.29327136803,
			"0.013": 1.29122802714,
			"0.014": 1.18034603203,
			"0.015": 0.904267961013,
			"0.016": 0.269861349729,
			"0.017": 0.0,
			"0.018": 0.0,
			"0.019": 0.0,
			"0.02": 0.0,
			"0.021": 0.0,
			"0.022": 0.0,
			"0.023": 0.0,
			"0.024": 0.0,
			"0.025": 0.0
		}
	}
}
