{
	 "smiles": "OC(=O)C1=NN(C2=C1CCC2)C1=C(F)C=CC=C1", 
	 "Tm": 468.15, 
	 "num_atms": 29, 
	 "gaussian": { 
		 "optdone": 1, 
		 "sigma_profile": "yes", 
		 "theory": "DFT", 
		 "functional": "B3LYP", 
		 "basiset": "6-31G**", 
		 "properties": { 
			 "R2extent": 4795.2321, 
			 "electric_dipole_moment_norm": 7.80128627663, 
			 "electric_quadrupole_moment_norm": 14.2230854965, 
			 "total_energy": -861.784242919, 
			 "HOMO_LUMO_gap": 0.19533, 
			 "cosmo_polarized_energy": -14.85, 
			 "cosmo_cavitation_energy": 33.76, 
			 "cosmo_dispersion_energy": -24.08, 
			 "cosmo_repulsion_energy": 1.86, 
			 "cosmo_total_nonelectrostatic_energy": 11.54, 
			 "SMD_solvation_energy": 6.27 
		},
		"coords": [
			{
				"x": 3.0125103019,
				"y": -0.1010436819,
				"z": 2.4017455027,
				"element": "O" 
			},
			{
				"x": 1.9251996362,
				"y": -0.9031498131,
				"z": 2.4054740785,
				"element": "C" 
			},
			{
				"x": 1.7723450178,
				"y": -1.7810028614,
				"z": 3.2247820318,
				"element": "O" 
			},
			{
				"x": 0.9448606421,
				"y": -0.6178271471,
				"z": 1.329370209,
				"element": "C" 
			},
			{
				"x": 1.1838612895,
				"y": 0.3809918779,
				"z": 0.4681406164,
				"element": "N" 
			},
			{
				"x": 0.1277929849,
				"y": 0.3889338606,
				"z": -0.3866846483,
				"element": "N" 
			},
			{
				"x": -0.7626058595,
				"y": -0.6004948101,
				"z": -0.0642773449,
				"element": "C" 
			},
			{
				"x": -0.2718538762,
				"y": -1.2669107503,
				"z": 1.0291107823,
				"element": "C" 
			},
			{
				"x": -1.1938588235,
				"y": -2.3710407214,
				"z": 1.4564872366,
				"element": "C" 
			},
			{
				"x": -2.1549446261,
				"y": -2.4802174358,
				"z": 0.2236420781,
				"element": "C" 
			},
			{
				"x": -2.0737660504,
				"y": -1.1273866537,
				"z": -0.5653861229,
				"element": "C" 
			},
			{
				"x": 0.0439200301,
				"y": 1.34202888,
				"z": -1.4338485448,
				"element": "C" 
			},
			{
				"x": 1.1397152978,
				"y": 1.5890480327,
				"z": -2.2709362883,
				"element": "C" 
			},
			{
				"x": 2.2828617202,
				"y": 0.9111168722,
				"z": -2.0909196417,
				"element": "F" 
			},
			{
				"x": 1.0620734709,
				"y": 2.5161865555,
				"z": -3.302609382,
				"element": "C" 
			},
			{
				"x": -0.1333806201,
				"y": 3.2013790307,
				"z": -3.521993718,
				"element": "C" 
			},
			{
				"x": -1.2394095389,
				"y": 2.9591291137,
				"z": -2.7054858355,
				"element": "C" 
			},
			{
				"x": -1.1464365372,
				"y": 2.0401516176,
				"z": -1.6611582282,
				"element": "C" 
			},
			{
				"x": 2.923375388,
				"y": 0.5195725064,
				"z": 1.6557163168,
				"element": "H" 
			},
			{
				"x": -0.6787047813,
				"y": -3.3126152081,
				"z": 1.6650005884,
				"element": "H" 
			},
			{
				"x": -1.7356944894,
				"y": -2.1004009838,
				"z": 2.3714836873,
				"element": "H" 
			},
			{
				"x": -1.8039185577,
				"y": -3.2851163091,
				"z": -0.4295778212,
				"element": "H" 
			},
			{
				"x": -3.181149285,
				"y": -2.7217950453,
				"z": 0.5127063852,
				"element": "H" 
			},
			{
				"x": -2.1110433609,
				"y": -1.2735198944,
				"z": -1.649864255,
				"element": "H" 
			},
			{
				"x": -2.9041731826,
				"y": -0.4580591868,
				"z": -0.3035471889,
				"element": "H" 
			},
			{
				"x": 1.9365852076,
				"y": 2.6751499009,
				"z": -3.9240549269,
				"element": "H" 
			},
			{
				"x": -0.1967559915,
				"y": 3.9230972963,
				"z": -4.3301412038,
				"element": "H" 
			},
			{
				"x": -2.1690641541,
				"y": 3.4942140741,
				"z": -2.8689265043,
				"element": "H" 
			},
			{
				"x": -1.9902412525,
				"y": 1.8656808835,
				"z": -1.0020478583,
				"element": "H" 
			}
		],
		 "valence_orbital": [ 
			{
				"type": "occ",
				"energy": -0.29455,
				"method": "rhf"
			},
			{
				"type": "occ",
				"energy": -0.27017,
				"method": "rhf"
			},
			{
				"type": "occ",
				"energy": -0.26153,
				"method": "rhf"
			},
			{
				"type": "occ",
				"energy": -0.25313,
				"method": "rhf"
			},
			{
				"type": "occ",
				"energy": -0.24202,
				"method": "rhf"
			},
			{
				"type": "unocc",
				"energy": -0.04669,
				"method": "rhf"
			},
			{
				"type": "unocc",
				"energy": -0.02364,
				"method": "rhf"
			},
			{
				"type": "unocc",
				"energy": -0.01385,
				"method": "rhf"
			},
			{
				"type": "unocc",
				"energy": 0.02808,
				"method": "rhf"
			},
			{
				"type": "unocc",
				"energy": 0.0624,
				"method": "rhf"
			}
		],
		"cosmo_sigma_profile": { 
			"-0.025": 0.0,
			"-0.024": 0.0,
			"-0.023": 0.0,
			"-0.022": 0.0,
			"-0.021": 0.0,
			"-0.02": 0.0,
			"-0.019": 0.0,
			"-0.018": 0.0,
			"-0.017": 0.0,
			"-0.016": 0.0,
			"-0.015": 0.0468031180424,
			"-0.014": 0.473694782018,
			"-0.013": 0.538350113361,
			"-0.012": 0.414357825592,
			"-0.011": 0.513158298897,
			"-0.01": 0.775201679856,
			"-0.009": 0.693367881345,
			"-0.008": 2.6822952438,
			"-0.007": 8.50334818051,
			"-0.006": 11.6521778103,
			"-0.005": 15.8491933866,
			"-0.004": 21.0168018066,
			"-0.003": 26.2425579858,
			"-0.002": 27.0307325982,
			"-0.001": 22.3840479226,
			"0.0": 22.0060966018,
			"0.001": 20.4591432841,
			"0.002": 18.3005317469,
			"0.003": 17.0281233028,
			"0.004": 11.8597417111,
			"0.005": 5.93572099544,
			"0.006": 5.5673210402,
			"0.007": 5.28408431971,
			"0.008": 3.79719040702,
			"0.009": 3.62257261513,
			"0.01": 5.18389112261,
			"0.011": 4.70885881073,
			"0.012": 5.18389138236,
			"0.013": 1.81484536149,
			"0.014": 0.190780554993,
			"0.015": 0.0,
			"0.016": 0.0,
			"0.017": 0.0,
			"0.018": 0.0,
			"0.019": 0.0,
			"0.02": 0.0,
			"0.021": 0.0,
			"0.022": 0.0,
			"0.023": 0.0,
			"0.024": 0.0,
			"0.025": 0.0
		}
	}
}
