{
	 "smiles": "CCCCOC(=O)CCCCC(=O)OCCCC", 
	 "Tm": 240.75, 
	 "num_atms": 44, 
	 "gaussian": { 
		 "optdone": 1, 
		 "sigma_profile": "yes", 
		 "theory": "DFT", 
		 "functional": "B3LYP", 
		 "basiset": "6-31G**", 
		 "properties": { 
			 "R2extent": 6390.9088, 
			 "electric_dipole_moment_norm": 3.39458751986, 
			 "electric_quadrupole_moment_norm": 7.37644592334, 
			 "total_energy": -850.111891306, 
			 "HOMO_LUMO_gap": 0.26689, 
			 "cosmo_polarized_energy": -10.99, 
			 "cosmo_cavitation_energy": 45.17, 
			 "cosmo_dispersion_energy": -29.15, 
			 "cosmo_repulsion_energy": 2.35, 
			 "cosmo_total_nonelectrostatic_energy": 18.37, 
			 "SMD_solvation_energy": 8.01 
		},
		"coords": [
			{
				"x": 2.8777536105,
				"y": -4.2044902006,
				"z": 0.142197116,
				"element": "C" 
			},
			{
				"x": 3.1997188864,
				"y": -2.7117571575,
				"z": 0.0200615693,
				"element": "C" 
			},
			{
				"x": 2.1518030161,
				"y": -1.8197142439,
				"z": 0.6984868188,
				"element": "C" 
			},
			{
				"x": 2.4823093992,
				"y": -0.3431455802,
				"z": 0.5595300814,
				"element": "C" 
			},
			{
				"x": 1.4515407182,
				"y": 0.403685888,
				"z": 1.2531545502,
				"element": "O" 
			},
			{
				"x": 1.5365058226,
				"y": 1.7464439619,
				"z": 1.1755441329,
				"element": "C" 
			},
			{
				"x": 2.4372261367,
				"y": 2.3356089938,
				"z": 0.6130162904,
				"element": "O" 
			},
			{
				"x": 0.3694422542,
				"y": 2.4093242631,
				"z": 1.8854178825,
				"element": "C" 
			},
			{
				"x": -1.0257800462,
				"y": 2.0255938503,
				"z": 1.3489844257,
				"element": "C" 
			},
			{
				"x": -1.3952225442,
				"y": 2.6138640964,
				"z": -0.0240456233,
				"element": "C" 
			},
			{
				"x": -0.6085042258,
				"y": 2.0664487818,
				"z": -1.2304481755,
				"element": "C" 
			},
			{
				"x": -0.7651538757,
				"y": 0.5782138682,
				"z": -1.4820130022,
				"element": "C" 
			},
			{
				"x": 0.1455621752,
				"y": -0.1893062963,
				"z": -1.7207086575,
				"element": "O" 
			},
			{
				"x": -2.0627707943,
				"y": 0.1969031198,
				"z": -1.4550430162,
				"element": "O" 
			},
			{
				"x": -2.3188470991,
				"y": -1.1952525291,
				"z": -1.7628228852,
				"element": "C" 
			},
			{
				"x": -3.8204213239,
				"y": -1.4191991436,
				"z": -1.8906908575,
				"element": "C" 
			},
			{
				"x": -4.6222262723,
				"y": -1.4455641098,
				"z": -0.5780706487,
				"element": "C" 
			},
			{
				"x": -4.7479946317,
				"y": -0.0998634432,
				"z": 0.1452988417,
				"element": "C" 
			},
			{
				"x": 2.8278338112,
				"y": -4.5150350734,
				"z": 1.1921209166,
				"element": "H" 
			},
			{
				"x": 3.6386825989,
				"y": -4.8183228576,
				"z": -0.3505394907,
				"element": "H" 
			},
			{
				"x": 1.9113189707,
				"y": -4.438737458,
				"z": -0.3181544965,
				"element": "H" 
			},
			{
				"x": 3.2741884142,
				"y": -2.4394781423,
				"z": -1.0408204797,
				"element": "H" 
			},
			{
				"x": 4.1880175828,
				"y": -2.5143627588,
				"z": 0.4572263351,
				"element": "H" 
			},
			{
				"x": 2.0747093806,
				"y": -2.0762585954,
				"z": 1.7631504092,
				"element": "H" 
			},
			{
				"x": 1.1673057045,
				"y": -1.9967670264,
				"z": 0.2500743469,
				"element": "H" 
			},
			{
				"x": 3.4530533184,
				"y": -0.0935692214,
				"z": 1.0018140142,
				"element": "H" 
			},
			{
				"x": 2.4888437172,
				"y": -0.0320601842,
				"z": -0.4878997135,
				"element": "H" 
			},
			{
				"x": 0.4271722234,
				"y": 2.1193433522,
				"z": 2.941566932,
				"element": "H" 
			},
			{
				"x": 0.527811559,
				"y": 3.489673404,
				"z": 1.8266155377,
				"element": "H" 
			},
			{
				"x": -1.7671587843,
				"y": 2.3804743184,
				"z": 2.0745962213,
				"element": "H" 
			},
			{
				"x": -1.1129910086,
				"y": 0.9332814688,
				"z": 1.3308286091,
				"element": "H" 
			},
			{
				"x": -1.2559390276,
				"y": 3.7020187643,
				"z": 0.0033437698,
				"element": "H" 
			},
			{
				"x": -2.4619027237,
				"y": 2.4411373877,
				"z": -0.1997265739,
				"element": "H" 
			},
			{
				"x": -0.9625484563,
				"y": 2.57745295,
				"z": -2.1355090847,
				"element": "H" 
			},
			{
				"x": 0.4608356919,
				"y": 2.2691650657,
				"z": -1.1497139598,
				"element": "H" 
			},
			{
				"x": -1.8008114329,
				"y": -1.4393050679,
				"z": -2.6950138951,
				"element": "H" 
			},
			{
				"x": -1.8815608472,
				"y": -1.8173006885,
				"z": -0.9731657682,
				"element": "H" 
			},
			{
				"x": -4.2315920846,
				"y": -0.6635578583,
				"z": -2.5724960203,
				"element": "H" 
			},
			{
				"x": -3.945779609,
				"y": -2.3871430248,
				"z": -2.3934235977,
				"element": "H" 
			},
			{
				"x": -4.1714155491,
				"y": -2.1855483538,
				"z": 0.0977248651,
				"element": "H" 
			},
			{
				"x": -5.6278769559,
				"y": -1.8213871134,
				"z": -0.8054784887,
				"element": "H" 
			},
			{
				"x": -3.7746601097,
				"y": 0.2775869344,
				"z": 0.4678653303,
				"element": "H" 
			},
			{
				"x": -5.1946213403,
				"y": 0.6576975003,
				"z": -0.508783316,
				"element": "H" 
			},
			{
				"x": -5.3861562493,
				"y": -0.1937918408,
				"z": 1.0303487549,
				"element": "H" 
			}
		],
		 "valence_orbital": [ 
			{
				"type": "occ",
				"energy": -0.32108,
				"method": "rhf"
			},
			{
				"type": "occ",
				"energy": -0.29821,
				"method": "rhf"
			},
			{
				"type": "occ",
				"energy": -0.28888,
				"method": "rhf"
			},
			{
				"type": "occ",
				"energy": -0.26704,
				"method": "rhf"
			},
			{
				"type": "occ",
				"energy": -0.25769,
				"method": "rhf"
			},
			{
				"type": "unocc",
				"energy": 0.0092,
				"method": "rhf"
			},
			{
				"type": "unocc",
				"energy": 0.01876,
				"method": "rhf"
			},
			{
				"type": "unocc",
				"energy": 0.07379,
				"method": "rhf"
			},
			{
				"type": "unocc",
				"energy": 0.09138,
				"method": "rhf"
			},
			{
				"type": "unocc",
				"energy": 0.09592,
				"method": "rhf"
			}
		],
		"cosmo_sigma_profile": { 
			"-0.025": 0.0,
			"-0.024": 0.0,
			"-0.023": 0.0,
			"-0.022": 0.0,
			"-0.021": 0.0,
			"-0.02": 0.0,
			"-0.019": 0.0,
			"-0.018": 0.0,
			"-0.017": 0.0,
			"-0.016": 0.0,
			"-0.015": 0.0,
			"-0.014": 0.0,
			"-0.013": 0.0,
			"-0.012": 0.0,
			"-0.011": 0.0,
			"-0.01": 0.0,
			"-0.009": 0.0,
			"-0.008": 0.0,
			"-0.007": 0.218525380878,
			"-0.006": 3.84452519219,
			"-0.005": 9.41634490991,
			"-0.004": 23.798656901,
			"-0.003": 43.531011183,
			"-0.002": 60.295992513,
			"-0.001": 53.9100201919,
			"0.0": 44.8851556501,
			"0.001": 33.213773855,
			"0.002": 18.4479185776,
			"0.003": 9.18879373,
			"0.004": 7.13963419751,
			"0.005": 7.5547105444,
			"0.006": 6.58476697959,
			"0.007": 4.31585427195,
			"0.008": 3.3743264915,
			"0.009": 3.02569142413,
			"0.01": 3.49281307285,
			"0.011": 3.82111352456,
			"0.012": 6.2472001807,
			"0.013": 2.34550455977,
			"0.014": 0.236160019438,
			"0.015": 0.0,
			"0.016": 0.0,
			"0.017": 0.0,
			"0.018": 0.0,
			"0.019": 0.0,
			"0.02": 0.0,
			"0.021": 0.0,
			"0.022": 0.0,
			"0.023": 0.0,
			"0.024": 0.0,
			"0.025": 0.0
		}
	}
}
