{
	 "smiles": "BrCCN1C(=O)CCC1=O", 
	 "Tm": 327.15, 
	 "num_atms": 18, 
	 "gaussian": { 
		 "optdone": 1, 
		 "sigma_profile": "yes", 
		 "theory": "DFT", 
		 "functional": "B3LYP", 
		 "basiset": "6-31G**", 
		 "properties": { 
			 "R2extent": 2632.2572, 
			 "electric_dipole_moment_norm": 2.15854626311, 
			 "electric_quadrupole_moment_norm": 17.6975644497, 
			 "total_energy": -3010.10264269, 
			 "HOMO_LUMO_gap": 0.24047, 
			 "cosmo_polarized_energy": -13.29, 
			 "cosmo_cavitation_energy": 23.83, 
			 "cosmo_dispersion_energy": -17.52, 
			 "cosmo_repulsion_energy": 1.45, 
			 "cosmo_total_nonelectrostatic_energy": 7.77, 
			 "SMD_solvation_energy": 4.17 
		},
		"coords": [
			{
				"x": 0.7744079054,
				"y": -2.9817605365,
				"z": 1.1718312354,
				"element": "Br" 
			},
			{
				"x": -0.8837776279,
				"y": -2.124674698,
				"z": 0.523631999,
				"element": "C" 
			},
			{
				"x": -1.0628864714,
				"y": -0.7146445119,
				"z": 1.0722092146,
				"element": "C" 
			},
			{
				"x": -0.0072424549,
				"y": 0.2039912597,
				"z": 0.674922634,
				"element": "N" 
			},
			{
				"x": 0.8517867653,
				"y": 0.8201028203,
				"z": 1.5944053294,
				"element": "C" 
			},
			{
				"x": 0.784936944,
				"y": 0.6859503006,
				"z": 2.7961223042,
				"element": "O" 
			},
			{
				"x": 1.838080116,
				"y": 1.6736255171,
				"z": 0.8031199574,
				"element": "C" 
			},
			{
				"x": 1.4072965128,
				"y": 1.5371470229,
				"z": -0.6658800751,
				"element": "C" 
			},
			{
				"x": 0.2254477121,
				"y": 0.5731885403,
				"z": -0.6479380548,
				"element": "C" 
			},
			{
				"x": -0.424709384,
				"y": 0.1761459701,
				"z": -1.5944285801,
				"element": "O" 
			},
			{
				"x": -0.81922229,
				"y": -2.1250330813,
				"z": -0.5621312442,
				"element": "H" 
			},
			{
				"x": -1.7013144069,
				"y": -2.7654009273,
				"z": 0.8529940767,
				"element": "H" 
			},
			{
				"x": -2.0204394387,
				"y": -0.3343847498,
				"z": 0.69461359,
				"element": "H" 
			},
			{
				"x": -1.083019192,
				"y": -0.709306903,
				"z": 2.1637052968,
				"element": "H" 
			},
			{
				"x": 1.8009113204,
				"y": 2.6988827835,
				"z": 1.1807520161,
				"element": "H" 
			},
			{
				"x": 2.8474658864,
				"y": 1.2978874706,
				"z": 0.9940962997,
				"element": "H" 
			},
			{
				"x": 2.1852209495,
				"y": 1.1263434989,
				"z": -1.3152566889,
				"element": "H" 
			},
			{
				"x": 1.0817571539,
				"y": 2.4804402238,
				"z": -1.11386931,
				"element": "H" 
			}
		],
		 "valence_orbital": [ 
			{
				"type": "occ",
				"energy": -0.29198,
				"method": "rhf"
			},
			{
				"type": "occ",
				"energy": -0.28814,
				"method": "rhf"
			},
			{
				"type": "occ",
				"energy": -0.27744,
				"method": "rhf"
			},
			{
				"type": "occ",
				"energy": -0.27199,
				"method": "rhf"
			},
			{
				"type": "occ",
				"energy": -0.26473,
				"method": "rhf"
			},
			{
				"type": "unocc",
				"energy": -0.02426,
				"method": "rhf"
			},
			{
				"type": "unocc",
				"energy": -0.00103,
				"method": "rhf"
			},
			{
				"type": "unocc",
				"energy": 0.0175,
				"method": "rhf"
			},
			{
				"type": "unocc",
				"energy": 0.08124,
				"method": "rhf"
			},
			{
				"type": "unocc",
				"energy": 0.1017,
				"method": "rhf"
			}
		],
		"cosmo_sigma_profile": { 
			"-0.025": 0.0,
			"-0.024": 0.0,
			"-0.023": 0.0,
			"-0.022": 0.0,
			"-0.021": 0.0,
			"-0.02": 0.0,
			"-0.019": 0.0,
			"-0.018": 0.0,
			"-0.017": 0.0,
			"-0.016": 0.0,
			"-0.015": 0.0,
			"-0.014": 0.0,
			"-0.013": 0.0,
			"-0.012": 0.0,
			"-0.011": 0.0,
			"-0.01": 0.0,
			"-0.009": 0.142448615312,
			"-0.008": 4.42411516544,
			"-0.007": 18.7501474811,
			"-0.006": 22.0648359705,
			"-0.005": 14.7041113914,
			"-0.004": 15.1947118679,
			"-0.003": 11.9045211469,
			"-0.002": 10.4459817007,
			"-0.001": 7.71051250241,
			"0.0": 6.27712592528,
			"0.001": 6.01576542786,
			"0.002": 6.85105987571,
			"0.003": 7.92465610692,
			"0.004": 8.70341038186,
			"0.005": 9.25644190831,
			"0.006": 12.6222206474,
			"0.007": 2.53376043373,
			"0.008": 2.29758863171,
			"0.009": 3.64154601953,
			"0.01": 4.14953244548,
			"0.011": 7.06468394894,
			"0.012": 7.14844962055,
			"0.013": 1.93466633104,
			"0.014": 0.0100504391307,
			"0.015": 0.0,
			"0.016": 0.0,
			"0.017": 0.0,
			"0.018": 0.0,
			"0.019": 0.0,
			"0.02": 0.0,
			"0.021": 0.0,
			"0.022": 0.0,
			"0.023": 0.0,
			"0.024": 0.0,
			"0.025": 0.0
		}
	}
}
