{
	 "smiles": "CCCCCCCCC=CCCCCCCCC(=O)OC", 
	 "Tm": 282.65, 
	 "num_atms": 57, 
	 "gaussian": { 
		 "optdone": 1, 
		 "sigma_profile": "yes", 
		 "theory": "DFT", 
		 "functional": "B3LYP", 
		 "basiset": "6-31G**", 
		 "properties": { 
			 "R2extent": 16758.0225, 
			 "electric_dipole_moment_norm": 1.89503450364, 
			 "electric_quadrupole_moment_norm": 17.0258379764, 
			 "total_energy": -896.19640934, 
			 "HOMO_LUMO_gap": 0.24645, 
			 "cosmo_polarized_energy": -7.7, 
			 "cosmo_cavitation_energy": 56.33, 
			 "cosmo_dispersion_energy": -36.9, 
			 "cosmo_repulsion_energy": 2.95, 
			 "cosmo_total_nonelectrostatic_energy": 22.38, 
			 "SMD_solvation_energy": 9.03 
		},
		"coords": [
			{
				"x": -4.5637014683,
				"y": -1.4277888767,
				"z": -4.8981036888,
				"element": "C" 
			},
			{
				"x": -4.8523790244,
				"y": -2.4420065591,
				"z": -3.7862171932,
				"element": "C" 
			},
			{
				"x": -5.9029678234,
				"y": -1.9469261485,
				"z": -2.7826548298,
				"element": "C" 
			},
			{
				"x": -6.2764198504,
				"y": -2.9598765475,
				"z": -1.6869027561,
				"element": "C" 
			},
			{
				"x": -5.1726941698,
				"y": -3.3545437441,
				"z": -0.6855684459,
				"element": "C" 
			},
			{
				"x": -4.6668228526,
				"y": -2.2125708049,
				"z": 0.2267421603,
				"element": "C" 
			},
			{
				"x": -3.4184733592,
				"y": -1.4526110258,
				"z": -0.2610985571,
				"element": "C" 
			},
			{
				"x": -2.114268754,
				"y": -2.270396387,
				"z": -0.1660384999,
				"element": "C" 
			},
			{
				"x": -0.9159272038,
				"y": -1.5255929909,
				"z": -0.6882126812,
				"element": "C" 
			},
			{
				"x": 0.1562064294,
				"y": -1.1793049373,
				"z": 0.030463119,
				"element": "C" 
			},
			{
				"x": 1.3429287904,
				"y": -0.4189676431,
				"z": -0.4993860543,
				"element": "C" 
			},
			{
				"x": 1.5059162976,
				"y": 0.9989591641,
				"z": 0.0959784556,
				"element": "C" 
			},
			{
				"x": 1.7136698706,
				"y": 1.073786855,
				"z": 1.6192456666,
				"element": "C" 
			},
			{
				"x": 3.0082581389,
				"y": 0.4127818179,
				"z": 2.116668944,
				"element": "C" 
			},
			{
				"x": 3.2111031915,
				"y": 0.480488213,
				"z": 3.6415495471,
				"element": "C" 
			},
			{
				"x": 3.388400054,
				"y": 1.8770035824,
				"z": 4.2652315788,
				"element": "C" 
			},
			{
				"x": 4.6801686164,
				"y": 2.62007918,
				"z": 3.8617391891,
				"element": "C" 
			},
			{
				"x": 4.6847911145,
				"y": 3.2427443398,
				"z": 2.4794513758,
				"element": "C" 
			},
			{
				"x": 5.5126478829,
				"y": 3.0440244793,
				"z": 1.6157062193,
				"element": "O" 
			},
			{
				"x": 3.6482811153,
				"y": 4.103103094,
				"z": 2.3239670736,
				"element": "O" 
			},
			{
				"x": 3.5921943485,
				"y": 4.7736447537,
				"z": 1.0543916733,
				"element": "C" 
			},
			{
				"x": -4.1833138297,
				"y": -0.4857000293,
				"z": -4.4863840953,
				"element": "H" 
			},
			{
				"x": -3.8171327074,
				"y": -1.8066138243,
				"z": -5.6039312475,
				"element": "H" 
			},
			{
				"x": -5.4711682238,
				"y": -1.1943448253,
				"z": -5.466849882,
				"element": "H" 
			},
			{
				"x": -5.1982485905,
				"y": -3.3853919711,
				"z": -4.2310391496,
				"element": "H" 
			},
			{
				"x": -3.917083322,
				"y": -2.6803683193,
				"z": -3.2640282846,
				"element": "H" 
			},
			{
				"x": -5.560173603,
				"y": -1.0083496354,
				"z": -2.3266941807,
				"element": "H" 
			},
			{
				"x": -6.8167672982,
				"y": -1.6884979548,
				"z": -3.3356821593,
				"element": "H" 
			},
			{
				"x": -7.126172343,
				"y": -2.5590760066,
				"z": -1.1171610729,
				"element": "H" 
			},
			{
				"x": -6.6456701529,
				"y": -3.874477805,
				"z": -2.1718548109,
				"element": "H" 
			},
			{
				"x": -4.3299977688,
				"y": -3.8139276535,
				"z": -1.2174893267,
				"element": "H" 
			},
			{
				"x": -5.5832913826,
				"y": -4.1518775564,
				"z": -0.0537260825,
				"element": "H" 
			},
			{
				"x": -5.484180595,
				"y": -1.4953015222,
				"z": 0.3813310202,
				"element": "H" 
			},
			{
				"x": -4.4420484279,
				"y": -2.6206621668,
				"z": 1.2213018497,
				"element": "H" 
			},
			{
				"x": -3.295486091,
				"y": -0.5423042363,
				"z": 0.3392651809,
				"element": "H" 
			},
			{
				"x": -3.5578506434,
				"y": -1.1151614243,
				"z": -1.2955907438,
				"element": "H" 
			},
			{
				"x": -2.2329006423,
				"y": -3.2059825945,
				"z": -0.7319634841,
				"element": "H" 
			},
			{
				"x": -1.9437635579,
				"y": -2.5613282881,
				"z": 0.8787767169,
				"element": "H" 
			},
			{
				"x": -0.9506455453,
				"y": -1.246889127,
				"z": -1.7441870436,
				"element": "H" 
			},
			{
				"x": 0.1867575708,
				"y": -1.4619230946,
				"z": 1.0842413452,
				"element": "H" 
			},
			{
				"x": 1.2554297923,
				"y": -0.328944022,
				"z": -1.5890337841,
				"element": "H" 
			},
			{
				"x": 2.2599732174,
				"y": -0.995352299,
				"z": -0.3137440766,
				"element": "H" 
			},
			{
				"x": 2.3566980354,
				"y": 1.4844825797,
				"z": -0.4022857811,
				"element": "H" 
			},
			{
				"x": 0.6160074415,
				"y": 1.5847835881,
				"z": -0.1669790403,
				"element": "H" 
			},
			{
				"x": 0.8542063336,
				"y": 0.6212741377,
				"z": 2.1327035944,
				"element": "H" 
			},
			{
				"x": 1.7128239066,
				"y": 2.1318370611,
				"z": 1.9069780349,
				"element": "H" 
			},
			{
				"x": 3.8694156101,
				"y": 0.8571155076,
				"z": 1.6014407286,
				"element": "H" 
			},
			{
				"x": 3.0091882382,
				"y": -0.6469323132,
				"z": 1.83174144,
				"element": "H" 
			},
			{
				"x": 2.3522186142,
				"y": -0.0002015808,
				"z": 4.1300159925,
				"element": "H" 
			},
			{
				"x": 4.0863070894,
				"y": -0.1284572432,
				"z": 3.9061325772,
				"element": "H" 
			},
			{
				"x": 3.4089566126,
				"y": 1.7557174639,
				"z": 5.3548931067,
				"element": "H" 
			},
			{
				"x": 2.5257359974,
				"y": 2.5153452289,
				"z": 4.0482493983,
				"element": "H" 
			},
			{
				"x": 5.5479313987,
				"y": 1.9569730808,
				"z": 3.915041004,
				"element": "H" 
			},
			{
				"x": 4.8463384092,
				"y": 3.440975818,
				"z": 4.5707258303,
				"element": "H" 
			},
			{
				"x": 3.4764242439,
				"y": 4.0522548346,
				"z": 0.2415677301,
				"element": "H" 
			},
			{
				"x": 4.5040876063,
				"y": 5.3512347099,
				"z": 0.8837153812,
				"element": "H" 
			},
			{
				"x": 2.7251832633,
				"y": 5.4322416684,
				"z": 1.1064510178,
				"element": "H" 
			}
		],
		 "valence_orbital": [ 
			{
				"type": "occ",
				"energy": -0.30364,
				"method": "rhf"
			},
			{
				"type": "occ",
				"energy": -0.30103,
				"method": "rhf"
			},
			{
				"type": "occ",
				"energy": -0.29705,
				"method": "rhf"
			},
			{
				"type": "occ",
				"energy": -0.26485,
				"method": "rhf"
			},
			{
				"type": "occ",
				"energy": -0.23399,
				"method": "rhf"
			},
			{
				"type": "unocc",
				"energy": 0.01246,
				"method": "rhf"
			},
			{
				"type": "unocc",
				"energy": 0.02849,
				"method": "rhf"
			},
			{
				"type": "unocc",
				"energy": 0.07544,
				"method": "rhf"
			},
			{
				"type": "unocc",
				"energy": 0.07626,
				"method": "rhf"
			},
			{
				"type": "unocc",
				"energy": 0.09324,
				"method": "rhf"
			}
		],
		"cosmo_sigma_profile": { 
			"-0.025": 0.0,
			"-0.024": 0.0,
			"-0.023": 0.0,
			"-0.022": 0.0,
			"-0.021": 0.0,
			"-0.02": 0.0,
			"-0.019": 0.0,
			"-0.018": 0.0,
			"-0.017": 0.0,
			"-0.016": 0.0,
			"-0.015": 0.0,
			"-0.014": 0.0,
			"-0.013": 0.0,
			"-0.012": 0.0,
			"-0.011": 0.0,
			"-0.01": 0.0,
			"-0.009": 0.0,
			"-0.008": 0.0,
			"-0.007": 0.189677197007,
			"-0.006": 4.38428420581,
			"-0.005": 8.50073370587,
			"-0.004": 12.6367313697,
			"-0.003": 30.2163693983,
			"-0.002": 67.5268825149,
			"-0.001": 87.1744044229,
			"0.0": 81.4737747001,
			"0.001": 65.3818769929,
			"0.002": 30.0632781019,
			"0.003": 8.21684624485,
			"0.004": 7.4845797356,
			"0.005": 5.8021194402,
			"0.006": 5.12210172517,
			"0.007": 4.55411550791,
			"0.008": 2.3948000899,
			"0.009": 1.46867610566,
			"0.01": 1.60548591918,
			"0.011": 2.43201153781,
			"0.012": 4.5318998998,
			"0.013": 2.09319948147,
			"0.014": 0.255714652852,
			"0.015": 0.0,
			"0.016": 0.0,
			"0.017": 0.0,
			"0.018": 0.0,
			"0.019": 0.0,
			"0.02": 0.0,
			"0.021": 0.0,
			"0.022": 0.0,
			"0.023": 0.0,
			"0.024": 0.0,
			"0.025": 0.0
		}
	}
}
