{
	 "smiles": "NC1=CC(Cl)=C(C=C1)N1CCCC1=O", 
	 "Tm": 458.15, 
	 "num_atms": 25, 
	 "gaussian": { 
		 "optdone": 1, 
		 "sigma_profile": "yes", 
		 "theory": "DFT", 
		 "functional": "B3LYP", 
		 "basiset": "6-31G**", 
		 "properties": { 
			 "R2extent": 3369.5725, 
			 "electric_dipole_moment_norm": 2.73563720548, 
			 "electric_quadrupole_moment_norm": 20.8649290238, 
			 "total_energy": -1032.63126781, 
			 "HOMO_LUMO_gap": 0.19669, 
			 "cosmo_polarized_energy": -15.97, 
			 "cosmo_cavitation_energy": 29.88, 
			 "cosmo_dispersion_energy": -21.7, 
			 "cosmo_repulsion_energy": 1.73, 
			 "cosmo_total_nonelectrostatic_energy": 9.92, 
			 "SMD_solvation_energy": 5.19 
		},
		"coords": [
			{
				"x": -2.9326734169,
				"y": 1.6087095643,
				"z": 3.1751981152,
				"element": "N" 
			},
			{
				"x": -2.0657161945,
				"y": 1.0073089407,
				"z": 2.2658501409,
				"element": "C" 
			},
			{
				"x": -2.3458781622,
				"y": 1.0291626022,
				"z": 0.8906861447,
				"element": "C" 
			},
			{
				"x": -1.4990400032,
				"y": 0.3860722184,
				"z": -0.0074233276,
				"element": "C" 
			},
			{
				"x": -1.8751512724,
				"y": 0.5213758155,
				"z": -1.7216200064,
				"element": "Cl" 
			},
			{
				"x": -0.3677711245,
				"y": -0.3258156358,
				"z": 0.4181980355,
				"element": "C" 
			},
			{
				"x": -0.1008036733,
				"y": -0.332432608,
				"z": 1.7948929742,
				"element": "C" 
			},
			{
				"x": -0.9198109132,
				"y": 0.3206395594,
				"z": 2.7046119048,
				"element": "C" 
			},
			{
				"x": 0.5007512542,
				"y": -1.0070908005,
				"z": -0.4725040729,
				"element": "N" 
			},
			{
				"x": 0.0948884033,
				"y": -2.1657345193,
				"z": -1.2801135698,
				"element": "C" 
			},
			{
				"x": 1.4405922946,
				"y": -2.8073278308,
				"z": -1.6797099983,
				"element": "C" 
			},
			{
				"x": 2.4306397491,
				"y": -1.6346150279,
				"z": -1.6470223571,
				"element": "C" 
			},
			{
				"x": 1.8385397915,
				"y": -0.6726261597,
				"z": -0.6161806146,
				"element": "C" 
			},
			{
				"x": 2.4150120496,
				"y": 0.2267351966,
				"z": -0.0319436662,
				"element": "O" 
			},
			{
				"x": -3.5139715139,
				"y": 2.3455708592,
				"z": 2.8006639006,
				"element": "H" 
			},
			{
				"x": -2.5188077406,
				"y": 1.8647659693,
				"z": 4.0607708917,
				"element": "H" 
			},
			{
				"x": -3.2161517124,
				"y": 1.5579064929,
				"z": 0.5160619102,
				"element": "H" 
			},
			{
				"x": 0.7822250328,
				"y": -0.8578885479,
				"z": 2.1416322546,
				"element": "H" 
			},
			{
				"x": -0.6802739791,
				"y": 0.2940822541,
				"z": 3.7640544306,
				"element": "H" 
			},
			{
				"x": -0.480132746,
				"y": -1.8492941049,
				"z": -2.1578421333,
				"element": "H" 
			},
			{
				"x": -0.5361749264,
				"y": -2.8367909453,
				"z": -0.688651076,
				"element": "H" 
			},
			{
				"x": 1.3827515711,
				"y": -3.3061095801,
				"z": -2.650258047,
				"element": "H" 
			},
			{
				"x": 1.7275293901,
				"y": -3.5573767338,
				"z": -0.9353157484,
				"element": "H" 
			},
			{
				"x": 2.4796813124,
				"y": -1.1104886206,
				"z": -2.6096240017,
				"element": "H" 
			},
			{
				"x": 3.4506465299,
				"y": -1.9067383581,
				"z": -1.3684120836,
				"element": "H" 
			}
		],
		 "valence_orbital": [ 
			{
				"type": "occ",
				"energy": -0.30476,
				"method": "rhf"
			},
			{
				"type": "occ",
				"energy": -0.24964,
				"method": "rhf"
			},
			{
				"type": "occ",
				"energy": -0.24683,
				"method": "rhf"
			},
			{
				"type": "occ",
				"energy": -0.23758,
				"method": "rhf"
			},
			{
				"type": "occ",
				"energy": -0.20596,
				"method": "rhf"
			},
			{
				"type": "unocc",
				"energy": -0.00927,
				"method": "rhf"
			},
			{
				"type": "unocc",
				"energy": 0.00078,
				"method": "rhf"
			},
			{
				"type": "unocc",
				"energy": 0.02976,
				"method": "rhf"
			},
			{
				"type": "unocc",
				"energy": 0.03847,
				"method": "rhf"
			},
			{
				"type": "unocc",
				"energy": 0.07389,
				"method": "rhf"
			}
		],
		"cosmo_sigma_profile": { 
			"-0.025": 0.0,
			"-0.024": 0.0,
			"-0.023": 0.0,
			"-0.022": 0.0,
			"-0.021": 0.0,
			"-0.02": 0.0,
			"-0.019": 0.0,
			"-0.018": 0.0,
			"-0.017": 0.0,
			"-0.016": 0.0,
			"-0.015": 0.0,
			"-0.014": 0.0,
			"-0.013": 1.54391601842,
			"-0.012": 3.05654598848,
			"-0.011": 2.89665381212,
			"-0.01": 3.56377499311,
			"-0.009": 3.52372764516,
			"-0.008": 3.50078062727,
			"-0.007": 3.76181830943,
			"-0.006": 6.81063665976,
			"-0.005": 14.0180841317,
			"-0.004": 20.980174058,
			"-0.003": 24.0266600827,
			"-0.002": 20.4683831101,
			"-0.001": 17.6179482958,
			"0.0": 12.6098526449,
			"0.001": 11.7540863462,
			"0.002": 15.0271203958,
			"0.003": 14.1122622214,
			"0.004": 18.7197603469,
			"0.005": 11.2301505139,
			"0.006": 3.07934403122,
			"0.007": 1.65707052477,
			"0.008": 2.70396612061,
			"0.009": 3.1011632696,
			"0.01": 1.8245454973,
			"0.011": 2.52099042554,
			"0.012": 3.24206098865,
			"0.013": 4.34284171432,
			"0.014": 5.82519978146,
			"0.015": 1.06901715441,
			"0.016": 0.0,
			"0.017": 0.0,
			"0.018": 0.0,
			"0.019": 0.0,
			"0.02": 0.0,
			"0.021": 0.0,
			"0.022": 0.0,
			"0.023": 0.0,
			"0.024": 0.0,
			"0.025": 0.0
		}
	}
}
