{
	 "smiles": "CC(C)(C)C1CCC2=C(C1)C=C(S2)C1=NN=C(CCl)O1", 
	 "Tm": 363.15, 
	 "num_atms": 39, 
	 "gaussian": { 
		 "optdone": 1, 
		 "sigma_profile": "yes", 
		 "theory": "DFT", 
		 "functional": "B3LYP", 
		 "basiset": "6-31G**", 
		 "properties": { 
			 "R2extent": 12867.3267, 
			 "electric_dipole_moment_norm": 5.17320665545, 
			 "electric_quadrupole_moment_norm": 28.6680447814, 
			 "total_energy": -1626.14365213, 
			 "HOMO_LUMO_gap": 0.16165, 
			 "cosmo_polarized_energy": -12.59, 
			 "cosmo_cavitation_energy": 43.53, 
			 "cosmo_dispersion_energy": -31.57, 
			 "cosmo_repulsion_energy": 2.37, 
			 "cosmo_total_nonelectrostatic_energy": 14.33, 
			 "SMD_solvation_energy": 4.32 
		},
		"coords": [
			{
				"x": -3.3006993079,
				"y": -1.5560109712,
				"z": -0.3656399199,
				"element": "C" 
			},
			{
				"x": -2.7323173301,
				"y": -1.3164234269,
				"z": 1.049954434,
				"element": "C" 
			},
			{
				"x": -3.5222246011,
				"y": -0.1709771929,
				"z": 1.7165635603,
				"element": "C" 
			},
			{
				"x": -2.9513981704,
				"y": -2.6109145852,
				"z": 1.8633350341,
				"element": "C" 
			},
			{
				"x": -1.1979422104,
				"y": -1.0063923528,
				"z": 0.9652961158,
				"element": "C" 
			},
			{
				"x": -0.549912389,
				"y": -0.65428938,
				"z": 2.322743014,
				"element": "C" 
			},
			{
				"x": 0.9877976614,
				"y": -0.6616825312,
				"z": 2.241896608,
				"element": "C" 
			},
			{
				"x": 1.4395415647,
				"y": 0.1191584008,
				"z": 1.0415605981,
				"element": "C" 
			},
			{
				"x": 0.6262564243,
				"y": 0.4648180122,
				"z": -0.0128344736,
				"element": "C" 
			},
			{
				"x": -0.8371126071,
				"y": 0.0904900418,
				"z": -0.0643505021,
				"element": "C" 
			},
			{
				"x": 1.3251051436,
				"y": 1.19620276,
				"z": -1.0165530371,
				"element": "C" 
			},
			{
				"x": 2.6533473377,
				"y": 1.395543993,
				"z": -0.7159337595,
				"element": "C" 
			},
			{
				"x": 3.0726863346,
				"y": 0.6800818645,
				"z": 0.8227041042,
				"element": "S" 
			},
			{
				"x": 3.6448132846,
				"y": 2.0829176526,
				"z": -1.497391452,
				"element": "C" 
			},
			{
				"x": 4.9114405545,
				"y": 2.2647547858,
				"z": -1.2350423559,
				"element": "N" 
			},
			{
				"x": 5.4342844457,
				"y": 2.981865208,
				"z": -2.3030218363,
				"element": "N" 
			},
			{
				"x": 4.4544060122,
				"y": 3.1861099635,
				"z": -3.1264207214,
				"element": "C" 
			},
			{
				"x": 4.4906158321,
				"y": 3.9168410593,
				"z": -4.4099359058,
				"element": "C" 
			},
			{
				"x": 4.2807771366,
				"y": 2.8112871891,
				"z": -5.8461172453,
				"element": "Cl" 
			},
			{
				"x": 3.2794634237,
				"y": 2.6485763051,
				"z": -2.687190634,
				"element": "O" 
			},
			{
				"x": -2.7270048268,
				"y": -2.3211130663,
				"z": -0.9019979349,
				"element": "H" 
			},
			{
				"x": -3.2997234046,
				"y": -0.6458154446,
				"z": -0.9727604396,
				"element": "H" 
			},
			{
				"x": -4.3377052028,
				"y": -1.9033557589,
				"z": -0.3037389275,
				"element": "H" 
			},
			{
				"x": -4.5929849216,
				"y": -0.4028071702,
				"z": 1.7186144034,
				"element": "H" 
			},
			{
				"x": -3.397023781,
				"y": 0.7789343088,
				"z": 1.1860205776,
				"element": "H" 
			},
			{
				"x": -3.2199597492,
				"y": -0.0171857081,
				"z": 2.757209826,
				"element": "H" 
			},
			{
				"x": -4.0152061391,
				"y": -2.8713163861,
				"z": 1.8851607029,
				"element": "H" 
			},
			{
				"x": -2.4125346696,
				"y": -3.4548160951,
				"z": 1.4173309719,
				"element": "H" 
			},
			{
				"x": -2.6220537754,
				"y": -2.5132053422,
				"z": 2.9021266547,
				"element": "H" 
			},
			{
				"x": -0.7222336364,
				"y": -1.935367951,
				"z": 0.6135551992,
				"element": "H" 
			},
			{
				"x": -0.8622474771,
				"y": -1.3553410652,
				"z": 3.1018980693,
				"element": "H" 
			},
			{
				"x": -0.8821267244,
				"y": 0.3418799926,
				"z": 2.6399721076,
				"element": "H" 
			},
			{
				"x": 1.4169968155,
				"y": -0.2474434235,
				"z": 3.1620430501,
				"element": "H" 
			},
			{
				"x": 1.3529003446,
				"y": -1.6965165544,
				"z": 2.1729012009,
				"element": "H" 
			},
			{
				"x": -1.4452099341,
				"y": 0.988881155,
				"z": 0.1134717435,
				"element": "H" 
			},
			{
				"x": -1.0819342817,
				"y": -0.2445308512,
				"z": -1.0776016705,
				"element": "H" 
			},
			{
				"x": 0.8708701718,
				"y": 1.560635341,
				"z": -1.9313884452,
				"element": "H" 
			},
			{
				"x": 5.4609301543,
				"y": 4.3996127377,
				"z": -4.5097934157,
				"element": "H" 
			},
			{
				"x": 3.6892224979,
				"y": 4.6532144863,
				"z": -4.4773452992,
				"element": "H" 
			}
		],
		 "valence_orbital": [ 
			{
				"type": "occ",
				"energy": -0.30715,
				"method": "rhf"
			},
			{
				"type": "occ",
				"energy": -0.29525,
				"method": "rhf"
			},
			{
				"type": "occ",
				"energy": -0.28149,
				"method": "rhf"
			},
			{
				"type": "occ",
				"energy": -0.25534,
				"method": "rhf"
			},
			{
				"type": "occ",
				"energy": -0.22303,
				"method": "rhf"
			},
			{
				"type": "unocc",
				"energy": -0.06138,
				"method": "rhf"
			},
			{
				"type": "unocc",
				"energy": -0.02341,
				"method": "rhf"
			},
			{
				"type": "unocc",
				"energy": 0.02004,
				"method": "rhf"
			},
			{
				"type": "unocc",
				"energy": 0.03127,
				"method": "rhf"
			},
			{
				"type": "unocc",
				"energy": 0.04801,
				"method": "rhf"
			}
		],
		"cosmo_sigma_profile": { 
			"-0.025": 0.0,
			"-0.024": 0.0,
			"-0.023": 0.0,
			"-0.022": 0.0,
			"-0.021": 0.0,
			"-0.02": 0.0,
			"-0.019": 0.0,
			"-0.018": 0.0,
			"-0.017": 0.0,
			"-0.016": 0.0,
			"-0.015": 0.0,
			"-0.014": 0.0,
			"-0.013": 0.0,
			"-0.012": 0.0,
			"-0.011": 0.00475981982314,
			"-0.01": 2.99223904684,
			"-0.009": 4.64606384733,
			"-0.008": 4.00459432639,
			"-0.007": 5.64597551885,
			"-0.006": 5.90124734809,
			"-0.005": 8.86652990014,
			"-0.004": 16.317316946,
			"-0.003": 27.0219875736,
			"-0.002": 53.9843183038,
			"-0.001": 45.5777700685,
			"0.0": 31.255179429,
			"0.001": 35.2916732795,
			"0.002": 31.5803879615,
			"0.003": 23.7283153347,
			"0.004": 12.535779749,
			"0.005": 12.1664681814,
			"0.006": 5.66127371468,
			"0.007": 2.14126564804,
			"0.008": 2.22090767181,
			"0.009": 2.04865392363,
			"0.01": 2.76825154527,
			"0.011": 3.37401259956,
			"0.012": 2.7112120499,
			"0.013": 2.17840378937,
			"0.014": 1.83857739527,
			"0.015": 0.127636072974,
			"0.016": 0.0,
			"0.017": 0.0,
			"0.018": 0.0,
			"0.019": 0.0,
			"0.02": 0.0,
			"0.021": 0.0,
			"0.022": 0.0,
			"0.023": 0.0,
			"0.024": 0.0,
			"0.025": 0.0
		}
	}
}
