{
	 "smiles": "COC1=CC(=CC=C1)C(=O)N(NC(=O)C1=CC=CC=C1)C(C)(C)C", 
	 "Tm": 461.15, 
	 "num_atms": 46, 
	 "gaussian": { 
		 "optdone": 1, 
		 "sigma_profile": "yes", 
		 "theory": "DFT", 
		 "functional": "B3LYP", 
		 "basiset": "6-31G**", 
		 "properties": { 
			 "R2extent": 8870.3684, 
			 "electric_dipole_moment_norm": 4.71554390924, 
			 "electric_quadrupole_moment_norm": 6.44812296099, 
			 "total_energy": -1072.44801696, 
			 "HOMO_LUMO_gap": 0.17353, 
			 "cosmo_polarized_energy": -18.63, 
			 "cosmo_cavitation_energy": 48.06, 
			 "cosmo_dispersion_energy": -31.83, 
			 "cosmo_repulsion_energy": 2.43, 
			 "cosmo_total_nonelectrostatic_energy": 18.66, 
			 "SMD_solvation_energy": 10.13 
		},
		"coords": [
			{
				"x": 2.7674672001,
				"y": -5.0124469147,
				"z": 0.4445238181,
				"element": "C" 
			},
			{
				"x": 3.5653016468,
				"y": -3.838919975,
				"z": 0.4504222374,
				"element": "O" 
			},
			{
				"x": 3.0106965947,
				"y": -2.6805230136,
				"z": -0.0131755695,
				"element": "C" 
			},
			{
				"x": 1.6931796907,
				"y": -2.5566833426,
				"z": -0.4592348324,
				"element": "C" 
			},
			{
				"x": 1.2177142655,
				"y": -1.3103737826,
				"z": -0.8979260026,
				"element": "C" 
			},
			{
				"x": 2.0669030228,
				"y": -0.2002946345,
				"z": -0.9306832055,
				"element": "C" 
			},
			{
				"x": 3.3889288451,
				"y": -0.3416932063,
				"z": -0.4981331995,
				"element": "C" 
			},
			{
				"x": 3.8605298081,
				"y": -1.563387973,
				"z": -0.0318954972,
				"element": "C" 
			},
			{
				"x": -0.1805952723,
				"y": -1.2883901809,
				"z": -1.4533855614,
				"element": "C" 
			},
			{
				"x": -0.5785000248,
				"y": -2.218567361,
				"z": -2.1463962881,
				"element": "O" 
			},
			{
				"x": -0.9859750218,
				"y": -0.1789601189,
				"z": -1.1771882507,
				"element": "N" 
			},
			{
				"x": -0.7493916449,
				"y": 0.4601746626,
				"z": 0.0343522279,
				"element": "N" 
			},
			{
				"x": -0.2657350115,
				"y": 1.7493307883,
				"z": 0.1211912856,
				"element": "C" 
			},
			{
				"x": 0.0109973084,
				"y": 2.4258365982,
				"z": -0.8600744637,
				"element": "O" 
			},
			{
				"x": -0.1072554778,
				"y": 2.2610366345,
				"z": 1.5236931214,
				"element": "C" 
			},
			{
				"x": 0.1539396826,
				"y": 1.4283945244,
				"z": 2.6221189393,
				"element": "C" 
			},
			{
				"x": 0.3044032555,
				"y": 1.9760223703,
				"z": 3.8965578833,
				"element": "C" 
			},
			{
				"x": 0.1943512963,
				"y": 3.3551117521,
				"z": 4.0831874819,
				"element": "C" 
			},
			{
				"x": -0.0499502504,
				"y": 4.1901027636,
				"z": 2.9893166325,
				"element": "C" 
			},
			{
				"x": -0.1910706588,
				"y": 3.6470850611,
				"z": 1.714711685,
				"element": "C" 
			},
			{
				"x": -2.373541874,
				"y": -0.0582986819,
				"z": -1.7748939539,
				"element": "C" 
			},
			{
				"x": -2.9666690082,
				"y": 1.3078634028,
				"z": -1.3940086255,
				"element": "C" 
			},
			{
				"x": -3.2795320643,
				"y": -1.1833074266,
				"z": -1.2376593678,
				"element": "C" 
			},
			{
				"x": -2.2539016655,
				"y": -0.1161431573,
				"z": -3.3090384526,
				"element": "C" 
			},
			{
				"x": 1.8846964199,
				"y": -4.9064351959,
				"z": 1.0886033361,
				"element": "H" 
			},
			{
				"x": 3.4017358645,
				"y": -5.80987323,
				"z": 0.8349109831,
				"element": "H" 
			},
			{
				"x": 2.4393012418,
				"y": -5.2743553881,
				"z": -0.5692987344,
				"element": "H" 
			},
			{
				"x": 1.022285336,
				"y": -3.4055793509,
				"z": -0.4983087734,
				"element": "H" 
			},
			{
				"x": 1.7097798792,
				"y": 0.7516315792,
				"z": -1.306392541,
				"element": "H" 
			},
			{
				"x": 4.0585409753,
				"y": 0.5129112691,
				"z": -0.5295680428,
				"element": "H" 
			},
			{
				"x": 4.8829434214,
				"y": -1.6848140561,
				"z": 0.3110650563,
				"element": "H" 
			},
			{
				"x": -1.1231795682,
				"y": 0.0192445521,
				"z": 0.8650663762,
				"element": "H" 
			},
			{
				"x": 0.2854358516,
				"y": 0.3592779052,
				"z": 2.4825782558,
				"element": "H" 
			},
			{
				"x": 0.5185397624,
				"y": 1.3268472665,
				"z": 4.7403998203,
				"element": "H" 
			},
			{
				"x": 0.3093608125,
				"y": 3.7793203307,
				"z": 5.0764732834,
				"element": "H" 
			},
			{
				"x": -0.1255472432,
				"y": 5.2642122656,
				"z": 3.1308499569,
				"element": "H" 
			},
			{
				"x": -0.3639596852,
				"y": 4.2782487268,
				"z": 0.8495143004,
				"element": "H" 
			},
			{
				"x": -3.9344129451,
				"y": 1.4119979257,
				"z": -1.8928505344,
				"element": "H" 
			},
			{
				"x": -3.1413523212,
				"y": 1.4008998682,
				"z": -0.3183317119,
				"element": "H" 
			},
			{
				"x": -2.3175004111,
				"y": 2.1241482035,
				"z": -1.7161861675,
				"element": "H" 
			},
			{
				"x": -4.2890288331,
				"y": -1.0773296988,
				"z": -1.6482969367,
				"element": "H" 
			},
			{
				"x": -2.8892103729,
				"y": -2.1630970041,
				"z": -1.5145460434,
				"element": "H" 
			},
			{
				"x": -3.3638341114,
				"y": -1.1295222086,
				"z": -0.1452060847,
				"element": "H" 
			},
			{
				"x": -1.5798233029,
				"y": 0.6704063165,
				"z": -3.6611177293,
				"element": "H" 
			},
			{
				"x": -3.2406516907,
				"y": 0.055130144,
				"z": -3.7512389734,
				"element": "H" 
			},
			{
				"x": -1.8818137219,
				"y": -1.0810390095,
				"z": -3.6493011372,
				"element": "H" 
			}
		],
		 "valence_orbital": [ 
			{
				"type": "occ",
				"energy": -0.26145,
				"method": "rhf"
			},
			{
				"type": "occ",
				"energy": -0.25698,
				"method": "rhf"
			},
			{
				"type": "occ",
				"energy": -0.25334,
				"method": "rhf"
			},
			{
				"type": "occ",
				"energy": -0.23882,
				"method": "rhf"
			},
			{
				"type": "occ",
				"energy": -0.21912,
				"method": "rhf"
			},
			{
				"type": "unocc",
				"energy": -0.04559,
				"method": "rhf"
			},
			{
				"type": "unocc",
				"energy": -0.0291,
				"method": "rhf"
			},
			{
				"type": "unocc",
				"energy": -0.016,
				"method": "rhf"
			},
			{
				"type": "unocc",
				"energy": 0.01073,
				"method": "rhf"
			},
			{
				"type": "unocc",
				"energy": 0.0388,
				"method": "rhf"
			}
		],
		"cosmo_sigma_profile": { 
			"-0.025": 0.0,
			"-0.024": 0.0,
			"-0.023": 0.0,
			"-0.022": 0.0,
			"-0.021": 0.0,
			"-0.02": 0.0,
			"-0.019": 0.0,
			"-0.018": 0.0,
			"-0.017": 0.0,
			"-0.016": 0.0,
			"-0.015": 0.199330831516,
			"-0.014": 0.828911591172,
			"-0.013": 1.04951247899,
			"-0.012": 1.46098700567,
			"-0.011": 1.63181199739,
			"-0.01": 1.70708035838,
			"-0.009": 2.22648001569,
			"-0.008": 1.9522683177,
			"-0.007": 4.59550423432,
			"-0.006": 19.2106705057,
			"-0.005": 25.4753951598,
			"-0.004": 31.8080462131,
			"-0.003": 33.2283986046,
			"-0.002": 26.8545554905,
			"-0.001": 29.897194678,
			"0.0": 34.8130263163,
			"0.001": 35.8821371896,
			"0.002": 23.9710394471,
			"0.003": 24.0710350536,
			"0.004": 27.3538128515,
			"0.005": 13.320191697,
			"0.006": 5.5999396321,
			"0.007": 4.602664894,
			"0.008": 4.70289119489,
			"0.009": 4.5978567702,
			"0.01": 5.04233777241,
			"0.011": 3.70745190968,
			"0.012": 4.34718260081,
			"0.013": 5.26306674936,
			"0.014": 0.868596309879,
			"0.015": 0.0,
			"0.016": 0.0,
			"0.017": 0.0,
			"0.018": 0.0,
			"0.019": 0.0,
			"0.02": 0.0,
			"0.021": 0.0,
			"0.022": 0.0,
			"0.023": 0.0,
			"0.024": 0.0,
			"0.025": 0.0
		}
	}
}
