{
	 "smiles": "N#CSCCSC#N", 
	 "Tm": 363.15, 
	 "num_atms": 12, 
	 "gaussian": { 
		 "optdone": 1, 
		 "sigma_profile": "yes", 
		 "theory": "DFT", 
		 "functional": "B3LYP", 
		 "basiset": "6-31G**", 
		 "properties": { 
			 "R2extent": 1572.8014, 
			 "electric_dipole_moment_norm": 6.75502662763, 
			 "electric_quadrupole_moment_norm": 8.20749842461, 
			 "total_energy": -1060.64640194, 
			 "HOMO_LUMO_gap": 0.22375, 
			 "cosmo_polarized_energy": -18.42, 
			 "cosmo_cavitation_energy": 21.51, 
			 "cosmo_dispersion_energy": -15.13, 
			 "cosmo_repulsion_energy": 1.19, 
			 "cosmo_total_nonelectrostatic_energy": 7.56, 
			 "SMD_solvation_energy": 6.57 
		},
		"coords": [
			{
				"x": -0.9278823811,
				"y": -2.3923959965,
				"z": -2.1903296861,
				"element": "N" 
			},
			{
				"x": -0.9879164114,
				"y": -1.22798988,
				"z": -2.2097210798,
				"element": "C" 
			},
			{
				"x": -1.1032407745,
				"y": 0.4650945432,
				"z": -2.323944047,
				"element": "S" 
			},
			{
				"x": -1.4797669646,
				"y": 0.907043443,
				"z": -0.5647698177,
				"element": "C" 
			},
			{
				"x": -0.2730578783,
				"y": 1.2640607247,
				"z": 0.3001533572,
				"element": "C" 
			},
			{
				"x": 0.8411656384,
				"y": -0.1475590612,
				"z": 0.7448920757,
				"element": "S" 
			},
			{
				"x": 2.0013596739,
				"y": -0.040859245,
				"z": -0.4942786271,
				"element": "C" 
			},
			{
				"x": 2.8383258258,
				"y": 0.0076624243,
				"z": -1.3048241994,
				"element": "N" 
			},
			{
				"x": -2.0711809204,
				"y": 0.0985195929,
				"z": -0.1318204068,
				"element": "H" 
			},
			{
				"x": -2.1241369902,
				"y": 1.7888762219,
				"z": -0.6470151541,
				"element": "H" 
			},
			{
				"x": 0.3376628924,
				"y": 2.0484088384,
				"z": -0.1501031056,
				"element": "H" 
			},
			{
				"x": -0.6324317099,
				"y": 1.6306383942,
				"z": 1.2676606907,
				"element": "H" 
			}
		],
		 "valence_orbital": [ 
			{
				"type": "occ",
				"energy": -0.36771,
				"method": "rhf"
			},
			{
				"type": "occ",
				"energy": -0.33957,
				"method": "rhf"
			},
			{
				"type": "occ",
				"energy": -0.33341,
				"method": "rhf"
			},
			{
				"type": "occ",
				"energy": -0.28192,
				"method": "rhf"
			},
			{
				"type": "occ",
				"energy": -0.27028,
				"method": "rhf"
			},
			{
				"type": "unocc",
				"energy": -0.04653,
				"method": "rhf"
			},
			{
				"type": "unocc",
				"energy": -0.0302,
				"method": "rhf"
			},
			{
				"type": "unocc",
				"energy": 0.01244,
				"method": "rhf"
			},
			{
				"type": "unocc",
				"energy": 0.02791,
				"method": "rhf"
			},
			{
				"type": "unocc",
				"energy": 0.03272,
				"method": "rhf"
			}
		],
		"cosmo_sigma_profile": { 
			"-0.025": 0.0,
			"-0.024": 0.0,
			"-0.023": 0.0,
			"-0.022": 0.0,
			"-0.021": 0.0,
			"-0.02": 0.0,
			"-0.019": 0.0,
			"-0.018": 0.0,
			"-0.017": 0.0,
			"-0.016": 0.0,
			"-0.015": 0.0,
			"-0.014": 0.0,
			"-0.013": 0.0,
			"-0.012": 0.0,
			"-0.011": 0.786410820991,
			"-0.01": 7.43243413499,
			"-0.009": 13.6951568691,
			"-0.008": 9.76499670252,
			"-0.007": 7.28731718725,
			"-0.006": 8.72371553265,
			"-0.005": 6.44140465183,
			"-0.004": 5.96177418462,
			"-0.003": 5.98251287944,
			"-0.002": 7.24512362049,
			"-0.001": 9.08120781166,
			"0.0": 11.7653538011,
			"0.001": 10.1634282818,
			"0.002": 10.3669609604,
			"0.003": 9.06546521931,
			"0.004": 7.96055565924,
			"0.005": 5.26193453228,
			"0.006": 5.26619170443,
			"0.007": 6.3725332071,
			"0.008": 5.79578169627,
			"0.009": 6.94376280916,
			"0.01": 5.60170140485,
			"0.011": 5.58759215152,
			"0.012": 4.47096086697,
			"0.013": 0.800618040033,
			"0.014": 0.0,
			"0.015": 0.0,
			"0.016": 0.0,
			"0.017": 0.0,
			"0.018": 0.0,
			"0.019": 0.0,
			"0.02": 0.0,
			"0.021": 0.0,
			"0.022": 0.0,
			"0.023": 0.0,
			"0.024": 0.0,
			"0.025": 0.0
		}
	}
}
