{
	 "smiles": "OC(=O)C=CC1=C(F)C=CC(Br)=C1", 
	 "Tm": 470.15, 
	 "num_atms": 19, 
	 "gaussian": { 
		 "optdone": 1, 
		 "sigma_profile": "yes", 
		 "theory": "DFT", 
		 "functional": "B3LYP", 
		 "basiset": "6-31G**", 
		 "properties": { 
			 "R2extent": 5405.3553, 
			 "electric_dipole_moment_norm": 2.31306708506, 
			 "electric_quadrupole_moment_norm": 5.55523870054, 
			 "total_energy": -3168.25108539, 
			 "HOMO_LUMO_gap": 0.16654, 
			 "cosmo_polarized_energy": -10.16, 
			 "cosmo_cavitation_energy": 27.17, 
			 "cosmo_dispersion_energy": -19.8, 
			 "cosmo_repulsion_energy": 1.56, 
			 "cosmo_total_nonelectrostatic_energy": 8.93, 
			 "SMD_solvation_energy": 5.34 
		},
		"coords": [
			{
				"x": 0.1901226379,
				"y": 2.0271311309,
				"z": -0.5989765426,
				"element": "O" 
			},
			{
				"x": 1.5233424931,
				"y": 1.7903587951,
				"z": -0.6773128534,
				"element": "C" 
			},
			{
				"x": 2.3353267117,
				"y": 2.6954941675,
				"z": -0.6905995372,
				"element": "O" 
			},
			{
				"x": 1.9226714624,
				"y": 0.3670453108,
				"z": -0.6965018629,
				"element": "C" 
			},
			{
				"x": 1.2105262048,
				"y": -0.77370178,
				"z": -0.80223326,
				"element": "C" 
			},
			{
				"x": -0.2111314539,
				"y": -1.0463374469,
				"z": -1.0545374949,
				"element": "C" 
			},
			{
				"x": -0.7585944075,
				"y": -2.2298665529,
				"z": -0.5324374839,
				"element": "C" 
			},
			{
				"x": 0.0257372201,
				"y": -3.0226365248,
				"z": 0.2283679431,
				"element": "F" 
			},
			{
				"x": -2.0702562268,
				"y": -2.6223338203,
				"z": -0.7566033293,
				"element": "C" 
			},
			{
				"x": -2.8891591858,
				"y": -1.8229771125,
				"z": -1.5518893056,
				"element": "C" 
			},
			{
				"x": -2.3636957154,
				"y": -0.6535149774,
				"z": -2.1032239094,
				"element": "C" 
			},
			{
				"x": -3.4731812687,
				"y": 0.4324143248,
				"z": -3.2182929122,
				"element": "Br" 
			},
			{
				"x": -1.0503579245,
				"y": -0.2639201594,
				"z": -1.8678522943,
				"element": "C" 
			},
			{
				"x": 0.0988364523,
				"y": 2.994215138,
				"z": -0.563234152,
				"element": "H" 
			},
			{
				"x": 2.9962250828,
				"y": 0.2718288217,
				"z": -0.5678242302,
				"element": "H" 
			},
			{
				"x": 1.7947434309,
				"y": -1.6833768882,
				"z": -0.6782256957,
				"element": "H" 
			},
			{
				"x": -2.4338162863,
				"y": -3.5423177987,
				"z": -0.3126548263,
				"element": "H" 
			},
			{
				"x": -3.9165256754,
				"y": -2.1082074361,
				"z": -1.7454008408,
				"element": "H" 
			},
			{
				"x": -0.6676135517,
				"y": 0.6412028084,
				"z": -2.3156674125,
				"element": "H" 
			}
		],
		 "valence_orbital": [ 
			{
				"type": "occ",
				"energy": -0.30569,
				"method": "rhf"
			},
			{
				"type": "occ",
				"energy": -0.29482,
				"method": "rhf"
			},
			{
				"type": "occ",
				"energy": -0.28112,
				"method": "rhf"
			},
			{
				"type": "occ",
				"energy": -0.26218,
				"method": "rhf"
			},
			{
				"type": "occ",
				"energy": -0.24445,
				"method": "rhf"
			},
			{
				"type": "unocc",
				"energy": -0.07791,
				"method": "rhf"
			},
			{
				"type": "unocc",
				"energy": -0.02073,
				"method": "rhf"
			},
			{
				"type": "unocc",
				"energy": -0.00579,
				"method": "rhf"
			},
			{
				"type": "unocc",
				"energy": -0.00093,
				"method": "rhf"
			},
			{
				"type": "unocc",
				"energy": 0.06974,
				"method": "rhf"
			}
		],
		"cosmo_sigma_profile": { 
			"-0.025": 0.0,
			"-0.024": 0.0,
			"-0.023": 0.0,
			"-0.022": 0.0,
			"-0.021": 0.0,
			"-0.02": 0.0,
			"-0.019": 0.0467166164044,
			"-0.018": 0.660395743969,
			"-0.017": 0.91401286539,
			"-0.016": 1.06322866143,
			"-0.015": 0.691378130578,
			"-0.014": 0.645007818849,
			"-0.013": 0.435857261795,
			"-0.012": 0.413733592491,
			"-0.011": 1.18217545142,
			"-0.01": 0.815499222342,
			"-0.009": 0.736140385878,
			"-0.008": 3.84823183739,
			"-0.007": 9.2135842332,
			"-0.006": 10.0699452416,
			"-0.005": 9.35989551066,
			"-0.004": 9.67292252063,
			"-0.003": 10.6201661344,
			"-0.002": 13.5684186904,
			"-0.001": 17.3217055205,
			"0.0": 20.8132022924,
			"0.001": 25.8815880469,
			"0.002": 22.9241545928,
			"0.003": 16.7321615998,
			"0.004": 17.5316331223,
			"0.005": 6.53799576815,
			"0.006": 2.25410296528,
			"0.007": 2.59891413334,
			"0.008": 2.38732110796,
			"0.009": 1.34815220726,
			"0.01": 1.90609740289,
			"0.011": 3.8254342441,
			"0.012": 4.8088896788,
			"0.013": 0.961777537673,
			"0.014": 0.0,
			"0.015": 0.0,
			"0.016": 0.0,
			"0.017": 0.0,
			"0.018": 0.0,
			"0.019": 0.0,
			"0.02": 0.0,
			"0.021": 0.0,
			"0.022": 0.0,
			"0.023": 0.0,
			"0.024": 0.0,
			"0.025": 0.0
		}
	}
}
