{
	 "smiles": "ClCC1=CN(N=N1)C1=CC=C(Cl)C=C1", 
	 "Tm": 413.15, 
	 "num_atms": 21, 
	 "gaussian": { 
		 "optdone": 1, 
		 "sigma_profile": "yes", 
		 "theory": "DFT", 
		 "functional": "B3LYP", 
		 "basiset": "6-31G**", 
		 "properties": { 
			 "R2extent": 8071.1218, 
			 "electric_dipole_moment_norm": 3.60698742027, 
			 "electric_quadrupole_moment_norm": 13.5272783438, 
			 "total_energy": -1431.77711547, 
			 "HOMO_LUMO_gap": 0.19475, 
			 "cosmo_polarized_energy": -13.68, 
			 "cosmo_cavitation_energy": 29.95, 
			 "cosmo_dispersion_energy": -22.16, 
			 "cosmo_repulsion_energy": 1.75, 
			 "cosmo_total_nonelectrostatic_energy": 9.54, 
			 "SMD_solvation_energy": 3.3 
		},
		"coords": [
			{
				"x": 0.7794468659,
				"y": 3.0672157943,
				"z": -2.5606627051,
				"element": "Cl" 
			},
			{
				"x": 1.5276838102,
				"y": 1.4749006588,
				"z": -2.0424525586,
				"element": "C" 
			},
			{
				"x": 0.555277379,
				"y": 0.3538102382,
				"z": -2.0480441549,
				"element": "C" 
			},
			{
				"x": -0.4531767988,
				"y": 0.0399161706,
				"z": -1.1617742765,
				"element": "C" 
			},
			{
				"x": -1.0079967886,
				"y": -1.0949140932,
				"z": -1.6642847586,
				"element": "N" 
			},
			{
				"x": -0.3647374851,
				"y": -1.4680916813,
				"z": -2.8083241001,
				"element": "N" 
			},
			{
				"x": 0.5681814942,
				"y": -0.5950246014,
				"z": -3.0339617631,
				"element": "N" 
			},
			{
				"x": -2.0892064158,
				"y": -1.8689450474,
				"z": -1.1617496138,
				"element": "C" 
			},
			{
				"x": -3.0774972264,
				"y": -1.2709959674,
				"z": -0.3752605293,
				"element": "C" 
			},
			{
				"x": -4.1255189443,
				"y": -2.0410668487,
				"z": 0.1251124558,
				"element": "C" 
			},
			{
				"x": -4.1842433255,
				"y": -3.4001858632,
				"z": -0.1813242859,
				"element": "C" 
			},
			{
				"x": -5.5053676736,
				"y": -4.3696846916,
				"z": 0.4429693621,
				"element": "Cl" 
			},
			{
				"x": -3.2087717045,
				"y": -3.9983162354,
				"z": -0.9805943364,
				"element": "C" 
			},
			{
				"x": -2.1540670352,
				"y": -3.231852589,
				"z": -1.4680346901,
				"element": "C" 
			},
			{
				"x": 1.9443862048,
				"y": 1.6612717762,
				"z": -1.0527688672,
				"element": "H" 
			},
			{
				"x": 2.3289017269,
				"y": 1.2690242741,
				"z": -2.7507286344,
				"element": "H" 
			},
			{
				"x": -0.7875402768,
				"y": 0.5056553558,
				"z": -0.2491152964,
				"element": "H" 
			},
			{
				"x": -3.048775018,
				"y": -0.2066847752,
				"z": -0.1680181609,
				"element": "H" 
			},
			{
				"x": -4.8969190808,
				"y": -1.5860555917,
				"z": 0.7357504381,
				"element": "H" 
			},
			{
				"x": -3.2689698677,
				"y": -5.0556597478,
				"z": -1.2120282327,
				"element": "H" 
			},
			{
				"x": -1.38298984,
				"y": -3.6757165348,
				"z": -2.085705292,
				"element": "H" 
			}
		],
		 "valence_orbital": [ 
			{
				"type": "occ",
				"energy": -0.29879,
				"method": "rhf"
			},
			{
				"type": "occ",
				"energy": -0.28744,
				"method": "rhf"
			},
			{
				"type": "occ",
				"energy": -0.28199,
				"method": "rhf"
			},
			{
				"type": "occ",
				"energy": -0.27546,
				"method": "rhf"
			},
			{
				"type": "occ",
				"energy": -0.25107,
				"method": "rhf"
			},
			{
				"type": "unocc",
				"energy": -0.05632,
				"method": "rhf"
			},
			{
				"type": "unocc",
				"energy": -0.03651,
				"method": "rhf"
			},
			{
				"type": "unocc",
				"energy": -0.01101,
				"method": "rhf"
			},
			{
				"type": "unocc",
				"energy": 0.00401,
				"method": "rhf"
			},
			{
				"type": "unocc",
				"energy": 0.0157,
				"method": "rhf"
			}
		],
		"cosmo_sigma_profile": { 
			"-0.025": 0.0,
			"-0.024": 0.0,
			"-0.023": 0.0,
			"-0.022": 0.0,
			"-0.021": 0.0,
			"-0.02": 0.0,
			"-0.019": 0.0,
			"-0.018": 0.0,
			"-0.017": 0.0,
			"-0.016": 0.0,
			"-0.015": 0.0,
			"-0.014": 0.0,
			"-0.013": 0.0,
			"-0.012": 0.598368096505,
			"-0.011": 2.77477101823,
			"-0.01": 2.5913872295,
			"-0.009": 3.82188930034,
			"-0.008": 10.5640767394,
			"-0.007": 11.7885911886,
			"-0.006": 12.8771573957,
			"-0.005": 9.77666951466,
			"-0.004": 11.4567904538,
			"-0.003": 9.95447635582,
			"-0.002": 14.4805028198,
			"-0.001": 15.4490273213,
			"0.0": 17.1733305462,
			"0.001": 22.7089885785,
			"0.002": 25.1155405809,
			"0.003": 14.8556929787,
			"0.004": 17.4549789189,
			"0.005": 9.5577194826,
			"0.006": 12.0836889518,
			"0.007": 5.14712871551,
			"0.008": 2.40914483601,
			"0.009": 2.93541193273,
			"0.01": 3.79652042643,
			"0.011": 2.26818612645,
			"0.012": 1.50871103947,
			"0.013": 1.45043371972,
			"0.014": 0.73503959824,
			"0.015": 0.506934600169,
			"0.016": 0.0,
			"0.017": 0.0,
			"0.018": 0.0,
			"0.019": 0.0,
			"0.02": 0.0,
			"0.021": 0.0,
			"0.022": 0.0,
			"0.023": 0.0,
			"0.024": 0.0,
			"0.025": 0.0
		}
	}
}
