{
	 "smiles": "CC1=NN(C=C1C=O)C1=CC=CC=C1", 
	 "Tm": 332.15, 
	 "num_atms": 24, 
	 "gaussian": { 
		 "optdone": 1, 
		 "sigma_profile": "yes", 
		 "theory": "DFT", 
		 "functional": "B3LYP", 
		 "basiset": "6-31G**", 
		 "properties": { 
			 "R2extent": 4133.8354, 
			 "electric_dipole_moment_norm": 4.13710029006, 
			 "electric_quadrupole_moment_norm": 11.549712554, 
			 "total_energy": -609.904172132, 
			 "HOMO_LUMO_gap": 0.1789, 
			 "cosmo_polarized_energy": -11.6, 
			 "cosmo_cavitation_energy": 28.65, 
			 "cosmo_dispersion_energy": -20.89, 
			 "cosmo_repulsion_energy": 1.62, 
			 "cosmo_total_nonelectrostatic_energy": 9.38, 
			 "SMD_solvation_energy": 5.52 
		},
		"coords": [
			{
				"x": 1.0504361136,
				"y": -4.2038654157,
				"z": 0.8227052802,
				"element": "C" 
			},
			{
				"x": 1.0044564525,
				"y": -2.8028342667,
				"z": 0.3054664211,
				"element": "C" 
			},
			{
				"x": 1.2899154431,
				"y": -1.7728263785,
				"z": 1.0862171118,
				"element": "N" 
			},
			{
				"x": 1.1508671772,
				"y": -0.6561934265,
				"z": 0.3015288743,
				"element": "N" 
			},
			{
				"x": 0.7813397915,
				"y": -0.9788592973,
				"z": -0.9613574363,
				"element": "C" 
			},
			{
				"x": 0.6713613206,
				"y": -2.3605736416,
				"z": -1.0160467521,
				"element": "C" 
			},
			{
				"x": 0.2976939253,
				"y": -3.1569938652,
				"z": -2.1755345012,
				"element": "C" 
			},
			{
				"x": 0.2120416141,
				"y": -4.3750142488,
				"z": -2.1822189112,
				"element": "O" 
			},
			{
				"x": 1.3926825353,
				"y": 0.6301923404,
				"z": 0.8595308708,
				"element": "C" 
			},
			{
				"x": 1.7686590749,
				"y": 0.7301790975,
				"z": 2.2042363255,
				"element": "C" 
			},
			{
				"x": 2.0073313768,
				"y": 1.985817501,
				"z": 2.7586491511,
				"element": "C" 
			},
			{
				"x": 1.8757400937,
				"y": 3.1429269067,
				"z": 1.98879212,
				"element": "C" 
			},
			{
				"x": 1.5005362398,
				"y": 3.0340236116,
				"z": 0.6490955557,
				"element": "C" 
			},
			{
				"x": 1.2581630463,
				"y": 1.7850358482,
				"z": 0.0795039915,
				"element": "C" 
			},
			{
				"x": 1.7621083393,
				"y": -4.8058703727,
				"z": 0.2497964298,
				"element": "H" 
			},
			{
				"x": 1.3398944089,
				"y": -4.2027206304,
				"z": 1.8755128955,
				"element": "H" 
			},
			{
				"x": 0.0764412756,
				"y": -4.6901045286,
				"z": 0.7131053632,
				"element": "H" 
			},
			{
				"x": 0.6208254799,
				"y": -0.2384747006,
				"z": -1.7297430786,
				"element": "H" 
			},
			{
				"x": 0.0849305127,
				"y": -2.5683591535,
				"z": -3.0962387757,
				"element": "H" 
			},
			{
				"x": 1.8668506888,
				"y": -0.17494305,
				"z": 2.7892789022,
				"element": "H" 
			},
			{
				"x": 2.2986726822,
				"y": 2.0562146456,
				"z": 3.8024485358,
				"element": "H" 
			},
			{
				"x": 2.0631697661,
				"y": 4.1183057915,
				"z": 2.4268274406,
				"element": "H" 
			},
			{
				"x": 1.3939477691,
				"y": 3.9246735504,
				"z": 0.0371101132,
				"element": "H" 
			},
			{
				"x": 0.9678348728,
				"y": 1.7247636832,
				"z": -0.9633659272,
				"element": "H" 
			}
		],
		 "valence_orbital": [ 
			{
				"type": "occ",
				"energy": -0.29498,
				"method": "rhf"
			},
			{
				"type": "occ",
				"energy": -0.2695,
				"method": "rhf"
			},
			{
				"type": "occ",
				"energy": -0.26217,
				"method": "rhf"
			},
			{
				"type": "occ",
				"energy": -0.24893,
				"method": "rhf"
			},
			{
				"type": "occ",
				"energy": -0.23191,
				"method": "rhf"
			},
			{
				"type": "unocc",
				"energy": -0.05301,
				"method": "rhf"
			},
			{
				"type": "unocc",
				"energy": -0.02004,
				"method": "rhf"
			},
			{
				"type": "unocc",
				"energy": -0.01341,
				"method": "rhf"
			},
			{
				"type": "unocc",
				"energy": 0.03211,
				"method": "rhf"
			},
			{
				"type": "unocc",
				"energy": 0.07297,
				"method": "rhf"
			}
		],
		"cosmo_sigma_profile": { 
			"-0.025": 0.0,
			"-0.024": 0.0,
			"-0.023": 0.0,
			"-0.022": 0.0,
			"-0.021": 0.0,
			"-0.02": 0.0,
			"-0.019": 0.0,
			"-0.018": 0.0,
			"-0.017": 0.0,
			"-0.016": 0.0,
			"-0.015": 0.0,
			"-0.014": 0.0,
			"-0.013": 0.0,
			"-0.012": 0.610027892289,
			"-0.011": 2.28989376126,
			"-0.01": 2.18974958998,
			"-0.009": 2.38610473083,
			"-0.008": 2.9392472008,
			"-0.007": 4.28829667481,
			"-0.006": 11.5623196935,
			"-0.005": 15.5940472787,
			"-0.004": 17.5679531471,
			"-0.003": 16.3842203145,
			"-0.002": 15.7791378012,
			"-0.001": 18.5295797858,
			"0.0": 21.778163806,
			"0.001": 18.1505942317,
			"0.002": 15.0772840634,
			"0.003": 14.2610054013,
			"0.004": 14.6554238398,
			"0.005": 9.32022105822,
			"0.006": 3.91535082489,
			"0.007": 3.21324327858,
			"0.008": 3.27501774389,
			"0.009": 2.99695753288,
			"0.01": 3.532514815,
			"0.011": 3.57330333933,
			"0.012": 3.85928326678,
			"0.013": 1.88316277169,
			"0.014": 0.328870120787,
			"0.015": 0.0,
			"0.016": 0.0,
			"0.017": 0.0,
			"0.018": 0.0,
			"0.019": 0.0,
			"0.02": 0.0,
			"0.021": 0.0,
			"0.022": 0.0,
			"0.023": 0.0,
			"0.024": 0.0,
			"0.025": 0.0
		}
	}
}
