{
	 "smiles": "COC1=CC=C(Cl)C=C1C=O", 
	 "Tm": 350.15, 
	 "num_atms": 18, 
	 "gaussian": { 
		 "optdone": 1, 
		 "sigma_profile": "yes", 
		 "theory": "DFT", 
		 "functional": "B3LYP", 
		 "basiset": "6-31G**", 
		 "properties": { 
			 "R2extent": 4192.0177, 
			 "electric_dipole_moment_norm": 5.49063610614, 
			 "electric_quadrupole_moment_norm": 15.377482489, 
			 "total_energy": -919.687545179, 
			 "HOMO_LUMO_gap": 0.16771, 
			 "cosmo_polarized_energy": -9.52, 
			 "cosmo_cavitation_energy": 24.4, 
			 "cosmo_dispersion_energy": -18.01, 
			 "cosmo_repulsion_energy": 1.45, 
			 "cosmo_total_nonelectrostatic_energy": 7.84, 
			 "SMD_solvation_energy": 5.82 
		},
		"coords": [
			{
				"x": 0.0014104446,
				"y": -1.9343113796,
				"z": -0.5244768268,
				"element": "C" 
			},
			{
				"x": -0.1936056798,
				"y": -1.4496441174,
				"z": 0.7984098319,
				"element": "O" 
			},
			{
				"x": 0.6551221374,
				"y": -0.5057158808,
				"z": 1.2835373111,
				"element": "C" 
			},
			{
				"x": 1.7268089264,
				"y": 0.0317037126,
				"z": 0.5576633086,
				"element": "C" 
			},
			{
				"x": 2.5485002659,
				"y": 0.9986960288,
				"z": 1.1358045414,
				"element": "C" 
			},
			{
				"x": 2.3071165067,
				"y": 1.4352865847,
				"z": 2.439550109,
				"element": "C" 
			},
			{
				"x": 3.3526328411,
				"y": 2.654593011,
				"z": 3.1523783298,
				"element": "Cl" 
			},
			{
				"x": 1.2496151892,
				"y": 0.9119448334,
				"z": 3.1701668295,
				"element": "C" 
			},
			{
				"x": 0.4155319352,
				"y": -0.0596039594,
				"z": 2.6038326072,
				"element": "C" 
			},
			{
				"x": -0.7041697061,
				"y": -0.5946654768,
				"z": 3.4165622797,
				"element": "C" 
			},
			{
				"x": -0.9367804138,
				"y": -0.2312037557,
				"z": 4.5563474339,
				"element": "O" 
			},
			{
				"x": 0.9795224008,
				"y": -2.4180529487,
				"z": -0.6343577115,
				"element": "H" 
			},
			{
				"x": -0.7855887258,
				"y": -2.6705808516,
				"z": -0.6902832355,
				"element": "H" 
			},
			{
				"x": -0.092630125,
				"y": -1.1301628902,
				"z": -1.2642689306,
				"element": "H" 
			},
			{
				"x": 1.9318046038,
				"y": -0.2928516998,
				"z": -0.4549624023,
				"element": "H" 
			},
			{
				"x": 3.3770799218,
				"y": 1.4126536953,
				"z": 0.5713315602,
				"element": "H" 
			},
			{
				"x": 1.0406749621,
				"y": 1.2340062102,
				"z": 4.1844855895,
				"element": "H" 
			},
			{
				"x": -1.3309454844,
				"y": -1.3584911159,
				"z": 2.921679375,
				"element": "H" 
			}
		],
		 "valence_orbital": [ 
			{
				"type": "occ",
				"energy": -0.31637,
				"method": "rhf"
			},
			{
				"type": "occ",
				"energy": -0.31495,
				"method": "rhf"
			},
			{
				"type": "occ",
				"energy": -0.27393,
				"method": "rhf"
			},
			{
				"type": "occ",
				"energy": -0.25303,
				"method": "rhf"
			},
			{
				"type": "occ",
				"energy": -0.23588,
				"method": "rhf"
			},
			{
				"type": "unocc",
				"energy": -0.06817,
				"method": "rhf"
			},
			{
				"type": "unocc",
				"energy": -0.01226,
				"method": "rhf"
			},
			{
				"type": "unocc",
				"energy": 0.02655,
				"method": "rhf"
			},
			{
				"type": "unocc",
				"energy": 0.03116,
				"method": "rhf"
			},
			{
				"type": "unocc",
				"energy": 0.08411,
				"method": "rhf"
			}
		],
		"cosmo_sigma_profile": { 
			"-0.025": 0.0,
			"-0.024": 0.0,
			"-0.023": 0.0,
			"-0.022": 0.0,
			"-0.021": 0.0,
			"-0.02": 0.0,
			"-0.019": 0.0,
			"-0.018": 0.0,
			"-0.017": 0.0,
			"-0.016": 0.0,
			"-0.015": 0.0,
			"-0.014": 0.0,
			"-0.013": 0.0,
			"-0.012": 0.0,
			"-0.011": 0.0,
			"-0.01": 0.0,
			"-0.009": 0.0246550576761,
			"-0.008": 3.0746520831,
			"-0.007": 7.13385042343,
			"-0.006": 14.5018542311,
			"-0.005": 13.1931836754,
			"-0.004": 14.5568388014,
			"-0.003": 13.4578348861,
			"-0.002": 11.4651831026,
			"-0.001": 12.1765238937,
			"0.0": 16.8730273747,
			"0.001": 21.9309017097,
			"0.002": 19.2023951368,
			"0.003": 9.56280130093,
			"0.004": 13.9220407329,
			"0.005": 9.32014115347,
			"0.006": 2.16687683878,
			"0.007": 1.39757452741,
			"0.008": 1.66905811914,
			"0.009": 2.24789694451,
			"0.01": 2.30281948316,
			"0.011": 3.99992621199,
			"0.012": 2.91403218837,
			"0.013": 0.815353709554,
			"0.014": 0.0,
			"0.015": 0.0,
			"0.016": 0.0,
			"0.017": 0.0,
			"0.018": 0.0,
			"0.019": 0.0,
			"0.02": 0.0,
			"0.021": 0.0,
			"0.022": 0.0,
			"0.023": 0.0,
			"0.024": 0.0,
			"0.025": 0.0
		}
	}
}
