{
	 "smiles": "OC1=C(C=CC=C1)C(=O)C1=CN(C2=NC=CC=C2)C(=O)C(=C1)C#N", 
	 "Tm": 421.15, 
	 "num_atms": 35, 
	 "gaussian": { 
		 "optdone": 1, 
		 "sigma_profile": "yes", 
		 "theory": "DFT", 
		 "functional": "B3LYP", 
		 "basiset": "6-31G**", 
		 "properties": { 
			 "R2extent": 9822.4489, 
			 "electric_dipole_moment_norm": 8.82376454468, 
			 "electric_quadrupole_moment_norm": 30.4922457461, 
			 "total_energy": -1082.460503, 
			 "HOMO_LUMO_gap": 0.14469, 
			 "cosmo_polarized_energy": -20.24, 
			 "cosmo_cavitation_energy": 41.49, 
			 "cosmo_dispersion_energy": -29.27, 
			 "cosmo_repulsion_energy": 2.18, 
			 "cosmo_total_nonelectrostatic_energy": 14.4, 
			 "SMD_solvation_energy": 8.84 
		},
		"coords": [
			{
				"x": 1.830196045,
				"y": -2.3966444488,
				"z": 4.4757392326,
				"element": "O" 
			},
			{
				"x": 0.7816271333,
				"y": -2.402845238,
				"z": 3.645652099,
				"element": "C" 
			},
			{
				"x": 0.6293174209,
				"y": -1.4505116326,
				"z": 2.5930282483,
				"element": "C" 
			},
			{
				"x": -0.558303775,
				"y": -1.4843541632,
				"z": 1.8265904652,
				"element": "C" 
			},
			{
				"x": -1.5285601456,
				"y": -2.4497634805,
				"z": 2.0371761591,
				"element": "C" 
			},
			{
				"x": -1.3287042136,
				"y": -3.4198550221,
				"z": 3.0332119281,
				"element": "C" 
			},
			{
				"x": -0.1940349949,
				"y": -3.3982712089,
				"z": 3.8283796879,
				"element": "C" 
			},
			{
				"x": 1.6973287804,
				"y": -0.4605136388,
				"z": 2.3878894021,
				"element": "C" 
			},
			{
				"x": 2.563684663,
				"y": -0.2657778333,
				"z": 3.2632399729,
				"element": "O" 
			},
			{
				"x": 1.8160498838,
				"y": 0.3430466998,
				"z": 1.1380284693,
				"element": "C" 
			},
			{
				"x": 1.4795340752,
				"y": -0.1384228924,
				"z": -0.1034238157,
				"element": "C" 
			},
			{
				"x": 1.6817808644,
				"y": 0.5725976471,
				"z": -1.2532668923,
				"element": "N" 
			},
			{
				"x": 1.3495349046,
				"y": -0.0797429321,
				"z": -2.5049908941,
				"element": "C" 
			},
			{
				"x": 1.4467581626,
				"y": -1.4071231523,
				"z": -2.4724978938,
				"element": "N" 
			},
			{
				"x": 1.1265840851,
				"y": -2.0921120053,
				"z": -3.5750377573,
				"element": "C" 
			},
			{
				"x": 0.7043751308,
				"y": -1.4812681218,
				"z": -4.7541382125,
				"element": "C" 
			},
			{
				"x": 0.5979015422,
				"y": -0.0910879237,
				"z": -4.7675086961,
				"element": "C" 
			},
			{
				"x": 0.9197252406,
				"y": 0.6397046641,
				"z": -3.6253868251,
				"element": "C" 
			},
			{
				"x": 2.276752831,
				"y": 1.8808491865,
				"z": -1.2522103365,
				"element": "C" 
			},
			{
				"x": 2.4477122773,
				"y": 2.5109215144,
				"z": -2.2830507013,
				"element": "O" 
			},
			{
				"x": 2.66181296,
				"y": 2.3569371543,
				"z": 0.0792600609,
				"element": "C" 
			},
			{
				"x": 2.4558538231,
				"y": 1.6128651105,
				"z": 1.2106487082,
				"element": "C" 
			},
			{
				"x": 3.2800776001,
				"y": 3.6446629092,
				"z": 0.1439019231,
				"element": "C" 
			},
			{
				"x": 3.7809174065,
				"y": 4.6906132489,
				"z": 0.2306285044,
				"element": "N" 
			},
			{
				"x": 2.3500917704,
				"y": -1.5788941516,
				"z": 4.2667231927,
				"element": "H" 
			},
			{
				"x": -0.7285648664,
				"y": -0.7139247825,
				"z": 1.0832056509,
				"element": "H" 
			},
			{
				"x": -2.4377004494,
				"y": -2.4494746169,
				"z": 1.4452330439,
				"element": "H" 
			},
			{
				"x": -2.0810167425,
				"y": -4.1858117293,
				"z": 3.1993395209,
				"element": "H" 
			},
			{
				"x": -0.0384362747,
				"y": -4.1224026663,
				"z": 4.6208244629,
				"element": "H" 
			},
			{
				"x": 1.0789856787,
				"y": -1.1300579765,
				"z": -0.2598626717,
				"element": "H" 
			},
			{
				"x": 1.2201815271,
				"y": -3.1735035589,
				"z": -3.5068659635,
				"element": "H" 
			},
			{
				"x": 0.4651813859,
				"y": -2.07733538,
				"z": -5.6282620573,
				"element": "H" 
			},
			{
				"x": 0.2626599624,
				"y": 0.4300786545,
				"z": -5.6589190911,
				"element": "H" 
			},
			{
				"x": 0.857307304,
				"y": 1.7166942973,
				"z": -3.6056367569,
				"element": "H" 
			},
			{
				"x": 2.7769890035,
				"y": 1.9787274693,
				"z": 2.1798578328,
				"element": "H" 
			}
		],
		 "valence_orbital": [ 
			{
				"type": "occ",
				"energy": -0.282,
				"method": "rhf"
			},
			{
				"type": "occ",
				"energy": -0.27943,
				"method": "rhf"
			},
			{
				"type": "occ",
				"energy": -0.27404,
				"method": "rhf"
			},
			{
				"type": "occ",
				"energy": -0.24831,
				"method": "rhf"
			},
			{
				"type": "occ",
				"energy": -0.23634,
				"method": "rhf"
			},
			{
				"type": "unocc",
				"energy": -0.09165,
				"method": "rhf"
			},
			{
				"type": "unocc",
				"energy": -0.08269,
				"method": "rhf"
			},
			{
				"type": "unocc",
				"energy": -0.04892,
				"method": "rhf"
			},
			{
				"type": "unocc",
				"energy": -0.03741,
				"method": "rhf"
			},
			{
				"type": "unocc",
				"energy": -0.02319,
				"method": "rhf"
			}
		],
		"cosmo_sigma_profile": { 
			"-0.025": 0.0,
			"-0.024": 0.0,
			"-0.023": 0.0,
			"-0.022": 0.0,
			"-0.021": 0.0,
			"-0.02": 0.0,
			"-0.019": 0.0,
			"-0.018": 0.0,
			"-0.017": 0.0,
			"-0.016": 0.0,
			"-0.015": 0.0,
			"-0.014": 0.0,
			"-0.013": 0.0,
			"-0.012": 0.0,
			"-0.011": 0.0,
			"-0.01": 0.841396383899,
			"-0.009": 2.00661454593,
			"-0.008": 7.0727977345,
			"-0.007": 15.9264790192,
			"-0.006": 25.0214066314,
			"-0.005": 28.4304373588,
			"-0.004": 23.9316183122,
			"-0.003": 23.2908735974,
			"-0.002": 25.1544549044,
			"-0.001": 20.6554776135,
			"0.0": 21.862786326,
			"0.001": 24.3722734883,
			"0.002": 20.968243255,
			"0.003": 18.887198947,
			"0.004": 13.8274825543,
			"0.005": 8.57059167711,
			"0.006": 7.71962614276,
			"0.007": 7.83538797826,
			"0.008": 9.69698187655,
			"0.009": 9.52700382804,
			"0.01": 8.46390194037,
			"0.011": 8.27419365609,
			"0.012": 3.93445019412,
			"0.013": 0.80428130191,
			"0.014": 0.0,
			"0.015": 0.0,
			"0.016": 0.0,
			"0.017": 0.0,
			"0.018": 0.0,
			"0.019": 0.0,
			"0.02": 0.0,
			"0.021": 0.0,
			"0.022": 0.0,
			"0.023": 0.0,
			"0.024": 0.0,
			"0.025": 0.0
		}
	}
}
