{
	 "smiles": "NC1=CN=C(N)C(Br)=C1", 
	 "Tm": 393.15, 
	 "num_atms": 15, 
	 "gaussian": { 
		 "optdone": 1, 
		 "sigma_profile": "yes", 
		 "theory": "DFT", 
		 "functional": "B3LYP", 
		 "basiset": "6-31G**", 
		 "properties": { 
			 "R2extent": 2265.7583, 
			 "electric_dipole_moment_norm": 2.62408438317, 
			 "electric_quadrupole_moment_norm": 9.25251300999, 
			 "total_energy": -2929.81014866, 
			 "HOMO_LUMO_gap": 0.16787, 
			 "cosmo_polarized_energy": -12.24, 
			 "cosmo_cavitation_energy": 21.26, 
			 "cosmo_dispersion_energy": -16.61, 
			 "cosmo_repulsion_energy": 1.37, 
			 "cosmo_total_nonelectrostatic_energy": 6.02, 
			 "SMD_solvation_energy": 1.14 
		},
		"coords": [
			{
				"x": 0.0525091934,
				"y": -1.7607738268,
				"z": -1.8861348301,
				"element": "N" 
			},
			{
				"x": 0.1216414934,
				"y": -0.7173657956,
				"z": -0.9510037881,
				"element": "C" 
			},
			{
				"x": 0.7534168683,
				"y": 0.4986388498,
				"z": -1.2426890987,
				"element": "C" 
			},
			{
				"x": 0.7935030063,
				"y": 1.5414026555,
				"z": -0.4118236466,
				"element": "N" 
			},
			{
				"x": 0.1975266966,
				"y": 1.4647288811,
				"z": 0.7849267547,
				"element": "C" 
			},
			{
				"x": 0.2174434543,
				"y": 2.5991067151,
				"z": 1.5751446512,
				"element": "N" 
			},
			{
				"x": -0.45125654,
				"y": 0.2730359601,
				"z": 1.1670377422,
				"element": "C" 
			},
			{
				"x": -1.2750218888,
				"y": 0.1376000779,
				"z": 2.8921006334,
				"element": "Br" 
			},
			{
				"x": -0.4919692244,
				"y": -0.8129464727,
				"z": 0.3074322331,
				"element": "C" 
			},
			{
				"x": 0.7781500532,
				"y": -1.7271094943,
				"z": -2.5907691815,
				"element": "H" 
			},
			{
				"x": -0.0022704314,
				"y": -2.6842265532,
				"z": -1.4760509893,
				"element": "H" 
			},
			{
				"x": 1.2562911648,
				"y": 0.6321099343,
				"z": -2.2006415682,
				"element": "H" 
			},
			{
				"x": 0.1268599257,
				"y": 2.4587163461,
				"z": 2.5707516081,
				"element": "H" 
			},
			{
				"x": 0.9211546456,
				"y": 3.2676652038,
				"z": 1.2957547,
				"element": "H" 
			},
			{
				"x": -0.998978417,
				"y": -1.7236824812,
				"z": 0.6097647797,
				"element": "H" 
			}
		],
		 "valence_orbital": [ 
			{
				"type": "occ",
				"energy": -0.29504,
				"method": "rhf"
			},
			{
				"type": "occ",
				"energy": -0.28304,
				"method": "rhf"
			},
			{
				"type": "occ",
				"energy": -0.25806,
				"method": "rhf"
			},
			{
				"type": "occ",
				"energy": -0.25451,
				"method": "rhf"
			},
			{
				"type": "occ",
				"energy": -0.18999,
				"method": "rhf"
			},
			{
				"type": "unocc",
				"energy": -0.02212,
				"method": "rhf"
			},
			{
				"type": "unocc",
				"energy": 0.00737,
				"method": "rhf"
			},
			{
				"type": "unocc",
				"energy": 0.01863,
				"method": "rhf"
			},
			{
				"type": "unocc",
				"energy": 0.0755,
				"method": "rhf"
			},
			{
				"type": "unocc",
				"energy": 0.10186,
				"method": "rhf"
			}
		],
		"cosmo_sigma_profile": { 
			"-0.025": 0.0,
			"-0.024": 0.0,
			"-0.023": 0.0,
			"-0.022": 0.0,
			"-0.021": 0.0,
			"-0.02": 0.0,
			"-0.019": 0.0,
			"-0.018": 0.0,
			"-0.017": 0.0,
			"-0.016": 0.0,
			"-0.015": 0.0,
			"-0.014": 0.0,
			"-0.013": 0.570885537145,
			"-0.012": 4.35287978647,
			"-0.011": 4.79253415136,
			"-0.01": 5.77586078444,
			"-0.009": 5.56170917523,
			"-0.008": 5.65703886569,
			"-0.007": 6.31893380308,
			"-0.006": 5.62110750442,
			"-0.005": 5.91110655492,
			"-0.004": 6.65424568556,
			"-0.003": 6.57798989731,
			"-0.002": 6.70656081573,
			"-0.001": 6.89734751421,
			"0.0": 8.12806850945,
			"0.001": 10.0774710963,
			"0.002": 17.0464908292,
			"0.003": 18.8578343797,
			"0.004": 14.8070980322,
			"0.005": 7.89082332994,
			"0.006": 3.04071194591,
			"0.007": 2.90049088531,
			"0.008": 3.16068605408,
			"0.009": 3.30039652044,
			"0.01": 2.7605633562,
			"0.011": 2.00329967794,
			"0.012": 1.99386177962,
			"0.013": 2.20283974375,
			"0.014": 1.21957953069,
			"0.015": 1.39259870119,
			"0.016": 0.097657687546,
			"0.017": 0.0,
			"0.018": 0.0,
			"0.019": 0.0,
			"0.02": 0.0,
			"0.021": 0.0,
			"0.022": 0.0,
			"0.023": 0.0,
			"0.024": 0.0,
			"0.025": 0.0
		}
	}
}
