{
	 "smiles": "COC(=O)C1=CC2=C(N1)C=CC(C)=C2C", 
	 "Tm": 418.15, 
	 "num_atms": 28, 
	 "gaussian": { 
		 "optdone": 1, 
		 "sigma_profile": "yes", 
		 "theory": "DFT", 
		 "functional": "B3LYP", 
		 "basiset": "6-31G**", 
		 "properties": { 
			 "R2extent": 4167.3931, 
			 "electric_dipole_moment_norm": 0.987069470706, 
			 "electric_quadrupole_moment_norm": 9.4687998664, 
			 "total_energy": -670.343877403, 
			 "HOMO_LUMO_gap": 0.16058, 
			 "cosmo_polarized_energy": -9.44, 
			 "cosmo_cavitation_energy": 31.66, 
			 "cosmo_dispersion_energy": -23.14, 
			 "cosmo_repulsion_energy": 1.8, 
			 "cosmo_total_nonelectrostatic_energy": 10.32, 
			 "SMD_solvation_energy": 6.61 
		},
		"coords": [
			{
				"x": -1.4434672395,
				"y": 1.632871821,
				"z": -4.7126182111,
				"element": "C" 
			},
			{
				"x": -1.290684394,
				"y": 1.1957033017,
				"z": -3.3538094182,
				"element": "O" 
			},
			{
				"x": -0.0776641514,
				"y": 0.6868751797,
				"z": -3.0497725407,
				"element": "C" 
			},
			{
				"x": 0.841821954,
				"y": 0.5908864921,
				"z": -3.8471832983,
				"element": "O" 
			},
			{
				"x": 0.017976671,
				"y": 0.2583941683,
				"z": -1.6547779296,
				"element": "C" 
			},
			{
				"x": -0.8811800643,
				"y": 0.2763269606,
				"z": -0.6091832777,
				"element": "C" 
			},
			{
				"x": -0.2141411695,
				"y": -0.2790145855,
				"z": 0.529110418,
				"element": "C" 
			},
			{
				"x": 1.105696374,
				"y": -0.6195190271,
				"z": 0.1033834831,
				"element": "C" 
			},
			{
				"x": 1.2149421218,
				"y": -0.2823605261,
				"z": -1.2217784952,
				"element": "N" 
			},
			{
				"x": 2.0370806508,
				"y": -1.1921556755,
				"z": 0.9760168707,
				"element": "C" 
			},
			{
				"x": 1.621705916,
				"y": -1.4162884684,
				"z": 2.27921297,
				"element": "C" 
			},
			{
				"x": 0.3210863125,
				"y": -1.0921428014,
				"z": 2.7392260696,
				"element": "C" 
			},
			{
				"x": -0.0444284458,
				"y": -1.3725250988,
				"z": 4.1796679264,
				"element": "C" 
			},
			{
				"x": -0.6110581699,
				"y": -0.5191650042,
				"z": 1.8667336365,
				"element": "C" 
			},
			{
				"x": -2.0020008568,
				"y": -0.1650984546,
				"z": 2.3333013675,
				"element": "C" 
			},
			{
				"x": -2.4636078675,
				"y": 2.0092310651,
				"z": -4.786414986,
				"element": "H" 
			},
			{
				"x": -1.2904073475,
				"y": 0.8015041035,
				"z": -5.4056089647,
				"element": "H" 
			},
			{
				"x": -0.7253943158,
				"y": 2.4228339729,
				"z": -4.9474975801,
				"element": "H" 
			},
			{
				"x": -1.892757279,
				"y": 0.6477338117,
				"z": -0.6729586019,
				"element": "H" 
			},
			{
				"x": 2.013531188,
				"y": -0.3895824926,
				"z": -1.8283665836,
				"element": "H" 
			},
			{
				"x": 3.0402131849,
				"y": -1.4504254524,
				"z": 0.6505173061,
				"element": "H" 
			},
			{
				"x": 2.3204228544,
				"y": -1.860063461,
				"z": 2.9837303884,
				"element": "H" 
			},
			{
				"x": -0.3325498416,
				"y": -0.4585913665,
				"z": 4.7140666373,
				"element": "H" 
			},
			{
				"x": -0.8932750182,
				"y": -2.063151132,
				"z": 4.2594435785,
				"element": "H" 
			},
			{
				"x": 0.7948210446,
				"y": -1.8188205276,
				"z": 4.7197542715,
				"element": "H" 
			},
			{
				"x": -1.9772570192,
				"y": 0.5563536941,
				"z": 3.15919692,
				"element": "H" 
			},
			{
				"x": -2.5996822797,
				"y": 0.2720982836,
				"z": 1.5310028868,
				"element": "H" 
			},
			{
				"x": -2.5384428119,
				"y": -1.0474087805,
				"z": 2.703405157,
				"element": "H" 
			}
		],
		 "valence_orbital": [ 
			{
				"type": "occ",
				"energy": -0.30085,
				"method": "rhf"
			},
			{
				"type": "occ",
				"energy": -0.27691,
				"method": "rhf"
			},
			{
				"type": "occ",
				"energy": -0.27485,
				"method": "rhf"
			},
			{
				"type": "occ",
				"energy": -0.21782,
				"method": "rhf"
			},
			{
				"type": "occ",
				"energy": -0.20273,
				"method": "rhf"
			},
			{
				"type": "unocc",
				"energy": -0.04215,
				"method": "rhf"
			},
			{
				"type": "unocc",
				"energy": 0.0204,
				"method": "rhf"
			},
			{
				"type": "unocc",
				"energy": 0.03519,
				"method": "rhf"
			},
			{
				"type": "unocc",
				"energy": 0.09277,
				"method": "rhf"
			},
			{
				"type": "unocc",
				"energy": 0.1018,
				"method": "rhf"
			}
		],
		"cosmo_sigma_profile": { 
			"-0.025": 0.0,
			"-0.024": 0.0,
			"-0.023": 0.0,
			"-0.022": 0.0,
			"-0.021": 0.0,
			"-0.02": 0.0,
			"-0.019": 0.0,
			"-0.018": 0.0,
			"-0.017": 0.0,
			"-0.016": 0.0,
			"-0.015": 0.528494825908,
			"-0.014": 0.881399034645,
			"-0.013": 0.886959944236,
			"-0.012": 0.872616820591,
			"-0.011": 0.715376541773,
			"-0.01": 0.886157170962,
			"-0.009": 1.26318867172,
			"-0.008": 0.6863559398,
			"-0.007": 2.97876921634,
			"-0.006": 9.50338935353,
			"-0.005": 13.9327762425,
			"-0.004": 20.8258544959,
			"-0.003": 26.8742074443,
			"-0.002": 20.8011874792,
			"-0.001": 20.7470413143,
			"0.0": 23.942546252,
			"0.001": 18.9576913598,
			"0.002": 12.9593951917,
			"0.003": 15.7200469237,
			"0.004": 15.4502639682,
			"0.005": 15.2101736462,
			"0.006": 10.146043843,
			"0.007": 4.29122467018,
			"0.008": 1.69993546147,
			"0.009": 1.43092262915,
			"0.01": 1.91862932749,
			"0.011": 2.62392828882,
			"0.012": 3.9460219532,
			"0.013": 0.353565315566,
			"0.014": 0.0,
			"0.015": 0.0,
			"0.016": 0.0,
			"0.017": 0.0,
			"0.018": 0.0,
			"0.019": 0.0,
			"0.02": 0.0,
			"0.021": 0.0,
			"0.022": 0.0,
			"0.023": 0.0,
			"0.024": 0.0,
			"0.025": 0.0
		}
	}
}
