{
	 "smiles": "NNC1=CC=C(Br)C=C1", 
	 "Tm": 381.15, 
	 "num_atms": 16, 
	 "gaussian": { 
		 "optdone": 1, 
		 "sigma_profile": "yes", 
		 "theory": "DFT", 
		 "functional": "B3LYP", 
		 "basiset": "6-31G**", 
		 "properties": { 
			 "R2extent": 5065.0414, 
			 "electric_dipole_moment_norm": 2.23141454239, 
			 "electric_quadrupole_moment_norm": 13.1920973431, 
			 "total_energy": -2913.72861742, 
			 "HOMO_LUMO_gap": 0.19281, 
			 "cosmo_polarized_energy": -9.73, 
			 "cosmo_cavitation_energy": 22.19, 
			 "cosmo_dispersion_energy": -17.03, 
			 "cosmo_repulsion_energy": 1.4, 
			 "cosmo_total_nonelectrostatic_energy": 6.55, 
			 "SMD_solvation_energy": 3.01 
		},
		"coords": [
			{
				"x": 0.1893337358,
				"y": 0.5000970375,
				"z": 1.8808036723,
				"element": "N" 
			},
			{
				"x": 0.7492694798,
				"y": 0.3601533099,
				"z": 0.5963730478,
				"element": "N" 
			},
			{
				"x": 0.1019188829,
				"y": 0.8407598262,
				"z": -0.5424637171,
				"element": "C" 
			},
			{
				"x": 0.8431101993,
				"y": 1.0562427757,
				"z": -1.7209559816,
				"element": "C" 
			},
			{
				"x": 0.2224057463,
				"y": 1.4924694118,
				"z": -2.8848242618,
				"element": "C" 
			},
			{
				"x": -1.1545581208,
				"y": 1.7240523552,
				"z": -2.8892912604,
				"element": "C" 
			},
			{
				"x": -2.0092496769,
				"y": 2.3314122819,
				"z": -4.4898911441,
				"element": "Br" 
			},
			{
				"x": -1.9058706651,
				"y": 1.5179461975,
				"z": -1.7369864735,
				"element": "C" 
			},
			{
				"x": -1.2821461139,
				"y": 1.0787899781,
				"z": -0.5684852063,
				"element": "C" 
			},
			{
				"x": -0.5023205877,
				"y": -0.2320778927,
				"z": 2.0208082968,
				"element": "H" 
			},
			{
				"x": -0.2838558353,
				"y": 1.4008091293,
				"z": 1.973637095,
				"element": "H" 
			},
			{
				"x": 1.7484517155,
				"y": 0.512893255,
				"z": 0.6155051584,
				"element": "H" 
			},
			{
				"x": 1.9154689443,
				"y": 0.8767386247,
				"z": -1.7202313297,
				"element": "H" 
			},
			{
				"x": 0.8051039653,
				"y": 1.6569236204,
				"z": -3.784328647,
				"element": "H" 
			},
			{
				"x": -2.9752246789,
				"y": 1.697574037,
				"z": -1.7447878505,
				"element": "H" 
			},
			{
				"x": -1.8793369906,
				"y": 0.9122160525,
				"z": 0.3213186017,
				"element": "H" 
			}
		],
		 "valence_orbital": [ 
			{
				"type": "occ",
				"energy": -0.28075,
				"method": "rhf"
			},
			{
				"type": "occ",
				"energy": -0.27731,
				"method": "rhf"
			},
			{
				"type": "occ",
				"energy": -0.27354,
				"method": "rhf"
			},
			{
				"type": "occ",
				"energy": -0.26091,
				"method": "rhf"
			},
			{
				"type": "occ",
				"energy": -0.20487,
				"method": "rhf"
			},
			{
				"type": "unocc",
				"energy": -0.01206,
				"method": "rhf"
			},
			{
				"type": "unocc",
				"energy": 0.00356,
				"method": "rhf"
			},
			{
				"type": "unocc",
				"energy": 0.01384,
				"method": "rhf"
			},
			{
				"type": "unocc",
				"energy": 0.07265,
				"method": "rhf"
			},
			{
				"type": "unocc",
				"energy": 0.09408,
				"method": "rhf"
			}
		],
		"cosmo_sigma_profile": { 
			"-0.025": 0.0,
			"-0.024": 0.0,
			"-0.023": 0.0,
			"-0.022": 0.0,
			"-0.021": 0.0,
			"-0.02": 0.0,
			"-0.019": 0.0,
			"-0.018": 0.0,
			"-0.017": 0.0,
			"-0.016": 0.0,
			"-0.015": 0.0,
			"-0.014": 0.0,
			"-0.013": 0.617601364087,
			"-0.012": 1.11757023166,
			"-0.011": 2.96619300993,
			"-0.01": 3.92582494427,
			"-0.009": 5.45805651409,
			"-0.008": 5.05039183424,
			"-0.007": 6.3634507393,
			"-0.006": 8.63793688746,
			"-0.005": 8.9637546013,
			"-0.004": 9.62938935694,
			"-0.003": 7.96676532352,
			"-0.002": 9.2544640369,
			"-0.001": 8.21064052558,
			"0.0": 7.5330890473,
			"0.001": 9.38553582298,
			"0.002": 11.559566458,
			"0.003": 15.0104042898,
			"0.004": 18.8820787043,
			"0.005": 23.8794755571,
			"0.006": 5.77314745437,
			"0.007": 1.14167689714,
			"0.008": 1.36113764549,
			"0.009": 0.883950510561,
			"0.01": 1.67354435226,
			"0.011": 0.947254454304,
			"0.012": 0.724497344934,
			"0.013": 0.52021751792,
			"0.014": 0.576690493833,
			"0.015": 0.727084796539,
			"0.016": 0.47949158807,
			"0.017": 0.346432682932,
			"0.018": 0.0,
			"0.019": 0.0,
			"0.02": 0.0,
			"0.021": 0.0,
			"0.022": 0.0,
			"0.023": 0.0,
			"0.024": 0.0,
			"0.025": 0.0
		}
	}
}
