{
	 "smiles": "CC1=C(C)C(Cl)=NC(=N1)C(C)(C)C", 
	 "Tm": 310.15, 
	 "num_atms": 28, 
	 "gaussian": { 
		 "optdone": 1, 
		 "sigma_profile": "yes", 
		 "theory": "DFT", 
		 "functional": "B3LYP", 
		 "basiset": "6-31G**", 
		 "properties": { 
			 "R2extent": 3862.6226, 
			 "electric_dipole_moment_norm": 2.66387129006, 
			 "electric_quadrupole_moment_norm": 8.33611625159, 
			 "total_energy": -959.832677014, 
			 "HOMO_LUMO_gap": 0.21508, 
			 "cosmo_polarized_energy": -6.35, 
			 "cosmo_cavitation_energy": 31.52, 
			 "cosmo_dispersion_energy": -22.23, 
			 "cosmo_repulsion_energy": 1.79, 
			 "cosmo_total_nonelectrostatic_energy": 11.08, 
			 "SMD_solvation_energy": 3.67 
		},
		"coords": [
			{
				"x": 1.4177415553,
				"y": -3.242015959,
				"z": 0.2652532032,
				"element": "C" 
			},
			{
				"x": 1.4451454238,
				"y": -1.756811693,
				"z": -0.0028835821,
				"element": "C" 
			},
			{
				"x": 2.1207568185,
				"y": -0.8550339082,
				"z": 0.8472415391,
				"element": "C" 
			},
			{
				"x": 2.8687104843,
				"y": -1.2720234169,
				"z": 2.0847549634,
				"element": "C" 
			},
			{
				"x": 2.0319443968,
				"y": 0.4771926867,
				"z": 0.4319663652,
				"element": "C" 
			},
			{
				"x": 2.8267297077,
				"y": 1.7308646688,
				"z": 1.3911531565,
				"element": "Cl" 
			},
			{
				"x": 1.3909744251,
				"y": 0.8986779763,
				"z": -0.6414323912,
				"element": "N" 
			},
			{
				"x": 0.7814952645,
				"y": -0.0377110911,
				"z": -1.3822516235,
				"element": "C" 
			},
			{
				"x": 0.789427215,
				"y": -1.3462269547,
				"z": -1.0965638015,
				"element": "N" 
			},
			{
				"x": 0.0226867313,
				"y": 0.394914445,
				"z": -2.6387138706,
				"element": "C" 
			},
			{
				"x": 0.0973046302,
				"y": 1.9165467086,
				"z": -2.8411132764,
				"element": "C" 
			},
			{
				"x": -1.453640814,
				"y": -0.0404773107,
				"z": -2.4905163806,
				"element": "C" 
			},
			{
				"x": 0.6464446019,
				"y": -0.3252534658,
				"z": -3.8566971584,
				"element": "C" 
			},
			{
				"x": 0.8422083576,
				"y": -3.732131199,
				"z": -0.5203933618,
				"element": "H" 
			},
			{
				"x": 2.4276750284,
				"y": -3.666366125,
				"z": 0.2800137866,
				"element": "H" 
			},
			{
				"x": 0.9564085357,
				"y": -3.4669802214,
				"z": 1.2331864996,
				"element": "H" 
			},
			{
				"x": 2.8237307755,
				"y": -2.3503338672,
				"z": 2.2396861831,
				"element": "H" 
			},
			{
				"x": 2.4583618781,
				"y": -0.7824539187,
				"z": 2.9742990951,
				"element": "H" 
			},
			{
				"x": 3.9224041239,
				"y": -0.9800974433,
				"z": 2.0229208598,
				"element": "H" 
			},
			{
				"x": -0.3366300816,
				"y": 2.4555579373,
				"z": -1.9947188485,
				"element": "H" 
			},
			{
				"x": 1.1306426844,
				"y": 2.2567125981,
				"z": -2.9493581042,
				"element": "H" 
			},
			{
				"x": -0.454143764,
				"y": 2.1927399655,
				"z": -3.7462401952,
				"element": "H" 
			},
			{
				"x": -2.012509085,
				"y": 0.2165379633,
				"z": -3.3968215887,
				"element": "H" 
			},
			{
				"x": -1.9314625442,
				"y": 0.4670101767,
				"z": -1.6453425804,
				"element": "H" 
			},
			{
				"x": -1.5270374935,
				"y": -1.1188077713,
				"z": -2.3291063672,
				"element": "H" 
			},
			{
				"x": 1.6899085091,
				"y": -0.0242939677,
				"z": -4.0008357841,
				"element": "H" 
			},
			{
				"x": 0.6173801547,
				"y": -1.4096508318,
				"z": -3.7244767989,
				"element": "H" 
			},
			{
				"x": 0.0935424804,
				"y": -0.0687859816,
				"z": -4.7668099383,
				"element": "H" 
			}
		],
		 "valence_orbital": [ 
			{
				"type": "occ",
				"energy": -0.31561,
				"method": "rhf"
			},
			{
				"type": "occ",
				"energy": -0.29971,
				"method": "rhf"
			},
			{
				"type": "occ",
				"energy": -0.29552,
				"method": "rhf"
			},
			{
				"type": "occ",
				"energy": -0.26074,
				"method": "rhf"
			},
			{
				"type": "occ",
				"energy": -0.2522,
				"method": "rhf"
			},
			{
				"type": "unocc",
				"energy": -0.03712,
				"method": "rhf"
			},
			{
				"type": "unocc",
				"energy": -0.02849,
				"method": "rhf"
			},
			{
				"type": "unocc",
				"energy": 0.03304,
				"method": "rhf"
			},
			{
				"type": "unocc",
				"energy": 0.09186,
				"method": "rhf"
			},
			{
				"type": "unocc",
				"energy": 0.09709,
				"method": "rhf"
			}
		],
		"cosmo_sigma_profile": { 
			"-0.025": 0.0,
			"-0.024": 0.0,
			"-0.023": 0.0,
			"-0.022": 0.0,
			"-0.021": 0.0,
			"-0.02": 0.0,
			"-0.019": 0.0,
			"-0.018": 0.0,
			"-0.017": 0.0,
			"-0.016": 0.0,
			"-0.015": 0.0,
			"-0.014": 0.0,
			"-0.013": 0.0,
			"-0.012": 0.0,
			"-0.011": 0.0,
			"-0.01": 0.0,
			"-0.009": 0.0,
			"-0.008": 0.0,
			"-0.007": 0.0,
			"-0.006": 1.57930677185,
			"-0.005": 12.0732542038,
			"-0.004": 11.5441377368,
			"-0.003": 24.9379233077,
			"-0.002": 38.0363733981,
			"-0.001": 40.3141692757,
			"0.0": 29.1383662411,
			"0.001": 28.6615281902,
			"0.002": 17.0772060236,
			"0.003": 11.1737318397,
			"0.004": 10.1955791501,
			"0.005": 6.79932256909,
			"0.006": 4.73284836863,
			"0.007": 3.62399795599,
			"0.008": 2.95313354411,
			"0.009": 2.34148741152,
			"0.01": 1.56896147219,
			"0.011": 1.36769254625,
			"0.012": 0.828061736303,
			"0.013": 0.10347645432,
			"0.014": 0.0,
			"0.015": 0.0,
			"0.016": 0.0,
			"0.017": 0.0,
			"0.018": 0.0,
			"0.019": 0.0,
			"0.02": 0.0,
			"0.021": 0.0,
			"0.022": 0.0,
			"0.023": 0.0,
			"0.024": 0.0,
			"0.025": 0.0
		}
	}
}
