{
	 "smiles": "CCOP(O)(=O)C(N)=O", 
	 "Tm": 447.15, 
	 "num_atms": 17, 
	 "gaussian": { 
		 "optdone": 1, 
		 "sigma_profile": "yes", 
		 "theory": "DFT", 
		 "functional": "B3LYP", 
		 "basiset": "6-31G**", 
		 "properties": { 
			 "R2extent": 1963.0439, 
			 "electric_dipole_moment_norm": 3.32456501516, 
			 "electric_quadrupole_moment_norm": 20.3598813027, 
			 "total_energy": -816.212574125, 
			 "HOMO_LUMO_gap": 0.2467, 
			 "cosmo_polarized_energy": -19.12, 
			 "cosmo_cavitation_energy": 22.63, 
			 "cosmo_dispersion_energy": -16.95, 
			 "cosmo_repulsion_energy": 1.41, 
			 "cosmo_total_nonelectrostatic_energy": 7.09, 
			 "SMD_solvation_energy": 7.26 
		},
		"coords": [
			{
				"x": 0.7898552521,
				"y": 1.9358910853,
				"z": 1.3324391676,
				"element": "C" 
			},
			{
				"x": 0.9716979824,
				"y": 0.5537070367,
				"z": 0.7317647939,
				"element": "C" 
			},
			{
				"x": -0.1724375414,
				"y": 0.2038000099,
				"z": -0.1042502656,
				"element": "O" 
			},
			{
				"x": -1.3057063863,
				"y": -0.8094098837,
				"z": 0.4132193882,
				"element": "P" 
			},
			{
				"x": -1.945398929,
				"y": -1.3548534069,
				"z": -0.9835143843,
				"element": "O" 
			},
			{
				"x": -0.8616502188,
				"y": -1.8529817785,
				"z": 1.3700969656,
				"element": "O" 
			},
			{
				"x": -2.689570976,
				"y": 0.2943957082,
				"z": 1.0079805602,
				"element": "C" 
			},
			{
				"x": -3.9084513865,
				"y": 0.0447555709,
				"z": 0.4702937471,
				"element": "N" 
			},
			{
				"x": -2.4608969906,
				"y": 1.1279335497,
				"z": 1.8707897995,
				"element": "O" 
			},
			{
				"x": 0.6810980451,
				"y": 2.6890069891,
				"z": 0.5464680377,
				"element": "H" 
			},
			{
				"x": -0.0992205114,
				"y": 1.9637028282,
				"z": 1.9667565339,
				"element": "H" 
			},
			{
				"x": 1.6680505915,
				"y": 2.1912565493,
				"z": 1.935473271,
				"element": "H" 
			},
			{
				"x": 1.0927594029,
				"y": -0.2144354547,
				"z": 1.5004223875,
				"element": "H" 
			},
			{
				"x": 1.8347236476,
				"y": 0.513665143,
				"z": 0.061471187,
				"element": "H" 
			},
			{
				"x": -1.5120871327,
				"y": -2.1744814601,
				"z": -1.2653741769,
				"element": "H" 
			},
			{
				"x": -4.6904863698,
				"y": 0.6115510732,
				"z": 0.7678654005,
				"element": "H" 
			},
			{
				"x": -4.0128784793,
				"y": -0.5972035597,
				"z": -0.3004024131,
				"element": "H" 
			}
		],
		 "valence_orbital": [ 
			{
				"type": "occ",
				"energy": -0.3176,
				"method": "rhf"
			},
			{
				"type": "occ",
				"energy": -0.30207,
				"method": "rhf"
			},
			{
				"type": "occ",
				"energy": -0.2985,
				"method": "rhf"
			},
			{
				"type": "occ",
				"energy": -0.28608,
				"method": "rhf"
			},
			{
				"type": "occ",
				"energy": -0.25899,
				"method": "rhf"
			},
			{
				"type": "unocc",
				"energy": -0.01229,
				"method": "rhf"
			},
			{
				"type": "unocc",
				"energy": 0.04099,
				"method": "rhf"
			},
			{
				"type": "unocc",
				"energy": 0.06595,
				"method": "rhf"
			},
			{
				"type": "unocc",
				"energy": 0.08802,
				"method": "rhf"
			},
			{
				"type": "unocc",
				"energy": 0.1144,
				"method": "rhf"
			}
		],
		"cosmo_sigma_profile": { 
			"-0.025": 0.0,
			"-0.024": 0.0,
			"-0.023": 0.0,
			"-0.022": 0.0,
			"-0.021": 0.0,
			"-0.02": 0.352894160624,
			"-0.019": 1.40611656614,
			"-0.018": 0.633189098202,
			"-0.017": 1.26492782346,
			"-0.016": 0.615368052849,
			"-0.015": 2.24292614884,
			"-0.014": 2.80258110901,
			"-0.013": 1.85812948508,
			"-0.012": 3.21458377447,
			"-0.011": 2.84425114102,
			"-0.01": 2.43661837423,
			"-0.009": 2.36522807357,
			"-0.008": 2.07927244165,
			"-0.007": 2.093151206,
			"-0.006": 4.76834823243,
			"-0.005": 7.64979318926,
			"-0.004": 13.4977294008,
			"-0.003": 11.4928085818,
			"-0.002": 12.4120781968,
			"-0.001": 11.9604646196,
			"0.0": 13.3001591156,
			"0.001": 9.20200327613,
			"0.002": 6.03285860482,
			"0.003": 5.71351680432,
			"0.004": 5.92726331417,
			"0.005": 5.81306895381,
			"0.006": 4.88653159444,
			"0.007": 4.62217350828,
			"0.008": 3.78170352729,
			"0.009": 4.71503605244,
			"0.01": 3.99998171483,
			"0.011": 4.18361832652,
			"0.012": 4.89392317493,
			"0.013": 4.32333777154,
			"0.014": 5.91969800837,
			"0.015": 0.129005780763,
			"0.016": 0.0,
			"0.017": 0.0,
			"0.018": 0.0,
			"0.019": 0.0,
			"0.02": 0.0,
			"0.021": 0.0,
			"0.022": 0.0,
			"0.023": 0.0,
			"0.024": 0.0,
			"0.025": 0.0
		}
	}
}
