{
	 "smiles": "CC(=O)NC1=CC(N)=C(Cl)C=C1", 
	 "Tm": 443.15, 
	 "num_atms": 21, 
	 "gaussian": { 
		 "optdone": 1, 
		 "sigma_profile": "yes", 
		 "theory": "DFT", 
		 "functional": "B3LYP", 
		 "basiset": "6-31G**", 
		 "properties": { 
			 "R2extent": 3589.2349, 
			 "electric_dipole_moment_norm": 2.78092687606, 
			 "electric_quadrupole_moment_norm": 21.942443312, 
			 "total_energy": -955.216258658, 
			 "HOMO_LUMO_gap": 0.19279, 
			 "cosmo_polarized_energy": -14.75, 
			 "cosmo_cavitation_energy": 26.73, 
			 "cosmo_dispersion_energy": -19.86, 
			 "cosmo_repulsion_energy": 1.59, 
			 "cosmo_total_nonelectrostatic_energy": 8.47, 
			 "SMD_solvation_energy": 5.1 
		},
		"coords": [
			{
				"x": 1.085054867,
				"y": -3.2360018292,
				"z": 0.0893897819,
				"element": "C" 
			},
			{
				"x": -0.1864322423,
				"y": -2.779478903,
				"z": 0.7785441113,
				"element": "C" 
			},
			{
				"x": -0.7627943054,
				"y": -3.4767099094,
				"z": 1.6008931555,
				"element": "O" 
			},
			{
				"x": -0.7175098432,
				"y": -1.5407548142,
				"z": 0.4521780471,
				"element": "N" 
			},
			{
				"x": -0.3043761637,
				"y": -0.5468681628,
				"z": -0.462365562,
				"element": "C" 
			},
			{
				"x": -1.2921390084,
				"y": 0.1128062363,
				"z": -1.2014236539,
				"element": "C" 
			},
			{
				"x": -0.9809379472,
				"y": 1.1483453549,
				"z": -2.0979697863,
				"element": "C" 
			},
			{
				"x": -1.978432943,
				"y": 1.8283663342,
				"z": -2.7727312607,
				"element": "N" 
			},
			{
				"x": 0.38031534,
				"y": 1.483821843,
				"z": -2.2479983943,
				"element": "C" 
			},
			{
				"x": 0.8343816427,
				"y": 2.7532760173,
				"z": -3.3843557181,
				"element": "Cl" 
			},
			{
				"x": 1.3677992403,
				"y": 0.8354962522,
				"z": -1.5164405758,
				"element": "C" 
			},
			{
				"x": 1.0385281282,
				"y": -0.1699794456,
				"z": -0.6100033246,
				"element": "C" 
			},
			{
				"x": 1.1705437307,
				"y": -2.873529738,
				"z": -0.9370847238,
				"element": "H" 
			},
			{
				"x": 1.0877594496,
				"y": -4.3264144699,
				"z": 0.1073599387,
				"element": "H" 
			},
			{
				"x": 1.9619386601,
				"y": -2.8898531502,
				"z": 0.6468808334,
				"element": "H" 
			},
			{
				"x": -1.6201185299,
				"y": -1.4046363172,
				"z": 0.8911560205,
				"element": "H" 
			},
			{
				"x": -2.3312485515,
				"y": -0.185225997,
				"z": -1.0859046426,
				"element": "H" 
			},
			{
				"x": -1.691102322,
				"y": 2.3360701423,
				"z": -3.5971235925,
				"element": "H" 
			},
			{
				"x": -2.8567120806,
				"y": 1.3423951847,
				"z": -2.8762520728,
				"element": "H" 
			},
			{
				"x": 2.4022630889,
				"y": 1.13505625,
				"z": -1.6450290867,
				"element": "H" 
			},
			{
				"x": 1.8128197897,
				"y": -0.6261808785,
				"z": -0.0072194945,
				"element": "H" 
			}
		],
		 "valence_orbital": [ 
			{
				"type": "occ",
				"energy": -0.32172,
				"method": "rhf"
			},
			{
				"type": "occ",
				"energy": -0.28497,
				"method": "rhf"
			},
			{
				"type": "occ",
				"energy": -0.25306,
				"method": "rhf"
			},
			{
				"type": "occ",
				"energy": -0.23513,
				"method": "rhf"
			},
			{
				"type": "occ",
				"energy": -0.2138,
				"method": "rhf"
			},
			{
				"type": "unocc",
				"energy": -0.02101,
				"method": "rhf"
			},
			{
				"type": "unocc",
				"energy": -0.00316,
				"method": "rhf"
			},
			{
				"type": "unocc",
				"energy": 0.02513,
				"method": "rhf"
			},
			{
				"type": "unocc",
				"energy": 0.03327,
				"method": "rhf"
			},
			{
				"type": "unocc",
				"energy": 0.07597,
				"method": "rhf"
			}
		],
		"cosmo_sigma_profile": { 
			"-0.025": 0.0,
			"-0.024": 0.0,
			"-0.023": 0.0,
			"-0.022": 0.0,
			"-0.021": 0.0,
			"-0.02": 0.0,
			"-0.019": 0.0,
			"-0.018": 0.0,
			"-0.017": 0.0,
			"-0.016": 0.0,
			"-0.015": 0.0,
			"-0.014": 0.593858137194,
			"-0.013": 2.77819382737,
			"-0.012": 2.47057020153,
			"-0.011": 3.84381415783,
			"-0.01": 3.99472757862,
			"-0.009": 3.27321459908,
			"-0.008": 4.833317176,
			"-0.007": 8.30344648617,
			"-0.006": 8.48620817796,
			"-0.005": 9.97751119507,
			"-0.004": 11.4195690874,
			"-0.003": 12.6056314738,
			"-0.002": 15.4670774915,
			"-0.001": 13.779836603,
			"0.0": 11.2612634934,
			"0.001": 13.2056750916,
			"0.002": 13.484406743,
			"0.003": 17.5227394455,
			"0.004": 20.363814706,
			"0.005": 11.306635578,
			"0.006": 2.11721627824,
			"0.007": 2.33508689323,
			"0.008": 2.24405748554,
			"0.009": 1.94532883758,
			"0.01": 2.26678872711,
			"0.011": 1.76549165537,
			"0.012": 2.76023553765,
			"0.013": 5.38218577118,
			"0.014": 4.08460175196,
			"0.015": 0.609278475234,
			"0.016": 0.0,
			"0.017": 0.0,
			"0.018": 0.0,
			"0.019": 0.0,
			"0.02": 0.0,
			"0.021": 0.0,
			"0.022": 0.0,
			"0.023": 0.0,
			"0.024": 0.0,
			"0.025": 0.0
		}
	}
}
