{
	 "smiles": "CC1=CC(Br)=C(OC2=C(Cl)C=C(N)C=C2)C=C1", 
	 "Tm": 384.15, 
	 "num_atms": 28, 
	 "gaussian": { 
		 "optdone": 1, 
		 "sigma_profile": "yes", 
		 "theory": "DFT", 
		 "functional": "B3LYP", 
		 "basiset": "6-31G**", 
		 "properties": { 
			 "R2extent": 9155.6383, 
			 "electric_dipole_moment_norm": 5.34148010761, 
			 "electric_quadrupole_moment_norm": 30.0574573181, 
			 "total_energy": -3663.57988725, 
			 "HOMO_LUMO_gap": 0.19374, 
			 "cosmo_polarized_energy": -13.38, 
			 "cosmo_cavitation_energy": 36.65, 
			 "cosmo_dispersion_energy": -26.13, 
			 "cosmo_repulsion_energy": 2.07, 
			 "cosmo_total_nonelectrostatic_energy": 12.58, 
			 "SMD_solvation_energy": 5.01 
		},
		"coords": [
			{
				"x": -3.5713108069,
				"y": 0.8169860999,
				"z": 1.9159760104,
				"element": "C" 
			},
			{
				"x": -2.4913918223,
				"y": -0.0782722617,
				"z": 1.3546754449,
				"element": "C" 
			},
			{
				"x": -2.7789278465,
				"y": -1.3987757228,
				"z": 0.9845719811,
				"element": "C" 
			},
			{
				"x": -1.7865455003,
				"y": -2.2398093553,
				"z": 0.492222871,
				"element": "C" 
			},
			{
				"x": -2.2335400754,
				"y": -4.0252938246,
				"z": -0.0050746586,
				"element": "Br" 
			},
			{
				"x": -0.4675943961,
				"y": -1.7846783323,
				"z": 0.3530635998,
				"element": "C" 
			},
			{
				"x": 0.4583288093,
				"y": -2.6741209334,
				"z": -0.1359463059,
				"element": "O" 
			},
			{
				"x": 1.7447221077,
				"y": -2.2469385624,
				"z": -0.4033376075,
				"element": "C" 
			},
			{
				"x": 2.7782175788,
				"y": -2.4414696247,
				"z": 0.5203759499,
				"element": "C" 
			},
			{
				"x": 2.4276427701,
				"y": -3.1320385117,
				"z": 2.0895920067,
				"element": "Cl" 
			},
			{
				"x": 4.0909321778,
				"y": -2.0951488557,
				"z": 0.2089478422,
				"element": "C" 
			},
			{
				"x": 4.401606478,
				"y": -1.5409726349,
				"z": -1.043813046,
				"element": "C" 
			},
			{
				"x": 5.7217309714,
				"y": -1.2484703429,
				"z": -1.3794152328,
				"element": "N" 
			},
			{
				"x": 3.3616418949,
				"y": -1.3470083702,
				"z": -1.9710228326,
				"element": "C" 
			},
			{
				"x": 2.0563357961,
				"y": -1.6995639843,
				"z": -1.649204058,
				"element": "C" 
			},
			{
				"x": -0.1722103134,
				"y": -0.4692506893,
				"z": 0.7158014914,
				"element": "C" 
			},
			{
				"x": -1.1743232485,
				"y": 0.3671577553,
				"z": 1.2075932598,
				"element": "C" 
			},
			{
				"x": -3.308000827,
				"y": 1.8730709011,
				"z": 1.8067168842,
				"element": "H" 
			},
			{
				"x": -3.731634199,
				"y": 0.6282388335,
				"z": 2.9848175447,
				"element": "H" 
			},
			{
				"x": -4.5293662814,
				"y": 0.6550245536,
				"z": 1.4119307989,
				"element": "H" 
			},
			{
				"x": -3.7896802585,
				"y": -1.7830434079,
				"z": 1.0764895918,
				"element": "H" 
			},
			{
				"x": 4.8721748037,
				"y": -2.2664487841,
				"z": 0.9422978361,
				"element": "H" 
			},
			{
				"x": 5.8426904035,
				"y": -0.5628353059,
				"z": -2.1113890869,
				"element": "H" 
			},
			{
				"x": 6.3472662618,
				"y": -1.0920629738,
				"z": -0.6017330678,
				"element": "H" 
			},
			{
				"x": 3.5831166969,
				"y": -0.9303821159,
				"z": -2.9496283217,
				"element": "H" 
			},
			{
				"x": 1.2535736435,
				"y": -1.5622402071,
				"z": -2.3665182182,
				"element": "H" 
			},
			{
				"x": 0.8429254353,
				"y": -0.103909004,
				"z": 0.6097967683,
				"element": "H" 
			},
			{
				"x": -0.9190802534,
				"y": 1.3872556615,
				"z": 1.4823125549,
				"element": "H" 
			}
		],
		 "valence_orbital": [ 
			{
				"type": "occ",
				"energy": -0.27351,
				"method": "rhf"
			},
			{
				"type": "occ",
				"energy": -0.25238,
				"method": "rhf"
			},
			{
				"type": "occ",
				"energy": -0.24093,
				"method": "rhf"
			},
			{
				"type": "occ",
				"energy": -0.21859,
				"method": "rhf"
			},
			{
				"type": "occ",
				"energy": -0.21244,
				"method": "rhf"
			},
			{
				"type": "unocc",
				"energy": -0.0187,
				"method": "rhf"
			},
			{
				"type": "unocc",
				"energy": -0.00579,
				"method": "rhf"
			},
			{
				"type": "unocc",
				"energy": 0.00093,
				"method": "rhf"
			},
			{
				"type": "unocc",
				"energy": 0.00698,
				"method": "rhf"
			},
			{
				"type": "unocc",
				"energy": 0.01893,
				"method": "rhf"
			}
		],
		"cosmo_sigma_profile": { 
			"-0.025": 0.0,
			"-0.024": 0.0,
			"-0.023": 0.0,
			"-0.022": 0.0,
			"-0.021": 0.0,
			"-0.02": 0.0,
			"-0.019": 0.0,
			"-0.018": 0.0,
			"-0.017": 0.0,
			"-0.016": 0.0,
			"-0.015": 0.0,
			"-0.014": 0.0,
			"-0.013": 1.7820514806,
			"-0.012": 3.02026601399,
			"-0.011": 2.99773789325,
			"-0.01": 3.36156194361,
			"-0.009": 3.32841045541,
			"-0.008": 3.46452118371,
			"-0.007": 6.82922738868,
			"-0.006": 10.2770464322,
			"-0.005": 13.9531373293,
			"-0.004": 18.4382462528,
			"-0.003": 16.1957852726,
			"-0.002": 19.9832724302,
			"-0.001": 21.3511393132,
			"0.0": 21.1179764693,
			"0.001": 20.9333523634,
			"0.002": 27.0306230106,
			"0.003": 33.2458618397,
			"0.004": 35.8788823999,
			"0.005": 17.7826453546,
			"0.006": 4.82108692303,
			"0.007": 3.66367110218,
			"0.008": 2.42248207697,
			"0.009": 2.6713695122,
			"0.01": 1.49942070043,
			"0.011": 0.391490015477,
			"0.012": 0.595175336587,
			"0.013": 0.772275845285,
			"0.014": 0.217944521711,
			"0.015": 0.0,
			"0.016": 0.0,
			"0.017": 0.0,
			"0.018": 0.0,
			"0.019": 0.0,
			"0.02": 0.0,
			"0.021": 0.0,
			"0.022": 0.0,
			"0.023": 0.0,
			"0.024": 0.0,
			"0.025": 0.0
		}
	}
}
