{
	 "smiles": "CCC1=CC=C(C)C(C)=C1", 
	 "Tm": 206.15, 
	 "num_atms": 24, 
	 "gaussian": { 
		 "optdone": 1, 
		 "sigma_profile": "yes", 
		 "theory": "DFT", 
		 "functional": "B3LYP", 
		 "basiset": "6-31G**", 
		 "properties": { 
			 "R2extent": 1814.0639, 
			 "electric_dipole_moment_norm": 0.372867670897, 
			 "electric_quadrupole_moment_norm": 4.21616848216, 
			 "total_energy": -389.527582707, 
			 "HOMO_LUMO_gap": 0.23069, 
			 "cosmo_polarized_energy": -3.17, 
			 "cosmo_cavitation_energy": 26.1, 
			 "cosmo_dispersion_energy": -18.76, 
			 "cosmo_repulsion_energy": 1.53, 
			 "cosmo_total_nonelectrostatic_energy": 8.87, 
			 "SMD_solvation_energy": 4.46 
		},
		"coords": [
			{
				"x": -1.333713316,
				"y": -1.227871907,
				"z": 2.8365701023,
				"element": "C" 
			},
			{
				"x": -1.3833554234,
				"y": -1.645916231,
				"z": 1.3558032461,
				"element": "C" 
			},
			{
				"x": -0.5159063236,
				"y": -0.778304102,
				"z": 0.4681092734,
				"element": "C" 
			},
			{
				"x": 0.8218756306,
				"y": -1.1009034871,
				"z": 0.222303813,
				"element": "C" 
			},
			{
				"x": 1.6176475848,
				"y": -0.2697478176,
				"z": -0.5662416283,
				"element": "C" 
			},
			{
				"x": 1.1122486279,
				"y": 0.9038016885,
				"z": -1.1348519228,
				"element": "C" 
			},
			{
				"x": 1.9957999265,
				"y": 1.7826612597,
				"z": -1.9880654504,
				"element": "C" 
			},
			{
				"x": -0.2377085874,
				"y": 1.2414282289,
				"z": -0.8973405038,
				"element": "C" 
			},
			{
				"x": -0.8375478826,
				"y": 2.4937348243,
				"z": -1.4923055398,
				"element": "C" 
			},
			{
				"x": -1.0204784455,
				"y": 0.3965470273,
				"z": -0.1042804929,
				"element": "C" 
			},
			{
				"x": -0.3122586993,
				"y": -1.2883839425,
				"z": 3.226146588,
				"element": "H" 
			},
			{
				"x": -1.6748739355,
				"y": -0.1952219074,
				"z": 2.9635427574,
				"element": "H" 
			},
			{
				"x": -1.970667154,
				"y": -1.8741859526,
				"z": 3.4500869131,
				"element": "H" 
			},
			{
				"x": -2.4220694397,
				"y": -1.6056634102,
				"z": 1.005723621,
				"element": "H" 
			},
			{
				"x": -1.0661945633,
				"y": -2.6920204733,
				"z": 1.2666802469,
				"element": "H" 
			},
			{
				"x": 1.2450199008,
				"y": -2.0090393095,
				"z": 0.6457367345,
				"element": "H" 
			},
			{
				"x": 2.6552001791,
				"y": -0.5400669527,
				"z": -0.7490060748,
				"element": "H" 
			},
			{
				"x": 3.0061362778,
				"y": 1.3713603353,
				"z": -2.0621690806,
				"element": "H" 
			},
			{
				"x": 1.603797135,
				"y": 1.8877183905,
				"z": -3.0074080076,
				"element": "H" 
			},
			{
				"x": 2.0785942191,
				"y": 2.7970832664,
				"z": -1.5785127419,
				"element": "H" 
			},
			{
				"x": -0.3090429997,
				"y": 3.3951509748,
				"z": -1.1581951991,
				"element": "H" 
			},
			{
				"x": -1.888356255,
				"y": 2.6007889675,
				"z": -1.2101604221,
				"element": "H" 
			},
			{
				"x": -0.7852939179,
				"y": 2.4882995112,
				"z": -2.5880875022,
				"element": "H" 
			},
			{
				"x": -2.0620525387,
				"y": 0.6615510187,
				"z": 0.0702212705,
				"element": "H" 
			}
		],
		 "valence_orbital": [ 
			{
				"type": "occ",
				"energy": -0.32776,
				"method": "rhf"
			},
			{
				"type": "occ",
				"energy": -0.32099,
				"method": "rhf"
			},
			{
				"type": "occ",
				"energy": -0.3178,
				"method": "rhf"
			},
			{
				"type": "occ",
				"energy": -0.23437,
				"method": "rhf"
			},
			{
				"type": "occ",
				"energy": -0.22191,
				"method": "rhf"
			},
			{
				"type": "unocc",
				"energy": 0.00878,
				"method": "rhf"
			},
			{
				"type": "unocc",
				"energy": 0.01164,
				"method": "rhf"
			},
			{
				"type": "unocc",
				"energy": 0.09678,
				"method": "rhf"
			},
			{
				"type": "unocc",
				"energy": 0.10272,
				"method": "rhf"
			},
			{
				"type": "unocc",
				"energy": 0.12126,
				"method": "rhf"
			}
		],
		"cosmo_sigma_profile": { 
			"-0.025": 0.0,
			"-0.024": 0.0,
			"-0.023": 0.0,
			"-0.022": 0.0,
			"-0.021": 0.0,
			"-0.02": 0.0,
			"-0.019": 0.0,
			"-0.018": 0.0,
			"-0.017": 0.0,
			"-0.016": 0.0,
			"-0.015": 0.0,
			"-0.014": 0.0,
			"-0.013": 0.0,
			"-0.012": 0.0,
			"-0.011": 0.0,
			"-0.01": 0.0,
			"-0.009": 0.0,
			"-0.008": 0.0,
			"-0.007": 0.0,
			"-0.006": 0.0,
			"-0.005": 1.72876270145,
			"-0.004": 14.7370073861,
			"-0.003": 28.0031758968,
			"-0.002": 26.9960565626,
			"-0.001": 27.3717383611,
			"0.0": 31.2149073846,
			"0.001": 25.7438395082,
			"0.002": 12.0378270948,
			"0.003": 8.43361712156,
			"0.004": 6.07039616427,
			"0.005": 7.54120814166,
			"0.006": 6.396908538,
			"0.007": 6.49145080567,
			"0.008": 1.33591380335,
			"0.009": 0.0,
			"0.01": 0.0,
			"0.011": 0.0,
			"0.012": 0.0,
			"0.013": 0.0,
			"0.014": 0.0,
			"0.015": 0.0,
			"0.016": 0.0,
			"0.017": 0.0,
			"0.018": 0.0,
			"0.019": 0.0,
			"0.02": 0.0,
			"0.021": 0.0,
			"0.022": 0.0,
			"0.023": 0.0,
			"0.024": 0.0,
			"0.025": 0.0
		}
	}
}
