{
	 "smiles": "CC(C)OC(=O)C1(CCCCCC1)S(=O)(=O)C1=CC=C(C=C1)N(=O)=O", 
	 "Tm": 356.65, 
	 "num_atms": 48, 
	 "gaussian": { 
		 "optdone": 1, 
		 "sigma_profile": "yes", 
		 "theory": "DFT", 
		 "functional": "B3LYP", 
		 "basiset": "6-31G**", 
		 "properties": { 
			 "R2extent": 11177.728, 
			 "electric_dipole_moment_norm": 5.28539455102, 
			 "electric_quadrupole_moment_norm": 25.0272796071, 
			 "total_energy": -1565.81508004, 
			 "HOMO_LUMO_gap": 0.17772, 
			 "cosmo_polarized_energy": -16.74, 
			 "cosmo_cavitation_energy": 49.54, 
			 "cosmo_dispersion_energy": -33.01, 
			 "cosmo_repulsion_energy": 2.46, 
			 "cosmo_total_nonelectrostatic_energy": 18.99, 
			 "SMD_solvation_energy": 9.5 
		},
		"coords": [
			{
				"x": 2.2197135309,
				"y": -1.4590078613,
				"z": 3.1586751071,
				"element": "C" 
			},
			{
				"x": 1.4776272111,
				"y": -0.2408548487,
				"z": 2.6298994987,
				"element": "C" 
			},
			{
				"x": 0.64460285,
				"y": 0.4855523193,
				"z": 3.6791272715,
				"element": "C" 
			},
			{
				"x": 0.5958574641,
				"y": -0.7441701893,
				"z": 1.5742135134,
				"element": "O" 
			},
			{
				"x": 0.3175455389,
				"y": 0.0732098161,
				"z": 0.5529886847,
				"element": "C" 
			},
			{
				"x": 0.677498876,
				"y": 1.2338834854,
				"z": 0.4772624438,
				"element": "O" 
			},
			{
				"x": -0.4712548248,
				"y": -0.6189941706,
				"z": -0.5609902604,
				"element": "C" 
			},
			{
				"x": -1.4528571652,
				"y": 0.3416678509,
				"z": -1.2624742232,
				"element": "C" 
			},
			{
				"x": -2.3907209317,
				"y": 1.1709868434,
				"z": -0.357020907,
				"element": "C" 
			},
			{
				"x": -3.0355186216,
				"y": 0.4639076963,
				"z": 0.8517740989,
				"element": "C" 
			},
			{
				"x": -3.3990160755,
				"y": -1.018191772,
				"z": 0.6584714075,
				"element": "C" 
			},
			{
				"x": -2.2120145594,
				"y": -1.9689304963,
				"z": 0.8810383045,
				"element": "C" 
			},
			{
				"x": -1.1092265468,
				"y": -1.979691347,
				"z": -0.1931829986,
				"element": "C" 
			},
			{
				"x": 0.8622531518,
				"y": -1.1188188209,
				"z": -1.8331767993,
				"element": "S" 
			},
			{
				"x": 0.155632673,
				"y": -1.823961675,
				"z": -2.9172844789,
				"element": "O" 
			},
			{
				"x": 1.9568420263,
				"y": -1.7643676463,
				"z": -1.087078067,
				"element": "O" 
			},
			{
				"x": 1.5501645077,
				"y": 0.3873070421,
				"z": -2.5730283018,
				"element": "C" 
			},
			{
				"x": 2.6192183983,
				"y": 1.0351387787,
				"z": -1.950160121,
				"element": "C" 
			},
			{
				"x": 3.1862973238,
				"y": 2.1496651135,
				"z": -2.5621406905,
				"element": "C" 
			},
			{
				"x": 2.6686385283,
				"y": 2.5776566317,
				"z": -3.7830254339,
				"element": "C" 
			},
			{
				"x": 1.6139684274,
				"y": 1.9287829148,
				"z": -4.4209999941,
				"element": "C" 
			},
			{
				"x": 1.0494631191,
				"y": 0.8138570692,
				"z": -3.8056078411,
				"element": "C" 
			},
			{
				"x": 3.2687952419,
				"y": 3.760724387,
				"z": -4.4319636161,
				"element": "N" 
			},
			{
				"x": 2.790835972,
				"y": 4.1223020444,
				"z": -5.5053179559,
				"element": "O" 
			},
			{
				"x": 4.2066943061,
				"y": 4.308763698,
				"z": -3.8568140852,
				"element": "O" 
			},
			{
				"x": 2.7572521924,
				"y": -1.9607439109,
				"z": 2.349999784,
				"element": "H" 
			},
			{
				"x": 1.5241350376,
				"y": -2.1741567926,
				"z": 3.6090395425,
				"element": "H" 
			},
			{
				"x": 2.941251317,
				"y": -1.1533650844,
				"z": 3.922640039,
				"element": "H" 
			},
			{
				"x": 2.1701498612,
				"y": 0.4621507945,
				"z": 2.1590650346,
				"element": "H" 
			},
			{
				"x": 0.1327077843,
				"y": 1.3450026977,
				"z": 3.2393656886,
				"element": "H" 
			},
			{
				"x": 1.2930431387,
				"y": 0.849785849,
				"z": 4.4824313786,
				"element": "H" 
			},
			{
				"x": -0.0984305412,
				"y": -0.1878704255,
				"z": 4.1184279022,
				"element": "H" 
			},
			{
				"x": -2.0394805836,
				"y": -0.266852175,
				"z": -1.9573691391,
				"element": "H" 
			},
			{
				"x": -0.8944371725,
				"y": 1.0593830093,
				"z": -1.8691304183,
				"element": "H" 
			},
			{
				"x": -3.1818033742,
				"y": 1.5532340956,
				"z": -1.0135899593,
				"element": "H" 
			},
			{
				"x": -1.843206094,
				"y": 2.0469475234,
				"z": 0.0036930503,
				"element": "H" 
			},
			{
				"x": -2.3670504767,
				"y": 0.5375007474,
				"z": 1.7201667058,
				"element": "H" 
			},
			{
				"x": -3.9326243691,
				"y": 1.0304985257,
				"z": 1.128072856,
				"element": "H" 
			},
			{
				"x": -4.1770035374,
				"y": -1.2841795297,
				"z": 1.3843316839,
				"element": "H" 
			},
			{
				"x": -3.8445422793,
				"y": -1.1817315538,
				"z": -0.3326200631,
				"element": "H" 
			},
			{
				"x": -1.7647772935,
				"y": -1.7480130027,
				"z": 1.8566156608,
				"element": "H" 
			},
			{
				"x": -2.5853185061,
				"y": -2.9987271359,
				"z": 0.942717065,
				"element": "H" 
			},
			{
				"x": -0.3186644969,
				"y": -2.6597583699,
				"z": 0.1358573716,
				"element": "H" 
			},
			{
				"x": -1.5179423817,
				"y": -2.3904605751,
				"z": -1.121766981,
				"element": "H" 
			},
			{
				"x": 3.007459235,
				"y": 0.6655553517,
				"z": -1.0098086101,
				"element": "H" 
			},
			{
				"x": 4.0151392297,
				"y": 2.68435948,
				"z": -2.1162156975,
				"element": "H" 
			},
			{
				"x": 1.2600049381,
				"y": 2.2941078274,
				"z": -5.3766005514,
				"element": "H" 
			},
			{
				"x": 0.2455979505,
				"y": 0.2623157904,
				"z": -4.2794068992,
				"element": "H" 
			}
		],
		 "valence_orbital": [ 
			{
				"type": "occ",
				"energy": -0.30085,
				"method": "rhf"
			},
			{
				"type": "occ",
				"energy": -0.30012,
				"method": "rhf"
			},
			{
				"type": "occ",
				"energy": -0.29128,
				"method": "rhf"
			},
			{
				"type": "occ",
				"energy": -0.28583,
				"method": "rhf"
			},
			{
				"type": "occ",
				"energy": -0.28211,
				"method": "rhf"
			},
			{
				"type": "unocc",
				"energy": -0.10439,
				"method": "rhf"
			},
			{
				"type": "unocc",
				"energy": -0.04096,
				"method": "rhf"
			},
			{
				"type": "unocc",
				"energy": -0.0343,
				"method": "rhf"
			},
			{
				"type": "unocc",
				"energy": -0.02311,
				"method": "rhf"
			},
			{
				"type": "unocc",
				"energy": 0.03823,
				"method": "rhf"
			}
		],
		"cosmo_sigma_profile": { 
			"-0.025": 0.0,
			"-0.024": 0.0,
			"-0.023": 0.0,
			"-0.022": 0.0,
			"-0.021": 0.0,
			"-0.02": 0.0,
			"-0.019": 0.0,
			"-0.018": 0.0,
			"-0.017": 0.0,
			"-0.016": 0.0,
			"-0.015": 0.0,
			"-0.014": 0.0,
			"-0.013": 0.0,
			"-0.012": 0.0,
			"-0.011": 0.0,
			"-0.01": 0.0,
			"-0.009": 1.87791288008,
			"-0.008": 7.37906483794,
			"-0.007": 6.6804501725,
			"-0.006": 6.78078250157,
			"-0.005": 13.5180284412,
			"-0.004": 31.5598988104,
			"-0.003": 45.7495192031,
			"-0.002": 56.3657603776,
			"-0.001": 54.4652979924,
			"0.0": 44.422410375,
			"0.001": 18.0008946627,
			"0.002": 10.9625171493,
			"0.003": 9.73667377918,
			"0.004": 9.03278336597,
			"0.005": 9.05858784338,
			"0.006": 11.2020809679,
			"0.007": 15.2290854378,
			"0.008": 9.38718588022,
			"0.009": 9.46142946197,
			"0.01": 8.4180101149,
			"0.011": 7.82067466812,
			"0.012": 1.26949853175,
			"0.013": 0.0,
			"0.014": 0.0,
			"0.015": 0.0,
			"0.016": 0.0,
			"0.017": 0.0,
			"0.018": 0.0,
			"0.019": 0.0,
			"0.02": 0.0,
			"0.021": 0.0,
			"0.022": 0.0,
			"0.023": 0.0,
			"0.024": 0.0,
			"0.025": 0.0
		}
	}
}
