{
	 "smiles": "NC1=CC(OCCO)=NC=C1", 
	 "Tm": 373.15, 
	 "num_atms": 21, 
	 "gaussian": { 
		 "optdone": 1, 
		 "sigma_profile": "yes", 
		 "theory": "DFT", 
		 "functional": "B3LYP", 
		 "basiset": "6-31G**", 
		 "properties": { 
			 "R2extent": 2845.1213, 
			 "electric_dipole_moment_norm": 3.87037102227, 
			 "electric_quadrupole_moment_norm": 16.6901197932, 
			 "total_energy": -532.714726634, 
			 "HOMO_LUMO_gap": 0.22394, 
			 "cosmo_polarized_energy": -14.08, 
			 "cosmo_cavitation_energy": 24.94, 
			 "cosmo_dispersion_energy": -18.68, 
			 "cosmo_repulsion_energy": 1.54, 
			 "cosmo_total_nonelectrostatic_energy": 7.8, 
			 "SMD_solvation_energy": 3.64 
		},
		"coords": [
			{
				"x": 2.3685524392,
				"y": 2.735025621,
				"z": 1.3404964122,
				"element": "N" 
			},
			{
				"x": 1.6895854147,
				"y": 1.5609510168,
				"z": 1.6064796969,
				"element": "C" 
			},
			{
				"x": 1.4316975514,
				"y": 0.6247228059,
				"z": 0.6010783015,
				"element": "C" 
			},
			{
				"x": 0.6926077366,
				"y": -0.5170381474,
				"z": 0.9330623612,
				"element": "C" 
			},
			{
				"x": 0.4614533441,
				"y": -1.3968092459,
				"z": -0.0756927416,
				"element": "O" 
			},
			{
				"x": -0.265780816,
				"y": -2.5988944282,
				"z": 0.2355987702,
				"element": "C" 
			},
			{
				"x": -0.3176615353,
				"y": -3.3906195932,
				"z": -1.0594935822,
				"element": "C" 
			},
			{
				"x": 0.9762331335,
				"y": -3.7316654503,
				"z": -1.5249449322,
				"element": "O" 
			},
			{
				"x": 0.2134632612,
				"y": -0.7869020007,
				"z": 2.1438479997,
				"element": "N" 
			},
			{
				"x": 0.4722365076,
				"y": 0.1235404605,
				"z": 3.0996447498,
				"element": "C" 
			},
			{
				"x": 1.1879152153,
				"y": 1.2905517139,
				"z": 2.9001902055,
				"element": "C" 
			},
			{
				"x": 2.787308912,
				"y": 3.2056620925,
				"z": 2.1288356956,
				"element": "H" 
			},
			{
				"x": 2.9381004951,
				"y": 2.7534396583,
				"z": 0.5074183867,
				"element": "H" 
			},
			{
				"x": 1.7815461339,
				"y": 0.7654240536,
				"z": -0.4162146582,
				"element": "H" 
			},
			{
				"x": -1.2679172485,
				"y": -2.3514370589,
				"z": 0.6025381015,
				"element": "H" 
			},
			{
				"x": 0.2593908428,
				"y": -3.1546896006,
				"z": 1.0186233328,
				"element": "H" 
			},
			{
				"x": -0.8810109077,
				"y": -2.817212549,
				"z": -1.8134854167,
				"element": "H" 
			},
			{
				"x": -0.8540892628,
				"y": -4.3293952297,
				"z": -0.8854109829,
				"element": "H" 
			},
			{
				"x": 1.4766670555,
				"y": -2.904223084,
				"z": -1.5463995425,
				"element": "H" 
			},
			{
				"x": 0.0777007332,
				"y": -0.1060718426,
				"z": 4.087913573,
				"element": "H" 
			},
			{
				"x": 1.3547009943,
				"y": 1.985040808,
				"z": 3.7178142697,
				"element": "H" 
			}
		],
		 "valence_orbital": [ 
			{
				"type": "occ",
				"energy": -0.31238,
				"method": "rhf"
			},
			{
				"type": "occ",
				"energy": -0.26463,
				"method": "rhf"
			},
			{
				"type": "occ",
				"energy": -0.25518,
				"method": "rhf"
			},
			{
				"type": "occ",
				"energy": -0.22879,
				"method": "rhf"
			},
			{
				"type": "occ",
				"energy": -0.2266,
				"method": "rhf"
			},
			{
				"type": "unocc",
				"energy": -0.00266,
				"method": "rhf"
			},
			{
				"type": "unocc",
				"energy": 0.01363,
				"method": "rhf"
			},
			{
				"type": "unocc",
				"energy": 0.07223,
				"method": "rhf"
			},
			{
				"type": "unocc",
				"energy": 0.09936,
				"method": "rhf"
			},
			{
				"type": "unocc",
				"energy": 0.11205,
				"method": "rhf"
			}
		],
		"cosmo_sigma_profile": { 
			"-0.025": 0.0,
			"-0.024": 0.0,
			"-0.023": 0.0,
			"-0.022": 0.0,
			"-0.021": 0.0,
			"-0.02": 0.0,
			"-0.019": 0.0,
			"-0.018": 0.0,
			"-0.017": 0.0,
			"-0.016": 0.0,
			"-0.015": 0.0,
			"-0.014": 0.0974260728209,
			"-0.013": 2.96015341581,
			"-0.012": 3.168493165,
			"-0.011": 3.7349583969,
			"-0.01": 3.57285994388,
			"-0.009": 3.46702505309,
			"-0.008": 3.79196220767,
			"-0.007": 4.55663039965,
			"-0.006": 7.41256094581,
			"-0.005": 12.862953669,
			"-0.004": 16.5392438784,
			"-0.003": 13.6901599428,
			"-0.002": 10.8200393788,
			"-0.001": 10.0823436795,
			"0.0": 8.1929173105,
			"0.001": 9.32842673131,
			"0.002": 10.5056008452,
			"0.003": 13.8106733783,
			"0.004": 15.9340556339,
			"0.005": 10.5848240261,
			"0.006": 3.67765888286,
			"0.007": 4.71121993016,
			"0.008": 4.2228196767,
			"0.009": 3.52358731673,
			"0.01": 3.06420748,
			"0.011": 2.42128159186,
			"0.012": 3.11500040145,
			"0.013": 2.89972286866,
			"0.014": 3.0458903503,
			"0.015": 0.700561933923,
			"0.016": 0.0,
			"0.017": 0.0,
			"0.018": 0.0,
			"0.019": 0.0,
			"0.02": 0.0,
			"0.021": 0.0,
			"0.022": 0.0,
			"0.023": 0.0,
			"0.024": 0.0,
			"0.025": 0.0
		}
	}
}
