{
	 "smiles": "CC1(C)CCCCC1=O", 
	 "Tm": 252.65, 
	 "num_atms": 23, 
	 "gaussian": { 
		 "optdone": 1, 
		 "sigma_profile": "yes", 
		 "theory": "DFT", 
		 "functional": "B3LYP", 
		 "basiset": "6-31G**", 
		 "properties": { 
			 "R2extent": 1531.8479, 
			 "electric_dipole_moment_norm": 2.86146081748, 
			 "electric_quadrupole_moment_norm": 9.47839278359, 
			 "total_energy": -388.53076723, 
			 "HOMO_LUMO_gap": 0.22098, 
			 "cosmo_polarized_energy": -6.42, 
			 "cosmo_cavitation_energy": 23.25, 
			 "cosmo_dispersion_energy": -17.08, 
			 "cosmo_repulsion_energy": 1.39, 
			 "cosmo_total_nonelectrostatic_energy": 7.56, 
			 "SMD_solvation_energy": 4.13 
		},
		"coords": [
			{
				"x": -0.2975607656,
				"y": -2.2767085502,
				"z": 1.6811126739,
				"element": "C" 
			},
			{
				"x": -1.031691194,
				"y": -1.7199940339,
				"z": 0.435371007,
				"element": "C" 
			},
			{
				"x": -2.2518428069,
				"y": -2.6023491052,
				"z": 0.1364296108,
				"element": "C" 
			},
			{
				"x": -0.0812867592,
				"y": -1.6947411932,
				"z": -0.7952494673,
				"element": "C" 
			},
			{
				"x": 1.0434036706,
				"y": -0.6532418819,
				"z": -0.7105560591,
				"element": "C" 
			},
			{
				"x": 0.4732083776,
				"y": 0.7529562117,
				"z": -0.4876806034,
				"element": "C" 
			},
			{
				"x": -0.4146928069,
				"y": 0.7983694784,
				"z": 0.7709465495,
				"element": "C" 
			},
			{
				"x": -1.4917546795,
				"y": -0.2822846536,
				"z": 0.7545431888,
				"element": "C" 
			},
			{
				"x": -2.6560255911,
				"y": -0.0164188971,
				"z": 0.9919874515,
				"element": "O" 
			},
			{
				"x": -0.960837828,
				"y": -2.2792189499,
				"z": 2.5521559906,
				"element": "H" 
			},
			{
				"x": 0.5961272039,
				"y": -1.7027269719,
				"z": 1.940944761,
				"element": "H" 
			},
			{
				"x": 0.0145409632,
				"y": -3.3100077387,
				"z": 1.4930049323,
				"element": "H" 
			},
			{
				"x": -1.9325814627,
				"y": -3.6257315944,
				"z": -0.0892160163,
				"element": "H" 
			},
			{
				"x": -2.9351948534,
				"y": -2.6289918392,
				"z": 0.9884171423,
				"element": "H" 
			},
			{
				"x": -2.8141520046,
				"y": -2.2206224088,
				"z": -0.7209952374,
				"element": "H" 
			},
			{
				"x": 0.3364549708,
				"y": -2.700071415,
				"z": -0.9348602204,
				"element": "H" 
			},
			{
				"x": -0.6837779556,
				"y": -1.4854671039,
				"z": -1.6901188611,
				"element": "H" 
			},
			{
				"x": 1.6351385456,
				"y": -0.6784632878,
				"z": -1.6331747135,
				"element": "H" 
			},
			{
				"x": 1.7355541616,
				"y": -0.9036066958,
				"z": 0.1040096565,
				"element": "H" 
			},
			{
				"x": -0.1264388125,
				"y": 1.0439946453,
				"z": -1.3606237208,
				"element": "H" 
			},
			{
				"x": 1.277592467,
				"y": 1.4922607362,
				"z": -0.4014835751,
				"element": "H" 
			},
			{
				"x": 0.2137653159,
				"y": 0.6412214159,
				"z": 1.6589879801,
				"element": "H" 
			},
			{
				"x": -0.9137481565,
				"y": 1.763643833,
				"z": 0.89044753,
				"element": "H" 
			}
		],
		 "valence_orbital": [ 
			{
				"type": "occ",
				"energy": -0.3421,
				"method": "rhf"
			},
			{
				"type": "occ",
				"energy": -0.32678,
				"method": "rhf"
			},
			{
				"type": "occ",
				"energy": -0.31841,
				"method": "rhf"
			},
			{
				"type": "occ",
				"energy": -0.31202,
				"method": "rhf"
			},
			{
				"type": "occ",
				"energy": -0.23194,
				"method": "rhf"
			},
			{
				"type": "unocc",
				"energy": -0.01096,
				"method": "rhf"
			},
			{
				"type": "unocc",
				"energy": 0.07569,
				"method": "rhf"
			},
			{
				"type": "unocc",
				"energy": 0.10635,
				"method": "rhf"
			},
			{
				"type": "unocc",
				"energy": 0.11054,
				"method": "rhf"
			},
			{
				"type": "unocc",
				"energy": 0.12914,
				"method": "rhf"
			}
		],
		"cosmo_sigma_profile": { 
			"-0.025": 0.0,
			"-0.024": 0.0,
			"-0.023": 0.0,
			"-0.022": 0.0,
			"-0.021": 0.0,
			"-0.02": 0.0,
			"-0.019": 0.0,
			"-0.018": 0.0,
			"-0.017": 0.0,
			"-0.016": 0.0,
			"-0.015": 0.0,
			"-0.014": 0.0,
			"-0.013": 0.0,
			"-0.012": 0.0,
			"-0.011": 0.0,
			"-0.01": 0.0,
			"-0.009": 0.0,
			"-0.008": 0.0,
			"-0.007": 0.0,
			"-0.006": 0.242219442327,
			"-0.005": 4.23754633853,
			"-0.004": 9.64874600806,
			"-0.003": 28.9104469858,
			"-0.002": 31.925463243,
			"-0.001": 30.8531627527,
			"0.0": 27.1320368687,
			"0.001": 16.822522017,
			"0.002": 5.13824062875,
			"0.003": 1.47746436495,
			"0.004": 1.96540489441,
			"0.005": 1.75727504886,
			"0.006": 1.42820351393,
			"0.007": 1.38464117727,
			"0.008": 1.99924382633,
			"0.009": 1.91463152308,
			"0.01": 1.37973265352,
			"0.011": 3.04535672905,
			"0.012": 4.02795697065,
			"0.013": 3.12464567612,
			"0.014": 0.543305676993,
			"0.015": 0.0,
			"0.016": 0.0,
			"0.017": 0.0,
			"0.018": 0.0,
			"0.019": 0.0,
			"0.02": 0.0,
			"0.021": 0.0,
			"0.022": 0.0,
			"0.023": 0.0,
			"0.024": 0.0,
			"0.025": 0.0
		}
	}
}
