{
	 "smiles": "CC1=C(C=CC=C1)C1=NN(C=C1C(O)=O)C1=CC=CC=C1", 
	 "Tm": 451.15, 
	 "num_atms": 35, 
	 "gaussian": { 
		 "optdone": 1, 
		 "sigma_profile": "yes", 
		 "theory": "DFT", 
		 "functional": "B3LYP", 
		 "basiset": "6-31G**", 
		 "properties": { 
			 "R2extent": 7612.9263, 
			 "electric_dipole_moment_norm": 5.66588194812, 
			 "electric_quadrupole_moment_norm": 29.6784492454, 
			 "total_energy": -916.193817974, 
			 "HOMO_LUMO_gap": 0.17819, 
			 "cosmo_polarized_energy": -20.78, 
			 "cosmo_cavitation_energy": 39.59, 
			 "cosmo_dispersion_energy": -27.78, 
			 "cosmo_repulsion_energy": 2.11, 
			 "cosmo_total_nonelectrostatic_energy": 13.93, 
			 "SMD_solvation_energy": 7.18 
		},
		"coords": [
			{
				"x": 2.5000224998,
				"y": -0.4229946942,
				"z": -0.103306536,
				"element": "C" 
			},
			{
				"x": 1.6815641917,
				"y": -1.6037244075,
				"z": -0.5738934815,
				"element": "C" 
			},
			{
				"x": 0.3779793148,
				"y": -1.4693625,
				"z": -1.10676738,
				"element": "C" 
			},
			{
				"x": -0.31249022,
				"y": -2.6092714245,
				"z": -1.5457150358,
				"element": "C" 
			},
			{
				"x": 0.2550154295,
				"y": -3.8769834418,
				"z": -1.458337117,
				"element": "C" 
			},
			{
				"x": 1.5372630659,
				"y": -4.0173994012,
				"z": -0.9299912323,
				"element": "C" 
			},
			{
				"x": 2.2339100974,
				"y": -2.8888511518,
				"z": -0.5001837817,
				"element": "C" 
			},
			{
				"x": -0.2977255339,
				"y": -0.1556838183,
				"z": -1.1988232289,
				"element": "C" 
			},
			{
				"x": -0.2776758438,
				"y": 0.6939512971,
				"z": -0.1728997784,
				"element": "N" 
			},
			{
				"x": -1.0042260095,
				"y": 1.7749276676,
				"z": -0.5612345054,
				"element": "N" 
			},
			{
				"x": -1.5086910784,
				"y": 1.6176589275,
				"z": -1.8110353676,
				"element": "C" 
			},
			{
				"x": -1.0810199643,
				"y": 0.3832147159,
				"z": -2.274118702,
				"element": "C" 
			},
			{
				"x": -1.3033870888,
				"y": -0.1594872598,
				"z": -3.633890814,
				"element": "C" 
			},
			{
				"x": -2.4393625732,
				"y": 0.2824474124,
				"z": -4.2567918254,
				"element": "O" 
			},
			{
				"x": -0.5579994035,
				"y": -0.9138313161,
				"z": -4.20913537,
				"element": "O" 
			},
			{
				"x": -1.1698581646,
				"y": 2.878851239,
				"z": 0.3209256141,
				"element": "C" 
			},
			{
				"x": -1.4643570125,
				"y": 4.1488159359,
				"z": -0.1862238682,
				"element": "C" 
			},
			{
				"x": -1.6463406907,
				"y": 5.2143917405,
				"z": 0.6946721297,
				"element": "C" 
			},
			{
				"x": -1.5194427457,
				"y": 5.0235249262,
				"z": 2.0713482,
				"element": "C" 
			},
			{
				"x": -1.2077841461,
				"y": 3.7548260424,
				"z": 2.5654806143,
				"element": "C" 
			},
			{
				"x": -1.0355105602,
				"y": 2.6778258768,
				"z": 1.698572571,
				"element": "C" 
			},
			{
				"x": 2.1185522459,
				"y": -0.0177008336,
				"z": 0.8382642489,
				"element": "H" 
			},
			{
				"x": 3.5420853672,
				"y": -0.7187744964,
				"z": 0.0466387126,
				"element": "H" 
			},
			{
				"x": 2.4786343582,
				"y": 0.3978993245,
				"z": -0.8266532677,
				"element": "H" 
			},
			{
				"x": -1.3109218575,
				"y": -2.4986037859,
				"z": -1.9554173514,
				"element": "H" 
			},
			{
				"x": -0.299770041,
				"y": -4.7444454035,
				"z": -1.8027758022,
				"element": "H" 
			},
			{
				"x": 1.9976998389,
				"y": -4.9987305419,
				"z": -0.8579328761,
				"element": "H" 
			},
			{
				"x": 3.2385892792,
				"y": -3.0009329345,
				"z": -0.1004642958,
				"element": "H" 
			},
			{
				"x": -2.1000235906,
				"y": 2.3866981141,
				"z": -2.2851288702,
				"element": "H" 
			},
			{
				"x": -3.0221277254,
				"y": 0.7055916863,
				"z": -3.6111583087,
				"element": "H" 
			},
			{
				"x": -1.5259441856,
				"y": 4.3153059215,
				"z": -1.2565397218,
				"element": "H" 
			},
			{
				"x": -1.8732236099,
				"y": 6.1993204241,
				"z": 0.297971893,
				"element": "H" 
			},
			{
				"x": -1.6561003757,
				"y": 5.8575385388,
				"z": 2.7526461464,
				"element": "H" 
			},
			{
				"x": -1.103557664,
				"y": 3.5974296673,
				"z": 3.6348094765,
				"element": "H" 
			},
			{
				"x": -0.7975756036,
				"y": 1.6870579531,
				"z": 2.0653889116,
				"element": "H" 
			}
		],
		 "valence_orbital": [ 
			{
				"type": "occ",
				"energy": -0.27249,
				"method": "rhf"
			},
			{
				"type": "occ",
				"energy": -0.2702,
				"method": "rhf"
			},
			{
				"type": "occ",
				"energy": -0.24974,
				"method": "rhf"
			},
			{
				"type": "occ",
				"energy": -0.2362,
				"method": "rhf"
			},
			{
				"type": "occ",
				"energy": -0.22478,
				"method": "rhf"
			},
			{
				"type": "unocc",
				"energy": -0.04659,
				"method": "rhf"
			},
			{
				"type": "unocc",
				"energy": -0.028,
				"method": "rhf"
			},
			{
				"type": "unocc",
				"energy": -0.01932,
				"method": "rhf"
			},
			{
				"type": "unocc",
				"energy": 0.00385,
				"method": "rhf"
			},
			{
				"type": "unocc",
				"energy": 0.00889,
				"method": "rhf"
			}
		],
		"cosmo_sigma_profile": { 
			"-0.025": 0.0,
			"-0.024": 0.0,
			"-0.023": 0.0,
			"-0.022": 0.0,
			"-0.021": 0.0,
			"-0.02": 0.0,
			"-0.019": 0.256180547849,
			"-0.018": 1.14312868951,
			"-0.017": 1.2038187071,
			"-0.016": 0.998540055384,
			"-0.015": 1.02763674945,
			"-0.014": 0.933738267963,
			"-0.013": 0.882912064017,
			"-0.012": 2.35386072605,
			"-0.011": 3.30299044963,
			"-0.01": 2.26504675832,
			"-0.009": 2.0427464578,
			"-0.008": 2.71703041245,
			"-0.007": 4.30980652466,
			"-0.006": 14.8685328795,
			"-0.005": 21.4828481012,
			"-0.004": 23.2521848093,
			"-0.003": 21.2182595307,
			"-0.002": 21.3624507952,
			"-0.001": 21.7697203836,
			"0.0": 26.9580840316,
			"0.001": 21.6196609505,
			"0.002": 18.5684764365,
			"0.003": 20.4210885602,
			"0.004": 22.9748754832,
			"0.005": 17.2679780278,
			"0.006": 9.58919486224,
			"0.007": 5.8119908344,
			"0.008": 3.54321044758,
			"0.009": 4.42245061684,
			"0.01": 4.89397878994,
			"0.011": 5.79119185792,
			"0.012": 5.88697404946,
			"0.013": 2.11228476471,
			"0.014": 0.0926165116334,
			"0.015": 0.0,
			"0.016": 0.0,
			"0.017": 0.0,
			"0.018": 0.0,
			"0.019": 0.0,
			"0.02": 0.0,
			"0.021": 0.0,
			"0.022": 0.0,
			"0.023": 0.0,
			"0.024": 0.0,
			"0.025": 0.0
		}
	}
}
