{
	 "smiles": "CC(C)NC(=O)NS(=O)(=O)C1=CN=CC=C1NC1=CC=CC(C)=C1", 
	 "Tm": 436.15, 
	 "num_atms": 44, 
	 "gaussian": { 
		 "optdone": 1, 
		 "sigma_profile": "yes", 
		 "theory": "DFT", 
		 "functional": "B3LYP", 
		 "basiset": "6-31G**", 
		 "properties": { 
			 "R2extent": 10612.3088, 
			 "electric_dipole_moment_norm": 8.02417237165, 
			 "electric_quadrupole_moment_norm": 38.8822486371, 
			 "total_energy": -1464.588917, 
			 "HOMO_LUMO_gap": 0.1744, 
			 "cosmo_polarized_energy": -24.92, 
			 "cosmo_cavitation_energy": 48.63, 
			 "cosmo_dispersion_energy": -33.1, 
			 "cosmo_repulsion_energy": 2.51, 
			 "cosmo_total_nonelectrostatic_energy": 18.05, 
			 "SMD_solvation_energy": 6.15 
		},
		"coords": [
			{
				"x": 0.6524914833,
				"y": 3.4739143886,
				"z": 0.6043495132,
				"element": "C" 
			},
			{
				"x": 0.8141241969,
				"y": 4.2184312448,
				"z": -0.7303109303,
				"element": "C" 
			},
			{
				"x": 1.0388380699,
				"y": 5.719603715,
				"z": -0.5265985368,
				"element": "C" 
			},
			{
				"x": -0.3419383392,
				"y": 4.0397820535,
				"z": -1.6162718182,
				"element": "N" 
			},
			{
				"x": -0.7419248735,
				"y": 2.9069952886,
				"z": -2.2790177324,
				"element": "C" 
			},
			{
				"x": -1.8459218962,
				"y": 2.7794235215,
				"z": -2.7822128781,
				"element": "O" 
			},
			{
				"x": 0.22032852,
				"y": 1.8790803333,
				"z": -2.3334637095,
				"element": "N" 
			},
			{
				"x": 0.0694134266,
				"y": 0.5483101889,
				"z": -3.3937193644,
				"element": "S" 
			},
			{
				"x": -0.2612936022,
				"y": 0.9833181575,
				"z": -4.7432664099,
				"element": "O" 
			},
			{
				"x": 1.3389822925,
				"y": -0.1626423886,
				"z": -3.1377766778,
				"element": "O" 
			},
			{
				"x": -1.2790738628,
				"y": -0.3868906446,
				"z": -2.7223803787,
				"element": "C" 
			},
			{
				"x": -2.5142335241,
				"y": -0.2944007075,
				"z": -3.3742144448,
				"element": "C" 
			},
			{
				"x": -3.6130687937,
				"y": -0.9340203208,
				"z": -2.9761141021,
				"element": "N" 
			},
			{
				"x": -3.4813403897,
				"y": -1.7006763283,
				"z": -1.8795848292,
				"element": "C" 
			},
			{
				"x": -2.3120698977,
				"y": -1.8632967536,
				"z": -1.1533117448,
				"element": "C" 
			},
			{
				"x": -1.1378593752,
				"y": -1.1928636126,
				"z": -1.5589382922,
				"element": "C" 
			},
			{
				"x": 0.0675209872,
				"y": -1.321092909,
				"z": -0.9147435568,
				"element": "N" 
			},
			{
				"x": 0.3296463398,
				"y": -1.9528705717,
				"z": 0.320454988,
				"element": "C" 
			},
			{
				"x": -0.497315881,
				"y": -1.7819295403,
				"z": 1.4398658249,
				"element": "C" 
			},
			{
				"x": -0.1512875223,
				"y": -2.3899756035,
				"z": 2.6459561148,
				"element": "C" 
			},
			{
				"x": 1.0160752114,
				"y": -3.1440205929,
				"z": 2.7582753925,
				"element": "C" 
			},
			{
				"x": 1.8633991427,
				"y": -3.307058234,
				"z": 1.6532444366,
				"element": "C" 
			},
			{
				"x": 3.1177371221,
				"y": -4.1430881756,
				"z": 1.7564906973,
				"element": "C" 
			},
			{
				"x": 1.5047396254,
				"y": -2.7093025075,
				"z": 0.4417698912,
				"element": "C" 
			},
			{
				"x": 0.4815000927,
				"y": 2.405606642,
				"z": 0.4441244336,
				"element": "H" 
			},
			{
				"x": 1.5491981334,
				"y": 3.5885519551,
				"z": 1.2223230525,
				"element": "H" 
			},
			{
				"x": -0.2005999198,
				"y": 3.8739495534,
				"z": 1.1627235377,
				"element": "H" 
			},
			{
				"x": 1.6982369588,
				"y": 3.8271061703,
				"z": -1.2529842044,
				"element": "H" 
			},
			{
				"x": 1.9212979176,
				"y": 5.8928015872,
				"z": 0.0952289121,
				"element": "H" 
			},
			{
				"x": 0.1800676725,
				"y": 6.1732439438,
				"z": -0.0174041768,
				"element": "H" 
			},
			{
				"x": 1.1811410306,
				"y": 6.2286921331,
				"z": -1.4837278441,
				"element": "H" 
			},
			{
				"x": -1.1080314996,
				"y": 4.692624578,
				"z": -1.5115884109,
				"element": "H" 
			},
			{
				"x": 1.192234971,
				"y": 2.0530367908,
				"z": -2.1052092876,
				"element": "H" 
			},
			{
				"x": -2.5945964139,
				"y": 0.3383201925,
				"z": -4.2524370066,
				"element": "H" 
			},
			{
				"x": -4.3773306993,
				"y": -2.2327904204,
				"z": -1.5639052189,
				"element": "H" 
			},
			{
				"x": -2.2928198108,
				"y": -2.5263937508,
				"z": -0.2980854097,
				"element": "H" 
			},
			{
				"x": 0.877085213,
				"y": -1.0751629265,
				"z": -1.477459306,
				"element": "H" 
			},
			{
				"x": -1.3826729603,
				"y": -1.1594049384,
				"z": 1.3737896288,
				"element": "H" 
			},
			{
				"x": -0.7923775782,
				"y": -2.2543695115,
				"z": 3.5124419722,
				"element": "H" 
			},
			{
				"x": 1.2762016068,
				"y": -3.603274013,
				"z": 3.7081652951,
				"element": "H" 
			},
			{
				"x": 3.5951474525,
				"y": -4.0261960361,
				"z": 2.7342543439,
				"element": "H" 
			},
			{
				"x": 3.8465030103,
				"y": -3.8713562823,
				"z": 0.9875879715,
				"element": "H" 
			},
			{
				"x": 2.8920421742,
				"y": -5.20933485,
				"z": 1.6315988792,
				"element": "H" 
			},
			{
				"x": 2.1415041884,
				"y": -2.8356808181,
				"z": -0.4308186138,
				"element": "H" 
			}
		],
		 "valence_orbital": [ 
			{
				"type": "occ",
				"energy": -0.26545,
				"method": "rhf"
			},
			{
				"type": "occ",
				"energy": -0.26193,
				"method": "rhf"
			},
			{
				"type": "occ",
				"energy": -0.2564,
				"method": "rhf"
			},
			{
				"type": "occ",
				"energy": -0.25224,
				"method": "rhf"
			},
			{
				"type": "occ",
				"energy": -0.21569,
				"method": "rhf"
			},
			{
				"type": "unocc",
				"energy": -0.04129,
				"method": "rhf"
			},
			{
				"type": "unocc",
				"energy": -0.0242,
				"method": "rhf"
			},
			{
				"type": "unocc",
				"energy": -0.01079,
				"method": "rhf"
			},
			{
				"type": "unocc",
				"energy": 0.00965,
				"method": "rhf"
			},
			{
				"type": "unocc",
				"energy": 0.02859,
				"method": "rhf"
			}
		],
		"cosmo_sigma_profile": { 
			"-0.025": 0.0,
			"-0.024": 0.0,
			"-0.023": 0.0,
			"-0.022": 0.0,
			"-0.021": 0.0,
			"-0.02": 0.0,
			"-0.019": 0.0,
			"-0.018": 0.0,
			"-0.017": 0.0,
			"-0.016": 0.303851656061,
			"-0.015": 0.893912420993,
			"-0.014": 1.1356885247,
			"-0.013": 2.70794380828,
			"-0.012": 1.76688889331,
			"-0.011": 1.77469557088,
			"-0.01": 2.70263716495,
			"-0.009": 3.25256184732,
			"-0.008": 4.21183997375,
			"-0.007": 8.04146939687,
			"-0.006": 12.9955013852,
			"-0.005": 20.1300883658,
			"-0.004": 34.1065600617,
			"-0.003": 34.9629676464,
			"-0.002": 32.5749835672,
			"-0.001": 37.4043922306,
			"0.0": 42.4682844978,
			"0.001": 27.7958120477,
			"0.002": 15.9943300846,
			"0.003": 14.8447200242,
			"0.004": 13.3134855285,
			"0.005": 14.4266643557,
			"0.006": 8.23889183437,
			"0.007": 6.9790781395,
			"0.008": 6.42636828847,
			"0.009": 9.41355582477,
			"0.01": 9.3667638218,
			"0.011": 6.15176356891,
			"0.012": 4.19026650334,
			"0.013": 3.90726919657,
			"0.014": 1.57875934813,
			"0.015": 0.797929353052,
			"0.016": 0.877937094444,
			"0.017": 0.0836199522546,
			"0.018": 0.0,
			"0.019": 0.0,
			"0.02": 0.0,
			"0.021": 0.0,
			"0.022": 0.0,
			"0.023": 0.0,
			"0.024": 0.0,
			"0.025": 0.0
		}
	}
}
