{
	 "smiles": "CC(O)C1=CN=C(S1)C1=CC=C(Br)C=C1", 
	 "Tm": 351.15, 
	 "num_atms": 25, 
	 "gaussian": { 
		 "optdone": 1, 
		 "sigma_profile": "yes", 
		 "theory": "DFT", 
		 "functional": "B3LYP", 
		 "basiset": "6-31G**", 
		 "properties": { 
			 "R2extent": 8831.9432, 
			 "electric_dipole_moment_norm": 2.1076397083, 
			 "electric_quadrupole_moment_norm": 12.6661485054, 
			 "total_energy": -3524.75711975, 
			 "HOMO_LUMO_gap": 0.16092, 
			 "cosmo_polarized_energy": -10.93, 
			 "cosmo_cavitation_energy": 33.14, 
			 "cosmo_dispersion_energy": -25.01, 
			 "cosmo_repulsion_energy": 1.91, 
			 "cosmo_total_nonelectrostatic_energy": 10.05, 
			 "SMD_solvation_energy": 2.88 
		},
		"coords": [
			{
				"x": 1.1993982759,
				"y": 4.1410621361,
				"z": -1.586214215,
				"element": "C" 
			},
			{
				"x": 2.2043188608,
				"y": 3.3552632457,
				"z": -0.7383254183,
				"element": "C" 
			},
			{
				"x": 3.430544335,
				"y": 3.1521787512,
				"z": -1.4430927477,
				"element": "O" 
			},
			{
				"x": 1.647890898,
				"y": 2.0666013212,
				"z": -0.1850197536,
				"element": "C" 
			},
			{
				"x": 1.7146796448,
				"y": 1.6014112508,
				"z": 1.1005255801,
				"element": "C" 
			},
			{
				"x": 1.1784118709,
				"y": 0.3658858795,
				"z": 1.3449337464,
				"element": "N" 
			},
			{
				"x": 0.6882641671,
				"y": -0.1705488436,
				"z": 0.258211462,
				"element": "C" 
			},
			{
				"x": 0.8520433777,
				"y": 0.8610247618,
				"z": -1.1708252581,
				"element": "S" 
			},
			{
				"x": 0.0520779898,
				"y": -1.4924720286,
				"z": 0.2110238697,
				"element": "C" 
			},
			{
				"x": -0.4651421652,
				"y": -2.0375724779,
				"z": -0.9746823954,
				"element": "C" 
			},
			{
				"x": -1.0621189939,
				"y": -3.295552366,
				"z": -0.9839218648,
				"element": "C" 
			},
			{
				"x": -1.1439871278,
				"y": -4.0190942738,
				"z": 0.2049468119,
				"element": "C" 
			},
			{
				"x": -1.9614397316,
				"y": -5.744120232,
				"z": 0.2001583732,
				"element": "Br" 
			},
			{
				"x": -0.6374061412,
				"y": -3.5006252166,
				"z": 1.397539512,
				"element": "C" 
			},
			{
				"x": -0.0431653055,
				"y": -2.2433351284,
				"z": 1.3964336525,
				"element": "C" 
			},
			{
				"x": 1.6567621145,
				"y": 5.0739644684,
				"z": -1.9261856871,
				"element": "H" 
			},
			{
				"x": 0.2952349529,
				"y": 4.3752119491,
				"z": -1.0160578657,
				"element": "H" 
			},
			{
				"x": 0.8977489623,
				"y": 3.5673774898,
				"z": -2.4709958751,
				"element": "H" 
			},
			{
				"x": 2.4889438426,
				"y": 3.9645681624,
				"z": 0.1271142466,
				"element": "H" 
			},
			{
				"x": 3.2421988036,
				"y": 2.6062310544,
				"z": -2.218873773,
				"element": "H" 
			},
			{
				"x": 2.1653988936,
				"y": 2.1532599602,
				"z": 1.9184360599,
				"element": "H" 
			},
			{
				"x": -0.4057780036,
				"y": -1.4813584131,
				"z": -1.9059265648,
				"element": "H" 
			},
			{
				"x": -1.4592078802,
				"y": -3.7094145043,
				"z": -1.9035501338,
				"element": "H" 
			},
			{
				"x": -0.7077786986,
				"y": -4.0745913895,
				"z": 2.31444943,
				"element": "H" 
			},
			{
				"x": 0.356507058,
				"y": -1.8227555567,
				"z": 2.3122988085,
				"element": "H" 
			}
		],
		 "valence_orbital": [ 
			{
				"type": "occ",
				"energy": -0.28598,
				"method": "rhf"
			},
			{
				"type": "occ",
				"energy": -0.27549,
				"method": "rhf"
			},
			{
				"type": "occ",
				"energy": -0.27067,
				"method": "rhf"
			},
			{
				"type": "occ",
				"energy": -0.27001,
				"method": "rhf"
			},
			{
				"type": "occ",
				"energy": -0.22454,
				"method": "rhf"
			},
			{
				"type": "unocc",
				"energy": -0.06362,
				"method": "rhf"
			},
			{
				"type": "unocc",
				"energy": -0.02007,
				"method": "rhf"
			},
			{
				"type": "unocc",
				"energy": 0.00082,
				"method": "rhf"
			},
			{
				"type": "unocc",
				"energy": 0.00839,
				"method": "rhf"
			},
			{
				"type": "unocc",
				"energy": 0.01078,
				"method": "rhf"
			}
		],
		"cosmo_sigma_profile": { 
			"-0.025": 0.0,
			"-0.024": 0.0,
			"-0.023": 0.0,
			"-0.022": 0.0,
			"-0.021": 0.0,
			"-0.02": 0.0,
			"-0.019": 0.0,
			"-0.018": 0.0,
			"-0.017": 0.0,
			"-0.016": 0.0,
			"-0.015": 0.448591574562,
			"-0.014": 0.659439296836,
			"-0.013": 1.44607459665,
			"-0.012": 1.49059636553,
			"-0.011": 1.07857067809,
			"-0.01": 0.924937267078,
			"-0.009": 1.16044648539,
			"-0.008": 2.62883332403,
			"-0.007": 10.0710772654,
			"-0.006": 12.8465068703,
			"-0.005": 13.5750715147,
			"-0.004": 15.1370437458,
			"-0.003": 15.8615609538,
			"-0.002": 19.354715746,
			"-0.001": 18.2545162972,
			"0.0": 24.1433360323,
			"0.001": 28.2369033306,
			"0.002": 31.4363922254,
			"0.003": 26.833487806,
			"0.004": 15.4517375972,
			"0.005": 6.59279519746,
			"0.006": 2.77526047245,
			"0.007": 3.96110128881,
			"0.008": 1.78736092802,
			"0.009": 2.3585703352,
			"0.01": 2.88081283302,
			"0.011": 2.47734391028,
			"0.012": 1.96092891051,
			"0.013": 2.42873904697,
			"0.014": 1.73753162327,
			"0.015": 0.0,
			"0.016": 0.0,
			"0.017": 0.0,
			"0.018": 0.0,
			"0.019": 0.0,
			"0.02": 0.0,
			"0.021": 0.0,
			"0.022": 0.0,
			"0.023": 0.0,
			"0.024": 0.0,
			"0.025": 0.0
		}
	}
}
