{
	 "smiles": "NC(=S)C1CCCO1", 
	 "Tm": 354.15, 
	 "num_atms": 17, 
	 "gaussian": { 
		 "optdone": 1, 
		 "sigma_profile": "yes", 
		 "theory": "DFT", 
		 "functional": "B3LYP", 
		 "basiset": "6-31G**", 
		 "properties": { 
			 "R2extent": 1451.5828, 
			 "electric_dipole_moment_norm": 4.5522190424, 
			 "electric_quadrupole_moment_norm": 9.55806956503, 
			 "total_energy": -724.120527595, 
			 "HOMO_LUMO_gap": 0.17995, 
			 "cosmo_polarized_energy": -13.27, 
			 "cosmo_cavitation_energy": 21.08, 
			 "cosmo_dispersion_energy": -16.34, 
			 "cosmo_repulsion_energy": 1.33, 
			 "cosmo_total_nonelectrostatic_energy": 6.07, 
			 "SMD_solvation_energy": 2.35 
		},
		"coords": [
			{
				"x": -0.5608858745,
				"y": 1.6188231344,
				"z": -2.3062899413,
				"element": "N" 
			},
			{
				"x": 0.1666152095,
				"y": 0.6708365744,
				"z": -1.7071752267,
				"element": "C" 
			},
			{
				"x": 1.1665668648,
				"y": -0.403078083,
				"z": -2.4940422703,
				"element": "S" 
			},
			{
				"x": 0.0015288173,
				"y": 0.6366873326,
				"z": -0.1904908537,
				"element": "C" 
			},
			{
				"x": -0.6622002015,
				"y": -0.6573996845,
				"z": 0.3272965856,
				"element": "C" 
			},
			{
				"x": -1.4203153142,
				"y": -0.1599316601,
				"z": 1.5649143334,
				"element": "C" 
			},
			{
				"x": -1.8833579497,
				"y": 1.22287148,
				"z": 1.1055178896,
				"element": "C" 
			},
			{
				"x": -0.8250623396,
				"y": 1.7233974022,
				"z": 0.2695835391,
				"element": "O" 
			},
			{
				"x": -1.0842472542,
				"y": 2.2615157862,
				"z": -1.7241845336,
				"element": "H" 
			},
			{
				"x": -0.5007744842,
				"y": 1.7386272258,
				"z": -3.3064309271,
				"element": "H" 
			},
			{
				"x": 1.0017655691,
				"y": 0.7570930547,
				"z": 0.2434947916,
				"element": "H" 
			},
			{
				"x": 0.0741687324,
				"y": -1.4349602756,
				"z": 0.5329073209,
				"element": "H" 
			},
			{
				"x": -1.358071751,
				"y": -1.0468072864,
				"z": -0.4231290187,
				"element": "H" 
			},
			{
				"x": -0.7443720551,
				"y": -0.0683802541,
				"z": 2.4222100018,
				"element": "H" 
			},
			{
				"x": -2.2502435967,
				"y": -0.8112358244,
				"z": 1.8524212257,
				"element": "H" 
			},
			{
				"x": -2.0338028642,
				"y": 1.9362270071,
				"z": 1.9213819308,
				"element": "H" 
			},
			{
				"x": -2.8169115085,
				"y": 1.1557140709,
				"z": 0.5272151529,
				"element": "H" 
			}
		],
		 "valence_orbital": [ 
			{
				"type": "occ",
				"energy": -0.34554,
				"method": "rhf"
			},
			{
				"type": "occ",
				"energy": -0.33369,
				"method": "rhf"
			},
			{
				"type": "occ",
				"energy": -0.2745,
				"method": "rhf"
			},
			{
				"type": "occ",
				"energy": -0.22468,
				"method": "rhf"
			},
			{
				"type": "occ",
				"energy": -0.20358,
				"method": "rhf"
			},
			{
				"type": "unocc",
				"energy": -0.02363,
				"method": "rhf"
			},
			{
				"type": "unocc",
				"energy": 0.06849,
				"method": "rhf"
			},
			{
				"type": "unocc",
				"energy": 0.09302,
				"method": "rhf"
			},
			{
				"type": "unocc",
				"energy": 0.09744,
				"method": "rhf"
			},
			{
				"type": "unocc",
				"energy": 0.11121,
				"method": "rhf"
			}
		],
		"cosmo_sigma_profile": { 
			"-0.025": 0.0,
			"-0.024": 0.0,
			"-0.023": 0.0,
			"-0.022": 0.0,
			"-0.021": 0.0,
			"-0.02": 0.0,
			"-0.019": 0.0,
			"-0.018": 0.0,
			"-0.017": 0.0,
			"-0.016": 0.0645841862332,
			"-0.015": 0.812827715111,
			"-0.014": 1.38436343958,
			"-0.013": 1.60090436401,
			"-0.012": 2.30489750449,
			"-0.011": 2.12358313612,
			"-0.01": 1.50334521986,
			"-0.009": 1.46917331969,
			"-0.008": 1.03359849202,
			"-0.007": 1.38241895632,
			"-0.006": 2.81845341675,
			"-0.005": 9.92805202945,
			"-0.004": 22.2703923839,
			"-0.003": 22.0098456453,
			"-0.002": 14.6422274555,
			"-0.001": 13.2972372688,
			"0.0": 8.25407104241,
			"0.001": 5.58355121475,
			"0.002": 4.0342890882,
			"0.003": 4.04642920315,
			"0.004": 4.79143666267,
			"0.005": 4.20308518206,
			"0.006": 4.72235434282,
			"0.007": 4.5289479933,
			"0.008": 5.17741694275,
			"0.009": 7.44316659325,
			"0.01": 6.24912721845,
			"0.011": 5.63014657222,
			"0.012": 3.6155134262,
			"0.013": 0.848279040672,
			"0.014": 0.0,
			"0.015": 0.0,
			"0.016": 0.0,
			"0.017": 0.0,
			"0.018": 0.0,
			"0.019": 0.0,
			"0.02": 0.0,
			"0.021": 0.0,
			"0.022": 0.0,
			"0.023": 0.0,
			"0.024": 0.0,
			"0.025": 0.0
		}
	}
}
