{
	 "smiles": "CC1(O)CC(C(C(O1)C1=CC=CC=C1N)[N+]([O-])=O)C1=CC=CC=C1", 
	 "Tm": 421.15, 
	 "num_atms": 44, 
	 "gaussian": { 
		 "optdone": 1, 
		 "sigma_profile": "yes", 
		 "theory": "DFT", 
		 "functional": "B3LYP", 
		 "basiset": "6-31G**", 
		 "properties": { 
			 "R2extent": 7013.0428, 
			 "electric_dipole_moment_norm": 2.11775938907, 
			 "electric_quadrupole_moment_norm": 12.235779231, 
			 "total_energy": -1108.26617151, 
			 "HOMO_LUMO_gap": 0.12898, 
			 "cosmo_polarized_energy": -16.04, 
			 "cosmo_cavitation_energy": 43.39, 
			 "cosmo_dispersion_energy": -29.84, 
			 "cosmo_repulsion_energy": 2.23, 
			 "cosmo_total_nonelectrostatic_energy": 15.78, 
			 "SMD_solvation_energy": 8.44 
		},
		"coords": [
			{
				"x": 1.1965526425,
				"y": -0.5821084423,
				"z": 4.1330546179,
				"element": "C" 
			},
			{
				"x": 0.8542049927,
				"y": -0.4389036215,
				"z": 2.6510999176,
				"element": "C" 
			},
			{
				"x": 1.423616271,
				"y": -1.4828584528,
				"z": 1.8940684516,
				"element": "O" 
			},
			{
				"x": 1.3796927889,
				"y": 0.8613575072,
				"z": 2.0520395484,
				"element": "C" 
			},
			{
				"x": 0.8679295355,
				"y": 1.1272827497,
				"z": 0.6194438823,
				"element": "C" 
			},
			{
				"x": -0.6553667353,
				"y": 0.9252136741,
				"z": 0.5410202091,
				"element": "C" 
			},
			{
				"x": -1.3077922759,
				"y": -0.2001066973,
				"z": 1.4260346856,
				"element": "C" 
			},
			{
				"x": -0.5833801867,
				"y": -0.4649933357,
				"z": 2.6239680122,
				"element": "O" 
			},
			{
				"x": -1.7032297936,
				"y": -1.4710032798,
				"z": 0.6613528883,
				"element": "C" 
			},
			{
				"x": -1.3742447209,
				"y": -2.7327907583,
				"z": 1.1670409062,
				"element": "C" 
			},
			{
				"x": -1.7543391882,
				"y": -3.9143500861,
				"z": 0.5340949227,
				"element": "C" 
			},
			{
				"x": -2.5055512592,
				"y": -3.8421184237,
				"z": -0.6389853849,
				"element": "C" 
			},
			{
				"x": -2.8971416661,
				"y": -2.6038811956,
				"z": -1.1333715861,
				"element": "C" 
			},
			{
				"x": -2.5358433946,
				"y": -1.4073372672,
				"z": -0.4870825261,
				"element": "C" 
			},
			{
				"x": -2.9651024372,
				"y": -0.1920561039,
				"z": -1.0267514882,
				"element": "N" 
			},
			{
				"x": -1.3746866499,
				"y": 2.2350341293,
				"z": 0.9232273763,
				"element": "N" 
			},
			{
				"x": -2.5928772013,
				"y": 2.2598530948,
				"z": 0.7186173358,
				"element": "O" 
			},
			{
				"x": -0.7471284288,
				"y": 3.1688942581,
				"z": 1.4018532711,
				"element": "O" 
			},
			{
				"x": 1.6591762386,
				"y": 0.441577114,
				"z": -0.4938951507,
				"element": "C" 
			},
			{
				"x": 2.8277150756,
				"y": 1.0782530485,
				"z": -0.9393689768,
				"element": "C" 
			},
			{
				"x": 3.6078651613,
				"y": 0.5305671015,
				"z": -1.957077643,
				"element": "C" 
			},
			{
				"x": 3.2223048705,
				"y": -0.6661587951,
				"z": -2.5631066295,
				"element": "C" 
			},
			{
				"x": 2.0587897876,
				"y": -1.3053905972,
				"z": -2.1349305991,
				"element": "C" 
			},
			{
				"x": 1.2865955832,
				"y": -0.7605085626,
				"z": -1.107092574,
				"element": "C" 
			},
			{
				"x": 0.770270568,
				"y": 0.2381738641,
				"z": 4.7150262289,
				"element": "H" 
			},
			{
				"x": 2.2816376673,
				"y": -0.5921677162,
				"z": 4.2633762955,
				"element": "H" 
			},
			{
				"x": 0.7840923565,
				"y": -1.5199876385,
				"z": 4.5205988704,
				"element": "H" 
			},
			{
				"x": 1.1778341219,
				"y": -2.3248129895,
				"z": 2.2991627825,
				"element": "H" 
			},
			{
				"x": 2.4724217139,
				"y": 0.8404767279,
				"z": 2.059102291,
				"element": "H" 
			},
			{
				"x": 1.0494277051,
				"y": 1.6841197717,
				"z": 2.6931075926,
				"element": "H" 
			},
			{
				"x": 1.0154354678,
				"y": 2.1978134473,
				"z": 0.4556125853,
				"element": "H" 
			},
			{
				"x": -0.9721142673,
				"y": 0.7815050224,
				"z": -0.4933281349,
				"element": "H" 
			},
			{
				"x": -2.2479484375,
				"y": 0.2299836103,
				"z": 1.7912806993,
				"element": "H" 
			},
			{
				"x": -0.8300120344,
				"y": -2.7776305447,
				"z": 2.1011062728,
				"element": "H" 
			},
			{
				"x": -1.4740874679,
				"y": -4.8743254512,
				"z": 0.9560477926,
				"element": "H" 
			},
			{
				"x": -2.8084038951,
				"y": -4.7473389674,
				"z": -1.1575883816,
				"element": "H" 
			},
			{
				"x": -3.5114501173,
				"y": -2.5454393026,
				"z": -2.0291840956,
				"element": "H" 
			},
			{
				"x": -3.1356083148,
				"y": 0.5743012027,
				"z": -0.3844972647,
				"element": "H" 
			},
			{
				"x": -3.6988637302,
				"y": -0.280991057,
				"z": -1.716081733,
				"element": "H" 
			},
			{
				"x": 3.1280521389,
				"y": 2.0202859115,
				"z": -0.4851849222,
				"element": "H" 
			},
			{
				"x": 4.5076833375,
				"y": 1.044726684,
				"z": -2.2833014638,
				"element": "H" 
			},
			{
				"x": 3.8212218177,
				"y": -1.0939238605,
				"z": -3.3620942137,
				"element": "H" 
			},
			{
				"x": 1.747807185,
				"y": -2.238021967,
				"z": -2.5973793652,
				"element": "H" 
			},
			{
				"x": 0.4011451751,
				"y": -1.2901138052,
				"z": -0.7758353031,
				"element": "H" 
			}
		],
		 "valence_orbital": [ 
			{
				"type": "occ",
				"energy": -0.27538,
				"method": "rhf"
			},
			{
				"type": "occ",
				"energy": -0.24429,
				"method": "rhf"
			},
			{
				"type": "occ",
				"energy": -0.24274,
				"method": "rhf"
			},
			{
				"type": "occ",
				"energy": -0.23641,
				"method": "rhf"
			},
			{
				"type": "occ",
				"energy": -0.20586,
				"method": "rhf"
			},
			{
				"type": "unocc",
				"energy": -0.07688,
				"method": "rhf"
			},
			{
				"type": "unocc",
				"energy": -0.00343,
				"method": "rhf"
			},
			{
				"type": "unocc",
				"energy": 0.00247,
				"method": "rhf"
			},
			{
				"type": "unocc",
				"energy": 0.00449,
				"method": "rhf"
			},
			{
				"type": "unocc",
				"energy": 0.01238,
				"method": "rhf"
			}
		],
		"cosmo_sigma_profile": { 
			"-0.025": 0.0,
			"-0.024": 0.0,
			"-0.023": 0.0,
			"-0.022": 0.0,
			"-0.021": 0.0,
			"-0.02": 0.0,
			"-0.019": 0.0,
			"-0.018": 0.0,
			"-0.017": 0.0,
			"-0.016": 0.111155412154,
			"-0.015": 0.586504239142,
			"-0.014": 0.650291383256,
			"-0.013": 1.30771814801,
			"-0.012": 2.20563638627,
			"-0.011": 2.90796795214,
			"-0.01": 2.70908958026,
			"-0.009": 3.90232168448,
			"-0.008": 3.58557812533,
			"-0.007": 5.73068397028,
			"-0.006": 12.0956406717,
			"-0.005": 23.4552851278,
			"-0.004": 29.6515458083,
			"-0.003": 32.08196561,
			"-0.002": 25.4915644383,
			"-0.001": 24.8832538289,
			"0.0": 22.1991591064,
			"0.001": 17.9648296862,
			"0.002": 18.6034098225,
			"0.003": 17.3007558421,
			"0.004": 18.7642072339,
			"0.005": 21.240581137,
			"0.006": 20.9744179826,
			"0.007": 13.7677145669,
			"0.008": 8.47380845944,
			"0.009": 4.84783843619,
			"0.01": 2.9630028819,
			"0.011": 2.50880822149,
			"0.012": 1.38921509896,
			"0.013": 0.602002574188,
			"0.014": 0.0,
			"0.015": 0.0,
			"0.016": 0.0,
			"0.017": 0.0,
			"0.018": 0.0,
			"0.019": 0.0,
			"0.02": 0.0,
			"0.021": 0.0,
			"0.022": 0.0,
			"0.023": 0.0,
			"0.024": 0.0,
			"0.025": 0.0
		}
	}
}
