{
	 "smiles": "CC1=CC=C2N=C(C=C(O)C2=C1)C(F)(F)F", 
	 "Tm": 525.15, 
	 "num_atms": 24, 
	 "gaussian": { 
		 "optdone": 1, 
		 "sigma_profile": "yes", 
		 "theory": "DFT", 
		 "functional": "B3LYP", 
		 "basiset": "6-31G**", 
		 "properties": { 
			 "R2extent": 5117.5306, 
			 "electric_dipole_moment_norm": 5.75984218273, 
			 "electric_quadrupole_moment_norm": 9.3681860859, 
			 "total_energy": -853.505304529, 
			 "HOMO_LUMO_gap": 0.17364, 
			 "cosmo_polarized_energy": -12.05, 
			 "cosmo_cavitation_energy": 29.67, 
			 "cosmo_dispersion_energy": -21.52, 
			 "cosmo_repulsion_energy": 1.6, 
			 "cosmo_total_nonelectrostatic_energy": 9.74, 
			 "SMD_solvation_energy": 5.09 
		},
		"coords": [
			{
				"x": 0.4042054314,
				"y": 2.1607649527,
				"z": 2.7364717463,
				"element": "C" 
			},
			{
				"x": 0.1604628517,
				"y": 1.511271251,
				"z": 1.3969259668,
				"element": "C" 
			},
			{
				"x": 0.7362995753,
				"y": 2.0743374253,
				"z": 0.2224021778,
				"element": "C" 
			},
			{
				"x": 0.5367509575,
				"y": 1.511275686,
				"z": -1.0135617501,
				"element": "C" 
			},
			{
				"x": -0.2561170385,
				"y": 0.3404237537,
				"z": -1.1624589029,
				"element": "C" 
			},
			{
				"x": -0.4194890779,
				"y": -0.1735925001,
				"z": -2.4099614806,
				"element": "N" 
			},
			{
				"x": -1.1591887482,
				"y": -1.2595404896,
				"z": -2.5202441174,
				"element": "C" 
			},
			{
				"x": -1.7893223097,
				"y": -1.924133874,
				"z": -1.4524940993,
				"element": "C" 
			},
			{
				"x": -1.6304414189,
				"y": -1.4106375708,
				"z": -0.1785585946,
				"element": "C" 
			},
			{
				"x": -2.2415472446,
				"y": -2.0585210696,
				"z": 0.8417190541,
				"element": "O" 
			},
			{
				"x": -0.8413635778,
				"y": -0.2365386902,
				"z": 0.0096458308,
				"element": "C" 
			},
			{
				"x": -0.6121616876,
				"y": 0.3747542913,
				"z": 1.271046203,
				"element": "C" 
			},
			{
				"x": -1.3057949794,
				"y": -1.7881115987,
				"z": -3.9368188252,
				"element": "C" 
			},
			{
				"x": -2.0772422978,
				"y": -2.899785933,
				"z": -3.9750403678,
				"element": "F" 
			},
			{
				"x": -0.1101758619,
				"y": -2.1086228061,
				"z": -4.4665049816,
				"element": "F" 
			},
			{
				"x": -1.8754492742,
				"y": -0.8739925361,
				"z": -4.7446112114,
				"element": "F" 
			},
			{
				"x": 1.4746713934,
				"y": 2.1957221439,
				"z": 2.9698832216,
				"element": "H" 
			},
			{
				"x": -0.097724164,
				"y": 1.6216816922,
				"z": 3.5444229943,
				"element": "H" 
			},
			{
				"x": 0.0412827408,
				"y": 3.1950730293,
				"z": 2.7461925384,
				"element": "H" 
			},
			{
				"x": 1.345897736,
				"y": 2.9696223433,
				"z": 0.3152796293,
				"element": "H" 
			},
			{
				"x": 0.9723353805,
				"y": 1.9348070059,
				"z": -1.9123810721,
				"element": "H" 
			},
			{
				"x": -2.3845383816,
				"y": -2.8135117852,
				"z": -1.6109811087,
				"element": "H" 
			},
			{
				"x": -2.0610120915,
				"y": -1.6114614212,
				"z": 1.678199827,
				"element": "H" 
			},
			{
				"x": -1.0474379129,
				"y": -0.0469833002,
				"z": 2.1760273222,
				"element": "H" 
			}
		],
		 "valence_orbital": [ 
			{
				"type": "occ",
				"energy": -0.34352,
				"method": "rhf"
			},
			{
				"type": "occ",
				"energy": -0.28951,
				"method": "rhf"
			},
			{
				"type": "occ",
				"energy": -0.26964,
				"method": "rhf"
			},
			{
				"type": "occ",
				"energy": -0.26097,
				"method": "rhf"
			},
			{
				"type": "occ",
				"energy": -0.23273,
				"method": "rhf"
			},
			{
				"type": "unocc",
				"energy": -0.05909,
				"method": "rhf"
			},
			{
				"type": "unocc",
				"energy": -0.03207,
				"method": "rhf"
			},
			{
				"type": "unocc",
				"energy": 0.01484,
				"method": "rhf"
			},
			{
				"type": "unocc",
				"energy": 0.04158,
				"method": "rhf"
			},
			{
				"type": "unocc",
				"energy": 0.06908,
				"method": "rhf"
			}
		],
		"cosmo_sigma_profile": { 
			"-0.025": 0.0,
			"-0.024": 0.0,
			"-0.023": 0.0,
			"-0.022": 0.0,
			"-0.021": 0.0,
			"-0.02": 0.0,
			"-0.019": 0.158121288193,
			"-0.018": 1.00553789977,
			"-0.017": 0.996756216845,
			"-0.016": 1.43682707306,
			"-0.015": 0.687458957249,
			"-0.014": 0.757643707839,
			"-0.013": 0.771162518744,
			"-0.012": 1.46220881622,
			"-0.011": 1.13814116557,
			"-0.01": 0.888317891105,
			"-0.009": 0.962155404758,
			"-0.008": 1.64131423619,
			"-0.007": 2.98010662717,
			"-0.006": 6.67096028296,
			"-0.005": 9.85320517653,
			"-0.004": 14.4881153789,
			"-0.003": 14.8265680549,
			"-0.002": 14.6447819035,
			"-0.001": 19.5873749498,
			"0.0": 21.7928284773,
			"0.001": 20.717263973,
			"0.002": 29.7577698965,
			"0.003": 38.4087552377,
			"0.004": 10.0937115147,
			"0.005": 3.64140578748,
			"0.006": 3.90354699572,
			"0.007": 3.14131403432,
			"0.008": 3.85019815445,
			"0.009": 2.52830402879,
			"0.01": 2.34619571321,
			"0.011": 1.12614139167,
			"0.012": 0.669501961745,
			"0.013": 0.645416828544,
			"0.014": 0.362191160633,
			"0.015": 0.0,
			"0.016": 0.0,
			"0.017": 0.0,
			"0.018": 0.0,
			"0.019": 0.0,
			"0.02": 0.0,
			"0.021": 0.0,
			"0.022": 0.0,
			"0.023": 0.0,
			"0.024": 0.0,
			"0.025": 0.0
		}
	}
}
