{
	 "smiles": "CN(N=O)S(=O)(=O)C1=CC=C(C)C=C1", 
	 "Tm": 333.15, 
	 "num_atms": 24, 
	 "gaussian": { 
		 "optdone": 1, 
		 "sigma_profile": "yes", 
		 "theory": "DFT", 
		 "functional": "B3LYP", 
		 "basiset": "6-31G**", 
		 "properties": { 
			 "R2extent": 4336.563, 
			 "electric_dipole_moment_norm": 5.12372595383, 
			 "electric_quadrupole_moment_norm": 14.5272810188, 
			 "total_energy": -1044.08772483, 
			 "HOMO_LUMO_gap": 0.1828, 
			 "cosmo_polarized_energy": -12.49, 
			 "cosmo_cavitation_energy": 29.97, 
			 "cosmo_dispersion_energy": -21.67, 
			 "cosmo_repulsion_energy": 1.68, 
			 "cosmo_total_nonelectrostatic_energy": 9.97, 
			 "SMD_solvation_energy": 5.59 
		},
		"coords": [
			{
				"x": 4.323335415,
				"y": -0.8763523787,
				"z": 0.9188246219,
				"element": "C" 
			},
			{
				"x": 3.1830294644,
				"y": 0.0009406565,
				"z": 1.1891443471,
				"element": "N" 
			},
			{
				"x": 2.3303747562,
				"y": -0.2287184203,
				"z": 2.2167265341,
				"element": "N" 
			},
			{
				"x": 2.629216007,
				"y": -1.2000304906,
				"z": 2.8907796872,
				"element": "O" 
			},
			{
				"x": 2.7506428765,
				"y": 1.376152812,
				"z": 0.1940000971,
				"element": "S" 
			},
			{
				"x": 2.5002659116,
				"y": 2.4906469975,
				"z": 1.0976132565,
				"element": "O" 
			},
			{
				"x": 3.7990478331,
				"y": 1.4087471051,
				"z": -0.825212706,
				"element": "O" 
			},
			{
				"x": 1.2118464645,
				"y": 0.8852004903,
				"z": -0.5620731346,
				"element": "C" 
			},
			{
				"x": 1.2316554486,
				"y": 0.3213300868,
				"z": -1.8382160391,
				"element": "C" 
			},
			{
				"x": 0.023824269,
				"y": -0.0499362016,
				"z": -2.4263989094,
				"element": "C" 
			},
			{
				"x": -1.1948246877,
				"y": 0.1308234839,
				"z": -1.7575670202,
				"element": "C" 
			},
			{
				"x": -2.4965417496,
				"y": -0.2993865828,
				"z": -2.388273926,
				"element": "C" 
			},
			{
				"x": -1.1791801715,
				"y": 0.7084141391,
				"z": -0.4777568779,
				"element": "C" 
			},
			{
				"x": 0.0140221416,
				"y": 1.0895700992,
				"z": 0.1280902773,
				"element": "C" 
			},
			{
				"x": 4.8511630489,
				"y": -0.4838376668,
				"z": 0.0525542494,
				"element": "H" 
			},
			{
				"x": 4.9802102563,
				"y": -0.8869780619,
				"z": 1.7921273325,
				"element": "H" 
			},
			{
				"x": 3.9702928723,
				"y": -1.8946687723,
				"z": 0.7332268391,
				"element": "H" 
			},
			{
				"x": 2.1726146691,
				"y": 0.1970342921,
				"z": -2.3626085154,
				"element": "H" 
			},
			{
				"x": 0.0283541046,
				"y": -0.4809063852,
				"z": -3.4237016352,
				"element": "H" 
			},
			{
				"x": -2.8177067562,
				"y": -1.2712105538,
				"z": -1.9937641114,
				"element": "H" 
			},
			{
				"x": -3.2975368463,
				"y": 0.415577863,
				"z": -2.1774099571,
				"element": "H" 
			},
			{
				"x": -2.4036050472,
				"y": -0.3989758172,
				"z": -3.4729407376,
				"element": "H" 
			},
			{
				"x": -2.1161992524,
				"y": 0.8671261176,
				"z": 0.0489609641,
				"element": "H" 
			},
			{
				"x": 0.023998972,
				"y": 1.543437188,
				"z": 1.1123753634,
				"element": "H" 
			}
		],
		 "valence_orbital": [ 
			{
				"type": "occ",
				"energy": -0.3237,
				"method": "rhf"
			},
			{
				"type": "occ",
				"energy": -0.29858,
				"method": "rhf"
			},
			{
				"type": "occ",
				"energy": -0.27886,
				"method": "rhf"
			},
			{
				"type": "occ",
				"energy": -0.26879,
				"method": "rhf"
			},
			{
				"type": "occ",
				"energy": -0.24577,
				"method": "rhf"
			},
			{
				"type": "unocc",
				"energy": -0.06297,
				"method": "rhf"
			},
			{
				"type": "unocc",
				"energy": -0.04641,
				"method": "rhf"
			},
			{
				"type": "unocc",
				"energy": -0.02796,
				"method": "rhf"
			},
			{
				"type": "unocc",
				"energy": 0.03151,
				"method": "rhf"
			},
			{
				"type": "unocc",
				"energy": 0.05922,
				"method": "rhf"
			}
		],
		"cosmo_sigma_profile": { 
			"-0.025": 0.0,
			"-0.024": 0.0,
			"-0.023": 0.0,
			"-0.022": 0.0,
			"-0.021": 0.0,
			"-0.02": 0.0,
			"-0.019": 0.0,
			"-0.018": 0.0,
			"-0.017": 0.0,
			"-0.016": 0.0,
			"-0.015": 0.0,
			"-0.014": 0.0,
			"-0.013": 0.0,
			"-0.012": 0.0,
			"-0.011": 0.0,
			"-0.01": 0.0,
			"-0.009": 0.0,
			"-0.008": 0.927449187245,
			"-0.007": 9.34283717052,
			"-0.006": 16.4780058587,
			"-0.005": 23.3270779063,
			"-0.004": 21.8514550072,
			"-0.003": 19.7915133752,
			"-0.002": 16.4085788508,
			"-0.001": 16.7457206106,
			"0.0": 16.9968458891,
			"0.001": 13.6926426554,
			"0.002": 17.9265670377,
			"0.003": 10.1271519744,
			"0.004": 5.56369732664,
			"0.005": 6.6442664288,
			"0.006": 7.21447670414,
			"0.007": 7.67253127133,
			"0.008": 9.52466920569,
			"0.009": 11.2623629987,
			"0.01": 6.9263295514,
			"0.011": 0.664593972125,
			"0.012": 0.0,
			"0.013": 0.0,
			"0.014": 0.0,
			"0.015": 0.0,
			"0.016": 0.0,
			"0.017": 0.0,
			"0.018": 0.0,
			"0.019": 0.0,
			"0.02": 0.0,
			"0.021": 0.0,
			"0.022": 0.0,
			"0.023": 0.0,
			"0.024": 0.0,
			"0.025": 0.0
		}
	}
}
