{
	 "smiles": "COC(=O)C1=CC=C(S1)C(O)=O", 
	 "Tm": 468.15, 
	 "num_atms": 18, 
	 "gaussian": { 
		 "optdone": 1, 
		 "sigma_profile": "yes", 
		 "theory": "DFT", 
		 "functional": "B3LYP", 
		 "basiset": "6-31G**", 
		 "properties": { 
			 "R2extent": 3498.9381, 
			 "electric_dipole_moment_norm": 2.11627202647, 
			 "electric_quadrupole_moment_norm": 3.45707814057, 
			 "total_energy": -969.454762678, 
			 "HOMO_LUMO_gap": 0.17637, 
			 "cosmo_polarized_energy": -11.79, 
			 "cosmo_cavitation_energy": 25.54, 
			 "cosmo_dispersion_energy": -19.12, 
			 "cosmo_repulsion_energy": 1.49, 
			 "cosmo_total_nonelectrostatic_energy": 7.91, 
			 "SMD_solvation_energy": 7.19 
		},
		"coords": [
			{
				"x": -1.9056727412,
				"y": 2.227221725,
				"z": -1.954412078,
				"element": "C" 
			},
			{
				"x": -0.9444742267,
				"y": 1.7583191206,
				"z": -0.9936165648,
				"element": "O" 
			},
			{
				"x": -0.0262552581,
				"y": 0.8897906644,
				"z": -1.470384841,
				"element": "C" 
			},
			{
				"x": 0.0185723045,
				"y": 0.5077187672,
				"z": -2.6226235143,
				"element": "O" 
			},
			{
				"x": 0.9184006501,
				"y": 0.4614518397,
				"z": -0.4215645731,
				"element": "C" 
			},
			{
				"x": 1.9619234173,
				"y": -0.4197185346,
				"z": -0.6158089344,
				"element": "C" 
			},
			{
				"x": 2.7049901379,
				"y": -0.6498438677,
				"z": 0.5638588836,
				"element": "C" 
			},
			{
				"x": 2.2191365959,
				"y": 0.0586978201,
				"z": 1.6434634264,
				"element": "C" 
			},
			{
				"x": 0.8353773975,
				"y": 1.0225149903,
				"z": 1.2207335091,
				"element": "S" 
			},
			{
				"x": 2.7913463648,
				"y": 0.0160378251,
				"z": 2.9984659186,
				"element": "C" 
			},
			{
				"x": 2.119729577,
				"y": 0.8081724875,
				"z": 3.8694200382,
				"element": "O" 
			},
			{
				"x": 3.7563476635,
				"y": -0.6495401077,
				"z": 3.3149916413,
				"element": "O" 
			},
			{
				"x": -2.4766643251,
				"y": 1.3903014804,
				"z": -2.3636376748,
				"element": "H" 
			},
			{
				"x": -1.4044787229,
				"y": 2.7491065118,
				"z": -2.7731792693,
				"element": "H" 
			},
			{
				"x": -2.5582563079,
				"y": 2.906990113,
				"z": -1.4075675991,
				"element": "H" 
			},
			{
				"x": 2.1614476331,
				"y": -0.8681895613,
				"z": -1.5811615948,
				"element": "H" 
			},
			{
				"x": 3.5650044066,
				"y": -1.3029752701,
				"z": 0.6466097463,
				"element": "H" 
			},
			{
				"x": 2.5671254337,
				"y": 0.7137439965,
				"z": 4.7264134799,
				"element": "H" 
			}
		],
		 "valence_orbital": [ 
			{
				"type": "occ",
				"energy": -0.31255,
				"method": "rhf"
			},
			{
				"type": "occ",
				"energy": -0.29408,
				"method": "rhf"
			},
			{
				"type": "occ",
				"energy": -0.28229,
				"method": "rhf"
			},
			{
				"type": "occ",
				"energy": -0.2725,
				"method": "rhf"
			},
			{
				"type": "occ",
				"energy": -0.2588,
				"method": "rhf"
			},
			{
				"type": "unocc",
				"energy": -0.08243,
				"method": "rhf"
			},
			{
				"type": "unocc",
				"energy": -0.00757,
				"method": "rhf"
			},
			{
				"type": "unocc",
				"energy": 0.02079,
				"method": "rhf"
			},
			{
				"type": "unocc",
				"energy": 0.06878,
				"method": "rhf"
			},
			{
				"type": "unocc",
				"energy": 0.06884,
				"method": "rhf"
			}
		],
		"cosmo_sigma_profile": { 
			"-0.025": 0.0,
			"-0.024": 0.0,
			"-0.023": 0.0,
			"-0.022": 0.0,
			"-0.021": 0.0,
			"-0.02": 0.0,
			"-0.019": 0.561941687937,
			"-0.018": 1.09445272737,
			"-0.017": 0.779542741766,
			"-0.016": 0.697161323199,
			"-0.015": 0.668542037039,
			"-0.014": 0.569493109528,
			"-0.013": 0.512419780186,
			"-0.012": 1.35349548389,
			"-0.011": 0.768454736251,
			"-0.01": 0.562399096668,
			"-0.009": 0.593585865432,
			"-0.008": 3.47605499796,
			"-0.007": 5.81906072215,
			"-0.006": 10.3627580677,
			"-0.005": 10.8568380536,
			"-0.004": 13.7715332264,
			"-0.003": 15.6308850804,
			"-0.002": 12.8242330786,
			"-0.001": 13.3633349482,
			"0.0": 20.1578552955,
			"0.001": 24.1715819436,
			"0.002": 14.3575489578,
			"0.003": 7.43104028182,
			"0.004": 6.27676430819,
			"0.005": 6.74946734422,
			"0.006": 4.10993697625,
			"0.007": 4.49882520672,
			"0.008": 3.57520877438,
			"0.009": 3.17412721779,
			"0.01": 4.50471648575,
			"0.011": 9.99881542587,
			"0.012": 3.21285451264,
			"0.013": 0.0,
			"0.014": 0.0,
			"0.015": 0.0,
			"0.016": 0.0,
			"0.017": 0.0,
			"0.018": 0.0,
			"0.019": 0.0,
			"0.02": 0.0,
			"0.021": 0.0,
			"0.022": 0.0,
			"0.023": 0.0,
			"0.024": 0.0,
			"0.025": 0.0
		}
	}
}
