{
	 "smiles": "CCCCCCCCCCCCCCCCCCC(=O)NC", 
	 "Tm": 365.65, 
	 "num_atms": 63, 
	 "gaussian": { 
		 "optdone": 1, 
		 "sigma_profile": "yes", 
		 "theory": "DFT", 
		 "functional": "B3LYP", 
		 "basiset": "6-31G**", 
		 "properties": { 
			 "R2extent": 9856.1544, 
			 "electric_dipole_moment_norm": 3.64202792136, 
			 "electric_quadrupole_moment_norm": 20.1217214552, 
			 "total_energy": -916.879836465, 
			 "HOMO_LUMO_gap": 0.2739, 
			 "cosmo_polarized_energy": -11.43, 
			 "cosmo_cavitation_energy": 60.99, 
			 "cosmo_dispersion_energy": -35.18, 
			 "cosmo_repulsion_energy": 2.78, 
			 "cosmo_total_nonelectrostatic_energy": 28.58, 
			 "SMD_solvation_energy": 8.07 
		},
		"coords": [
			{
				"x": 0.1940207714,
				"y": -3.7415600707,
				"z": 1.7070368685,
				"element": "C" 
			},
			{
				"x": -0.815883593,
				"y": -2.7057548181,
				"z": 2.2158989572,
				"element": "C" 
			},
			{
				"x": -2.0344150994,
				"y": -2.4942259921,
				"z": 1.3007168345,
				"element": "C" 
			},
			{
				"x": -1.7067999718,
				"y": -1.8656127127,
				"z": -0.0614397642,
				"element": "C" 
			},
			{
				"x": -2.9200011063,
				"y": -1.694614731,
				"z": -0.9934137336,
				"element": "C" 
			},
			{
				"x": -4.0599459858,
				"y": -0.7649383361,
				"z": -0.5322894396,
				"element": "C" 
			},
			{
				"x": -3.7219978934,
				"y": 0.7379813458,
				"z": -0.4256933865,
				"element": "C" 
			},
			{
				"x": -3.168779493,
				"y": 1.2082385034,
				"z": 0.9291750414,
				"element": "C" 
			},
			{
				"x": -2.9439917477,
				"y": 2.7262713895,
				"z": 0.9847652271,
				"element": "C" 
			},
			{
				"x": -2.476257406,
				"y": 3.2560193349,
				"z": 2.3522961319,
				"element": "C" 
			},
			{
				"x": -1.0741846134,
				"y": 2.8112746707,
				"z": 2.8070112387,
				"element": "C" 
			},
			{
				"x": 0.0727100665,
				"y": 3.3548948973,
				"z": 1.9409914083,
				"element": "C" 
			},
			{
				"x": 1.4788391279,
				"y": 3.0722682619,
				"z": 2.5000576021,
				"element": "C" 
			},
			{
				"x": 1.8844425987,
				"y": 1.5882287268,
				"z": 2.5817580725,
				"element": "C" 
			},
			{
				"x": 1.9487707998,
				"y": 0.8356291775,
				"z": 1.2405778594,
				"element": "C" 
			},
			{
				"x": 3.01026164,
				"y": 1.3680251144,
				"z": 0.2649718581,
				"element": "C" 
			},
			{
				"x": 3.208203012,
				"y": 0.5133848716,
				"z": -0.9965435907,
				"element": "C" 
			},
			{
				"x": 1.9982960772,
				"y": 0.4943647812,
				"z": -1.9349572031,
				"element": "C" 
			},
			{
				"x": 2.2750135896,
				"y": -0.2782345375,
				"z": -3.2229042437,
				"element": "C" 
			},
			{
				"x": 3.3443172449,
				"y": -0.8328250314,
				"z": -3.449171554,
				"element": "O" 
			},
			{
				"x": 1.2466130021,
				"y": -0.3356471663,
				"z": -4.1296906336,
				"element": "N" 
			},
			{
				"x": -0.0294476613,
				"y": 0.3528461581,
				"z": -4.0594652395,
				"element": "C" 
			},
			{
				"x": 0.6500179659,
				"y": -3.4406044328,
				"z": 0.7584144948,
				"element": "H" 
			},
			{
				"x": 1.0058681392,
				"y": -3.8858334544,
				"z": 2.4275293616,
				"element": "H" 
			},
			{
				"x": -0.2858807226,
				"y": -4.7146610771,
				"z": 1.54933117,
				"element": "H" 
			},
			{
				"x": -0.306903015,
				"y": -1.7434590791,
				"z": 2.3672310616,
				"element": "H" 
			},
			{
				"x": -1.1730100888,
				"y": -3.0161920718,
				"z": 3.2062017705,
				"element": "H" 
			},
			{
				"x": -2.5358263123,
				"y": -3.4598433124,
				"z": 1.1386714052,
				"element": "H" 
			},
			{
				"x": -2.7592007035,
				"y": -1.8620797183,
				"z": 1.8284523486,
				"element": "H" 
			},
			{
				"x": -1.2106568544,
				"y": -0.8980062462,
				"z": 0.0959191584,
				"element": "H" 
			},
			{
				"x": -0.9734451594,
				"y": -2.4937843945,
				"z": -0.5826139409,
				"element": "H" 
			},
			{
				"x": -3.3483213867,
				"y": -2.6891546185,
				"z": -1.1812227842,
				"element": "H" 
			},
			{
				"x": -2.5625508113,
				"y": -1.3373099078,
				"z": -1.9698697353,
				"element": "H" 
			},
			{
				"x": -4.8741049376,
				"y": -0.881628549,
				"z": -1.2588526769,
				"element": "H" 
			},
			{
				"x": -4.4714499411,
				"y": -1.114317861,
				"z": 0.4238767369,
				"element": "H" 
			},
			{
				"x": -4.634016332,
				"y": 1.315101916,
				"z": -0.6299885396,
				"element": "H" 
			},
			{
				"x": -3.0167171389,
				"y": 1.0106455428,
				"z": -1.2249204883,
				"element": "H" 
			},
			{
				"x": -3.8767797754,
				"y": 0.9224860305,
				"z": 1.7207162151,
				"element": "H" 
			},
			{
				"x": -2.2336291715,
				"y": 0.6849926236,
				"z": 1.1576184169,
				"element": "H" 
			},
			{
				"x": -3.8857826967,
				"y": 3.2283865195,
				"z": 0.7238021508,
				"element": "H" 
			},
			{
				"x": -2.2274788842,
				"y": 3.0176444305,
				"z": 0.204737926,
				"element": "H" 
			},
			{
				"x": -3.2077573959,
				"y": 2.9506327312,
				"z": 3.1130763145,
				"element": "H" 
			},
			{
				"x": -2.5033978325,
				"y": 4.3541974787,
				"z": 2.3317428955,
				"element": "H" 
			},
			{
				"x": -1.0285445858,
				"y": 1.7158816089,
				"z": 2.8488741503,
				"element": "H" 
			},
			{
				"x": -0.9229549587,
				"y": 3.1542995456,
				"z": 3.8399751028,
				"element": "H" 
			},
			{
				"x": -0.0476569779,
				"y": 4.4430765073,
				"z": 1.8458038256,
				"element": "H" 
			},
			{
				"x": -0.0058101549,
				"y": 2.9580073478,
				"z": 0.9207152811,
				"element": "H" 
			},
			{
				"x": 2.2147329311,
				"y": 3.6160436832,
				"z": 1.8944264766,
				"element": "H" 
			},
			{
				"x": 1.5473820339,
				"y": 3.5034261373,
				"z": 3.5082948527,
				"element": "H" 
			},
			{
				"x": 2.8697328362,
				"y": 1.5273548982,
				"z": 3.0639376006,
				"element": "H" 
			},
			{
				"x": 1.1937202108,
				"y": 1.0589330244,
				"z": 3.2503966458,
				"element": "H" 
			},
			{
				"x": 0.9599516152,
				"y": 0.8491613255,
				"z": 0.763636899,
				"element": "H" 
			},
			{
				"x": 2.1644634603,
				"y": -0.2216801084,
				"z": 1.4480936685,
				"element": "H" 
			},
			{
				"x": 2.7649645542,
				"y": 2.3972581572,
				"z": -0.0312574365,
				"element": "H" 
			},
			{
				"x": 3.9706356793,
				"y": 1.4287482862,
				"z": 0.7950039811,
				"element": "H" 
			},
			{
				"x": 4.0730803064,
				"y": 0.881127574,
				"z": -1.5582416998,
				"element": "H" 
			},
			{
				"x": 3.4575343646,
				"y": -0.5167760036,
				"z": -0.7165514035,
				"element": "H" 
			},
			{
				"x": 1.6998247429,
				"y": 1.520928492,
				"z": -2.1932487389,
				"element": "H" 
			},
			{
				"x": 1.1235911427,
				"y": 0.0490550948,
				"z": -1.4426996726,
				"element": "H" 
			},
			{
				"x": 1.4926172101,
				"y": -0.814802305,
				"z": -4.9847759981,
				"element": "H" 
			},
			{
				"x": -0.6631434725,
				"y": -0.002895264,
				"z": -4.8746566062,
				"element": "H" 
			},
			{
				"x": -0.5506936737,
				"y": 0.1398484674,
				"z": -3.1200659943,
				"element": "H" 
			},
			{
				"x": 0.0661124319,
				"y": 1.4428771441,
				"z": -4.1579025067,
				"element": "H" 
			}
		],
		 "valence_orbital": [ 
			{
				"type": "occ",
				"energy": -0.30256,
				"method": "rhf"
			},
			{
				"type": "occ",
				"energy": -0.29954,
				"method": "rhf"
			},
			{
				"type": "occ",
				"energy": -0.29604,
				"method": "rhf"
			},
			{
				"type": "occ",
				"energy": -0.24422,
				"method": "rhf"
			},
			{
				"type": "occ",
				"energy": -0.23876,
				"method": "rhf"
			},
			{
				"type": "unocc",
				"energy": 0.03514,
				"method": "rhf"
			},
			{
				"type": "unocc",
				"energy": 0.04133,
				"method": "rhf"
			},
			{
				"type": "unocc",
				"energy": 0.06329,
				"method": "rhf"
			},
			{
				"type": "unocc",
				"energy": 0.08418,
				"method": "rhf"
			},
			{
				"type": "unocc",
				"energy": 0.08582,
				"method": "rhf"
			}
		],
		"cosmo_sigma_profile": { 
			"-0.025": 0.0,
			"-0.024": 0.0,
			"-0.023": 0.0,
			"-0.022": 0.0,
			"-0.021": 0.0,
			"-0.02": 0.0,
			"-0.019": 0.0,
			"-0.018": 0.0,
			"-0.017": 0.0,
			"-0.016": 0.0,
			"-0.015": 0.0,
			"-0.014": 0.0,
			"-0.013": 0.627101280933,
			"-0.012": 1.29597128759,
			"-0.011": 1.02520527332,
			"-0.01": 1.36498830154,
			"-0.009": 0.684587647557,
			"-0.008": 1.25197556716,
			"-0.007": 0.97435932384,
			"-0.006": 3.16355642737,
			"-0.005": 5.29890812412,
			"-0.004": 9.8218419621,
			"-0.003": 16.9571611534,
			"-0.002": 63.360869778,
			"-0.001": 105.083903172,
			"0.0": 108.192757055,
			"0.001": 83.9393977167,
			"0.002": 33.5971290358,
			"0.003": 3.1801198315,
			"0.004": 2.85990277576,
			"0.005": 2.34093656004,
			"0.006": 1.67372571254,
			"0.007": 1.66543031007,
			"0.008": 0.875152427632,
			"0.009": 2.00758028442,
			"0.01": 1.26492460681,
			"0.011": 1.33509838042,
			"0.012": 1.53130237656,
			"0.013": 1.85482737239,
			"0.014": 4.93287510703,
			"0.015": 4.08201376799,
			"0.016": 0.316591191052,
			"0.017": 0.0,
			"0.018": 0.0,
			"0.019": 0.0,
			"0.02": 0.0,
			"0.021": 0.0,
			"0.022": 0.0,
			"0.023": 0.0,
			"0.024": 0.0,
			"0.025": 0.0
		}
	}
}
