{
	 "smiles": "O=C1NC2=CC=CC=C2NC1=O", 
	 "Tm": 573.15, 
	 "num_atms": 18, 
	 "gaussian": { 
		 "optdone": 1, 
		 "sigma_profile": "yes", 
		 "theory": "DFT", 
		 "functional": "B3LYP", 
		 "basiset": "6-31G**", 
		 "properties": { 
			 "R2extent": 2672.0294, 
			 "electric_dipole_moment_norm": 6.23317525664, 
			 "electric_quadrupole_moment_norm": 22.0171989699, 
			 "total_energy": -568.447294085, 
			 "HOMO_LUMO_gap": 0.17403, 
			 "cosmo_polarized_energy": -20.84, 
			 "cosmo_cavitation_energy": 22.85, 
			 "cosmo_dispersion_energy": -17.29, 
			 "cosmo_repulsion_energy": 1.36, 
			 "cosmo_total_nonelectrostatic_energy": 6.91, 
			 "SMD_solvation_energy": 5.31 
		},
		"coords": [
			{
				"x": -3.1361646885,
				"y": 2.4517981545,
				"z": -0.7799825712,
				"element": "O" 
			},
			{
				"x": -2.4696731514,
				"y": 1.4431416435,
				"z": -0.900121092,
				"element": "C" 
			},
			{
				"x": -1.8315147167,
				"y": 0.8402448981,
				"z": 0.166411738,
				"element": "N" 
			},
			{
				"x": -1.0489231665,
				"y": -0.3148880816,
				"z": 0.1211899224,
				"element": "C" 
			},
			{
				"x": -0.4428850113,
				"y": -0.8479522436,
				"z": 1.2627515231,
				"element": "C" 
			},
			{
				"x": 0.3295030861,
				"y": -2.003116261,
				"z": 1.168838124,
				"element": "C" 
			},
			{
				"x": 0.5013180345,
				"y": -2.6333503909,
				"z": -0.0671891289,
				"element": "C" 
			},
			{
				"x": -0.0993329127,
				"y": -2.1081489486,
				"z": -1.2087652253,
				"element": "C" 
			},
			{
				"x": -0.8760885818,
				"y": -0.9489350621,
				"z": -1.1222933692,
				"element": "C" 
			},
			{
				"x": -1.4972734315,
				"y": -0.3860835519,
				"z": -2.2386152094,
				"element": "N" 
			},
			{
				"x": -2.2811998509,
				"y": 0.7511765205,
				"z": -2.257013577,
				"element": "C" 
			},
			{
				"x": -2.7894567957,
				"y": 1.1804352715,
				"z": -3.2735981055,
				"element": "O" 
			},
			{
				"x": -1.9653567996,
				"y": 1.3084918543,
				"z": 1.0550551351,
				"element": "H" 
			},
			{
				"x": -0.5820618372,
				"y": -0.3512138001,
				"z": 2.2190769443,
				"element": "H" 
			},
			{
				"x": 0.796051784,
				"y": -2.4096037759,
				"z": 2.06012663,
				"element": "H" 
			},
			{
				"x": 1.1024104384,
				"y": -3.5334071095,
				"z": -0.143876983,
				"element": "H" 
			},
			{
				"x": 0.0285445789,
				"y": -2.5910463246,
				"z": -2.1737190281,
				"element": "H" 
			},
			{
				"x": -1.382096978,
				"y": -0.8313427927,
				"z": -3.1415757274,
				"element": "H" 
			}
		],
		 "valence_orbital": [ 
			{
				"type": "occ",
				"energy": -0.32301,
				"method": "rhf"
			},
			{
				"type": "occ",
				"energy": -0.28999,
				"method": "rhf"
			},
			{
				"type": "occ",
				"energy": -0.26042,
				"method": "rhf"
			},
			{
				"type": "occ",
				"energy": -0.2555,
				"method": "rhf"
			},
			{
				"type": "occ",
				"energy": -0.22569,
				"method": "rhf"
			},
			{
				"type": "unocc",
				"energy": -0.05166,
				"method": "rhf"
			},
			{
				"type": "unocc",
				"energy": -0.01631,
				"method": "rhf"
			},
			{
				"type": "unocc",
				"energy": -0.01337,
				"method": "rhf"
			},
			{
				"type": "unocc",
				"energy": 0.07018,
				"method": "rhf"
			},
			{
				"type": "unocc",
				"energy": 0.07235,
				"method": "rhf"
			}
		],
		"cosmo_sigma_profile": { 
			"-0.025": 0.0,
			"-0.024": 0.0,
			"-0.023": 0.0,
			"-0.022": 0.0,
			"-0.021": 0.0,
			"-0.02": 0.0,
			"-0.019": 0.0,
			"-0.018": 0.0,
			"-0.017": 0.108802500298,
			"-0.016": 1.94309439229,
			"-0.015": 2.62670966512,
			"-0.014": 2.67567648433,
			"-0.013": 2.10199916491,
			"-0.012": 2.39683154631,
			"-0.011": 2.76534371189,
			"-0.01": 1.94991603196,
			"-0.009": 2.22219322486,
			"-0.008": 4.02556905977,
			"-0.007": 6.09567698869,
			"-0.006": 9.57130445846,
			"-0.005": 12.0352234471,
			"-0.004": 11.8474337361,
			"-0.003": 9.47077484257,
			"-0.002": 10.9863269598,
			"-0.001": 11.5314796235,
			"0.0": 8.64947501081,
			"0.001": 8.79948880024,
			"0.002": 9.27001563513,
			"0.003": 10.2267938143,
			"0.004": 9.55670722339,
			"0.005": 6.36247386632,
			"0.006": 1.93943060859,
			"0.007": 1.77924971654,
			"0.008": 1.40100435183,
			"0.009": 2.45530381994,
			"0.01": 2.86819702627,
			"0.011": 4.79991792384,
			"0.012": 11.1880376591,
			"0.013": 5.50141592992,
			"0.014": 2.44322363611,
			"0.015": 1.63763119465,
			"0.016": 0.22773315204,
			"0.017": 0.0,
			"0.018": 0.0,
			"0.019": 0.0,
			"0.02": 0.0,
			"0.021": 0.0,
			"0.022": 0.0,
			"0.023": 0.0,
			"0.024": 0.0,
			"0.025": 0.0
		}
	}
}
