{
	 "smiles": "ClC1=CC=CC=N1", 
	 "Tm": 226.95, 
	 "num_atms": 11, 
	 "gaussian": { 
		 "optdone": 1, 
		 "sigma_profile": "yes", 
		 "theory": "DFT", 
		 "functional": "B3LYP", 
		 "basiset": "6-31G**", 
		 "properties": { 
			 "R2extent": 1283.3757, 
			 "electric_dipole_moment_norm": 3.49756013386, 
			 "electric_quadrupole_moment_norm": 6.5143556719, 
			 "total_energy": -707.88045322, 
			 "HOMO_LUMO_gap": 0.22356, 
			 "cosmo_polarized_energy": -6.58, 
			 "cosmo_cavitation_energy": 16.95, 
			 "cosmo_dispersion_energy": -13.04, 
			 "cosmo_repulsion_energy": 1.1, 
			 "cosmo_total_nonelectrostatic_energy": 5.01, 
			 "SMD_solvation_energy": 1.42 
		},
		"coords": [
			{
				"x": 0.3644118936,
				"y": 1.9432556655,
				"z": 2.9245183505,
				"element": "Cl" 
			},
			{
				"x": -0.0507232612,
				"y": 0.7923631418,
				"z": 1.6531915327,
				"element": "C" 
			},
			{
				"x": -1.2651375469,
				"y": 0.955696143,
				"z": 0.9797245681,
				"element": "C" 
			},
			{
				"x": -1.5662095471,
				"y": 0.0329681236,
				"z": -0.0181972321,
				"element": "C" 
			},
			{
				"x": -0.6587718011,
				"y": -0.9922954522,
				"z": -0.294107724,
				"element": "C" 
			},
			{
				"x": 0.5184978168,
				"y": -1.0467167352,
				"z": 0.4485270941,
				"element": "C" 
			},
			{
				"x": 0.8244998532,
				"y": -0.1659746298,
				"z": 1.4135081651,
				"element": "N" 
			},
			{
				"x": -1.9345518122,
				"y": 1.7690696226,
				"z": 1.2324935266,
				"element": "H" 
			},
			{
				"x": -2.4970866196,
				"y": 0.1151600385,
				"z": -0.571566238,
				"element": "H" 
			},
			{
				"x": -0.8572715946,
				"y": -1.7303945714,
				"z": -1.0639517188,
				"element": "H" 
			},
			{
				"x": 1.2549426191,
				"y": -1.8269313463,
				"z": 0.2693596758,
				"element": "H" 
			}
		],
		 "valence_orbital": [ 
			{
				"type": "occ",
				"energy": -0.33958,
				"method": "rhf"
			},
			{
				"type": "occ",
				"energy": -0.31328,
				"method": "rhf"
			},
			{
				"type": "occ",
				"energy": -0.30099,
				"method": "rhf"
			},
			{
				"type": "occ",
				"energy": -0.27604,
				"method": "rhf"
			},
			{
				"type": "occ",
				"energy": -0.26155,
				"method": "rhf"
			},
			{
				"type": "unocc",
				"energy": -0.03799,
				"method": "rhf"
			},
			{
				"type": "unocc",
				"energy": -0.02575,
				"method": "rhf"
			},
			{
				"type": "unocc",
				"energy": 0.03354,
				"method": "rhf"
			},
			{
				"type": "unocc",
				"energy": 0.09554,
				"method": "rhf"
			},
			{
				"type": "unocc",
				"energy": 0.12877,
				"method": "rhf"
			}
		],
		"cosmo_sigma_profile": { 
			"-0.025": 0.0,
			"-0.024": 0.0,
			"-0.023": 0.0,
			"-0.022": 0.0,
			"-0.021": 0.0,
			"-0.02": 0.0,
			"-0.019": 0.0,
			"-0.018": 0.0,
			"-0.017": 0.0,
			"-0.016": 0.0,
			"-0.015": 0.0,
			"-0.014": 0.0,
			"-0.013": 0.0,
			"-0.012": 0.0,
			"-0.011": 0.0,
			"-0.01": 0.0,
			"-0.009": 0.0557011133071,
			"-0.008": 4.27166861366,
			"-0.007": 9.20090980707,
			"-0.006": 9.40674868498,
			"-0.005": 7.46481943014,
			"-0.004": 5.93189075302,
			"-0.003": 5.92299716116,
			"-0.002": 6.79520992431,
			"-0.001": 7.84483835491,
			"0.0": 15.8036205358,
			"0.001": 16.8567311137,
			"0.002": 12.7126647505,
			"0.003": 7.30313791477,
			"0.004": 9.37295956106,
			"0.005": 7.22307512621,
			"0.006": 3.13582943697,
			"0.007": 2.22372839257,
			"0.008": 0.979000232051,
			"0.009": 1.13655378982,
			"0.01": 1.63885546629,
			"0.011": 0.897472079374,
			"0.012": 0.648815734691,
			"0.013": 1.35801707851,
			"0.014": 0.581159775587,
			"0.015": 0.321778567537,
			"0.016": 0.0,
			"0.017": 0.0,
			"0.018": 0.0,
			"0.019": 0.0,
			"0.02": 0.0,
			"0.021": 0.0,
			"0.022": 0.0,
			"0.023": 0.0,
			"0.024": 0.0,
			"0.025": 0.0
		}
	}
}
