{
	 "smiles": "CSC1=CC=C(CNC2=CC3=C(NC(C)=N3)C=C2)C=C1", 
	 "Tm": 446.15, 
	 "num_atms": 37, 
	 "gaussian": { 
		 "optdone": 1, 
		 "sigma_profile": "yes", 
		 "theory": "DFT", 
		 "functional": "B3LYP", 
		 "basiset": "6-31G**", 
		 "properties": { 
			 "R2extent": 10198.0958, 
			 "electric_dipole_moment_norm": 3.75068348705, 
			 "electric_quadrupole_moment_norm": 18.4616317264, 
			 "total_energy": -1182.40909576, 
			 "HOMO_LUMO_gap": 0.1686, 
			 "cosmo_polarized_energy": -19.26, 
			 "cosmo_cavitation_energy": 42.38, 
			 "cosmo_dispersion_energy": -30.59, 
			 "cosmo_repulsion_energy": 2.33, 
			 "cosmo_total_nonelectrostatic_energy": 14.12, 
			 "SMD_solvation_energy": 4.43 
		},
		"coords": [
			{
				"x": 4.8411442876,
				"y": 2.6175609342,
				"z": 0.6740716154,
				"element": "C" 
			},
			{
				"x": 5.1658812857,
				"y": 1.3509745029,
				"z": 1.961073967,
				"element": "S" 
			},
			{
				"x": 3.6491880322,
				"y": 0.3918636979,
				"z": 1.8797864275,
				"element": "C" 
			},
			{
				"x": 3.4449100499,
				"y": -0.5438981981,
				"z": 0.8565112013,
				"element": "C" 
			},
			{
				"x": 2.27468889,
				"y": -1.3002270873,
				"z": 0.8131184582,
				"element": "C" 
			},
			{
				"x": 1.2914466501,
				"y": -1.1503356864,
				"z": 1.7974250955,
				"element": "C" 
			},
			{
				"x": 0.0379828926,
				"y": -2.0168638324,
				"z": 1.8041467972,
				"element": "C" 
			},
			{
				"x": -0.354170632,
				"y": -2.5272262695,
				"z": 0.4996387946,
				"element": "N" 
			},
			{
				"x": -1.1813204168,
				"y": -1.7816419896,
				"z": -0.3596795805,
				"element": "C" 
			},
			{
				"x": -1.9195014612,
				"y": -2.4516053382,
				"z": -1.3450996788,
				"element": "C" 
			},
			{
				"x": -2.713465154,
				"y": -1.7045031774,
				"z": -2.2176531233,
				"element": "C" 
			},
			{
				"x": -2.768126782,
				"y": -0.2956438502,
				"z": -2.0986852863,
				"element": "C" 
			},
			{
				"x": -3.6404029525,
				"y": 0.1019775505,
				"z": -3.1041139874,
				"element": "N" 
			},
			{
				"x": -4.0565656376,
				"y": -1.0403734425,
				"z": -3.7578829999,
				"element": "C" 
			},
			{
				"x": -5.0088592368,
				"y": -0.9923009707,
				"z": -4.9079984921,
				"element": "C" 
			},
			{
				"x": -3.5278791394,
				"y": -2.1340859668,
				"z": -3.2589082741,
				"element": "N" 
			},
			{
				"x": -2.0418116826,
				"y": 0.385886895,
				"z": -1.1269568838,
				"element": "C" 
			},
			{
				"x": -1.2501185991,
				"y": -0.3693151852,
				"z": -0.2626574653,
				"element": "C" 
			},
			{
				"x": 1.5014717961,
				"y": -0.2192888841,
				"z": 2.8214235356,
				"element": "C" 
			},
			{
				"x": 2.6668716395,
				"y": 0.5462930162,
				"z": 2.866033313,
				"element": "C" 
			},
			{
				"x": 3.9740672269,
				"y": 3.2276870866,
				"z": 0.9360103262,
				"element": "H" 
			},
			{
				"x": 5.7290895434,
				"y": 3.2531180069,
				"z": 0.6326905461,
				"element": "H" 
			},
			{
				"x": 4.6883367168,
				"y": 2.1542540087,
				"z": -0.302981661,
				"element": "H" 
			},
			{
				"x": 4.2087904072,
				"y": -0.6804181677,
				"z": 0.0966217662,
				"element": "H" 
			},
			{
				"x": 2.1090261826,
				"y": -2.0151193203,
				"z": 0.0132923311,
				"element": "H" 
			},
			{
				"x": 0.2292562693,
				"y": -2.8876306591,
				"z": 2.4437587545,
				"element": "H" 
			},
			{
				"x": -0.7809064928,
				"y": -1.4574244376,
				"z": 2.2844136831,
				"element": "H" 
			},
			{
				"x": -0.5934929253,
				"y": -3.5080219548,
				"z": 0.5092575568,
				"element": "H" 
			},
			{
				"x": -1.8811637431,
				"y": -3.5336300888,
				"z": -1.4365948877,
				"element": "H" 
			},
			{
				"x": -3.9186578542,
				"y": 1.0456749694,
				"z": -3.3216270684,
				"element": "H" 
			},
			{
				"x": -5.1889646038,
				"y": -2.0102071327,
				"z": -5.2547774508,
				"element": "H" 
			},
			{
				"x": -4.6058077214,
				"y": -0.4048358524,
				"z": -5.7413779048,
				"element": "H" 
			},
			{
				"x": -5.9677643286,
				"y": -0.5455757095,
				"z": -4.6198870394,
				"element": "H" 
			},
			{
				"x": -2.0765574294,
				"y": 1.4674076024,
				"z": -1.0328938494,
				"element": "H" 
			},
			{
				"x": -0.6593743565,
				"y": 0.1438707213,
				"z": 0.4868575625,
				"element": "H" 
			},
			{
				"x": 0.7442121234,
				"y": -0.0861808741,
				"z": 3.5914027908,
				"element": "H" 
			},
			{
				"x": 2.8176471557,
				"y": 1.2692850836,
				"z": 3.6616411103,
				"element": "H" 
			}
		],
		 "valence_orbital": [ 
			{
				"type": "occ",
				"energy": -0.25135,
				"method": "rhf"
			},
			{
				"type": "occ",
				"energy": -0.24313,
				"method": "rhf"
			},
			{
				"type": "occ",
				"energy": -0.21882,
				"method": "rhf"
			},
			{
				"type": "occ",
				"energy": -0.21407,
				"method": "rhf"
			},
			{
				"type": "occ",
				"energy": -0.1843,
				"method": "rhf"
			},
			{
				"type": "unocc",
				"energy": -0.0157,
				"method": "rhf"
			},
			{
				"type": "unocc",
				"energy": -0.00777,
				"method": "rhf"
			},
			{
				"type": "unocc",
				"energy": -0.00146,
				"method": "rhf"
			},
			{
				"type": "unocc",
				"energy": 0.03997,
				"method": "rhf"
			},
			{
				"type": "unocc",
				"energy": 0.05566,
				"method": "rhf"
			}
		],
		"cosmo_sigma_profile": { 
			"-0.025": 0.0,
			"-0.024": 0.0,
			"-0.023": 0.0,
			"-0.022": 0.0,
			"-0.021": 0.0,
			"-0.02": 0.0,
			"-0.019": 0.0,
			"-0.018": 0.0,
			"-0.017": 0.0,
			"-0.016": 0.660776924167,
			"-0.015": 1.66699886197,
			"-0.014": 1.02025896645,
			"-0.013": 1.37100095924,
			"-0.012": 2.27707854509,
			"-0.011": 3.00347122289,
			"-0.01": 2.59329998362,
			"-0.009": 2.89004867805,
			"-0.008": 3.16190390787,
			"-0.007": 4.4374403046,
			"-0.006": 14.0133011397,
			"-0.005": 24.2820442436,
			"-0.004": 26.6960358789,
			"-0.003": 29.4644224426,
			"-0.002": 27.5125700578,
			"-0.001": 26.0704137224,
			"0.0": 19.4721578179,
			"0.001": 18.8432073809,
			"0.002": 17.7405056235,
			"0.003": 20.6297848551,
			"0.004": 20.3642858232,
			"0.005": 21.9811495641,
			"0.006": 17.6544583012,
			"0.007": 10.6864317846,
			"0.008": 4.84017286283,
			"0.009": 3.63920913229,
			"0.01": 3.28535431239,
			"0.011": 1.35059000784,
			"0.012": 1.13574535352,
			"0.013": 0.598062287764,
			"0.014": 1.38499681485,
			"0.015": 0.916773767041,
			"0.016": 1.30232046354,
			"0.017": 0.786201563115,
			"0.018": 0.785505170644,
			"0.019": 0.225469075753,
			"0.02": 0.0,
			"0.021": 0.0,
			"0.022": 0.0,
			"0.023": 0.0,
			"0.024": 0.0,
			"0.025": 0.0
		}
	}
}
