{
	 "smiles": "OC(=O)C1=C(F)C=CC=C1I", 
	 "Tm": 397.15, 
	 "num_atms": 15, 
	 "gaussian": { 
		 "optdone": 1, 
		 "sigma_profile": "no", 
		 "theory": "DFT", 
		 "functional": "B3LYP", 
		 "basiset": "6-31G**", 
		 "properties": { 
			 "R2extent": 2325.2785, 
			 "electric_dipole_moment_norm": 2.43985315952, 
			 "electric_quadrupole_moment_norm": 13.4114998293, 
			 "total_energy": -530.824519618, 
			 "HOMO_LUMO_gap": 0.19729, 
			 "cosmo_polarized_energy": -83104.25, 
			 "cosmo_cavitation_energy": 23.56, 
			 "cosmo_dispersion_energy": -18.46, 
			 "cosmo_repulsion_energy": 1.44, 
			 "cosmo_total_nonelectrostatic_energy": 6.54, 
			 "SMD_solvation_energy": 4.86 
		},
		"coords": [
			{
				"x": 0.6691759477,
				"y": 1.2618376224,
				"z": 3.1358045851,
				"element": "O" 
			},
			{
				"x": 1.7115585908,
				"y": 0.7454968343,
				"z": 2.4519802098,
				"element": "C" 
			},
			{
				"x": 2.8057361766,
				"y": 0.5728976193,
				"z": 2.9372859439,
				"element": "O" 
			},
			{
				"x": 1.3424244155,
				"y": 0.416686704,
				"z": 1.0351250673,
				"element": "C" 
			},
			{
				"x": 0.2519989962,
				"y": -0.4283843436,
				"z": 0.7898373572,
				"element": "C" 
			},
			{
				"x": -0.4437217489,
				"y": -0.904420321,
				"z": 1.8379667478,
				"element": "F" 
			},
			{
				"x": -0.1254626269,
				"y": -0.824402455,
				"z": -0.4855507906,
				"element": "C" 
			},
			{
				"x": 0.6082388981,
				"y": -0.3509513739,
				"z": -1.5704326149,
				"element": "C" 
			},
			{
				"x": 1.6998791797,
				"y": 0.4961883333,
				"z": -1.3749175548,
				"element": "C" 
			},
			{
				"x": 2.0685301432,
				"y": 0.8680474334,
				"z": -0.0799300519,
				"element": "C" 
			},
			{
				"x": 3.7113981075,
				"y": 2.1935593644,
				"z": 0.11401692,
				"element": "I" 
			},
			{
				"x": 0.9874527812,
				"y": 1.410057938,
				"z": 4.0430260569,
				"element": "H" 
			},
			{
				"x": -0.9737177794,
				"y": -1.4886669096,
				"z": -0.6048686107,
				"element": "H" 
			},
			{
				"x": 0.3312593362,
				"y": -0.6429904461,
				"z": -2.5786558987,
				"element": "H" 
			},
			{
				"x": 2.2609495825,
				"y": 0.8660440002,
				"z": -2.2245873664,
				"element": "H" 
			}
		],
		 "valence_orbital": [ 
			{
				"type": "occ",
				"energy": -0.30954,
				"method": "rhf"
			},
			{
				"type": "occ",
				"energy": -0.29162,
				"method": "rhf"
			},
			{
				"type": "occ",
				"energy": -0.26915,
				"method": "rhf"
			},
			{
				"type": "occ",
				"energy": -0.26664,
				"method": "rhf"
			},
			{
				"type": "occ",
				"energy": -0.24874,
				"method": "rhf"
			},
			{
				"type": "unocc",
				"energy": -0.05145,
				"method": "rhf"
			},
			{
				"type": "unocc",
				"energy": -0.04624,
				"method": "rhf"
			},
			{
				"type": "unocc",
				"energy": -0.02459,
				"method": "rhf"
			},
			{
				"type": "unocc",
				"energy": 0.01466,
				"method": "rhf"
			},
			{
				"type": "unocc",
				"energy": 0.04266,
				"method": "rhf"
			}
		],
		"cosmo_sigma_profile": { 
			"0.0": 0.0,
			"0.0": 0.0,
			"0.0": 0.0,
			"0.0": 0.0,
			"0.0": 0.0,
			"0.0": 0.0,
			"0.0": 0.0,
			"0.0": 0.0,
			"0.0": 0.0,
			"0.0": 0.0,
			"0.0": 0.0,
			"0.0": 0.0,
			"0.0": 0.0,
			"0.0": 0.0,
			"0.0": 0.0,
			"0.0": 0.0,
			"0.0": 0.0,
			"0.0": 0.0,
			"0.0": 0.0,
			"0.0": 0.0,
			"0.0": 0.0,
			"0.0": 0.0,
			"0.0": 0.0,
			"0.0": 0.0,
			"0.0": 0.0,
			"0.0": 0.0,
			"0.0": 0.0,
			"0.0": 0.0,
			"0.0": 0.0,
			"0.0": 0.0,
			"0.0": 0.0,
			"0.0": 0.0,
			"0.0": 0.0,
			"0.0": 0.0,
			"0.0": 0.0,
			"0.0": 0.0,
			"0.0": 0.0,
			"0.0": 0.0,
			"0.0": 0.0,
			"0.0": 0.0,
			"0.0": 0.0,
			"0.0": 0.0,
			"0.0": 0.0,
			"0.0": 0.0,
			"0.0": 0.0,
			"0.0": 0.0,
			"0.0": 0.0,
			"0.0": 0.0,
			"0.0": 0.0,
			"0.0": 0.0,
			"0.0": 0.0
		}
	}
}
