{
	 "smiles": "CCC1=NC(=NN1C1=C(Cl)C=CC=C1)C(O)=O", 
	 "Tm": 438.15, 
	 "num_atms": 27, 
	 "gaussian": { 
		 "optdone": 1, 
		 "sigma_profile": "yes", 
		 "theory": "DFT", 
		 "functional": "B3LYP", 
		 "basiset": "6-31G**", 
		 "properties": { 
			 "R2extent": 5399.4415, 
			 "electric_dipole_moment_norm": 8.43787096962, 
			 "electric_quadrupole_moment_norm": 39.1629061526, 
			 "total_energy": -1200.09616941, 
			 "HOMO_LUMO_gap": 0.21348, 
			 "cosmo_polarized_energy": -16.9, 
			 "cosmo_cavitation_energy": 33.85, 
			 "cosmo_dispersion_energy": -23.85, 
			 "cosmo_repulsion_energy": 1.88, 
			 "cosmo_total_nonelectrostatic_energy": 11.89, 
			 "SMD_solvation_energy": 5.08 
		},
		"coords": [
			{
				"x": 2.2377741228,
				"y": 1.4685928353,
				"z": -1.2359113389,
				"element": "C" 
			},
			{
				"x": 1.4126159936,
				"y": 0.2971901362,
				"z": -0.6891319317,
				"element": "C" 
			},
			{
				"x": 1.0046880037,
				"y": 0.4963118848,
				"z": 0.7383978743,
				"element": "C" 
			},
			{
				"x": 1.6691911963,
				"y": 1.1728566254,
				"z": 1.659666371,
				"element": "N" 
			},
			{
				"x": 0.879277118,
				"y": 1.0782993182,
				"z": 2.7713920241,
				"element": "C" 
			},
			{
				"x": -0.2360709363,
				"y": 0.3888014025,
				"z": 2.6069345031,
				"element": "N" 
			},
			{
				"x": -0.1455643082,
				"y": 0.0079676152,
				"z": 1.3026500028,
				"element": "N" 
			},
			{
				"x": -1.2179357041,
				"y": -0.7190589727,
				"z": 0.7050304589,
				"element": "C" 
			},
			{
				"x": -1.0663733414,
				"y": -2.0434637032,
				"z": 0.2706700287,
				"element": "C" 
			},
			{
				"x": 0.4522485189,
				"y": -2.8900882495,
				"z": 0.4730093659,
				"element": "Cl" 
			},
			{
				"x": -2.1431418055,
				"y": -2.7198018242,
				"z": -0.3050641299,
				"element": "C" 
			},
			{
				"x": -3.3762013371,
				"y": -2.08195189,
				"z": -0.428705384,
				"element": "C" 
			},
			{
				"x": -3.5408917298,
				"y": -0.7712355653,
				"z": 0.0236588596,
				"element": "C" 
			},
			{
				"x": -2.4632022276,
				"y": -0.0938419175,
				"z": 0.586509959,
				"element": "C" 
			},
			{
				"x": 1.2816826766,
				"y": 1.7324266543,
				"z": 4.0542185656,
				"element": "C" 
			},
			{
				"x": 2.4686160553,
				"y": 2.369195003,
				"z": 3.9551776285,
				"element": "O" 
			},
			{
				"x": 0.6334636081,
				"y": 1.7080998321,
				"z": 5.0701378548,
				"element": "O" 
			},
			{
				"x": 3.1353235819,
				"y": 1.6255176108,
				"z": -0.6335533777,
				"element": "H" 
			},
			{
				"x": 1.6613906008,
				"y": 2.3981555828,
				"z": -1.2255616829,
				"element": "H" 
			},
			{
				"x": 2.5420102987,
				"y": 1.2648014274,
				"z": -2.2662630975,
				"element": "H" 
			},
			{
				"x": 0.5146478264,
				"y": 0.1393723931,
				"z": -1.2966340219,
				"element": "H" 
			},
			{
				"x": 1.9914862349,
				"y": -0.6321289612,
				"z": -0.759203387,
				"element": "H" 
			},
			{
				"x": -2.0092299669,
				"y": -3.7430806024,
				"z": -0.6371182969,
				"element": "H" 
			},
			{
				"x": -4.2101484962,
				"y": -2.6167503678,
				"z": -0.8723989679,
				"element": "H" 
			},
			{
				"x": -4.5031575731,
				"y": -0.2774111945,
				"z": -0.0622636586,
				"element": "H" 
			},
			{
				"x": -2.5657708292,
				"y": 0.9221709655,
				"z": 0.9519194167,
				"element": "H" 
			},
			{
				"x": 2.7959724197,
				"y": 2.2501539618,
				"z": 3.0440363617,
				"element": "H" 
			}
		],
		 "valence_orbital": [ 
			{
				"type": "occ",
				"energy": -0.30295,
				"method": "rhf"
			},
			{
				"type": "occ",
				"energy": -0.28825,
				"method": "rhf"
			},
			{
				"type": "occ",
				"energy": -0.27454,
				"method": "rhf"
			},
			{
				"type": "occ",
				"energy": -0.27086,
				"method": "rhf"
			},
			{
				"type": "occ",
				"energy": -0.26485,
				"method": "rhf"
			},
			{
				"type": "unocc",
				"energy": -0.05137,
				"method": "rhf"
			},
			{
				"type": "unocc",
				"energy": -0.04061,
				"method": "rhf"
			},
			{
				"type": "unocc",
				"energy": -0.03154,
				"method": "rhf"
			},
			{
				"type": "unocc",
				"energy": 0.00097,
				"method": "rhf"
			},
			{
				"type": "unocc",
				"energy": 0.00565,
				"method": "rhf"
			}
		],
		"cosmo_sigma_profile": { 
			"-0.025": 0.0,
			"-0.024": 0.0,
			"-0.023": 0.0,
			"-0.022": 0.0,
			"-0.021": 0.0,
			"-0.02": 0.0,
			"-0.019": 0.0,
			"-0.018": 0.0,
			"-0.017": 0.0,
			"-0.016": 0.0,
			"-0.015": 0.0290866453576,
			"-0.014": 0.271842650915,
			"-0.013": 0.93559673142,
			"-0.012": 0.427891180364,
			"-0.011": 0.608295294071,
			"-0.01": 0.384446776167,
			"-0.009": 0.635910033785,
			"-0.008": 4.13118982545,
			"-0.007": 10.50376151,
			"-0.006": 14.5728220547,
			"-0.005": 17.8719878235,
			"-0.004": 20.2999642237,
			"-0.003": 21.2712177979,
			"-0.002": 24.7514099613,
			"-0.001": 22.8096944457,
			"0.0": 24.4432035456,
			"0.001": 22.7012827171,
			"0.002": 19.1468860814,
			"0.003": 13.5441020978,
			"0.004": 8.2272133591,
			"0.005": 5.48786603786,
			"0.006": 4.98448786329,
			"0.007": 4.94296578429,
			"0.008": 3.21576429856,
			"0.009": 5.72901040532,
			"0.01": 6.48490568131,
			"0.011": 6.99544281323,
			"0.012": 6.2107388375,
			"0.013": 1.43051970056,
			"0.014": 0.0370741505799,
			"0.015": 0.0,
			"0.016": 0.0,
			"0.017": 0.0,
			"0.018": 0.0,
			"0.019": 0.0,
			"0.02": 0.0,
			"0.021": 0.0,
			"0.022": 0.0,
			"0.023": 0.0,
			"0.024": 0.0,
			"0.025": 0.0
		}
	}
}
