{
	 "smiles": "OCCCCCCCCCO", 
	 "Tm": 319.55, 
	 "num_atms": 31, 
	 "gaussian": { 
		 "optdone": 1, 
		 "sigma_profile": "yes", 
		 "theory": "DFT", 
		 "functional": "B3LYP", 
		 "basiset": "6-31G**", 
		 "properties": { 
			 "R2extent": 3440.2167, 
			 "electric_dipole_moment_norm": 2.90850172598, 
			 "electric_quadrupole_moment_norm": 7.52405366608, 
			 "total_energy": -505.451512772, 
			 "HOMO_LUMO_gap": 0.31233, 
			 "cosmo_polarized_energy": -10.86, 
			 "cosmo_cavitation_energy": 31.17, 
			 "cosmo_dispersion_energy": -22.1, 
			 "cosmo_repulsion_energy": 1.83, 
			 "cosmo_total_nonelectrostatic_energy": 10.91, 
			 "SMD_solvation_energy": 4.31 
		},
		"coords": [
			{
				"x": 2.6427390744,
				"y": 2.1911843583,
				"z": 3.5331709883,
				"element": "O" 
			},
			{
				"x": 1.5832690857,
				"y": 1.3202859364,
				"z": 3.1530668188,
				"element": "C" 
			},
			{
				"x": 0.756563161,
				"y": 2.0358652559,
				"z": 2.0903880513,
				"element": "C" 
			},
			{
				"x": -0.4965548826,
				"y": 1.2661265144,
				"z": 1.6415394685,
				"element": "C" 
			},
			{
				"x": -0.2511219724,
				"y": -0.0847276298,
				"z": 0.9429114453,
				"element": "C" 
			},
			{
				"x": 0.5343957808,
				"y": 0.0114602181,
				"z": -0.3743608622,
				"element": "C" 
			},
			{
				"x": 0.6946292961,
				"y": -1.3384221228,
				"z": -1.1035978028,
				"element": "C" 
			},
			{
				"x": -0.5773655297,
				"y": -1.9021925664,
				"z": -1.7777413896,
				"element": "C" 
			},
			{
				"x": -0.7723657774,
				"y": -1.5158894156,
				"z": -3.2568188484,
				"element": "C" 
			},
			{
				"x": -0.9203439853,
				"y": -0.0183214438,
				"z": -3.54177203,
				"element": "C" 
			},
			{
				"x": -2.0430514706,
				"y": 0.5740653492,
				"z": -2.8983831879,
				"element": "O" 
			},
			{
				"x": 3.1853567759,
				"y": 1.7361873204,
				"z": 4.1887206867,
				"element": "H" 
			},
			{
				"x": 0.9402603218,
				"y": 1.0716396926,
				"z": 4.0148399326,
				"element": "H" 
			},
			{
				"x": 1.9776030496,
				"y": 0.3697767018,
				"z": 2.7591521514,
				"element": "H" 
			},
			{
				"x": 0.4538796739,
				"y": 3.0050005329,
				"z": 2.5043135037,
				"element": "H" 
			},
			{
				"x": 1.4062506661,
				"y": 2.2589420981,
				"z": 1.2360620713,
				"element": "H" 
			},
			{
				"x": -1.0737210656,
				"y": 1.9120081052,
				"z": 0.9663453369,
				"element": "H" 
			},
			{
				"x": -1.1405030007,
				"y": 1.0964982812,
				"z": 2.5152325818,
				"element": "H" 
			},
			{
				"x": 0.2752370856,
				"y": -0.7708285595,
				"z": 1.6203079113,
				"element": "H" 
			},
			{
				"x": -1.2274523655,
				"y": -0.5517368638,
				"z": 0.7565311868,
				"element": "H" 
			},
			{
				"x": 0.0516732984,
				"y": 0.7486954611,
				"z": -1.0313195325,
				"element": "H" 
			},
			{
				"x": 1.5334121801,
				"y": 0.415076288,
				"z": -0.1692397706,
				"element": "H" 
			},
			{
				"x": 1.4855807516,
				"y": -1.2480047544,
				"z": -1.8598612445,
				"element": "H" 
			},
			{
				"x": 1.0672140804,
				"y": -2.0689974201,
				"z": -0.3735703363,
				"element": "H" 
			},
			{
				"x": -0.5533349823,
				"y": -2.9970123694,
				"z": -1.7272423281,
				"element": "H" 
			},
			{
				"x": -1.469473054,
				"y": -1.6131670956,
				"z": -1.2053607717,
				"element": "H" 
			},
			{
				"x": -1.6647222243,
				"y": -2.0274105675,
				"z": -3.6383342019,
				"element": "H" 
			},
			{
				"x": 0.0808895343,
				"y": -1.8899623476,
				"z": -3.8400709006,
				"element": "H" 
			},
			{
				"x": -1.0855480099,
				"y": 0.1340180743,
				"z": -4.6134287482,
				"element": "H" 
			},
			{
				"x": 0.0101377169,
				"y": 0.5126946985,
				"z": -3.2857868722,
				"element": "H" 
			},
			{
				"x": -1.9127332123,
				"y": 0.49874827,
				"z": -1.944893307,
				"element": "H" 
			}
		],
		 "valence_orbital": [ 
			{
				"type": "occ",
				"energy": -0.31225,
				"method": "rhf"
			},
			{
				"type": "occ",
				"energy": -0.30952,
				"method": "rhf"
			},
			{
				"type": "occ",
				"energy": -0.30785,
				"method": "rhf"
			},
			{
				"type": "occ",
				"energy": -0.26392,
				"method": "rhf"
			},
			{
				"type": "occ",
				"energy": -0.26027,
				"method": "rhf"
			},
			{
				"type": "unocc",
				"energy": 0.05206,
				"method": "rhf"
			},
			{
				"type": "unocc",
				"energy": 0.07718,
				"method": "rhf"
			},
			{
				"type": "unocc",
				"energy": 0.09219,
				"method": "rhf"
			},
			{
				"type": "unocc",
				"energy": 0.09403,
				"method": "rhf"
			},
			{
				"type": "unocc",
				"energy": 0.1067,
				"method": "rhf"
			}
		],
		"cosmo_sigma_profile": { 
			"-0.025": 0.0,
			"-0.024": 0.0,
			"-0.023": 0.0,
			"-0.022": 0.0,
			"-0.021": 0.0,
			"-0.02": 0.0,
			"-0.019": 0.0,
			"-0.018": 0.0,
			"-0.017": 0.0,
			"-0.016": 0.0849786551668,
			"-0.015": 1.07087681034,
			"-0.014": 0.996293535862,
			"-0.013": 0.86321906065,
			"-0.012": 1.14044165734,
			"-0.011": 0.7652191524,
			"-0.01": 2.15670879568,
			"-0.009": 2.36090318338,
			"-0.008": 2.17409464223,
			"-0.007": 2.22117795656,
			"-0.006": 2.69947417157,
			"-0.005": 2.87794253597,
			"-0.004": 5.12997484125,
			"-0.003": 18.5943345511,
			"-0.002": 46.465142173,
			"-0.001": 43.5962936383,
			"0.0": 36.6039497685,
			"0.001": 26.056383625,
			"0.002": 6.58081833427,
			"0.003": 2.8786420938,
			"0.004": 2.52432542574,
			"0.005": 1.88120012354,
			"0.006": 1.70850633363,
			"0.007": 3.42326313681,
			"0.008": 3.03116161915,
			"0.009": 2.77815969951,
			"0.01": 2.70542091489,
			"0.011": 1.2874357464,
			"0.012": 2.344602421,
			"0.013": 4.53467767642,
			"0.014": 4.00022971207,
			"0.015": 2.97659198034,
			"0.016": 0.0,
			"0.017": 0.0,
			"0.018": 0.0,
			"0.019": 0.0,
			"0.02": 0.0,
			"0.021": 0.0,
			"0.022": 0.0,
			"0.023": 0.0,
			"0.024": 0.0,
			"0.025": 0.0
		}
	}
}
