{
	 "smiles": "CC1=C(N)C=C(C=C1)N1CCOC1=O", 
	 "Tm": 398.15, 
	 "num_atms": 26, 
	 "gaussian": { 
		 "optdone": 1, 
		 "sigma_profile": "yes", 
		 "theory": "DFT", 
		 "functional": "B3LYP", 
		 "basiset": "6-31G**", 
		 "properties": { 
			 "R2extent": 3868.9198, 
			 "electric_dipole_moment_norm": 5.65218788877, 
			 "electric_quadrupole_moment_norm": 22.1245952092, 
			 "total_energy": -648.26945627, 
			 "HOMO_LUMO_gap": 0.1995, 
			 "cosmo_polarized_energy": -17.86, 
			 "cosmo_cavitation_energy": 28.73, 
			 "cosmo_dispersion_energy": -21.68, 
			 "cosmo_repulsion_energy": 1.69, 
			 "cosmo_total_nonelectrostatic_energy": 8.74, 
			 "SMD_solvation_energy": 5.55 
		},
		"coords": [
			{
				"x": 2.7823174761,
				"y": 1.8333784328,
				"z": -0.7037887919,
				"element": "C" 
			},
			{
				"x": 1.4517846143,
				"y": 1.1239805067,
				"z": -0.7333115928,
				"element": "C" 
			},
			{
				"x": 1.0994304553,
				"y": 0.2128007225,
				"z": 0.2845558841,
				"element": "C" 
			},
			{
				"x": 1.9665035621,
				"y": -0.0115352976,
				"z": 1.3608828588,
				"element": "N" 
			},
			{
				"x": -0.1478997314,
				"y": -0.4276439326,
				"z": 0.2507402877,
				"element": "C" 
			},
			{
				"x": -1.0624606354,
				"y": -0.1776384723,
				"z": -0.7814418356,
				"element": "C" 
			},
			{
				"x": -0.7203249882,
				"y": 0.7231749183,
				"z": -1.8009876042,
				"element": "C" 
			},
			{
				"x": 0.5239348002,
				"y": 1.3468307915,
				"z": -1.7526357658,
				"element": "C" 
			},
			{
				"x": -2.3217391456,
				"y": -0.8274058827,
				"z": -0.7514361559,
				"element": "N" 
			},
			{
				"x": -2.7417610462,
				"y": -1.67680776,
				"z": 0.3548456019,
				"element": "C" 
			},
			{
				"x": -4.2014061265,
				"y": -1.9580320339,
				"z": -0.0253570641,
				"element": "C" 
			},
			{
				"x": -4.2609657997,
				"y": -1.7226327334,
				"z": -1.437010112,
				"element": "O" 
			},
			{
				"x": -3.1918394076,
				"y": -0.9579689424,
				"z": -1.8269526621,
				"element": "C" 
			},
			{
				"x": -3.0948108214,
				"y": -0.5081597272,
				"z": -2.9429307604,
				"element": "O" 
			},
			{
				"x": 2.9202026677,
				"y": 2.398009945,
				"z": 0.2271243398,
				"element": "H" 
			},
			{
				"x": 3.628750668,
				"y": 1.1353611577,
				"z": -0.7837772552,
				"element": "H" 
			},
			{
				"x": 2.8683394046,
				"y": 2.535845434,
				"z": -1.5366366399,
				"element": "H" 
			},
			{
				"x": 1.7974988901,
				"y": -0.870029154,
				"z": 1.8674728689,
				"element": "H" 
			},
			{
				"x": 2.9482656877,
				"y": 0.1037107599,
				"z": 1.1501629062,
				"element": "H" 
			},
			{
				"x": -0.387864718,
				"y": -1.1253196571,
				"z": 1.0463673173,
				"element": "H" 
			},
			{
				"x": -1.4084245367,
				"y": 0.9155849891,
				"z": -2.6104343761,
				"element": "H" 
			},
			{
				"x": 0.7834253776,
				"y": 2.0448511109,
				"z": -2.5451072152,
				"element": "H" 
			},
			{
				"x": -2.13977345,
				"y": -2.5951395616,
				"z": 0.4030728653,
				"element": "H" 
			},
			{
				"x": -2.6568256783,
				"y": -1.1578213104,
				"z": 1.3140233768,
				"element": "H" 
			},
			{
				"x": -4.8918082295,
				"y": -1.2716239505,
				"z": 0.4782091398,
				"element": "H" 
			},
			{
				"x": -4.510249289,
				"y": -2.9863703525,
				"z": 0.1718503845,
				"element": "H" 
			}
		],
		 "valence_orbital": [ 
			{
				"type": "occ",
				"energy": -0.29322,
				"method": "rhf"
			},
			{
				"type": "occ",
				"energy": -0.27771,
				"method": "rhf"
			},
			{
				"type": "occ",
				"energy": -0.27193,
				"method": "rhf"
			},
			{
				"type": "occ",
				"energy": -0.22141,
				"method": "rhf"
			},
			{
				"type": "occ",
				"energy": -0.195,
				"method": "rhf"
			},
			{
				"type": "unocc",
				"energy": 0.0045,
				"method": "rhf"
			},
			{
				"type": "unocc",
				"energy": 0.01715,
				"method": "rhf"
			},
			{
				"type": "unocc",
				"energy": 0.05877,
				"method": "rhf"
			},
			{
				"type": "unocc",
				"energy": 0.0735,
				"method": "rhf"
			},
			{
				"type": "unocc",
				"energy": 0.07878,
				"method": "rhf"
			}
		],
		"cosmo_sigma_profile": { 
			"-0.025": 0.0,
			"-0.024": 0.0,
			"-0.023": 0.0,
			"-0.022": 0.0,
			"-0.021": 0.0,
			"-0.02": 0.0,
			"-0.019": 0.0,
			"-0.018": 0.0,
			"-0.017": 0.0,
			"-0.016": 0.0,
			"-0.015": 0.0,
			"-0.014": 0.0,
			"-0.013": 0.0633524981652,
			"-0.012": 1.26253242362,
			"-0.011": 2.7307029259,
			"-0.01": 2.61054280364,
			"-0.009": 3.27925261875,
			"-0.008": 4.21536934031,
			"-0.007": 12.8591960977,
			"-0.006": 21.1548167284,
			"-0.005": 15.3967860031,
			"-0.004": 15.5992723957,
			"-0.003": 13.5834736333,
			"-0.002": 12.418681697,
			"-0.001": 11.5513311179,
			"0.0": 13.776468837,
			"0.001": 11.4716477653,
			"0.002": 8.95620479191,
			"0.003": 9.5380655522,
			"0.004": 8.17397799113,
			"0.005": 9.88267979566,
			"0.006": 13.2573382688,
			"0.007": 9.17048413435,
			"0.008": 3.23051607412,
			"0.009": 4.26697031379,
			"0.01": 5.29365897438,
			"0.011": 4.05624216236,
			"0.012": 5.16020323415,
			"0.013": 3.20742607892,
			"0.014": 0.736917201154,
			"0.015": 0.357849709403,
			"0.016": 0.0,
			"0.017": 0.0,
			"0.018": 0.0,
			"0.019": 0.0,
			"0.02": 0.0,
			"0.021": 0.0,
			"0.022": 0.0,
			"0.023": 0.0,
			"0.024": 0.0,
			"0.025": 0.0
		}
	}
}
