{
	 "smiles": "C1CCC2(C1)NC1=C(N2)C=CC=C1", 
	 "Tm": 463.15, 
	 "num_atms": 27, 
	 "gaussian": { 
		 "optdone": 1, 
		 "sigma_profile": "yes", 
		 "theory": "DFT", 
		 "functional": "B3LYP", 
		 "basiset": "6-31G**", 
		 "properties": { 
			 "R2extent": 2709.7093, 
			 "electric_dipole_moment_norm": 1.87847641188, 
			 "electric_quadrupole_moment_norm": 7.85653575566, 
			 "total_energy": -537.110930793, 
			 "HOMO_LUMO_gap": 0.19073, 
			 "cosmo_polarized_energy": -8.64, 
			 "cosmo_cavitation_energy": 28.05, 
			 "cosmo_dispersion_energy": -20.94, 
			 "cosmo_repulsion_energy": 1.65, 
			 "cosmo_total_nonelectrostatic_energy": 8.76, 
			 "SMD_solvation_energy": 2.14 
		},
		"coords": [
			{
				"x": -2.0904834117,
				"y": 0.8897909958,
				"z": 3.051335677,
				"element": "C" 
			},
			{
				"x": -2.019618081,
				"y": -0.6600496567,
				"z": 2.9954342539,
				"element": "C" 
			},
			{
				"x": -2.1543160108,
				"y": -0.988679184,
				"z": 1.5044282884,
				"element": "C" 
			},
			{
				"x": -1.3065188758,
				"y": 0.1132982995,
				"z": 0.8237757937,
				"element": "C" 
			},
			{
				"x": -1.6643296711,
				"y": 1.3793766037,
				"z": 1.6392397503,
				"element": "C" 
			},
			{
				"x": 0.1337542511,
				"y": -0.2349052324,
				"z": 0.9253603148,
				"element": "N" 
			},
			{
				"x": 0.5544335662,
				"y": -0.6339904817,
				"z": -0.3725728171,
				"element": "C" 
			},
			{
				"x": -0.4803161108,
				"y": -0.3984294063,
				"z": -1.2948184431,
				"element": "C" 
			},
			{
				"x": -1.5375073627,
				"y": 0.2448039131,
				"z": -0.6323230438,
				"element": "N" 
			},
			{
				"x": -0.3295311531,
				"y": -0.7342266008,
				"z": -2.6348534349,
				"element": "C" 
			},
			{
				"x": 0.888829142,
				"y": -1.3038074224,
				"z": -3.0412435795,
				"element": "C" 
			},
			{
				"x": 1.9216242832,
				"y": -1.520067404,
				"z": -2.1302037024,
				"element": "C" 
			},
			{
				"x": 1.7589280302,
				"y": -1.1888481558,
				"z": -0.7735113979,
				"element": "C" 
			},
			{
				"x": -1.4520031589,
				"y": 1.2951112476,
				"z": 3.841880911,
				"element": "H" 
			},
			{
				"x": -3.1105612108,
				"y": 1.2197937426,
				"z": 3.2738508764,
				"element": "H" 
			},
			{
				"x": -1.0407184855,
				"y": -1.0043169867,
				"z": 3.344660817,
				"element": "H" 
			},
			{
				"x": -2.7803812281,
				"y": -1.1419083945,
				"z": 3.6164767327,
				"element": "H" 
			},
			{
				"x": -3.2011757648,
				"y": -0.8881380526,
				"z": 1.1826060648,
				"element": "H" 
			},
			{
				"x": -1.8057358355,
				"y": -1.988803646,
				"z": 1.2328852948,
				"element": "H" 
			},
			{
				"x": -2.4883918359,
				"y": 1.8889558582,
				"z": 1.1309005605,
				"element": "H" 
			},
			{
				"x": -0.8295316632,
				"y": 2.0884832943,
				"z": 1.6544399785,
				"element": "H" 
			},
			{
				"x": 0.6909748244,
				"y": 0.5237551762,
				"z": 1.3054145897,
				"element": "H" 
			},
			{
				"x": -2.4733411769,
				"y": 0.0029579101,
				"z": -0.9344956018,
				"element": "H" 
			},
			{
				"x": -1.1237935107,
				"y": -0.5488190233,
				"z": -3.3523468107,
				"element": "H" 
			},
			{
				"x": 1.0237609351,
				"y": -1.5767251087,
				"z": -4.0839246441,
				"element": "H" 
			},
			{
				"x": 2.8568250273,
				"y": -1.9583570601,
				"z": -2.4652589959,
				"element": "H" 
			},
			{
				"x": 2.5507244878,
				"y": -1.3729552251,
				"z": -0.0532374321,
				"element": "H" 
			}
		],
		 "valence_orbital": [ 
			{
				"type": "occ",
				"energy": -0.31948,
				"method": "rhf"
			},
			{
				"type": "occ",
				"energy": -0.28961,
				"method": "rhf"
			},
			{
				"type": "occ",
				"energy": -0.27536,
				"method": "rhf"
			},
			{
				"type": "occ",
				"energy": -0.22062,
				"method": "rhf"
			},
			{
				"type": "occ",
				"energy": -0.17594,
				"method": "rhf"
			},
			{
				"type": "unocc",
				"energy": 0.01479,
				"method": "rhf"
			},
			{
				"type": "unocc",
				"energy": 0.0278,
				"method": "rhf"
			},
			{
				"type": "unocc",
				"energy": 0.07108,
				"method": "rhf"
			},
			{
				"type": "unocc",
				"energy": 0.09067,
				"method": "rhf"
			},
			{
				"type": "unocc",
				"energy": 0.10084,
				"method": "rhf"
			}
		],
		"cosmo_sigma_profile": { 
			"-0.025": 0.0,
			"-0.024": 0.0,
			"-0.023": 0.0,
			"-0.022": 0.0,
			"-0.021": 0.0,
			"-0.02": 0.0,
			"-0.019": 0.0,
			"-0.018": 0.0,
			"-0.017": 0.0,
			"-0.016": 0.0,
			"-0.015": 0.0,
			"-0.014": 0.0,
			"-0.013": 0.0195820920073,
			"-0.012": 0.995424886214,
			"-0.011": 2.24580839388,
			"-0.01": 3.02309307188,
			"-0.009": 2.05027157724,
			"-0.008": 2.73599569718,
			"-0.007": 3.79962497346,
			"-0.006": 3.81234222951,
			"-0.005": 8.89436467585,
			"-0.004": 12.5632899551,
			"-0.003": 18.8160313643,
			"-0.002": 26.3061588235,
			"-0.001": 24.4853018289,
			"0.0": 22.2070002914,
			"0.001": 21.7775103178,
			"0.002": 11.1085547539,
			"0.003": 7.33431481918,
			"0.004": 6.89969321103,
			"0.005": 8.5038144389,
			"0.006": 9.96938146741,
			"0.007": 9.17711400327,
			"0.008": 6.49307456934,
			"0.009": 1.5285291301,
			"0.01": 1.35435757561,
			"0.011": 1.27421534982,
			"0.012": 1.13048700541,
			"0.013": 1.01381324021,
			"0.014": 0.347436799521,
			"0.015": 0.0,
			"0.016": 0.0,
			"0.017": 0.0,
			"0.018": 0.0,
			"0.019": 0.0,
			"0.02": 0.0,
			"0.021": 0.0,
			"0.022": 0.0,
			"0.023": 0.0,
			"0.024": 0.0,
			"0.025": 0.0
		}
	}
}
