{
	 "smiles": "CC1=C(N=NN1C1=CC(=CC=C1)[N+]([O-])=O)C(O)=O", 
	 "Tm": 443.15, 
	 "num_atms": 26, 
	 "gaussian": { 
		 "optdone": 1, 
		 "sigma_profile": "yes", 
		 "theory": "DFT", 
		 "functional": "B3LYP", 
		 "basiset": "6-31G**", 
		 "properties": { 
			 "R2extent": 5740.8328, 
			 "electric_dipole_moment_norm": 4.84008003343, 
			 "electric_quadrupole_moment_norm": 45.7242122793, 
			 "total_energy": -905.64804305, 
			 "HOMO_LUMO_gap": 0.16325, 
			 "cosmo_polarized_energy": -27.38, 
			 "cosmo_cavitation_energy": 32.49, 
			 "cosmo_dispersion_energy": -23.12, 
			 "cosmo_repulsion_energy": 1.76, 
			 "cosmo_total_nonelectrostatic_energy": 11.13, 
			 "SMD_solvation_energy": 7.59 
		},
		"coords": [
			{
				"x": -0.1374037836,
				"y": 0.6625644098,
				"z": -1.5363208382,
				"element": "C" 
			},
			{
				"x": 0.1778148244,
				"y": 1.4606611489,
				"z": -0.3101507954,
				"element": "C" 
			},
			{
				"x": 0.3307898891,
				"y": 2.8278447988,
				"z": -0.1145635258,
				"element": "C" 
			},
			{
				"x": 0.732777122,
				"y": 3.0533425733,
				"z": 1.1752662536,
				"element": "N" 
			},
			{
				"x": 0.8238494084,
				"y": 1.9298571873,
				"z": 1.7980890511,
				"element": "N" 
			},
			{
				"x": 0.4928559859,
				"y": 0.9315561317,
				"z": 0.9103741602,
				"element": "N" 
			},
			{
				"x": 0.5730742102,
				"y": -0.419948809,
				"z": 1.344729595,
				"element": "C" 
			},
			{
				"x": -0.3810748328,
				"y": -1.354794797,
				"z": 0.9462317042,
				"element": "C" 
			},
			{
				"x": -0.2518153224,
				"y": -2.6619244835,
				"z": 1.4080571806,
				"element": "C" 
			},
			{
				"x": 0.7700645467,
				"y": -3.057953536,
				"z": 2.2652670351,
				"element": "C" 
			},
			{
				"x": 1.7006039897,
				"y": -2.0999900098,
				"z": 2.6685667549,
				"element": "C" 
			},
			{
				"x": 1.6139004479,
				"y": -0.7872539897,
				"z": 2.2093859664,
				"element": "C" 
			},
			{
				"x": -1.2532400532,
				"y": -3.6553246326,
				"z": 0.9763611057,
				"element": "N" 
			},
			{
				"x": -2.1349816946,
				"y": -3.2742894518,
				"z": 0.2074609558,
				"element": "O" 
			},
			{
				"x": -1.1403845794,
				"y": -4.7989916711,
				"z": 1.4097735167,
				"element": "O" 
			},
			{
				"x": 0.2128735319,
				"y": 3.953272222,
				"z": -1.0808527725,
				"element": "C" 
			},
			{
				"x": -0.6860873146,
				"y": 3.7634489185,
				"z": -2.0942758803,
				"element": "O" 
			},
			{
				"x": 0.8681040301,
				"y": 4.9598859629,
				"z": -1.0251108807,
				"element": "O" 
			},
			{
				"x": 0.0567405173,
				"y": 1.2647191575,
				"z": -2.4261679696,
				"element": "H" 
			},
			{
				"x": -1.1850062853,
				"y": 0.3403667905,
				"z": -1.568456506,
				"element": "H" 
			},
			{
				"x": 0.4809501976,
				"y": -0.2375556521,
				"z": -1.5925359251,
				"element": "H" 
			},
			{
				"x": -1.22024096,
				"y": -1.0986062489,
				"z": 0.3149615796,
				"element": "H" 
			},
			{
				"x": 0.8199767486,
				"y": -4.0867910733,
				"z": 2.5981928276,
				"element": "H" 
			},
			{
				"x": 2.506072862,
				"y": -2.380556703,
				"z": 3.3389190708,
				"element": "H" 
			},
			{
				"x": 2.3332807486,
				"y": -0.0370423533,
				"z": 2.5150619294,
				"element": "H" 
			},
			{
				"x": -1.2901942345,
				"y": 3.0411041099,
				"z": -1.8734635932,
				"element": "H" 
			}
		],
		 "valence_orbital": [ 
			{
				"type": "occ",
				"energy": -0.30846,
				"method": "rhf"
			},
			{
				"type": "occ",
				"energy": -0.29648,
				"method": "rhf"
			},
			{
				"type": "occ",
				"energy": -0.29014,
				"method": "rhf"
			},
			{
				"type": "occ",
				"energy": -0.28665,
				"method": "rhf"
			},
			{
				"type": "occ",
				"energy": -0.27541,
				"method": "rhf"
			},
			{
				"type": "unocc",
				"energy": -0.11216,
				"method": "rhf"
			},
			{
				"type": "unocc",
				"energy": -0.07113,
				"method": "rhf"
			},
			{
				"type": "unocc",
				"energy": -0.03664,
				"method": "rhf"
			},
			{
				"type": "unocc",
				"energy": -0.03135,
				"method": "rhf"
			},
			{
				"type": "unocc",
				"energy": -0.01057,
				"method": "rhf"
			}
		],
		"cosmo_sigma_profile": { 
			"-0.025": 0.0,
			"-0.024": 0.0,
			"-0.023": 0.0,
			"-0.022": 0.0,
			"-0.021": 0.0,
			"-0.02": 0.0,
			"-0.019": 0.214257036985,
			"-0.018": 1.39081125795,
			"-0.017": 0.538806664042,
			"-0.016": 0.848654655882,
			"-0.015": 1.3442361624,
			"-0.014": 1.10608369088,
			"-0.013": 0.708203414591,
			"-0.012": 0.94751385327,
			"-0.011": 2.02896266574,
			"-0.01": 2.01202742299,
			"-0.009": 4.02681424531,
			"-0.008": 11.4415607848,
			"-0.007": 15.6838299038,
			"-0.006": 16.1275213839,
			"-0.005": 16.100283579,
			"-0.004": 17.6856388816,
			"-0.003": 17.5487270042,
			"-0.002": 16.2637628325,
			"-0.001": 15.6537245765,
			"0.0": 14.0190787054,
			"0.001": 9.65622913176,
			"0.002": 5.88824400847,
			"0.003": 6.57206946414,
			"0.004": 5.50326831603,
			"0.005": 6.72122587365,
			"0.006": 9.0382508451,
			"0.007": 12.8377319225,
			"0.008": 11.733503992,
			"0.009": 11.1256911024,
			"0.01": 9.22999101404,
			"0.011": 8.88588098406,
			"0.012": 5.84810067325,
			"0.013": 1.76957066907,
			"0.014": 0.953569111998,
			"0.015": 0.094100048945,
			"0.016": 0.0,
			"0.017": 0.0,
			"0.018": 0.0,
			"0.019": 0.0,
			"0.02": 0.0,
			"0.021": 0.0,
			"0.022": 0.0,
			"0.023": 0.0,
			"0.024": 0.0,
			"0.025": 0.0
		}
	}
}
