{
	 "smiles": "OC(=O)CCCCCCCC1=CC=CC=C1", 
	 "Tm": 301.15, 
	 "num_atms": 36, 
	 "gaussian": { 
		 "optdone": 1, 
		 "sigma_profile": "yes", 
		 "theory": "DFT", 
		 "functional": "B3LYP", 
		 "basiset": "6-31G**", 
		 "properties": { 
			 "R2extent": 6295.3031, 
			 "electric_dipole_moment_norm": 3.84239510982, 
			 "electric_quadrupole_moment_norm": 22.4123399664, 
			 "total_energy": -696.016570491, 
			 "HOMO_LUMO_gap": 0.23825, 
			 "cosmo_polarized_energy": -16.07, 
			 "cosmo_cavitation_energy": 37.89, 
			 "cosmo_dispersion_energy": -25.85, 
			 "cosmo_repulsion_energy": 2.05, 
			 "cosmo_total_nonelectrostatic_energy": 14.09, 
			 "SMD_solvation_energy": 6.55 
		},
		"coords": [
			{
				"x": -2.3222743548,
				"y": -4.198271799,
				"z": -1.7207163852,
				"element": "O" 
			},
			{
				"x": -2.5750686511,
				"y": -2.8600206847,
				"z": -1.6892468332,
				"element": "C" 
			},
			{
				"x": -3.7142100661,
				"y": -2.4656584316,
				"z": -1.6997936329,
				"element": "O" 
			},
			{
				"x": -1.3387670571,
				"y": -1.9660451303,
				"z": -1.6704834966,
				"element": "C" 
			},
			{
				"x": -1.6629000203,
				"y": -0.4825568751,
				"z": -1.4529808819,
				"element": "C" 
			},
			{
				"x": -2.1209156249,
				"y": -0.1392752494,
				"z": -0.0222203822,
				"element": "C" 
			},
			{
				"x": -1.0349533227,
				"y": -0.2089681256,
				"z": 1.0770083264,
				"element": "C" 
			},
			{
				"x": -0.3411934544,
				"y": 1.1266145614,
				"z": 1.4108930405,
				"element": "C" 
			},
			{
				"x": 0.4984658423,
				"y": 1.7747122393,
				"z": 0.2976088808,
				"element": "C" 
			},
			{
				"x": 1.7655520143,
				"y": 0.9916794028,
				"z": -0.1180913751,
				"element": "C" 
			},
			{
				"x": 2.8079774786,
				"y": 0.8794512735,
				"z": 0.9763933956,
				"element": "C" 
			},
			{
				"x": 3.5998323004,
				"y": 1.9858279865,
				"z": 1.319931373,
				"element": "C" 
			},
			{
				"x": 4.55197303,
				"y": 1.9017938873,
				"z": 2.3353302907,
				"element": "C" 
			},
			{
				"x": 4.7330121068,
				"y": 0.7033870009,
				"z": 3.0301208279,
				"element": "C" 
			},
			{
				"x": 3.9556690771,
				"y": -0.4064163079,
				"z": 2.6983252315,
				"element": "C" 
			},
			{
				"x": 3.0036738733,
				"y": -0.3160646534,
				"z": 1.6801888276,
				"element": "C" 
			},
			{
				"x": -1.3676828798,
				"y": -4.3568994311,
				"z": -1.7070391629,
				"element": "H" 
			},
			{
				"x": -0.6462652424,
				"y": -2.339110331,
				"z": -0.9032847147,
				"element": "H" 
			},
			{
				"x": -0.8253568386,
				"y": -2.107012625,
				"z": -2.6322280641,
				"element": "H" 
			},
			{
				"x": -2.4577475196,
				"y": -0.20926602,
				"z": -2.1544696706,
				"element": "H" 
			},
			{
				"x": -0.7807927194,
				"y": 0.1069543837,
				"z": -1.724737914,
				"element": "H" 
			},
			{
				"x": -2.9480986073,
				"y": -0.8112331133,
				"z": 0.2296323824,
				"element": "H" 
			},
			{
				"x": -2.5545936427,
				"y": 0.8690806062,
				"z": -0.0290579536,
				"element": "H" 
			},
			{
				"x": -0.281683798,
				"y": -0.9666204472,
				"z": 0.8203394995,
				"element": "H" 
			},
			{
				"x": -1.4971155917,
				"y": -0.5704902176,
				"z": 2.0035394211,
				"element": "H" 
			},
			{
				"x": 0.2974323626,
				"y": 0.9782737111,
				"z": 2.2906517296,
				"element": "H" 
			},
			{
				"x": -1.1149396883,
				"y": 1.8436164128,
				"z": 1.7167341503,
				"element": "H" 
			},
			{
				"x": -0.1217929746,
				"y": 1.9390965426,
				"z": -0.5922977972,
				"element": "H" 
			},
			{
				"x": 0.8068753249,
				"y": 2.7725967247,
				"z": 0.6346808936,
				"element": "H" 
			},
			{
				"x": 1.4878980112,
				"y": -0.0126103696,
				"z": -0.4589460727,
				"element": "H" 
			},
			{
				"x": 2.2090802659,
				"y": 1.4964550914,
				"z": -0.9857323343,
				"element": "H" 
			},
			{
				"x": 3.4716900115,
				"y": 2.9214178314,
				"z": 0.7799549814,
				"element": "H" 
			},
			{
				"x": 5.1569479658,
				"y": 2.7701924063,
				"z": 2.5814406813,
				"element": "H" 
			},
			{
				"x": 5.4760040843,
				"y": 0.6355017613,
				"z": 3.8195547687,
				"element": "H" 
			},
			{
				"x": 4.0905940075,
				"y": -1.3448233764,
				"z": 3.2292404702,
				"element": "H" 
			},
			{
				"x": 2.4067742976,
				"y": -1.188408635,
				"z": 1.4243574992,
				"element": "H" 
			}
		],
		 "valence_orbital": [ 
			{
				"type": "occ",
				"energy": -0.30896,
				"method": "rhf"
			},
			{
				"type": "occ",
				"energy": -0.3077,
				"method": "rhf"
			},
			{
				"type": "occ",
				"energy": -0.27052,
				"method": "rhf"
			},
			{
				"type": "occ",
				"energy": -0.24911,
				"method": "rhf"
			},
			{
				"type": "occ",
				"energy": -0.24061,
				"method": "rhf"
			},
			{
				"type": "unocc",
				"energy": -0.00236,
				"method": "rhf"
			},
			{
				"type": "unocc",
				"energy": 0.00044,
				"method": "rhf"
			},
			{
				"type": "unocc",
				"energy": 0.00983,
				"method": "rhf"
			},
			{
				"type": "unocc",
				"energy": 0.05211,
				"method": "rhf"
			},
			{
				"type": "unocc",
				"energy": 0.0708,
				"method": "rhf"
			}
		],
		"cosmo_sigma_profile": { 
			"-0.025": 0.0,
			"-0.024": 0.0,
			"-0.023": 0.0,
			"-0.022": 0.0,
			"-0.021": 0.0,
			"-0.02": 0.0,
			"-0.019": 0.341204986392,
			"-0.018": 0.922469873063,
			"-0.017": 1.146938034,
			"-0.016": 1.20838369039,
			"-0.015": 1.16374294357,
			"-0.014": 0.756726780024,
			"-0.013": 0.99356146989,
			"-0.012": 1.01915886636,
			"-0.011": 1.47484182079,
			"-0.01": 1.20007524674,
			"-0.009": 0.837948591298,
			"-0.008": 1.46306930391,
			"-0.007": 3.35947383514,
			"-0.006": 5.20300813967,
			"-0.005": 12.1710998604,
			"-0.004": 18.7199035782,
			"-0.003": 27.5022310543,
			"-0.002": 35.7183063449,
			"-0.001": 35.8925340536,
			"0.0": 30.7999491029,
			"0.001": 27.7941036736,
			"0.002": 14.786078476,
			"0.003": 10.1148420471,
			"0.004": 10.5920163726,
			"0.005": 10.2365571653,
			"0.006": 9.81624437971,
			"0.007": 7.18562393922,
			"0.008": 2.8075931669,
			"0.009": 3.09362995461,
			"0.01": 4.10662325039,
			"0.011": 5.56481368959,
			"0.012": 5.09821361733,
			"0.013": 2.60693948416,
			"0.014": 0.231904715176,
			"0.015": 0.0,
			"0.016": 0.0,
			"0.017": 0.0,
			"0.018": 0.0,
			"0.019": 0.0,
			"0.02": 0.0,
			"0.021": 0.0,
			"0.022": 0.0,
			"0.023": 0.0,
			"0.024": 0.0,
			"0.025": 0.0
		}
	}
}
