{
	 "smiles": "NC(=O)C1CCCN(C1)C1=NC=C(N)C=C1", 
	 "Tm": 442.15, 
	 "num_atms": 32, 
	 "gaussian": { 
		 "optdone": 1, 
		 "sigma_profile": "yes", 
		 "theory": "DFT", 
		 "functional": "B3LYP", 
		 "basiset": "6-31G**", 
		 "properties": { 
			 "R2extent": 4518.7544, 
			 "electric_dipole_moment_norm": 4.2315133085, 
			 "electric_quadrupole_moment_norm": 21.7890831186, 
			 "total_energy": -723.05955856, 
			 "HOMO_LUMO_gap": 0.16842, 
			 "cosmo_polarized_energy": -18.79, 
			 "cosmo_cavitation_energy": 33.28, 
			 "cosmo_dispersion_energy": -24.29, 
			 "cosmo_repulsion_energy": 1.91, 
			 "cosmo_total_nonelectrostatic_energy": 10.89, 
			 "SMD_solvation_energy": 5.0 
		},
		"coords": [
			{
				"x": -2.3085486718,
				"y": -1.4261293829,
				"z": -0.0527439644,
				"element": "N" 
			},
			{
				"x": -2.1028768048,
				"y": -1.7325473147,
				"z": 1.2657831194,
				"element": "C" 
			},
			{
				"x": -2.9200558409,
				"y": -2.3464689016,
				"z": 1.9375330255,
				"element": "O" 
			},
			{
				"x": -0.7617304001,
				"y": -1.2533853841,
				"z": 1.8311337727,
				"element": "C" 
			},
			{
				"x": 0.3910096235,
				"y": -2.1957271974,
				"z": 1.3714154764,
				"element": "C" 
			},
			{
				"x": 1.7031413523,
				"y": -1.4161654975,
				"z": 1.2449813343,
				"element": "C" 
			},
			{
				"x": 1.5982968558,
				"y": -0.3130118581,
				"z": 0.1754488514,
				"element": "C" 
			},
			{
				"x": 0.241192844,
				"y": 0.2658428728,
				"z": 0.1528930643,
				"element": "N" 
			},
			{
				"x": -0.4319997011,
				"y": 0.2111687396,
				"z": 1.4544310577,
				"element": "C" 
			},
			{
				"x": 0.0474203224,
				"y": 1.3687810551,
				"z": -0.6994614808,
				"element": "C" 
			},
			{
				"x": 1.0877264616,
				"y": 1.7328522882,
				"z": -1.4588771424,
				"element": "N" 
			},
			{
				"x": 0.9420640881,
				"y": 2.7363149427,
				"z": -2.3306060049,
				"element": "C" 
			},
			{
				"x": -0.2370952431,
				"y": 3.4683637801,
				"z": -2.5004462544,
				"element": "C" 
			},
			{
				"x": -0.3100416949,
				"y": 4.5676631515,
				"z": -3.3674219416,
				"element": "N" 
			},
			{
				"x": -1.3293640208,
				"y": 3.0736580164,
				"z": -1.7084632785,
				"element": "C" 
			},
			{
				"x": -1.2001108842,
				"y": 2.0219097927,
				"z": -0.8162938707,
				"element": "C" 
			},
			{
				"x": -1.5708034349,
				"y": -1.0086700535,
				"z": -0.6037582046,
				"element": "H" 
			},
			{
				"x": -3.1278637252,
				"y": -1.8030400578,
				"z": -0.5045874907,
				"element": "H" 
			},
			{
				"x": -0.8720582988,
				"y": -1.3124075212,
				"z": 2.9175752359,
				"element": "H" 
			},
			{
				"x": 0.1432956294,
				"y": -2.6344643162,
				"z": 0.3976901392,
				"element": "H" 
			},
			{
				"x": 0.490428076,
				"y": -3.0292411406,
				"z": 2.0729306962,
				"element": "H" 
			},
			{
				"x": 2.5284434484,
				"y": -2.0853320306,
				"z": 0.9796647678,
				"element": "H" 
			},
			{
				"x": 1.9641835275,
				"y": -0.9803879085,
				"z": 2.2172707602,
				"element": "H" 
			},
			{
				"x": 2.3519930665,
				"y": 0.4678113989,
				"z": 0.3479848395,
				"element": "H" 
			},
			{
				"x": 1.8056147726,
				"y": -0.7212056329,
				"z": -0.818712184,
				"element": "H" 
			},
			{
				"x": -1.3433298358,
				"y": 0.8073016779,
				"z": 1.4287456342,
				"element": "H" 
			},
			{
				"x": 0.2050506108,
				"y": 0.6567664141,
				"z": 2.2352111022,
				"element": "H" 
			},
			{
				"x": 1.8218818028,
				"y": 2.9812034041,
				"z": -2.9271279449,
				"element": "H" 
			},
			{
				"x": 0.3901855579,
				"y": 4.5638643229,
				"z": -4.0980157082,
				"element": "H" 
			},
			{
				"x": -1.2301683785,
				"y": 4.7332938577,
				"z": -3.7544926445,
				"element": "H" 
			},
			{
				"x": -2.2821650225,
				"y": 3.5898184531,
				"z": -1.8008089064,
				"element": "H" 
			},
			{
				"x": -2.062016082,
				"y": 1.6993700295,
				"z": -0.2438758559,
				"element": "H" 
			}
		],
		 "valence_orbital": [ 
			{
				"type": "occ",
				"energy": -0.25714,
				"method": "rhf"
			},
			{
				"type": "occ",
				"energy": -0.2559,
				"method": "rhf"
			},
			{
				"type": "occ",
				"energy": -0.25057,
				"method": "rhf"
			},
			{
				"type": "occ",
				"energy": -0.23382,
				"method": "rhf"
			},
			{
				"type": "occ",
				"energy": -0.18539,
				"method": "rhf"
			},
			{
				"type": "unocc",
				"energy": -0.01697,
				"method": "rhf"
			},
			{
				"type": "unocc",
				"energy": 0.01657,
				"method": "rhf"
			},
			{
				"type": "unocc",
				"energy": 0.03694,
				"method": "rhf"
			},
			{
				"type": "unocc",
				"energy": 0.07508,
				"method": "rhf"
			},
			{
				"type": "unocc",
				"energy": 0.08038,
				"method": "rhf"
			}
		],
		"cosmo_sigma_profile": { 
			"-0.025": 0.0,
			"-0.024": 0.0,
			"-0.023": 0.0,
			"-0.022": 0.0,
			"-0.021": 0.0,
			"-0.02": 0.0,
			"-0.019": 0.0,
			"-0.018": 0.0,
			"-0.017": 0.0,
			"-0.016": 0.0,
			"-0.015": 0.0,
			"-0.014": 0.179862519895,
			"-0.013": 1.24104216576,
			"-0.012": 3.36392945806,
			"-0.011": 4.1088776291,
			"-0.01": 4.07929647228,
			"-0.009": 4.7437672937,
			"-0.008": 4.82614279982,
			"-0.007": 7.12113378279,
			"-0.006": 9.06155831363,
			"-0.005": 8.47216117814,
			"-0.004": 19.7579347371,
			"-0.003": 28.0966131394,
			"-0.002": 28.6099326031,
			"-0.001": 23.7960771524,
			"0.0": 17.6640617802,
			"0.001": 9.41490193332,
			"0.002": 9.64428436262,
			"0.003": 9.81971960246,
			"0.004": 14.023162089,
			"0.005": 10.3921646644,
			"0.006": 5.05952098357,
			"0.007": 3.27919151235,
			"0.008": 3.89832293639,
			"0.009": 4.26319445201,
			"0.01": 3.29511845174,
			"0.011": 3.09943505243,
			"0.012": 3.42916699343,
			"0.013": 4.2064663556,
			"0.014": 7.47515074331,
			"0.015": 3.52995160321,
			"0.016": 0.434016667864,
			"0.017": 0.0,
			"0.018": 0.0,
			"0.019": 0.0,
			"0.02": 0.0,
			"0.021": 0.0,
			"0.022": 0.0,
			"0.023": 0.0,
			"0.024": 0.0,
			"0.025": 0.0
		}
	}
}
