{
	 "smiles": "CCN1N=CC(C(O)=O)=C1C(F)(F)F", 
	 "Tm": 410.15, 
	 "num_atms": 21, 
	 "gaussian": { 
		 "optdone": 1, 
		 "sigma_profile": "yes", 
		 "theory": "DFT", 
		 "functional": "B3LYP", 
		 "basiset": "6-31G**", 
		 "properties": { 
			 "R2extent": 3410.7998, 
			 "electric_dipole_moment_norm": 5.49884566614, 
			 "electric_quadrupole_moment_norm": 10.4581887041, 
			 "total_energy": -830.427790402, 
			 "HOMO_LUMO_gap": 0.22312, 
			 "cosmo_polarized_energy": -13.16, 
			 "cosmo_cavitation_energy": 26.24, 
			 "cosmo_dispersion_energy": -18.88, 
			 "cosmo_repulsion_energy": 1.42, 
			 "cosmo_total_nonelectrostatic_energy": 8.78, 
			 "SMD_solvation_energy": 5.9 
		},
		"coords": [
			{
				"x": 2.0060538493,
				"y": 1.984495651,
				"z": -1.3824522645,
				"element": "C" 
			},
			{
				"x": 2.5583909968,
				"y": 1.4062814799,
				"z": -0.0799551912,
				"element": "C" 
			},
			{
				"x": 1.5252082838,
				"y": 0.7212353222,
				"z": 0.7086909835,
				"element": "N" 
			},
			{
				"x": 0.6964516919,
				"y": 1.477292563,
				"z": 1.4546789858,
				"element": "N" 
			},
			{
				"x": -0.1554783393,
				"y": 0.6247661615,
				"z": 2.0044203476,
				"element": "C" 
			},
			{
				"x": 0.0990059411,
				"y": -0.7150741827,
				"z": 1.6253268307,
				"element": "C" 
			},
			{
				"x": -0.7638613704,
				"y": -1.8033032875,
				"z": 2.1770575238,
				"element": "C" 
			},
			{
				"x": -0.49266699,
				"y": -3.0893031109,
				"z": 1.8818734887,
				"element": "O" 
			},
			{
				"x": -1.6989249702,
				"y": -1.5295909223,
				"z": 2.8961041231,
				"element": "O" 
			},
			{
				"x": 1.2047871828,
				"y": -0.6049334488,
				"z": 0.7695900299,
				"element": "C" 
			},
			{
				"x": 2.0302262893,
				"y": -1.58409677,
				"z": -0.0038055813,
				"element": "C" 
			},
			{
				"x": 2.071960261,
				"y": -1.2821372223,
				"z": -1.3185352125,
				"element": "F" 
			},
			{
				"x": 1.5497886873,
				"y": -2.8542208234,
				"z": 0.0827699492,
				"element": "F" 
			},
			{
				"x": 3.3070988973,
				"y": -1.6234977083,
				"z": 0.4312211425,
				"element": "F" 
			},
			{
				"x": 2.7974465611,
				"y": 2.5270151234,
				"z": -1.9083869855,
				"element": "H" 
			},
			{
				"x": 1.1888719655,
				"y": 2.6792061637,
				"z": -1.1733879284,
				"element": "H" 
			},
			{
				"x": 1.6379121728,
				"y": 1.1907780952,
				"z": -2.0369844161,
				"element": "H" 
			},
			{
				"x": 3.3692570622,
				"y": 0.7010713275,
				"z": -0.263981761,
				"element": "H" 
			},
			{
				"x": 2.9410687434,
				"y": 2.1990633039,
				"z": 0.5661402919,
				"element": "H" 
			},
			{
				"x": -0.9376913719,
				"y": 0.9588933256,
				"z": 2.6698747049,
				"element": "H" 
			},
			{
				"x": 0.2693944565,
				"y": -3.1643410408,
				"z": 1.291540939,
				"element": "H" 
			}
		],
		 "valence_orbital": [ 
			{
				"type": "occ",
				"energy": -0.317,
				"method": "rhf"
			},
			{
				"type": "occ",
				"energy": -0.31574,
				"method": "rhf"
			},
			{
				"type": "occ",
				"energy": -0.2884,
				"method": "rhf"
			},
			{
				"type": "occ",
				"energy": -0.27718,
				"method": "rhf"
			},
			{
				"type": "occ",
				"energy": -0.27582,
				"method": "rhf"
			},
			{
				"type": "unocc",
				"energy": -0.0527,
				"method": "rhf"
			},
			{
				"type": "unocc",
				"energy": -0.00388,
				"method": "rhf"
			},
			{
				"type": "unocc",
				"energy": 0.06582,
				"method": "rhf"
			},
			{
				"type": "unocc",
				"energy": 0.08693,
				"method": "rhf"
			},
			{
				"type": "unocc",
				"energy": 0.09346,
				"method": "rhf"
			}
		],
		"cosmo_sigma_profile": { 
			"-0.025": 0.0,
			"-0.024": 0.0,
			"-0.023": 0.0,
			"-0.022": 0.0,
			"-0.021": 0.0,
			"-0.02": 0.0,
			"-0.019": 0.0,
			"-0.018": 0.0,
			"-0.017": 0.00702274922215,
			"-0.016": 0.109086999557,
			"-0.015": 0.190830255506,
			"-0.014": 0.3077496948,
			"-0.013": 0.442190333602,
			"-0.012": 0.889290983116,
			"-0.011": 1.52062803539,
			"-0.01": 2.23935101421,
			"-0.009": 2.13466697515,
			"-0.008": 3.01488573422,
			"-0.007": 5.24793878349,
			"-0.006": 7.10901127494,
			"-0.005": 12.060693943,
			"-0.004": 17.8575970712,
			"-0.003": 15.8031657968,
			"-0.002": 19.0791519241,
			"-0.001": 21.2498739198,
			"0.0": 21.5053097661,
			"0.001": 20.8064775791,
			"0.002": 13.0026097773,
			"0.003": 3.64347205966,
			"0.004": 3.99664126488,
			"0.005": 3.33514819564,
			"0.006": 2.80628491763,
			"0.007": 4.29536907984,
			"0.008": 3.72044661768,
			"0.009": 4.47985663618,
			"0.01": 5.28298857902,
			"0.011": 6.26604668507,
			"0.012": 4.99058153535,
			"0.013": 2.44943051158,
			"0.014": 0.243807327759,
			"0.015": 0.0,
			"0.016": 0.0,
			"0.017": 0.0,
			"0.018": 0.0,
			"0.019": 0.0,
			"0.02": 0.0,
			"0.021": 0.0,
			"0.022": 0.0,
			"0.023": 0.0,
			"0.024": 0.0,
			"0.025": 0.0
		}
	}
}
