{
	 "smiles": "[O-][N+](=O)C1=C(NC2CC2)C=CC(Cl)=C1", 
	 "Tm": 344.15, 
	 "num_atms": 23, 
	 "gaussian": { 
		 "optdone": 1, 
		 "sigma_profile": "yes", 
		 "theory": "DFT", 
		 "functional": "B3LYP", 
		 "basiset": "6-31G**", 
		 "properties": { 
			 "R2extent": 3579.7536, 
			 "electric_dipole_moment_norm": 5.05546852033, 
			 "electric_quadrupole_moment_norm": 9.72029971966, 
			 "total_energy": -1068.38236868, 
			 "HOMO_LUMO_gap": 0.14103, 
			 "cosmo_polarized_energy": -12.21, 
			 "cosmo_cavitation_energy": 28.97, 
			 "cosmo_dispersion_energy": -20.82, 
			 "cosmo_repulsion_energy": 1.64, 
			 "cosmo_total_nonelectrostatic_energy": 9.78, 
			 "SMD_solvation_energy": 5.82 
		},
		"coords": [
			{
				"x": 0.1948360476,
				"y": -1.7913889934,
				"z": 1.470169117,
				"element": "O" 
			},
			{
				"x": -0.4011343437,
				"y": -1.2573793859,
				"z": 0.5314730842,
				"element": "N" 
			},
			{
				"x": -1.2972953539,
				"y": -1.7967225073,
				"z": -0.1208703937,
				"element": "O" 
			},
			{
				"x": 0.043273211,
				"y": 0.0707456674,
				"z": 0.1115555912,
				"element": "C" 
			},
			{
				"x": 0.5623117544,
				"y": 1.0289251283,
				"z": 1.017096709,
				"element": "C" 
			},
			{
				"x": 0.4960928572,
				"y": 0.9681428069,
				"z": 2.3876174001,
				"element": "N" 
			},
			{
				"x": -0.4538171062,
				"y": 0.2469817464,
				"z": 3.1874003502,
				"element": "C" 
			},
			{
				"x": -1.9305959711,
				"y": 0.4314676137,
				"z": 2.930521153,
				"element": "C" 
			},
			{
				"x": -1.2926080909,
				"y": 1.0386636368,
				"z": 4.1569620751,
				"element": "C" 
			},
			{
				"x": 1.1594330123,
				"y": 2.1722238075,
				"z": 0.4282854905,
				"element": "C" 
			},
			{
				"x": 1.1932707916,
				"y": 2.3740027498,
				"z": -0.9389952103,
				"element": "C" 
			},
			{
				"x": 0.60012277,
				"y": 1.4363209721,
				"z": -1.7950857726,
				"element": "C" 
			},
			{
				"x": 0.6089363219,
				"y": 1.7065464137,
				"z": -3.5288940623,
				"element": "Cl" 
			},
			{
				"x": 0.0258065663,
				"y": 0.2928506329,
				"z": -1.2727164854,
				"element": "C" 
			},
			{
				"x": 0.9875926101,
				"y": 1.7112047826,
				"z": 2.8624895263,
				"element": "H" 
			},
			{
				"x": -0.1383859459,
				"y": -0.7454682682,
				"z": 3.4959360801,
				"element": "H" 
			},
			{
				"x": -2.5729652285,
				"y": -0.4353646584,
				"z": 3.0459255552,
				"element": "H" 
			},
			{
				"x": -2.2221363898,
				"y": 1.1079508538,
				"z": 2.133332285,
				"element": "H" 
			},
			{
				"x": -1.1703021761,
				"y": 2.1182469024,
				"z": 4.1713429743,
				"element": "H" 
			},
			{
				"x": -1.4944274518,
				"y": 0.596617816,
				"z": 5.1274991202,
				"element": "H" 
			},
			{
				"x": 1.5801247573,
				"y": 2.928259032,
				"z": 1.0862531916,
				"element": "H" 
			},
			{
				"x": 1.6562801195,
				"y": 3.2655469339,
				"z": -1.3475227578,
				"element": "H" 
			},
			{
				"x": -0.4150127615,
				"y": -0.4627736829,
				"z": -1.9099750209,
				"element": "H" 
			}
		],
		 "valence_orbital": [ 
			{
				"type": "occ",
				"energy": -0.29924,
				"method": "rhf"
			},
			{
				"type": "occ",
				"energy": -0.29501,
				"method": "rhf"
			},
			{
				"type": "occ",
				"energy": -0.29066,
				"method": "rhf"
			},
			{
				"type": "occ",
				"energy": -0.2728,
				"method": "rhf"
			},
			{
				"type": "occ",
				"energy": -0.2199,
				"method": "rhf"
			},
			{
				"type": "unocc",
				"energy": -0.07887,
				"method": "rhf"
			},
			{
				"type": "unocc",
				"energy": -0.02152,
				"method": "rhf"
			},
			{
				"type": "unocc",
				"energy": -0.00721,
				"method": "rhf"
			},
			{
				"type": "unocc",
				"energy": 0.02359,
				"method": "rhf"
			},
			{
				"type": "unocc",
				"energy": 0.06587,
				"method": "rhf"
			}
		],
		"cosmo_sigma_profile": { 
			"-0.025": 0.0,
			"-0.024": 0.0,
			"-0.023": 0.0,
			"-0.022": 0.0,
			"-0.021": 0.0,
			"-0.02": 0.0,
			"-0.019": 0.0,
			"-0.018": 0.0,
			"-0.017": 0.0,
			"-0.016": 0.0,
			"-0.015": 0.190439803954,
			"-0.014": 1.42013766005,
			"-0.013": 1.26270430328,
			"-0.012": 1.41611729875,
			"-0.011": 1.55177507613,
			"-0.01": 1.22169308799,
			"-0.009": 1.78550617001,
			"-0.008": 3.78826705027,
			"-0.007": 6.17175476656,
			"-0.006": 7.92370384677,
			"-0.005": 14.1975601345,
			"-0.004": 14.840734277,
			"-0.003": 15.747274319,
			"-0.002": 15.2714972887,
			"-0.001": 17.7202035533,
			"0.0": 18.7128064949,
			"0.001": 22.8176670225,
			"0.002": 21.5700337128,
			"0.003": 13.3291297224,
			"0.004": 13.635430873,
			"0.005": 9.65766292324,
			"0.006": 3.460685842,
			"0.007": 5.29761990559,
			"0.008": 8.94173427069,
			"0.009": 6.13035195801,
			"0.01": 3.92526792347,
			"0.011": 1.12664789924,
			"0.012": 0.0,
			"0.013": 0.0,
			"0.014": 0.0,
			"0.015": 0.0,
			"0.016": 0.0,
			"0.017": 0.0,
			"0.018": 0.0,
			"0.019": 0.0,
			"0.02": 0.0,
			"0.021": 0.0,
			"0.022": 0.0,
			"0.023": 0.0,
			"0.024": 0.0,
			"0.025": 0.0
		}
	}
}
