{
	 "smiles": "CCCCCCCCCCCCCCCCCCCCCC", 
	 "Tm": 316.65, 
	 "num_atms": 68, 
	 "gaussian": { 
		 "optdone": 1, 
		 "sigma_profile": "yes", 
		 "theory": "DFT", 
		 "functional": "B3LYP", 
		 "basiset": "6-31G**", 
		 "properties": { 
			 "R2extent": 15622.2478, 
			 "electric_dipole_moment_norm": 0.0868148028852, 
			 "electric_quadrupole_moment_norm": 0.884645256586, 
			 "total_energy": -866.128874806, 
			 "HOMO_LUMO_gap": 0.36125, 
			 "cosmo_polarized_energy": -1.39, 
			 "cosmo_cavitation_energy": 63.54, 
			 "cosmo_dispersion_energy": -40.63, 
			 "cosmo_repulsion_energy": 3.3, 
			 "cosmo_total_nonelectrostatic_energy": 26.21, 
			 "SMD_solvation_energy": 7.96 
		},
		"coords": [
			{
				"x": -2.0781093373,
				"y": 2.2274821416,
				"z": -5.7044744596,
				"element": "C" 
			},
			{
				"x": -2.8212483835,
				"y": 0.9368806278,
				"z": -5.3385932715,
				"element": "C" 
			},
			{
				"x": -2.8013852429,
				"y": 0.5920497992,
				"z": -3.840095121,
				"element": "C" 
			},
			{
				"x": -3.560460898,
				"y": 1.5796755228,
				"z": -2.9423351313,
				"element": "C" 
			},
			{
				"x": -3.5631395217,
				"y": 1.163195195,
				"z": -1.4642666563,
				"element": "C" 
			},
			{
				"x": -4.3951149535,
				"y": 2.0707111964,
				"z": -0.5410144801,
				"element": "C" 
			},
			{
				"x": -3.9234222592,
				"y": 3.5321175583,
				"z": -0.4272770045,
				"element": "C" 
			},
			{
				"x": -2.5150712516,
				"y": 3.7760312822,
				"z": 0.150234349,
				"element": "C" 
			},
			{
				"x": -2.3252115522,
				"y": 3.3949642345,
				"z": 1.636974484,
				"element": "C" 
			},
			{
				"x": -1.8232122024,
				"y": 1.967045733,
				"z": 1.9263964759,
				"element": "C" 
			},
			{
				"x": -0.3601521793,
				"y": 1.7197363794,
				"z": 1.5305474712,
				"element": "C" 
			},
			{
				"x": 0.1146027889,
				"y": 0.2957311224,
				"z": 1.8550732601,
				"element": "C" 
			},
			{
				"x": 1.6005218731,
				"y": 0.0223887918,
				"z": 1.5651067196,
				"element": "C" 
			},
			{
				"x": 1.9824459429,
				"y": 0.0794552808,
				"z": 0.0765100672,
				"element": "C" 
			},
			{
				"x": 3.4613342825,
				"y": -0.2422569744,
				"z": -0.2374407687,
				"element": "C" 
			},
			{
				"x": 3.7840257494,
				"y": -1.7176933389,
				"z": -0.5478656562,
				"element": "C" 
			},
			{
				"x": 3.6236279969,
				"y": -2.7396610829,
				"z": 0.5921460647,
				"element": "C" 
			},
			{
				"x": 4.5759985771,
				"y": -2.5147303434,
				"z": 1.7758799697,
				"element": "C" 
			},
			{
				"x": 4.6253586299,
				"y": -3.6382115199,
				"z": 2.828506342,
				"element": "C" 
			},
			{
				"x": 3.3329212689,
				"y": -3.8748162928,
				"z": 3.6406070641,
				"element": "C" 
			},
			{
				"x": 2.3499274305,
				"y": -4.8928090691,
				"z": 3.0413113785,
				"element": "C" 
			},
			{
				"x": 1.1061525615,
				"y": -5.1015656356,
				"z": 3.9115133229,
				"element": "C" 
			},
			{
				"x": -2.5332212929,
				"y": 3.1080132883,
				"z": -5.2395396443,
				"element": "H" 
			},
			{
				"x": -2.0817795635,
				"y": 2.390981444,
				"z": -6.7872833536,
				"element": "H" 
			},
			{
				"x": -1.0318937501,
				"y": 2.185312861,
				"z": -5.3790599151,
				"element": "H" 
			},
			{
				"x": -3.8638035123,
				"y": 1.0067011466,
				"z": -5.6786589807,
				"element": "H" 
			},
			{
				"x": -2.377379074,
				"y": 0.1019708326,
				"z": -5.8960023946,
				"element": "H" 
			},
			{
				"x": -1.7576916702,
				"y": 0.5220204308,
				"z": -3.5002411311,
				"element": "H" 
			},
			{
				"x": -3.23091453,
				"y": -0.4098433363,
				"z": -3.7027359916,
				"element": "H" 
			},
			{
				"x": -4.5987134317,
				"y": 1.6643206377,
				"z": -3.2962606717,
				"element": "H" 
			},
			{
				"x": -3.1226946678,
				"y": 2.580150905,
				"z": -3.0429791801,
				"element": "H" 
			},
			{
				"x": -2.5267551274,
				"y": 1.1097227533,
				"z": -1.1043360993,
				"element": "H" 
			},
			{
				"x": -3.9564063721,
				"y": 0.1400756377,
				"z": -1.3877662999,
				"element": "H" 
			},
			{
				"x": -4.4331603627,
				"y": 1.6213489877,
				"z": 0.4591105448,
				"element": "H" 
			},
			{
				"x": -5.4332876119,
				"y": 2.0756322964,
				"z": -0.9014996054,
				"element": "H" 
			},
			{
				"x": -4.6473996324,
				"y": 4.076928145,
				"z": 0.1944214844,
				"element": "H" 
			},
			{
				"x": -3.974894052,
				"y": 4.0020463646,
				"z": -1.4179723265,
				"element": "H" 
			},
			{
				"x": -1.7620335386,
				"y": 3.2707954188,
				"z": -0.4677404493,
				"element": "H" 
			},
			{
				"x": -2.3063515339,
				"y": 4.8475305815,
				"z": 0.0395078589,
				"element": "H" 
			},
			{
				"x": -3.2754684904,
				"y": 3.5549643948,
				"z": 2.1645477739,
				"element": "H" 
			},
			{
				"x": -1.6135050417,
				"y": 4.0957374187,
				"z": 2.0940690804,
				"element": "H" 
			},
			{
				"x": -1.9292937093,
				"y": 1.7729973757,
				"z": 3.002737369,
				"element": "H" 
			},
			{
				"x": -2.462077379,
				"y": 1.2291742426,
				"z": 1.4254298116,
				"element": "H" 
			},
			{
				"x": 0.2812352551,
				"y": 2.443133431,
				"z": 2.055387296,
				"element": "H" 
			},
			{
				"x": -0.2283301603,
				"y": 1.9195465764,
				"z": 0.4599930066,
				"element": "H" 
			},
			{
				"x": -0.0770080047,
				"y": 0.097114136,
				"z": 2.9185782014,
				"element": "H" 
			},
			{
				"x": -0.5008860309,
				"y": -0.4264734594,
				"z": 1.299137141,
				"element": "H" 
			},
			{
				"x": 2.2153136867,
				"y": 0.7479624215,
				"z": 2.1174086546,
				"element": "H" 
			},
			{
				"x": 1.8573607594,
				"y": -0.9612506995,
				"z": 1.9746352018,
				"element": "H" 
			},
			{
				"x": 1.7597328392,
				"y": 1.085263251,
				"z": -0.2993915705,
				"element": "H" 
			},
			{
				"x": 1.3325388694,
				"y": -0.6012108347,
				"z": -0.4930193542,
				"element": "H" 
			},
			{
				"x": 4.0964155987,
				"y": 0.1207452267,
				"z": 0.5817104049,
				"element": "H" 
			},
			{
				"x": 3.7623292629,
				"y": 0.3385889046,
				"z": -1.1184133194,
				"element": "H" 
			},
			{
				"x": 3.1544020524,
				"y": -2.0341951642,
				"z": -1.3909341248,
				"element": "H" 
			},
			{
				"x": 4.8199533254,
				"y": -1.7707803316,
				"z": -0.91159595,
				"element": "H" 
			},
			{
				"x": 3.8077565327,
				"y": -3.7407701802,
				"z": 0.177939897,
				"element": "H" 
			},
			{
				"x": 2.5831903501,
				"y": -2.747257546,
				"z": 0.9372934424,
				"element": "H" 
			},
			{
				"x": 4.3235909812,
				"y": -1.5731873894,
				"z": 2.2816436732,
				"element": "H" 
			},
			{
				"x": 5.5917139097,
				"y": -2.3770154715,
				"z": 1.3781733832,
				"element": "H" 
			},
			{
				"x": 5.4341280899,
				"y": -3.3914555557,
				"z": 3.5279086229,
				"element": "H" 
			},
			{
				"x": 4.9276337253,
				"y": -4.5786675404,
				"z": 2.3455755648,
				"element": "H" 
			},
			{
				"x": 2.8182890725,
				"y": -2.9153669298,
				"z": 3.7966875119,
				"element": "H" 
			},
			{
				"x": 3.606401419,
				"y": -4.2280537373,
				"z": 4.6441736993,
				"element": "H" 
			},
			{
				"x": 2.8700379159,
				"y": -5.8518528715,
				"z": 2.9115934344,
				"element": "H" 
			},
			{
				"x": 2.0420276328,
				"y": -4.5796333644,
				"z": 2.0371995873,
				"element": "H" 
			},
			{
				"x": 0.4299407832,
				"y": -5.8436838665,
				"z": 3.4742921632,
				"element": "H" 
			},
			{
				"x": 0.5432718705,
				"y": -4.1683196103,
				"z": 4.029245947,
				"element": "H" 
			},
			{
				"x": 1.3779952877,
				"y": -5.4496818292,
				"z": 4.9148851867,
				"element": "H" 
			}
		],
		 "valence_orbital": [ 
			{
				"type": "occ",
				"energy": -0.30069,
				"method": "rhf"
			},
			{
				"type": "occ",
				"energy": -0.29944,
				"method": "rhf"
			},
			{
				"type": "occ",
				"energy": -0.29601,
				"method": "rhf"
			},
			{
				"type": "occ",
				"energy": -0.29202,
				"method": "rhf"
			},
			{
				"type": "occ",
				"energy": -0.29061,
				"method": "rhf"
			},
			{
				"type": "unocc",
				"energy": 0.07064,
				"method": "rhf"
			},
			{
				"type": "unocc",
				"energy": 0.07657,
				"method": "rhf"
			},
			{
				"type": "unocc",
				"energy": 0.09153,
				"method": "rhf"
			},
			{
				"type": "unocc",
				"energy": 0.09315,
				"method": "rhf"
			},
			{
				"type": "unocc",
				"energy": 0.09731,
				"method": "rhf"
			}
		],
		"cosmo_sigma_profile": { 
			"-0.025": 0.0,
			"-0.024": 0.0,
			"-0.023": 0.0,
			"-0.022": 0.0,
			"-0.021": 0.0,
			"-0.02": 0.0,
			"-0.019": 0.0,
			"-0.018": 0.0,
			"-0.017": 0.0,
			"-0.016": 0.0,
			"-0.015": 0.0,
			"-0.014": 0.0,
			"-0.013": 0.0,
			"-0.012": 0.0,
			"-0.011": 0.0,
			"-0.01": 0.0,
			"-0.009": 0.0,
			"-0.008": 0.0,
			"-0.007": 0.0,
			"-0.006": 0.0,
			"-0.005": 0.0,
			"-0.004": 0.0,
			"-0.003": 2.71888058888,
			"-0.002": 48.6010659026,
			"-0.001": 124.61250716,
			"0.0": 136.389947632,
			"0.001": 115.710769179,
			"0.002": 54.5099759305,
			"0.003": 1.52835330471,
			"0.004": 0.0,
			"0.005": 0.0,
			"0.006": 0.0,
			"0.007": 0.0,
			"0.008": 0.0,
			"0.009": 0.0,
			"0.01": 0.0,
			"0.011": 0.0,
			"0.012": 0.0,
			"0.013": 0.0,
			"0.014": 0.0,
			"0.015": 0.0,
			"0.016": 0.0,
			"0.017": 0.0,
			"0.018": 0.0,
			"0.019": 0.0,
			"0.02": 0.0,
			"0.021": 0.0,
			"0.022": 0.0,
			"0.023": 0.0,
			"0.024": 0.0,
			"0.025": 0.0
		}
	}
}
