{
	 "smiles": "CN1C(Cl)=NC(Cl)=C1C=O", 
	 "Tm": 335.15, 
	 "num_atms": 14, 
	 "gaussian": { 
		 "optdone": 1, 
		 "sigma_profile": "yes", 
		 "theory": "DFT", 
		 "functional": "B3LYP", 
		 "basiset": "6-31G**", 
		 "properties": { 
			 "R2extent": 2150.2694, 
			 "electric_dipole_moment_norm": 2.09918994376, 
			 "electric_quadrupole_moment_norm": 12.3499845822, 
			 "total_energy": -1298.03309651, 
			 "HOMO_LUMO_gap": 0.18037, 
			 "cosmo_polarized_energy": -8.55, 
			 "cosmo_cavitation_energy": 22.46, 
			 "cosmo_dispersion_energy": -16.8, 
			 "cosmo_repulsion_energy": 1.36, 
			 "cosmo_total_nonelectrostatic_energy": 7.02, 
			 "SMD_solvation_energy": 2.8 
		},
		"coords": [
			{
				"x": -2.1877183706,
				"y": 1.4123197769,
				"z": 0.8190788453,
				"element": "C" 
			},
			{
				"x": -0.8899237627,
				"y": 0.984489483,
				"z": 0.2953651573,
				"element": "N" 
			},
			{
				"x": 0.3127612898,
				"y": 1.595557611,
				"z": 0.4287907266,
				"element": "C" 
			},
			{
				"x": 0.5157620016,
				"y": 3.0703886494,
				"z": 1.2937418948,
				"element": "Cl" 
			},
			{
				"x": 1.3102517275,
				"y": 0.9607251294,
				"z": -0.161680831,
				"element": "N" 
			},
			{
				"x": 0.7232943325,
				"y": -0.1234794231,
				"z": -0.7095163865,
				"element": "C" 
			},
			{
				"x": 1.6400069502,
				"y": -1.2815876718,
				"z": -1.6051901613,
				"element": "Cl" 
			},
			{
				"x": -0.6441140359,
				"y": -0.16643006,
				"z": -0.4608915292,
				"element": "C" 
			},
			{
				"x": -1.6498248626,
				"y": -1.1348078912,
				"z": -0.8533658304,
				"element": "C" 
			},
			{
				"x": -2.8376321402,
				"y": -1.0625001066,
				"z": -0.5699102134,
				"element": "O" 
			},
			{
				"x": -2.5897684455,
				"y": 0.6459336595,
				"z": 1.4822780672,
				"element": "H" 
			},
			{
				"x": -2.0461878666,
				"y": 2.3448485818,
				"z": 1.3628369093,
				"element": "H" 
			},
			{
				"x": -2.8887187291,
				"y": 1.557565871,
				"z": -0.0033035897,
				"element": "H" 
			},
			{
				"x": -1.2447880883,
				"y": -1.9746236094,
				"z": -1.4505330589,
				"element": "H" 
			}
		],
		 "valence_orbital": [ 
			{
				"type": "occ",
				"energy": -0.33639,
				"method": "rhf"
			},
			{
				"type": "occ",
				"energy": -0.32039,
				"method": "rhf"
			},
			{
				"type": "occ",
				"energy": -0.30216,
				"method": "rhf"
			},
			{
				"type": "occ",
				"energy": -0.269,
				"method": "rhf"
			},
			{
				"type": "occ",
				"energy": -0.25206,
				"method": "rhf"
			},
			{
				"type": "unocc",
				"energy": -0.07169,
				"method": "rhf"
			},
			{
				"type": "unocc",
				"energy": 0.00296,
				"method": "rhf"
			},
			{
				"type": "unocc",
				"energy": 0.00981,
				"method": "rhf"
			},
			{
				"type": "unocc",
				"energy": 0.03816,
				"method": "rhf"
			},
			{
				"type": "unocc",
				"energy": 0.06896,
				"method": "rhf"
			}
		],
		"cosmo_sigma_profile": { 
			"-0.025": 0.0,
			"-0.024": 0.0,
			"-0.023": 0.0,
			"-0.022": 0.0,
			"-0.021": 0.0,
			"-0.02": 0.0,
			"-0.019": 0.0,
			"-0.018": 0.0,
			"-0.017": 0.0,
			"-0.016": 0.0,
			"-0.015": 0.0,
			"-0.014": 0.0,
			"-0.013": 0.0,
			"-0.012": 0.0,
			"-0.011": 0.0,
			"-0.01": 0.0,
			"-0.009": 0.0,
			"-0.008": 0.139664140435,
			"-0.007": 6.13776387073,
			"-0.006": 9.69675104476,
			"-0.005": 16.8960269124,
			"-0.004": 21.2547556849,
			"-0.003": 15.6583644137,
			"-0.002": 13.8331137015,
			"-0.001": 12.6102016106,
			"0.0": 12.0696148221,
			"0.001": 13.9538445432,
			"0.002": 15.8184290073,
			"0.003": 13.0222775055,
			"0.004": 6.554422586,
			"0.005": 3.61831524761,
			"0.006": 3.27887276751,
			"0.007": 2.56885264102,
			"0.008": 2.94978212113,
			"0.009": 3.22692909896,
			"0.01": 3.17964497196,
			"0.011": 4.15057048449,
			"0.012": 2.94259134971,
			"0.013": 1.51704849476,
			"0.014": 0.413869212633,
			"0.015": 0.0,
			"0.016": 0.0,
			"0.017": 0.0,
			"0.018": 0.0,
			"0.019": 0.0,
			"0.02": 0.0,
			"0.021": 0.0,
			"0.022": 0.0,
			"0.023": 0.0,
			"0.024": 0.0,
			"0.025": 0.0
		}
	}
}
