{
	 "smiles": "FC(F)(F)C1=NN2C(=N1)N=CC1=C2C(=O)OCC1", 
	 "Tm": 459.15, 
	 "num_atms": 23, 
	 "gaussian": { 
		 "optdone": 1, 
		 "sigma_profile": "yes", 
		 "theory": "DFT", 
		 "functional": "B3LYP", 
		 "basiset": "6-31G**", 
		 "properties": { 
			 "R2extent": 5880.7535, 
			 "electric_dipole_moment_norm": 8.19275736855, 
			 "electric_quadrupole_moment_norm": 23.3673309402, 
			 "total_energy": -1014.91448937, 
			 "HOMO_LUMO_gap": 0.16922, 
			 "cosmo_polarized_energy": -22.57, 
			 "cosmo_cavitation_energy": 29.9, 
			 "cosmo_dispersion_energy": -21.88, 
			 "cosmo_repulsion_energy": 1.61, 
			 "cosmo_total_nonelectrostatic_energy": 9.63, 
			 "SMD_solvation_energy": 2.89 
		},
		"coords": [
			{
				"x": 2.3308710678,
				"y": 4.088263318,
				"z": -1.3179649988,
				"element": "F" 
			},
			{
				"x": 2.8606959499,
				"y": 2.8994925084,
				"z": -1.660859528,
				"element": "C" 
			},
			{
				"x": 4.0927279974,
				"y": 2.8303617755,
				"z": -1.1226443666,
				"element": "F" 
			},
			{
				"x": 2.9801206326,
				"y": 2.859185161,
				"z": -2.995068097,
				"element": "F" 
			},
			{
				"x": 1.9993242788,
				"y": 1.7704353061,
				"z": -1.1536705823,
				"element": "C" 
			},
			{
				"x": 1.4446328491,
				"y": 0.8966197786,
				"z": -1.9995973377,
				"element": "N" 
			},
			{
				"x": 0.7833335384,
				"y": 0.0885740665,
				"z": -1.1478409645,
				"element": "N" 
			},
			{
				"x": 0.9855169984,
				"y": 0.5243284318,
				"z": 0.1796662823,
				"element": "C" 
			},
			{
				"x": 1.7618737463,
				"y": 1.6026554312,
				"z": 0.1600487134,
				"element": "N" 
			},
			{
				"x": 0.4505748305,
				"y": -0.1155087512,
				"z": 1.2321044984,
				"element": "N" 
			},
			{
				"x": -0.2650917149,
				"y": -1.1884914526,
				"z": 0.9693892378,
				"element": "C" 
			},
			{
				"x": -0.5061063861,
				"y": -1.6931725431,
				"z": -0.339916002,
				"element": "C" 
			},
			{
				"x": 0.0264101215,
				"y": -1.0207296158,
				"z": -1.422032326,
				"element": "C" 
			},
			{
				"x": -0.2940915261,
				"y": -1.411759115,
				"z": -2.8366021639,
				"element": "C" 
			},
			{
				"x": -0.1764373658,
				"y": -0.6753801583,
				"z": -3.7805347903,
				"element": "O" 
			},
			{
				"x": -0.8191512271,
				"y": -2.6541987253,
				"z": -2.9884849886,
				"element": "O" 
			},
			{
				"x": -0.7942642543,
				"y": -3.5846567415,
				"z": -1.886417281,
				"element": "C" 
			},
			{
				"x": -1.3125870126,
				"y": -2.9368918638,
				"z": -0.6098806413,
				"element": "C" 
			},
			{
				"x": -0.6887508738,
				"y": -1.7131985019,
				"z": 1.824512089,
				"element": "H" 
			},
			{
				"x": -1.4185908305,
				"y": -4.4195240028,
				"z": -2.2077579641,
				"element": "H" 
			},
			{
				"x": 0.2321740828,
				"y": -3.9458498743,
				"z": -1.747928258,
				"element": "H" 
			},
			{
				"x": -2.3771736358,
				"y": -2.6918406093,
				"z": -0.7194855103,
				"element": "H" 
			},
			{
				"x": -1.2281112666,
				"y": -3.640213822,
				"z": 0.2253649793,
				"element": "H" 
			}
		],
		 "valence_orbital": [ 
			{
				"type": "occ",
				"energy": -0.31607,
				"method": "rhf"
			},
			{
				"type": "occ",
				"energy": -0.30898,
				"method": "rhf"
			},
			{
				"type": "occ",
				"energy": -0.29512,
				"method": "rhf"
			},
			{
				"type": "occ",
				"energy": -0.2882,
				"method": "rhf"
			},
			{
				"type": "occ",
				"energy": -0.28225,
				"method": "rhf"
			},
			{
				"type": "unocc",
				"energy": -0.11303,
				"method": "rhf"
			},
			{
				"type": "unocc",
				"energy": -0.05092,
				"method": "rhf"
			},
			{
				"type": "unocc",
				"energy": -0.00953,
				"method": "rhf"
			},
			{
				"type": "unocc",
				"energy": 0.0312,
				"method": "rhf"
			},
			{
				"type": "unocc",
				"energy": 0.06567,
				"method": "rhf"
			}
		],
		"cosmo_sigma_profile": { 
			"-0.025": 0.0,
			"-0.024": 0.0,
			"-0.023": 0.0,
			"-0.022": 0.0,
			"-0.021": 0.0,
			"-0.02": 0.0,
			"-0.019": 0.0,
			"-0.018": 0.0,
			"-0.017": 0.0,
			"-0.016": 0.0,
			"-0.015": 0.0,
			"-0.014": 0.0,
			"-0.013": 0.0,
			"-0.012": 0.0,
			"-0.011": 0.0,
			"-0.01": 2.16148631856,
			"-0.009": 6.15531304233,
			"-0.008": 14.9878389655,
			"-0.007": 22.19671806,
			"-0.006": 17.779201419,
			"-0.005": 14.8474469939,
			"-0.004": 11.0315108936,
			"-0.003": 7.6076221848,
			"-0.002": 8.75835575946,
			"-0.001": 6.27867217775,
			"0.0": 8.27735653732,
			"0.001": 14.8999059669,
			"0.002": 32.8649793355,
			"0.003": 14.1972551404,
			"0.004": 7.34742659654,
			"0.005": 4.93862487295,
			"0.006": 5.08114336579,
			"0.007": 5.40146574502,
			"0.008": 5.79881336702,
			"0.009": 8.20041157849,
			"0.01": 7.92625897065,
			"0.011": 6.50793987721,
			"0.012": 3.12536633786,
			"0.013": 3.27753159643,
			"0.014": 1.32882120364,
			"0.015": 0.505321850364,
			"0.016": 0.0,
			"0.017": 0.0,
			"0.018": 0.0,
			"0.019": 0.0,
			"0.02": 0.0,
			"0.021": 0.0,
			"0.022": 0.0,
			"0.023": 0.0,
			"0.024": 0.0,
			"0.025": 0.0
		}
	}
}
