{
	 "smiles": "CCOC1=CC=C(C=C1)[N+]([O-])=O", 
	 "Tm": 332.15, 
	 "num_atms": 21, 
	 "gaussian": { 
		 "optdone": 1, 
		 "sigma_profile": "yes", 
		 "theory": "DFT", 
		 "functional": "B3LYP", 
		 "basiset": "6-31G**", 
		 "properties": { 
			 "R2extent": 2936.5604, 
			 "electric_dipole_moment_norm": 6.23930798967, 
			 "electric_quadrupole_moment_norm": 11.4182207725, 
			 "total_energy": -590.595336461, 
			 "HOMO_LUMO_gap": 0.16745, 
			 "cosmo_polarized_energy": -10.15, 
			 "cosmo_cavitation_energy": 25.44, 
			 "cosmo_dispersion_energy": -18.79, 
			 "cosmo_repulsion_energy": 1.51, 
			 "cosmo_total_nonelectrostatic_energy": 8.15, 
			 "SMD_solvation_energy": 7.15 
		},
		"coords": [
			{
				"x": -2.0713160502,
				"y": 1.031465347,
				"z": -2.4292948371,
				"element": "C" 
			},
			{
				"x": -2.4764565956,
				"y": -0.1992044077,
				"z": -1.6267537339,
				"element": "C" 
			},
			{
				"x": -2.3879133601,
				"y": 0.0185280833,
				"z": -0.2105957577,
				"element": "O" 
			},
			{
				"x": -1.1973924441,
				"y": -0.0795114155,
				"z": 0.4274733884,
				"element": "C" 
			},
			{
				"x": -1.2370957707,
				"y": 0.1790693045,
				"z": 1.8115149439,
				"element": "C" 
			},
			{
				"x": -0.0857314366,
				"y": 0.0938938848,
				"z": 2.5749672386,
				"element": "C" 
			},
			{
				"x": 1.1185168735,
				"y": -0.2519436707,
				"z": 1.9538150468,
				"element": "C" 
			},
			{
				"x": 1.1787124856,
				"y": -0.5097610467,
				"z": 0.5866459986,
				"element": "C" 
			},
			{
				"x": 0.0219624614,
				"y": -0.4227872214,
				"z": -0.1820543877,
				"element": "C" 
			},
			{
				"x": 2.3378878205,
				"y": -0.3425196861,
				"z": 2.7533702948,
				"element": "N" 
			},
			{
				"x": 2.25102778,
				"y": -0.1087425446,
				"z": 3.960639542,
				"element": "O" 
			},
			{
				"x": 3.3836779983,
				"y": -0.6476129229,
				"z": 2.1757652409,
				"element": "O" 
			},
			{
				"x": -1.0206697541,
				"y": 1.2915709337,
				"z": -2.2747306484,
				"element": "H" 
			},
			{
				"x": -2.2232477879,
				"y": 0.8450327697,
				"z": -3.4974679457,
				"element": "H" 
			},
			{
				"x": -2.682313824,
				"y": 1.8907374921,
				"z": -2.1394416048,
				"element": "H" 
			},
			{
				"x": -3.5304942062,
				"y": -0.4347673367,
				"z": -1.7943277938,
				"element": "H" 
			},
			{
				"x": -1.8926093369,
				"y": -1.0833144871,
				"z": -1.9092402454,
				"element": "H" 
			},
			{
				"x": -2.189596002,
				"y": 0.4416507709,
				"z": 2.2585487803,
				"element": "H" 
			},
			{
				"x": -0.0968600649,
				"y": 0.2877242272,
				"z": 3.6401959769,
				"element": "H" 
			},
			{
				"x": 2.1295873458,
				"y": -0.7724696279,
				"z": 0.1399535243,
				"element": "H" 
			},
			{
				"x": 0.0815238682,
				"y": -0.619638446,
				"z": -1.244983021,
				"element": "H" 
			}
		],
		 "valence_orbital": [ 
			{
				"type": "occ",
				"energy": -0.29985,
				"method": "rhf"
			},
			{
				"type": "occ",
				"energy": -0.2982,
				"method": "rhf"
			},
			{
				"type": "occ",
				"energy": -0.2805,
				"method": "rhf"
			},
			{
				"type": "occ",
				"energy": -0.27672,
				"method": "rhf"
			},
			{
				"type": "occ",
				"energy": -0.24512,
				"method": "rhf"
			},
			{
				"type": "unocc",
				"energy": -0.07767,
				"method": "rhf"
			},
			{
				"type": "unocc",
				"energy": -0.02522,
				"method": "rhf"
			},
			{
				"type": "unocc",
				"energy": 0.01552,
				"method": "rhf"
			},
			{
				"type": "unocc",
				"energy": 0.07157,
				"method": "rhf"
			},
			{
				"type": "unocc",
				"energy": 0.09237,
				"method": "rhf"
			}
		],
		"cosmo_sigma_profile": { 
			"-0.025": 0.0,
			"-0.024": 0.0,
			"-0.023": 0.0,
			"-0.022": 0.0,
			"-0.021": 0.0,
			"-0.02": 0.0,
			"-0.019": 0.0,
			"-0.018": 0.0,
			"-0.017": 0.0,
			"-0.016": 0.0,
			"-0.015": 0.0,
			"-0.014": 0.0,
			"-0.013": 0.0,
			"-0.012": 0.0,
			"-0.011": 0.0,
			"-0.01": 0.0,
			"-0.009": 0.189052419128,
			"-0.008": 2.7488684426,
			"-0.007": 7.46590822591,
			"-0.006": 10.332882699,
			"-0.005": 14.3380080366,
			"-0.004": 18.0980838465,
			"-0.003": 16.7378010812,
			"-0.002": 15.4274067813,
			"-0.001": 16.1621007561,
			"0.0": 19.7342736825,
			"0.001": 18.1518260596,
			"0.002": 15.2907586925,
			"0.003": 6.31903693035,
			"0.004": 3.88994494049,
			"0.005": 3.99152035904,
			"0.006": 4.42876566214,
			"0.007": 5.76834748881,
			"0.008": 11.177383934,
			"0.009": 6.76254105913,
			"0.01": 4.11417439742,
			"0.011": 1.52521960763,
			"0.012": 0.0,
			"0.013": 0.0,
			"0.014": 0.0,
			"0.015": 0.0,
			"0.016": 0.0,
			"0.017": 0.0,
			"0.018": 0.0,
			"0.019": 0.0,
			"0.02": 0.0,
			"0.021": 0.0,
			"0.022": 0.0,
			"0.023": 0.0,
			"0.024": 0.0,
			"0.025": 0.0
		}
	}
}
