{
	 "smiles": "CC1=C(C=C(C=C1Cl)S(Cl)(=O)=O)[N+]([O-])=O", 
	 "Tm": 334.15, 
	 "num_atms": 20, 
	 "gaussian": { 
		 "optdone": 1, 
		 "sigma_profile": "yes", 
		 "theory": "DFT", 
		 "functional": "B3LYP", 
		 "basiset": "6-31G**", 
		 "properties": { 
			 "R2extent": 4944.0641, 
			 "electric_dipole_moment_norm": 3.95709870612, 
			 "electric_quadrupole_moment_norm": 12.3775578795, 
			 "total_energy": -1943.7994014, 
			 "HOMO_LUMO_gap": 0.17838, 
			 "cosmo_polarized_energy": -11.33, 
			 "cosmo_cavitation_energy": 30.54, 
			 "cosmo_dispersion_energy": -22.63, 
			 "cosmo_repulsion_energy": 1.73, 
			 "cosmo_total_nonelectrostatic_energy": 9.64, 
			 "SMD_solvation_energy": 5.86 
		},
		"coords": [
			{
				"x": -2.2690100848,
				"y": 1.5269566943,
				"z": -0.8391844532,
				"element": "C" 
			},
			{
				"x": -1.0945843834,
				"y": 0.659455642,
				"z": -0.4687760927,
				"element": "C" 
			},
			{
				"x": -1.1591444434,
				"y": -0.7448575512,
				"z": -0.3593937748,
				"element": "C" 
			},
			{
				"x": -0.0614423912,
				"y": -1.5523607623,
				"z": -0.0751543668,
				"element": "C" 
			},
			{
				"x": 1.1562863895,
				"y": -0.9285365195,
				"z": 0.1527209035,
				"element": "C" 
			},
			{
				"x": 1.2996112441,
				"y": 0.4538914515,
				"z": 0.0806441642,
				"element": "C" 
			},
			{
				"x": 0.1795552027,
				"y": 1.220966174,
				"z": -0.2314414946,
				"element": "C" 
			},
			{
				"x": 0.4114676294,
				"y": 2.9553976666,
				"z": -0.315570939,
				"element": "Cl" 
			},
			{
				"x": 2.5936135099,
				"y": -1.9307454409,
				"z": 0.5257135589,
				"element": "S" 
			},
			{
				"x": 2.4887984959,
				"y": -2.0143477294,
				"z": 2.6450383375,
				"element": "Cl" 
			},
			{
				"x": 3.7914612086,
				"y": -1.1692279597,
				"z": 0.1999436747,
				"element": "O" 
			},
			{
				"x": 2.3619797143,
				"y": -3.2846912703,
				"z": 0.0441427768,
				"element": "O" 
			},
			{
				"x": -2.438872125,
				"y": -1.4687014292,
				"z": -0.536348419,
				"element": "N" 
			},
			{
				"x": -2.3733816643,
				"y": -2.6190352119,
				"z": -0.9604328052,
				"element": "O" 
			},
			{
				"x": -3.474445034,
				"y": -0.8877005922,
				"z": -0.2203750526,
				"element": "O" 
			},
			{
				"x": -1.9244031387,
				"y": 2.4385175623,
				"z": -1.3270219917,
				"element": "H" 
			},
			{
				"x": -2.8292927987,
				"y": 1.8113343807,
				"z": 0.0577805628,
				"element": "H" 
			},
			{
				"x": -2.9659012251,
				"y": 1.0057074905,
				"z": -1.4933729824,
				"element": "H" 
			},
			{
				"x": -0.1705432173,
				"y": -2.6289358717,
				"z": -0.0420799961,
				"element": "H" 
			},
			{
				"x": 2.2617471116,
				"y": 0.9223132763,
				"z": 0.2498683898,
				"element": "H" 
			}
		],
		 "valence_orbital": [ 
			{
				"type": "occ",
				"energy": -0.33192,
				"method": "rhf"
			},
			{
				"type": "occ",
				"energy": -0.32951,
				"method": "rhf"
			},
			{
				"type": "occ",
				"energy": -0.3256,
				"method": "rhf"
			},
			{
				"type": "occ",
				"energy": -0.30781,
				"method": "rhf"
			},
			{
				"type": "occ",
				"energy": -0.29589,
				"method": "rhf"
			},
			{
				"type": "unocc",
				"energy": -0.11751,
				"method": "rhf"
			},
			{
				"type": "unocc",
				"energy": -0.10445,
				"method": "rhf"
			},
			{
				"type": "unocc",
				"energy": -0.06894,
				"method": "rhf"
			},
			{
				"type": "unocc",
				"energy": -0.04801,
				"method": "rhf"
			},
			{
				"type": "unocc",
				"energy": -0.01108,
				"method": "rhf"
			}
		],
		"cosmo_sigma_profile": { 
			"-0.025": 0.0,
			"-0.024": 0.0,
			"-0.023": 0.0,
			"-0.022": 0.0,
			"-0.021": 0.0,
			"-0.02": 0.0,
			"-0.019": 0.0,
			"-0.018": 0.0,
			"-0.017": 0.0,
			"-0.016": 0.0,
			"-0.015": 0.0,
			"-0.014": 0.0,
			"-0.013": 0.0,
			"-0.012": 0.0,
			"-0.011": 0.0788229330588,
			"-0.01": 1.47444883795,
			"-0.009": 3.92427978806,
			"-0.008": 5.57740211351,
			"-0.007": 6.96235843104,
			"-0.006": 8.45810919462,
			"-0.005": 13.2219893217,
			"-0.004": 20.8134137406,
			"-0.003": 27.1633290442,
			"-0.002": 21.7997764405,
			"-0.001": 15.3351193973,
			"0.0": 14.0077712464,
			"0.001": 14.5263964643,
			"0.002": 20.1832488624,
			"0.003": 21.7677981375,
			"0.004": 7.03269553645,
			"0.005": 6.13796003665,
			"0.006": 10.7609681673,
			"0.007": 16.1522337763,
			"0.008": 11.6768094461,
			"0.009": 3.45330568435,
			"0.01": 0.039772755629,
			"0.011": 0.0,
			"0.012": 0.0,
			"0.013": 0.0,
			"0.014": 0.0,
			"0.015": 0.0,
			"0.016": 0.0,
			"0.017": 0.0,
			"0.018": 0.0,
			"0.019": 0.0,
			"0.02": 0.0,
			"0.021": 0.0,
			"0.022": 0.0,
			"0.023": 0.0,
			"0.024": 0.0,
			"0.025": 0.0
		}
	}
}
