{
	 "smiles": "NNC(=O)C1=CC=CC=C1C1=CC=CC=C1", 
	 "Tm": 415.15, 
	 "num_atms": 28, 
	 "gaussian": { 
		 "optdone": 1, 
		 "sigma_profile": "yes", 
		 "theory": "DFT", 
		 "functional": "B3LYP", 
		 "basiset": "6-31G**", 
		 "properties": { 
			 "R2extent": 3757.3351, 
			 "electric_dipole_moment_norm": 2.65812499706, 
			 "electric_quadrupole_moment_norm": 8.45117245416, 
			 "total_energy": -687.328919765, 
			 "HOMO_LUMO_gap": 0.19711, 
			 "cosmo_polarized_energy": -12.7, 
			 "cosmo_cavitation_energy": 31.95, 
			 "cosmo_dispersion_energy": -22.39, 
			 "cosmo_repulsion_energy": 1.75, 
			 "cosmo_total_nonelectrostatic_energy": 11.31, 
			 "SMD_solvation_energy": 6.14 
		},
		"coords": [
			{
				"x": -2.1148648512,
				"y": 3.1634900032,
				"z": 1.7289115809,
				"element": "N" 
			},
			{
				"x": -1.4582598475,
				"y": 1.930956952,
				"z": 1.5345037603,
				"element": "N" 
			},
			{
				"x": -2.0219197593,
				"y": 0.9471470278,
				"z": 0.7693393299,
				"element": "C" 
			},
			{
				"x": -3.1792697208,
				"y": 1.0392900327,
				"z": 0.3652262233,
				"element": "O" 
			},
			{
				"x": -1.1951207407,
				"y": -0.2943558722,
				"z": 0.5400171981,
				"element": "C" 
			},
			{
				"x": -1.9143393311,
				"y": -1.4966332565,
				"z": 0.6100603731,
				"element": "C" 
			},
			{
				"x": -1.2760517283,
				"y": -2.7274658172,
				"z": 0.4950773701,
				"element": "C" 
			},
			{
				"x": 0.1043664048,
				"y": -2.7689433853,
				"z": 0.2929993748,
				"element": "C" 
			},
			{
				"x": 0.8240796102,
				"y": -1.5813640767,
				"z": 0.1863772705,
				"element": "C" 
			},
			{
				"x": 0.1974995686,
				"y": -0.3279757837,
				"z": 0.2965612479,
				"element": "C" 
			},
			{
				"x": 1.0311970683,
				"y": 0.8918885528,
				"z": 0.0864671287,
				"element": "C" 
			},
			{
				"x": 0.689434746,
				"y": 1.8417151329,
				"z": -0.8920791444,
				"element": "C" 
			},
			{
				"x": 1.4981949316,
				"y": 2.9541699456,
				"z": -1.1170011681,
				"element": "C" 
			},
			{
				"x": 2.6632559601,
				"y": 3.1407082537,
				"z": -0.3686449948,
				"element": "C" 
			},
			{
				"x": 3.0152888601,
				"y": 2.2049962891,
				"z": 0.6046667668,
				"element": "C" 
			},
			{
				"x": 2.2079594015,
				"y": 1.0880006946,
				"z": 0.8282441478,
				"element": "C" 
			},
			{
				"x": -2.8892895021,
				"y": 2.9930211166,
				"z": 2.3704637132,
				"element": "H" 
			},
			{
				"x": -2.5602245472,
				"y": 3.4068653481,
				"z": 0.8429183444,
				"element": "H" 
			},
			{
				"x": -0.4659366477,
				"y": 1.9456319055,
				"z": 1.7158917817,
				"element": "H" 
			},
			{
				"x": -2.9862923445,
				"y": -1.4372017349,
				"z": 0.7653730116,
				"element": "H" 
			},
			{
				"x": -1.8504524219,
				"y": -3.6465591901,
				"z": 0.5625666309,
				"element": "H" 
			},
			{
				"x": 0.6176913323,
				"y": -3.7216056599,
				"z": 0.1988171729,
				"element": "H" 
			},
			{
				"x": 1.8898826739,
				"y": -1.6125480438,
				"z": -0.0199655937,
				"element": "H" 
			},
			{
				"x": -0.2084232691,
				"y": 1.6942358112,
				"z": -1.4853867244,
				"element": "H" 
			},
			{
				"x": 1.2211650716,
				"y": 3.6743882248,
				"z": -1.8814346285,
				"element": "H" 
			},
			{
				"x": 3.2911955184,
				"y": 4.0093050848,
				"z": -0.5437620464,
				"element": "H" 
			},
			{
				"x": 3.917399806,
				"y": 2.3435140351,
				"z": 1.1937047348,
				"element": "H" 
			},
			{
				"x": 2.4817337579,
				"y": 0.3645284098,
				"z": 1.5911871386,
				"element": "H" 
			}
		],
		 "valence_orbital": [ 
			{
				"type": "occ",
				"energy": -0.26428,
				"method": "rhf"
			},
			{
				"type": "occ",
				"energy": -0.25959,
				"method": "rhf"
			},
			{
				"type": "occ",
				"energy": -0.25196,
				"method": "rhf"
			},
			{
				"type": "occ",
				"energy": -0.24567,
				"method": "rhf"
			},
			{
				"type": "occ",
				"energy": -0.23529,
				"method": "rhf"
			},
			{
				"type": "unocc",
				"energy": -0.03818,
				"method": "rhf"
			},
			{
				"type": "unocc",
				"energy": -0.02145,
				"method": "rhf"
			},
			{
				"type": "unocc",
				"energy": -0.00953,
				"method": "rhf"
			},
			{
				"type": "unocc",
				"energy": 0.00778,
				"method": "rhf"
			},
			{
				"type": "unocc",
				"energy": 0.05272,
				"method": "rhf"
			}
		],
		"cosmo_sigma_profile": { 
			"-0.025": 0.0,
			"-0.024": 0.0,
			"-0.023": 0.0,
			"-0.022": 0.0,
			"-0.021": 0.0,
			"-0.02": 0.0,
			"-0.019": 0.0,
			"-0.018": 0.0,
			"-0.017": 0.0,
			"-0.016": 0.0,
			"-0.015": 0.0,
			"-0.014": 0.0,
			"-0.013": 0.0,
			"-0.012": 0.312629163096,
			"-0.011": 1.6887311791,
			"-0.01": 3.1008998055,
			"-0.009": 2.75849884086,
			"-0.008": 3.0876130361,
			"-0.007": 4.0128372847,
			"-0.006": 14.6129614806,
			"-0.005": 21.6552378562,
			"-0.004": 24.0934090781,
			"-0.003": 19.8507508152,
			"-0.002": 17.0433451841,
			"-0.001": 15.1875174953,
			"0.0": 15.2551813584,
			"0.001": 17.6433627392,
			"0.002": 18.440086001,
			"0.003": 18.6723792358,
			"0.004": 19.8558625606,
			"0.005": 11.594461329,
			"0.006": 2.8832486198,
			"0.007": 2.73703931837,
			"0.008": 1.91969422056,
			"0.009": 1.83671416018,
			"0.01": 1.93114494323,
			"0.011": 1.71174084347,
			"0.012": 2.45461019664,
			"0.013": 4.72911797994,
			"0.014": 4.19714451907,
			"0.015": 0.683730148609,
			"0.016": 0.583630770415,
			"0.017": 0.25309984692,
			"0.018": 0.0,
			"0.019": 0.0,
			"0.02": 0.0,
			"0.021": 0.0,
			"0.022": 0.0,
			"0.023": 0.0,
			"0.024": 0.0,
			"0.025": 0.0
		}
	}
}
