{
	 "smiles": "COC(=O)C1=CC2=C(N1)C(F)=CC=C2Br", 
	 "Tm": 463.15, 
	 "num_atms": 22, 
	 "gaussian": { 
		 "optdone": 1, 
		 "sigma_profile": "yes", 
		 "theory": "DFT", 
		 "functional": "B3LYP", 
		 "basiset": "6-31G**", 
		 "properties": { 
			 "R2extent": 5395.4585, 
			 "electric_dipole_moment_norm": 1.04912034105, 
			 "electric_quadrupole_moment_norm": 15.8348073632, 
			 "total_energy": -3261.73617614, 
			 "HOMO_LUMO_gap": 0.16079, 
			 "cosmo_polarized_energy": -8.7, 
			 "cosmo_cavitation_energy": 30.22, 
			 "cosmo_dispersion_energy": -22.31, 
			 "cosmo_repulsion_energy": 1.72, 
			 "cosmo_total_nonelectrostatic_energy": 9.62, 
			 "SMD_solvation_energy": 5.76 
		},
		"coords": [
			{
				"x": -2.1249875909,
				"y": -2.1225826803,
				"z": 3.7100286428,
				"element": "C" 
			},
			{
				"x": -1.257093947,
				"y": -1.6846931928,
				"z": 2.6507895196,
				"element": "O" 
			},
			{
				"x": -1.8521785963,
				"y": -1.5158928409,
				"z": 1.4557170218,
				"element": "C" 
			},
			{
				"x": -3.0367859129,
				"y": -1.7086419909,
				"z": 1.2402110667,
				"element": "O" 
			},
			{
				"x": -0.9128442762,
				"y": -1.0699354139,
				"z": 0.4205405412,
				"element": "C" 
			},
			{
				"x": 0.439067119,
				"y": -0.7963880683,
				"z": 0.4427801312,
				"element": "C" 
			},
			{
				"x": 0.8029025051,
				"y": -0.3993312576,
				"z": -0.8784692294,
				"element": "C" 
			},
			{
				"x": -0.3864527527,
				"y": -0.4536700843,
				"z": -1.6629098426,
				"element": "C" 
			},
			{
				"x": -1.4086235061,
				"y": -0.8620003182,
				"z": -0.8530689341,
				"element": "N" 
			},
			{
				"x": -0.3716699367,
				"y": -0.11975717,
				"z": -3.0204500916,
				"element": "C" 
			},
			{
				"x": -1.5240571178,
				"y": -0.186611549,
				"z": -3.7225055169,
				"element": "F" 
			},
			{
				"x": 0.8106027214,
				"y": 0.2686805221,
				"z": -3.612590154,
				"element": "C" 
			},
			{
				"x": 2.0016849409,
				"y": 0.3290867617,
				"z": -2.8516834108,
				"element": "C" 
			},
			{
				"x": 1.9984051716,
				"y": 0.0010250557,
				"z": -1.508677107,
				"element": "C" 
			},
			{
				"x": 3.6111506623,
				"y": 0.0864304969,
				"z": -0.4944768481,
				"element": "Br" 
			},
			{
				"x": -1.4900653678,
				"y": -2.2064842561,
				"z": 4.5913904765,
				"element": "H" 
			},
			{
				"x": -2.5727729747,
				"y": -3.0887880993,
				"z": 3.4648205528,
				"element": "H" 
			},
			{
				"x": -2.9228090443,
				"y": -1.3949932043,
				"z": 3.8782173804,
				"element": "H" 
			},
			{
				"x": 1.0879411262,
				"y": -0.8716392906,
				"z": 1.3013453816,
				"element": "H" 
			},
			{
				"x": -2.3764654914,
				"y": -1.0008993046,
				"z": -1.1023882581,
				"element": "H" 
			},
			{
				"x": 0.8166930924,
				"y": 0.5266135445,
				"z": -4.6657279555,
				"element": "H" 
			},
			{
				"x": 2.923359176,
				"y": 0.6362723401,
				"z": -3.3313933666,
				"element": "H" 
			}
		],
		 "valence_orbital": [ 
			{
				"type": "occ",
				"energy": -0.29047,
				"method": "rhf"
			},
			{
				"type": "occ",
				"energy": -0.28845,
				"method": "rhf"
			},
			{
				"type": "occ",
				"energy": -0.27772,
				"method": "rhf"
			},
			{
				"type": "occ",
				"energy": -0.24526,
				"method": "rhf"
			},
			{
				"type": "occ",
				"energy": -0.21901,
				"method": "rhf"
			},
			{
				"type": "unocc",
				"energy": -0.05822,
				"method": "rhf"
			},
			{
				"type": "unocc",
				"energy": 0.00066,
				"method": "rhf"
			},
			{
				"type": "unocc",
				"energy": 0.00858,
				"method": "rhf"
			},
			{
				"type": "unocc",
				"energy": 0.01574,
				"method": "rhf"
			},
			{
				"type": "unocc",
				"energy": 0.08152,
				"method": "rhf"
			}
		],
		"cosmo_sigma_profile": { 
			"-0.025": 0.0,
			"-0.024": 0.0,
			"-0.023": 0.0,
			"-0.022": 0.0,
			"-0.021": 0.0,
			"-0.02": 0.0,
			"-0.019": 0.0,
			"-0.018": 0.0,
			"-0.017": 0.0,
			"-0.016": 0.0946152101504,
			"-0.015": 0.397096253695,
			"-0.014": 0.814967744031,
			"-0.013": 0.998837178217,
			"-0.012": 0.634354395133,
			"-0.011": 0.751961392067,
			"-0.01": 0.903728014268,
			"-0.009": 1.14607932128,
			"-0.008": 2.14884618911,
			"-0.007": 6.89697070654,
			"-0.006": 11.0874615987,
			"-0.005": 14.502080417,
			"-0.004": 15.1144712711,
			"-0.003": 15.8635196762,
			"-0.002": 16.0913186307,
			"-0.001": 14.9331884321,
			"0.0": 19.5308429184,
			"0.001": 25.5099614724,
			"0.002": 27.4105167644,
			"0.003": 27.7378081376,
			"0.004": 21.1379387673,
			"0.005": 6.57763249889,
			"0.006": 2.88117268971,
			"0.007": 2.57317239166,
			"0.008": 1.02960071983,
			"0.009": 1.45712628844,
			"0.01": 2.14822565835,
			"0.011": 3.7215645134,
			"0.012": 2.0161748234,
			"0.013": 0.0,
			"0.014": 0.0,
			"0.015": 0.0,
			"0.016": 0.0,
			"0.017": 0.0,
			"0.018": 0.0,
			"0.019": 0.0,
			"0.02": 0.0,
			"0.021": 0.0,
			"0.022": 0.0,
			"0.023": 0.0,
			"0.024": 0.0,
			"0.025": 0.0
		}
	}
}
