{
	 "smiles": "NC1=C(C=C(Cl)C=N1)[N+]([O-])=O", 
	 "Tm": 466.15, 
	 "num_atms": 15, 
	 "gaussian": { 
		 "optdone": 1, 
		 "sigma_profile": "yes", 
		 "theory": "DFT", 
		 "functional": "B3LYP", 
		 "basiset": "6-31G**", 
		 "properties": { 
			 "R2extent": 2519.05, 
			 "electric_dipole_moment_norm": 2.843428617, 
			 "electric_quadrupole_moment_norm": 10.2858032195, 
			 "total_energy": -967.742625953, 
			 "HOMO_LUMO_gap": 0.13982, 
			 "cosmo_polarized_energy": -9.55, 
			 "cosmo_cavitation_energy": 21.98, 
			 "cosmo_dispersion_energy": -16.9, 
			 "cosmo_repulsion_energy": 1.36, 
			 "cosmo_total_nonelectrostatic_energy": 6.44, 
			 "SMD_solvation_energy": 4.26 
		},
		"coords": [
			{
				"x": 0.5741149761,
				"y": -0.8575423806,
				"z": 2.6121240076,
				"element": "N" 
			},
			{
				"x": 0.6436688247,
				"y": -1.0478418739,
				"z": 1.2816662045,
				"element": "C" 
			},
			{
				"x": -0.4778939106,
				"y": -0.9989575573,
				"z": 0.4016341003,
				"element": "C" 
			},
			{
				"x": -0.2959901544,
				"y": -1.211129519,
				"z": -0.9675140969,
				"element": "C" 
			},
			{
				"x": 0.9789728356,
				"y": -1.4652044066,
				"z": -1.4360002355,
				"element": "C" 
			},
			{
				"x": 1.2859166995,
				"y": -1.7408414432,
				"z": -3.1357648594,
				"element": "Cl" 
			},
			{
				"x": 2.0373025755,
				"y": -1.4989592337,
				"z": -0.5131623932,
				"element": "C" 
			},
			{
				"x": 1.8790805267,
				"y": -1.2998968553,
				"z": 0.7850551478,
				"element": "N" 
			},
			{
				"x": -1.8254846857,
				"y": -0.7350481634,
				"z": 0.86474619,
				"element": "N" 
			},
			{
				"x": -2.7336797503,
				"y": -0.7117790953,
				"z": 0.034806139,
				"element": "O" 
			},
			{
				"x": -2.0063391754,
				"y": -0.5433795344,
				"z": 2.0800553146,
				"element": "O" 
			},
			{
				"x": -0.3201238394,
				"y": -0.6667207342,
				"z": 3.0386490035,
				"element": "H" 
			},
			{
				"x": 1.4344694616,
				"y": -0.9166373858,
				"z": 3.1334148285,
				"element": "H" 
			},
			{
				"x": -1.1569605108,
				"y": -1.1708351859,
				"z": -1.6223282466,
				"element": "H" 
			},
			{
				"x": 3.0499461268,
				"y": -1.6973266314,
				"z": -0.8580811042,
				"element": "H" 
			}
		],
		 "valence_orbital": [ 
			{
				"type": "occ",
				"energy": -0.32122,
				"method": "rhf"
			},
			{
				"type": "occ",
				"energy": -0.31379,
				"method": "rhf"
			},
			{
				"type": "occ",
				"energy": -0.30341,
				"method": "rhf"
			},
			{
				"type": "occ",
				"energy": -0.29004,
				"method": "rhf"
			},
			{
				"type": "occ",
				"energy": -0.24066,
				"method": "rhf"
			},
			{
				"type": "unocc",
				"energy": -0.10084,
				"method": "rhf"
			},
			{
				"type": "unocc",
				"energy": -0.03598,
				"method": "rhf"
			},
			{
				"type": "unocc",
				"energy": -0.01202,
				"method": "rhf"
			},
			{
				"type": "unocc",
				"energy": 0.01505,
				"method": "rhf"
			},
			{
				"type": "unocc",
				"energy": 0.08395,
				"method": "rhf"
			}
		],
		"cosmo_sigma_profile": { 
			"-0.025": 0.0,
			"-0.024": 0.0,
			"-0.023": 0.0,
			"-0.022": 0.0,
			"-0.021": 0.0,
			"-0.02": 0.0,
			"-0.019": 0.0,
			"-0.018": 0.0,
			"-0.017": 0.0,
			"-0.016": 0.0,
			"-0.015": 0.551341542696,
			"-0.014": 1.02146765168,
			"-0.013": 0.822619484207,
			"-0.012": 1.94244168566,
			"-0.011": 2.03687464339,
			"-0.01": 1.29625407541,
			"-0.009": 2.43161981461,
			"-0.008": 4.78176308622,
			"-0.007": 4.79731455519,
			"-0.006": 6.40815827306,
			"-0.005": 6.89742685431,
			"-0.004": 7.67492455823,
			"-0.003": 14.86646601,
			"-0.002": 16.3455042954,
			"-0.001": 15.8470045002,
			"0.0": 12.3452224928,
			"0.001": 11.001184071,
			"0.002": 10.6699922792,
			"0.003": 11.97384941,
			"0.004": 11.8561201511,
			"0.005": 4.47184026576,
			"0.006": 4.61669140315,
			"0.007": 5.90522297229,
			"0.008": 7.10896135332,
			"0.009": 4.9165121824,
			"0.01": 4.34481767664,
			"0.011": 1.29211538223,
			"0.012": 0.571164436467,
			"0.013": 0.480308585274,
			"0.014": 0.0,
			"0.015": 0.0,
			"0.016": 0.0,
			"0.017": 0.0,
			"0.018": 0.0,
			"0.019": 0.0,
			"0.02": 0.0,
			"0.021": 0.0,
			"0.022": 0.0,
			"0.023": 0.0,
			"0.024": 0.0,
			"0.025": 0.0
		}
	}
}
