{
	 "smiles": "CCCOC1=C2CC3=CC(Br)=CC(CC4=CC=CC(CC5=C(O)C(CC1=CC=C2)=CC(Br)=C5)=C4OCCC)=C3O", 
	 "Tm": 581.15, 
	 "num_atms": 74, 
	 "gaussian": { 
		 "optdone": 1, 
		 "sigma_profile": "yes", 
		 "theory": "DFT", 
		 "functional": "B3LYP", 
		 "basiset": "6-31G**", 
		 "properties": { 
			 "R2extent": 26697.3819, 
			 "electric_dipole_moment_norm": 2.8142084642, 
			 "electric_quadrupole_moment_norm": 29.0337090574, 
			 "total_energy": -6759.82923818, 
			 "HOMO_LUMO_gap": 0.18942, 
			 "cosmo_polarized_energy": -16.95, 
			 "cosmo_cavitation_energy": 74.33, 
			 "cosmo_dispersion_energy": -46.16, 
			 "cosmo_repulsion_energy": 3.45, 
			 "cosmo_total_nonelectrostatic_energy": 31.62, 
			 "SMD_solvation_energy": 8.59 
		},
		"coords": [
			{
				"x": -2.1165618604,
				"y": -0.6905277573,
				"z": -5.2707916986,
				"element": "C" 
			},
			{
				"x": -1.6299614985,
				"y": -0.5959117301,
				"z": -3.8212384721,
				"element": "C" 
			},
			{
				"x": -0.8513036703,
				"y": 0.68510951,
				"z": -3.5599658846,
				"element": "C" 
			},
			{
				"x": -0.4342072247,
				"y": 0.6851850768,
				"z": -2.1851657771,
				"element": "O" 
			},
			{
				"x": 0.2204887824,
				"y": 1.8266115754,
				"z": -1.7688307793,
				"element": "C" 
			},
			{
				"x": 1.6177105849,
				"y": 1.9310649975,
				"z": -1.9180414272,
				"element": "C" 
			},
			{
				"x": 2.4689248668,
				"y": 0.8164022759,
				"z": -2.511319589,
				"element": "C" 
			},
			{
				"x": 2.2177918214,
				"y": -0.6070911407,
				"z": -2.0370958514,
				"element": "C" 
			},
			{
				"x": 2.0041790808,
				"y": -1.6140883722,
				"z": -2.9795491273,
				"element": "C" 
			},
			{
				"x": 1.8141801162,
				"y": -2.9302638055,
				"z": -2.5713063582,
				"element": "C" 
			},
			{
				"x": 1.5137558801,
				"y": -4.294739617,
				"z": -3.8832472974,
				"element": "Br" 
			},
			{
				"x": 1.8451321264,
				"y": -3.2649867561,
				"z": -1.2242415419,
				"element": "C" 
			},
			{
				"x": 2.0693819706,
				"y": -2.2826089392,
				"z": -0.2521957579,
				"element": "C" 
			},
			{
				"x": 2.115524946,
				"y": -2.6976906236,
				"z": 1.21572495,
				"element": "C" 
			},
			{
				"x": 0.8164819438,
				"y": -2.4348267199,
				"z": 1.9659077953,
				"element": "C" 
			},
			{
				"x": -0.2483283519,
				"y": -3.338535669,
				"z": 1.8784088562,
				"element": "C" 
			},
			{
				"x": -1.4724369976,
				"y": -3.0619555097,
				"z": 2.4831732831,
				"element": "C" 
			},
			{
				"x": -1.6620495215,
				"y": -1.8448626594,
				"z": 3.1350873179,
				"element": "C" 
			},
			{
				"x": -0.6284834587,
				"y": -0.9068999458,
				"z": 3.2355181186,
				"element": "C" 
			},
			{
				"x": -0.9211414399,
				"y": 0.4802129645,
				"z": 3.7973610691,
				"element": "C" 
			},
			{
				"x": -1.8628566223,
				"y": 1.2808160331,
				"z": 2.9089079098,
				"element": "C" 
			},
			{
				"x": -1.4518504573,
				"y": 1.6185469248,
				"z": 1.6010672515,
				"element": "C" 
			},
			{
				"x": -0.2027210181,
				"y": 1.2001626432,
				"z": 1.2754601411,
				"element": "O" 
			},
			{
				"x": -2.3000440155,
				"y": 2.3312979616,
				"z": 0.7292642365,
				"element": "C" 
			},
			{
				"x": -1.9836149908,
				"y": 2.5923886828,
				"z": -0.7462972333,
				"element": "C" 
			},
			{
				"x": -0.5220975899,
				"y": 2.8210261262,
				"z": -1.09393354,
				"element": "C" 
			},
			{
				"x": 0.1394211642,
				"y": 3.9828879468,
				"z": -0.6726170585,
				"element": "C" 
			},
			{
				"x": 1.5056028111,
				"y": 4.1385509926,
				"z": -0.8879271979,
				"element": "C" 
			},
			{
				"x": 2.2351146267,
				"y": 3.1076172282,
				"z": -1.4799671985,
				"element": "C" 
			},
			{
				"x": -3.5497877763,
				"y": 2.7388140893,
				"z": 1.2174766187,
				"element": "C" 
			},
			{
				"x": -3.9471372376,
				"y": 2.424997621,
				"z": 2.5107886033,
				"element": "C" 
			},
			{
				"x": -5.6609694545,
				"y": 3.0059541184,
				"z": 3.1412568117,
				"element": "Br" 
			},
			{
				"x": -3.1177185961,
				"y": 1.6899124612,
				"z": 3.3557860126,
				"element": "C" 
			},
			{
				"x": 0.6242930171,
				"y": -1.252875459,
				"z": 2.6993046682,
				"element": "C" 
			},
			{
				"x": 1.7024741853,
				"y": -0.3780453129,
				"z": 2.7873165659,
				"element": "O" 
			},
			{
				"x": 2.30756747,
				"y": -0.1713994772,
				"z": 4.0842596891,
				"element": "C" 
			},
			{
				"x": 3.7528055154,
				"y": -0.6604105678,
				"z": 4.1199448072,
				"element": "C" 
			},
			{
				"x": 4.6906566505,
				"y": 0.098652505,
				"z": 3.1750391572,
				"element": "C" 
			},
			{
				"x": 2.2559418956,
				"y": -0.9466003121,
				"z": -0.6676331027,
				"element": "C" 
			},
			{
				"x": 2.5208243429,
				"y": 0.0751006819,
				"z": 0.1924575264,
				"element": "O" 
			},
			{
				"x": -2.6734870948,
				"y": -1.6176071813,
				"z": -5.4340458108,
				"element": "H" 
			},
			{
				"x": -2.7781488389,
				"y": 0.1441608884,
				"z": -5.5294777295,
				"element": "H" 
			},
			{
				"x": -1.2781825555,
				"y": -0.6813756403,
				"z": -5.9764306092,
				"element": "H" 
			},
			{
				"x": -2.4810861699,
				"y": -0.6348615364,
				"z": -3.1310904092,
				"element": "H" 
			},
			{
				"x": -0.9886409693,
				"y": -1.4496545931,
				"z": -3.5777419548,
				"element": "H" 
			},
			{
				"x": 0.0270440764,
				"y": 0.747078531,
				"z": -4.2187633484,
				"element": "H" 
			},
			{
				"x": -1.4733003802,
				"y": 1.571184709,
				"z": -3.7570392849,
				"element": "H" 
			},
			{
				"x": 3.5150685259,
				"y": 1.0740218086,
				"z": -2.3060410827,
				"element": "H" 
			},
			{
				"x": 2.3696720791,
				"y": 0.8235108487,
				"z": -3.6041038411,
				"element": "H" 
			},
			{
				"x": 1.9840110022,
				"y": -1.3672735734,
				"z": -4.0358326682,
				"element": "H" 
			},
			{
				"x": 1.7077722859,
				"y": -4.297180547,
				"z": -0.920213222,
				"element": "H" 
			},
			{
				"x": 2.3325245368,
				"y": -3.7695968372,
				"z": 1.2537197837,
				"element": "H" 
			},
			{
				"x": 2.9447775146,
				"y": -2.1913785001,
				"z": 1.7157924071,
				"element": "H" 
			},
			{
				"x": -0.1124658088,
				"y": -4.264766199,
				"z": 1.3262259309,
				"element": "H" 
			},
			{
				"x": -2.2861780159,
				"y": -3.7781994467,
				"z": 2.4194047291,
				"element": "H" 
			},
			{
				"x": -2.6376107352,
				"y": -1.5963528381,
				"z": 3.545016769,
				"element": "H" 
			},
			{
				"x": -1.3700258097,
				"y": 0.3926455306,
				"z": 4.7929720468,
				"element": "H" 
			},
			{
				"x": 0.010973939,
				"y": 1.0380171025,
				"z": 3.9068888568,
				"element": "H" 
			},
			{
				"x": 0.0740607585,
				"y": 1.5433084848,
				"z": 0.4130640932,
				"element": "H" 
			},
			{
				"x": -2.3465673662,
				"y": 1.7368522902,
				"z": -1.3236765245,
				"element": "H" 
			},
			{
				"x": -2.5709607432,
				"y": 3.4606177027,
				"z": -1.0653971463,
				"element": "H" 
			},
			{
				"x": -0.4254068288,
				"y": 4.7526111416,
				"z": -0.1533405165,
				"element": "H" 
			},
			{
				"x": 2.0104307372,
				"y": 5.0421101018,
				"z": -0.5594394017,
				"element": "H" 
			},
			{
				"x": 3.3122514236,
				"y": 3.2042871986,
				"z": -1.5871903996,
				"element": "H" 
			},
			{
				"x": -4.2179461184,
				"y": 3.2974514565,
				"z": 0.5700345753,
				"element": "H" 
			},
			{
				"x": -3.4433039691,
				"y": 1.444868872,
				"z": 4.3612464188,
				"element": "H" 
			},
			{
				"x": 1.7048522143,
				"y": -0.6889221134,
				"z": 4.8374858721,
				"element": "H" 
			},
			{
				"x": 2.2682573997,
				"y": 0.9052385474,
				"z": 4.2913083597,
				"element": "H" 
			},
			{
				"x": 3.7723149861,
				"y": -1.7352226235,
				"z": 3.9017487608,
				"element": "H" 
			},
			{
				"x": 4.103700146,
				"y": -0.5505814806,
				"z": 5.1549477206,
				"element": "H" 
			},
			{
				"x": 5.712343603,
				"y": -0.2867401072,
				"z": 3.2473607754,
				"element": "H" 
			},
			{
				"x": 4.3736362512,
				"y": 0.0131986113,
				"z": 2.1318024798,
				"element": "H" 
			},
			{
				"x": 4.7184312474,
				"y": 1.1652838235,
				"z": 3.4256329785,
				"element": "H" 
			},
			{
				"x": 2.2580066605,
				"y": -0.1151264737,
				"z": 1.1167248953,
				"element": "H" 
			}
		],
		 "valence_orbital": [ 
			{
				"type": "occ",
				"energy": -0.2407,
				"method": "rhf"
			},
			{
				"type": "occ",
				"energy": -0.23561,
				"method": "rhf"
			},
			{
				"type": "occ",
				"energy": -0.2329,
				"method": "rhf"
			},
			{
				"type": "occ",
				"energy": -0.20742,
				"method": "rhf"
			},
			{
				"type": "occ",
				"energy": -0.20643,
				"method": "rhf"
			},
			{
				"type": "unocc",
				"energy": -0.01701,
				"method": "rhf"
			},
			{
				"type": "unocc",
				"energy": -0.01586,
				"method": "rhf"
			},
			{
				"type": "unocc",
				"energy": -0.01228,
				"method": "rhf"
			},
			{
				"type": "unocc",
				"energy": -0.00617,
				"method": "rhf"
			},
			{
				"type": "unocc",
				"energy": 0.00457,
				"method": "rhf"
			}
		],
		"cosmo_sigma_profile": { 
			"-0.025": 0.0,
			"-0.024": 0.0,
			"-0.023": 0.0,
			"-0.022": 0.0,
			"-0.021": 0.0,
			"-0.02": 0.0,
			"-0.019": 0.0,
			"-0.018": 0.0,
			"-0.017": 0.0,
			"-0.016": 0.0,
			"-0.015": 0.0,
			"-0.014": 0.0,
			"-0.013": 0.0,
			"-0.012": 0.0,
			"-0.011": 0.0,
			"-0.01": 0.0,
			"-0.009": 0.0,
			"-0.008": 0.0,
			"-0.007": 3.07809754807,
			"-0.006": 21.5745679388,
			"-0.005": 35.573663138,
			"-0.004": 46.1352966382,
			"-0.003": 68.847128269,
			"-0.002": 57.3487678356,
			"-0.001": 56.4030475531,
			"0.0": 50.7005763532,
			"0.001": 50.0714112332,
			"0.002": 37.8785829975,
			"0.003": 43.041904955,
			"0.004": 51.7238939069,
			"0.005": 42.6136539723,
			"0.006": 12.5627587334,
			"0.007": 4.97589376672,
			"0.008": 5.142054832,
			"0.009": 3.30271125829,
			"0.01": 2.42659177068,
			"0.011": 0.752005090051,
			"0.012": 0.0,
			"0.013": 0.0,
			"0.014": 0.0,
			"0.015": 0.0,
			"0.016": 0.0,
			"0.017": 0.0,
			"0.018": 0.0,
			"0.019": 0.0,
			"0.02": 0.0,
			"0.021": 0.0,
			"0.022": 0.0,
			"0.023": 0.0,
			"0.024": 0.0,
			"0.025": 0.0
		}
	}
}
