{
	 "smiles": "CN(C)C(=O)CN1C=CC2=C1C=CC(N)=C2", 
	 "Tm": 398.15, 
	 "num_atms": 31, 
	 "gaussian": { 
		 "optdone": 1, 
		 "sigma_profile": "yes", 
		 "theory": "DFT", 
		 "functional": "B3LYP", 
		 "basiset": "6-31G**", 
		 "properties": { 
			 "R2extent": 3969.1582, 
			 "electric_dipole_moment_norm": 2.51067030691, 
			 "electric_quadrupole_moment_norm": 17.5994233337, 
			 "total_energy": -705.801841056, 
			 "HOMO_LUMO_gap": 0.17604, 
			 "cosmo_polarized_energy": -17.25, 
			 "cosmo_cavitation_energy": 33.45, 
			 "cosmo_dispersion_energy": -23.6, 
			 "cosmo_repulsion_energy": 1.83, 
			 "cosmo_total_nonelectrostatic_energy": 11.68, 
			 "SMD_solvation_energy": 6.19 
		},
		"coords": [
			{
				"x": -3.9263814215,
				"y": -0.4822209309,
				"z": -1.4604262639,
				"element": "C" 
			},
			{
				"x": -2.5558828683,
				"y": -0.9796730582,
				"z": -1.4525602569,
				"element": "N" 
			},
			{
				"x": -2.3406480778,
				"y": -2.1934992263,
				"z": -0.6810556206,
				"element": "C" 
			},
			{
				"x": -1.5855561844,
				"y": -0.2385056922,
				"z": -2.0695570791,
				"element": "C" 
			},
			{
				"x": -1.836507576,
				"y": 0.7855053365,
				"z": -2.7020859477,
				"element": "O" 
			},
			{
				"x": -0.1160264803,
				"y": -0.7089835128,
				"z": -1.9856071717,
				"element": "C" 
			},
			{
				"x": 0.4495806558,
				"y": -0.7183558495,
				"z": -0.6501509989,
				"element": "N" 
			},
			{
				"x": 1.1266863026,
				"y": -1.7748793717,
				"z": -0.0631551139,
				"element": "C" 
			},
			{
				"x": 1.6151573816,
				"y": -1.40498478,
				"z": 1.1628145913,
				"element": "C" 
			},
			{
				"x": 1.2445691459,
				"y": -0.0324037511,
				"z": 1.3663296735,
				"element": "C" 
			},
			{
				"x": 0.525404939,
				"y": 0.3735374533,
				"z": 0.2100854478,
				"element": "C" 
			},
			{
				"x": 0.0390666511,
				"y": 1.6783369996,
				"z": 0.0681738887,
				"element": "C" 
			},
			{
				"x": 0.2701164482,
				"y": 2.5699675061,
				"z": 1.1066585896,
				"element": "C" 
			},
			{
				"x": 0.9758812659,
				"y": 2.1919921491,
				"z": 2.277470458,
				"element": "C" 
			},
			{
				"x": 1.12189297,
				"y": 3.1233732719,
				"z": 3.3228869286,
				"element": "N" 
			},
			{
				"x": 1.4637022258,
				"y": 0.8909040186,
				"z": 2.4029521583,
				"element": "C" 
			},
			{
				"x": -4.5990910091,
				"y": -1.2285630743,
				"z": -1.9000416229,
				"element": "H" 
			},
			{
				"x": -4.2636111078,
				"y": -0.2721649274,
				"z": -0.43761967,
				"element": "H" 
			},
			{
				"x": -3.9583836049,
				"y": 0.4315403073,
				"z": -2.0505676172,
				"element": "H" 
			},
			{
				"x": -3.0732989963,
				"y": -2.9516759866,
				"z": -0.9825635891,
				"element": "H" 
			},
			{
				"x": -2.4614243191,
				"y": -2.0078973655,
				"z": 0.3939824627,
				"element": "H" 
			},
			{
				"x": -1.3449584715,
				"y": -2.59907434,
				"z": -0.8401020139,
				"element": "H" 
			},
			{
				"x": 0.4280052629,
				"y": -0.0144835406,
				"z": -2.6329326147,
				"element": "H" 
			},
			{
				"x": -0.0068353876,
				"y": -1.7139532542,
				"z": -2.4049896301,
				"element": "H" 
			},
			{
				"x": 1.2096452705,
				"y": -2.718634401,
				"z": -0.5856513073,
				"element": "H" 
			},
			{
				"x": 2.1747345901,
				"y": -2.036306535,
				"z": 1.838566404,
				"element": "H" 
			},
			{
				"x": -0.5011211184,
				"y": 1.9889531245,
				"z": -0.8200291202,
				"element": "H" 
			},
			{
				"x": -0.1044425951,
				"y": 3.5874896178,
				"z": 1.0271922174,
				"element": "H" 
			},
			{
				"x": 1.9020030531,
				"y": 2.9273512656,
				"z": 3.9369674448,
				"element": "H" 
			},
			{
				"x": 1.151930507,
				"y": 4.0855476143,
				"z": 3.0106896583,
				"element": "H" 
			},
			{
				"x": 2.0097925485,
				"y": 0.5962609328,
				"z": 3.296125715,
				"element": "H" 
			}
		],
		 "valence_orbital": [ 
			{
				"type": "occ",
				"energy": -0.26461,
				"method": "rhf"
			},
			{
				"type": "occ",
				"energy": -0.24824,
				"method": "rhf"
			},
			{
				"type": "occ",
				"energy": -0.24284,
				"method": "rhf"
			},
			{
				"type": "occ",
				"energy": -0.19694,
				"method": "rhf"
			},
			{
				"type": "occ",
				"energy": -0.17798,
				"method": "rhf"
			},
			{
				"type": "unocc",
				"energy": -0.00194,
				"method": "rhf"
			},
			{
				"type": "unocc",
				"energy": 0.01382,
				"method": "rhf"
			},
			{
				"type": "unocc",
				"energy": 0.0448,
				"method": "rhf"
			},
			{
				"type": "unocc",
				"energy": 0.07051,
				"method": "rhf"
			},
			{
				"type": "unocc",
				"energy": 0.08369,
				"method": "rhf"
			}
		],
		"cosmo_sigma_profile": { 
			"-0.025": 0.0,
			"-0.024": 0.0,
			"-0.023": 0.0,
			"-0.022": 0.0,
			"-0.021": 0.0,
			"-0.02": 0.0,
			"-0.019": 0.0,
			"-0.018": 0.0,
			"-0.017": 0.0,
			"-0.016": 0.0,
			"-0.015": 0.0,
			"-0.014": 0.0,
			"-0.013": 0.0,
			"-0.012": 0.653215058592,
			"-0.011": 2.72128610175,
			"-0.01": 4.3022893848,
			"-0.009": 5.49358214593,
			"-0.008": 8.00079319673,
			"-0.007": 6.32181973326,
			"-0.006": 8.37980421788,
			"-0.005": 20.8211521529,
			"-0.004": 23.1789416558,
			"-0.003": 23.6460560579,
			"-0.002": 25.3117381764,
			"-0.001": 14.940034417,
			"0.0": 12.8259548865,
			"0.001": 12.6566149325,
			"0.002": 12.1679954867,
			"0.003": 9.59019051085,
			"0.004": 9.11692296686,
			"0.005": 11.6802604695,
			"0.006": 12.2229244913,
			"0.007": 16.5635564293,
			"0.008": 5.30560221689,
			"0.009": 2.6236797711,
			"0.01": 1.84562643042,
			"0.011": 2.32288935353,
			"0.012": 2.59154443629,
			"0.013": 4.04145044411,
			"0.014": 3.65615333211,
			"0.015": 0.79403832402,
			"0.016": 0.807178304146,
			"0.017": 0.0,
			"0.018": 0.0,
			"0.019": 0.0,
			"0.02": 0.0,
			"0.021": 0.0,
			"0.022": 0.0,
			"0.023": 0.0,
			"0.024": 0.0,
			"0.025": 0.0
		}
	}
}
