{
	 "smiles": "ClC1=CC=C(C=C1)C(C=O)C#N", 
	 "Tm": 430.15, 
	 "num_atms": 18, 
	 "gaussian": { 
		 "optdone": 1, 
		 "sigma_profile": "yes", 
		 "theory": "DFT", 
		 "functional": "B3LYP", 
		 "basiset": "6-31G**", 
		 "properties": { 
			 "R2extent": 3493.9915, 
			 "electric_dipole_moment_norm": 1.61616683235, 
			 "electric_quadrupole_moment_norm": 10.7032988219, 
			 "total_energy": -936.701286721, 
			 "HOMO_LUMO_gap": 0.19392, 
			 "cosmo_polarized_energy": -11.2, 
			 "cosmo_cavitation_energy": 25.97, 
			 "cosmo_dispersion_energy": -18.05, 
			 "cosmo_repulsion_energy": 1.45, 
			 "cosmo_total_nonelectrostatic_energy": 9.37, 
			 "SMD_solvation_energy": 6.44 
		},
		"coords": [
			{
				"x": 0.2075430872,
				"y": -0.1042260071,
				"z": -4.0274104266,
				"element": "Cl" 
			},
			{
				"x": 0.1059535341,
				"y": -0.5800947503,
				"z": -2.3422157013,
				"element": "C" 
			},
			{
				"x": -1.0278461359,
				"y": -0.2502095722,
				"z": -1.6020874484,
				"element": "C" 
			},
			{
				"x": -1.1031713501,
				"y": -0.6292189981,
				"z": -0.2611590292,
				"element": "C" 
			},
			{
				"x": -0.0507579164,
				"y": -1.3267830405,
				"z": 0.3385553721,
				"element": "C" 
			},
			{
				"x": 1.0780462867,
				"y": -1.6555856954,
				"z": -0.424013012,
				"element": "C" 
			},
			{
				"x": 1.1637563222,
				"y": -1.2830196568,
				"z": -1.7628840985,
				"element": "C" 
			},
			{
				"x": -0.0981552401,
				"y": -1.7915257398,
				"z": 1.7981334999,
				"element": "C" 
			},
			{
				"x": -0.2640240081,
				"y": -3.3309183677,
				"z": 1.8015990014,
				"element": "C" 
			},
			{
				"x": 0.6694271058,
				"y": -4.0783715861,
				"z": 1.9503677631,
				"element": "O" 
			},
			{
				"x": -1.1747328962,
				"y": -1.1740315822,
				"z": 2.5740843513,
				"element": "C" 
			},
			{
				"x": -2.0497646336,
				"y": -0.7248557039,
				"z": 3.1905308605,
				"element": "N" 
			},
			{
				"x": -1.840589393,
				"y": 0.2974814548,
				"z": -2.0656716048,
				"element": "H" 
			},
			{
				"x": -1.9821471913,
				"y": -0.3638101984,
				"z": 0.3179920745,
				"element": "H" 
			},
			{
				"x": 1.8930853349,
				"y": -2.2126647416,
				"z": 0.0292700213,
				"element": "H" 
			},
			{
				"x": 2.0390533294,
				"y": -1.5332525685,
				"z": -2.351618189,
				"element": "H" 
			},
			{
				"x": 0.8587236541,
				"y": -1.5793575555,
				"z": 2.2877172894,
				"element": "H" 
			},
			{
				"x": -1.2959998896,
				"y": -3.6878556906,
				"z": 1.6096092761,
				"element": "H" 
			}
		],
		 "valence_orbital": [ 
			{
				"type": "occ",
				"energy": -0.34388,
				"method": "rhf"
			},
			{
				"type": "occ",
				"energy": -0.32568,
				"method": "rhf"
			},
			{
				"type": "occ",
				"energy": -0.29095,
				"method": "rhf"
			},
			{
				"type": "occ",
				"energy": -0.28375,
				"method": "rhf"
			},
			{
				"type": "occ",
				"energy": -0.26038,
				"method": "rhf"
			},
			{
				"type": "unocc",
				"energy": -0.06646,
				"method": "rhf"
			},
			{
				"type": "unocc",
				"energy": -0.03839,
				"method": "rhf"
			},
			{
				"type": "unocc",
				"energy": -0.02611,
				"method": "rhf"
			},
			{
				"type": "unocc",
				"energy": 0.00902,
				"method": "rhf"
			},
			{
				"type": "unocc",
				"energy": 0.02036,
				"method": "rhf"
			}
		],
		"cosmo_sigma_profile": { 
			"-0.025": 0.0,
			"-0.024": 0.0,
			"-0.023": 0.0,
			"-0.022": 0.0,
			"-0.021": 0.0,
			"-0.02": 0.0,
			"-0.019": 0.0,
			"-0.018": 0.0,
			"-0.017": 0.0,
			"-0.016": 0.0,
			"-0.015": 0.0,
			"-0.014": 0.0,
			"-0.013": 0.0,
			"-0.012": 0.0,
			"-0.011": 0.228989491466,
			"-0.01": 2.9137103651,
			"-0.009": 6.22364745945,
			"-0.008": 8.23921345134,
			"-0.007": 12.5852556337,
			"-0.006": 12.0968771471,
			"-0.005": 10.2410133085,
			"-0.004": 10.0272699652,
			"-0.003": 9.65324422077,
			"-0.002": 11.0496326639,
			"-0.001": 13.1223110314,
			"0.0": 12.3032786267,
			"0.001": 17.1058140101,
			"0.002": 20.4662732321,
			"0.003": 13.9488344697,
			"0.004": 13.0902610807,
			"0.005": 6.56299875689,
			"0.006": 4.2698672285,
			"0.007": 4.3890863451,
			"0.008": 5.39683630412,
			"0.009": 6.65336095147,
			"0.01": 6.16124450603,
			"0.011": 2.96338218005,
			"0.012": 1.98792918334,
			"0.013": 0.242546378419,
			"0.014": 0.0,
			"0.015": 0.0,
			"0.016": 0.0,
			"0.017": 0.0,
			"0.018": 0.0,
			"0.019": 0.0,
			"0.02": 0.0,
			"0.021": 0.0,
			"0.022": 0.0,
			"0.023": 0.0,
			"0.024": 0.0,
			"0.025": 0.0
		}
	}
}
