{
	 "smiles": "CN1C(=O)C2=C(C=C(N)C=C2)C1=O", 
	 "Tm": 521.15, 
	 "num_atms": 21, 
	 "gaussian": { 
		 "optdone": 1, 
		 "sigma_profile": "yes", 
		 "theory": "DFT", 
		 "functional": "B3LYP", 
		 "basiset": "6-31G**", 
		 "properties": { 
			 "R2extent": 2590.0315, 
			 "electric_dipole_moment_norm": 4.50465561947, 
			 "electric_quadrupole_moment_norm": 21.4118444016, 
			 "total_energy": -607.768822532, 
			 "HOMO_LUMO_gap": 0.15468, 
			 "cosmo_polarized_energy": -15.71, 
			 "cosmo_cavitation_energy": 25.83, 
			 "cosmo_dispersion_energy": -18.97, 
			 "cosmo_repulsion_energy": 1.49, 
			 "cosmo_total_nonelectrostatic_energy": 8.35, 
			 "SMD_solvation_energy": 5.82 
		},
		"coords": [
			{
				"x": -1.2430980562,
				"y": -3.0657045755,
				"z": -1.4279132367,
				"element": "C" 
			},
			{
				"x": -1.0275177498,
				"y": -1.7580087429,
				"z": -0.8398762867,
				"element": "N" 
			},
			{
				"x": -1.1839116788,
				"y": -1.4776175247,
				"z": 0.5365820617,
				"element": "C" 
			},
			{
				"x": -1.5153177315,
				"y": -2.2923832696,
				"z": 1.3767771936,
				"element": "O" 
			},
			{
				"x": -0.8644440943,
				"y": -0.0379229403,
				"z": 0.6866321525,
				"element": "C" 
			},
			{
				"x": -0.537237858,
				"y": 0.478238077,
				"z": -0.570325874,
				"element": "C" 
			},
			{
				"x": -0.1929887783,
				"y": 1.8011548719,
				"z": -0.7614689624,
				"element": "C" 
			},
			{
				"x": -0.1770484334,
				"y": 2.6508892918,
				"z": 0.3691502796,
				"element": "C" 
			},
			{
				"x": 0.2081275882,
				"y": 3.9730699707,
				"z": 0.2403916705,
				"element": "N" 
			},
			{
				"x": -0.5092588113,
				"y": 2.1250517832,
				"z": 1.6393173645,
				"element": "C" 
			},
			{
				"x": -0.8528252517,
				"y": 0.7845510144,
				"z": 1.8071325429,
				"element": "C" 
			},
			{
				"x": -0.6409289176,
				"y": -0.6305480888,
				"z": -1.5703520877,
				"element": "C" 
			},
			{
				"x": -0.4419379269,
				"y": -0.6024876831,
				"z": -2.7702045536,
				"element": "O" 
			},
			{
				"x": -0.3291957248,
				"y": -3.4270987108,
				"z": -1.9078920092,
				"element": "H" 
			},
			{
				"x": -1.5304272942,
				"y": -3.7423661187,
				"z": -0.622182778,
				"element": "H" 
			},
			{
				"x": -2.0373887499,
				"y": -3.0242927964,
				"z": -2.1786814416,
				"element": "H" 
			},
			{
				"x": 0.0599876018,
				"y": 2.1744556564,
				"z": -1.7496673276,
				"element": "H" 
			},
			{
				"x": -0.063915659,
				"y": 4.6059925205,
				"z": 0.9777151632,
				"element": "H" 
			},
			{
				"x": 0.1573307674,
				"y": 4.3775306447,
				"z": -0.6827485468,
				"element": "H" 
			},
			{
				"x": -0.4897257101,
				"y": 2.7880649782,
				"z": 2.5004066591,
				"element": "H" 
			},
			{
				"x": -1.1071775316,
				"y": 0.3934316421,
				"z": 2.7872080165,
				"element": "H" 
			}
		],
		 "valence_orbital": [ 
			{
				"type": "occ",
				"energy": -0.28002,
				"method": "rhf"
			},
			{
				"type": "occ",
				"energy": -0.27367,
				"method": "rhf"
			},
			{
				"type": "occ",
				"energy": -0.26421,
				"method": "rhf"
			},
			{
				"type": "occ",
				"energy": -0.2572,
				"method": "rhf"
			},
			{
				"type": "occ",
				"energy": -0.22224,
				"method": "rhf"
			},
			{
				"type": "unocc",
				"energy": -0.06756,
				"method": "rhf"
			},
			{
				"type": "unocc",
				"energy": -0.02834,
				"method": "rhf"
			},
			{
				"type": "unocc",
				"energy": 0.04377,
				"method": "rhf"
			},
			{
				"type": "unocc",
				"energy": 0.06697,
				"method": "rhf"
			},
			{
				"type": "unocc",
				"energy": 0.08436,
				"method": "rhf"
			}
		],
		"cosmo_sigma_profile": { 
			"-0.025": 0.0,
			"-0.024": 0.0,
			"-0.023": 0.0,
			"-0.022": 0.0,
			"-0.021": 0.0,
			"-0.02": 0.0,
			"-0.019": 0.0,
			"-0.018": 0.0,
			"-0.017": 0.0,
			"-0.016": 0.0,
			"-0.015": 0.0,
			"-0.014": 0.796374200613,
			"-0.013": 3.16478812982,
			"-0.012": 3.6735868737,
			"-0.011": 2.08574555321,
			"-0.01": 3.44320021125,
			"-0.009": 3.55334329157,
			"-0.008": 3.83280868848,
			"-0.007": 5.20624664984,
			"-0.006": 8.69925021467,
			"-0.005": 10.9245585272,
			"-0.004": 13.2658095481,
			"-0.003": 17.290510942,
			"-0.002": 17.465934531,
			"-0.001": 10.2429516691,
			"0.0": 11.976953442,
			"0.001": 12.8125479791,
			"0.002": 13.187346148,
			"0.003": 15.5790089978,
			"0.004": 6.95004255681,
			"0.005": 3.88740344856,
			"0.006": 3.99637549965,
			"0.007": 3.51925040813,
			"0.008": 3.70498109945,
			"0.009": 3.53447350042,
			"0.01": 5.17045992075,
			"0.011": 8.38974484964,
			"0.012": 9.08765788861,
			"0.013": 0.923806217495,
			"0.014": 0.0,
			"0.015": 0.0,
			"0.016": 0.0,
			"0.017": 0.0,
			"0.018": 0.0,
			"0.019": 0.0,
			"0.02": 0.0,
			"0.021": 0.0,
			"0.022": 0.0,
			"0.023": 0.0,
			"0.024": 0.0,
			"0.025": 0.0
		}
	}
}
