{
	 "smiles": "CC(C)C1=CC=C(C=C1)C1=NN=NN1", 
	 "Tm": 460.15, 
	 "num_atms": 26, 
	 "gaussian": { 
		 "optdone": 1, 
		 "sigma_profile": "yes", 
		 "theory": "DFT", 
		 "functional": "B3LYP", 
		 "basiset": "6-31G**", 
		 "properties": { 
			 "R2extent": 4726.047, 
			 "electric_dipole_moment_norm": 6.44764780753, 
			 "electric_quadrupole_moment_norm": 30.1286318976, 
			 "total_energy": -607.26609054, 
			 "HOMO_LUMO_gap": 0.19333, 
			 "cosmo_polarized_energy": -17.56, 
			 "cosmo_cavitation_energy": 29.86, 
			 "cosmo_dispersion_energy": -21.59, 
			 "cosmo_repulsion_energy": 1.69, 
			 "cosmo_total_nonelectrostatic_energy": 9.95, 
			 "SMD_solvation_energy": 3.34 
		},
		"coords": [
			{
				"x": -2.384691598,
				"y": 1.8920782073,
				"z": -0.8050652557,
				"element": "C" 
			},
			{
				"x": -1.8960835735,
				"y": 0.8515828092,
				"z": -1.8310492848,
				"element": "C" 
			},
			{
				"x": -3.0830406467,
				"y": 0.1612517254,
				"z": -2.5300376458,
				"element": "C" 
			},
			{
				"x": -0.9477729031,
				"y": -0.1584051505,
				"z": -1.2013556617,
				"element": "C" 
			},
			{
				"x": 0.3799729397,
				"y": -0.2607931502,
				"z": -1.6356068003,
				"element": "C" 
			},
			{
				"x": 1.2591969539,
				"y": -1.1805208992,
				"z": -1.0680108782,
				"element": "C" 
			},
			{
				"x": 0.8291761479,
				"y": -2.0310105695,
				"z": -0.0403924059,
				"element": "C" 
			},
			{
				"x": -0.5006090971,
				"y": -1.9369725878,
				"z": 0.4030277185,
				"element": "C" 
			},
			{
				"x": -1.3680886333,
				"y": -1.0157644139,
				"z": -0.1708284166,
				"element": "C" 
			},
			{
				"x": 1.714980252,
				"y": -3.0118454584,
				"z": 0.5859564264,
				"element": "C" 
			},
			{
				"x": 1.3912018234,
				"y": -3.8517672001,
				"z": 1.5611136616,
				"element": "N" 
			},
			{
				"x": 2.5047277164,
				"y": -4.5763664509,
				"z": 1.8367921598,
				"element": "N" 
			},
			{
				"x": 3.4942352341,
				"y": -4.223821829,
				"z": 1.0833100807,
				"element": "N" 
			},
			{
				"x": 3.016552777,
				"y": -3.2383691491,
				"z": 0.2864772496,
				"element": "N" 
			},
			{
				"x": -2.9775810511,
				"y": 1.4222749347,
				"z": -0.0128355635,
				"element": "H" 
			},
			{
				"x": -1.5442494075,
				"y": 2.4086183109,
				"z": -0.331379381,
				"element": "H" 
			},
			{
				"x": -3.016522785,
				"y": 2.6428590019,
				"z": -1.2914106498,
				"element": "H" 
			},
			{
				"x": -1.3273243654,
				"y": 1.3893312586,
				"z": -2.6008857622,
				"element": "H" 
			},
			{
				"x": -2.7395710259,
				"y": -0.5539010218,
				"z": -3.2837704857,
				"element": "H" 
			},
			{
				"x": -3.7061137233,
				"y": -0.3831389084,
				"z": -1.8122358481,
				"element": "H" 
			},
			{
				"x": -3.7189766946,
				"y": 0.9017289325,
				"z": -3.0267088277,
				"element": "H" 
			},
			{
				"x": 0.7325214162,
				"y": 0.3901013864,
				"z": -2.43146765,
				"element": "H" 
			},
			{
				"x": 2.28097478,
				"y": -1.225103569,
				"z": -1.4364089528,
				"element": "H" 
			},
			{
				"x": -0.8330649006,
				"y": -2.5952736648,
				"z": 1.1983198243,
				"element": "H" 
			},
			{
				"x": -2.3911860966,
				"y": -0.963539618,
				"z": 0.1906081151,
				"element": "H" 
			},
			{
				"x": 3.6230364611,
				"y": -2.8057329264,
				"z": -0.3936557662,
				"element": "H" 
			}
		],
		 "valence_orbital": [ 
			{
				"type": "occ",
				"energy": -0.31229,
				"method": "rhf"
			},
			{
				"type": "occ",
				"energy": -0.29488,
				"method": "rhf"
			},
			{
				"type": "occ",
				"energy": -0.28001,
				"method": "rhf"
			},
			{
				"type": "occ",
				"energy": -0.26892,
				"method": "rhf"
			},
			{
				"type": "occ",
				"energy": -0.24567,
				"method": "rhf"
			},
			{
				"type": "unocc",
				"energy": -0.05234,
				"method": "rhf"
			},
			{
				"type": "unocc",
				"energy": -0.0197,
				"method": "rhf"
			},
			{
				"type": "unocc",
				"energy": 0.00363,
				"method": "rhf"
			},
			{
				"type": "unocc",
				"energy": 0.04641,
				"method": "rhf"
			},
			{
				"type": "unocc",
				"energy": 0.05555,
				"method": "rhf"
			}
		],
		"cosmo_sigma_profile": { 
			"-0.025": 0.0,
			"-0.024": 0.0,
			"-0.023": 0.0,
			"-0.022": 0.0,
			"-0.021": 0.0,
			"-0.02": 0.0,
			"-0.019": 0.543520870318,
			"-0.018": 1.74004372767,
			"-0.017": 1.49899864165,
			"-0.016": 1.26808302868,
			"-0.015": 1.69979919483,
			"-0.014": 1.42453741113,
			"-0.013": 0.876269080208,
			"-0.012": 0.921306356553,
			"-0.011": 1.26271261854,
			"-0.01": 1.20591213384,
			"-0.009": 1.32123167792,
			"-0.008": 1.45497061038,
			"-0.007": 1.8717574681,
			"-0.006": 5.77181859962,
			"-0.005": 11.6092199635,
			"-0.004": 11.9438258377,
			"-0.003": 22.2167010883,
			"-0.002": 22.4738902302,
			"-0.001": 22.4697020975,
			"0.0": 22.0384238979,
			"0.001": 25.1090041364,
			"0.002": 13.2891154753,
			"0.003": 12.3397526764,
			"0.004": 12.6604113099,
			"0.005": 4.24819730924,
			"0.006": 2.51430681403,
			"0.007": 4.07049398309,
			"0.008": 4.53745143228,
			"0.009": 5.21627865076,
			"0.01": 4.50681382756,
			"0.011": 5.0642375882,
			"0.012": 3.72040173568,
			"0.013": 2.24568634604,
			"0.014": 1.81160722246,
			"0.015": 0.0644790362232,
			"0.016": 0.0,
			"0.017": 0.0,
			"0.018": 0.0,
			"0.019": 0.0,
			"0.02": 0.0,
			"0.021": 0.0,
			"0.022": 0.0,
			"0.023": 0.0,
			"0.024": 0.0,
			"0.025": 0.0
		}
	}
}
