{
	 "smiles": "OC(=O)C1C2=C(OC3=C1C=CC=C3)C=CC=C2", 
	 "Tm": 490.15, 
	 "num_atms": 27, 
	 "gaussian": { 
		 "optdone": 1, 
		 "sigma_profile": "yes", 
		 "theory": "DFT", 
		 "functional": "B3LYP", 
		 "basiset": "6-31G**", 
		 "properties": { 
			 "R2extent": 3898.1906, 
			 "electric_dipole_moment_norm": 3.86438364038, 
			 "electric_quadrupole_moment_norm": 16.7522209274, 
			 "total_energy": -765.197761964, 
			 "HOMO_LUMO_gap": 0.19003, 
			 "cosmo_polarized_energy": -12.8, 
			 "cosmo_cavitation_energy": 30.78, 
			 "cosmo_dispersion_energy": -22.43, 
			 "cosmo_repulsion_energy": 1.7, 
			 "cosmo_total_nonelectrostatic_energy": 10.05, 
			 "SMD_solvation_energy": 6.31 
		},
		"coords": [
			{
				"x": 2.5765233991,
				"y": -0.6192791917,
				"z": -1.4547275062,
				"element": "O" 
			},
			{
				"x": 2.0358727691,
				"y": 0.5382793227,
				"z": -1.0200393403,
				"element": "C" 
			},
			{
				"x": 2.1857695361,
				"y": 1.5663825232,
				"z": -1.6336284621,
				"element": "O" 
			},
			{
				"x": 1.1837430957,
				"y": 0.4691335547,
				"z": 0.2742521405,
				"element": "C" 
			},
			{
				"x": -0.2898399026,
				"y": 0.4331010835,
				"z": -0.1072743352,
				"element": "C" 
			},
			{
				"x": -1.0822794373,
				"y": -0.677370164,
				"z": 0.1969904634,
				"element": "C" 
			},
			{
				"x": -0.6008277816,
				"y": -1.7806633403,
				"z": 0.8720370595,
				"element": "O" 
			},
			{
				"x": 0.6546476828,
				"y": -1.7379817012,
				"z": 1.4175848719,
				"element": "C" 
			},
			{
				"x": 1.5505826878,
				"y": -0.6852414792,
				"z": 1.1849212207,
				"element": "C" 
			},
			{
				"x": 2.8043478716,
				"y": -0.7378371365,
				"z": 1.8172062457,
				"element": "C" 
			},
			{
				"x": 3.16111903,
				"y": -1.8040749119,
				"z": 2.6370679355,
				"element": "C" 
			},
			{
				"x": 2.2529295114,
				"y": -2.8492188659,
				"z": 2.8424002808,
				"element": "C" 
			},
			{
				"x": 1.0017723061,
				"y": -2.8178987793,
				"z": 2.2377383301,
				"element": "C" 
			},
			{
				"x": -2.4301004311,
				"y": -0.7327204542,
				"z": -0.1665677785,
				"element": "C" 
			},
			{
				"x": -3.0004629071,
				"y": 0.3380593808,
				"z": -0.8465985409,
				"element": "C" 
			},
			{
				"x": -2.2281270791,
				"y": 1.4616088051,
				"z": -1.1584606187,
				"element": "C" 
			},
			{
				"x": -0.8861333681,
				"y": 1.5019984408,
				"z": -0.7900602298,
				"element": "C" 
			},
			{
				"x": 2.4031879486,
				"y": -1.3199635711,
				"z": -0.8047494479,
				"element": "H" 
			},
			{
				"x": 1.393926196,
				"y": 1.4189365843,
				"z": 0.7794604164,
				"element": "H" 
			},
			{
				"x": 3.5056792912,
				"y": 0.0765959833,
				"z": 1.6516196971,
				"element": "H" 
			},
			{
				"x": 4.1364211996,
				"y": -1.8223335205,
				"z": 3.1125092882,
				"element": "H" 
			},
			{
				"x": 2.5193892865,
				"y": -3.6874568537,
				"z": 3.4790357455,
				"element": "H" 
			},
			{
				"x": 0.2744148988,
				"y": -3.6084991107,
				"z": 2.3885733454,
				"element": "H" 
			},
			{
				"x": -3.0035430495,
				"y": -1.6157671051,
				"z": 0.0949136808,
				"element": "H" 
			},
			{
				"x": -4.0477762197,
				"y": 0.2966319968,
				"z": -1.1302124544,
				"element": "H" 
			},
			{
				"x": -2.6689101083,
				"y": 2.2993809425,
				"z": -1.6893619407,
				"element": "H" 
			},
			{
				"x": -0.2696264259,
				"y": 2.3573975676,
				"z": -1.0480300669,
				"element": "H" 
			}
		],
		 "valence_orbital": [ 
			{
				"type": "occ",
				"energy": -0.28364,
				"method": "rhf"
			},
			{
				"type": "occ",
				"energy": -0.26995,
				"method": "rhf"
			},
			{
				"type": "occ",
				"energy": -0.26614,
				"method": "rhf"
			},
			{
				"type": "occ",
				"energy": -0.25107,
				"method": "rhf"
			},
			{
				"type": "occ",
				"energy": -0.22252,
				"method": "rhf"
			},
			{
				"type": "unocc",
				"energy": -0.03249,
				"method": "rhf"
			},
			{
				"type": "unocc",
				"energy": -0.02645,
				"method": "rhf"
			},
			{
				"type": "unocc",
				"energy": -0.01071,
				"method": "rhf"
			},
			{
				"type": "unocc",
				"energy": 0.01069,
				"method": "rhf"
			},
			{
				"type": "unocc",
				"energy": 0.01922,
				"method": "rhf"
			}
		],
		"cosmo_sigma_profile": { 
			"-0.025": 0.0,
			"-0.024": 0.0,
			"-0.023": 0.0,
			"-0.022": 0.0,
			"-0.021": 0.0,
			"-0.02": 0.0,
			"-0.019": 0.0,
			"-0.018": 0.0,
			"-0.017": 0.0,
			"-0.016": 0.0424024742727,
			"-0.015": 0.475048925996,
			"-0.014": 0.697356752042,
			"-0.013": 0.985527163054,
			"-0.012": 1.64690066828,
			"-0.011": 0.887965092147,
			"-0.01": 0.97567789004,
			"-0.009": 1.37262423935,
			"-0.008": 2.35476705708,
			"-0.007": 8.42434875117,
			"-0.006": 16.5337742973,
			"-0.005": 18.9455158237,
			"-0.004": 19.3856054322,
			"-0.003": 14.455727301,
			"-0.002": 16.1324822291,
			"-0.001": 14.0081664747,
			"0.0": 14.1064813927,
			"0.001": 15.9881979287,
			"0.002": 19.5361223676,
			"0.003": 20.1040650783,
			"0.004": 19.976095572,
			"0.005": 11.4194727329,
			"0.006": 3.41901769387,
			"0.007": 3.73833705117,
			"0.008": 3.39510385429,
			"0.009": 3.86876574579,
			"0.01": 4.65718254096,
			"0.011": 4.34187198767,
			"0.012": 4.12849406238,
			"0.013": 1.02371933923,
			"0.014": 0.0,
			"0.015": 0.0,
			"0.016": 0.0,
			"0.017": 0.0,
			"0.018": 0.0,
			"0.019": 0.0,
			"0.02": 0.0,
			"0.021": 0.0,
			"0.022": 0.0,
			"0.023": 0.0,
			"0.024": 0.0,
			"0.025": 0.0
		}
	}
}
