{
	 "smiles": "CC1=CC=CC=C1C=C1C(=O)OC(C)(C)OC1=O", 
	 "Tm": 415.15, 
	 "num_atms": 32, 
	 "gaussian": { 
		 "optdone": 1, 
		 "sigma_profile": "yes", 
		 "theory": "DFT", 
		 "functional": "B3LYP", 
		 "basiset": "6-31G**", 
		 "properties": { 
			 "R2extent": 5500.7991, 
			 "electric_dipole_moment_norm": 3.10765102771, 
			 "electric_quadrupole_moment_norm": 22.0901833012, 
			 "total_energy": -842.839213076, 
			 "HOMO_LUMO_gap": 0.15358, 
			 "cosmo_polarized_energy": -13.17, 
			 "cosmo_cavitation_energy": 35.27, 
			 "cosmo_dispersion_energy": -25.13, 
			 "cosmo_repulsion_energy": 1.92, 
			 "cosmo_total_nonelectrostatic_energy": 12.07, 
			 "SMD_solvation_energy": 8.01 
		},
		"coords": [
			{
				"x": -1.9656237714,
				"y": 2.7867038054,
				"z": 1.0440922199,
				"element": "C" 
			},
			{
				"x": -0.6378921323,
				"y": 2.2786873717,
				"z": 1.5636925297,
				"element": "C" 
			},
			{
				"x": 0.1790087653,
				"y": 3.1591321852,
				"z": 2.2756624181,
				"element": "C" 
			},
			{
				"x": 1.4163073476,
				"y": 2.7611446999,
				"z": 2.7844878208,
				"element": "C" 
			},
			{
				"x": 1.8613946103,
				"y": 1.455310549,
				"z": 2.58250971,
				"element": "C" 
			},
			{
				"x": 1.0755876698,
				"y": 0.5576647416,
				"z": 1.8686937884,
				"element": "C" 
			},
			{
				"x": -0.1775938801,
				"y": 0.9422804243,
				"z": 1.3420671431,
				"element": "C" 
			},
			{
				"x": -1.0622823184,
				"y": 0.0505778995,
				"z": 0.6079880782,
				"element": "C" 
			},
			{
				"x": -0.966136937,
				"y": -1.1505197107,
				"z": -0.0431498587,
				"element": "C" 
			},
			{
				"x": 0.2117856844,
				"y": -2.0416505024,
				"z": -0.1710160729,
				"element": "C" 
			},
			{
				"x": 1.1959415231,
				"y": -2.0497291816,
				"z": 0.5366752088,
				"element": "O" 
			},
			{
				"x": 0.1365744003,
				"y": -2.9890810799,
				"z": -1.1520342961,
				"element": "O" 
			},
			{
				"x": -0.8715893947,
				"y": -2.9070045724,
				"z": -2.1674083549,
				"element": "C" 
			},
			{
				"x": -0.4978628049,
				"y": -1.8428766792,
				"z": -3.1988922329,
				"element": "C" 
			},
			{
				"x": -0.9869498387,
				"y": -4.3017616111,
				"z": -2.7574991681,
				"element": "C" 
			},
			{
				"x": -2.1483373939,
				"y": -2.6129488339,
				"z": -1.5891670454,
				"element": "O" 
			},
			{
				"x": -2.246404502,
				"y": -1.6046257232,
				"z": -0.6773400897,
				"element": "C" 
			},
			{
				"x": -3.3404282372,
				"y": -1.1597941725,
				"z": -0.412485578,
				"element": "O" 
			},
			{
				"x": -2.0978244011,
				"y": 3.8381215343,
				"z": 1.309991217,
				"element": "H" 
			},
			{
				"x": -2.8132423343,
				"y": 2.2343502695,
				"z": 1.4657783503,
				"element": "H" 
			},
			{
				"x": -2.0412814654,
				"y": 2.7099240446,
				"z": -0.0457180406,
				"element": "H" 
			},
			{
				"x": -0.1628283845,
				"y": 4.1776547181,
				"z": 2.4377678977,
				"element": "H" 
			},
			{
				"x": 2.024555466,
				"y": 3.4698287961,
				"z": 3.3397134463,
				"element": "H" 
			},
			{
				"x": 2.8176883667,
				"y": 1.132070604,
				"z": 2.9823169381,
				"element": "H" 
			},
			{
				"x": 1.4093077415,
				"y": -0.4588907399,
				"z": 1.7164732418,
				"element": "H" 
			},
			{
				"x": -2.0722300759,
				"y": 0.4393615668,
				"z": 0.5118577111,
				"element": "H" 
			},
			{
				"x": -1.2608886142,
				"y": -1.8004636944,
				"z": -3.9798844135,
				"element": "H" 
			},
			{
				"x": -0.4197488088,
				"y": -0.8560001916,
				"z": -2.7350372618,
				"element": "H" 
			},
			{
				"x": 0.4649382073,
				"y": -2.0900022391,
				"z": -3.652601944,
				"element": "H" 
			},
			{
				"x": -1.2557440056,
				"y": -5.0091038484,
				"z": -1.9704087696,
				"element": "H" 
			},
			{
				"x": -0.0319784036,
				"y": -4.6004190485,
				"z": -3.1954989971,
				"element": "H" 
			},
			{
				"x": -1.7591220784,
				"y": -4.3160413811,
				"z": -3.5299255958,
				"element": "H" 
			}
		],
		 "valence_orbital": [ 
			{
				"type": "occ",
				"energy": -0.30177,
				"method": "rhf"
			},
			{
				"type": "occ",
				"energy": -0.28922,
				"method": "rhf"
			},
			{
				"type": "occ",
				"energy": -0.27092,
				"method": "rhf"
			},
			{
				"type": "occ",
				"energy": -0.25648,
				"method": "rhf"
			},
			{
				"type": "occ",
				"energy": -0.24583,
				"method": "rhf"
			},
			{
				"type": "unocc",
				"energy": -0.09225,
				"method": "rhf"
			},
			{
				"type": "unocc",
				"energy": -0.00836,
				"method": "rhf"
			},
			{
				"type": "unocc",
				"energy": -0.00099,
				"method": "rhf"
			},
			{
				"type": "unocc",
				"energy": 0.01064,
				"method": "rhf"
			},
			{
				"type": "unocc",
				"energy": 0.08731,
				"method": "rhf"
			}
		],
		"cosmo_sigma_profile": { 
			"-0.025": 0.0,
			"-0.024": 0.0,
			"-0.023": 0.0,
			"-0.022": 0.0,
			"-0.021": 0.0,
			"-0.02": 0.0,
			"-0.019": 0.0,
			"-0.018": 0.0,
			"-0.017": 0.0,
			"-0.016": 0.0,
			"-0.015": 0.0,
			"-0.014": 0.0,
			"-0.013": 0.0,
			"-0.012": 0.0,
			"-0.011": 0.0,
			"-0.01": 0.0,
			"-0.009": 0.0,
			"-0.008": 0.010746467885,
			"-0.007": 2.09573583659,
			"-0.006": 19.9188596326,
			"-0.005": 29.6222281566,
			"-0.004": 24.9609308083,
			"-0.003": 27.0701366105,
			"-0.002": 27.8794854839,
			"-0.001": 26.0946106492,
			"0.0": 19.7195696863,
			"0.001": 14.6846746551,
			"0.002": 14.5867646489,
			"0.003": 16.2769698038,
			"0.004": 13.1403939842,
			"0.005": 5.35228810108,
			"0.006": 3.08349185474,
			"0.007": 5.41845671958,
			"0.008": 5.24859161963,
			"0.009": 5.67766878504,
			"0.01": 6.40521202344,
			"0.011": 7.7882242606,
			"0.012": 5.02537027805,
			"0.013": 0.826055820764,
			"0.014": 0.0,
			"0.015": 0.0,
			"0.016": 0.0,
			"0.017": 0.0,
			"0.018": 0.0,
			"0.019": 0.0,
			"0.02": 0.0,
			"0.021": 0.0,
			"0.022": 0.0,
			"0.023": 0.0,
			"0.024": 0.0,
			"0.025": 0.0
		}
	}
}
