{
	 "smiles": "CC(OC1=CC(Cl)=C(Cl)C=C1)C(O)=O", 
	 "Tm": 399.15, 
	 "num_atms": 22, 
	 "gaussian": { 
		 "optdone": 1, 
		 "sigma_profile": "yes", 
		 "theory": "DFT", 
		 "functional": "B3LYP", 
		 "basiset": "6-31G**", 
		 "properties": { 
			 "R2extent": 4819.1926, 
			 "electric_dipole_moment_norm": 3.22606452043, 
			 "electric_quadrupole_moment_norm": 7.91955785129, 
			 "total_energy": -1493.83288596, 
			 "HOMO_LUMO_gap": 0.20365, 
			 "cosmo_polarized_energy": -11.59, 
			 "cosmo_cavitation_energy": 29.94, 
			 "cosmo_dispersion_energy": -21.54, 
			 "cosmo_repulsion_energy": 1.73, 
			 "cosmo_total_nonelectrostatic_energy": 10.13, 
			 "SMD_solvation_energy": 5.95 
		},
		"coords": [
			{
				"x": 2.8242621433,
				"y": -0.0083888143,
				"z": 1.5744023365,
				"element": "C" 
			},
			{
				"x": 2.066010485,
				"y": -0.6355945011,
				"z": 0.4077430153,
				"element": "C" 
			},
			{
				"x": 0.8715699584,
				"y": -1.3173723172,
				"z": 0.7941605647,
				"element": "O" 
			},
			{
				"x": -0.2247190806,
				"y": -0.647230529,
				"z": 1.2599264633,
				"element": "C" 
			},
			{
				"x": -0.3806707132,
				"y": 0.7417403955,
				"z": 1.2820971644,
				"element": "C" 
			},
			{
				"x": -1.5679334793,
				"y": 1.2997849659,
				"z": 1.769670046,
				"element": "C" 
			},
			{
				"x": -1.7105881868,
				"y": 3.0420482222,
				"z": 1.7746318976,
				"element": "Cl" 
			},
			{
				"x": -2.6022320968,
				"y": 0.4846448658,
				"z": 2.2364247967,
				"element": "C" 
			},
			{
				"x": -4.0963711461,
				"y": 1.1472391096,
				"z": 2.8546081113,
				"element": "Cl" 
			},
			{
				"x": -2.4339666304,
				"y": -0.9041523619,
				"z": 2.2079627517,
				"element": "C" 
			},
			{
				"x": -1.2615645678,
				"y": -1.4675495149,
				"z": 1.7275519404,
				"element": "C" 
			},
			{
				"x": 1.8577069347,
				"y": 0.3350555564,
				"z": -0.7637137959,
				"element": "C" 
			},
			{
				"x": 0.974624361,
				"y": -0.1415379923,
				"z": -1.6612212171,
				"element": "O" 
			},
			{
				"x": 2.4542103403,
				"y": 1.3802087016,
				"z": -0.8988697795,
				"element": "O" 
			},
			{
				"x": 2.2618135291,
				"y": 0.7948411941,
				"z": 2.0531399975,
				"element": "H" 
			},
			{
				"x": 3.7664642554,
				"y": 0.4095363193,
				"z": 1.214181884,
				"element": "H" 
			},
			{
				"x": 3.0360521701,
				"y": -0.7782697679,
				"z": 2.3201484548,
				"element": "H" 
			},
			{
				"x": 2.6768800065,
				"y": -1.4463260264,
				"z": -0.0088628168,
				"element": "H" 
			},
			{
				"x": 0.389720072,
				"y": 1.4151122527,
				"z": 0.9311695429,
				"element": "H" 
			},
			{
				"x": -3.2363095645,
				"y": -1.5378378463,
				"z": 2.5691984652,
				"element": "H" 
			},
			{
				"x": -1.1278088092,
				"y": -2.5431798111,
				"z": 1.701986911,
				"element": "H" 
			},
			{
				"x": 0.919750019,
				"y": 0.5202278992,
				"z": -2.3717367338,
				"element": "H" 
			}
		],
		 "valence_orbital": [ 
			{
				"type": "occ",
				"energy": -0.31343,
				"method": "rhf"
			},
			{
				"type": "occ",
				"energy": -0.30799,
				"method": "rhf"
			},
			{
				"type": "occ",
				"energy": -0.28916,
				"method": "rhf"
			},
			{
				"type": "occ",
				"energy": -0.26224,
				"method": "rhf"
			},
			{
				"type": "occ",
				"energy": -0.23117,
				"method": "rhf"
			},
			{
				"type": "unocc",
				"energy": -0.02752,
				"method": "rhf"
			},
			{
				"type": "unocc",
				"energy": -0.01543,
				"method": "rhf"
			},
			{
				"type": "unocc",
				"energy": -0.01197,
				"method": "rhf"
			},
			{
				"type": "unocc",
				"energy": 0.00306,
				"method": "rhf"
			},
			{
				"type": "unocc",
				"energy": 0.06164,
				"method": "rhf"
			}
		],
		"cosmo_sigma_profile": { 
			"-0.025": 0.0,
			"-0.024": 0.0,
			"-0.023": 0.0,
			"-0.022": 0.0,
			"-0.021": 0.0,
			"-0.02": 0.0,
			"-0.019": 0.638559042422,
			"-0.018": 0.803673822815,
			"-0.017": 1.12038014159,
			"-0.016": 0.810424225579,
			"-0.015": 0.557326094557,
			"-0.014": 0.489726498175,
			"-0.013": 0.721164035881,
			"-0.012": 1.17018750944,
			"-0.011": 0.657984662969,
			"-0.01": 0.760051187584,
			"-0.009": 2.56912434896,
			"-0.008": 6.39837712523,
			"-0.007": 7.42024921735,
			"-0.006": 6.60624574493,
			"-0.005": 12.4690550174,
			"-0.004": 11.6240386836,
			"-0.003": 14.4852348842,
			"-0.002": 14.8986557078,
			"-0.001": 16.0617628229,
			"0.0": 19.829874263,
			"0.001": 24.1963551095,
			"0.002": 24.4435429855,
			"0.003": 18.9750908778,
			"0.004": 20.2078765749,
			"0.005": 10.329940435,
			"0.006": 4.31528014994,
			"0.007": 3.62265062643,
			"0.008": 4.9857860638,
			"0.009": 3.52576172152,
			"0.01": 2.85761207494,
			"0.011": 4.80094602782,
			"0.012": 0.690687946522,
			"0.013": 0.0,
			"0.014": 0.0,
			"0.015": 0.0,
			"0.016": 0.0,
			"0.017": 0.0,
			"0.018": 0.0,
			"0.019": 0.0,
			"0.02": 0.0,
			"0.021": 0.0,
			"0.022": 0.0,
			"0.023": 0.0,
			"0.024": 0.0,
			"0.025": 0.0
		}
	}
}
