{
	 "smiles": "NC1=C(F)C=NC=C1", 
	 "Tm": 348.15, 
	 "num_atms": 13, 
	 "gaussian": { 
		 "optdone": 1, 
		 "sigma_profile": "yes", 
		 "theory": "DFT", 
		 "functional": "B3LYP", 
		 "basiset": "6-31G**", 
		 "properties": { 
			 "R2extent": 1052.9194, 
			 "electric_dipole_moment_norm": 3.63707071831, 
			 "electric_quadrupole_moment_norm": 10.6092549479, 
			 "total_energy": -402.877620267, 
			 "HOMO_LUMO_gap": 0.21941, 
			 "cosmo_polarized_energy": -10.22, 
			 "cosmo_cavitation_energy": 17.46, 
			 "cosmo_dispersion_energy": -13.19, 
			 "cosmo_repulsion_energy": 1.08, 
			 "cosmo_total_nonelectrostatic_energy": 5.34, 
			 "SMD_solvation_energy": 2.16 
		},
		"coords": [
			{
				"x": 0.7559708833,
				"y": -1.919663933,
				"z": 2.493076494,
				"element": "N" 
			},
			{
				"x": 0.1720680004,
				"y": -1.0041395566,
				"z": 1.6447386811,
				"element": "C" 
			},
			{
				"x": 0.5319059997,
				"y": -0.9628097488,
				"z": 0.2890072138,
				"element": "C" 
			},
			{
				"x": 1.5106333441,
				"y": -1.805962671,
				"z": -0.1316793449,
				"element": "F" 
			},
			{
				"x": -0.07369999,
				"y": -0.0879486659,
				"z": -0.5931285489,
				"element": "C" 
			},
			{
				"x": -1.034932761,
				"y": 0.77027115,
				"z": -0.2195273765,
				"element": "N" 
			},
			{
				"x": -1.3886333593,
				"y": 0.7449951765,
				"z": 1.0717771395,
				"element": "C" 
			},
			{
				"x": -0.8319292428,
				"y": -0.101370103,
				"z": 2.0286831117,
				"element": "C" 
			},
			{
				"x": 0.7275001635,
				"y": -1.7150302416,
				"z": 3.4803122464,
				"element": "H" 
			},
			{
				"x": 1.6206604479,
				"y": -2.328657998,
				"z": 2.1710047245,
				"element": "H" 
			},
			{
				"x": 0.2365685828,
				"y": -0.0846651256,
				"z": -1.635975727,
				"element": "H" 
			},
			{
				"x": -2.1674439338,
				"y": 1.4455023781,
				"z": 1.3677229806,
				"element": "H" 
			},
			{
				"x": -1.1725681348,
				"y": -0.0681206609,
				"z": 3.0597884058,
				"element": "H" 
			}
		],
		 "valence_orbital": [ 
			{
				"type": "occ",
				"energy": -0.36965,
				"method": "rhf"
			},
			{
				"type": "occ",
				"energy": -0.34554,
				"method": "rhf"
			},
			{
				"type": "occ",
				"energy": -0.25503,
				"method": "rhf"
			},
			{
				"type": "occ",
				"energy": -0.2518,
				"method": "rhf"
			},
			{
				"type": "occ",
				"energy": -0.22807,
				"method": "rhf"
			},
			{
				"type": "unocc",
				"energy": -0.00866,
				"method": "rhf"
			},
			{
				"type": "unocc",
				"energy": 0.00048,
				"method": "rhf"
			},
			{
				"type": "unocc",
				"energy": 0.0688,
				"method": "rhf"
			},
			{
				"type": "unocc",
				"energy": 0.09969,
				"method": "rhf"
			},
			{
				"type": "unocc",
				"energy": 0.12973,
				"method": "rhf"
			}
		],
		"cosmo_sigma_profile": { 
			"-0.025": 0.0,
			"-0.024": 0.0,
			"-0.023": 0.0,
			"-0.022": 0.0,
			"-0.021": 0.0,
			"-0.02": 0.0,
			"-0.019": 0.0,
			"-0.018": 0.0,
			"-0.017": 0.0,
			"-0.016": 0.0,
			"-0.015": 0.00958425460763,
			"-0.014": 0.907853597601,
			"-0.013": 2.01945269855,
			"-0.012": 2.54869902576,
			"-0.011": 2.47973272326,
			"-0.01": 2.7648092434,
			"-0.009": 1.90032127016,
			"-0.008": 2.7216467004,
			"-0.007": 5.22042122797,
			"-0.006": 7.58527042392,
			"-0.005": 5.98643093134,
			"-0.004": 6.33070275056,
			"-0.003": 6.0655549344,
			"-0.002": 5.82431950436,
			"-0.001": 5.30922032838,
			"0.0": 9.88024253534,
			"0.001": 12.6253057574,
			"0.002": 12.1650324846,
			"0.003": 12.4443661938,
			"0.004": 12.1784395169,
			"0.005": 4.94627345207,
			"0.006": 2.21172299014,
			"0.007": 1.98138292887,
			"0.008": 2.60064427105,
			"0.009": 1.91481394446,
			"0.01": 1.41143203675,
			"0.011": 1.90411382866,
			"0.012": 0.943393576003,
			"0.013": 1.13735775744,
			"0.014": 1.12363779948,
			"0.015": 0.647602869581,
			"0.016": 0.895607712443,
			"0.017": 1.03157240762,
			"0.018": 0.110807399712,
			"0.019": 0.0,
			"0.02": 0.0,
			"0.021": 0.0,
			"0.022": 0.0,
			"0.023": 0.0,
			"0.024": 0.0,
			"0.025": 0.0
		}
	}
}
