{
	 "smiles": "OC(=O)CN1C(=O)CN2C3=C(C=C2C1=O)C=CC=C3", 
	 "Tm": 605.15, 
	 "num_atms": 29, 
	 "gaussian": { 
		 "optdone": 1, 
		 "sigma_profile": "yes", 
		 "theory": "DFT", 
		 "functional": "B3LYP", 
		 "basiset": "6-31G**", 
		 "properties": { 
			 "R2extent": 6288.1805, 
			 "electric_dipole_moment_norm": 4.17022694227, 
			 "electric_quadrupole_moment_norm": 13.9109348607, 
			 "total_energy": -911.850285728, 
			 "HOMO_LUMO_gap": 0.15472, 
			 "cosmo_polarized_energy": -18.64, 
			 "cosmo_cavitation_energy": 34.03, 
			 "cosmo_dispersion_energy": -24.45, 
			 "cosmo_repulsion_energy": 1.85, 
			 "cosmo_total_nonelectrostatic_energy": 11.43, 
			 "SMD_solvation_energy": 7.45 
		},
		"coords": [
			{
				"x": 0.1261071902,
				"y": 2.6221921963,
				"z": 4.1113485277,
				"element": "O" 
			},
			{
				"x": -1.1491167879,
				"y": 2.3578077513,
				"z": 4.4663511061,
				"element": "C" 
			},
			{
				"x": -1.6287798074,
				"y": 2.6719337878,
				"z": 5.5297436277,
				"element": "O" 
			},
			{
				"x": -1.9453782159,
				"y": 1.6661071213,
				"z": 3.3695583226,
				"element": "C" 
			},
			{
				"x": -1.140158021,
				"y": 1.0676433284,
				"z": 2.3095299843,
				"element": "N" 
			},
			{
				"x": -0.4464452691,
				"y": -0.091900308,
				"z": 2.6347457301,
				"element": "C" 
			},
			{
				"x": -0.5272726386,
				"y": -0.5929139685,
				"z": 3.741360213,
				"element": "O" 
			},
			{
				"x": 0.4282174613,
				"y": -0.7522451177,
				"z": 1.5754827576,
				"element": "C" 
			},
			{
				"x": 0.4587439564,
				"y": -0.0568886428,
				"z": 0.3102139598,
				"element": "N" 
			},
			{
				"x": 1.1596225253,
				"y": -0.411888767,
				"z": -0.8201682729,
				"element": "C" 
			},
			{
				"x": 0.8996543759,
				"y": 0.5746275316,
				"z": -1.8186990231,
				"element": "C" 
			},
			{
				"x": 0.0167440789,
				"y": 1.5336759137,
				"z": -1.2395610478,
				"element": "C" 
			},
			{
				"x": -0.2295993273,
				"y": 1.120665721,
				"z": 0.0521210448,
				"element": "C" 
			},
			{
				"x": -1.0689604526,
				"y": 1.7468751407,
				"z": 1.0642944006,
				"element": "C" 
			},
			{
				"x": -1.6915840434,
				"y": 2.7800800662,
				"z": 0.8803483793,
				"element": "O" 
			},
			{
				"x": 1.505795829,
				"y": 0.4387737053,
				"z": -3.0837192074,
				"element": "C" 
			},
			{
				"x": 2.3343524599,
				"y": -0.6468577967,
				"z": -3.3166993565,
				"element": "C" 
			},
			{
				"x": 2.5772882944,
				"y": -1.6109817041,
				"z": -2.311359821,
				"element": "C" 
			},
			{
				"x": 1.9980951034,
				"y": -1.5109187653,
				"z": -1.0539499893,
				"element": "C" 
			},
			{
				"x": 0.5279557337,
				"y": 3.0759270028,
				"z": 4.8713499908,
				"element": "H" 
			},
			{
				"x": -2.5586533321,
				"y": 0.9024849657,
				"z": 3.8483598784,
				"element": "H" 
			},
			{
				"x": -2.5894654176,
				"y": 2.4127634944,
				"z": 2.9009573232,
				"element": "H" 
			},
			{
				"x": 1.4341521552,
				"y": -0.82779153,
				"z": 2.0059550186,
				"element": "H" 
			},
			{
				"x": 0.0534492112,
				"y": -1.775790922,
				"z": 1.4517850863,
				"element": "H" 
			},
			{
				"x": -0.3983852673,
				"y": 2.4208911918,
				"z": -1.6940350535,
				"element": "H" 
			},
			{
				"x": 1.3234719827,
				"y": 1.1759638133,
				"z": -3.8601046326,
				"element": "H" 
			},
			{
				"x": 2.8082776019,
				"y": -0.7645049542,
				"z": -4.286396279,
				"element": "H" 
			},
			{
				"x": 3.2324991839,
				"y": -2.4492622427,
				"z": -2.528600324,
				"element": "H" 
			},
			{
				"x": 2.1898714371,
				"y": -2.2554680126,
				"z": -0.2875123441,
				"element": "H" 
			}
		],
		 "valence_orbital": [ 
			{
				"type": "occ",
				"energy": -0.29286,
				"method": "rhf"
			},
			{
				"type": "occ",
				"energy": -0.27885,
				"method": "rhf"
			},
			{
				"type": "occ",
				"energy": -0.27433,
				"method": "rhf"
			},
			{
				"type": "occ",
				"energy": -0.24075,
				"method": "rhf"
			},
			{
				"type": "occ",
				"energy": -0.2237,
				"method": "rhf"
			},
			{
				"type": "unocc",
				"energy": -0.06898,
				"method": "rhf"
			},
			{
				"type": "unocc",
				"energy": -0.01847,
				"method": "rhf"
			},
			{
				"type": "unocc",
				"energy": 0.00508,
				"method": "rhf"
			},
			{
				"type": "unocc",
				"energy": 0.00761,
				"method": "rhf"
			},
			{
				"type": "unocc",
				"energy": 0.01731,
				"method": "rhf"
			}
		],
		"cosmo_sigma_profile": { 
			"-0.025": 0.0,
			"-0.024": 0.0,
			"-0.023": 0.0,
			"-0.022": 0.0,
			"-0.021": 0.0,
			"-0.02": 0.0,
			"-0.019": 0.415638016548,
			"-0.018": 0.94844914291,
			"-0.017": 0.979833299729,
			"-0.016": 1.18409090425,
			"-0.015": 0.458255731626,
			"-0.014": 0.635046907237,
			"-0.013": 0.294236125106,
			"-0.012": 0.961312640507,
			"-0.011": 1.0159862657,
			"-0.01": 0.549747660245,
			"-0.009": 5.47659617425,
			"-0.008": 11.5287509899,
			"-0.007": 14.1192143508,
			"-0.006": 16.5896138094,
			"-0.005": 17.3818270781,
			"-0.004": 18.4975844723,
			"-0.003": 13.9452243348,
			"-0.002": 11.7196305519,
			"-0.001": 13.3299091156,
			"0.0": 13.5164325244,
			"0.001": 12.6426312148,
			"0.002": 16.485166434,
			"0.003": 19.1439994677,
			"0.004": 18.9795081968,
			"0.005": 15.5476016628,
			"0.006": 7.03095034472,
			"0.007": 4.40533727754,
			"0.008": 4.40772938523,
			"0.009": 4.67728763908,
			"0.01": 7.79039441313,
			"0.011": 12.7468135628,
			"0.012": 5.1303635358,
			"0.013": 0.0389115862281,
			"0.014": 0.0,
			"0.015": 0.0,
			"0.016": 0.0,
			"0.017": 0.0,
			"0.018": 0.0,
			"0.019": 0.0,
			"0.02": 0.0,
			"0.021": 0.0,
			"0.022": 0.0,
			"0.023": 0.0,
			"0.024": 0.0,
			"0.025": 0.0
		}
	}
}
