{
	 "smiles": "CNC(=O)C1=CC(=CC=C1)C(O)=O", 
	 "Tm": 506.15, 
	 "num_atms": 22, 
	 "gaussian": { 
		 "optdone": 1, 
		 "sigma_profile": "yes", 
		 "theory": "DFT", 
		 "functional": "B3LYP", 
		 "basiset": "6-31G**", 
		 "properties": { 
			 "R2extent": 4873.1361, 
			 "electric_dipole_moment_norm": 3.90768745296, 
			 "electric_quadrupole_moment_norm": 30.2919260827, 
			 "total_energy": -628.822942833, 
			 "HOMO_LUMO_gap": 0.18849, 
			 "cosmo_polarized_energy": -20.8, 
			 "cosmo_cavitation_energy": 26.69, 
			 "cosmo_dispersion_energy": -19.32, 
			 "cosmo_repulsion_energy": 1.54, 
			 "cosmo_total_nonelectrostatic_energy": 8.91, 
			 "SMD_solvation_energy": 6.09 
		},
		"coords": [
			{
				"x": -0.9156751597,
				"y": 0.4336890327,
				"z": -2.0504249802,
				"element": "C" 
			},
			{
				"x": -0.8106635879,
				"y": 1.3831503791,
				"z": -0.9509267563,
				"element": "N" 
			},
			{
				"x": 0.1842251505,
				"y": 1.5404210094,
				"z": -0.0225684155,
				"element": "C" 
			},
			{
				"x": -0.0161901515,
				"y": 2.1632664623,
				"z": 1.0171084149,
				"element": "O" 
			},
			{
				"x": 1.5458672277,
				"y": 0.9565611095,
				"z": -0.2995988248,
				"element": "C" 
			},
			{
				"x": 2.1279209452,
				"y": 0.9161342018,
				"z": -1.5681103859,
				"element": "C" 
			},
			{
				"x": 3.430347639,
				"y": 0.4279309196,
				"z": -1.7427310566,
				"element": "C" 
			},
			{
				"x": 4.161072167,
				"y": 0.0016425823,
				"z": -0.6262269097,
				"element": "C" 
			},
			{
				"x": 3.5927444077,
				"y": 0.0603026963,
				"z": 0.6476176105,
				"element": "C" 
			},
			{
				"x": 2.2967659058,
				"y": 0.5406335452,
				"z": 0.811043957,
				"element": "C" 
			},
			{
				"x": 3.9780845778,
				"y": 0.4265421863,
				"z": -3.1398747256,
				"element": "C" 
			},
			{
				"x": 5.0605946175,
				"y": -0.3603647406,
				"z": -3.3773601582,
				"element": "O" 
			},
			{
				"x": 3.4984684104,
				"y": 1.0780295099,
				"z": -4.0380999389,
				"element": "O" 
			},
			{
				"x": -1.9197379109,
				"y": -0.0008889372,
				"z": -2.0574148656,
				"element": "H" 
			},
			{
				"x": -0.7395675768,
				"y": 0.901029532,
				"z": -3.0270585106,
				"element": "H" 
			},
			{
				"x": -0.2002876906,
				"y": -0.3801354211,
				"z": -1.924056835,
				"element": "H" 
			},
			{
				"x": -1.6599223794,
				"y": 1.8520981936,
				"z": -0.6637209345,
				"element": "H" 
			},
			{
				"x": 1.6071570098,
				"y": 1.2814155477,
				"z": -2.4454496211,
				"element": "H" 
			},
			{
				"x": 5.1905260901,
				"y": -0.3349109109,
				"z": -0.7258936958,
				"element": "H" 
			},
			{
				"x": 4.169499637,
				"y": -0.2532189875,
				"z": 1.5122338739,
				"element": "H" 
			},
			{
				"x": 1.8492905688,
				"y": 0.6219575744,
				"z": 1.7957505383,
				"element": "H" 
			},
			{
				"x": 5.2358801027,
				"y": -0.9320854847,
				"z": -2.6175377802,
				"element": "H" 
			}
		],
		 "valence_orbital": [ 
			{
				"type": "occ",
				"energy": -0.28295,
				"method": "rhf"
			},
			{
				"type": "occ",
				"energy": -0.28041,
				"method": "rhf"
			},
			{
				"type": "occ",
				"energy": -0.27235,
				"method": "rhf"
			},
			{
				"type": "occ",
				"energy": -0.25978,
				"method": "rhf"
			},
			{
				"type": "occ",
				"energy": -0.24956,
				"method": "rhf"
			},
			{
				"type": "unocc",
				"energy": -0.06107,
				"method": "rhf"
			},
			{
				"type": "unocc",
				"energy": -0.04207,
				"method": "rhf"
			},
			{
				"type": "unocc",
				"energy": 0.02401,
				"method": "rhf"
			},
			{
				"type": "unocc",
				"energy": 0.05319,
				"method": "rhf"
			},
			{
				"type": "unocc",
				"energy": 0.06321,
				"method": "rhf"
			}
		],
		"cosmo_sigma_profile": { 
			"-0.025": 0.0,
			"-0.024": 0.0,
			"-0.023": 0.0,
			"-0.022": 0.0,
			"-0.021": 0.0,
			"-0.02": 0.0,
			"-0.019": 0.388098337468,
			"-0.018": 1.17402064127,
			"-0.017": 0.741284654525,
			"-0.016": 1.10185137879,
			"-0.015": 1.08555753471,
			"-0.014": 1.05946349264,
			"-0.013": 1.97081354611,
			"-0.012": 2.61698542389,
			"-0.011": 3.15744191328,
			"-0.01": 1.5131908065,
			"-0.009": 2.15605235301,
			"-0.008": 3.0392860179,
			"-0.007": 5.97961496674,
			"-0.006": 11.1059234347,
			"-0.005": 15.9757102445,
			"-0.004": 15.2854984052,
			"-0.003": 17.4030082683,
			"-0.002": 15.2186015837,
			"-0.001": 10.5554530434,
			"0.0": 11.9271818281,
			"0.001": 11.8573787222,
			"0.002": 15.5036015787,
			"0.003": 8.26018439139,
			"0.004": 3.87329063254,
			"0.005": 3.69345321068,
			"0.006": 4.45887908825,
			"0.007": 3.23650666476,
			"0.008": 3.81326477996,
			"0.009": 4.92407897168,
			"0.01": 6.74299714408,
			"0.011": 6.63781935114,
			"0.012": 5.85200535528,
			"0.013": 5.19941996438,
			"0.014": 4.75083931978,
			"0.015": 0.529525895524,
			"0.016": 0.0,
			"0.017": 0.0,
			"0.018": 0.0,
			"0.019": 0.0,
			"0.02": 0.0,
			"0.021": 0.0,
			"0.022": 0.0,
			"0.023": 0.0,
			"0.024": 0.0,
			"0.025": 0.0
		}
	}
}
