{
	 "smiles": "CC1(O)CNC(=O)C1", 
	 "Tm": 413.15, 
	 "num_atms": 17, 
	 "gaussian": { 
		 "optdone": 1, 
		 "sigma_profile": "yes", 
		 "theory": "DFT", 
		 "functional": "B3LYP", 
		 "basiset": "6-31G**", 
		 "properties": { 
			 "R2extent": 1492.5822, 
			 "electric_dipole_moment_norm": 4.49692254325, 
			 "electric_quadrupole_moment_norm": 12.3109684505, 
			 "total_energy": -401.167090098, 
			 "HOMO_LUMO_gap": 0.27396, 
			 "cosmo_polarized_energy": -14.95, 
			 "cosmo_cavitation_energy": 19.64, 
			 "cosmo_dispersion_energy": -14.66, 
			 "cosmo_repulsion_energy": 1.24, 
			 "cosmo_total_nonelectrostatic_energy": 6.22, 
			 "SMD_solvation_energy": 3.44 
		},
		"coords": [
			{
				"x": -0.1450518627,
				"y": 0.9734294952,
				"z": -1.4451432172,
				"element": "C" 
			},
			{
				"x": 0.8773242299,
				"y": -0.0077442131,
				"z": -0.8636715421,
				"element": "C" 
			},
			{
				"x": 1.9835735321,
				"y": 0.6892687817,
				"z": -0.3018986164,
				"element": "O" 
			},
			{
				"x": 0.2112250393,
				"y": -0.9685490773,
				"z": 0.1706493016,
				"element": "C" 
			},
			{
				"x": -0.1945003379,
				"y": -2.0956319552,
				"z": -0.6517210448,
				"element": "N" 
			},
			{
				"x": 0.4983453857,
				"y": -2.2140428127,
				"z": -1.8329719818,
				"element": "C" 
			},
			{
				"x": 0.4019377694,
				"y": -3.1315732739,
				"z": -2.6275390476,
				"element": "O" 
			},
			{
				"x": 1.4029318272,
				"y": -0.9841231073,
				"z": -1.9298807985,
				"element": "C" 
			},
			{
				"x": -0.9939587054,
				"y": 0.4423214945,
				"z": -1.8868168248,
				"element": "H" 
			},
			{
				"x": -0.5375413141,
				"y": 1.6354570483,
				"z": -0.6627966879,
				"element": "H" 
			},
			{
				"x": 0.3212704524,
				"y": 1.5911492993,
				"z": -2.2179998298,
				"element": "H" 
			},
			{
				"x": 1.6399396856,
				"y": 1.393077645,
				"z": 0.2648397651,
				"element": "H" 
			},
			{
				"x": -0.6466250446,
				"y": -0.5107788328,
				"z": 0.6771889156,
				"element": "H" 
			},
			{
				"x": 0.9567734757,
				"y": -1.2471572323,
				"z": 0.9283595145,
				"element": "H" 
			},
			{
				"x": -0.7525014346,
				"y": -2.867519705,
				"z": -0.3152280117,
				"element": "H" 
			},
			{
				"x": 2.4261821556,
				"y": -1.2825743467,
				"z": -1.6748485572,
				"element": "H" 
			},
			{
				"x": 1.4122751466,
				"y": -0.5801092078,
				"z": -2.9444213371,
				"element": "H" 
			}
		],
		 "valence_orbital": [ 
			{
				"type": "occ",
				"energy": -0.3477,
				"method": "rhf"
			},
			{
				"type": "occ",
				"energy": -0.32892,
				"method": "rhf"
			},
			{
				"type": "occ",
				"energy": -0.28067,
				"method": "rhf"
			},
			{
				"type": "occ",
				"energy": -0.25224,
				"method": "rhf"
			},
			{
				"type": "occ",
				"energy": -0.24077,
				"method": "rhf"
			},
			{
				"type": "unocc",
				"energy": 0.03319,
				"method": "rhf"
			},
			{
				"type": "unocc",
				"energy": 0.06073,
				"method": "rhf"
			},
			{
				"type": "unocc",
				"energy": 0.08501,
				"method": "rhf"
			},
			{
				"type": "unocc",
				"energy": 0.11871,
				"method": "rhf"
			},
			{
				"type": "unocc",
				"energy": 0.13189,
				"method": "rhf"
			}
		],
		"cosmo_sigma_profile": { 
			"-0.025": 0.0,
			"-0.024": 0.0,
			"-0.023": 0.0,
			"-0.022": 0.0,
			"-0.021": 0.0,
			"-0.02": 0.0,
			"-0.019": 0.0,
			"-0.018": 0.0,
			"-0.017": 0.0,
			"-0.016": 0.126672912016,
			"-0.015": 0.783701140353,
			"-0.014": 2.38117649621,
			"-0.013": 1.71058927189,
			"-0.012": 2.60609568069,
			"-0.011": 1.95982517129,
			"-0.01": 1.83340245105,
			"-0.009": 1.47766779039,
			"-0.008": 2.68329866408,
			"-0.007": 2.02015695935,
			"-0.006": 4.18224504339,
			"-0.005": 10.1912327654,
			"-0.004": 15.5378345599,
			"-0.003": 16.8885458006,
			"-0.002": 14.8032360189,
			"-0.001": 11.9391601144,
			"0.0": 10.2131169558,
			"0.001": 5.7586776009,
			"0.002": 2.64230563221,
			"0.003": 3.07071074825,
			"0.004": 4.23008208984,
			"0.005": 3.16537905811,
			"0.006": 1.96013095385,
			"0.007": 2.44011277369,
			"0.008": 2.25269056734,
			"0.009": 2.51138443263,
			"0.01": 2.40249632294,
			"0.011": 2.81303536128,
			"0.012": 3.1792022889,
			"0.013": 5.76260738824,
			"0.014": 6.9073658017,
			"0.015": 2.12836382255,
			"0.016": 0.0,
			"0.017": 0.0,
			"0.018": 0.0,
			"0.019": 0.0,
			"0.02": 0.0,
			"0.021": 0.0,
			"0.022": 0.0,
			"0.023": 0.0,
			"0.024": 0.0,
			"0.025": 0.0
		}
	}
}
